# vtk DataFile Version 3.0
File Name: Molecule/sphere_cent/sphere_cent_0-s19.vtk
ASCII
DATASET UNSTRUCTURED_GRID
FIELD FieldData 1
TIME 1 1 double
0.0
POINTS 283 double
0.15192490816 -0.26133042574 -0.95174866915
-0.11724326015 -0.23584030569 -0.96414935589
0.009866646491 0.022528760135 -0.99962830544
0.76061397791 0.38058036566 -0.52556300163
0.55381512642 0.4585147202 -0.69494503736
0.67180389166 0.60291028023 -0.42735689878
0.28194496036 0.50099503994 -0.81809920073
0.41804727912 0.68385398388 -0.59585446119
-0.3168219924 -0.50879615545 0.80006748438
-0.03927449882 -0.52620136738 0.84888809919
-0.14774636924 -0.32757946849 0.93314343691
0.12702228129 -0.28250008821 0.94855713844
-0.93406426907 0.1538477242 0.32157862186
-0.95556545258 -0.13940805197 0.25917422771
-0.86792397499 -0.046226650476 0.49447143078
-0.84081751108 -0.27286198735 0.46727213264
0.024189349264 0.99967420101 -0.0016925078817
-0.22593207657 0.96649652719 -0.11951266229
-0.26234525442 0.95485824347 0.1290782094
-0.46228769422 0.88616871834 -0.021811367944
-0.64019179344 0.58649361134 0.49551165104
-0.53489387035 0.48037567735 0.69503641129
-0.41553261876 0.65621042252 0.62964135408
-0.30047181249 0.52286440134 0.79680579901
-0.52016186714 -0.80582207441 -0.28231501579
-0.31927388906 -0.93465143442 -0.15182976425
-0.5293545723 -0.84806007147 0.0026091486216
-0.2839268446 -0.94826644659 0.14205555618
-0.49441465735 -0.81164312363 0.31029599905
-0.27110436559 -0.85532271862 0.44082260132
-0.0055500748567 -0.99958080053 0.012284843251
-0.016862269491 -0.96790504456 0.24848695099
-0.42975780368 -0.69410079718 0.57754564285
-0.63162076473 -0.62911248207 0.45293882489
-0.56079542637 -0.49890455604 0.66072255373
-0.18709179759 -0.71093207598 0.67782759666
0.20966036618 -0.96649420261 0.14450837672
-0.94576340914 -0.092142358422 -0.31127810478
-0.93687778711 0.14894646406 -0.31620341539
-0.86365890503 0.026826385409 -0.5024510622
-0.83151453733 0.31323486567 -0.45868641138
-0.80184400082 0.53572112322 -0.26429745555
-0.91981011629 0.34753388166 -0.18202768266
-0.2926466167 0.49785688519 -0.81631505489
-0.52989447117 0.45470097661 -0.71568852663
-0.42165127397 0.64827609062 -0.63344073296
-0.66989356279 0.55190515518 -0.49613118172
-0.37192958593 -0.51580673456 -0.77152997255
-0.44462230802 -0.65298801661 -0.6127961874
-0.60526567698 -0.44259080291 -0.66151380539
-0.63414818048 -0.62189525366 -0.45895847678
0.52388828993 -0.00051176722627 0.85176384449
0.45743280649 -0.25755360723 0.85003960133
0.6859292984 -0.15777646005 0.7103356123
0.5871489048 -0.43672981858 0.68153816462
0.34196335077 -0.50163400173 0.79435527325
0.78116208315 -0.33074364066 0.52952504158
0.45885315537 -0.66633856297 0.58757203817
0.68339425325 -0.57540094852 0.44932609797
0.52283400297 -0.78180766106 0.33938610554
0.85908854008 -0.4318459928 0.2742369771
0.71897304058 -0.66617745161 0.19818682969
0.84299862385 -0.53667849302 -0.025196954608
0.86157208681 -0.029005926102 0.5064355135
0.70545721054 0.13046765327 0.69594526291
0.82889765501 0.26032489538 0.49366602302
-0.24993474782 0.037658851594 -0.96613705158
-0.14152547717 0.28542983532 -0.94785803556
-0.39531242847 0.27328288555 -0.87607353926
0.52541744709 -0.84701025486 0.07207826525
-0.043963953853 0.85912901163 0.50962978601
-0.13523127139 0.68298017979 0.7177579999
0.13647024333 0.71317666769 0.68752616644
-0.0037001096644 0.50461733341 0.8633377552
0.29276785254 0.49847850204 0.81595826149
-0.12475376576 0.28506791592 0.94960874319
0.14286378026 0.27778699994 0.94998937845
-0.0035878941417 0.061264507473 0.99686527252
0.41117218137 0.24341700971 0.87759268284
0.2922154963 0.025870405138 0.95468485355
-0.0049812798388 0.51105207205 -0.8595315218
0.12568689883 0.70124030113 -0.70018023252
-0.13803045452 0.68464124203 -0.71569913626
0.23828335106 0.87148803473 0.42856347561
0.39376419783 0.69637006521 0.59898459911
0.13617034256 0.27712646127 -0.95112890005
0.48355561495 0.83416515589 0.26482784748
0.27422457933 0.95157027245 0.13882437348
0.042124729604 0.96292430162 0.26478543878
0.33746150136 -0.51696574688 -0.78573602438
0.45007431507 -0.66760236025 -0.59305417538
0.20720911026 -0.71010577679 -0.67284530401
0.28202921152 -0.83870220184 -0.46591082215
0.50888341665 -0.77529400587 -0.37408185005
-0.021810118109 -0.87427043915 -0.48468840122
0.53187507391 -0.001607221202 -0.84674686193
0.28646156192 0.027448473498 -0.95678132772
0.38981023431 0.2561481297 -0.88447022438
0.086876198649 -0.51267892122 -0.85310530663
0.31153821945 -0.92738759518 -0.20264156163
0.8506026268 0.52563494444 -0.0057897157967
0.67544710636 0.72658932209 -0.12490765005
0.70474439859 0.69436120987 0.14512209594
0.49919643998 0.86647826433 0.0027483729646
0.48480457067 0.83135259151 -0.26836287975
0.22768509388 0.88014823198 -0.41437953711
0.040430124849 0.965069592 -0.25882610679
0.27464666963 0.95125043392 -0.14036591351
0.99841088057 -0.0078604957089 0.05157097429
0.96028238535 0.27542361617 0.044438634068
0.94500803947 0.16709566116 0.28105270863
0.87702137232 0.43183708191 0.20882791281
0.67022329569 -0.19615182281 -0.71573805809
0.46613585949 -0.24840714037 -0.84784686565
0.58249044418 -0.44730472565 -0.67865413427
0.78896576166 -0.33715701103 -0.51363527775
0.81751579046 -0.063830420375 -0.57231962681
0.70605862141 0.060333054513 -0.70551264286
0.90450197458 0.38485696912 -0.18379555643
0.96785306931 0.17447431386 -0.18087390065
0.66673463583 -0.58427578211 -0.46257609129
0.82908737659 -0.47414171696 -0.29631382227
0.71099209785 -0.66244077682 -0.2359058857
0.93303245306 -0.25648549199 -0.25100719929
0.90764844418 -0.12267325819 -0.40126037598
0.9167689085 0.071543470025 -0.39291039109
0.97528100014 -0.045107170939 -0.21529382467
0.82103210688 0.1618271172 -0.54746198654
0.88760226965 0.27075305581 -0.3726323247
0.97506964207 -0.21720224619 -0.040629498661
-0.71533095837 -0.17305020988 0.67694061995
0.55325657129 -0.81791090965 -0.15768118203
0.69608068466 -0.71727138758 -0.02981278114
-0.76348531246 -0.46515715122 0.447932899
-0.7028080821 -0.34999707341 0.61930346489
-0.56680089235 -0.26448258758 0.77966278791
-0.73371917009 0.016139740124 0.67938756943
-0.52979141474 -0.0060987882316 0.84800946712
-0.73184525967 0.15455329418 -0.66369998455
-0.69258636236 0.35558533669 -0.62758976221
-0.5899400115 0.23472741246 -0.77265518904
-0.56797945499 -0.04533745721 -0.82147622108
-0.17081151903 -0.53810340166 -0.82453113794
-0.23502917588 -0.66994357109 -0.7037577033
-0.032658342272 -0.7084518075 -0.70488005877
-0.24523593485 -0.7914172411 -0.55966740847
0.81671839952 0.44997742772 -0.36123165488
0.5840280652 0.21483196318 -0.78279358149
0.70332634449 0.26438170671 -0.65989279747
-0.83640742302 0.31191936135 0.45064008236
-0.82052886486 0.15426935256 0.55040335655
-0.70249980688 0.36194169521 0.61276054382
-0.6751011014 0.17770162225 0.71582651138
-0.51146239042 0.26210576296 0.81810414791
0.79218941927 0.56621587276 -0.22675053775
0.58431780338 0.72954016924 -0.35301885009
-0.29043054581 -0.36528012156 -0.88440448046
-0.35387140512 -0.16854986548 -0.92000812292
-0.48046442866 -0.29940113425 -0.8239081502
-0.33139264584 -0.15349820256 0.93098437786
-0.27241823077 0.018752355129 0.96167737246
-0.11617276073 -0.12805220485 0.98491704464
-0.86203956604 -0.50630903244 0.012210704386
-0.88231992722 -0.40141859651 0.24533388019
-0.96138751507 -0.27124360204 0.043924931437
-0.99880766869 -0.036552835256 0.018790945411
-0.76824396849 -0.58667474985 0.2536213994
-0.88108849525 -0.27806553245 -0.38241547346
-0.83265644312 -0.14661896229 -0.53383529186
-0.98733395338 0.092751502991 -0.1287111491
-0.98483377695 -0.12151286751 -0.1241081953
-0.93731278181 -0.30987656116 -0.159360677
-0.85438537598 -0.44853004813 -0.26149711013
-0.7686611414 -0.45718637109 -0.44706165791
-0.68348640203 -0.20010443032 -0.70163035393
-0.77897632122 -0.29691907763 -0.55176794529
-0.73796820641 -0.61781466007 -0.26908499002
-0.86574137211 0.41804781556 0.27530094981
-0.55300354958 0.81394410133 -0.17805293202
-0.36835899949 0.89782643318 -0.24096798897
-0.53649681807 0.82897335291 0.15809625387
-0.44383999705 0.83634328842 0.32075497508
-0.60601997375 0.72072684765 0.33661404252
-0.67196065187 0.74058544636 -0.0045770332217
-0.69588571787 0.69884753227 0.16518364847
-0.85206115246 0.52328920364 0.0046611921862
-0.70531386137 0.68713122606 -0.17350043356
-0.62100988626 0.70314997435 -0.34639582038
-0.44645121694 0.76219677925 0.46865585446
-0.77453714609 0.4611299634 0.43297508359
-0.77328145504 0.57615596056 0.26449474692
-0.4580270648 0.75335001945 -0.47142624855
-0.47188526392 0.81692707539 -0.33157148957
-0.98569732904 0.10942350328 0.12841391563
-0.93744665384 0.31797027588 0.14211255312
-0.96460843086 0.26302167773 -0.012221393175
-0.30245441198 -0.86785125732 -0.39409732819
-0.45501405001 -0.76223164797 -0.46027827263
0.90115106106 -0.22475585341 0.37066721916
0.95704293251 -0.058909203857 0.28376114368
0.95844328403 -0.22540542483 0.1747508347
0.91832971573 -0.37686160207 -0.12067425251
0.92867892981 -0.36577925086 0.061202492565
-0.29640227556 0.85956501961 -0.41613394022
-0.16779971123 0.93117105961 -0.32363429666
-0.067357286811 0.86197316647 -0.50039488077
-0.26481023431 0.87507456541 0.40448188782
-0.25685402751 0.78648424149 0.56169128418
0.36855471134 -0.89139741659 0.26383772492
0.18857569993 -0.9157692194 0.35445725918
0.3185454905 -0.82458686829 0.46728873253
0.10968771577 -0.82202810049 0.55840879679
-0.26237207651 0.78161221743 -0.56586456299
0.23470187187 -0.69062018394 0.68379664421
0.15283580124 -0.53497922421 0.83049166203
0.29932042956 -0.27784672379 0.91201806068
0.042598038912 -0.69401693344 0.71856415272
0.135858953 -0.9360626936 -0.32440528274
-0.012838870287 -0.97001701593 -0.24242804945
0.13582882285 -0.98427838087 -0.11277527362
-0.66265201569 -0.7370313406 -0.1323954165
-0.150064677 -0.98322671652 -0.10363782197
-0.16190224886 -0.93916898966 -0.3030526042
-0.079372525215 -0.84783256054 0.52349197865
-0.74081122875 -0.036761078984 -0.67073011398
[...]
CELL_DATA 562
SCALARS cell_data_0 double
LOOKUP_TABLE default
2.96180919231e-07
2.46695390579e-07
1.8377586044e-07
6.81379231395e-09
1.06448687326e-07
8.00204877967e-08
1.09699501981e-07
2.49586540212e-08
6.23616390744e-08
1.12870297163e-07
7.91141229306e-08
7.73318880206e-08
1.04519338987e-07
3.15434227553e-07
1.66289862486e-07
1.16747837954e-07
8.45069817661e-08
1.53219399776e-07
9.71358678393e-08
5.92951379831e-08
5.89501630086e-09
7.04614333745e-08
8.76917587914e-08
3.73015477339e-08
1.10486855296e-07
5.56454615233e-08
2.34121694427e-07
6.09283732913e-08
2.9525492867e-09
2.13599691593e-08
2.24395269882e-08
2.39529377233e-08
1.27895089745e-07
2.23272279997e-08
5.09914641887e-08
6.09632549231e-08
4.21506695847e-08
2.32682604122e-08
8.78394603982e-08
2.46095165027e-08
9.73000910289e-09
7.2460752573e-08
1.29057771564e-07
1.78310113082e-08
1.00897501199e-07
5.84665435377e-08
7.3255435317e-10
8.20226442294e-08
2.94110308787e-08
1.50072517255e-07
4.15838276489e-08
1.21834898742e-08
3.29445733e-08
2.43240392963e-08
5.65686501798e-08
1.90341009101e-07
3.27737576983e-08
1.31158060118e-08
1.10959935924e-07
1.36046469322e-07
1.41218584545e-07
2.44636021795e-08
5.6322611305e-08
2.31961661591e-08
4.19194146169e-08
1.56039995408e-07
1.24663718895e-07
2.50619572942e-08
6.04302110021e-08
1.02091102427e-07
6.67364488032e-08
1.36331419848e-07
4.04813171569e-08
1.08489619965e-08
5.66823661649e-08
1.15637733464e-08
7.15342291278e-08
6.8106560097e-08
2.50155406252e-07
8.92996157438e-08
6.20071217015e-08
1.47044513372e-07
7.57742725206e-08
6.01793221504e-08
1.3423701274e-07
1.77267258539e-07
7.84750988034e-08
1.39606044324e-07
1.55849925401e-07
1.07064908185e-07
1.27652573322e-07
9.68573617241e-08
1.54768374891e-07
1.46745902754e-07
3.43930187392e-08
1.89034420851e-07
1.57950174337e-07
5.98638281699e-09
1.12219484541e-07
2.26309295494e-07
1.40598249998e-07
4.17046412102e-08
4.21882480945e-08
8.39642337107e-08
1.23190893135e-07
1.04833352425e-07
4.05766999015e-09
1.67349776444e-07
1.57799945613e-07
6.69974314687e-08
9.26021999014e-09
7.66045169357e-08
1.41147293652e-07
1.05738986e-07
3.06080157203e-08
8.41910774754e-09
4.97969056394e-08
1.06011934156e-07
9.17879815433e-08
3.94498908798e-08
6.44453033067e-08
5.42790433864e-08
2.62566404801e-08
5.16629931628e-09
8.13369129289e-08
2.68933171387e-08
5.71269107674e-08
3.46631527443e-08
4.4825154185e-08
1.48450769452e-08
3.63967157683e-08
4.08830470634e-08
1.48382126611e-07
3.67649876259e-08
1.95740239088e-08
9.33111171521e-09
6.86841131223e-08
3.81279846655e-08
1.27529636179e-07
1.30805381848e-07
6.12985382611e-08
1.4542880818e-08
1.6484147073e-07
1.20012826831e-07
1.02724381562e-07
3.34081875283e-08
9.15254435201e-08
1.03155913738e-07
1.34141797366e-07
7.38103798676e-09
1.08941029187e-07
8.83948950667e-09
1.59163109572e-07
2.17165911677e-08
1.01388041082e-08
9.26248997252e-08
5.5894715003e-08
2.81182131286e-08
1.01137869359e-07
7.78843437469e-08
7.06936974727e-08
3.4673247633e-08
3.15723060851e-08
2.8123732751e-08
9.83510524711e-08
9.61679830508e-08
2.93414860736e-08
5.83290927603e-08
1.03606407256e-07
6.68012079212e-09
1.45333715107e-07
7.21937660877e-08
1.42364361181e-08
3.78313696817e-08
4.614385187e-08
2.42302137498e-07
1.19799099528e-07
1.03666349653e-07
2.45292362899e-10
2.4394950544e-08
1.83929054835e-07
5.86349750531e-08
4.92296657296e-08
2.59894064704e-08
6.12515708319e-08
7.63226375309e-08
2.33275287322e-08
7.51847561438e-08
4.50394613852e-08
5.06453284039e-08
4.19674555781e-08
8.3426384324e-08
6.55216033082e-08
3.49019251834e-09
1.17874328511e-07
8.26139552394e-08
1.76928429479e-08
9.94455608698e-09
8.59486945284e-08
6.35094910122e-08
3.410895001e-08
7.71611307566e-08
7.72963960796e-08
3.95942695813e-08
2.55922452311e-08
6.19041696777e-08
8.82127169631e-08
2.17687059128e-08
3.74668823747e-08
5.29149557097e-08
4.03545964778e-08
6.56236287365e-08
5.73147916933e-08
4.36277671828e-08
5.54014846624e-08
6.18043714654e-08
9.33799535888e-08
4.69294081445e-09
4.8311115224e-08
1.25035911609e-08
2.52486995625e-08
9.05778893389e-09
1.46689481177e-08
5.09334188751e-10
2.15032262211e-08
2.20419562126e-08
3.34102110527e-08
1.51363148846e-07
1.34469552503e-07
1.61311240141e-07
6.50816485248e-08
5.89851048555e-09
1.8077709216e-08
3.41530305612e-08
2.23739546133e-08
1.49243900667e-07
4.26705058988e-08
3.87289090353e-08
2.94069819327e-08
6.09911630447e-08
4.56289339699e-08
7.7675888762e-08
1.01538606556e-07
4.13023447676e-08
4.71865197932e-08
1.06229033036e-07
8.41085516628e-08
1.82621127512e-08
7.06546080979e-08
7.92908313382e-08
2.18533424443e-08
6.29089715152e-08
2.0695036121e-08
4.81092060392e-08
1.27574608864e-07
8.43907714872e-08
9.01729015308e-08
5.93051896043e-08
1.45623065181e-07
8.46339670188e-09
4.90411747998e-08
7.51516331803e-08
3.55952499521e-09
4.48574952972e-08
1.93074604605e-08
6.79362105125e-09
6.77161570636e-08
5.2633187567e-08
3.19488861251e-08
4.24852985972e-08
5.15660102378e-08
1.03855046556e-07
9.2623634771e-08
2.46356394556e-08
6.85452033713e-08
3.78374929886e-08
1.1535610436e-09
7.21748456753e-08
8.7355254094e-08
6.76474340984e-08
6.57252493969e-09
3.82062187957e-08
5.27515080268e-08
9.65700657033e-09
7.79731910641e-08
6.6299286495e-08
2.24300486469e-07
6.79564417394e-09
1.09221978247e-07
4.12706046492e-08
5.54978190094e-08
2.68724751446e-08
5.23637478547e-08
1.22686400541e-07
1.02942091625e-07
1.71593282297e-08
3.67914783548e-08
3.78632026822e-08
3.83990739844e-08
1.4240367903e-08
3.29737840769e-08
3.07164688231e-08
4.03189107839e-08
3.81794831746e-09
1.46268570499e-07
4.50651609569e-09
1.85494030951e-08
4.13124108656e-10
1.06304994824e-09
5.6237315702e-08
2.63616318684e-08
9.13446583849e-09
5.24463721466e-08
3.27253289145e-08
9.58811075332e-08
6.26531653932e-08
2.29645800982e-09
8.3844606102e-09
5.55255693059e-08
5.5334910091e-08
5.67063064236e-08
7.28071836913e-08
7.14701327403e-09
4.75502314301e-09
5.46522194861e-08
4.86373724635e-08
2.29688764296e-08
6.62484462738e-08
9.28869717746e-08
8.87510033344e-08
1.42766098078e-07
9.0699938208e-08
1.33205645122e-08
1.80542962481e-08
2.19894624095e-09
3.42214483533e-08
1.34580654107e-07
2.35709017965e-07
6.71879641942e-08
3.60817121263e-09
7.52464392652e-08
1.13844074087e-07
1.41610313747e-08
3.51964497755e-08
2.46473852817e-08
5.38001018675e-09
5.16939782215e-08
6.89773765517e-09
5.6779279763e-08
3.71048026454e-08
9.82064263782e-08
4.63028683313e-09
2.21743125474e-08
4.81882730137e-08
1.79352381392e-08
3.91327886738e-08
1.69340726998e-08
1.8027463829e-08
3.04495026496e-08
1.8623174806e-08
7.1636803615e-08
4.54058298646e-09
1.13274479175e-08
2.01833758848e-08
6.17507990589e-08
7.48124264577e-08
5.64022046953e-09
6.69858936264e-08
1.77398361881e-08
2.3392677831e-08
1.60742096114e-08
8.15587803219e-09
4.1743977203e-08
1.08854335336e-08
2.62284940177e-08
1.27346085029e-08
4.39947608498e-08
5.87190475856e-08
5.23013621241e-08
7.16615870281e-08
3.37610512649e-10
5.05184247126e-08
3.89175724792e-08
2.64709576371e-08
9.07942103081e-09
4.04269449958e-08
4.66630071331e-08
2.53425351383e-08
1.08735103201e-07
6.71144582042e-08
4.44568674048e-08
4.55320308801e-08
6.82540519426e-08
5.81819497748e-08
1.90657698168e-08
5.22509115254e-08
6.8377212275e-08
5.05304628497e-08
1.14467285802e-08
4.14770284566e-08
2.94176135351e-08
7.70150707646e-09
3.42545352721e-08
4.82627150676e-08
3.8253231425e-08
4.9611360233e-08
3.94218894085e-08
2.37045121829e-08
8.95499713391e-08
2.26032010615e-08
1.11714072653e-07
3.55416376921e-08
3.45765723179e-08
7.71514370529e-09
6.24021911285e-09
4.06633290836e-08
2.43631431461e-08
3.87734234723e-09
8.86759849027e-08
6.07208775977e-09
1.62361586157e-08
5.7817143888e-08
6.38623275268e-08
2.62649600487e-08
5.2426031286e-08
7.91591644651e-08
8.1098922567e-08
1.4862355502e-07
9.82330946551e-09
4.23264914315e-08
3.62791227988e-08
1.86653691025e-10
2.55003863801e-08
1.13236876969e-09
2.84252690597e-08
6.89565052512e-09
8.37881362189e-09
3.67661032914e-08
1.07073545418e-08
2.72322310442e-08
3.46879572467e-08
3.6962500308e-08
8.54833763726e-09
2.75030311996e-09
3.5028294532e-08
5.15835929558e-08
2.98110639286e-08
1.5141915666e-08
4.27692406722e-08
7.36708452946e-08
4.33774591455e-08
2.92014696185e-08
1.79440061892e-08
1.43271399535e-08
2.3921218584e-08
3.87179524006e-08
1.68449666517e-08
5.78589563394e-08
6.82112069227e-10
2.06798276451e-09
3.56473510145e-08
4.08898048544e-08
3.0009847384e-08
2.24191749247e-08
3.07740182559e-08
1.02323082975e-08
2.25381882707e-08
1.19361788248e-07
4.24966966104e-08
3.26113956606e-08
4.3388324899e-08
7.7603319001e-09
3.27127926684e-08
4.54301912272e-08
3.19418863641e-08
2.47579675858e-08
4.62216964635e-08
3.18076317027e-08
5.00401772518e-08
4.20595953557e-08
8.03157764037e-10
1.46126452663e-07
2.35702566568e-09
4.20471580233e-08
3.31740566722e-08
3.89468577409e-09
1.08727777864e-08
4.50793156129e-08
5.32135438831e-09
4.06959556931e-08
3.57891914918e-08
3.02598603668e-07
1.84711055845e-08
3.73127601045e-08
2.62964582227e-08
3.81109290309e-08
1.60354997388e-08
4.02650279541e-08
5.36579201691e-08
1.21725037183e-08
3.82638246824e-08
8.86992404089e-09
4.28102167144e-08
5.58643143968e-08
1.37581466636e-08
2.51665514521e-08
1.45075887565e-09
3.03213874257e-08
1.71254344509e-08
9.1122723857e-08
3.14379111526e-08
1.81044665936e-08
6.24711511948e-08
1.01237720647e-08
1.8052808905e-08
2.35296554492e-08
3.46489513049e-08
5.22752884739e-08
2.94986806097e-08
5.07271354951e-08
6.12027417022e-09
1.69981428963e-08
4.09538460678e-08
1.04095380715e-07
7.98264666622e-09
3.77717344907e-08
1.83546554099e-08
1.63998270497e-08
1.19320478103e-09
4.86800916366e-08
1.01579883192e-07
6.32504834359e-08
6.66141443167e-08
1.52499318886e-08
2.03346353862e-08
2.65203978752e-08
2.54449936878e-09
1.54338741019e-08
2.71337130995e-08
2.25821415242e-08
3.80795600513e-08
8.62766254875e-09
6.26150038572e-08
9.95251272731e-09
1.97421730444e-09
2.81253419421e-08
8.9178121058e-08
3.18494889559e-08
6.92370203436e-08
3.44035054538e-08
1.74415689263e-08
3.17448931841e-08
2.46968001103e-08
1.36407783788e-08
5.17358342286e-09
2.80397523064e-08
5.96533880062e-08
1.359776758e-08
3.50302932932e-10
4.76680007965e-08
2.82828358499e-08
1.50296081444e-08

