# vtk DataFile Version 3.0
File Name: Molecule/sphere_cent/sphere_cent_0-s37.vtk
ASCII
DATASET UNSTRUCTURED_GRID
FIELD FieldData 1
TIME 1 1 double
0.0
POINTS 2144 double
-0.79163199663 -0.50431936979 -0.34471848607
-0.75797700882 -0.5902133584 -0.27756538987
-0.82960820198 -0.50211501122 -0.24414530396
-0.32840743661 0.91464710236 -0.23575422168
-0.25490245223 0.95379400253 -0.1587447226
-0.24292182922 0.93118989468 -0.27163273096
-0.86220568419 -0.24784646928 -0.44177508354
-0.83270251751 -0.17390170693 -0.52572858334
-0.79397392273 -0.27840587497 -0.54042357206
-0.80630576611 -0.56534838676 -0.17370912433
0.64324247837 0.49463710189 0.58442473412
0.59790283442 0.45355594158 0.66089874506
0.68720835447 0.3951216042 0.60930389166
-0.56033074856 -0.28961825371 0.77598434687
-0.46050667763 -0.35104638338 0.81526941061
-0.46704563498 -0.25936612487 0.84522873163
-0.25618520379 0.36655601859 0.89442139864
-0.27515974641 0.27320167422 0.92174470425
-0.18561601639 0.29860821366 0.93606704473
-0.77458208799 -0.57997274399 0.25232547522
-0.7339065671 -0.65572422743 0.17714318633
-0.69965177774 -0.65066808462 0.29489651322
0.15870919824 -0.10438268632 0.9817610383
0.17222836614 0.012299383059 0.98496872187
0.07153660804 -0.047119580209 0.99632376432
0.083247467875 -0.075747124851 -0.99363529682
-0.033283613622 -0.084718614817 -0.99584901333
0.030573116615 0.013566959649 -0.99944108725
-0.88189888 0.40846312046 -0.23450753093
-0.9033216238 0.3161174655 -0.28939059377
-0.93148636818 0.3115273416 -0.1878311038
0.51804894209 0.54207664728 0.66163575649
0.52273195982 0.46452054381 0.71481114626
0.62451815605 0.69804245234 -0.35017102957
0.69998431206 0.64406728745 -0.30851718783
0.67328900099 0.61960047483 -0.40334254503
0.45777124166 0.15188537538 -0.87594884634
0.3642129302 0.16396288574 -0.91649246216
0.40053626895 0.2319714278 -0.88642591238
0.30063530803 0.24092485011 -0.92276108265
0.13169588149 0.0099963946268 -0.99121797085
0.099444359541 0.11532155424 -0.98833018541
0.20089042187 0.16667103767 -0.96533209085
0.12341909111 0.2332084775 -0.96453124285
0.31106156111 0.39008370042 -0.86660504341
0.21752214432 0.40320074558 -0.88887584209
0.25156924129 0.48191207647 -0.83922684193
0.58842086792 0.80397772789 0.084036663175
0.51718509197 0.85499489307 0.037852380425
0.50898295641 0.85060870647 0.13158489764
0.24333962798 0.96261394024 0.11860082299
0.22916388512 0.97318953276 0.015524592251
0.15526519716 0.98547339439 0.065370559692
-0.64799851179 0.18769867718 -0.7377269268
-0.57737487555 0.26541861892 -0.77207416296
-0.57396286726 0.15258964896 -0.80453425646
0.43247595429 0.77517455816 0.46048277617
0.38324227929 0.8292530179 0.40631240606
0.33043897152 0.80632537603 0.4901048243
0.40182799101 0.85213446617 -0.33529990911
0.42399325967 0.87433475256 -0.23571057618
0.48886048794 0.82695353031 -0.27762886882
0.30370759964 0.0075557325035 -0.95271885395
0.38733592629 0.012023892254 -0.92179864645
0.35552671552 -0.077413380146 -0.9314430356
0.5102186203 -0.0015155589208 0.85986149311
0.50524383783 -0.10795910656 0.85596197844
0.60072058439 -0.083796128631 0.79502242804
0.58466380835 -0.2093603909 0.78349518776
0.65908402205 -0.16330195963 0.73410093784
0.68996024132 -0.05967900157 0.72109663486
0.59903281927 0.034686289728 0.79969632626
-0.086298637092 0.030671318993 -0.99578338861
-0.0046507390216 0.10643362999 -0.99430459738
-0.20776599646 0.6170321703 0.75901299715
-0.15219281614 0.53671610355 0.82991707325
-0.080397672951 0.58672201633 0.80580341816
-0.051070589572 0.49011018872 0.87015360594
0.32091093063 0.26922482252 0.90777760744
0.36096429825 0.16323746741 0.91815757751
0.41481530666 0.22646541893 0.88126516342
-0.13860011101 0.49637597799 -0.85695582628
-0.089025877416 0.41924658418 -0.90349715948
-0.19683437049 0.41898545623 -0.88634592295
-0.043329101056 0.51245135069 -0.85724288225
0.20987294614 0.87152254581 0.44254907966
0.14896081388 0.91563612223 0.37337219715
0.096749074757 0.88372588158 0.45787894726
0.050203330815 0.91747903824 0.39457303286
0.93093603849 -0.22699384391 -0.28568872809
0.89993995428 -0.25150904059 -0.35604661703
0.92223328352 -0.15793246031 -0.35281920433
-0.13930475712 0.70073145628 0.69966822863
-0.14727078378 0.76699841022 0.62414896488
-0.21688900888 0.71265369654 0.66697531939
0.10611902922 0.71484977007 0.69116926193
0.020869527012 0.69043415785 0.72309350967
0.098445251584 0.6398293376 0.76205414534
0.34546750784 0.36399424076 0.86496263742
0.38680583239 0.42466625571 0.81853544712
0.29537156224 0.4380839467 0.84896218777
-0.063613958657 0.32752791047 -0.942681849
0.020864918828 0.38990220428 -0.9205968976
0.23640979826 0.91852849722 0.31677493453
0.26364254951 0.8831551671 0.38777974248
-0.43858522177 -0.87758809328 -0.19344639778
-0.46063914895 -0.88179004192 -0.10142505169
-0.52566099167 -0.8336482048 -0.16930039227
-0.36609256268 -0.91933721304 -0.14311116934
-0.43311676383 -0.6820717454 0.58924692869
-0.40118476748 -0.61746871471 0.67654180527
-0.50102800131 -0.59946060181 0.62420326471
-0.47280612588 -0.54067927599 0.69572812319
-0.57008558512 -0.50041633844 0.65159732103
-0.079263262451 0.38612005115 0.91877061129
0.015060579404 0.41698026657 0.90878587961
0.71058619022 -0.46686437726 -0.52640116215
0.64479368925 -0.51140874624 -0.56802386045
0.67801553011 -0.42588794231 -0.59911978245
-0.58634656668 0.55378383398 0.59119457006
-0.58502674103 0.46814927459 0.66226369143
-0.51056534052 0.54551941156 0.66459953785
-0.95247393847 -0.012376542203 0.30374163389
-0.98015069962 0.012893763371 0.19783566892
-0.96854108572 -0.094936929643 0.2298246026
-0.35492011905 -0.9004637599 -0.25138288736
0.95981639624 -0.018857838586 0.27895885706
0.9179341197 -0.048625420779 0.3937189579
0.93417990208 -0.12225073576 0.3350738287
0.87379199266 -0.027779780328 0.48466262221
0.88662689924 -0.11593355983 0.44755610824
-0.24942405522 0.77175790071 0.5849224925
0.30636233091 -0.65005254745 0.69533216953
0.3712208569 -0.69157928228 0.6195936203
0.42102468014 -0.62029635906 0.66176962852
0.46093073487 -0.65782183409 0.5951026082
0.11536420137 0.42934516072 0.89573389292
0.0546121113 0.49320206046 0.86820161343
0.15163137019 0.5111514926 0.84597223997
0.90582120419 0.047756865621 0.41976124048
-0.30691665411 0.6349414587 0.70832079649
-0.31984043121 0.56591796875 0.75973445177
0.25603416562 -0.66467237473 -0.70188653469
0.34986162186 -0.62173831463 -0.7006893158
0.32272833586 -0.70182228088 -0.63485431671
0.4176234901 -0.70246356726 -0.57626134157
0.42269420624 -0.76094084978 -0.49204745889
0.33286902308 -0.76381599903 -0.55297857523
0.85889911652 -0.089398518205 -0.50426149368
0.855496943 -0.17298638821 -0.48804339767
0.81036311388 -0.16409674287 -0.56246054173
-0.72022515535 0.015349984169 0.69357347488
-0.65944927931 -0.04750199616 0.750236094
-0.64468473196 0.055809978396 0.76235949993
-0.49420258403 0.45758095384 -0.73915559053
-0.58559125662 0.42900890112 -0.68776154518
-0.53044217825 0.52074480057 -0.66891729832
-0.66668921709 0.41963687539 -0.61544448137
-0.60973274708 0.49971777201 -0.61522912979
-0.70640546083 0.12427522987 0.6967971921
-0.51336288452 -0.025527883321 0.85778266191
-0.46294796467 -0.10067868233 0.88062006235
-0.42314428091 -0.010188160464 0.90592926741
-0.45372506976 0.87879532576 0.14772549272
-0.47748863697 0.84725928307 0.23273541033
-0.38659256697 0.89479410648 0.22328905761
-0.54199075699 0.82698595524 0.14945739508
-0.41605365276 0.85464704037 0.31056925654
-0.97063672543 0.1171189025 -0.21007350087
-0.96330070496 0.21529200673 -0.15874488652
-0.94166147709 0.2175937593 -0.25672534108
-0.95163345337 0.29424831271 -0.084123305976
-0.9674268961 0.24720716476 0.0468390733
-0.98083376884 0.1914691925 -0.028820987791
-0.98689389229 0.14947174489 0.060743995011
-0.91632515192 0.38457304239 -0.10950628668
0.98576307297 -0.027557807043 0.16585627198
0.9731733799 -0.096781142056 0.20876863599
0.98185360432 -0.14324991405 0.12423207611
-0.2474475354 -0.96197330952 -0.11547441781
-0.18373142183 -0.98156434298 -0.051635824144
-0.26853433251 -0.9626403451 -0.032554790378
-0.52894932032 -0.18507070839 0.82822412252
-0.4320987761 -0.89856982231 0.073985278606
-0.38185015321 -0.91134870052 0.15366660058
-0.45849081874 -0.87443220615 0.15801689029
0.97549748421 0.079158060253 0.20502303541
-0.56125634909 0.57528537512 -0.59497433901
-0.64148902893 0.56183063984 -0.52208065987
-0.65812927485 0.61809271574 -0.42909759283
-0.58917450905 0.64615225792 -0.48493349552
-0.20720529556 -0.42163264751 0.88274425268
-0.11531174183 -0.4410572648 0.89002406597
-0.13607172668 -0.35305717587 0.92564332485
-0.91787493229 -0.29604613781 0.26427897811
-0.88467854261 -0.38149821758 0.26738452911
-0.87978947163 -0.3298111558 0.34195592999
-0.82669848204 -0.53948545456 0.1596583575
-0.83036530018 -0.49641561508 0.25203883648
-0.87721544504 -0.44645905495 0.17655225098
-0.78394562006 -0.51901310682 0.34069231153
-0.7587466836 -0.48546400666 0.43429297209
-0.81688660383 -0.43960231543 0.37264406681
-0.88196289539 -0.15120218694 -0.44609418511
-0.88903522491 -0.3960711062 -0.22945313156
-0.84751862288 -0.42729580402 -0.31482681632
-0.94744634628 -0.27830180526 -0.1573536694
-0.95757269859 -0.20136675239 -0.20601992309
-0.92373621464 -0.28971883655 -0.25046521425
-0.71293479204 0.6767604351 0.18271943927
-0.68713349104 0.72159850597 0.08428298682
-0.75223183632 0.65346121788 0.083616420627
-0.7255500555 0.68812501431 0.0059382342733
-0.66420197487 0.74748021364 -0.010165834799
-0.58417785168 0.79171085358 -0.17865909636
-0.67423462868 0.71236425638 -0.19264391065
-0.6360732913 0.76443785429 -0.10516045988
-0.70267057419 0.70603692532 -0.088246837258
-0.75713849068 0.63918536901 -0.13455368578
-0.72345715761 0.51555252075 0.45901033282
-0.69969683886 0.59913486242 0.3891812861
-0.76358669996 0.52770394087 0.37210381031
-0.75042682886 0.58801466227 0.30060625076
-0.67725223303 0.66642087698 0.31179043651
-0.62218892574 0.67310613394 0.39975631237
-0.5800241828 0.74204075336 0.33604374528
[...]
CELL_DATA 4284
SCALARS cell_data_0 double
LOOKUP_TABLE default
6.10227711745e-09
1.61313690088e-09
4.62623809063e-09
3.18380511085e-09
3.59099798462e-09
7.36543690419e-09
1.32834982977e-09
6.09700992382e-09
3.22762734928e-09
2.91390983531e-09
8.36217867725e-09
2.67943904853e-10
3.50863770988e-09
2.73030934578e-09
3.8811248666e-10
3.92717747091e-09
8.20784121353e-09
6.07439526154e-10
1.70081076601e-09
2.15975360763e-09
6.06080920408e-09
2.44805362733e-09
3.12492519316e-09
5.52627045346e-09
6.68870899159e-10
1.13080429437e-08
1.29039002487e-08
1.27122474317e-08
1.59537321155e-08
5.69181925286e-10
8.62167194589e-09
4.42410319717e-09
1.93615742913e-09
7.58257615199e-10
2.19992314143e-09
1.79875989267e-09
4.33819998324e-09
1.72757489811e-09
3.79312146363e-09
8.0527827512e-09
2.82244162279e-09
6.98898558583e-10
2.17438398284e-09
4.76275708683e-09
1.11451048387e-10
3.77332120353e-09
1.51314738008e-09
7.23583415412e-09
4.61230961217e-09
4.44582687689e-09
4.34779161868e-09
1.1188548167e-09
1.1078289215e-09
8.36269391741e-09
5.70842526939e-09
6.63375486907e-09
1.64245632508e-10
4.52010470783e-09
7.44338816216e-09
4.49417272738e-09
1.79791321262e-11
1.61099426222e-10
2.46011768364e-10
1.28269908726e-09
5.9841910228e-09
2.87812284328e-09
3.83817171599e-09
3.24964313503e-09
2.94099845255e-09
1.42168770188e-09
1.78262352748e-09
4.9186276699e-09
2.88499834491e-09
5.70845561298e-09
2.84095531718e-11
5.70810261046e-10
6.88256004701e-10
7.40820771691e-09
2.48431148025e-09
4.08528772982e-09
2.72292897886e-09
6.74875587217e-09
1.76992579393e-09
1.33425326008e-09
1.31801267896e-09
7.63895835176e-09
2.5822361118e-09
8.69077115203e-09
6.07776725935e-09
3.41196416708e-09
6.24699567541e-09
9.26145335316e-10
1.41839414802e-09
4.8004854659e-09
5.3322119925e-10
2.08649476937e-09
5.65571847133e-10
2.7443699351e-09
1.17299172929e-08
1.7689453656e-09
3.68796829466e-09
2.69021858667e-09
3.77083084913e-09
4.37202043274e-09
1.18085205481e-08
4.35125358881e-09
9.0172504204e-09
3.72337517042e-09
9.68442573641e-10
4.21261237345e-09
1.31768123839e-09
1.85799883412e-10
2.98270013058e-09
3.36091575608e-09
2.66849181869e-09
3.1746384199e-10
4.89845260856e-09
4.59945908842e-09
4.31401745528e-09
4.42969056827e-09
9.49864221777e-10
1.28701883295e-09
1.23401555948e-08
7.65721512003e-09
1.81640225651e-09
1.26772039252e-09
9.16229471578e-09
1.02765744404e-08
5.60991031096e-09
2.07726907275e-09
2.20125192962e-09
2.88131488353e-10
2.13933083732e-09
2.07269560033e-09
1.59523777276e-09
1.68668285054e-09
4.59831653633e-09
6.99587710047e-09
2.69877272471e-10
6.32976488786e-09
4.72126301071e-09
7.64946544263e-09
1.55536073313e-09
1.42456363588e-09
1.24442054837e-10
3.51833067843e-09
3.42523838602e-09
4.51108284641e-09
7.97023254356e-11
1.67920680133e-09
2.58750533421e-09
1.09483068243e-09
5.92122341086e-09
6.30590594431e-10
4.70262434123e-09
1.48667875742e-09
1.9692796067e-09
2.95122608763e-09
4.19970230665e-09
2.05168984431e-09
4.72837794395e-09
8.05007948985e-09
1.10412761225e-10
2.97627025629e-10
2.98207317709e-09
3.4658479413e-09
3.13087595383e-09
1.90407859086e-09
1.0172269786e-09
4.85858440752e-10
2.01245745435e-09
5.04428947206e-09
1.18931285257e-10
9.32783473628e-09
8.27265711252e-09
6.03785612197e-09
1.10679106549e-09
2.56883625901e-09
4.20775835999e-09
2.73645318609e-10
4.31326128736e-10
3.78010907377e-09
2.55808101603e-09
1.2921563307e-10
1.4945117512e-09
2.50167271765e-09
3.72697019632e-09
1.52440213672e-09
1.30293808495e-09
3.66657235922e-09
6.30842217472e-09
3.65809775592e-11
7.88119897706e-10
7.16304737738e-09
4.67928262686e-10
1.85292236917e-09
2.61581996993e-09
2.54857779787e-09
4.92338087545e-09
4.94206961251e-10
6.89856695721e-09
2.10954431599e-10
2.36132213888e-09
1.53472558477e-09
2.18865446224e-09
1.22780795957e-10
4.58904339621e-09
2.82992619566e-10
1.98899631754e-10
4.28714959923e-10
1.96060429305e-09
4.75082350397e-09
7.63875625217e-10
7.03328964072e-09
8.37094020843e-10
2.15164873267e-09
1.30524595027e-09
1.49092390579e-09
2.80852654835e-09
1.67090496018e-09
3.02183427817e-09
2.35786531381e-09
4.68007682947e-09
6.94685557709e-09
8.94614491963e-09
4.49595775814e-09
6.3026258408e-10
1.10381596317e-09
5.32134623538e-10
1.10740520122e-11
3.11761027017e-09
2.73425730016e-09
6.5129419806e-10
7.51282848184e-09
2.38105994849e-09
4.15038518964e-09
3.05187042912e-09
2.45251953824e-09
5.38750251571e-10
1.30998788928e-09
7.40953418869e-10
6.55741409159e-09
1.47031432251e-09
4.35701657507e-10
7.30352243942e-09
1.39052118319e-09
1.4137793257e-09
1.1823904132e-09
3.5226883225e-10
2.18112180449e-09
4.79106980389e-10
6.25856194213e-09
4.83058393929e-09
5.44052639795e-09
9.20894464941e-09
1.98547041191e-09
7.09288431014e-09
1.31636312607e-09
5.13271415452e-09
1.101506664e-09
8.64416502358e-09
4.68276833038e-09
6.03190588327e-10
3.73660308417e-09
2.88761119076e-09
2.65357661108e-09
8.3106911201e-09
2.12423839822e-09
2.77089685918e-09
7.38774904577e-09
5.34296705508e-09
4.56186723372e-09
6.7325617819e-09
2.64869290271e-09
4.18170175374e-10
1.34382964582e-09
4.23164115528e-09
5.11091866062e-09
1.370752101e-09
6.93387016284e-10
1.88344719116e-09
6.89037208663e-11
1.94022135211e-09
2.84908403401e-09
1.24563100045e-09
3.45402167917e-11
1.23417103267e-09
5.45877969348e-10
2.03832799672e-09
3.49722097497e-09
4.58016813528e-09
2.37465461487e-09
2.5547178763e-09
1.68225532688e-09
6.48252920555e-09
4.28645227243e-09
3.4926243429e-09
3.75646875979e-10
3.56667494664e-09
9.65772989245e-10
3.90380612003e-09
1.31372811303e-09
4.57985672548e-09
1.84942086383e-09
3.96798722479e-09
5.90204995836e-10
8.17225085735e-09
5.15711358063e-09
4.88880263125e-09
2.53887204046e-09
2.63784668314e-09
2.06762260196e-10
5.37883595038e-10
3.68656622175e-10
7.08476814762e-11
4.13607822972e-09
1.29439154537e-09
2.75560786642e-09
4.70488721526e-10
1.58193213615e-09
1.25351498232e-09
4.02631200261e-09
1.70655721051e-09
1.50270878875e-10
1.63353828555e-09
1.2627613567e-09
6.3222962205e-10
1.6682263952e-09
8.76733770578e-10
3.05164639475e-09
3.39046347372e-09
5.89842167329e-09
3.07672950801e-09
2.27656919644e-09
3.23913484734e-09
5.45080661655e-10
6.49321778441e-09
1.60236267615e-09
6.75114805234e-10
6.87597088875e-10
1.15664021576e-09
1.52605252539e-09
2.66803273454e-09
4.45989432311e-09
5.6707138917e-09
1.18547042701e-09
1.67468755945e-09
1.13957925742e-09
1.96087119516e-09
1.70744975454e-09
1.43502332608e-09
2.75047387544e-09
5.12044485715e-11
8.81584115391e-10
3.01691939697e-09
3.43539021437e-09
1.61889024639e-09
6.55360556104e-09
4.48347585398e-09
2.19641958588e-09
3.72374615716e-09
4.16388021656e-09
1.9051581812e-09
1.16555092724e-09
3.18478026521e-09
5.85304185707e-09
9.26510120566e-10
6.05227928187e-09
4.16446879019e-09
1.66744884336e-09
5.5457500197e-09
5.15205828268e-09
2.6005472658e-09
2.5903859753e-09
2.49563533957e-09
9.28787392222e-10
4.08755519117e-09
1.16102314231e-09
2.25449606567e-09
1.71804314905e-09
1.00490400344e-09
9.36356510313e-11
2.2889834842e-09
1.7708199848e-09
2.35316745717e-09
4.4531842268e-09
4.97119069402e-09
4.23548612465e-10
5.26987147864e-09
3.47055660418e-09
9.57253018541e-09
3.01466715816e-09
6.85454282589e-10
5.46060635496e-09
4.01678695594e-09
1.59428452998e-09
2.47977661638e-09
8.2984639607e-10
3.41931925696e-09
2.89329646649e-09
7.38700858933e-10
4.97905907207e-10
6.19279626919e-09
4.18829678642e-10
7.09077157525e-09
5.00711828931e-09
1.83134936011e-09
5.51548268359e-09
1.03508071914e-09
4.93055123356e-09
4.61766136068e-09
5.86291638395e-09
1.48580875162e-09
5.9835014228e-09
9.0359765896e-09
6.17643031897e-09
4.65536282291e-10
6.51034787211e-10
1.2498863462e-09
1.6464003525e-10
6.13986321037e-09
3.42145311995e-09
5.76387597316e-09
4.04095427387e-09
8.17625377437e-10
9.43398455506e-10
4.56189002086e-09
3.40349124716e-09
1.32562722959e-09
2.75682140242e-09
1.11325426239e-09
6.08542596618e-09
9.19697274225e-10
2.66150027102e-09
2.55090339122e-09
4.68685861815e-09
2.88216849794e-09
3.7334194226e-09
5.95922306439e-09
2.79177271576e-09
1.59865050087e-09
1.73090491704e-09
4.322830029e-09
3.39294759105e-09
1.0871676071e-09
5.19288427136e-09
4.87972418461e-09
7.20682388224e-09
3.59608072118e-09
4.87153952694e-09
4.4128485651e-09
3.22325872204e-09
2.89275890587e-10
2.60633805229e-09
2.48632439458e-09
2.54771425827e-11
1.14211875676e-09
1.27544224566e-10
1.92643497948e-09
3.30744016979e-09
2.0134552364e-09
9.94537851782e-09
1.63975179007e-09
7.93296445997e-10
4.53396838222e-09
4.97121661608e-09
2.16060885074e-09
3.3544625515e-09
7.20110014908e-09
6.3608724636e-09
1.01920465087e-08
3.44899910005e-09
2.79387892498e-09
2.28054409078e-09
1.76916321413e-09
3.99966013498e-09
9.35167868276e-09
5.54697821812e-09
3.86928452848e-09
2.15315949082e-09
1.95263342361e-10
8.02139953963e-09
7.07449291573e-09
1.37464428436e-09
2.86002648263e-09
1.64362719303e-09
5.3497622298e-09
1.41810283034e-09
3.18568842048e-09
9.38864726316e-09
3.95498113342e-09
3.03970963503e-09
1.5528908949e-09
3.41245759377e-09
1.00185799233e-10
1.8669650061e-09
2.32975585998e-10
6.06670560236e-09
1.55344145071e-09
1.12543814462e-09
6.43071771894e-09
1.27743921527e-09
1.05076765912e-09
1.94964130703e-10
7.78363464021e-09
2.82233325505e-09
2.97508067936e-09
3.89118694609e-11
1.72845989811e-09
1.57138884143e-09
4.65945720881e-10
4.49285300196e-10
5.3438962526e-09
7.43058415376e-09
1.0232589091e-08
7.12972605674e-09
1.63251617207e-09
5.61322037105e-11
1.17153226976e-09
4.43707325617e-09
3.52769777883e-09
6.16566733106e-09
5.17187048624e-10
3.84031607931e-09
4.56091537256e-10
2.76623795339e-09
5.98682075145e-09
3.19372096213e-09
6.63961342006e-10
1.46535079687e-09
5.22279943993e-09
3.09111599485e-09
3.49017725307e-10
5.04742511877e-09
3.36686548196e-09
3.15561722807e-09
1.78751550418e-09
3.20878073871e-09
1.20691635487e-09
5.52680281433e-09
4.79501069962e-09
6.61010879182e-09
4.61199483092e-10
1.93433619337e-09
4.53196211181e-09
1.4597117907e-09
2.14961158331e-09
2.55595068996e-09
9.47938980538e-10
4.51302672995e-09
4.80753110589e-09
7.52978328795e-09
7.63777395509e-09
3.51219204653e-10
2.94574580965e-09
4.66020323556e-09
8.96426368533e-11
5.81345413117e-10
1.14345755576e-10
1.36115891872e-09
1.56087532995e-09
3.25808756961e-10
8.11545034537e-10
1.08931869785e-08
3.73225907509e-09
7.17954687316e-09
3.80389451776e-09
7.84785179577e-09
2.80115544285e-09
1.48772931684e-10
7.76522264777e-09
9.95429917118e-10
2.97771740328e-09
7.94381691361e-10
1.42050924705e-09
1.73285982038e-09
7.06613929545e-10
6.9203183586e-09
2.4976995026e-09
2.10817160545e-09
1.46402163948e-09
5.80482338415e-09
1.57773624318e-09
3.1275568258e-10
3.3005133585e-09
1.42270482068e-09
5.5409400574e-09
1.37843796871e-09
7.36020553005e-10
2.22017499949e-09
2.77091026054e-09
5.38257735242e-10
1.73808345713e-09
2.65198667584e-09
2.51784104009e-09
4.12096683698e-10
2.11830737077e-09
1.41791027292e-09
2.70881145832e-09
7.39931840179e-10
3.6798443174e-09
6.64644530493e-09
4.60528581522e-10
4.75756822206e-10
1.67690185473e-09
5.86256197406e-09
1.77291049155e-09
1.37269369969e-09
2.61553674437e-09
2.25455593291e-10
3.35603445315e-10
1.13310542207e-09
1.94169430335e-09
5.89124007808e-10
1.34889237366e-09
6.51254506588e-09
2.10429387651e-10
8.47740629158e-09
1.19918163519e-08
1.75960071871e-09
1.08269543607e-09
2.79593960095e-09
2.52541345877e-09
1.92997048291e-09
7.43612629089e-10
9.11974010744e-10
8.32314695064e-10
1.36577344963e-09
1.49116509328e-09
1.8138843978e-09
7.78554082805e-10
2.94730370246e-09
3.11005524572e-09
3.17466385787e-09
9.33439973291e-10
3.02578082411e-09
1.25106055999e-09
1.44163627965e-09
1.2566898929e-09
3.2579148477e-10
3.26998538018e-10
4.94357790705e-10
1.62535291531e-09
3.92374375378e-09
1.16720921222e-09
2.65735271279e-09
6.17893124773e-10
2.54633296634e-09
8.26674442554e-09
1.69305286848e-09
5.57083224892e-09
6.37132616978e-10
6.91979740829e-10
5.66312845296e-09
3.81797973704e-09
4.24808753706e-10
6.73275393294e-10
1.50475084281e-09
3.9632971075e-09
1.56906856419e-09
6.64232809786e-09
6.07908852355e-09
1.9518969124e-09
2.90473372664e-09
8.34023996338e-10
1.40170733055e-09
1.54605926883e-09
6.65865064346e-10
1.80949181978e-09
5.6550028946e-09
2.15990722421e-09
3.67587578925e-09
3.74290831745e-09
2.10819394998e-10
8.49075353945e-10
2.00456091109e-09
1.14072218826e-09
1.24222036248e-10
1.51227524817e-09
1.01358134507e-09
7.65888173581e-10
2.57589852453e-09
1.27510646801e-10
3.00468340934e-09
3.04277603356e-09
1.55140208271e-08
1.16504523866e-09
2.84400560219e-09
2.00832830029e-09
3.56149638296e-09
2.03266704393e-09
1.08778986796e-09
6.55358144553e-09
2.96372650928e-09
3.02465158172e-09
1.3633934926e-09
2.69741275364e-09
1.51522133543e-09
2.4973302594e-09
5.90041816527e-09
1.66951935417e-10
5.980451758e-10
1.73948301519e-09
4.40638574458e-09
1.29160389249e-08
3.24600411185e-09
1.64165575575e-09
1.19451341852e-09
1.25972389474e-09
1.11691572371e-09
6.16982943625e-10
3.87719056683e-10
2.04064414558e-09
7.18472548865e-10
6.97315777278e-09
4.31451819238e-09
4.86301477096e-09
5.11687141567e-09
7.28712492235e-10
2.76412386923e-09
1.09216811531e-08
2.76184496315e-09
4.48763514439e-09
4.91325591168e-09
7.3434997058e-10
8.00203223865e-10
9.27052548227e-10
4.0081554291e-09
2.21996215104e-09
1.81678352337e-09
1.79974066201e-09
2.36337265912e-09
6.54246591036e-11
5.22333785385e-09
1.77040407665e-09
3.22766239428e-09
5.12542934508e-09
4.33228977822e-09
2.63907415101e-09
3.05077906037e-10
6.37609754627e-09
6.01876628346e-09
6.3371831913e-09
1.11663319713e-09
1.68031283375e-09
3.30192897086e-09
1.03054415925e-08
3.3998852599e-09
1.09455863003e-09
2.20320746992e-09
5.68275403941e-09
4.41229944338e-09
3.59589656888e-09
1.11663655357e-09
3.44986864406e-09
1.13909240003e-09
2.46632806294e-09
1.52837493229e-09
1.92583996591e-09
1.3008303977e-09
5.17025302147e-09
5.12239759374e-09
3.38548379396e-09
1.32126700584e-09
3.8439255126e-09
5.15896163108e-09
3.87741552469e-09
2.04725516632e-09
2.2595703114e-09
5.60073450007e-09
1.17856095505e-09
6.2247380569e-09
5.54364903634e-11
4.0960024079e-11
1.48306807844e-09
1.69529221346e-10
1.47671797655e-09
3.83085580954e-09
1.21523966981e-09
3.84559224502e-09
4.60500850095e-09
1.33505445151e-09
2.36917750208e-09
1.43546216191e-09
5.99373345939e-10
2.42747239148e-09
2.80361731127e-09
8.87566383169e-11
4.05042030251e-09
3.78881663146e-10
8.05524538042e-10
1.07458902605e-09
7.91748604862e-09
5.52175216698e-09
3.93621248014e-09
2.63345931319e-09
2.55826634389e-09
1.60001299044e-09
1.82333137745e-09
2.12466440269e-09
2.13501217535e-09
1.64903740599e-09
2.2137312751e-09
7.46899931569e-09
7.72500754813e-11
1.58214040975e-09
2.22042380071e-09
3.95837892727e-09
1.04131971117e-09
7.44242754077e-09
2.45416448128e-09
5.72878967215e-09
1.52356320209e-09
1.68521492419e-09
3.88227944081e-09
9.96736642333e-13
1.48977470902e-09
4.10030546539e-09
3.35174519091e-09
3.25921688353e-10
1.39252832095e-09
1.42039371055e-09
3.03122042985e-09
1.69792766851e-09
4.89446971528e-10
5.63007451374e-09
4.67801302419e-09
7.1000172835e-09
1.3224232833e-08
4.20285726009e-09
2.00524054138e-10
6.54895370954e-09
1.72576783152e-09
3.62581933994e-09
1.9660236647e-09
2.95886035959e-09
1.82866134039e-10
1.04643405159e-09
4.53564902002e-09
7.84929310183e-10
6.46815931044e-09
2.90327728411e-09
2.5378218482e-09
2.82589326923e-09
3.03742076726e-09
2.90964193068e-09
2.07276157282e-09
1.45289459088e-09
2.974299435e-09
2.35561471569e-09
1.58092711797e-09
2.91249147644e-10
1.45135838834e-09
6.53870897655e-10
2.25156234383e-09
3.6085947902e-10
2.37032806863e-09
7.10899019801e-10
7.54724743715e-09
6.71829076232e-09
1.87971369327e-09
8.40007862239e-09
8.1111428388e-10
2.97214924031e-09
2.59348821435e-09
9.63427507576e-10
6.59479012565e-09
3.05791982314e-09
5.14557083548e-10
1.50374480583e-09
2.53406396914e-09
7.36993114492e-10
2.58916226166e-09
1.4436988467e-09
2.75867478558e-09
7.32918313733e-09
6.24897684478e-10
1.7418437864e-09
1.23956339063e-09
2.63237658687e-09
1.12545383046e-09
2.97186134235e-09
4.29931335275e-09
1.99882057282e-09
2.27477721741e-09
2.67989805095e-09
8.20699033062e-10
3.92690794846e-10
1.6344241543e-09
6.31234291506e-10
5.31902000212e-09
3.29008811808e-09
2.65620076358e-09
3.33732572219e-09
7.07406289234e-10
9.23755566315e-09
5.22917380286e-09
2.97612181796e-09
2.34874692104e-09
2.0336484835e-11
1.28548990673e-09
1.14364115881e-09
1.66859889844e-09
1.61402207717e-09
2.31930620145e-09
2.55553812672e-09
2.25819707707e-09
3.66091067016e-10
2.24548633723e-09
5.556589971e-10
1.50575763989e-09
1.13262436151e-09
4.52871868293e-09
6.43807632107e-11
2.42113238577e-09
6.59116481675e-09
1.72334420769e-09
4.85206188117e-09
6.74485323772e-10
2.89086017931e-09
8.42900686051e-10
2.54307958517e-09
1.7382369667e-09
7.66651112754e-10
6.87971388586e-09
1.9570263425e-10
3.5233367058e-10
1.9150061292e-09
2.59434164527e-09
1.57784282528e-09
1.89905665741e-12
2.35735577743e-09
4.5407561658e-09
7.05654814388e-10
7.50267363129e-10
2.77238590218e-09
2.10325508614e-09
6.69702858629e-09
2.5775971831e-09
6.12117473768e-09
1.78130289992e-09
1.32775381439e-10
9.85437213036e-09
1.60521566926e-09
5.33844842262e-09
6.70284015687e-09
9.44588673459e-10
2.45932283174e-09
5.38177037258e-10
7.07270279194e-10
2.11706132161e-09
5.50775393569e-09
7.37001495321e-09
1.95464590875e-10
6.37361618603e-09
6.21857420198e-09
4.16144763116e-11
3.10984348027e-09
5.00017264665e-09
9.03844324257e-10
3.78345479105e-10
4.58347568871e-09
4.87464645748e-09
1.18090764295e-09
6.582453523e-10
5.47457737122e-09
5.80526184225e-09
1.72302520566e-09
3.7532590611e-09
5.74145337566e-09
1.35330464282e-09
2.49150661961e-09
1.12119350574e-09
3.19359569249e-09
1.52919020391e-09
2.02301640302e-10
1.0273978473e-09
4.06257998398e-09
6.23229768401e-10
1.09081462704e-09
4.38989750168e-10
4.26187529337e-10
2.46295104165e-09
3.52253121084e-09
1.89306939536e-09
1.18422276249e-08
3.28414725222e-09
2.5753492656e-09
7.71446188213e-10
1.36524461532e-09
9.54403394076e-11
1.29777954062e-09
3.36950793742e-09
5.79291996174e-09
6.75047697799e-09
1.91676515026e-09
2.86102071119e-09
1.00212174583e-09
1.54903187377e-09
2.09947443417e-09
3.21613764848e-09
5.12617420962e-10
3.15060870457e-09
1.02857940414e-09
1.99612046716e-09
2.70522065317e-10
2.63855289262e-09
2.41661321904e-09
2.88619645267e-09
3.34160693596e-09
1.36970272617e-09
8.48412556599e-10
4.25833420455e-09
3.35295260887e-11
3.29921166262e-09
1.2512523859e-09
3.74510802955e-09
1.34022656291e-09
5.95464082853e-10
2.17317911738e-09
1.24438429927e-10
3.13000444052e-10
2.56821779454e-09
3.98441916507e-09
1.90345504962e-09
3.49483798817e-11
3.091262389e-09
1.85554616678e-09
3.06724183119e-09
6.82720996862e-10
3.26343329526e-09
3.0854741158e-09
3.96563131948e-10
2.15610123519e-09
1.10484102522e-09
2.3959240195e-09
1.40616074774e-09
2.04215690342e-09
3.02800018034e-09
2.96909684573e-09
2.65915566534e-09
1.105602821e-10
1.29649279164e-09
2.05764178691e-09
1.36805984622e-09
4.44733924044e-09
2.84085692231e-09
7.61098755166e-10
1.73163963536e-09
1.26517258472e-09
1.85121368251e-09
1.51997016522e-09
3.82476951686e-10
2.49051919893e-09
3.79696132081e-09
3.28502770441e-09
3.67039549351e-09
2.19464419003e-10
1.01576891632e-09
2.24229471512e-09
9.66092816963e-10
2.12486294682e-09
2.48906150687e-09
7.12941112836e-10
1.64453908883e-10
5.04183766657e-10
2.10062503938e-09
5.54573140944e-10
5.40776132548e-09
3.45853049735e-09
1.35456992413e-09
4.15853787046e-09
4.98972229837e-10
1.33825283063e-09
9.37597289706e-10
1.49121778958e-09
1.32378784218e-09
6.75432376043e-10
6.91575436435e-09
3.82917853366e-10
1.58629417137e-10
1.13900367837e-09
1.03754374038e-09
6.41212266045e-10
3.79402161568e-09
2.0623206214e-09
2.76267941296e-09
1.37129239845e-09
1.00880700984e-09
1.83920348808e-09
3.42825906892e-10
5.02481693385e-09
1.25795315673e-09
8.34383055111e-10
3.25996901174e-10
1.89685973103e-09
3.07831561544e-10
2.76117528502e-09
1.57269101557e-09
7.7747091254e-10
4.70049957574e-11
1.14428668797e-09
9.00386957258e-10
1.02583536808e-09
2.87233279737e-09
1.68164148321e-09
1.22648943213e-09
1.0477984298e-09
3.16681539375e-09
2.41267241385e-09
2.68281310077e-09
1.38042217351e-09
1.6424599102e-09
1.14907409954e-09