# vtk DataFile Version 3.0
File Name: Molecule/sphere_cent/sphere_cent_0-s23.vtk
ASCII
DATASET UNSTRUCTURED_GRID
FIELD FieldData 1
TIME 1 1 double
0.0
POINTS 457 double
-0.29874333739 -0.52097457647 0.79883265495
-0.058633435518 -0.53807097673 0.84068316221
-0.13717591763 -0.33799043298 0.93105995655
0.066701412201 -0.25473558903 0.96429681778
0.089848734438 -0.41883969307 0.90313345194
-0.014048021287 0.99950444698 0.0012658531778
-0.21561986208 0.9698600173 -0.1129559949
-0.2919973433 0.95058691502 0.10392373055
-0.45297026634 0.89083975554 -0.032752458006
-0.62738215923 0.59062588215 0.50729840994
-0.51590025425 0.49473255873 0.69807887077
-0.42733183503 0.64159399271 0.63561892509
-0.32168462873 0.5300308466 0.78431981802
-0.22437402606 -0.9665338397 0.12233065814
-0.0074123726226 -0.99964183569 0.025696886703
-0.0049713877961 -0.97204953432 0.23436510563
-0.49771291018 -0.794275105 0.347954005
-0.42272466421 -0.70483708382 0.56821715832
-0.62395608425 -0.63295847178 0.4582284987
-0.29225683212 -0.83962053061 0.45750784874
-0.19426123798 -0.70812940598 0.6786737442
0.18803620338 -0.97180998325 0.14180709422
-0.94375693798 -0.083375670016 -0.31990092993
-0.93416279554 0.14882466197 -0.32433047891
-0.864182055 0.047088868916 -0.50085073709
-0.82467788458 0.28789997101 -0.48675650358
0.54214698076 -0.8349019289 0.093359686434
0.68905311823 -0.69387841225 0.20747004449
0.52652525902 -0.78102523088 0.33385285735
-0.30841201544 0.49055317044 -0.81434804201
-0.40316927433 0.30567485094 -0.86228179932
-0.5235093236 0.45301285386 -0.72159290314
0.35303732753 -0.52992767096 -0.7709184885
0.4488427937 -0.67069935799 -0.59052407742
0.23698870838 -0.67836558819 -0.69517415762
0.51383382082 -0.77235281467 -0.37332421541
0.31753158569 -0.84261733294 -0.43415376544
0.11702475697 -0.54166340828 -0.83213543892
0.33279171586 -0.91562777758 -0.22472785413
0.21599461138 0.89511674643 -0.38954788446
0.036560446024 0.96596616507 -0.25587031245
0.26230600476 0.94708943367 -0.18244552612
0.78275799751 -0.31287679076 -0.53609377146
0.69661492109 -0.15308173001 -0.70079082251
0.81884151697 -0.062496311963 -0.57059907913
0.70717078447 0.0606822595 -0.704462111
0.85636270046 0.51273447275 -0.056712698191
0.94758224487 0.31825125217 0.01133350376
0.90573048592 0.37966483831 -0.18826498091
0.56817471981 -0.48194083571 -0.66558718681
0.8202906251 -0.49971270561 -0.27633857727
0.70480686426 -0.66873961687 -0.23662239313
0.66602009535 -0.59480684996 -0.44848412275
0.83538979292 -0.54646939039 -0.055669333786
0.90673005581 -0.12877395749 -0.40140381455
0.91915601492 0.067764870822 -0.38791465759
0.97632086277 -0.054471354932 -0.20924808085
0.96972161531 0.16914340854 -0.17600549757
0.93685781956 -0.24637208879 -0.24764488637
0.82165759802 0.15766702592 -0.54774218798
0.88996261358 0.26812189817 -0.36881551147
0.78245168924 0.34800344706 -0.51599466801
0.97516214848 -0.21594908834 -0.049377411604
0.9988720417 -0.037173081189 0.028381707147
-0.84496563673 -0.26850071549 0.46234053373
-0.7256385684 -0.16753187776 0.66732364893
-0.85774564743 -0.049371488392 0.50988852978
0.5547530055 -0.81732904911 -0.15559320152
0.69342893362 -0.72001796961 -0.024825859815
-0.5717421174 -0.4953096509 0.65272313356
-0.76126366854 -0.46517726779 0.4516261816
-0.70704901218 -0.3478820622 0.61557018757
-0.58731222153 -0.26752716303 0.76385951042
-0.73816978931 0.01804564707 0.67440623045
-0.53765797615 -0.014087321237 0.8429698348
-0.75674074888 0.1561563164 -0.63442206383
-0.68904316425 0.35035222769 -0.63443255424
-0.67912238836 0.53677493334 -0.50027054548
-0.56885915995 0.26387318969 -0.77849340439
-0.38659083843 -0.50849688053 -0.76919257641
-0.19835469127 -0.54100340605 -0.81709992886
-0.2547737956 -0.66235685349 -0.70442020893
-0.065373450518 -0.66858428717 -0.74046254158
0.81938606501 0.44247555733 -0.36443793774
0.54901027679 -0.019760780036 -0.83546000719
0.58152288198 0.21165604889 -0.78547281027
0.70401906967 0.26340425014 -0.65954482555
0.56383872032 0.42981085181 -0.70478475094
-0.83813631535 0.30843192339 0.44985762239
-0.81668061018 0.15482196212 0.55596417189
-0.71385872364 0.36035609245 0.59977120161
-0.6739461422 0.17568852007 0.71754038334
-0.92517310381 0.17063096166 0.33601492643
-0.51688790321 0.25808060169 0.8154027462
-0.43120780587 -0.65254372358 -0.62213236094
0.80713737011 0.54217505455 -0.23335550725
0.68907719851 0.59290313721 -0.41641950607
-0.1615305841 -0.23861989379 -0.95754295588
-0.30095082521 -0.36371478438 -0.88150852919
-0.35771551728 -0.17251737416 -0.91773408651
-0.49369224906 -0.30069208145 -0.81591135263
-0.56520050764 -0.071504898369 -0.82186067104
-0.31696781516 -0.15672421455 0.93542295694
-0.26738449931 0.010253313929 0.96351146698
-0.11456421018 -0.12934443355 0.98495727777
-0.035470806062 0.082093589008 0.99583947659
-0.86972564459 -0.49305555224 0.019831074402
-0.88779377937 -0.38712581992 0.2486564815
-0.96118438244 -0.27070978284 0.052769713104
-0.95527273417 -0.15077345073 0.25296407938
-0.9976952076 -0.056190151721 0.034842200577
-0.78089588881 -0.5627155304 0.27083954215
-0.87812715769 -0.28853976727 -0.38144594431
-0.83655369282 -0.1448802352 -0.5282959938
-0.98817783594 0.088928289711 -0.12484143674
-0.98475176096 -0.12572529912 -0.12018509209
-0.93781530857 -0.30682462454 -0.16217152774
-0.85063427687 -0.45955330133 -0.25503519177
-0.76317596436 -0.46817219257 -0.44515872002
-0.67576998472 -0.21721087396 -0.70440590382
-0.61154609919 -0.43148547411 -0.6631976366
-0.77035534382 -0.31045597792 -0.55660951138
-0.73847723007 -0.61314320564 -0.2805082798
-0.23847514391 0.00096282921731 -0.97066068649
-0.86651068926 0.41375049949 0.27936267853
-0.55959326029 0.80899012089 -0.17998738587
-0.36610370874 0.90142756701 -0.23097658157
-0.53808254004 0.82952231169 0.14928336442
-0.42982923985 0.84675782919 0.31307682395
-0.60297262669 0.72585886717 0.33102142811
-0.66148668528 0.7500244379 -0.0074246157892
-0.69626891613 0.69921004772 0.16196247935
-0.84996414185 0.52674287558 0.0088341850787
-0.70759010315 0.68624520302 -0.16834264994
-0.6262486577 0.70170909166 -0.33982658386
-0.44909089804 0.7579048872 0.473046422
-0.77315878868 0.46345859766 0.43293792009
-0.76691359282 0.57984089851 0.2749799192
-0.47209206223 0.8175458312 -0.32977366447
-0.77763402462 0.5689342618 -0.26738271117
-0.98621946573 0.11616609991 0.1085896194
-0.93988907337 0.30803027749 0.14780165255
-0.9642637372 0.26461172104 -0.012390810996
-0.93340748549 0.31685715914 -0.16850961745
-0.44732305408 -0.76110094786 -0.46947753429
-0.28990417719 -0.7766290307 -0.55906790495
-0.30891487002 -0.86355233192 -0.39747965336
0.95991438627 -0.049551874399 0.27312636375
0.95961618423 -0.22272107005 0.17185550928
0.89585721493 -0.24156318605 0.37098115683
0.87191641331 -0.40789878368 0.26899856329
0.91617566347 -0.38154301047 -0.12229934335
0.92781174183 -0.36832481623 0.058925863355
-0.3048325479 0.85859763622 -0.41216242313
-0.17660742998 0.93312519789 -0.31321245432
-0.10013082623 0.86485499144 -0.49160820246
-0.27042320371 0.86735808849 0.41763690114
-0.25080764294 0.78725260496 0.56266742945
-0.063032507896 0.86161118746 0.50278264284
0.36831727624 -0.89025634527 0.26789772511
0.18693500757 -0.91744947433 0.35117989779
0.32724246383 -0.81655442715 0.47540387511
0.12345214188 -0.82313936949 0.55412572622
-0.27600026131 0.77528518438 -0.56796199083
-0.45260849595 0.76218825579 -0.46264141798
0.23069617152 -0.70001906157 0.67503148317
-0.13867220283 0.69186240435 -0.70783287287
0.15395312011 -0.55798840523 0.81540715694
0.033344272524 -0.70168930292 0.71158951521
-0.010524431244 -0.89469951391 -0.44623476267
0.14993777871 -0.93506866693 -0.32089728117
-0.0086422171444 -0.97251969576 -0.2326195538
0.13913652301 -0.98343610764 -0.11559401453
-0.32926857471 -0.93329876661 -0.13811212778
-0.15140405297 -0.98305475712 -0.10341542214
-0.16487959027 -0.93711942434 -0.30743187666
-0.085236519575 -0.83792424202 0.53891247511
-0.74746733904 -0.042335763574 -0.66299289465
-0.78724884987 -0.60297304392 -0.12923513353
-0.71345710754 -0.7006521225 -0.0043644635007
-0.66370028257 -0.73406732082 -0.1436303407
-0.54675650597 -0.83629268408 -0.016466444358
-0.15725114942 -0.84973359108 -0.50298941135
0.48648667336 0.82812619209 0.27791792154
0.45759475231 0.76992851496 0.44468891621
0.59591293335 0.71781736612 0.35997539759
0.55669152737 0.65237599611 0.51428699493
0.3956861496 0.68436783552 0.61211144924
0.68480861187 0.59315341711 0.42330390215
0.51737958193 0.56427896023 0.64334964752
0.64849793911 0.51413285732 0.56134963036
0.60334259272 0.42091628909 0.67736816406
0.76469552517 0.43932697177 0.47130423784
0.716373384 0.35482740402 0.60068124533
0.81861692667 0.26887118816 0.50732177496
-0.45587003231 -0.38445463777 0.80260890722
-0.45385822654 -0.22455871105 0.86229282618
-0.33317741752 -0.33031594753 0.883020401
0.36842384934 -0.92490971088 0.093780383468
0.42373079062 -0.90410035849 -0.053927250206
0.28491175175 -0.95808964968 -0.028651878238
-0.15724366903 -0.92537862062 0.34452083707
-0.36388584971 -0.89606302977 0.25373807549
0.018237683922 -0.90980052948 0.41458812356
0.72239094973 0.14337442815 0.67571926117
-0.11771342903 0.2812230885 0.95148062706
-0.3238081634 0.27798476815 0.9043545723
-0.22263944149 0.1638918519 0.96104121208
-0.39266887307 0.14140015841 0.90868866444
0.89824783802 0.39580622315 0.18986058235
0.86863583326 0.35014855862 0.35017704964
0.95397931337 0.24733360112 0.16935020685
0.73120296001 0.62627696991 0.26970759034
0.60261756182 0.7692039609 0.21199789643
0.78303873539 0.51189231873 0.35332620144
-0.39911520481 0.39507260919 0.82741373777
-0.23178787529 0.40114924312 0.88613057137
-0.6563244462 -0.69904255867 0.28374388814
-0.62920981646 -0.76385211945 0.14352166653
-0.74177771807 -0.65578585863 0.14017032087
0.15241588652 -0.26695048809 -0.95157134533
0.23870585859 -0.40251192451 -0.88350903988
0.010263808072 -0.38308465481 -0.92345279455
0.55016899109 0.6628280282 -0.50785386562
0.5858322978 0.72318667173 -0.36566135287
[...]
CELL_DATA 910
SCALARS cell_data_0 double
LOOKUP_TABLE default
1.12142119603e-07
5.71926213503e-08
1.50375152979e-07
9.09294382077e-08
1.10590430631e-08
2.09433924997e-08
1.10151398377e-07
2.71474952829e-08
4.69321543412e-08
1.11918372771e-07
7.34375502305e-08
1.07531033128e-08
3.29603130412e-08
1.10062471384e-07
4.58365723394e-08
1.04467764908e-07
4.36854463543e-08
6.51416254908e-08
5.96027182455e-08
3.49180999503e-08
1.07707668641e-07
8.64077316659e-08
2.80993622193e-08
2.53962268387e-09
1.91534970744e-07
1.46171327335e-07
2.45419874197e-08
5.4470456992e-08
7.88250985832e-09
1.41325885662e-07
1.03279110697e-10
1.38358953587e-08
2.41735214192e-08
3.30820604958e-08
7.32865687167e-08
7.37455047812e-09
1.07306597096e-08
1.26388519715e-08
4.56070362094e-09
9.90831530883e-08
6.65461313944e-08
1.1227550328e-07
3.09152442921e-08
9.93608601146e-08
2.94268339004e-08
6.34326734632e-08
6.77503606432e-08
4.14704906156e-09
4.29515446229e-08
5.81234879382e-08
7.37526650351e-08
3.73572632541e-08
1.44163135008e-07
1.4763488696e-07
1.62463473941e-09
1.38380452728e-08
2.86215626264e-08
2.79149097478e-08
1.84422913875e-07
5.33901257707e-08
2.45931821896e-08
5.58003441902e-08
1.74277583452e-08
1.89461099353e-08
1.12172197471e-08
3.75080600716e-08
5.41128771867e-09
5.60628117683e-08
2.37827948436e-08
1.15521811516e-08
2.7644343007e-08
1.20560979383e-07
1.33634855146e-07
3.10248334391e-08
7.95657765029e-09
1.17136842619e-08
5.04522362786e-08
1.04825318268e-08
2.25658108673e-08
3.80313906717e-08
4.95828582222e-08
3.27620297428e-08
8.74360912804e-09
1.68680611905e-07
4.95228867296e-08
4.28316064673e-08
4.1173268343e-08
1.80071302073e-08
2.74267359049e-08
1.30502842346e-07
5.98101689598e-08
4.79965389055e-08
6.84856486538e-08
1.07383638962e-08
4.67741788884e-08
5.74540069765e-08
5.163339352e-08
4.23153188024e-08
5.22622876556e-08
4.01257530402e-08
6.0473215273e-08
2.64143782451e-08
1.946394011e-08
1.02970422592e-07
3.72957584692e-08
1.36265894394e-08
1.22001948095e-09
8.16670436227e-08
7.81965045528e-08
5.53350180428e-08
9.13581096994e-08
3.47285261358e-09
3.88203343769e-08
6.75124551255e-08
2.44685472664e-08
2.82413895761e-08
9.90780926042e-09
3.48911178103e-08
7.09684693906e-08
6.75035733757e-08
1.36701889063e-08
2.61244011716e-08
2.29310412757e-08
9.72011299508e-08
1.72411235072e-07
3.62108760721e-09
1.09953152677e-08
9.19271162241e-08
1.12971761635e-07
6.26354752453e-08
4.53623043679e-08
3.68362556483e-09
1.00134525699e-07
2.09794097815e-08
6.47140701524e-08
4.62193470247e-08
4.73336131614e-08
1.33293990581e-07
8.37135823129e-08
2.37544040333e-08
1.15386692297e-07
3.88204940451e-08
4.22952641367e-08
4.1189145079e-08
1.72860467516e-07
9.38341524583e-08
6.51650072291e-08
4.1769958193e-08
3.7526044363e-08
1.28184661694e-08
1.07785133284e-07
1.29890344568e-07
2.76607505973e-08
7.89293619776e-08
1.43026625785e-07
1.40981342544e-08
4.69845623958e-10
1.32644292513e-07
8.88162426896e-08
2.20389874242e-08
3.97608052339e-08
6.41927970415e-08
9.52226217356e-08
9.63850882004e-08
4.29759604966e-08
3.60163371147e-08
1.39778279358e-09
6.71379284452e-08
3.54399615346e-08
1.41266001215e-08
2.70779517109e-08
5.16250696517e-08
3.46453702637e-08
2.40183366243e-08
1.67013926001e-08
9.55467172316e-08
7.34587903333e-08
7.1280747278e-08
1.02780102889e-07
4.477738761e-08
6.63785225965e-08
2.75089983228e-08
1.21354851451e-08
4.18824786442e-08
8.05185584017e-08
7.43238730134e-08
1.83333516152e-08
5.28864392382e-08
3.65268312181e-08
8.36019451231e-08
5.13960637472e-08
2.51670445915e-08
2.69771956321e-08
1.87329044857e-08
5.51238060875e-08
8.31889259051e-09
6.61805776376e-08
8.90083051307e-08
6.32765447455e-08
1.24640823108e-08
5.62559175139e-08
2.07312289521e-08
7.31798357345e-08
7.55927331662e-08
1.0863715074e-07
1.37008186915e-07
6.18528811355e-08
5.71617865245e-08
6.56538856899e-09
3.79541548114e-08
3.20910262465e-08
8.23750704908e-08
8.56660403686e-08
1.40483652927e-08
5.49616111336e-08
6.56981604661e-09
5.48311430405e-08
3.00942720774e-08
3.98882641175e-08
1.76131789345e-08
4.47541169456e-08
3.15731976344e-08
6.17313403006e-08
6.23385504488e-08
2.80302829573e-08
4.84733106393e-08
2.59489504508e-08
4.20928639322e-09
5.82896237882e-09
1.30595495698e-08
9.94739337034e-09
2.35664547846e-08
1.91487987076e-08
3.43074705375e-08
5.80314715283e-08
4.64690884812e-08
3.4760160091e-08
3.94507560693e-08
4.7595976096e-10
1.15785197556e-08
2.16819891071e-08
3.26745270125e-08
7.10177852443e-08
6.03624948572e-08
5.49991109947e-08
5.92104433492e-08
4.11158097963e-08
8.18904406693e-08
7.2663600999e-08
6.96895369678e-08
1.12560543847e-07
1.43046743405e-07
4.29106523278e-08
2.58808287109e-08
1.08560036793e-08
4.57512190736e-08
4.83467588678e-08
6.57862549897e-08
5.56122618068e-08
2.78763024169e-08
4.69174404381e-08
2.04021718385e-08
3.20690381228e-08
4.97366426329e-08
5.40561551024e-08
2.54725009412e-08
1.64530708511e-08
2.36414648539e-08
2.06075525455e-09
1.3585821338e-08
5.0199245212e-08
4.63443388449e-08
5.18790072818e-08
7.88938196664e-08
4.31783465234e-08
9.9658044343e-09
4.21483707384e-08
9.97283977744e-08
2.89128025492e-08
7.74472235624e-08
4.65760752937e-08
4.8004628442e-09
1.05043944389e-08
5.8644703851e-09
4.37203775934e-08
7.58651531969e-09
1.4066937743e-08
1.62308010313e-08
2.24491218708e-08
1.1497133047e-08
2.23384270162e-08
2.63955562398e-08
6.52637296932e-09
7.67427190986e-08
5.71560074819e-08
4.71524661674e-08
1.94391983961e-08
2.23786121173e-08
2.06477279095e-08
5.74992188053e-08
4.807174607e-08
9.06099150368e-08
1.96351652311e-09
9.95213637449e-09
2.53264737523e-08
5.18842660671e-09
1.18110415187e-07
7.65008945089e-09
1.35626654827e-08
2.16071539388e-09
6.09378727607e-10
7.12252030487e-08
2.13079135456e-08
1.4068553564e-08
5.07024730512e-08
3.0363236717e-08
9.38701469121e-08
1.15451190426e-07
7.78204344775e-09
6.77162663583e-09
1.49251663537e-08
1.84936611542e-08
3.48630089221e-08
6.06035176131e-10
2.84974400303e-09
1.40631778809e-08
4.1565496304e-08
3.06679401939e-08
1.36602180006e-08
9.50187842124e-09
1.18775837732e-08
2.64980311955e-08
2.68226962373e-09
1.73576893088e-08
1.34806998374e-08
1.28445104145e-08
2.05268136535e-08
1.16568436698e-07
4.20870264425e-08
5.47365516e-08
1.86888436363e-08
8.94721998983e-08
8.3308735193e-08
2.52519915946e-08
6.94237360323e-09
7.65980349759e-10
1.27097937573e-08
6.56830107319e-09
3.71744000156e-08
7.55799322833e-11
3.91282228951e-09
3.41046514732e-08
8.81699473097e-09
1.01858364565e-08
1.77006287561e-08
8.47316056128e-09
2.06139670031e-08
2.46777274122e-08
1.04214015984e-09
9.42268919451e-09
2.02816214345e-08
5.43004917749e-09
4.57793979542e-08
2.74754507812e-08
2.6958129653e-09
2.52163432414e-08
4.87532988615e-08
3.43961056038e-08
2.3367438559e-09
4.2433043304e-08
3.73068084805e-08
3.39704379416e-08
2.48333822457e-08
2.67485506536e-08
2.62778660274e-09
3.61520491485e-08
3.80263116466e-08
3.13487275832e-08
2.15635464772e-08
4.24595935012e-08
1.51824960321e-08
3.6373321304e-08
2.19522352687e-08
3.84391070612e-08
2.49275754361e-08
1.76303026565e-07
2.34796665169e-08
1.58258810267e-08
5.57734641719e-08
4.27160414275e-09
3.79466067413e-08
7.33132291193e-08
4.69818172936e-08
2.03106596553e-08
3.98979586084e-08
2.95851276887e-08
6.1603790823e-08
1.25277810388e-08
2.76789084988e-08
9.85217547465e-09
3.93577007789e-08
5.26684259126e-08
2.06514267059e-08
1.32714480217e-08
4.3208660472e-08
6.09463703452e-08
2.96590566386e-08
5.41321072357e-08
1.08107136954e-08
6.71962301574e-09
9.90836328584e-09
8.91793605778e-08
4.39574524184e-10
7.66103422946e-09
5.6717092757e-09
3.10298908292e-08
3.44970546746e-09
8.12442108257e-09
2.11656254971e-08
8.69925927312e-08
7.86460903154e-09
5.64221797306e-08
3.8942556986e-08
3.74229139862e-08
4.21870821393e-08
3.58422272805e-08
2.04910671768e-08
1.5850179873e-08
4.38351933667e-10
1.44894442463e-08
1.48077782468e-08
3.70358987473e-08
2.43589639534e-08
9.20203301331e-09
1.09972328427e-08
2.20152276381e-09
3.46061866509e-08
6.94206600224e-09
3.23337824239e-08
3.57364053941e-08
1.07408677526e-07
4.30245366997e-08
2.27815382605e-08
1.44218085169e-08
3.24504118832e-08
2.82848101233e-08
1.56032533781e-08
1.93129379449e-08
3.83602404383e-08
3.26244450664e-09
1.67726845057e-08
2.60612161433e-08
7.53509549912e-08
7.4743977032e-08
1.24335861607e-08
7.39928354703e-08
9.47417115228e-09
2.36708184407e-09
1.69472371295e-08
3.99325298352e-08
2.94664384459e-08
2.52097490042e-08
3.70512487605e-08
1.29227621859e-08
2.05938634705e-08
4.02854030762e-08
2.93390808871e-08
2.83289229202e-08
9.84371624841e-09
3.20576805598e-08
6.16852411684e-09
2.2118409523e-08
1.76245873447e-08
3.61013879692e-09
2.83693691941e-10
1.63715980678e-08
1.80259970571e-08
4.25483898314e-08
3.27857490024e-08
2.3106657088e-08
2.85221277551e-08
8.53147982451e-09
2.15384349126e-09
2.18520551679e-08
2.35143367325e-08
2.52609470129e-08
1.15876212807e-08
1.47384840853e-08
2.15932709078e-09
2.34155675455e-08
1.39619167077e-09
3.836742802e-08
3.26140931408e-08
6.21535088189e-08
3.1641623812e-08
1.77069942339e-08
3.99088749027e-08
2.22681447632e-08
5.91807701462e-08
1.79751906783e-08
7.41989538215e-08
2.68962427027e-08
2.90514481475e-09
4.25483576447e-08
6.48593152561e-09
1.3511548631e-08
1.1779337154e-10
5.99345360471e-08
3.81217377528e-08
6.03567831343e-09
8.0357229935e-09
2.38229458979e-08
4.28752689606e-09
7.56640437123e-09
1.71829735997e-08
2.6971311696e-08
8.78726496706e-09
1.39097403584e-08
3.0533937906e-08
2.84726404232e-08
2.13473322295e-08
2.22396634108e-09
7.09245025161e-09
1.4498841538e-08
2.78125672297e-08
1.08997851984e-08
2.16774175613e-08
8.13159471382e-09
2.51008510944e-08
4.16208717653e-09
1.99552237815e-08
2.66845999065e-08
5.55419224515e-08
1.35752846106e-08
4.23290342318e-09
2.54889262926e-08
9.21723162266e-09
3.46244821082e-09
9.90720659432e-09
2.83223475668e-08
3.6998633071e-10
3.2177152883e-08
2.97258220433e-08
4.69838629336e-08
4.76285579362e-08
1.37580673717e-08
9.54921859096e-09
1.40416921759e-08
9.78520407896e-09
2.10102719611e-08
1.79705827157e-08
6.36923539349e-09
5.80229490953e-10
2.69376336521e-08
3.00032413271e-08
8.51128870965e-09
1.739306056e-08
8.7255300367e-09
1.70195947932e-08
2.32814214685e-08
1.94759299346e-08
2.61062761857e-08
1.75882971341e-08
3.16144774011e-08
5.1759268846e-09
2.86667157566e-08
3.32849314978e-08
1.95783231633e-08
6.20877117379e-09
2.0603667061e-08
4.0304253745e-08
3.46433102971e-09
1.10014083611e-08
2.98560980679e-08
1.7389900859e-08
8.81661148815e-09
3.12584922567e-08
1.86622181701e-08
4.10404084148e-09
9.19376294111e-09
4.92466628376e-09
1.53897408791e-08
2.35606006557e-08
5.16336989232e-08
5.20377724833e-09
2.94035203385e-08
2.2659970023e-08
6.80870661418e-09
2.06205859508e-08
4.5102606557e-08
1.798316082e-08
1.51400106272e-08
8.69638280872e-09
3.41932492773e-08
3.33480197473e-09
4.21599695303e-09
2.08468512239e-08
1.2007015067e-08
1.09314612011e-09
1.6680304159e-08
5.0391979847e-09
1.32085563895e-08
2.80312349098e-08
5.73710255647e-10
2.87060424547e-08
2.63144552669e-08
1.666324631e-08
3.49929377589e-10
3.97196026966e-08
6.07522130967e-09
4.59075045775e-09
1.24074618756e-08
8.74152725578e-09
3.00044181872e-09
8.7059555981e-08
1.21738243448e-08
7.71453632418e-09
9.38350349147e-09
2.83411258189e-08
6.37443447667e-09
2.85855581354e-08
2.98354976954e-09
1.73520976757e-08
9.60237285718e-09
4.59215915357e-08
9.29634360854e-09
4.46575146853e-09
7.91163861724e-09
2.59938533135e-08
8.50392937422e-09
6.04068282007e-09
7.69430874485e-09
1.60129838129e-08
1.81479945031e-08
2.53637045305e-09
1.27912252455e-08
2.95921410965e-08
3.66010347071e-08
4.04032085967e-09
1.11713192488e-09
6.46744574345e-09
8.86908274135e-09
4.24820911396e-09
4.1694658537e-09
7.90688741196e-09
3.67101787404e-09
6.651462607e-09
1.95090366177e-08
1.0618541857e-08
1.07857431859e-08
4.92529488785e-10
1.56058987883e-08
3.31815648753e-08
5.84994907268e-09
7.61452944597e-08
1.89439986742e-08
1.77938820639e-09
2.82356091527e-08
2.24872122062e-08
1.4009934466e-08
1.57221082465e-09
1.95602134209e-08
2.93623343965e-08
4.93627354941e-09
1.844068934e-09
7.0952954605e-09
7.49236784277e-09
3.09726676945e-08
1.38474076004e-08
3.92078972257e-08
2.09336161178e-08
4.60345982269e-08
7.3559471929e-09
5.86507262119e-10
1.35668531025e-08
7.55157718852e-09
6.21499688568e-09
1.30674105652e-08
7.85585851586e-09
3.00232586542e-08
2.54753222606e-08
4.58236465386e-09
1.60659497129e-09
2.15032528601e-08
1.40513870489e-08
9.70242295266e-09
2.10851093983e-08
5.06743494779e-09
1.34503349089e-08
1.05504165469e-07
3.19339532948e-08
4.17731042304e-10
2.53364442012e-08
5.1838459694e-10
4.3665846386e-08
6.08925733995e-08
3.15405065988e-08
1.57328333233e-08
3.29642582663e-08
2.43970177902e-08
1.09686832089e-08
9.00699825503e-09
3.03945456681e-08
2.16425241125e-10
3.15443568783e-09
4.96346582347e-09
5.94298509463e-09
1.89668779526e-08
1.78776182251e-08
2.43705021469e-08
1.50844612894e-08
5.99346133338e-09
1.92921438516e-08
2.19914631921e-08
1.50692092821e-08
1.81318052346e-08
6.44174579648e-09
7.49883043933e-09
2.99327987239e-08
3.87098070786e-08
9.53051913241e-09
1.6976310556e-08
2.02841300593e-09
3.01496789419e-08
8.2633311078e-09
9.90421033285e-09
8.02179997696e-09
1.60719275426e-08
2.89052672971e-08
2.02055561496e-08
1.07250672291e-08
2.57270826546e-09
2.76001997708e-08
1.38210426929e-08
3.11828283293e-08
2.59588909346e-09
3.37645131589e-08
7.17562874566e-09
2.0417625351e-08
7.47902014853e-09
2.15528101909e-08
3.20238072111e-08
1.28005198425e-09
1.41264387597e-08
2.42740750965e-08
7.29244164325e-09
8.30543368596e-09
5.38699754727e-09
8.80397275137e-09
2.8461433825e-08
4.76337391702e-08
6.54832312295e-09
2.42685055758e-08
1.48851720367e-09
2.71213344176e-08
3.49120392609e-08
1.7321807353e-08
1.76395223477e-08
6.55064723541e-09
1.88046845937e-08
2.03533612061e-08
8.76536292214e-09
2.11311218392e-08
2.09708166933e-08
2.56259778821e-08
1.88165104891e-08
3.11753396128e-08
1.72872036777e-09
1.56319041496e-08
5.58401282774e-09
1.97591773788e-08
5.46462863881e-08
2.79287869327e-08
2.83419123982e-10
1.15799261918e-08
1.49250799334e-08
2.90055718857e-08
9.03850523246e-09
4.44333310447e-08
3.45679995605e-08
1.06551579755e-08
3.76784541905e-08
1.85109755085e-08
4.01514759881e-09
1.84346579716e-08
1.32783739157e-08
2.79278543182e-08
1.4261244865e-08
2.7774051902e-08
1.82781223319e-09
1.80851150082e-08
2.37083615825e-08
1.36222593685e-08
1.73566046241e-08
6.38407332494e-09
7.64914921667e-09
3.23080933844e-08
7.43283794304e-08
1.57513034295e-09
6.15083293441e-09
1.31654289418e-08
1.04985743467e-08
6.94410823153e-08
2.79947442765e-09
5.57279485496e-08
1.0673567728e-08
2.11348216522e-08
7.75299935256e-09
1.89995557418e-08
1.32943328878e-08
2.40271828898e-08
4.68108421494e-09
4.09733244718e-08
1.27351494118e-08
1.93238289302e-08
1.58382567408e-08
1.27626214908e-08
3.12069049712e-08
5.75847185096e-09
7.08902042547e-09
2.62220773781e-09
1.50010552514e-08
3.19725201988e-08
2.16993914968e-08
2.84704795295e-08
5.75317098655e-08
3.52666826924e-09
3.06109204227e-08
1.95997413513e-08
6.96447343375e-09
6.37374435965e-10
2.24310134631e-08
1.45620001332e-08
5.11831649322e-09
1.30072891145e-08
4.57395194323e-08
6.37567837013e-09
4.40885140139e-08
6.44866706775e-10
1.28981560916e-08
1.56701024123e-08
1.75642194642e-09
3.42097241211e-09
9.65727633739e-09
3.08253734386e-08
1.61578427318e-08
5.39096039134e-08
3.82214761238e-08
2.39306634995e-08
1.47317167708e-08
1.64109140448e-08
1.36768939635e-08
3.00721297307e-08
2.01184845193e-08
1.78371831796e-08
1.74008465606e-08
9.16740937122e-09
3.66582178757e-08
1.09753725747e-08
1.15621993271e-08
4.96822144755e-09
2.35213407537e-08
4.07253234595e-08
8.54889207373e-08
2.26241378844e-08
5.13816562433e-09
1.006632916e-08
1.84417695e-08
1.05216557991e-08
3.34944557597e-08
3.09737168922e-08
3.55594379798e-08
4.98897781358e-09
1.38503880574e-08
2.39315258995e-08
3.11096690834e-10
1.20168723795e-08
4.6534579187e-09
1.10658144355e-10
3.70742617069e-09
1.66143383071e-09
1.60095897528e-08
2.47511759204e-08
9.62926424415e-09
3.25774453182e-08
2.51524281688e-09
5.42183315573e-09
1.14075264322e-08
6.50913448156e-09
3.03512902473e-08
1.58078131983e-08
9.12434717857e-10
5.85664649728e-09
1.04934002176e-08
7.27557657751e-10
2.76538267102e-08
1.6728461569e-10
1.35489471538e-08
2.13809478952e-08
1.4367482478e-08
2.42996739607e-08
6.91389250153e-09
1.70089560186e-09
1.17578423515e-08
4.06471830892e-08
9.78301586537e-09
1.29969600411e-08
5.33736355785e-09
7.54911071027e-09
7.31599746503e-10

