# vtk DataFile Version 3.0
File Name: Molecule/sphere_cent/sphere_cent_0-s0.vtk
ASCII
DATASET UNSTRUCTURED_GRID
FIELD FieldData 1
TIME 1 1 double
0.0
POINTS 12 double
0.850650808352 -0.525731112119 0.0
0.525731112119 0.0 -0.850650808352
0.850650808352 0.525731112119 0.0
0.0 0.850650808352 -0.525731112119
0.0 0.850650808352 0.525731112119
-0.850650808352 0.525731112119 0.0
-0.525731112119 0.0 0.850650808352
0.525731112119 0.0 0.850650808352
0.0 -0.850650808352 0.525731112119
0.0 -0.850650808352 -0.525731112119
-0.525731112119 0.0 -0.850650808352
-0.850650808352 -0.525731112119 0.0

CELLS 20 80
3 0 1 2
3 2 1 3
3 2 3 4
3 4 3 5
3 4 5 6
3 4 6 7
3 6 8 7
3 7 8 0
3 1 9 10
3 0 2 7
3 2 4 7
3 10 11 5
3 3 10 5
3 11 9 8
3 11 8 6
3 6 5 11
3 10 9 11
3 9 0 8
3 1 0 9
3 1 10 3

CELL_TYPES 20
5
5
5
5
5
5
5
5
5
5
5
5
5
5
5
5
5
5
5
5

CELL_DATA 20
SCALARS cell_data_0 double
LOOKUP_TABLE default
1.24904745834e-11
6.07302467863e-12
1.0714829848e-11
4.4039609199e-11
3.10066460354e-11
1.32322961182e-11
1.66378915853e-11
1.00219518014e-11
1.0165869882e-13
1.32797872091e-11
1.38068918278e-12
8.29350607287e-12
3.44098176602e-11
3.51517333037e-11
3.06582580503e-11
5.91313890214e-13
1.491133844e-11
1.54528711875e-11
2.37053822752e-12
1.74247808023e-11

