# vtk DataFile Version 3.0
File Name: Molecule/sphere_cent/sphere_cent_0-s24.vtk
ASCII
DATASET UNSTRUCTURED_GRID
FIELD FieldData 1
TIME 1 1 double
0.0
POINTS 513 double
-0.29043331742 -0.51848691702 0.80389177799
-0.060691379011 -0.54103159904 0.83868360519
-0.1357871443 -0.33984422684 0.93062192202
0.059598863125 -0.25250166655 0.96538680792
0.082702174783 -0.4189658463 0.9038952589
-0.62603503466 0.59085911512 0.50881326199
-0.50785183907 0.5020429492 0.6994959116
-0.43690085411 0.63772469759 0.63384211063
-0.32762444019 0.52913802862 0.78262901306
-0.20522999763 -0.97027248144 0.12055101991
-0.007288868539 -0.99962037802 0.026112670079
-0.0043513840064 -0.97223389149 0.2339079082
-0.49751296639 -0.79288107157 0.35173529387
-0.42151799798 -0.71209150553 0.56052958965
-0.62278681993 -0.63275700808 0.46007016301
-0.29312685132 -0.83835601807 0.45950305462
-0.19597156346 -0.70759034157 0.67875826359
0.18650397658 -0.9722289443 0.14072974026
-0.94348716736 -0.082499735057 -0.32095846534
-0.92754608393 0.14635927975 -0.34172913432
-0.86460894346 0.04874863103 -0.4999859035
-0.8322892189 0.27546426654 -0.48018160462
0.54317480326 -0.83406710625 0.095478869975
0.68390977383 -0.69868159294 0.20904256403
0.52339535952 -0.78697794676 0.32567089796
-0.31410774589 0.48187425733 -0.8177254796
-0.40535238385 0.30881455541 -0.86023324728
-0.5090059042 0.45470333099 -0.7299016118
0.34181550145 -0.52325022221 -0.77991455793
0.2407117635 -0.67493093014 -0.69746595621
0.11966422945 -0.54664677382 -0.82861143351
0.33652728796 -0.91403162479 -0.22582614422
0.32084140182 -0.84480404854 -0.42714500427
0.50904947519 -0.78154033422 -0.35654988885
0.21499493718 0.89665585756 -0.38677582145
0.043087363243 0.9626698494 -0.26539435983
0.2601108551 0.94661432505 -0.18900673091
0.81435054541 -0.043530087918 -0.5773832202
0.6991673708 -0.14848940074 -0.69926482439
0.7072211504 0.062070988119 -0.70427143574
0.85777390003 0.50986868143 -0.063136421144
0.94611412287 0.32303953171 0.0073309815489
0.90585690737 0.37811461091 -0.19076870382
0.81806242466 -0.50697892904 -0.2702896595
0.70294135809 -0.67094582319 -0.23593427241
0.67882394791 -0.58798712492 -0.43782237172
0.83409398794 -0.54797542095 -0.060209024698
0.91970187426 0.066321544349 -0.3868612051
0.97648924589 -0.054673586041 -0.20843079686
0.9127317071 -0.12907384336 -0.38602304459
0.97001183033 0.16802111268 -0.17554217577
0.93864005804 -0.24252298474 -0.24488310516
0.82203781605 0.15759402514 -0.54716867208
0.89072972536 0.26672399044 -0.36794370413
0.7853435874 0.34361597896 -0.51467472315
0.97506457567 -0.21620625257 -0.050265267491
0.99862754345 -0.031779251993 0.013805437833
-0.84584289789 -0.26710087061 0.46156948805
-0.73601001501 -0.16339454055 0.6554633379
-0.85086578131 -0.052325922996 0.52186512947
0.55554014444 -0.81705641747 -0.15399117768
0.69288885593 -0.72059994936 -0.023847959936
-0.58074206114 -0.48922047019 0.64985686541
-0.76102548838 -0.464276582 0.45291021466
-0.70936751366 -0.34578448534 0.61407119036
-0.58265322447 -0.28210738301 0.76104056835
-0.76085835695 0.15630331635 -0.62953722477
-0.56592613459 0.26850393414 -0.77916508913
-0.39001324773 -0.50679695606 -0.7686123848
-0.20194494724 -0.53982061148 -0.81705069542
-0.25709462166 -0.66110229492 -0.7047867775
-0.068902276456 -0.66461402178 -0.74384152889
0.82005083561 0.44021451473 -0.36569195986
0.55206179619 -0.022992096841 -0.8333427906
0.58203822374 0.21065582335 -0.78536581993
0.70457804203 0.26293033361 -0.65914148092
0.56781435013 0.42452976108 -0.70494407415
-0.83790498972 0.30915397406 0.44983902574
-0.81641948223 0.15481121838 0.55632346869
-0.72163504362 0.35819840431 0.59211778641
-0.73933386803 0.017827212811 0.67305040359
-0.68260639906 0.17686873674 0.70792222023
-0.92184728384 0.18551060557 0.33907493949
-0.42198580503 -0.65656906366 -0.62481105328
0.80776381493 0.54067891836 -0.23468483984
0.6914883256 0.59097135067 -0.41521796584
-0.16567601264 -0.2382799685 -0.95694589615
-0.30324044824 -0.36355161667 -0.88079935312
-0.35966396332 -0.17385144532 -0.91672468185
-0.49514999986 -0.30064341426 -0.81507110596
-0.56398397684 -0.075445644557 -0.82236903906
-0.31020650268 -0.17269927263 0.93368965387
-0.11557088792 -0.12933370471 0.98482084274
-0.25784364343 0.017664734274 0.96534562111
-0.039711203426 0.084269843996 0.99553847313
-0.870647192 -0.49138170481 0.021026263013
-0.88857239485 -0.38493016362 0.24934178591
-0.96106541157 -0.27106237411 0.05326699093
-0.95500081778 -0.16260267794 0.24790127575
-0.99748712778 -0.058752436191 0.037609122694
-0.78256344795 -0.55935156345 0.27308109403
-0.87766939402 -0.29021897912 -0.38134032488
-0.83732074499 -0.14511452615 -0.52698779106
-0.98481118679 -0.12602193654 -0.11943854392
-0.93779224157 -0.30661135912 -0.16266693175
-0.85051387548 -0.46056607366 -0.25376453996
-0.76210939884 -0.47024127841 -0.44485843182
-0.67529118061 -0.21895302832 -0.70431816578
-0.61499249935 -0.42057913542 -0.66726654768
-0.76938742399 -0.31211128831 -0.5571641326
-0.74381887913 -0.60834538937 -0.27702468634
-0.24020770192 -0.0074364882894 -0.97038722038
-0.86954432726 0.39996555448 0.28674483299
-0.56016629934 0.80865120888 -0.179773435
-0.45138522983 0.89158248901 -0.03446855396
-0.36699274182 0.90115374327 -0.23057228327
-0.55028706789 0.82251113653 0.14118768275
-0.65971672535 0.7513859868 -0.0086760213599
-0.69711905718 0.69850599766 0.16132947803
-0.84353798628 0.53647166491 0.001091516111
-0.70707178116 0.68717002869 -0.16694657505
-0.61530280113 0.71282982826 -0.33472147584
-0.60202342272 0.72690790892 0.33036708832
-0.44932237267 0.75649285316 0.475055933
-0.77367669344 0.46331173182 0.43222656846
-0.75503742695 0.58815926313 0.28408750892
-0.47219991684 0.81835252047 -0.32759708166
-0.78114181757 0.5664652586 -0.2607729733
-0.98753327131 0.11973576248 0.095822587609
-0.99040704966 0.066651783884 -0.11440075189
-0.94039702415 0.30372014642 0.15151429176
-0.96343040466 0.2651719451 0.0021707629785
-0.44333040714 -0.76107466221 -0.47336947918
-0.29277837276 -0.77477073669 -0.56026434898
-0.30494269729 -0.86199659109 -0.40464377403
0.95521301031 -0.23552571237 0.17547957599
0.89331287146 -0.25213998556 0.3711849153
0.87613868713 -0.40317076445 0.26338967681
0.91567033529 -0.38237112761 -0.12375867367
0.92749047279 -0.36937451363 0.057367291301
-0.3057538867 0.85870277882 -0.41128286719
-0.17785280943 0.93335342407 -0.31181830168
-0.22587880492 0.96476858854 -0.12878598273
-0.10447892547 0.86498421431 -0.49054697156
-0.42431274056 0.84420460463 0.32587814331
-0.27043506503 0.86719930172 0.41806185246
-0.24717950821 0.79215955734 0.55777668953
-0.071184933186 0.862619102 0.50039857626
0.36720791459 -0.89061230421 0.26823502779
0.18652045727 -0.91757619381 0.35105228424
0.32865712047 -0.81556910276 0.47617414594
0.12406772375 -0.82419830561 0.55246657133
-0.27947723866 0.77433764935 -0.56760674715
-0.44995945692 0.76572006941 -0.45952647924
0.22090047598 -0.70595985651 0.67259502411
-0.13826079667 0.70169842243 -0.69765037298
0.1533805877 -0.56066864729 0.81371277571
0.030503153801 -0.70339548588 0.7100417614
-0.0084922481328 -0.89666378498 -0.44237419963
0.15267515182 -0.93505865335 -0.319629848
-0.0080679915845 -0.97285926342 -0.23115077615
0.13985064626 -0.98332244158 -0.11582357436
-0.13523237407 -0.98356688023 -0.11206166446
-0.16487824917 -0.93673396111 -0.30864462256
-0.085425585508 -0.83642190695 0.5413082242
-0.74874049425 -0.043643213809 -0.66148555279
-0.78713178635 -0.60311484337 -0.12908414006
-0.71372538805 -0.70035433769 -0.0039245714433
-0.66593122482 -0.73214232922 -0.14308004081
-0.55372393131 -0.83226108551 -0.0096971401945
-0.15905432403 -0.85066747665 -0.50097513199
0.48753464222 0.8261487484 0.28210023046
0.45850223303 0.76886808872 0.44558677077
0.59607315063 0.71696895361 0.36141553521
0.55681544542 0.65207201242 0.51453691721
0.39987292886 0.68124443293 0.61304825544
0.68434852362 0.59261649847 0.42480117083
0.51855111122 0.56400191784 0.64265173674
0.64887088537 0.5138451457 0.56117683649
0.60363256931 0.42156693339 0.67669057846
0.7647985816 0.43714109063 0.4731913209
0.7153955698 0.35443902016 0.60209363699
0.81669294834 0.27159011364 0.50905388594
-0.45638123155 -0.38594385982 0.8016307354
-0.45328995585 -0.22856989503 0.86143273115
-0.33121547103 -0.33267325163 0.88284385204
0.36840590835 -0.924895823 0.094002783298
0.42594105005 -0.90310817957 -0.053527295589
0.2861495018 -0.95769333839 -0.029958549887
-0.14731816947 -0.9221971035 0.35634797812
0.017814610153 -0.90978550911 0.41468214989
0.72472172976 0.1503714174 0.67203271389
-0.1281440556 0.27739444375 0.95168304443
-0.32348275185 0.27765128016 0.90457367897
-0.22442555428 0.1637018621 0.9606616497
-0.39019873738 0.14245465398 0.90960752964
-0.50529205799 0.26198214293 0.82153022289
0.9010270834 0.39097717404 0.18732120097
0.87023115158 0.34852945805 0.34793817997
0.95413392782 0.24742548168 0.1686078608
0.72762513161 0.6292322278 0.27282318473
0.60440033674 0.76733142138 0.21375659108
0.78239792585 0.51096898317 0.35606610775
-0.39962476492 0.39545628428 0.82698333263
-0.23445224762 0.4010296762 0.88546824455
-0.6574947834 -0.69730198383 0.28531593084
-0.6292257309 -0.76384752989 0.14348600805
-0.74276518822 -0.65425115824 0.14210698009
0.15304753184 -0.26577591896 -0.95180600882
0.23399636149 -0.40377560258 -0.8842124939
0.015809206292 -0.38419660926 -0.92299842834
0.55088967085 0.66188889742 -0.50830340385
0.58730512857 0.72178649902 -0.36608657241
0.46176147461 0.77008593082 -0.44014841318
0.42008396983 0.68900626898 -0.59048610926
0.49671632051 0.82084822655 -0.28152242303
-0.1206837967 0.2866063118 -0.95018345118
-0.32134708762 0.17003466189 -0.93124145269
-0.23802365363 0.38013961911 -0.89354264736
-0.40311342478 0.001458113431 -0.91516053677
-0.47345075011 0.13189797103 -0.87085467577
0.49697062373 0.021811258048 0.86713188887
0.56848233938 0.18878534436 0.80072325468
0.42849090695 0.23768408597 0.87146568298
0.45910564065 -0.26478475332 0.84789025784
[...]
CELL_DATA 1022
SCALARS cell_data_0 double
LOOKUP_TABLE default
1.58240335694e-07
3.12250817332e-08
2.09800301336e-08
2.118054465e-08
5.53823537837e-08
9.56084159745e-08
5.30974015721e-08
2.0350585836e-07
2.00164189044e-07
4.82561475293e-08
4.05554744592e-08
5.15238590947e-08
6.71071595049e-08
1.99630179636e-08
5.56537043795e-08
5.59486213339e-08
5.09816886043e-08
1.59418224314e-08
3.75699951125e-08
8.99126292549e-08
5.19367569677e-08
3.05389630645e-08
2.59674712097e-08
2.00671434129e-08
7.00825029928e-08
1.9173203884e-08
1.02698358546e-08
5.00375127527e-08
2.61613134083e-09
6.97743658755e-08
8.78207422739e-08
1.29253627773e-07
1.19514124709e-07
3.3237688031e-08
9.18369422863e-08
9.66303147496e-08
1.29751816686e-07
8.15580395249e-08
3.84932777e-08
5.88851662592e-09
8.33057063991e-08
3.09734779588e-09
2.91613404427e-08
1.21842844862e-08
4.06617654277e-08
3.42418046458e-08
4.96984942766e-08
1.42097658298e-08
8.98240957244e-10
1.95118906094e-08
3.20565452364e-08
3.05140029541e-08
1.60253626157e-08
8.51123052461e-08
6.2526523721e-09
4.35085501816e-08
3.68783600959e-08
4.43870426594e-09
2.07026528832e-08
5.79877116688e-08
1.73633225231e-08
2.93948109707e-08
7.53924842898e-10
1.6375774494e-08
3.29576934803e-08
2.68370004396e-08
8.99896536606e-09
7.91261988781e-09
7.8434032554e-08
9.27554858865e-08
6.29495194692e-08
1.26896376056e-08
1.10906445472e-07
1.73878417314e-07
2.0852681109e-08
7.044646402e-08
1.44983122146e-07
5.27586978234e-08
5.05381658606e-08
1.31193658516e-07
6.23387299723e-08
2.07190540966e-08
3.2320958462e-08
5.63893860536e-08
1.0213478648e-07
1.65272633928e-07
2.65061443219e-08
1.46137659367e-07
7.88856456007e-08
6.52445083188e-08
1.2595494811e-07
6.64896584855e-08
6.88938990782e-09
3.42847589546e-08
3.22173276431e-08
2.76112696055e-09
5.29304928747e-08
8.63974780116e-09
4.885626317e-09
3.05001014586e-08
4.43754788325e-09
8.14715306608e-08
2.04657555392e-07
5.79368855185e-08
6.64568004289e-09
5.32586588601e-08
1.47839830932e-07
9.65460659188e-08
1.79094417249e-08
1.31918238353e-07
4.55930458882e-08
1.74292739628e-07
5.46600237594e-08
4.75888842662e-09
1.63533121799e-07
8.85917355358e-08
4.9002062975e-08
1.49430471867e-08
3.78769550738e-08
2.94250690631e-08
7.03761785743e-09
4.71655775067e-08
1.58602533986e-09
6.80528301429e-08
5.12836487215e-08
7.72637791425e-08
1.93167603956e-08
1.41302916157e-08
6.23035937289e-09
4.9183541711e-08
5.40034641346e-09
4.29858886215e-08
3.24817858547e-08
1.79617934177e-08
1.98982993155e-08
6.31572567855e-08
4.56398371757e-09
1.04528294957e-07
4.86806459393e-08
4.71052218064e-08
8.43710639134e-08
3.7082396359e-08
2.87493200418e-09
2.22529553547e-08
8.53090278678e-09
2.44932700378e-08
5.40471956148e-08
4.98075067957e-08
1.2691270362e-07
6.69458947563e-09
6.60842763177e-08
7.71937478023e-09
9.7941804924e-08
2.63919129401e-08
4.99507307749e-09
1.51047696819e-08
3.1229724941e-08
7.97677011521e-08
7.82031318641e-08
7.3168773541e-09
3.00709081965e-08
3.25201662613e-08
6.64577227191e-08
1.13257447508e-08
5.17389225255e-08
4.49448572032e-08
3.39500667881e-08
1.63172068358e-08
7.3537939432e-08
1.55897525332e-07
7.42449076854e-09
4.72525092729e-08
1.00554877921e-08
5.34847909632e-08
2.74090583932e-08
5.3818449221e-08
1.99549633867e-08
2.19580676488e-08
3.35386560505e-08
3.12481304822e-08
3.87922224865e-08
6.8267731616e-08
4.28112965183e-08
2.98338345424e-08
1.37419763349e-08
3.18747484901e-08
1.99301911137e-08
3.67628355065e-08
3.28559952655e-08
1.14443492441e-08
2.03420176579e-08
7.35914615028e-09
1.76662668226e-08
3.57254874309e-08
2.65885952108e-08
3.52050871826e-08
2.21132104407e-08
3.87570460854e-08
4.91099982128e-08
3.32520131577e-09
1.71536326511e-08
1.82556614723e-08
9.72240947793e-09
3.9098790153e-08
4.57044170617e-08
4.96369847572e-08
2.73535360526e-09
7.35788433016e-08
2.53495401636e-08
8.02367667784e-09
2.37661051753e-08
1.54059163201e-07
1.18694799117e-07
5.24341985807e-09
2.02209625541e-09
7.27209767287e-09
3.03447270274e-08
6.1573472133e-09
2.36190333867e-08
5.70474620692e-08
1.05524565546e-08
1.37712098971e-08
4.25836373418e-08
4.08903221809e-08
2.30657905052e-08
6.13541863368e-08
1.64079527342e-08
1.30866493349e-08
1.13033624519e-08
1.06311438341e-08
2.70529303614e-08
6.86400049658e-09
6.01988350532e-08
2.13358506358e-08
3.66592759577e-09
3.90433568335e-09
2.65368011962e-08
9.03214182707e-08
2.59352491193e-08
1.93602399025e-08
4.3992724002e-09
3.86455363164e-09
3.11792298548e-08
2.6542946529e-08
7.61934555887e-08
7.78848223272e-08
5.91619074057e-08
6.84305359246e-08
5.12796702765e-08
2.68512710498e-08
2.87727393321e-08
1.91987406477e-08
6.38324185638e-08
2.94848938412e-08
3.56658776458e-09
3.0818976315e-09
1.54195024648e-08
9.07652381498e-08
2.37270078787e-08
3.50133843745e-09
4.6604704951e-08
1.84967528834e-08
2.99341104108e-08
7.15098731935e-08
4.25702204049e-08
1.03068820539e-09
9.44183104785e-10
1.08734123982e-07
6.37780541838e-08
3.35070976541e-08
2.29779397997e-08
3.53388778664e-08
3.61988683469e-08
2.55297246962e-08
1.23183713412e-08
1.32354639554e-08
1.53833823756e-08
1.70956452515e-08
4.35405156756e-08
8.05387171573e-10
1.77248277446e-08
2.17993192256e-08
6.5475398751e-09
2.19212118366e-08
1.32922136129e-08
2.29059246117e-08
3.91788555466e-08
2.7639805282e-08
6.26762998959e-08
2.21891614072e-09
2.33756134658e-08
6.23902117349e-08
3.17717293245e-08
2.20964778486e-08
6.11418881561e-09
2.38553392654e-08
6.13609406245e-09
6.92841106673e-08
3.10941122843e-08
2.96687908908e-08
3.67652572183e-08
7.10828454316e-09
4.70947500183e-09
1.86042096614e-08
2.42312603983e-08
4.90999863997e-09
2.03208651838e-08
2.52628400793e-08
3.42538806162e-08
3.35430136357e-08
2.91126226273e-08
1.10958887207e-08
2.86381809263e-08
2.10838281251e-08
3.41589647366e-08
2.51355969585e-08
3.09056108629e-08
2.11011160556e-09
1.63176733729e-08
3.10259853639e-08
2.59265857108e-10
4.02912875998e-09
1.87616566122e-08
5.48916686456e-08
3.42741724068e-08
2.33027365294e-08
1.79515729712e-08
4.80274481439e-08
2.3420037911e-08
3.65918282152e-08
1.78074970768e-08
6.45759423716e-09
1.40588207576e-08
2.07146674691e-10
1.07373616862e-08
7.80718345575e-08
9.51134349031e-09
1.63326647624e-08
4.46033025914e-09
1.15641937062e-08
2.59652214433e-08
2.20899511823e-08
6.70677180307e-09
3.62240714124e-08
3.98816798488e-08
6.42644629813e-08
4.99413338391e-08
9.30678077129e-09
9.8092058248e-09
1.1458797948e-08
1.51883637758e-09
9.66110086557e-09
5.55932432891e-09
1.02582318749e-08
4.0278703611e-08
2.1970971059e-08
1.22415463565e-08
1.97691479108e-08
2.29216136892e-08
2.75435538946e-08
9.24065784835e-10
9.86526066645e-10
2.12093445476e-08
7.152200216e-08
4.26920451061e-08
7.66882572625e-08
2.15352126489e-08
9.34328858418e-09
4.83457122356e-08
1.91565973504e-08
6.54788052477e-09
2.75775960443e-08
3.89247232219e-09
1.95339803831e-10
7.33846502545e-09
2.73559702885e-08
1.72601697314e-08
1.23852375452e-08
2.34606046652e-08
1.46671991017e-08
3.16962325102e-08
2.07705732596e-08
4.08514750794e-09
3.09218099795e-08
2.50877847903e-08
3.6872527476e-08
1.44096447568e-08
1.57649244259e-08
3.74255431245e-10
1.07649126639e-08
1.11725031672e-08
4.27884464205e-08
1.37746320992e-07
2.87358916184e-08
7.43474760081e-08
3.56193430691e-08
1.58810787473e-08
9.96729025954e-09
2.32721453579e-08
1.03038594235e-08
6.63893329677e-09
5.11968961393e-08
4.12062097111e-08
3.2240840761e-08
2.99443334598e-09
5.11961876837e-08
1.13603845149e-08
2.74814699252e-08
3.41383988111e-08
2.18097714304e-08
5.59269333606e-09
1.75527310522e-08
3.02080675602e-08
7.49911576457e-09
1.29996596998e-08
1.5770908258e-08
2.61537329974e-08
2.69078029742e-08
2.93346696991e-08
2.21546283742e-08
1.42263731295e-08
4.10495364397e-09
1.98320185289e-08
1.39838547494e-08
5.13536001685e-09
5.19768202931e-09
1.34397886005e-08
3.35824501343e-08
7.1592474011e-09
1.1401709779e-09
4.06966231772e-08
1.34234719833e-08
6.12419822586e-08
6.37578106156e-09
2.01132137214e-09
1.5819155298e-08
4.24971799503e-09
3.56406538918e-09
1.16995079715e-09
3.08690078108e-08
1.09534804468e-08
1.15577664795e-08
1.75277080433e-08
7.15845407391e-09
3.47525198322e-08
1.18921045361e-08
1.89882967973e-08
1.70413372823e-08
1.27281304637e-08
2.08063612522e-08
1.66595189264e-08
1.89992842396e-08
1.53576064539e-08
2.36179943114e-08
1.54994789289e-08
1.41460863683e-08
6.23787048022e-09
2.37783988861e-08
3.30616157412e-08
7.61128640666e-09
9.71786051388e-09
1.52287107615e-08
3.39563417681e-08
1.42959867742e-08
3.16045808836e-09
1.99353194586e-08
3.05636760498e-08
4.28426054951e-08
4.08782756909e-09
2.39274544959e-08
2.29010259873e-08
1.62440550809e-08
1.09530177503e-08
1.80544288026e-09
8.16483901611e-09
4.21073126988e-08
3.86473812014e-08
1.46532792269e-08
4.30805783285e-08
1.4454517599e-08
1.79515493682e-08
4.87651116795e-10
4.69547860317e-08
3.41705926002e-08
2.95510878118e-08
6.94854098405e-09
9.64448026523e-09
4.89649124187e-08
1.09494283169e-08
1.72509070097e-09
1.67558899167e-08
5.55215499562e-08
4.49554485243e-08
2.34185064967e-08
8.1059414735e-09
3.38067685567e-09
7.51651265418e-09
1.49069740903e-08
5.80530124737e-09
9.41935639536e-09
1.58688700239e-08
1.65366942107e-08
9.79002894926e-10
1.11782384194e-08
1.5256687462e-08
8.88527061022e-09
4.58155561577e-09
8.15332253435e-09
2.16578563845e-08
4.92061369056e-09
2.85520624625e-08
4.03598561669e-08
2.30784049771e-08
2.96823047752e-08
4.47071362365e-09
1.31458817139e-08
2.56236837222e-08
5.35002970885e-09
1.34312250634e-09
4.74660602047e-09
2.47825376439e-08
2.57291441146e-08
1.42520391904e-08
5.52332398253e-08
2.85196436753e-08
3.87902478699e-08
3.57972230369e-08
1.47719984909e-10
4.25069155459e-08
4.46791194269e-08
1.00685173226e-08
9.38675680736e-09
4.00269467999e-09
4.27139322302e-09
2.12423651015e-08
7.8994002521e-09
4.44380614373e-09
1.54627076168e-08
1.50209611846e-09
4.7794547473e-08
1.42784038974e-09
3.69629649433e-09
1.56638786853e-08
2.31569149037e-08
1.18964105394e-08
1.60542740292e-08
1.23923478672e-08
2.76003664616e-08
3.22760412073e-08
4.7429292219e-09
2.96694646896e-08
6.06788219236e-09
2.41153478917e-08
4.48254976049e-10
4.29291224523e-09
9.72685361131e-09
1.20103218548e-08
1.2850816353e-08
4.97266414641e-09
2.47753400668e-08
1.52385203336e-08
5.75215500173e-08
2.43485906935e-08
9.25070515098e-10
1.66109910946e-08
2.27823774421e-08
8.27251955605e-09
1.08947217661e-08
6.23704441017e-09
1.48153436959e-08
3.01181791191e-08
1.2312844517e-08
1.66251751067e-08
2.24087341541e-08
3.05749115474e-08
6.02202921019e-09
6.80482474769e-09
1.35075859582e-08
1.71959322342e-08
5.80463544845e-09
1.8003920375e-08
3.86535791055e-09
6.58061150927e-09
6.42524851353e-09
4.70809974118e-09
1.44279340116e-08
2.45672329689e-08
1.40286630547e-08
2.92994375528e-08
3.84978546718e-08
2.58366430926e-08
2.94775081222e-08
2.29965461932e-08
7.09777881114e-10
1.97000848731e-08
2.55199209796e-08
7.85899304042e-09
1.18763548495e-08
2.31248532705e-09
1.34042201738e-08
1.71082022736e-08
6.44211460962e-09
2.11725987334e-08
2.22462037171e-08
1.40004220057e-08
1.31123640242e-08
3.01204221232e-08
2.74152101734e-08
1.65704435964e-08
1.00385246473e-08
5.07096149061e-09
1.57515817902e-09
9.71916918708e-09
1.12040687595e-08
2.96778678767e-09
1.84095138735e-08
1.81491442405e-08
2.88138258763e-08
8.83352514583e-09
5.86331516494e-09
2.29909977698e-08
3.43884511863e-09
6.28223274256e-09
8.60825719415e-09
1.14390394199e-09
1.10125941886e-08
8.55595737128e-08
2.86311909096e-08
1.540564828e-08
3.62404940636e-08
8.15113114514e-09
1.27802660586e-08
3.95806289371e-08
1.59976540337e-08
4.57476412841e-09
2.24176070229e-08
1.54134250432e-08
1.86318732216e-08
2.3558196403e-08
1.37888868488e-09
1.6016359719e-09
3.10718852203e-09
5.75335887847e-09
1.9977782739e-08
3.78671048368e-08
5.06360906838e-08
2.9927438756e-09
4.75323943513e-09
2.05092114106e-08
1.50546698956e-08
1.12730170815e-09
1.00026378243e-08
7.79546066784e-09
7.43955925579e-09
2.03217011382e-08
1.2776664318e-08
6.28950374078e-10
1.4521477338e-08
2.14642174417e-08
2.55996517868e-08
1.85657522716e-08
3.9077080843e-08
1.26024758276e-08
2.32631916497e-08
2.40693574442e-08
6.43286001334e-10
7.71296625367e-09
2.5972722345e-08
2.48005840221e-08
3.13913229421e-08
7.59902280278e-11
2.00691730404e-09
1.51067094712e-08
2.10911572605e-08
1.96638031211e-08
4.19468068169e-09
2.49442580853e-08
1.38094639354e-08
1.39512497408e-08
2.41619228054e-08
1.19230992798e-08
9.89696780551e-09
2.10107604578e-09
8.32410155449e-09
3.0893311577e-08
9.67533448554e-09
5.08468692493e-08
1.92575093889e-08
1.69290791361e-10
6.96549155397e-09
1.18555565269e-08
1.55384382004e-08
8.91698330951e-09
2.22884164864e-08
1.16126381213e-09
9.22579000697e-09
1.83368553116e-08
4.84269828286e-08
6.33443859277e-08
8.60440772779e-09
1.36863913547e-10
1.21227522281e-08
4.37912901933e-08
1.34307409521e-08
9.5394044314e-09
2.32892910961e-08
2.51647358827e-08
1.05347805657e-08
4.68954120054e-09
1.9704285269e-08
1.84902079525e-08
2.44693312773e-08
5.36969235011e-09
3.0913033777e-08
1.78252554317e-08
1.88585647371e-08
7.14337442071e-09
2.75787829028e-08
7.9336087568e-09
1.70737617641e-08
1.14334413563e-08
2.58265643164e-08
3.71593892345e-09
2.26483397618e-08
4.0225380691e-09
1.76213643281e-08
1.78592778419e-08
2.55750485605e-08
5.91672049913e-09
1.30000035208e-08
1.13078559174e-08
1.50849623457e-08
5.64306737373e-09
1.70873306144e-08
7.34898967425e-09
3.70260960008e-08
7.78049438163e-09
8.60406982554e-08
4.19291849698e-08
2.23142470804e-08
2.90148652519e-09
2.42816901492e-08
8.94951344105e-09
2.11788213809e-08
9.30412318153e-08
8.26620510686e-09
1.90377315529e-09
1.02173598501e-08
1.95982781612e-08
1.45905381517e-08
1.99662670781e-08
2.19038337141e-08
9.34947087991e-09
7.59290942213e-09
5.04589373285e-09
8.09398976273e-09
2.500650757e-08
3.55435325225e-08
2.90875368651e-08
7.95769215152e-09
2.82946920064e-08
2.42458730408e-10
9.9625831166e-09
7.97414539041e-09
1.92197983526e-09
5.15585279471e-09
4.34939540535e-09
2.23892249292e-08
7.89632813615e-09
1.91119834067e-08
2.81897151071e-08
2.60466729081e-09
1.15769978331e-08
2.87439841937e-08
1.5628454735e-08
9.92179318771e-09
3.11707162139e-08
4.96904085852e-08
9.61572561641e-09
1.53842507808e-08
8.46647711029e-09
2.73447332991e-08
9.49578961723e-10
3.69421646923e-08
5.13209345456e-08
6.19236905675e-09
1.11978226845e-08
5.69213933362e-09
1.56829246271e-08
3.47943816278e-10
6.99703355096e-09
7.02614682217e-09
2.9054145846e-08
2.46410765014e-08
7.58992179268e-08
4.39609105596e-09
1.13825206199e-08
7.56289693629e-09
2.48703173281e-08
1.92047654404e-08
2.48919646951e-08
1.05730737517e-08
2.1168098755e-08
6.21973871009e-09
9.78460289437e-09
9.74480681241e-09
1.71800198075e-09
7.99210616912e-09
5.15845106602e-09
2.40649630973e-10
4.38082507702e-09
6.03233211863e-09
1.00663537456e-09
7.54623683791e-09
3.17955822767e-08
2.29892790808e-09
1.67087262337e-08
8.3458975314e-09
6.86823561339e-09
2.74686673529e-08
1.74676492632e-08
7.99021398745e-09
1.22717871687e-08
1.5368385646e-08
1.06464488982e-09
8.06205471171e-09
6.82938822581e-09
1.27570340576e-08
3.01396679658e-08
2.36897272309e-08
3.70227226201e-08
7.29935173893e-09
7.53313269234e-09
1.29695858674e-08
3.54164856117e-08
8.35575985219e-09
5.17790496165e-09
1.86455170102e-08
9.58865010057e-10
8.72098853425e-09
1.93578394044e-08
8.57430559852e-09
1.20197843196e-08
2.5314385903e-08
1.04012579875e-09
3.35932527761e-08
3.54702328538e-09
1.71670345059e-08
5.70753985673e-08
1.5253774946e-08
1.11157343858e-08
1.53218335383e-08
1.45012755923e-08
1.01066723772e-08
1.8141510719e-08
1.59707741426e-09
1.15974328462e-08
1.41257914448e-08
1.2131657857e-08
1.88638310433e-08
6.16855000307e-08
3.98002363725e-08
2.2798249243e-08
1.82716291566e-09
8.50832078046e-09
2.11600457347e-08
6.33324688431e-09
4.1242215246e-08
4.13627482444e-09
6.25685183424e-09
1.96770561172e-08
6.49023609883e-10
2.47921347324e-08
5.97110907275e-10
6.01358835075e-09
3.64527182906e-09
4.32743239387e-10
9.60109551805e-09
9.81233825825e-09
1.189514488e-09
2.56930559374e-08
7.76329507053e-09
1.99198590327e-09
2.15456185563e-08
2.49146782144e-08
3.06502146784e-09
6.51184349292e-09
2.25448092726e-08
1.58251586071e-08
1.87550047673e-08
1.03315577141e-08
1.2860736239e-08
1.20522048313e-08
1.97557496897e-08
1.22966442615e-08
3.13948046148e-09
4.1349141154e-08
3.47969559412e-09
3.6593630617e-08
9.08068002252e-09
1.9471804034e-08
3.1554367294e-08
2.94425034397e-08
1.59349284771e-08
6.17544351711e-08
4.29494814939e-08
1.75970374688e-08
2.17408783085e-08
2.36189284294e-08
1.98075436583e-09
1.4080855845e-08
1.72988806931e-08
1.05990152808e-09
1.68208760885e-08
1.01203956276e-08
1.31726781819e-09
1.00554747365e-08
4.73174900091e-09
2.12878955864e-10
2.17450010991e-08
4.52605458925e-08
1.79794535722e-08
8.71337496859e-09
1.83702427816e-08
7.6390023225e-09
1.74122691208e-08
2.08448233381e-09
4.63337297913e-09
1.29888262879e-08
5.07237476774e-09
1.048791917e-08
7.00587658447e-09
5.86795494349e-09
5.35575674813e-09
1.08711221133e-08
9.46954552665e-09
9.84920070327e-10
1.50271842103e-10
2.15486414296e-08
2.6129934773e-08
1.06852160419e-08
1.78917767292e-09
4.46131963955e-09
3.02059178713e-08
1.51264277992e-08
7.81755479071e-09
7.03629977406e-09
1.06245667018e-08
3.73004722615e-08
4.21113016839e-08
2.88301922831e-09
1.40750908703e-08
1.32578485958e-08
3.20028841504e-08
3.00104531002e-09
1.64199873896e-08
4.62555730966e-09
3.9431065215e-09
1.15275991663e-08
4.39463860154e-09
2.64017080442e-08
5.87833152372e-08
1.07173265621e-08
2.85947221609e-09
1.06191867783e-08
2.42972896584e-09
1.37236410601e-08
5.91947604021e-09
1.64948854726e-09
2.37004089059e-09
1.33652841214e-08
2.05788547576e-08
2.25762699438e-08
4.34105075336e-09
6.14113163205e-09
3.71768926584e-09
4.24977156886e-10
1.01215786492e-08
5.31316750757e-09
3.48377996354e-08
1.40767250252e-08
1.36086733439e-08
3.57667413828e-09
3.38095161065e-09
2.50611065563e-09
3.90807985761e-09
1.80428866471e-08
4.47888395617e-09
1.76754965536e-09
2.51414655301e-09
4.12609719315e-09
5.327756558e-09
3.50681994117e-08
4.41723335233e-09
2.5858443251e-08
2.95104842838e-08
1.50128439773e-08
2.07690086507e-08
1.31746039048e-08
1.15609633525e-08
2.51836478912e-09
1.77095813478e-08
2.47815854965e-08
1.37202199058e-08
7.08772135237e-09
1.46721154082e-08
6.61783282302e-09
1.45014036775e-09
1.17326489369e-09
5.14159264559e-09
4.03112589913e-09
6.74063427523e-09
1.15719293914e-08
9.08500213436e-09
1.40844757661e-08
7.33480766182e-09
2.24637930948e-08
1.31446001086e-08
4.92534596415e-09
7.55117335099e-10
1.32175142081e-08
6.57249053067e-09

