# vtk DataFile Version 3.0
File Name: Molecule/sphere_cent/sphere_cent_0-s34.vtk
ASCII
DATASET UNSTRUCTURED_GRID
FIELD FieldData 1
TIME 1 1 double
0.0
POINTS 1508 double
0.92746394873 -0.14786572754 -0.34335097671
0.96852970123 -0.099309928715 -0.22806024551
0.93184792995 -0.23632313311 -0.27527427673
0.86695235968 0.48624014854 -0.10913844407
0.87742465734 0.43310293555 -0.20583537221
0.8196156621 0.53213047981 -0.21213565767
-0.98165529966 -0.16750051081 -0.091064617038
-0.9478443265 -0.28587970138 -0.14093588293
-0.96258556843 -0.27040070295 -0.0054074586369
-0.77444171906 -0.51300162077 -0.3701800704
-0.74734699726 -0.60471123457 -0.27387207747
-0.82727789879 -0.50398343801 -0.24812746048
-0.84164875746 0.31168493629 0.44094985723
-0.87603467703 0.35725259781 0.32306694984
-0.91285651922 0.23709973693 0.33230519295
-0.75602430105 0.37726011872 0.53446596861
-0.79417419434 0.42797136307 0.43105009198
-0.33187174797 0.9137404561 -0.23416307569
-0.24071602523 0.95773297548 -0.15747494996
-0.21772769094 0.9361782074 -0.27487409115
-0.86188298464 -0.2550650537 -0.43817791343
-0.8330322504 -0.1778934449 -0.52385729551
-0.78512680531 -0.29260355234 -0.54567974806
-0.79069602489 -0.58947533369 -0.16482390463
0.64288806915 0.4954687953 0.58405333757
0.59892648458 0.44535034895 0.66530650854
0.69084072113 0.38458096981 0.61216342449
-0.55996531248 -0.28896874189 0.77647316456
-0.45896056294 -0.36083626747 0.81171405315
-0.44650545716 -0.24998056889 0.85915756226
-0.33791351318 -0.31640014052 0.88627791405
-0.3325869143 -0.19628991187 0.92233580351
0.33690789342 -0.9356367588 0.10516177118
0.20799125731 -0.97169172764 0.11200295389
0.2914429903 -0.95656144619 -0.0025133336894
-0.29863324761 0.26201018691 0.91761881113
-0.36935597658 0.1480679363 0.91718131304
-0.25488269329 0.15203458071 0.95483827591
-0.2948281765 0.048230409622 0.95428305864
-0.25310200453 0.37033987045 0.89367884398
-0.17805948853 0.29840528965 0.93740272522
-0.77442133427 -0.58095508814 0.25051352382
-0.73303896189 -0.65741533041 0.17443116009
-0.68674522638 -0.66726619005 0.28833222389
0.176188007 -0.11955802888 0.97704088688
0.16882117093 0.01520496048 0.98551493883
0.06818446517 -0.051305085421 0.99628281593
0.45904448628 0.7850471139 -0.41568276286
0.40303981304 0.85108745098 -0.33642315865
0.50200456381 0.81533867121 -0.28790387511
0.086278162897 -0.094608910382 -0.99123251438
-0.034417897463 -0.086424060166 -0.99567168951
0.029801629484 0.015351771377 -0.99940693378
-0.8303360343 0.44845443964 -0.33077830076
-0.89488863945 0.32147747278 -0.30908057094
-0.88259220123 0.4135876894 -0.22351643443
-0.9307166934 0.31322994828 -0.18881332874
0.10435592383 0.63134175539 0.76830285788
0.17453953624 0.51428878307 0.83965009451
0.22154393792 0.60545992851 0.7641402483
0.30224922299 0.48491048813 0.82066965103
0.62653136253 -0.34562712908 -0.69857430458
0.53658294678 -0.33946034312 -0.77244931459
0.59969830513 -0.250895679 -0.7598567009
0.57248240709 -0.45852151513 -0.67970257998
0.95892751217 -0.0045879860409 0.28357407451
0.97626328468 0.086754471064 0.19790104032
0.94243901968 0.12347685546 0.31064733863
0.51466882229 0.54499590397 0.66182518005
0.5177487731 0.46267846227 0.71948224306
0.28491032124 0.018312703818 -0.95838153362
0.22472181916 -0.10775788128 -0.96786230803
0.15735934675 0.0096274856478 -0.98748898506
0.61350655556 0.70727133751 -0.35005402565
0.69881409407 0.64670646191 -0.30559179187
0.67640209198 0.6152561903 -0.40473166108
0.83865261078 -0.53387475014 0.10728363693
0.77342134714 -0.62907719612 0.075775362551
0.83543694019 -0.54905468225 -0.022419217974
0.5305814147 -0.014805114828 -0.84745448828
0.40622803569 0.025826049969 -0.91341269016
0.46915519238 0.1286149174 -0.87370538712
0.34525036812 0.14143720269 -0.9277766943
0.405243963 0.24270901084 -0.88083297014
0.21541947126 0.14421907067 -0.96579515934
0.29765677452 0.25402340293 -0.92017072439
0.096591584384 0.11848886311 -0.98822432756
0.11441544443 0.24166084826 -0.96335101128
0.32736301422 0.3865428865 -0.86147874594
0.21341753006 0.40873318911 -0.88719946146
0.27118164301 0.4899084866 -0.82850253582
0.69598597288 0.7014619112 0.15331627429
0.60178804398 0.79379850626 0.087904907763
0.61326777935 0.76232260466 0.2062715143
0.50381910801 0.8633608222 0.026093574241
0.49951818585 0.85517829657 0.13623645902
0.80423408747 0.59326094389 0.032765064389
0.78496754169 0.60007297993 0.15402458608
0.85526764393 0.50497955084 0.11609207094
0.86231070757 -0.02749061957 0.50524711609
0.90995711088 0.061879739165 0.41001239419
0.8536350131 0.092851310968 0.5124770999
0.89095199108 0.17418898642 0.41924485564
0.41764363647 0.882199049 -0.21747885644
0.50687980652 0.84641957283 -0.1621157378
0.43691635132 0.89648634195 -0.072993546724
0.25915455818 0.95786005259 0.12012214959
0.24485583603 0.96957433224 -0.00063334510196
0.14508250356 0.98731899261 0.064314112067
0.11623494327 0.99182504416 -0.052659802139
0.015343930572 0.99965459108 0.016648519784
0.39832544327 0.91487139463 0.054267294705
-0.58697110415 0.27912861109 -0.75992184877
-0.65778434277 0.19120819867 -0.72852891684
-0.67696374655 0.30425682664 -0.670178473
-0.73997813463 0.18102347851 -0.64773452282
-0.69816559553 0.072412505746 -0.71220499277
-0.57570523024 0.15096484125 -0.80354881287
0.44091331959 0.77248764038 0.45659691095
0.36917370558 0.84238123894 0.39122736454
0.32350429893 0.80861407518 0.49136543274
0.82887172699 0.51395952702 0.22073803842
0.72387170792 0.64100635052 0.25459262729
0.3542907536 -0.086341306567 -0.93087023497
0.51112872362 0.0079368697479 0.85947078466
0.50696247816 -0.12938478589 0.85221731663
0.60589623451 -0.082105703652 0.79126960039
0.57557308674 -0.22146324813 0.78715187311
0.44165968895 -0.24059978127 0.86430472136
0.67127299309 -0.16260661185 0.7224817276
0.55664622784 -0.3620981276 0.74762356281
0.6497284174 -0.30192106962 0.69763082266
0.59903883934 -0.44075483084 0.66851562262
0.70202112198 -0.38556778431 0.598775208
0.73997819424 -0.26449108124 0.61772608757
0.79423594475 -0.32323253155 0.51448792219
0.64937359095 -0.51311385632 0.56126976013
0.74759507179 -0.45198595524 0.48662588
0.69274061918 -0.57554370165 0.43458476663
0.82948255539 -0.38398912549 0.4056109786
0.79139059782 -0.48991009593 0.36565589905
0.86180371046 -0.42621779442 0.27497413754
0.78499472141 0.032889537513 0.61861813068
0.70333850384 -0.032385274768 0.71011632681
0.77379214764 -0.095016390085 0.62563878298
0.69094121456 0.084322966635 0.71783846617
0.61618888378 0.034811038524 0.78679066896
-0.091713756323 0.034702345729 -0.99514698982
-0.0088845631108 0.11348794401 -0.99345207214
-0.20829086006 0.61625427008 0.75950187445
-0.15211947262 0.53504824638 0.83089029789
-0.079569019377 0.5934894681 0.80054080486
-0.054155580699 0.48801258206 0.87113523483
0.25654938817 0.38471418619 0.88626652956
0.35266205668 0.35880631208 0.86388385296
0.30984085798 0.27253940701 0.91068273783
0.35861253738 0.16380703449 0.91896688938
0.41387963295 0.23595955968 0.87890696526
-0.14277233183 0.49547836185 -0.85674083233
-0.091294720769 0.41665929556 -0.90446001291
-0.20647580922 0.41290152073 -0.88692682981
-0.038148891181 0.52046012878 -0.85291868448
0.23177447915 0.8667589426 0.4415949285
0.14611141384 0.91585737467 0.3739810288
0.093802385032 0.88150149584 0.46251893044
0.04674340412 0.91686278582 0.39643031359
0.20718973875 0.80879843235 0.5499150753
0.89052277803 -0.2558632791 -0.37510243058
-0.55911278725 0.59063440561 -0.58188390732
-0.57749468088 0.64768534899 -0.49690806866
-0.46007066965 0.69047856331 -0.55815988779
-0.66084563732 0.54550355673 -0.51546561718
0.87432736158 -0.25922355056 0.41024011374
0.83315891027 -0.19815513492 0.51531046629
-0.38536971807 0.65137428045 -0.65359967947
-0.33591488004 0.73682910204 -0.58616727591
-0.1294362396 0.69371247292 0.70807641745
-0.13250860572 0.77415561676 0.61897915602
-0.22589015961 0.70977956057 0.66724550724
0.28501906991 0.018331658095 0.95833200216
0.24797198176 0.11912612617 0.96129328012
0.40268850327 -0.13968673348 0.90459823608
0.11021136492 0.71690648794 0.68823313713
0.012563208118 0.6927934885 0.72068721056
0.40399479866 0.42155352235 0.8117557168
0.81278282404 -0.5326128006 0.23521396518
-0.060666780919 0.32198649645 -0.94472122192
0.029855526984 0.39245292544 -0.9191031456
0.24867758155 0.9122376442 0.32419461012
-0.94855427742 0.0093930130824 0.31637459993
-0.91932123899 -0.092355728149 0.38130539656
-0.90030294657 0.012629231438 0.4350336194
-0.96102184057 -0.10570245981 0.25547251105
-0.53693002462 -0.7959228754 -0.27970135212
-0.44392818213 -0.86987966299 -0.21499498188
-0.53206831217 -0.82894706726 -0.1725115329
-0.46421056986 -0.88066911697 -0.09328520298
-0.36124143004 -0.92250555754 -0.13581828773
-0.43240457773 -0.68557912111 0.58558142185
-0.38005203009 -0.61435830593 0.69144958258
-0.49859625101 -0.59630769491 0.62914651632
-0.45877641439 -0.53610855341 0.70811599493
-0.57000505924 -0.49664708972 0.65452730656
0.42101860046 -0.60953938961 0.67112141848
0.46863609552 -0.65684986115 0.59058123827
0.53973048925 -0.55929625034 0.62919294834
0.49409177899 -0.47722363472 0.72628539801
0.52422446012 -0.72896581888 0.43970450759
0.61336988211 -0.68809491396 0.3876376152
0.58390831947 -0.62858903408 0.51373314857
0.54808318615 -0.77863532305 0.30549409986
0.6494191885 -0.71896624565 0.24758537114
-0.0944602862 0.37929493189 0.92039948702
0.016234200448 0.41366955638 0.91025924683
-0.087701871991 0.60583204031 -0.79073214531
0.05224705115 0.59996205568 -0.79830777645
0.0019827596843 0.68433487415 -0.72915285826
-0.14467021823 0.68881440163 -0.71034312248
0.13782986999 0.66597181559 -0.73306202888
-0.27528917789 0.67564338446 -0.68390017748
-0.34026315808 0.57868939638 -0.74112993479
-0.21796353161 0.61665916443 -0.75635486841
0.71622091532 -0.46544021368 -0.5196467638
0.63000953197 -0.5149461627 -0.58110386133
0.67307287455 -0.42036697268 -0.60843449831
-0.59240037203 0.55172616243 0.58700937033
-0.59268063307 0.46440210938 0.6579990387
[...]
CELL_DATA 3012
SCALARS cell_data_0 double
LOOKUP_TABLE default
1.46600653943e-09
3.41777004227e-09
6.69068857828e-09
3.9449771153e-09
8.3248442099e-09
7.47195235897e-09
4.02085230387e-09
2.08016120283e-09
1.54730136737e-10
1.85918869272e-09
6.34281534684e-09
1.36925182818e-08
7.03006617859e-09
1.08409743343e-08
4.00602252502e-10
4.35989098165e-09
3.77781741272e-10
4.8900358947e-09
1.62711787457e-09
2.61724038159e-09
9.15113180122e-09
5.11255768908e-09
1.04007250289e-08
7.76195568442e-09
8.18995788881e-10
8.28939774939e-09
3.06293642544e-09
1.31333308159e-09
1.51280729085e-08
1.13798863041e-09
1.55269027935e-08
1.40702290353e-08
3.02875454866e-09
4.82240821441e-09
1.25624340477e-08
1.32546908915e-08
1.01302918185e-08
3.48186067942e-09
1.03644333305e-08
6.45973554688e-09
2.73078844743e-09
1.2516917749e-08
7.57478018554e-09
8.60057558629e-09
7.06159461842e-09
2.19256896296e-09
2.14198653052e-09
3.21989368765e-09
2.77152538654e-09
5.51589594233e-09
1.41858053569e-08
7.0694217567e-09
2.46287782813e-09
2.00908969843e-09
1.4846280354e-08
1.71523351395e-09
4.35661442943e-09
4.76201773723e-09
7.12441604032e-09
1.01656554245e-08
5.63903634116e-09
3.74359870018e-09
2.54520170413e-09
5.02622829983e-09
5.79602784186e-10
3.55592386434e-09
1.12995023803e-08
2.28544792565e-09
1.11386457778e-08
2.02062980102e-09
9.62406696195e-09
8.57130808501e-09
1.01163401492e-08
1.77527373163e-08
2.38654407312e-08
1.22091523014e-08
1.38700661932e-08
1.3830706387e-08
1.30973101396e-08
8.85266395921e-09
4.81802989524e-09
3.2078716785e-09
1.47235581173e-08
2.82039894203e-09
1.33590121659e-08
1.18614674262e-08
8.79966057254e-09
7.57454006833e-09
9.63287631128e-09
7.04543843237e-10
8.32653195406e-09
6.6781093865e-09
7.4249009175e-09
5.18578789398e-09
4.42950963204e-09
2.25564132617e-09
1.67768818349e-11
2.96442280137e-09
5.58198852376e-09
3.00760144418e-09
2.47941659417e-09
1.08790180686e-08
1.06170523487e-10
1.08113332365e-08
1.48333806159e-08
3.47068450276e-09
1.51153587441e-09
7.61374702778e-09
4.12752424079e-10
1.98757474491e-09
5.29000265544e-09
2.43003076277e-09
1.48638185128e-08
1.15529268537e-09
5.33373922759e-09
1.20189965917e-08
5.45153179217e-09
4.92699592034e-09
2.47202977098e-10
8.73977362702e-09
6.25972451728e-09
2.79430205557e-09
1.94782584317e-09
3.69136213359e-09
7.12555868745e-09
4.85763035726e-10
4.68982610365e-09
5.32379072353e-09
1.42810808971e-08
1.49466275102e-09
5.45443948886e-09
1.13466319694e-08
1.62598036626e-08
7.26267151198e-09
1.02566643473e-08
1.01698014365e-08
1.90918842175e-08
4.74220919854e-09
3.9126956775e-09
4.44078846073e-09
1.56145695166e-09
2.32507671231e-09
5.22604198144e-11
1.117182443e-09
9.38780809645e-09
9.87989923971e-09
1.34715281741e-08
2.0672977816e-08
3.60284741231e-09
2.39866136138e-09
2.90641288438e-10
1.67559339389e-08
2.47396002426e-09
2.59370743163e-09
6.45115577959e-09
5.09790109876e-09
1.85083702368e-09
2.04438750381e-08
1.9227874314e-09
3.94759268319e-09
1.77354224166e-09
1.67789188499e-08
1.10745903575e-08
3.75408372618e-09
1.55824377546e-09
1.38640545674e-09
3.06528400312e-09
1.37185210624e-09
3.28924894953e-09
1.16484091753e-08
1.53624224324e-09
1.84987799145e-09
6.77406809808e-09
5.98750542096e-09
7.40353924696e-09
1.16523484826e-08
6.78094337329e-09
6.14456134723e-09
4.55249508223e-09
6.35034502177e-09
1.03775541143e-08
3.99211002559e-09
1.6718143849e-09
6.61410861972e-09
2.10611279959e-09
2.63346410326e-09
8.25107803283e-09
8.34027873454e-09
9.72985791923e-09
4.89973002791e-09
9.63767014546e-09
1.05067346418e-08
1.45716387863e-08
5.21666932841e-09
2.06921738276e-09
1.26897941988e-09
5.33487002337e-09
2.97821801849e-09
7.84261828164e-09
1.07160423387e-09
2.62748746585e-09
3.50281274629e-09
8.19713682375e-09
1.64666238397e-08
1.89831904131e-10
1.28991840604e-08
8.50264335816e-09
1.51544020859e-08
1.71922793604e-09
2.11518103686e-09
4.79977852009e-09
1.21555076249e-09
1.31934161055e-09
7.64354060825e-09
6.93650599862e-09
1.35156221276e-09
5.51365079771e-09
4.99185352281e-10
3.0549746095e-09
6.0818912327e-10
4.01909031402e-09
3.00503649449e-09
1.11534610508e-09
4.56945498381e-09
1.95615543044e-09
4.90750989333e-09
2.87075580898e-09
2.38567658001e-09
1.95394001739e-09
8.14945997074e-09
2.21896313331e-09
4.07785106352e-09
5.35633230029e-09
8.11358822243e-09
1.21800410909e-08
2.62819862749e-09
2.19823269893e-09
1.35866823649e-08
2.02199546815e-09
1.4140698132e-08
6.03663568684e-09
2.73526428592e-10
1.07142871333e-08
1.46653783375e-08
5.3824565033e-09
1.47348319405e-08
8.9182255594e-09
2.33382404085e-09
8.89309198271e-09
2.3061386882e-09
5.87053083786e-10
7.31411284262e-10
1.02847916335e-08
3.05837598397e-09
3.36444517329e-09
1.70570843713e-09
5.49480454326e-09
1.02881617917e-08
4.37195012202e-09
7.31518350936e-09
2.06245047759e-09
1.64200422703e-09
1.89782505162e-09
1.66549508656e-09
1.726599746e-09
4.38072623265e-09
4.2693739106e-09
1.41892345542e-08
1.44504662868e-08
1.06101636232e-08
5.05308942164e-09
3.21481520578e-09
7.14320082014e-09
3.21654010437e-09
3.88725330618e-09
8.00516702676e-09
2.51037305075e-09
1.01465085851e-09
1.82488720413e-08
1.38453006232e-09
2.10885943755e-09
1.98709714179e-09
4.5912622608e-10
2.42523684764e-09
3.27740407592e-09
4.9874875348e-09
5.37661644996e-09
4.64052416481e-09
1.99010821721e-09
3.92920997727e-11
4.6867312255e-09
9.34997138397e-09
9.82295030654e-09
1.52936359123e-09
7.22625211577e-09
8.61482104548e-09
7.05961136901e-09
2.57687297675e-09
5.1443185204e-09
1.37486191799e-08
3.02380616809e-10
2.38571405238e-09
5.033794346e-09
5.13297280473e-09
1.20767487134e-08
2.34611659326e-09
8.00389643322e-09
1.95075534106e-09
2.27420938682e-09
5.60667881254e-10
6.81261953136e-09
3.91944483413e-09
1.3415165909e-09
2.47619586189e-09
9.50390134094e-09
5.89851711871e-09
2.57735493327e-09
1.03534397005e-08
1.57529307927e-08
2.68920618929e-09
1.51443260397e-09
7.64677614666e-09
1.51328631722e-09
3.66515817461e-09
5.68690756469e-09
3.10822322957e-09
8.3948246319e-09
5.14295164347e-09
4.40766889413e-09
3.13794995131e-09
6.97343663146e-09
1.99678569589e-10
3.25310582357e-09
9.79728833216e-11
6.02280952328e-09
1.23265173093e-09
3.78987969236e-09
1.39918578441e-08
1.61115475258e-08
1.18000077694e-08
1.87017839012e-08
3.64860133756e-09
7.99860127575e-09
2.81461458988e-09
5.17487678658e-09
3.73706599045e-09
6.39651352108e-09
6.80113617331e-09
1.55122745142e-09
2.87121717174e-10
4.66024756047e-09
2.57396535564e-10
1.50483382679e-09
1.06354197424e-09
5.52847682674e-09
3.68872837463e-09
1.50131490322e-09
1.6662795251e-09
4.61848717884e-09
3.5659067871e-09
9.35118981333e-09
1.80113028679e-09
1.19236420129e-08
4.07565471934e-10
1.82702792541e-09
9.67509411884e-10
1.55644925462e-08
5.85438253733e-09
1.28061988312e-09
2.04167247013e-09
2.11064259046e-09
5.47676053068e-10
3.90357749106e-09
1.05762734178e-09
3.28821687165e-09
2.75679469444e-09
1.71221919013e-09
7.03602044064e-09
1.29840832563e-09
5.12585008076e-09
7.50290067605e-09
2.54112579637e-09
2.5921919531e-09
3.98177868422e-09
2.03741800139e-09
4.17851006805e-09
2.94321097799e-09
3.26461862705e-09
1.47671168332e-09
3.70513756585e-10
6.78718072914e-09
3.5686698247e-09
1.84360793919e-09
9.81560932527e-09
2.02492719775e-09
6.87853646077e-10
3.16493754755e-09
1.30100792885e-09
5.02628136593e-09
8.83969492051e-09
5.46609083915e-09
3.24327137454e-09
3.6505087544e-09
5.8795470396e-10
5.34790302749e-09
7.04523048378e-09
2.46414501015e-09
9.06413994187e-10
8.48573619869e-09
1.33731520479e-08
1.05551873827e-08
1.17247777585e-09
5.43637837152e-09
5.65182008958e-10
7.64285895333e-09
1.1150506692e-09
1.94329347205e-09
9.7173959692e-09
1.78836130855e-08
6.8939458526e-10
2.07845066004e-09
5.32031244019e-09
7.8832789056e-09
1.58445120399e-08
4.5184510436e-10
2.02989754925e-09
1.29821348715e-08
1.11262394991e-08
8.17089746266e-09
6.96759004428e-09
1.55465053375e-09
2.27687453566e-09
1.42212068467e-09
5.30440329749e-09
1.52825525418e-08
6.8869670296e-09
4.02932469364e-09
5.82207742424e-09
4.11478651254e-09
6.1163886508e-09
1.5510790168e-09
2.39285469286e-09
6.12661560531e-09
1.96840608712e-09
2.9261753326e-09
2.4848710964e-09
3.99747893917e-09
2.04374393209e-09
2.01362755931e-09
5.27048611202e-09
2.81910334914e-09
4.41644935512e-09
1.04244933367e-08
8.95463059673e-09
7.21563381155e-09
4.03197282986e-09
5.6759268066e-09
4.24486789913e-09
1.62168253103e-08
1.31583339169e-08
3.69724279098e-09
1.20412841653e-08
5.8171906761e-09
3.57983139477e-09
2.15707272136e-09
8.43341481708e-10
7.93859298885e-10
9.29588662914e-11
2.99420132541e-09
7.66121514954e-10
1.95094300585e-09
1.88283357943e-09
2.13373498981e-09
3.49128365949e-09
1.1844949043e-09
6.67606849822e-09
2.04129413121e-09
4.53973965728e-09
2.77081157787e-09
4.6648239401e-09
2.00180667513e-09
3.75542720573e-09
9.11354569156e-09
2.32970906262e-09
2.71966178352e-09
8.67348474587e-11
5.45758679602e-09
3.38169104387e-09
6.66745030337e-09
3.27697790483e-09
5.91960784958e-09
8.74887371584e-10
1.0134865977e-09
4.25836322537e-10
8.94057396971e-09
6.24919390799e-09
4.07723025487e-09
3.81707134004e-10
4.46313678516e-10
2.0732107243e-09
5.20598636641e-09
1.37712312234e-08
5.86707352941e-09
8.17961731241e-10
2.75525213222e-09
8.02864152866e-09
2.22385288188e-09
2.54559593617e-09
3.72094465051e-09
5.28547640762e-09
1.09087758866e-09
3.73293788461e-09
2.84373433701e-09
3.76152997863e-09
3.93876032166e-09
1.39023490742e-09
4.15608348043e-09
1.90334369027e-10
8.67534600693e-11
3.47735531019e-09
1.66296183997e-09
1.88633344484e-09
2.11053804268e-09
5.24000351833e-09
6.73075889449e-10
7.36209040426e-09
2.19123911162e-09
1.40466236512e-09
1.65853843295e-09
4.18117878195e-09
3.54281912059e-09
6.49870460053e-09
3.01635324591e-10
5.60897091598e-09
6.3235394123e-09
1.13419082429e-09
1.06702798552e-09
6.16516473667e-09
9.87801445822e-09
4.34526256899e-09
1.11781487001e-09
4.07656993239e-09
1.94680949397e-09
6.78608768076e-10
5.17244986041e-09
1.35024532715e-08
1.33625763968e-08
5.34981846118e-09
7.63607863815e-09
7.81636606991e-09
8.29327454479e-09
5.42791025226e-09
9.89779849007e-09
2.57412497172e-09
4.25290479745e-09
4.03688125807e-09
3.86588723192e-09
5.18658905839e-09
3.02524833813e-09
2.391311032e-09
4.16040855493e-09
1.47957660916e-09
7.61323568939e-09
4.82854460447e-09
2.00620048488e-09
1.83171612419e-09
2.13473356579e-09
5.4567520435e-09
6.31831040568e-09
4.18057836629e-11
6.74626143032e-11
2.07814658717e-09
2.80148110977e-09
1.26429557949e-09
2.48392116727e-10
1.48618053569e-09
7.42425326534e-10
1.17722603915e-10
2.02264621872e-09
5.31231824039e-10
3.24774109776e-09
1.39632042741e-10
1.68896912893e-09
2.68930651272e-09
2.47846286189e-09
6.79475223711e-09
1.36704585164e-08
3.02276843462e-10
4.84282888582e-09
1.0690992747e-08
3.28066795532e-09
3.01694561162e-09
4.00106252198e-09
4.71604390475e-09
6.62119028201e-10
3.25544962413e-09
4.08301258749e-10
1.67790451394e-09
8.33649169159e-10
3.07009328945e-09
4.93059099738e-09
1.31451971884e-09
8.62982751692e-09
4.60832462172e-09
8.56691022583e-09
9.39784446292e-09
5.83675982335e-09
3.62154347692e-09
2.34046813459e-09
1.08940931095e-09
1.20970994767e-09
1.83091824262e-09
3.70309494262e-09
1.7720294508e-09
4.62733099999e-09
2.86316623687e-09
1.08954539566e-09
3.89068243596e-09
4.47543359336e-09
1.63497476749e-09
2.20687131776e-09
3.68178077206e-09
1.50941228472e-08
8.33183445114e-10
1.25791563267e-09
1.11832659126e-09
1.38267383439e-09
3.02392538333e-09
2.78601501198e-09
2.26264589045e-09
2.9610730978e-09
3.58788828225e-09
5.19738300003e-11
3.75668503092e-09
8.87555877477e-09
4.01997922184e-10
4.08821966903e-09
3.52569558488e-09
8.34384847026e-09
7.45867217539e-09
3.76594607077e-09
2.58201906519e-10
5.78638423036e-09
8.55033260768e-10
2.16229027472e-09
2.22914626821e-09
2.34786114556e-09
6.28776525263e-09
2.87964837356e-09
2.86849935695e-09
2.35159181441e-09
4.28696519787e-10
1.30417455906e-09
5.16818466452e-10
4.06735553289e-09
6.66569063383e-10
2.92557026932e-09
7.04730324852e-09
8.23884757001e-09
2.85060307679e-09
1.47460424985e-09
5.97319539792e-09
2.83460521741e-09
3.95083358697e-09
5.55317283644e-09
4.57668346588e-09
7.35074262791e-09
3.64067404317e-09
5.32665701738e-09
1.99495241452e-09
4.06957719365e-09
3.82359150769e-09
6.58992832461e-09
6.82152662051e-09
3.97043210221e-09
8.88650609702e-11
5.24629395683e-09
1.19389603683e-09
6.26961488426e-09
4.13273974445e-09
1.32732172876e-09
4.40526910789e-09
3.42111646727e-10
9.60156243652e-09
3.7160336578e-09
3.06096426265e-10
1.2685184174e-08
1.26927598576e-08
4.30552800833e-09
6.63895239659e-09
2.88839408719e-10
7.02137723353e-09
2.40082391759e-10
1.07401051837e-08
2.13890447852e-09
1.97971204229e-09
9.18722585891e-09
6.61241381253e-09
7.40497920107e-10
9.23028345287e-10
5.09330239914e-09
1.67773259004e-09
1.16172428958e-09
9.31771865512e-09
1.46090516222e-08
5.81387247505e-09
4.06678604382e-10
4.84642433865e-09
3.81839863941e-09
2.95262782021e-09
4.54123930836e-09
3.89310982753e-09
3.25511458515e-09
3.52633144862e-09
2.44752544429e-09
4.61185907832e-09
4.37406358832e-09
3.96322731111e-09
5.34123430865e-09
9.17576322268e-10
6.4176543393e-09
4.47606295948e-09
3.1283977179e-09
8.79136476545e-10
1.10927408455e-09
2.54451211544e-09
2.26141429839e-09
6.80773604911e-09
2.85975055113e-10
5.57971216389e-09
2.55455846221e-09
3.59032682088e-09
1.43075569271e-09
3.3702746212e-09
8.31978616413e-09
3.5327735797e-09
1.57790773005e-08
8.51254407813e-09
3.58134800971e-09
1.10955410588e-09
6.42737583857e-09
3.3764426676e-09
4.75536953206e-09
3.8582815244e-10
4.69080088231e-10
2.48221844645e-09
7.36546484124e-09
2.33676612483e-09
6.33662399021e-09
6.10282104799e-11
7.3663563423e-09
1.17170105014e-09
3.97193615178e-09
2.1068516085e-09
1.13198167245e-10
6.2231401688e-09
5.37965253625e-10
3.80426503029e-09
4.78863749704e-09
8.22617622764e-10
4.25791894554e-09
7.00292084612e-10
7.59246002749e-09
3.18739558918e-09
7.94374389896e-09
5.25809592619e-09
9.37941545524e-09
1.69436530308e-09
1.01884020982e-08
3.72958384734e-09
6.54300351998e-09
3.01443728922e-09
2.87691345883e-09
7.35068132557e-09
4.50932736628e-09
8.54262591617e-09
3.12755339183e-10
8.11152469586e-09
4.66760258288e-09
1.30589832908e-09
6.27342123876e-09
4.59807293847e-09
1.56101894454e-09
3.68487066363e-09
2.71091829234e-09
1.5970528899e-09
1.979533478e-09
3.78707168377e-10
4.1641327789e-09
5.51146462352e-10
4.64000570945e-09
5.47474731297e-09
1.64628834633e-10
3.24704240679e-09
5.32363614926e-09
4.17019670917e-09
2.1644912504e-09
1.77052742967e-09
1.29339857048e-09
6.4752822519e-09
2.75641411511e-10
3.80026373989e-09
1.34649779151e-09
8.80570360095e-09
9.16604299581e-10
4.64529668709e-09
2.82433431738e-10
1.66702161677e-10
8.99715352e-09
6.64585674369e-09
5.33023924542e-09
4.42848204568e-09
1.77907625168e-09
1.05922027835e-09
5.92819182224e-10
4.02186132291e-09
2.78286306754e-09
6.04515824987e-09
2.70165011717e-09
2.14178113912e-09
8.39282660338e-09
4.19449623855e-09
8.30593692972e-09
5.09669933431e-09
8.65222345603e-09
3.61609795557e-09
4.74062863954e-09
4.78200870117e-09
7.99370059525e-10
2.80877895865e-09
1.60360503727e-09
1.24302047879e-09
1.84242067412e-10
2.82453970241e-09
2.11857902008e-09
2.17181152919e-09
4.94785354561e-09
2.43680147511e-09
6.94242544117e-09
3.98681793787e-09
1.10318372405e-09
2.58312987278e-09
4.86431553952e-09
4.22651143602e-09
3.63120846186e-09
3.60569704672e-09
1.69041867872e-09
1.89472943816e-10
3.00241614248e-09
2.67656882304e-09
4.69582737685e-09
3.1453530866e-09
9.91181094585e-11
4.56144158976e-09
3.59595207548e-09
4.95213040852e-09
4.68732676838e-09
8.75588458379e-09
1.48597989032e-09
6.10172697535e-09
2.62776078784e-09
2.67937538851e-09
5.90867812357e-09
1.19237085752e-09
1.85383344283e-09
2.88003482156e-09
4.00138707852e-09
6.49617288577e-09
1.66601205883e-09
2.93172928064e-09
2.4878952977e-09
3.98948486746e-09
3.28138078203e-09
5.09147979552e-09
1.27299657157e-08
7.82258200502e-09
5.52376079221e-09
2.87563909892e-09
6.89660185534e-09
1.25774690884e-09
1.6332245542e-09
3.50382663695e-09
1.19849884671e-08
4.71847551747e-09
9.21644247247e-10
9.8372794006e-11
8.31668341139e-10
2.99090611654e-09
2.49108816432e-09
1.94793272967e-09
8.33721625982e-09
1.66947221744e-08
9.3823501524e-09
2.07097736074e-09
7.49583313132e-09
3.62808167486e-09
6.94549288725e-09
9.20831110761e-11
3.17111436624e-09
7.04438866472e-09
4.32925307051e-09
2.85408291459e-09
5.08182890483e-09
2.18322805102e-09
6.63848503617e-09
8.22235593696e-09
4.98219556866e-09
2.17864062604e-09
9.40371487724e-09
4.18232090223e-09
9.9821912814e-09
1.18665022092e-08
5.76702064379e-10
1.41214297827e-09
5.00629245543e-09
8.00060954981e-10
4.72942941552e-09
6.87079679172e-09
3.69256450024e-09
4.95612157147e-10
5.52183947857e-09
4.94044251649e-10
7.28506242338e-10
1.24614788429e-09
3.89273565749e-09
7.72391065833e-10
2.38341301057e-09
1.79812673717e-10
6.12338981223e-09
1.50102481004e-09
7.28400450206e-10
7.50148554275e-09
3.15594842606e-09
3.21943829734e-09
4.12116092098e-09
4.26070950619e-09
7.19415564152e-10
5.04138233104e-09
3.6134369727e-09
1.64430246482e-09
2.04078784139e-09
7.8225676175e-10
1.04537937926e-10
2.85493096448e-09
1.04957497921e-09
2.77632417469e-09
4.24119028042e-09
5.15550055694e-10
6.02142440224e-09
1.14738797595e-09
3.03233723395e-09
6.90755618138e-09
8.53974455544e-09
8.45729831285e-09
7.56617798494e-09
4.87441412662e-11
2.89673619195e-09
1.86234934522e-09
4.55039976915e-09
2.52400226603e-09
4.8408700465e-09
1.24201894304e-09
2.86145550727e-09
2.29588817705e-10
3.11272445531e-09
4.45892211863e-09
4.61729372755e-10
1.80731212547e-08
1.1798487581e-08
9.03533921272e-10
6.52498341158e-09
2.21328992401e-09
1.23614006394e-09
9.10911659725e-09
3.64296499081e-09
4.71313830255e-09
4.74167927705e-09
9.98765437629e-10
7.75587949138e-10
5.68420998811e-09
2.70313790152e-09
1.26149216084e-10
4.867202599e-09
2.4402711808e-09
5.45025678754e-09
4.8393148166e-09
4.9281493629e-09
7.25754354106e-09
3.81268228132e-09
3.53303800991e-10
1.2208071969e-10
1.25805730349e-09
1.09802609549e-10
1.75428125471e-09
5.74682334078e-09
1.65628841714e-09
2.51360397581e-09
1.28435074784e-09
3.1844887491e-09
2.16921266889e-09
7.52847190857e-09
1.45397848659e-08
3.19826593425e-09
3.45392920242e-09
4.3646604425e-09
2.87842284427e-09
4.39975958248e-09
4.97856343605e-09
2.66826535007e-09
1.88262956619e-09
4.93875279079e-09
8.09226360744e-10
4.8207288078e-09
1.76077803368e-09
1.002774998e-08
1.53543212012e-09
3.08216221052e-10
2.02154108505e-09
6.78571455099e-09
1.60539848596e-09
2.73200892928e-09
5.89564684678e-09
1.96145250919e-09
2.87828352762e-09
1.14978192045e-08
4.99259187761e-09
1.97963147263e-09
1.25445463232e-09
1.38652665524e-09
6.95643262832e-10
4.94238951469e-09
3.09210609574e-09
3.40416761731e-09
1.83745749116e-09
7.63312992144e-09
6.10008160202e-09
5.9750940878e-09
6.38834151242e-09
1.64098114606e-09
1.71193813671e-09
6.00965221346e-09
1.93247290768e-09
5.39348444929e-10
1.03713531575e-09
9.42999787145e-09
2.62908492311e-09
9.91761533814e-10
5.29668773906e-09
5.96818111959e-09
5.26730094846e-09
5.57833116705e-09
3.20392168004e-09
1.41885122573e-09
3.86154261923e-09
3.45081538549e-09
5.83773699606e-10
1.09850895999e-08
3.21027683801e-10
1.99560836899e-09
8.30518900617e-10
1.79146726235e-09
9.69984191184e-11
4.89492337502e-09
7.88939380771e-09
6.20429976981e-09
8.36948792742e-09
1.04868010643e-08
9.70798190509e-09
2.79400642556e-09
2.25498185966e-10
1.32382249672e-08
4.95580668798e-09
1.42741519943e-09
5.58264467539e-09
1.68279013432e-09
3.50575926016e-09
1.0913105838e-09
1.43623771109e-09
1.22979539112e-09
3.23025036558e-09
7.61589648976e-09
9.34155362495e-10
6.6405849836e-10
2.3578520312e-09
9.47590456723e-10
4.16555300194e-10
5.46519913393e-09
6.4206784998e-09
2.5992761022e-09
4.16847983552e-09
2.24389857722e-09
1.85295437948e-09
7.22425668275e-10
2.09912939775e-09
1.10892319917e-09
9.32078313923e-10
3.70428815328e-09
3.40233803614e-09
3.41964079038e-09
7.80155231512e-09
1.2837710048e-09
3.54366675489e-09
2.92115629111e-09
3.40827524093e-09
4.15745782309e-09
3.47226020527e-09
4.69576507e-09
4.19546091384e-09
1.98577778947e-09
2.27062028171e-09
5.00450323312e-09
1.82196208334e-09
2.80915716555e-09