# vtk DataFile Version 3.0
File Name: Molecule/sphere_cent/sphere_cent_0-s18.vtk
ASCII
DATASET UNSTRUCTURED_GRID
FIELD FieldData 1
TIME 1 1 double
0.0
POINTS 252 double
0.33712759614 -0.50305241346 -0.79573893547
0.06916423887 -0.50584590435 -0.85986924171
0.17192927003 -0.25858333707 -0.95054244995
-0.11522901803 -0.24948316813 -0.96128594875
0.0091889137402 0.023722195998 -0.99960833788
0.76313114166 0.37700337172 -0.5244884491
0.55496329069 0.45690053701 -0.69513875246
0.65485680103 0.62064129114 -0.43119251728
0.41439858079 0.69628560543 -0.5860568881
0.28137534857 0.49921402335 -0.81944590807
0.48230287433 0.82753646374 -0.28703343868
-0.32153329253 -0.49963089824 0.8036442399
-0.030481219292 -0.52794849873 0.84785670042
-0.14957273006 -0.32347294688 0.93407732248
0.14735087752 -0.27009093761 0.95142477751
-0.93565303087 0.15527892113 0.31589332223
-0.95522463322 -0.14224605262 0.2588378787
-0.86759835482 -0.046018436551 0.49505063891
-0.8392765522 -0.27424395084 0.46914416552
0.024586707354 0.99962097406 -0.002745560836
-0.23127554357 0.9644459486 -0.12425254285
-0.247838974 0.95737969875 0.14787884057
-0.46758446097 0.88330894709 -0.018460763618
-0.6451022625 0.58496922255 0.49065959454
-0.53759944439 0.47951605916 0.693531394
-0.41705366969 0.65977531672 0.62467700243
-0.30231246352 0.50945818424 0.80387473106
-0.51800704002 -0.80587363243 -0.28584066033
-0.30924516916 -0.93740063906 -0.15314133465
-0.53641706705 -0.84338968992 0.0031186393462
-0.28467801213 -0.9479919672 0.14238342643
-0.50032198429 -0.80868029594 0.30799880624
-0.25954818726 -0.85911417007 0.43953585625
-0.0054484950379 -0.99931168556 0.0030671618879
-0.022347610444 -0.96488404274 0.2576392591
-0.43188899755 -0.69310843945 0.57714486122
-0.63517463207 -0.62634593248 0.4516954422
-0.56165385246 -0.49624618888 0.66197258234
-0.18543046713 -0.71167367697 0.677518785
0.22228163481 -0.96321606636 0.14409692585
-0.9463686347 -0.096923477948 -0.30771249533
-0.93790268898 0.14958272874 -0.31268125772
-0.86243891716 0.017118414864 -0.5043117404
-0.83017897606 0.31181636453 -0.46202513576
-0.8012906909 0.53844696283 -0.26025432348
-0.92064166069 0.34812754393 -0.17636576295
-0.29452294111 0.49887517095 -0.81504106522
-0.53235805035 0.45613071322 -0.7129445076
-0.42331135273 0.65353047848 -0.62651395798
-0.67248409986 0.55271613598 -0.49153369665
-0.36888098717 -0.51723599434 -0.77201497555
-0.44464239478 -0.65636008978 -0.60901111364
-0.6045435667 -0.4404951632 -0.66357046366
-0.63931572437 -0.61900347471 -0.45552641153
0.52363163233 -0.00020579091506 0.85194391012
0.44321620464 -0.25365933776 0.85972434282
0.68622386456 -0.15805836022 0.71002048254
0.58672350645 -0.4371393919 0.68165153265
0.33417588472 -0.50690197945 0.79410398006
0.78156960011 -0.33055579662 0.52903985977
0.45628613234 -0.66852366924 0.5871322751
0.68353885412 -0.57575768232 0.44865351915
0.51745927334 -0.78615224361 0.33730852604
0.86167997122 -0.42684698105 0.27365121245
0.7191247344 -0.66619151831 0.19755065441
0.84715390205 -0.52962487936 -0.027614178136
0.86361843348 -0.031430672854 0.50247681141
0.69864886999 0.13852596283 0.70188385248
0.82600617409 0.27297762036 0.49070942402
-0.26391032338 0.045433599502 -0.96345901489
-0.14233928919 0.28595903516 -0.94759237766
-0.39514586329 0.25723484159 -0.88185173273
-0.56341969967 -0.044255509973 -0.82436770201
0.42567282915 0.2489836961 0.86992490292
0.27986142039 0.0099907862023 0.95998686552
0.51654326916 -0.8526493907 0.064098350704
-0.049149941653 0.86051255465 0.50637298822
-0.13651061058 0.6815995574 0.71886366606
0.13743047416 0.71274489164 0.68781727552
-0.0043724779971 0.50377511978 0.8638060689
0.29105877876 0.49763604999 0.81705892086
-0.1394789964 0.28319600224 0.94763714075
0.14030362666 0.27748715878 0.95041418076
0.011408081278 0.050602387637 0.99870163202
-0.0061771743931 0.5110887289 -0.85950016975
0.1345962584 0.71396875381 -0.68703883886
-0.13854174316 0.68502128124 -0.71520328522
-0.050430182368 0.86122721434 -0.50583577156
0.23849156499 0.871753335 0.42788910866
0.40765458345 0.69263881445 0.59276741743
0.58014142513 0.41590729356 0.69829708338
0.23532772064 0.87379968166 -0.42539855838
0.13604073226 0.27681350708 -0.95123183727
0.48741790652 0.82867717743 0.27397373319
0.27533921599 0.95130985975 0.13834150136
0.029446642846 0.96410816908 0.26287156343
0.450414747 -0.66794246435 -0.59241318703
0.20779007673 -0.71002846956 -0.67280131578
0.28179603815 -0.83895641565 -0.46558314562
0.50917249918 -0.77534401417 -0.37356555462
-0.025318464264 -0.8762062788 -0.4810577631
0.53349483013 -0.0015414040536 -0.84578233957
0.2884413898 0.010025311261 -0.95741826296
0.39016643167 0.25471901894 -0.88476419449
0.44924584031 -0.25487682223 -0.85622698069
-0.26169881225 0.87921118736 0.39698898792
0.30396103859 -0.93187600374 -0.19059966505
0.85142028332 0.52431547642 -0.005704340525
0.6763574481 0.72543019056 -0.12750098109
0.70477128029 0.69460988045 0.14377048612
0.49920344353 0.86646997929 0.0026171528734
0.27436891198 0.95137363672 -0.14000946283
0.040667712688 0.96495944262 -0.25915247202
0.99815267324 -0.013773703016 0.053403880447
0.96053755283 0.27442336082 0.045186176896
0.94544023275 0.1652777642 0.28065478802
0.87246793509 0.43295878172 0.22261177003
0.6710563302 -0.19672371447 -0.71482890844
0.58282452822 -0.44822400808 -0.67775934935
0.78808772564 -0.33891502023 -0.51373487711
0.81814473867 -0.062164954841 -0.57159698009
0.70665997267 0.062145125121 -0.70477801561
0.90397381783 0.38508206606 -0.1856533736
0.96723532677 0.17580975592 -0.18281579018
0.66688710451 -0.58535295725 -0.46105223894
0.8292708993 -0.47370365262 -0.29650577903
0.71222293377 -0.66143232584 -0.23501381278
0.9352145195 -0.25286969543 -0.24604359269
0.90800768137 -0.12071199715 -0.40101706982
0.91608095169 0.072549551725 -0.39432355762
0.97437238693 -0.041187424213 -0.21955762804
0.82138931751 0.16180972755 -0.54693442583
0.88758021593 0.2701471746 -0.37312602997
0.97415059805 -0.22138437629 -0.037766769528
-0.71293324232 -0.17436806858 0.67907440662
0.55336588621 -0.81760776043 -0.15888629854
0.69728642702 -0.71604150534 -0.030948804691
-0.76401972771 -0.46428090334 0.44795048237
-0.70249217749 -0.3505384028 0.61933594942
-0.55609428883 -0.26428714395 0.78678876162
-0.73207062483 0.015164210461 0.68120151758
-0.52712625265 -0.0041476013139 0.84968012571
-0.72961175442 0.15438352525 -0.66612368822
-0.69329297543 0.35552468896 -0.62687003613
-0.590287745 0.23315729201 -0.7728510499
-0.15606707335 -0.53282517195 -0.83162540197
-0.22876608372 -0.67389380932 -0.70168524981
-0.029547099024 -0.70873582363 -0.70457816124
-0.24625094235 -0.79274970293 -0.55737745762
0.81594604254 0.45029333234 -0.36259803176
0.5847542882 0.21551950276 -0.78206312656
0.70386523008 0.26498228312 -0.65906393528
-0.83495688438 0.31364056468 0.4520855844
-0.82200777531 0.15414196253 0.54823100567
-0.70255196095 0.36146566272 0.61299306154
-0.67670822144 0.17791555822 0.71413934231
-0.505397439 0.26087638736 0.82203376293
0.79503631592 0.56349247694 -0.22451667488
-0.28819549084 -0.36658507586 -0.88462108374
-0.35493978858 -0.16771663725 -0.91975706816
-0.47424259782 -0.29955759645 -0.82696056366
-0.33849620819 -0.15673868358 0.92791831493
-0.27406927943 0.026926761493 0.96064507961
-0.11656101793 -0.12672966719 0.98500037193
-0.85808068514 -0.51273369789 0.0089037679136
-0.88089203835 -0.40483522415 0.24489724636
-0.96149432659 -0.27126809955 0.040241811424
-0.99897742271 -0.027376513928 0.013728617691
-0.76186132431 -0.59747922421 0.2451133728
-0.88208520412 -0.27389678359 -0.38302743435
-0.83177405596 -0.14732255042 -0.53502047062
-0.98706483841 0.09332549572 -0.13036768138
-0.98499053717 -0.11876320094 -0.12554322183
-0.93683999777 -0.31177535653 -0.15846656263
-0.85585594177 -0.44461196661 -0.26332291961
-0.76979082823 -0.45424601436 -0.44813817739
-0.68758243322 -0.19294853508 -0.69934648275
-0.78238195181 -0.29232904315 -0.54923850298
-0.7415997386 -0.61706751585 -0.25946864486
-0.86528027058 0.42004111409 0.27372631431
-0.54953819513 0.81659048796 -0.17654775083
-0.369004637 0.89657896757 -0.24450807273
-0.5351793766 0.82942068577 0.16028949618
-0.44818481803 0.83331054449 0.32264736295
-0.60603547096 0.71923518181 0.33986786008
-0.67575627565 0.73709356785 -0.0039343778044
-0.69579738379 0.6988427043 0.16566686332
-0.8531306386 0.52150762081 0.0032223402523
-0.70337408781 0.68908035755 -0.1737587899
-0.61860686541 0.70359236002 -0.34978064895
-0.44558286667 0.76351106167 0.4672755301
-0.77450734377 0.46013981104 0.43414947391
-0.77525955439 0.57524549961 0.26054805517
-0.45630219579 0.75564002991 -0.4695109725
-0.47227114439 0.8166590333 -0.3316783011
-0.98574203253 0.10758559406 0.12972769141
-0.93643063307 0.32158815861 0.14063608646
-0.9649695158 0.26180487871 -0.010073288344
-0.30006471276 -0.8675160408 -0.39662799239
-0.45774954557 -0.76161843538 -0.45852085948
0.90115612745 -0.22422775626 0.37096723914
0.95693635941 -0.059840865433 0.28398177028
0.95814377069 -0.22687384486 0.17460738122
0.91878676414 -0.3752245903 -0.12222571671
0.92889386415 -0.36520829797 0.061615936458
-0.29361104965 0.85985195637 -0.41756689548
-0.1661157608 0.93039393425 -0.32668527961
-0.25589117408 0.78768104315 0.56039589643
0.36932334304 -0.89149290323 0.2624566257
0.18886822462 -0.91477501392 0.3567455709
0.31650188565 -0.82757246494 0.46325537562
0.10198698193 -0.82207155228 0.56015187502
-0.25930848718 0.78328412771 -0.56493520737
0.22924868762 -0.69043666124 0.68559598923
0.15274901688 -0.54146504402 0.82672584057
0.046117309481 -0.69253265858 0.71952116489
0.13243056834 -0.93624669313 -0.32520577312
-0.015008965507 -0.96915125847 -0.24562290311
0.13524506986 -0.98462504148 -0.11092638969
-0.66357678175 -0.73684930801 -0.12879887223
-0.14772051573 -0.98378157616 -0.10231924802
-0.16099868715 -0.93781584501 -0.3075941503
-0.077063523233 -0.85236442089 0.51599007845
-0.73824119568 -0.034648928791 -0.67373198271
-0.79573506117 -0.59359633923 -0.12005420774
-0.71606624126 -0.69795811176 0.0047402856871
0.46548530459 0.76674008369 0.44198387861
0.59641349316 0.71743053198 0.36006456614
0.56285828352 0.6490547061 0.51178264618
0.68521356583 0.59195965528 0.42422571778
0.51348876953 0.56615805626 0.64470976591
0.64657753706 0.51501005888 0.56277447939
0.76448976994 0.44580566883 0.46551397443
0.71672540903 0.36336907744 0.59514415264
-0.4445053637 -0.38006672263 0.81094765663
-0.44832527637 -0.21910892427 0.86671429873
-0.34210124612 -0.32889047265 0.88022542
0.37339344621 -0.92273139954 0.095581173897
0.40800389647 -0.91110450029 -0.057050779462
0.27682378888 -0.96065473557 -0.018288280815
-0.13513404131 -0.92350196838 0.3590554297
0.029686708003 -0.90715014935 0.41977566481
-0.23529928923 0.39129111171 0.88963580132
-0.33073523641 0.27570840716 0.90250909328
-0.22211925685 0.16345992684 0.96126741171
-0.39146628976 0.15049147606 0.90772384405
0.8542072773 0.36689335108 0.36839324236
0.78691828251 0.51772743464 0.33564308286
-0.4033254683 0.38273251057 0.83113664389
-0.6446390748 -0.71329253912 0.27463528514
-0.62692165375 -0.76342761517 0.15493649244
-0.73922538757 -0.66193604469 0.12519705296

CELLS 500 2000
3 0 1 2
3 1 3 2
3 2 3 4
3 5 6 7
3 6 8 7
3 6 9 8
3 7 8 10
3 11 12 13
3 12 14 13
3 15 16 17
3 17 16 18
3 19 20 21
3 20 22 21
3 23 24 25
3 25 24 26
3 27 28 29
3 28 30 29
3 29 30 31
3 31 30 32
3 30 33 34
3 31 35 36
3 35 37 36
3 35 11 37
3 31 32 35
3 32 38 35
3 35 38 11
3 11 38 12
3 39 34 33
3 40 41 42
3 42 41 43
3 44 43 45
3 46 47 48
3 47 49 48
3 50 51 52
3 51 53 52
3 54 55 56
3 55 57 56
3 55 58 57
3 56 57 59
3 58 60 57
3 60 61 57
3 60 62 61
3 57 61 59
3 59 61 63
3 61 64 63
3 61 62 64
3 63 64 65
3 59 66 56
3 66 67 56
3 66 68 67
3 56 67 54
3 4 69 70
3 69 71 70
3 69 72 71
3 70 71 46
3 3 69 4
3 54 67 73
3 58 55 14
3 14 55 74
3 75 64 62
3 46 71 47
3 76 77 78
3 77 79 78
3 77 26 79
3 78 79 80
3 81 82 79
3 81 83 82
3 79 82 80
3 80 82 73
3 82 74 73
3 82 83 74
3 73 74 54
3 9 84 85
3 84 86 85
3 84 46 86
3 85 86 87
3 76 78 88
3 89 78 80
3 80 73 90
3 90 73 67
3 9 85 8
3 8 85 91
3 54 74 55
3 14 74 83
3 26 77 25
3 48 86 46
3 46 84 70
3 70 84 92
3 93 94 88
3 94 95 88
3 94 19 95
3 88 95 76
3 0 96 97
3 96 98 97
3 96 99 98
3 97 98 100
3 101 102 103
3 102 92 103
3 102 4 92
3 103 92 9
3 4 102 2
3 2 102 104
3 0 97 1
3 89 88 78
3 6 103 9
3 76 95 105
3 21 95 19
3 106 98 99
3 9 92 84
3 70 92 4
3 107 108 109
3 108 110 109
3 108 10 110
3 109 110 93
3 10 91 111
3 91 112 111
3 91 87 112
3 111 112 19
3 113 114 115
3 114 116 115
3 114 107 116
3 101 117 104
3 117 118 104
3 117 119 118
3 104 118 0
3 119 117 120
3 120 117 121
3 107 114 122
3 123 114 113
3 101 104 102
3 2 104 0
3 107 109 116
3 10 108 7
3 87 91 85
3 8 91 10
3 19 112 20
3 66 115 68
3 10 111 110
3 94 111 19
3 93 110 94
3 94 110 111
3 0 118 96
3 96 118 124
3 119 125 124
3 125 126 124
3 125 65 126
3 124 126 99
3 127 125 119
3 120 128 119
3 119 128 127
3 120 129 128
3 129 130 128
3 129 123 130
3 128 130 127
3 120 131 129
3 131 132 129
3 131 5 132
3 129 132 123
3 127 130 133
3 130 123 113
3 18 134 17
3 99 135 106
3 65 136 126
3 136 135 126
3 136 75 135
3 126 135 99
3 36 37 137
3 18 138 134
3 138 139 134
3 138 37 139
3 140 134 141
3 43 142 42
3 47 143 49
3 143 43 49
3 43 143 142
3 143 144 142
3 143 47 144
3 142 144 72
3 75 136 64
3 64 136 65
3 72 144 71
3 71 144 47
3 119 124 118
3 96 124 99
3 1 145 3
3 50 145 146
3 145 147 146
3 145 1 147
3 146 147 148
3 7 149 5
3 5 149 132
3 101 150 121
3 150 151 121
3 150 6 151
3 121 151 131
3 152 153 154
3 153 140 155
3 153 17 140
3 155 140 141
3 17 153 15
3 15 153 152
3 23 154 24
3 24 154 156
3 154 155 156
3 155 154 153
3 156 155 141
3 50 146 51
3 100 147 97
3 97 147 1
3 6 150 103
3 103 150 101
3 107 157 108
3 108 157 7
3 131 151 5
3 5 151 6
3 101 121 117
3 120 121 131
3 132 122 123
3 123 122 114
3 107 122 157
3 122 149 157
3 122 132 149
3 157 149 7
3 139 141 134
3 134 140 17
3 3 158 159
3 158 160 159
3 158 50 160
3 159 160 72
3 141 161 162
3 161 163 162
3 161 13 163
3 162 163 83
3 83 163 14
3 14 163 13
3 164 165 166
3 16 165 18
3 167 166 16
3 16 166 165
3 164 168 165
3 168 137 165
3 168 36 137
3 165 137 18
3 169 40 170
3 41 40 171
3 167 172 166
3 172 173 166
3 172 40 173
3 166 173 164
3 164 173 174
3 173 169 174
3 173 40 169
3 174 169 175
3 72 160 176
3 52 160 50
3 53 175 52
3 52 175 177
3 177 175 169
3 175 178 174
3 175 53 178
3 27 178 53
3 3 159 69
3 69 159 72
3 18 137 138
3 138 137 37
3 50 158 145
3 145 158 3
3 152 179 15
3 180 22 181
3 22 182 21
3 21 182 183
3 183 182 184
3 182 185 186
3 182 22 185
3 186 185 187
3 22 180 185
3 180 188 185
3 188 180 189
3 185 188 187
3 184 23 190
3 152 191 179
3 191 192 179
3 191 23 192
3 179 192 187
3 187 192 186
3 192 184 186
3 192 23 184
3 186 184 182
3 48 49 193
3 194 189 180
3 189 44 188
3 189 49 44
3 188 44 187
3 43 44 49
3 23 191 154
3 154 191 152
3 15 195 16
3 195 167 16
3 167 195 171
3 195 196 197
3 195 15 196
3 197 196 187
3 27 198 28
3 41 171 45
3 171 197 45
3 197 171 195
3 45 197 187
3 51 199 53
3 199 27 53
3 27 199 198
3 199 148 198
3 199 51 148
3 198 148 100
3 63 200 59
3 59 200 66
3 113 201 202
3 201 200 202
3 201 66 200
3 202 200 63
3 66 201 115
3 115 201 113
3 100 148 147
3 146 148 51
3 167 171 172
3 172 171 40
3 187 196 179
3 179 196 15
3 41 45 43
3 44 45 187
3 65 203 204
3 203 133 204
3 203 127 133
3 204 133 202
3 183 105 21
3 21 105 95
3 194 181 205
3 181 206 205
3 181 20 206
3 205 206 87
3 183 190 105
3 190 207 105
3 190 25 207
3 105 207 76
3 62 208 75
3 39 208 209
3 208 210 209
3 208 62 210
3 209 210 211
3 39 209 34
3 87 212 205
3 212 193 205
3 212 48 193
3 205 193 194
3 211 210 213
3 60 210 62
3 76 207 77
3 77 207 25
3 48 212 86
3 86 212 87
3 87 206 112
3 112 206 20
3 127 203 125
3 125 203 65
3 20 181 22
3 180 181 194
3 25 190 23
3 184 190 183
3 194 193 189
3 189 193 49
3 202 133 113
3 113 133 130
3 65 204 63
3 63 204 202
3 12 214 14
3 214 58 14
3 58 214 213
3 214 215 213
3 214 12 215
3 213 215 211
3 100 216 217
3 216 218 217
3 216 106 218
3 217 218 33
3 33 218 39
3 29 219 27
3 27 219 178
3 28 220 30
3 220 33 30
3 33 220 217
3 220 221 217
3 220 28 221
3 217 221 100
3 211 215 222
3 38 215 12
3 177 170 176
3 170 223 176
3 170 42 223
3 176 223 72
3 177 176 52
3 52 176 160
3 58 213 60
3 60 213 210
3 106 216 98
3 98 216 100
3 72 223 142
3 142 223 42
3 42 170 40
3 169 170 177
3 178 224 174
3 174 224 164
3 164 224 225
3 224 219 225
3 224 178 219
3 225 219 29
3 100 221 198
3 198 221 28
3 93 226 227
3 226 228 227
3 226 89 228
3 227 228 229
3 89 230 228
3 230 231 228
3 230 90 231
3 228 231 229
3 90 230 80
3 80 230 89
3 229 231 232
3 231 233 232
3 231 90 233
3 232 233 68
3 139 234 235
3 234 236 235
3 234 11 236
3 235 236 161
3 75 237 238
3 237 239 238
3 237 39 239
3 238 239 106
3 34 240 30
3 30 240 32
3 32 240 222
3 240 241 222
3 240 34 241
3 222 241 211
3 32 222 38
3 38 222 215
3 68 233 67
3 67 233 90
3 26 242 79
3 242 81 79
3 81 243 244
3 243 245 244
3 243 156 245
3 244 245 162
3 89 226 88
3 88 226 93
3 116 246 115
3 115 246 68
3 93 227 109
3 109 227 229
3 68 246 232
3 246 247 232
3 246 116 247
3 232 247 229
3 229 247 109
3 247 116 109
3 75 238 135
3 135 238 106
3 11 234 37
3 234 139 37
3 156 248 24
3 24 248 26
3 26 248 242
3 248 243 242
3 248 156 243
3 242 243 81
3 168 249 36
3 36 249 31
3 31 250 29
3 29 250 225
3 162 245 141
3 141 245 156
3 81 244 83
3 244 162 83
3 161 236 13
3 13 236 11
3 139 235 141
3 235 161 141
3 39 237 208
3 208 237 75
3 211 241 209
3 209 241 34
3 106 239 218
3 218 239 39
3 225 251 164
3 164 251 168
3 168 251 249
3 251 250 249
3 251 225 250
3 249 250 31

CELL_TYPES 500
5
5
5
5
5
5
5
5
5
5
5
5
5
5
5
5
5
5
5
5
5
5
5
5
5
5
5
5
5
5
5
5
5
5
5
5
5
5
5
5
5
5
5
5
5
5
5
5
5
5
5
5
5
5
5
5
5
5
5
5
5
5
5
5
5
5
5
5
5
5
5
5
5
5
5
5
5
5
5
5
5
5
5
5
5
5
5
5
5
5
5
5
5
5
5
5
5
5
5
5
5
5
5
5
5
5
5
5
5
5
5
5
5
5
5
5
5
5
5
5
5
5
5
5
5
5
5
5
5
5
5
5
5
5
5
5
5
5
5
5
5
5
5
5
5
5
5
5
5
5
5
5
5
5
5
5
5
5
5
5
5
5
5
5
5
5
5
5
5
5
5
5
5
5
5
5
5
5
5
5
5
5
5
5
5
5
5
5
5
5
5
5
5
5
5
5
5
5
5
5
5
5
5
5
5
5
5
5
5
5
5
5
5
5
5
5
5
5
5
5
5
5
5
5
5
5
5
5
5
5
5
5
5
5
5
5
5
5
5
5
5
5
5
5
5
5
5
5
5
5
5
5
5
5
5
5
5
5
5
5
5
5
5
5
5
5
5
5
5
5
5
5
5
5
5
5
5
5
5
5
5
5
5
5
5
5
5
5
5
5
5
5
5
5
5
5
5
5
5
5
5
5
5
5
5
5
5
5
5
5
5
5
5
5
5
5
5
5
5
5
5
5
5
5
5
5
5
5
5
5
5
5
5
5
5
5
5
5
5
5
5
5
5
5
5
5
5
5
5
5
5
5
5
5
5
5
5
5
5
5
5
5
5
5
5
5
5
5
5
5
5
5
5
5
5
5
5
5
5
5
5
5
5
5
5
5
5
5
5
5
5
5
5
5
5
5
5
5
5
5
5
5
5
5
5
5
5
5
5
5
5
5
5
5
5
5
5
5
5
5
5
5
5
5
5
5
5
5
5
5
5
5
5
5
5
5
5
5
5
5
5
5
5
5
5
5
5
5
5
5
5
5
5
5
5
5
5
5
5
5
5
5
5
5
5
5
5
5
5
5
5
5
5
5
5
5
5
5
5
5
5
5
5
5
5
5
5
5
5
5
5
5
5
5
5
5
5
5
5
5

CELL_DATA 500
SCALARS cell_data_0 double
LOOKUP_TABLE default
8.94647021815e-08
1.81093232753e-07
1.57356962941e-07
6.64369366835e-08
1.74320363605e-07
1.59256113021e-07
2.46383592488e-07
6.49075215581e-08
1.53324139205e-07
8.92685208155e-08
6.0757666112e-08
1.25351774974e-07
2.76430914901e-08
1.19808112043e-07
1.34449597477e-07
1.40888071537e-07
1.39886497013e-07
1.88484319421e-07
6.57558268533e-08
9.43961193809e-08
1.67269950654e-08
1.71327012471e-07
7.95336969804e-08
3.5728975967e-08
7.60026306878e-08
7.18852946857e-08
1.24805428052e-07
4.6297648062e-09
1.51622300437e-07
1.03060380558e-07
2.04058439162e-07
3.60976873491e-08
3.95424931628e-08
1.13066220775e-07
6.65552102827e-09
1.13986255274e-07
2.80156063146e-08
4.09389217227e-08
1.19726124948e-07
3.23877547893e-08
8.9639362167e-08
3.89160525641e-08
9.45599344671e-08
8.21574436153e-09
2.60517094713e-08
7.35292986599e-08
1.8575614186e-07
4.17414069645e-08
6.72231849924e-08
1.58903955489e-07
1.32037754612e-07
3.20122705061e-08
1.06583413797e-07
2.8883439126e-07
6.48822717636e-08
9.97458017531e-08
1.08411053084e-08
1.94789239945e-07
2.20083931323e-07
6.29345591298e-08
5.98824562564e-08
5.79106273736e-09
2.93280250593e-08
3.86843301934e-09
8.96154184288e-08
4.54962280443e-08
6.57230662333e-08
9.30930761761e-08
3.42033116666e-08
1.13278596465e-07
2.69542125553e-08
9.93671491946e-08
9.92215212456e-09
2.74900987882e-08
3.9311300119e-08
3.25396736621e-08
1.18783917549e-07
8.75809511408e-08
1.92110610337e-07
2.95124688159e-07
1.68426050651e-07
2.64336933828e-07
3.76679915764e-09
2.86688697398e-07
2.46745004355e-08
1.31562021651e-07
1.15574195928e-07
7.47962752595e-09
1.10642896591e-07
1.95658368434e-09
2.18366169646e-08
1.74792384024e-08
7.82059012332e-08
1.09831243834e-07
2.25683032561e-08
1.35630935308e-07
4.4518006928e-08
2.35023521182e-08
7.06679138411e-09
4.64074976706e-08
6.72203227313e-08
2.72885708626e-07
2.83805192304e-08
1.21807888169e-07
8.15352814388e-08
1.72616098349e-07
1.35102524063e-07
1.62649431159e-07
1.87969727635e-08
5.8174174022e-08
6.45565464258e-08
1.14462628551e-08
1.30808839725e-08
1.43405391009e-07
1.73402419102e-07
1.43267644896e-07
8.35343764121e-08
6.76561698267e-08
1.46151720219e-07
8.92828547936e-08
3.62592120078e-08
1.32036381293e-09
1.88365000667e-07
6.94577754274e-08
1.58999679893e-07
5.51949301052e-08
3.67370003752e-08
1.87080359287e-08
1.36801774507e-07
8.6821438847e-08
2.31645895389e-07
3.73509813049e-08
1.56086878689e-07
2.25490551402e-07
2.40297854912e-07
1.2905152717e-07
2.17233436718e-07
1.42224498387e-07
1.289927938e-07
1.53152099955e-09
4.92815128577e-08
7.26988333559e-08
1.31201863102e-07
4.70735323623e-08
2.90985081889e-08
8.88241579642e-08
1.4502704423e-07
9.34139967982e-08
5.29298682946e-08
7.15451954142e-08
1.14493958982e-07
5.72604809128e-08
5.96694990877e-08
8.08961071153e-08
5.62462784232e-08
6.64205549853e-08
7.91723728895e-08
5.78999706048e-08
3.49774015128e-08
1.07917901881e-07
7.88853372658e-08
9.86872260646e-08
1.92465480926e-08
3.27490152613e-08
5.70657281384e-08
1.0142709192e-08
7.12111797373e-09
5.78335816642e-08
8.54017091976e-08
6.38526726373e-08
1.23476838768e-07
1.72085928136e-07
6.56401417452e-08
5.15609480194e-08
8.33450414458e-10
5.4941987376e-08
8.28324605156e-08
8.52011627364e-08
1.69724255008e-08
5.11215880176e-08
7.37678463495e-08
6.48903846426e-08
1.61237621446e-07
6.67342234465e-08
2.59679476391e-07
7.89308393435e-08
3.41057987848e-08
7.63815918172e-09
1.00071870833e-08
7.9577303323e-08
1.23917651292e-07
3.55304335203e-08
1.63931117813e-09
3.47061322809e-08
3.70245865175e-08
5.47743173662e-08
7.34166862625e-08
5.74817618788e-08
8.08043046462e-10
1.80837426675e-08
6.39023461538e-08
1.18583490051e-07
7.08784153406e-08
2.87373272027e-08
3.29537766092e-08
1.03080906773e-07
1.39193190956e-07
4.63122140852e-08
8.75610027334e-09
4.00598501085e-08
6.14357178892e-08
4.60012379351e-08
1.0641910829e-07
1.14593110681e-07
1.31991784209e-07
2.68265692824e-08
2.23487309819e-08
2.96181925742e-08
1.50821417581e-08
4.01135489468e-08
1.30469246289e-08
1.26910775191e-08
2.71852140202e-08
2.03512644521e-07
7.87543879804e-09
6.35022965611e-08
8.89492641714e-08
1.0599975659e-07
3.88013719183e-08
4.40915994215e-08
9.5467946294e-08
3.1817763072e-08
4.64807850651e-08
1.63223178036e-07
1.68826327924e-08
2.47703853308e-08
8.52442882393e-08
3.90112165231e-08
3.55282862732e-08
1.20386138951e-08
1.53567010944e-08
3.38515636545e-08
1.36024444221e-08
1.38327666831e-08
3.75777055283e-08
6.23360579207e-08
2.32198780098e-08
2.53040466571e-08
5.65033675436e-08
8.32644658888e-08
6.44738611592e-09
7.01928921727e-08
1.15500575094e-09
1.16243889686e-07
3.42728089105e-08
8.12861218833e-09
3.64053082646e-08
5.74342543233e-08
2.34163514131e-08
2.36138189908e-08
1.43714480038e-07
7.47824866863e-08
3.19505413033e-08
1.16419982075e-07
4.66149945177e-08
1.11341816046e-07
4.9156859917e-08
6.1003329415e-09
1.66297060784e-08
1.43069083764e-08
3.45235882791e-08
1.2725757006e-07
6.71164012028e-08
3.30027857549e-08
4.17512670805e-08
1.28448664781e-08
1.87216899322e-08
3.30689478775e-09
6.76817637505e-08
1.90867027719e-08
8.87181825678e-08
6.07126122368e-08
7.64962547085e-09
5.13282893396e-08
3.74104565654e-08
5.61467186978e-08
2.24776806099e-08
5.72783105354e-08
8.28526202901e-08
7.05148198263e-08
1.78258717314e-09
1.52515547427e-08
6.20587682106e-08
1.92157943089e-07
6.22720033143e-08
9.08149044797e-08
4.0597348569e-08
8.81375259313e-08
7.00206464619e-08
1.00578748547e-07
1.16647629634e-07
1.0151322884e-08
1.1749498545e-07
2.39058601328e-09
3.34392434328e-08
2.69347541348e-08
6.99487474851e-09
1.12702806389e-07
4.20443816312e-08
6.47151373238e-08
9.55776034166e-09
2.42408887713e-09
4.04072437679e-08
6.97763167905e-08
7.13637708054e-09
1.96569926025e-08
3.76252618807e-08
6.47521286076e-08
1.23534700477e-08
2.65707515597e-08
4.19637281216e-08
1.25703215119e-07
2.42147311267e-08
7.32049552815e-08
4.40234846134e-09
1.04907849314e-09
5.97972757286e-09
3.75524163255e-08
1.39289192372e-08
9.32171076349e-08
1.40676355815e-08
6.09294127008e-08
2.95005332308e-09
5.94967865363e-09
2.81701767163e-07
3.20453453876e-08
3.70260596834e-08
3.11648432965e-08
1.06438510274e-08
5.09934763372e-08
4.60978079021e-08
7.14502456727e-08
4.95837504934e-08
1.23716237169e-08
8.50578757499e-10
2.04127925414e-08
4.68355874408e-08
2.53398561667e-09
2.8519969552e-08
3.36652665186e-08
1.12299730239e-08
9.88794404973e-08
4.58751475384e-08
3.98807087986e-08
4.92928303809e-08
2.18130295227e-08
1.56648433493e-08
3.65998862363e-08
1.08925960995e-07
4.05632346745e-08
3.38739054181e-08
8.035744251e-08
4.36948342117e-08
1.36060193028e-08
7.4679652418e-08
1.47817620625e-10
9.19855525065e-08
1.05652091671e-07
5.20435059667e-09
5.85483851168e-08
1.28721426026e-07
2.37716608323e-08
1.23810925046e-08
7.10207545052e-08
9.77844314709e-08
8.66125652879e-08
2.06316885312e-08
7.06952201712e-08
7.48941869873e-08
5.12342978038e-08
1.5364164959e-08
5.74317407914e-08
7.59397336271e-09
1.50109344545e-08
3.21327715245e-08
5.70497863421e-08
2.28403139408e-08
4.54434446756e-08
1.5006632281e-08
1.21019026375e-08
1.82529569623e-08
1.52916176154e-08
1.03515081346e-07
2.76855552743e-09
5.02225899111e-08
3.68702520398e-08
7.19630789236e-08
3.40912891725e-08
2.80699024361e-08
1.49666319834e-07
4.11554368531e-08
2.43884557359e-08
5.86279901065e-08
5.57095762603e-08
8.58780698363e-08
1.16151304755e-08
8.65446953631e-08
7.77376793095e-08
3.4127714881e-08
1.23763181493e-08
3.78175048414e-08
9.38023353396e-09
2.79717584041e-08
4.3212087081e-08
1.96988152007e-08
4.7712738091e-09
5.77961534709e-08
2.57632036981e-08
2.76828022008e-08
4.72441957102e-08
7.75968976861e-08
1.47351153807e-08
6.57699206104e-08
3.59850268879e-08
1.00100190469e-07
2.94205887832e-08
2.96064213448e-08
1.32798722511e-08
1.52488506276e-08
1.7927496149e-08
2.67551383076e-08
1.95223297344e-08
4.6229425544e-08
2.41326215749e-08
3.88454575156e-08
1.96927694647e-08
2.88142864693e-08
3.4580125767e-08
2.77935553611e-08
1.60643236857e-08
6.48114896397e-08
5.47293294975e-08
4.36952182629e-08
3.54065525048e-08
4.11067102562e-09
1.94259144917e-07
2.38567326383e-08
5.56038139036e-08
3.12653018696e-08
2.28911766253e-08
3.56487742115e-08
1.4714177759e-08
1.2132636708e-08
5.94068524228e-08
1.42185644608e-08
3.16716394878e-08
6.98384811029e-08
1.05615116463e-08
2.50545099812e-08
2.94614524602e-09
2.31175623414e-08
1.16199069001e-08
5.16447333548e-08
6.5244488731e-08
5.66482568829e-09
8.79365768236e-08
6.02225386794e-08
1.87089871534e-08
1.7827783534e-08
6.69548876942e-09
1.89970750931e-08
5.89547526865e-08
6.599891659e-08
1.40688150141e-08
5.38658182526e-09
3.31689867061e-08
2.53551689388e-08
5.04627005818e-08
6.53339705538e-10
1.05776525254e-10
2.33310346511e-08
5.20944696841e-08
6.18790638591e-09
4.40163341062e-08
2.43186745312e-08
1.89289956266e-08
2.42143643921e-08
8.68886453195e-09
2.76622492647e-08
1.03153176544e-08
4.32980079167e-09
1.46108430497e-08
5.266484265e-08
2.16623490559e-08
7.76522465714e-09
1.46394827394e-08
2.17063495352e-08
1.73374538468e-08
8.99096426956e-09
5.02642679321e-08

