# vtk DataFile Version 3.0
File Name: Molecule/sphere_cent/sphere_cent_0-s33.vtk
ASCII
DATASET UNSTRUCTURED_GRID
FIELD FieldData 1
TIME 1 1 double
0.0
POINTS 1356 double
0.92689031363 -0.14520476758 -0.345772475
0.96876353025 -0.098678171635 -0.22730079293
0.93257510662 -0.23437257111 -0.27449315786
0.86601161957 0.4878243506 -0.10890989751
0.88028001785 0.42653679848 -0.20633259416
0.81788343191 0.53426033258 -0.21321815252
-0.98178547621 -0.16684006155 -0.090780965984
-0.94777357578 -0.28684437275 -0.13945755363
-0.96332859993 -0.26818463206 0.0053728958592
-0.77475565672 -0.51124024391 -0.3719496429
-0.74009782076 -0.61641746759 -0.26882770658
-0.82790714502 -0.50220698118 -0.2497048825
-0.84184622765 0.31042420864 0.44149675965
-0.87132614851 0.36857131124 0.32389387488
-0.91379982233 0.23636294901 0.33024281263
-0.79974973202 0.42698895931 0.42198586464
-0.75026232004 0.37536674738 0.54390275478
-0.33527565002 0.91247433424 -0.23401392996
-0.241438061 0.95760542154 -0.15721479058
-0.21871806681 0.93261855841 -0.28699183464
-0.8607839942 -0.26368373632 -0.43457940221
-0.83303004503 -0.17939502001 -0.52334183455
-0.78192287683 -0.30118384957 -0.54569625854
-0.78894859552 -0.59286302328 -0.16142942011
-0.69487410784 -0.7026886344 -0.1523462683
0.64258396626 0.4970459938 0.58292561769
0.59951841831 0.43821564317 0.66901606321
0.69266706705 0.38291922212 0.61109298468
-0.56084698439 -0.28976586461 0.77552378178
-0.45565095544 -0.3649135828 0.81156802177
-0.44728380442 -0.25001180172 0.85873705149
-0.33477696776 -0.32248353958 0.88498157263
-0.3280159533 -0.1968459934 0.9238922596
0.3373645246 -0.93553853035 0.10454784334
0.20770516992 -0.97172522545 0.11222948879
0.29190811515 -0.95640051365 -0.0045692217536
-0.30324149132 0.26479876041 0.91513520479
-0.38155096769 0.14980223775 0.91212439537
-0.24783036113 0.15527452528 0.95591515303
-0.29223278165 0.04804231599 0.95511466265
-0.24946671724 0.37310376763 0.89347684383
-0.17429491878 0.28826203942 0.94096827507
-0.56579488516 -0.8240596652 0.027099059895
-0.65640449524 -0.74689602852 0.10612630099
-0.69234699011 -0.72154933214 -0.003699534107
-0.77452301979 -0.5810559988 0.24996912479
-0.73314750195 -0.65753740072 0.17347788811
-0.68635541201 -0.66783201694 0.28795000911
0.17834049463 -0.12165195495 0.97631728649
0.16775226593 0.015008959919 0.98571527004
0.064966395497 -0.05343914032 0.99643450975
0.15861159563 -0.25526696444 -0.95376133919
0.22616201639 -0.12305764854 -0.96628582478
0.3105623126 -0.24836865067 -0.91751617193
0.34470278025 -0.096240915358 -0.93374800682
0.28512981534 0.017732223496 -0.95831483603
0.25800713897 -0.37881377339 -0.88876765966
0.37600624561 -0.37981784344 -0.8446700573
0.43692725897 -0.2721658349 -0.85733520985
0.32280179858 -0.49889594316 -0.8042755723
0.46345147491 0.77979254723 -0.42003515363
0.40068379045 0.85139548779 -0.33804276586
0.50910907984 0.81017076969 -0.29052096605
-0.27374541759 0.95102882385 0.14136248827
-0.23483005166 0.93591022491 0.26247188449
-0.15498492122 0.9732080698 0.16952769458
0.012085173279 -0.20803807676 -0.97803884745
0.093479059637 -0.11043928564 -0.98947054148
-0.035403929651 -0.086976744235 -0.99559354782
0.027163537219 0.01755980216 -0.99947196245
-0.44367843866 -0.8948314786 0.049041576684
-0.48227074742 -0.86251479387 0.1531790942
-0.82971769571 0.44840681553 -0.33238255978
-0.89481014013 0.31546857953 -0.31472533941
-0.88214713335 0.41341087222 -0.22563967109
-0.93038475513 0.31371170282 -0.18961180747
0.097385525703 0.62820708752 0.77125519514
0.17422330379 0.51519179344 0.83916544914
0.21926783025 0.6106467247 0.76039224863
0.30197221041 0.48494383693 0.82074689865
0.62538385391 -0.34530577064 -0.69975703955
0.53003835678 -0.34512776136 -0.77405518293
0.59861558676 -0.2507995069 -0.76074910164
0.57361972332 -0.45862239599 -0.67868685722
0.95941412449 -0.0043260706589 0.28193730116
0.97663593292 0.091042116284 0.193569839
0.94286543131 0.12522785366 0.30867633224
0.51226323843 0.54896706343 0.65995466709
0.51172703505 0.46207329631 0.72366541624
0.41454279423 0.24732203782 0.87574660778
0.49892508984 0.33331426978 0.79972147942
0.36123976111 0.35254922509 0.86330038309
0.15687261522 0.0098321409896 -0.98756766319
0.6043869257 0.71504956484 -0.34931302071
0.69877594709 0.64823424816 -0.3022095263
0.67477840185 0.6139305234 -0.40934693813
0.61388373375 0.75419282913 -0.23239421844
0.80940109491 -0.54065865278 0.22918017209
0.77454417944 -0.62644869089 0.087417982519
0.83944624662 -0.53221064806 0.10904439539
0.8364263773 -0.54750841856 -0.022989351302
0.48196524382 0.82222664356 0.30202615261
0.37815153599 0.89856392145 0.22265842557
0.36702007055 0.85150295496 0.37450113893
0.26281484962 0.90909928083 0.32310768962
0.23238737881 0.86653923988 0.44168406725
0.53295511007 -0.015332413837 -0.84596246481
0.40635338426 0.024891361594 -0.91339766979
0.46970331669 0.12869973481 -0.87339705229
0.34494543076 0.14371427894 -0.92755150795
0.41277810931 0.25579506159 -0.87416666746
0.21377110481 0.1449880898 -0.96606439352
0.29190048575 0.25806155801 -0.92076718807
0.094504833221 0.12064532191 -0.98818123341
0.10960138589 0.24896636605 -0.96186184883
0.34346982837 0.38180693984 -0.85805076361
0.20674175024 0.41027855873 -0.88789081573
0.27158746123 0.49149125814 -0.82741135359
0.47165352106 0.35969051719 -0.80508083105
0.40674513578 0.48265245557 -0.77453440428
0.69690322876 0.7008972764 0.15151697397
0.60290259123 0.79299736023 0.087555408478
0.60941958427 0.76442366838 0.20929886401
0.50569063425 0.86227935553 0.022971225902
0.49299645424 0.85810428858 0.14062207937
0.80267095566 0.59545332193 0.02922327444
0.78598588705 0.59887361526 0.15345148742
0.85629349947 0.50364458561 0.1141441837
0.85714924335 -0.038801364601 0.51359379292
0.90959537029 0.063868753612 0.41047927737
0.85253107548 0.094689518213 0.51392054558
0.89011394978 0.17774909735 0.41944274306
0.41859266162 0.88195288181 -0.2166762054
0.50870269537 0.84661650658 -0.15505799651
0.43441072106 0.8976764679 -0.07342094183
0.27363193035 0.95418262482 0.12090587616
0.24706062675 0.96899157763 -0.00054189132061
0.14589193463 0.98714619875 0.065013714135
0.11651805788 0.99179697037 -0.052447702736
0.0079616038129 0.9995996356 0.015606116503
0.39245280623 0.91713154316 0.069522619247
-0.58450895548 0.27865219116 -0.76193797588
-0.65795964003 0.19182549417 -0.72820448875
-0.67710262537 0.30461871624 -0.66987264156
-0.74194431305 0.1841480881 -0.64448690414
-0.69656050205 0.071529753506 -0.71382343769
-0.57531011105 0.14883483946 -0.80419874191
0.54304605722 0.22390118241 -0.80930167437
0.45018818974 0.76821649075 0.45389470458
0.32454127073 0.80712032318 0.49301728606
0.82931566238 0.51178777218 0.22391313314
0.72254920006 0.6396561861 0.26098001003
0.50967782736 0.0083895474672 0.86033016443
0.50629365444 -0.12976619601 0.85255765915
0.60681736469 -0.080898746848 0.79070824385
0.57641643286 -0.22070372105 0.78677582741
0.44258776307 -0.24251721799 0.86327761412
0.68330895901 -0.16375878453 0.71151041985
0.55374616385 -0.36178788543 0.74994707108
0.64843475819 -0.30282211304 0.69845974445
0.59784716368 -0.43979939818 0.67019563913
0.74473953247 -0.24787601829 0.61960864067
0.70190268755 -0.38427531719 0.59970855713
0.79406350851 -0.32368370891 0.51446640491
0.6489391923 -0.51305896044 0.56181436777
0.74735873938 -0.45221534371 0.48678067327
0.69255894423 -0.57592320442 0.43436560035
0.82980406284 -0.38394677639 0.40500277281
0.79176110029 -0.48981866241 0.36496078968
0.86247885227 -0.4251293242 0.27451702952
0.82761818171 -0.19091527164 0.52782654762
0.7765558362 -0.10609544814 0.62105494738
0.7855938673 0.032708477229 0.61786025763
0.70455485582 -0.029797559604 0.70902270079
0.68934392929 0.086516179144 0.71915447712
0.61648637056 0.036824218929 0.7864471674
-0.09454485774 0.035884305835 -0.99485701323
-0.011241035536 0.11910349876 -0.99267464876
-0.12021850795 0.68854951859 0.71514332294
-0.20874536037 0.61546480656 0.75999373198
-0.073947057128 0.60268980265 0.79422831535
-0.1529815197 0.53119492531 0.83299946785
-0.055532779545 0.48720791936 0.87151938677
0.24356587231 0.38058760762 0.89208936691
0.30606988072 0.26529854536 0.9137943387
0.35899469256 0.16233113408 0.91907030344
-0.14679275453 0.49539253116 -0.85600161552
-0.092823907733 0.41552385688 -0.90481752157
-0.21144105494 0.40927052498 -0.88742703199
-0.032234951854 0.51717734337 -0.85489946604
0.14541770518 0.91568428278 0.3746445179
0.091993682086 0.87793976068 0.46909242868
0.044884573668 0.91663187742 0.39713510871
0.19809618592 0.80748707056 0.55471068621
0.88488960266 -0.25912436843 -0.3869843781
-0.55830407143 0.59201461077 -0.58126038313
-0.57570379972 0.65008020401 -0.49582773447
-0.45897230506 0.6917001009 -0.55756616592
-0.66098463535 0.54541701078 -0.51537692547
0.87525564432 -0.2593690455 0.40819603205
-0.38646709919 0.65126174688 -0.65305703878
-0.32558295131 0.74495738745 -0.58221542835
-0.12753599882 0.77497518063 0.61889117956
-0.22427390516 0.71057391167 0.66690963507
0.28548318148 0.017435753718 0.95819163322
0.24770969152 0.12644764781 0.96014893055
0.4013133347 -0.13893677294 0.90531098843
0.0035745725036 0.69335609674 0.72027772665
0.11759088188 0.718542099 0.68473428488
0.40924450755 0.42457336187 0.8073362112
-0.058843437582 0.31832486391 -0.94602948427
0.03732342273 0.39517438412 -0.91763067245
-0.94923192263 0.0104229711 0.31430771947
-0.91386246681 -0.097886763513 0.39400273561
-0.90026432276 0.014276014641 0.4350438118
-0.9609683156 -0.10711722076 0.25504863262
-0.85562515259 -0.07961717248 0.51110041142
-0.85903060436 -0.21400137246 0.46495771408
-0.53502416611 -0.79674464464 -0.28100782633
-0.4438919127 -0.86958575249 -0.21625122428
-0.5347661972 -0.8271484971 -0.17216846347
-0.46737062931 -0.88021177053 -0.082097426057
-0.36018827558 -0.92277115583 -0.13700756431
-0.43314111233 -0.68735259771 0.58298408985
-0.3801151216 -0.61436253786 0.69142538309
-0.49895042181 -0.59580993652 0.62933754921
-0.45151758194 -0.53176426888 0.71653187275
[...]
CELL_DATA 2708
SCALARS cell_data_0 double
LOOKUP_TABLE default
1.36338713659e-09
2.17185066774e-09
5.29293527138e-09
1.3679573941e-08
1.07007823848e-08
9.77079246799e-09
1.70090870805e-09
7.24579824211e-09
9.86157464271e-09
1.07413514085e-09
8.5657373622e-09
3.04693303962e-09
1.50814466954e-08
1.32136107889e-08
4.2504748955e-09
1.17324765806e-08
3.91781816018e-09
9.64942770888e-10
1.79454434553e-08
3.46495271081e-10
4.31021043431e-09
3.31640134387e-08
2.456904845e-08
4.63988806139e-09
3.44779090772e-08
1.55283777981e-08
1.98886904298e-08
1.86880297616e-08
5.52434391869e-09
6.09267907083e-09
1.96436777223e-08
3.87311181344e-09
1.26253159359e-09
6.18060631973e-09
1.09768187301e-08
6.45672153424e-09
1.3859763836e-08
8.80451452256e-09
3.24290167933e-09
1.75579771535e-09
1.53303984842e-09
1.13369581592e-08
1.63913025066e-08
2.08817338295e-08
8.79933610568e-09
7.66348571241e-09
1.69423954938e-08
1.35310949239e-08
9.15707681021e-09
2.91345660886e-08
1.9136574022e-08
2.59339502565e-09
1.46077530632e-08
5.8692907385e-09
2.79467542711e-09
6.40261937421e-09
3.01230804888e-09
5.20086329647e-09
9.59053851661e-10
1.22106145953e-10
3.42560703433e-11
2.21448453248e-09
1.29717743938e-08
1.44454815142e-08
2.265490889e-09
1.89318416492e-08
3.91947091124e-09
1.0885963471e-08
6.42726231505e-09
1.16203230523e-08
1.22272669286e-08
6.26486723671e-09
2.05924552147e-09
6.08718722714e-09
7.44665569115e-09
1.35184873384e-08
1.75212966668e-09
2.25748320805e-09
3.89349061096e-09
2.53760871265e-08
3.22007645717e-11
1.96335756378e-08
1.03570928996e-08
1.31720126122e-08
4.27633397032e-09
8.36294785914e-11
5.65611595139e-09
2.25806873826e-09
2.09863036261e-08
1.15021148475e-08
6.60076269151e-10
1.54124501754e-08
1.37725715877e-09
1.04196309851e-08
2.95499698162e-09
4.64682556819e-09
5.58945943153e-09
3.0139046617e-09
1.22008043487e-08
3.43096268547e-09
8.17260063988e-09
1.43220173301e-08
6.87522738864e-09
1.32234787527e-08
5.35035416065e-09
6.73056686702e-09
8.93714443922e-09
9.95013147979e-09
1.02165249069e-08
1.48004640009e-08
9.53402914051e-09
9.33336917035e-09
2.25199381948e-09
6.77149911103e-09
1.01625960362e-08
5.51871970608e-09
4.0629688195e-09
4.76962975358e-10
8.7652351376e-09
1.76670921724e-08
1.71291852016e-08
9.21483523042e-09
5.62174072834e-10
1.15688977413e-08
8.49831011785e-09
1.15128044532e-08
7.36973341542e-09
6.60922424722e-09
3.78186186943e-09
9.74237490348e-09
4.2480132826e-09
5.19560493299e-09
1.17405735529e-08
7.37266223582e-09
1.82001230339e-09
4.03301805631e-09
6.60018530879e-10
2.21064979228e-09
4.57876269456e-09
6.4701948973e-09
7.81162536103e-09
6.80389435022e-09
8.12658055918e-09
6.07769223502e-10
1.83879285965e-09
1.30725443858e-08
7.94695143254e-09
5.85024385688e-09
3.553150825e-09
2.6509295137e-09
3.51964987196e-09
5.9493488353e-10
1.69222379431e-08
1.03269695536e-08
1.14722029915e-08
4.22645873844e-09
1.00474320689e-08
8.2325409459e-09
8.14052504327e-09
1.1155229475e-08
1.83301606485e-09
4.5824505732e-09
8.67055507323e-09
1.21574669467e-08
3.55466955113e-10
1.66097594013e-08
5.54053805365e-09
2.73418813375e-09
6.8064688357e-09
1.19018361622e-08
4.1475343901e-09
1.17779289237e-08
5.82288096372e-09
1.43752837998e-08
1.74451709178e-08
6.35126555896e-09
3.83347075756e-09
1.71505163958e-08
1.50818438762e-08
2.29459701974e-09
1.47735274648e-08
6.02319826741e-09
8.44073280009e-09
1.01668465208e-08
2.3464552219e-09
1.344395099e-09
4.29520269405e-09
2.19787396451e-09
8.83597730773e-09
3.66141907914e-09
4.24223144922e-09
7.38148393494e-09
2.99737591726e-10
5.48118870103e-09
1.68997588572e-10
1.11227565439e-08
3.65012237871e-09
1.28605706034e-08
1.27187062672e-08
1.42512844031e-08
8.88738496786e-09
2.26129957291e-09
5.06205174595e-09
5.12433969127e-09
1.75881141941e-09
8.42825288298e-09
4.25073517536e-09
3.69165499356e-09
1.80999321133e-08
4.29750870439e-09
8.31915118254e-09
1.11796966068e-09
1.02911185103e-08
5.34367216795e-09
3.09734011224e-09
2.99492389242e-09
7.69535083693e-09
1.89002231281e-08
3.45880548472e-09
7.09273824727e-09
2.37234736446e-09
1.61453603543e-08
1.18721197601e-09
1.25267452001e-09
4.37069305425e-10
1.36905084998e-10
1.22098418809e-08
3.69462922101e-09
4.48582417924e-09
5.28650008703e-09
6.92516807414e-09
1.21737150573e-08
1.27215103454e-08
1.06569433538e-08
4.15981444629e-09
1.01930364413e-09
7.17162858013e-11
1.63605202472e-09
6.3421335324e-09
7.71986694282e-09
2.46723191788e-09
1.87790943743e-09
6.16630948148e-10
8.49909051654e-09
4.91633081867e-11
1.98094656507e-08
1.28266783308e-08
8.42436921381e-09
1.49073011706e-09
7.44602169722e-09
9.31478324408e-09
2.26890238985e-08
1.18436702155e-08
2.49638963723e-08
4.93102657934e-10
8.51573069017e-09
1.26756411675e-09
4.015819408e-09
5.13095945515e-09
1.13911607705e-08
1.04147440237e-08
1.51682798614e-08
1.64298753437e-09
6.62130360113e-09
1.3108129529e-09
1.94489646452e-09
8.41532072065e-09
3.41276308549e-09
1.30040318933e-08
3.88588454561e-09
1.61729872731e-09
1.28027897221e-08
1.92546266304e-08
1.03626330304e-08
3.2575961063e-09
4.94620160325e-09
7.05041107045e-09
2.10243248298e-09
6.33441874777e-09
3.8430897902e-09
1.93793183134e-08
3.47810584018e-09
4.73415791969e-09
9.26763848842e-09
5.61130481448e-09
1.15288422606e-08
4.36838806984e-09
3.36660811282e-09
1.21678099523e-08
6.40376281926e-10
1.79508841454e-09
8.36348704855e-10
2.95823044292e-09
1.95722417767e-09
8.62210763263e-09
3.51188200008e-09
6.25719998208e-09
6.29934049061e-10
2.01818694401e-09
6.40426223387e-09
2.22220367856e-08
2.75815722072e-09
2.48553676387e-09
6.36420495035e-09
1.5522217006e-08
8.8670000594e-09
2.37543642721e-09
1.01210437475e-09
1.41744488404e-08
4.99533633492e-09
1.43810713435e-08
1.15542604302e-08
3.99489598682e-09
2.44397645769e-09
4.30982107763e-10
3.3532099176e-09
1.82539204427e-08
8.08879012488e-09
1.49422958075e-08
9.44787533835e-09
1.5246523507e-08
1.99881995304e-08
9.25799654475e-09
2.94060443755e-09
3.69048325108e-09
2.9348283134e-09
1.13273855136e-08
5.6469339526e-10
2.78861804573e-09
7.53525524718e-09
4.69974172522e-09
4.46699118467e-09
9.38663234619e-09
3.51430490617e-09
6.87291087712e-09
4.81486484798e-09
7.22781563189e-09
1.03398348096e-08
1.22953047049e-08
4.29505851541e-09
2.04402876375e-08
7.63977122822e-09
8.97685548079e-09
1.19825562196e-08
1.09154748713e-08
9.92057225357e-09
4.46113364905e-09
2.3363495032e-09
5.4826213361e-09
1.62669389316e-08
3.77741799266e-09
4.28173669947e-09
4.95879811935e-09
1.0730003701e-08
4.23416191098e-10
1.97054888728e-09
1.288707656e-08
1.71747287683e-09
6.7203787319e-09
1.6148853652e-08
5.62247898351e-09
7.7639639532e-09
7.56004745172e-09
4.44824103086e-09
6.00784427389e-09
9.25380486067e-10
5.3109921251e-09
1.77234767731e-09
2.12935658977e-09
2.46177627135e-09
3.88602477056e-09
2.42852755159e-09
2.74737809069e-09
3.74668647661e-09
4.45752524604e-09
8.93084247187e-09
1.03967935275e-08
1.68665705844e-09
5.24375055796e-09
1.00614082864e-08
1.04831351149e-08
3.66807222123e-09
4.2246090399e-09
2.20374373691e-10
3.66049520054e-09
5.15012171937e-10
2.32885866924e-09
5.47535236418e-09
1.46255151962e-08
5.1854469829e-10
1.09648884568e-08
3.22812783381e-09
2.51330851417e-09
2.88274673562e-08
4.22767529435e-09
2.1390342815e-09
5.58665962998e-09
4.38518965334e-09
6.67595153116e-10
8.71949471492e-09
5.56290658768e-09
8.25278037079e-10
1.32100909138e-08
9.13570261103e-09
4.2610593898e-10
3.20079291844e-09
2.00978858268e-09
3.6504558247e-10
6.72856189339e-09
8.20014811013e-09
4.20827966765e-09
9.39466967011e-09
2.64212347251e-09
4.30757754189e-09
3.38402096804e-09
5.91193786109e-09
6.39958439874e-09
3.22302766142e-09
4.09614913787e-09
2.98852060461e-09
6.1857998625e-09
4.20498524413e-10
2.82332900737e-09
7.48856348389e-09
7.37620944756e-09
8.59111079217e-09
3.83512697095e-09
1.00174308179e-08
2.56196351284e-09
4.52769578227e-09
6.41622476598e-09
1.49384473576e-09
5.67224091282e-09
2.50970870045e-09
4.37665786802e-09
2.56597729952e-09
1.28370394047e-08
4.69762823882e-11
3.7599629933e-09
8.92319882788e-09
7.66951516183e-09
6.02616806697e-09
2.32536662386e-09
2.65501616858e-09
3.95324117883e-09
3.85613193539e-09
1.30065642064e-09
2.20579585651e-09
3.34816195732e-09
2.01994911825e-09
6.91186118462e-09
3.68329718094e-09
9.57838081086e-09
2.66936846356e-09
2.33889106617e-09
1.79858006067e-09
1.43346102991e-08
2.80944389517e-09
2.06693308336e-08
6.26388034014e-09
6.04780978479e-09
1.4016887017e-09
3.24534765041e-09
7.53423261488e-10
5.04682437792e-09
4.41087369258e-09
1.41267656857e-09
3.39963481372e-10
3.65613038856e-09
5.8149944835e-09
1.4248025912e-09
6.90379903451e-09
1.56982467029e-08
1.80232845807e-08
4.49424092917e-09
1.28215064285e-09
6.64240727348e-09
7.01495338958e-09
4.7529387747e-09
6.28084705296e-09
1.8419477365e-08
1.53138262386e-09
3.35717114573e-09
3.33364933657e-09
6.73792010611e-09
3.12609942306e-09
1.85618730865e-09
6.32226292522e-09
3.50955071313e-09
1.09158072172e-09
1.44422910077e-08
1.08239330155e-08
4.84418018297e-09
1.73190801933e-08
5.3320465956e-09
2.82522627806e-09
1.70632762566e-09
8.09595406595e-09
1.23679712616e-10
1.75278903878e-08
4.16628485133e-09
4.1791945184e-09
1.24451773096e-08
2.78370095149e-09
3.38685698211e-09
1.49053534572e-10
1.02958485132e-09
4.96867229626e-09
1.63949020992e-09
4.30681564867e-09
2.52550810895e-09
1.04199587315e-08
1.46573546766e-08
1.95225473801e-11
3.00013409027e-09
4.21603800557e-09
3.51131078326e-09
3.46415016448e-09
2.47141870722e-09
4.86260723867e-09
1.46293471717e-08
1.41874415253e-08
1.09075661093e-09
8.46483512096e-10
3.74936362309e-09
7.63531776433e-09
1.10938981342e-08
5.55312032991e-09
1.09617450432e-09
1.25225127852e-08
5.29742383104e-09
1.19689275468e-08
8.98306714184e-10
7.86962644911e-09
3.20172041164e-10
1.23988945687e-11
3.84807441519e-09
7.89605197743e-09
3.77995690936e-09
2.98618901212e-09
7.08708783736e-09
4.70335503818e-09
5.38196295505e-09
2.88703549781e-09
5.87096251626e-09
1.0718007464e-09
5.80790112321e-10
3.76462409488e-09
2.10386531154e-09
1.17166631374e-10
3.61617445379e-09
2.14359226288e-09
3.09523066236e-09
2.21333048378e-09
2.800220276e-09
2.54293753815e-09
7.60144239586e-10
5.24079350945e-09
5.05134618659e-09
9.67342135559e-09
1.15298160165e-08
6.38055107241e-09
7.96440934118e-10
3.39789333438e-09
2.35309881892e-09
1.29379856479e-08
3.98947249166e-09
3.412293213e-09
6.71128139133e-09
6.7417989309e-09
2.63829548686e-09
5.42034481026e-09
2.60460903528e-09
1.9383400779e-09
9.01875908329e-11
7.34809691645e-09
8.9057389841e-10
6.25927200575e-09
5.43778896098e-09
2.50268304039e-09
7.40956284297e-09
1.63109740169e-09
3.29871921949e-09
2.90226907865e-09
7.81724995588e-09
5.22616431629e-10
1.88804292833e-09
9.5895498139e-09
3.11023393382e-09
7.50463258409e-09
4.84638793434e-09
3.7340990784e-09
3.13982959974e-09
6.52954426175e-09
5.43233483809e-09
3.55746459327e-09
1.16362531383e-09
7.57206105921e-10
3.95669459754e-09
9.93919488844e-09
1.9461620509e-09
5.30190719288e-09
3.28026048475e-09
3.92775697255e-09
2.18930378763e-09
2.8928358808e-09
2.48058028093e-09
5.25754958451e-09
3.12712968818e-09
1.01446116392e-08
4.86104305792e-09
2.21792250198e-09
2.50732405627e-09
5.65172860808e-09
2.59494912495e-09
7.21648571554e-09
3.18579870159e-09
4.89941116059e-09
3.02309272114e-08
1.5917284921e-08
2.25915677184e-08
1.46535390023e-12
6.75486749917e-09
2.62645767025e-09
1.7817921282e-09
6.92842042993e-09
1.88172409056e-09
1.21684835804e-09
2.29281773285e-09
4.07252598404e-09
2.49547064811e-09
5.41293885691e-09
1.74279831701e-08
1.45421916725e-09
1.50884119389e-09
3.38043584794e-09
2.60390916391e-09
9.38078869047e-09
4.96638240027e-09
3.01867133478e-09
5.22100019312e-09
4.11060702813e-09
2.86020802913e-09
3.51933934418e-11
4.55991261331e-09
1.64524479536e-09
9.99618010662e-09
5.1632232578e-09
1.97500492217e-09
2.83197852465e-09
6.45672423398e-09
8.94256635098e-09
5.20834724858e-09
7.19271542775e-09
1.1442754115e-09
1.38946961606e-09
1.55326926004e-08
5.54270077085e-09
1.57175986123e-09
1.73977232336e-09
2.03966973194e-09
2.42985952245e-08
2.35573868102e-09
1.62780257003e-09
8.09336697138e-09
1.07795370571e-10
9.37404429287e-11
1.30084123206e-09
6.13508950938e-09
8.36019219103e-09
9.26518749384e-10
2.96267233121e-09
6.56424289706e-09
5.58272564673e-09
9.66815901752e-09
5.98827140748e-09
7.27454117796e-09
2.87388741104e-09
3.95657499337e-09
5.33267103301e-09
3.18410313017e-09
2.28229459081e-10
9.01041323125e-09
4.48249751896e-09
3.04071500725e-09
7.99062365925e-09
7.21908092724e-09
4.29196621494e-09
3.96499455306e-09
6.15737448675e-10
8.94532701771e-10
3.87721170801e-10
2.99631216734e-09
2.26624265037e-09
3.52537766033e-09
3.56331233011e-09
1.53083566608e-09
8.49502802875e-10
4.84353218896e-09
2.45814351313e-09
6.00341991078e-09
1.97828832811e-10
2.49631321397e-09
3.59450127624e-09
7.40862638063e-10
6.89182267099e-10
9.96420204859e-09
7.35172005265e-10
3.79179677512e-09
3.72414005254e-09
2.585149401e-09
9.20703366529e-10
4.19041260087e-10
1.01620851293e-08
6.38242442822e-10
4.83019757997e-09
2.71292939085e-09
3.15537530051e-09
4.08692073799e-09
2.6538010786e-09
5.17410482907e-09
3.97468216973e-11
1.95301024677e-09
1.75944139059e-09
2.37684233803e-09
2.6928890775e-09
1.13844033282e-08
2.18229373909e-09
5.79459472672e-10
1.87026779267e-09
3.28673224691e-09
5.85703413861e-11
3.93686031898e-09
3.75292369319e-09
3.33594977314e-09
5.24589894117e-09
1.85511944612e-09
4.41517541108e-09
2.90992959643e-09
3.67094943613e-09
3.25454942706e-09
9.0805592745e-09
8.28577749227e-09
8.59781406918e-10
7.41319347012e-09
6.94609713164e-10
4.70942076148e-10
2.16303021425e-09
1.30796677061e-10
1.09986192703e-10
1.63911965444e-09
2.1225771599e-09
1.1853715592e-09
6.14671030665e-10
5.29728938151e-09
3.14251112851e-09
3.19543526967e-09
1.67716615387e-09
5.47915182013e-09
1.01212504789e-08
1.26568769383e-09
5.51574970233e-09
3.34403876893e-09
6.33913695501e-09
1.99080196702e-09
1.11923883965e-09
7.38372153074e-11
1.01483325575e-09
7.48359818377e-09
5.65455147496e-09
4.77503195128e-09
3.1174054409e-10
1.09742465253e-09
1.48838975401e-10
3.86743362603e-09
8.30701076489e-09
4.8117464608e-09
2.22280804721e-09
1.63702755728e-09
5.80435543088e-09
3.16176679595e-09
2.53884308099e-09
5.82079246112e-09
5.47169325497e-09
7.47635363779e-09
3.76978895901e-10
2.50296637154e-09
3.48987014982e-09
3.5383503699e-09
3.84572792468e-09
2.440362414e-09
1.98934367513e-09
2.0456373424e-09
5.28024986612e-09
4.51850612375e-09
5.05680387516e-09
3.93205392616e-09
1.84664632314e-09
9.52553701227e-10
9.55273638024e-09
1.34925355089e-08
8.31328261117e-11
2.6693583037e-09
4.22387978404e-09
7.44687085648e-09
6.40340415344e-09
3.66786235341e-09
6.91953613241e-09
3.17212373392e-09
1.19129910353e-09
2.44580948302e-09
3.25764383715e-09
2.26745453339e-09
2.74254812694e-09
1.96806620414e-09
2.90303711901e-09
7.82782867097e-09
2.7474047543e-09
7.80217796791e-09
6.18910630863e-09
1.02433645291e-08
8.98966329602e-09
2.46009790898e-09
6.98119138529e-09
9.54803885018e-09
8.88160013559e-09
1.88930830646e-09
1.16206623028e-08
4.95749544941e-09
4.89937769096e-10
7.68451646035e-10
2.64604108001e-09
3.4321132127e-09
1.55301734073e-09
1.37318489118e-09
3.55040812612e-10
5.48878105781e-09
2.56207415686e-09
1.07597509109e-09
1.32445763371e-09
1.22136643508e-08
7.36972005892e-09
5.92875519395e-10
1.05098669567e-08
2.60033902729e-09
1.04853254287e-10
5.08562837222e-09
6.13318396762e-09
1.81507420981e-09
1.02351107045e-08
2.71468492e-09
7.37062914251e-10
5.15794195023e-10
4.31889105698e-10
8.11296925666e-09
6.43385338635e-09
9.67004045051e-09
7.05286211566e-09
2.15591008353e-09
7.63618103244e-09
4.08205818396e-10
6.09022075141e-09
4.44059607995e-09
8.68794431467e-09
5.38813267386e-09
3.54774693186e-09
3.94315414898e-10
7.01532838681e-09
6.10565611948e-09
1.93580596523e-10
1.24563131319e-09
4.11276409098e-09
5.02090257837e-09
8.1789829708e-09
6.49407606696e-10
3.70926794076e-09
6.73962516018e-09
6.29257251325e-09
1.43427257918e-09
7.72228944186e-09
4.81410155483e-09
3.76021951435e-09
3.28862965023e-09
1.21951543775e-08
1.46436807416e-09
1.60686848595e-08
8.77784713566e-09
6.15381223111e-09
2.9098959745e-09
9.56015987181e-10
4.83024831883e-09
1.35076187759e-09
6.4194338507e-09
9.12061228483e-10
1.82219085524e-09
1.41612419082e-09
8.85086944703e-09
3.70661832135e-09
1.26994498309e-08
3.36377485866e-09
6.2109166917e-09
2.80055769215e-09
3.99829116323e-09
5.28552169484e-09
3.48079553535e-09
8.01244706925e-09
7.65705022774e-10
8.97121373581e-09
5.44269847961e-09
2.70685676055e-09
7.36373832998e-09
6.08927969329e-09
2.61638589152e-09
7.8830248433e-09
5.6135755743e-09
2.97561123557e-09
1.13870686259e-09
1.64900349435e-10
8.42288759503e-10
4.56481023065e-09
4.42179539026e-09
3.40507125376e-10
3.43668403196e-09
4.00230779122e-09
5.98221604141e-09
4.6642483687e-09
3.0143885329e-09
1.20552571225e-08
4.20618870961e-09
3.14094597167e-10
2.91573890852e-09
3.25750019536e-10
6.74833891275e-09
4.03135574395e-09
4.9628530769e-09
6.68991302421e-09
1.80997442404e-10
2.87916310221e-09
5.52749158419e-09
3.64680373673e-09
4.63210580666e-10
6.16874993171e-09
3.16665960616e-09
4.22870779498e-09
3.25636954142e-09
3.37341751079e-09
1.48639287681e-09
4.23480019736e-09
3.66988261707e-09
5.83998332769e-09
3.86940028155e-09
7.56563852541e-10
1.47797039017e-09
2.88314017693e-09
1.41998069545e-09
3.07748964539e-09
2.35983270172e-09
5.03115199253e-09
6.8610807856e-09
1.34099689098e-10
6.37520100187e-09
6.59697467261e-09
3.6131118616e-09
2.67529034319e-10
4.47391890411e-09
3.08928678337e-09
6.44730896085e-10
4.60461861505e-10
2.75398969916e-09
1.83896907757e-10
5.66767836344e-11
3.26738421124e-09
7.63974362161e-10
4.15739131987e-09
1.11891154758e-08
9.10888205086e-09
1.21284626242e-09
3.32555195958e-09
1.81690351024e-09
5.63896610078e-09
4.54393395312e-09
7.92761646864e-09
1.96922103693e-09
2.03720509322e-10
3.53325565175e-09
1.89886989778e-09
3.44875641243e-10
2.79999417316e-10
2.86334910818e-09
1.7086351339e-10
5.14151083273e-09
1.037606641e-09
4.33963330106e-09
6.78757850476e-09
1.0496358225e-08
2.7487741623e-10
1.2114866703e-09
7.91796195081e-09
2.49138493587e-09
3.9416293542e-09
2.90509155187e-09
1.6335028773e-09
3.23571793128e-10
1.92091530829e-09
6.80258799976e-09
1.7118149326e-09
1.09721492702e-08
4.69471269372e-09
6.06287736966e-09
4.12720437498e-10
6.61005256077e-09
4.69190580499e-10
2.55242944654e-09
5.16941354242e-09
3.97127822003e-10
2.59216126294e-09
1.25377450873e-09
7.50890228234e-09
5.89104199504e-10
2.43886521418e-09
1.79853006943e-09
8.73951681547e-10
6.51798926351e-09
1.59548204359e-09
1.2748154085e-08
2.14127983517e-09
1.4369223494e-08
6.99294796067e-10
1.00014648935e-08
3.58048772934e-10
3.89574326138e-09
2.60512872694e-09
1.21860084434e-09
9.0147441957e-10
5.29834430406e-09
4.06088351782e-09
6.17811120153e-09
4.5071719784e-09
5.32746832398e-09
3.02735021619e-09
1.04447469829e-09
2.88055340131e-09
3.93697244652e-10
1.42344977393e-08
4.16099281987e-09
2.26036342027e-09
2.28845736844e-09
2.24174345897e-09
2.30850621625e-09
6.67352185505e-09
4.61010875574e-09
9.04628294694e-10
9.44711320838e-10
1.31325493753e-09
3.26308705675e-09
7.5636280402e-10
5.69027167027e-09
4.29172699153e-09
6.32662044169e-09
8.89207975796e-09
5.52779488324e-09
7.16866805403e-09
9.70795352968e-09
3.33893770689e-09
1.76681186146e-10
1.123173279e-11
3.83648449421e-09
2.95637523576e-10
4.50067123221e-09
9.78431391915e-09
7.37601388498e-10
1.48746431294e-09
5.97353718694e-09
2.07959563514e-09
9.7448232751e-10
5.00333439286e-09
2.64047653463e-09
1.99857206606e-09
4.70185542741e-10
4.80693043463e-10
2.31690513582e-10
5.01136247067e-09
5.25033712898e-10
3.83505854418e-09
3.43989705752e-09
2.61628350496e-10
2.28026252054e-09
4.60435341124e-09
8.44373231265e-10
5.89490356512e-10
6.07198094927e-09
2.3758252229e-09
2.30120363342e-09
1.31626233969e-09
4.82854585045e-09
2.71032158985e-09
2.29381925421e-09
6.08927250097e-09
5.57072815926e-10
2.05853571754e-10
4.45631229234e-09
1.9192015193e-09
1.27877335255e-08
1.10016182812e-08
1.8236828612e-09
1.03805298983e-09
5.71595813982e-10
3.64316470407e-09
4.91962352923e-09
3.74476633361e-09
6.22370002736e-09
2.53643898278e-09
4.98506552622e-10
1.4117519384e-09