# vtk DataFile Version 3.0
File Name: Molecule/sphere_cent/sphere_cent_0-s26.vtk
ASCII
DATASET UNSTRUCTURED_GRID
FIELD FieldData 1
TIME 1 1 double
0.0
POINTS 615 double
0.049645859748 -0.24814370275 0.96724367142
-0.13060222566 -0.31645229459 0.9393684268
0.072644241154 -0.41798466444 0.90535974503
-0.60249507427 0.58720463514 0.5392164588
-0.49849587679 0.50743687153 0.70269596577
-0.44683513045 0.63498222828 0.63018196821
-0.3345169723 0.52814024687 0.78046089411
-0.49896511436 -0.78912442923 0.35806936026
-0.4455575645 -0.7048535943 0.55131310225
-0.61461085081 -0.6431440115 0.45568609238
-0.85807347298 0.065579548478 -0.50683885813
-0.92130810022 0.1447468996 -0.36051648855
-0.84046757221 0.26255747676 -0.4738432169
0.54416686296 -0.83318597078 0.098007924855
0.67791163921 -0.70440608263 0.21021816134
0.53485894203 -0.78376424313 0.31349477172
-0.32014116645 0.47274711728 -0.82089883089
-0.40752568841 0.31278216839 -0.85789626837
-0.4929214716 0.45822957158 -0.73932033777
0.32343280315 -0.52311587334 -0.78807240725
0.24441598356 -0.67131710052 -0.69970870018
0.12191411108 -0.55291503668 -0.82422679663
0.81119954586 -0.022940400988 -0.58410507441
0.70197635889 -0.14216345549 -0.69783473015
0.70660167933 0.065367132425 -0.7045788765
0.85950243473 0.50600594282 -0.07157112658
0.94412624836 0.3292273581 0.0011311341077
0.90598833561 0.37542015314 -0.19547589123
0.81565612555 -0.51483517885 -0.26345917583
0.70031297207 -0.6744800806 -0.23362721503
0.69469207525 -0.58067631721 -0.42405566573
0.83172696829 -0.55115443468 -0.064712613821
0.92048233747 0.063646025956 -0.38548028469
0.9768294096 -0.053907811642 -0.20705592632
0.92045652866 -0.12969447672 -0.36835566163
0.97028940916 0.16642178595 -0.17557428777
0.94089156389 -0.2390177995 -0.23983576894
0.82294487953 0.15917938948 -0.54532915354
0.89216607809 0.263712883 -0.36664068699
0.78950047493 0.3372387886 -0.51266503334
0.97486186028 -0.21677418053 -0.051527194679
0.99946844578 -0.023517435417 -0.0040717599913
-0.84047949314 -0.24035829306 0.4845610261
-0.74982625246 -0.15874299407 0.64199107885
-0.84379386902 -0.052837528288 0.5339627862
0.69221526384 -0.72129291296 -0.02123006992
0.56486093998 -0.81260329485 -0.13639014959
-0.71356278658 -0.33989500999 0.61256748438
-0.58384680748 -0.47455391288 0.65784293413
-0.57953381538 -0.30038687587 0.75714677572
-0.76452279091 0.15755450726 -0.62497001886
-0.56222474575 0.27443414927 -0.77994138002
-0.38438308239 -0.51420050859 -0.76645964384
-0.20697906613 -0.53762662411 -0.81727439165
-0.25962862372 -0.65863204002 -0.70622509718
-0.073952846229 -0.66007453203 -0.7475104332
0.82146900892 0.43612164259 -0.36743736267
0.55640286207 -0.027191760018 -0.8303964138
0.58358699083 0.20901355147 -0.78466558456
0.70575529337 0.26164677739 -0.65839546919
0.5735887289 0.41719669104 -0.70479112864
-0.83772492409 0.30899238586 0.45020309091
-0.81731301546 0.15497250855 0.55493056774
-0.73179030418 0.34916308522 0.58502137661
-0.74223464727 0.018293891102 0.6698268652
-0.6949762702 0.17981247604 0.69565719366
-0.91742306948 0.20023047924 0.34378415346
-0.41220116615 -0.66050606966 -0.62750840187
0.808360219 0.538672328 -0.23726476729
0.69521200657 0.58795136213 -0.41334357858
-0.17134016752 -0.23750759661 -0.95611208677
-0.30712583661 -0.36364674568 -0.87937617302
-0.34874486923 -0.1725089103 -0.92058813572
-0.29948717356 -0.19289432466 0.93396741152
-0.12038974464 -0.14242094755 0.98193651438
-0.99707388878 -0.064497888088 0.041436139494
-0.96286159754 -0.26474860311 0.051547970623
-0.96129357815 -0.14752946794 0.23085577786
-0.98304921389 -0.14109374583 -0.11053278297
-0.94450908899 -0.29160639644 -0.14972382784
-0.76846212149 -0.48289865255 -0.41546201706
-0.74648457766 -0.60733914375 -0.27159637213
-0.83662205935 -0.48392817378 -0.25535300374
-0.24134162068 -0.019133854657 -0.97015190125
-0.87485933304 0.38302612305 0.29554116726
-0.55945402384 0.8093701601 -0.1784375459
-0.43793585896 0.89741122723 -0.044007603079
-0.36913862824 0.90008991957 -0.23133641481
-0.69308173656 0.69450116158 -0.18977339566
-0.60341709852 0.72429889441 -0.33319288492
-0.7903932333 0.43998381495 0.42566055059
-0.47090175748 0.8204138875 -0.32423824072
-0.98921215534 0.12050697953 0.080793835223
-0.99273431301 0.060030691326 -0.0994861871
-0.94136065245 0.29640242457 0.16003911197
-0.96382385492 0.26509523392 0.017644103616
-0.43673962355 -0.7611271739 -0.47946807742
-0.29504260421 -0.77238416672 -0.5624370575
-0.30146104097 -0.85961872339 -0.41246962547
0.9511410594 -0.25000187755 0.1801879853
0.89002668858 -0.2638900578 0.37152826786
0.87968719006 -0.40025281906 0.25663727522
0.91460257769 -0.38418400288 -0.12600152194
0.92673015594 -0.37182164192 0.053802520037
-0.30762729049 0.8590670228 -0.40911886096
-0.19128067791 0.93342632055 -0.3009518683
-0.23755194247 0.96038067341 -0.14477048814
-0.41794091463 0.84286719561 0.33865255117
-0.44938966632 0.75423020124 0.47861778736
-0.26940223575 0.86786800623 0.41739016771
-0.24338485301 0.79683107138 0.55300366879
-0.080989859998 0.86354029179 0.49761223793
-0.30040252209 0.76868242025 -0.56298130751
-0.44738200307 0.76946419477 -0.45575803518
-0.57584667206 0.74816733599 0.32613900304
0.15091226995 -0.56417500973 0.81176149845
0.055467285216 -0.70673644543 0.70494711399
0.20816135406 -0.711779356 0.67052322626
0.10848212242 -0.82119601965 0.5592854619
-0.0052691968158 -0.89923387766 -0.43724510074
0.15630599856 -0.93544405699 -0.31689879298
-0.0015555038117 -0.97227525711 -0.23326697946
0.14977106452 -0.97921210527 -0.13023987412
0.32629716396 -0.91854208708 -0.22169755399
-0.02786032483 -0.99839949608 0.016008179635
-0.1155911088 -0.98542505503 -0.12145228684
0.058189429343 -0.9962772727 -0.054482586682
-0.16348403692 -0.93611204624 -0.31128209829
-0.76832526922 -0.30456092954 -0.56268906593
-0.83233785629 -0.15721905231 -0.53033494949
-0.67511230707 -0.22013342381 -0.70410019159
-0.75114142895 -0.045680172741 -0.65857851505
-0.5701828599 -0.067199595273 -0.817938447
-0.62452465296 -0.40972688794 -0.66451686621
0.32390707731 -0.84884250164 -0.41720736027
-0.86177247763 -0.29442027211 -0.41181263328
-0.78707492352 -0.60347175598 -0.12771776319
-0.85634040833 -0.51474136114 0.016154889017
-0.71499949694 -0.69905167818 -0.0016760276631
-0.67016261816 -0.72857803106 -0.14134834707
-0.56399095058 -0.8256291151 -0.0029022078961
-0.1599226743 -0.851775527 -0.49886217713
0.48916494846 0.82302331924 0.28851848841
0.46058705449 0.76659184694 0.44736427069
0.59612166882 0.71555888653 0.36413770914
0.55745315552 0.65106654167 0.51511722803
0.4047781229 0.6782682538 0.61323350668
0.68343126774 0.59180390835 0.42741003633
0.52052909136 0.56340104342 0.64158111811
0.64939528704 0.51302486658 0.56131321192
0.60357862711 0.42269012332 0.67602545023
0.76477968693 0.43376284838 0.47636651993
0.71393960714 0.35401502252 0.6040918231
0.81417095661 0.27469569445 0.51148289442
-0.45624831319 -0.3896625936 0.79993951321
-0.45093014836 -0.23915052414 0.85979622602
-0.32775470614 -0.33777710795 0.88223874569
-0.31157773733 -0.5057772994 0.80420768261
0.37113106251 -0.92322063446 0.098513461649
0.42947509885 -0.90154576302 -0.052103728056
0.28763672709 -0.95718365908 -0.032509487122
0.19526697695 -0.97156411409 0.13068848848
-0.1392352283 -0.91786164045 0.37120327353
0.020199773833 -0.91048204899 0.41306269169
-0.067092806101 -0.84732580185 0.52610725164
-0.020402595401 -0.9682072401 0.24506947398
0.72726380825 0.15876612067 0.6676030755
-0.14148244262 0.27425837517 0.95104491711
-0.3230215013 0.27770364285 0.9047203064
-0.22806377709 0.16352812946 0.95984601974
-0.38507035375 0.14573280513 0.91127508879
-0.49129420519 0.26519984007 0.82945585251
-0.26106923819 0.029808266088 0.96426993608
0.90410196781 0.38647753 0.18214087188
0.87235999107 0.34644016623 0.34477874637
0.9546661377 0.24662676454 0.16683989763
0.72327536345 0.63296914101 0.27597415447
0.60729515553 0.76414448023 0.21709263325
0.78203511238 0.50956088305 0.35883328319
-0.39994663 0.39592367411 0.8266055584
-0.24064183235 0.40054315329 0.88404023647
-0.77777636051 -0.57517331839 0.25317469239
-0.66395813227 -0.68710160255 0.29406410456
-0.76560038328 -0.53068172932 0.36357623339
-0.63007938862 -0.76249867678 0.14631986618
-0.035147774965 0.099171884358 0.99360442162
0.35642057657 -0.89514797926 0.26725724339
0.44677549601 -0.84879553318 0.27894240618
-0.74430412054 -0.65202140808 0.14428584278
0.15307402611 -0.26453903317 -0.9521459341
0.2269693017 -0.40524044633 -0.88547158241
0.023369718343 -0.38647836447 -0.9219622612
0.55243802071 0.66016697884 -0.50886267424
0.59021759033 0.71943169832 -0.36606556177
0.46286046505 0.76962643862 -0.43979978561
0.41955387592 0.69262808561 -0.5866549015
0.49883320928 0.81779152155 -0.28684735298
-0.40162554383 -0.00019977684133 -0.91581511497
-0.32590475678 0.16570368409 -0.93054652214
-0.47125467658 0.13645355403 -0.8713516593
0.4891782701 0.029514439404 0.87158179283
0.56941151619 0.18808817863 0.80023920536
0.43520510197 0.23311170936 0.8695050478
0.4554669857 -0.26591947675 0.84955412149
0.31752109528 -0.28055870533 0.90576773882
0.36613801122 -0.45962792635 0.80906552076
0.37835896015 -0.12724117935 0.9168804884
0.21612469852 -0.13530236483 0.96693331003
0.30668869615 0.010285391472 0.95170009136
0.14423941076 0.040580291301 0.98866540194
0.13153402507 0.24197252095 0.96125638485
0.51261937618 0.33569821715 0.79026311636
0.63508284092 0.28974080086 0.71605074406
0.27345961332 0.51893508434 -0.80986118317
0.15580402315 0.67252022028 -0.72335243225
0.35007539392 0.61174291372 -0.70933485031
0.28412562609 0.72083204985 -0.63222008944
0.32594889402 0.80163967609 -0.50102555752
0.18017345667 0.80635017157 -0.56332474947
0.21326620877 0.89774054289 -0.38536959887
0.055164758116 -0.087655261159 0.99450683594
0.23225431144 -0.12484972924 -0.96460473537
0.30885651708 -0.25806489587 -0.91542869806
0.37760850787 -0.11288429052 -0.91903746128
0.28549036384 0.016926573589 -0.95822650194
0.45497560501 -0.23381067812 -0.85923022032
[...]
CELL_DATA 1226
SCALARS cell_data_0 double
LOOKUP_TABLE default
8.80899748235e-08
2.52628997226e-09
1.55293456053e-08
5.64487501161e-08
1.58135132294e-08
5.90625979709e-08
5.36067482333e-08
1.34791816197e-08
9.72168861398e-09
2.53582122278e-08
1.85093856842e-08
4.52287300212e-09
3.74442617375e-10
6.53806823749e-08
3.57352083106e-08
5.79520824522e-08
1.88569674741e-09
1.16417887334e-08
2.95495860091e-08
2.28251200746e-09
6.79086129513e-08
2.20453749138e-08
7.84394862443e-08
2.03217869881e-08
9.03224562123e-08
3.78970847461e-08
5.69413172969e-08
4.46869178973e-08
8.88877674412e-08
5.50810929066e-08
1.87794646291e-08
2.2145206775e-08
3.6055215788e-08
8.52255070305e-08
2.48865895977e-08
6.30137465535e-08
6.28379605186e-08
1.13572642181e-08
1.35549093482e-08
1.67269687017e-08
1.36715305097e-08
6.0289775598e-08
5.63041044634e-09
9.38951634187e-09
3.81000048198e-08
1.83018779811e-08
3.60782368012e-08
9.51679625156e-08
2.44866508003e-09
9.1037768582e-09
5.67128039797e-09
3.88279839853e-08
2.61556303547e-08
3.11489847123e-08
2.68320734131e-08
4.58839576179e-09
4.2610439423e-08
4.69539253368e-10
5.00882977021e-08
3.03458396634e-08
5.13312201804e-08
1.91610278363e-08
2.20787764858e-08
6.59561428801e-08
2.29830269252e-08
1.58028215378e-08
3.70049839016e-08
1.11126380551e-08
3.25061491686e-09
5.49638134215e-09
7.76820613316e-09
4.56366570588e-09
3.77263818933e-08
6.60633676545e-09
2.84856471874e-08
3.82837061502e-08
2.0425499956e-08
1.36636068727e-08
4.21163456051e-08
8.36174340207e-09
3.85039235406e-08
9.55277269871e-09
9.4884958619e-09
4.29368930858e-08
2.19836795479e-09
2.45577591284e-08
2.24364929181e-08
2.14368456201e-08
3.84008619133e-08
1.58398132104e-09
4.52137229229e-08
6.13047195053e-10
2.81417837246e-08
8.0932447246e-09
1.59914837449e-08
3.24987648175e-08
1.02492491623e-08
5.01935624166e-08
3.92225738576e-08
4.24471640487e-08
1.3087820471e-08
3.06464686462e-08
5.40279984071e-08
4.4597805342e-08
1.02788277773e-07
1.19836004737e-07
3.53785730255e-08
4.94813154584e-08
7.68301211623e-08
1.47987277253e-08
6.19418685386e-09
2.71157475143e-08
3.71479439814e-08
4.38980023944e-09
6.99945686826e-10
2.49571548055e-08
4.51191622738e-09
3.29664178897e-08
8.60440575619e-09
4.07716744114e-08
4.19820403329e-08
3.50426813267e-08
1.84748709444e-08
3.77382943897e-08
2.02568168839e-08
1.08130130797e-08
9.53680915516e-09
5.17615441881e-08
1.10137499058e-09
3.61621331352e-09
4.03701027114e-08
8.75585378784e-09
1.05462880805e-09
3.04163106642e-08
3.12692381329e-08
1.28732329589e-08
6.19227214509e-09
1.8840152864e-08
3.42888552646e-08
4.21597885507e-08
8.64665734513e-09
8.8096589862e-09
2.42951745573e-08
2.23461204604e-08
2.70527844689e-08
3.0518676742e-08
1.5969269386e-09
9.05304639237e-11
3.78545377788e-08
8.52664857904e-08
4.29044500061e-08
5.40750543111e-09
3.63741752784e-09
3.89557465433e-09
2.0289619054e-08
2.86147220121e-08
5.23076114428e-09
7.16855037533e-10
3.75272810745e-09
5.16188581772e-08
5.10143418471e-08
2.35618512607e-08
4.3571429752e-08
5.72379046989e-08
1.01709140637e-08
1.727197896e-08
2.9970517315e-08
5.55221595605e-08
3.0829690307e-08
6.41120558188e-09
7.45082075402e-08
1.8182064587e-08
1.28344619851e-08
1.27235489775e-08
1.56114869864e-08
5.25171871332e-08
2.14309411745e-09
8.26922471307e-08
3.14885951183e-08
2.74647427257e-08
1.73926351591e-08
9.14498047889e-09
2.63794723296e-08
1.96567104792e-08
8.7338113535e-08
1.0279277931e-08
2.0341520364e-08
1.91210317944e-08
1.40116662246e-08
5.88258819347e-08
4.16450474277e-09
1.07374494281e-08
2.09829120694e-08
3.19071338698e-08
2.72226213715e-08
1.17751452302e-08
1.04250955408e-08
2.50969064745e-08
3.60201133502e-08
2.79944591124e-08
1.3014511391e-08
3.6601086055e-08
1.38641058488e-08
2.57069407977e-08
4.67611758366e-08
2.41743328255e-08
3.90757790112e-08
2.09328677402e-09
1.35274885349e-08
3.91858237875e-10
1.11694384978e-08
1.40277479235e-08
1.20259479241e-10
6.0376918579e-08
1.2327476888e-08
1.74541606345e-08
6.0556389796e-09
1.51959068e-08
2.94872467598e-08
2.44596438302e-08
4.51195270178e-11
2.01156833596e-08
6.72835031429e-08
8.93580090995e-09
4.54467939871e-08
1.02551856532e-08
1.77837613318e-08
1.18923988869e-08
6.58006475358e-09
1.52710509218e-09
1.42035535049e-08
1.72412044166e-08
1.5639377947e-08
3.06766257266e-08
3.16820148235e-08
1.94561859564e-08
1.88942718027e-09
1.48578470515e-08
1.22445261681e-09
3.43925782854e-09
3.15969728803e-08
1.16999213902e-08
9.32547747539e-09
1.20888536502e-09
7.86974948007e-09
3.89300348027e-09
2.97882158069e-08
1.56318802232e-08
8.7151914961e-09
2.18504360498e-08
6.53527929066e-08
1.21627763622e-08
2.07772570145e-08
1.51622471528e-08
6.14565905196e-08
4.40224722305e-08
1.67234014217e-08
1.11837759124e-08
2.80515503944e-08
1.007623854e-08
2.23956132955e-08
1.24671636579e-08
1.46074444469e-08
7.85776122524e-09
1.75261074916e-08
6.72335302121e-08
5.82367422183e-09
7.88618130166e-09
4.26944953234e-09
3.38520506775e-08
1.10528129937e-08
1.03083825324e-08
1.5759360183e-08
6.78117900052e-08
3.69368661955e-08
3.77740265266e-08
1.903320063e-08
7.3679390459e-09
2.21330543268e-08
1.40720426887e-09
1.62427609454e-08
1.7567990628e-08
4.95088167668e-08
4.43178390155e-09
1.14707530566e-08
5.32516919583e-08
4.1120921887e-10
1.08318161863e-08
6.66083381567e-09
9.40065888676e-09
1.17796277529e-08
7.33045506683e-09
1.09805374619e-08
2.33225703749e-08
5.58505717755e-09
3.00517283165e-08
9.51557011572e-09
1.61178029273e-08
1.16067210454e-08
1.01421521703e-08
3.301326667e-08
2.42397392444e-08
6.33445640963e-08
7.43682484255e-09
7.81486266228e-09
3.30494911619e-08
1.73575341486e-08
1.370229263e-08
2.68646664637e-09
2.48815342399e-08
4.87242337759e-09
9.29222000469e-10
1.59693861673e-08
1.29641182344e-08
6.51289448438e-08
5.43494691746e-08
3.9203019222e-09
2.75915318341e-08
4.89351639866e-09
2.8635326879e-09
4.61140460437e-08
1.02245665847e-08
2.2276909473e-09
7.45001987388e-09
1.89028159139e-08
1.21887094262e-08
8.7470850912e-09
1.19781415855e-08
2.70697804215e-08
2.75104205485e-08
3.34463820251e-09
6.57698897972e-09
9.69351849503e-09
1.08290842969e-08
2.49755030852e-10
2.98170522961e-09
1.22873585124e-09
1.07985222332e-09
9.21178565062e-09
3.56894903209e-09
9.23997830905e-08
3.92222856583e-10
1.15242048632e-08
1.56998425697e-10
1.05951318655e-09
4.2624136e-08
3.99434398136e-08
4.85664056839e-08
1.09433617353e-08
1.92933487766e-08
7.89137986699e-09
5.46395538603e-10
3.87986812977e-08
6.17524415719e-09
6.76258965977e-09
3.23931116286e-08
1.00830946299e-08
2.01058544688e-08
9.53463696733e-09
1.59852100155e-08
1.18815427136e-09
6.59139482013e-10
2.22492337835e-09
1.90460121659e-08
1.06370459312e-08
1.79024163411e-08
2.3340851067e-08
2.7643479935e-09
1.19675888179e-08
6.76051502154e-09
9.91299893396e-09
1.63297963847e-08
3.7726562715e-09
1.3488706277e-08
6.42531722031e-09
2.33730737893e-08
1.24827362787e-08
1.56026702555e-08
9.30971153598e-09
4.94712746118e-08
1.19981205599e-08
1.04205542003e-08
8.00268523217e-09
1.39007782186e-08
1.02990461434e-08
8.60864655203e-09
2.727397025e-08
2.87738242126e-10
1.75444375605e-08
9.45550911723e-09
2.22396039744e-08
2.20731295965e-08
3.08562952929e-09
8.59471518668e-09
2.55372663397e-08
1.10476382617e-08
5.13831117864e-09
1.1253775412e-08
2.62845259894e-08
3.60155282099e-08
9.96072482522e-09
9.41797374436e-09
4.26530794051e-10
5.42136167162e-09
1.48875868447e-08
3.22607093342e-09
1.3231726926e-08
1.53869477637e-10
5.91156099891e-09
1.30094443075e-08
3.24879904762e-09
3.38022462715e-10
4.67428458364e-09
7.73498892292e-09
4.54799622041e-08
2.03232888966e-09
2.56152485768e-09
4.47612725999e-09
1.8414964002e-08
6.77777590261e-09
3.09634140872e-09
1.76659047281e-08
3.04815416788e-08
2.96625987735e-08
3.04404578219e-08
3.09271618042e-08
8.53595396005e-09
3.96977598907e-09
6.51139417226e-09
3.74490907053e-08
1.40153157645e-08
5.68949031868e-08
1.59961095317e-09
1.28180636956e-08
1.50730868278e-08
9.98867566328e-09
1.09673439669e-08
1.95703128242e-08
3.58127181586e-09
1.27770949234e-08
1.02907348362e-08
2.58284765208e-09
1.84169202247e-08
2.53839604455e-08
2.1188963992e-09
7.79678036459e-09
1.25669623873e-08
7.46964749879e-09
5.20103655103e-09
2.28394861477e-08
4.17723127295e-09
4.21601172219e-09
9.18495953513e-10
1.5131565913e-08
3.41571374534e-08
1.04084037113e-08
3.76993039323e-08
3.8241131439e-10
6.18351178123e-08
7.71253805934e-10
1.26105459627e-08
2.09361150661e-08
8.03166154854e-09
1.89382648884e-08
7.13653413425e-10
2.93444561233e-09
3.08303287874e-09
2.35554973404e-08
8.92332763309e-10
1.43153345659e-09
8.62607738518e-09
1.43776293736e-08
1.52405251291e-08
3.25438383141e-09
2.37647454383e-08
1.11856477149e-08
1.32210990491e-08
5.17200735422e-09
5.00229939575e-09
9.71086847772e-09
1.04187310039e-08
1.09828717522e-08
8.01446865101e-09
1.74485411694e-09
1.34791648627e-08
9.12822937809e-09
1.3701667273e-08
4.2536360615e-09
5.59453035282e-09
1.13940824681e-08
2.64817270788e-08
5.68497884281e-09
5.54435542775e-09
3.11193829354e-09
9.22668566347e-09
1.85170393481e-08
1.05500542369e-08
8.64100492137e-09
3.85249933333e-09
2.69109597525e-08
8.44922722389e-09
8.65978192736e-09
4.13621201392e-09
8.85405541773e-09
2.15727993828e-08
9.88414060387e-09
6.45301071296e-09
1.78594088787e-08
1.11604443453e-09
1.59013306186e-08
9.95623809034e-09
2.04873106837e-08
6.43576635107e-09
1.57479919602e-08
8.31885334498e-09
1.75578263674e-08
6.91783615456e-09
8.63475291185e-09
9.74979697153e-10
8.14217250027e-10
5.10933173989e-09
1.66484209804e-08
4.13215181965e-09
6.08440812567e-09
3.68148523848e-09
5.2661291782e-10
1.41150899139e-08
1.75663898605e-09
6.43358742202e-09
1.24332958395e-08
1.79968650398e-08
2.06185925526e-08
1.0914617682e-08
1.65426304801e-08
3.11817712169e-08
1.57825232091e-08
2.70541012091e-08
6.46757657511e-09
3.39009133031e-09
1.51585322672e-08
9.96962459212e-09
1.32779887021e-08
3.49935780877e-08
9.62904562463e-09
1.35360432066e-09
2.13113103323e-08
8.44408363461e-09
3.4243015287e-09
1.51402864555e-08
1.95594883306e-08
1.60721869979e-08
4.44693972582e-09
4.91739647866e-09
8.26664415678e-09
5.25788939014e-08
1.13431403028e-08
3.08799487423e-08
1.109909328e-08
2.04962755404e-09
2.12883428707e-08
7.58732453713e-10
2.40723977972e-08
3.38928911313e-08
1.12860251495e-08
1.30033856567e-08
1.95158865953e-08
2.0679483008e-08
1.73421623734e-08
2.30099364899e-09
1.22653845467e-08
4.18338604565e-08
2.50238509243e-09
1.98622898819e-08
8.51819278098e-09
1.16857241619e-08
1.59555936587e-09
1.52194420855e-08
1.8433539677e-08
2.15865794448e-08
1.90806450834e-08
9.60440427436e-09
1.30632874784e-08
1.19006251238e-08
3.7465295787e-10
8.02144857152e-09
4.65368361879e-09
4.01272971705e-08
1.60639766861e-08
1.1998437883e-08
2.28964570973e-08
6.82092521306e-09
1.70593041787e-08
2.1130282515e-08
2.62513609922e-08
1.11055417313e-09
4.60238074464e-09
5.80781380916e-09
2.50568063203e-09
2.18168140417e-08
5.85032650048e-09
4.68286219822e-09
1.31687688921e-08
1.49332841412e-08
1.22293594413e-08
1.52809235448e-08
1.8209551977e-08
1.38988019891e-08
1.08315215883e-08
1.3062201125e-08
1.22654073874e-09
8.01646235034e-09
5.03342517064e-09
7.28358759026e-09
5.1663657288e-08
7.33369502353e-09
2.69121516991e-08
1.15000653205e-08
1.12030582871e-08
1.79717818615e-08
1.22291279563e-08
1.00131183759e-08
1.77025380861e-08
1.09802497171e-08
2.44953772817e-08
1.25630482348e-08
2.50636125148e-08
1.33095504582e-08
1.94295339543e-08
1.45587321768e-08
1.99238160664e-08
1.01432466927e-08
9.76491317774e-09
2.11776674713e-08
4.5781973372e-08
3.01974406312e-09
5.37680318282e-08
3.65785967497e-08
1.20339284779e-08
6.1044490105e-09
5.48407734969e-09
1.2020136012e-08
3.75420862551e-08
2.80250021388e-09
2.32632297245e-08
3.28864747378e-08
2.00826735838e-09
1.2832311054e-09
3.49865681635e-08
7.18926761571e-10
1.47643811315e-08
2.5218917232e-08
5.13487220027e-09
2.8540607545e-08
4.55561704596e-08
1.72009361195e-08
4.98137265337e-09
2.34363299629e-08
8.38075983847e-09
2.26207739479e-08
2.03220634734e-08
3.10695988558e-08
5.51237412815e-09
2.83227505452e-08
4.50939490732e-09
1.13860424774e-08
1.4354330961e-08
3.98906334042e-08
2.55236098322e-09
6.50731232261e-09
1.26709435823e-08
1.07482511104e-08
3.01947428197e-08
1.13191913529e-08
5.1349724569e-08
3.95068101409e-09
1.43564281671e-08
2.36382105053e-08
3.85272901748e-08
6.0599762282e-08
3.53262145659e-09
3.14329630098e-09
1.95611212884e-08
6.11954232363e-09
1.0122765847e-08
5.15520376876e-09
9.29597745729e-09
1.33665988458e-08
3.50768976914e-08
5.16506997253e-08
1.17584293882e-08
6.1945810355e-09
9.55074040982e-09
1.81662185136e-09
2.04544883581e-08
1.31114755286e-08
8.27567345232e-10
1.46277318093e-08
2.17677740614e-08
6.85497210312e-11
1.89290957196e-09
3.06488352635e-09
9.27140904887e-09
1.41738930898e-08
1.02193449936e-09
4.7953593782e-09
3.76792585202e-09
1.82924013279e-08
2.56594937219e-08
2.2500749041e-08
8.28622617686e-09
1.34683727978e-08
8.869502469e-09
7.0214550228e-10
1.90014794556e-08
4.49166548884e-09
3.17086486158e-08
1.07833510202e-08
3.04560258811e-09
1.72629051697e-08
4.97575441874e-09
2.09667068781e-09
1.4157803083e-08
1.81165434159e-08
2.11206410556e-10
2.197738578e-08
8.05181454697e-09
2.72235298054e-09
1.27761716058e-08
1.75189432121e-09
2.05147208282e-09
1.66187642145e-08
6.61388894141e-10
4.51046534099e-09
9.89203049821e-09
2.27603225319e-08
1.66471054976e-08
2.03677906194e-08
3.40255543173e-08
9.03033211722e-09
2.65272296989e-08
2.63069616338e-08
8.98428571572e-09
1.60422100459e-08
3.03800446456e-09
9.24951247328e-10
3.55401895916e-08
1.31415180236e-08
1.28094364297e-08
2.72712487344e-09
1.27755671563e-08
2.97403039777e-08
3.23300954085e-09
1.27632266256e-08
2.34065874256e-08
1.17016264543e-08
1.19471125166e-08
8.08918263345e-09
2.48354166071e-10
1.19431699111e-08
1.04054856223e-08
7.42214991741e-09
4.38312616615e-08
3.93023641971e-09
1.86668289619e-08
1.52918457993e-08
1.94781949318e-08
6.71941944684e-09
8.58899180352e-09
1.07150184934e-08
1.43113100467e-08
1.19666306041e-08
1.03815444208e-08
7.65830708322e-09
1.6363466304e-08
4.80601966088e-09
1.582973027e-09
1.86425798645e-09
1.22833707982e-08
1.63386196889e-08
1.25321430338e-08
1.12611164272e-08
2.04668497146e-08
8.13751980114e-09
1.89996160375e-08
2.22983793947e-08
8.24392621821e-09
2.66148395382e-09
1.88363595564e-08
1.13461285195e-08
7.09692433649e-09
1.12141434932e-08
1.63388978822e-08
4.00835592148e-09
1.29622343101e-09
4.36133756603e-09
5.71699317543e-09
6.22618123151e-09
3.50238635384e-08
2.92126604148e-08
2.61612501542e-08
1.1205798534e-08
3.7427732345e-09
2.66789644174e-08
4.72298924942e-09
4.68043310786e-09
1.21966125417e-08
1.78973120129e-08
2.1479268091e-08
1.81089809433e-08
1.03288326124e-09
2.18406105551e-09
2.01687697484e-08
1.09630836013e-09
1.65144776672e-08
7.46691117655e-10
1.29759084529e-08
1.60701527513e-09
3.45040689165e-08
8.72490787677e-09
1.21111765554e-08
8.67668350071e-09
3.58333991775e-09
3.71870661102e-09
8.82295344746e-09
3.12979917709e-09
1.56066561878e-08
6.17372410929e-09
5.02171601933e-09
9.99856673847e-10
1.24019179819e-09
8.78049852722e-10
2.25552940331e-08
7.63968486682e-09
7.69776644151e-09
6.45103498286e-09
9.40509304405e-09
8.56431901278e-09
5.44294150974e-09
2.64069516134e-08
3.84005217176e-08
5.35751393862e-09
1.3629808974e-08
2.05253155974e-09
1.24763640248e-08
9.97416062153e-09
4.02769876508e-09
4.58307195012e-08
4.13299693054e-08
1.91464782336e-08
4.19326530869e-09
2.87345833569e-08
1.55049499528e-08
2.87680672892e-08
2.52467783544e-09
6.39862117013e-10
2.26055660849e-08
8.03153277342e-09
5.49299217935e-09
2.44507207661e-09
3.07883727288e-09
2.83619427532e-09
1.27529198695e-08
1.16322976584e-08
4.57904288833e-09
1.61218040984e-08
9.56602466365e-09
2.77513308416e-08
1.8759846005e-09
6.10774514866e-09
6.28562608946e-09
7.21250494391e-10
9.61285383475e-09
1.23333649489e-08
4.84680174112e-09
2.91280210127e-09
3.64781201965e-09
1.89879010117e-09
3.93580830541e-09
5.58005373529e-09
1.44565060625e-10
2.96200610129e-09
4.74484589988e-08
1.27281727782e-08
3.87034665866e-09
8.61912129243e-09
4.33993622685e-09
3.20882853715e-08
2.62531125311e-08
6.2788483248e-09
1.41550414165e-08
3.55532630132e-08
7.68128372682e-09
5.71761867318e-09
9.57506572586e-09
8.42886651128e-09
1.69736623888e-08
4.32969706475e-09
8.84929792527e-09
1.79666945676e-09
2.46644689846e-09
5.11009093908e-09
1.32917116034e-08
6.21651874541e-09
2.53523141335e-09
1.86253834413e-08
6.84464411757e-09
3.77084112921e-11
4.70790204205e-09
6.48379185427e-09
1.44532968277e-08
2.89807017872e-08
1.02032519037e-08
9.41813551544e-09
2.07810919163e-09
1.28603658751e-08
1.6438492976e-08
2.82175227742e-09
2.00045269079e-09
1.20232384875e-08
2.33334457453e-09
4.63129392952e-09
5.08006999608e-08
1.8560142832e-08
8.93172965874e-09
1.8871174596e-08
1.86189342661e-08
1.51220826963e-08
2.26399062079e-08
3.21209959919e-08
1.9251016984e-09
1.69777996928e-08
1.45796498112e-08
8.13233265223e-09
3.96476349479e-09
8.56090038193e-10
1.52369690076e-08
7.85556789043e-08
1.68041124327e-08
1.99304231651e-09
3.51816663286e-09
1.06418095429e-08
5.57561788665e-08
1.28106946865e-09
1.88570285809e-08
3.75583055011e-08
2.55792985088e-08
4.49544226697e-09
3.9293468227e-09
8.50911230891e-09
6.79696349439e-09
1.2286437935e-09
2.35969950365e-09
6.31520080771e-09
4.77741007288e-09
5.44409052179e-09
1.27264897272e-08
4.13618337986e-09
1.08788916229e-08
2.49190532234e-08
1.51201933778e-08
2.39876565957e-08
2.4354713147e-09
3.37117362161e-10
7.86363149919e-09
5.07548666205e-10
1.8427825973e-08
1.19170451047e-08
4.14290837383e-09
6.05218608688e-09
3.63547430033e-09
2.74188814451e-09
1.13815662382e-09
3.83092018889e-08
5.26326148246e-10
5.92884432196e-09
7.01576699533e-09
9.76292300624e-09
9.50221616576e-09
1.26153717463e-08
1.28174218233e-08
5.8756487447e-09
9.53441742362e-09
5.74735294496e-09
1.04383152861e-08
1.71488762963e-09
1.19410541717e-10
3.63083434379e-08
3.73698137617e-08
7.73495914285e-09
5.38780139042e-09
9.86110758052e-10
1.29514083121e-08
7.29549655888e-09
4.82174885574e-09
2.08931684855e-08
1.8372717011e-08
2.50791262797e-08
2.84609334085e-09
1.06898618792e-08
1.47698003807e-09
7.87829789595e-10
2.59333650506e-09
6.59563391885e-09
4.27023741964e-09
3.78638936744e-09
8.39504180456e-09
5.45995428699e-09
9.85602500369e-09
7.4140127245e-09
2.42343564689e-08
2.40002472433e-08
3.69930981572e-09
4.42389821422e-09
8.32422320678e-09
1.47504192631e-09
8.04129456141e-09
9.3566744792e-09
7.80665495901e-09
5.5788432295e-08
8.53501950783e-11
7.77860771924e-10
1.05055626378e-09
1.27380057656e-09
1.02004362397e-08
8.54006402437e-09
8.94279492453e-09
9.42156256002e-10
1.67862911169e-08
6.95896719247e-10
1.23711296419e-08
6.78417615826e-09
1.1376949127e-09
5.9678944688e-09
3.02073637562e-09
1.58748345337e-08
1.57304798204e-08
6.27450198139e-09
4.79486050213e-09
1.12975177114e-08
6.93932191304e-09
1.93542144165e-08
3.32946758456e-10
8.38340784631e-09
6.89628811526e-09
1.82138412797e-09
1.79214821413e-08
2.31273206581e-08
8.70421253056e-09
4.04623214569e-09
2.00427441625e-08
1.33885339145e-08
6.69449245039e-08
1.60890779093e-08
6.23379763003e-09
1.41670236288e-08
3.13931590964e-09
5.73987543418e-09
3.94370093954e-09
1.1770530433e-08
2.3666006094e-08
1.31261806524e-08
1.33810973788e-08
9.52261661994e-09
6.36468747019e-09
2.28304779642e-09
4.51980823465e-09
2.55403072815e-08
2.44414433405e-08
2.81338095129e-08
5.20750830445e-08
5.56836439452e-09
9.9538580659e-09
1.35889114113e-08
1.84171588629e-08
2.95816791647e-09
8.26685007752e-09
2.28238745269e-08
2.48240609047e-09
1.35624836338e-08
2.39602971989e-08
1.15017001321e-08
5.49696931263e-09
5.94426260074e-09
8.00449500654e-10
2.48521867322e-08
6.14532227629e-09
1.62211010541e-08
1.94870584724e-09
3.22638028692e-10
9.46657498174e-10
6.51540579872e-09
5.3869374059e-09
1.748238664e-08
2.23623069364e-08
5.96397627001e-09
1.39181604521e-09
5.20438623029e-09
7.1381989183e-09
9.55655511588e-09
5.27441672286e-08
3.97731941746e-08
1.18192715179e-07
1.23845826327e-08
2.97912118969e-09
1.25493270454e-08
1.15073891671e-08
1.05626439888e-08
9.05569477956e-10
5.24649254381e-09
7.40651430227e-09
1.7558243131e-09
1.57521469025e-08
7.69222994451e-09
5.03295014279e-09