# vtk DataFile Version 3.0
File Name: Molecule/sphere_cent/sphere_cent_0-s1.vtk
ASCII
DATASET UNSTRUCTURED_GRID
FIELD FieldData 1
TIME 1 1 double
0.0
POINTS 42 double
0.85065078735 -0.52573108673 0.0
0.80892920494 -0.30898347497 -0.49994572997
0.99989145994 -9.9714245749e-09 4.1670162432e-07
0.8089287281 0.30898413062 -0.49994593859
0.52573108673 0.0 -0.85065078735
0.85065078735 0.52573114634 0.0
0.49994558096 0.80892938375 -0.30898311734
0.30898275971 0.49994543195 -0.80892956257
0.0 0.85065078735 -0.52573114634
0.49994587898 0.80892896652 0.3089838028
-8.3899965375e-07 0.99989140034 3.8027305749e-09
2.2204460493e-16 0.85065078735 0.52573108673
-0.49994584918 0.80892896652 0.3089838028
-0.49994596839 0.8089287281 -0.30898413062
-0.85065078735 0.52573114634 0.0
-0.30898311734 0.49994561076 0.80892938375
-0.80892956257 0.30898275971 0.49994543195
-0.52573108673 5.5511151231e-17 0.85065078735
0.30898344517 0.49994570017 0.80892914534
-1.689826945e-09 -8.4459253458e-07 0.99989140034
0.52573108673 2.7755575616e-17 0.85065078735
-0.3089838028 -0.49994584918 0.80892896652
0.30898413062 -0.49994596839 0.8089287281
0.0 -0.85065078735 0.52573108673
0.80892914534 -0.30898344517 0.49994570017
0.49994546175 -0.80892956257 0.30898275971
0.30898311734 -0.49994558096 -0.80892938375
1.0897897695e-08 -8.694914122e-09 -0.99989140034
-0.30898413062 -0.49994593859 -0.8089287281
2.2204460493e-16 -0.85065078735 -0.52573108673
-0.52573114634 0.0 -0.85065078735
0.80892908573 0.30898341537 0.49994564056
-0.80892938375 -0.30898308754 -0.49994558096
-0.80892914534 0.30898344517 -0.49994570017
-0.99989134073 8.5710043507e-09 4.1315800559e-07
-0.85065078735 -0.52573108673 4.4408920985e-16
-0.30898344517 0.49994564056 -0.80892908573
-0.49994546175 -0.80892956257 -0.30898275971
-0.49994570017 -0.80892914534 0.30898344517
4.2515640075e-07 -0.99989134073 4.2034709047e-09
-0.80892908573 -0.30898344517 0.49994567037
0.49994564056 -0.80892908573 -0.30898344517

CELLS 80 320
3 0 1 2
3 1 3 2
3 1 4 3
3 2 3 5
3 5 3 6
3 3 7 6
3 3 4 7
3 6 7 8
3 5 6 9
3 6 10 9
3 6 8 10
3 9 10 11
3 11 10 12
3 10 13 12
3 10 8 13
3 12 13 14
3 11 12 15
3 12 16 15
3 12 14 16
3 15 16 17
3 11 15 18
3 15 19 18
3 15 17 19
3 18 19 20
3 17 21 19
3 21 22 19
3 21 23 22
3 19 22 20
3 20 22 24
3 22 25 24
3 22 23 25
3 24 25 0
3 4 26 27
3 26 28 27
3 26 29 28
3 27 28 30
3 0 2 24
3 2 31 24
3 2 5 31
3 24 31 20
3 5 9 31
3 9 18 31
3 9 11 18
3 31 18 20
3 30 32 33
3 32 34 33
3 32 35 34
3 33 34 14
3 8 36 13
3 36 33 13
3 36 30 33
3 13 33 14
3 35 37 38
3 37 39 38
3 37 29 39
3 38 39 23
3 35 38 40
3 38 21 40
3 38 23 21
3 40 21 17
3 17 16 40
3 16 34 40
3 16 14 34
3 40 34 35
3 30 28 32
3 28 37 32
3 28 29 37
3 32 37 35
3 29 41 39
3 41 25 39
3 41 0 25
3 39 25 23
3 4 1 26
3 1 41 26
3 1 0 41
3 26 41 29
3 4 27 7
3 27 36 7
3 27 30 36
3 7 36 8

CELL_TYPES 80
5
5
5
5
5
5
5
5
5
5
5
5
5
5
5
5
5
5
5
5
5
5
5
5
5
5
5
5
5
5
5
5
5
5
5
5
5
5
5
5
5
5
5
5
5
5
5
5
5
5
5
5
5
5
5
5
5
5
5
5
5
5
5
5
5
5
5
5
5
5
5
5
5
5
5
5
5
5
5
5

CELL_DATA 80
SCALARS cell_data_0 double
LOOKUP_TABLE default
3.902327915e-07
2.58012729687e-06
3.90226216578e-07
8.33730615488e-07
8.33698324519e-07
2.58010886258e-06
3.90226114629e-07
1.6669544379e-06
8.33691923995e-07
2.58010689255e-06
1.66696918084e-06
3.90209355051e-07
1.66696744827e-06
2.58010802997e-06
3.90237656945e-07
3.9022763084e-07
1.66697682434e-06
1.14009611024e-06
1.66697465522e-06
3.90208440885e-07
3.90244433575e-07
2.58010044079e-06
3.90216627311e-07
8.33725387934e-07
3.90225207401e-07
1.14010344498e-06
3.90221285766e-07
3.90224037979e-07
3.90231253204e-07
1.14007343233e-06
3.90234527838e-07
3.90224386622e-07
8.33699786184e-07
3.95742046738e-06
3.90243039289e-07
3.90224605482e-07
3.90233814558e-07
1.14008251911e-06
3.90220457983e-07
3.90218148095e-07
8.33705291453e-07
3.9573918852e-06
8.33699285475e-07
8.33720226925e-07
1.66698302947e-06
2.58008488531e-06
3.90229300204e-07
3.90228587871e-07
3.90233996451e-07
2.58006124826e-06
1.6669678849e-06
3.90248673566e-07
1.66698655639e-06
1.14007556482e-06
1.66698557136e-06
3.90208198186e-07
1.66696696452e-06
1.14006715321e-06
3.90233380888e-07
3.90230802248e-07
3.9021444498e-07
2.5800631777e-06
3.90245317793e-07
3.90239358341e-07
1.66697975609e-06
1.14009515979e-06
1.66698798219e-06
1.66696639692e-06
1.66697102758e-06
1.14005434942e-06
3.90229518486e-07
3.90242474195e-07
3.90235881823e-07
2.58009514785e-06
3.90230346679e-07
3.90239754642e-07
3.90232994261e-07
2.58007629033e-06
3.9021220102e-07
1.66696744145e-06

