# vtk DataFile Version 3.0
File Name: Molecule/sphere_cent/sphere_cent_0-s22.vtk
ASCII
DATASET UNSTRUCTURED_GRID
FIELD FieldData 1
TIME 1 1 double
0.0
POINTS 407 double
-0.31095799804 -0.52461326122 0.79242455959
-0.055622093379 -0.53464257717 0.84297651052
-0.13928206265 -0.33581903577 0.93152576685
0.076157748699 -0.25817546248 0.96238970757
0.098587341607 -0.41839563847 0.90204530954
-0.9313492775 0.14982254803 0.3316116035
-0.95599532127 -0.13219982386 0.26145640016
-0.86839848757 -0.045664735138 0.49370875955
-0.84410083294 -0.26968878508 0.46327790618
-0.0050023640506 0.99933326244 0.00062886846717
-0.21653856337 0.96954101324 -0.11369203031
-0.28727144003 0.95166403055 0.10647120327
-0.45417425036 0.89028382301 -0.030483298004
-0.62950354815 0.59011662006 0.50522577763
-0.52948284149 0.48166123033 0.69832891226
-0.41231253743 0.65150988102 0.63666319847
-0.31197592616 0.53234356642 0.78625696898
-0.52490895987 -0.80434089899 -0.278116256
-0.33854269981 -0.9287905097 -0.14946624637
-0.53766000271 -0.84236067533 -0.02690538764
-0.23260709643 -0.96373713017 0.12629674375
-0.0072427559644 -0.99967497587 0.024662433192
-0.0065189544111 -0.97157126665 0.23612214625
-0.49775117636 -0.79665213823 0.34235018492
-0.4264293015 -0.69354760647 0.58061176538
-0.62520867586 -0.63283109665 0.45674005151
-0.55971729755 -0.50466024876 0.65729492903
-0.28960171342 -0.84230011702 0.45420777798
-0.19233070314 -0.70888245106 0.67851865292
0.19065538049 -0.97112429142 0.14284433424
-0.94412750006 -0.084616824985 -0.31844422221
-0.93455791473 0.14892826974 -0.32314217091
-0.86398118734 0.04428454861 -0.50136196613
-0.82515877485 0.29145181179 -0.48367705941
-0.30147376657 0.5034828186 -0.80866748095
-0.52462846041 0.45255821943 -0.72107201815
-0.40619498491 0.63462978601 -0.65533137321
-0.38302883506 -0.51017737389 -0.7699008584
-0.44673955441 -0.64644581079 -0.61837393045
-0.60627895594 -0.44828033447 -0.65677654743
-0.62201142311 -0.6279976368 -0.46753022075
0.36376866698 -0.49825322628 0.78665423393
0.46676921844 -0.66032785177 0.58803009987
0.57821553946 -0.44676443934 0.68154609203
0.53191310167 -0.77283930779 0.34589067101
0.6761854291 -0.59022527933 0.43862211704
0.69595426321 -0.68727183342 0.20541584492
0.54031103849 -0.83638805151 0.090028114617
-0.40008229017 0.30116102099 -0.86515903473
-0.10364130884 0.28793314099 0.95195001364
0.12576204538 0.27881297469 0.95086055994
-0.032527349889 0.48072120547 0.87566828728
-0.030297338963 0.07918279618 0.99613648653
-0.017206747085 0.52674013376 -0.84862560034
-0.13815018535 0.68382531404 -0.7164272666
0.11853953451 0.6769464016 -0.7260786891
0.34874415398 -0.53000164032 -0.77281677723
0.44904986024 -0.66944640875 -0.59176301956
0.23321168125 -0.68238127232 -0.69242596626
0.51176804304 -0.77344024181 -0.3739323616
0.31205910444 -0.8421844244 -0.43866321445
0.11291083694 -0.53445118666 -0.8370821476
0.32832688093 -0.91774731874 -0.22233702242
0.21704107523 0.89307439327 -0.39335075021
0.038058139384 0.96571940184 -0.25661721826
0.26521006227 0.94769209623 -0.17294059694
0.78123992682 -0.33013904095 -0.5283126235
0.69349062443 -0.15874788165 -0.70242786407
0.81799465418 -0.064137130976 -0.57163882256
0.70656126738 0.06014149636 -0.70511585474
0.85424208641 0.51659607887 -0.047476220876
0.94944781065 0.31167504191 0.016258336604
0.9055378437 0.38131934404 -0.1858329922
0.58036106825 -0.47964909673 -0.65781670809
0.66723436117 -0.58368903399 -0.46271106601
0.82290059328 -0.48957437277 -0.28430104256
0.70683127642 -0.66631430387 -0.23760928214
0.83668321371 -0.54483693838 -0.048188604414
0.90683364868 -0.12737777829 -0.40155717731
0.9186116457 0.068691343069 -0.38902670145
0.97620540857 -0.053302884102 -0.2100109309
0.96937274933 0.17040149868 -0.17664292455
0.93386995792 -0.25265842676 -0.25196707249
0.82125657797 0.15895396471 -0.5479695797
0.88919639587 0.26933914423 -0.36977866292
0.77881258726 0.35336869955 -0.5176525712
0.97532719374 -0.2153608799 -0.047969367355
0.99887609482 -0.033758722246 0.031194079667
-0.72371888161 -0.16898599267 0.66911768913
0.55407184362 -0.81772166491 -0.15593798459
0.69392210245 -0.71952873468 -0.025975804776
-0.76165926456 -0.46577623487 0.45034638047
-0.70534664392 -0.34902593493 0.61698335409
-0.58391046524 -0.26670759916 0.76668447256
-0.73756355047 0.018074017018 0.67512768507
-0.53605461121 -0.012218069285 0.84400653839
-0.75149393082 0.1558264941 -0.64037847519
-0.68964445591 0.35235080123 -0.63265919685
-0.67344641685 0.5426581502 -0.50101655722
-0.57308274508 0.25798431039 -0.77723073959
-0.19420170784 -0.54188472033 -0.81752377748
-0.25134834647 -0.66356343031 -0.70449888706
-0.06084312126 -0.67430371046 -0.73533391953
0.81874978542 0.44485139847 -0.36296603084
0.54456150532 -0.015197002329 -0.83833432198
0.58142662048 0.21263463795 -0.78527444601
0.70351630449 0.2636885643 -0.6599624157
0.55874407291 0.43665221334 -0.70437335968
-0.83807456493 0.30893942714 0.449629426
-0.81736516953 0.15499140322 0.55487149954
-0.70169609785 0.36321231723 0.61290234327
-0.67387837172 0.17614449561 0.71749281883
-0.52084201574 0.26599895954 0.81110733747
0.80597198009 0.5444714427 -0.23196516931
0.68614304066 0.59519791603 -0.41791501641
-0.15592798591 -0.23881050944 -0.95836097002
-0.29849010706 -0.36395144463 -0.88227379322
-0.35585314035 -0.17119586468 -0.91870450974
-0.49172616005 -0.30046963692 -0.81714898348
-0.56682389975 -0.065783306956 -0.82112818956
-0.31951922178 -0.15495015681 0.9348539114
-0.26829117537 0.010890790261 0.96325087547
-0.11442819238 -0.12927274406 0.98498535156
-0.86853957176 -0.49517393112 0.018439253792
-0.88668680191 -0.39010044932 0.24794268608
-0.96126633883 -0.27059406042 0.051588896662
-0.99798858166 -0.053090952337 0.031457807869
-0.77879613638 -0.56684219837 0.26807138324
-0.87874794006 -0.28660193086 -0.38161224127
-0.83567756414 -0.14486928284 -0.5296664834
-0.98804610968 0.089776232839 -0.12541618943
-0.98472124338 -0.125270769 -0.12102615088
-0.93779534101 -0.3071860671 -0.16161362827
-0.85134035349 -0.4574341774 -0.25632500648
-0.76457768679 -0.46577304602 -0.44525316358
-0.67667043209 -0.21435005963 -0.70435041189
-0.77193719149 -0.30768838525 -0.55600345135
-0.72947275639 -0.62054258585 -0.28683975339
-0.23518319428 0.011799201369 -0.97107583284
-0.86649626493 0.41437026858 0.27850487828
-0.55869984627 0.80962365866 -0.17990027368
-0.36652290821 0.90078544617 -0.23278424144
-0.53809845448 0.82916545868 0.15122666955
-0.4321899116 0.84471154213 0.31504869461
-0.60387319326 0.72473949194 0.33176085353
-0.66369408369 0.74807584286 -0.0069891237654
-0.69622087479 0.69905692339 0.16278114915
-0.85027045012 0.52626293898 0.0078186253086
-0.7079180479 0.68546611071 -0.1700309217
-0.62538808584 0.70180290937 -0.34118300676
-0.44878342748 0.75888174772 0.47184580564
-0.77312147617 0.46324446797 0.43313547969
-0.76840293407 0.57892853022 0.27288943529
-0.47194445133 0.81695330143 -0.33142009377
-0.78078699112 0.56516289711 -0.26592361927
-0.98576003313 0.11122702807 0.1260625422
-0.93943011761 0.31027954817 0.1461084336
-0.96425485611 0.26463744044 -0.013285879977
-0.31608480215 -0.86611449718 -0.38670453429
-0.9313775301 0.32213383913 -0.16929629445
-0.45151162148 -0.76145386696 -0.46511813998
-0.28447157145 -0.779104352 -0.55808675289
0.95709633827 -0.0569049716 0.28409475088
0.95932549238 -0.22314286232 0.17285652459
0.90052336454 -0.22565206885 0.3716776073
0.86060279608 -0.047158289701 0.50562739372
0.86608272791 -0.41489431262 0.27608063817
0.9167277813 -0.38071736693 -0.12073754519
0.92793929577 -0.36777597666 0.059961121529
-0.30345222354 0.85864090919 -0.41302925348
-0.17443268001 0.93277877569 -0.31544315815
-0.094865903258 0.86460071802 -0.4929189086
-0.26967769861 0.86871409416 0.41525962949
-0.25640052557 0.77937287092 0.57141542435
-0.051283285022 0.85957986116 0.50689959526
0.36889246106 -0.89023321867 0.26730698347
0.18728452921 -0.91724890471 0.35144886374
0.3251196146 -0.81805235147 0.47427377105
0.12164805084 -0.82279956341 0.5550789237
-0.27234962583 0.77669680119 -0.56783950329
-0.45626044273 0.7570194006 -0.46701931953
0.24601869285 -0.69157028198 0.67892724276
-0.12553592026 0.68993228674 0.71270143986
-0.2255897522 0.62287795544 0.74794799089
0.15389747918 -0.55466932058 0.81765598059
0.035851310939 -0.69985967875 0.71325576305
-0.013122339733 -0.89201796055 -0.4513041079
0.14684565365 -0.93515598774 -0.32203897834
-0.0092096235603 -0.9720506072 -0.23446162045
0.13839076459 -0.9835845232 -0.11522629112
-0.66200274229 -0.73568147421 -0.14295245707
-0.15262559056 -0.98281615973 -0.10366728157
-0.16377747059 -0.93740272522 -0.3071835041
-0.084165975451 -0.83959841728 0.53651148081
-0.74613553286 -0.040978182107 -0.66457915306
-0.7878125906 -0.60244047642 -0.12855897844
-0.71348750591 -0.70065134764 -0.0040120137855
-0.15399448574 -0.84837132692 -0.50611424446
0.48513442278 0.83052027225 0.27283424139
0.45714649558 0.77073436975 0.44375920296
0.59551256895 0.71884930134 0.35855227709
0.55686962605 0.65240001678 0.5140619874
0.38916119933 0.6895596981 0.61002010107
0.68498659134 0.59396928549 0.42186868191
0.51608455181 0.56436914206 0.64430230856
0.64802289009 0.51429665089 0.56175255775
0.60257834196 0.42017632723 0.67846232653
0.76447331905 0.44164532423 0.46949020028
0.71749341488 0.35542064905 0.59896701574
0.82126402855 0.26489523053 0.50496417284
-0.45423427224 -0.38356295228 0.80393308401
-0.45262876153 -0.22355625033 0.86321353912
-0.33488321304 -0.32913023233 0.88282430172
0.36854797602 -0.9248944521 0.093435175717
0.42110815644 -0.90528184175 -0.054197333753
0.28370589018 -0.95848304033 -0.027113448828
-0.15323351324 -0.92525500059 0.34639382362
-0.36947908998 -0.89453172684 0.25025334954
0.019830040634 -0.90935891867 0.41547632217
0.71889716387 0.13318796456 0.68078893423
-0.23011444509 0.40086096525 0.88667088747
-0.32440495491 0.27816098928 0.90405571461
-0.22130002081 0.16470177472 0.96118074656
-0.39260298014 0.14275589585 0.90849226713
0.89370065928 0.40405082703 0.19214421511
[...]
CELL_DATA 810
SCALARS cell_data_0 double
LOOKUP_TABLE default
5.84207827056e-08
4.43234871319e-08
1.41623148506e-07
2.36511273117e-08
7.43814230475e-08
1.81901976772e-08
9.88894927319e-09
6.55266611184e-09
1.48719347098e-07
6.42804923197e-09
2.80617559182e-08
5.70324034838e-08
1.7829796436e-07
6.47230192594e-08
6.89861924182e-08
7.61394052004e-08
6.48454379108e-08
8.55547756851e-08
1.7427291657e-08
3.92159646262e-08
1.12672646341e-08
9.58394040177e-08
1.55516091472e-07
1.55728324393e-07
1.60186728937e-07
5.37893472316e-08
5.11848391154e-08
1.93276005752e-08
1.5131363511e-07
7.61869905721e-08
1.83557143129e-07
1.57350288317e-07
1.86391779009e-08
1.63024153648e-08
4.5670598713e-08
3.51681415579e-08
6.08132396505e-08
9.12005300705e-08
1.34141210405e-08
6.25141180626e-09
7.12533942114e-08
9.03169579404e-08
7.43339530853e-08
6.53983622084e-08
1.98527329566e-08
6.60166181594e-08
1.15088317204e-07
3.34190981934e-08
1.98059977721e-08
1.27247757867e-08
5.42639996237e-08
4.08203617228e-08
1.34242943263e-08
1.93339522637e-09
1.18402308073e-08
1.95760267437e-08
6.66271118298e-08
7.30068829471e-09
6.11459070103e-09
1.90634863507e-08
2.32431526269e-08
3.53635310877e-08
3.74512620623e-08
8.79923151506e-08
2.64729425758e-08
9.63661755824e-08
2.87943167091e-08
3.97999235581e-08
1.72020501205e-08
1.1843441108e-07
9.88028135449e-08
3.0900482791e-08
2.62779036554e-09
7.59089823703e-08
2.79093801013e-08
2.91952091851e-07
8.52980107514e-08
8.89433764425e-08
5.13462697998e-08
4.09740171024e-08
7.37179442459e-08
9.74921057076e-09
3.30179468152e-08
2.56154438059e-08
4.43348066508e-08
4.67212974575e-08
1.65748316967e-08
7.99656650266e-09
7.93811744699e-08
1.72046735186e-08
1.42033388223e-08
1.49411790163e-07
5.14003840251e-08
7.32513932844e-08
7.52287572001e-08
7.40216511239e-08
3.82012746487e-08
8.01828986303e-08
4.49394772685e-08
2.32401324503e-08
1.0781073443e-08
3.33828195156e-08
3.94054487447e-08
1.55348615368e-08
5.3764296444e-10
8.84116246016e-08
5.45669822636e-08
3.39116970591e-09
4.47240632988e-09
2.06700310518e-08
3.12718923492e-08
9.48001191292e-08
7.8560588992e-08
1.88925525279e-08
1.76230504168e-08
4.20724927273e-08
5.53474389083e-08
6.98240983888e-08
2.88220950159e-08
7.91946418617e-08
6.6384644228e-08
1.23060741399e-08
2.07775474486e-08
3.68968284977e-08
7.9720950322e-08
6.94796764916e-08
5.55668093262e-08
2.90439511153e-08
5.3460766547e-09
8.99867749579e-08
9.82170088569e-08
2.2690883585e-08
1.28338243969e-07
1.08524423306e-08
8.87512648575e-09
9.80254080677e-08
1.08574774619e-07
4.20137491533e-09
4.97743466461e-08
1.87251783168e-08
2.55751916327e-08
1.74852955266e-07
1.02857542546e-07
3.37102718887e-08
8.73509360232e-08
2.70301420429e-08
6.82131349296e-08
4.94589246367e-08
1.23622604952e-08
1.34748253311e-07
8.58444736953e-09
5.4452304647e-08
8.03795687761e-09
8.25768105907e-08
3.70999439066e-09
7.60233867646e-08
4.84263915282e-08
5.85583211876e-08
3.97244093328e-08
6.77698521165e-08
5.9696323757e-08
3.44127340437e-09
1.26386513199e-07
7.52312319302e-08
1.09957947874e-08
1.09125985876e-07
2.26872729898e-08
8.44290495263e-08
8.44468398055e-08
1.07905935232e-07
4.23697571271e-08
1.24219029126e-09
2.43740691341e-08
1.55071704578e-07
5.41121525739e-09
4.64521692256e-09
6.60356848496e-08
4.20783002523e-09
3.06651493571e-08
1.49952935827e-07
6.86389048193e-08
1.80701515316e-08
6.4012323236e-08
8.33304279212e-08
4.16411920126e-09
4.63540862232e-08
4.20966076864e-09
3.64852506115e-09
1.72014820038e-09
7.76573511576e-08
5.41926563266e-09
1.47726416849e-07
1.24802288275e-07
3.95922168184e-08
8.30011439692e-08
2.15364047457e-08
4.31636235639e-08
5.6473481976e-08
1.65720679623e-08
3.9085067296e-09
2.47079763062e-08
6.17705982998e-09
6.02437246853e-08
4.05459094389e-09
4.04880362719e-08
1.35782378234e-08
2.68145552085e-10
5.65904775483e-08
2.52266461054e-08
8.03819222861e-08
8.05289594734e-08
2.6315907726e-08
1.97108929222e-08
1.02664823456e-08
1.66570040533e-08
1.10590913225e-08
2.57465821209e-09
6.39159636577e-08
2.64762245966e-08
3.92648444905e-08
8.8478576289e-08
6.53589201386e-08
1.21828552199e-07
1.17476375712e-07
2.68120786508e-08
1.69149053174e-08
1.48988818281e-08
1.3929040016e-08
8.88023509391e-08
5.22985253141e-08
5.99304140682e-09
3.10391441465e-08
9.69377596392e-09
1.61145306779e-08
9.54793120968e-08
8.78083242653e-08
9.38979553502e-08
4.4451525572e-08
2.02469325626e-08
4.3833551464e-08
7.64571371433e-09
7.08796428854e-09
9.69009296845e-09
2.39388279372e-08
3.48024367554e-08
6.28552608518e-08
1.34370055815e-07
7.35140600466e-09
7.66396373192e-09
1.51432716168e-08
2.7148107439e-08
2.24609726563e-08
6.38917080479e-08
7.47266131788e-08
2.01958626428e-08
6.99797843959e-08
5.06529457865e-09
4.44853781368e-09
3.77452370152e-08
1.09809690893e-07
1.46184217299e-07
1.36742502306e-07
5.72745096668e-09
1.34144861273e-08
7.08192922701e-08
2.52422685753e-08
5.77474655485e-08
1.11283993289e-09
5.33859336059e-08
6.91539295519e-08
2.7188290288e-08
2.49339267983e-08
3.97232960538e-08
7.77155128627e-08
3.02831884757e-08
1.23411148101e-08
2.5143762318e-08
2.81023710278e-08
1.60406449995e-08
1.58998092193e-08
2.45677665759e-08
7.33307806319e-09
4.15227773011e-09
1.38990213367e-08
4.24563262031e-08
2.47131982518e-08
4.62154095626e-08
3.00611767011e-08
3.93502091441e-08
6.62407216831e-08
3.99258640881e-08
4.47106758592e-08
4.3936121194e-08
5.16984647171e-08
3.37143971043e-08
1.25667912185e-07
3.67448913649e-08
2.89224256766e-08
3.55806753849e-08
5.32935022399e-08
8.35380972044e-08
9.05100546601e-08
1.81564267517e-08
1.09213082261e-08
2.43556374323e-08
3.28767092557e-08
3.28301170686e-09
3.6091110363e-08
4.05276686217e-08
5.85684713185e-08
2.7461900298e-08
2.20054089631e-08
5.40080313977e-08
3.83909217085e-09
4.94815268656e-08
5.3517562108e-08
2.69446463691e-08
1.39948011337e-08
1.15062600532e-08
4.73513826442e-08
6.08178230421e-08
1.85360442967e-08
4.71834830278e-08
3.00292739543e-08
8.10401167627e-08
3.97048238127e-09
6.15417416183e-08
6.58857927189e-08
5.00120705257e-08
1.56295382041e-08
3.90070863742e-08
1.87536450605e-08
1.05767569929e-08
3.22442881721e-11
1.41945656566e-08
1.74338402536e-09
2.19388758178e-08
3.08008314062e-08
3.59321538867e-08
3.19533642463e-08
1.60523272201e-08
3.86452563929e-08
6.88597836413e-08
6.59304345173e-08
9.52699948665e-08
2.72644130821e-08
2.52658371526e-08
5.84871912646e-09
7.48784891609e-08
2.93665258578e-08
2.87599237574e-08
2.51848100178e-08
7.97721878336e-09
1.39781510574e-07
2.91336201397e-08
1.00639187861e-08
3.05804376393e-08
4.89014434055e-08
7.12371368229e-08
6.45221602544e-08
1.6380835572e-08
3.04053917016e-08
1.81944645021e-08
1.15488828513e-07
1.08560227517e-07
5.6072541039e-08
3.94058665532e-08
2.62817975137e-08
3.54028376282e-08
4.55082075731e-08
9.56210070087e-08
2.19268665364e-08
2.33319875025e-08
7.87976242118e-09
7.29877214345e-10
6.07339124758e-08
2.22943832965e-08
4.64079773381e-09
1.27383954241e-08
4.42938948909e-08
6.68070107526e-08
3.49971944723e-08
4.49870193979e-08
2.94226104903e-08
4.71712468087e-08
1.21990907225e-07
8.32901669074e-08
5.01311036339e-08
2.76805938206e-08
5.9539552604e-08
1.08867772256e-07
3.96338346685e-08
4.25365406259e-08
2.61859330711e-09
1.29686072632e-08
1.61272729261e-08
5.06423732809e-08
5.58901786582e-09
1.42720066823e-08
5.05650847366e-09
1.50127875659e-08
1.51009354597e-09
2.23030372937e-08
3.68523713429e-09
4.57931822551e-08
1.11352585938e-08
4.80804781186e-09
1.12394396419e-08
7.45285898338e-09
2.78188107722e-08
4.63410329405e-08
2.78802899545e-08
3.07328711435e-08
1.66259578873e-09
1.18102490466e-08
3.02075146085e-08
1.54702252752e-08
2.78751137761e-08
3.0435224589e-08
3.48720336588e-08
1.4373564902e-08
3.43388740598e-08
1.43281683667e-08
6.93222850698e-08
1.86931555143e-08
2.89989300905e-08
3.99844358731e-09
3.46618557331e-08
4.10387052262e-09
3.40038058633e-08
9.54220421621e-09
1.48080680515e-08
2.00774620503e-08
1.30027074919e-07
3.82861436358e-08
1.49167303998e-08
1.82091488635e-08
1.11393837929e-08
8.54908140618e-09
5.57349321852e-08
9.86718715751e-08
5.59734188754e-08
3.47556035016e-08
7.64585915188e-08
5.61751121601e-08
8.73225541017e-08
1.84426264159e-08
7.17165259692e-09
1.91399054805e-08
1.67444952167e-08
1.7276791231e-07
8.15141564695e-08
4.8452653235e-08
1.18783598312e-08
9.1802687573e-11
7.30343886014e-09
1.94519945021e-08
3.1188336899e-09
5.34069404444e-08
3.81255343202e-09
3.93587442579e-08
4.14043607206e-08
4.12630133934e-08
1.95266837334e-08
1.79649939369e-08
2.0238603704e-08
3.52965966467e-08
9.25021858375e-09
2.39916438607e-08
1.36227064642e-08
8.17754044827e-08
5.59336715751e-08
1.14535693067e-08
3.89962324067e-08
6.07733915972e-08
6.86927574296e-08
3.50763356164e-08
2.93449379544e-08
1.17827730137e-09
1.73763915353e-08
1.35240606062e-08
6.85318786914e-09
1.82976040422e-08
4.61490161108e-08
3.03016412787e-08
1.33768796952e-08
5.4036837512e-08
2.95940820161e-08
4.12407390557e-08
3.94603446715e-08
2.02446759548e-08
4.73143624542e-08
9.62940049081e-08
3.44963961643e-08
3.12592608887e-08
7.01174750726e-08
3.15728957962e-08
1.6494219724e-08
1.02899987059e-08
1.43903020647e-10
4.13504037445e-09
6.90585756003e-09
3.0678297307e-08
4.24223323608e-08
3.66188820229e-08
3.49979562231e-08
1.9312000145e-08
3.01544978199e-08
6.22924518386e-09
2.03315639857e-08
1.26355018235e-08
6.41475792943e-09
1.04318325927e-08
3.02336183338e-08
3.68851496332e-08
3.60294067196e-08
1.25881634796e-08
1.90642736312e-08
1.09403126236e-08
1.21739754634e-08
2.40838206056e-09
4.42021689861e-08
1.38518760693e-08
2.79697296485e-08
3.6958884913e-08
1.48050990387e-08
7.62319356098e-09
1.15579944226e-08
6.81847049156e-09
1.65081983096e-08
4.29254716961e-09
1.04956458427e-08
6.53684378735e-09
5.47113912048e-08
4.33698054061e-08
2.88127288785e-09
3.16686923698e-08
3.7354528299e-08
1.18098101832e-08
1.47871847708e-08
4.42419350036e-08
2.68978674438e-08
2.39376746444e-10
2.52006198775e-08
1.94801641303e-08
7.40794908619e-08
7.39960998959e-09
1.06401963294e-09
2.45627248028e-08
3.17456102792e-08
6.84783859694e-09
1.99526133556e-08
2.97746968688e-08
8.99838204292e-08
4.98589509457e-08
2.71027966414e-08
5.02532727503e-08
2.6997645047e-08
4.73723094714e-08
3.30218820169e-08
4.1790566259e-08
5.13560988454e-08
1.74408989309e-08
3.23508010692e-08
1.65038798814e-08
1.28629419753e-08
6.87823786e-09
3.94666751957e-09
3.62653116974e-09
1.38968217964e-08
1.4358470299e-09
3.33543624719e-08
2.2659121524e-08
1.87507894476e-09
1.01800190934e-08
2.00229282814e-09
2.50437667116e-09
2.59670389999e-08
3.12018675026e-09
7.68287795984e-09
7.51722887248e-09
1.29342869707e-08
2.26223244845e-09
3.00601135986e-08
1.44003785673e-08
8.96784370995e-08
1.16121202017e-08
9.68757826435e-09
5.13504845043e-09
1.06015005808e-08
2.72314639207e-08
1.18553743532e-08
4.12573021795e-08
9.48374224937e-09
2.88838696138e-08
4.57232298855e-08
4.39558637607e-08
2.21271583102e-08
1.36905794818e-08
6.45440892755e-09
2.4323892447e-08
2.33529163128e-09
2.82560857355e-08
1.75045317987e-08
5.07131559237e-10
5.50007878888e-09
2.77698241301e-08
4.27696870138e-08
1.9623254914e-08
9.93258992896e-09
5.38892789326e-09
1.36680935094e-08
2.48082367564e-08
1.40595817452e-08
1.25508472316e-08
7.18823490585e-08
6.19543765512e-08
1.61503616005e-08
1.32799883942e-08
2.36476692496e-08
5.24277598097e-09
1.36356699505e-08
2.24493549938e-09
1.68851527436e-08
8.54002205988e-09
1.465044129e-08
1.91254881147e-08
9.44517442443e-09
2.09747186498e-08
4.61207677061e-08
2.43461509588e-08
1.91070410041e-08
2.2292190646e-08
2.22374435979e-08
5.78957168546e-09
1.59003847717e-09
2.26371794125e-08
6.7867683121e-08
3.51569381999e-08
8.25847897178e-09
2.08076766843e-08
1.72767573954e-08
2.79527373651e-08
5.39570496165e-08
2.08683611767e-08
5.7585728225e-09
2.59298530727e-09
5.44604289749e-08
6.7223615e-09
2.23565261449e-08
4.13412823068e-08
9.42955561106e-09
1.98595374337e-08
2.04315556017e-08
3.84823793364e-09
1.65210400069e-08
9.43046668263e-09
1.68340724054e-09
1.96981407233e-08
4.70511924498e-08
1.10048288401e-08
1.26187722955e-08
3.57186583384e-08
1.16037408666e-08
3.49962140244e-08
2.42098215669e-08
3.28028979202e-08
2.46734968659e-08
8.53594258197e-08
1.2029244114e-09
6.29477142819e-09
3.30460919727e-09
1.82810399431e-08
2.18369225399e-08
2.1929116654e-08
1.64367758465e-08
1.41368308444e-08
1.03803281587e-08
4.07599349188e-09
1.49561305376e-08
1.78686055918e-08
6.43737325984e-11
1.08077562534e-08
2.45866238599e-08
5.4286270631e-08
3.26255490959e-08
3.04354255554e-08
2.69330647512e-09
2.29927384768e-08
2.36381407491e-08
2.93717535141e-08
5.90898187362e-09
1.55601844528e-08
8.01391766423e-09
3.60539555824e-08
1.99865670891e-09
9.77504575448e-09
1.34359600844e-08
1.07359044034e-08
9.67736230218e-09
3.0403921937e-08
1.23158821828e-08
2.29001102762e-08
1.4747898309e-09
2.50031136113e-08
2.62929594167e-10
2.50907717563e-08
1.94376610159e-09
1.24467616399e-08
2.86019352164e-08
5.64717813467e-08
4.81548915311e-08
1.16655578598e-08
3.2043858699e-08
5.19308726059e-09
1.55081934143e-08
1.24085017564e-08
1.10125446735e-08
2.37170879178e-08
1.62553884869e-08
1.31145163162e-08
8.47621377722e-09
2.53249380926e-09
6.71950158363e-09
4.42937600516e-09
1.12957759778e-08
1.73444859355e-08
1.99965674883e-08
6.9366214912e-08
3.99846263927e-08
2.60146810706e-08
8.51277253393e-09
7.7007622676e-09
1.67459236231e-08
2.05315727822e-10
1.15870035765e-08
4.79818002188e-09
1.5326673891e-07
5.08502709001e-08
4.02977462913e-09
2.30059569096e-08
3.32506979905e-08
5.67414266249e-09
1.52276266296e-08
4.05814265852e-09
5.05215250005e-09
7.95376759449e-09
1.31046016969e-08
1.85985710994e-08
8.18615157159e-09
9.29542346377e-08
5.92376904286e-08
2.80189669067e-08
7.97465276169e-09
2.03637501698e-08
3.71494538771e-08
4.62408083208e-08
4.63950119662e-08
2.40305073031e-08
1.19591901679e-08
2.43569871895e-08
5.92526096007e-09
8.43428663435e-09
2.44066240618e-08
2.34771717361e-08
3.94398462663e-10
1.53960899697e-09
4.45486963329e-08
1.93945944711e-08
2.51514528309e-08
6.02187208963e-09
3.82157760737e-08
3.36192648043e-08
4.1733710433e-09
2.76642864755e-08
4.97240216071e-08
1.34687873016e-08
1.75223711894e-08
2.61393586886e-08
1.00467507813e-08
1.85771039562e-09
2.42226617665e-08
8.99074681113e-09
6.08312004453e-08
1.77981702663e-08
1.27294419525e-08
1.75387078788e-08
1.6316590578e-08
1.30782262348e-08
2.99045410719e-08
1.39182418662e-08
8.12580616524e-09
3.27274894884e-09
2.64785450176e-08
2.92228075666e-08
3.81993716354e-08
3.44383861744e-08
3.20122509307e-09
1.49004931127e-08
2.58531118708e-08
1.78457539951e-09
8.93858879604e-09
2.19147134495e-08
3.36642010864e-09
8.88505473048e-09
1.38162322719e-08
2.53598008921e-09
2.56581991094e-08
3.50870986111e-08
1.99090312966e-09

