# vtk DataFile Version 3.0
File Name: Molecule/sphere_cent/sphere_cent_0-s36.vtk
ASCII
DATASET UNSTRUCTURED_GRID
FIELD FieldData 1
TIME 1 1 double
0.0
POINTS 1912 double
-0.78902345896 -0.50546127558 -0.34865799546
-0.75544095039 -0.5932623148 -0.27785027027
-0.8282033205 -0.50400418043 -0.24497783184
-0.32795286179 0.9149312377 -0.23525649309
-0.2496201098 0.95511978865 -0.15855710208
-0.23842902482 0.93218547106 -0.2719090879
-0.86267930269 -0.24810737371 -0.44074189663
-0.83340960741 -0.17452453077 -0.52439302206
-0.79206848145 -0.28127405047 -0.54167795181
-0.8040047884 -0.56877565384 -0.17259293795
0.64308422804 0.49475774169 0.58449399471
0.59813398123 0.45200273395 0.6617282033
0.68885916471 0.38518023491 0.61406928301
-0.55976206064 -0.28920090199 0.77654719353
-0.46093049645 -0.3533141613 0.81401073933
-0.46312096715 -0.2591509521 0.84733009338
-0.25591227412 0.36749187112 0.89410966635
-0.27775487304 0.2718963623 0.92130506039
-0.18052101135 0.30717116594 0.93433338404
-0.77423518896 -0.58081662655 0.25140893459
-0.73350137472 -0.65640491247 0.17627075315
-0.69518488646 -0.65615803003 0.29262077808
0.16141150892 -0.10783870518 0.98087823391
0.17167247832 0.013068310916 0.98503607512
0.071007743478 -0.048239938915 0.99628591537
0.082790777087 -0.079151786864 -0.99337512255
-0.033494181931 -0.085263609886 -0.99579536915
0.031364578754 0.013726189733 -0.99941366911
-0.88303411007 0.41383829713 -0.22135208547
-0.90013700724 0.3181309104 -0.29668015242
-0.93102115393 0.31247717142 -0.18856149912
0.95803701878 -0.0060329223052 0.28652054071
0.97562801838 0.081601507962 0.20341560245
0.94175875187 0.11983596534 0.31411492825
0.51739001274 0.54239165783 0.66188728809
0.52190941572 0.46407327056 0.71569269896
0.6223282218 0.69993114471 -0.35022473335
0.69984811544 0.64461505413 -0.30770969391
0.68015760183 0.61402583122 -0.40037208796
0.46182489395 0.14844433963 -0.8742827177
0.36469390988 0.1502032429 -0.91875267029
0.40099024773 0.23248940706 -0.88603293896
0.30037808418 0.2431640476 -0.9222125411
0.13516688347 0.0078587830067 -0.99071675539
0.099061273038 0.11557198316 -0.98834699392
0.20208142698 0.16445094347 -0.96540445089
0.12153533846 0.23408153653 -0.96452587843
0.31442469358 0.39002430439 -0.86536061764
0.21763673425 0.40527123213 -0.88789570332
0.25828048587 0.48388397694 -0.8358310461
0.59710794687 0.7977796793 0.08175085485
0.51494282484 0.85635787249 0.036227110773
0.50689816475 0.85169649124 0.13217534125
0.86741942167 -0.018859863281 0.49728739262
0.91057246923 0.058907590806 0.40905436873
0.85548782349 0.092620849609 0.50947809219
0.89204245806 0.16943816841 0.41894087195
0.24636389315 0.96178507805 0.11880720407
0.23183125257 0.97247314453 0.011812036857
0.14190736413 0.9878320694 0.063113279641
0.10465583205 0.9933937788 -0.041056424379
0.020689986646 0.9995905757 0.019789025187
-0.69425094128 0.29344019294 -0.65701299906
-0.65750420094 0.19143280387 -0.72872585058
-0.73819345236 0.17778967321 -0.65073132515
-0.69978314638 0.073307819664 -0.71054941416
-0.57862347364 0.26772707701 -0.77025562525
-0.57495850325 0.15315456688 -0.80369567871
0.43335458636 0.77533614635 0.45933386683
0.37908238173 0.83364832401 0.4013042748
0.3209964335 0.80945163965 0.49164187908
0.40274709463 0.85165882111 -0.33538481593
0.42275106907 0.87570720911 -0.23229326308
0.49023479223 0.82447093725 -0.28202405572
0.3016462028 0.0072570005432 -0.95334738493
0.38817366958 0.017250131816 -0.9213334322
0.35577112436 -0.078350201249 -0.93124896288
0.51251935959 0.0079896626994 0.85863363743
0.50613987446 -0.11569266766 0.85398942232
0.60264366865 -0.083219207823 0.79360246658
0.58026725054 -0.21584276855 0.78519970179
0.66112351418 -0.16259473562 0.73233127594
0.69147062302 -0.051549308002 0.71988242865
0.60522514582 0.034585788846 0.79472720623
-0.087599791586 0.031898524612 -0.99562615156
-0.0056944098324 0.10776846856 -0.99414986372
-0.20752464235 0.61718392372 0.75895595551
-0.15233154595 0.53689682484 0.82976341248
-0.080874100327 0.58768057823 0.8050236702
-0.051612101495 0.48948520422 0.87047034502
0.26199775934 0.37631267309 0.88859027624
0.31354743242 0.27701872587 0.90825474262
0.34646743536 0.3627358973 0.86508238316
0.35937175155 0.163310498 0.91880822182
0.41421946883 0.22790400684 0.88114970922
-0.13966098428 0.49622288346 -0.85687530041
-0.089536182582 0.41868963838 -0.90370810032
-0.19927872717 0.41750743985 -0.88649922609
-0.041986502707 0.52238798141 -0.85167735815
0.22098760307 0.86874675751 0.44285807014
0.14796774089 0.91548740864 0.37404355407
0.096244521439 0.88360953331 0.45818379521
0.049208834767 0.91731256247 0.39507734776
0.21584296227 0.81053829193 0.54439544678
0.93218070269 -0.23016451299 -0.27892917395
0.89875560999 -0.25104528666 -0.35913750529
0.92422139645 -0.15477287769 -0.3483158052
-0.13734020293 0.69932740927 0.70142591
-0.13825657964 0.7729703784 0.61922103167
-0.22954705358 0.70871692896 0.66712272167
0.10657401383 0.71522539854 0.69070321321
0.019923431799 0.69102424383 0.72251790762
0.10188706219 0.63687944412 0.76389575005
0.39016348124 0.42414364219 0.8171954155
0.29207977653 0.43577811122 0.85125797987
0.79695206881 0.040756788105 0.60217159986
-0.062872745097 0.32620257139 -0.94318121672
0.022525886074 0.39021474123 -0.92040961981
0.23877152801 0.91657489538 0.32046091557
0.26752284169 0.88155978918 0.3883292377
-0.43892398477 -0.87667280436 -0.19628088176
-0.46161296964 -0.88142281771 -0.10013310611
-0.52745938301 -0.83233493567 -0.17023663223
-0.36213332415 -0.92247915268 -0.1335607022
-0.43199494481 -0.68287724257 0.58909213543
-0.39666938782 -0.61734431982 0.67925769091
-0.49987208843 -0.59849476814 0.62605297565
-0.46933877468 -0.53993761539 0.6985861659
-0.56990820169 -0.49959725142 0.65237957239
0.42153707147 -0.61775141954 0.66380172968
0.47267070413 -0.65336740017 0.59131485224
0.52339750528 -0.57620978355 0.62756347656
-0.090033456683 0.38081297278 0.92024046183
0.014878839254 0.41607818007 0.90919882059
-0.09032150358 0.58664226532 -0.80459702015
0.051289316267 0.59953391552 -0.79869067669
0.019418636337 0.69007045031 -0.72336429358
0.13486070931 0.66687875986 -0.73285740614
-0.38464292884 0.63983654976 -0.66481798887
-0.2776144743 0.677298069 -0.68130397797
-0.33790445328 0.58044755459 -0.74086016417
-0.22187507153 0.62113386393 -0.75154221058
-0.15861518681 0.69588029385 -0.70023363829
0.71137487888 -0.46668931842 -0.52542632818
0.64258056879 -0.51174795628 -0.5701597333
0.67591458559 -0.4236010015 -0.60286706686
-0.58787637949 0.55284315348 0.59055358171
-0.58663356304 0.46716582775 0.66153639555
-0.51047670841 0.5435885191 0.66623783112
-0.95070415735 -0.0053086876869 0.30845358968
-0.98009908199 0.012681600638 0.19807867706
-0.9673602581 -0.095917396247 0.23403325677
-0.35412859917 -0.90049934387 -0.25236946344
0.9177094698 -0.048539213836 0.39429068565
0.93382292986 -0.12694260478 0.33418664336
0.8869022131 -0.12160222977 0.44514995813
-0.24845781922 0.77283447981 0.58391129971
0.30510789156 -0.64788049459 0.6978494525
0.37125113606 -0.69011956453 0.62120974064
-0.17732521892 0.40379780531 0.89745426178
0.11598528922 0.42822232842 0.89616298676
0.055719267577 0.4935695231 0.86791813374
0.15550507605 0.51332360506 0.84384429455
0.13909047842 0.52903556824 -0.83711510897
0.20138540864 0.58936530352 -0.78237038851
0.5794724226 -0.62095558643 0.52680271864
-0.30785256624 0.64529746771 0.69915103912
-0.3191922307 0.5568985939 0.76658344269
-0.42250391841 0.63194847107 0.64968782663
-0.33405980468 0.70946037769 0.62052756548
0.25568839908 -0.66501659155 -0.70167952776
0.35359466076 -0.62023431063 -0.69998508692
0.31643715501 -0.70470583439 -0.63442838192
0.41830667853 -0.6992661953 -0.57933348417
0.42449131608 -0.76552391052 -0.48336082697
0.33261802793 -0.76341998577 -0.5536775589
0.47364959121 -0.79687058926 -0.37486705184
0.36665952206 -0.84247195721 -0.39468857646
0.81591242552 -0.051102582365 -0.57590466738
0.80872505903 -0.15572974086 -0.56705665588
0.74264079332 -0.10171100497 -0.66153919697
0.85944283009 -0.091289445758 -0.50295877457
0.85589122772 -0.17248760164 -0.48736459017
-0.71958762407 0.015231259167 0.6942358017
-0.65870445967 -0.049044765532 0.75077748299
-0.64273142815 0.057577461004 0.76382422447
-0.49375420809 0.45637530088 -0.74019992352
-0.58744746447 0.42589077353 -0.68799722195
-0.53090542555 0.52068901062 -0.66860044003
-0.6750767231 0.41424769163 -0.60984635353
-0.61052298546 0.50002217293 -0.6141987443
-0.74337494373 0.34923627973 -0.57038259506
-0.70603018999 0.12562789023 0.69692099094
-0.51358085871 -0.025018317625 0.85763972998
-0.46067589521 -0.10172143579 0.88159132004
-0.42407438159 -0.0040906863287 0.90530651808
-0.45244514942 0.87965536118 0.14649754763
-0.47650453448 0.847843647 0.2326207757
-0.38434755802 0.89586991072 0.22277578712
-0.5416007638 0.82738405466 0.14866133034
-0.41488409042 0.85480922461 0.31166386604
-0.82080549002 0.50316411257 0.2704077363
-0.75343340635 0.59178739786 0.28655153513
-0.79909169674 0.56696635485 0.19983798265
-0.72021102905 0.66719269753 0.19013112783
-0.62356960773 0.70816373825 -0.33108076453
-0.70652639866 0.63415813446 -0.31408938766
-0.67910242081 0.70417237282 -0.20726147294
-0.66126072407 0.62358111143 -0.41685637832
-0.75283282995 0.55433136225 -0.35398218036
-0.94539189339 0.29418471456 0.14030325413
-0.9284080863 0.36646562815 0.060857903212
-0.96458095312 0.26091480255 0.039365176111
-0.9705760479 0.11615302414 -0.21089893579
-0.96692967415 0.20668001473 -0.14941169322
-0.94122767448 0.21828617156 -0.25776511431
-0.99020183086 0.084160730243 -0.11145581305
-0.98139929771 0.18717558682 -0.042654298246
-0.9523370862 0.2971226275 -0.068907774985
-0.98696440458 0.14887270331 0.061184808612
-0.9115691781 0.39414605498 -0.11651295424
0.98566055298 -0.028458146378 0.16623564065
0.97275531292 -0.098524555564 0.20982012153
0.98183858395 -0.14347957075 0.12408134341
-0.24993896484 -0.96112829447 -0.11728425324
-0.27324679494 -0.96125411987 -0.028874594718
[...]
CELL_DATA 3820
SCALARS cell_data_0 double
LOOKUP_TABLE default
3.30786822651e-09
3.16757498374e-11
8.25760460486e-09
2.68326347751e-10
4.98885704124e-10
7.98202073731e-09
2.41378931495e-09
7.14163289918e-09
5.01563185976e-09
9.36924919084e-10
6.74042381723e-09
3.5226097503e-09
1.23284912401e-09
3.03869291004e-09
3.97541921359e-09
5.57425598697e-09
1.41042271091e-09
5.393802685e-09
4.41264395303e-09
6.21892397517e-09
3.47917646303e-09
5.33578502e-09
9.66180887981e-10
6.57022024408e-09
1.02086187948e-08
1.04539950404e-08
3.69487894457e-09
7.01337249356e-09
1.19248005253e-08
5.33851607962e-09
3.62513728117e-09
3.06224621172e-09
3.81397747492e-09
8.38612691588e-09
3.12192787988e-09
5.00390461208e-09
7.38266863298e-09
4.41359570255e-09
5.14594496648e-09
2.61752197298e-09
4.77516385648e-09
8.75554367187e-09
3.3714143211e-09
2.40140209797e-09
8.2510446366e-09
4.43314664007e-09
9.98677016449e-09
8.59326262198e-10
4.43830474684e-09
2.54879924815e-09
2.45768317243e-09
2.99721302103e-09
1.20214594016e-08
8.56590402063e-10
7.8758430736e-09
2.02595266138e-09
9.36602761584e-10
7.79126145867e-10
6.50794568029e-09
2.63251408914e-09
3.26772109179e-09
2.26569925202e-09
8.06622288358e-09
1.12729728466e-08
7.98198046739e-09
1.39829550953e-08
1.31245835742e-08
5.13061205399e-09
1.27490413397e-09
2.1348038551e-09
5.93502138358e-09
6.30504841048e-09
2.59458477478e-09
1.47925487165e-09
4.14177004865e-10
8.12450867606e-10
7.29663530838e-09
1.70962184335e-10
3.06326350169e-09
2.97736637663e-09
2.50700654273e-09
2.71939397958e-09
7.26157405039e-09
1.22854669873e-10
4.50913904353e-09
9.63666707381e-09
5.19822621787e-09
4.64547334256e-09
3.69114034542e-10
9.37651177517e-09
1.98558875716e-09
4.38502031124e-09
8.6719395798e-09
5.96167278798e-09
1.5401281083e-08
1.29264607481e-08
5.78870028501e-10
5.30225238402e-11
3.08465356017e-09
2.28174347882e-10
7.05071485635e-09
1.43295840847e-08
2.25104891941e-09
8.47077122741e-09
1.09699868749e-10
1.53626735047e-09
1.31275860026e-09
4.59504420548e-10
8.95123234536e-09
1.2023418593e-08
6.60642968106e-10
1.26389144886e-08
9.26668973952e-10
7.26767585358e-09
8.70611335271e-09
3.56401773296e-09
1.26853595882e-08
6.42709615544e-09
4.2561928592e-09
8.82121582361e-09
5.08320461875e-09
5.96580398564e-09
1.5040507422e-08
2.16666492269e-09
1.40345508596e-09
7.00383149879e-09
1.36531992247e-09
6.98529301737e-09
1.24330730993e-08
1.05133021732e-08
8.99537618286e-10
2.7336997767e-10
4.14014869997e-09
5.53948036672e-09
3.84725121215e-09
7.98847423353e-10
4.70833868024e-09
8.74984583115e-09
5.58281119548e-09
1.15576128714e-10
1.39367101907e-08
1.9170752113e-09
6.67770607337e-09
4.71172794969e-11
1.61978635994e-09
3.01804561101e-11
1.83370473439e-09
8.70054764367e-10
5.07640458736e-10
1.07596949886e-08
1.18871026827e-09
7.17839969012e-09
1.44295640846e-09
4.20264486402e-09
2.1108412937e-09
4.44521326257e-09
7.01918308307e-09
8.66227561685e-09
4.40253845693e-09
8.35146009858e-09
5.17402599689e-09
1.5851054288e-09
6.71092428799e-09
1.3119960137e-09
2.98872963723e-11
4.3053546242e-09
7.08608007254e-09
4.59229053897e-09
3.46517219614e-09
2.75426285523e-09
2.18405203847e-09
9.34193752412e-09
5.94418288141e-09
2.00254125058e-09
1.20372275663e-09
4.90872772989e-09
2.73927964689e-09
3.52548283742e-09
2.53567209005e-09
2.75298909533e-09
8.31309897159e-09
5.04170356552e-09
3.78683124883e-09
2.16983722304e-09
7.88802752978e-09
2.33254450991e-09
8.01660005726e-09
6.68737476943e-09
9.31544966678e-10
1.06497255938e-08
1.14683931656e-08
3.56827077662e-09
2.15876159364e-09
7.22686288811e-09
1.99934235794e-09
2.06029006032e-09
6.54239906176e-09
2.37579528241e-09
4.55080776335e-09
7.28274903393e-09
6.65059871182e-09
4.76720895149e-09
5.8688883315e-09
9.1111372479e-09
5.23186860807e-09
4.4776366423e-09
3.52380064238e-09
4.13081295873e-09
2.4218653023e-09
5.26547464824e-10
1.7337404665e-09
3.89129712439e-09
1.62821142811e-09
5.58821667275e-09
1.47850508195e-09
2.75212091178e-09
3.48987362303e-09
1.75267043883e-08
2.629048895e-09
1.17531479081e-08
1.96945296756e-09
3.17362560517e-09
5.75929581292e-09
7.76101951573e-10
4.74515705423e-09
4.61431383056e-09
3.63289125258e-09
6.99552653725e-09
4.76682438691e-10
1.85722841516e-09
5.00947968916e-09
2.67140342479e-09
2.44966081685e-09
2.66109146363e-09
8.82041393027e-10
3.99573157544e-09
1.51633974301e-09
2.89700299458e-09
5.43652294367e-09
4.50364411337e-09
4.60392433467e-09
2.5227891718e-09
8.73654240567e-09
7.89672616589e-09
1.87769321457e-09
4.33638097809e-09
4.71542799997e-10
2.81149807289e-10
2.67560070897e-10
4.37587076379e-09
7.94917897947e-10
4.15639557035e-09
3.02051904646e-09
4.19762978144e-09
1.96197160641e-09
9.52992235407e-11
1.32929976627e-09
5.44510089858e-09
2.82606557899e-09
3.30338179535e-09
2.80111936645e-09
7.71205774013e-09
3.51622064181e-09
3.11871689222e-09
1.94149991516e-10
1.21138128566e-09
2.86255479266e-09
3.13029674122e-09
1.50369216492e-09
5.32832805837e-09
1.34422467339e-09
5.85622237488e-09
1.31198347831e-09
8.11851845711e-10
3.86805859469e-09
4.66565664202e-09
3.9692158026e-09
7.13768832623e-09
1.91109223982e-09
6.60934188479e-10
4.68692200381e-09
3.44217374029e-09
3.66383912938e-09
2.16924174365e-09
5.40029539085e-09
5.08750577762e-09
1.02376995999e-09
3.52001875684e-09
1.06904105941e-09
5.26508372382e-10
2.53454050554e-09
3.63975322072e-09
7.55782986032e-10
5.05556957685e-09
3.92854039641e-09
4.23404926037e-09
3.35512966407e-09
4.98382995138e-09
3.81221139662e-09
6.95503131084e-10
2.96784545295e-09
2.62821139096e-09
5.56167204563e-10
2.34366235147e-09
2.44401499632e-09
6.57633826541e-09
2.45309500893e-09
3.60415887116e-09
6.42019156162e-09
3.81337534323e-09
9.07310911276e-10
1.76450520193e-09
1.81588080158e-09
8.45255465194e-10
2.91978934595e-09
2.26504746581e-10
3.98260900605e-09
2.76264078313e-09
5.84725913877e-10
7.32523749646e-10
6.31349679095e-10
2.85240909112e-09
6.09078544823e-09
3.47942524951e-10
1.07139354661e-10
1.11855615068e-10
3.39751032829e-09
2.8964157787e-09
2.57317149352e-09
3.77161858975e-09
3.79320384431e-10
6.63353140069e-09
2.28304353116e-09
1.26459210021e-09
9.11539511548e-09
7.48552908436e-09
9.2091957587e-09
5.65130128139e-10
1.15217731e-09
2.12197596957e-09
5.19324981084e-09
1.62977240108e-09
6.65470273024e-09
9.62098869657e-09
2.93904208255e-09
5.76387832821e-09
1.93961840265e-10
1.77418803461e-09
5.39606083567e-09
7.13368429919e-09
1.06959524728e-09
2.57088892525e-09
4.42893887447e-10
5.45348050742e-09
5.50545620631e-09
6.7174013248e-10
1.56117646208e-09
3.71639006963e-09
3.21747300311e-09
4.1982292413e-09
3.19713877789e-09
1.14058648902e-09
2.26778812357e-09
2.58512753136e-09
1.5400834585e-10
2.7974060707e-09
1.94533099058e-09
1.34879604977e-10
4.33979296258e-09
3.02716206849e-09
2.33403570893e-09
2.83007592774e-09
8.74506094055e-09
5.97887937582e-09
4.84839391605e-09
5.96137435056e-09
3.47415731149e-09
2.14011672891e-09
5.25979592923e-09
2.59595812895e-09
6.45836478388e-09
2.70972965629e-09
1.26549385703e-10
3.7015004216e-09
2.33114614444e-09
2.75162959912e-09
4.19272635936e-10
2.73763427231e-09
2.6944884297e-09
8.00308662047e-09
3.76823065575e-09
1.36380769047e-09
2.99842719498e-10
2.7033060022e-09
2.14622141182e-09
2.70671583535e-09
2.22583024056e-09
1.81362568351e-09
1.44757433537e-09
2.21772903564e-09
2.29722478809e-09
1.10529526795e-09
4.20121536246e-09
1.00630809075e-08
3.48191089209e-09
1.1764194324e-09
1.51672328058e-09
2.88665083009e-09
2.17161954192e-09
1.81699399783e-09
1.82590209003e-09
4.47465341848e-09
3.50780365466e-09
5.59362384824e-09
1.50892892046e-09
8.88899949509e-09
6.12023393919e-09
1.45285216943e-09
1.0681545238e-09
8.61681243556e-09
2.11088147706e-09
1.02162045408e-08
3.3712060862e-10
7.20317560553e-10
2.98804669207e-09
3.00279925281e-10
7.76721181742e-10
2.17943470644e-09
2.83100103219e-09
3.93993519996e-09
2.39812218983e-09
3.56549403307e-09
4.32639087088e-10
3.58785380076e-10
7.63141039198e-10
4.15364292695e-09
1.73633704982e-09
5.19751399412e-09
9.5990834498e-11
7.57086901536e-10
2.19708098722e-09
1.75389353665e-09
5.65039565503e-10
4.04720863256e-11
7.16411612193e-09
3.97000247606e-09
3.37819580813e-09
6.36708454954e-10
4.47137813295e-09
9.21150980039e-11
3.06283602627e-09
5.30663570545e-09
4.84219651268e-09
3.15636467978e-09
8.64879452387e-09
2.70773687439e-09
2.40761047268e-09
2.59752205984e-09
5.1212418344e-09
1.67280979726e-08
9.73769580495e-10
8.06498003434e-09
4.52282667622e-09
1.20150417552e-09
3.03121650268e-09
8.60480696142e-10
2.50181183715e-09
7.2772632207e-09
1.72275707535e-10
1.76551542089e-09
2.48086847684e-09
1.00071767756e-09
2.37043726559e-10
9.77673439352e-09
5.26743795794e-09
2.5540871449e-09
2.28510484797e-09
4.26276365682e-09
2.44496895687e-09
1.58095209941e-08
9.98698350842e-10
5.52304259581e-09
6.11613075642e-09
6.43027583187e-09
3.70084420567e-10
2.46865670933e-09
3.02853998907e-10
2.62048554834e-09
2.80236066521e-09
2.8259315717e-09
4.28181935598e-10
1.58270471341e-10
2.06077123962e-09
1.62421338904e-09
5.13920614933e-09
1.07843212277e-09
5.82756770397e-09
9.40525012354e-11
5.26451756035e-09
1.44006252773e-09
8.32530629315e-11
4.81374972246e-09
2.09199321981e-11
8.92867766201e-10
1.45370052791e-09
5.83685389749e-09
7.89829559261e-10
7.31981516382e-09
3.86549697553e-09
8.33656931398e-09
4.5716860082e-09
3.24373609889e-09
7.66212468313e-11
3.30133708365e-10
5.69683854328e-09
4.37837765277e-09
3.54416503156e-09
5.84755597224e-09
3.35641401463e-09
4.88476208509e-10
7.62102445182e-10
8.62354344012e-11
5.18367311437e-09
4.11643687378e-09
2.03621743285e-09
2.98278618557e-10
4.73016840083e-09
1.20764905526e-09
4.98899827617e-09
1.03707001003e-09
5.25529200571e-09
1.61468224164e-11
3.31580954596e-09
1.92332495899e-09
2.13126056378e-09
1.86311420377e-09
4.43957397077e-09
1.51268152919e-09
4.95885573835e-09
6.76348327197e-09
5.91649270107e-10
2.90149582345e-09
5.22273482833e-09
6.1916259769e-09
2.83270456021e-09
4.23737690943e-09
2.48876989262e-09
2.1836494732e-10
3.48947999358e-09
4.11787739144e-10
6.47355812512e-10
1.12169505013e-08
6.45632438156e-09
4.58438591232e-09
2.59182997358e-09
3.51307005956e-09
4.36250828868e-09
1.16989665077e-09
1.56434327645e-09
3.12874698239e-09
5.37078502976e-09
1.25212721942e-09
1.80304483494e-09
1.05026533332e-08
9.14854548673e-10
8.17183674459e-09
4.33880919142e-09
1.66257317204e-09
2.97861189313e-09
6.50184980467e-09
6.14678497017e-10
1.60786676551e-10
1.42774928086e-09
8.70569249441e-10
3.03737927846e-09
5.82591088029e-09
5.3290147061e-09
5.03585356669e-09
1.18842186965e-09
3.14326423397e-09
7.0330572753e-10
1.50592183624e-09
3.1299441688e-09
8.11436658026e-09
1.67207136692e-09
2.9621377579e-09
3.6729375817e-09
3.18221916203e-09
1.99631086285e-09
4.39852180543e-09
2.43788029206e-09
1.51038343285e-09
2.73332410794e-09
4.46013694672e-09
2.54567776862e-09
7.54383265712e-09
1.0721287535e-08
2.5312833853e-09
1.19295291243e-08
9.75229589949e-10
1.2731972223e-08
1.84213269126e-09
2.98317196222e-09
2.57934718014e-09
1.87431770335e-09
7.59976099544e-09
4.00337427022e-09
3.41825651693e-09
9.55879448647e-09
1.30794875303e-09
5.70387656681e-09
5.64163377483e-09
1.02124704811e-08
3.65961290197e-09
9.13520058863e-10
1.12478471908e-09
8.69533256092e-10
8.21184730144e-09
5.15882442601e-09
1.05330256257e-09
1.96490271041e-09
1.77976857561e-09
1.86990670948e-09
2.70399973067e-10
1.64849556645e-10
7.46478464151e-09
5.89309996051e-09
8.26001541065e-09
8.27513601958e-09
2.53432759126e-11
3.49894392338e-09
2.40642248353e-10
7.28476839908e-09
5.59525700772e-09
6.90381157076e-09
8.43346162476e-09
6.97571414178e-10
1.141165667e-08
1.21655134536e-08
2.86830480425e-09
3.35766853147e-10
6.40550998281e-09
3.0116750606e-09
3.72950765008e-09
4.37627064173e-09
1.22328745921e-09
2.09092208801e-09
4.6864616413e-09
6.27726404901e-09
4.1114468293e-09
2.38866215426e-09
4.50094691561e-09
1.11313752845e-09
5.84173313682e-09
4.0990379515e-09
5.63667730655e-09
5.45977327221e-09
5.32873106639e-09
3.13796179021e-09
4.64065835746e-09
7.69313224024e-09
5.66773485509e-09
3.56143659264e-09
5.95592106518e-09
4.57684301361e-09
1.25495923357e-10
3.0452910276e-09
3.20298546369e-09
3.48510423494e-10
2.8551812799e-09
5.02454985446e-10
3.09070353101e-09
4.25488786307e-09
6.38293614859e-11
5.39703031656e-09
2.8336654907e-09
8.83894255233e-09
5.39495681004e-09
4.99272563389e-09
1.34000164409e-09
8.43487585284e-10
1.36154158071e-10
1.77106162827e-09
5.55923403738e-09
1.94939772705e-09
2.2409030528e-09
2.32267218143e-09
7.89553221139e-09
1.5515029119e-09
3.23668942569e-09
2.15423675617e-09
2.71305666305e-09
4.35442235367e-09
1.6901503638e-10
3.83105872058e-09
5.09468869933e-09
4.16419605978e-09
2.21664637625e-09
4.43337343673e-09
6.02983386519e-10
2.75119737479e-10
2.98025844503e-09
4.31028823696e-09
8.23106372211e-09
1.96787979887e-09
1.85440632089e-10
2.10987593128e-09
4.31130262424e-09
1.55529433241e-09
2.24589293788e-09
1.5103744611e-09
5.52948328306e-09
3.47106893604e-09
4.70422020114e-09
9.29313945877e-09
6.72575956163e-09
4.84531025222e-09
3.2389500642e-09
9.58390975704e-10
1.44101342564e-10
1.5456837801e-09
4.92302102391e-09
2.81377930676e-09
8.37115617822e-10
1.23067189116e-10
1.64381497854e-09
9.24424610411e-10
9.5493178605e-10
1.34140724571e-08
3.10011038585e-09
6.19929761727e-09
1.05684205176e-09
2.53640446497e-09
1.62539457811e-09
3.08487226547e-11
1.21405446206e-09
1.8256509749e-09
2.97647416874e-09
1.49537546485e-09
3.88472333207e-09
4.15884502018e-09
2.79313942998e-10
7.81336261943e-09
5.91356694086e-09
5.19689262239e-09
3.78158096291e-09
4.52146454286e-09
4.42835323174e-09
8.42284327532e-09
1.480084364e-09
4.92231507957e-09
6.14134458439e-09
3.53584564907e-09
4.9716224518e-09
1.16163868972e-09
3.13756218073e-09
9.05206021719e-10
1.20837192803e-09
1.62063811885e-09
3.58984469695e-11
1.08185894277e-09
7.85712848609e-10
7.98898755641e-09
5.58335993607e-09
3.13441174917e-09
2.82138800765e-09
3.41107218118e-09
3.49241480803e-09
5.06205099336e-10
4.91561943443e-09
8.54937574057e-10
4.52795294777e-09
4.71079616206e-10
1.15635575785e-09
5.25916399651e-09
2.07882982392e-09
3.02226023646e-09
3.99534282609e-09
4.31418977505e-09
3.54482510089e-09
6.23293867922e-09
1.95934505161e-09
3.44846659023e-09
9.74895304593e-09
5.58656343738e-09
1.82769678787e-09
2.27165732344e-09
6.15679180773e-09
3.24698193826e-09
1.10269008596e-09
4.3875704339e-09
3.06272499266e-09
5.03899394893e-09
2.86016136082e-09
1.95881354391e-09
3.84004870628e-09
1.19989193677e-09
3.55615252397e-09
9.29727503071e-09
7.4515423283e-09
2.29096142418e-09
2.10281964187e-09
1.09230055821e-09
7.3252127283e-09
1.51405358028e-09
3.53526178094e-10
1.22111151516e-09
3.29755320588e-09
4.64040994844e-09
1.85656256643e-09
5.15942738995e-09
3.17452248763e-09
3.87166064011e-09
3.47942394264e-10
9.98364426019e-10
1.01610212502e-10
4.51044490987e-10
4.07001420331e-10
1.58045618535e-09
4.11231385568e-10
6.03225524427e-09
2.54814237089e-10
4.39106865421e-10
2.43937987315e-09
1.94239667991e-09
1.60012043222e-08
8.78576284423e-09
1.14140228844e-09
3.00027112292e-09
1.23673354188e-08
4.5002358338e-10
9.80045358897e-09
4.99896305267e-09
9.44538973197e-10
3.44460725182e-09
1.67258108956e-11
5.32527541459e-09
7.8104403098e-09
5.70278573793e-10
2.48113250894e-10
5.31110953117e-09
6.23896788369e-09
4.38972981257e-09
4.967660486e-09
4.46208157253e-09
4.01679386864e-09
1.12955350863e-09
1.20124430328e-09
5.42262749028e-09
2.3959112816e-09
2.05065628988e-09
1.97852452426e-09
2.51892793278e-09
5.73443532328e-09
4.16220806018e-10
2.2292738223e-09
4.47479851211e-10
5.40772049294e-09
4.06664825121e-09
9.64702044473e-10
1.6913027754e-10
2.84673489515e-09
5.51953629267e-09
2.28819629873e-09
1.2134822592e-09
5.54303124516e-09
9.81653313144e-09
6.04389535974e-09
8.24341872313e-09
6.0610521633e-09
4.45950126327e-09
2.58100285082e-09
4.19624838291e-09
1.37348099602e-09
8.06842839568e-11
6.55191858554e-09
1.26851610893e-09
1.37776409623e-09
6.01992393886e-10
1.3603312144e-09
1.38849823748e-09
4.00825423455e-09
2.88078985655e-09
2.70128474583e-09
2.59655698922e-09
3.2435117232e-09
1.86367131096e-09
3.43982345128e-10
1.27419186111e-09
3.77618685387e-09
2.37820803184e-09
4.14762075008e-09
3.62852794316e-09
4.39703036271e-09
3.20973449114e-09
6.2357276496e-09
1.6674105547e-09
3.78991997428e-10
4.4820271155e-09
1.19461098085e-09
5.0449927195e-09
1.08074775531e-09
4.36472741595e-09
1.86662831228e-09
5.96487292608e-09
3.86616373041e-09
2.36160905503e-09
8.40538938864e-10
6.37380092614e-09
3.48567803927e-09
4.29814600219e-09
5.34073348944e-09
2.42975733878e-09
5.17962489681e-10
8.84347414615e-10
4.74929744003e-09
7.16671670773e-09
6.09286084613e-10
1.15778037014e-09
1.00528715461e-09
4.63468899909e-09
4.50561157482e-09
5.91367681918e-09
1.5250875128e-08
1.72514772021e-09
2.98037260986e-09
3.39404829113e-09
2.37048986464e-09
8.71992371573e-10
2.48072276498e-09
1.87298116576e-09
3.99799659355e-12
1.87631858158e-09
3.71129941584e-09
2.05622787681e-09
1.83889143032e-09
2.16689339879e-09
6.82913703908e-09
3.74734400109e-10
9.48320622357e-10
7.34836945113e-10
2.12195620958e-09
3.2134519242e-10
2.09544308162e-10
7.6123061305e-11
1.67834919209e-09
4.83100124263e-10
1.91085458468e-09
4.45958727937e-09
3.16562946716e-10
1.33033096811e-09
5.27494387007e-10
1.03732567455e-09
1.64034457036e-09
4.91113867067e-09
6.80393909273e-09
2.91765971363e-09
5.31666660196e-09
8.9291695172e-10
2.79459805389e-09
2.49050001479e-09
2.69065315525e-10
2.05819952195e-09
2.77382809374e-09
4.68566129458e-10
5.19868530403e-09
6.19258677527e-09
7.14345669779e-09
1.38971222154e-09
4.17952916246e-09
2.48226644287e-09
1.76185514068e-10
1.40944718139e-09
1.90060184423e-10
4.14806605838e-09
2.62038481163e-09
1.55850251688e-09
5.09357434162e-10
2.47699332294e-09
3.39075487546e-09
3.54341058047e-09
6.19573775575e-09
2.8409458585e-09
2.9631724677e-09
8.53350159647e-10
3.0287194851e-09
4.4216979389e-09
4.1839297979e-09
1.780261123e-09
2.60412816567e-09
2.72899828771e-09
5.93833011425e-10
1.54502863389e-09
4.34067731326e-09
3.06327565804e-09
3.73030921106e-09
1.16073826357e-09
3.54374114247e-09
8.29006153342e-09
6.71671328926e-10
3.0292277505e-09
9.71304808438e-10
6.00815194876e-10
3.03876607846e-09
4.9166101964e-09
4.9906559694e-09
5.88560443439e-09
1.68556836223e-11
2.02446213442e-09
3.48634678152e-10
3.50196548905e-09
5.65569757495e-09
2.13286085536e-09
2.91065174652e-09
1.54246677223e-09
1.63571865254e-09
8.91629952599e-09
7.41267650706e-09
5.97273779948e-09
2.12169462589e-09
1.60057847684e-09
2.57948281192e-10
2.25358734667e-09
1.49686279727e-09
5.94966685149e-09
3.57032121696e-09
1.89208595424e-09
1.26461245824e-09
4.16564361648e-09
5.56398536506e-10
1.21736772518e-09
3.38534112279e-09
4.41701110342e-09
2.55343024317e-09
1.29487364546e-09
2.47886857351e-09
2.14957057981e-09
3.60882318349e-10
2.39196976353e-09
2.01422590947e-09
1.64976141125e-10
3.52840060354e-10
6.556140064e-10
1.82235689097e-09
2.54090889346e-09
1.4585676478e-09
3.72846480592e-09
2.51423368917e-10
3.43050081453e-09
1.46653950145e-09
2.01150818092e-09
4.81818507167e-09
3.0430569286e-10
2.47105330491e-09
6.74999967636e-09
2.43082203163e-10
5.93041401455e-10
2.90590557404e-09
1.25238354134e-09
9.39143883921e-10
9.27975435878e-10
6.19261404445e-10
2.39809476778e-09
4.79234330035e-09
4.19664379952e-09
5.86910006737e-09
5.01864583953e-10
3.46723452847e-09
1.82781792339e-10
4.80844840079e-10
2.4631778881e-09
8.92585573575e-10
2.92850721185e-09
7.79026085209e-09
3.21569618542e-09
1.37207624732e-09
4.07180245175e-09
3.16020494532e-09
6.5802035603e-10
8.80504541601e-10
1.48470521973e-09
4.75669678376e-10
3.55489286971e-09
2.02215581462e-09
2.36725406767e-10
3.64461351988e-09
9.32499092152e-10
5.54935929489e-10
4.24146461027e-10
1.19598526227e-09
1.44181641899e-09
5.34643523536e-10
3.52110433034e-09
2.82462365861e-09
4.63608494347e-11
4.05325797081e-09
3.14822595363e-09
1.59921192874e-09
4.92489728938e-09
2.59446497156e-09
2.65178503505e-10
9.01907812134e-09
1.3009697974e-09
8.3562131651e-09
2.62798597604e-10
3.27386563845e-09
1.44694198442e-09
1.17001411253e-08
8.71970830581e-09
1.57155886285e-09
9.10497081281e-10
3.63737447365e-12
1.45573052542e-09
2.26787534652e-09