# vtk DataFile Version 3.0
File Name: Molecule/sphere_cent/sphere_cent_0-s20.vtk
ASCII
DATASET UNSTRUCTURED_GRID
FIELD FieldData 1
TIME 1 1 double
0.0
POINTS 320 double
0.54341012239 0.45788824558 -0.70295327902
0.28206554055 0.50267034769 -0.8170863986
0.42664402723 0.67249935865 -0.60291796923
-0.31383082271 -0.51556694508 0.79709285498
-0.045633383095 -0.52585434914 0.84911841154
-0.14693452418 -0.33050480485 0.93223375082
0.10465085506 -0.27076622844 0.95460951328
0.12349957228 -0.41603446007 0.89905184507
-0.93288677931 0.15241642296 0.32585734129
-0.95579212904 -0.13681088388 0.25975880027
-0.86813640594 -0.046174291521 0.49411153793
-0.84208369255 -0.27173623443 0.46569558978
0.02401426807 0.99968254566 -0.00073246308602
-0.22135858238 0.96799182892 -0.11672566831
-0.27291044593 0.95417380333 0.117586568
-0.45854440331 0.88811665773 -0.024978088215
-0.63607674837 0.58782464266 0.49939930439
-0.53266125917 0.48099687696 0.69633233547
-0.41427505016 0.65405547619 0.63272130489
-0.29873600602 0.53191393614 0.79180133343
-0.52184975147 -0.80565655231 -0.27976876497
-0.32735919952 -0.93230670691 -0.15087515116
-0.53273892403 -0.84520536661 -0.010591389611
-0.26074275374 -0.95394510031 0.13957096636
-0.006080659572 -0.99964052439 0.018414624035
-0.012193562463 -0.96969711781 0.24252609909
-0.49597021937 -0.8044885993 0.32464534044
-0.42827776074 -0.69430780411 0.57837694883
-0.62889093161 -0.63107931614 0.45407447219
-0.5601990819 -0.5012242198 0.65949356556
-0.27995789051 -0.84953814745 0.44590929151
-0.18889823556 -0.71009427309 0.67819333076
0.20071125031 -0.96868944168 0.14432629943
-0.94511026144 -0.088840164244 -0.31415235996
-0.93589746952 0.14887097478 -0.3192204833
-0.86399227381 0.03440457955 -0.50164318085
-0.82797110081 0.30372622609 -0.47027915716
-0.29045918584 0.49746114016 -0.81733781099
-0.52793633938 0.45342117548 -0.71808350086
-0.42015317082 0.64414781332 -0.63889318705
-0.66776871681 0.55136454105 -0.49989578128
-0.37545603514 -0.51406210661 -0.77103286982
-0.44476151466 -0.65033447742 -0.61562335491
-0.60574007034 -0.44461300969 -0.65973478556
-0.62950563431 -0.62433171272 -0.46218812466
0.52435332537 -0.0011191134108 0.8514881134
0.46862766147 -0.26045459509 0.84357458353
0.68600803614 -0.1576179266 0.71029639244
0.58817100525 -0.4364451468 0.68085074425
0.35060420632 -0.50007516146 0.79137545824
0.78076905012 -0.33088460565 0.53001189232
0.46155324578 -0.66422080994 0.58786273003
0.68336653709 -0.57495111227 0.44993489981
0.52698940039 -0.77817696333 0.34145614505
0.856959939 -0.43588888645 0.27464747429
0.71883296967 -0.66613912582 0.19884628057
0.83968067169 -0.54213261604 -0.023317771032
0.86016708612 -0.028018072248 0.5091317296
0.71077680588 0.12387826294 0.69201266766
0.8309366703 0.25026807189 0.49594527483
0.015682963654 0.037219267339 -0.99858319759
-0.23790343106 0.031172685325 -0.96986633539
-0.14103043079 0.28499871492 -0.9480792284
-0.39590847492 0.28553238511 -0.8722859621
0.53199839592 -0.84255260229 0.078933514655
-0.039570290595 0.85780543089 0.51222789288
-0.13349725306 0.68440252542 0.71672266722
0.13382400572 0.72451907396 0.67433726788
-0.0206034109 0.49603131413 0.86678820848
-0.11497186124 0.28646573424 0.95073217154
0.14398898184 0.27791953087 0.94977098703
-0.015212974511 0.069308251143 0.99664664268
0.28937369585 0.48950585723 0.82198417187
0.40299007297 0.23972594738 0.882807374
0.30061924458 0.035328641534 0.95238518715
-0.0043028602377 0.51054853201 -0.85984659195
0.1188512519 0.69242578745 -0.71074414253
-0.13764773309 0.68417912722 -0.71621775627
0.23849713802 0.87127548456 0.42888042331
0.13637639582 0.27840432525 -0.95071554184
0.48043739796 0.83824932575 0.2579099834
0.27352821827 0.95179051161 0.13875579834
0.051382299513 0.96218901873 0.2665976882
0.33817568421 -0.5270370841 -0.77894109488
0.44986656308 -0.66760182381 -0.59323215485
0.21978752315 -0.69678664207 -0.68131995201
0.50885111094 -0.77512079477 -0.37448823452
0.29510828853 -0.83965617418 -0.45327237248
0.53027242422 -0.0012373733334 -0.84779053926
0.28204110265 0.035916361958 -0.95861560106
0.38951873779 0.2576417625 -0.88425540924
0.099541716278 -0.51939958334 -0.84818863869
0.38551014662 0.69746005535 0.60359412432
0.31790697575 -0.92345738411 -0.21207226813
0.8496337533 0.52715569735 -0.0068998066708
0.66977345943 0.73323839903 -0.10427530855
0.70471489429 0.69395452738 0.14709882438
0.49824690819 0.86704224348 0.0036794464104
0.48714751005 0.83469343185 -0.25486963987
0.22246417403 0.88583016396 -0.40581709146
0.03999100253 0.96522307396 -0.25831019878
0.27480068803 0.95119184256 -0.14043606818
0.95472365618 0.28964555264 0.032135918736
0.87868410349 0.43325921893 0.19708402455
0.78951489925 -0.33584931493 -0.51367431879
0.68093293905 -0.17809048295 -0.70854824781
0.81704497337 -0.065170988441 -0.57280647755
0.70584839582 0.059747923166 -0.70582407713
0.90497606993 0.38429221511 -0.18268761039
0.93796783686 0.17084427178 0.29849079251
0.57911384106 -0.46001714468 -0.67231434584
0.66663879156 -0.58373749256 -0.46347245574
0.82880377769 -0.47470712662 -0.2962102294
0.7097542882 -0.66353148222 -0.23657490313
0.93118047714 -0.2595538497 -0.25462326407
0.90733110905 -0.1244019419 -0.4014005661
0.91740041971 0.070558570325 -0.39155060053
0.97580391169 -0.048456527293 -0.21262769401
0.96844136715 0.17296141386 -0.17905759811
0.82091063261 0.16119228303 -0.54783177376
0.88792306185 0.27071973681 -0.37184733152
0.76793640852 0.36891588569 -0.52223056555
0.97548133135 -0.21532662213 -0.043393563479
0.99828702211 -0.020435258746 0.041401069611
-0.71812278032 -0.17158101499 0.67439627647
0.55327141285 -0.81807476282 -0.15684120357
0.69501549006 -0.71836143732 -0.028621930629
-0.76287060976 -0.46565270424 0.44844594598
-0.70348745584 -0.34957042336 0.61878335476
-0.57431429625 -0.26505431533 0.77424418926
-0.7351500392 0.016943167895 0.67780578136
-0.53213793039 -0.00817566365 0.8465231061
-0.73359596729 0.15481206775 -0.66175574064
-0.69147258997 0.35519018769 -0.62906986475
-0.58945953846 0.23611339927 -0.77258592844
-0.57146340609 -0.045789282769 -0.81909173727
-0.1814532429 -0.54107427597 -0.82061982155
-0.24080508947 -0.66712969542 -0.70471483469
-0.045796982944 -0.69317859411 -0.71680802107
0.81744605303 0.4492149055 -0.36059874296
0.58284002542 0.21430306137 -0.78378456831
0.70293807983 0.26382780075 -0.66052550077
-0.83730810881 0.31061056256 0.44989106059
-0.8192666769 0.15447817743 0.55221670866
-0.70233005285 0.36240145564 0.61267226934
-0.67427504063 0.17725118995 0.71678262949
-0.51571452618 0.26343762875 0.81511729956
0.79958379269 0.55491811037 -0.2287337333
0.67798918486 0.60057783127 -0.42295295
-0.13640266657 -0.23778782785 -0.96065729856
-0.29301872849 -0.36465013027 -0.88380426168
-0.35382241011 -0.16937312484 -0.91985994577
-0.48536783457 -0.2994440496 -0.82113188505
-0.32647442818 -0.15282528102 0.93277138472
-0.27083659172 0.01435197331 0.96238863468
-0.11534287781 -0.1287394166 0.98494690657
-0.86490428448 -0.50149095058 0.014761125669
-0.88381463289 -0.39766424894 0.24607680738
-0.96131515503 -0.2711109519 0.046971000731
-0.99854022264 -0.04356527701 0.02353021875
-0.77279722691 -0.57833993435 0.25986760855
-0.88022255898 -0.2814194262 -0.38201665878
-0.83368676901 -0.14579004049 -0.5324677825
-0.98757368326 0.091924801469 -0.12756076455
-0.98474091291 -0.12335719913 -0.12293826789
-0.93758267164 -0.30859792233 -0.16021007299
-0.85316038132 -0.45199415088 -0.25964343548
-0.76735240221 -0.46017158031 -0.44625261426
-0.68049108982 -0.2057261318 -0.70307159424
-0.77613711357 -0.30094894767 -0.55370408297
-0.73476660252 -0.61868172884 -0.27645003796
-0.86612278223 0.41650572419 0.27651008964
-0.55554455519 0.81202119589 -0.17897775769
-0.36765643954 0.89900332689 -0.23772227764
-0.53736883402 0.82883381844 0.15571881831
-0.43927291036 0.83939665556 0.31912472844
-0.6055431962 0.72214049101 0.33440583944
-0.66885769367 0.74347829819 -0.0054393005557
-0.69600772858 0.69886893034 0.16448423266
-0.85129445791 0.5246181488 0.0058168247342
-0.70726156235 0.68520712852 -0.1730543673
-0.62307137251 0.70237267017 -0.34419038892
-0.44737643003 0.76088613272 0.46992352605
-0.77423965931 0.46196490526 0.43256437778
-0.77159768343 0.57711708546 0.26765233278
-0.45984047651 0.75087499619 -0.47350257635
-0.47175425291 0.81704872847 -0.3314576447
-0.79186737537 0.54963207245 -0.26387622952
-0.98569655418 0.11050643772 0.12738700211
-0.93831932545 0.31496673822 0.14334103465
-0.96421658993 0.26430779696 -0.014205900952
-0.30759513378 -0.86681771278 -0.39175894856
-0.92465895414 0.336763978 -0.17499566078
-0.45283061266 -0.76248878241 -0.4621167779
-0.2624809444 -0.78581470251 -0.55830949545
0.90104013681 -0.22528119385 0.37064534426
0.95708084106 -0.057565566152 0.28392717242
0.95871311426 -0.22457931936 0.17420957983
0.91781830788 -0.37841248512 -0.11972218752
0.92831343412 -0.3667140007 0.060941979289
-0.2989102602 0.85929697752 -0.41492426395
-0.16991400719 0.93181711435 -0.32067036629
-0.079436577857 0.86332774162 -0.49720528722
-0.26703804731 0.87211763859 0.40968364477
-0.25739791989 0.78504878283 0.56341391802
0.36830678582 -0.89115816355 0.2649910152
0.1881057471 -0.91646969318 0.35296046734
0.320776999 -0.82204532623 0.47031989694
0.11513600498 -0.82223147154 0.55716049671
-0.26570132375 0.78002858162 -0.56650739908
0.2391307354 -0.69091147184 0.68206626177
0.15317456424 -0.54354345798 0.82496589422
0.039897724986 -0.69581305981 0.71696019173
-0.021823484451 -0.88292044401 -0.46723860502
0.13974228501 -0.93563860655 -0.32371672988
-0.011191142723 -0.97081279755 -0.23932094872
0.13673296571 -0.98396968842 -0.11393593997
-0.66221016645 -0.73672574759 -0.13617247343
-0.15146283805 -0.9829660058 -0.10369502008
-0.16191834211 -0.93835091591 -0.30514681339
-0.08130428195 -0.84445559978 0.52907723188
-0.74295085669 -0.038472540677 -0.66828340292
-0.7905806303 -0.59970605373 -0.12422523648
-0.71438843012 -0.69974410534 -0.00075208663475
-0.14310443401 -0.84270489216 -0.51799672842
[...]
CELL_DATA 636
SCALARS cell_data_0 double
LOOKUP_TABLE default
1.88454677365e-07
1.70936030778e-08
1.08057136566e-07
5.00774068351e-08
1.19308813723e-07
1.04961769805e-07
9.34902440668e-08
4.77098779737e-08
7.83564776112e-08
8.42905994896e-08
5.69525593226e-08
5.95364280389e-08
7.68502597859e-08
1.52948420986e-07
5.26893166982e-08
7.2766368468e-09
4.96798663129e-08
8.41296681491e-08
1.16129200609e-07
1.30797218046e-07
1.3951074906e-08
7.43379245019e-08
6.18397397259e-08
1.19476349763e-08
4.01358147664e-08
3.0141360917e-08
6.55677361431e-08
4.03356479178e-08
8.94252901271e-09
5.25960707346e-08
2.35521580488e-08
7.06427219198e-08
9.83911794477e-09
6.93522225568e-08
1.06156704808e-08
6.62777901081e-09
2.33981335452e-07
1.26031967486e-07
7.62045418069e-08
7.59651330832e-08
4.98349220131e-08
8.44736254993e-08
1.80582842682e-08
5.50326334667e-08
6.12267226343e-09
9.69423447263e-08
8.06681896881e-08
6.11546356418e-08
4.92871953933e-08
7.80426693004e-08
6.19115630673e-09
1.41400612574e-08
1.65214899132e-07
1.40637421451e-07
7.73313712543e-08
7.54302659801e-08
2.88791120387e-08
1.01401493867e-07
7.87295510757e-08
5.79576063298e-08
1.78546536724e-07
1.76851832042e-08
6.61790038978e-08
2.90979394591e-08
6.31264544663e-09
5.35753539162e-08
2.70287026349e-07
1.40110175233e-07
2.03946275089e-07
1.34323051559e-07
5.60601119561e-08
1.59238828384e-07
2.06033352277e-07
1.03914681311e-07
2.23272507736e-07
9.09758391952e-08
1.41798982568e-07
1.56328556248e-07
1.10556254338e-07
2.89141371014e-07
1.31389648065e-07
7.05381031203e-08
3.58550468321e-08
2.6236354704e-08
5.84373690445e-08
4.81778090954e-08
1.75586498999e-07
5.22522938004e-08
1.79272277304e-07
2.03141636483e-07
2.05547304351e-07
4.67384776877e-08
1.75176041003e-07
9.59819193568e-08
2.78072667034e-09
6.60174053649e-09
6.00092231981e-08
1.49419958757e-07
3.7738534191e-10
1.25089005215e-07
1.70997393542e-08
9.02461557336e-08
4.44410489364e-08
5.19382780033e-08
7.49158600541e-08
7.5104577399e-08
1.63323101784e-08
2.41390398001e-08
8.35816164796e-09
1.01401415951e-08
1.73687705041e-08
4.70938046082e-08
8.82738914286e-08
1.3087435007e-07
1.15555075355e-08
2.2589553974e-08
1.12411680828e-08
2.57183508266e-08
9.92566176904e-08
6.8010697558e-08
6.91691343597e-08
6.96684254055e-08
3.42751608948e-08
8.7788349561e-08
5.78802518588e-08
3.71345002295e-08
2.04744186701e-08
8.26159616037e-08
6.36253907374e-08
1.7350145734e-07
2.83941614468e-08
1.09847575511e-08
3.27182118939e-08
7.41021333807e-08
9.98515454843e-09
8.01294647876e-08
1.05438481625e-08
8.14313933704e-08
1.10299555164e-09
6.15303974406e-08
7.37243164472e-09
4.14438186198e-08
7.070653529e-08
6.63544768203e-08
7.78043487621e-08
6.0809529844e-09
4.79402018891e-08
7.93653319432e-08
9.16132104843e-08
6.05412486641e-09
3.79215270489e-08
2.83430088397e-08
3.12836628311e-08
5.26206870426e-08
1.35451917977e-07
8.45098781326e-08
8.80031672796e-08
1.14631035275e-07
5.06561118988e-08
6.56197903363e-09
3.00504421944e-08
4.1125309694e-08
8.10446750827e-08
2.91336732526e-08
5.00082358625e-08
1.18277000045e-07
9.58460334834e-08
3.53499625709e-08
3.5343082412e-08
2.52945917518e-08
9.81268572892e-08
9.80354861793e-08
5.90797128931e-08
6.08669361967e-08
7.42163602232e-08
1.51926242521e-08
6.51786578587e-08
5.90871675364e-08
3.84013961048e-08
7.69269621815e-08
7.36391623646e-08
1.44091591146e-08
1.03070131025e-08
1.39295946579e-08
1.1422858327e-08
3.46876264304e-08
4.69968057418e-08
3.13295312467e-08
3.15828427087e-08
6.78084764533e-08
1.29724585272e-07
2.50521982623e-08
3.47895835599e-08
1.35242793377e-08
8.383074369e-08
5.39754771156e-08
2.16943793566e-08
1.19842111091e-08
6.9431588657e-08
5.71501797853e-09
6.67240199786e-08
8.62766133351e-08
8.73095572652e-08
6.97544795617e-08
8.2765523233e-08
6.66026610583e-08
2.20993563191e-09
9.72777820691e-08
1.25575286978e-10
1.26786719007e-07
4.63587295804e-08
9.90911390184e-08
5.4234067036e-09
2.87947384163e-08
2.00270543853e-08
4.43511964534e-08
3.12287370699e-08
6.99530486124e-08
1.38041869382e-08
5.54359582649e-08
4.4022866051e-08
1.34473581176e-08
6.96671738677e-08
6.98512254115e-08
1.24881182311e-07
4.18297388847e-08
6.45301230953e-08
1.31747917878e-07
8.79545595748e-08
1.59857161265e-09
1.04639969171e-07
1.21872788908e-07
2.04294936811e-08
7.39349309723e-08
5.72067525043e-08
3.89064778529e-09
4.23930225227e-08
7.52481031913e-08
5.87822369978e-08
2.35718027555e-08
3.37859280625e-08
2.08715308006e-08
2.89950484365e-08
1.48868480344e-08
3.87085314197e-08
5.08251451402e-08
8.84782974713e-09
2.9898505256e-08
8.01079358468e-09
1.30022093843e-08
6.85022018675e-09
5.68200922849e-08
5.13811143508e-08
4.13728146543e-08
1.89032284298e-08
2.91280534693e-08
1.31573099087e-07
2.25042017022e-08
7.93238579048e-08
2.27404817177e-08
5.14509122453e-08
3.4515595044e-08
2.01236414396e-08
9.13534390524e-09
6.99743279367e-09
1.13899137661e-08
9.5763895196e-08
4.15026723604e-08
9.87788231411e-08
3.47309762953e-08
2.74575372059e-08
5.54163260335e-09
4.75748183842e-08
4.14751029319e-08
1.35114555852e-08
6.73216192516e-08
2.05693822676e-08
1.39356971975e-09
2.54514659813e-08
5.34736299322e-08
4.91344963699e-08
3.89158376871e-09
6.42400699027e-08
4.42103473739e-08
4.65924869679e-09
7.21136906091e-08
3.5241528901e-08
4.77027071471e-08
3.22731151075e-10
1.69704988003e-08
1.12382721434e-08
2.4825851202e-08
1.55934703098e-10
9.59130626203e-08
9.42515509187e-08
1.16348138811e-07
4.22085758154e-08
5.08843009906e-08
7.51217689797e-08
6.5363372144e-08
2.92774613099e-08
1.65454929376e-08
1.08619860249e-07
1.82348395098e-10
3.31478180889e-08
1.88109678459e-08
4.10800389878e-08
8.74457398208e-08
1.83790867474e-10
2.30899541466e-08
1.92124144688e-09
4.35279000411e-09
4.5010143847e-09
5.03765125857e-09
1.3972942175e-08
5.85909679248e-08
3.71829089515e-08
3.32590133732e-08
3.2660857483e-08
6.56151720167e-08
2.92152802562e-09
1.03749948784e-08
1.86078386395e-08
6.76965083627e-10
4.5671463935e-08
4.91316008145e-08
4.62565305939e-08
4.54610352298e-09
9.9756993973e-08
1.189334606e-08
3.7043724623e-08
1.10126921944e-08
5.92030621475e-08
7.02087789943e-08
4.01541755174e-08
4.86582871973e-08
1.89516372105e-08
5.45684554336e-08
6.80171735259e-10
3.19062417233e-08
2.6310755044e-08
9.26753996621e-09
3.33944258321e-08
8.13112815782e-09
4.38225165981e-08
1.5255984151e-08
5.34043064171e-08
7.57480416828e-08
3.92458665131e-08
1.40147521246e-08
2.9873970873e-08
6.2106233336e-08
3.78962812074e-08
1.30525458634e-08
2.35706816471e-08
4.97662370224e-09
2.98387437117e-08
1.14934979986e-08
4.29013344932e-08
3.74690009607e-08
3.82438413627e-08
4.15126946527e-09
3.8499439775e-08
2.08229349226e-08
3.58002774145e-08
1.58457669047e-07
2.66236806366e-08
4.16424673966e-09
6.09811375621e-08
1.0064803416e-07
1.13954700237e-08
4.20354501981e-08
5.8140460738e-08
4.21651662048e-08
2.92095943364e-08
2.02982509239e-08
5.45600256026e-09
1.57347665512e-08
1.6779314114e-08
1.89802633626e-09
5.57007055364e-08
1.35644363712e-07
5.53871579599e-10
7.25806707514e-08
4.96634609158e-08
5.46809248622e-09
1.41692504495e-09
2.82925330788e-08
7.21530699453e-08
6.52563271466e-08
2.00180994463e-07
1.20483071062e-08
2.2218328523e-08
1.46122016624e-08
3.54319939872e-08
6.88074217824e-08
5.30440744375e-08
6.26419012245e-08
1.10305319296e-08
3.06620634238e-08
1.67225327159e-08
1.79409274911e-08
3.23727546933e-08
6.85337841655e-08
7.92933738117e-08
1.19000672033e-08
2.0273159841e-08
6.6646802716e-08
2.84054002273e-08
1.53623066937e-08
3.72518062629e-08
3.76456267893e-09
5.23898896706e-08
3.62614146089e-08
6.8504357978e-08
5.76360945114e-08
9.89506012515e-09
2.12054379094e-08
3.13527596352e-08
4.80742929809e-08
3.85290456618e-08
1.21711883842e-08
2.75355083461e-08
2.78751158114e-09
2.53163975768e-08
3.76910364655e-08
6.9106245768e-08
3.04384975952e-08
4.85534470026e-08
3.02087203386e-08
5.74610832181e-08
9.97411878617e-09
4.8795354701e-08
4.52711053205e-08
3.84191821026e-08
4.30574914182e-09
5.43285344038e-08
3.68213790762e-08
8.49957317834e-09
2.85948196446e-08
7.09689933202e-08
4.29670864198e-08
3.73763999716e-08
1.32256526565e-08
3.00657482456e-08
4.14439639068e-08
5.00736974303e-08
2.61332286757e-08
2.32702157761e-08
5.63561699008e-09
4.09481020728e-08
5.39971934637e-08
5.41472034933e-08
7.92569150094e-08
3.89891072854e-08
1.91357018e-09
5.35196769455e-09
8.85616016841e-09
2.94967884192e-08
4.3273337233e-09
4.74636306118e-09
2.00529045719e-08
1.30853736963e-08
1.89485681353e-08
9.40955887474e-08
1.5240588602e-08
1.33227218077e-09
2.69872446313e-08
3.86548350752e-09
3.19388155229e-08
1.41144811886e-08
9.81086510018e-08
5.72272588151e-09
7.74435156835e-08
9.74254630512e-08
2.54759678676e-08
2.31039838294e-08
8.54913491942e-08
5.23435947957e-08
5.11183248676e-08
3.15616784786e-08
3.86013667289e-09
8.12799033543e-09
4.97079230604e-08
7.6178461743e-08
1.06896188085e-08
1.60326744472e-08
1.3815331514e-08
5.70086290042e-09
4.46571636595e-09
1.1580235006e-08
1.16324167964e-08
3.05791170589e-08
2.06475861721e-08
7.06192652188e-08
1.80456958828e-08
5.58327200566e-08
2.41305439273e-08
2.36634620135e-09
2.22359978293e-08
1.48649021814e-08
1.41627128715e-08
3.75838499112e-09
3.19215826071e-08
4.38192612755e-08
2.782106052e-08
3.00018776062e-08
1.09285326875e-08
7.29562362224e-08
8.83483053828e-09
2.38554403471e-08
5.93779140194e-08
4.08374827052e-08
1.54263326419e-08
3.0640320749e-08
8.76229305369e-09
6.10335958826e-08
6.42585221827e-08
4.00999653103e-08
7.05705697434e-09
5.6224843294e-08
3.11983127453e-08
6.26896939332e-08
4.30363904954e-10
1.26618850278e-08
3.52058276793e-08
2.84011404096e-08
4.18959307979e-09
2.81343300966e-08
1.38752839523e-07
1.0486302809e-08
1.5569594425e-08
2.97335704727e-08
3.6738591504e-08
3.596689614e-08
2.20202837263e-08
1.33988676936e-08
2.38476271855e-08
3.34095479344e-08
3.07770993057e-08
3.90965517754e-08
5.2785539825e-08
8.24126951351e-10
5.05519539114e-08
9.65692926053e-10
7.56003873571e-08
4.43172066545e-08
1.28464941904e-08
7.80119088617e-09
1.87293841102e-08
2.58174123363e-08
1.71566221423e-08
5.89049579691e-08
7.39125119074e-09
2.23446415323e-08
2.77940661912e-08
7.53778402824e-08
3.26512837713e-08
4.72940241068e-08
5.48569459037e-08
4.471802614e-08
3.69178516656e-09
5.39661150323e-08
2.25128237403e-08
2.67381393152e-08
1.65438489589e-08
7.18503558854e-09
5.53677835812e-08
1.28554034109e-09
1.72149235989e-08
7.91561130565e-08
5.77504497995e-08
4.35597152744e-10
1.96591298528e-08
5.72443134197e-09
3.14175530624e-09
5.02383669207e-08
8.18339988815e-08
1.99199167866e-08
4.60731496441e-08
4.13426496238e-08
2.2164755601e-09
3.63956818917e-08
1.43121512893e-08
2.86652873013e-08
7.71437152862e-08
1.02773480592e-07
9.13786519597e-08
1.02646428019e-08
9.34151734581e-08
1.22412108963e-08
2.31085146102e-08
2.63315787532e-08
1.81505518982e-08
1.10930474273e-09
3.30463599667e-09
2.49799645348e-08
1.99750751193e-08
5.84480711596e-08
1.38861169719e-09
2.19005285486e-08
7.95093679327e-08
1.83713210165e-08
2.78086451939e-08
1.8710728122e-09
1.1199190526e-09
4.0676889988e-08
2.23636435422e-08
2.61360128284e-08
2.14342804489e-08
3.36556529887e-08
8.6652094117e-09
3.38819215345e-09
2.77978056166e-08
2.95267232702e-08
3.68420538093e-08
5.10520497361e-08
3.13792469178e-08
5.7737356476e-08
3.62962407988e-08
1.44303662446e-08
1.59021072522e-08
2.58894888938e-08
3.13996956219e-08
4.81932869278e-08
1.61119521734e-08
8.25019500193e-09
4.06041341992e-09
2.82482540113e-08
2.84411150678e-08
5.78722383065e-09
1.86519811296e-08
3.72987535124e-08
2.7621008166e-08
9.80028006775e-09
1.80664475163e-08

