# vtk DataFile Version 3.0
File Name: Molecule/sphere_cent/sphere_cent_0-s28.vtk
ASCII
DATASET UNSTRUCTURED_GRID
FIELD FieldData 1
TIME 1 1 double
0.0
POINTS 766 double
-0.59188073874 0.58911025524 0.54973769188
-0.49430733919 0.50912588835 0.70451486111
-0.44876202941 0.63401347399 0.62977933884
-0.33738353848 0.52744108438 0.77970677614
-0.86843001842 0.075128801167 -0.48961359262
-0.91450715065 0.15339024365 -0.3731008172
-0.84262782335 0.25831016898 -0.4724560082
-0.32411655784 0.47051548958 -0.82064169645
-0.40885710716 0.31523132324 -0.85643035173
-0.48458850384 0.4505161047 -0.74938422441
0.31259575486 -0.5232976675 -0.79247820377
0.24539898336 -0.67194879055 -0.69876140356
0.11976050586 -0.57729262114 -0.80733191967
0.92394274473 -0.12997280061 -0.3597509861
0.97252506018 -0.08409743011 -0.2150093019
0.94163817167 -0.23974952102 -0.23622091115
0.97559642792 -0.20815424621 -0.06405749172
-0.83930039406 -0.22731281817 0.49358686805
-0.7553730607 -0.1551476419 0.63650774956
-0.84107249975 -0.050315342844 0.53852039576
-0.71542471647 -0.33532458544 0.61296904087
-0.58043926954 -0.46315687895 0.66965728998
-0.57750087976 -0.30866247416 0.75566542149
-0.55948507786 0.27788469195 -0.78077548742
-0.19488324225 -0.5426247716 -0.81644678116
-0.07609397918 -0.65905898809 -0.74822735786
-0.26036137342 -0.6565824151 -0.70784497261
0.7921462059 0.33298712969 -0.51133549213
0.82191509008 0.43406903744 -0.36877131462
0.89248096943 0.27354419231 -0.35815370083
0.57248497009 0.23145887256 -0.78620874882
0.57671326399 0.41313436627 -0.70471340418
0.6973361969 0.27140495181 -0.66268640757
-0.81528764963 0.13874021173 0.56070154905
-0.74445492029 0.019942004234 0.66733896732
-0.39043861628 -0.52971994877 -0.75213503838
-0.4077295959 -0.66264492273 -0.62821364403
0.86048030853 0.50353014469 -0.077204547822
0.89263510704 0.39418178797 -0.21692019701
0.80812245607 0.53771197796 -0.24025762081
0.69803512096 0.58558177948 -0.41198512912
-0.29275026917 -0.1952355206 0.93592745066
-0.15636970103 -0.31080323458 0.93729507923
-0.11036773771 -0.15901222825 0.98097455502
-0.98256033659 -0.15651622415 -0.09841760993
-0.94694799185 -0.28799009323 -0.14195050299
-0.96318602562 -0.26452517509 0.031135560945
-0.77374064922 -0.49609902501 -0.39283150434
-0.74510389566 -0.61088013649 -0.267354846
-0.83178836107 -0.49356293678 -0.2536123991
-0.83860880136 0.30511182547 0.45109283924
-0.87815868855 0.37317243218 0.29914745688
-0.91849815845 0.20980271697 0.33471277356
-0.68532037735 0.69952303171 -0.20168283582
-0.5758009553 0.79704153538 -0.18138475716
-0.59719407558 0.72882139683 -0.33486187458
-0.79661279917 0.4313813746 0.42331168056
-0.46928825974 0.82206809521 -0.32235592604
-0.7322665453 0.35909408331 0.57832664251
-0.98760086298 0.13034373522 0.082884371281
-0.9417424798 0.29183870554 0.16674977541
-0.96382570267 0.2647972703 0.026405427605
-0.43210053444 -0.76105487347 -0.48381870985
-0.29537764192 -0.77114987373 -0.56394410133
-0.29998794198 -0.85818326473 -0.4165430963
0.94774508476 -0.24955777824 0.19531279802
0.88852131367 -0.26942908764 0.37125101686
0.88056379557 -0.40088716149 0.252712816
0.84432452917 -0.53264957666 -0.055397506803
0.91485923529 -0.38327926397 -0.1269159317
0.91792488098 -0.39162039757 0.048194140196
-0.3521271944 0.90172302723 -0.2498781234
-0.31023216248 0.85879600048 -0.40767523646
-0.20642435551 0.93385881186 -0.29153370857
-0.24194321036 0.95826530457 -0.15194033086
-0.41353026032 0.84331792593 0.34313043952
-0.44674903154 0.75373005867 0.48186156154
-0.2678334415 0.86865240335 0.41676536202
-0.24177488685 0.79865580797 0.55107957125
-0.086211182177 0.86415117979 0.49575081468
-0.32035019994 0.7636501193 -0.5600900054
-0.44832086563 0.77024781704 -0.45351278782
0.82262593508 -0.508667171 -0.2508712709
-0.55898141861 0.7590534687 0.33246022463
0.13485318422 -0.56999516487 0.81001794338
0.061788041145 -0.70897316933 0.70248425007
0.2056697309 -0.71257662773 0.67073774338
0.094562232494 -0.81743788719 0.5680616498
-0.0019784802571 -0.9005998373 -0.43455919623
0.14242091775 -0.93716704845 -0.31750351191
0.0033960826695 -0.9713460207 -0.23731015623
0.16000156105 -0.97594583035 -0.1459697485
-0.042704373598 -0.99882894754 0.016032163054
-0.10253017396 -0.98635029793 -0.12755532563
0.048760175705 -0.99639064074 -0.066941224039
-0.16099998355 -0.93567216396 -0.31388795376
-0.85970121622 -0.28442114592 -0.42405557632
-0.83294177055 -0.17108117044 -0.52602082491
-0.77205502987 -0.29945960641 -0.56015193462
-0.78658241034 -0.60049808025 -0.14129474759
-0.6735291481 -0.72577679157 -0.13973663747
-0.7032545805 -0.71001207829 -0.0019119268982
-0.57133948803 -0.82058411837 0.00018517335411
-0.15910325944 -0.85242432356 -0.49802401662
0.49037712812 0.82066386938 0.29323294759
0.46248006821 0.76469051838 0.44870662689
0.59617441893 0.71429282427 0.36654081941
0.55846720934 0.65011048317 0.51524919271
0.41280505061 0.68345665932 0.60152536631
0.68287134171 0.59103512764 0.42936882377
0.52191776037 0.5634983778 0.64037889242
0.64975100756 0.51212233305 0.56173086166
0.6032627821 0.42353466153 0.67577040195
0.76424139738 0.43226405978 0.47862884402
0.71292459965 0.35392189026 0.60535460711
0.81242662668 0.27646070719 0.51332944632
-0.45549473166 -0.39241239429 0.79905188084
-0.44850376248 -0.24758774042 0.85874897242
-0.32629030943 -0.34086427093 0.88164633512
-0.32083854079 -0.49986734986 0.80444693565
0.34955900908 -0.93086469173 0.1039442122
0.20596316457 -0.97104603052 0.12019000947
0.28753402829 -0.9570992589 -0.035286147147
0.41561108828 -0.90637242794 -0.071827448905
0.32384222746 -0.92359632254 -0.20149102807
-0.13668251038 -0.91549426317 0.37826034427
0.021736005321 -0.91094845533 0.41195097566
-0.060523286462 -0.85127037764 0.52104043961
-0.035517171025 -0.96562975645 0.25674843788
0.72818940878 0.16325631738 0.66558206081
-0.15090705454 0.27369379997 0.94980543852
-0.32283037901 0.27803263068 0.90468817949
-0.23196038604 0.1616152674 0.95919907093
-0.38276666403 0.14771391451 0.91194933653
-0.48426619172 0.26580372453 0.83356809616
-0.27482277155 0.038771230727 0.96048426628
0.72111988068 0.63486033678 0.27732461691
0.60922724009 0.76182633638 0.21992868185
0.86247682571 0.36076340079 0.35481768847
0.78158658743 0.50907844305 0.36051240563
-0.39994293451 0.39624166489 0.82645362616
-0.24623812735 0.40036404133 0.88259226084
-0.63920199871 -0.75650644302 0.13226576149
-0.056557893753 0.11800085008 0.99062997103
-0.77513277531 -0.58130007982 0.24738658965
-0.74029141665 -0.65284562111 0.15699186921
-0.67250692844 -0.68036067486 0.28975403309
0.5541908145 0.65856492519 -0.50903117657
0.59288918972 0.71743071079 -0.3656912446
0.46401932836 0.76911252737 -0.43947723508
0.42005962133 0.69486433268 -0.58366179466
0.50115203857 0.81535565853 -0.2897606194
-0.25177001953 -0.0061444155872 -0.96767002344
-0.38396269083 -0.012222511694 -0.9230735898
-0.33058181405 0.1553645581 -0.93082892895
-0.47369742393 0.1612560004 -0.86536550522
0.48546299338 0.033288422972 0.87359070778
0.57003319263 0.18864923716 0.79966944456
0.43881419301 0.2294484973 0.86872375011
0.45347881317 -0.26665481925 0.85042488575
0.31592148542 -0.28187307715 0.90592217445
0.3763460815 -0.44536951184 0.81200641394
0.37794980407 -0.12859977782 0.916860044
0.21434518695 -0.13657259941 0.96715241671
0.30711200833 0.0069088754244 0.95161813498
0.5121923089 0.33668985963 0.79012191296
0.63464671373 0.29146161675 0.71573913097
0.27336362004 0.52037316561 -0.8089774847
0.16213668883 0.6720122695 -0.72249817848
0.34953635931 0.61402434111 -0.70765465498
0.28622043133 0.72274672985 -0.62908673286
0.32581344247 0.80330258608 -0.49849513173
0.18334624171 0.804679811 -0.5646187067
0.2166262418 0.8955489397 -0.38854458928
0.060309194028 -0.22419439256 0.9723598361
0.054007288069 -0.083162419498 0.99507468939
0.16025370359 0.02383890748 0.98652607203
0.15327243507 -0.26252344251 -0.9526566267
0.2319714278 -0.12495563924 -0.9646615386
0.3098423183 -0.2564688623 -0.91553103924
0.36473944783 -0.10651004314 -0.92447209358
0.28645473719 0.015390237793 -0.9579629302
-0.11816676706 0.93247246742 0.34133192897
-0.1140383929 0.97510874271 0.19006946683
0.069845296443 0.97060263157 0.23015832901
-0.007255518809 0.99905538559 0.040061336011
0.36777934432 0.86202263832 -0.3488112092
0.29095467925 0.93477040529 -0.20346225798
0.24660685658 -0.39161503315 -0.88627535105
0.38634127378 -0.38166096807 -0.83969831467
0.44765931368 -0.24952112138 -0.85814201832
0.097761400044 0.87011319399 -0.4828055501
0.030244389549 0.78869003057 -0.61395978928
-0.050286583602 -0.52059704065 -0.85229635239
-0.15475539863 -0.41004526615 -0.89883571863
-0.34236174822 -0.15985122323 -0.92549991608
-0.25195032358 0.92681598663 0.27840730548
-0.28844031692 0.94950187206 0.12356459349
0.0034263483249 -0.21773529053 -0.97595626116
0.086649388075 -0.11356348544 -0.98973691463
-0.048816666007 -0.091929070652 -0.99441474676
0.016999946907 0.02039687708 -0.99962705374
0.68729692698 0.40893366933 -0.60026085377
0.7315890789 0.46967408061 -0.49405220151
0.62354999781 0.5340423584 -0.57092612982
-0.4386844933 -0.89692771435 0.05285558477
-0.48909115791 -0.8574243784 0.15928158164
-0.48401334882 -0.79512619972 0.36361399293
-0.38491377234 -0.87997859716 0.2782407701
-0.30165022612 -0.85611468554 0.41947668791
-0.82406049967 0.43657019734 -0.36093217134
-0.89169049263 0.31305930018 -0.32671043277
-0.87893974781 0.4180419445 -0.22936473787
-0.92716062069 0.32323300838 -0.18924058974
0.13337388635 0.7204939723 0.68049675226
0.083266817033 0.62013721466 0.7800514102
0.22973072529 0.61718827486 0.752407372
0.1711268425 0.51383107901 0.84057635069
0.29708087444 0.48471260071 0.82262951136
0.3309725821 -0.84469974041 -0.41999575496
0.27996489406 -0.77868705988 -0.56132727861
0.45419859886 -0.74910366535 -0.48219791055
0.41434147954 -0.68602979183 -0.59794253111
0.11911606789 -0.79947656393 -0.58866161108
0.16910117865 -0.86806964874 -0.46653607488
0.99952322245 -0.020024500787 0.015402608551
[...]
CELL_DATA 1528
SCALARS cell_data_0 double
LOOKUP_TABLE default
9.61836006833e-09
1.01497279167e-08
4.84360949906e-09
1.77875129935e-08
4.91238842167e-08
3.77573847732e-09
4.10004663401e-08
8.01479861767e-09
2.49513934084e-08
2.57768808078e-08
2.17710819344e-08
3.88792613596e-08
3.57589869363e-08
6.08798562911e-08
5.12649317289e-08
2.22491180722e-08
1.04169776419e-08
3.58771643165e-09
3.11863537949e-08
5.5733283221e-08
3.20822660878e-09
2.18515154972e-08
1.6101774263e-08
2.06356196381e-09
1.31273400033e-08
2.93008570209e-09
1.78350537043e-08
6.30414456074e-09
1.10530422756e-08
4.86551242415e-09
1.10864823844e-08
4.86811071174e-09
5.66778518535e-08
1.33870324981e-08
2.0825366933e-08
3.80865492607e-08
5.53106171633e-08
2.87987753645e-08
3.63387077209e-08
8.80659134349e-09
3.71193783597e-08
9.47072056048e-08
1.25087858025e-08
3.66910630892e-08
3.26214565739e-10
6.28470301511e-08
7.22858717425e-08
1.6807257521e-08
1.50053940814e-08
7.6086822577e-08
1.58164824057e-08
2.82435480302e-08
2.99757377494e-08
1.23989280904e-09
1.07103547428e-08
4.88466577551e-08
7.81293962895e-09
2.13246911394e-08
1.49558587116e-08
1.74769965509e-08
4.35172576994e-08
1.36946436286e-09
4.74150346478e-10
2.62841375436e-08
1.11839926996e-09
1.28803009451e-08
2.63587288291e-10
1.76828759231e-09
7.37619523522e-09
1.9256687008e-08
1.47358475503e-08
4.64143813896e-09
2.12077018873e-08
4.40040498794e-10
9.44664943671e-10
1.60582512157e-08
1.05620089277e-08
8.42403013319e-09
1.26088408285e-08
7.57347210445e-09
2.26933542231e-08
2.99575489092e-09
2.02356294751e-08
9.12072864959e-09
9.89450273168e-09
5.92155812058e-09
5.79778668462e-09
2.58722557363e-08
2.18008365859e-08
5.28967087379e-09
2.93497629608e-09
7.08616945407e-09
4.08684788032e-09
1.74943525769e-08
6.82282325487e-09
1.37428113274e-08
1.31617828236e-08
1.32552104747e-08
1.86122416662e-08
1.09231318443e-08
4.05995475672e-08
6.24194323807e-09
2.52992783458e-08
9.76749514488e-10
6.94655160315e-09
4.34187380805e-11
2.68868205487e-08
3.92382351035e-08
4.37322417362e-08
2.67747989086e-08
1.5824000589e-08
1.81417807547e-08
1.34905016798e-08
3.92240022196e-09
1.07053658067e-08
7.48287244605e-09
4.32370549922e-09
2.24344129457e-08
2.60279762864e-09
1.46925157018e-08
1.46231793676e-08
4.14367349045e-08
3.19655306255e-08
8.86007322607e-09
1.82033361404e-08
9.28562820895e-09
7.26860037774e-09
8.86019527699e-09
9.23800549488e-09
5.2549575083e-08
5.57508994621e-08
3.66995748761e-08
2.8031826641e-08
1.94864913429e-08
1.6173660724e-08
2.44963067975e-08
1.38344645149e-08
1.33946917979e-08
6.19983554521e-08
6.45447868244e-09
7.15523604729e-10
5.6684032604e-09
3.43684662418e-09
1.09746842934e-08
1.73332998906e-08
8.50976131182e-09
6.6307456167e-08
2.76551890917e-08
4.34825479459e-09
1.38504180172e-08
2.85584800611e-08
7.20651923288e-10
8.21596512685e-09
5.57371868845e-08
2.1652442266e-08
7.69963316487e-10
9.95618443941e-09
4.71743562418e-09
1.29348708281e-08
1.17434699063e-08
1.20410533658e-08
2.22429166921e-09
4.28634096828e-09
1.58441733437e-08
3.28851300603e-08
1.78332064979e-10
2.56492048208e-08
8.3973442064e-09
9.18631397672e-09
1.04038017019e-08
4.34506797688e-09
3.74536955059e-08
3.7875112217e-08
4.961704706e-08
6.8072611698e-09
3.74212781041e-08
3.79573022949e-08
2.5363670931e-08
8.75114818514e-09
2.95962564176e-09
1.51600765319e-08
9.23581621673e-10
2.44825744587e-08
1.54431057426e-08
6.24617471777e-09
3.40125890154e-09
1.01373162193e-08
5.49222692428e-08
6.07466319292e-09
4.19860358244e-08
3.15606387667e-08
6.0950320205e-09
3.34507283279e-08
1.09235721672e-08
1.02774920873e-08
1.98851635969e-08
4.89022360668e-09
7.83804937629e-09
3.41250707521e-09
9.0876849065e-09
1.09779385513e-08
1.31131342269e-08
4.25589564639e-08
2.76693201746e-09
3.0159659999e-08
1.06765333504e-08
1.37661612364e-08
2.68875013419e-08
5.84048999804e-09
3.49122894949e-08
6.37508277662e-09
4.49181680262e-08
1.352623939e-08
3.2293120466e-08
1.7717084944e-08
3.64936657558e-10
2.89543976615e-08
1.85461434912e-08
3.6625574037e-08
1.75621673995e-08
1.11947865294e-08
1.98616286833e-09
1.19707458546e-08
1.63486582478e-08
1.4372000505e-08
5.82231436011e-09
6.03071641105e-09
7.20260691776e-09
7.19293445238e-09
1.89498749139e-08
5.22848570361e-09
1.70771574985e-08
1.07882752996e-08
4.20705515444e-09
3.55157062624e-08
9.41782554298e-09
1.89850872676e-08
1.00530882458e-08
1.14693686804e-08
4.31007436426e-09
1.96955195928e-08
2.15356549303e-08
3.58287795155e-08
2.1852859808e-08
1.82786018868e-09
4.66858582079e-09
1.62616633222e-08
3.40238409786e-09
4.6739073943e-08
2.21014792255e-08
2.40385178985e-08
2.41881602865e-08
6.25930918612e-09
1.4234544809e-08
1.0662268362e-08
1.05528677326e-08
3.19971408375e-09
1.92721066024e-08
1.0974097364e-09
6.9427150073e-09
6.62816969074e-09
1.61412646196e-08
5.41328899269e-09
8.17224678879e-10
1.0955233048e-09
3.34966582391e-08
1.44481368442e-08
8.58635197988e-09
1.69892287115e-09
1.64670781832e-08
1.56875291012e-08
1.07051346186e-08
8.98798673494e-09
8.92943511079e-09
1.63255318903e-09
1.11708260677e-08
3.5089373857e-08
1.56949279802e-08
8.80729382272e-09
3.26803436243e-09
1.05812426074e-09
3.19357825199e-08
1.02689595188e-08
1.05413957503e-08
1.71630767801e-09
7.88701439742e-09
1.97040138281e-08
1.32755338456e-08
2.67426885558e-10
7.31609879604e-09
1.18851895752e-08
1.26373352418e-08
5.40858579663e-09
1.41987082721e-08
1.24878075589e-08
2.65158100702e-08
1.796922226e-08
1.04684824671e-08
2.40955972361e-08
2.71666619344e-09
6.42303782544e-09
3.26334749412e-09
2.03418704751e-09
1.42982964894e-09
1.43550218344e-08
1.66876990627e-08
5.2859615524e-09
1.08800102299e-08
2.15688480298e-09
5.92889898991e-09
2.9456856973e-08
1.10379141364e-09
2.02734554023e-08
8.45948981647e-09
2.49615446243e-08
6.7799215503e-09
1.66407236647e-08
1.33659362953e-08
1.65051287894e-08
2.65090482365e-08
1.29800686113e-08
5.08682469956e-08
2.0709163261e-08
3.68680504118e-09
1.37892609897e-08
8.55609297558e-09
2.2158454296e-08
8.10273183558e-09
2.22993207252e-08
6.10261893724e-09
2.18698006371e-09
1.13156655223e-08
1.93747458401e-08
2.32813672757e-08
8.15879487863e-10
2.50330823651e-09
2.80364556433e-08
6.33929742969e-09
1.18628489577e-08
2.69689352112e-09
9.87168959575e-09
8.96743061622e-10
1.50150326865e-08
1.73119179707e-08
2.13226582992e-09
1.80997116557e-08
1.13470838994e-08
1.78072585775e-08
2.29523060821e-08
2.15127862038e-08
1.31361905679e-08
2.27653526268e-09
1.50712007148e-09
2.10166993485e-08
3.19800717006e-08
1.5273292406e-08
3.0515036812e-09
5.91185330101e-09
8.55356958246e-09
3.05245976713e-09
4.2653445356e-11
1.15038091039e-09
1.36038172139e-08
1.96954410194e-08
1.57807570213e-08
3.09985457134e-09
2.08303397731e-10
1.76184518555e-08
1.76755517866e-09
1.50292588258e-08
1.44831723962e-08
1.40704125384e-09
9.16276323147e-09
5.97131363767e-09
1.35871155342e-08
1.45412965341e-08
1.08952104646e-08
9.93702803264e-09
2.53063150811e-08
1.49479594707e-08
1.48615505356e-08
6.07950303812e-09
1.51633991851e-09
1.39369807486e-08
8.83354476495e-09
7.9124079997e-09
9.00418107124e-09
1.10533087335e-08
5.54241863857e-09
3.09136336555e-09
3.82457151226e-09
1.16059145677e-08
1.67121513922e-08
2.2228528654e-08
4.52095481963e-09
6.80383331298e-09
5.10143510224e-09
1.05988205123e-08
1.45071011694e-08
2.67754904726e-09
2.18337448583e-08
1.63432618157e-08
2.36142893505e-08
1.02572995943e-08
3.7181649492e-09
1.44294767923e-09
1.18908414448e-09
1.1077593901e-08
3.14909785338e-09
5.42357523687e-09
1.3690685644e-08
3.71030172697e-09
4.33283198981e-09
2.44906483752e-08
4.87026845945e-09
1.97978290096e-09
1.95075437093e-08
1.64785849083e-08
2.19930808367e-08
4.66818247937e-09
9.38430066464e-09
1.3030030115e-08
4.55909984166e-09
4.71005411735e-09
1.40029225469e-08
1.16275661588e-08
9.50161099872e-10
2.62349758149e-08
1.13977581645e-08
4.18091048026e-09
2.46522269227e-09
1.05632679734e-08
1.63079705447e-08
5.12993119534e-09
2.51983695962e-08
7.91865782202e-09
1.70986472921e-08
1.09398809042e-08
2.38625024474e-08
3.38789252653e-08
1.02025038105e-08
1.59527849437e-08
3.0188119329e-10
2.1885446379e-08
2.96101669896e-09
1.07345659884e-08
4.70919310225e-08
1.11543201612e-08
9.85972373513e-09
1.95719901325e-08
5.92476815293e-09
1.42796295515e-08
1.35700888438e-08
3.30403800427e-09
2.09638261892e-08
4.79623568714e-09
2.75735112308e-08
7.97715901791e-09
9.59558335705e-09
1.07606596231e-08
1.14158915947e-08
9.00548498244e-09
1.63591024882e-08
2.23386806483e-08
3.83367980782e-09
4.1294095419e-09
1.93568423509e-08
4.87890204649e-09
1.81842329059e-08
2.36317184064e-08
5.18020677057e-09
1.53526236271e-08
6.40016109279e-09
8.60314054219e-09
1.3349490948e-08
8.65292271118e-09
1.13759403856e-08
3.7609225285e-10
2.10107001549e-08
6.41851509754e-09
2.1725135659e-08
7.12963897369e-10
1.2729083922e-08
7.84140739619e-09
1.51343148648e-08
1.88369921581e-08
1.20562831243e-08
2.03007298122e-08
3.75090539959e-09
1.93278382113e-09
3.4242043356e-09
1.88392932754e-08
1.06128468662e-08
4.92018258421e-10
1.52966691269e-08
1.06440773221e-08
2.09239631666e-08
9.84617576464e-09
1.81286718697e-08
1.76301705677e-08
2.63111327471e-08
9.65673126796e-09
4.36988205705e-09
7.46273053306e-11
3.26772018609e-09
9.72017655995e-09
1.62684713217e-08
8.03680073808e-09
2.1338442925e-08
1.06065128624e-08
5.02265329283e-10
3.26812187735e-08
1.6643170346e-08
1.15504786627e-08
9.9598233627e-09
7.1213089263e-09
1.63083338035e-09
1.45344157688e-08
1.03471292584e-08
9.3866213688e-09
8.983731205e-09
6.98625160492e-09
1.27518533916e-08
7.17686357025e-09
4.42996517356e-09
2.34994903044e-08
2.2166947436e-08
2.23400942956e-08
6.80368892708e-10
1.68250779321e-09
2.6205477425e-08
3.08395613361e-10
1.08050694726e-08
2.15534852983e-09
1.56713229093e-08
3.81035320729e-09
1.9120594171e-08
2.60597214886e-08
1.04139663455e-08
1.09911453386e-08
6.15996605118e-09
1.0285178445e-08
6.26027823996e-09
3.90783970694e-08
3.67376435559e-09
1.0046345512e-08
8.32761140288e-09
1.46259577638e-08
6.72550647287e-09
1.15148423752e-08
1.63494770524e-08
6.53422242198e-09
2.59363169112e-09
9.81830449047e-09
1.90997209892e-08
3.17006372774e-09
1.65197092968e-08
1.96758099473e-08
9.6869530656e-09
1.92790773599e-09
1.21661332293e-08
5.89189924914e-09
1.28623393926e-08
1.68502853859e-09
1.06790814233e-08
1.24918391476e-09
9.77127022894e-09
4.22978373912e-09
1.05361573151e-08
5.70071252386e-09
5.88833971049e-09
1.12803446526e-08
1.74745223374e-08
1.02823111992e-08
1.99777936241e-08
1.51116390993e-08
1.40802409311e-08
8.49642533499e-09
1.64076805504e-08
9.81392407052e-09
1.27048258943e-08
1.30160453729e-08
3.01147398835e-09
8.73378405301e-09
6.94801292438e-09
8.26397269612e-09
1.59272078409e-08
2.45743557131e-08
7.53727862788e-09
1.93631062502e-08
1.69359649671e-08
2.17968294033e-08
6.65985759733e-09
5.14707409421e-09
7.73073859584e-09
1.41271162499e-08
1.95062622575e-08
1.13017443825e-08
5.17585792906e-09
1.48260396688e-08
7.41493291001e-09
5.80549086047e-09
6.56243712222e-09
6.02361685652e-09
1.36351171389e-08
2.16752410318e-08
1.64047909711e-08
2.41328244373e-09
1.38740118841e-08
1.34527136748e-08
2.89277340935e-09
1.80493469694e-08
4.7267846644e-09
5.54417753601e-09
2.23374604744e-08
1.82390393311e-09
1.18966573254e-08
3.97736026001e-09
1.25117497201e-08
4.10813768537e-09
9.90309530396e-09
1.27183694281e-08
6.46134826508e-09
5.38486174585e-09
3.39816210242e-08
5.11491663482e-09
1.08951683466e-08
1.45950952585e-08
6.13851029486e-09
5.65946281831e-09
1.791330891e-08
1.40296514131e-09
1.97379691973e-08
2.75520745942e-09
6.19099807565e-09
7.28194064837e-09
7.39195717899e-10
3.37666917428e-09
9.5284216129e-09
1.01543101626e-08
2.10137501268e-10
6.39624043814e-09
1.02346552887e-08
1.81734299419e-08
4.87115175948e-10
1.15364466918e-09
1.12795516463e-08
1.37643081838e-08
3.74355359408e-09
1.45835974449e-08
6.14865803426e-09
1.31534707081e-08
3.23865614013e-09
4.39068989425e-09
1.20632730096e-08
1.67070893084e-09
1.28004687585e-09
4.94762479057e-09
4.66154073156e-09
1.31272976494e-09
2.56332923851e-08
1.29581773252e-08
4.92838744684e-09
3.81065770809e-09
1.89175061537e-08
1.79864721752e-09
9.18470977793e-09
8.55832503411e-09
2.11857032987e-09
1.30526050251e-08
1.21614875126e-08
9.48219097461e-09
1.62226954433e-08
1.96129050035e-08
7.63945816321e-09
6.24525329219e-09
1.31941719121e-08
7.29634481402e-09
2.85296050447e-09
2.36117362385e-10
1.83990192495e-08
4.79104753169e-09
2.01749012024e-08
6.13391217945e-09
8.54287908379e-09
3.44791085975e-09
3.63338515702e-09
9.80948799043e-09
2.09594334121e-09
2.9354619572e-11
1.40904826383e-08
1.99171734479e-08
1.48534237311e-08
1.42982572755e-08
6.83315460613e-09
2.38781597195e-08
2.25202391068e-08
8.15800286899e-09
4.68232081587e-08
1.27986626715e-08
4.14807959072e-09
1.37719246895e-08
4.63996473648e-09
1.18041790768e-08
2.00872797765e-08
2.52932560885e-08
1.96610734903e-08
1.01761417038e-09
1.69541455821e-08
1.01488302505e-08
2.12482633154e-08
1.81649075839e-08
1.63517271439e-08
2.04948921283e-09
3.13693715967e-09
1.09985885055e-09
8.67658799923e-09
6.38570515234e-09
1.41502328786e-08
2.58432013381e-08
4.30018271778e-09
2.45221700249e-09
3.09775929904e-09
1.33115641134e-08
1.34963969407e-08
8.77152947911e-09
1.97019176286e-08
6.3016739988e-09
1.80819271944e-08
1.21468382405e-08
1.62198447134e-08
1.38821734201e-08
2.09134480044e-09
1.11886974174e-08
1.72580563841e-08
5.58289701025e-09
7.19754554406e-09
2.60011126302e-08
1.03784730635e-08
1.29115775767e-08
5.25366784425e-08
1.66156315411e-10
1.40517370232e-09
1.8720050983e-08
6.02718378456e-10
1.0132517902e-08
1.22019083319e-08
7.90343570909e-09
2.08435599526e-08
1.16757436399e-08
4.1698629512e-09
1.08474873861e-09
5.55777234743e-09
1.12458806295e-08
1.82365224117e-08
1.04222831972e-08
2.22472208585e-08
6.93486233619e-09
8.61297954334e-09
1.34943255683e-08
2.38198480226e-09
1.0576611774e-08
1.63819806352e-08
1.03196646288e-08
1.16753193637e-08
6.28577133117e-09
9.69115854526e-09
5.99571719264e-10
4.34922037731e-08
3.45608836244e-09
1.4867071454e-09
7.98170612927e-09
4.57382753157e-09
1.08782085876e-08
8.61683899517e-09
1.48258998683e-08
2.88121673334e-09
2.11505693304e-08
2.5836892581e-09
3.9416659902e-09
5.48023984764e-10
2.23878201506e-09
6.04647303345e-09
2.24604486277e-08
1.48647870635e-08
1.64048428531e-08
8.272010842e-09
1.65762295869e-09
9.11576858508e-09
6.30514026855e-09
1.04821184626e-08
1.42420854053e-08
1.1053896333e-08
1.85001223033e-08
5.97171658655e-09
1.98067965663e-08
5.10934879275e-09
3.73855120842e-09
2.69430194685e-09
1.75029871918e-08
5.89049747772e-09
8.33186075116e-10
6.99971738276e-09
9.61563649418e-09
5.20874581349e-09
3.24371122844e-09
1.26852512979e-08
1.60662734704e-08
1.57723637659e-08
9.02921110724e-09
7.26438252267e-09
1.60129300737e-08
4.99346060036e-09
6.07441227224e-09
3.59153874759e-09
1.73042947933e-09
1.06298478993e-09
1.83289386537e-08
2.12958769988e-09
3.82114041915e-09
6.19196707266e-09
1.02754768045e-08
2.45722593837e-08
6.98678709589e-08
3.46383123335e-09
6.32875849452e-09
1.44901031305e-08
1.17621160673e-08
1.86983143197e-08
1.11137782267e-08
6.52454498121e-09
2.11478181386e-09
1.24831707664e-09
8.92287538966e-09
5.35882731545e-09
4.00966204691e-09
8.2474228329e-09
1.12676437661e-09
4.88638383486e-09
8.26573728615e-09
2.32391004002e-08
1.29823605145e-09
1.77981645904e-08
9.44684545589e-09
4.18999548858e-09
4.42474571994e-09
7.89739012471e-09
8.07089270129e-09
6.54867894096e-09
5.36944330475e-09
2.79777607294e-09
3.15949304263e-09
1.39683120952e-08
7.91817466172e-09
8.62120936539e-09
9.39313019898e-10
1.07533523349e-08
1.26749493287e-09
6.01727194405e-09
7.45810480913e-09
7.91709491006e-09
4.11580650371e-09
1.83176391193e-09
9.49950646292e-09
9.07950346509e-09
9.9641676479e-09
4.02247003548e-09
1.09658668648e-08
5.60908812827e-09
2.140608145e-09
8.5769270417e-10
7.77553489395e-09
1.06655400754e-08
7.01285512612e-10
3.00093577151e-09
1.66862117102e-08
2.46255166552e-09
3.75827195465e-10
1.67551412114e-08
1.57822843543e-08
2.9855396491e-09
3.50688403277e-09
2.53454365701e-09
3.22798567234e-08
9.34299055509e-09
6.62412883796e-09
1.81674869447e-10
1.04071102731e-08
6.90967082569e-09
1.86710907154e-08
2.51405569091e-09
3.04409174845e-08
7.37276782134e-09
1.2814677865e-09
1.70743542755e-09
9.42045608473e-09
1.22401013518e-08
2.19233216576e-08
1.24526027897e-08
7.44294401307e-09
3.49331526452e-08
6.64994749141e-09
3.92321045115e-09
5.39812098695e-09
2.68899997284e-09
7.27525906721e-09
1.23058627256e-09
2.98125112362e-10
1.57773242029e-09
8.8069184694e-09
1.04382280722e-09
4.77541866988e-09
5.68185380343e-09
1.59597265041e-08
2.35347271456e-09
6.24728324161e-09
6.01473646656e-09
1.97386391317e-08
9.96251584042e-09
1.15003725408e-08
1.12695822088e-08
5.88058649457e-09
1.50819472406e-09
1.04571117562e-08
2.09843751062e-08
9.62182529362e-09
1.11705112479e-08
1.11793645835e-08
9.80934176485e-09
2.21711167702e-09
7.84195168523e-09
6.09109903819e-09
3.7273944643e-09
4.65084724613e-09
1.84710115603e-08
3.15080169303e-08
9.27839346033e-09
3.13067253433e-09
1.21855921423e-08
4.54624458409e-09
1.32065443788e-08
4.08282759497e-10
1.28148451762e-09
8.07435615466e-10
1.28491880671e-08
2.0967028374e-09
4.63654628161e-09
4.0685760458e-09
7.54022873094e-09
8.49463879188e-09
4.11512318943e-09
1.19427310113e-09
6.04892137022e-09
6.24507284047e-09
7.49707530128e-09
4.29766063237e-09
1.07100274745e-08
1.69916621543e-08
2.5008161446e-08
3.13774398778e-08
8.55512309996e-09
2.96951025715e-09
6.23459997451e-09
1.21708836073e-08
4.04085385279e-09
3.92072450664e-09
1.34252818194e-10
7.67903604916e-09
3.01937185603e-08
1.61716562707e-08
1.9045527538e-09
1.17316266444e-08
1.41927459448e-08
8.31786760536e-09
1.00643273927e-08
5.70458437599e-09
6.55491187502e-09
7.06794716571e-09
1.20556127687e-09
1.65773308492e-08
1.06291069218e-08
1.12997843933e-08
1.58791527205e-08
7.70373974662e-09
1.44365481672e-08
2.20384073302e-09
9.6461405971e-10
2.0419542873e-09
1.04106916978e-08
3.83990516038e-09
3.16961118513e-09
5.03050808482e-09
2.54862049139e-09
1.92222666055e-08
1.34153314716e-08
1.23295478133e-08
7.52729312774e-09
4.13202259016e-09
1.66946083156e-08
3.61221574733e-09
6.03636459699e-09
5.07819454119e-10
9.08931853911e-10
1.89869014217e-08
2.31119991576e-08
7.49477626563e-10
2.23740594283e-09
3.13182111705e-09
2.14116835891e-09
8.1180551321e-09
1.08701692291e-08
2.57910161594e-09
1.20714323782e-08
1.50645056198e-08
6.35900167664e-09
4.63756568837e-09
3.74755890626e-09
1.23898061687e-08
1.0807511222e-08
9.66899906887e-09
7.58498870022e-09
2.49324320456e-09
6.2956980745e-09
8.44713917803e-09
6.7479225144e-09
9.72877118677e-09
3.6460836575e-09
2.32567519192e-09
1.00824951511e-08
2.03178547315e-08
9.76688586628e-09
1.5131716931e-08
1.32834488945e-08
1.23745624123e-08
1.3578144219e-08
4.85099894166e-09
7.68117262424e-10
6.07642636513e-09
6.66979926219e-09
8.80433926624e-09
5.53256125099e-09
1.50642133061e-08
1.4119660681e-10
7.00354912632e-10
9.17749296934e-09
7.63407973115e-09
6.82140224939e-09
3.56928292653e-09
6.27311553902e-10
6.12901475669e-09
1.2538253652e-08
1.00697861232e-08
1.40094547608e-08
1.18549560031e-08
4.36379054942e-09
5.46321075377e-09
5.36075017152e-09
3.84471210542e-09
2.65901930228e-08
2.0178158435e-09
5.1332858062e-09
3.88817198081e-09
1.09549400005e-09
5.65140166459e-09
5.02122888306e-09
2.16856767692e-09
6.77207801198e-09
1.74729192146e-09
9.22866791903e-09
1.7086248803e-08
1.92714420874e-08
5.5356350282e-10
6.72356608998e-09
4.55602006232e-09
2.00548479245e-09
4.03985772192e-09
6.72492331981e-09
3.51597948124e-09
4.88072150796e-09
5.48032030109e-10
1.00875725624e-08
2.81286989696e-09
8.9959883282e-09
5.67504498054e-09
8.57097967748e-09
6.80199985427e-09
5.13808146019e-09
1.39319887075e-09
3.96245856198e-09
3.02317119776e-09
8.71281426397e-09
7.95527649791e-09
1.32144798448e-08
3.62646544531e-08
1.93067214235e-08
5.23957517902e-08
1.13804091944e-08
3.91121313479e-09
9.82986994358e-09
1.55187034574e-08
1.3974342995e-08
4.24675031514e-09
1.09254420613e-08
1.44614560883e-08
7.55378538226e-09
4.92603093058e-09
8.1412096207e-09
1.24624769166e-08
1.46045139688e-08
1.65307014231e-08
1.91932312908e-08
2.63871809222e-08
2.65921930991e-08
1.04923289681e-08