# vtk DataFile Version 3.0
File Name: Molecule/sphere_cent/sphere_cent_0-s9.vtk
ASCII
DATASET UNSTRUCTURED_GRID
FIELD FieldData 1
TIME 1 1 double
0.0
POINTS 118 double
0.85021328926 0.5261991024 0.00062005862128
0.47235220671 0.84667766094 -0.24243919551
0.48212569952 0.8407689333 0.24063378572
-0.001276319148 0.86141717434 -0.50500309467
0.060023553669 0.9959731102 -0.015142192133
0.99561578035 -0.0039647156373 0.087982930243
0.84688133001 0.26810002327 0.4576344192
0.53288298845 -0.0076998295262 -0.844193995
0.76208233833 -0.3778591454 -0.52488148212
0.37322068214 -0.51373124123 -0.76969224215
0.85090869665 -0.52167236805 -0.04283836484
0.52621382475 -0.77254503965 -0.35001182556
0.95035821199 -0.17045965791 -0.25970208645
0.85000163317 -0.013414623216 -0.52637678385
0.95495831966 0.15668296814 -0.25159275532
0.80622899532 0.31329366565 -0.50151997805
0.16902700067 -0.26045095921 -0.95044201612
0.0051243240014 -0.52940028906 -0.84833866358
-0.16389754415 -0.25641548634 -0.95252919197
-0.3327691257 -0.50830286741 -0.79408437014
0.01668577455 0.056212160736 -0.99802112579
-0.010951969773 -0.85093766451 -0.52213400602
-0.54404973984 -0.017768651247 -0.83746916056
0.69058024883 0.58911365271 0.4194021821
0.42106211185 0.69126188755 0.58718633652
0.58793157339 0.42313334346 0.68937551975
0.26029804349 0.4821511507 0.83603262901
0.67761582136 0.60177886486 -0.42257145047
0.57392954826 0.43311974406 -0.69488877058
0.41709944606 0.69339007139 -0.58710807562
0.25603508949 0.47416764498 -0.84240931273
-0.32564225793 -0.49373367429 0.80602371693
-0.16029275954 -0.25776609778 0.95282888412
-0.52526795864 -0.00016891940322 0.85092359781
-0.0092302719131 0.04396013543 0.99834537506
-0.00058562943013 -0.52978587151 0.84806972742
0.16290104389 -0.26238504052 0.95109367371
0.3322699368 -0.51776170731 0.78793096542
0.06843264401 -0.83575862646 0.54256778955
-0.80549794436 0.31426799297 0.50210785866
-0.85267782211 -0.0021759953815 0.52258598804
-0.80327606201 -0.31940463185 0.50237745047
-0.95256662369 0.15845479071 0.26000532508
-0.95196896791 -0.16061916947 0.26082089543
-0.99950510263 0.00043385542813 -0.024553598836
-0.85087227821 0.52536940575 -0.00036825795542
-0.85116899014 -0.52488690615 0.00026588796754
-0.0087710246444 0.85642147064 0.51407456398
-0.2542745173 0.95451539755 0.15566089749
-0.49847462773 0.81024026871 0.30784830451
-0.2574685812 0.95273762941 -0.16077540815
-0.52216476202 0.85290890932 -0.0048218970187
-0.50536632538 0.80055367947 -0.32159507275
-0.42007395625 0.68436157703 0.59591192007
-0.68038827181 0.59182494879 0.43236970901
-0.57706975937 0.43294075131 0.69246739149
-0.28145512938 0.48304185271 0.82849872112
0.26877453923 -0.94866257906 -0.16666050255
-0.0080797728151 -0.99957638979 -0.014159211889
0.52960550785 -0.8481388092 -0.00073880713899
0.26127445698 -0.95117259026 0.16427448392
0.50180065632 -0.79794877768 0.33314934373
-0.50433075428 -0.80500817299 -0.31199216843
-0.52410495281 -0.85168468952 -0.0029208671767
-0.5076764822 -0.80732345581 0.30017596483
-0.27358868718 -0.94846987724 -0.16001628339
-0.27762386203 -0.94886779785 0.15031129122
-0.25085070729 -0.86409169436 0.43623635173
-0.027931598946 -0.96212399006 0.27125313878
-0.67927068472 -0.59521174431 0.42925047874
-0.44253596663 -0.68602991104 0.57752352953
-0.58866912127 -0.44105455279 0.67741686106
-0.18775188923 -0.71087473631 0.67781770229
-0.8104019165 -0.3072218895 -0.49861425161
-0.85181665421 -0.00087287148926 -0.52393233776
-0.80780744553 0.3083665967 -0.50209242105
-0.94668954611 -0.15652699769 -0.28170192242
-0.94625383615 0.15757986903 -0.28253751993
-0.42918887734 0.67666494846 -0.59818965197
-0.29468241334 0.50323724747 -0.81235700846
-0.58454090357 0.42553159595 -0.69070488214
-0.68740195036 0.57925087214 -0.43818873167
-0.60397082567 -0.43343153596 -0.66890263557
-0.44846180081 -0.68360459805 -0.57586139441
-0.6898881793 -0.58325523138 -0.42875498533
0.51609790325 0.008007215336 0.85641747713
0.45709815621 -0.26376351714 0.84928548336
0.69065231085 -0.15883211792 0.70550233126
0.60139220953 -0.4339762032 0.67070430517
0.79245877266 -0.32240867615 0.51716393232
0.45389044285 -0.67331886292 0.58363598585
0.68899798393 -0.57486391068 0.44133189321
0.87279736996 -0.40908390284 0.26414084435
0.71341043711 -0.67477047443 0.18836641312
0.86922574043 -0.042789768428 0.49183097482
0.70832145214 0.13223771751 0.69328987598
-0.26995870471 0.04438668862 -0.96196222305
-0.15159025788 0.29004472494 -0.94486945868
-0.41222319007 0.25780838728 -0.87398344278
0.40330657363 0.25306940079 0.87912750244
0.2671353817 0.029551150277 0.96302300692
-0.13407881558 0.68665659428 0.71457993984
0.1298174262 0.69039553404 0.71120834351
-0.0086526395753 0.49793511629 0.86714833975
-0.14040760696 0.28077378869 0.94933062792
0.12811952829 0.27757421136 0.95207518339
-0.019840288907 0.51770013571 -0.85514974594
0.12688733637 0.68832099438 -0.71422147751
-0.1425421983 0.69550585747 -0.70433807373
0.24659192562 0.88243865967 0.39972364902
0.13961367309 0.27658396959 -0.95065414906
0.27550926805 0.95287293196 0.12703193724
0.036822587252 0.96402001381 0.26377630234
0.45663568377 -0.6734713912 -0.58142107725
0.19632029533 -0.71506470442 -0.67124438286
0.2722388804 -0.84412878752 -0.46237331629
0.28047442436 0.036926954985 -0.95916837454
0.40076395869 0.24511384964 -0.88286656141

CELLS 232 928
3 0 1 2
3 1 3 4
3 5 0 6
3 7 8 9
3 8 10 11
3 8 12 10
3 10 12 5
3 8 13 12
3 13 14 12
3 13 15 14
3 12 14 5
3 15 13 7
3 7 13 8
3 5 14 0
3 14 15 0
3 9 16 7
3 9 17 16
3 17 18 16
3 17 19 18
3 16 18 20
3 19 17 21
3 18 19 22
3 2 23 0
3 0 23 6
3 2 24 23
3 24 25 23
3 24 26 25
3 23 25 6
3 15 27 0
3 0 27 1
3 15 28 27
3 28 29 27
3 28 30 29
3 27 29 1
3 7 28 15
3 1 29 3
3 31 32 33
3 33 32 34
3 31 35 32
3 35 36 32
3 35 37 36
3 32 36 34
3 37 35 38
3 39 40 33
3 33 40 41
3 39 42 40
3 42 43 40
3 42 44 43
3 40 43 41
3 44 42 45
3 45 42 39
3 41 43 46
3 43 44 46
3 47 48 49
3 4 50 48
3 50 51 48
3 50 52 51
3 48 51 49
3 52 50 3
3 3 50 4
3 49 51 45
3 51 52 45
3 49 53 47
3 49 54 53
3 54 55 53
3 54 39 55
3 53 55 56
3 39 54 45
3 45 54 49
3 56 55 33
3 55 39 33
3 21 57 58
3 11 59 57
3 59 60 57
3 59 61 60
3 57 60 58
3 10 59 11
3 60 61 38
3 62 63 46
3 46 63 64
3 62 65 63
3 65 66 63
3 65 58 66
3 63 66 64
3 58 65 21
3 21 65 62
3 64 66 67
3 66 68 67
3 66 58 68
3 67 68 38
3 64 69 46
3 46 69 41
3 64 70 69
3 70 71 69
3 70 31 71
3 69 71 41
3 64 67 70
3 67 72 70
3 67 38 72
3 70 72 31
3 41 71 33
3 71 31 33
3 31 72 35
3 35 72 38
3 38 68 60
3 60 68 58
3 73 74 22
3 22 74 75
3 73 76 74
3 76 77 74
3 76 44 77
3 74 77 75
3 44 76 46
3 46 76 73
3 75 77 45
3 77 44 45
3 3 78 52
3 79 80 78
3 80 81 78
3 80 75 81
3 78 81 52
3 75 80 22
3 52 81 45
3 81 75 45
3 19 82 22
3 22 82 73
3 19 83 82
3 83 84 82
3 83 62 84
3 82 84 73
3 62 83 21
3 21 83 19
3 73 84 46
3 84 62 46
3 85 86 87
3 86 88 87
3 86 37 88
3 87 88 89
3 37 90 88
3 90 91 88
3 90 61 91
3 88 91 89
3 61 90 38
3 38 90 37
3 89 91 92
3 91 93 92
3 91 61 93
3 92 93 10
3 89 92 94
3 5 92 10
3 6 94 5
3 5 94 92
3 89 94 87
3 94 95 87
3 94 6 95
3 87 95 85
3 20 96 97
3 96 98 97
3 96 22 98
3 97 98 79
3 22 96 18
3 18 96 20
3 85 95 99
3 25 95 6
3 37 86 36
3 36 86 100
3 10 93 59
3 59 93 61
3 79 98 80
3 80 98 22
3 47 101 102
3 101 103 102
3 101 56 103
3 102 103 26
3 56 104 103
3 104 105 103
3 104 34 105
3 103 105 26
3 34 104 33
3 33 104 56
3 26 105 99
3 105 100 99
3 105 34 100
3 99 100 85
3 30 106 107
3 106 108 107
3 106 79 108
3 107 108 3
3 47 102 109
3 24 102 26
3 26 99 25
3 25 99 95
3 30 107 29
3 29 107 3
3 85 100 86
3 36 100 34
3 56 101 53
3 53 101 47
3 3 108 78
3 78 108 79
3 79 106 97
3 97 106 110
3 4 111 1
3 1 111 2
3 2 111 109
3 111 112 109
3 111 4 112
3 109 112 47
3 11 113 8
3 8 113 9
3 9 113 114
3 113 115 114
3 113 11 115
3 114 115 21
3 7 116 117
3 116 110 117
3 116 20 110
3 117 110 30
3 20 116 16
3 16 116 7
3 9 114 17
3 17 114 21
3 2 109 24
3 24 109 102
3 7 117 28
3 28 117 30
3 47 112 48
3 48 112 4
3 21 115 57
3 57 115 11
3 30 110 106
3 97 110 20

CELL_TYPES 232
5
5
5
5
5
5
5
5
5
5
5
5
5
5
5
5
5
5
5
5
5
5
5
5
5
5
5
5
5
5
5
5
5
5
5
5
5
5
5
5
5
5
5
5
5
5
5
5
5
5
5
5
5
5
5
5
5
5
5
5
5
5
5
5
5
5
5
5
5
5
5
5
5
5
5
5
5
5
5
5
5
5
5
5
5
5
5
5
5
5
5
5
5
5
5
5
5
5
5
5
5
5
5
5
5
5
5
5
5
5
5
5
5
5
5
5
5
5
5
5
5
5
5
5
5
5
5
5
5
5
5
5
5
5
5
5
5
5
5
5
5
5
5
5
5
5
5
5
5
5
5
5
5
5
5
5
5
5
5
5
5
5
5
5
5
5
5
5
5
5
5
5
5
5
5
5
5
5
5
5
5
5
5
5
5
5
5
5
5
5
5
5
5
5
5
5
5
5
5
5
5
5
5
5
5
5
5
5
5
5
5
5
5
5
5
5
5
5
5
5
5
5
5
5
5
5
5
5
5
5
5
5

CELL_DATA 232
SCALARS cell_data_0 double
LOOKUP_TABLE default
3.2950014854e-06
3.3388365308e-06
3.60348206144e-06
3.49396130851e-06
2.98204816108e-06
9.63660401953e-07
1.58674543717e-06
1.56820736305e-07
2.63195877645e-07
4.65932262586e-07
2.24697238342e-07
8.37998578503e-07
9.15572854418e-07
7.64627719024e-07
5.47620198934e-07
2.12915060277e-07
1.64465556302e-06
2.15771535452e-06
1.69026133155e-06
1.12837010693e-06
3.13444080339e-07
8.48635869976e-07
1.06878863705e-06
6.42564664818e-07
7.61316519148e-08
3.56811741188e-07
7.82057700739e-09
1.96968902978e-07
1.08992690355e-06
6.87949514259e-07
5.07731117917e-07
3.1810255148e-07
1.66822372136e-07
3.42385944408e-07
6.55112725196e-07
1.20322622475e-06
8.72263429763e-07
1.04507159168e-06
4.87194610982e-08
8.58349475788e-08
1.38592606367e-07
1.04769303828e-07
3.77628436926e-07
7.23562159465e-08
9.84224074205e-07
1.14127235628e-06
2.75245768763e-07
5.71033049877e-07
3.30279601125e-07
7.96637249548e-07
1.60894079891e-07
9.10284514729e-07
8.39369043579e-07
4.42690280023e-07
1.52884368633e-07
4.8789282018e-07
7.54055443168e-07
9.45370271421e-07
9.02842966289e-07
6.71406472864e-07
1.75956344175e-07
6.60200033743e-07
6.02800059322e-07
8.09371452925e-07
1.93843875204e-07
1.12165729254e-06
7.8577745127e-07
1.05809762683e-07
3.63368563883e-07
1.32578463246e-07
5.16438879328e-08
7.56390294974e-07
9.74762538494e-08
3.83624408716e-07
2.01410465335e-07
1.06738657243e-07
1.09537872166e-06
5.78743568069e-07
7.20472370811e-07
1.49501210623e-07
3.75951034075e-07
4.63457907687e-08
3.0631599034e-07
6.01125265272e-07
4.52761544625e-07
7.57847776175e-07
3.43019711722e-07
2.40880154543e-07
5.82171390864e-07
8.33975517637e-07
2.47892352035e-07
1.08298004529e-06
8.38788136415e-07
2.77095908618e-07
4.52108359823e-07
2.663495882e-07
6.04283250541e-07
2.3595770149e-07
5.18668193333e-07
3.56007777708e-07
1.09470385225e-06
8.61007626236e-07
1.13055539335e-07
4.27718929124e-07
5.83862465264e-07
4.62624999596e-07
1.46081765687e-07
8.64473834032e-07
1.08078222716e-06
1.21251597736e-07
4.31944709958e-07
6.09253892187e-07
9.38219984567e-07
2.08726952502e-07
7.94682218343e-07
9.92953929188e-07
1.6127203434e-06
1.23343079031e-07
1.24972596582e-07
4.36226943519e-07
2.99889702024e-07
1.47265574159e-06
1.11610613195e-06
8.98987699772e-07
1.07092503015e-06
1.33221847386e-09
4.18403229322e-07
1.49015535086e-08
4.7876935115e-07
1.02687258684e-06
6.87425738037e-07
7.4841794244e-07
2.75192826258e-07
7.08637749957e-07
3.20676436725e-07
1.21137876347e-07
5.44048116205e-09
2.88035773616e-08
1.42957125667e-07
4.5194478791e-08
1.68397433387e-07
4.03555560453e-08
8.57376750436e-08
5.36987717643e-08
1.5667361352e-07
7.23443081573e-08
4.30272119556e-08
5.10724986472e-07
1.1878025496e-08
1.18137492634e-06
6.76310193042e-07
1.49349803667e-06
1.01209529264e-07
2.81746575801e-08
2.15617828584e-07
3.4232174986e-07
3.44840738822e-09
7.79401828011e-08
2.95970384839e-07
1.22793557449e-07
3.38455974451e-07
4.05316971168e-07
2.55255716944e-07
1.35211602839e-07
1.28535854445e-07
2.64929451492e-07
2.48803234417e-07
1.32571944963e-07
9.00929151243e-08
3.13868558636e-07
6.50543624853e-07
1.85595179011e-08
5.67806808382e-07
1.38738302675e-08
6.58103768153e-07
7.94227398102e-08
2.2489624322e-07
6.31236208388e-08
8.51376328592e-07
5.83250535679e-08
1.00321920801e-07
1.18216706907e-07
4.85692156574e-08
3.91980625239e-07
6.61649498815e-08
1.02535230793e-07
2.9570903167e-11
2.53634374279e-07
2.76785546171e-07
2.80110760102e-07
3.24961053422e-09
2.52862927111e-07
1.11349681377e-07
1.02059526056e-07
8.99575921577e-08
1.59417876635e-08
7.35630321398e-07
2.66455756962e-07
2.67426278328e-07
4.64435456693e-08
6.4092704665e-08
3.1099109428e-07
4.19612190072e-07
3.80998267527e-07
1.53396596812e-07
8.86154407251e-08
1.33472180567e-07
4.73594557712e-07
6.82916264841e-07
8.02306706958e-07
3.423550646e-08
2.50768758923e-07
1.25558220386e-07
4.63443664689e-07
4.50414525042e-07
3.00752117853e-07
8.94761179413e-08
3.17044705388e-08
5.2254249202e-07
8.86493586918e-07
5.35230771779e-07
9.62917931343e-07
1.2817169617e-07
1.46057347563e-08
4.04296968644e-07
1.96042977709e-07
1.80410200855e-07
7.65313031456e-08
3.2437580947e-08
1.02534352382e-07
2.06265758354e-08
1.29564805816e-07

