# vtk DataFile Version 3.0
File Name: Molecule/sphere_cent/sphere_cent_0-s6.vtk
ASCII
DATASET UNSTRUCTURED_GRID
FIELD FieldData 1
TIME 1 1 double
0.0
POINTS 87 double
0.85063701868 0.52557784319 0.00018597353483
0.48106330633 0.83541589975 -0.26256045699
0.47754949331 0.83938091993 0.25625991821
0.042254209518 0.99837142229 0.00018260162324
0.00029820617056 0.85080683231 -0.52539390326
0.00055599719053 0.85047489405 0.52587658167
-0.27389031649 0.48515811563 0.82946693897
0.25397205353 0.47818040848 0.8396922946
-0.0026706259232 0.054102145135 0.99767923355
-0.52598679066 -0.00049247645075 0.85046356916
0.52511668205 0.00076566252392 0.85093134642
0.35496753454 -0.51479208469 0.77956944704
0.80821764469 -0.31056410074 0.50028049946
0.51510107517 -0.78466695547 0.34255480766
0.030124943703 -0.8436166048 0.53314042091
0.85078316927 -0.52539122105 -0.0009882095037
0.99734467268 -0.0012467957567 0.065680079162
0.83801811934 0.25455650687 0.48121744394
0.52568274736 -0.00021537976863 -0.85057246685
0.77371954918 -0.36164009571 -0.51886290312
0.35932764411 -0.52057397366 -0.7737441659
0.51132190228 -0.78665953875 -0.34303557873
-0.00014552449284 -0.85031837225 -0.52617186308
-0.0019701260608 0.06514608115 -0.99715638161
0.26248914003 0.48256921768 -0.83443629742
-0.29735046625 0.49484315515 -0.81479948759
-0.52492570877 -0.0010603250703 -0.85110479593
0.95091569424 -0.16531987488 -0.2610886395
0.85070383549 -0.0065936194733 -0.52555990219
0.95302343369 0.15898646414 -0.25775891542
0.80467170477 0.31569847465 -0.50247168541
0.16457574069 -0.26159244776 -0.95090192556
0.00068204803392 -0.52759045362 -0.84939312935
-0.16412170231 -0.26112928987 -0.951161623
-0.34718066454 -0.51418405771 -0.78405922651
0.68939161301 0.58764541149 0.4232659936
0.42302983999 0.68933862448 0.58784884214
0.58743822575 0.42301946878 0.68975800276
0.67939847708 0.5975510478 -0.425799191
0.57800710201 0.43338745832 -0.69140839577
0.4223369956 0.68996232748 -0.58755689859
-0.32957169414 -0.50210016966 0.79925775528
-0.16168661416 -0.26112794876 0.95168536901
0.00081470992882 -0.52698647976 0.84973949194
0.16358543932 -0.26230314374 0.95097404718
-0.80379831791 0.31706139445 0.50297427177
-0.85165053606 -0.0019497561734 0.52419632673
-0.79830598831 -0.3264554739 0.50558298826
-0.95210319757 0.15997520089 0.26065129042
-0.95153987408 -0.16168753803 0.2615455687
-0.99896037579 0.00052068609511 -0.037533588707
-0.85076910257 0.52553570271 0.00054508959875
-0.85097980499 -0.52519720793 0.00077271362534
-0.26050469279 0.95234578848 0.15879391134
-0.49927726388 0.80954384804 0.3083166182
-0.26249212027 0.95120406151 -0.16204878688
-0.52408176661 0.85173994303 -0.0033070966601
-0.50831639767 0.79545217752 -0.32920897007
-0.4243516922 0.68591803312 0.59111243486
-0.68103820086 0.5927323699 0.43017470837
-0.57940667868 0.43295121193 0.69053936005
0.26500040293 -0.95049309731 -0.16260029376
-0.012193709612 -0.99964177608 -0.0061851581559
0.52576291561 -0.85059785843 0.00027874053922
0.26358214021 -0.95066875219 0.16312111914
-0.50519347191 -0.80231648684 -0.31734225154
-0.52489948273 -0.8512237072 -0.0014260052703
-0.50341230631 -0.80843228102 0.30418819189
-0.27261665463 -0.94861382246 -0.16089124978
-0.27394205332 -0.94896405935 0.1563552171
-0.25562536716 -0.86337035894 0.43495690823
-0.020051080734 -0.96209061146 0.27172762156
-0.67742693424 -0.5976742506 0.42882812023
-0.43929731846 -0.68850398064 0.57706338167
-0.58806377649 -0.44126886129 0.67787617445
-0.18289129436 -0.70905172825 0.68097007275
-0.81002950668 -0.30789145827 -0.49877989292
-0.85099887848 0.00016952306032 -0.52522540092
-0.80841368437 0.30863595009 -0.50095534325
-0.94566565752 -0.15967200696 -0.28359681368
-0.94526904821 0.16047739983 -0.2844171524
-0.43003860116 0.67675554752 -0.5976459384
-0.58772289753 0.42575860023 -0.68803650141
-0.68970841169 0.57743406296 -0.43713146448
-0.60690224171 -0.43160831928 -0.66743397713
-0.44865438342 -0.68563437462 -0.57337272167
-0.69026345015 -0.5821698904 -0.42963862419

CELLS 170 680
3 0 1 2
3 1 3 2
3 1 4 3
3 2 3 5
3 5 6 7
3 6 8 7
3 6 9 8
3 7 8 10
3 10 11 12
3 11 13 12
3 11 14 13
3 12 13 15
3 15 16 12
3 16 17 12
3 16 0 17
3 12 17 10
3 18 19 20
3 19 21 20
3 19 15 21
3 20 21 22
3 18 23 24
3 23 25 24
3 23 26 25
3 24 25 4
3 19 27 15
3 15 27 16
3 19 28 27
3 28 29 27
3 28 30 29
3 27 29 16
3 30 28 18
3 18 28 19
3 16 29 0
3 29 30 0
3 20 31 18
3 18 31 23
3 20 32 31
3 32 33 31
3 32 34 33
3 31 33 23
3 34 32 22
3 22 32 20
3 23 33 26
3 33 34 26
3 2 35 0
3 0 35 17
3 2 36 35
3 36 37 35
3 36 7 37
3 35 37 17
3 7 36 5
3 5 36 2
3 17 37 10
3 37 7 10
3 30 38 0
3 0 38 1
3 30 39 38
3 39 40 38
3 39 24 40
3 38 40 1
3 24 39 18
3 18 39 30
3 1 40 4
3 40 24 4
3 41 42 9
3 9 42 8
3 41 43 42
3 43 44 42
3 43 11 44
3 42 44 8
3 11 43 14
3 8 44 10
3 44 11 10
3 45 46 9
3 9 46 47
3 45 48 46
3 48 49 46
3 48 50 49
3 46 49 47
3 50 48 51
3 51 48 45
3 47 49 52
3 49 50 52
3 3 53 5
3 5 53 54
3 3 55 53
3 55 56 53
3 55 57 56
3 53 56 54
3 57 55 4
3 4 55 3
3 54 56 51
3 56 57 51
3 54 58 5
3 5 58 6
3 54 59 58
3 59 60 58
3 59 45 60
3 58 60 6
3 45 59 51
3 51 59 54
3 6 60 9
3 60 45 9
3 21 61 22
3 22 61 62
3 21 63 61
3 63 64 61
3 63 13 64
3 61 64 62
3 13 63 15
3 15 63 21
3 64 13 14
3 65 66 52
3 52 66 67
3 65 68 66
3 68 69 66
3 68 62 69
3 66 69 67
3 62 68 22
3 22 68 65
3 67 69 70
3 69 71 70
3 69 62 71
3 70 71 14
3 67 72 52
3 52 72 47
3 67 73 72
3 73 74 72
3 73 41 74
3 72 74 47
3 67 70 73
3 70 75 73
3 70 14 75
3 73 75 41
3 47 74 9
3 74 41 9
3 41 75 43
3 43 75 14
3 14 71 64
3 64 71 62
3 76 77 26
3 26 77 78
3 76 79 77
3 79 80 77
3 79 50 80
3 77 80 78
3 50 79 52
3 52 79 76
3 78 80 51
3 80 50 51
3 25 81 4
3 4 81 57
3 25 82 81
3 82 83 81
3 82 78 83
3 81 83 57
3 78 82 26
3 26 82 25
3 57 83 51
3 83 78 51
3 34 84 26
3 26 84 76
3 34 85 84
3 85 86 84
3 85 65 86
3 84 86 76
3 65 85 22
3 22 85 34
3 76 86 52
3 86 65 52

CELL_TYPES 170
5
5
5
5
5
5
5
5
5
5
5
5
5
5
5
5
5
5
5
5
5
5
5
5
5
5
5
5
5
5
5
5
5
5
5
5
5
5
5
5
5
5
5
5
5
5
5
5
5
5
5
5
5
5
5
5
5
5
5
5
5
5
5
5
5
5
5
5
5
5
5
5
5
5
5
5
5
5
5
5
5
5
5
5
5
5
5
5
5
5
5
5
5
5
5
5
5
5
5
5
5
5
5
5
5
5
5
5
5
5
5
5
5
5
5
5
5
5
5
5
5
5
5
5
5
5
5
5
5
5
5
5
5
5
5
5
5
5
5
5
5
5
5
5
5
5
5
5
5
5
5
5
5
5
5
5
5
5
5
5
5
5
5
5
5
5
5
5
5
5

CELL_DATA 170
SCALARS cell_data_0 double
LOOKUP_TABLE default
8.68895274968e-07
3.24947246386e-07
7.8895191809e-07
8.91431338871e-07
1.08983330937e-06
5.05394422207e-08
8.6281886642e-07
5.99898729572e-07
2.48182530465e-06
4.82106773781e-06
1.85801625057e-06
4.79147923004e-06
2.76248525028e-06
4.05250546505e-06
2.40313126374e-06
4.36054481984e-06
1.99364006158e-06
1.96814279285e-06
1.544157859e-06
3.93785739785e-06
1.85892034778e-06
3.42279801929e-06
4.11302802879e-06
3.53907356261e-06
6.59900234121e-07
3.29884042722e-07
9.58513931943e-07
1.22609196979e-07
6.02802577562e-07
6.57388387225e-07
9.44835364433e-08
5.5238719496e-07
5.61531206225e-08
2.45748364335e-07
5.0113342267e-07
1.4531067026e-07
2.9864522314e-07
5.98363337493e-07
2.96554244673e-07
1.0881000127e-06
1.1944621235e-06
9.51946962952e-07
2.14795181149e-07
6.99784979582e-07
1.09099614123e-07
9.84332828105e-07
6.94781369834e-07
3.3615424706e-07
1.10895989494e-06
3.59498227378e-07
1.93273134828e-07
1.70452971347e-07
1.47941323391e-07
9.71393808993e-07
1.1570861077e-06
1.67320433281e-06
2.37178424191e-06
1.46574832035e-06
1.54726320938e-06
1.63096653222e-06
1.53296878425e-06
1.19742762941e-06
1.86033768374e-07
6.53733930388e-08
9.25797968411e-07
1.02018406643e-06
9.81203324426e-07
2.29619508857e-07
8.03984393654e-07
1.16019644438e-06
3.35839110813e-07
4.17333828135e-07
6.18431792131e-07
1.02624986115e-06
4.38814545473e-07
1.23926552391e-06
2.17568603491e-07
9.81233341056e-09
4.02540969174e-07
1.0370644642e-06
3.73349781882e-07
1.02642185572e-06
1.06079799903e-06
2.73777657551e-07
1.84272056861e-08
7.94495743701e-07
8.50354107254e-08
9.87252090977e-07
9.76553591706e-07
5.20233858483e-08
3.76376292343e-07
6.20800615459e-07
5.34524636303e-07
1.02549230908e-07
1.9980042736e-08
7.16998826053e-07
1.44860892877e-07
1.27013348918e-06
1.01183447651e-06
4.6023936448e-07
2.35043845256e-07
9.29523697117e-07
9.32282093716e-07
4.66021145292e-07
9.24650879788e-07
5.7387022846e-07
2.01796808192e-07
3.10359654556e-07
3.81028483049e-08
4.5561308899e-07
1.0985061187e-07
8.00614350522e-07
1.04217256117e-06
9.26075452812e-07
4.01822773648e-08
3.32226742949e-07
1.85737786971e-07
1.310533634e-07
1.06356573294e-06
1.18726222382e-06
9.31265270387e-08
1.28744140609e-07
1.40802434371e-07
5.97099849619e-07
7.86180177631e-07
9.24930510168e-07
2.02570365781e-08
1.75420926493e-07
8.95046484314e-07
5.21562222698e-07
9.37701297851e-08
5.26733782421e-08
6.80078866079e-07
5.08809392344e-07
4.48297370154e-07
8.59511096603e-07
6.09001721203e-07
2.93058000984e-07
3.00444409315e-07
1.57496720656e-08
4.1870771993e-07
1.50687110178e-07
5.65151420355e-07
2.25769551905e-07
2.14559234939e-07
9.01487279007e-07
9.07611799752e-07
8.21948103819e-07
2.13614088553e-07
8.04997146584e-07
8.96986161485e-07
1.40684095636e-07
2.88325889936e-08
2.11469497973e-07
5.26178290477e-07
7.22473076951e-07
5.13841923148e-07
9.41395607914e-07
2.20986585589e-07
1.64919586043e-07
9.97353715174e-07
9.27569473509e-07
2.34950565863e-07
5.46443334687e-08
2.51020047732e-07
2.90311677042e-07
9.91256702154e-07
9.89968198528e-07
8.48142131976e-07
9.08862224208e-07

