# vtk DataFile Version 3.0
File Name: Molecule/sphere_cent/sphere_cent_0-s3.vtk
ASCII
DATASET UNSTRUCTURED_GRID
FIELD FieldData 1
TIME 1 1 double
0.0
POINTS 60 double
0.8507822752 0.52552741766 -9.7995070973e-06
0.49387291074 0.81607788801 -0.29446065426
0.48929545283 0.82295888662 0.28300815821
-0.00076430453919 0.99996817112 -0.00023958529346
0.00028011889663 0.85060071945 -0.52580726147
0.00067176745506 0.85051602125 0.52590298653
-0.4999358058 0.80894291401 0.30901184678
-0.49995872378 0.80893057585 -0.30899512768
-0.85077726841 0.52552235126 0.00017674241099
-0.30920872092 0.49991437793 0.80890142918
-0.79911714792 0.32195347548 0.50441336632
-0.52580291033 -0.000182281874 0.85064792633
0.28202101588 0.48883894086 0.82336425781
-0.00070705451071 0.016440289095 0.99783319235
0.52570801973 0.00047384900972 0.85068368912
0.32210114598 -0.50411206484 0.79926472902
0.80865514278 -0.30939665437 0.50024867058
0.50002676249 -0.80900084972 0.30875450373
1.9645584359e-07 -0.85048907995 0.52598798275
0.85093045235 -0.52523177862 -0.00041182033601
0.99820119143 0.00023095082724 0.032214835286
0.82293438911 0.28266638517 0.48982998729
-0.52523779869 -0.00041251053335 -0.85092806816
-0.80936050415 -0.3087143898 -0.49946412444
-0.80893605947 0.30897116661 -0.49997141957
-0.99814397097 1.2336265172e-05 -0.017142755911
-0.85078054667 -0.52551662922 0.00018979533343
-0.30950313807 0.50041246414 -0.80853617191
-0.50010472536 -0.80912303925 -0.30833494663
-0.50001889467 -0.80901414156 0.30876883864
-1.3032021116e-06 -0.99990260601 -2.0678013243e-05
-3.2131497392e-06 -0.85026359558 -0.52630978823
-0.7986727953 -0.32229578495 0.50397646427
-0.32237273455 -0.50414907932 0.79844915867
-0.33430182934 -0.50895363092 -0.79157024622
0.49963462353 -0.80957472324 -0.3080919683
0.52590602636 -0.0001345727942 -0.85054832697
0.79149913788 -0.33425730467 -0.50923228264
0.33385825157 -0.50923901796 -0.79130601883
8.1928490545e-05 0.031295206398 -0.9978889823
0.2946023047 0.49367535114 -0.81614995003
0.95105540752 -0.16203716397 -0.26311659813
0.85111498833 -0.00097345223185 -0.52502810955
0.95138865709 0.16125291586 -0.26250696182
0.80202752352 0.31985372305 -0.50402754545
0.16208128631 -0.26318910718 -0.95101940632
-4.3158406697e-06 -0.52530860901 -0.85090899467
-0.16203099489 -0.26318082213 -0.95104080439
0.68795186281 0.58772623539 0.42576870322
0.42574545741 0.68787592649 0.58784461021
0.58774328232 0.42575517297 0.68794631958
0.6815688014 0.59407275915 -0.42739579082
0.58150839806 0.43219184875 -0.68933540583
0.42529827356 0.68821913004 -0.58779042959
-0.16203571856 -0.26332694292 0.95104420185
-2.4018761906e-05 -0.52516424656 0.85102146864
0.16187119484 -0.26326107979 0.9510871172
-0.85100948811 -3.828091576e-05 0.52522498369
-0.95107865334 0.16186714172 0.26320642233
-0.95107090473 -0.16190822423 0.26321923733

CELLS 116 464
3 0 1 2
3 1 3 2
3 1 4 3
3 2 3 5
3 5 3 6
3 3 7 6
3 3 4 7
3 6 7 8
3 5 6 9
3 6 10 9
3 6 8 10
3 9 10 11
3 5 9 12
3 9 13 12
3 9 11 13
3 12 13 14
3 14 15 16
3 15 17 16
3 15 18 17
3 16 17 19
3 19 20 16
3 20 21 16
3 20 0 21
3 16 21 14
3 22 23 24
3 23 25 24
3 23 26 25
3 24 25 8
3 4 27 7
3 27 24 7
3 27 22 24
3 7 24 8
3 26 28 29
3 28 30 29
3 28 31 30
3 29 30 18
3 26 29 32
3 29 33 32
3 29 18 33
3 32 33 11
3 22 34 23
3 34 28 23
3 34 31 28
3 23 28 26
3 31 35 30
3 35 17 30
3 35 19 17
3 30 17 18
3 36 37 38
3 37 35 38
3 37 19 35
3 38 35 31
3 36 39 40
3 39 27 40
3 39 22 27
3 40 27 4
3 37 41 19
3 19 41 20
3 37 42 41
3 42 43 41
3 42 44 43
3 41 43 20
3 44 42 36
3 36 42 37
3 20 43 0
3 43 44 0
3 38 45 36
3 36 45 39
3 38 46 45
3 46 47 45
3 46 34 47
3 45 47 39
3 34 46 31
3 31 46 38
3 39 47 22
3 47 34 22
3 2 48 0
3 0 48 21
3 2 49 48
3 49 50 48
3 49 12 50
3 48 50 21
3 12 49 5
3 5 49 2
3 21 50 14
3 50 12 14
3 44 51 0
3 0 51 1
3 44 52 51
3 52 53 51
3 52 40 53
3 51 53 1
3 40 52 36
3 36 52 44
3 1 53 4
3 53 40 4
3 33 54 11
3 11 54 13
3 33 55 54
3 55 56 54
3 55 15 56
3 54 56 13
3 15 55 18
3 18 55 33
3 13 56 14
3 56 15 14
3 10 57 11
3 11 57 32
3 10 58 57
3 58 59 57
3 58 25 59
3 57 59 32
3 25 58 8
3 8 58 10
3 32 59 26
3 59 25 26

CELL_TYPES 116
5
5
5
5
5
5
5
5
5
5
5
5
5
5
5
5
5
5
5
5
5
5
5
5
5
5
5
5
5
5
5
5
5
5
5
5
5
5
5
5
5
5
5
5
5
5
5
5
5
5
5
5
5
5
5
5
5
5
5
5
5
5
5
5
5
5
5
5
5
5
5
5
5
5
5
5
5
5
5
5
5
5
5
5
5
5
5
5
5
5
5
5
5
5
5
5
5
5
5
5
5
5
5
5
5
5
5
5
5
5
5
5
5
5
5
5

CELL_DATA 116
SCALARS cell_data_0 double
LOOKUP_TABLE default
5.28308525596e-07
1.81385689508e-06
8.55728657366e-07
1.37656407337e-07
1.03143607651e-06
4.38152482529e-06
6.12022256976e-07
1.12559267816e-08
5.46393202503e-07
3.98231126099e-06
8.30438987662e-07
1.51933008957e-06
4.14436905434e-07
7.53498986035e-07
4.97689524947e-07
5.22600001063e-08
9.05998953175e-07
2.11027321682e-06
7.25432817961e-07
6.2110761931e-07
3.00252885966e-08
4.43902877984e-07
6.46896223565e-07
3.29287463426e-08
6.92638284465e-07
1.92661542425e-06
5.01489083972e-07
7.62304576025e-07
3.34906235324e-07
3.59119481542e-06
2.10650259031e-07
4.96651254027e-07
5.56719151215e-09
3.20437118428e-06
5.10487078146e-07
2.96674584984e-07
2.57125267497e-07
2.32058098939e-06
6.22283136288e-07
1.2069570191e-06
6.60072913118e-08
2.66761958685e-06
1.91060753846e-07
1.67409310078e-07
2.04960042382e-06
5.40722547115e-06
2.55074237287e-06
2.57615536392e-07
6.97612202576e-07
3.47810010448e-06
3.1620049682e-06
1.66543319611e-06
9.06688242248e-07
1.05348622835e-06
5.58212486763e-07
8.62271030004e-08
4.24831113555e-07
4.65625992683e-07
8.08256188143e-07
1.99535795123e-07
1.12726701242e-06
1.32986786438e-06
4.40263674911e-07
9.50876238228e-07
1.17066323809e-06
6.08405025997e-07
1.08119220535e-06
1.0388485431e-06
8.21852703641e-07
4.05657539518e-07
4.63101622219e-07
7.85743009981e-07
5.70281146092e-07
1.20684447901e-06
1.12343297408e-06
5.58266916143e-07
4.9353436339e-07
2.87835175378e-07
8.12611757829e-07
4.10442815529e-07
8.21744521589e-07
6.9643700931e-07
9.07325152209e-07
9.08533520712e-07
3.23026746112e-07
5.54062890459e-07
1.22962383515e-07
3.80319088349e-07
6.47034857792e-07
3.70841798368e-07
8.53228566304e-07
7.15990755646e-07
1.18680124973e-06
4.08947157212e-07
5.64473733399e-07
8.14305434766e-07
2.77473554683e-07
4.59283007789e-07
6.3358891421e-07
5.09301194263e-07
4.11564791283e-07
7.61429850247e-07
6.57820099735e-08
4.22538681099e-07
5.02320022909e-07
1.13021958938e-07
1.24907290753e-07
2.57797014686e-07
4.13443823216e-07
5.06969841308e-07
7.77456529842e-07
6.21882297018e-07
1.14937729223e-06
5.46729976452e-07
6.20049621181e-07
8.73980795723e-07

