# vtk DataFile Version 3.0
File Name: Molecule/sphere_cent/sphere_cent_0-s30.vtk
ASCII
DATASET UNSTRUCTURED_GRID
FIELD FieldData 1
TIME 1 1 double
0.0
POINTS 945 double
-0.43260258436 0.62706750631 0.64719003439
-0.49094808102 0.51116573811 0.70537304878
-0.33771145344 0.52762919664 0.77943176031
-0.87209075689 0.080246426165 -0.4825476706
-0.91035997868 0.16515831649 -0.37897771597
-0.84475749731 0.23993305862 -0.4780934751
-0.32646965981 0.46981757879 -0.82014268637
-0.40923434496 0.31765666604 -0.85534697771
-0.4748493433 0.4404681921 -0.76173478365
0.92449873686 -0.12925899029 -0.35858863592
0.97061151266 -0.094841696322 -0.22059194744
0.9362424016 -0.23450133204 -0.2607884109
-0.55711734295 0.28136914968 -0.78125333786
-0.18205435574 -0.55014806986 -0.81483674049
-0.099393174052 -0.66443103552 -0.74022781849
-0.26134073734 -0.6554197669 -0.70861279964
-0.40037679672 -0.54065901041 -0.73980534077
-0.4059791863 -0.66456836462 -0.62733864784
0.85614734888 0.50744438171 -0.09239153564
0.88869637251 0.40405336022 -0.21611355245
0.80961406231 0.54356843233 -0.22130034864
-0.98222589493 -0.16301643848 -0.092621989548
-0.94762665033 -0.28779304028 -0.13825286925
-0.963555336 -0.26694881916 0.012883825228
-0.77488052845 -0.50391513109 -0.38116592169
-0.74204498529 -0.61438822746 -0.26799550653
-0.82945108414 -0.49856072664 -0.25171491504
-0.8405649066 0.30658057332 0.44659259915
-0.879386127 0.36961427331 0.30007576942
-0.9161080718 0.22806291282 0.32935294509
-0.68173950911 0.70091772079 -0.20940379798
-0.5800986886 0.79387682676 -0.1821796447
-0.60067456961 0.72990953922 -0.32500937581
-0.79855895042 0.42885735631 0.42232733965
-0.46804371476 0.82299798727 -0.32181784511
-0.73241645098 0.36974060535 0.57161712646
-0.98565983772 0.14157755673 0.090577438474
-0.94145107269 0.29030975699 0.17124862969
-0.96364414692 0.26488310099 0.03309481591
-0.42891994119 -0.76094126701 -0.48681682348
-0.29586473107 -0.76980721951 -0.56553345919
-0.29938539863 -0.8570176363 -0.41936871409
-0.34744685888 0.90184265375 -0.2566640377
-0.31381767988 0.85773265362 -0.40712949634
-0.21338184178 0.93327492476 -0.28870067
-0.24239465594 0.95755201578 -0.15588375926
-0.32977387309 0.76116347313 -0.5583358407
-0.43923094869 0.7747464776 -0.45425134897
-0.047651924193 -0.99872487783 0.01496741455
-0.084034971893 -0.98876690865 -0.11659687757
0.047444485128 -0.99621510506 -0.072528928518
-0.85953193903 -0.28079357743 -0.42701932788
-0.83301180601 -0.17663992941 -0.52422428131
-0.77819776535 -0.29854518175 -0.55237698555
-0.787751019 -0.59630769491 -0.15429066122
-0.6758980751 -0.72352045774 -0.14019586146
-0.69372904301 -0.72013765574 -0.0028848694637
-0.57411819696 -0.8187392354 0.0020005265251
0.49121308327 0.81894904375 0.29670077562
0.46428048611 0.76364070177 0.44865992665
0.59641224146 0.71315175295 0.36837035418
0.55999225378 0.64951646328 0.51435756683
0.41984534264 0.689915061 0.58965581656
0.68253368139 0.59035861492 0.43082001805
0.52342689037 0.56387341022 0.63882255554
0.64995157719 0.51145136356 0.56210780144
0.60311728716 0.42421588302 0.67549717426
0.76286375523 0.43263095617 0.48049923778
0.70368510485 0.36671468616 0.60774970055
-0.56973278522 -0.3006477356 0.76435995102
-0.45381596684 -0.39177939296 0.80029308796
-0.44723203778 -0.25198277831 0.85817807913
-0.32644698024 -0.34202834964 0.88116663694
-0.32529190183 -0.49718910456 0.80431723595
-0.30758205056 -0.19664163888 0.93049770594
0.34077697992 -0.93435788155 0.10353334248
0.20782509446 -0.97132819891 0.1151683256
0.29139855504 -0.95589059591 -0.021264266223
-0.13467757404 -0.91443377733 0.38159587979
0.022465834394 -0.9110827446 0.41160321236
-0.058493789285 -0.85291522741 0.5187279582
-0.04077719897 -0.9641597271 0.26200088859
0.090177536011 -0.81501245499 0.57233339548
-0.15827178955 0.27381259203 0.94861119986
-0.32307294011 0.27831706405 0.9045112133
-0.23484662175 0.16141904891 0.95852768421
-0.38201922178 0.1491625458 0.91202908754
-0.48041158915 0.26600512862 0.83574223518
-0.28327527642 0.043006718159 0.95797771215
0.72006636858 0.63542747498 0.27882143855
0.60966742039 0.7606819272 0.22280959785
0.81584644318 0.28527837992 0.50133681297
0.85863667727 0.36682614684 0.35806047916
0.78083628416 0.50935035944 0.36174610257
-0.40002790093 0.39670789242 0.82618159056
-0.25067082047 0.40049108863 0.88130545616
-0.65208995342 -0.74961847067 0.11199717224
-0.068402804434 0.13149593771 0.98883503675
-0.77473539114 -0.58166319132 0.2478633672
-0.73556673527 -0.65601867437 0.16834239662
-0.68243134022 -0.67190378904 0.28769612312
0.68275493383 0.59516018629 -0.42357653379
0.55478096008 0.65752565861 -0.50977885723
0.59420627356 0.7162219286 -0.3659504354
0.4652672708 0.76847624779 -0.43927153945
0.42095088959 0.69625222683 -0.5813986063
0.50378888845 0.81317746639 -0.29140642285
-0.25130757689 -0.00029383669607 -0.96789598465
-0.37824052572 -0.016404319555 -0.92550927401
-0.33224084973 0.15025955439 -0.93112635612
-0.47511968017 0.17321752012 -0.86260813475
0.51187127829 0.33655151725 0.79038399458
0.63419616222 0.29600718617 0.71418201923
0.58131963015 0.20285761356 0.78741943836
0.28961834311 0.72388523817 -0.6260843277
0.32777878642 0.80389213562 -0.49625766277
0.2003352195 0.80949521065 -0.55138683319
0.22131940722 0.89333575964 -0.39099183679
0.19390888512 -0.13998498023 0.97026836872
0.16601343453 0.01564011164 0.98589783907
0.060533102602 -0.068095594645 0.99550563097
0.15573309362 -0.25893074274 -0.95324069262
0.22941784561 -0.1244392097 -0.96533977985
0.3109703362 -0.25310176611 -0.9160721302
0.35205900669 -0.10038416833 -0.9304920435
0.28620636463 0.015743952245 -0.95803540945
0.37006080151 0.86081528664 -0.34938904643
0.29210984707 0.93035024405 -0.21888671815
0.25371086597 -0.38504910469 -0.88728946447
0.38690930605 -0.38373553753 -0.83848893642
0.44024676085 -0.26555114985 -0.85768526793
0.32113733888 -0.50700634718 -0.79980808496
0.10881290585 0.86921143532 -0.48221871257
-0.054982755333 -0.50202876329 -0.8628231287
-0.15385720134 -0.41092205048 -0.89854770899
-0.34298071265 -0.14908103645 -0.9273788929
-0.28808647394 0.94955575466 0.12382832915
-0.24452644587 0.93079602718 0.2707053721
-0.14148387313 0.97324889898 0.17810437083
0.0065177688375 -0.21199828386 -0.97723507881
0.089872024953 -0.11220786721 -0.98960453272
-0.040840655565 -0.088847264647 -0.99516439438
0.020486820489 0.02007994242 -0.99957817793
0.79338890314 0.330873698 -0.51091742516
0.68732124567 0.40885061026 -0.60036665201
0.73211115599 0.46884477139 -0.49417042732
0.62372541428 0.53381490707 -0.5709682107
0.5669785738 0.43522205949 -0.69897466898
-0.44194921851 -0.89563602209 0.049087002873
-0.48280036449 -0.86201560497 0.15442377329
-0.82779985666 0.44548210502 -0.34062108397
-0.89321649075 0.30874440074 -0.32683199644
-0.88027215004 0.41561833024 -0.22884021699
-0.92859697342 0.31863576174 -0.19007726014
0.13339285553 0.72048413754 0.68051844835
0.08437436074 0.62067294121 0.77951717377
0.21947494149 0.61880809069 0.75428748131
0.17285606265 0.51478070021 0.83967572451
0.29968056083 0.48518833518 0.82143008709
0.999556005 0.0033198045567 0.020725620911
0.98625433445 0.16186703742 0.032586172223
0.98197245598 0.095722526312 0.16302616894
0.95858860016 0.24870145321 0.13854447007
0.9425932765 0.33169808984 0.030581124127
0.90522807837 0.38684299588 0.17579177022
0.62758886814 -0.33906650543 -0.7008125782
0.5187613368 -0.35683888197 -0.77688914537
0.59586882591 -0.24113932252 -0.76581352949
0.57614010572 -0.45778542757 -0.67709988356
-0.16738294065 -0.75494933128 -0.63405507803
0.81603497267 0.42768913507 -0.38718420267
0.74986195564 0.64694082737 -0.13837297261
0.79216021299 0.60925799608 0.0081962570548
0.64924240112 0.75795245171 -0.058554235846
0.62588942051 0.75060504675 -0.21176892519
0.70253556967 0.65482378006 -0.27861177921
0.70395386219 0.28168419003 -0.6513953805
-0.18410402536 -0.84174746275 -0.50690275431
0.95992982388 -0.0057044802234 0.28015962243
0.94348561764 0.12920285761 0.30497762561
0.49853187799 0.46566465497 0.73115664721
0.49626529217 0.57412552834 -0.65123480558
0.072071582079 -0.22907310724 0.97026598454
0.18053457141 -0.29633831978 0.93785536289
0.42191338539 0.24039521813 0.87412297726
0.36400592327 0.3516086638 0.86245882511
0.41469064355 0.43724089861 0.79800421
0.41054466367 0.53131860495 0.74098974466
0.15466091037 0.011244842783 -0.98788964748
0.45640432835 -0.48704212904 -0.74459588528
0.52710294724 0.83797138929 -0.14124724269
0.42246297002 0.48794785142 -0.76381808519
0.36248981953 0.6172170639 -0.69766896963
0.80852305889 -0.54177135229 0.2296025455
0.77918243408 -0.62061840296 0.087810389698
0.84480547905 -0.52179551125 0.11541523784
0.84029519558 -0.54089230299 -0.030559899285
-0.072378322482 0.28721579909 -0.9550369978
0.046389520168 0.4026376009 -0.91414833069
0.099663935602 0.26702564955 -0.95851242542
0.37934857607 0.89872097969 0.2199754715
0.36428871751 0.85448688269 0.37034204602
0.25942671299 0.91373968124 0.31226801872
0.23320402205 0.86823707819 0.43788859248
0.53867727518 -0.019990919158 -0.84225177765
0.40845671296 0.023146487772 -0.91249614954
0.47170218825 0.1289087832 -0.8722833395
0.3439258337 0.14453168213 -0.92780470848
0.41200426221 0.2564535737 -0.87433838844
0.21101802588 0.1459120214 -0.96652507782
0.26855680346 0.27227222919 -0.92398279905
0.088003836572 0.12585780025 -0.98812496662
0.34320774674 0.38737824559 -0.85565829277
0.19661727548 0.39814680815 -0.89596575499
0.27318167686 0.50675368309 -0.81707412004
0.47433555126 0.35902088881 -0.80379873514
0.12843431532 0.51483094692 -0.84754049778
-0.019421622157 0.51234233379 -0.85855484009
-0.035540267825 0.15359997749 -0.98746681213
0.51313960552 0.85828542709 0.0028470857069
0.60469359159 0.79182070494 0.085801109672
0.70184981823 0.69875311852 0.13513582945
0.49999117851 0.85290801525 0.15021121502
0.79124951363 0.59242641926 0.15125909448
0.86201483011 0.49655923247 0.096801556647
0.83633691072 0.49338746071 0.23898167908
0.85804408789 -0.035980813205 0.51230049133
[...]
CELL_DATA 1886
SCALARS cell_data_0 double
LOOKUP_TABLE default
2.52892314497e-08
1.76198372342e-09
1.281456392e-08
4.79235507689e-09
3.06010077286e-08
2.59847141475e-08
1.23471934332e-08
4.34014010432e-09
2.14720142616e-09
5.9409168825e-10
1.01645244107e-08
3.64682188992e-09
2.99846150156e-09
4.27512925994e-08
1.52459238599e-08
1.28290874051e-08
1.94209434343e-08
8.73734673476e-09
1.3471750383e-08
8.22330645212e-09
2.90798463109e-08
1.07463058494e-08
6.00497276072e-09
2.9169645396e-08
2.62700751959e-08
5.9567654762e-09
5.32418425828e-10
2.10514033878e-08
1.76541105804e-08
2.42601583821e-08
1.03732843597e-08
9.26461567111e-09
5.43394636728e-09
1.78938613671e-08
1.46897230941e-08
1.60652590291e-08
1.09390028117e-08
2.20749637562e-08
3.05437622983e-08
2.33306798119e-08
6.17888318637e-09
1.87409371667e-08
4.10436564327e-09
2.52846741935e-08
1.90489941623e-08
1.45171615656e-08
2.81522599325e-09
1.37328421657e-08
1.91602032048e-08
5.3543080439e-09
9.97767003743e-09
7.37377613344e-09
7.63880920489e-09
2.21630584121e-08
2.86458081479e-08
3.28678768361e-09
6.21420179307e-09
2.26806374372e-08
1.71639147717e-08
3.20350562169e-09
1.66583263774e-08
1.15233354029e-08
6.19258163906e-09
1.27342330249e-08
6.01079908269e-09
5.50978333633e-09
4.40888062493e-09
2.86262718076e-09
2.41274888324e-09
1.5095676694e-08
5.20289201144e-08
6.34106630535e-09
7.14335887797e-09
1.17008744759e-08
1.17753514552e-08
2.81337848477e-08
2.25914871819e-08
1.25568312179e-08
8.63943518898e-09
9.07183966824e-09
3.83436325062e-08
1.95066787517e-08
4.17050279989e-09
2.41271354458e-09
7.32925548328e-10
1.67430354653e-08
1.45451796895e-08
1.29516968764e-08
1.14740131673e-08
6.58986622405e-09
1.95796733095e-08
2.53410353139e-08
6.60385650468e-10
2.17122549474e-08
2.71017008161e-09
4.95252705984e-09
1.23136152259e-08
5.2624811107e-09
9.94517576155e-09
9.84685084337e-09
2.90810945489e-08
1.18167219611e-08
1.79638563415e-08
1.02161945292e-08
1.04916956508e-08
2.50780580262e-09
6.31808614782e-09
2.49906290827e-09
2.94183648132e-08
5.19400747082e-09
1.15742474743e-08
1.21425309824e-08
1.17670616878e-09
6.10831588584e-10
1.33444518907e-08
2.83028288103e-09
1.031585904e-08
5.61801009422e-09
3.10964762523e-08
2.18444119884e-09
7.86079041275e-09
3.33745279631e-09
6.46024669809e-09
2.64865931064e-08
9.66328307965e-09
7.01649996575e-09
5.30744696305e-09
1.17976131947e-08
7.17067127914e-09
5.03221071399e-10
1.01341909202e-08
6.3948240747e-09
3.24298494336e-08
4.98419191455e-09
5.88592441636e-09
1.65051191819e-08
5.76612197192e-09
3.21239990037e-09
4.6581532029e-10
1.53836522517e-09
8.29955354475e-09
4.68234002634e-09
1.68939532209e-08
1.60675308795e-08
9.80428092038e-09
1.58440131263e-08
1.00288487097e-08
5.29540073363e-09
3.00574371194e-09
7.71923244395e-09
1.86716344346e-08
1.02272816097e-08
1.53065543436e-08
5.46750274229e-10
7.95114698451e-09
9.44247274618e-09
7.60353573582e-09
4.78803691808e-09
6.29147559492e-09
7.70966156193e-09
3.39818996192e-09
1.46120055498e-11
7.33837255644e-09
1.01447717449e-08
6.01920569167e-09
1.49270436802e-08
5.45538340764e-09
2.31612757945e-09
1.00258476448e-08
2.51485016053e-09
1.67564835632e-08
8.16044084515e-10
5.25605016455e-09
1.3815109332e-08
3.27422878082e-09
4.12637009856e-10
9.09328936947e-10
5.93713572762e-09
2.25480914495e-08
1.13230347299e-08
1.43175814243e-08
1.43422021309e-08
2.55834735446e-09
6.77152971645e-09
1.63471165348e-08
6.05988336916e-09
1.92952303453e-08
3.32109276579e-09
1.24485206971e-08
9.0798572069e-10
7.30216521241e-09
1.42205709396e-08
2.36632358853e-09
8.79309088239e-09
4.49645866478e-09
2.89171699456e-10
3.68205954266e-09
8.28451081077e-09
1.08906860023e-08
1.29740802511e-08
5.92797376081e-09
5.0742909308e-09
3.97125498009e-09
6.78082238727e-09
1.95865118019e-08
9.79725650699e-09
6.2003128283e-09
1.00045076677e-08
8.1627403897e-09
8.40685425457e-09
1.15117309975e-09
1.41268641432e-08
2.92319429578e-08
1.62095884436e-08
1.9471572262e-09
2.8667756574e-08
1.45601682826e-09
3.6961343439e-09
2.20046661466e-08
8.098839788e-09
1.03439680035e-08
7.78240133633e-09
6.7567338924e-09
2.05221195128e-08
2.31776137108e-10
1.17662306259e-08
3.80014638504e-09
6.32691139833e-09
1.25213197132e-08
1.01816151658e-08
8.70174063752e-09
1.19521863338e-08
9.97207860166e-09
9.28687535719e-09
9.56028176244e-09
2.0036554682e-09
6.80187966535e-10
4.10594109635e-09
7.2214009588e-11
7.96721783792e-10
3.15470850497e-08
9.54293310538e-09
2.54034578857e-09
1.475395249e-08
2.23136719178e-09
1.08356971684e-08
2.48764641078e-10
1.26681014452e-10
5.34342384413e-10
3.6948601384e-10
7.46479816266e-09
6.01265145255e-10
1.07166076118e-08
7.03112159202e-10
4.92566196286e-09
8.68162399526e-09
1.02796473052e-08
7.51247052716e-09
1.17248523865e-08
1.73918532163e-08
4.58209889495e-09
2.47776390659e-09
1.37656293862e-09
2.0913918178e-08
8.47987847102e-09
3.94026168046e-09
1.03308858152e-09
2.9250372012e-08
2.7983621905e-08
6.09634643953e-09
9.70792342946e-09
5.97897027488e-09
2.29216851404e-09
1.22855573693e-08
2.42728706334e-09
8.08912087091e-09
1.54504693373e-08
1.15877956701e-09
9.22779690761e-09
1.39235397576e-08
1.2721467467e-08
8.80250555201e-09
1.0283060294e-08
5.35578004964e-09
6.90487885046e-09
6.8209035189e-09
6.5624815201e-09
2.35482057341e-09
8.13863611987e-09
1.51553804317e-09
7.48210566812e-09
3.13901077603e-10
1.22170076628e-08
1.66001355436e-08
3.8747846339e-09
2.5047363728e-09
7.77658429095e-09
1.57501648725e-08
5.89550864816e-09
3.97246126608e-10
3.27144058312e-09
2.01458910732e-08
2.73972712095e-09
9.08607955221e-09
6.23308947704e-09
5.39284993613e-09
2.5811377471e-08
1.1187897899e-08
1.28811458076e-09
2.72895961183e-08
8.09565054973e-09
4.69354794956e-09
3.87129027508e-10
9.13897002702e-09
4.6544899208e-09
4.59971268243e-09
6.67644460969e-09
8.10951715587e-09
1.61277649786e-08
1.04101413805e-08
1.03296840371e-09
1.25308904126e-09
3.40967473048e-09
1.49065430512e-08
4.60167359532e-09
2.14461960547e-09
2.98111160417e-09
3.04041450738e-10
1.31852377744e-08
6.05335761027e-09
1.6329040222e-08
7.49191879309e-09
1.24436225583e-08
7.85830111381e-09
1.02792861306e-09
1.08645042543e-08
1.48606777308e-08
6.05590402019e-10
1.43385402109e-08
3.39320844397e-09
1.89876666374e-09
1.2159458944e-09
6.43183196898e-09
2.6845073739e-09
1.28124469489e-08
9.8521787185e-09
6.2806131767e-09
1.87643872021e-09
5.95562929547e-09
4.36477645473e-09
8.16095085347e-09
6.93340037661e-09
8.87574507062e-10
2.34913995403e-09
8.75416750286e-09
3.22423311077e-09
8.96591582648e-11
1.64842150705e-08
1.09041417048e-08
1.1619921179e-08
2.66666252315e-09
5.43089941132e-10
9.8887025679e-09
5.95026503324e-09
9.22122735507e-09
1.1516360495e-10
9.73340879596e-09
2.05624510466e-10
6.66012948678e-09
9.05250581707e-09
5.33433301113e-09
8.75904376928e-09
3.74601479283e-09
8.77641636863e-09
1.3716051144e-08
8.43814729715e-09
1.78451288127e-08
2.91293560069e-08
5.45822337318e-09
5.8645588445e-09
7.88478913648e-09
2.44995833269e-08
8.61957923109e-09
6.20177350297e-09
2.48912050874e-10
9.48530070184e-09
1.46113393588e-08
6.82926633975e-09
2.54524155039e-08
1.41431536293e-08
1.35537758928e-08
1.42429244528e-08
1.12099581918e-08
1.897779017e-10
7.24723176924e-10
3.52860316204e-09
6.48278680202e-09
1.26538697487e-08
1.00792692156e-08
2.68999443935e-08
2.46451273441e-09
8.97302862606e-09
3.78072688478e-09
4.82374105733e-09
1.49737278924e-08
8.49392587586e-09
8.63225477155e-09
7.84750777427e-09
2.40438614791e-09
3.51884659432e-08
1.5684954905e-08
7.33844599156e-09
7.86664931865e-09
8.84825168945e-10
2.12428787169e-09
1.09025654732e-08
2.3323331368e-08
9.98028963124e-09
2.73518029086e-08
4.31839670617e-09
8.61496877169e-09
1.09531477815e-08
8.37425594533e-10
5.95168423655e-09
4.02215101319e-09
1.30437787115e-08
1.68260701388e-08
5.38020498164e-09
7.85284857642e-09
6.99023474158e-09
8.52119268593e-09
1.10985924138e-08
6.71282720997e-10
5.38712646981e-09
2.04368036622e-08
3.09713739924e-09
8.25360014426e-09
1.4567029935e-08
1.92562027078e-09
3.50670019583e-10
3.93739805135e-09
6.35977887721e-09
2.89787423606e-09
8.89079134632e-09
1.74647499168e-09
1.96498805859e-08
3.11616972893e-09
4.74577996833e-09
1.73237030714e-08
6.19378835987e-09
4.80810473281e-09
3.02818271903e-09
2.40617364695e-09
1.45338559869e-08
2.44593286631e-09
2.44104672221e-09
2.71100421592e-09
3.38297456034e-09
3.12826842985e-09
5.44539100643e-09
3.88327609789e-09
3.31794097766e-09
2.72164054767e-09
2.44834894029e-08
1.21949902726e-08
2.5011537026e-08
1.09820771849e-08
2.46166912425e-09
5.48450255208e-09
7.62307456877e-09
3.13012172562e-09
2.34664257385e-08
5.10070671165e-09
8.40837031305e-09
7.5898036329e-09
3.0794781105e-09
7.95631474366e-09
1.17370138242e-08
1.32441949932e-08
8.3888729373e-09
1.26618496966e-09
1.97136087183e-08
2.45098654791e-08
8.6327397528e-09
2.52876615365e-09
3.54145142493e-09
1.39220396415e-11
3.82016348859e-09
7.20811704225e-09
3.96855828213e-09
9.88957152009e-10
9.87304040351e-09
1.89583746536e-08
1.6090432544e-08
1.29734521347e-08
1.09848411301e-09
7.93740761524e-09
8.4075910774e-09
1.63351507118e-09
6.04895275364e-09
1.93127381214e-10
3.9982126813e-09
6.25746242436e-09
1.7351346468e-08
6.50407279851e-09
7.42416886696e-09
1.62967268796e-09
3.354605542e-10
5.24758123874e-09
5.86446340097e-09
4.8128148809e-09
3.09739668666e-09
5.00853831434e-09
2.59913519736e-08
3.96055859095e-09
7.14053038556e-09
4.81650225057e-09
1.03171553186e-09
8.89925406132e-09
2.18177103671e-09
7.52940129084e-09
2.65371741021e-09
1.79956108177e-08
7.32387768588e-09
2.51183374714e-09
3.86555542178e-09
2.49146420044e-09
8.52246779955e-09
1.23492215039e-09
1.02890445737e-08
2.66787413142e-09
7.43698545741e-09
8.41421562441e-09
1.26505474081e-08
7.37108782512e-09
1.60267134928e-08
1.90847867442e-08
1.72111995437e-08
7.6436574646e-10
1.46412088726e-08
1.12512422853e-08
1.27239470631e-08
1.63901670006e-08
4.98108464655e-09
8.42845034763e-09
9.26301627358e-09
2.39865623507e-08
1.47215055562e-08
5.69870052955e-09
4.24523649949e-10
4.38130761477e-09
6.67579157471e-09
4.65662661972e-09
4.52759025604e-10
3.37314784149e-09
1.43972901159e-08
2.37711233249e-09
1.29536486551e-08
3.22250006092e-09
1.70080951496e-09
1.51035875148e-09
3.57512597967e-09
1.50825416807e-08
1.46480538055e-09
7.2164791021e-10
2.18307329126e-08
1.57073774876e-08
5.85795865308e-09
8.23883626322e-09
2.5417059827e-09
7.86543458424e-10
6.17968579474e-09
2.2128942681e-08
9.76031630052e-09
4.21239159052e-09
9.7232920579e-09
1.29973220089e-08
6.67268049736e-09
2.86910854489e-09
6.73919375931e-09
1.28112018348e-08
3.94923841659e-09
5.73166736162e-09
2.6432041013e-09
4.91437748196e-09
1.37747478044e-08
3.01235972159e-09
1.84336001254e-08
4.51986375319e-11
7.46091845778e-09
9.89121175024e-10
3.24491711829e-09
2.6574756549e-09
4.97838850939e-09
1.47873360312e-09
7.55543193805e-10
1.47716343495e-08
7.41393877649e-10
7.05754075183e-09
4.95945410874e-09
1.72349394278e-09
2.50173690831e-08
1.26059177568e-09
7.96743461387e-09
5.64106941738e-09
8.41656779614e-09
7.19486900089e-09
1.63689323156e-09
2.96661109811e-10
9.59619239472e-09
2.99831479845e-10
2.72076252791e-09
1.78447516597e-09
1.28912613458e-08
2.93742775754e-10
5.49250722025e-09
7.87041805201e-09
3.12330484552e-08
1.18628797332e-09
7.66235284849e-09
9.66889343008e-09
2.30701898083e-09
6.92536872552e-09
7.16561419528e-09
1.79495273431e-08
3.83822795255e-09
2.05748400028e-09
6.06725871598e-09
4.97823214949e-09
6.4083707983e-09
8.17664485458e-09
5.28106532011e-09
4.34161162522e-09
8.80224059437e-09
1.02005646865e-08
1.41265513112e-08
8.35603291579e-09
9.71593757275e-09
5.08833542632e-09
1.36236056482e-08
6.97777086234e-09
1.04796526008e-09
7.39329142352e-09
6.54200061532e-09
4.09316488165e-09
9.14107127411e-09
2.59851923575e-10
3.98249519312e-09
1.20691836688e-08
1.68711747068e-09
3.44231047796e-08
2.25753431202e-09
9.48136918666e-09
3.46392630034e-09
2.24211750984e-09
5.09106419362e-09
1.99861942937e-08
3.50280823512e-09
1.51118669138e-08
3.56309101624e-09
1.0129412769e-08
9.47947973357e-09
4.16488981593e-10
1.96827829339e-08
3.55668191354e-09
1.52875636e-09
3.58324331696e-09
5.20026999543e-09
3.78104749493e-09
6.60923697822e-09
1.24265456923e-08
2.1397091255e-09
1.29697292423e-09
1.31570691892e-08
7.26722983283e-09
5.27014317354e-09
1.35715844574e-09
9.60653109453e-09
1.16934158374e-09
1.56479740934e-09
1.02525572796e-09
7.29107364901e-09
5.65684495725e-09
8.75667257442e-09
1.05369242997e-08
5.85285747378e-10
5.5883334491e-10
1.83896255789e-09
5.21138163746e-09
4.24083178158e-11
2.93892120966e-09
9.36132842557e-09
7.32306497074e-09
1.60859308505e-09
1.92286510715e-08
3.48429340776e-09
1.03326539441e-09
8.68737282844e-09
4.61135084582e-09
8.5603595964e-09
4.16434824884e-09
3.2735418014e-09
6.61453966851e-09
1.19271656212e-09
1.0104268131e-08
8.03283701265e-09
1.74231276875e-08
1.53573007747e-08
1.36576305436e-08
8.27356717559e-10
8.01461843273e-09
4.63864847726e-09
1.10246660903e-09
2.30101582757e-09
8.4786607223e-09
9.60126711696e-09
2.9275057808e-09
2.55137453816e-10
2.6673447875e-08
4.93952081507e-09
4.63098038634e-09
3.34593680931e-09
5.11541227499e-09
9.03474106977e-09
1.16956272132e-08
4.27009244657e-09
2.20678873862e-08
1.02086091987e-08
1.41324917199e-09
9.25140965676e-09
3.75586249793e-09
1.67806437492e-09
1.27670053046e-08
8.91329076743e-10
3.13158162493e-10
4.18453285422e-09
7.29563593145e-09
8.26254563443e-09
4.71851314926e-09
6.71950154075e-09
2.56092898469e-09
2.33029956998e-09
1.01297541213e-09
9.98147869583e-09
2.0765518723e-09
2.05306840789e-09
6.30980038079e-09
5.4030044925e-09
4.04660291397e-09
3.99646867019e-09
3.3759316372e-08
1.12073594747e-08
7.33058523493e-09
2.91432323867e-09
7.24178764886e-09
2.66102085582e-08
6.9124174569e-10
4.82353292109e-09
1.30295143691e-08
5.48157767268e-09
3.229122765e-09
6.28982912802e-09
2.59703477773e-09
1.57284803497e-09
3.99533342963e-09
1.19421434498e-08
2.32860133731e-08
2.80186694667e-09
2.67052443983e-09
5.44439688744e-09
2.97474181232e-09
2.37334888378e-09
2.40396583488e-09
1.56616352797e-08
2.70912205391e-09
3.8431100471e-09
4.54153766773e-09
1.09886751793e-08
6.27186464421e-09
6.1106449908e-09
5.63511438505e-09
8.81278740619e-09
2.41197571478e-09
3.09324064174e-09
5.07104607564e-09
3.28367038916e-09
4.68807028327e-09
8.85518546672e-09
1.68609523394e-08
2.25619771788e-08
8.82329881748e-09
5.54851477973e-09
4.74316687137e-11
1.14599005334e-08
8.23308601163e-09
2.1455875886e-09
5.92760908313e-09
2.55081952042e-09
3.10778025947e-08
8.68060550759e-09
4.77325164377e-09
1.1801017988e-08
5.63346836028e-09
1.91512401501e-09
4.5936196015e-09
3.22729820837e-09
1.57914112946e-09
8.4769995364e-09
1.22883508975e-08
2.5281924274e-09
2.21900441553e-09
1.22435633983e-08
2.57760982702e-09
1.91549445491e-08
3.5207041747e-09
4.13793400207e-09
1.55137769727e-08
3.98408245812e-09
1.05697940631e-08
4.02516184276e-09
9.91748014344e-09
8.88298849102e-09
4.84182092369e-09
1.28490552355e-08
2.00982687103e-08
7.77077494789e-09
2.51578736212e-09
1.08390226627e-09
1.33739089619e-08
2.0913276751e-08
4.60250736635e-11
1.27639143891e-08
1.23027770758e-08
1.46551719358e-08
1.35212416883e-09
1.04312965438e-08
1.45995118386e-08
2.889021031e-08
9.60480237229e-09
1.58516726046e-09
3.45757841326e-09
2.54923991486e-08
7.77497037553e-09
4.186086989e-09
9.2237000401e-09
7.68033686245e-09
2.17386920768e-09
7.11991265886e-09
1.14715910695e-08
4.00700080931e-09
5.939056857e-09
3.30026632232e-09
2.67807710054e-09
1.42216865725e-09
1.18688561521e-09
1.35615403468e-08
1.05316916398e-08
1.51524699216e-08
3.56704444381e-09
1.10226212797e-09
5.72353133794e-10
6.97843747188e-10
3.42482442783e-09
1.12725326321e-08
1.84812225228e-10
3.74516566435e-09
3.09849568094e-09
4.13458756547e-09
9.25557805567e-10
4.91727968713e-09
2.41132939838e-09
3.10209590475e-09
6.61588711609e-09
7.69057421705e-09
1.5293287054e-10
4.8940265865e-09
7.83015804143e-11
3.86022584562e-09
3.9636999232e-09
1.91227090979e-08
4.76960779637e-09
2.19674756563e-09
2.03066084088e-09
1.8433357454e-09
2.32115948032e-09
5.29533836337e-09
6.47603503227e-09
7.7464544878e-10
9.9630384892e-09
1.19578982677e-09
2.46222998598e-09
6.36009579975e-09
9.31382760844e-09
1.27430443846e-09
4.87496006164e-09
4.62329241151e-09
3.75245175892e-09
2.11380634494e-10
1.80125314038e-09
2.96483743147e-09
4.00339841649e-09
5.77441146654e-09
6.02735387049e-09
4.84978745033e-10
2.9190058284e-09
8.21715542467e-09
6.36225378022e-11
2.33306011947e-10
8.79065130177e-09
2.34130141687e-09
7.81617350527e-11
9.82369051613e-09
1.0766611477e-08
6.78881542237e-09
7.44936568844e-09
1.97918145318e-10
1.93837342981e-08
1.89544158365e-08
1.42044875977e-09
9.27026440856e-10
5.90313082958e-11
3.85626382398e-09
7.72433259103e-09
1.03689765773e-08
1.2888922978e-08
3.03142351284e-09
3.88607720869e-10
2.25416227888e-09
5.85322396037e-09
1.12003759834e-09
4.28373142052e-09
3.98820150914e-09
6.76350265221e-11
5.97357930532e-09
4.25344476802e-09
1.92546675979e-08
5.28440124745e-09
7.71745608938e-09
3.75397365747e-09
6.53593645326e-09
1.85062906674e-09
6.56069853188e-09
1.43082790638e-09
8.44924807201e-09
5.42143973269e-10
1.6211619292e-08
6.96082778536e-09
4.7600819146e-09
3.8519839847e-10
3.2644400876e-09
2.96061192704e-09
5.74987671214e-09
4.03063386494e-09
1.92220646376e-09
8.8378596441e-09
1.69119524303e-08
6.11505735248e-09
1.2622474943e-08
8.59965394868e-09
1.18606797722e-09
8.02960461732e-09
4.56327503364e-09
5.53197822057e-09
1.95890890827e-09
6.99292096956e-09
4.13440648006e-09
1.9146570078e-09
4.21375690339e-09
2.93476445186e-09
1.66009760685e-09
4.62680256402e-09
9.33922237078e-10
2.07835658434e-09
1.54059976976e-08
1.84661283474e-11
2.65768911318e-09
4.36490281704e-09
5.44968849965e-09
1.25227136919e-09
2.32758714372e-09
5.6569851841e-09
6.00679229413e-09
2.86931145856e-09
9.26874702973e-09
6.31241246943e-10
2.08098341756e-09
1.65240620421e-09
5.07288212693e-09
1.65025100828e-09
3.02861627517e-09
2.79531863995e-09
5.15387738976e-09
1.45616689439e-09
4.18668747314e-09
9.92773872572e-10
5.76009077998e-09
3.02084124623e-10
9.69630020754e-10
6.28959679275e-09
3.14549695493e-08
2.73799746314e-09
1.1913718422e-08
2.25711151775e-09
7.56345484513e-09
4.60852170569e-09
2.08603220032e-08
2.84425481834e-09
4.67006104103e-09
4.70537484834e-09
4.86086397551e-09
5.46712798038e-09
1.09005879467e-08
1.38932454002e-08
5.18818321739e-09
1.07388107359e-09
2.45483216027e-09
5.12764854039e-09
9.83363918702e-09
4.46810671274e-09
9.30384030793e-10
6.8558738857e-09
4.35374812164e-09
2.83852971124e-09
2.26941738611e-09
1.00510609537e-08
4.19460467311e-09
7.12976535772e-09
4.72294046441e-09
1.05789231579e-09
3.34325028564e-09
1.17652120144e-08
1.21270600367e-08
7.90764519276e-10
8.44928418397e-09
5.20980734084e-09
3.33293454134e-09
9.73570734947e-10
3.77749465352e-09
7.00220034687e-09
1.35724039804e-09
4.42403134965e-09
1.20218130225e-08
7.29358516742e-09
3.48837494655e-09
5.15323140624e-09
7.58370738847e-09
3.8925052213e-09
5.79699015714e-09
1.08355433575e-08
1.39121791197e-09
7.53358796331e-09
1.61076984951e-09
3.07884419233e-09
1.80014975083e-09
5.4350785432e-09
2.00265438221e-09
5.04060186166e-09
2.28876798105e-09
6.18773831964e-09
7.39130354657e-09
2.931706425e-09
2.49294132733e-09
5.6475631772e-09
1.43555853712e-08
2.04737626671e-09
2.65410303784e-09
7.89588945623e-10
2.50912835349e-09
1.17865289935e-09
6.58556008198e-10
5.79885864227e-09
1.43153339653e-09
1.90196058164e-09
2.68951162076e-09
9.88142573058e-10
9.8523931865e-12
8.48932633043e-09
3.3170213524e-10
3.70559069167e-09
1.59617550134e-09
3.30753065769e-09
2.82377156228e-09
5.07610407046e-09
1.60825663497e-09
9.67953004139e-09
5.41186070023e-09
2.44153719979e-09
1.48243198142e-09
4.87689618824e-09
6.96035936336e-09
1.42499154109e-09
7.26911612407e-09
1.00080722143e-08
1.05524303659e-08
3.75267678662e-09
6.3215114605e-09
8.31236826514e-09
6.4968552545e-09
3.20671651341e-09
2.82453069264e-09
2.12569554693e-09
9.35378672924e-10
1.89318787108e-09
3.90146008525e-09
9.28678398823e-09
1.37384403357e-08
1.54926186085e-08
1.38055514266e-08
2.85223007007e-09
4.81044035051e-09
5.02776081435e-09
2.17717275488e-09
5.15452452471e-09
9.65131742442e-10
3.96205774221e-09