# vtk DataFile Version 3.0
File Name: Molecule/sphere_cent/sphere_cent_0-s21.vtk
ASCII
DATASET UNSTRUCTURED_GRID
FIELD FieldData 1
TIME 1 1 double
0.0
POINTS 362 double
-0.31202617288 -0.52063953876 0.79458451271
-0.051069956273 -0.53040707111 0.84583908319
-0.14239695668 -0.33324980736 0.9319460392
0.08835131675 -0.26326027513 0.95941543579
0.10964524001 -0.41772517562 0.90069019794
-0.93200743198 0.15106098354 0.32911133766
-0.95592778921 -0.13441646099 0.260540694
-0.8682846427 -0.0459674187 0.49387636781
-0.84316110611 -0.27070525289 0.46437513828
0.0073792114854 0.99888253212 -1.196435187e-05
-0.21833357215 0.96894699335 -0.1148609519
-0.28113666177 0.9528631568 0.11063974351
-0.45594462752 0.88942885399 -0.027884170413
-0.63259202242 0.58898878098 0.50256633759
-0.5308354497 0.48150035739 0.69738709927
-0.41316002607 0.65280145407 0.63479530811
-0.29724398255 0.53763478994 0.78872269392
-0.52347391844 -0.80510610342 -0.27849787474
-0.33370101452 -0.93035006523 -0.15001356602
-0.53559935093 -0.8436294198 -0.020085113123
-0.24422486126 -0.95956403017 0.1318795383
-0.0067961360328 -0.99972218275 0.022472646087
-0.008827637881 -0.97084605694 0.23867058754
-0.49719271064 -0.79992818832 0.33493623137
-0.42721492052 -0.69405156374 0.57944458723
-0.62680858374 -0.63225072622 0.45534399152
-0.55985152721 -0.50313436985 0.65834420919
-0.28577166796 -0.84552061558 0.45036703348
-0.19066588581 -0.70941668749 0.67841905355
0.19466650486 -0.97013914585 0.14372377098
-0.94457912445 -0.086394846439 -0.31654974818
-0.93512451649 0.14892460406 -0.32148432732
-0.86392509937 0.040167920291 -0.5016450882
-0.82615292072 0.29659280181 -0.47845229506
-0.28804913163 0.49757570028 -0.81804829836
-0.52615743876 0.45223265886 -0.72016680241
-0.41865837574 0.64075285196 -0.64336824417
-0.66559135914 0.55121666193 -0.50295299292
-0.37925246358 -0.51207894087 -0.77049410343
-0.44556897879 -0.64824610949 -0.61730313301
-0.60605061054 -0.44652754068 -0.65816581249
-0.62544739246 -0.62635660172 -0.46505942941
0.52508044243 -0.0019942708313 0.85102599859
0.47767657042 -0.26239228249 0.83809012175
0.68637657166 -0.15756183863 0.70994746685
0.58948290348 -0.43618929386 0.67983347178
0.35774624348 -0.49914771318 0.78891503811
0.78040617704 -0.33103057742 0.53044974804
0.464091748 -0.66219842434 0.58809953928
0.68347400427 -0.57444769144 0.45042401552
0.53010809422 -0.7751467824 0.34344127774
0.85872274637 -0.42457434535 0.28555887938
0.70482176542 -0.67800718546 0.2030249536
0.8549181819 -0.043153785169 0.51624244452
0.7146897912 0.1184598431 0.6889461875
-0.00064973346889 0.037790462375 -0.99827671051
-0.22958484292 0.025644626468 -0.97239017487
-0.14056611061 0.28452378511 -0.94827443361
-0.39630949497 0.29412093759 -0.86964637041
0.53696852922 -0.8389107585 0.084986433387
-0.036223750561 0.85713213682 0.51367330551
-0.13146215677 0.68567806482 0.71588075161
0.13264933228 0.73389434814 0.6652547121
-0.032711714506 0.49127143621 0.86974644661
-0.10849327594 0.28740358353 0.95141357183
0.14451472461 0.27775982022 0.94972842932
-0.023815488443 0.075116656721 0.99640190601
0.28719887137 0.47540643811 0.82978826761
0.39840748906 0.23816984892 0.88555449247
0.30638235807 0.042019739747 0.95057970285
-0.020803712308 0.51650696993 -0.85521233082
-0.13783548772 0.68402290344 -0.71631276608
0.11844220012 0.6834321022 -0.71970266104
0.23120994866 0.86635792255 0.44123536348
0.058451004326 0.96139067411 0.26807391644
0.3437705934 -0.52927321196 -0.77542340755
0.44942703843 -0.66829890013 -0.59276199341
0.22769601643 -0.68826639652 -0.68805199862
0.51003628969 -0.77440732718 -0.37438485026
0.30485919118 -0.84128278494 -0.44479331374
0.10727269948 -0.52529621124 -0.8437910676
0.37891560793 0.69874560833 0.60649675131
0.32343041897 -0.92030358315 -0.21837946773
0.21887101233 0.89005684853 -0.39864140749
0.039210531861 0.96545618773 -0.25746881962
0.26907238364 0.94828218222 -0.15937678516
0.78982442617 -0.33499202132 -0.51373463869
0.68876951933 -0.16641694307 -0.70480054617
0.81742042303 -0.065039590001 -0.57232791185
0.70608437061 0.059780210257 -0.70561212301
0.85052698851 0.52194333076 -0.033316489309
0.95188230276 0.30235484242 0.022785909474
0.90528017282 0.38294693828 -0.18378469348
0.57996857166 -0.47187426686 -0.66338741779
0.66677075624 -0.58367544413 -0.46338826418
0.82841658592 -0.47529295087 -0.29634931684
0.70866221189 -0.66446256638 -0.23731127381
0.83803397417 -0.54323446751 -0.037311129272
0.9296284318 -0.26229277253 -0.25770172477
0.90709006786 -0.12596145272 -0.40148320794
0.91803371906 0.0696047768 -0.39024353027
0.97605133057 -0.05139740929 -0.2110760361
0.96895349026 0.17167638242 -0.17763637006
0.82099205256 0.16017693281 -0.54800957441
0.88848948479 0.27024066448 -0.37082755566
0.77409237623 0.3601821661 -0.51973390579
0.97549796104 -0.21504656971 -0.045944571495
0.99882620573 -0.028487157077 0.035312887281
-0.72097861767 -0.17018486559 0.67173552513
0.55354362726 -0.81799900532 -0.15631234646
0.69436830282 -0.71905308962 -0.027286114171
-0.7622475028 -0.46583229303 0.44930204749
-0.70436966419 -0.34925943613 0.61796152592
-0.57978320122 -0.26583215594 0.7700368166
-0.73641973734 0.017582990229 0.67639815807
-0.53421998024 -0.01024335064 0.8451924324
-0.74375104904 0.15525779128 -0.64891070127
-0.6904271245 0.35419172049 -0.63074576855
-0.57956171036 0.24925108254 -0.77496886253
-0.18875463307 -0.54207146168 -0.8185608387
-0.24628926814 -0.66524368525 -0.70466732979
-0.054673280567 -0.68237614632 -0.72776055336
0.81811839342 0.44721353054 -0.3615038991
0.53839337826 -0.0091575942934 -0.8421458602
0.58188301325 0.21353498101 -0.78468704224
0.70312798023 0.26375007629 -0.66034543514
0.55203026533 0.44560289383 -0.70359110832
-0.83782583475 0.30964231491 0.4496050477
-0.81821906567 0.15472877026 0.55369138718
-0.70205396414 0.36282753944 0.61272639036
-0.67393386364 0.17670337856 0.71727859974
-0.51871526241 0.26476275921 0.81284302473
0.80373960733 0.54831385612 -0.23045252264
0.68253815174 0.59783142805 -0.41994705796
-0.1481089443 -0.23871023953 -0.95948022604
-0.29578721523 -0.3642347157 -0.88306468725
-0.35438030958 -0.17009057105 -0.91949826479
-0.48900637031 -0.29977795482 -0.8189792037
-0.56886613369 -0.057587314397 -0.82015770674
-0.32262721658 -0.15353703499 0.93401128054
-0.26945286989 0.012063262053 0.96287983656
-0.11468917131 -0.12908834219 0.98498022556
-0.86699545383 -0.49788600206 0.01679537259
-0.88528931141 -0.39383473992 0.24697414041
-0.96127611399 -0.27088740468 0.049494598061
-0.99826109409 -0.048940122128 0.027752768248
-0.77618247271 -0.57192522287 0.26452755928
-0.87944757938 -0.28421241045 -0.38176584244
-0.83471941948 -0.14517097175 -0.53107470274
-0.98781436682 0.090882845223 -0.12644514441
-0.98470824957 -0.12453640252 -0.12193784863
-0.93772673607 -0.30774638057 -0.1609698683
-0.85215705633 -0.45495536923 -0.25789347291
-0.76596552134 -0.46306359768 -0.44566476345
-0.67830491066 -0.21044242382 -0.70391327143
-0.77381026745 -0.30452218652 -0.55507355928
-0.73195332289 -0.61960804462 -0.282220155
-0.86636459827 0.41529223323 0.27755379677
-0.5574375391 0.81059277058 -0.17956462502
-0.3670155108 0.90000331402 -0.23498481512
-0.53788208961 0.82891827822 0.15339386463
-0.43534007668 0.84223675728 0.31717067957
-0.6047847867 0.72347575426 0.3328653872
-0.66612839699 0.74591481686 -0.0063124783337
-0.69612979889 0.69894003868 0.16365081072
-0.85070371628 0.52557116747 0.0068294908851
-0.70794385672 0.68493235111 -0.17169523239
-0.62434113026 0.70213663578 -0.34242781997
-0.44818753004 0.7597668767 0.47098213434
-0.77374726534 0.46265634894 0.43267059326
-0.76995313168 0.57802647352 0.27041602135
-0.46178767085 0.74836194515 -0.47559437156
-0.47179722786 0.8170465827 -0.3314024508
-0.7853115201 0.55926662683 -0.26460137963
-0.98572170734 0.11108342558 0.12658801675
-0.9389526248 0.31242921948 0.14466185868
-0.96417939663 0.26472559571 -0.014229674824
-0.31207644939 -0.86639982462 -0.38922339678
-0.928601861 0.32862606645 -0.17121915519
-0.45175120234 -0.76212728024 -0.46378424764
-0.27518758178 -0.78211545944 -0.55813205242
0.90074580908 -0.22540529072 0.37130582333
0.95704805851 -0.057123411447 0.28417015076
0.95898842812 -0.22376899421 0.17379079759
0.91727602482 -0.37971764803 -0.11976876855
0.92818003893 -0.36709412932 0.060685239732
-0.30122378469 0.85900521278 -0.41387951374
-0.17216865718 0.93235379457 -0.31791424751
-0.088342711329 0.8641821146 -0.49472609162
-0.26859155297 0.87005221844 0.41316142678
-0.25765511394 0.78362989426 0.56525570154
0.36847433448 -0.89075320959 0.26612710953
0.18766248226 -0.91694372892 0.35201197863
0.32306173444 -0.81988018751 0.47259712219
0.11894463003 -0.82248592377 0.55608695745
-0.26906695962 0.77853786945 -0.56697916985
0.24289996922 -0.69123834372 0.68045186996
0.15356007218 -0.54992383718 0.82079815865
0.037687268108 -0.6978328824 0.7151247263
-0.016669968143 -0.88828599453 -0.45806777477
0.1434443593 -0.93534439802 -0.32298272848
-0.010026881471 -0.97149115801 -0.23668423295
0.13759937882 -0.98375725746 -0.11470149457
-0.66203254461 -0.73625260592 -0.13971143961
-0.15222783387 -0.98287111521 -0.10363350064
-0.16269376874 -0.93779492378 -0.30650827289
-0.082863852382 -0.84173434973 0.53328382969
-0.74466305971 -0.039717845619 -0.66631668806
-0.78899872303 -0.60133492947 -0.12643821537
-0.7138389349 -0.70030403137 -0.0026359460317
-0.14927770197 -0.84586048126 -0.51146191359
0.48316040635 0.83367794752 0.26666304469
0.45768424869 0.77093011141 0.44268703461
0.59471541643 0.72011011839 0.35736992955
0.55759268999 0.65195089579 0.5137938261
0.68428945541 0.59538000822 0.42081788182
0.51460206509 0.5639424324 0.6458646059
0.64745366573 0.51432782412 0.56238245964
0.60083788633 0.41928005219 0.68055135012
0.76411706209 0.44365093112 0.46821165085
0.71853029728 0.35639476776 0.59709650278
0.82491242886 0.25910976529 0.50147539377
-0.45249995589 -0.38231101632 0.80548858643
-0.45131188631 -0.22255429626 0.86415785551
-0.33633697033 -0.32823196054 0.88260614872
[...]
CELL_DATA 720
SCALARS cell_data_0 double
LOOKUP_TABLE default
6.7416281683e-08
5.51284207911e-08
8.06701899299e-08
9.60619195041e-08
4.5715309714e-08
8.80971156674e-08
5.45245000096e-08
9.5689195892e-08
3.67384054573e-08
4.77901124601e-09
5.08400317017e-08
7.40180786157e-08
1.61095162091e-07
4.92891119575e-08
5.87601598384e-08
1.12855611701e-07
1.28234300733e-07
1.02517966386e-07
6.09038997167e-08
2.84370963826e-08
5.51152701592e-08
1.0721886239e-07
1.84775668406e-08
6.3556107868e-08
1.2506692709e-07
1.7237437058e-07
8.55464292446e-08
1.45667150886e-07
1.08591017822e-07
1.42958503665e-07
8.22214145379e-08
1.12389787723e-07
2.0863752831e-07
4.9165545052e-08
1.70953090798e-07
1.74538272732e-07
1.72092256036e-07
1.61204258448e-07
7.31305524224e-08
2.41612836685e-08
1.4243892393e-08
2.18638014733e-07
1.72238665327e-07
1.26259601303e-07
4.57369447816e-08
2.48963756073e-07
1.64878257285e-07
1.44259149263e-07
1.04425564432e-07
6.14053323249e-08
1.81724484569e-07
4.91046875227e-08
9.88451781991e-08
2.47298882395e-07
2.47342004575e-07
6.4839427998e-08
1.2196665654e-07
3.65125639151e-08
2.08511794277e-07
8.68676991246e-08
1.40449243346e-07
1.40446775515e-07
3.86104743674e-08
8.66529244623e-08
9.21111589792e-08
1.23564941334e-07
4.82741934492e-08
1.24266857475e-07
3.36703330392e-08
1.19682104618e-07
8.62602566855e-08
1.64030923121e-07
3.87637557737e-08
8.71198502084e-08
5.96656673691e-08
1.76464861814e-08
3.30878606811e-08
4.69383499629e-08
1.32347000344e-08
6.63828493373e-08
1.65692285323e-08
6.14172089445e-08
3.40763991986e-08
7.48659284764e-08
5.69347632231e-08
1.02240359583e-07
2.46758331563e-08
4.4489849282e-09
1.55337571739e-08
4.60434738078e-08
9.84760679709e-08
5.43958640037e-08
1.3753230861e-07
3.93895580381e-08
5.73584967038e-08
3.14161883804e-09
8.08684049769e-09
5.62351281396e-08
5.79591804078e-08
3.46358078223e-08
1.39138286077e-08
3.38882870729e-09
1.52445897167e-07
9.78149777313e-08
3.93747876883e-08
5.97623965302e-09
5.60398173879e-08
3.91385378417e-08
3.94692132178e-08
6.65777278785e-08
3.73129082132e-08
1.36150195054e-08
6.00126459723e-08
6.7649130886e-08
6.00251702765e-09
1.47504758923e-08
2.58825347047e-08
1.4738816989e-08
5.28633447902e-08
1.3694226062e-08
8.64158585417e-09
4.3753129929e-08
4.53288541632e-08
4.28195834079e-08
8.74651009091e-08
4.56834991585e-08
5.01845766524e-08
2.94979846954e-09
8.47996927435e-09
4.24980187133e-08
3.67211971561e-08
1.21818727772e-08
3.30366725499e-08
7.10767456003e-08
5.97754631846e-08
3.43369934378e-08
5.29152986287e-10
4.69112716205e-08
9.44935965687e-08
1.22503166176e-07
1.0366928182e-07
3.24939650068e-08
1.10496402388e-07
8.5267187705e-08
9.12451014046e-08
3.61203278511e-08
1.08418865129e-07
1.02463300414e-07
6.21671797828e-08
3.84578557823e-08
5.964897941e-08
3.86271042386e-08
1.13988860015e-08
3.77944111722e-08
8.2980827905e-09
1.71281911258e-08
1.09335422145e-07
1.30988695735e-07
1.68188853783e-08
9.95627489094e-08
1.96345545336e-08
7.12493353359e-08
7.15310012634e-08
3.29766808825e-08
3.89110480906e-08
6.73863227831e-08
1.03861227296e-08
7.17512380543e-08
3.41540809129e-08
4.7236458498e-08
3.92483969413e-08
8.1030058949e-08
1.67031792731e-08
6.61347526089e-08
4.36658965848e-08
3.38458071742e-08
8.99326974415e-08
6.53683591243e-08
3.29410697057e-08
1.5404862001e-08
8.69357476922e-08
6.35107444151e-09
4.38130525841e-08
4.36390016308e-09
7.15927167936e-08
2.68653703505e-08
6.82074608062e-08
4.36328896764e-08
5.16018343879e-08
1.26721770829e-07
9.35911759341e-08
1.58107454172e-08
1.16473770847e-07
2.77398811728e-09
1.7647144764e-07
7.34834885693e-08
1.81070638959e-08
1.17023435236e-07
8.88220184523e-08
1.61335096831e-08
4.65553226555e-08
1.48049030349e-07
2.60331279704e-08
7.48711859138e-09
7.48723441164e-08
1.17457653338e-08
1.01574715898e-08
2.88921747828e-08
4.52932704336e-08
5.0965754604e-08
2.93044070432e-08
1.72512462567e-08
1.37258800687e-07
1.02895019366e-07
8.29527309825e-08
3.01418568095e-08
5.53680013328e-08
3.48287345561e-08
7.32764498208e-08
5.52699123348e-08
3.17395243119e-08
7.21164314359e-08
3.98672505609e-08
1.10955580491e-08
6.93659427043e-08
1.39158175144e-08
5.32672631382e-08
6.38918234542e-08
7.79890009918e-08
5.8853127724e-08
6.0004049006e-08
4.96598986821e-08
6.32965382137e-08
1.34706139282e-09
6.34990025595e-08
1.77333380618e-08
3.25587426171e-08
1.11666135596e-08
6.80138167927e-08
2.89294978241e-09
2.62975680781e-08
2.24054810167e-08
3.57345671811e-08
3.95225998893e-09
1.71090422904e-08
1.6570400986e-08
1.02237653432e-08
3.44089480207e-08
2.67647664365e-08
4.13794274533e-08
2.96554843351e-08
5.64362729345e-08
4.95023960737e-08
4.63247083733e-08
3.0181726165e-08
4.36946896797e-08
2.19712354518e-08
3.00074972168e-09
6.38652316587e-08
8.99393267074e-09
3.83414143752e-08
8.76762048013e-08
4.13283193132e-08
5.26541116416e-08
6.65611568671e-08
1.11042308519e-07
1.67921912206e-08
1.31152055663e-08
3.97200988488e-08
2.15711278464e-08
4.87521623404e-08
2.47003433101e-08
2.08279421514e-08
5.29917165479e-08
1.52703565506e-08
3.85288655084e-08
5.10624779186e-08
4.54612031266e-08
2.57343349442e-08
2.22904835894e-08
6.91019771604e-08
1.3232102076e-08
2.57952945517e-08
2.65947413335e-08
4.91751467341e-08
1.59660325152e-08
7.44465476431e-08
1.04482253718e-07
2.14991634243e-08
9.78735221807e-08
2.04178582109e-09
3.27378865884e-08
1.19956419946e-09
9.73217564353e-08
6.54857479769e-08
8.12774662304e-08
6.04896759076e-08
1.06231971692e-10
1.99776369999e-08
4.97218949406e-08
9.70009484803e-09
4.29910363932e-08
3.06114296963e-08
8.10699756614e-10
5.17891712076e-09
5.10232428876e-09
4.60253439442e-09
3.49610162246e-09
5.00996449395e-09
2.53552450402e-09
4.44188471334e-08
4.841141744e-08
4.73645249417e-08
1.80459385662e-08
3.23107737195e-08
4.1967788033e-08
1.83734660429e-08
1.48780646638e-08
2.59158860586e-08
1.57759681352e-08
6.12733194113e-08
2.01678444362e-08
4.38714162601e-08
5.91928160052e-08
7.00047942438e-08
6.6606725439e-08
8.29534946413e-08
5.62974498056e-08
2.25400395599e-08
1.11074014913e-07
2.39084826888e-09
3.86792751116e-08
5.64597048681e-08
3.30086924944e-08
8.8858911451e-08
1.2914205321e-07
8.99537793163e-08
7.00028558318e-08
2.1345994543e-08
1.932262964e-08
2.50880795826e-08
2.61866938681e-08
3.54361982983e-08
1.04628901835e-07
5.8215972603e-08
1.11807329667e-07
6.34363872376e-09
1.80308365791e-08
5.15038945582e-08
2.04977196587e-08
5.60909327438e-09
3.15892372313e-08
1.97590797453e-08
6.51427471257e-08
3.69835485654e-08
3.96243738734e-08
1.77359071288e-08
2.18887754172e-08
1.48935376474e-08
4.6404077952e-10
3.36646806419e-08
5.52240474572e-08
4.40540114733e-08
3.61274668589e-09
4.85988316487e-08
2.7831698467e-08
4.69978238837e-08
8.03023968455e-09
3.61239602215e-08
2.52478656241e-09
4.69816852324e-08
3.10037513133e-08
1.83253074896e-09
1.1478353652e-08
2.83182953563e-08
8.96787504852e-10
4.16958685972e-08
5.14036174859e-08
2.87311130804e-08
2.38157627695e-08
3.55087438454e-08
1.35591036674e-08
6.23423901522e-08
2.94418242448e-08
7.79229814884e-08
7.49613665448e-09
2.64406448737e-09
1.82438874626e-08
7.38952670507e-09
5.2314473204e-09
4.95803383785e-09
4.43148159857e-08
2.03904876124e-08
2.34601572717e-08
5.52388865216e-08
4.64186261084e-08
6.30027009384e-08
5.49454429644e-08
2.59206886547e-08
3.35571574412e-08
1.75363018081e-08
3.1394375946e-09
6.15764353475e-08
4.4908435627e-08
2.80893262994e-08
3.26625325173e-08
1.50972498654e-08
1.01654086743e-08
4.29161136413e-08
8.34621707002e-08
2.49750470099e-08
1.13663303802e-08
2.27271657912e-08
2.01090146842e-09
3.72881692468e-08
4.96526319759e-08
1.35169034934e-08
1.8026243331e-08
2.68371712183e-08
6.70724067433e-08
3.61669408125e-08
2.40271486999e-08
5.39276937298e-08
4.01801728087e-08
3.60230337145e-08
2.04004418825e-08
8.89759398508e-08
4.90271148968e-08
7.35383453085e-08
2.99856448131e-08
6.00958580976e-08
8.63775642662e-08
3.21560091933e-08
5.45674036939e-08
2.14110865245e-08
2.22280031793e-08
4.06858176673e-08
6.59836213637e-08
2.20116423431e-08
2.96565101362e-08
3.98826045507e-08
1.09595890709e-08
3.2211859904e-10
2.90254027441e-08
8.92364369143e-09
3.78807572667e-09
2.51706438574e-08
1.07251847891e-08
1.87498657336e-08
2.50879273726e-09
2.31374112718e-08
3.85677909105e-08
6.177372403e-08
7.83822133877e-08
1.29746304335e-08
2.33033987005e-08
4.81588947647e-08
1.15849440599e-08
2.75177556276e-08
2.38106205371e-08
6.10283654423e-08
3.31837630578e-09
2.23426299382e-08
3.96322013575e-08
5.33030785593e-08
1.94531093414e-08
1.50303125859e-08
1.03674254401e-08
4.3629061531e-08
1.81263239215e-08
1.78829715692e-08
4.82088752265e-09
1.55487969866e-08
1.97816972937e-08
6.82103683472e-08
6.46231192539e-09
3.71825868498e-08
1.05432958191e-08
2.47286710252e-08
5.22893978758e-09
2.86110652352e-08
8.72340576498e-08
3.27755518873e-08
7.10063837575e-09
5.1721858884e-08
2.7197149074e-08
4.42765095264e-08
1.34116195661e-08
6.4346126597e-08
7.53037703068e-08
1.81956547681e-08
1.25468879998e-08
2.93860712722e-08
2.78606946978e-08
5.18167029207e-08
1.14680980346e-07
9.94259830792e-09
2.10302765393e-08
9.2944387774e-08
3.53012851403e-08
1.13580490596e-08
8.14241584326e-09
1.9880750631e-08
1.16414961817e-08
5.6915841422e-08
1.93025402159e-08
3.68429887137e-09
1.24758332941e-08
7.10706472002e-08
1.21319663762e-08
3.03370038339e-08
3.01962150449e-09
4.45883873738e-08
1.19698953586e-08
5.26624009533e-08
3.41553236419e-08
6.17294025352e-08
9.27582094997e-08
3.67642696278e-09
2.72057310717e-08
4.17652604147e-09
1.79531153023e-08
3.50718055864e-08
4.06341399596e-08
8.29245354762e-09
6.70120498125e-09
5.11572406798e-09
2.17838091252e-08
8.65942290524e-09
4.17479771265e-08
9.98478851425e-10
6.21699000476e-08
3.56165636394e-08
4.72839239751e-08
6.46067452619e-08
5.24395449923e-08
1.09647651373e-08
3.81552444696e-08
9.0211854679e-08
7.32295574744e-08
6.0923385885e-10
3.24372647366e-08
2.04173733496e-08
2.67829982741e-08
1.56929523016e-08
1.02819421739e-08
1.01271156174e-08
7.38661639072e-09
7.02265102637e-09
3.04894985343e-08
4.94016562074e-08
2.13436969609e-08
2.3045236974e-09
5.09343912999e-08
1.32653880983e-08
2.07846650666e-08
4.26636798393e-09
6.68326945944e-09
9.84099952631e-09
2.03343360465e-08
3.62675282508e-08
2.62612417752e-08
9.10513103275e-09
3.23774932496e-08
1.84555037085e-08
1.43354672807e-08
4.15896033663e-09
2.61716058523e-08
5.39367458225e-09
3.72612779551e-08
2.66460526056e-08
3.56797002737e-08
4.90647984175e-09
1.52015668544e-08
2.35265029385e-09
3.57740589823e-08
2.38545777516e-08
1.06436757779e-09
4.59693189816e-09
1.16033534557e-08
1.90949325644e-08
4.69210285585e-08
1.58339859706e-08
2.3066317274e-08
7.13751756958e-08
5.09139833458e-08
1.48368037687e-08
3.46406100347e-08
3.24381243057e-08
5.91711102259e-10
2.41271582604e-08
4.00000297534e-08
1.10235981954e-08
5.19368437788e-08
2.20300705455e-08
1.21286473278e-08
2.21486732197e-08
2.97088263273e-08
1.67763132877e-08
2.68559518359e-08
5.33452907503e-09
2.75673774773e-08
5.935031528e-08
6.94149265382e-08
5.09251108843e-08
8.01769207742e-09
3.14276428836e-08
2.25072928117e-08
4.03547318819e-08
2.94141979489e-08
3.23782713762e-08
4.80100343038e-08
4.84053155863e-08
6.31529521394e-09
4.67390351314e-08
1.5743519842e-08
2.65925275475e-08
1.17050033464e-08
6.63521333472e-09
1.24217687076e-08
4.44484163992e-08
2.98529856655e-09
4.7185475447e-08
1.73021206719e-08
1.49216348703e-08
1.68639695312e-10
1.21004524848e-08
1.4079472485e-08
3.10113618774e-08
4.17167275237e-09
2.08197988403e-08
4.31334894483e-09
2.59834086652e-08
1.17327037751e-10
2.15924035899e-08
3.02856097238e-08
8.72373566791e-08
6.49406465556e-08
8.53066442132e-08
7.32695943553e-08
2.62932565097e-08
3.10732185568e-08
2.69409244075e-08
3.81273023402e-08
4.16083954736e-08
6.36763398653e-09
1.85124442713e-08
3.95796298975e-08
2.51707840578e-08
2.33734329469e-08
5.55583377461e-08
1.23094848418e-08
1.09298091333e-08
1.37308357681e-08
1.34427746824e-08
1.93398802624e-08
4.41368684283e-08
9.46910213471e-09
1.77636264615e-08
2.80686958646e-08
2.9253966457e-08
1.24078641794e-08
6.35070174098e-09
7.69062443947e-09
1.48379959336e-08
1.13333069422e-08
5.34466175076e-09
5.1793093469e-08
4.52048987226e-08
5.60231018431e-09
5.47269624811e-09
2.86674556885e-08
4.04201404941e-09
1.8771358133e-08
1.41243859071e-08
3.46500685382e-08
1.65691025545e-08
3.64514964724e-08
2.8666229925e-08
2.48334670117e-09
1.09442622268e-08
3.78804431096e-08
3.7238152692e-08
2.20199888702e-08
1.59444569183e-08
2.48089872175e-08
1.06718132504e-08
4.50658394377e-09
3.89965659301e-08
4.18603089156e-08
1.20766020911e-08
3.67073254243e-08
1.25007558848e-08
6.81157891497e-09
2.88875041647e-08
3.48044845086e-08
2.9393727514e-08
4.88975717728e-09
2.17710839179e-08
4.35543235471e-08
2.93083267922e-08
1.31827094192e-08
2.92331337852e-08
2.63882209943e-08
2.30936005373e-09
2.46164729245e-08
2.29310196893e-08
4.70242175642e-09
2.28679670845e-08
2.34558316888e-08
3.23891182216e-08
3.39659711564e-08
6.87845089773e-09
1.81497699448e-08
3.83430426097e-08
2.86118348501e-08
6.77429884398e-08
4.20916129229e-08
2.06319461122e-08
1.80045742801e-09

