# vtk DataFile Version 3.0
File Name: Molecule/sphere_cent/sphere_cent_0-s35.vtk
ASCII
DATASET UNSTRUCTURED_GRID
FIELD FieldData 1
TIME 1 1 double
0.0
POINTS 1696 double
0.92856311798 -0.14764763415 -0.34045472741
0.96552377939 -0.10963501036 -0.2341786325
0.93149638176 -0.23800170422 -0.27502450347
0.86749845743 0.48539739847 -0.10874135047
0.87565457821 0.4367378056 -0.20599125326
0.82031267881 0.53136026859 -0.21145416796
-0.98154741526 -0.16786883771 -0.091595239937
-0.94793051481 -0.28502821922 -0.14205205441
-0.96238672733 -0.27133199573 -0.012064743787
-0.78425115347 -0.50744479895 -0.35559812188
-0.7522238493 -0.59769964218 -0.27697145939
-0.82707303762 -0.50513035059 -0.24653181434
-0.84797203541 0.31212183833 0.42734566331
-0.87877237797 0.35149604082 0.322478652
-0.91268146038 0.23644968867 0.33329641819
-0.32862359285 0.91481661797 -0.23455823958
-0.24109655619 0.95768666267 -0.15716527402
-0.23099391162 0.93357414007 -0.27262452245
-0.86249434948 -0.25025650859 -0.43982544541
-0.83318001032 -0.17611385882 -0.52422559261
-0.78925991058 -0.28563457727 -0.54335325956
-0.79908192158 -0.57587653399 -0.17023512721
0.64299631119 0.49492478371 0.5844348073
0.59846526384 0.44948878884 0.66308516264
0.68966245651 0.38535925746 0.61303216219
-0.5594522953 -0.28879925609 0.77690815926
-0.46152102947 -0.35726696253 0.81190210581
-0.45636087656 -0.25892856717 0.85066068172
-0.25519225001 0.3684335649 0.89390206337
-0.28441223502 0.26848775148 0.92000567913
-0.18014241755 0.30406078696 0.93536323309
-0.77432334423 -0.58088296652 0.25098156929
-0.73316550255 -0.65706312656 0.17522992194
-0.68701004982 -0.66676080227 0.2888662219
0.1663107425 -0.11384170502 0.97935217619
0.17018163204 0.014295610599 0.98528140783
0.070027425885 -0.049603287131 0.99628973007
0.45678833127 0.78771799803 -0.41312369704
0.40314346552 0.85132205486 -0.3357257545
0.49405321479 0.81898611784 -0.29135915637
0.082057580352 -0.085029698908 -0.99283856153
-0.033872440457 -0.085816636682 -0.99574005604
0.031683258712 0.014216287993 -0.99938976765
-0.83093118668 0.44845116138 -0.32929590344
-0.89476388693 0.32537779212 -0.30561631918
-0.88289642334 0.41368892789 -0.22215329111
-0.93087631464 0.31290370226 -0.18856821954
0.10863452405 0.6322157383 0.76709294319
0.1619810164 0.51768094301 0.83983671665
0.2222610414 0.60281169415 0.76625227928
0.62815731764 -0.34411919117 -0.69785493612
0.53992801905 -0.33635815978 -0.77153849602
0.60113191605 -0.25023108721 -0.75893414021
0.57200217247 -0.44458812475 -0.68843650818
0.95843321085 -0.0051710740663 0.28520730138
0.97590470314 0.083795771003 0.20102722943
0.94205224514 0.12160423398 0.31252777576
0.5163038373 0.54317808151 0.66207939386
0.52048504353 0.46344134212 0.71711021662
0.6189532876 0.70267307758 -0.3503972888
0.69925111532 0.64554154873 -0.30711168051
0.67831432819 0.61495184898 -0.40204754472
0.46963515878 0.14247633517 -0.87089449167
0.35856339335 0.14545848966 -0.92158150673
0.4018278718 0.23512624204 -0.88476276398
0.29933750629 0.24747905135 -0.92124450207
0.14141450822 0.0048908311874 -0.98962891102
0.098235860467 0.11648841202 -0.98832887411
0.20583859086 0.15849633515 -0.96532100439
0.11839450151 0.23633342981 -0.96428138018
0.31932196021 0.38914364576 -0.86381137371
0.21695353091 0.40715613961 -0.88715624809
0.27017873526 0.48931586742 -0.82919937372
0.69557964802 0.70172315836 0.15403610468
0.60185831785 0.79368436337 0.088440999389
0.61550343037 0.76112478971 0.20426417887
0.51063251495 0.85886991024 0.032386604697
0.50388753414 0.85316175222 0.13379251957
0.80529522896 0.59172588587 0.03540558368
0.78428822756 0.60090565681 0.15425272286
0.85452699661 0.50599455833 0.11718717217
0.86557078362 -0.021968238056 0.50032877922
0.91026455164 0.060238849372 0.40952408314
0.8545575738 0.092167757452 0.5110887289
0.89155608416 0.17151191831 0.41910788417
0.25096637011 0.96042412519 0.11930985749
0.23680253327 0.97138607502 0.0049458411522
0.14398796856 0.98751097918 0.063707664609
0.10247794539 0.99310898781 -0.051236495376
0.01947388798 0.99960488081 0.017961347476
-0.68846988678 0.29731348157 -0.66088682413
-0.65755957365 0.191325441 -0.72870546579
-0.73858237267 0.17909640074 -0.64989936352
-0.69915515184 0.072966240346 -0.71119344234
-0.5812317729 0.27177459002 -0.76662272215
-0.57537055016 0.15237346292 -0.80353474617
0.43601721525 0.77450782061 0.45816066861
0.36996483803 0.83866071701 0.39940756559
0.32227888703 0.80907309055 0.49143838882
0.82815384865 0.51597779989 0.21879372001
0.72468501329 0.64187467098 0.2503413558
0.41989579797 0.87871819735 -0.22616909444
0.2968326807 0.0072141326964 -0.95444476604
0.39355707169 0.019799590111 -0.9187296629
0.35551798344 -0.080812223256 -0.93107694387
0.51200938225 0.0078341430053 0.85894244909
0.50740265846 -0.12922896445 0.85197371244
0.60465198755 -0.082731820643 0.79213768244
0.57455551624 -0.22226311266 0.78765034676
0.4411945641 -0.23976075649 0.8647685647
0.66506838799 -0.1625341028 0.72868651152
0.55889695883 -0.36173352599 0.74613320827
0.6458646059 -0.29002925754 0.70564484596
0.78635448217 -0.33121472597 0.52096688747
0.75386822224 -0.44241437316 0.48481750488
0.82895433903 -0.38447025418 0.40621101856
0.7972548604 -0.48804450035 0.35418355465
0.86152899265 -0.42651304603 0.27539667487
0.69287544489 -0.036793902516 0.71961730719
0.61571061611 0.033277925104 0.78724581003
-0.089364886284 0.033276468515 -0.9954174161
-0.0070678098127 0.10994523764 -0.99388694763
-0.20774869621 0.61689198017 0.75913280249
-0.15223816037 0.5365408659 0.82998639345
-0.080970302224 0.58955675364 0.80357342958
-0.052614599466 0.48876601458 0.87081301212
0.25985711813 0.37893220782 0.88798874617
0.31216275692 0.27584347129 0.90905278921
0.3482363224 0.36127594113 0.8649353385
0.35822528601 0.16408826411 0.91909080744
0.41389620304 0.23057478666 0.88056695461
-0.14055465162 0.49581626058 -0.85694682598
-0.090248964727 0.41772431135 -0.90408080816
-0.20246142149 0.41555052996 -0.88666832447
-0.040900193155 0.5226405859 -0.85152190924
0.23159202933 0.8672811985 0.44066271186
0.14602179825 0.91614365578 0.37332764268
0.095208920538 0.88308644295 0.45933753252
0.048068039119 0.91714119911 0.39564281702
0.21291486919 0.80980277061 0.54649281502
0.89559656382 -0.25240549445 -0.36580005288
-0.55966615677 0.58945381641 -0.58254671097
-0.57901489735 0.64563989639 -0.49782019854
-0.46130642295 0.68918895721 -0.55873465538
-0.66067820787 0.54552835226 -0.51565366983
-0.38525336981 0.65063339472 -0.65440750122
-0.34214225411 0.73040151596 -0.59082138538
-0.1344190985 0.69717293978 0.70403671265
-0.13582901657 0.77348101139 0.61911946535
-0.22777841985 0.7092025876 0.66720867157
0.28518277407 0.018448924646 0.95828700066
0.24847249687 0.11480236053 0.9617587328
0.40362620354 -0.14009089768 0.9041262269
0.10739580542 0.71587008238 0.6898778677
0.017470818013 0.69187372923 0.72166973352
0.39560174942 0.4233956039 0.81485432386
0.28746441007 0.43472576141 0.85326749086
0.81428545713 -0.52861636877 0.23962852359
0.78942984343 0.043471999466 0.61193048954
-0.061921913177 0.32444408536 -0.94383335114
0.025308391079 0.39094159007 -0.91998821497
0.2409799546 0.91435801983 0.32488676906
-0.94843631983 0.0089845489711 0.31680619717
-0.91910165548 -0.082879595459 0.38465860486
-0.900636971 0.011234295554 0.43439900875
-0.44050747156 -0.87414348125 -0.20261791348
-0.4626211822 -0.88110625744 -0.098217718303
-0.52961230278 -0.83074736595 -0.1712539047
-0.36197754741 -0.92232650518 -0.13511779904
-0.43178284168 -0.68408507109 0.58779269457
-0.3905004859 -0.61632966995 0.68345504999
-0.49891006947 -0.59735327959 0.6279078722
-0.46476075053 -0.53863453865 0.70253306627
-0.56988108158 -0.49843338132 0.65328919888
0.42136207223 -0.61471831799 0.66663831472
0.4716154933 -0.65363448858 0.59179461002
0.5288143158 -0.57050269842 0.62780225277
0.52823525667 -0.72950077057 0.43425402045
0.61612397432 -0.68098706007 0.39488750696
0.58430492878 -0.62857484818 0.51329183578
0.68559932709 -0.58981406689 0.42541074753
-0.091674387455 0.37972149253 0.92052459717
0.015531854704 0.41513478756 0.90961194038
-0.091603554785 0.59257698059 -0.79991930723
0.051657050848 0.59948462248 -0.79870140553
0.013702764176 0.68777018785 -0.72552871704
0.13581715524 0.66620218754 -0.73323446512
-0.27601212263 0.67680639029 -0.68246990442
-0.33914637566 0.58026355505 -0.74040657282
-0.21997779608 0.61967283487 -0.7532556057
-0.15411803126 0.69374084473 -0.70309859514
0.71325665712 -0.46631759405 -0.52307903767
0.63831371069 -0.51282405853 -0.57369667292
0.67121726274 -0.41988426447 -0.61081153154
-0.58979976177 0.55205607414 0.58932638168
-0.58897173405 0.46596571803 0.66023892164
-0.51012724638 0.54099822044 0.66856211424
-0.95645111799 0.11825866997 0.26677373052
-0.918802917 0.1162270233 0.37720176578
-0.98021322489 0.012208026834 0.19755840302
-0.96491140127 -0.09918281436 0.24169902503
-0.35193523765 -0.9010232687 -0.25354021788
0.91791510582 -0.049551218748 0.39367750287
0.93401759863 -0.13499464095 0.33000358939
0.88725036383 -0.12980858982 0.44164007902
-0.24748195708 0.77414751053 0.58256793022
0.30352944136 -0.64334022999 0.70244008303
0.36983734369 -0.68887025118 0.62342137098
-0.17621380091 0.4062987268 0.89649689198
0.11682771891 0.42585670948 0.89709573984
0.056865546852 0.49442785978 0.86733919382
0.13855454326 0.52835327387 -0.83761137724
0.20176574588 0.58844649792 -0.78297168016
-0.30868390203 0.64489793777 0.69914698601
-0.32434177399 0.55618858337 0.76471453905
-0.42230635881 0.62765270472 0.65382438898
-0.33436724544 0.70986831188 0.61988770962
0.2549110055 -0.66559016705 -0.70139360428
0.36180540919 -0.6180010438 -0.69742804766
0.30439117551 -0.71130526066 -0.63347142935
0.41986495256 -0.69272768497 -0.58538275957
0.42628967762 -0.76302284002 -0.48564860225
0.33243000507 -0.76295125484 -0.55439740419
0.47644639015 -0.79495197535 -0.37533032894
0.36766263843 -0.8416454792 -0.39551591873
0.81595164537 -0.051102485508 -0.57584857941
0.80929160118 -0.15854841471 -0.56549632549
[...]
CELL_DATA 3388
SCALARS cell_data_0 double
LOOKUP_TABLE default
5.06925594576e-09
9.1095466401e-09
1.10696507646e-08
1.05825162427e-08
1.05332356785e-08
3.15362318229e-09
2.98156330584e-09
2.48413530741e-09
6.41355996712e-09
9.27890543523e-09
2.76289938689e-09
1.97507306191e-09
7.1916095656e-09
2.35494475665e-09
1.0375294435e-09
9.17282627441e-09
7.28475680037e-10
1.7727024313e-08
3.49596317081e-09
1.16342613274e-08
2.14853739009e-09
1.95495438071e-09
1.80378728947e-09
1.07155478994e-08
3.47424351711e-09
5.89897395679e-09
7.40319490314e-09
2.6562815218e-09
1.18670749962e-08
4.21105429481e-09
1.12761156025e-08
7.0858320708e-10
2.37276180381e-09
1.32304077062e-09
5.37268328927e-09
6.37180422887e-09
3.83394164993e-09
1.8639631512e-09
8.46790116871e-09
1.07985773088e-08
2.74727007074e-09
3.89267255318e-10
1.35205664902e-08
2.8265445478e-10
5.43338657364e-10
3.81594194779e-09
9.41792521834e-09
2.18818646124e-09
1.52139706639e-08
2.42834444112e-11
1.54058362303e-08
3.14395089192e-09
1.81888197105e-08
1.33749891904e-08
5.04405813597e-09
6.96923563456e-09
9.16929997092e-09
1.4825767241e-09
5.72399899318e-09
4.42518182291e-09
1.75899767722e-09
4.44063446161e-09
7.61807365583e-10
2.07293631481e-09
7.07744100082e-09
5.00588599967e-09
1.17054586957e-09
1.66269246096e-09
1.35808679156e-08
5.32908182611e-10
1.09650324298e-08
3.54264443565e-09
1.76249601199e-09
4.50492380837e-09
3.83327233552e-10
6.99160703401e-09
5.27577779342e-09
1.87627589522e-09
5.37500452307e-09
5.61960616181e-09
4.24193068911e-09
3.88824057988e-09
2.37180570105e-09
6.78236332639e-09
7.21982889985e-09
6.33540410097e-09
6.60495830668e-09
2.1007326161e-10
3.12255627745e-10
7.80527834895e-09
8.33954406086e-09
1.22867342089e-08
7.33017107532e-09
1.04078219616e-08
3.97220232837e-09
2.29877100243e-09
5.55423812935e-09
3.28087931412e-10
2.14310897901e-09
3.70264635972e-09
1.4617129256e-08
3.58798777327e-09
6.81555230208e-09
1.03865049811e-08
6.74039851385e-09
5.78636091543e-10
2.7304405188e-09
5.89842306359e-09
2.86086994245e-09
6.77404581344e-09
5.8653488541e-09
8.85652307721e-10
4.80890565466e-09
1.52138163655e-09
2.69963726897e-09
1.15057297952e-08
7.16504942931e-09
1.31508559509e-09
3.93244448663e-09
9.7308413037e-09
2.5901892945e-10
8.9959831358e-09
3.44259770852e-09
2.17240179281e-09
3.3519160277e-09
1.1262662788e-09
4.04187591715e-09
3.96728754164e-09
7.22789058682e-09
1.44952654042e-09
1.21363315271e-08
9.5540309589e-09
6.50830680765e-09
7.32162635998e-09
3.85393067974e-09
3.7889456398e-09
7.6784274127e-09
6.25590122852e-09
4.22994169595e-09
1.30431316759e-08
8.15567393249e-09
1.0147546057e-08
1.09883901602e-09
1.26140300101e-09
1.59651447825e-09
2.93478096973e-09
1.26933646235e-09
6.59251666505e-09
4.0774549901e-09
9.57756011913e-09
4.71684446217e-09
4.69100744016e-09
8.98805520432e-10
7.19585145024e-09
6.21270143179e-09
4.59043274111e-10
7.70977045416e-09
1.46209275948e-09
9.0005398361e-09
7.59049951022e-10
1.66036190671e-09
1.46186523539e-09
7.74050035972e-09
1.74049047227e-09
2.27199186941e-09
9.37828767951e-09
3.25421480903e-10
1.11801817553e-08
1.25496451727e-08
9.03247069334e-09
1.36755338263e-08
5.77050502775e-09
1.22575662182e-10
6.10433560699e-09
2.97140274686e-10
2.70406839085e-09
5.09466837088e-09
1.90202232542e-09
1.02414796472e-09
7.20045829151e-09
1.09232970512e-08
1.33756203565e-08
7.24793789488e-09
7.31902140138e-09
1.50174662312e-09
6.74639143309e-10
8.962058663e-10
5.73942015771e-09
3.16124310059e-09
6.36642913131e-10
8.1308359035e-10
5.43411532373e-09
9.8545937594e-10
2.0483705857e-09
2.34172202897e-09
2.00027223283e-09
1.12138253565e-09
9.38742425109e-10
9.05862320671e-10
6.98761853244e-09
3.65919613653e-09
9.65612751362e-09
5.55009141966e-09
1.12043402501e-08
1.77349864663e-10
7.72367664674e-09
1.11612081453e-08
1.1382181044e-08
5.52176596154e-09
9.17262797317e-09
5.43181359154e-09
2.24201616332e-09
1.57134179485e-09
1.13602662552e-09
5.84453685869e-10
5.32912440741e-09
9.08258202027e-09
7.03255514453e-09
6.44620160174e-09
3.82460063759e-09
1.40796380588e-09
7.05703694146e-09
2.38409209302e-09
1.11378572986e-09
7.36460162964e-10
2.47720442729e-10
3.91687480185e-09
6.68026399575e-09
3.54621826859e-09
1.22426564114e-09
1.19398218392e-08
1.02342776087e-09
6.38201017133e-11
6.20451722021e-09
2.07235241995e-09
2.7040823139e-09
3.72593322082e-09
2.03298570364e-10
7.84275020564e-09
7.10577173188e-09
4.15905823132e-09
2.94655664023e-09
7.77465429558e-09
3.85839535965e-10
2.6767282455e-09
1.48725212285e-10
3.20990185057e-09
3.05898500282e-09
7.07639359858e-10
1.38948359403e-08
1.0397186284e-08
3.79916727007e-09
4.99880228778e-09
5.83180193057e-09
6.05993525194e-09
8.53975955863e-10
3.12269382107e-09
8.71563273706e-10
1.04533983655e-08
1.78756011124e-09
3.67302709471e-09
4.99899043881e-09
3.52746714661e-09
2.83968206702e-10
2.75756828014e-09
1.87261264429e-09
3.38199947088e-09
5.3379336714e-09
8.83283719652e-09
3.95287362506e-09
6.40461787181e-09
1.17953445176e-09
4.08414837272e-09
3.3811532888e-09
2.99026987033e-09
1.24252300374e-09
5.01104766491e-09
1.03043561431e-09
1.05093251292e-09
9.91617973772e-10
5.4207016735e-10
1.78598824723e-09
8.42077030513e-09
2.99136468536e-09
4.38172270083e-09
7.11299206055e-09
1.76499024721e-08
2.43380533633e-09
4.08123005772e-09
3.8197972803e-09
6.69873321962e-10
1.99049573237e-09
7.08355657511e-09
3.16758004873e-09
1.55849601322e-09
6.08392132672e-09
3.33370001665e-10
5.7947355398e-10
5.59730560748e-09
9.90044636984e-09
9.53687462284e-09
7.25217682515e-10
1.29164992664e-09
6.13724216778e-10
1.02196866144e-09
7.06012483758e-10
1.10866223681e-09
1.87986546155e-09
4.72937577465e-09
8.12525987668e-09
5.7087562508e-09
4.4829304394e-10
6.51162356313e-09
1.59909748285e-09
1.17068451997e-08
1.24089556449e-08
1.13995368413e-08
6.30030178388e-09
2.12726051489e-09
1.37774255713e-08
8.45271232638e-09
8.12199329851e-09
3.91145247395e-09
4.37188268079e-09
7.49129435436e-10
4.55095087495e-10
2.15040430524e-09
1.34217917419e-08
1.85885594778e-09
5.66637530278e-09
5.63095894791e-09
1.73297945493e-09
1.04610474625e-09
1.08649300696e-10
1.10529842825e-08
3.96850070675e-09
9.14535316869e-09
2.62863088941e-09
3.10290160486e-09
4.62161231798e-09
3.1319027097e-09
1.95956572334e-09
1.15358127579e-09
3.92426577258e-09
9.7680437551e-10
3.73186637297e-09
9.57614795023e-10
1.64971418252e-08
1.4677991433e-08
9.13896866562e-09
5.80579755813e-09
8.10851255127e-09
7.37365538626e-10
5.66111360745e-09
9.06663534183e-10
2.53166156393e-09
5.09999497079e-10
4.66107575351e-09
2.79875134751e-09
5.2459149483e-09
1.66313165877e-09
9.55384524494e-10
5.6173152518e-09
9.10478888086e-09
6.33243221579e-09
1.97037175686e-10
2.45861003895e-11
8.71163205019e-10
1.54228368418e-08
1.52106302967e-09
4.74375897421e-09
4.0842271944e-09
2.8476740938e-09
2.86167660676e-09
1.11818775639e-09
4.10188932702e-09
4.32002952451e-09
6.63173831976e-11
4.18123557868e-09
5.33617982535e-09
5.1178214566e-09
5.95442237802e-11
1.64594433497e-09
2.15399303533e-09
1.33460404712e-09
2.88086874792e-10
1.20991481616e-09
2.19090350546e-09
5.66985716271e-09
3.69016737336e-09
2.30203284167e-09
5.71651689994e-09
6.60394118552e-09
3.03565336581e-09
3.86462918333e-09
1.83322759147e-09
4.35241110155e-09
2.45583275602e-09
3.5374601024e-10
4.34214306538e-09
3.86160004408e-09
4.89574630953e-09
3.50480149989e-09
1.04870995929e-09
1.55546348999e-09
9.63814271604e-10
4.31935876279e-09
8.83632274534e-10
1.88025660296e-09
3.99857562377e-09
3.33336973779e-09
9.15673468927e-10
7.64183917656e-09
4.57130680796e-09
6.24147925495e-09
5.98788916364e-10
4.20539079195e-09
1.14209281468e-09
3.18130363908e-09
1.08826656869e-08
9.30195963237e-09
7.43795579523e-09
2.10813375883e-09
3.32026387298e-09
7.44912011491e-09
1.5753430702e-08
5.24336152286e-09
2.77006403108e-10
9.43439338342e-09
5.34483334369e-09
3.89512989099e-10
8.28698344262e-09
2.33641456224e-09
6.36143164277e-09
7.9171428978e-09
3.86043981227e-09
1.86280134077e-09
3.24039729334e-09
2.14961477641e-09
2.03870840764e-09
2.91883623089e-09
1.85591966021e-09
4.91873737527e-09
7.01396252795e-09
1.98312390889e-09
4.19208226221e-09
3.82877065226e-09
6.41085618449e-10
6.30722527459e-10
4.20437410994e-09
3.08563461794e-09
2.6174735108e-09
2.18549862556e-09
1.04977784475e-09
2.47226395638e-09
1.10548179708e-09
1.31674591946e-09
4.56978599539e-09
2.59517900882e-09
8.11533313496e-09
6.57332036464e-10
6.84766761613e-09
1.18395131757e-09
4.58907625821e-09
5.52564280593e-09
7.67918391246e-09
5.89579036315e-09
6.44615190458e-09
3.93734941478e-10
2.01700490952e-09
2.4205068614e-09
3.09747621748e-09
6.43342773356e-09
3.50280677958e-09
2.52329471382e-09
2.96792223214e-11
1.10455828838e-09
1.97714536692e-09
6.39039832851e-09
2.9945697845e-09
1.29433556396e-09
2.29651546998e-09
1.96901438072e-09
3.30830225779e-09
4.28517139502e-09
2.31941738542e-09
1.04269401574e-09
3.84860349245e-09
1.17055482982e-09
5.69765928068e-09
3.70904821268e-09
1.20589500902e-09
4.97116707576e-09
5.58425198374e-09
3.0537562654e-09
1.74157020781e-08
6.94331825846e-09
4.43603408709e-09
5.89690223413e-09
5.08042435696e-09
1.26815662175e-10
4.48086064127e-09
3.69703311364e-09
2.5153776087e-09
3.48813101592e-09
9.66737237112e-11
2.17655332674e-09
2.09825459434e-09
1.32796949458e-09
1.19363413711e-08
1.39980555915e-09
2.45464730005e-09
3.31308728554e-09
3.20819562139e-09
1.60373403037e-09
2.94557876625e-11
4.04823995785e-10
2.10711012694e-09
2.08578110804e-09
3.31676555864e-09
2.56352692687e-09
5.52061060185e-09
3.22302986659e-09
1.02538442689e-09
5.8933773452e-09
2.76751306422e-09
7.77820676261e-10
8.1025686302e-11
4.23707710364e-09
1.15660661942e-09
1.45584057677e-09
8.85041902235e-09
4.73717629067e-09
2.1671742528e-09
1.20388585519e-09
3.182664476e-09
5.51788184927e-10
8.63732457511e-09
7.60432428518e-09
2.96223171553e-09
7.18007514302e-09
7.81681203702e-09
9.02530820277e-09
1.46660073866e-10
2.06709328899e-09
2.86455924359e-09
1.48456940714e-08
2.75413050956e-09
4.28522803101e-09
1.70277172846e-08
8.84525709441e-09
5.44330773169e-09
3.95122067855e-11
5.03312224017e-09
1.9488342376e-08
5.51095891203e-09
1.67711707548e-09
4.32937942887e-09
5.3400150292e-09
4.85432000413e-09
5.54920139429e-09
6.149891599e-10
2.23236644391e-09
8.16916328327e-09
1.09596268732e-08
4.24823311139e-09
8.2774377552e-10
7.31176829668e-09
5.15473801849e-09
1.88913193776e-09
6.93953681157e-09
1.5127232859e-09
3.24947626251e-09
2.08591322316e-09
1.92169409155e-09
5.70561648886e-10
2.27415322213e-09
4.39268938052e-09
4.48060869906e-09
4.13643972201e-09
2.20497508947e-09
1.64654759858e-09
1.33994200102e-08
4.68234388641e-09
4.09057742194e-09
6.87924541318e-10
4.23672551523e-10
5.64114603248e-09
1.02955331156e-08
8.51680343217e-10
2.69311044602e-09
2.72021106879e-09
1.76068426883e-09
9.03083213859e-10
5.85252961791e-10
7.48433333147e-09
3.74764812177e-09
8.16657587442e-09
8.12489592863e-09
3.02218355784e-09
2.22033517317e-09
3.5095460331e-09
2.39847860806e-09
3.15015366943e-09
1.45197885022e-09
1.67761404432e-09
3.51151714904e-09
4.11482581943e-09
4.06457928521e-09
2.80199102998e-09
3.89544896547e-09
1.79080751231e-09
1.22433801747e-09
2.35479445758e-09
1.19703613604e-09
2.30604924781e-09
1.12805040932e-09
2.34605718917e-09
1.17699580464e-09
5.64536210598e-09
2.27825562694e-09
5.51963762849e-09
2.13886847714e-09
1.00810518357e-08
9.12629837856e-09
5.77404862758e-10
4.19208424284e-10
3.64528547971e-09
2.24765028767e-09
6.88722862163e-09
1.40291796362e-11
3.90551607573e-09
6.40996687198e-10
5.92307018787e-10
1.35225587158e-09
6.62036270622e-09
4.97327575381e-09
5.81847277126e-09
3.99615465472e-09
3.25363032872e-11
4.7076194058e-09
8.59024264753e-11
4.60473096462e-09
2.54355096604e-10
3.64088426745e-10
3.35316301212e-09
3.7838719452e-09
2.41384811529e-09
1.11035052765e-09
3.23493187468e-09
1.48897914516e-11
3.41583047142e-09
8.4735827628e-10
1.73567740968e-09
3.22813742596e-09
9.57661561193e-09
2.23609494056e-09
1.89701370856e-09
3.13864864713e-09
1.84124426036e-09
6.68509536977e-09
9.44383187713e-10
1.46335387356e-09
3.10791539791e-09
4.20021603065e-09
5.82269198556e-09
7.51570151353e-10
5.49079441352e-09
3.58633144405e-09
3.38465740142e-09
3.77586192451e-09
2.06014415259e-10
3.10974279427e-09
2.12723523813e-09
1.1359254143e-09
3.33428002671e-09
1.39243218956e-09
4.03703720095e-09
2.23520567989e-09
3.42479620505e-09
1.64566492919e-09
2.22366778205e-09
5.91362135336e-09
5.02922792153e-10
6.14122263477e-09
2.60802801724e-09
5.23806114707e-09
2.98063351368e-09
2.91767166427e-09
3.36840485843e-09
6.33439351288e-10
1.11803635903e-09
1.06233406427e-09
3.33039043437e-09
1.56706641442e-09
2.29838582796e-09
4.9475171027e-09
2.51524629416e-09
1.39130737614e-09
2.46563787456e-09
9.44367515974e-10
1.03053488769e-08
1.6393037531e-09
1.84559792329e-09
7.21010348693e-09
1.61223331253e-09
9.62653061996e-10
1.21776728812e-09
1.91825094418e-09
1.88922392847e-09
7.33555220641e-10
1.77784804805e-09
2.67351508828e-10
4.82247871541e-09
4.55772661083e-09
6.53600611291e-09
1.52914599169e-09
3.4892851102e-09
7.49301978974e-09
5.67816165434e-09
1.1820935341e-08
1.80411609345e-09
4.17311400928e-09
3.27991933515e-09
7.2580411116e-10
2.30518424932e-09
2.6742040394e-09
2.1124011502e-09
7.00694781959e-09
6.07833621956e-10
4.3430970476e-09
8.85761149783e-09
7.25528917814e-09
2.29288556985e-09
3.40729680267e-09
1.84578705543e-09
3.39810759136e-10
2.49670457827e-09
7.36199942234e-09
4.71545451801e-09
3.16994121831e-10
2.76266618402e-10
4.52222575955e-10
1.88313609608e-09
6.24583541791e-10
6.12774790209e-10
1.21279453015e-08
2.39546490958e-09
3.80911530913e-09
1.14538233045e-08
4.41910323626e-09
7.50594678795e-10
7.82143065768e-09
3.16669777464e-09
4.96292152622e-09
1.87092467602e-09
1.04678970007e-09
3.47455691617e-09
4.47378820493e-09
3.43123692892e-09
3.59297103279e-09
4.12119573124e-09
1.30503927664e-09
6.29092987058e-09
7.82545896864e-09
2.21647281938e-09
4.03694419214e-10
2.5523774025e-09
7.14424917324e-10
3.41594161098e-09
7.62436682772e-09
2.99233745365e-09
1.42702632719e-09
6.83832251172e-10
4.56460832538e-09
5.75299779491e-09
2.06033427814e-09
2.10784564893e-09
5.43248789785e-09
9.1065544774e-10
1.6350552968e-09
2.95255707262e-09
4.97632662101e-09
1.35151318699e-09
1.04341388112e-09
2.91659438803e-09
5.02494848315e-09
2.80572905434e-09
4.70667824387e-09
3.44938503751e-09
2.58599695208e-09
1.93272204009e-09
1.02968914357e-09
4.09475347171e-11
1.7340750474e-09
3.18769273602e-09
6.5447578692e-10
1.35151985192e-09
3.93282394125e-09
5.78769024802e-09
2.05204645881e-09
2.69309956493e-09
3.77516291776e-09
8.72146316239e-09
1.08504218483e-08
1.69261813083e-09
5.90476000306e-09
1.52674387711e-09
7.09481032025e-10
1.0366747152e-09
3.68964292716e-10
2.47341257643e-09
6.05656314643e-09
3.29036421111e-09
1.68094664647e-09
1.90763125967e-09
6.9095325886e-09
6.13718625218e-09
7.36775143099e-10
8.50059102852e-10
2.87334698772e-09
2.94817544557e-09
3.63236180893e-09
1.59447520582e-09
1.71433426537e-11
1.39357560046e-09
3.33551919292e-09
6.85595589861e-09
2.76421634533e-09
2.16944418713e-09
3.86090240348e-09
1.65862695825e-10
2.356965115e-10
4.60215092247e-09
4.38131013124e-09
4.72932741233e-09
3.30213440681e-09
1.29735683894e-08
4.05645925864e-09
7.52054070605e-09
3.41737771919e-11
3.5664379739e-09
2.27815073097e-09
3.09804548237e-09
2.11027602135e-09
7.57748206144e-10
1.42184857855e-08
8.9074372954e-10
1.41668747467e-09
2.6196017822e-09
3.28129766481e-09
2.53237540903e-09
1.93656611375e-09
6.48362070065e-11
1.57393085316e-09
3.12863614262e-09
1.23850174408e-09
1.82101901695e-10
8.72468859057e-11
4.12930679112e-09
1.0317954419e-09
5.28649794912e-10
9.96050846461e-09
8.71878732836e-09
2.42009872977e-09
6.28721664895e-09
5.57631910244e-09
1.66672576137e-10
3.66669358134e-09
1.23720786474e-08
3.78629636761e-09
5.65454421735e-09
3.93295452896e-09
1.12426706823e-09
5.26324861625e-11
7.40157093983e-09
3.67905229532e-09
1.42513281435e-09
4.22227151407e-09
7.93115027463e-10
2.38338448009e-09
6.91404458498e-09
5.13194511214e-09
1.6498569371e-10
8.15661181348e-09
7.69439884783e-09
2.59495511499e-09
9.72478962042e-10
8.69596118837e-09
2.66266007049e-09
3.72730836372e-09
1.11756658921e-09
7.73702381277e-10
2.05070442611e-09
1.28486872707e-09
5.04613650662e-09
1.47973031461e-09
2.07753346333e-09
1.17571387282e-09
1.05875519571e-08
4.7998025626e-09
1.80655412677e-09
4.39475716752e-09
8.52412112823e-09
1.28654178766e-09
4.44023673555e-10
1.12913062516e-09
2.20602365776e-10
1.06153356345e-10
1.56908440576e-08
2.19043575645e-10
3.63341179789e-09
3.13830029032e-09
5.58050224371e-09
5.78100754422e-10
3.49868894718e-09
4.0585211124e-09
2.11884050526e-09
2.4086469387e-10
2.16048844867e-10
4.75247646232e-09
2.77360187491e-09
4.10439581957e-10
1.31619817433e-09
2.58129414976e-09
1.77691708106e-10
1.98023748838e-09
7.67354665841e-10
8.71526014892e-09
1.72107165633e-09
2.66027466642e-09
1.94111645495e-09
1.93599333385e-10
2.44631764138e-09
1.47629921244e-09
4.6715011089e-10
2.23789037183e-09
1.48933318902e-09
6.79308062753e-09
8.8808462537e-09
2.12063113648e-10
2.05203870788e-09
3.26268893578e-09
2.82035025047e-09
1.32333661677e-09
2.03701093279e-09
7.113349528e-10
1.62124091771e-09
2.12696417925e-09
3.86888636449e-09
1.69756235018e-09
1.00950440165e-09
4.53706234817e-09
1.36360980984e-09
3.62016485283e-09
2.06848224823e-09
2.09632309214e-10
1.88915789045e-09
7.76383588281e-09
2.9490957266e-09
2.86388607114e-09
2.30615728122e-09
8.46455461889e-09
1.12308675923e-08
3.38321725248e-09
1.34168972313e-10
4.67092456632e-12
3.07877360463e-10
9.41132765742e-09
1.7590047559e-09
6.75408555528e-09
5.09166175932e-09
2.52913170829e-09
5.66681683147e-09
7.0390116739e-09
2.28687858024e-09
1.20856900049e-09
2.31644131539e-09
7.88217442998e-10
3.33347519879e-09
7.89677852103e-09
6.80666492663e-09
1.76941710904e-09
3.10503349184e-09
4.92426074237e-09
6.92796532405e-11
3.35279006418e-09
2.49252193245e-09
5.91739682147e-09
3.46767700065e-09
4.98995861634e-09
8.14499482859e-09
5.17163139255e-09
5.51911092442e-09
1.2156209805e-08
9.29767802961e-09
1.18043382361e-08
1.3635109475e-08
1.08138427536e-08
3.57182707175e-09
2.76036556104e-09
5.07203157384e-09
2.0542726056e-09
6.72721455087e-09
9.16631046429e-09
4.76288331935e-09
4.7835503619e-09
1.09660573245e-09
5.34735387035e-09
1.63695682035e-09
3.3794593146e-09
4.5427161352e-09
3.27507714891e-10
3.09889542109e-09
2.79457225701e-09
4.31732667265e-09
2.48909644729e-09
2.7281522262e-09
4.37577391389e-09
3.14862810317e-09
1.98299865891e-09
3.63405096031e-11
4.10066885875e-09
2.64752430283e-09
5.87053346099e-09
7.56685970698e-09
8.49809895824e-10
6.67984400629e-09
4.5530657864e-12
5.01524222908e-09
1.84255712368e-09
2.59065907933e-09
2.86923339572e-09
2.3480902839e-09
1.29484903849e-09
1.682866241e-09
2.33316396166e-10
6.89231210424e-10
1.02426222671e-09
1.09755316349e-09
3.00657508208e-09
1.08646241512e-08
4.60491273057e-09
2.14210429518e-09
4.54040960798e-09
3.57389170783e-09
2.67316639073e-09
1.10250842651e-09
2.50872068385e-09
4.76585473648e-09
5.29076239307e-09
2.08097884156e-09
3.97345566345e-09
3.97743009478e-09
1.52566865778e-09
8.2290478957e-10
3.83929077244e-09
3.29272359965e-09
6.33974855369e-09
2.11840660112e-09
4.6934481913e-09
2.69828422806e-09
7.31031579093e-09
2.22700592239e-09
5.87817673898e-09
1.4309412496e-09
7.24962640398e-10
8.17247878653e-10
1.05315702215e-09
4.74188734935e-09
1.49263539174e-09
4.42636775945e-09
3.7208794506e-09
4.87231124881e-09
1.4309802408e-09
2.56831275266e-09
3.49999715853e-09
2.23491441573e-09
3.82628294041e-10
4.3370049734e-09
9.78974724627e-10
7.26663621772e-09
8.48508820051e-10
6.20530440768e-09
9.58629612687e-09
2.12988169317e-09
1.7778866215e-09
6.85609971145e-09
2.00310611873e-09
3.48287552019e-10
8.08318206653e-10
2.90171693938e-09
2.49248021345e-09
2.75676478068e-09
9.89513315658e-10
4.34587252768e-09
6.69474165045e-09
3.01540007817e-09
1.22981405476e-09
3.1719623469e-09
5.30500271997e-09
7.09987250852e-10
3.0622010558e-10
9.09018695338e-10
2.11651633602e-09
1.91184425579e-09
1.6411822442e-09
1.31084682198e-09
1.81073319661e-09
3.15628998035e-09
1.44426600282e-09
1.92874031498e-10
7.83779006493e-11
2.35282062569e-10