# vtk DataFile Version 3.0
File Name: Molecule/sphere_cent/sphere_cent_0-s10.vtk
ASCII
DATASET UNSTRUCTURED_GRID
FIELD FieldData 1
TIME 1 1 double
0.0
POINTS 130 double
0.76387637854 -0.38613945246 -0.51392179728
0.85081022978 -0.5213009119 -0.05375623703
0.53571635485 -0.76961672306 -0.34335276484
0.95010298491 -0.17222325504 -0.25966012478
0.9941843152 -0.016896285117 0.088038347661
0.84985738993 -0.015691682696 -0.5267137289
0.95574325323 0.15592123568 -0.24940891564
0.80663990974 0.31268787384 -0.50126731396
0.53916084766 -0.00059378659353 -0.84092789888
0.85060960054 0.52357441187 -0.0095530189574
0.36460119486 -0.51338243484 -0.77596825361
0.0068405559286 -0.53000789881 -0.84795695543
0.16908022761 -0.26091068983 -0.95041519403
-0.16367702186 -0.25484928489 -0.95301896334
-0.32947286963 -0.50700724125 -0.7963244319
0.013588820584 0.049428112805 -0.99849575758
-0.020279601216 -0.85274958611 -0.51938176155
-0.54906386137 -0.022022411227 -0.83427792788
0.4845636189 0.83765208721 0.24974194169
0.42184311152 0.6911816597 0.58672302961
0.69036716223 0.58943408728 0.41942217946
0.58828675747 0.42400076985 0.6885214448
0.26569843292 0.48467260599 0.83299100399
0.84240543842 0.27164104581 0.46430513263
0.67705255747 0.60354626179 -0.42120960355
0.57252675295 0.43301576376 -0.69626873732
0.41686588526 0.69407534599 -0.58682787418
0.26180279255 0.47785133123 -0.83802449703
0.47466620803 0.84465396404 -0.24742160738
-0.32497477531 -0.49151876569 0.80767059326
-0.159972772 -0.25753825903 0.95294886827
-0.52503985167 -6.3257750298e-05 0.85106378794
-0.011722512543 0.037031870335 0.99875384569
-0.0013735224493 -0.53065347672 0.84753066301
0.16169036925 -0.26318728924 0.95108306408
0.32725852728 -0.51868695021 0.78952354193
0.078400231898 -0.83363580704 0.54495233297
-0.80583333969 0.31365203857 0.50195890665
-0.85300546885 -0.0020726621151 0.52204936743
-0.80437958241 -0.31784290075 0.5016232729
-0.95260447264 0.15807028115 0.26010984182
-0.95204550028 -0.16023360193 0.26080587506
-0.99959087372 0.00040907561197 -0.021662553772
-0.85088539124 0.52534621954 -0.00061553064734
-0.85124343634 -0.52476578951 0.00011423959222
-0.023311849684 0.8571459651 0.51049554348
-0.25171047449 0.95525532961 0.15497869253
-0.49810191989 0.81050121784 0.3077801466
0.051914766431 0.99826598167 -0.012379625812
-0.25545108318 0.95335233212 -0.16055339575
-0.52144402266 0.8533193469 -0.0049453848042
-0.50452506542 0.8017616868 -0.31989869475
-0.011837088503 0.86115533113 -0.50581210852
-0.41838788986 0.68397879601 0.59753733873
-0.68015378714 0.59160518646 0.43303272128
-0.5771137476 0.43290314078 0.69248074293
-0.287463516 0.48306959867 0.82653057575
0.27008005977 -0.94799482822 -0.16831296682
-0.0071704154834 -0.99956506491 -0.016560904682
0.53115290403 -0.84715610743 -0.00062046077801
0.26032623649 -0.95141160488 0.16441470385
0.49858006835 -0.80069941282 0.3315410912
-0.50425982475 -0.80545604229 -0.31096455455
-0.52393954992 -0.85177689791 -0.0032707711216
-0.5089777112 -0.80690789223 0.29912832379
-0.27408149838 -0.94836378098 -0.15979896486
-0.27856248617 -0.94883102179 0.14879876375
-0.24961338937 -0.86428415775 0.43658253551
-0.029052983969 -0.96208423376 0.27125403285
-0.67995762825 -0.59440934658 0.42925879359
-0.44345596433 -0.68537425995 0.57759326696
-0.58889389038 -0.44073343277 0.67741125822
-0.18812935054 -0.711196661 0.67735797167
-0.81043696404 -0.30718261003 -0.49858564138
-0.85218262672 -0.0014262773329 -0.52334451675
-0.80767697096 0.30821022391 -0.50239986181
-0.9470385313 -0.15573105216 -0.28091159463
-0.9465854764 0.15683682263 -0.28179627657
-0.42802542448 0.67673248053 -0.59894490242
-0.29716682434 0.5026358366 -0.81181412935
-0.58340775967 0.42517888546 -0.69186258316
-0.68668520451 0.57988721132 -0.43847045302
-0.60317450762 -0.43390592933 -0.6693097353
-0.44831508398 -0.68319445848 -0.57645100355
-0.68977642059 -0.58358675241 -0.42848664522
0.51771354675 0.0063162180595 0.85548394918
0.45514041185 -0.26170200109 0.85100030899
0.69009697437 -0.1584264189 0.706163764
0.59920436144 -0.43486726284 0.67208141088
0.78993481398 -0.32445707917 0.52016115189
0.45397093892 -0.67303663492 0.58388906717
0.688180089 -0.57529711723 0.44203430414
0.87527292967 -0.4034332633 0.26473492384
0.71475368738 -0.67292523384 0.18998345733
0.87137961388 -0.045617349446 0.48775443435
0.70716291666 0.13318909705 0.69435095787
-0.26902580261 0.046326424927 -0.96211636066
-0.1502854228 0.28977131844 -0.94516670704
-0.40893080831 0.25795081258 -0.87547367811
0.40711572766 0.2527911067 0.87750077248
0.26840206981 0.025976099074 0.96281242371
-0.13359262049 0.68437147141 0.71684807539
0.13194869459 0.69384515285 0.70750850439
-0.0082755945623 0.4988168478 0.8666447401
-0.14135578275 0.27993562818 0.94941693544
0.12919297814 0.27683645487 0.95213973522
-0.018471019343 0.51581037045 -0.85640543699
0.12895996869 0.69209641218 -0.70964986086
-0.14083530009 0.69247913361 -0.7076292038
0.24630555511 0.88047927618 0.40445813537
0.24510242045 0.88508075476 -0.39472234249
0.13821937144 0.27726951241 -0.95075905323
0.27504059672 0.95281910896 0.12839454412
0.039817426354 0.96462357044 0.26083910465
0.45648512244 -0.67315489054 -0.58175516129
0.19914700091 -0.71435445547 -0.67101305723
0.27545398474 -0.8422960043 -0.46350491047
0.28216418624 0.031566724181 -0.95857673883
0.3971734345 0.24710424244 -0.88391983509
0.46672362089 -0.26797258854 -0.8422986269
0.68449020386 0.71823292971 -0.12544034421
0.69471442699 0.7073674798 0.12865573168
0.49366173148 0.86964082718 -0.00072159792762
0.27430793643 0.95227217674 -0.13395065069
0.034657746553 0.96331125498 -0.26635619998
0.96197110415 0.26876577735 0.049014862627
0.94925814867 0.14263151586 0.28041011095
0.87703132629 0.41640004516 0.23821809888
0.67344689369 -0.20471687615 -0.7103010416
0.5821082592 -0.45280912519 -0.67487591505

CELLS 256 1024
3 0 1 2
3 0 3 1
3 1 3 4
3 0 5 3
3 5 6 3
3 5 7 6
3 3 6 4
3 7 5 8
3 6 7 9
3 10 11 12
3 11 13 12
3 11 14 13
3 12 13 15
3 14 11 16
3 13 14 17
3 18 19 20
3 19 21 20
3 19 22 21
3 20 21 23
3 7 24 9
3 7 25 24
3 25 26 24
3 25 27 26
3 24 26 28
3 8 25 7
3 29 30 31
3 31 30 32
3 29 33 30
3 33 34 30
3 33 35 34
3 30 34 32
3 35 33 36
3 37 38 31
3 31 38 39
3 37 40 38
3 40 41 38
3 40 42 41
3 38 41 39
3 42 40 43
3 43 40 37
3 39 41 44
3 41 42 44
3 45 46 47
3 48 49 46
3 49 50 46
3 49 51 50
3 46 50 47
3 51 49 52
3 47 50 43
3 50 51 43
3 47 53 45
3 47 54 53
3 54 55 53
3 54 37 55
3 53 55 56
3 37 54 43
3 43 54 47
3 56 55 31
3 55 37 31
3 16 57 58
3 2 59 57
3 59 60 57
3 59 61 60
3 57 60 58
3 1 59 2
3 60 61 36
3 62 63 44
3 44 63 64
3 62 65 63
3 65 66 63
3 65 58 66
3 63 66 64
3 58 65 16
3 16 65 62
3 64 66 67
3 66 68 67
3 66 58 68
3 67 68 36
3 64 69 44
3 44 69 39
3 64 70 69
3 70 71 69
3 70 29 71
3 69 71 39
3 64 67 70
3 67 72 70
3 67 36 72
3 70 72 29
3 39 71 31
3 71 29 31
3 29 72 33
3 33 72 36
3 36 68 60
3 60 68 58
3 73 74 17
3 17 74 75
3 73 76 74
3 76 77 74
3 76 42 77
3 74 77 75
3 42 76 44
3 44 76 73
3 75 77 43
3 77 42 43
3 52 78 51
3 79 80 78
3 80 81 78
3 80 75 81
3 78 81 51
3 75 80 17
3 51 81 43
3 81 75 43
3 14 82 17
3 17 82 73
3 14 83 82
3 83 84 82
3 83 62 84
3 82 84 73
3 62 83 16
3 16 83 14
3 73 84 44
3 84 62 44
3 85 86 87
3 86 88 87
3 86 35 88
3 87 88 89
3 35 90 88
3 90 91 88
3 90 61 91
3 88 91 89
3 61 90 36
3 36 90 35
3 89 91 92
3 91 93 92
3 91 61 93
3 92 93 1
3 89 92 94
3 4 92 1
3 4 94 92
3 89 94 87
3 94 95 87
3 94 23 95
3 87 95 85
3 15 96 97
3 96 98 97
3 96 17 98
3 97 98 79
3 17 96 13
3 13 96 15
3 85 95 99
3 21 95 23
3 35 86 34
3 34 86 100
3 1 93 59
3 59 93 61
3 79 98 80
3 80 98 17
3 45 101 102
3 101 103 102
3 101 56 103
3 102 103 22
3 56 104 103
3 104 105 103
3 104 32 105
3 103 105 22
3 32 104 31
3 31 104 56
3 22 105 99
3 105 100 99
3 105 32 100
3 99 100 85
3 27 106 107
3 106 108 107
3 106 79 108
3 107 108 52
3 45 102 109
3 19 102 22
3 22 99 21
3 21 99 95
3 27 107 26
3 26 107 110
3 85 100 86
3 34 100 32
3 56 101 53
3 53 101 45
3 52 108 78
3 78 108 79
3 79 106 97
3 97 106 111
3 18 112 109
3 112 113 109
3 112 48 113
3 109 113 45
3 2 114 0
3 10 114 115
3 114 116 115
3 114 2 116
3 115 116 16
3 8 117 118
3 117 111 118
3 117 15 111
3 118 111 27
3 15 117 12
3 12 117 119
3 10 115 11
3 11 115 16
3 18 109 19
3 19 109 102
3 8 118 25
3 25 118 27
3 45 113 46
3 46 113 48
3 16 116 57
3 57 116 2
3 27 111 106
3 97 111 15
3 9 120 121
3 120 122 121
3 120 28 122
3 121 122 18
3 28 110 123
3 110 124 123
3 110 52 124
3 123 124 48
3 4 125 126
3 125 127 126
3 125 9 127
3 126 127 23
3 8 128 119
3 128 129 119
3 128 0 129
3 119 129 10
3 0 128 5
3 5 128 8
3 9 125 6
3 6 125 4
3 8 119 117
3 12 119 10
3 9 121 127
3 20 121 18
3 23 127 20
3 20 127 121
3 28 120 24
3 24 120 9
3 52 110 107
3 26 110 28
3 48 124 49
3 49 124 52
3 4 126 94
3 94 126 23
3 28 123 122
3 112 123 48
3 18 122 112
3 112 122 123
3 10 129 114
3 114 129 0

CELL_TYPES 256
5
5
5
5
5
5
5
5
5
5
5
5
5
5
5
5
5
5
5
5
5
5
5
5
5
5
5
5
5
5
5
5
5
5
5
5
5
5
5
5
5
5
5
5
5
5
5
5
5
5
5
5
5
5
5
5
5
5
5
5
5
5
5
5
5
5
5
5
5
5
5
5
5
5
5
5
5
5
5
5
5
5
5
5
5
5
5
5
5
5
5
5
5
5
5
5
5
5
5
5
5
5
5
5
5
5
5
5
5
5
5
5
5
5
5
5
5
5
5
5
5
5
5
5
5
5
5
5
5
5
5
5
5
5
5
5
5
5
5
5
5
5
5
5
5
5
5
5
5
5
5
5
5
5
5
5
5
5
5
5
5
5
5
5
5
5
5
5
5
5
5
5
5
5
5
5
5
5
5
5
5
5
5
5
5
5
5
5
5
5
5
5
5
5
5
5
5
5
5
5
5
5
5
5
5
5
5
5
5
5
5
5
5
5
5
5
5
5
5
5
5
5
5
5
5
5
5
5
5
5
5
5
5
5
5
5
5
5
5
5
5
5
5
5
5
5
5
5
5
5
5
5
5
5
5
5

CELL_DATA 256
SCALARS cell_data_0 double
LOOKUP_TABLE default
3.47775361507e-06
7.24120687434e-07
1.44301793843e-06
1.01125529772e-06
1.99975773342e-06
2.28746089954e-06
1.01584369027e-06
4.11272188547e-07
3.33375051684e-07
3.00952477399e-07
8.01289267086e-07
1.4825994096e-06
6.01448139871e-07
8.06405879007e-07
3.42940431159e-07
3.42673386198e-07
1.43242271867e-08
3.59284081953e-07
3.00936356963e-07
3.67126564875e-07
1.41129769262e-06
8.00913100812e-07
9.54975066893e-07
6.15097905004e-08
2.74194064061e-07
1.5811988769e-06
1.73648693199e-06
7.81942504254e-08
6.81282629813e-08
2.06565294525e-07
1.49953209073e-07
7.15247927821e-07
1.67511989012e-06
1.73533084352e-06
5.43653435459e-07
2.97643757876e-07
6.42850067753e-07
3.66510462912e-07
7.22654157817e-07
8.96542971116e-07
1.66432765841e-06
1.50656365623e-06
7.72656842132e-07
3.05093638771e-08
4.35643866284e-07
7.83987224614e-07
6.71216859551e-07
9.53099699585e-07
6.32862096576e-07
6.23865309755e-07
9.07002489248e-07
5.57916567706e-07
1.83290635286e-07
5.10181808308e-07
1.71862060749e-07
9.2848683127e-07
8.00754623018e-07
1.64085506653e-06
1.74306088153e-06
1.65207469761e-06
4.03010358537e-07
3.89303735611e-07
2.18039923564e-07
1.05101184611e-07
1.84675053288e-06
1.04852514168e-06
1.26720458295e-06
1.58603293884e-06
4.88821211967e-07
3.42276410431e-08
2.94134259825e-07
1.66265363629e-07
1.23363212061e-06
1.28485000414e-06
7.23081392255e-08
2.50990397004e-07
5.60992296745e-07
4.66015635881e-07
1.68159283599e-06
1.83384889888e-06
3.94081209261e-07
2.77696856808e-07
4.69367773641e-07
2.63144055421e-07
1.76761035599e-07
2.55160720784e-07
1.68315743112e-07
3.72752123325e-07
1.85895878463e-06
1.56554216186e-06
1.24422033042e-07
3.50345170647e-08
1.98388224544e-07
4.59823174963e-07
1.10145468209e-06
1.39068461575e-06
4.53218072088e-07
1.48757035293e-07
4.85118159687e-07
4.55890928918e-07
1.6248786211e-06
1.64401140949e-06
1.13520641662e-06
9.36423583304e-07
1.42258467589e-06
2.83322106328e-07
1.44926061161e-07
2.4879150252e-07
3.31848045876e-07
2.13560237062e-06
1.08318869249e-06
1.23649332342e-06
4.69124843104e-07
1.24518544469e-06
9.64559956204e-07
1.00499589994e-08
5.69728827714e-07
4.0302808219e-07
1.25084872927e-06
6.55950756647e-07
1.57520814542e-06
1.26037153759e-06
3.53722813523e-07
1.49892242248e-07
1.77587946389e-08
3.28789064443e-08
1.56684349361e-07
6.06851580009e-08
1.08700433198e-07
2.13387524605e-08
3.54555471097e-07
2.44761441658e-07
2.37241573213e-07
4.94559641023e-08
6.92673162098e-08
1.68281358385e-07
1.70234949133e-07
1.54099943971e-06
1.28064545551e-06
2.03873822698e-07
5.21623255732e-08
2.42522906924e-07
4.31963591059e-07
3.03970211557e-08
4.6939968288e-08
8.20720457583e-08
2.13304392572e-07
6.67687777297e-08
3.6050884928e-07
3.53667500524e-07
2.04532261259e-08
1.62895398534e-07
2.37073166481e-07
6.13711744415e-07
1.54039187418e-07
3.00477583475e-07
5.99507755067e-07
5.65202497773e-07
2.11218351377e-08
1.06259453159e-07
5.18650629458e-09
1.92955603559e-07
7.06184639744e-08
2.16172254406e-07
6.78363969523e-08
1.57116349137e-06
1.58744405395e-06
9.74968181397e-08
1.08812550327e-07
3.75735238837e-08
4.312818981e-07
5.6078928585e-07
1.01678975862e-09
3.27943372958e-07
3.07229623408e-07
2.29832374697e-07
2.24308758131e-08
2.58050052556e-08
2.1186958733e-07
5.29696260417e-07
4.01801423079e-07
1.51993964999e-07
3.97847912958e-08
1.68329890017e-07
2.1690120669e-07
2.49784507742e-07
3.33311021859e-07
2.56913627869e-07
1.7349637841e-07
5.28068983989e-07
3.04947306495e-08
1.15404175811e-07
4.9904853598e-07
9.87766740282e-07
9.67872154985e-08
5.06152442975e-09
1.43853107357e-07
1.57301791862e-07
1.92227451533e-07
2.02909209151e-07
2.25967137762e-08
4.14048318155e-07
2.44748648937e-07
2.45103322383e-07
1.93985372575e-08
3.88953973748e-07
4.96983905025e-07
2.21640995827e-07
1.85187969871e-07
7.98039744837e-07
2.18734544498e-07
3.16519286125e-08
4.65244054727e-07
2.17062934355e-07
4.95368221662e-07
3.20980742708e-08
3.95511092211e-07
1.0741589833e-07
1.4575824537e-08
4.52327986961e-07
7.37688656152e-08
5.91005075811e-08
3.7217354157e-07
8.27785307138e-08
2.88628729344e-08
2.52618354252e-07
2.39867273904e-07
3.77277867784e-09
3.29297612236e-07
1.53428755856e-07
1.4976475261e-07
6.48232865313e-09
6.72793912617e-07
8.44120083244e-07
6.7202246347e-07
5.01862262435e-07
9.65405638226e-08
2.16970291683e-07
7.32337300474e-08
4.83355517697e-07
5.70626790432e-08
4.37829518214e-07
2.12976404374e-07
2.7709324397e-07
1.41110911353e-08
1.52761207456e-07
1.432382498e-07
1.94827903378e-07
7.28979778182e-08
2.11051911424e-07
4.84389820978e-08
1.03447399781e-07
4.62481615181e-07
6.41047722047e-08
1.35621071363e-07
2.18050825265e-07

