# vtk DataFile Version 3.0
File Name: Molecule/sphere_excent/sphere_excent_0-s38.vtk
ASCII
DATASET UNSTRUCTURED_GRID
FIELD FieldData 1
TIME 1 1 double
0.0
POINTS 523 double
0.33977124095 -0.65393996239 0.67593765259
0.055513344705 -0.8455170393 0.5266700983
0.48957356811 -0.81552553177 0.30528926849
0.83063840866 -0.53782492876 0.13654942811
0.62920063734 -0.52363198996 0.57359707355
0.47524452209 0.70591109991 0.52512264252
0.43310829997 0.55035990477 0.71366769075
0.67049533129 0.40573588014 0.62086820602
-0.91662150621 0.11363325268 0.38297450542
-0.96735394001 -0.20172782242 0.15046997368
-0.84542781115 -0.24835929275 0.47010707855
-0.3357847631 0.82985728979 0.44543865323
-0.30328896642 0.92829340696 0.21419024467
-0.50759851933 0.81859105825 0.2685675621
0.044440805912 0.94933438301 -0.31094452739
0.25913646817 0.95506620407 -0.14118719101
0.3551042676 0.879601717 -0.31615173817
0.26640275121 0.91838228703 0.28927636147
0.23415498435 0.77086192369 0.59228843451
0.69898581505 -0.62514835596 -0.34718841314
0.56197977066 -0.64845615625 -0.51337850094
0.67660063505 -0.49919322133 -0.54131114483
0.67981207371 0.62213021517 0.38766431808
-0.48801594973 0.81821286678 -0.30387973785
-0.68137955666 0.71861296892 -0.13809107244
-0.56698071957 0.82358163595 0.0043038292788
-0.66770863533 0.71993160248 0.18900294602
-0.76430004835 0.64373773336 0.036188215017
-0.47073337436 -0.33826851845 -0.814840734
-0.53316128254 -0.47969272733 -0.69692510366
-0.61988067627 -0.3360054493 -0.70913499594
0.45119047165 0.87670254707 -0.16705000401
0.56363886595 0.77278935909 -0.29115366936
-0.86925309896 0.38719192147 0.30721050501
-0.95392400026 0.28655388951 0.086951240897
0.50777810812 0.302346766 0.8066560626
-0.021315742284 0.35884603858 0.93300956488
0.17118680477 0.36626330018 0.91457903385
0.033529117703 0.53023278713 0.84719634056
0.21491259336 0.58422827721 0.78263044357
0.34271761775 0.40808078647 0.84619289637
0.35652494431 0.18940021098 0.91455990076
0.63494181633 0.15077920258 0.75729125738
0.18277342618 0.16123117507 0.96967226267
0.29362002015 -0.013112534769 0.95580178499
0.098943725228 0.019292922691 0.99489480257
0.51153326035 -0.040018387139 0.85813379288
0.38568040729 -0.45718470216 -0.8013831377
0.52623039484 -0.5258050561 -0.66822993755
0.36528590322 -0.59290635586 -0.71765112877
0.86199009418 0.10534228384 -0.49571254849
0.78193575144 0.18063597381 -0.59650528431
0.84330433607 0.25546097755 -0.47281190753
0.80514532328 0.02199627459 -0.59258210659
0.72344648838 0.062043767422 -0.68755251169
0.73419070244 -0.09013850987 -0.67274695635
0.68136096001 0.16887228191 -0.71221077442
0.88006007671 -0.092789292336 -0.46527057886
0.61953181028 0.091587990522 -0.77963793278
0.65130776167 -0.02080722712 -0.75851762295
0.52958810329 -0.018152972683 -0.8480604291
0.60688501596 -0.13773630559 -0.78274691105
0.15631762147 -0.74135458469 -0.65265005827
0.00010286277393 -0.78929489851 -0.61397558451
0.074177376926 -0.68348234892 -0.72619956732
-0.041963387281 -0.69006371498 -0.72249352932
-0.12032047659 -0.74075216055 -0.66089445353
0.11480312049 -0.58875530958 -0.80012369156
-0.0059448108077 -0.60557472706 -0.79576945305
-0.10897661 -0.87302064896 -0.4753203392
-0.27239608765 -0.90991389751 -0.31316420436
-0.26534795761 -0.83280944824 -0.48576870561
-0.057811889797 -0.93465733528 -0.35018959641
-0.46405407786 -0.77913868427 -0.4214027524
-0.49472352862 -0.84407931566 -0.20461888611
-0.10950414836 -0.6138792038 -0.7817581892
-0.10758123547 -0.53686863184 -0.8367498517
0.29344218969 -0.70358926058 -0.64718747139
0.21258419752 -0.64725184441 -0.73202890158
0.040407344699 -0.88157272339 -0.47033718228
-0.81205612421 0.20507140458 -0.54635417461
-0.77169042826 0.35890114307 -0.52502429485
-0.70344603062 0.30515426397 -0.64188754559
-0.6732198596 0.43447494507 -0.59834998846
-0.38748547435 0.17512287199 -0.90485233068
-0.46881726384 0.10245762765 -0.87717276812
-0.48651212454 0.19090992212 -0.85255467892
0.52303266525 -0.348549366 0.77756464481
0.68601250648 -0.2594614327 0.67965579033
0.85595726967 -0.31133246422 0.41256737709
-0.77895575762 -0.0059638479725 0.62673473358
-0.6237232089 -0.16043208539 0.76426839828
-0.62666457891 0.096637926996 0.77320128679
-0.73575466871 0.20250605047 0.64575862885
0.92130255699 0.12357927859 0.36868679523
0.87934488058 -0.0023461296223 0.47585391998
0.96040773392 -0.071032501757 0.26907873154
0.35709357262 -0.39269825816 0.84742850065
0.38418599963 -0.20555430651 0.90006303787
-0.21741642058 -0.46190333366 -0.85986655951
-0.37533536553 -0.50652748346 -0.77624708414
-0.32130295038 -0.40175670385 -0.8575219512
0.24353824556 -0.18528912961 0.95203089714
0.10495021194 -0.22062268853 -0.96959680319
0.098018795252 -0.37412160635 -0.92217361927
-0.025418622419 -0.28146499395 -0.95922392607
-0.16690514982 -0.3595110774 -0.91806733608
-0.028791818768 -0.39536851645 -0.91807562113
-0.10642190278 -0.45187306404 -0.8857114315
0.014145161957 -0.50053167343 -0.86559021473
-0.21599204838 -0.55452424288 -0.80363887548
-0.27280783653 -0.61415040493 -0.74051773548
0.92716366053 0.045868843794 -0.37178355455
0.83556735516 0.48218768835 0.26321914792
0.9024592638 0.4229042232 0.08154617995
0.80943048 0.57598274946 0.11409558356
0.97930335999 0.041157759726 -0.19750182331
0.94632017612 0.15519854426 -0.28351253271
0.9710599184 0.18549740314 -0.15040788054
0.93270373344 0.26985681057 -0.23926609755
0.89775055647 0.26277625561 -0.35352966189
0.94033640623 0.31141197681 -0.13707667589
0.88986152411 0.34471938014 -0.29883778095
0.89901965857 0.38895690441 -0.2012334168
0.85265356302 0.42997831106 -0.29678440094
0.84660792351 0.36021798849 -0.39175799489
0.90423369408 0.420712322 -0.073224440217
0.84848600626 0.49634113908 -0.18355891109
0.83287978172 0.55228751898 -0.035321202129
0.90142762661 0.16568437219 -0.39999273419
0.99323093891 0.11273344606 -0.025550955907
0.95959663391 0.28012999892 -0.025192718953
0.97078084946 0.21538718045 0.10527037084
-0.044201407582 -0.14558543265 -0.98835110664
-0.1575794965 -0.23812246323 -0.95836001635
-0.18295121193 -0.12753349543 -0.9745041132
-0.2899415791 -0.2965798676 -0.9099188447
-0.25419208407 0.94669133425 -0.1969627589
-0.22763802111 0.88751739264 -0.40057507157
-0.072042800486 0.54308861494 -0.83656984568
-0.12628266215 0.63418406248 -0.76272445917
0.019214162603 0.61537885666 -0.78795677423
-0.032641664147 0.74318689108 -0.6683139205
-0.21827913821 0.70750778913 -0.672072649
0.13409666717 0.68001818657 -0.72078931332
-0.26785945892 0.60497117043 -0.74979490042
0.12840735912 0.8060464263 -0.57772737741
-0.043178267777 0.85694438219 -0.51352101564
0.69422924519 -0.71466207504 -0.084010839462
0.50193625689 -0.85976344347 0.0833100155
0.79525756836 -0.44571864605 -0.41103553772
0.82718336582 -0.52980220318 -0.1865594238
0.54919403791 -0.77151155472 -0.32103386521
0.37917411327 0.59077244997 -0.71215254068
0.26406785846 0.58540827036 -0.76652103662
0.27794730663 0.69154649973 -0.66668444872
0.36750122905 0.49827045202 -0.78525131941
-0.34039708972 0.78414946795 -0.51873672009
-0.49199604988 0.69913041592 -0.51871740818
-0.3620582819 0.67769557238 -0.63999652863
-0.47115400434 0.61530280113 -0.63199907541
0.14819517732 0.41824015975 -0.89614760876
0.1464972645 0.54653483629 -0.8245267868
0.26354068518 0.46019750834 -0.84778982401
-0.38617232442 0.57540261745 -0.72096949816
-0.63395535946 0.62950265408 -0.44894754887
-0.59174948931 0.56148952246 -0.57843250036
-0.17891427875 0.8050314784 -0.56564152241
0.042553599924 0.4982753098 -0.86595672369
0.011330381036 0.013816313818 -0.99939566851
-0.11673558503 -0.024266611785 -0.99286162853
-0.046707805246 0.10537806898 -0.99306231737
-0.2479647249 -0.0008996501565 -0.96830177307
-0.1720072031 0.090653628111 -0.98086869717
-0.32326215506 0.085925780237 -0.94237077236
-0.58449339867 -0.20516093075 -0.78441220522
-0.47389188409 -0.15067200363 -0.86755239964
-0.58393865824 0.047829672694 -0.81036049128
-0.67660856247 -0.037730693817 -0.73490667343
-0.66333067417 0.10065343976 -0.74152189493
-0.75427532196 0.057173047215 -0.65402656794
-0.79143875837 -0.096339479089 -0.6036003232
-0.56994521618 0.14515842497 -0.80873262882
-0.27083355188 -0.19551734626 -0.94253242016
-0.37902462482 -0.2179453969 -0.89930784702
-0.33637756109 -0.12556004524 -0.93295830488
-0.19184498489 0.54542887211 -0.81583172083
-0.30793300271 0.50384503603 -0.80701899529
-0.2692618072 0.40830117464 -0.87207764387
-0.36315873265 0.42324659228 -0.83004748821
-0.24082677066 0.18081569672 -0.95337504148
-0.38442584872 -0.59517103434 0.70548337698
-0.29931080341 -0.47503548861 0.82747030258
-0.48007357121 -0.39413872361 0.78310739994
-0.61952883005 -0.44859942794 0.64356517792
-0.41017118096 -0.11677078903 0.90443074703
-0.2455573976 -0.15560366213 0.95676857233
-0.33550286293 0.0057566245086 0.9419901967
0.030606508255 -0.12686610222 0.99143701792
0.15345928073 -0.10885474831 0.98213779926
0.11294659972 -0.25408101082 0.96055144072
-0.021857809275 -0.23814924061 0.97096592188
-0.011577606201 -0.37532195449 0.92674732208
0.13182245195 -0.39661535621 0.90847915411
0.086925305426 -0.569272995 0.81702113152
0.24574796855 -0.32027325034 0.91491276026
-0.13293038309 -0.28575533628 0.94901585579
-0.13878178596 -0.46900391579 0.87219357491
-0.25407916307 -0.3348403275 0.90732336044
-0.1825851351 -0.60996258259 0.77062064409
-0.21646888554 0.37849083543 0.89993989468
-0.14821574092 0.25128856301 0.9565076232
-0.49801290035 0.010767903179 0.86711215973
-0.46057572961 0.18389971554 0.86834478378
-0.31933379173 0.14444240928 0.93650597334
-0.30192646384 0.26374733448 0.91604369879
-0.42132979631 0.38342946768 0.821834445
-0.20044450462 0.12302547693 0.97192203999
-0.056800764054 0.11005327106 0.99218147993
-0.17380851507 -0.016508789733 0.98463016748
-0.039138585329 -0.025299562141 0.99892359972
-0.10394776613 -0.14067856967 0.98457604647
-0.59104013443 0.29481908679 0.75080823898
0.22527427971 -0.48574528098 0.84451496601
0.42449679971 0.073673248291 -0.90242290497
[...]
CELL_DATA 1042
SCALARS cell_data_0 double
LOOKUP_TABLE default
1.65838806557e-05
1.46697762265e-05
1.23593589556e-05
6.5746410619e-05
2.20846503789e-06
2.80011714957e-05
9.86741082059e-06
1.54124550137e-07
1.03049141728e-05
3.34983423164e-05
3.72643763065e-05
1.67894400656e-07
3.39329221094e-07
1.11412121732e-05
7.8333120378e-06
1.18315653086e-05
9.34681042358e-06
8.93816296469e-06
9.70143026132e-06
1.11221676503e-05
1.36449354646e-05
1.01682119761e-05
1.42807893955e-05
1.39279365268e-05
1.36858826401e-05
2.34878413337e-05
2.65560724372e-06
2.87995976214e-07
3.85082982126e-07
9.32655375836e-07
5.07643977993e-07
6.27892262335e-07
1.18756100821e-07
3.70999547098e-07
4.86262367856e-07
3.98599164964e-07
2.86117351664e-06
9.17030374504e-08
1.51680316614e-07
1.40108150816e-07
9.63328694715e-06
3.83331428895e-08
3.75574300996e-07
3.47335451802e-07
2.55213263422e-05
2.49066793335e-08
1.35356163789e-07
5.12643812355e-08
2.44630686072e-07
9.09332271043e-07
2.56842215683e-07
3.48374158986e-07
8.78262419883e-08
1.60230847847e-05
1.89954517102e-05
1.00005531704e-05
1.75428503536e-05
1.19305719039e-05
9.30156181351e-06
1.65781871707e-05
2.42289614795e-06
1.23880047673e-05
5.51772601404e-06
8.6923379708e-06
2.75003765436e-06
8.03266353274e-06
1.35791696388e-05
1.81118503157e-05
3.4754265276e-07
2.52081991108e-05
9.28911022796e-06
1.55712238241e-05
1.8811819972e-05
3.07489127358e-07
1.97283687763e-07
7.75506438736e-08
2.05811733264e-07
2.14966111984e-07
2.31589806801e-07
2.38407973339e-07
2.7404039282e-07
3.20563599223e-07
2.02647861838e-07
1.32410176613e-07
2.03249428657e-07
8.08799278511e-09
2.71111974545e-07
1.33725742866e-06
4.22347719921e-07
3.56126342981e-07
1.2205732661e-07
2.97363621242e-06
1.56624496364e-08
2.76483128375e-07
7.07057362759e-08
2.62634244789e-06
1.53094285123e-07
2.82924592303e-06
4.3125006453e-07
1.21635603085e-07
1.59522567203e-08
3.37278397334e-07
1.14196786591e-07
2.31795606875e-07
2.64007209689e-07
1.66033998519e-07
3.86636631515e-07
6.08507329766e-07
7.31425775521e-07
3.21186904613e-06
8.21628831715e-07
1.15073440607e-06
9.39918361757e-07
3.08611050581e-06
3.06248928775e-07
1.2753042262e-07
1.13431897573e-07
2.34894880933e-07
7.9612653492e-08
1.79027509005e-07
2.05311905574e-07
1.16035135235e-07
4.47581389933e-07
2.51954294376e-07
2.49008414814e-07
2.34077515881e-07
5.20594939343e-05
3.65252008417e-08
3.17622496264e-08
1.39648274435e-07
2.72907107243e-08
1.08340549005e-05
2.21854830995e-07
2.75220350235e-07
1.28095327428e-06
2.19210164291e-06
1.1783696186e-07
1.50972595973e-06
4.35670832001e-07
1.19592654954e-06
1.23500893825e-06
3.93925946617e-05
2.89743773203e-06
2.47939012683e-06
3.62206950617e-06
2.04015339135e-05
3.76890966002e-05
2.44771063025e-05
1.45145507471e-05
2.71853341667e-05
3.90032673396e-05
2.59999559555e-05
1.11544908027e-05
6.94848601909e-06
3.01437659878e-05
5.14835510316e-06
8.14087897979e-06
1.72406586811e-05
3.41522768869e-05
3.02167142366e-05
1.05035756652e-05
1.57222072926e-05
1.51819060307e-05
1.59852175395e-05
1.66179001704e-05
2.03780200595e-07
1.42427088895e-05
7.04091376185e-05
3.52798695589e-05
1.77788809805e-05
1.48563271659e-05
1.19312588189e-05
1.21950141329e-05
1.43479587775e-05
1.70976377266e-05
3.16462815758e-05
1.55285221024e-05
2.4286590569e-05
1.10480690822e-05
1.11754892059e-05
5.77432153953e-06
5.26521432513e-06
2.15639588205e-05
3.2972950206e-06
4.07505327796e-05
4.11763021017e-05
7.27240037344e-06
2.29569937193e-05
2.83982424462e-05
1.69726042318e-05
1.07205435326e-05
1.09769521801e-05
6.47654748828e-06
5.63125374667e-06
4.73569348297e-06
1.2977717853e-05
1.03397319439e-05
1.39272057414e-05
5.06119452891e-06
6.02347660859e-06
1.27585882539e-05
1.16588416673e-05
5.87644629904e-06
6.22216580049e-06
7.9043162977e-06
1.78035451725e-06
1.14711988293e-05
7.57350967091e-06
6.88352486739e-06
5.38318478015e-06
6.87227582186e-06
6.12517687287e-06
5.67315296612e-06
5.1843052718e-06
5.94400172684e-06
4.90609139314e-06
5.78754384262e-06
4.5020608912e-06
7.97474612095e-06
8.81840556714e-06
6.86393372289e-06
5.21024995888e-06
7.17978534316e-06
8.38964631172e-06
9.47329665025e-06
8.60511199031e-06
1.27098494184e-05
6.12864057645e-06
4.43004748718e-06
5.4150519694e-06
1.1950905774e-05
1.16936979513e-05
5.65503579658e-06
5.74721475243e-06
6.16145117117e-06
6.60864845707e-06
7.15831785633e-06
1.23482324127e-05
1.1500235667e-05
1.24633140599e-05
1.0740240888e-05
9.67502538711e-06
9.53536108595e-06
4.73844021246e-06
8.21534120583e-06
8.86795634162e-06
9.07917911365e-06
2.28472872696e-06
5.06795823358e-06
1.07151613042e-05
7.17739358565e-06
8.45777303704e-06
1.22719500454e-06
1.2187964475e-06
6.37554735774e-06
5.69788225153e-06
2.40311212944e-06
2.14628431958e-06
2.38738552964e-06
5.48521256787e-06
1.94905236981e-08
2.38907299388e-06
1.69550877883e-06
4.05562470844e-08
5.31493250298e-08
9.75889951937e-08
9.19424755591e-06
4.8953498478e-06
5.28849769997e-06
6.96599567544e-06
1.17847773311e-08
3.36853169752e-08
4.20688043781e-09
3.43751820073e-08
2.43890526881e-08
1.66754211197e-08
6.53531660334e-09
8.06705324925e-08
1.37146692197e-07
1.6881139639e-07
2.95123862174e-08
3.84230516912e-07
9.07754779926e-08
1.23926455895e-07
1.01558633074e-07
7.14083993236e-06
4.91253588348e-06
2.22752985566e-09
4.43273750154e-09
3.69036208247e-09
5.67047044639e-09
7.02817525871e-09
7.09750301318e-06
7.73225959483e-06
8.90617900405e-06
2.55639783899e-05
6.60127844851e-06
2.42885181307e-06
6.89605942065e-07
8.98676586305e-07
9.91500256402e-07
2.13006664412e-07
6.11864280786e-06
7.71527330683e-06
4.77976559898e-06
5.21157324107e-06
5.84955510994e-06
5.79879370219e-06
1.038016306e-05
7.75887379482e-06
1.39915153685e-05
1.12254253984e-05
7.06343473779e-06
5.1266600821e-06
8.97599894868e-06
2.52399848917e-06
5.78851715371e-06
6.27731527225e-06
5.55909341441e-06
5.6730522154e-06
7.4286181931e-06
4.55272170564e-06
4.82716910571e-08
4.41125658028e-08
3.68326765241e-09
1.05994745766e-08
6.25881720011e-08
6.50849650592e-07
5.93199551941e-08
6.18429877622e-07
1.45130213674e-06
1.65016339526e-06
1.55757806124e-06
7.0651128961e-10
3.93415237723e-08
9.30448274429e-07
5.19349782877e-07
2.95934074067e-06
3.61850705564e-06
4.210955211e-06
2.01211376667e-06
6.55426200125e-06
4.40132211125e-06
1.72446957111e-06
2.18351315259e-06
2.44882071944e-06
1.23144478872e-06
1.29917945904e-06
6.72537578101e-08
1.0337285876e-05
1.37628406046e-05
8.7346961444e-06
1.26690827941e-05
4.30432552876e-06
6.44657373654e-06
9.12508331434e-06
1.03064180857e-05
7.32441418732e-07
1.87513161205e-05
1.53641870628e-08
1.93990544699e-07
6.233429283e-08
6.30588339568e-08
1.38072732159e-07
6.68020289343e-08
1.6299742661e-08
2.87026108894e-06
9.1433105844e-06
8.00348042634e-06
6.86377644538e-06
5.44776498084e-07
9.71149726682e-06
8.13792891031e-06
7.16814183391e-06
1.04114608956e-05
6.45673583615e-06
4.42239258313e-06
4.18545517509e-06
5.04569799524e-06
6.15549909954e-06
7.8690257124e-06
3.50973932947e-05
6.10797794009e-06
5.91235917126e-06
9.61559128348e-06
1.08051888541e-05
2.84966579825e-07
8.08071286015e-08
1.17180763121e-07
7.39782257445e-08
1.85368652707e-07
1.86136018734e-07
1.21532927159e-07
9.42713891239e-08
5.35732834797e-08
2.3128298812e-09
3.21415443251e-08
3.88897562827e-09
8.68862360724e-06
2.19746714889e-06
3.84721311084e-07
3.75180443482e-07
2.33171505205e-09
8.3183635133e-08
6.03222615334e-06
9.85221419724e-08
4.32379845428e-08
3.417925982e-06
1.41683494411e-08
1.22710728197e-07
1.66300317725e-08
4.07229633428e-09
1.22448872391e-08
5.48442419999e-09
1.15757452225e-08
1.09034120238e-08
5.80742763237e-10
2.92320221965e-09
1.26868259994e-07
2.89494418205e-08
5.93075811169e-09
1.96512488047e-08
1.90129005523e-08
1.20912511131e-08
1.82427271952e-08
2.87157928558e-09
2.44508148433e-06
6.14601881847e-07
6.53877756308e-07
1.92673774189e-07
1.53010076228e-07
3.09030135311e-06
2.08950688613e-07
1.90975507094e-07
2.46203670923e-07
2.94525394365e-07
2.49746897029e-07
1.00429059786e-07
1.96317575755e-07
1.36816036858e-07
2.03263811566e-08
7.5451424363e-07
1.75078236915e-08
1.30075710652e-07
6.39781459361e-08
7.81641634694e-07
1.97798300746e-06
2.33493967288e-08
1.15171521923e-08
3.29868708285e-07
1.140977345e-07
1.65772213024e-07
1.12237008054e-07
4.63758865087e-08
1.65448865002e-06
4.72272743519e-07
1.48773897633e-06
3.94834466956e-08
7.02082798284e-07
4.47712980789e-07
1.76350258855e-06
1.5885213391e-07
1.17605544733e-07
9.09295609257e-07
2.42731363433e-06
1.45555081917e-09
8.59368422471e-08
1.65684510109e-06
1.44502229547e-07
4.10682606012e-07
2.30584710854e-07
4.85063648095e-07
3.06484949109e-07
3.12823605891e-07
1.79995916405e-07
5.99145982106e-07
3.83893917503e-08
7.47177605633e-08
2.73997920374e-06
6.29086155716e-07
3.9094547234e-07
4.0568202774e-07
7.27976362593e-07
5.20541882026e-07
1.9830035269e-07
7.44193786509e-08
6.01829325793e-07
2.60474214275e-07
4.49685618627e-07
3.72988920619e-08
9.39517953755e-09
9.35108792162e-08
9.72253356819e-10
1.55099897356e-09
2.12254601787e-08
7.56457845266e-07
5.63194299228e-07
3.70044233511e-09
5.06604469896e-07
5.42547456554e-07
8.17589530154e-07
2.59388814218e-08
5.24182561945e-08
3.47795335554e-06
1.5003681638e-06
9.75182573552e-07
8.48987894545e-07
1.25648918488e-06
3.89808615151e-06
2.42068350279e-06
5.90700199487e-06
6.56592728463e-06
6.28314423624e-06
3.75055291771e-06
2.84866947631e-06
2.19345738538e-07
2.61546433914e-06
5.255489309e-08
2.01339764075e-06
1.2454859417e-06
2.55220507538e-06
9.6776453191e-07
1.30753236601e-06
2.32134589526e-07
3.15031981705e-06
3.52677770114e-06
8.18686763856e-07
2.86103871476e-07
2.46958516596e-05
3.71736953996e-05
3.98413969111e-06
8.5938208584e-07
5.57194470314e-06
1.21175658811e-06
1.16425675062e-06
5.37235900495e-06
2.32118664892e-07
3.88889366949e-07
3.38414744837e-08
2.75219744735e-07
1.47048994178e-07
2.96548926443e-08
1.47553907945e-07
1.94740423125e-05
1.19954904614e-06
4.24358846757e-07
1.52535238812e-07
4.26420685013e-06
1.5092476597e-07
5.30893434516e-07
2.7995602332e-06
3.84836077757e-06
2.540306942e-05
1.80431512111e-05
3.2580350681e-06
2.03004989349e-06
1.51057587118e-06
4.0368681275e-06
5.55332175958e-06
5.36341802176e-07
3.98175837744e-07
3.06344435618e-06
1.11891767196e-06
2.108262597e-07
3.17842635066e-08
1.77238016915e-07
6.28619789365e-07
1.74117173431e-07
1.65533919515e-08
1.55881517649e-07
8.9541260183e-08
2.5617673703e-06
2.65314233058e-07
6.17932686973e-07
1.64491000935e-08
1.68417034862e-07
3.76376528692e-07
4.81005453124e-07
9.82712309433e-07
2.10521025261e-07
4.45614340656e-08
1.84410976453e-05
1.9012332144e-07
2.46627195254e-07
1.37961475313e-07
1.49389926138e-06
1.29080966237e-07
2.08409152044e-06
3.53255194799e-08
6.26813071591e-08
5.77552391544e-08
3.06186883978e-08
1.63117673368e-07
1.32459241949e-05
2.68597735303e-07
3.86732508889e-07
1.5335571778e-05
2.11021970593e-07
1.05409751278e-06
1.94203573599e-07
1.36861698161e-05
5.84597557177e-07
9.67471484713e-07
4.56727647363e-07
7.65342144025e-08
1.31365791855e-07
5.82876533368e-08
6.51278301251e-08
9.40029414948e-07
3.79051350126e-07
4.56693872998e-07
4.0336392626e-08
1.18563007475e-05
7.16224239281e-07
2.54887979852e-07
9.07698419381e-07
1.96516959226e-06
1.90614477074e-05
1.34914144834e-06
1.31765780128e-06
1.18971050817e-06
3.85910881471e-07
4.38323004606e-07
1.09136737739e-06
2.28375101578e-06
6.92051724747e-07
6.42832934053e-07
1.01016259088e-07
6.29790406268e-07
5.11308068775e-06
6.45680174535e-07
4.92991673277e-07
7.45589936029e-08
1.16976540081e-06
4.68489277664e-07
1.60975050896e-07
1.18498095272e-06
1.32817815733e-06
2.2747160772e-06
2.50140784347e-06
2.43903987619e-06
4.80468577244e-06
2.98036960838e-06
4.78950521685e-06
1.06256772361e-06
4.34812639609e-07
4.94543683483e-07
5.68974391894e-07
5.58321829949e-06
3.18323881532e-06
1.80809829189e-06
3.8248667982e-06
8.81758907555e-09
3.06366765878e-08
2.35104206563e-08
1.43423905671e-08
4.95412515871e-08
1.5860645083e-07
1.81653306052e-07
3.71926033898e-07
3.23855934605e-06
2.3835207643e-06
3.51052526801e-08
6.11723057287e-06
5.217816469e-06
8.26101322994e-06
8.51490156856e-06
1.24009109256e-05
5.95896312001e-06
1.97077198529e-06
5.91169363418e-06
7.90008415875e-06
8.79411292106e-07
3.75413877908e-07
2.66725457431e-07
6.74007350738e-07
2.46796203133e-07
3.71515953092e-07
4.52649341686e-07
1.56013210156e-07
2.91131206072e-07
3.10351445429e-07
1.72536378233e-07
4.12613683798e-07
1.59749974666e-07
8.12860280644e-07
7.62354528009e-07
5.24513021217e-07
3.70111709884e-07
5.64357962879e-07
1.8185711246e-08
1.26611346113e-07
1.17147449849e-07
1.50930598586e-07
1.36376675486e-07
8.73599587733e-08
2.42436642978e-05
1.57290012315e-07
1.62549348818e-07
3.44394478504e-08
7.1802477198e-06
6.08542625891e-06
1.13199833166e-05
1.1669291871e-05
1.06340916574e-07
2.53603966228e-06
2.21058367242e-07
1.97845619714e-08
2.05807756617e-07
2.51553271247e-07
7.32071554473e-09
2.48568374009e-08
9.25793752206e-08
8.07227723908e-08
1.33972138267e-07
8.32274471546e-08
1.41790294161e-07
6.7911790256e-07
2.40763662179e-08
1.02233007183e-07
1.30518529485e-07
3.48954449696e-08
1.83408646815e-07
6.51117104217e-06
2.02297890037e-06
6.02063605204e-07
4.65582731916e-06
6.79047315721e-08
3.05580444265e-06
2.76071752735e-06
3.47196753406e-06
5.60724270008e-07
2.86604009743e-05
4.68636569498e-06
2.37688864318e-05
1.81222505474e-07
1.98841602088e-05
3.92939830046e-06
3.40422914069e-05
3.56090271567e-05
5.69051640141e-05
3.30253774146e-06
2.93393679249e-06
2.32137699556e-07
2.81317492567e-07
1.24132614809e-07
1.25787242851e-07
7.29099682794e-07
3.5294670864e-07
1.67179344943e-06
7.54032364153e-06
1.75639545358e-07
1.88622132668e-07
4.20990935397e-08
9.80615046485e-07
3.41052439498e-07
3.22037852658e-05
1.19274047294e-05
1.05741944385e-06
1.83314030137e-06
1.66028427884e-05
3.98643103551e-06
1.12824812256e-05
3.41318671564e-06
8.28409652268e-07
9.94517201683e-07
1.78080604811e-07
2.08313632096e-07
3.93834672317e-06
2.36470133326e-05
7.89445539506e-07
1.53322733808e-06
1.30308964345e-05
1.60207937901e-05
4.29778643474e-08
6.83118782839e-07
3.62942296282e-05
8.95336226608e-06
2.10975514993e-05
2.34556927508e-05
1.53498899015e-05
3.2409018497e-07
1.49173384228e-05
4.83147107381e-06
6.50230067103e-06
1.09603669573e-06
1.50854667166e-06
1.34767368858e-06
8.53786620078e-07
1.27537768014e-05
9.15530982076e-07
6.53556673125e-07
6.80542840387e-07
1.19201136243e-05
1.99311671293e-06
1.70498829661e-06
3.81806544096e-06
3.21581127343e-06
6.40408363139e-06
3.6566394126e-06
3.40811497869e-07
1.23967627834e-06
2.06284660798e-05
1.48405514588e-05
2.34861068502e-05
1.4765463945e-06
1.60333042877e-06
1.04176372552e-06
2.13672515824e-06
4.14028222808e-07
1.07569022985e-06
1.69928001572e-06
5.48427676953e-07
1.552746797e-06
3.08525005361e-06
4.55207930828e-06
9.25643918442e-06
1.8101174338e-05
2.51336029503e-06
1.48190871505e-05
3.01685445332e-05
3.22612839966e-07
3.47839393057e-07
1.37332411887e-05
4.80244890518e-06
8.55713132868e-06
6.34012330424e-06
7.46112687701e-06
6.14059716557e-06
9.82127409057e-06
1.08542179066e-05
7.07747716604e-06
8.38685691065e-06
6.11108529675e-08
4.54999762361e-08
9.80737374502e-08
7.24801700068e-07
4.69644998416e-06
1.35179353217e-06
7.08504183712e-06
4.10698121791e-06
5.64338388916e-06
6.06963542162e-06
1.35211787494e-05
1.4283269192e-05
1.36096950569e-05
1.11231049709e-05
9.82839135844e-06
2.11668506968e-05
1.18471943131e-05
5.28313203104e-06
8.71362195752e-06
1.44238792896e-05
9.76586658965e-06
4.10908701872e-07
1.28479164283e-05
1.13788420626e-05
5.14523551031e-06
3.09222487279e-06
6.19092113242e-06
4.75664737419e-06
3.59396709389e-06
3.17829907674e-06
4.20476461493e-06
2.79070266243e-06
1.81850804468e-06
2.28611930275e-06
5.84106205893e-07
1.89597359394e-06
1.09421929491e-05
2.34442983413e-06
7.68457996359e-06
5.28954032194e-06
8.4245861048e-06
7.16404377895e-06
1.31650138376e-07
4.27360661778e-08
1.09988959309e-07
1.15337442915e-07
2.50500534605e-07
4.58116214756e-09
2.81918536321e-07
4.41665289986e-07
4.92290842034e-07
3.67050276735e-07
1.02438835192e-07
9.26330625351e-08
4.73306389767e-06
5.21785092444e-06
1.5166590118e-05
1.35991149702e-05
2.51648054814e-07
3.35363055315e-06
1.29568956574e-06
3.19243308733e-06
2.51509168008e-06
1.37627868622e-07
1.0782182161e-06
7.4844359149e-07
9.38007105523e-07
4.59922116775e-07
7.94688846934e-06
1.1030131066e-05
7.27192725024e-06
2.93499202975e-06
2.45164909234e-05
8.36609478707e-06
2.9939740589e-06
8.81475295912e-07
2.15176685775e-06
2.55319690645e-06
1.71300072003e-05
1.24877990115e-05
2.64452039159e-05
2.6295395593e-05
1.52659455632e-06
7.06764682689e-07
1.08778529666e-06
4.99541503157e-06
3.25595387272e-06
3.87179855451e-06
4.46477291334e-07
4.63335176892e-06
2.57373989871e-06
4.0075778123e-06
4.11435918063e-06
2.99108692156e-06
4.89696039671e-07
5.22369913418e-06
3.24475233734e-06
5.05234327058e-06
2.83759216059e-06
2.82656945026e-06
1.41507916249e-07
4.66704135521e-06
3.27244452442e-09
1.42379872593e-09
1.85567049376e-09
2.51792037656e-06
2.06077408794e-06
2.64834455005e-05
4.45858661362e-05
1.57602144962e-05
1.90594053914e-05
2.19562514528e-06
2.06348743539e-08
9.73649652521e-07
3.4700640104e-06
4.2375074553e-06
1.09607828301e-07
1.68767104625e-08
1.64742214441e-06
1.82559202908e-06
1.26859248677e-06
3.42651332192e-10
6.53830103828e-10
6.08676788311e-10
2.09653215427e-06
2.4189335855e-06
5.61476204851e-08
1.4563456497e-09
2.79623472804e-06
2.39426030698e-06
2.92405652149e-06
8.58649994336e-06
2.2789374494e-06
1.20346877235e-07
4.46252337155e-06
3.89119035603e-06
1.01433496854e-05
1.12475256502e-05
1.36003114606e-06
1.93338023471e-06
1.38754774651e-07
9.20424871945e-06
6.28021936042e-06
4.33060719506e-06
8.01953181395e-06
4.5792055687e-06
1.82368244391e-05
8.22025032594e-06
2.15220834919e-05
2.5311912105e-07
9.11963135678e-07
5.91663746459e-06
6.19040484374e-06
6.83245877429e-06
5.91103152005e-07
2.41222156107e-06
5.65696625066e-06
2.53246188442e-06
8.30008383761e-06
6.62297449986e-06
4.70363338074e-06
4.98881818625e-06
5.17673681045e-06
2.7165523297e-06
7.29925701461e-09
1.55386895666e-06
2.69974475409e-06
2.77267159655e-06
1.53710795574e-08
8.63333207969e-06
5.38358840457e-06
4.74306312221e-06
1.77301858883e-08
3.65662286637e-06
1.73512895089e-06
5.36719275863e-06
9.1470848142e-06
6.89905578031e-06
2.6708632415e-06
1.1656993213e-05
3.60504949051e-06
2.21605618214e-06
2.7873987509e-06
4.21032329914e-06
5.24326859288e-06
6.06145024294e-07
3.23199430855e-07
4.89978468161e-07
6.15441547428e-07
5.90700599976e-07
6.81425546838e-07
2.39091823668e-07
4.42648481964e-07
6.41047413058e-06
8.14901381999e-06
1.07572399246e-05
1.09803951955e-07
6.59389582066e-07
1.11153925233e-06
5.55870090922e-06
3.6121329508e-07
4.02881311326e-07
1.36459463602e-07
8.21581553706e-07
5.63927158856e-06
7.59773650127e-07
7.87679180828e-07
1.64220306035e-06
1.24632256558e-06

