# vtk DataFile Version 3.0
File Name: Molecule/sphere_excent/sphere_excent_0-s54.vtk
ASCII
DATASET UNSTRUCTURED_GRID
FIELD FieldData 1
TIME 1 1 double
0.0
POINTS 1144 double
-0.54295581579 0.80713319778 -0.23178401589
-0.64910417795 0.74894654751 -0.13330864906
-0.56923520565 0.82056868076 -0.050770625472
0.4061460197 0.85886526108 -0.3118493259
0.43408626318 0.8886578083 -0.14784646034
0.54863637686 0.786031425 -0.2849470377
0.39212840796 -0.4566513598 -0.79859238863
0.50705569983 -0.50929147005 -0.69533497095
0.37065246701 -0.59239917994 -0.71533381939
0.86813336611 0.064794629812 -0.49191907048
0.80879622698 0.18747931719 -0.55718481541
0.87763792276 0.16226559877 -0.45080992579
0.88231825829 -0.084405682981 -0.46301043034
0.82892036438 -0.01294312533 -0.55914151669
-0.25336933136 -0.87647294998 -0.40938183665
-0.14832414687 -0.87860733271 -0.45391851664
-0.17345400155 -0.92156010866 -0.34732604027
0.57739132643 -0.10843718797 0.80918598175
0.53701794147 -0.34321385622 0.77055674791
0.67143797874 -0.23001980782 0.7044044733
0.9179494381 0.13780365884 0.37170293927
0.88393104076 0.054138675332 0.46443843842
0.94894230366 0.036928646266 0.31330126524
0.39072415233 -0.45574691892 0.79977226257
0.39059579372 -0.29224964976 0.87288969755
0.50675243139 -0.56766480207 0.64878559113
0.63005495071 0.43144926429 0.64556980133
0.57442170382 0.3269777894 0.7501091361
0.72848343849 0.28361073136 0.62362116575
0.11490654945 -0.26787433028 -0.9565808773
0.11719615012 -0.37369585037 -0.9201104641
0.014944941737 -0.29854464531 -0.9542657733
-0.18924473226 -0.37861827016 -0.90599405766
-0.1282081753 -0.45263153315 -0.88242131472
-0.21548309922 -0.4461171329 -0.86864489317
-0.19748748839 -0.51306641102 -0.83530330658
-0.1296351999 -0.61899584532 -0.77463293076
-0.2009691298 -0.58408975601 -0.78641808033
-0.091949358582 -0.54738688469 -0.83179634809
0.030713394284 -0.51908695698 -0.85382008553
0.008467912674 -0.59091079235 -0.80661857128
0.92673712969 -0.003542996943 -0.37568086386
0.83347892761 0.49909806252 0.2362818867
0.87780433893 0.46269470453 0.12412017584
0.81265592575 0.56569194794 0.14003317058
0.88412421942 0.34767130017 -0.31218257546
0.89307355881 0.38274288177 -0.23648196459
0.9254745245 0.30054590106 -0.23057410121
0.84553486109 0.43517440557 -0.30933228135
0.88188368082 0.28863561153 -0.37278321385
0.84130185843 0.36707183719 -0.39678561687
0.84026968479 0.26346385479 -0.47374293208
-0.33833542466 -0.35228323936 -0.87259829044
-0.25994309783 -0.31134226918 -0.91405624151
-0.27707070112 -0.40155488253 -0.87291073799
-0.36814883351 -0.27645552158 -0.88752359152
0.0092256404459 -0.37938418984 -0.92517846823
-0.4549638927 0.62937521935 -0.62998074293
-0.35763528943 0.66731739044 -0.65327447653
-0.38505405188 0.58461219072 -0.71410638094
-0.27479475737 0.61639595032 -0.73793143034
-0.26158031821 0.70085978508 -0.66359525919
-0.60524308681 0.036826338619 -0.79516905546
-0.70726037025 -0.04419099912 -0.70554769039
-0.68455904722 0.088408403099 -0.72357648611
-0.76823461056 0.047980703413 -0.63836336136
-0.79733461142 -0.090523041785 -0.59672313929
-0.59752082825 0.1380302012 -0.78988432884
-0.52034324408 0.10543123633 -0.84739375114
-0.15412771702 -0.13024224341 -0.97942578793
-0.12420582026 -0.043133743107 -0.99131315947
-0.055081404746 -0.12308205664 -0.9908722043
-0.28920903802 -0.22244827449 -0.93106168509
-0.18765491247 -0.22046859562 -0.95715719461
-0.24852776527 -0.15047445893 -0.95686233044
-0.20608767867 0.55444085598 -0.80630028248
-0.31465420127 0.52167987823 -0.79299914837
-0.28657409549 0.41217541695 -0.86485034227
-0.37118193507 0.43635940552 -0.81964862347
-0.074128568172 0.55909669399 -0.82577502728
-0.1523386687 0.61998414993 -0.76968610287
-0.31781303883 0.075511790812 -0.945086658
-0.25144103169 0.15475878119 -0.9554182291
-0.23705363274 0.065639451146 -0.96928298473
-0.35927981138 -0.58087641001 0.73044317961
-0.30481737852 -0.48281738162 0.82095831633
-0.47301778197 -0.42261764407 0.77302026749
0.1135109812 -0.014240368269 0.99342089891
0.049419224262 -0.10628644377 0.99303257465
0.14623819292 -0.10257849842 0.9838514924
0.27443543077 -0.22652827203 0.93442517519
0.15857712924 -0.25654244423 0.95335376263
0.26505762339 -0.35559010506 0.89626532793
-0.15909643471 -0.50786221027 0.84660756588
-0.20668248832 -0.62034463882 0.75658500195
-0.26238158345 -0.36197036505 0.89449006319
-0.44576585293 -0.12273474038 0.88663798571
-0.35480046272 0.0080403238535 0.93486195803
-0.49322760105 0.028495220467 0.86938518286
-0.48966550827 0.21870137751 0.84396320581
-0.39045313001 0.1280298233 0.91166210175
-0.60590815544 0.10611791164 0.78840947151
-0.33674940467 0.26869428158 0.90243434906
-0.43425819278 0.4041582942 0.80497550964
-0.26205298305 0.41156581044 0.87287569046
-0.28332000971 0.12748713791 0.95048600435
-0.62408006191 0.30368477106 0.7198086381
-0.62229448557 -0.11104674637 0.77483594418
0.24307847023 -0.49589851499 0.83365273476
0.30427116156 -0.63149553537 0.713139534
0.10213772207 -0.58011674881 0.80791002512
0.16637837887 -0.41580614448 0.89393109083
0.42645218968 0.050898864865 -0.90287035704
0.51667785645 0.10266260058 -0.85001385212
0.4988386035 -0.039548113942 -0.86568266153
0.25515115261 -0.45121377707 -0.85492604971
0.1476303339 -0.4615111053 -0.87467485666
0.21898058057 -0.38496631384 -0.89633005857
0.28485843539 -0.53461432457 -0.79555958509
0.61117523909 0.10992241651 -0.78381001949
0.58647167683 0.21139463782 -0.78190779686
0.68201887608 0.15470483899 -0.71476870775
0.22755369544 -0.61872643232 -0.75189769268
-0.12393566221 -0.752374053 -0.64697301388
-0.13499350846 -0.68699043989 -0.71401309967
-0.058198388666 -0.70204091072 -0.70974630117
0.048652928323 -0.44825711846 -0.89251595736
0.12035716325 -0.61640655994 -0.77800410986
0.12042345107 -0.6841584444 -0.71934318542
-0.024471426383 -0.79966968298 -0.59992796183
-0.15163625777 -0.81367689371 -0.56118160486
0.36941698194 0.49204960465 -0.7882848382
0.37438598275 0.35920634866 -0.85486507416
0.2990885675 0.43679064512 -0.84838169813
0.2777582407 0.3275565207 -0.90306812525
-0.23761239648 -0.76337206364 -0.60066926479
-0.21310894191 -0.70326751471 -0.67823702097
-0.30648598075 -0.69589072466 -0.6494640708
-0.35236084461 -0.75295823812 -0.55577629805
-0.26787430048 -0.63653939962 -0.72322756052
-0.40062615275 -0.67237591743 -0.62242400646
-0.36054101586 -0.6151779294 -0.70112425089
-0.47884106636 -0.59428697824 -0.64617061615
-0.48623394966 -0.68291646242 -0.54518502951
-0.29124888778 -0.56246227026 -0.77382397652
-0.38625532389 -0.52013289928 -0.76174104214
-0.25024080276 -0.82426995039 -0.50788766146
-0.19040614367 -0.6468193531 -0.73849016428
-0.61547839642 0.5808788538 0.5318787694
-0.5647495389 0.48359116912 0.66868913174
-0.50698333979 0.63012713194 0.58805567026
-0.40975934267 0.58617997169 0.69889503717
-0.53656232357 0.58664554358 -0.60641419888
-0.51334184408 0.66059935093 -0.54777783155
-0.52688592672 0.18799486756 -0.82887643576
-0.58096325397 0.22372110188 -0.7825948
-0.51610219479 0.27123093605 -0.8124409318
-0.59899783134 0.30503433943 -0.74037092924
0.78049576283 0.079392373562 0.62015217543
0.68795007467 -0.024235997349 0.72532480955
0.76532936096 -0.1197540611 0.63238179684
0.66121846437 0.16325999796 0.73210656643
-0.90471726656 0.10577812046 0.41270077229
-0.78895127773 0.23810045421 0.5663049221
-0.86722826958 0.29201591015 0.40321946144
-0.73293232918 0.39705240726 0.55183088779
-0.62888431549 0.37890195847 -0.67893111706
-0.69182324409 0.28229424357 -0.66460889578
-0.65581679344 0.20160335302 -0.72750860453
-0.41828376055 0.50119620562 -0.75752210617
-0.4845110178 0.5482057333 -0.68172365427
-0.50489324331 0.47238177061 -0.72244822979
-0.57438349724 0.482655406 -0.66112798452
-0.4649425149 0.42611470819 -0.77604436874
-0.42723593116 0.37678992748 -0.82189458609
-0.50873178244 0.35152682662 -0.78587925434
-0.55481094122 0.4012670517 -0.72881054878
-0.45239835978 0.3165423274 -0.8337675333
-0.42836812139 0.26113337278 -0.86498981714
-0.64680194855 0.44223570824 -0.62135988474
-0.35931310058 0.33111211658 -0.87250167131
-0.93185073137 -0.35544034839 -0.072781838477
-0.89319980145 -0.43609166145 0.10966778547
-0.96184688807 -0.23693776131 0.1368932426
0.7102727294 0.34678551555 -0.61258101463
0.64282149076 0.42263495922 -0.63882309198
0.70315486193 0.4204942584 -0.57318878174
0.18620602787 0.31300652027 -0.93127763271
0.21951138973 0.4100895226 -0.88521802425
0.23192730546 0.20282661915 -0.95133793354
0.33816841245 0.23109832406 -0.91225206852
0.3891043663 -0.066175617278 -0.91877967119
0.27042335272 -0.0018881625729 -0.96271783113
0.31970670819 0.10852280259 -0.94121062756
0.42159754038 0.15944314003 -0.89265775681
-0.12462138385 0.64242553711 0.75614988804
0.034170627594 0.71715927124 0.69606691599
-0.12576594949 0.76361215115 0.63331574202
0.016244031489 0.58753234148 0.80906766653
0.015169003047 0.83989131451 0.54257047176
0.18644042313 0.77089691162 0.60887056589
0.19539093971 0.61804026365 0.7614582181
-0.28110027313 0.54139018059 0.79236251116
-0.25647339225 0.66353458166 0.70289623737
-0.13597972691 0.51783758402 0.84460282326
0.077893510461 -0.87832671404 -0.47159406543
0.11600756645 -0.81628656387 -0.56587541103
0.1912163496 -0.85311686993 -0.48538732529
0.24754886329 -0.80698662996 -0.53607493639
0.25490638614 -0.86653548479 -0.4284619391
0.1538477689 -0.74320477247 -0.65110778809
0.065911464393 -0.75523751974 -0.65212661028
-0.735704422 0.1638892293 -0.6571765542
-0.82221496105 0.14846587181 -0.54945784807
0.40050345659 0.56178933382 -0.72379213572
0.46758967638 0.49445509911 -0.73271125555
0.19935339689 0.090833649039 -0.97571057081
0.12477891892 0.16572488844 -0.9782397747
0.036278631538 0.40650445223 -0.91291618347
0.13774199784 0.39292320609 -0.90915697813
0.10026758164 0.32315608859 -0.94102185965
0.44063585997 0.42556232214 -0.79039865732
0.46810469031 0.34566012025 -0.81325656176
0.51596140862 0.41168549657 -0.75118839741
0.4314852953 0.26413232088 -0.86259150505
[...]
CELL_DATA 2284
SCALARS cell_data_0 double
LOOKUP_TABLE default
7.04497245308e-07
1.15537883253e-05
2.64398343202e-08
1.57211616499e-07
1.59626136785e-07
4.10267930283e-08
9.43617677464e-06
7.07177461764e-08
8.5499898951e-06
1.02220562833e-05
5.02959204197e-06
3.72633867557e-08
2.49373709789e-06
2.61382125071e-06
5.38802425255e-07
2.12192087538e-06
1.23430279127e-06
5.21475789894e-07
1.55015740735e-07
1.19605543485e-06
8.51399914837e-06
9.40850262749e-08
9.10692889866e-08
8.32972597718e-08
1.93102237936e-06
2.26285956742e-06
6.09384756751e-06
4.54287599756e-07
4.26924334501e-08
1.75571109529e-06
3.50825492533e-06
1.30263499959e-07
8.65934415991e-08
1.63465476215e-06
5.2844735923e-08
2.79606238614e-07
3.93548558857e-06
2.79679969947e-07
5.42050200537e-06
7.17598796843e-06
7.17192053326e-06
1.02154602298e-05
3.82255083935e-06
4.2352900986e-06
6.02991840861e-06
4.83598357272e-06
4.66397849588e-06
3.88287638149e-06
4.91301541781e-06
4.52685192329e-06
5.74521543687e-06
3.77517179617e-06
3.26199279051e-06
7.23120166852e-06
6.22202650969e-06
6.69435671993e-06
6.28461516335e-06
9.78457839023e-06
5.35125675424e-06
8.30991604567e-06
8.44784278101e-06
3.50844109907e-06
5.20604878861e-06
2.56332908557e-07
3.40671877733e-07
1.6282408204e-07
7.7491024692e-08
2.00834064387e-07
1.04901976139e-07
4.31072163459e-07
3.87087216036e-06
2.09611499568e-07
3.16584817466e-06
6.51846307953e-06
5.75637942564e-08
8.31887369289e-08
5.97736842699e-06
3.07310515966e-07
2.13553388013e-07
2.41575218021e-07
2.24822019891e-07
3.08858487973e-07
2.59185089961e-07
2.17747744922e-07
1.38731005882e-07
3.14333317672e-07
1.10696741559e-07
1.03806488413e-07
2.10363126115e-07
7.05999270453e-08
6.37251378578e-06
4.68909871124e-06
2.43386678505e-07
2.04097137794e-07
1.35962354897e-07
4.47354907921e-07
5.72058409724e-07
7.61089473297e-06
7.89629174195e-06
5.63847498236e-08
2.58184120079e-06
2.58341209583e-08
2.11728193902e-08
4.30653385972e-09
4.04758016784e-08
4.42538394415e-06
6.13771687787e-06
3.996745146e-06
6.43855268824e-06
7.34003775196e-06
8.90426145212e-06
3.63366575118e-06
5.33169672949e-06
6.65538477414e-06
8.0899962934e-06
1.32842535678e-06
1.16175399917e-08
2.33479056809e-07
1.54101271927e-07
1.61431827393e-07
1.52879984174e-07
4.38450584813e-08
1.37573254935e-07
1.982369209e-07
6.21012385944e-08
4.07149511243e-07
5.3340465373e-07
3.53355646518e-07
2.37886491445e-07
3.52265879645e-07
6.68349342852e-07
5.27071839266e-07
3.91781450425e-07
3.81921904077e-07
4.33861356787e-07
2.22813270864e-06
2.84182873871e-07
3.15666539718e-07
3.00866430934e-07
1.99436330565e-07
4.48752687788e-08
2.51633641554e-06
2.49494409015e-07
2.47063419583e-07
2.38194626457e-07
1.08756912817e-06
2.56140146812e-07
1.04251903736e-07
1.47646332081e-07
1.48385006051e-07
4.16008536059e-07
1.72523297817e-07
1.70761831908e-07
3.42636048199e-07
5.47003511392e-06
4.57982360776e-06
4.93077472363e-06
5.01169072418e-06
6.35527916448e-06
5.33112539842e-06
3.26509865963e-06
5.06390308421e-06
4.93762327551e-06
4.9796374838e-06
5.17061470479e-06
7.71774668916e-06
3.78349339376e-07
5.86266626758e-07
3.15763117111e-07
5.41619046908e-06
5.49122909705e-07
5.80707691121e-07
3.02398421861e-07
2.34475563592e-07
3.96030059738e-07
2.69084174637e-07
6.55953200859e-08
2.10899944785e-08
1.54641206073e-07
1.53545521952e-07
2.2856129824e-07
2.5086597469e-07
1.66198132837e-07
2.21091870576e-07
1.13238925326e-06
1.47152756936e-06
1.22134360805e-06
4.75908433095e-07
6.72504137204e-07
5.13382063673e-07
3.77447341683e-07
5.72016671823e-07
3.82452899546e-07
5.67481560089e-07
4.56586225298e-07
8.2503168826e-07
3.25133060753e-07
8.70016926691e-07
4.01371798767e-07
2.84071297037e-07
1.31580005837e-07
1.54600466372e-07
4.62685881658e-07
6.07678005658e-07
5.01573284286e-07
2.16832076532e-07
2.13013527344e-07
2.61352145626e-07
1.37763459108e-07
1.36373848588e-07
4.72789087001e-07
8.44895700726e-07
5.29096099696e-07
1.00891610685e-08
2.93637358825e-08
3.66414128296e-08
7.21653813282e-08
5.09346014036e-07
1.19785526954e-05
1.05747960666e-05
9.28536783486e-06
3.29357241237e-06
1.30413319999e-08
3.57643542704e-06
1.78507631912e-06
9.35612140264e-08
1.45108349234e-07
2.74400200088e-08
4.0275820167e-06
1.67749793566e-07
1.35083984149e-06
8.97457189921e-06
2.92600250525e-06
3.73838299193e-07
3.73089867052e-06
1.95936042542e-07
1.58141274586e-06
2.95199891058e-06
1.26120996564e-05
7.48051623861e-06
4.9833790724e-07
3.53488184199e-07
1.42035638545e-06
3.09624339304e-07
3.723234584e-07
1.52275389586e-07
2.08400952092e-07
1.38558149171e-07
9.09309509284e-08
8.01434629944e-08
1.45927695107e-07
1.01072648861e-07
3.38370345835e-08
1.47839842583e-07
4.02983363962e-07
1.18072535074e-05
1.27262673851e-07
2.32142988972e-07
9.05175306031e-06
1.64030624843e-06
4.85939200403e-06
9.38671330032e-06
6.66713061351e-06
6.13085065317e-07
8.39305786626e-07
5.04828670255e-06
1.54080797244e-06
9.68009375013e-07
1.48742989418e-05
5.16258963056e-07
6.70270507558e-07
2.48368407546e-06
2.49866767287e-06
7.87775825108e-06
6.67779333705e-07
1.14061120874e-07
9.78918311133e-07
2.72996611972e-07
4.88275211982e-07
8.50252662518e-07
1.05247491612e-06
5.66207711158e-07
7.4420901438e-07
2.32863173894e-07
2.43104690207e-07
8.65509820302e-07
4.41297479801e-05
1.12272416268e-05
1.0101351973e-05
2.01658751128e-06
2.34861428753e-06
7.58110374785e-08
9.36129902941e-08
8.08962196741e-08
1.73623876921e-06
7.4743975337e-07
3.68102026692e-07
1.15469335468e-07
1.19307744763e-07
1.92587295519e-07
1.23765913435e-07
2.34965880638e-07
6.06471264979e-06
4.74597132467e-06
6.21936625288e-07
7.18036375766e-06
9.5474472448e-06
6.7331299479e-06
7.94531797931e-06
7.57942778419e-06
9.58094038604e-06
8.30014024941e-07
1.59447562143e-06
6.55341913751e-07
4.18022430122e-07
2.34630984068e-07
3.22214877359e-07
1.27064800197e-07
5.05307678622e-07
3.7421506796e-07
5.73117258758e-06
5.59876454658e-06
7.36646999085e-06
7.92021337966e-06
1.46942530368e-07
2.26383327838e-06
2.1582635633e-06
2.52552869848e-08
1.53954391065e-07
2.67402398566e-06
3.13570120591e-06
5.83770704521e-07
1.84906295225e-06
1.29323410905e-07
1.55444747311e-07
1.86809743371e-07
5.96668055978e-08
5.89956650513e-08
3.63255368738e-09
2.41323607533e-06
1.33452226713e-08
2.5420941386e-08
3.18458382052e-07
6.38365625565e-07
5.70666141408e-07
5.36106532603e-07
1.53205491216e-06
6.19127554628e-07
1.46416912052e-07
1.40487317295e-07
1.42432034859e-07
8.31758646618e-06
9.47252682657e-07
1.31331166496e-06
2.02252028482e-06
3.14270284252e-08
1.86514305567e-07
7.23314172279e-06
3.17528820481e-06
3.13777843595e-06
3.10243354678e-06
1.5402160329e-07
7.24062087844e-07
8.01694804665e-09
2.81779812081e-09
2.85354039021e-09
4.79011577398e-09
6.95635329906e-08
2.98922489341e-06
5.63813820839e-09
1.68670326458e-08
4.22220485511e-09
2.12057013031e-06
1.56564901737e-08
1.10837240488e-08
8.11395712968e-08
2.62366242518e-07
2.46771593747e-07
1.44460123272e-07
2.9965358579e-06
3.03061975686e-06
4.56914696338e-08
4.31108652505e-08
2.84150107673e-08
7.207754219e-06
4.28840205977e-06
4.50531465427e-06
4.66016780195e-06
3.61754826265e-06
3.94678474617e-06
4.71793797101e-06
2.63530946781e-06
1.47112064398e-06
1.37824653737e-06
1.31116877217e-06
2.63739017195e-06
4.38324799001e-06
1.24653211943e-07
1.29306348831e-07
5.83334143155e-07
8.31515501375e-08
7.04429277201e-07
2.47474799331e-06
1.30143816471e-06
2.54709588183e-08
2.20239781441e-07
1.31700483859e-06
5.53072556506e-07
3.9640815139e-06
1.22174286179e-06
2.95054463139e-07
8.50320749391e-07
5.94859340801e-06
1.91191643022e-06
1.01873513909e-06
1.3349628762e-06
8.05099118592e-07
8.24821804743e-07
3.65585674243e-07
6.54400310695e-07
1.45200360629e-06
5.86039243845e-07
5.97649010539e-07
4.21946630152e-07
1.88291713814e-06
3.05909430859e-06
3.02767426498e-06
4.22806319024e-07
1.57351244794e-05
1.33796742155e-07
2.63585036906e-07
2.28582198002e-07
2.76276267976e-07
2.46175758257e-07
2.62087121221e-07
1.8057512703e-07
2.90063792268e-07
5.97681415233e-06
1.02751255983e-07
1.346815052e-07
1.1903570679e-07
1.6230865855e-07
2.22353317488e-06
1.26787629131e-07
1.15028311374e-07
1.08844865751e-07
2.94062046638e-06
2.43206969013e-06
3.65124819002e-08
3.82437735821e-08
8.49979865422e-08
1.77992765069e-06
1.54574863619e-06
1.29306576766e-07
9.47476536706e-08
2.51199703888e-07
9.35734222606e-08
7.47410888507e-08
4.77043885591e-08
1.29390450771e-07
1.69807348149e-06
1.87757611014e-08
1.61894787684e-08
4.23209423975e-08
1.08936255367e-07
7.03608916904e-08
1.5817793415e-08
8.92850282156e-08
1.2701457335e-08
1.8734839315e-06
3.73407484284e-08
1.49297811223e-08
1.09683449223e-07
1.36789742763e-07
2.21069662125e-06
3.25215979277e-08
9.5604139327e-07
7.92769668803e-06
3.17285216364e-06
3.88157499102e-06
4.85989184421e-06
2.93219751004e-06
1.3384611979e-06
5.48923576317e-09
1.65205195663e-06
8.29616433307e-07
1.6038035506e-06
5.61881080755e-09
1.56316167245e-06
7.32101493624e-07
1.97111593413e-06
6.91357190314e-06
4.52839422523e-06
2.5116290641e-06
5.49123190176e-07
2.9917640758e-06
2.00961240199e-06
8.22579089175e-06
2.8334060454e-06
1.89620158883e-06
3.54147637572e-06
5.86815728946e-07
7.29310701985e-07
7.11234332559e-07
3.57801498795e-06
3.99310098547e-06
3.55709755318e-07
8.62526829174e-06
1.80552797728e-06
5.19466911752e-08
3.20011808283e-06
3.72980233201e-06
3.50283858934e-06
5.33687129568e-06
4.7266320664e-07
5.12363280279e-08
6.38769179721e-08
1.08758786047e-06
3.53994344821e-07
4.67077402052e-07
1.40495982349e-06
1.10739263861e-06
1.90463526494e-06
3.32226247454e-07
3.88658423007e-07
4.13221947002e-07
6.44640593837e-07
8.19808114276e-07
2.01632971777e-06
2.08886984569e-06
3.1531167136e-06
3.04988978675e-06
2.37572535121e-06
2.05725979431e-06
2.82043067451e-06
8.13034650961e-06
3.15455543709e-07
2.24996051491e-07
1.91684568487e-07
3.73440546922e-06
3.58166424249e-06
1.39508558116e-07
1.07294552501e-07
4.95113594436e-08
1.8071595591e-07
7.19272647791e-07
4.36858879924e-08
2.74203327472e-07
1.63518698064e-07
6.35118302408e-07
1.20392879876e-07
5.50092990207e-08
8.38298876763e-09
2.49034228214e-06
5.76929612808e-06
5.46224945663e-08
2.24147877927e-06
1.38834431118e-07
1.00289904186e-07
1.07555925515e-06
5.78677806595e-08
1.28204451322e-06
3.62158531843e-07
2.37345693925e-07
1.99027461556e-07
1.14521726531e-06
1.82955484408e-07
2.25351049302e-07
1.5587694248e-06
3.14317356601e-06
2.84506972061e-06
1.19844454347e-06
1.00626278458e-07
1.270633006e-06
3.39939037202e-07
8.99764960989e-07
1.95893499696e-06
1.82179861266e-06
6.80284055392e-06
8.47204866001e-08
2.07509117543e-08
1.07726907493e-08
9.82582128402e-07
1.2901017985e-06
1.92080651263e-07
7.45257095409e-08
3.88357023617e-07
1.50887675471e-07
4.74300233512e-08
7.45175856796e-06
2.97540858094e-07
5.17084590281e-08
8.41063492717e-06
1.24580041977e-05
1.12673890511e-06
5.53347966836e-08
2.53030358456e-06
2.13274956511e-06
2.01723734412e-06
7.28575931048e-08
1.53052181067e-07
1.1067456044e-07
5.48320137653e-08
1.94199981573e-06
2.44826371161e-07
1.36153580567e-07
1.14141453977e-06
9.01646517392e-07
9.14432287998e-07
9.83750039481e-07
8.21825822495e-07
8.39751879828e-07
1.38337835145e-07
2.16665905845e-07
2.60585162228e-07
2.54114073994e-07
3.99725350645e-07
3.77158042773e-07
4.4417740952e-07
3.07468139502e-07
5.46755845427e-07
7.98132848163e-07
1.16964019466e-06
7.64186800447e-07
2.56172199795e-07
2.13062637037e-07
3.63460719962e-07
5.7366256061e-07
4.96210361798e-08
8.63062013975e-08
3.05374640453e-08
2.0593222988e-08
1.56306975445e-07
2.28423368439e-08
5.20241151625e-09
8.36393126321e-07
5.07853978892e-07
6.87742831577e-06
7.85985795681e-07
4.00446691112e-06
3.39478304365e-06
1.15789197727e-06
1.26589372719e-06
7.02272422141e-07
1.80778048926e-06
3.55066786026e-07
9.28638099451e-08
6.32295360099e-08
1.38018801433e-07
4.10958424435e-07
3.35188735873e-06
3.11030295233e-07
1.17480323024e-07
9.39770763121e-07
1.05077340812e-06
1.29496053849e-06
1.58904412137e-07
1.78504564569e-07
1.16811330285e-07
2.15356716435e-07
6.31311021947e-08
1.03737297729e-06
2.28288005962e-07
1.08883463338e-06
2.88832143742e-06
2.47623358113e-07
6.53462740443e-06
5.98412743799e-07
3.50471149421e-07
3.62415643615e-07
6.70713413077e-07
8.11706551608e-07
9.13469182943e-07
2.84404685917e-07
7.07984500561e-07
3.58175692985e-07
4.38471115755e-07
2.81195065023e-07
2.86756158421e-07
1.59440274372e-06
1.83870281006e-06
1.6484403772e-07
1.44598299217e-07
1.71832926723e-06
2.16650265323e-06
3.46483232571e-06
3.03989677314e-06
4.45029697657e-07
2.96416940042e-07
4.98185256341e-07
3.59378990455e-07
4.81231029366e-07
3.77451478698e-07
2.14068314649e-06
6.37643447027e-07
4.41812601562e-07
4.69562437639e-07
5.80338104237e-07
4.03036752745e-06
1.98295616163e-06
4.31660023411e-07
4.20195746193e-06
4.68966012259e-07
6.91975243991e-07
3.33486214438e-07
5.01001872655e-07
1.9899320678e-07
1.0783791775e-08
2.04548157544e-07
3.02138699232e-08
2.86390182481e-08
3.80076307486e-08
6.56309597405e-09
1.99905823776e-06
1.81031974638e-07
8.8922766575e-07
4.60667354536e-07
2.94817690891e-07
9.8091723046e-08
8.19196830874e-07
4.87347033724e-08
3.86169562017e-06
5.54436643198e-06
2.53030609719e-06
3.2098761508e-06
3.01168561556e-06
1.78056780442e-06
7.33601739569e-08
9.14777749216e-09
1.45946329665e-07
1.90209646867e-06
9.34780313415e-07
5.03888163452e-07
4.6397367259e-06
7.02855468178e-07
1.96594838601e-06
4.48983028439e-06
2.05638073965e-07
1.22348241499e-06
1.06855243496e-06
1.14247821192e-07
2.83107231425e-06
2.78670465564e-06
9.59623099647e-08
1.05520478589e-07
1.67290835247e-07
9.31648045237e-08
8.43973588599e-08
1.10755970282e-07
1.77830574891e-07
1.44848884286e-06
1.29711548011e-06
3.84892499034e-07
3.69909627973e-07
4.39913492901e-06
4.18563210586e-07
3.30057826117e-07
2.65716262014e-07
2.42363206812e-07
5.4516425571e-08
1.9354230764e-07
1.11198952995e-07
2.87503915567e-06
2.1632913382e-07
1.55035195315e-07
4.43968073309e-07
1.81756918605e-06
1.05070137891e-06
3.10382725783e-07
5.38980208365e-07
7.8896197552e-06
2.35292392953e-07
8.62372823532e-07
9.83272823055e-07
1.56089515825e-06
1.36528503117e-06
6.01044381451e-07
9.86409624356e-07
1.6749443755e-06
1.15187279427e-05
5.50217374299e-08
4.13150362003e-07
1.19237294682e-06
1.23798358135e-06
5.02412758379e-07
8.00570809581e-07
5.07709992005e-07
1.2027843692e-06
6.65010368359e-07
1.23938019169e-06
2.73997567801e-07
7.94101061416e-07
2.08116097636e-07
3.551946547e-07
1.36839598506e-05
1.52567470823e-05
3.14264190806e-06
1.97568223582e-07
6.05387071642e-07
5.89204948027e-07
2.55421526274e-07
7.6590947202e-07
6.97258461306e-07
2.59208822624e-07
9.52702027081e-08
2.99065064105e-07
2.14794650865e-07
2.50874050282e-07
4.8669569761e-07
3.34926674174e-07
5.71511547712e-07
1.01971182857e-06
4.06998393255e-07
6.05782363428e-07
5.36247805996e-07
3.97139847694e-07
9.80684048868e-07
9.96067588702e-07
7.88001574415e-07
1.43669580277e-06
1.26311740569e-06
6.80925578988e-07
7.41765592224e-07
4.98089034126e-07
7.81294521693e-07
8.44342282752e-07
9.19566713118e-07
9.91599543403e-07
7.75780661171e-07
1.03617216654e-06
7.26167772972e-07
8.29129870623e-07
2.53735093461e-07
6.07245343446e-08
1.20902651235e-07
1.23455454603e-07
2.31982837865e-07
2.35891792589e-07
1.24978986793e-06
4.36596342864e-07
9.51787000854e-07
2.17213728109e-06
1.27005979997e-06
3.7872379061e-07
1.24964722263e-07
7.44197621807e-07
2.13317141167e-08
8.07509752658e-08
5.07989312948e-08
1.73866332161e-07
1.22115307513e-07
1.0775931191e-07
1.08839098226e-06
1.92336769533e-07
1.23839580661e-07
1.36788977126e-07
7.75270740303e-07
1.66150348089e-06
1.13812892444e-06
3.68387632371e-07
9.38018922859e-07
2.40451093917e-07
2.87448724837e-07
8.65060845607e-07
2.4214713421e-07
1.62723503004e-07
1.44926482866e-07
1.2721077008e-07
1.03511061106e-07
1.11454815109e-07
1.05652839658e-07
2.9376526731e-08
2.36239423323e-06
5.29825166441e-08
2.31279746353e-06
2.89257801816e-06
3.89317172514e-08
2.45818870742e-06
3.7150555377e-06
6.26022450042e-08
7.62457096161e-08
1.24530612109e-06
2.50494520166e-07
3.86855069627e-07
1.71523069332e-07
1.23479101822e-06
1.82965057064e-07
1.32187138799e-07
2.51719947134e-06
1.78023942641e-08
1.11638640098e-06
7.0638298471e-08
9.20390911026e-08
2.75643594316e-07
6.35788978797e-07
2.07241845295e-06
1.01603099325e-06
1.91323204824e-06
1.10389827544e-06
2.28181926104e-08
1.25221082623e-06
1.38499491691e-06
6.35130583626e-07
6.14826441038e-07
9.14655202978e-07
8.90035271213e-08
6.06199508928e-07
1.36389115705e-07
1.5623680292e-06
2.4662625792e-06
6.14362559783e-07
2.3067015294e-06
1.19777320316e-06
1.11381402112e-06
1.69707043828e-06
1.7570131819e-06
1.17580720576e-06
5.95744710994e-07
4.68003652108e-07
2.03861824474e-06
5.22289733863e-06
1.93607454915e-06
3.4622721826e-07
2.27449918572e-07
2.1723912982e-06
1.1521877802e-06
7.15307126933e-07
1.34758430501e-06
3.96193116301e-07
3.16633547636e-07
4.43109172934e-06
2.90850887728e-06
1.9088301116e-07
1.55904663786e-06
1.40000811026e-06
2.20311999445e-06
2.82498892278e-06
5.31357848399e-07
4.18750540714e-06
5.85666303619e-06
9.96347157512e-06
8.19072559436e-06
4.25549850651e-06
3.368136684e-06
3.01019542912e-06
1.74939109203e-06
8.43176364614e-07
1.11230125948e-06
3.19408701502e-07
1.01791832443e-06
4.65913775198e-06
3.7110119913e-06
5.37593491849e-06
4.75402120216e-06
3.95166679535e-06
2.83183177051e-06
2.96194354277e-06
3.03656869148e-06
2.7016854763e-06
3.32134657855e-06
3.94066689386e-06
3.98151027822e-06
4.62525998018e-06
5.28686390559e-06
1.92908184359e-06
4.45101375314e-06
5.88951025984e-06
7.0168329457e-07
7.40247706344e-07
1.12738983139e-06
1.15917309584e-06
1.8790830458e-06
1.27332408827e-06
1.45164700729e-06
2.27845399914e-06
1.50731807047e-06
1.10100305645e-06
5.63848381157e-08
1.37333349834e-07
4.11463281312e-08
1.15812750136e-07
1.1619660461e-07
1.23133610226e-07
3.21420488113e-06
4.28086300751e-08
3.91039906051e-08
4.13204960756e-08
9.66663758797e-08
2.45291948413e-06
6.8734113226e-08
2.60940779188e-06
3.91906967372e-07
7.29479520711e-06
9.94083487029e-06
2.78490073713e-06
3.73409545129e-07
1.01159547386e-07
6.30315352445e-06
8.75014281853e-06
7.04709879944e-07
7.70671960392e-06
4.19863525277e-07
1.51503734016e-07
1.15085885479e-05
4.77895289138e-05
2.03768206774e-05
1.01100894301e-06
1.08597340387e-07
1.45270345535e-05
6.46932266283e-07
6.91046875455e-06
9.5786286548e-06
1.07693330103e-05
7.25188588548e-07
3.10899555443e-07
9.47526360357e-07
8.4157797559e-07
9.06991680153e-07
6.57645260889e-07
1.01985917113e-06
8.73227699962e-07
1.27454290258e-06
9.18429620593e-07
1.11680879733e-05
3.25597838487e-07
2.97168721814e-06
6.67742183775e-07
8.18435755466e-07
9.77617787941e-07
1.25813713804e-06
1.11901240943e-06
1.20991839847e-06
4.91405050743e-07
9.6570799983e-07
9.20587166803e-08
4.22239682376e-06
4.31511836529e-08
9.74023055704e-09
1.87274349389e-08
3.51850254585e-08
3.51588133434e-06
4.07346413949e-06
1.69274924936e-06
1.60953098117e-06
4.76245094717e-08
3.13526016386e-08
2.05558655538e-08
2.2128772206e-08
8.48007234053e-09
5.08670745881e-08
3.61758223122e-08
1.54850993369e-08
4.77746765117e-08
3.92072746504e-08
9.02828673895e-08
7.35575712544e-08
4.39392994467e-08
1.05923362637e-07
6.15509841368e-08
6.19701870548e-08
5.30810662222e-08
1.60042198621e-06
1.43378573315e-06
1.5216272071e-06
1.9488002176e-07
1.66200136075e-06
1.07685400319e-06
1.13711452519e-06
1.91629533849e-06
1.39542496888e-06
1.8194398808e-06
8.25199602279e-08
7.52170330613e-08
9.95870480532e-08
1.2867076004e-07
9.15217974211e-07
8.57173510604e-07
7.04494700034e-07
1.55083123699e-06
8.92048764032e-07
3.56593311576e-07
5.91890888224e-06
9.65990882741e-07
1.87907231016e-06
3.29294969642e-07
2.82678335179e-06
4.31111762812e-07
2.75468217367e-08
4.056063334e-08
1.73428954774e-05
8.57104415267e-07
1.04817399859e-05
7.92589805461e-06
1.56580849207e-05
3.68727173649e-07
7.04433813038e-07
1.31678581907e-06
3.49459492286e-06
6.04731092316e-06
2.18675052586e-06
3.76877957727e-06
2.71310201628e-07
3.05121317087e-07
1.03012947374e-07
1.5377519209e-06
4.6946113295e-07
6.02596439828e-07
1.3342344553e-06
2.59365499802e-06
1.49097838042e-05
7.43874291466e-06
6.76556921867e-06
9.01773244756e-06