# vtk DataFile Version 3.0
File Name: Molecule/sphere_excent/sphere_excent_0-s58.vtk
ASCII
DATASET UNSTRUCTURED_GRID
FIELD FieldData 1
TIME 1 1 double
0.0
POINTS 1375 double
0.3990893364 -0.45639938116 -0.79526674747
0.49950781465 -0.49554485083 -0.71030414104
0.37647292018 -0.59023952484 -0.71407318115
0.80699306726 0.19087079167 -0.55884194374
0.87072587013 0.15327221155 -0.46712723374
0.81810748577 0.087352253497 -0.56814646721
0.87175065279 -0.072876356542 -0.48416981101
0.82966947556 -0.016274595633 -0.55803215504
0.87286514044 0.045874729753 -0.48545661569
-0.25359943509 -0.87491953373 -0.41255697608
-0.14830420911 -0.8777012229 -0.45567509532
-0.17422328889 -0.91960978508 -0.35209158063
0.59265339375 -0.12553815544 0.79555761814
0.53874486685 -0.3439501822 0.7690500617
0.67142480612 -0.23488737643 0.70286798477
0.91978275776 0.12877601385 0.37066689134
0.88129109144 0.0562364012 0.46918642521
0.94800144434 0.035853467882 0.31619444489
0.39420649409 -0.4626416266 0.79409295321
0.39644479752 -0.30424040556 0.86620241404
0.50618499517 -0.56677860022 0.65001916885
0.63260263205 0.42700695992 0.64610850811
0.58584934473 0.32131841779 0.74390107393
0.72330880165 0.28431010246 0.62928926945
0.11038208008 -0.26976394653 -0.95657324791
0.11063402891 -0.36945360899 -0.92264419794
0.012867174111 -0.30124744773 -0.95344823599
-0.18818946183 -0.38019543886 -0.90555155277
-0.12723955512 -0.45396926999 -0.8818795085
-0.21540868282 -0.44733992219 -0.86803287268
-0.19791595638 -0.51441800594 -0.83437484503
-0.13169570267 -0.62087154388 -0.77278017998
-0.20279884338 -0.58570575714 -0.7847468853
-0.095390617847 -0.54706203938 -0.83161991835
0.016914177686 -0.52663952112 -0.84985423088
9.9121476524e-05 -0.59202498198 -0.80587363243
0.84481364489 0.48335695267 0.22934518754
0.87639570236 0.46558201313 0.1228833124
0.81311583519 0.56230419874 0.15067911148
0.88428807259 0.34783253074 -0.31149971485
0.89200502634 0.38522431254 -0.2365193218
0.92513179779 0.30188056827 -0.23019947112
0.8479565382 0.43425029516 -0.30397731066
0.84082043171 0.2436940223 -0.4833701551
-0.33495905995 -0.35546037555 -0.87260198593
-0.2585581243 -0.31230846047 -0.91411995888
-0.27603858709 -0.40310269594 -0.87252759933
-0.35838493705 -0.28203064203 -0.88993656635
0.013097010553 -0.38040101528 -0.92472624779
-0.44920033216 0.63156056404 -0.6319360733
-0.35664007068 0.66935908794 -0.65172261
-0.38249188662 0.58641332388 -0.71400594711
-0.27561038733 0.6176097393 -0.7366104126
-0.26228752732 0.70264130831 -0.66142737865
-0.60891276598 0.0331633389 -0.79253321886
-0.68782013655 -0.035823967308 -0.72486400604
-0.68712723255 0.085776723921 -0.72145599127
-0.60414975882 0.13483399153 -0.785361588
-0.52757620811 0.10094758868 -0.84347707033
-0.15738233924 -0.13339860737 -0.97848695517
-0.13133977354 -0.045818850398 -0.99028295279
-0.061025485396 -0.12339782715 -0.99047666788
-0.28891819715 -0.22433660924 -0.93069148064
-0.18968063593 -0.22293794155 -0.9561868906
-0.24814176559 -0.15088069439 -0.95690047741
-0.20828233659 0.55525642633 -0.80517077446
-0.31604358554 0.52300983667 -0.79156833887
-0.28888231516 0.41286921501 -0.86375439167
-0.3731405139 0.43750503659 -0.81814563274
-0.075331561267 0.56005173922 -0.82501852512
-0.15447354317 0.62094944715 -0.76848268509
-0.3129324615 0.077220454812 -0.94662499428
-0.25070980191 0.15359170735 -0.95580041409
-0.23539124429 0.064167387784 -0.96978324652
-0.35411593318 -0.58057284355 0.73315650225
-0.3065328598 -0.48269021511 0.8203536272
-0.46772921085 -0.4189222455 0.77822476625
0.11234730482 -0.0086128618568 0.99362957478
0.053114760667 -0.098054535687 0.99375212193
0.14657735825 -0.094690687954 0.98464989662
0.28447401524 -0.23859614134 0.92849963903
0.1713116914 -0.25956293941 0.95037013292
0.27503407001 -0.36677515507 0.88875490427
-0.1638673842 -0.5141595006 0.84188771248
-0.20282770693 -0.62523037195 0.75360357761
-0.26081883907 -0.38852548599 0.88341748714
-0.45859202743 -0.11944009364 0.88051825762
-0.38137298822 0.0013623984996 0.92440623045
-0.50130677223 0.030865663663 0.86467969418
-0.49770063162 0.22414541245 0.83789491653
-0.40261110663 0.13450874388 0.90543621778
-0.60989975929 0.11039539427 0.78472924232
-0.35496237874 0.28522703052 0.89020472765
-0.62483608723 0.3059926331 0.71828633547
-0.46004879475 0.39670091867 0.79409939051
-0.62358492613 -0.1088174209 0.77411991358
0.24805641174 -0.50476163626 0.8268635273
0.30290997028 -0.63176548481 0.71351027489
0.1118324548 -0.59008771181 0.79951769114
0.18041859567 -0.42272657156 0.88805735111
0.41425070167 0.05237204954 -0.90863209963
0.51285457611 0.099820509553 -0.8526506424
0.49401023984 -0.027606764808 -0.86897027493
0.14907640219 -0.45426025987 -0.87830406427
0.2123079896 -0.39428848028 -0.89405339956
0.21970562637 -0.4878257513 -0.84470659494
0.29651868343 -0.53381943703 -0.7918638587
0.27174043655 -0.45690628886 -0.84670299292
0.60786324739 0.1087808162 -0.78654754162
0.58438897133 0.21269659698 -0.78309482336
0.68173295259 0.15466624498 -0.71505057812
0.23981253803 -0.6100923419 -0.75505757332
-0.1247652024 -0.75365948677 -0.64531558752
-0.13613177836 -0.68888044357 -0.71197509766
-0.059023663402 -0.7034792304 -0.70825028419
0.049081355333 -0.44900715351 -0.89218097925
0.11109404266 -0.69191944599 -0.71333271265
0.13310644031 -0.62963426113 -0.76533442736
0.1915102154 -0.68205076456 -0.70568811893
-0.027460670099 -0.80088949203 -0.59816801548
-0.15135139227 -0.81424158812 -0.56044560671
0.36882632971 0.48742377758 -0.79141503572
0.37745687366 0.35867804289 -0.85372465849
0.29903608561 0.43322461843 -0.85022079945
0.28459337354 0.32616022229 -0.90144336224
-0.2376794219 -0.76390165091 -0.59996891022
-0.21453355253 -0.70474547148 -0.67625111341
-0.308411479 -0.69677835703 -0.6475995183
-0.35251498222 -0.752864182 -0.55580240488
-0.26983079314 -0.63821852207 -0.72101873159
-0.40259918571 -0.67213320732 -0.62140953541
-0.36253169179 -0.61574983597 -0.69958919287
-0.48049640656 -0.59399169683 -0.64519631863
-0.48376104236 -0.6842173934 -0.54573339224
-0.29328635335 -0.56384205818 -0.77204829454
-0.38802051544 -0.52149099112 -0.75991481543
-0.25048568845 -0.82345604897 -0.50908619165
-0.19211271405 -0.64890122414 -0.7362203002
-0.60426461697 0.58517456055 0.54076129198
-0.56880706549 0.48053318262 0.66751670837
-0.50823611021 0.62308609486 0.5944763422
-0.41416522861 0.57704758644 0.70386880636
-0.52687638998 0.58734995127 -0.61436921358
-0.51119416952 0.66191524267 -0.54824155569
-0.53424835205 0.1846255064 -0.8249283433
-0.58680170774 0.22114694118 -0.7789465785
-0.52626001835 0.27087944746 -0.80600893497
-0.60082286596 0.30291610956 -0.73975592852
0.7767636776 0.070298306644 0.62593704462
0.68979907036 -0.025505568832 0.72351062298
0.7644340992 -0.12093742937 0.63323962688
0.66640371084 0.16086181998 0.72799289227
-0.90504062176 0.10287711024 0.4126766324
-0.79510992765 0.23742263019 0.55784362555
-0.87352770567 0.28622350097 0.39352947474
-0.71833771467 0.38466018438 0.57948094606
-0.62744921446 0.37614715099 -0.68178331852
-0.69320517778 0.27980184555 -0.66421812773
-0.65920698643 0.19883044064 -0.72519224882
-0.41733708978 0.50332456827 -0.75663077831
-0.47701612115 0.54987412691 -0.68566215038
-0.50204539299 0.47489479184 -0.72279363871
-0.56869477034 0.48567831516 -0.66383475065
-0.46555444598 0.42711478472 -0.77512717247
-0.42961150408 0.37640038133 -0.82081902027
-0.51055473089 0.35115218163 -0.78486311436
-0.55311566591 0.40310826898 -0.72908616066
-0.45917731524 0.30994004011 -0.83252763748
-0.47854173183 0.23202285171 -0.8468388319
-0.64504390955 0.43838483095 -0.62589877844
-0.42053872347 0.26608946919 -0.8673530817
-0.36049756408 0.33309942484 -0.87125474215
-0.93192714453 -0.35613739491 -0.068524248898
-0.89169019461 -0.43867611885 0.11149850488
-0.94589865208 -0.28528627753 0.15459787846
0.71434855461 0.34310021996 -0.60989820957
0.64410883188 0.41090646386 -0.64519894123
0.69741523266 0.41821211576 -0.58195978403
0.19022317231 0.31886139512 -0.92850255966
0.2187654525 0.40421229601 -0.88811683655
0.23334431648 0.2077537477 -0.94993120432
0.32471770048 0.23835028708 -0.9150378108
0.39236068726 -0.050187900662 -0.91843676567
0.29301217198 0.0048289345577 -0.95607107878
0.31863549352 0.120375067 -0.94021314383
0.4180098176 0.143034935 -0.89694416523
-0.11885537952 0.64542663097 0.75452196598
0.033397585154 0.7180005312 0.69523268938
-0.11902885139 0.76006835699 0.63887840509
0.012200741097 0.59619569778 0.80276352167
0.017007898539 0.83576434851 0.54888111353
0.17681440711 0.76748400927 0.61607980728
0.18886044621 0.62901008129 0.75418591499
-0.27070128918 0.55873268843 0.78361338377
-0.25105300546 0.65959131718 0.70847815275
-0.13994190097 0.52445667982 0.83986264467
0.076837152243 -0.87674999237 -0.47475028038
0.11138106883 -0.81621462107 -0.56690746546
0.17729753256 -0.85444885492 -0.48828062415
0.24596574903 -0.81294906139 -0.52781969309
0.25836145878 -0.85697215796 -0.44587832689
0.1502776891 -0.74354743958 -0.65156662464
0.062325727195 -0.75722551346 -0.65015512705
-0.73530095816 0.16500625014 -0.65734255314
-0.77324229479 0.073005072773 -0.62975406647
-0.82275605202 0.14469662309 -0.54964530468
0.4001943469 0.55503219366 -0.72921210527
0.4675142169 0.48878651857 -0.73656737804
0.38040786982 0.25993648171 -0.88700562716
0.20643387735 0.095946900547 -0.9737380743
0.12883214653 0.16871501505 -0.97720384598
0.035330854356 0.40819773078 -0.91219735146
0.13464334607 0.39530807734 -0.90862315893
0.10266952962 0.32418933511 -0.94040304422
0.44012081623 0.42196160555 -0.79261761904
0.46768182516 0.34337383509 -0.81446784735
0.51449757814 0.40678113699 -0.75485730171
0.43527761102 0.27428391576 -0.85714071989
0.54584288597 0.32595616579 -0.77185946703
0.59201049805 0.37553963065 -0.71308070421
0.61054593325 0.29841420054 -0.73360067606
0.50768023729 0.27043291926 -0.81800466776
0.66127556562 0.32425117493 -0.67643642426
0.55719476938 0.44961228967 -0.69812744856
0.6797683835 -0.26225653291 -0.68491244316
[...]
CELL_DATA 2746
SCALARS cell_data_0 double
LOOKUP_TABLE default
1.06981350005e-07
1.41316056038e-07
1.06261333805e-07
2.77001877615e-06
7.69022077138e-06
2.37595521699e-07
8.6503143951e-06
9.72387797223e-06
4.25784180227e-06
8.49040402998e-08
6.40321910708e-08
1.25495254835e-06
1.28255904381e-06
9.96201222474e-07
1.10307363998e-06
1.69373437235e-07
1.33498496436e-06
1.91432152548e-06
4.43813507563e-07
2.29062504051e-08
6.25332473296e-08
3.19445336631e-06
4.80613007736e-06
1.0989765541e-07
7.21692903116e-08
1.10819348229e-07
4.85963364413e-08
5.45576500414e-08
7.04087462667e-08
4.04095801025e-07
2.38657943598e-07
6.43769202945e-09
3.33445593846e-07
1.32942871482e-07
3.89162542862e-06
2.46085276688e-06
9.7774712668e-06
4.04200685969e-06
3.5039501042e-06
3.49209820092e-06
4.33152667287e-06
5.03028502705e-06
4.0719324757e-06
7.27691435551e-06
5.33279419992e-06
7.67432277084e-06
6.14375527276e-06
5.99249918138e-06
8.31664024104e-06
9.07273693327e-06
5.27517314937e-06
5.22237638125e-06
8.65901181385e-06
3.64304445954e-06
5.75180835029e-06
3.68382117238e-07
3.24210323129e-07
1.15889668669e-07
1.13707775665e-08
1.79455562403e-07
2.89092143819e-07
4.11921696368e-07
9.45165815534e-08
2.35808900993e-07
1.03286405311e-07
5.49322176774e-08
2.98348108735e-06
9.88381876221e-06
1.57564693195e-08
3.74414521918e-08
1.03534078544e-07
5.9162047104e-08
5.44698738695e-07
1.19187024053e-06
1.47113661224e-06
6.24128314635e-07
3.32481823003e-06
2.4678443395e-06
8.89152474182e-07
2.41434358286e-06
7.7302497285e-07
9.71453382243e-07
1.22913707938e-08
5.60794883038e-08
3.09562740717e-07
2.88515868305e-07
1.46924143783e-06
1.29119302553e-06
3.26301871869e-07
3.97396172533e-06
7.72937186628e-06
3.73896380022e-07
4.96775193668e-06
1.96398156648e-06
8.41851194591e-07
5.41773923537e-07
7.49030653733e-07
3.45290497599e-06
5.23913580542e-06
5.10950930518e-06
5.86145290776e-06
6.58366839321e-06
6.12378054454e-06
8.80223959206e-07
4.49717685088e-06
5.81619172776e-06
5.07392589809e-06
2.20042231622e-07
4.41598261707e-07
7.31482711257e-06
2.1252082131e-07
4.75621175644e-07
4.85405083009e-07
1.64075143517e-07
4.78149073273e-07
1.05706385772e-06
4.50403729931e-07
5.1386685389e-07
5.21348082271e-07
3.61507049986e-07
2.4263492805e-07
2.31444811179e-07
1.27100375266e-07
1.67513093807e-07
8.70293153589e-08
2.05541495158e-07
2.82683398262e-07
2.97669380982e-07
4.24360865011e-07
2.69568451734e-07
7.25906584671e-07
4.07810820802e-07
5.7971490767e-07
2.83784979268e-08
1.87848842086e-07
3.97715590472e-07
2.39512085055e-07
1.29771315049e-06
1.04108499454e-06
1.34719645202e-05
1.48237274683e-05
3.93655266654e-06
4.48309632936e-06
2.92972454962e-07
8.72007506996e-06
4.12001262641e-06
4.4346489256e-06
4.35270200668e-06
3.94112642143e-06
4.24043871535e-06
5.23542671554e-06
4.96968970735e-06
2.79546320845e-06
4.42969768803e-06
4.27672440841e-06
5.78940439731e-08
3.73203935384e-08
1.85364558553e-08
5.24129270488e-08
6.5560570232e-06
6.67607589231e-06
9.72759290249e-09
6.59099732973e-06
6.86762927995e-08
5.18954293176e-08
2.46752794123e-06
2.89464830704e-06
3.91268937611e-07
4.80206956722e-07
3.10116633483e-07
1.65464297822e-07
8.69427247246e-07
3.40762420569e-07
6.01639442972e-07
4.72810767621e-07
8.63604966185e-06
2.99314526876e-07
1.8687548416e-07
6.15667909883e-08
2.5573705691e-07
4.19050473743e-08
1.63820624629e-06
1.70991572119e-07
2.75362606902e-07
1.24023004349e-07
1.67911315028e-07
1.1202686745e-07
5.61557128944e-10
5.83126420744e-06
6.62061431125e-06
2.28891806264e-06
2.68694917561e-06
2.83357827105e-07
1.81382155612e-06
6.53328196837e-07
4.9266416339e-07
4.10246262272e-06
2.43448612933e-07
1.60019909357e-07
2.15061143915e-07
2.18808644028e-06
1.90447355339e-06
9.95487375724e-07
1.27027039126e-06
1.48878771772e-07
1.88040762792e-07
3.32934562156e-07
1.17075541209e-06
4.70715406149e-07
5.15458863826e-06
5.01860302229e-07
7.72084146452e-07
2.40081099144e-06
2.83017968074e-07
1.41226510206e-06
1.71269414463e-06
3.77277413582e-06
4.0578742093e-06
6.57431572651e-06
7.67536725767e-06
5.6362963336e-06
1.95857107965e-06
3.24844056282e-06
9.05022906242e-06
1.41689345679e-06
3.10402052597e-06
4.56460416043e-08
5.32717666658e-06
6.76904020279e-06
8.73031918123e-07
1.81301856561e-06
3.99301937328e-07
9.8070551534e-07
7.54754053302e-06
1.37141477787e-07
2.32174695231e-06
1.96043976854e-06
4.65270958961e-07
1.49681343342e-06
1.87663209502e-07
1.8267750393e-07
1.42933905028e-07
2.96685106811e-07
6.1693206658e-07
1.14836678081e-06
4.62220350257e-06
5.34508464395e-06
3.21502711022e-06
3.43357538277e-06
3.58946673607e-06
1.8919375297e-07
3.5461331469e-07
1.63045499804e-08
1.2840158201e-06
1.20166004205e-06
1.06829590382e-06
6.8475781026e-07
1.51043155196e-06
2.82084179926e-06
2.90423565755e-06
3.3057637243e-06
8.67287865615e-06
1.42611785445e-07
1.47708360616e-07
1.57237331588e-07
7.35069424401e-07
4.84344133152e-07
3.05369187938e-08
5.15315819615e-08
7.58231710008e-08
5.90240349127e-08
9.22982473058e-08
2.90495081378e-07
2.17831159413e-06
1.64045027385e-08
2.66278431218e-08
1.2637267811e-06
1.57889918281e-06
5.90104952241e-07
4.63215426974e-07
5.60563071827e-07
7.41932865207e-08
1.09261370342e-06
3.35430605076e-06
5.11953508546e-06
9.81213742004e-07
1.39064670882e-06
1.49414426825e-06
1.05429829714e-08
1.90304070524e-07
7.82452472579e-06
4.60412992963e-06
4.34599399757e-06
4.04035428886e-06
1.50436872561e-08
8.32934978087e-08
5.51861488588e-08
4.75802212582e-08
2.30457023737e-08
3.65614199069e-08
2.84546569542e-08
5.19124745281e-08
1.25059818386e-08
8.55357878521e-09
7.24216308426e-09
9.6679811351e-09
4.4602622597e-08
1.54432709328e-08
1.51687841738e-08
3.19202023519e-08
3.08304629047e-08
2.60169736688e-08
2.99039546534e-08
5.53886626113e-08
1.01854422672e-07
3.03733929552e-08
4.76951438949e-08
6.42929910277e-06
3.86165313988e-06
3.58777952945e-06
4.12352159294e-06
2.93242588678e-06
3.09072240617e-06
3.77903883666e-06
2.70707954881e-06
1.52340987768e-06
1.75207957995e-06
1.39723991474e-06
2.40160127085e-06
4.13512076464e-06
1.73971476077e-09
8.2387749365e-08
5.08425703529e-08
6.25909952822e-08
9.42808832736e-07
2.44274514216e-07
3.52304776728e-06
7.20721870223e-07
1.32683838686e-06
1.26856936062e-06
3.96241527361e-07
8.93789803579e-07
2.47923492997e-07
1.56624299823e-07
2.98809502596e-07
1.76970230575e-07
5.84290953299e-08
2.1199383083e-07
2.96403508158e-07
4.31466933965e-07
5.71767768271e-07
2.34002913159e-07
3.78236978312e-07
1.45754612559e-07
2.05168804573e-07
1.28878196032e-07
1.69790153331e-07
9.17484189884e-08
1.44338112181e-07
2.94631932774e-07
2.86384171759e-07
2.15344874536e-07
9.12510006584e-08
2.30773314628e-07
3.19882028003e-07
2.34833553669e-07
1.57128706983e-07
2.2279768798e-07
4.70708616559e-07
4.16770613938e-07
3.74310954433e-07
2.40474760556e-07
3.66188778207e-07
1.67588648333e-07
4.75734056464e-06
5.83716649295e-07
1.62654136e-07
2.46071346224e-07
3.88891350564e-06
1.41112594052e-07
1.45480913973e-07
1.60162729767e-07
7.75524788248e-08
1.49341123783e-07
6.7649017072e-08
6.44111593619e-08
4.58377795342e-08
5.7750836263e-08
6.80605552301e-08
4.9661011191e-08
2.484585752e-08
4.42565761528e-08
5.40738346327e-06
1.12589282163e-07
5.09858518615e-08
7.11360347834e-08
8.83860646274e-07
5.1136795072e-06
3.5974781857e-06
3.758593805e-06
6.41809457466e-06
9.3478712337e-08
9.27183608622e-08
2.22087053823e-07
2.08559916982e-07
2.25673159234e-07
3.68040762993e-07
4.93890084088e-07
2.3910201906e-07
2.62483213501e-07
3.41227554662e-07
1.43862729587e-07
1.21625305194e-07
2.74736660551e-07
5.41474640112e-07
4.22707398243e-07
3.62827742993e-07
2.17351460501e-07
4.98435393823e-07
3.30255385087e-07
3.35592678891e-07
3.36077162156e-08
3.56519877835e-08
1.15208578128e-08
4.26374824291e-09
4.95607007629e-08
5.07244287727e-08
8.83083251671e-09
8.77125448794e-08
7.20908054849e-08
3.06472552253e-06
3.48162077953e-06
3.26629916968e-06
5.44429144953e-06
2.48444510213e-07
5.16004220856e-07
3.92216496805e-07
7.876988318e-07
9.93945423322e-07
1.1580750839e-06
1.35480719331e-07
3.70868303057e-07
3.0427225814e-07
3.79975832358e-07
5.77607830808e-07
6.55470263372e-07
3.61772302262e-07
3.33561939647e-07
2.78002615827e-06
1.3832567222e-06
1.89302435874e-06
2.63874589146e-06
3.9440726782e-06
7.7199359599e-07
8.34771894222e-07
5.92728539783e-07
2.95622161469e-06
3.89507709003e-06
2.43132826424e-07
1.96317200023e-07
2.33327631499e-07
1.48208475143e-06
1.41301413839e-06
1.90031207278e-07
2.2216392398e-07
1.31518209147e-06
4.79183961048e-06
2.49237189717e-06
4.1613476143e-06
2.72924152795e-06
9.04504962356e-06
5.52852204095e-06
3.17131367789e-06
5.46138566388e-06
2.75147434195e-06
2.52830661721e-06
1.2604448577e-06
4.42713069952e-06
8.00566547974e-07
1.57380994835e-06
1.87672548556e-06
3.79209230908e-06
1.15080499548e-06
2.95271549387e-06
5.30622593141e-07
8.71703920581e-07
5.53111545184e-07
6.29236972335e-07
3.42879812186e-06
5.57545684082e-07
2.57521911606e-07
3.26162521496e-07
2.44549530871e-07
2.45471448369e-07
1.48334019873e-07
1.7594906063e-07
1.55592802272e-06
9.59988324802e-07
2.05443240825e-07
8.64266283419e-07
6.67587003427e-07
1.53470065773e-06
5.71970141765e-07
1.1760248133e-06
7.44664174535e-06
1.03999162077e-05
3.12559136506e-06
5.4984017639e-06
8.60830847329e-07
5.59681616569e-06
1.5332926721e-06
2.03796287976e-06
1.6881283374e-06
1.12514538721e-07
6.87659329775e-07
2.75884283429e-07
4.08073479397e-07
2.60002597236e-07
7.25812030962e-07
8.7693149356e-07
7.30173594533e-07
1.58479532338e-07
1.70944487259e-07
1.09585850663e-07
2.88538919097e-07
4.87283840864e-07
1.08536469706e-07
2.24232715963e-07
2.80266117388e-06
2.91835027671e-06
1.81654872485e-07
3.72323939642e-07
1.64299183661e-06
2.98926631447e-06
3.56497255776e-07
6.85416999027e-07
4.54953696746e-07
1.55778859167e-06
1.89869748013e-07
3.77520469345e-07
2.2475009733e-07
2.3966782217e-06
3.06661701721e-07
1.19942114905e-06
1.00653440707e-06
1.57371614428e-06
2.32175329171e-06
1.06670362509e-06
1.88126530642e-07
9.89792961744e-07
9.8329891408e-08
8.92547341568e-08
1.47168596117e-09
3.76699964261e-09
1.47921101293e-06
9.37754603938e-07
3.38709021642e-06
1.18483417031e-06
2.99558762272e-06
2.83066472587e-06
2.38062819926e-06
3.31863798597e-07
3.5598947741e-07
4.73955477152e-06
7.26278547343e-07
1.61475421655e-07
2.1633663942e-07
2.14369873728e-07
3.99614141261e-07
3.90188011949e-07
7.26345296486e-07
3.00329886213e-07
1.61100610744e-07
4.34932673987e-07
2.36329379762e-07
2.70022415295e-07
1.81155589279e-07
5.99851003439e-07
1.21748576018e-06
9.95242864229e-07
1.98354345271e-06
2.02103284263e-07
2.43521731336e-07
2.81657656415e-07
1.81342342381e-07
2.4100530499e-07
4.47656717727e-07
6.52503632191e-07
5.87532352916e-07
3.70562093595e-07
1.26108971187e-07
1.03599461348e-07
3.2539824585e-07
3.2714741921e-07
3.68529403512e-07
3.24807779531e-07
2.64731164853e-07
2.48654256381e-07
5.10632964654e-07
9.58899644396e-07
6.62465479752e-07
5.40702146162e-07
6.35700721214e-07
8.80202108433e-07
5.26379826179e-07
4.87040084981e-07
4.25487713847e-07
8.10727747974e-07
6.14018846779e-07
3.9976903255e-07
8.17764924448e-07
8.07177237046e-07
4.74019709918e-07
8.83469637898e-07
5.90820026377e-07
5.32220130394e-07
5.33611265707e-07
8.21366943845e-07
3.7210144411e-07
5.69774435192e-07
2.8918413358e-07
5.20180859003e-07
2.3401699052e-07
8.94692542679e-06
3.96311532174e-07
7.7607974413e-07
4.45037362066e-07
4.29749085639e-07
4.94720057804e-07
9.10212003376e-07
4.97419783939e-07
4.81541493059e-07
3.85016355402e-06
5.51816655469e-06
3.60252719583e-06
2.81505362642e-06
2.20221453315e-06
1.60322613517e-06
9.56060212758e-09
2.23761166335e-08
2.26205575848e-08
1.5501973959e-07
1.1329847036e-06
6.57440739797e-07
7.38939826681e-07
2.49930091046e-07
2.82003694798e-07
2.65672868339e-07
2.46099446934e-07
4.59123552244e-06
9.00106067615e-06
8.46612866185e-08
8.95872593134e-07
7.81227904414e-07
1.196569213e-07
1.14832467586e-07
1.74437235943e-07
1.3767280216e-07
1.10733461036e-07
9.58679705814e-08
1.17608980977e-07
1.6501019103e-06
1.43120572033e-06
1.91102779934e-07
3.50979637582e-07
6.64239044675e-07
2.2042344434e-06
1.39354561201e-07
2.33298426611e-07
1.44038061351e-07
4.27491329464e-07
4.53139793598e-08
1.49315127895e-07
6.90450738987e-07
1.72457995369e-07
5.61890793122e-07
2.76319851944e-07
1.43342499484e-06
3.24998083909e-08
3.34005274905e-06
1.33525263628e-06
7.0536274151e-08
3.74835224207e-07
4.70879140224e-08
1.18906111566e-07
3.35617700266e-07
1.21959109719e-06
8.18196201474e-08
5.02086851969e-07
2.43031672135e-07
3.64311598947e-07
2.21805581023e-07
3.28944994703e-07
3.0505062975e-07
2.29893981117e-07
3.5824358206e-07
4.97685987918e-07
2.4830760782e-06
1.61784500163e-07
2.7000120659e-07
2.53805138661e-07
1.56663478234e-06
1.69052985481e-07
4.54062283782e-08
3.53186698559e-08
4.08741835484e-07
4.66137664269e-07
4.76084824594e-07
2.00254405978e-06
7.7128444037e-07
7.16728327104e-08
2.35014659654e-07
9.15047995956e-07
8.41310709078e-07
3.8729689443e-07
4.23689501308e-07
3.23437688309e-07
7.98404737771e-07
7.63904160668e-07
6.36898622351e-07
1.28090604838e-07
2.43380654234e-06
5.07276996376e-07
1.43486780662e-06
7.22017755265e-07
1.04158273573e-06
1.36472802216e-05
2.50880879821e-07
1.66973644248e-07
1.55237215551e-07
2.34019449492e-06
1.93246778088e-07
1.540489781e-07
9.10382896263e-08
1.32545776601e-07
4.82412751577e-08
6.06883110221e-08
4.81740862348e-07
5.37598232151e-07
4.61223653126e-06
3.93524625737e-06
3.45455154718e-06
1.1865830816e-06
6.04554923987e-06
2.60656071022e-06
1.5221962727e-06
1.56088748685e-06
9.72457390398e-07
2.3126980002e-06
1.65505562633e-06
1.14923071309e-06
1.65077015325e-06
1.81943812779e-06
2.01367912575e-06
5.72941651159e-06
3.72910580029e-06
2.58660459995e-06
2.76431680101e-06
1.45708960358e-06
1.18440594392e-07
8.92458980473e-07
4.09334686462e-07
7.56073103536e-07
2.58636316595e-07
2.56176651791e-07
5.81192256286e-08
7.08583546435e-08
1.09175688573e-06
5.50208638362e-08
8.44275228366e-07
1.12935697638e-06
1.17220916958e-07
1.22223212316e-06
1.61275195742e-06
9.3617123048e-08
1.05390689895e-07
1.04616591523e-07
5.98905809171e-08
1.00555190202e-07
7.79403902775e-08
9.19700508895e-08
5.42054792967e-08
1.42418236361e-06
9.48079896108e-08
1.87740977649e-07
5.58122253141e-07
2.66231249409e-07
9.48873635569e-08
1.69694402314e-07
1.30433797827e-07
5.95144762193e-08
7.70562627554e-07
1.40295699488e-06
5.13323326562e-07
7.78774868527e-07
4.22206078699e-07
6.18708481276e-07
4.27144835749e-08
1.00947013142e-06
9.56720374398e-07
2.91745248806e-07
2.39834316059e-06
1.62185492574e-07
1.86318425584e-07
1.60259119043e-07
8.82595127236e-07
5.50564083909e-07
4.40956372403e-07
3.77872570128e-07
4.05458278415e-07
1.23849934521e-07
1.13559640872e-07
3.801590628e-08
2.11496653809e-07
4.54846525695e-08
1.14370609967e-07
6.3556737981e-07
7.2388052766e-08
7.70026493158e-07
5.16850529765e-06
3.26019381812e-06
3.07723819399e-06
1.32170370628e-06
1.41339594826e-06
1.81496030307e-06
1.1872878287e-06
5.41156442114e-06
6.11367218522e-06
5.72332640524e-06
8.38639766345e-06
4.5100804993e-06
2.81716401001e-06
3.32088891724e-06
2.12918725215e-06
1.71094786188e-06
1.70393248303e-06
2.18124902447e-06
2.83468897702e-06
4.87046236458e-06
4.13689675623e-06
6.96271539449e-06
6.17214108129e-06
5.1614519211e-06
3.90511140777e-06
2.82101680401e-06
3.88383547736e-06
3.43320108117e-06
3.55593158387e-06
5.79924718733e-07
4.23409787061e-06
5.42502412694e-06
5.89240424362e-06
2.60582788861e-06
4.01938959284e-06
5.29651789943e-06
9.10176619606e-07
8.33524588126e-07
1.05694786867e-06
1.87133905656e-06
1.87970998004e-06
1.43547324345e-06
2.063590935e-06
5.26304018871e-07
1.12502195167e-06
3.89634055348e-08
8.43442579535e-07
2.84997083575e-06
9.13656436147e-07
1.85398081162e-06
1.99078752518e-06
2.14099810181e-06
1.19905705104e-06
9.30207422086e-07
3.19134660255e-08
8.64461820709e-08
1.05374836716e-06
6.32175581935e-07
1.06873191229e-06
7.26949401832e-07
1.73522576156e-07
8.87349041308e-07
7.32623531927e-07
8.1637933731e-07
3.35359229019e-06
4.78746219949e-07
1.39823201276e-07
4.40378731698e-08
9.77392165773e-08
9.33780040332e-08
1.64719522194e-06
8.4285099844e-07
7.22603492605e-07
9.22510090592e-07
8.49900116368e-07
9.06870283766e-07
1.21754296487e-06
9.92098997003e-07
1.12886149951e-06
1.93902761767e-06
2.71274571707e-06
6.04713161376e-07
2.84871702496e-06
2.46930628864e-06
1.38513675222e-06
1.232663362e-06
1.75837809696e-06
1.14740877473e-06
1.18579701121e-06
9.79986957465e-07
6.39796236514e-08
3.75471566705e-08
3.53309818541e-08
1.94545388591e-08
8.46203635636e-09
1.66529330288e-08
7.68142781038e-09
5.19541445437e-08
1.27450328631e-08
1.42612048203e-08
2.0247247619e-06
5.39208645976e-06
7.60558812531e-06
6.59735852633e-06
5.13222148614e-06
3.04614723706e-06
3.4020774146e-06
2.70172120804e-06
2.39554190024e-06
4.05326876266e-06
7.79707349683e-09
7.78901927029e-07
5.52491274048e-06
5.87235479668e-08
4.8848559731e-07
1.81354441823e-06
5.47005010101e-07
2.77034696302e-07
3.44899676713e-07
1.47743907646e-07
2.02400145814e-07
1.36539692361e-07
1.26620471641e-07
1.24574469423e-07
1.01745489053e-07
8.24422329069e-08
6.42423896779e-08
3.89862448041e-06
2.03196986839e-06
7.23886773398e-07
2.05471393466e-06
7.75035415114e-07
4.66729662147e-08
1.31345315157e-08
1.31265708709e-07
5.70140553693e-07
1.57934258577e-07
9.60806405999e-07
1.40543036132e-06
2.16656831115e-06
1.3549727683e-06
3.16402706284e-06
2.5290564666e-06
5.03947597146e-08
4.89116054532e-08
2.74807013715e-08
1.10426386732e-06
8.2208519769e-07
1.48347776683e-06
2.20829923763e-08
8.14982930194e-07
7.93767260291e-07
4.43689132205e-08
1.92784204643e-08
6.43125655447e-08
2.04353160235e-06
2.50629395703e-06
3.4962151498e-07
3.49108593801e-08
5.24583070414e-06
1.08487141019e-07
7.190220705e-08
7.88368199423e-08
9.24610821468e-08
4.01648288013e-08
8.82125869266e-08
6.31662206165e-08
5.98427784518e-08
6.7915515214e-08
2.95582148875e-08
8.12649935024e-08
3.69085969878e-08
4.3591416516e-08
5.13770154527e-08
6.09236887548e-07
1.22301880536e-06
1.14088177492e-06
5.7886476637e-07
5.65841548653e-07
1.91259740538e-06
1.25903280471e-06
1.79217830596e-06
2.9783168983e-06
1.04642765757e-05
4.79747370929e-06
9.7210083578e-06
1.80769865014e-06
2.40807271989e-06
6.24166161321e-06
4.14573717463e-06
2.90075031645e-06
8.78957197591e-06
2.74143107691e-06
5.43396365673e-06
9.94920228986e-07
1.14557454992e-05
1.11131384797e-05
2.6739401121e-06
2.87917759716e-06
1.10294387695e-05
7.64333824833e-06
5.76323351917e-06
7.68968244728e-06
9.91163513352e-06
2.1739228079e-05
3.3069241137e-05
1.3962362859e-05
2.09896052404e-06
1.26086985993e-07
6.15470860019e-06
5.0782431328e-06
1.01564424382e-06
2.44797574076e-06
2.44569688831e-06
2.55770074e-06
4.55876828068e-06
3.33623173542e-06
3.48323885629e-06
2.22956847996e-08
1.94217592764e-06
2.38761218885e-06
1.33697616841e-06
8.05560880843e-07
4.663931145e-07
1.48740784223e-07
5.65815765167e-07
1.76100292714e-07
1.61594341346e-07
1.28300501435e-07
1.74563589883e-07
4.84567103504e-07
1.89265690599e-08
1.06878222408e-08
2.93200517954e-06
1.11941000721e-06
1.008075842e-06
8.97950500326e-06
1.06887896277e-06
1.93901131477e-06
2.88299589246e-06
2.81255920381e-06
5.39500503678e-06
5.61487140118e-06
5.02168479937e-06
5.87728931367e-06
4.28713431476e-06
5.38758723313e-06
5.12762097876e-06
5.67939612347e-06
4.45808871509e-06
4.05756383905e-06
3.66624405951e-06
3.53798661108e-06
8.98435606735e-06
7.57888221737e-06
9.18179959905e-06
3.15318487012e-06
3.1397367771e-06
3.59196746705e-06
2.5341144707e-06
3.39027557714e-06
1.72486621506e-06
1.10525222123e-06
8.32156874864e-07
1.02467341791e-06
3.72359864481e-06
4.34654804817e-06
3.59617749269e-06
4.17020992111e-06
3.05238204225e-07
5.68786829795e-07
6.74698352096e-06
1.33479376523e-06
1.86858399044e-06
5.46391149317e-06
3.11305967545e-06
1.14414081549e-05
1.57647232542e-05
1.53106497098e-05
9.06968132397e-06
5.19029952024e-06
7.49174459758e-06
2.5857477213e-05
6.69098340574e-06
9.53184045345e-06
1.13273345505e-05
4.54623337625e-06
5.15539091189e-06
5.08410422675e-06
2.14076620539e-06
3.16485535228e-06
1.32379019331e-06
9.37672649107e-06
2.17638681053e-07
6.9597361853e-06
1.02970615309e-05