# vtk DataFile Version 3.0
File Name: Molecule/sphere_excent/sphere_excent_0-s34.vtk
ASCII
DATASET UNSTRUCTURED_GRID
FIELD FieldData 1
TIME 1 1 double
0.0
POINTS 435 double
0.33790639043 -0.64768999815 0.68293815851
-0.0052073476836 -0.85639405251 0.51630926132
0.49638786912 -0.81335198879 0.3021838963
0.85552591085 -0.50808399916 0.092235155404
0.61486792564 -0.50383800268 0.60451233387
0.4833997786 0.70767223835 0.51540666819
0.42711776495 0.55463004112 0.71383452415
0.68652582169 0.38927385211 0.61322289705
-0.52218723297 -0.83704519272 -0.1606362313
0.0028962802608 -0.99773216248 0.041582487524
-0.44237849116 -0.86820930243 0.22283899784
-0.91223978996 0.13025043905 0.38784444332
-0.97352665663 -0.18549628556 0.12584342062
-0.84011131525 -0.27997887135 0.46464312077
-0.85267835855 -0.50032681227 0.14519590139
0.47044625878 -0.87142789364 -0.13583993912
0.18831859529 -0.97514921427 -0.10021103919
-0.35331112146 0.82273089886 0.44464105368
-0.28252753615 0.93866825104 0.19234892726
-0.52091181278 0.80854791403 0.27249372005
0.2535649538 0.95938283205 -0.12294270098
0.26801362634 0.9289111495 0.25454285741
0.43523624539 0.9001250267 0.02088922821
0.024214144796 0.99773395061 0.02512171492
0.042680028826 0.94518762827 -0.32353138924
0.36659929156 0.86448454857 -0.34152078629
0.23422269523 0.766484797 0.59764719009
0.22750687599 -0.043149854988 -0.97275686264
0.13056623936 -0.193259269 -0.97232395411
0.033320706338 0.023480243981 -0.99910026789
0.6899074316 -0.63335603476 -0.35017570853
0.5359145999 -0.65591794252 -0.53043580055
0.67961406708 -0.49143436551 -0.54463416338
0.67624181509 -0.23203285038 -0.69918042421
0.7522059083 -0.10335599631 -0.65072447062
0.76638787985 -0.29467910528 -0.57058441639
-0.47709575295 -0.36753937602 0.79770296812
-0.62666410208 -0.16469971836 0.76123529673
-0.6087744236 -0.46014547348 0.64478039742
0.67436993122 0.63971799612 0.36652603745
-0.48828941584 0.81523007154 -0.31133180857
-0.69066262245 0.7092205286 -0.14074485004
-0.53585755825 0.84256958961 -0.00040815531975
-0.67400574684 0.71185052395 0.19659850001
-0.76348799467 0.64390778542 0.048293456435
-0.46994307637 -0.34195032716 -0.81376039982
-0.52487969398 -0.49205553532 -0.69439560175
-0.62105774879 -0.33247840405 -0.70969003439
0.461702317 0.86853510141 -0.18056190014
0.57667523623 0.75812643766 -0.30371508002
0.4999525547 0.84715223312 0.1787583679
0.075881607831 -0.58919972181 0.8043512702
-0.86689883471 0.39399123192 0.3049941957
-0.95649451017 0.28190553188 0.06824374944
0.50894027948 0.29689016938 0.80797308683
-0.011717187241 0.32712963223 0.944886446
0.16866058111 0.35523366928 0.91931051016
0.031908974051 0.52529895306 0.85026395321
-0.033865362406 0.12962275743 0.9909748435
0.15454334021 0.1650994271 0.97407513857
0.094793364406 0.013478955254 0.99540179968
0.2120154649 0.58110225201 0.78571128845
0.3378867805 0.40447458625 0.84981989861
0.34545496106 0.18617074192 0.91981130838
0.50940334797 -0.03503106907 0.85961943865
0.28797492385 -0.015055586584 0.95748132467
0.38413503766 -0.45634657145 -0.80261069536
0.5313795805 -0.51228415966 -0.67439734936
0.3701813221 -0.59241038561 -0.7154918313
0.86003136635 0.11542570591 -0.49686554074
0.77844423056 0.19283306599 -0.59737193584
0.84045398235 0.26500186324 -0.47257569432
0.80294537544 0.031031858176 -0.5952168107
0.72024071217 0.07461322844 -0.6896918416
0.6812440753 0.18960243464 -0.70668834448
0.86314404011 -0.12362413108 -0.48946681619
0.61416697502 0.094165317714 -0.78352558613
0.65208947659 -0.019138131291 -0.75789356232
0.52838456631 -0.020927447826 -0.84868681431
0.60613203049 -0.13792942464 -0.78329753876
-0.018547423184 -0.98434901237 -0.16640743613
0.15204790235 -0.73860788345 -0.65675771236
-0.0018161598127 -0.78493517637 -0.61953175068
0.068465054035 -0.68292039633 -0.7272862196
-0.045845728368 -0.68694937229 -0.72521990538
-0.12192759663 -0.73517650366 -0.66677349806
0.10801293701 -0.59013772011 -0.8000472784
-0.012112797238 -0.60495579243 -0.79616487026
-0.10150247067 -0.87018829584 -0.48228934407
-0.26656749845 -0.90296882391 -0.33660387993
-0.25824019313 -0.82761025429 -0.49840432405
-0.028547089547 -0.93796014786 -0.34342476726
-0.45807787776 -0.77878129482 -0.42848914862
-0.1142186597 -0.61169117689 -0.78279393911
-0.11218035221 -0.53668242693 -0.83625555038
0.29720079899 -0.70696020126 -0.6416028738
0.21152096987 -0.6485555768 -0.73118412495
0.050467148423 -0.87775975466 -0.47638389468
-0.81484156847 0.20706185699 -0.54118210077
-0.76773411036 0.36699548364 -0.52506309748
-0.69878870249 0.31123411655 -0.64402484894
-0.66745835543 0.43544876575 -0.60406577587
-0.37286776304 0.1868185848 -0.90888851881
-0.46727234125 0.088824167848 -0.87962824106
-0.48508664966 0.19146084785 -0.85323309898
0.51986294985 -0.33353826404 0.78641343117
0.67879956961 -0.25337269902 0.68923199177
0.85176581144 -0.33087128401 0.40609514713
-0.77116090059 0.012176490389 0.63575160503
-0.61160433292 0.11033220589 0.78322976828
-0.72255849838 0.21626184881 0.6559894681
0.92635822296 0.1247035563 0.35528752208
0.87226969004 0.012378158048 0.48790752888
0.96542531252 -0.038026705384 0.2543079257
0.35230842233 -0.38840803504 0.85143315792
0.38066488504 -0.2012488991 0.90255093575
-0.21729964018 -0.46240121126 -0.85962915421
-0.36927807331 -0.50607264042 -0.77945005894
-0.31530222297 -0.39810243249 -0.86142337322
0.64003705978 0.14753235877 0.75400280952
0.23852305114 -0.18601918221 0.95316565037
0.097342513502 -0.37959983945 -0.91996896267
-0.020271196961 -0.284206599 -0.95854067802
-0.16487942636 -0.36338984966 -0.91686922312
-0.028511438519 -0.40016877651 -0.9159964323
-0.10669066012 -0.4541760087 -0.8844999671
0.010306820273 -0.50346279144 -0.86393082142
-0.21807816625 -0.55274719 -0.80430644751
-0.26944041252 -0.61233609915 -0.74324405193
0.92589622736 0.04644272849 -0.37481972575
0.83853751421 0.47200736403 0.27096584439
0.90371090174 0.41957783699 0.084493756294
0.80495512486 0.5819927454 0.11475329101
0.98117047548 0.019567405805 -0.19189973176
0.99435162544 0.10309958458 -0.026291366667
0.98638242483 -0.14091318846 0.081140853465
0.94542723894 0.15561299026 -0.28617531061
0.97109109163 0.18356397748 -0.1526055634
0.9309374094 0.27312001586 -0.2423966676
0.89537960291 0.26846638322 -0.35524493456
0.93939125538 0.31367841363 -0.1383895278
0.8871088624 0.34886789322 -0.30215990543
0.89735692739 0.3913064003 -0.20410038531
0.85035020113 0.43227925897 -0.30000349879
0.84385824203 0.36539039016 -0.39287936687
0.9035795331 0.42237743735 -0.071762934327
0.84747546911 0.49836322665 -0.18274201453
0.83037596941 0.55623197556 -0.030619664118
0.89982694387 0.17207312584 -0.40088358521
0.96039873362 0.2776260376 -0.022557899356
0.96999180317 0.21427099407 0.11347603053
-0.041763015091 -0.1471401453 -0.98821544647
-0.16145396233 -0.23924635351 -0.95745718479
-0.19510410726 -0.12056989223 -0.97333931923
-0.2993811667 -0.28956091404 -0.90905505419
-0.25515431166 0.95078414679 -0.1670011133
-0.23317582905 0.88551539183 -0.40164491534
-0.073370613158 0.53568071127 -0.84122127295
-0.12833431363 0.62744724751 -0.76797312498
0.019131075591 0.61055898666 -0.79171562195
-0.032134857029 0.7380181551 -0.67403137684
-0.22214733064 0.69885635376 -0.67980360985
0.13654832542 0.6763779521 -0.72374051809
-0.27238750458 0.59343332052 -0.75739353895
0.14746327698 0.80755037069 -0.57064336538
-0.040216851979 0.85140877962 -0.52269774675
0.69981759787 -0.7097299695 -0.079821117222
0.8083268404 -0.41524034739 -0.41615948081
0.82986950874 -0.52186155319 -0.19704766572
0.51874339581 -0.78036636114 -0.34769761562
0.39224880934 0.59581339359 -0.70050895214
0.27288457751 0.5809661746 -0.76680278778
0.28117549419 0.68838274479 -0.66858845949
0.37786993384 0.49592265487 -0.78184580803
-0.34041082859 0.77783048153 -0.52805376053
-0.49413916469 0.69490236044 -0.52240371704
-0.36366802454 0.67039072514 -0.64673984051
-0.47129064798 0.608466506 -0.63847768307
0.14914770424 0.41199153662 -0.89886879921
0.14828883111 0.54111397266 -0.8277618885
0.27204892039 0.45457860827 -0.84812909365
-0.38921609521 0.56693524122 -0.72599327564
-0.63868010044 0.62042069435 -0.45471134782
-0.58870595694 0.55571597815 -0.58702772856
-0.18038395047 0.7978066206 -0.57530230284
0.029173891991 0.47498244047 -0.87951022387
-0.11989899725 -0.033225718886 -0.9922247529
-0.17028331757 0.090184278786 -0.98122441769
-0.25525078177 -0.01256733574 -0.96678471565
-0.32311207056 0.088908553123 -0.94216114283
-0.33402255177 -0.10383155942 -0.93680220842
-0.41065588593 -0.015053677373 -0.91164523363
-0.47803720832 -0.14682480693 -0.86589068174
-0.53652113676 -0.044071927667 -0.84270840883
-0.57930487394 0.053536254913 -0.81332981586
-0.59179365635 -0.18884941936 -0.78353637457
-0.66439306736 -0.039178643376 -0.74630558491
-0.65575414896 0.1076919809 -0.74717718363
-0.74748307467 0.063279092312 -0.66118639708
-0.7921847105 -0.094571553171 -0.60285538435
-0.56556415558 0.14925971627 -0.81107407808
-0.27578681707 -0.19000257552 -0.9422288537
-0.38107660413 -0.20878200233 -0.9005548358
-0.076603904366 0.20105007291 -0.97656643391
0.072620600462 0.19171021879 -0.97875779867
-0.00011121615535 0.33342984319 -0.94277089834
-0.16679187119 0.31562134624 -0.93413054943
-0.24419695139 0.20377586782 -0.94809061289
-0.32458800077 0.31663709879 -0.89125776291
-0.42460945249 0.2496047765 -0.87029021978
-0.19078786671 0.52075487375 -0.83210802078
-0.31247201562 0.48314669728 -0.8179705143
-0.10361879319 0.43021193147 -0.89676076174
-0.2325206399 0.41446885467 -0.87974065542
-0.38200104237 0.41849464178 -0.82352125645
-0.14587508142 -0.60452282429 0.78303009272
-0.37318259478 -0.60387122631 0.70416599512
-0.69593018293 -0.61628633738 0.36493960023
-0.72211176157 -0.69001615047 -0.039774097502
-0.43642765284 -0.74323928356 0.50516432524
-0.29211816192 -0.46872124076 0.8336070776
-0.40102750063 -0.12479877472 0.90743607283
-0.23901455104 -0.15897230804 0.95781350136
-0.33000078797 0.01015555393 0.9439009428
0.027863416821 -0.12618815899 0.99160218239
[...]
CELL_DATA 866
SCALARS cell_data_0 double
LOOKUP_TABLE default
1.17737783379e-05
1.80018084713e-05
1.4201166364e-05
8.4317450183e-05
5.04499260299e-05
1.14016894937e-05
6.78020655406e-06
3.87272127699e-07
2.39399096024e-06
3.48635762939e-06
3.13692939525e-06
3.23366561874e-06
2.80323493798e-06
2.13153129694e-06
1.07775213862e-05
7.00567305014e-05
6.71610303163e-07
3.98127869168e-05
3.96328311971e-06
1.03973065785e-05
6.14384909683e-07
2.03596554155e-06
1.37321049217e-06
4.85112773465e-07
1.43412039145e-06
7.05348370845e-07
2.37530753198e-06
2.15826023922e-05
4.76970509595e-06
1.79145122495e-05
1.49768092483e-05
3.15339450384e-05
2.29363892979e-05
2.55270171762e-05
9.37905807835e-06
9.4600292297e-06
1.82272601764e-05
2.33029540945e-05
2.96283265613e-05
2.5115034341e-05
3.02435286679e-05
2.83137217037e-05
2.98743520953e-05
2.72159362108e-05
9.3703308161e-06
7.41712802214e-06
1.27014897612e-07
1.46144432978e-05
9.53749943026e-06
2.44843036522e-05
1.39614990621e-05
8.86293204516e-06
6.64633950417e-08
1.70067505495e-05
2.58322850455e-06
1.71038142362e-05
2.45593002076e-05
8.89276531484e-07
1.01116530008e-06
3.31869875278e-07
6.55445909478e-07
2.59418394314e-07
1.21172304704e-06
1.60750118189e-05
3.64953961552e-07
2.00387189413e-07
7.02547814061e-07
6.03880647447e-07
1.24107070616e-06
1.28709236301e-06
3.16104343446e-07
4.02398659282e-07
5.39677711775e-08
1.82717543822e-05
9.58296353543e-06
1.9014899736e-05
1.23099645733e-05
1.05364854899e-05
1.79785039204e-05
1.56550626121e-05
1.21518067653e-05
1.30181664075e-05
6.06438010344e-06
8.46676563449e-06
2.77764592395e-06
7.43273352701e-06
1.66485914264e-05
1.7483115954e-05
8.64326160272e-08
1.84647772585e-05
1.28338825229e-05
1.44102684943e-05
2.44295148574e-05
1.58236925296e-05
8.19810263404e-06
7.60520160768e-08
5.13234180352e-08
4.66690550028e-08
8.64103071094e-06
1.31679181917e-08
2.92495691509e-08
1.00487999154e-07
1.23995181475e-05
7.12042087358e-08
2.11161922766e-07
2.87353063394e-07
1.58597095294e-05
1.72728877105e-06
1.93909855624e-06
1.3919970469e-07
9.90098836308e-08
1.57135638098e-07
1.63006874648e-07
1.42217413198e-07
2.00664435506e-07
1.99159388436e-07
2.22469178015e-07
1.48459685304e-07
3.61403381637e-07
2.95059285257e-07
2.00045772452e-07
2.89760963608e-07
9.98019892015e-08
6.76602750552e-06
5.31623333142e-06
2.02751226306e-07
1.76824075885e-07
9.19560157688e-09
1.02204385657e-07
5.75698268924e-07
3.40625119154e-07
9.40198095802e-07
1.19291440074e-06
8.97709373337e-07
4.7271965765e-07
7.8289395085e-07
2.20494354742e-05
1.47464540675e-05
2.06765292577e-07
1.3735881052e-05
3.27646420189e-06
1.27692178356e-05
1.3329801382e-05
1.14174083902e-07
1.45352525351e-07
1.05165800505e-05
1.27130389737e-05
7.67463426349e-08
3.46619331495e-06
2.52211141588e-06
1.70048309798e-07
6.65999588762e-06
1.2749624823e-06
1.39087712259e-05
1.7248933827e-06
1.15978552254e-07
1.46754173661e-06
5.20961328584e-06
5.11937575504e-06
2.70987740759e-07
1.58973562364e-06
6.38187143146e-07
1.67031150037e-05
1.04056118367e-06
8.52967949889e-07
1.19655509663e-07
1.52137217336e-05
8.25631188593e-07
1.47930252778e-07
2.32836032286e-07
5.46403315212e-06
3.89740294522e-08
3.46220748222e-07
1.48170430931e-08
1.02848820008e-06
1.65408734309e-05
2.3052721132e-06
1.39743878224e-05
1.9492856344e-07
3.27944714501e-06
4.04985626165e-07
3.81604249154e-07
5.65726844414e-06
3.82197907727e-07
1.06311864994e-06
3.02327758919e-06
6.4570535696e-06
1.42842029228e-07
1.20920594087e-06
4.50169744391e-07
1.68924630421e-07
2.52117471538e-06
4.69943288376e-06
2.47804765857e-06
2.24652713112e-08
1.10572854124e-06
4.69004351316e-06
4.39371127122e-06
3.59725615279e-08
9.90923593122e-07
2.66299341695e-06
1.13608314716e-07
2.75881655372e-06
9.70070968628e-07
1.7292329681e-06
1.01512881152e-05
2.93056779245e-07
2.88617337828e-06
3.08441014569e-06
5.17729151169e-07
1.89673151965e-06
6.52645543166e-11
3.52797144122e-08
9.03621759812e-07
1.44475941066e-06
1.08643385384e-07
4.78376419424e-08
2.08122298995e-06
3.23985419195e-07
7.91565989138e-08
7.82924729993e-08
3.94198346225e-06
2.61869080098e-08
9.55473428263e-09
4.0447382832e-08
1.20397726701e-05
1.27117962434e-05
1.04355775156e-05
5.10977833622e-06
1.25947464134e-06
1.87501286962e-06
4.69453616329e-06
9.08478887811e-07
3.45992176066e-06
9.29900658783e-06
2.76955453095e-06
7.76548054903e-07
4.22449663896e-07
8.15056227554e-06
1.30500791276e-05
5.63365310253e-08
4.63745912718e-07
5.22945550645e-06
1.14418046891e-07
4.16462301018e-06
1.91595298284e-05
1.81136372632e-05
8.19398165795e-05
1.23819737434e-05
1.63158839153e-05
8.7205147279e-05
1.19309639302e-05
1.4309092724e-05
7.80969617322e-06
1.49244432456e-05
1.514202349e-05
1.77479246204e-06
1.25368530669e-05
1.17957648809e-05
1.29184264371e-05
7.21968216524e-07
1.27195585575e-05
1.21699035198e-05
1.1602362146e-05
2.18506207505e-06
1.1323024993e-05
1.11847880908e-05
1.21279381165e-05
6.35200903101e-06
5.55957445861e-06
6.34824697249e-06
1.64376688361e-05
2.0360332154e-05
1.19336787028e-05
5.14130170853e-06
1.12906384361e-05
5.10963454981e-06
9.03198706628e-06
1.36283755947e-05
1.21799846498e-05
9.88628512166e-06
1.06998051652e-05
1.7188666241e-05
1.96362586406e-05
1.95195109691e-05
1.31651477219e-05
1.99793104315e-05
2.03313743975e-05
1.98696506282e-05
2.15859234251e-05
1.63720047833e-05
1.64056103329e-05
7.36424626677e-06
1.66405142344e-05
1.27137725578e-05
1.28169077867e-05
4.03390660486e-06
1.65136585272e-05
1.19858061044e-05
6.79289944428e-06
1.05707290103e-05
1.70972895176e-05
1.4738564597e-05
1.15069990025e-05
1.27139451299e-05
1.29159997685e-05
1.33798246273e-05
1.20701998589e-05
9.17089534904e-06
1.03355406934e-05
1.94579999738e-06
2.46009076313e-06
9.83047323797e-08
7.58398749875e-08
3.14192765413e-08
4.09728857474e-08
8.49683135413e-06
1.3958173993e-08
1.88282272654e-08
1.90928247938e-08
6.63141257134e-07
5.48902398467e-08
2.80824846083e-05
4.70706737911e-08
1.378328776e-07
4.59390563612e-08
8.62311039225e-08
3.94317346235e-07
3.31184095518e-07
3.84472522419e-07
1.46114040143e-07
1.62186017396e-05
2.52221830953e-07
1.27470257683e-08
1.15703366336e-08
3.14323414195e-06
7.04156684732e-06
2.58754734936e-06
7.65556475709e-10
7.60917109949e-06
6.7307879022e-06
3.20119465614e-06
1.01803408324e-05
1.3444518069e-05
8.88002194207e-06
3.85754297101e-07
4.2580293635e-08
5.15580309665e-08
4.41354309139e-06
4.65932407914e-08
3.23922811385e-10
1.71914507439e-08
5.56490061895e-06
5.04004717588e-08
6.49285875057e-08
5.79170006895e-06
7.06132869278e-06
1.22988399134e-05
1.00275776532e-05
9.41844750369e-06
3.03394566981e-06
3.12948139061e-06
3.42575837452e-08
3.19999898783e-08
1.95561936094e-07
7.07156871866e-06
5.8485529752e-06
7.56343636127e-06
4.8603075846e-06
4.61968311626e-06
6.16656865872e-06
6.34653200022e-06
1.04641094866e-05
7.39131967799e-06
1.32960339318e-05
1.2188342842e-05
8.26589191301e-06
7.88110727431e-06
8.49495194484e-06
5.37521510937e-06
5.42120956296e-06
3.49544809152e-06
8.8012492837e-06
4.36595663605e-06
2.58083937031e-07
4.01197772413e-08
1.58439121985e-06
1.75970729487e-05
3.1450242695e-05
2.40079556821e-06
1.55410401085e-06
6.18305275671e-06
1.81862863848e-06
6.47868468983e-06
1.9214243782e-06
2.40623564783e-06
2.16606264338e-06
1.44350225578e-07
2.15826558313e-08
1.12717067026e-06
4.89594470563e-06
1.03447149476e-06
1.01613367364e-08
6.94746552508e-06
4.72712866443e-06
1.04013820491e-06
9.40304992413e-09
1.17829281741e-09
7.53000055617e-06
5.98057578074e-06
6.90917909705e-07
1.02425055081e-05
1.0080404793e-06
7.39224812272e-09
1.86933873398e-06
2.19093092225e-06
3.56011726431e-06
9.03389246279e-06
7.27946463984e-06
1.01010135464e-05
1.06975479402e-05
1.68900091609e-06
2.76537487893e-06
3.60150719648e-05
6.29628518799e-05
2.09931912799e-06
1.28880326522e-05
4.55385029086e-05
5.95786475662e-06
5.62153461208e-05
9.7238990338e-06
8.17214937389e-07
4.17940854975e-07
4.69413574975e-06
1.73672417559e-07
1.67212497199e-05
3.15636025601e-07
5.18758203967e-06
3.20754307923e-06
8.689735843e-06
5.52829305893e-06
7.47653030837e-06
9.69974746601e-06
1.04311172315e-05
7.09505834959e-06
7.29830444457e-06
1.00301133768e-05
8.53449523923e-06
4.63832388e-06
4.07749966263e-06
5.44552301116e-06
6.00132825529e-06
1.00453334494e-05
3.1459643919e-05
1.10464254351e-05
1.0498013791e-05
1.3196339572e-05
1.93625908454e-05
7.12972049029e-07
4.08345663989e-06
6.23305479915e-06
6.39115324445e-06
3.01215837962e-06
3.8170048399e-06
4.33622959778e-06
5.82195992336e-06
1.27628361491e-05
1.14675156359e-05
5.20356739221e-06
6.01036393499e-06
6.14634149867e-06
7.8918606429e-06
2.32202317253e-07
3.50965023582e-07
1.37590039439e-05
5.66111378197e-06
6.48387741971e-07
3.56580278337e-07
1.87001217243e-05
1.39266314004e-05
1.46156746772e-07
1.01532194339e-07
4.41265628628e-06
5.91809355757e-07
2.28072139851e-07
1.38748445735e-05
7.85176885577e-08
4.48687286747e-08
1.46218233437e-07
3.02739671045e-08
2.57085175448e-09
1.91748991154e-06
3.41775540983e-08
2.73967973624e-06
7.31623181501e-08
1.68525651277e-08
2.23151886433e-07
1.31777923318e-07
5.90750975062e-08
1.02904467257e-08
1.0770683958e-05
2.16341523583e-06
2.55880233577e-08
2.97858851353e-06
3.60641667321e-06
1.63431052681e-05
2.79716170405e-06
1.67165491576e-08
6.11362550296e-06
5.74755714503e-06
7.04682561047e-06
3.55712580229e-08
2.17622758968e-05
5.17024393884e-06
8.01135563362e-06
2.17862318405e-07
5.56042035089e-07
2.83605115133e-05
6.22168381655e-06
2.34110563934e-05
3.9101936403e-07
3.21971136057e-05
4.32745820566e-08
2.49172284612e-07
1.05677569222e-05
2.41510145477e-07
2.8964125207e-06
4.26313328766e-06
1.41946067685e-07
1.42341414874e-07
1.37466643284e-07
1.8639515715e-07
1.05436685448e-07
8.43743849297e-08
9.77042368949e-08
1.39623291329e-07
6.9007887562e-08
7.1213548466e-08
6.75436343474e-09
1.4766716747e-07
6.48750692283e-09
8.16448932366e-06
1.06616334258e-07
1.31308616928e-07
1.59336670285e-07
3.91343444377e-07
3.1618131141e-07
1.99809560565e-07
2.87736860931e-07
2.96748527668e-07
3.06820253917e-07
1.78559780308e-07
1.27789427507e-07
3.48747635354e-05
2.76038357933e-06
1.52221862207e-07
1.42469846614e-07
1.10122224422e-07
9.82322531225e-08
1.24438073255e-07
1.55558433642e-07
3.42352103753e-05
2.91919366275e-07
2.14664440841e-05
3.71751117003e-07
2.20892412349e-05
1.67455191501e-05
2.53805081227e-07
7.97630059586e-08
9.51318434948e-08
3.97162561098e-06
1.10727910204e-07
9.20952914112e-08
1.16601512154e-07
1.83349516466e-07
1.10720285156e-07
3.09577749908e-06
7.58028277723e-06
9.92280371839e-06
3.41122181907e-06
4.85009653208e-07
3.74481012863e-06
9.96958605767e-08
7.56649240226e-06
1.95288036336e-05
1.48833712911e-05
5.80670141019e-07
7.25997567613e-06
3.27966431976e-07
6.61248051328e-06
6.46840855479e-06
3.4272685333e-06
2.84271287147e-06
2.05615127055e-06
2.89271403983e-06
1.69680895987e-06
1.8332591702e-06
2.18099175613e-06
2.46179395476e-06
1.5986247459e-06
1.59636608567e-06
1.21894142913e-06
1.86113279095e-06
3.23351911362e-06
3.17629026512e-06
7.26132287538e-07
1.12452635052e-06
2.19919940478e-06
2.38846368054e-06
1.57224041365e-06
2.30285460939e-07
6.40144051105e-06
1.31571100219e-05
1.37744216824e-07
4.19376376091e-06
3.01824225393e-06
2.38360256223e-06
4.85999399946e-06
6.10298424442e-07
7.52411826733e-07
1.4082473895e-07
3.27300099478e-08
3.76679821348e-08
1.11580259107e-07
5.67595477317e-07
6.56432299506e-07
4.47381060656e-07
8.72029076352e-07
4.24984330819e-07
5.7618511562e-07
7.46902671932e-07
7.4513884956e-07
9.05160627337e-07
3.40378950362e-08
1.41451341203e-06
1.65575897019e-06
1.11114155902e-06
2.51570664268e-06
4.47358319066e-06
2.65523165487e-06
9.42593402104e-07
1.61940535947e-06
2.47184687269e-06
1.11054408146e-06
2.11939852988e-06
3.38140740329e-07
4.80652032677e-07
2.24739728415e-07
3.05007084622e-07
1.67386203228e-07
9.40215911751e-08
4.17162302571e-07
4.44438422391e-07
8.44744705877e-07
6.00617956978e-07
1.29981474649e-06
7.57643557674e-07
1.04229998573e-06
1.23979804829e-06
6.18238127679e-07
1.00479060469e-06
9.07148074295e-07
1.87242842996e-06
1.67816348028e-06
1.07201189954e-06
3.50437095813e-07
2.1732936293e-07
3.25050620665e-06
2.70418364265e-07
4.04766962955e-07
1.57136708224e-07
1.99570302115e-07
6.52078437465e-08
3.37904022852e-08
7.45596514841e-08
1.17246322039e-06
2.24385348036e-06
8.00783390053e-07
2.26073509299e-06
2.8198260837e-06
2.82084013579e-06
3.13814137979e-06
1.02865428096e-06
4.60421151409e-08
1.04098181247e-07
2.62308652326e-07
4.02835287025e-07
5.93717429476e-07
4.93509094584e-07
1.12251693702e-06
5.09856267508e-07
6.92348982502e-07
1.14677842075e-06
1.95669321628e-06
1.60271789337e-06
3.5876055914e-07
9.67161982085e-07
4.18883523964e-06
4.91036255391e-06
1.82321807414e-07
2.44089619675e-07
1.4137157536e-07
1.28490709467e-07
4.68073644547e-07
4.45462261063e-07
7.41271113155e-07
5.54905421083e-07
1.81752637161e-08
1.99955873961e-07
7.81272402383e-07
6.93632833686e-06
1.07571227467e-09
1.15210571613e-06
8.62736883626e-07
1.6012529679e-06
8.42636454548e-07
1.20024867027e-06
1.48858419661e-06
1.45421711884e-06
2.1354331353e-06
2.30850943114e-06
2.34077897729e-06
4.23613230162e-06
3.0808467057e-06
4.28414245562e-06
1.34421973275e-06
1.06204537329e-06
9.77362426798e-07
3.34369454145e-07
5.96240344216e-06
3.37751764899e-06
1.22511853034e-06
5.76975157839e-06
1.10670051592e-06
1.66779200261e-06
1.59054207736e-06
1.43554641816e-06
7.32748341943e-07
6.13411397617e-07
1.1136866847e-06
2.47620385682e-08
2.15342557176e-06
1.68731363573e-06
6.82408613792e-07
4.03711789926e-07
3.55068531883e-06
1.05291845382e-06
9.35459411131e-06
1.01925018062e-05
2.92710803751e-06
2.62332075353e-06
2.94383783215e-06
3.33714910682e-06
1.13256493651e-06
6.06952962656e-06
7.26269363094e-06
2.90429833573e-05
2.51831141512e-05
4.88541388271e-05
2.79380812686e-05
6.76238445288e-06
6.7766903269e-06
6.78550015612e-07
8.07191910116e-06
3.96873651409e-07
5.71941340758e-08
9.54549676031e-08
7.47754495663e-08
5.41477792915e-06
1.98835625393e-07
1.28666031775e-07
5.70341761314e-06
4.65530277271e-07
2.7868939684e-07
7.00169507675e-09
6.66299981032e-07
3.26905839546e-07
5.9183814338e-08
1.99772678884e-05
1.35735461753e-05
4.6302193553e-08
4.78868923798e-07
8.65386505243e-06
8.38461051103e-06
1.08934260583e-05
1.05291559641e-05
2.75539743807e-05
7.63202126679e-07
2.72308961721e-07
1.3249444107e-07
3.1422456191e-06
2.77064118191e-06
6.69475222717e-08
2.06560678307e-07
9.26799762309e-08
1.64285059121e-07
6.74877077754e-07
5.71764396781e-07
2.4256839575e-06
1.07507442469e-06
3.02483388312e-07
7.10096511275e-08
6.8553111531e-07
3.11858504953e-06
4.76067613389e-06
1.36954015838e-06
1.81429289258e-06
6.39789902204e-06
1.27582549736e-06
1.82125855143e-06
1.63932719774e-06
1.71751710765e-06
2.59884055592e-06
2.8057157047e-06
5.14531529015e-07
5.68878333627e-07
4.51475644158e-07
7.36981732407e-07
1.27910108236e-06
1.14366699698e-06
1.18562629931e-06
3.27933673168e-07
1.43666935746e-06
2.29678088416e-06
2.99238743138e-06
2.51988960992e-06
2.94184951933e-06
3.48356168566e-06
1.77299124076e-06
2.11061014682e-07
4.08099571549e-06
2.98954787961e-06
5.12110727393e-07
1.60850352639e-07
1.31047083258e-07
6.97979521687e-08
6.359377892e-06
9.20634174306e-06
3.79595603972e-08
1.26662419544e-06
4.86378753094e-07
1.66864650625e-05
1.62803941598e-05
1.13183604819e-05
1.37199566555e-06
2.11151374402e-06
5.6561949986e-06
1.99172992316e-06
9.44420610973e-07
3.21781247988e-07
4.58503007663e-06
1.3816641389e-05
2.88385936181e-06
5.01182311292e-06
6.83561005204e-06
2.96745177617e-06
8.93899835803e-07
3.3449914703e-07
7.16300931182e-07
2.87653234554e-06
3.19922075154e-06
2.05459516823e-06
3.62137027261e-06
2.65076288153e-06
5.83021747765e-06
6.91078856495e-07

