# vtk DataFile Version 3.0
File Name: Molecule/sphere_excent/sphere_excent_0-s48.vtk
ASCII
DATASET UNSTRUCTURED_GRID
FIELD FieldData 1
TIME 1 1 double
0.0
POINTS 816 double
-0.53982162476 0.80827331543 -0.23490235209
-0.68296390772 0.7181596756 -0.13326838613
-0.56238949299 0.82528358698 -0.050948601216
0.36825665832 0.87395435572 -0.31349897385
0.43697699904 0.88660293818 -0.15173828602
0.54500716925 0.79038232565 -0.27961182594
-0.029553633183 0.38202014565 0.92367249727
0.17286083102 0.39042028785 0.90348011255
0.033621236682 0.54621642828 0.83695995808
0.2165325731 0.5899156332 0.77783244848
0.41415712237 0.54931163788 0.72474318743
0.35019090772 0.42042276263 0.83700460196
0.51448762417 0.34415340424 0.78520554304
0.39843192697 0.21139468253 0.8916913867
0.38911095262 -0.46064779162 -0.79774385691
0.51569193602 -0.51806020737 -0.68198865652
0.36783832312 -0.5948446393 -0.71473503113
0.86393970251 0.086927726865 -0.49602454901
0.7917329073 0.18010753393 -0.58298105001
0.84224849939 0.24479725957 -0.48031172156
0.88260883093 -0.071554750204 -0.46467873454
0.81966328621 0.0025379853323 -0.57225835323
-0.25775709748 -0.87896573544 -0.4011348784
-0.14639985561 -0.87802821398 -0.45561560988
-0.17580908537 -0.92659628391 -0.3320146203
0.29928478599 -0.70268934965 -0.64548933506
0.17080193758 -0.74292176962 -0.64719569683
0.2222648859 -0.64573007822 -0.7304803133
-0.4156794548 0.15618814528 -0.89598476887
-0.50943821669 0.1087417379 -0.85358005762
-0.50237613916 0.19400815666 -0.84260499477
0.54842168093 -0.08729314059 0.830488801
0.53547263145 -0.35414364934 0.76651710272
0.68104928732 -0.23380413651 0.693544209
0.91512298584 0.14121212065 0.37756758928
0.88677877188 0.027879811823 0.4612583518
0.95202291012 0.034982189536 0.30390232801
0.37959608436 -0.43796816468 0.81462734938
0.39017224312 -0.24399702251 0.88635522127
0.51009261608 -0.57589870691 0.63865023851
0.62169378996 0.4524012804 0.63898205757
0.73846083879 0.27969792485 0.61306637526
0.11345032603 -0.23547193408 -0.96522676945
0.11197985709 -0.37446007133 -0.92040419579
0.012017121539 -0.2981274724 -0.95441949368
-0.18814577162 -0.37761718035 -0.90664619207
-0.12898167968 -0.44777917862 -0.88477832079
-0.21359308064 -0.44472897053 -0.8698220253
-0.19907014072 -0.51086080074 -0.83626997471
-0.12436561286 -0.61574029922 -0.77807885408
-0.19853980839 -0.5804130435 -0.78974735737
-0.095123305917 -0.54244560003 -0.83466511965
0.034403167665 -0.51936221123 -0.85384094715
0.0086991274729 -0.58873182535 -0.80829226971
0.12540557981 -0.58753287792 -0.79943042994
0.92704451084 0.0058371149935 -0.37497794628
0.83589339256 0.48544856906 0.25605431199
0.87922048569 0.46151286364 0.11788262427
0.80364459753 0.58307820559 0.1191752255
0.88793081045 0.34294077754 -0.3065649271
0.89606511593 0.37779775262 -0.23306883872
0.92648845911 0.29823091626 -0.22951324284
0.85015159845 0.43071106076 -0.30285668373
0.88513439894 0.28513935208 -0.36770522594
0.84290957451 0.36316853762 -0.39704933763
0.88933724165 0.15992172062 -0.42831432819
-0.33632746339 -0.35552570224 -0.87202781439
-0.26282888651 -0.30982130766 -0.91374802589
-0.27580723166 -0.40430051088 -0.87202095985
-0.38193368912 -0.26364684105 -0.88576471806
-0.0047523668036 -0.37943837047 -0.92513817549
-0.4638030827 0.62522131205 -0.62769979239
-0.35693573952 0.66482669115 -0.65620046854
-0.38585799932 0.58139979839 -0.71629863977
-0.27103456855 0.61550313234 -0.74006253481
-0.25826114416 0.69928139448 -0.66655707359
-0.49434939027 -0.30711773038 -0.81317198277
-0.58586484194 -0.23131361604 -0.77668464184
-0.47232341766 -0.17358197272 -0.86415851116
-0.59871739149 0.041009970009 -0.79987299442
-0.70143657923 -0.040501322597 -0.71155375242
-0.67933964729 0.093242622912 -0.72788190842
-0.7666451335 0.052179075778 -0.6399397254
-0.7935141921 -0.1024305746 -0.59984731674
-0.58877325058 0.14125618339 -0.79583901167
-0.15568765998 -0.12927222252 -0.97930681705
-0.11330426484 -0.043366447091 -0.99260771275
-0.042768720537 -0.11220026016 -0.9927585125
0.0093799959868 -0.013661528938 -0.9998666048
-0.28321367502 -0.2192017436 -0.93363118172
-0.35421511531 -0.16514706612 -0.9204428792
-0.18537260592 -0.21943458915 -0.95785099268
-0.25013437867 -0.14519374073 -0.95724153519
-0.20087964833 0.55342888832 -0.80831158161
-0.31086647511 0.51929050684 -0.79605430365
-0.28214654326 0.41115137935 -0.86679005623
-0.36758881807 0.43387243152 -0.82258409262
-0.072181791067 0.55779057741 -0.8268315196
-0.14796507359 0.61927199364 -0.7711070776
-0.33423709869 0.078938700259 -0.93917769194
-0.24812908471 0.15712946653 -0.95588135719
-0.23594003916 0.06809642911 -0.96935909986
-0.43855878711 0.065292388201 -0.8963419199
-0.39696106315 -0.59042370319 0.7026925683
-0.309107095 -0.4849562645 0.81807523966
-0.47878316045 -0.42290014029 0.76931142807
-0.59049981833 -0.47205975652 0.65451389551
-0.43375203013 -0.12206237018 0.89266473055
-0.25233396888 -0.16448046267 0.95352876186
-0.32859537005 -0.01160468068 0.94438922405
0.095044575632 0.015652980655 0.99485516548
0.036949265748 -0.13013647497 0.99080353975
0.16463291645 -0.10876303911 0.9803404212
0.1236191839 -0.26228937507 0.95702701807
-0.015466292389 -0.24638035893 0.96903800964
0.25596117973 -0.19090527296 0.94763368368
-0.0025657217484 -0.38934290409 0.92106056213
0.13996365666 -0.40760186315 0.90237849951
0.083707660437 -0.55759173632 0.82581335306
0.26008060575 -0.33475580812 0.90571433306
-0.13077862561 -0.29744827747 0.94569814205
-0.13295523822 -0.48851457238 0.8623713851
-0.25934824347 -0.351056844 0.89971959591
-0.21233808994 -0.61575758457 0.75874149799
-0.22503893077 0.38969236612 0.89299893379
-0.16040165722 0.25795915723 0.95275861025
-0.48961046338 0.026919761673 0.87155735493
-0.4827478826 0.20878368616 0.85044157505
-0.3708089292 0.12507016957 0.92022794485
-0.60447603464 0.10003529489 0.79032480717
-0.32184806466 0.26249593496 0.90965616703
-0.42941045761 0.39660578966 0.81133717299
-0.23114727437 0.1225271523 0.9651914835
-0.075402751565 0.10707020015 0.99139297009
-0.17876505852 -0.018971096724 0.98370027542
-0.04335039854 -0.030434662476 0.99860161543
0.31020027399 -0.022987080738 0.95029854774
-0.10507183522 -0.14765036106 0.98343002796
-0.6145760417 0.29292780161 0.73226851225
-0.62350159883 -0.11357254535 0.77349680662
0.23810885847 -0.48765638471 0.8399232626
0.31569328904 -0.63608568907 0.70382851362
0.42233353853 0.067323632538 -0.9039311409
0.52433907986 0.10615707189 -0.84489101171
0.5131431818 -0.0338909477 -0.85758841038
0.14219988883 -0.48698744178 -0.86174577475
0.25776821375 -0.53956341743 -0.80151295662
0.24678801 -0.42587795854 -0.87046819925
0.61719298363 0.10188377649 -0.77997118235
0.59086793661 0.20459721982 -0.78040790558
0.68731051683 0.15657739341 -0.70918911695
-0.12190824747 -0.74942612648 -0.65076947212
-0.13187177479 -0.68311524391 -0.71830052137
-0.053700126708 -0.69927567244 -0.71277308464
0.032233480364 -0.44473007321 -0.89491230249
0.11052659899 -0.68238949776 -0.72253191471
-0.017103780061 -0.79681140184 -0.60391306877
-0.15125726163 -0.8125436306 -0.56294751167
0.3680998981 0.49399727583 -0.78768825531
0.37270975113 0.36542883515 -0.85294026136
0.29611241817 0.43969643116 -0.84791910648
0.26902586222 0.32978034019 -0.90491020679
-0.23898626864 -0.76281523705 -0.60082793236
-0.21061396599 -0.69920700788 -0.68318766356
-0.30232015252 -0.69335454702 -0.65410238504
-0.35250258446 -0.75283432007 -0.55586278439
-0.26610442996 -0.63096868992 -0.72871893644
-0.3947147131 -0.67304545641 -0.62546145916
-0.35847890377 -0.6130617857 -0.70403730869
-0.47315606475 -0.59394907951 -0.65068310499
-0.47689595819 -0.68972349167 -0.5448499918
-0.28868836164 -0.55839145184 -0.77771812677
-0.38149520755 -0.52074068785 -0.76372104883
-0.25385934114 -0.82682687044 -0.50178623199
-0.18732242286 -0.6419262886 -0.74352115393
-0.62010067701 0.57876378298 0.52947360277
-0.56297266483 0.47476097941 0.67639708519
-0.46603885293 0.6767539382 0.56863605976
-0.39879527688 0.62370157242 0.67119175196
-0.58544993401 0.57889378071 -0.56699329615
-0.51364314556 0.66260540485 -0.54508304596
-0.43258652091 0.24365977943 -0.86804044247
-0.50949501991 0.2721426785 -0.81628131866
-0.57366400957 0.22678859532 -0.78706753254
-0.59717321396 0.30740526319 -0.74086171389
0.78007251024 0.085444822907 0.61979657412
0.68756312132 -0.028619512916 0.72555321455
0.77324676514 -0.11885336041 0.62266147137
0.64238983393 0.16664145887 0.74757134914
-0.90163481236 0.11619532853 0.41631445289
-0.7764595747 0.23113535345 0.58559674025
-0.8744572401 0.28699737787 0.3905428946
-0.74260640144 0.40339043736 0.53439235687
-0.63077270985 0.38353446126 -0.67455232143
-0.69197130203 0.28701817989 -0.66241031885
-0.65168446302 0.20704914629 -0.72969508171
-0.41692310572 0.49711355567 -0.7609513998
-0.49422076344 0.54197990894 -0.67967146635
-0.50594437122 0.46744048595 -0.72491651773
-0.58215814829 0.47531044483 -0.65965378284
-0.46291652322 0.42369925976 -0.7785717845
-0.42403525114 0.37497720122 -0.82437324524
-0.5059196353 0.35115075111 -0.78785675764
-0.55604624748 0.39859244227 -0.72933799028
-0.44686880708 0.31227648258 -0.83833616972
-0.65846586227 0.4507907331 -0.60216391087
-0.3551042676 0.33076307178 -0.87435537577
-0.92909473181 -0.36030629277 -0.082974568009
-0.89017522335 -0.44286838174 0.10696118325
-0.96445423365 -0.23143707216 0.12751348317
0.70600485802 0.34758582711 -0.61703795195
0.63953542709 0.42591434717 -0.6399859786
0.71075350046 0.42616555095 -0.55963170528
0.1419596225 0.38994085789 -0.9098263979
0.17719715834 0.30415889621 -0.93598866463
0.22645832598 0.20236001909 -0.95276111364
0.33877295256 0.21829736233 -0.91518217325
0.2451082319 -0.013706787489 -0.96941059828
0.30569189787 0.091817349195 -0.94768285751
0.38698685169 -0.058255836368 -0.92021197081
0.43730515242 0.1707881242 -0.88276767731
-0.14323994517 0.63809663057 0.75635325909
0.034458346665 0.71839129925 0.69477844238
-0.16114474833 0.76575857401 0.62118047476
0.01477536466 0.85828590393 0.5110669136
[...]
CELL_DATA 1628
SCALARS cell_data_0 double
LOOKUP_TABLE default
9.03154175647e-07
5.61214248993e-07
2.16677436556e-05
1.13082977635e-05
7.6071665819e-06
1.93344624231e-05
5.35843295433e-07
7.05884246973e-06
5.75227812915e-06
2.38640814192e-06
7.55199286436e-06
9.81006008115e-08
8.99968723566e-06
1.52121458799e-06
6.94529482794e-06
8.65088389124e-06
8.26039743469e-06
1.44917866303e-05
4.49414838325e-06
1.89110689688e-07
7.34605683115e-06
1.03253604134e-05
3.20709396307e-06
1.64500712113e-07
1.06674715656e-06
1.35327013557e-07
1.40678188887e-07
7.53605631036e-08
4.73366180488e-08
1.82558075861e-06
2.40193028865e-06
8.02130288727e-06
3.13588747544e-08
9.22580481964e-06
7.9891287951e-06
1.10606245118e-05
3.43934281797e-08
5.98819386889e-06
3.11694464186e-06
1.13141443467e-06
5.28057166612e-07
3.08484753762e-06
7.46595139122e-06
9.5883354161e-06
4.91539833805e-06
3.59972345379e-06
4.91966115846e-07
1.50638396816e-07
1.03824527873e-05
4.19831221929e-07
2.23054970082e-06
6.34361682821e-08
8.18298326628e-06
7.5226722397e-06
1.11778318485e-05
1.51240574722e-05
1.6218549233e-05
1.21901679701e-05
1.36068275325e-05
1.5088889774e-05
1.39300127239e-05
1.26239054099e-05
9.60768514082e-06
1.16547489369e-05
1.51568261037e-05
6.93722151632e-06
1.66879773541e-05
8.69409987703e-06
1.01190146807e-05
7.49344106215e-06
1.93450196882e-05
5.74702928699e-06
1.25159636753e-05
1.37526562732e-05
4.91763939518e-06
1.22206758134e-05
6.60745215626e-06
5.76002647229e-06
6.62529295299e-06
1.40987582821e-05
2.03194962566e-05
2.08401081175e-05
1.65287761989e-05
1.44586724529e-05
1.83212718611e-05
1.92934856934e-05
2.10777047846e-05
1.72974009028e-05
1.03230500441e-05
8.63407162459e-06
1.428522784e-05
8.41964580858e-06
4.50479615037e-06
1.05135591795e-05
1.76966844872e-05
1.09019214325e-05
5.89452440539e-06
6.79897406837e-06
7.2850760824e-06
6.45569839694e-06
4.74707877418e-06
6.1111963222e-06
5.72641126027e-06
6.30215631085e-06
4.62569286081e-06
4.20360016704e-06
4.74759728202e-06
9.14721453108e-06
1.22708833433e-05
5.30935022178e-08
1.28587248282e-07
7.97154379032e-06
9.81435681777e-08
8.53252534446e-06
8.460288838e-06
1.48269454839e-08
1.42327125375e-08
8.69264441426e-06
1.11332771017e-08
5.01659747514e-06
7.2588232993e-06
1.86272488156e-09
1.32589253722e-05
1.25966231812e-05
1.12580094731e-05
1.42537137511e-06
1.17411653411e-06
5.12924991037e-08
2.30265995226e-09
5.49972332053e-08
1.34551472806e-08
2.30929772901e-08
7.88176089857e-08
2.87663787689e-08
3.5442203756e-08
1.22458183391e-07
2.12837589764e-07
4.97351195366e-06
2.46362113664e-06
3.15408934407e-08
6.07739419364e-08
7.9683361758e-08
2.72136941875e-08
1.93140232537e-08
4.81944228251e-09
1.4245487069e-06
1.46397443055e-06
2.75236549142e-08
5.32565631147e-06
7.00877729459e-06
5.99314857846e-07
5.47826457168e-07
5.29134235121e-08
1.49994181559e-06
1.22200723714e-07
6.73822214621e-08
9.68191430548e-08
4.24175171175e-06
5.31278176309e-06
3.96960936549e-06
7.08360175986e-06
7.18120714367e-06
7.16775982975e-06
3.96707145714e-06
5.58056002425e-06
6.67109920151e-06
6.47564886476e-06
4.56922566322e-06
4.36502363394e-08
1.665316043e-06
2.26268952958e-08
4.75970670787e-08
7.35626266477e-08
2.91060524822e-07
2.0147708185e-07
1.71520735546e-07
2.53816283515e-07
4.75689730931e-07
1.90815703701e-07
2.22277610195e-07
3.08463759641e-07
1.89079100774e-07
1.08920723498e-07
1.64977623446e-07
1.99855471801e-07
1.10988623052e-07
7.03549733057e-08
1.58797071591e-07
2.26885768984e-07
1.37641214437e-06
1.89825514161e-07
8.46134451475e-08
1.74342943222e-07
5.1632072251e-08
1.28613898699e-07
1.59798076572e-06
7.37715846801e-08
1.19949815045e-07
1.36619697078e-07
8.44821947809e-06
8.22509636058e-07
1.9124298109e-08
5.7054844053e-07
1.03544377587e-06
1.42641570456e-06
2.92523660503e-06
2.97771328901e-06
1.27343112642e-05
7.10505208677e-06
9.81146921335e-06
6.92124519682e-06
6.83224058196e-06
1.00461305568e-05
1.08245379694e-05
8.07606387566e-08
7.65794526078e-06
7.08810900779e-06
7.56426278983e-06
8.70572506275e-06
9.02344866917e-06
1.28195252652e-05
1.36916903454e-05
7.18878938003e-06
1.56784817613e-05
5.94954394343e-06
8.27144766981e-07
2.75091081831e-07
1.40004251596e-05
8.04711870145e-06
1.21367422872e-07
4.00524743346e-07
5.14441499867e-07
3.63921358266e-07
1.25335837442e-07
3.46121014023e-07
7.58805720494e-06
9.65482492474e-07
1.0874365858e-06
2.06810357693e-07
1.4627227577e-06
2.63937035704e-06
1.66498716534e-06
2.47624396945e-06
1.82499346402e-06
3.29171958677e-07
3.25308335003e-07
2.53621863562e-07
5.17099068868e-07
3.90815451278e-07
3.92103501878e-07
4.46751455868e-07
3.14937392841e-07
1.57586834583e-07
3.7498201517e-07
3.91974193497e-07
1.59440492604e-07
1.14338571169e-06
2.24214564643e-07
3.51657755813e-07
3.88956497355e-07
2.30328699231e-07
3.19682315182e-07
1.02728710732e-07
1.13308458237e-07
1.38388711272e-05
2.23465990911e-06
2.03864300156e-06
1.4738512439e-06
2.86292303048e-06
3.01521549889e-06
2.6746666316e-06
1.42022492528e-06
4.17574877603e-06
5.29795909281e-06
1.0981318857e-05
6.56104885991e-07
1.41973408554e-06
1.31672186946e-05
1.02482347616e-06
9.685264711e-07
1.82909995878e-06
8.20484052126e-06
1.48414317748e-06
3.49298418868e-08
8.01329469042e-08
1.63519317565e-09
3.56785101518e-08
7.00594150753e-08
6.47203502883e-08
1.66307897993e-07
8.95983672316e-08
1.20494449657e-07
1.4350430955e-07
1.77287692881e-07
2.42910904479e-07
1.32034168451e-07
2.48755688044e-06
2.99642858345e-06
9.07438571455e-07
1.2071392141e-06
4.34849825435e-06
2.18549579437e-07
2.52488678787e-07
2.72660195946e-07
3.04319092136e-07
2.62233175703e-07
2.33210212411e-07
2.38701207345e-07
1.15531314327e-06
2.3941541576e-07
4.25121177235e-08
1.88288323546e-07
1.88538938087e-07
1.18602686901e-07
1.08635937481e-07
1.03121812406e-06
1.15533987433e-06
1.59065227525e-06
1.18085298435e-06
3.51990865886e-07
6.39204932744e-07
1.95528478718e-07
1.30205419972e-07
3.30081424101e-07
6.349175601e-07
3.41590273136e-07
7.58784192787e-07
1.19822959693e-05
1.57283346798e-07
1.1791508926e-05
6.74010706059e-07
1.7354767719e-06
1.28488897186e-06
5.47487092056e-07
1.8542535677e-07
1.62540740007e-07
2.3794584528e-07
1.49385551919e-06
1.34764452489e-06
2.63943172859e-06
1.13370980752e-06
4.28786803893e-07
7.96365009582e-07
1.99107879757e-06
1.67296193461e-06
8.26122177666e-06
1.18606123326e-06
3.48854523785e-06
2.74895033414e-06
2.84693965664e-05
4.72235188351e-06
1.4572076042e-07
1.02047240113e-07
1.09161686618e-05
8.38945496107e-06
4.68787542584e-07
3.99407433825e-07
4.95975320737e-07
3.79472707515e-07
4.55742425568e-07
2.83903833341e-07
5.42802255487e-07
7.80344925051e-07
3.81589980512e-06
6.35589819335e-07
5.23448436309e-07
9.22405822245e-07
5.10348358786e-07
4.10848056023e-07
9.92085227102e-07
8.47893281775e-07
1.09467374809e-06
6.34734226272e-07
2.13103642927e-06
2.4206367709e-06
1.54428008589e-06
3.91519613256e-06
2.34883809973e-06
2.96568331461e-06
3.69574113756e-06
1.3094372263e-06
2.48596487478e-06
1.34972905796e-07
3.14078790203e-08
5.0456212384e-07
4.40603544961e-06
2.85297829604e-07
3.75669748648e-07
3.7814514978e-07
2.75085253324e-07
3.4902161395e-06
1.27240371942e-05
3.54691531651e-05
2.39167431344e-05
1.69268670446e-05
1.50033243033e-05
2.13653432582e-05
3.16950554903e-07
1.57349278619e-07
7.38822268583e-06
2.29072321038e-07
5.19455456999e-06
5.945171769e-06
2.7059012496e-07
7.64812609751e-06
6.00987241057e-07
4.05256371629e-07
3.42889313747e-07
6.02133185229e-08
6.39180414773e-07
1.03348664616e-06
2.70999517008e-08
3.70395510427e-06
3.36581958221e-06
7.94527189815e-07
5.28736522528e-09
9.24323440352e-09
3.41957031252e-08
7.54539673652e-07
1.13678273283e-06
1.38413258394e-06
1.88266816235e-06
1.50081939005e-06
1.94932466192e-06
1.96082049856e-06
1.76781049347e-06
3.05512436609e-06
1.24304388527e-06
4.2012620226e-07
6.59489500397e-07
2.73784776789e-06
6.77660077814e-07
1.23627559625e-06
7.6550529421e-07
7.12608836216e-07
9.5902617716e-07
2.08562379144e-06
1.04604666503e-06
1.27804422741e-06
5.56303604797e-07
2.88235286523e-07
7.92153528581e-06
5.35409823716e-06
7.70483531055e-06
5.17495173196e-06
4.89364506055e-06
4.24243386746e-06
4.94876072829e-06
2.39958886715e-06
1.1827468101e-05
1.62862626931e-06
1.54317596157e-05
2.22658827173e-07
9.3696893199e-06
1.4999337295e-05
3.61508803548e-06
1.38127072319e-05
1.55189239456e-06
2.28447007791e-06
1.30762244594e-06
5.39541745013e-06
1.28981975761e-06
2.05239177574e-06
2.82858580553e-06
9.92563109282e-07
2.12569975797e-06
1.64118262086e-06
2.41821851379e-06
7.27460274437e-06
6.75042128197e-06
8.26620407899e-06
8.95362264605e-06
1.31307900594e-05
1.29117598743e-05
3.42473690984e-06
1.12111237318e-05
1.46845379508e-05
1.59260056867e-06
1.09467771518e-06
4.88476923027e-07
5.96478918305e-07
2.65682286217e-07
1.76220402579e-07
5.13143255157e-07
1.37351686088e-05
4.06904059539e-06
2.45359293645e-06
1.05232334921e-06
2.0745661995e-07
3.41600852869e-07
4.77640601084e-07
8.0842219704e-07
1.3857003847e-07
1.04391530692e-06
2.15958269159e-07
1.98347174578e-07
8.46102739173e-07
8.71385798651e-07
9.61127370007e-07
2.44585499046e-07
7.25499474615e-07
3.68990669294e-07
9.33049995821e-07
3.18526597318e-06
5.33376986025e-08
6.16681748241e-06
6.65090407238e-07
9.06315829806e-06
1.53971661334e-06
2.92375747471e-06
3.27781689412e-06
2.52776179183e-06
5.30823347179e-06
3.6370023157e-06
3.22271585323e-06
3.81668928396e-07
4.58420881943e-07
6.79369737742e-09
9.37810930653e-08
5.27756872572e-07
1.65255982229e-07
2.67109153113e-06
4.15615885091e-05
2.58401688256e-05
4.13613484937e-05
3.35664198095e-05
2.71748124241e-05
1.17291475128e-05
1.0871161021e-05
7.48830192801e-06
4.93663825034e-06
2.39456012597e-07
6.72689229659e-06
1.09002042549e-05
9.04026902389e-06
1.07134560984e-07
5.91732011287e-07
3.41212555342e-06
2.41327931403e-06
2.4150944756e-06
4.84973037694e-06
3.549201758e-07
1.73747521601e-06
6.97477759287e-06
1.50389051533e-05
3.26306757393e-06
1.50591883766e-05
1.43949470711e-05
2.06404260883e-05
1.85353839696e-05
4.55127431082e-06
3.25838916731e-07
2.17785626809e-06
3.10006896595e-06
1.58745704088e-06
1.5995554783e-06
9.98279928974e-07
1.45958522983e-05
9.881699589e-07
1.55279232095e-06
1.02507358079e-06
3.02564998005e-06
2.12935885746e-06
5.6249659554e-07
1.87598966589e-07
7.24883095906e-07
5.25178685695e-07
4.82395071361e-07
9.78673379262e-06
1.42319177832e-05
1.33458929366e-08
7.53694926128e-07
8.91367362912e-07
5.72171454628e-06
5.34708210505e-06
5.74574949738e-06
5.24465349578e-06
4.65188882596e-06
5.04129254238e-06
5.47388676446e-06
3.64029254031e-06
1.04162048934e-06
2.01854052069e-06
2.29399157685e-06
1.70325519707e-06
6.34603815219e-06
7.49697961345e-06
1.64928498118e-05
1.65619097655e-05
1.71310088209e-08
4.1431867584e-08
1.37879949298e-06
5.78686920445e-08
1.30709665564e-07
1.93411466286e-07
1.67743844811e-07
1.71294312934e-08
2.433443265e-07
5.19870587961e-06
2.75176579381e-06
8.08517247035e-08
6.22467829162e-06
2.44739264277e-06
1.7054069696e-06
9.3269562357e-07
5.28616224197e-06
1.75975388186e-05
9.13446782725e-07
1.40940822505e-06
1.08689011593e-06
7.14385588469e-07
1.35313567918e-06
9.08684879306e-07
8.71343983419e-07
1.78951095555e-06
8.81630288879e-07
1.05424416385e-06
1.15575352684e-06
1.16399876973e-06
2.02851274927e-06
3.935057794e-09
7.51456042116e-07
8.92850611985e-07
1.0144895009e-06
1.98683203344e-06
3.03835357425e-08
1.6650137528e-08
4.51964831487e-08
2.77419224885e-07
3.03185316977e-08
1.81559973844e-09
2.00385453601e-08
2.44280833694e-07
2.24227600803e-06
1.97083912078e-06
1.94372893999e-08
7.66957969079e-09
1.3292383475e-08
2.04590313232e-09
1.36694997546e-06
1.2575462792e-06
3.27317347367e-10
5.4015171941e-09
1.09980857936e-08
1.8721247627e-06
1.58653520232e-06
1.04785852567e-07
1.64898348056e-07
1.46475064135e-07
1.41768591043e-07
2.36121639064e-07
1.40532854235e-06
7.63687585426e-07
8.1265855176e-06
6.13653136167e-07
8.36739702845e-07
1.16551596377e-06
1.13581667396e-06
4.73013072277e-07
9.44755177678e-07
1.88145814477e-06
1.00446103937e-06
2.42245234111e-06
7.74490853889e-07
7.27129215959e-07
4.94131416355e-07
1.58599133353e-06
1.46586971044e-08
2.11592776462e-06
3.04773616434e-06
9.16075814908e-08
1.01516225405e-06
9.19597979743e-07
1.4707920528e-06
2.01613488688e-06
2.54087209479e-07
1.05274320986e-06
6.35170118221e-06
6.46342696477e-06
4.24592736997e-06
4.78839290148e-06
1.26520582723e-06
1.026082398e-06
1.90601325659e-08
2.41312707883e-08
2.57181181094e-08
2.94047310109e-08
2.43563950053e-08
2.59575375372e-08
2.51765358665e-08
1.1485310107e-07
5.41976408891e-06
1.74259654671e-06
1.59058144724e-06
2.03369247836e-06
2.66348803293e-06
1.15925189647e-07
2.46044482568e-07
1.98562483581e-07
1.12321220407e-07
6.09796637686e-06
5.92505600231e-06
5.91486684831e-06
5.85386751592e-06
2.22014359761e-07
5.80400131822e-07
6.79832481008e-07
4.13206004321e-07
6.62722205212e-06
9.23666417046e-06
6.21830333512e-06
5.3591851211e-06
1.57277824172e-07
1.62116845381e-06
3.18790671129e-06
4.40516518387e-06
4.820629107e-06
5.45574932982e-06
8.76099343984e-07
9.52809357808e-07
1.60523988376e-07
2.14925448615e-07
4.69005536853e-06
2.55697738009e-06
4.26255009878e-07
3.28184518212e-07
1.62115162939e-06
2.22704338694e-07
2.71705511396e-07
3.10017478268e-06
1.02022197543e-06
7.11127885502e-07
1.26387710846e-06
5.91143186595e-07
9.42231816477e-08
3.20539964813e-06
1.40004300178e-06
3.38463600683e-06
2.42453387751e-06
1.06430682821e-06
1.90233269337e-06
9.93311673043e-07
7.33154707434e-07
8.16605474565e-07
6.31781451626e-08
3.80799802017e-06
3.48733767242e-06
3.24146169587e-07
1.32858806589e-07
3.00604455859e-08
2.67327984465e-06
2.63909873986e-06
3.26442176809e-07
1.87076285302e-07
2.38555768318e-06
2.28455121061e-07
8.72678931769e-08
6.98330761334e-08
1.01733683886e-07
8.77148588769e-08
6.6257067733e-06
7.47106728689e-08
8.00313664103e-08
2.04774556559e-08
7.18062207663e-09
8.80633373261e-09
6.38468940218e-07
6.2925806227e-09
5.33709296198e-09
3.29572934874e-07
7.08464425346e-07
5.54001778549e-08
1.05970285888e-06
2.15997743058e-07
4.49582650954e-09
7.71555427069e-06
8.30020749216e-06
7.05568484837e-08
3.99334438256e-08
4.57747192719e-08
1.81021930203e-08
1.87276909313e-08
1.96508453502e-08
1.81118308413e-08
1.92325460223e-06
9.61081904195e-09
9.78259359565e-09
1.47346528526e-08
1.13205746163e-09
3.07533840794e-09
2.53639393502e-09
5.11251916788e-09
1.85461152832e-09
2.42305253299e-08
8.97934998965e-07
9.53412484214e-07
5.58142829865e-07
1.09840064697e-07
7.04596640256e-07
9.8194780289e-07
1.37758717696e-06
9.54580839407e-07
6.48384083512e-08
5.90902982935e-07
5.90268535226e-07
6.5566730034e-07
4.54228375941e-07
4.28592893544e-07
2.15500716689e-07
2.27034241627e-07
1.26834991984e-07
1.77729145218e-07
1.35236831118e-06
1.47086291309e-06
2.26207352279e-07
2.91595088613e-07
1.61065151684e-07
3.3370745021e-07
1.04870011714e-07
1.12312071696e-07
1.25628712543e-07
5.11967566931e-08
2.54839980562e-08
4.54629369148e-08
3.9566881015e-07
1.50466382931e-06
6.62549409532e-07
3.88364022622e-06
4.24893481352e-07
2.52673490419e-06
2.36875822613e-06
3.2551311446e-06
2.58147830399e-07
1.88403177108e-06
2.1874407335e-06
2.92045356918e-06
1.88857778932e-07
6.38135903593e-06
2.21782247608e-06
1.80643645648e-06
6.2655323215e-08
1.34945806515e-06
1.15857605017e-07
6.87941924223e-07
3.34542799158e-07
7.31897498162e-07
1.15903160443e-06
4.79614770944e-07
9.79184630535e-07
1.9370137534e-06
6.43097807568e-07
6.21902798716e-07
1.12093234906e-05
2.76629807469e-08
1.14157078711e-08
6.7508340443e-09
4.89757782027e-08
1.62420245833e-06
6.5400393902e-08
6.08054766466e-06
3.51913008703e-06
6.49448082473e-06
4.23469412971e-06
4.50150126717e-06
7.85287767942e-07
3.44530586733e-07
6.89691830806e-07
2.1177410562e-06
6.27587117599e-07
4.07697602618e-07
3.66216494369e-06
5.15109903698e-06
7.64593380945e-06
1.28613877975e-06
1.90485179102e-06
9.07767121813e-07
2.94419781105e-07
3.54580058997e-08
1.10212912126e-06
1.17625159413e-05
8.67930167873e-06
6.73751869622e-07
8.22100864857e-07
1.04266199468e-06
5.00714412286e-07
6.53447379387e-07
7.50727558322e-07
1.21743157862e-07
2.90321695975e-06
8.55890656321e-06
3.71777145119e-07
1.59181932713e-06
8.47487245443e-08
2.2627270381e-06
1.27369815669e-05
1.5876304713e-06
4.34747156399e-07
2.16862917404e-06
1.13289972099e-06
1.97111577925e-06
7.36139251851e-07
6.32449336967e-06
2.44111885807e-06
2.96191788887e-06
3.70302193645e-06
5.08000514324e-06
9.96200712144e-06
7.10160758316e-06
1.26987555967e-06
7.99856853688e-06
7.39361848366e-06
3.25385330395e-08
3.61467295629e-08
4.62322893059e-08
2.95055586127e-08
3.94084157337e-08
3.88221453244e-08
4.89877187029e-06
4.46406752892e-08
1.48650825434e-08
1.42235943218e-08
3.09895244844e-08
5.87602788696e-06
7.26539043135e-06
3.55571006261e-07
6.5644066136e-06
1.50772386532e-08
3.0606968181e-08
4.05923615741e-08
3.66271864535e-08
4.71400549652e-08
5.40738776382e-08
8.20947194619e-08
1.01270965084e-07
1.0277866555e-07
8.38939591323e-08
1.02829959109e-07
5.46273095347e-06
5.96628588521e-09
7.34951033173e-09
1.84345757558e-08
1.86976237072e-08
2.64977766143e-09
4.47373488869e-09
1.49631270203e-08
3.57973856575e-06
5.08090516673e-06
1.66014238424e-06
1.87910746012e-06
2.38832167685e-06
2.52964782039e-06
1.6818243263e-06
3.34476081813e-06
2.73655795639e-06
2.80304970411e-06
7.59436386287e-08
7.9345143303e-09
9.13666170446e-08
2.31558750284e-08
5.21242164345e-08
3.93350819693e-09
6.97677153921e-06
3.93991238124e-08
2.80118021194e-08
9.31135002597e-06
2.95047066498e-07
1.39782186083e-06
1.56080578129e-06
1.15693145391e-07
1.29140843775e-07
9.6120982401e-08
5.77602889473e-07
1.96750981054e-07
6.16396386126e-07
9.90778358185e-07
1.73823965746e-06
8.66905537415e-07
5.82872860767e-07
5.00287428707e-07
4.14557651782e-07
3.62873258124e-06
4.75636257026e-06
1.67801023614e-07
2.17607064461e-07
4.5823228283e-07
5.30215736952e-07
7.39990200465e-07
9.92702847231e-08
3.57370818229e-08
3.65016648896e-07
9.3212346096e-07
3.86839613734e-07
5.56275937202e-07
3.27307518501e-06
2.82024796863e-06
1.54118353684e-07
2.77127766388e-07
3.01697773506e-07
1.12636226377e-07
9.60142783789e-06
6.57466444384e-08
3.9980583254e-07
3.77254222401e-06
3.81068473392e-06
2.78258221239e-07
2.64727191824e-06
2.01947177197e-07
3.72201125615e-06
2.5782798525e-06
4.62704495876e-07
4.98696120771e-06
4.00537761139e-06
4.06577300451e-07
4.90955369604e-07
2.7223926065e-06
3.17258286035e-06
4.8754635457e-07
4.53496289427e-07
6.66720476871e-07
1.6118495715e-07
6.1020896483e-08
2.44719027312e-07
2.57747017326e-06
4.70465307792e-07
5.42272711475e-07
6.28148054172e-08
2.17225216566e-07
5.97952254732e-08
6.81777426487e-08
2.64665376144e-06
4.55577362021e-06
9.99369338501e-08
5.55049545051e-06
1.20097236145e-06
2.97904668016e-06
4.8454900453e-07
4.71014327513e-07
7.1126937707e-07
4.94279746567e-07
7.65445630033e-07
9.27537341349e-07
9.80864980558e-07
7.98322985143e-07
6.41442527438e-07
1.28793280308e-06
2.9991353274e-07
3.59961820069e-07
8.80941768232e-07
9.67253765217e-07
6.98755459238e-07
7.78622903278e-07
6.15980674571e-07
5.28496599251e-07
6.49051431998e-07
7.74784108493e-07
1.06136646681e-06
8.43677180442e-07
7.33623336861e-07
1.13718712273e-06
1.00294727656e-06
8.56317538694e-07
2.08662782151e-07
7.88646606377e-06
1.32759203525e-07
6.22564722141e-07
8.00591697583e-07
4.53975395668e-06
6.62761400819e-06
4.291562602e-07
2.9875987674e-08
6.1910281282e-06
3.07687623462e-06
2.64838987782e-07
2.94613531916e-07
3.39804009259e-07
1.99593069805e-07
4.45078483597e-06
5.46736275749e-07
2.69298073913e-07
4.11443686147e-06
4.32807441554e-07
2.95947428736e-08
3.88482569823e-07
2.83001908265e-07
4.80563985692e-07
1.52450500004e-07
1.6580612961e-07
7.43352054821e-08
1.33624225456e-07
9.70277465809e-07
1.05132608115e-06
5.44252960673e-07
9.22351362793e-07
4.8709892505e-06
5.07226162067e-07
4.42786420264e-06
5.06294849921e-06
5.04467534003e-07
9.72751938999e-07
4.89866942029e-07
4.70550710571e-06
4.49325947379e-06
1.76285431509e-07
4.07661737902e-08
8.71504896463e-08
1.73811981583e-07
3.46025754664e-07
1.3199810904e-07
8.65525255057e-08
1.25234528671e-07
2.0942343955e-07
7.14661665337e-08
1.00154923621e-07
4.97023413623e-08