# vtk DataFile Version 3.0
File Name: Molecule/sphere_excent/sphere_excent_0-s49.vtk
ASCII
DATASET UNSTRUCTURED_GRID
FIELD FieldData 1
TIME 1 1 double
0.0
POINTS 865 double
-0.54169970751 0.80749392509 -0.23312529922
-0.68384873867 0.71750682592 -0.13219845295
-0.56346905231 0.824424088 -0.052300564945
0.38235363364 0.8682076931 -0.31372538209
0.43634471297 0.88701856136 -0.15109755099
0.54503327608 0.79002511501 -0.28058174253
0.38930621743 -0.46001893282 -0.79801476002
0.51250493526 -0.51468235254 -0.68717384338
0.36803480983 -0.59456795454 -0.71486574411
0.86367917061 0.08583907783 -0.4966493547
0.79437750578 0.18399660289 -0.57853662968
0.84179055691 0.24642665684 -0.4802749157
0.88230246305 -0.073940500617 -0.46490857005
0.82278436422 -0.0012859911658 -0.56803935766
-0.25597956777 -0.87874591351 -0.40278378129
-0.14808680117 -0.87854629755 -0.45411342382
-0.17531147599 -0.92541700602 -0.33575758338
0.29890018702 -0.70314079523 -0.64517855644
0.17434474826 -0.74193912745 -0.64739727974
0.22470122576 -0.64503002167 -0.73036086559
-0.4171872437 0.15615032613 -0.89529049397
-0.51110184193 0.10833850503 -0.85263961554
-0.50371932983 0.19384029508 -0.84184163809
0.56070351601 -0.093416012824 0.82231992483
0.53586250544 -0.35085532069 0.76779019833
0.67868793011 -0.23194901645 0.69658619165
0.91445630789 0.1439114362 0.37817886472
0.88667368889 0.032976023853 0.46121969819
0.95123809576 0.03582258895 0.30631127954
0.38232275844 -0.44198349118 0.8112565279
0.38768804073 -0.25853151083 0.88401216269
0.5094075799 -0.57344067097 0.64146208763
0.62473869324 0.44520482421 0.64096772671
0.53271180391 0.34055218101 0.77255880833
0.73545336723 0.28052273393 0.61661827564
0.11534583569 -0.24647462368 -0.96209925413
0.11406075954 -0.37411248684 -0.92033022642
0.0136871133 -0.29731595516 -0.95467334986
-0.18876105547 -0.37756809592 -0.90653914213
-0.12994205952 -0.44893065095 -0.88405483961
-0.21404244006 -0.44487401843 -0.86963790655
-0.19861595333 -0.5111400485 -0.8362108469
-0.12617686391 -0.61603850126 -0.77755725384
-0.19895939529 -0.58113628626 -0.78911292553
-0.09448736161 -0.54364466667 -0.83395820856
0.037219617516 -0.52008384466 -0.85331308842
0.0098876357079 -0.5889197588 -0.8081408143
0.12752364576 -0.58757871389 -0.79906445742
0.92688673735 0.0037819382269 -0.37538403273
0.83552867174 0.48584973812 0.25644910336
0.8782184124 0.46299007535 0.1196109727
0.80267900229 0.58418238163 0.12027956545
0.8871281743 0.34386658669 -0.30784985423
0.89553964138 0.37857943773 -0.233824417
0.92625385523 0.29878720641 -0.22973576188
0.84925442934 0.43151953816 -0.30422455072
0.88443481922 0.28584125638 -0.36884665489
0.84220439196 0.36399051547 -0.39778751135
0.88891726732 0.15940049291 -0.42940336466
-0.33676147461 -0.35420408845 -0.87241053581
-0.26204234362 -0.31015738845 -0.91386014223
-0.27603548765 -0.4033446312 -0.87239897251
-0.38291311264 -0.26351633668 -0.88538008928
-0.0016734865494 -0.37847295403 -0.92556405067
-0.4623491168 0.62611627579 -0.6278578043
-0.35726445913 0.66516172886 -0.65568035841
-0.38596409559 0.58197122812 -0.71577751637
-0.27182605863 0.61556005478 -0.73972517252
-0.25904345512 0.69939810038 -0.66613030434
-0.49525165558 -0.30669179559 -0.81279170513
-0.58718758821 -0.23209993541 -0.77544879913
-0.47261679173 -0.17430378497 -0.86385309696
-0.59992748499 0.040311902761 -0.79900181293
-0.70239466429 -0.04116858542 -0.71057134867
-0.68038743734 0.092433333397 -0.72700464725
-0.7669941783 0.051316481084 -0.63959306479
-0.79469060898 -0.09748390317 -0.59910923243
-0.5902184248 0.14073647559 -0.79486209154
-0.15478369594 -0.12893772125 -0.97948747873
-0.11381369829 -0.042343337089 -0.99259477854
-0.042844746262 -0.11126118153 -0.99285459518
-0.0027553346008 -0.0068586021662 -0.99959510565
-0.28478291631 -0.22045569122 -0.93287181854
-0.35499623418 -0.16631771624 -0.91993397474
-0.18610714376 -0.21916531026 -0.95776998997
-0.24955135584 -0.14693821967 -0.95713633299
-0.20190942287 0.55357289314 -0.80795550346
-0.31156748533 0.51977074146 -0.79546689987
-0.28291678429 0.41140270233 -0.86641961336
-0.36820590496 0.43435770273 -0.82205122709
-0.072502434254 0.55801415443 -0.82665216923
-0.14881940186 0.61928331852 -0.77093487978
-0.33525410295 0.07829426229 -0.93886935711
-0.24897842109 0.15681613982 -0.95571273565
-0.23677489161 0.06797735393 -0.96916550398
-0.43957829475 0.064956724644 -0.89586699009
-0.39723062515 -0.5898937583 0.70300203562
-0.30948421359 -0.48579323292 0.81743842363
-0.47892174125 -0.42372843623 0.76877379417
-0.58984977007 -0.47263064981 0.65470159054
-0.43516424298 -0.12233357131 0.89196866751
-0.25350493193 -0.16663651168 0.95286643505
-0.32936450839 -0.012351572514 0.94411706924
0.10367010534 0.0045612808317 0.99444806576
0.036894261837 -0.13041739166 0.99077534676
0.1656563729 -0.1096361652 0.98005491495
0.12458718568 -0.26303943992 0.95670890808
-0.015034587122 -0.24725176394 0.96884471178
0.25786554813 -0.19280909002 0.94672876596
-0.0019752765074 -0.39029785991 0.92066019773
0.14054404199 -0.40849852562 0.90188288689
0.083840787411 -0.55740213394 0.82593095303
0.26035118103 -0.33795452118 0.90445429087
-0.1308478117 -0.29869693518 0.9453124404
-0.132776618 -0.4893502295 0.86192476749
-0.25992330909 -0.35201427341 0.89917874336
-0.21280428767 -0.61640536785 0.7580973506
-0.48907145858 0.027195008472 0.87183153629
-0.48339489102 0.21033993363 0.84970146418
-0.37253472209 0.1246920675 0.91963386536
-0.60386484861 0.10111434758 0.7906512022
-0.32351958752 0.26347509027 0.90878152847
-0.42961275578 0.39773738384 0.81071341038
-0.23694022 0.39654025435 0.8863402009
-0.25145232677 0.12230943143 0.95939189196
-0.18811990321 -0.034638307989 0.98078638315
0.30487388372 -0.030124457553 0.95168977976
-0.041385643184 -0.042096123099 0.99783700705
-0.10533427447 -0.14895170927 0.98321801424
-0.61659568548 0.29467639327 0.72986233234
-0.62321639061 -0.11294629425 0.77381688356
0.23898740113 -0.48829129338 0.83930462599
0.31271824241 -0.63476800919 0.70641547441
0.42567646503 0.062424566597 -0.9025349617
0.5225020647 0.10533082485 -0.84614425898
0.50883823633 -0.03642757982 -0.86011183262
0.14274679124 -0.48674333096 -0.86180830002
0.25838807225 -0.53939586878 -0.80142623186
0.24753640592 -0.42588415742 -0.87025362253
0.61590945721 0.10512047261 -0.78066551685
0.59030729532 0.2061971277 -0.7804145813
0.68548864126 0.15557107329 -0.71121048927
-0.1224398464 -0.75007450581 -0.64992290735
-0.13262727857 -0.683801651 -0.71750807762
-0.055624138564 -0.69987499714 -0.71206474304
0.036552313715 -0.44486105442 -0.89475232363
0.11468096077 -0.68232470751 -0.72198176384
-0.019463289529 -0.79735970497 -0.60314381123
-0.15179373324 -0.81279361248 -0.56243348122
0.36852309108 0.4938595295 -0.78757691383
0.3729737103 0.36410969496 -0.8534104228
0.29693886638 0.43918031454 -0.8478988409
0.26994144917 0.32969421148 -0.90467828512
-0.23859652877 -0.76287537813 -0.60090446472
-0.21103169024 -0.70012944937 -0.68211632967
-0.30315464735 -0.6939060688 -0.65313363075
-0.35252711177 -0.75288039446 -0.55577987432
-0.266033113 -0.63237398863 -0.72753471136
-0.396027565 -0.67297953367 -0.62470561266
-0.35854130983 -0.6136277914 -0.70351183414
-0.47442066669 -0.59416508675 -0.64955747128
-0.47908127308 -0.6880106926 -0.54510742426
-0.28890502453 -0.55946737528 -0.77686613798
-0.382294029 -0.52059537172 -0.76342070103
-0.25222945213 -0.82602363825 -0.5039973855
-0.1879016757 -0.64296394587 -0.74248105288
-0.62208628654 0.57879853249 0.52721440792
-0.56216269732 0.47761616111 0.67502039671
-0.47241276503 0.67139923573 0.57073140144
-0.4009719789 0.6133326292 0.67973661423
-0.57560330629 0.58137661219 -0.57448029518
-0.51292139292 0.66263878345 -0.54573392868
-0.43387255073 0.24359513819 -0.86741703749
-0.51054888964 0.27216798067 -0.81561529636
-0.5745703578 0.22637063265 -0.78652745485
-0.59750980139 0.30713197589 -0.74070429802
0.78036230803 0.084298938513 0.61959809065
0.68702667952 -0.027360187843 0.72611194849
0.7704372406 -0.11949899793 0.62621790171
0.6474173069 0.1662568152 0.74345684052
-0.90208995342 0.11276723444 0.41640010476
-0.78000873327 0.2333792448 0.58019822836
-0.87215471268 0.28797653317 0.39518514276
-0.74064296484 0.4056866467 0.53542089462
-0.63058167696 0.38274884224 -0.6751767993
-0.69116044044 0.28614714742 -0.66364377737
-0.65223503113 0.20604261756 -0.72948777676
-0.41730996966 0.49779188633 -0.76029658318
-0.49348723888 0.54344290495 -0.67904680967
-0.50606822968 0.46815609932 -0.72436881065
-0.58126550913 0.4765765667 -0.65951985121
-0.46320715547 0.42413491011 -0.77816170454
-0.42455387115 0.37520897388 -0.82400083542
-0.50640767813 0.35130405426 -0.78747528791
-0.55610179901 0.39897117019 -0.72908908129
-0.44770461321 0.31244280934 -0.83782851696
-0.65505629778 0.44778165221 -0.60840392113
-0.3559615612 0.33062192798 -0.87405985594
-0.92981165648 -0.35897749662 -0.080808535218
-0.89085990191 -0.44141831994 0.10729712993
-0.96398711205 -0.2325527668 0.12903811038
0.70641219616 0.34735316038 -0.61670094728
0.63995707035 0.42610618472 -0.63943874836
0.71078884602 0.42655524611 -0.55928784609
0.14244818687 0.38969808817 -0.90985417366
0.17815876007 0.30369183421 -0.93595868349
0.22710162401 0.2017558217 -0.9527336359
0.3374581039 0.22237488627 -0.91457754374
0.25410211086 -0.0096326265484 -0.96686375141
0.30900973082 0.09469499439 -0.94635426998
0.38697186112 -0.05910660699 -0.92016535997
0.43269190192 0.16796353459 -0.88564914465
-0.13943752646 0.639339149 0.75611954927
0.034678701311 0.71785473824 0.69532811642
-0.14982108772 0.76692682505 0.62352055311
0.028452420607 0.56044721603 0.82698994875
0.013855332509 0.8522991538 0.52195501328
0.20887592435 0.77648603916 0.59419512749
0.21387308836 0.59121412039 0.77753925323
-0.28121447563 0.53126615286 0.79904258251
-0.26978194714 0.69071614742 0.66950577497
-0.12799172103 0.50357431173 0.85436481237
0.40716665983 0.54517066479 0.73215955496
0.33921137452 0.42781805992 0.83688986301
0.18835529685 0.39076584578 0.90062445402
[...]
CELL_DATA 1726
SCALARS cell_data_0 double
LOOKUP_TABLE default
9.43130078886e-07
5.80664070334e-07
7.58348986431e-06
1.21804375545e-05
1.6319517055e-05
1.33928442096e-07
1.45186472282e-05
2.33591627941e-06
8.17194886297e-06
1.52064581338e-06
6.71627872852e-06
8.9922966681e-06
1.07465816118e-05
1.02375289154e-05
1.8916474986e-06
1.56391070339e-07
4.1326986994e-06
5.51159984216e-06
7.42470545896e-06
1.01705786051e-07
7.34933417784e-07
7.50710963512e-07
1.40070242289e-07
1.09521312081e-06
7.22157976501e-08
4.04372667968e-06
4.57852374242e-06
7.13997010737e-06
1.65683259269e-10
6.05494124299e-06
1.28869036099e-05
1.42951344813e-07
1.66228952086e-07
7.26195731339e-08
8.2449472428e-06
5.9372951462e-06
2.82468734317e-08
1.38269975741e-06
1.01796893742e-05
1.25514212922e-05
3.39153706724e-06
1.14387755861e-05
3.77424058211e-06
1.22468178801e-06
1.44372637023e-05
4.83808688231e-06
1.46465220124e-05
2.59954966733e-06
6.90886583943e-06
5.98099662609e-06
1.7689470734e-05
1.15850613588e-05
6.51168816077e-06
1.17330444255e-05
5.24397338268e-06
1.2535492523e-05
6.17721857565e-06
1.04004943593e-05
5.27315882002e-06
1.0626162259e-05
6.85001918281e-06
6.3974894688e-06
1.38773151297e-05
8.11819197782e-06
1.23937439237e-05
1.98833533112e-06
5.36469816062e-06
1.04692409159e-05
1.09502915462e-05
4.85649825063e-06
1.0092683865e-05
6.19623021578e-06
9.58224991293e-06
9.58893374763e-06
1.7515923671e-05
1.53365422718e-05
4.42390955148e-06
1.08724928635e-05
1.03865877185e-05
1.75613108506e-05
1.74650862897e-05
1.71624221507e-05
6.42132641635e-06
5.98511735152e-06
7.21049936475e-06
6.5215459456e-06
4.58611492754e-06
5.70781220965e-06
7.77044531406e-06
1.1474938666e-05
8.20741244976e-06
4.1692215048e-06
4.89044354765e-06
5.22755014392e-06
8.21797981234e-07
1.10905051438e-05
3.81438529315e-08
4.78054416976e-06
5.817191825e-06
9.66452374148e-06
1.04808465243e-05
6.192222252e-06
1.2721492484e-08
4.22407452439e-06
1.13863051207e-05
4.73617720879e-06
4.06178640241e-06
9.12852931307e-06
9.43915032212e-06
5.68053848961e-06
8.39531173277e-06
2.66691583241e-08
9.80372532093e-07
7.56575113351e-06
1.08891281384e-07
2.41192351941e-08
6.62006809628e-08
1.32169616342e-09
4.45053518943e-08
4.16892674621e-09
2.92238654952e-08
2.38750724079e-07
2.37992334586e-07
1.96116661732e-06
8.21975185582e-08
3.04453658744e-08
2.53786885945e-08
7.63663948932e-06
5.49761376845e-06
6.5964308318e-08
5.23341696663e-08
3.06301483473e-08
1.64783142988e-08
1.45913345715e-08
1.04457157336e-06
6.76823284052e-06
2.97193123149e-08
1.08650612129e-08
1.02872240745e-08
7.62006847293e-06
1.92493385047e-07
1.74122012811e-07
1.53171460995e-07
4.18747490077e-06
5.08842982996e-06
3.73490870657e-06
1.9422385793e-06
6.25974773067e-06
7.700516571e-06
3.82892198378e-06
6.13447371687e-06
7.47688719749e-06
7.41364317906e-06
4.94002904959e-06
1.30711022809e-07
1.36208360032e-05
1.4509266625e-07
1.78661707542e-07
1.73957692626e-07
3.2039455265e-07
2.11241263209e-07
1.57357296923e-07
9.26331808483e-08
1.97491500664e-07
1.67673183708e-07
2.51860899324e-07
3.59173970182e-07
1.84374188737e-07
1.87563331303e-07
1.05282609669e-07
1.69478929718e-07
5.85709267231e-08
1.43061842564e-07
1.50828369824e-08
6.33530622564e-08
6.13668311376e-06
9.32012876677e-08
4.4354810948e-08
1.7986423124e-07
1.69255449894e-07
9.54392009076e-08
1.08735936139e-05
8.3427774034e-07
1.24573799445e-06
3.36998498868e-06
1.9841136581e-06
4.12708775668e-07
1.62373338649e-06
2.66379067209e-06
2.07820156963e-06
3.01364675566e-06
4.12494485183e-06
3.52512296996e-06
2.03933491328e-06
6.3960071082e-06
8.08520131255e-06
5.96797171521e-06
6.02736366822e-06
8.98840608358e-06
8.99053009241e-06
4.31143518259e-06
6.55732898462e-06
5.91418314943e-06
6.52420526353e-06
7.2241804813e-06
7.19307624662e-06
2.41050405226e-06
1.46635228691e-05
5.23416408969e-06
4.24630542739e-07
7.64638510899e-06
3.28107337373e-06
1.55160856609e-05
6.43361729405e-06
4.30764199266e-07
7.01619534772e-07
4.06707556305e-07
4.71972901793e-07
8.40207795765e-08
1.80204211292e-07
2.58741213258e-06
2.37320097587e-07
1.24083214959e-06
1.63286745171e-06
2.62373289043e-06
9.02195898432e-07
1.88531984584e-06
3.70809284019e-07
2.73112713196e-07
5.93864486879e-07
4.38979060788e-07
8.33787889677e-07
6.45506642707e-07
6.6770419554e-07
5.62917925131e-07
5.42647337586e-07
6.76973306537e-07
1.60900077455e-06
7.16293756613e-07
2.28485335876e-06
2.10652059182e-06
4.45618318418e-07
6.91347877134e-07
4.61202431875e-07
3.56931372963e-07
2.85021721005e-07
2.64636905206e-07
2.43608085761e-07
3.03981199943e-06
6.04383763657e-06
3.82588571014e-06
4.02003432852e-06
5.26276253308e-06
7.31202983155e-06
3.93494764656e-06
3.36204759401e-06
2.96006411615e-06
3.04249188049e-06
2.81685245465e-07
9.13971074364e-06
8.75589597598e-06
6.21334816527e-07
3.5423844433e-07
1.45104663958e-06
3.08131608644e-08
8.86747783981e-06
3.96316266174e-07
1.78993236821e-08
1.17917081629e-08
5.38321096053e-08
1.1353797075e-07
4.89673578653e-08
3.21220557179e-07
1.53178837127e-07
4.66950521548e-08
1.71944456269e-07
4.20251505059e-07
3.10602045808e-07
8.9123287206e-08
6.59812815893e-07
5.51207099609e-08
1.59910442808e-08
8.03945312817e-08
2.91004141269e-08
5.30069784446e-07
3.24823167359e-07
2.62802055909e-07
3.39680322534e-07
3.4900214864e-07
7.23878537179e-08
1.08830722629e-07
6.57786049322e-08
1.40165508739e-06
4.18620153085e-07
5.54572906254e-07
7.26423545477e-07
7.04370637806e-07
1.91514091679e-06
1.42923582611e-07
3.87858436364e-09
3.4484769702e-07
4.80351519709e-07
2.94975105523e-08
5.80131590748e-07
5.70736874211e-07
4.06387629917e-07
3.2683975994e-07
6.3969633528e-07
1.62509626311e-06
1.04376398028e-06
1.21389718304e-06
1.49587788584e-07
2.67235308027e-07
2.52053134951e-06
5.44326376493e-06
2.25128497351e-06
1.51283529235e-06
3.0840596966e-06
1.64924709432e-06
2.23860663938e-06
1.54426926931e-06
1.96556369229e-06
1.65837221084e-06
2.38127861004e-06
1.740597644e-06
2.06233295908e-06
1.91652256031e-06
2.18334132638e-06
1.55021610737e-06
1.80764139086e-06
3.22116424201e-06
2.75836897427e-06
1.21806937601e-06
6.94040557007e-06
7.76524406733e-06
7.28451470107e-06
7.08414507713e-06
2.26742391998e-07
2.74053817667e-07
1.09763962517e-07
2.67874636488e-07
7.15255533591e-08
1.00102374845e-07
5.20126024071e-06
5.6841217687e-07
8.25844267725e-06
1.89342702028e-05
8.77203678652e-06
7.46060830217e-06
1.13830908123e-05
1.64176694808e-05
5.02513756664e-06
2.64216360521e-06
5.07019831264e-06
6.19776992361e-06
2.19903978772e-06
2.92913196308e-06
1.77796805158e-06
3.59505420814e-06
2.31603290927e-06
2.71555753461e-06
1.25015275127e-06
3.94019722533e-07
2.45366727687e-06
1.95653427989e-08
8.86340162021e-08
2.95191150622e-06
3.18795993861e-06
2.30020340364e-07
3.45039537516e-06
3.6172728824e-07
2.39550937688e-07
6.59117860961e-07
4.14937896191e-08
8.36593221078e-09
2.10239094097e-07
5.19162340417e-10
8.11337147498e-08
1.0588205334e-07
1.17509714132e-08
2.30618910848e-07
7.13588563845e-08
7.90405322488e-08
3.67490329863e-07
1.83107794606e-06
9.34043660425e-07
1.53430952881e-06
8.92144067676e-07
1.62517807909e-06
5.34892443277e-08
1.05833315842e-07
1.43373123371e-07
1.60743209347e-06
6.2557622404e-07
1.79679346893e-07
1.09399515279e-06
1.17202529739e-06
1.83045199885e-06
1.74423543737e-06
1.91545587664e-06
3.36499059754e-06
1.01372647959e-06
4.77704412231e-07
5.87357425215e-07
2.78607120907e-06
9.95455764918e-07
5.29800151229e-07
8.10890486104e-07
4.10205564291e-07
1.58914148955e-07
2.36005156351e-07
7.90093284333e-07
7.56583995296e-08
3.93534597217e-07
1.11686983452e-07
6.75398850925e-07
5.20241598195e-06
6.71786450872e-06
6.08464210547e-06
7.08421075603e-06
7.05073106708e-06
7.28914898285e-06
7.56185318363e-06
6.3119177055e-06
1.19581435591e-06
9.73505285795e-06
5.45229092033e-06
2.36547360119e-05
5.82977927593e-06
2.18149784945e-06
3.9046468352e-06
3.04508385847e-07
1.01009327069e-07
4.33682025637e-09
3.59779433202e-07
1.70064984715e-06
1.21506993335e-06
9.71763864727e-07
1.05173507767e-06
7.81722116548e-07
7.91998786542e-08
1.73851224281e-07
8.39947796588e-06
7.07111979689e-06
1.30745788285e-05
1.39890917407e-05
4.60630702576e-06
4.58174252767e-06
7.69080658577e-06
4.50338578525e-06
3.23532213302e-06
6.77338385343e-07
1.33301481031e-06
1.38986399156e-07
2.30796484592e-07
1.0030939009e-06
3.18928893506e-07
8.94490593857e-08
9.39856975108e-08
2.13295872282e-06
2.42229635284e-06
1.82663414981e-06
2.5722117949e-06
2.16984481784e-06
4.0628783364e-07
1.15274576052e-06
1.21148516335e-06
1.22201952535e-06
9.13615596894e-07
1.15824621491e-06
8.61502455867e-07
8.72557616836e-07
9.65074215683e-07
6.50383121499e-07
1.03745958119e-06
4.37804847601e-07
3.30965496481e-07
5.48658464467e-05
1.9241122854e-05
4.04796355255e-05
2.8979144786e-08
7.83156599297e-06
4.56437532125e-05
6.07826520336e-05
3.05490471304e-05
4.04316883535e-05
1.82431214312e-05
2.12760863656e-05
1.73011498038e-06
2.8191238088e-07
3.47155615373e-07
1.04254756827e-06
1.76939830852e-06
1.47688132041e-05
3.80127111465e-06
9.45424231384e-06
3.15903690714e-08
1.73409626765e-06
5.26636786027e-07
1.10699388724e-06
8.17563786014e-07
2.43970845247e-07
3.04889019196e-06
4.11936435411e-06
1.52769326117e-06
1.72473593966e-05
7.49701105547e-06
1.02785678652e-06
1.24810846945e-06
1.99415135107e-06
1.04959201356e-05
7.07622619383e-06
1.12437420605e-05
1.21447352422e-05
1.53000803655e-05
6.9550123318e-08
3.40341524429e-06
5.29058846398e-07
1.1175499325e-06
1.33005921853e-06
1.23321475949e-06
1.23734042738e-05
1.03494059263e-06
3.49573595825e-07
1.05302052564e-06
5.6013636143e-06
4.58409896888e-07
1.19659565739e-06
1.23445491886e-06
8.09710786645e-07
3.43551816809e-06
4.14828837806e-07
1.02060999744e-05
5.81368952402e-06
2.57400556745e-06
3.48252078725e-06
1.43888066539e-06
7.55931908742e-06
6.02198372566e-06
6.70981128818e-06
5.83242654829e-06
3.67118400009e-06
3.39368681412e-06
6.66057692577e-06
2.61973328203e-06
1.07052717529e-06
1.79160252122e-06
1.61209496282e-06
2.62595027607e-06
9.11025306398e-06
1.06511995852e-05
1.54703732184e-07
1.21538304602e-06
1.53488944006e-06
1.35163204961e-06
8.56977541827e-08
1.24139562919e-09
3.07145952346e-07
1.99776935025e-07
2.55313858619e-08
4.67395496115e-07
1.61268733196e-07
2.19683056909e-07
4.5189821737e-07
8.78818851886e-06
9.11884360368e-07
1.04659882012e-06
4.70363997153e-06
9.58962794161e-07
1.51049794407e-06
1.21273470651e-06
8.31706091544e-07
7.38978490281e-07
8.22618576435e-07
8.26823412831e-07
1.74397907813e-06
8.71666143792e-07
9.62355761946e-07
1.13681798974e-06
1.19341100418e-06
2.03692910415e-06
1.07542193602e-06
6.96055574971e-07
8.83408316979e-07
1.06208027158e-06
1.93385152682e-06
4.47224638237e-06
1.70027850673e-07
1.72385339229e-07
1.87889026463e-07
4.28594344918e-07
1.50872299691e-06
1.218634924e-06
1.39029886502e-06
1.65209825343e-05
1.43839409915e-05
4.72590287482e-06
1.46386002832e-06
2.70830804855e-06
2.33393613254e-06
1.52627757249e-05
1.44621336398e-05
1.18368308747e-06
6.60660532994e-09
9.94920130459e-07
6.02844057609e-06
5.1409189499e-06
3.84545993444e-09
7.95747833551e-09
1.22140189145e-06
1.25191612e-06
1.65371479707e-07
3.51823406782e-07
7.61212218815e-07
2.43887408789e-07
8.11696083766e-07
7.92997516537e-07
2.38983300112e-07
8.28429149572e-07
1.1335585634e-06
3.75256476722e-06
9.11085007855e-09
1.17803180581e-07
1.28125943591e-08
1.74495823952e-07
1.38100434623e-07
1.21325460953e-07
1.56350099314e-07
2.15293400155e-07
4.58990271066e-06
1.19287308436e-07
2.44285922514e-07
3.8013204291e-07
2.05716414953e-07
5.08862382204e-06
7.57296276248e-07
7.71830951575e-07
6.22167085477e-06
6.43190098736e-06
3.99014379204e-06
5.31667988316e-06
7.50555581717e-06
6.79048109024e-06
9.85499546462e-07
1.07793776603e-06
9.02065656551e-07
8.12203365041e-07
9.76513561591e-07
4.3275178941e-07
8.52326299324e-07
1.18236702591e-06
1.05590086398e-05
8.21057107639e-06
6.61414927665e-06
8.20775228739e-06
1.67990005853e-05
1.14936518614e-06
1.48700130631e-06
9.19659829026e-07
3.14780220881e-07
1.31193755167e-05
1.44687649417e-05
1.47200254096e-07
9.33811176969e-08
1.28022644082e-07
2.01449763763e-07
1.54478239128e-07
1.15728782846e-07
7.33108307688e-08
7.40528428943e-08
1.00014335387e-05
8.58084915629e-06
3.96029970317e-07
1.72417146646e-06
3.4186683279e-06
4.28196004128e-06
4.87133355293e-06
6.61642289333e-06
5.13933449239e-07
4.7562021301e-07
6.92360833432e-07
9.80240346902e-07
1.35152628784e-06
1.1939698911e-06
1.07503844911e-07
1.09530307422e-07
1.98235796289e-06
4.84911969898e-07
1.12516926051e-05
5.01798396723e-07
5.51265777018e-07
5.61311331352e-07
5.4815875252e-07
7.9576870491e-07
5.33083250714e-07
6.80710716014e-06
2.79808305261e-06
3.2104682627e-06
2.34435917555e-06
2.04830038389e-06
2.62470751769e-06
9.89623486445e-07
8.39924628826e-07
9.48595301618e-07
8.06576146309e-07
3.86114015139e-06
3.7244155227e-06
4.71245657113e-07
3.82935915072e-07
2.53952597996e-07
2.43243037946e-07
1.52173920049e-07
4.40243989687e-07
3.80092764392e-07
2.2174175528e-07
1.26461770348e-07
1.51193968032e-07
9.42960419737e-08
1.07923289253e-07
7.78332518509e-08
5.65355816278e-06
5.80458327161e-08
6.52681422859e-08
5.40359020517e-08
1.07002572013e-08
8.90306051888e-09
1.3371422044e-08
3.27574353342e-09
2.69020548797e-08
1.76956297452e-08
1.46756362677e-08
1.09721213876e-08
1.56175720556e-08
1.36403163221e-08
7.98699015886e-10
6.3974661353e-06
9.09994176656e-06
4.83963495797e-06
3.51094213508e-06
4.70595825302e-07
4.49430056621e-07
5.80723153262e-07
4.53604046663e-07
1.83574429233e-06
9.3595624528e-06
2.16263836564e-07
2.8306910982e-07
2.0798848932e-06
1.43127677864e-07
1.70596371464e-07
3.25141644382e-07
1.98062786588e-06
1.02051070246e-06
8.86214841435e-07
6.70579556239e-07
1.18264107166e-06
1.22306677696e-06
1.14141566349e-05
7.86032016667e-07
9.94299589205e-07
1.53068677638e-06
2.31084654916e-06
5.60629446531e-07
4.84897836399e-07
6.2202893915e-07
7.88498177921e-07
3.56566627397e-07
2.49968266625e-08
1.63726831806e-07
1.90430018117e-07
4.38046198408e-07
7.06587585405e-07
1.88757986805e-06
1.36530569261e-06
2.57414011871e-06
5.56411667945e-07
7.69671018248e-08
7.51319082347e-08
2.61851091351e-07
2.53228473569e-07
1.7356580088e-07
4.83415804677e-07
4.05517806921e-07
5.05843287923e-07
8.37951142464e-07
6.90643332017e-07
8.04051876549e-07
1.22713655434e-07
2.4684024281e-07
3.03333784853e-08
9.65277952299e-08
2.00020519606e-07
3.93991210455e-07
3.42508294908e-08
2.00343193383e-08
8.29238555098e-08
1.60486182609e-07
1.20018569045e-06
3.00492598486e-07
2.23539928632e-07
2.24678676177e-07
3.43554399332e-07
4.31787920842e-07
2.07463970818e-08
3.76549908784e-08
1.15386315664e-08
3.40992693216e-08
5.15943707336e-09
1.09419547537e-08
3.20169349932e-08
7.92662567966e-08
3.53186655154e-08
3.45406194954e-06
5.37601163376e-07
4.56317789427e-08
1.30742369772e-07
7.8823310909e-08
6.70050325166e-08
4.63009756728e-08
5.2954071669e-06
4.66474426894e-08
1.45650957281e-07
1.61598023852e-07
1.11826399853e-06
5.01569234843e-07
1.81390651501e-07
5.17677770303e-08
2.58759163546e-07
1.89340853632e-07
1.26315747595e-07
7.11624988727e-07
2.46381166021e-07
1.21552165823e-07
3.21458281126e-07
3.54253660186e-07
2.49132243832e-07
1.9971746694e-07
1.01348302793e-06
4.61501112107e-07
1.02279158443e-05
1.43384818916e-05
6.23596709015e-07
8.28656593875e-07
5.19080548875e-07
6.36788379899e-07
6.87677132274e-07
4.76357685564e-07
2.68064856468e-06
8.98016712776e-08
2.94125445643e-06
8.90178872279e-09
3.29515064895e-08
3.64627510424e-08
2.40837307876e-06
1.80254648461e-06
2.11597356563e-08
1.11882274264e-06
4.39300385639e-08
1.92440279126e-06
3.768683503e-08
1.98627349168e-06
1.14010599046e-06
5.94341982127e-06
8.77614049036e-06
3.36352819825e-06
4.22981161904e-06
2.64415137903e-06
1.77740545437e-06
5.28331751234e-06
5.69343401732e-06
3.96937505561e-07
1.32657002535e-08
6.94482011882e-07
6.74226364443e-07
4.21469288368e-07
3.30903043012e-09
4.2966479023e-06
7.43902160059e-07
6.38641906614e-07
1.94842643583e-08
7.08813942369e-07
2.08662851969e-06
4.92764248332e-06
4.93062201842e-07
2.32418012318e-06
2.61925671524e-08
8.56832421554e-07
4.95472432446e-09
8.88644030911e-07
5.06614786101e-08
6.48216355492e-07
1.85148482646e-08
2.12724843811e-08
4.13707638196e-09
6.18592219328e-07
9.13591583704e-07
4.73040303892e-06
5.33374723831e-07
4.23559522708e-07
1.60343078047e-06
1.74909186993e-06
1.31038843419e-06
9.94518009879e-07
1.33698564016e-06
3.87063613313e-06
6.48314922699e-06
1.18551051582e-06
1.26487816885e-06
1.56385816172e-06
1.49421030549e-06
1.40629595193e-06
1.06256923875e-06
2.67106538199e-06
2.6683078396e-06
1.0997343422e-07
7.03980173162e-08
5.33292957504e-07
1.53530632191e-08
6.36811480968e-09
7.62623045604e-07
2.4243107662e-06
1.36742673558e-06
4.65693421445e-07
2.86138992831e-06
8.29556262684e-09
1.26616031766e-06
3.20343877305e-06
1.10494088485e-06
3.60547552378e-06
1.90225002968e-06
2.36033602118e-07
2.22879528884e-07
1.03059920051e-07
2.08933801002e-08
2.03562480226e-08
5.85902500423e-07
1.21995377925e-07
4.95490208988e-07
9.9035580507e-08
3.54732101888e-07
3.33959742429e-07
2.32812269835e-06
5.44729430914e-07
5.55509291929e-07
2.68739331776e-07
1.7278287621e-07
1.83090291905e-07
3.95268118678e-07
1.37189746055e-07
3.59558689509e-08
1.33647340748e-06
1.51631755195e-07
5.76159156905e-07
4.18457199248e-07
1.82279117401e-07
5.45717103242e-07
2.92529223006e-07
2.22430554307e-07
6.63453305261e-06
1.66453781705e-07
7.20716552274e-07
5.279964997e-06
7.64050293522e-08
1.49730376308e-08
3.38006502798e-06
2.34474230215e-09
8.86684663111e-08
6.2981233343e-09
8.43272355409e-08
1.18135609503e-07
4.5252757156e-08
2.47193086225e-08
3.36516585729e-08
3.34770504878e-06
3.7169199302e-06
1.61682250225e-08
1.62643944143e-08
3.60754428831e-08
2.6135574552e-07
1.03520909802e-07
2.50721506844e-07
3.86099555356e-06
2.82630895881e-07
4.42072086995e-07
4.44234815808e-08
1.87739960501e-07
8.23123608994e-08
3.66050284909e-08
3.48740529624e-06
1.71849296473e-08
4.12116736888e-08
8.83426225622e-07
1.13682089496e-06
4.86160618008e-07
4.82504328685e-07
3.86721039806e-07
7.21215190863e-07
4.33250831212e-07
7.55688037218e-07
8.16091055557e-07
9.74049141736e-07
7.34663367356e-07
5.62934433956e-07
1.2181523742e-06
2.30033732347e-07
1.28644582255e-07
8.47156362054e-07
9.19313906631e-07
7.09439774541e-07
7.83919735346e-07
5.9626183474e-07
3.44617659287e-07
5.22246095761e-07
6.34473378966e-07
4.29876506853e-07
4.91957488427e-07
3.20436036163e-07
5.45907799629e-08
9.40353187744e-07
7.64075922617e-07
5.69479073748e-07
6.72061561629e-06
2.30919861823e-07
1.43991931112e-07
5.19073751762e-07
6.09860157603e-07
1.03719006349e-06
1.17143558937e-06
6.55541284536e-07
9.2692995402e-07
3.14575852682e-07
1.8471947952e-07
7.91328507612e-08
2.37516062456e-07
9.68514475154e-09
3.35787877186e-07
3.29917360395e-07
1.73152710142e-07
5.25049883014e-06
5.47099084438e-07
3.4157353752e-07
6.79336336917e-07
4.12575325296e-07
6.03726050238e-07
8.51285091856e-08
7.72491759619e-08
7.9802119268e-08
3.80428649689e-09
5.32271268586e-07
6.42491416279e-07
4.50072628057e-07
7.33825562127e-07
2.39420390711e-06
2.30560984195e-06
5.30151926062e-06
6.24545691086e-06
3.9001142475e-07
8.32970337177e-07
3.82991562669e-07
2.4683078742e-06
2.07868083088e-06
2.07742194893e-07
1.72193340817e-06
1.96763372201e-07
1.54277927328e-06
6.91533923194e-07
1.45166978638e-06
8.42198061207e-07
1.3499067773e-06
4.29685548516e-07
1.34179183031e-06
1.26724094469e-06
2.31619190748e-06
3.3775674157e-06
8.24364066751e-07
9.53274591762e-07
1.27563649123e-06
6.86854986617e-08
9.69202173131e-08
1.49215365833e-07
8.28452504043e-08
5.98021227213e-08
6.58730209758e-07
7.90258931191e-08
7.87954247968e-08
5.1723574282e-08
1.12383332303e-06
9.08714147455e-07
7.74974157273e-08
1.33391858977e-06
7.71558747323e-07
2.37576252186e-07
4.77405118751e-07
1.31352274655e-07
1.85856069399e-07
2.37592770321e-07
4.46612562093e-07
4.20786825971e-07
1.59039213004e-07
3.23411860827e-07
1.92418259239e-06
1.98762096213e-06
2.07837061876e-06
5.55378240111e-06
1.83930703595e-06
5.9640247127e-08
2.41055567267e-08
3.68979444067e-07
3.1498568446e-07
2.61823168001e-07
2.35282590388e-07
9.01596317671e-08
1.99226369116e-06