# vtk DataFile Version 3.0
File Name: Molecule/sphere_excent/sphere_excent_0-s17.vtk
ASCII
DATASET UNSTRUCTURED_GRID
FIELD FieldData 1
TIME 1 1 double
0.0
POINTS 163 double
0.0050628613681 0.84900313616 0.52811157703
-0.47518202662 0.77957028151 0.40714675188
-0.33478996158 0.57139366865 0.749129951
-0.33499294519 -0.58810955286 0.73658794165
0.0065161576495 -0.84742724895 0.53065472841
0.029658228159 -0.47089967132 0.88171154261
0.36335921288 -0.54099351168 0.75713014603
0.50055539608 -0.80959838629 0.30652859807
0.81517964602 -0.31603586674 0.48078835011
0.84795892239 -0.53001248837 0.0099935345352
0.99299699068 -0.092157885432 0.072203300893
0.51670658588 0.73430591822 0.43893539906
0.37173730135 0.55050820112 0.74675059319
0.74748402834 0.3069036901 0.58714640141
-0.85116362572 -0.33092370629 -0.40774676204
-0.84412419796 -0.53571695089 0.011222284287
-0.99386304617 -0.091028302908 0.055716700852
-0.52661311626 -0.80407822132 -0.27420094609
-0.49808591604 -0.81332337856 0.3006029129
-0.00035521833343 -0.999756217 0.0074196467176
-0.80190247297 -0.32698363066 0.50022774935
-0.84638601542 0.21812674403 0.48240244389
0.52065628767 -0.81505429745 -0.25442361832
0.79589855671 -0.42372721434 -0.43162956834
0.0011866920395 0.99982750416 0.0031723110005
-0.27648839355 0.9442653656 0.17822735012
-0.2716012001 0.94674992561 -0.17259946465
-0.52631896734 0.85016047955 -0.0013346008491
-0.45824861526 0.7869797945 -0.41234335303
0.017349088565 0.87825578451 -0.47650772333
0.2741753757 0.94910895824 -0.15501600504
0.28009614348 0.94059741497 0.19093844295
0.47067531943 0.88207143545 0.018560191616
0.4666787684 0.8091827631 -0.35559779406
0.59721052647 0.49196499586 -0.63337743282
0.39426228404 0.68046373129 -0.61734288931
0.63845837116 0.63058036566 -0.44067844748
0.95231413841 -0.19575859606 -0.23420259356
0.87258815765 -0.090034104884 -0.47999894619
0.96673798561 0.090705223382 -0.23847043514
0.50722265244 -0.01867335476 -0.86171984673
0.42712518573 -0.26297068596 -0.86503249407
0.26773518324 0.013001391664 -0.96332323551
0.12815056741 -0.2498537302 -0.95978224277
0.30546337366 -0.51864814758 -0.79839575291
-0.035601563752 0.053229302168 -0.9979056716
0.68409794569 -0.21963344514 -0.69539570808
0.56616646051 -0.45466759801 -0.68737328053
0.44413274527 -0.68864476681 -0.57231104374
0.17874851823 0.43993079662 -0.87915027142
0.71871560812 0.33634486794 -0.60844683647
0.756521523 0.47140407562 -0.45312780142
0.4397957921 0.44975948334 -0.77735370398
0.42546877265 0.23389068246 -0.87420707941
0.57930719852 0.30381447077 -0.75627857447
0.60268425941 0.12706919014 -0.78762960434
0.68538570404 0.20062927902 -0.69986224174
0.85963082314 0.14983043075 -0.48702439666
0.82633411884 0.32019072771 -0.46313968301
0.77176612616 0.18892820179 -0.60671561956
0.74681901932 -0.035978600383 -0.66368407011
0.010417701676 0.53695249557 0.84338694811
-0.18553668261 0.33474779129 0.92354691029
-0.4664568007 0.28905752301 0.83540958166
-0.60122209787 -0.020847529173 0.79689693451
-0.4600610137 -0.27020189166 0.84530961514
-0.35037517548 -0.040273543447 0.93532913923
-0.20832847059 -0.29126441479 0.93358546495
0.93932896852 0.13758519292 0.31318899989
0.96639871597 0.2509958148 0.056072916836
0.85458528996 0.43681958318 0.28067857027
0.84806424379 0.52966839075 -0.015180971473
-0.94900763035 0.092958196998 -0.30013155937
-0.72226202488 -0.11365565658 -0.6820076108
-0.79798412323 0.23701399565 -0.55326938629
-0.86568683386 0.42177006602 -0.26909455657
-0.96116322279 0.27547565103 0.010724652559
-0.84686809778 0.5315631032 0.0079246964306
-0.66722106934 0.57098501921 -0.47766762972
-0.70842856169 0.67840832472 -0.19452683628
-0.70092839003 0.68443018198 0.20006653666
-0.42941746116 -0.30112269521 -0.85112398863
-0.5926604867 -0.45373636484 -0.66512227058
-0.32321280241 -0.53096324205 -0.78271901608
-0.34890908003 -0.76436316967 -0.54074561596
0.53222584724 0.83288151026 -0.15150691569
0.67923438549 0.70578145981 -0.20103126764
0.66921108961 0.74320244789 0.0025377348065
0.72319704294 0.66651582718 0.18095248938
0.54853582382 0.81493723392 0.18694469333
-0.66381812096 0.54321348667 0.51341944933
-0.84257024527 0.46603065729 0.27001300454
0.86188912392 0.42346650362 -0.27888250351
0.77820581198 0.56685829163 -0.27024149895
0.90471380949 0.26682725549 -0.33200976253
0.93185275793 0.33132615685 -0.14797255397
-0.13234779239 -0.024560835212 0.99064391851
0.067857019603 -0.023078931496 0.99737846851
-0.018949121237 -0.1932438463 0.9806650281
0.20166431367 -0.24710027874 0.94703239202
-0.19845420122 0.30173739791 -0.93237668276
-0.31788429618 0.072545774281 -0.94510447979
-0.46346211433 0.28091666102 -0.84003013372
-0.22421295941 -0.14644421637 -0.96336770058
-0.45522084832 -0.096899077296 -0.88512194157
-0.55347311497 0.042460363358 -0.83145827055
0.48561838269 0.2726418674 0.83038955927
-0.17828398943 0.71335756779 -0.67684596777
-0.49747243524 0.57808619738 -0.64508378506
-0.073480762541 0.53833276033 -0.83965200186
0.09328944236 0.68776351213 -0.71993666887
-0.30915117264 0.53484082222 -0.78563028574
0.0030051232316 0.28698757291 0.9578268528
0.17094266415 0.2833673358 0.94354778528
-0.054483290762 0.13680098951 0.98907065392
0.13441282511 0.13120393455 0.98215699196
0.28758499026 0.38849520683 0.87538248301
-0.2405154705 0.14265240729 0.95905464888
-0.54348802567 0.13375259936 0.82791006565
0.34305152297 0.16193012893 0.92530691624
0.53843194246 -0.034977216274 0.8413387537
0.27658897638 -0.010630972683 0.96091032028
-0.13724856079 -0.35454753041 -0.92358660698
0.066830046475 -0.59090673923 -0.80289280415
0.066386558115 -0.45336145163 -0.88840806484
-0.014426131733 -0.89670264721 -0.44034695625
0.234881863 -0.89181643724 -0.38525342941
0.79960119724 0.06687797606 -0.59653586149
0.7164504528 0.085486337543 -0.69234448671
0.65140366554 -0.0020875409245 -0.75867283344
0.23576711118 -0.67130333185 -0.70275551081
0.092338249087 -0.82820004225 -0.55265384912
0.30201181769 -0.7982865572 -0.52089267969
0.12682823837 -0.74175775051 -0.65811634064
-0.25704696774 -0.88262438774 -0.39297047257
-0.012874586508 -0.74678981304 -0.66462624073
0.063266828656 -0.68197834492 -0.72860252857
-0.050174340606 -0.66703510284 -0.74329978228
-0.17257103324 -0.72372698784 -0.6680161953
-0.11108823866 -0.82264310122 -0.5575813055
-0.14390058815 -0.62261235714 -0.76898598671
-0.05607252568 -0.58122831583 -0.8118005991
-0.13479112089 -0.53037810326 -0.83677142859
-0.041503097862 -0.49512949586 -0.86755424738
-0.73129653931 0.41131076217 -0.54397648573
-0.64149457216 0.28558540344 -0.71181970835
-0.58805406094 0.43138319254 -0.68399006128
-0.67414367199 0.14607258141 -0.72342157364
-0.42013609409 0.41964805126 -0.8043898344
-0.53012096882 0.16852216423 -0.83101314306
0.48107486963 -0.29422006011 0.82560253143
0.69577354193 -0.18172065914 0.69473189116
0.61227238178 -0.43810817599 0.65814346075
0.81869518757 -0.0042674308643 0.57407993078
0.66870284081 0.12672147155 0.73251771927
-0.73896259069 0.10626977682 0.66427439451
-0.67891401052 0.2643430829 0.68471080065
0.2968338728 -0.39072915912 0.87119710445
0.38208803535 -0.15749673545 0.91047334671
-0.23265612125 -0.45138403773 -0.86099499464
-0.036124650389 -0.41552302241 -0.90874665976
-0.13458438218 -0.453733325 -0.88089340925
-0.22357964516 -0.5281624794 -0.81919884682

CELLS 322 1288
3 0 1 2
3 3 4 5
3 6 4 7
3 8 7 9
3 9 10 8
3 11 12 13
3 11 0 12
3 14 15 16
3 15 17 18
3 17 19 18
3 18 19 4
3 15 18 20
3 18 3 20
3 18 4 3
3 21 16 20
3 20 16 15
3 14 17 15
3 22 7 19
3 22 9 7
3 19 7 4
3 23 9 22
3 24 25 0
3 0 25 1
3 24 26 25
3 26 27 25
3 26 28 27
3 25 27 1
3 28 26 29
3 29 26 24
3 30 31 32
3 30 24 31
3 24 30 29
3 29 30 33
3 11 31 0
3 31 24 0
3 34 35 36
3 36 35 33
3 33 35 29
3 23 37 9
3 9 37 10
3 23 38 37
3 38 39 37
3 37 39 10
3 40 41 42
3 41 43 42
3 41 44 43
3 42 43 45
3 40 46 41
3 46 47 41
3 46 23 47
3 41 47 44
3 47 23 48
3 42 45 49
3 23 46 38
3 50 34 51
3 34 52 35
3 52 49 35
3 49 52 53
3 52 54 53
3 52 34 54
3 40 53 55
3 54 50 56
3 54 34 50
3 38 57 39
3 50 58 59
3 49 53 42
3 42 53 40
3 46 60 38
3 2 61 0
3 0 61 12
3 2 62 61
3 2 63 62
3 64 65 66
3 65 67 66
3 65 3 67
3 3 65 20
3 20 65 64
3 10 68 8
3 10 69 68
3 69 70 68
3 69 71 70
3 68 70 13
3 13 70 11
3 16 72 14
3 14 72 73
3 74 72 75
3 72 76 75
3 72 16 76
3 75 76 77
3 28 78 79
3 78 75 79
3 79 75 77
3 21 76 16
3 28 79 27
3 27 79 80
3 39 69 10
3 74 73 72
3 81 82 73
3 81 83 82
3 73 82 14
3 14 82 17
3 17 82 84
3 33 85 86
3 85 87 86
3 85 32 87
3 86 87 71
3 71 87 88
3 87 89 88
3 87 32 89
3 88 89 11
3 32 85 30
3 30 85 33
3 11 89 31
3 31 89 32
3 33 86 36
3 71 88 70
3 70 88 11
3 1 90 2
3 2 90 63
3 1 80 90
3 80 91 90
3 80 77 91
3 90 91 21
3 77 80 79
3 27 80 1
3 58 51 92
3 51 93 92
3 51 36 93
3 92 93 71
3 39 94 95
3 94 92 95
3 94 58 92
3 95 92 71
3 36 51 34
3 50 51 58
3 58 94 57
3 57 94 39
3 66 67 96
3 97 98 99
3 98 5 99
3 98 67 5
3 6 5 4
3 5 67 3
3 21 91 76
3 76 91 77
3 39 95 69
3 69 95 71
3 71 93 86
3 86 93 36
3 45 100 49
3 45 101 100
3 101 102 100
3 43 103 45
3 45 103 101
3 103 104 101
3 103 81 104
3 101 104 105
3 105 104 73
3 104 81 73
3 12 106 13
3 29 107 28
3 28 107 108
3 49 109 110
3 109 107 110
3 109 111 107
3 110 107 29
3 49 110 35
3 35 110 29
3 62 112 61
3 112 113 61
3 62 114 112
3 114 115 112
3 114 97 115
3 112 115 113
3 113 116 61
3 61 116 12
3 66 117 118
3 63 117 62
3 62 117 114
3 117 96 114
3 117 66 96
3 114 96 97
3 12 116 106
3 116 119 106
3 116 113 119
3 106 119 120
3 113 115 119
3 115 121 119
3 115 97 121
3 119 121 120
3 43 122 103
3 103 122 81
3 99 121 97
3 97 96 98
3 98 96 67
3 111 109 100
3 100 109 49
3 123 124 44
3 44 124 43
3 125 126 19
3 126 22 19
3 22 48 23
3 47 48 44
3 56 55 54
3 54 55 53
3 57 59 58
3 50 59 56
3 57 127 59
3 127 128 59
3 127 60 128
3 59 128 56
3 60 127 38
3 38 127 57
3 56 128 55
3 128 129 55
3 128 60 129
3 55 129 40
3 40 129 46
3 129 60 46
3 44 130 123
3 125 131 126
3 131 132 126
3 131 133 132
3 126 132 22
3 22 132 48
3 132 130 48
3 132 133 130
3 48 130 44
3 17 134 19
3 134 125 19
3 133 135 136
3 135 137 136
3 135 138 137
3 136 137 123
3 138 84 83
3 83 84 82
3 138 139 84
3 139 134 84
3 139 125 134
3 84 134 17
3 83 140 138
3 138 140 137
3 140 141 137
3 140 142 141
3 137 141 123
3 124 123 143
3 133 136 130
3 130 136 123
3 138 135 139
3 131 135 133
3 125 139 131
3 131 139 135
3 74 144 145
3 144 146 145
3 144 78 146
3 145 146 102
3 111 108 107
3 108 78 28
3 78 144 75
3 144 74 75
3 74 147 73
3 73 147 105
3 111 148 108
3 148 146 108
3 148 102 146
3 108 146 78
3 102 149 145
3 149 147 145
3 149 105 147
3 145 147 74
3 105 149 101
3 101 149 102
3 102 148 100
3 100 148 111
3 120 150 151
3 150 152 151
3 150 6 152
3 151 152 8
3 8 152 7
3 7 152 6
3 8 153 151
3 153 154 151
3 153 13 154
3 151 154 120
3 64 155 20
3 155 21 20
3 64 118 155
3 118 156 155
3 118 63 156
3 155 156 21
3 21 156 90
3 156 63 90
3 63 118 117
3 118 64 66
3 13 153 68
3 68 153 8
3 99 157 158
3 157 150 158
3 157 6 150
3 158 150 120
3 6 157 5
3 5 157 99
3 122 159 81
3 81 159 83
3 120 154 106
3 106 154 13
3 99 158 121
3 121 158 120
3 124 160 43
3 43 160 122
3 122 160 161
3 160 143 161
3 160 124 143
3 161 143 142
3 122 161 159
3 162 159 142
3 161 142 159
3 159 162 83
3 83 162 140
3 140 162 142
3 142 143 141
3 141 143 123

CELL_TYPES 322
5
5
5
5
5
5
5
5
5
5
5
5
5
5
5
5
5
5
5
5
5
5
5
5
5
5
5
5
5
5
5
5
5
5
5
5
5
5
5
5
5
5
5
5
5
5
5
5
5
5
5
5
5
5
5
5
5
5
5
5
5
5
5
5
5
5
5
5
5
5
5
5
5
5
5
5
5
5
5
5
5
5
5
5
5
5
5
5
5
5
5
5
5
5
5
5
5
5
5
5
5
5
5
5
5
5
5
5
5
5
5
5
5
5
5
5
5
5
5
5
5
5
5
5
5
5
5
5
5
5
5
5
5
5
5
5
5
5
5
5
5
5
5
5
5
5
5
5
5
5
5
5
5
5
5
5
5
5
5
5
5
5
5
5
5
5
5
5
5
5
5
5
5
5
5
5
5
5
5
5
5
5
5
5
5
5
5
5
5
5
5
5
5
5
5
5
5
5
5
5
5
5
5
5
5
5
5
5
5
5
5
5
5
5
5
5
5
5
5
5
5
5
5
5
5
5
5
5
5
5
5
5
5
5
5
5
5
5
5
5
5
5
5
5
5
5
5
5
5
5
5
5
5
5
5
5
5
5
5
5
5
5
5
5
5
5
5
5
5
5
5
5
5
5
5
5
5
5
5
5
5
5
5
5
5
5
5
5
5
5
5
5
5
5
5
5
5
5
5
5
5
5
5
5
5
5
5
5
5
5
5
5
5
5
5
5
5
5
5
5
5
5

CELL_DATA 322
SCALARS cell_data_0 double
LOOKUP_TABLE default
2.61015625284e-05
8.16947563953e-06
3.7232012832e-05
1.30179550737e-05
1.82878426115e-05
2.75387457768e-05
3.07149310152e-05
3.19924426954e-06
6.74546564717e-06
1.23629026306e-05
1.39657878824e-05
1.94956671528e-05
3.68194721214e-05
2.9663268609e-05
2.29718181423e-05
1.35734659106e-05
8.16180090955e-07
1.40207403434e-05
2.53216193212e-06
1.34524803461e-05
5.99452502249e-05
4.44622209273e-06
1.22157505471e-05
2.21126209474e-06
3.88442704674e-06
3.37302346371e-06
6.30193603555e-06
4.83437261953e-05
3.22376038575e-05
2.84907781447e-06
1.66458784447e-06
3.22864423401e-05
2.77450915831e-05
1.5293940649e-05
3.68462406916e-06
3.01098563852e-07
7.25144920604e-07
3.22779720895e-05
4.34208428782e-05
1.9271163677e-05
1.76236916167e-05
1.28495658461e-06
4.71337729635e-06
3.84262035839e-06
4.5596460341e-07
8.45755583881e-07
1.85576501733e-06
4.42541628213e-06
5.70792056314e-07
2.12949655188e-05
8.0981647405e-07
2.22417559744e-05
6.3035661447e-06
2.18630830607e-05
4.17574327818e-08
6.43726349611e-08
2.07374127604e-06
3.07347363464e-05
5.48929860002e-05
2.31480901446e-05
2.35182930817e-05
3.41976088827e-05
2.17030207649e-05
1.38573033876e-05
1.86077651756e-07
4.36770322794e-05
3.4773884026e-05
1.61705788916e-05
3.00874697102e-07
2.20801467538e-05
3.0762863433e-05
2.78097038341e-05
3.1621795727e-05
2.51567083656e-05
2.75178098252e-05
3.66617242109e-05
3.29713572359e-05
5.11101137966e-06
1.85185405258e-07
4.54796712701e-06
4.13188637426e-08
8.97826847558e-06
1.7029094846e-05
1.49410532398e-06
1.80840122789e-06
1.94845013564e-06
5.58865171488e-07
2.46652627175e-06
2.56767325755e-07
1.2165471971e-05
3.63794007351e-06
2.80629690393e-06
1.06611085033e-05
9.112774685e-06
3.7510665927e-06
3.34076078868e-06
9.90572428757e-07
1.29059727811e-07
2.0828680677e-06
8.11209648884e-08
3.77272121717e-07
6.17445447115e-07
1.97583776411e-07
5.23241821722e-07
1.24026877067e-06
3.00801877161e-06
2.05875868606e-06
7.0863813086e-07
1.21789001645e-06
2.90507189324e-06
1.51598450149e-06
4.87216439967e-07
4.64396913309e-06
2.13175744191e-06
6.91446795248e-07
1.03440023869e-06
6.57077839732e-06
1.56045489966e-05
2.380736325e-06
2.84399627077e-06
1.39319176664e-07
3.11355501593e-06
7.70051121707e-06
6.14149681874e-06
1.62337106404e-06
1.66251864096e-07
2.2166029926e-07
2.23343338594e-07
2.91802238708e-06
0.000106123958295
7.66196506768e-05
2.60123973706e-05
5.19163029561e-05
4.3816753966e-08
1.98713418423e-07
4.47199682643e-05
6.39186247488e-05
5.01198194277e-05
4.13133742051e-05
3.57092584854e-05
3.24791546003e-05
2.08989547172e-05
5.19318785656e-05
6.25246459199e-06
9.52735066877e-07
4.69746491503e-05
6.06165973073e-05
3.49098825926e-06
1.2051878042e-07
5.57613509656e-06
1.19196502099e-06
1.38288480319e-08
3.69250945234e-05
2.44727619213e-05
1.73134231103e-05
1.75869770221e-05
1.07178142689e-05
1.30471077894e-05
1.9177188672e-07
2.23429629674e-05
4.82431211594e-05
8.57505960625e-06
1.65337591039e-06
8.85689641402e-08
2.26217330919e-07
1.68116270219e-05
2.23746808303e-06
2.16965835788e-05
1.61150756013e-05
1.93723017033e-05
2.03296696782e-05
4.87673919325e-06
2.78096217251e-05
1.60545490331e-05
9.37598770662e-06
6.2859550311e-06
3.46804659847e-05
2.53619222717e-05
2.71816549392e-05
1.60689433016e-05
2.92681690217e-05
3.26552430219e-05
1.7270657446e-05
1.40132104399e-05
1.54820566335e-05
2.6220292324e-05
2.11711540343e-05
1.01047321353e-05
2.74353556132e-05
2.31180158324e-05
6.79584285132e-05
6.2165902429e-05
4.29014722862e-05
3.1945074953e-05
3.54144826295e-05
4.15636535143e-07
2.01585440635e-06
1.47211617056e-07
4.84639607865e-07
1.99838871294e-05
3.66154287297e-06
2.86055097883e-05
3.74686889288e-07
2.92305651838e-05
4.98483728271e-05
7.42724952875e-06
6.91521541261e-06
4.80398688117e-06
4.97089740343e-08
5.35123552976e-06
5.29201912527e-06
9.5862125711e-06
7.73657482696e-06
5.94513040478e-06
7.49409099749e-08
5.45719533988e-06
1.47280318602e-06
2.33385565193e-06
1.02917040939e-05
1.61118223723e-07
7.40241991936e-06
2.14282545553e-07
9.85785138114e-08
7.68881492657e-07
7.41625943218e-07
1.59713157812e-07
9.75691302928e-08
6.65363737876e-08
2.07283383683e-06
2.04631643906e-05
2.72913245086e-08
5.93804563773e-08
3.69306989312e-08
5.34535067485e-09
1.4433437106e-06
2.47888285168e-06
2.06184151626e-07
3.52428994056e-07
7.36333120321e-06
2.97458655949e-07
9.45277466583e-07
1.57738285058e-08
3.24578309505e-08
7.67555510681e-06
1.22192128543e-08
2.86911419022e-08
2.76818959765e-08
1.3250528951e-08
2.09364133944e-08
2.74035394159e-08
5.74638625402e-06
7.12425836072e-08
2.18384482191e-07
2.01605076804e-07
2.26206503402e-08
1.55484740055e-07
2.29617735681e-07
7.0586652275e-06
7.1256822066e-07
2.07691569265e-07
5.07295478298e-08
1.2512923941e-05
2.94452748046e-07
2.75663451925e-08
5.50077686266e-08
2.41223674835e-07
3.04941985879e-08
6.34167543696e-10
5.82986872546e-06
6.98114252288e-08
8.54497787667e-06
3.46500052944e-08
3.60745492992e-08
3.01960789909e-07
1.62071350638e-05
1.55981939176e-05
1.76175122395e-05
8.06887592911e-06
5.57715361832e-06
1.76419200586e-05
8.91119532434e-06
9.32293437296e-06
4.67806120856e-06
1.59179263038e-05
7.31185450573e-06
1.5991304864e-05
8.73819688914e-07
3.8630224493e-06
4.97772015283e-06
3.68270400211e-06
8.95529485603e-06
9.70274979006e-06
4.94611861678e-06
1.50392350417e-05
8.09277835745e-06
7.33339855778e-06
2.0866319843e-05
1.7240064005e-05
1.32725552632e-05
1.65444216664e-05
1.58712147705e-05
2.66208323578e-05
4.68054130956e-05
2.23104591208e-05
1.91236009924e-05
1.42132707705e-05
2.53339084831e-05
1.40528224951e-05
7.83284623486e-08
1.07932542602e-05
4.04729821144e-06
1.36806202612e-09
2.40913816756e-09
6.42118506169e-06
1.37326091849e-05
1.47999707104e-05
1.64174415462e-05
5.9024253676e-06
4.47637136006e-07
8.13706305878e-06
6.96895970955e-06
1.42804544142e-08

