# vtk DataFile Version 3.0
File Name: Molecule/sphere/sphere_0-s3.vtk
ASCII
DATASET UNSTRUCTURED_GRID
FIELD FieldData 1
TIME 1 1 double
0.0
POINTS 74 double
-0.525731112119 0.0 0.850650808352
-0.850650808352 0.525731112119 0.0
-0.850650808352 -0.525731112119 0.0
0.850650808352 -0.525731112119 0.0
0.688190960236 -0.26286555606 -0.425325404176
0.850650808352 0.0 0.0
0.688190960236 0.26286555606 -0.425325404176
0.525731112119 0.0 -0.850650808352
0.850650808352 0.525731112119 0.0
0.425325404176 0.688190960236 -0.26286555606
0.26286555606 0.425325404176 -0.688190960236
0.0 0.850650808352 0.525731112119
0.0 0.850650808352 -0.525731112119
0.26286555606 -0.425325404176 -0.688190960236
0.0 0.0 -0.850650808352
0.525731112119 0.0 0.850650808352
-0.688190960236 -0.26286555606 -0.425325404176
-0.525731112119 0.0 -0.850650808352
-0.26286555606 -0.425325404176 -0.688190960236
-0.425325404176 -0.688190960236 -0.26286555606
-0.26286555606 0.425325404176 0.688190960236
0.26286555606 -0.425325404176 0.688190960236
0.425325404176 -0.688190960236 0.26286555606
0.688190960236 -0.26286555606 0.425325404176
0.0 -0.850650808352 0.525731112119
0.26286555606 0.425325404176 0.688190960236
-0.26286555606 -0.425325404176 0.688190960236
0.0 -0.425325404176 -0.688190960236
0.13143277803 -0.637988106264 -0.606961036177
-0.13143277803 -0.637988106264 -0.606961036177
0.0 -0.850650808352 -0.525731112119
-0.212662702088 -0.769420884294 0.13143277803
-0.212662702088 -0.769420884294 -0.394298334089
0.0 -0.850650808352 0.0
-0.344095480118 -0.556758182206 -0.475528258148
0.212662702088 -0.769420884294 -0.394298334089
0.212662702088 -0.769420884294 0.13143277803
0.637988106264 -0.606961036177 -0.13143277803
0.344095480118 -0.556758182206 -0.475528258148
-0.425325404176 0.688190960236 -0.26286555606
0.13143277803 0.637988106264 -0.606961036177
-0.26286555606 0.0 -0.850650808352
-0.688190960236 0.26286555606 -0.425325404176
-0.13143277803 0.637988106264 -0.606961036177
-0.556758182206 0.475528258147 -0.344095480118
-0.26286555606 0.425325404176 -0.688190960236
-0.394298334089 0.212662702088 -0.769420884294
0.13143277803 0.212662702088 -0.769420884294
-0.13143277803 0.212662702088 -0.769420884294
0.0 0.425325404176 -0.688190960236
-0.394298334089 0.212662702088 0.769420884294
0.0 0.425325404176 0.688190960236
-0.13143277803 0.212662702088 0.769420884294
0.13143277803 0.212662702088 0.769420884294
0.0 0.0 0.850650808352
-0.26286555606 0.0 0.850650808352
0.394298334089 0.212662702088 0.769420884294
0.26286555606 0.0 0.850650808352
-0.394298334089 -0.212662702088 0.769420884294
-0.13143277803 -0.212662702088 0.769420884294
0.0 -0.425325404176 0.688190960236
0.13143277803 -0.212662702088 0.769420884294
0.394298334089 -0.212662702088 0.769420884294
0.212662702088 -0.769420884294 -0.131432778029
0.318994053132 -0.728805922265 -0.328581945075
0.318994053132 -0.728805922265 -0.065716389015
0.425325404176 -0.688190960236 -0.26286555606
0.53165675522 -0.647575998207 -0.197149167045
0.425325404176 -0.688190960236 0.0
0.384710442147 -0.622474571221 -0.369196907104
0.556758182206 -0.475528258148 -0.344095480118
0.516143220177 -0.409811869133 -0.450426831162
0.66308953325 -0.434913296119 -0.278379091103
0.278379091103 -0.66308953325 -0.434913296118

CELLS 144 576
3 0 1 2
3 3 4 5
3 4 6 5
3 4 7 6
3 5 6 8
3 8 6 9
3 6 10 9
3 6 7 10
3 8 9 11
3 9 12 11
3 7 13 14
3 5 8 15
3 16 2 1
3 17 18 16
3 16 19 2
3 7 4 13
3 11 20 1
3 21 22 23
3 21 24 22
3 23 22 3
3 11 25 8
3 24 26 2
3 13 27 14
3 27 18 14
3 13 28 27
3 28 29 27
3 28 30 29
3 27 29 18
3 15 23 5
3 3 23 5
3 19 31 2
3 2 31 24
3 19 32 31
3 32 33 31
3 32 30 33
3 31 33 24
3 18 34 16
3 34 19 16
3 18 29 34
3 29 32 34
3 29 30 32
3 34 32 19
3 30 35 33
3 33 36 24
3 37 3 22
3 36 22 24
3 13 38 28
3 28 35 30
3 12 39 11
3 11 39 1
3 10 40 9
3 9 40 12
3 17 41 18
3 14 41 18
3 1 42 16
3 17 42 16
3 12 43 39
3 43 44 39
3 43 45 44
3 39 44 1
3 45 46 44
3 46 42 44
3 46 17 42
3 44 42 1
3 14 47 7
3 7 47 10
3 14 48 47
3 48 49 47
3 48 45 49
3 47 49 10
3 14 41 48
3 41 46 48
3 41 17 46
3 48 46 45
3 10 49 40
3 49 43 40
3 49 45 43
3 40 43 12
3 0 50 1
3 50 20 1
3 20 51 11
3 11 51 25
3 20 52 51
3 52 53 51
3 52 54 53
3 51 53 25
3 20 50 52
3 50 55 52
3 50 0 55
3 52 55 54
3 25 53 56
3 53 57 56
3 53 54 57
3 56 57 15
3 0 58 55
3 58 59 55
3 58 26 59
3 55 59 54
3 26 60 59
3 60 61 59
3 60 21 61
3 59 61 54
3 21 60 24
3 26 60 24
3 54 61 57
3 61 62 57
3 61 21 62
3 57 62 15
3 15 62 23
3 62 21 23
3 25 56 8
3 8 56 15
3 26 58 2
3 2 58 0
3 35 63 33
3 63 36 33
3 35 64 63
3 64 65 63
3 64 66 65
3 63 65 36
3 66 67 65
3 67 68 65
3 67 37 68
3 65 68 36
3 36 68 22
3 37 68 22
3 66 69 70
3 69 71 70
3 69 38 71
3 70 71 4
3 4 71 13
3 71 38 13
3 37 72 3
3 3 72 4
3 4 72 70
3 72 67 70
3 72 37 67
3 70 67 66
3 38 73 28
3 73 35 28
3 38 69 73
3 69 64 73
3 69 66 64
3 73 64 35

CELL_TYPES 144
5
5
5
5
5
5
5
5
5
5
5
5
5
5
5
5
5
5
5
5
5
5
5
5
5
5
5
5
5
5
5
5
5
5
5
5
5
5
5
5
5
5
5
5
5
5
5
5
5
5
5
5
5
5
5
5
5
5
5
5
5
5
5
5
5
5
5
5
5
5
5
5
5
5
5
5
5
5
5
5
5
5
5
5
5
5
5
5
5
5
5
5
5
5
5
5
5
5
5
5
5
5
5
5
5
5
5
5
5
5
5
5
5
5
5
5
5
5
5
5
5
5
5
5
5
5
5
5
5
5
5
5
5
5
5
5
5
5
5
5
5
5
5
5

CELL_DATA 144
SCALARS cell_data_0 double
LOOKUP_TABLE default
0.000129693910399
6.92436053671e-06
6.23932302128e-06
1.10108836779e-06
2.20929951269e-06
6.10406997205e-05
7.2745831821e-05
1.68056979082e-06
7.98809184705e-05
0.000105298326074
1.26896663358e-06
3.35060974581e-05
0.000241096785718
0.000144815597397
0.000158940776827
6.92571434366e-07
3.11069803431e-05
2.6114442344e-05
2.92272000363e-05
2.41761401637e-05
9.86316942221e-06
6.63870360548e-05
8.51999077425e-06
1.24676776213e-05
4.50910795763e-06
7.86814816603e-06
1.4251281384e-06
9.40892837698e-06
3.38449135471e-05
7.54852869567e-07
2.39045506987e-06
3.43812698482e-05
2.61834987308e-07
2.25560411026e-06
5.9267154994e-06
2.86599479955e-05
7.53852864955e-05
8.72034197059e-05
2.85560793437e-06
1.97571267512e-06
1.59323281496e-06
4.17322565242e-06
6.53297760487e-06
3.27813110532e-05
2.49393012765e-06
1.13013032592e-05
1.64405707792e-07
7.96693361595e-07
5.20629304422e-06
4.47614455846e-05
3.9693550332e-05
3.95308049545e-05
6.17292965124e-06
4.14510620263e-06
0.000129825061313
0.000152184660237
2.20847254097e-06
1.72958328921e-06
5.5521746178e-05
1.23220704875e-06
5.96281554227e-05
3.08183475489e-06
4.84030097958e-06
1.32557132427e-06
8.70579027891e-07
2.27066508008e-06
3.00705024864e-05
8.68660090316e-05
0.000168822970816
3.63393698781e-05
2.67131984389e-05
3.20849644272e-05
2.41502332644e-06
8.72203951347e-05
3.51296134285e-05
2.94734822478e-05
8.82228246411e-05
6.8727964858e-07
0.00031582112181
0.000299292928813
7.98122118402e-05
0.000205891224659
0.000104636526159
5.32948902112e-05
0.000169254901378
3.08714407571e-05
0.000151998312867
0.000154288295169
5.71151833547e-05
0.000108653330009
1.46085700147e-05
4.23430619504e-05
0.000113308310058
1.4189290535e-05
5.56134342627e-05
3.45873288569e-06
1.68513524683e-05
0.000127347354068
4.92824946863e-05
9.32549371869e-05
5.88787737446e-05
0.000173742903685
0.000165001623763
0.0001649787736
0.000125118150669
7.41136795279e-05
4.59864528587e-05
3.26489526558e-05
2.68876832272e-05
2.78226764243e-05
7.48496928277e-05
3.29095402955e-06
0.000194106148022
0.000285608094576
8.62383623047e-07
2.04209428225e-06
2.62395744121e-07
3.65483417662e-07
4.5826364565e-06
1.67482834268e-06
3.25909735907e-06
3.48301588988e-07
2.80366667204e-08
1.46563314849e-06
3.80205464404e-06
1.83104427339e-06
4.19620884897e-06
1.70312310831e-07
3.03934642586e-07
1.79017144589e-07
3.1493269394e-07
3.21546927973e-07
1.6630919213e-06
4.61967669003e-06
2.34798503244e-07
4.36324917067e-07
7.14470226957e-07
4.15774915896e-06
8.44281379478e-08
1.50438128491e-07
1.32957865854e-07
3.2788685568e-07
3.0311900068e-06
5.01465747747e-07

