# vtk DataFile Version 3.0
File Name: Molecule/sphere_test/sphere_test_0-s2.vtk
ASCII
DATASET UNSTRUCTURED_GRID
FIELD FieldData 1
TIME 1 1 double
0.0
POINTS 51 double
0.850650808352 -0.525731112119 0.0
0.809016994375 -0.309016994375 -0.5
1.0 0.0 0.0
0.809016994375 0.309016994375 -0.5
0.525731112119 0.0 -0.850650808352
0.850650808352 0.525731112119 0.0
0.5 0.809016994375 -0.309016994375
0.309016994375 0.5 -0.809016994375
0.0 0.850650808352 -0.525731112119
0.5 0.809016994375 0.309016994375
0.0 1.0 0.0
0.0 0.850650808352 0.525731112119
-0.309016994375 0.5 0.809016994375
0.309016994375 0.5 0.809016994375
0.0 0.0 1.0
-0.525731112119 0.0 0.850650808352
0.525731112119 0.0 0.850650808352
-0.309016994375 -0.5 0.809016994375
0.309016994375 -0.5 0.809016994375
0.0 -0.850650808352 0.525731112119
0.809016994375 -0.309016994375 0.5
0.5 -0.809016994375 0.309016994375
0.309016994375 -0.5 -0.809016994375
0.0 0.0 -1.0
-0.309016994375 -0.5 -0.809016994375
0.0 -0.850650808352 -0.525731112119
-0.525731112119 0.0 -0.850650808352
0.809016994375 0.309016994375 0.5
-0.809016994375 -0.309016994375 -0.5
-0.809016994375 0.309016994375 -0.5
-1.0 0.0 0.0
-0.850650808352 -0.525731112119 0.0
-0.850650808352 0.525731112119 0.0
-0.309016994375 0.5 -0.809016994375
-0.5 0.809016994375 -0.309016994375
-0.5 -0.809016994375 -0.309016994375
-0.5 -0.809016994375 0.309016994375
0.0 -1.0 0.0
-0.809016994375 -0.309016994375 0.5
-0.809016994375 0.309016994375 0.5
0.5 -0.809016994375 -0.309016994375
-0.25 0.904508497187 0.154508497188
-0.5 0.809016994375 0.309016994375
-0.25 0.904508497187 -0.154508497188
-0.5 0.809016994375 0.0
-0.675325404176 0.667374053247 0.154508497188
-0.675325404176 0.667374053247 -0.154508497188
-0.404508497188 0.654508497187 0.559016994375
-0.654508497187 0.559016994375 0.404508497188
-0.559016994375 0.404508497188 0.654508497187
-0.829833901363 0.417374053247 0.25

CELLS 98 392
3 0 1 2
3 1 3 2
3 1 4 3
3 2 3 5
3 5 3 6
3 3 7 6
3 3 4 7
3 6 7 8
3 5 6 9
3 6 10 9
3 6 8 10
3 9 10 11
3 11 12 13
3 12 14 13
3 12 15 14
3 13 14 16
3 15 17 14
3 17 18 14
3 17 19 18
3 14 18 16
3 16 18 20
3 18 21 20
3 18 19 21
3 20 21 0
3 4 22 23
3 22 24 23
3 22 25 24
3 23 24 26
3 0 2 20
3 2 27 20
3 2 5 27
3 20 27 16
3 5 9 27
3 9 13 27
3 9 11 13
3 27 13 16
3 26 28 29
3 28 30 29
3 28 31 30
3 29 30 32
3 8 33 34
3 33 29 34
3 33 26 29
3 31 35 36
3 35 37 36
3 35 25 37
3 36 37 19
3 31 36 38
3 36 17 38
3 36 19 17
3 38 17 15
3 15 39 38
3 39 30 38
3 38 30 31
3 26 24 28
3 24 35 28
3 24 25 35
3 28 35 31
3 25 40 37
3 40 21 37
3 40 0 21
3 37 21 19
3 4 1 22
3 1 40 22
3 1 0 40
3 22 40 25
3 4 23 7
3 23 33 7
3 23 26 33
3 7 33 8
3 10 41 11
3 11 41 42
3 10 43 41
3 43 44 41
3 43 34 44
3 41 44 42
3 34 43 8
3 8 43 10
3 42 44 45
3 44 46 45
3 44 34 46
3 45 46 32
3 42 47 11
3 11 47 12
3 42 48 47
3 48 49 47
3 48 39 49
3 47 49 12
3 42 45 48
3 45 50 48
3 45 32 50
3 48 50 39
3 12 49 15
3 49 39 15
3 32 46 29
3 29 46 34
3 39 50 30
3 50 32 30

CELL_TYPES 98
5
5
5
5
5
5
5
5
5
5
5
5
5
5
5
5
5
5
5
5
5
5
5
5
5
5
5
5
5
5
5
5
5
5
5
5
5
5
5
5
5
5
5
5
5
5
5
5
5
5
5
5
5
5
5
5
5
5
5
5
5
5
5
5
5
5
5
5
5
5
5
5
5
5
5
5
5
5
5
5
5
5
5
5
5
5
5
5
5
5
5
5
5
5
5
5
5
5

CELL_DATA 98
SCALARS cell_data_0 double
LOOKUP_TABLE default
0.000303536645089
0.00128939720716
0.00077712936448
0.000696506694264
0.0007488369401
0.00143275484402
0.000823659184213
0.000334391416675
0.000216779007213
0.000520590348033
0.000282629072223
0.000145918034101
6.05738762499e-05
0.00012325255308
0.000117072322018
6.9490139958e-05
9.04803733797e-05
8.70402919812e-05
5.1799572374e-05
6.92933707852e-05
6.82321068187e-05
5.20563216874e-05
3.6934981649e-05
4.13472092987e-06
9.04871490029e-06
1.94626523359e-05
7.73452906891e-06
1.92710715402e-05
0.000130632562663
6.87610864038e-05
4.81872542972e-05
5.07277929519e-05
3.47024643314e-05
3.30330470263e-05
3.19514419495e-05
4.89666184488e-05
2.6997024295e-06
3.25926745987e-06
3.65905656836e-06
4.43695363038e-06
5.13308574064e-05
5.04784205775e-05
1.91220911972e-05
1.5729848231e-05
4.12103056155e-05
2.05478284338e-05
9.2208940777e-06
8.77017834766e-06
5.2088414724e-05
4.1455474572e-05
5.7990537578e-05
4.55122334506e-05
2.93517478208e-05
1.408382813e-05
7.62917515294e-06
9.74028221982e-06
1.08988208468e-05
2.4381351228e-06
2.73870917928e-05
1.34978526828e-05
1.39859099149e-05
1.1081718582e-05
0.000100816282011
0.000146857372653
0.000161281327531
1.0916860157e-05
0.00013915413358
0.000212191376604
2.88951046052e-05
0.000170380511109
2.59054870194e-05
4.65181103809e-06
2.67124301973e-05
3.81889525397e-08
6.62934853245e-06
3.70234907761e-06
1.45968288993e-05
5.00173871433e-05
2.86249221607e-06
1.9329984026e-07
5.76481646829e-06
2.03170497209e-06
8.22333254932e-06
2.75785379831e-05
4.62434417906e-06
1.14748388943e-06
7.06457414164e-06
1.38417808578e-05
3.15768597444e-06
2.7960119532e-07
2.13825868902e-06
4.61869149973e-06
5.00226644597e-05
3.63497435243e-05
4.320323396e-06
1.13659004097e-05
8.84056716724e-06
1.42308415599e-06

