# vtk DataFile Version 3.0
File Name: Molecule/sphere_dip_C5/sphere_dip_C5_0-s2.vtk
ASCII
DATASET UNSTRUCTURED_GRID
FIELD FieldData 1
TIME 1 1 double
0.0
POINTS 85 double
0.850650808352 -0.525731112119 0.0
0.809016994375 -0.309016994375 -0.5
1.0 0.0 0.0
0.809016994375 0.309016994375 -0.5
0.525731112119 0.0 -0.850650808352
0.309016994375 -0.5 0.809016994375
0.5 -0.809016994375 0.309016994375
0.809016994375 -0.309016994375 0.5
0.0 -0.850650808352 0.525731112119
0.309016994375 -0.5 -0.809016994375
0.0 0.0 -1.0
-0.309016994375 -0.5 -0.809016994375
0.0 -0.850650808352 -0.525731112119
-0.525731112119 0.0 -0.850650808352
0.809016994375 0.309016994375 0.5
0.850650808352 0.525731112119 0.0
0.525731112119 0.0 0.850650808352
-0.809016994375 -0.309016994375 -0.5
-0.809016994375 0.309016994375 -0.5
-1.0 0.0 0.0
-0.850650808352 -0.525731112119 0.0
-0.309016994375 0.5 -0.809016994375
-0.5 -0.809016994375 -0.309016994375
-0.5 -0.809016994375 0.309016994375
0.0 -1.0 0.0
-0.809016994375 -0.309016994375 0.5
-0.309016994375 -0.5 0.809016994375
-0.809016994375 0.309016994375 0.5
0.5 -0.809016994375 -0.309016994375
0.309016994375 0.5 -0.809016994375
0.862668480416 0.433888564553 -0.259891913008
0.702046444776 0.69378047756 -0.16062203564
0.688190960236 0.587785252292 -0.425325404176
0.5 0.809016994375 -0.309016994375
0.587785252292 0.425325404176 -0.688190960236
0.425325404176 0.688190960236 -0.587785252292
0.259891913008 0.862668480416 -0.433888564553
0.16062203564 0.702046444776 -0.69378047756
0.0 0.850650808352 -0.525731112119
0.702046444776 0.69378047756 0.16062203564
0.525731112119 0.850650808352 0.0
0.5 0.809016994375 0.309016994375
0.26286555606 0.951056516295 -0.162459848116
0.26286555606 0.951056516295 0.162459848116
0.0 1.0 0.0
0.0 0.961938357784 -0.273266528913
0.259891913008 0.862668480416 0.433888564553
0.0 0.961938357784 0.273266528913
0.0 0.850650808352 0.525731112119
-0.259891913008 0.862668480416 0.433888564553
-0.26286555606 0.951056516295 0.162459848116
-0.5 0.809016994375 0.309016994375
-0.26286555606 0.951056516295 -0.162459848116
-0.525731112119 0.850650808352 0.0
-0.5 0.809016994375 -0.309016994375
-0.259891913008 0.862668480416 -0.433888564553
-0.702046444776 0.69378047756 0.16062203564
-0.702046444776 0.69378047756 -0.16062203564
-0.850650808352 0.525731112119 0.0
-0.16062203564 0.702046444776 0.69378047756
-0.425325404176 0.688190960236 0.587785252292
-0.309016994375 0.5 0.809016994375
-0.688190960236 0.587785252292 0.425325404176
-0.587785252292 0.425325404176 0.688190960236
-0.862668480416 0.433888564553 0.259891913008
-0.433888564553 0.259891913008 0.862668480416
-0.69378047756 0.16062203564 0.702046444776
-0.525731112119 0.0 0.850650808352
0.16062203564 0.702046444776 0.69378047756
0.0 0.525731112119 0.850650808352
0.309016994375 0.5 0.809016994375
-0.162459848116 0.26286555606 0.951056516295
0.162459848116 0.26286555606 0.951056516295
0.0 0.0 1.0
-0.273266528913 0.0 0.961938357784
0.433888564553 0.259891913008 0.862668480416
0.273266528913 0.0 0.961938357784
-0.433888564553 -0.259891913008 0.862668480416
-0.162459848116 -0.26286555606 0.951056516295
0.0 -0.525731112119 0.850650808352
0.162459848116 -0.26286555606 0.951056516295
0.433888564553 -0.259891913008 0.862668480416
0.425325404176 0.688190960236 0.587785252292
-0.862668480416 0.433888564553 -0.259891913008
-0.688190960236 0.587785252292 -0.425325404176

CELLS 166 664
3 0 1 2
3 1 3 2
3 1 4 3
3 5 6 7
3 5 8 6
3 7 6 0
3 4 9 10
3 9 11 10
3 9 12 11
3 10 11 13
3 0 2 7
3 2 14 7
3 2 15 14
3 7 14 16
3 13 17 18
3 17 19 18
3 17 20 19
3 21 13 18
3 20 22 23
3 22 24 23
3 22 12 24
3 23 24 8
3 20 23 25
3 23 26 25
3 23 8 26
3 27 19 25
3 25 19 20
3 13 11 17
3 11 22 17
3 11 12 22
3 17 22 20
3 12 28 24
3 28 6 24
3 28 0 6
3 24 6 8
3 4 1 9
3 1 28 9
3 1 0 28
3 9 28 12
3 4 10 29
3 10 21 29
3 10 13 21
3 3 30 2
3 2 30 15
3 15 30 31
3 30 32 31
3 30 3 32
3 31 32 33
3 3 34 32
3 34 35 32
3 34 29 35
3 32 35 33
3 29 34 4
3 4 34 3
3 33 35 36
3 35 37 36
3 35 29 37
3 36 37 38
3 15 31 39
3 31 40 39
3 31 33 40
3 39 40 41
3 33 42 40
3 42 43 40
3 42 44 43
3 40 43 41
3 33 36 42
3 36 45 42
3 36 38 45
3 42 45 44
3 41 43 46
3 43 47 46
3 43 44 47
3 46 47 48
3 48 47 49
3 47 50 49
3 47 44 50
3 49 50 51
3 44 52 50
3 52 53 50
3 52 54 53
3 50 53 51
3 44 45 52
3 45 55 52
3 45 38 55
3 52 55 54
3 51 53 56
3 53 57 56
3 53 54 57
3 56 57 58
3 48 49 59
3 49 60 59
3 49 51 60
3 59 60 61
3 51 62 60
3 62 63 60
3 62 27 63
3 60 63 61
3 51 56 62
3 56 64 62
3 56 58 64
3 62 64 27
3 61 63 65
3 63 66 65
3 63 27 66
3 65 66 67
3 48 59 68
3 59 69 68
3 59 61 69
3 68 69 70
3 61 71 69
3 71 72 69
3 71 73 72
3 69 72 70
3 61 65 71
3 65 74 71
3 65 67 74
3 71 74 73
3 70 72 75
3 72 76 75
3 72 73 76
3 75 76 16
3 67 77 74
3 77 78 74
3 77 26 78
3 74 78 73
3 26 79 78
3 79 80 78
3 79 5 80
3 78 80 73
3 5 79 8
3 8 79 26
3 73 80 76
3 80 81 76
3 80 5 81
3 76 81 16
3 16 81 7
3 81 5 7
3 15 39 14
3 39 41 14
3 41 82 14
3 82 70 14
3 41 46 82
3 46 68 82
3 46 48 68
3 82 68 70
3 70 75 14
3 14 75 16
3 58 83 19
3 19 83 18
3 54 55 21
3 21 55 38
3 18 84 21
3 21 84 54
3 54 84 57
3 84 83 57
3 84 18 83
3 57 83 58
3 26 77 25
3 25 77 67
3 67 66 25
3 66 27 25
3 27 64 19
3 64 58 19
3 38 37 21
3 21 37 29

CELL_TYPES 166
5
5
5
5
5
5
5
5
5
5
5
5
5
5
5
5
5
5
5
5
5
5
5
5
5
5
5
5
5
5
5
5
5
5
5
5
5
5
5
5
5
5
5
5
5
5
5
5
5
5
5
5
5
5
5
5
5
5
5
5
5
5
5
5
5
5
5
5
5
5
5
5
5
5
5
5
5
5
5
5
5
5
5
5
5
5
5
5
5
5
5
5
5
5
5
5
5
5
5
5
5
5
5
5
5
5
5
5
5
5
5
5
5
5
5
5
5
5
5
5
5
5
5
5
5
5
5
5
5
5
5
5
5
5
5
5
5
5
5
5
5
5
5
5
5
5
5
5
5
5
5
5
5
5
5
5
5
5
5
5
5
5
5
5
5
5

CELL_DATA 166
SCALARS cell_data_0 double
LOOKUP_TABLE default
3.95860585659e-05
3.01808960994e-05
0.000138613668258
5.14238560129e-05
7.08401762138e-05
4.86534320929e-05
7.72969501958e-05
1.70184933308e-05
1.04654132139e-05
6.27602643133e-05
4.15324504559e-05
9.5223529919e-05
3.81201161393e-05
0.000168563909404
3.23086136312e-05
3.65437464235e-05
3.960603815e-05
3.32145017341e-05
6.07939979011e-05
5.47193468941e-05
1.0158236346e-05
6.40538582873e-05
8.66862403271e-05
0.000157694861337
0.00012172556245
0.000118508759759
7.14082765282e-05
5.42525960544e-05
8.128671804e-06
2.1995650577e-06
3.16564406609e-05
2.82069606371e-05
6.3033042049e-06
2.12064095925e-05
5.65882516779e-05
6.40698082405e-05
2.16603426375e-05
2.41163778051e-06
2.68428327729e-05
0.000299457130512
0.000223266976653
5.48261230533e-05
1.98962416695e-05
9.41191855474e-06
1.69934662657e-05
8.15572299943e-06
2.37017005693e-05
1.02989138093e-05
2.91415176801e-05
2.10088223498e-05
8.36974428765e-05
2.13478915399e-05
0.000157878696485
8.24033889891e-05
2.30386826789e-05
4.0720612383e-05
9.57172331748e-05
3.25087986525e-05
2.23216783443e-05
1.14555911217e-05
9.04451478878e-06
1.24452984355e-06
1.34923908815e-05
5.15823439204e-06
7.98267393104e-07
9.30086410835e-06
1.74848429347e-05
1.72142342535e-05
1.6104234258e-05
5.78140805317e-06
1.67551844992e-05
1.76818050411e-05
1.15852080909e-05
2.32565477916e-05
2.02771176211e-05
1.43368791951e-05
1.16169201579e-05
1.00959636966e-05
5.25348943642e-06
1.97283749828e-05
2.97344420633e-05
1.26421044918e-05
1.87019164827e-06
2.34226679946e-05
2.72628693182e-05
2.42119635961e-05
5.00349191618e-05
6.93123834347e-05
3.32088994615e-05
3.23390001797e-05
1.70433435132e-05
1.40649396915e-05
1.39590003404e-05
3.40293370397e-05
1.66913595457e-05
2.38664404353e-05
2.00538913361e-05
4.04005064502e-05
6.24373513816e-05
0.000128436966091
6.45685554431e-05
5.7328242202e-05
4.17646256631e-05
1.6199318787e-07
4.74540570337e-06
1.06872112628e-06
4.38724337762e-06
4.38649394748e-05
1.8302179085e-05
1.35597894802e-05
2.93473429245e-05
7.09268827909e-05
8.97272562127e-05
2.49945472946e-05
5.27507178814e-05
2.34005270753e-05
1.98192157366e-05
8.42420925095e-05
1.13558343973e-06
2.67255936262e-05
7.16468897578e-05
4.72105037052e-05
1.13971118571e-06
7.9353141557e-07
1.40179236494e-05
8.43129652921e-05
2.07314698913e-05
5.4408540837e-06
7.38424349263e-06
0.000104371025056
2.30724825326e-05
5.38056671457e-05
8.43591691392e-05
1.602619316e-06
9.75530550489e-06
4.72370205169e-05
7.48589226485e-05
5.97312586248e-07
3.52151008695e-06
3.45519795634e-05
5.33513862709e-05
8.03411643852e-05
1.35100208887e-05
2.23152618433e-06
1.24848175083e-05
5.50098280497e-06
7.58657944348e-05
9.39449605986e-05
1.88974832812e-05
1.31442701253e-05
3.89251659382e-05
4.62947174536e-05
3.8426849993e-06
5.12493994082e-06
1.18262565293e-05
7.60285454437e-06
3.59975271182e-08
3.7867465212e-06
5.94716913508e-05
3.22575730203e-05
5.34377604442e-06
2.96295251093e-05
1.94503724541e-05
3.37741391866e-05
4.35709283843e-05
0.000144645010093

