# vtk DataFile Version 3.0
File Name: Molecule/sphere_dip_C5/sphere_dip_C5_0-s5.vtk
ASCII
DATASET UNSTRUCTURED_GRID
FIELD FieldData 1
TIME 1 1 double
0.0
POINTS 1187 double
0.525731112119 0.850650808352 0.0
0.26286555606 0.951056516295 0.162459848116
0.5 0.809016994375 0.309016994375
0.259891913008 0.862668480416 0.433888564553
0.162459848116 0.26286555606 -0.951056516295
0.0 0.525731112119 -0.850650808352
0.309016994375 0.5 -0.809016994375
0.453990499739 0.468429850867 -0.757935420048
0.37174803446 0.601500955008 -0.707106781186
0.237086325351 0.606825149272 -0.758652300163
0.296004592578 0.702309846744 -0.647411893882
-0.5 0.809016994375 0.309016994375
-0.519258489728 0.840177885327 0.15643446504
-0.606825149272 0.758652300163 0.237086325351
-0.620239582613 0.78020437071 0.08114185162
-0.601500955008 0.707106781186 0.37174803446
-0.702309846744 0.647411893882 0.296004592578
0.425325404176 0.688190960236 0.587785252292
0.468429850867 0.757935420048 0.453990499739
0.296004592578 0.702309846744 0.647411893882
0.37174803446 0.601500955008 0.707106781186
0.237086325351 0.606825149272 0.758652300163
0.0 -0.850650808352 -0.525731112119
0.259891913008 -0.862668480416 -0.433888564553
0.0 -0.961938357784 -0.273266528913
0.26286555606 -0.951056516295 -0.162459848116
0.5 -0.809016994375 -0.309016994375
0.0 -1.0 0.0
0.862668480416 -0.433888564553 -0.259891913008
0.702046444776 -0.69378047756 -0.16062203564
0.688190960236 -0.587785252292 -0.425325404176
0.309016994375 -0.5 -0.809016994375
0.425325404176 -0.688190960236 -0.587785252292
0.16062203564 -0.702046444776 -0.69378047756
0.843911474622 0.375038567478 -0.383613732685
0.862668480416 0.433888564553 -0.259891913008
0.965056599484 0.224799542734 -0.134651124684
0.864929335863 0.484441642061 -0.131200378813
0.792649229259 0.571251659136 -0.213022865649
0.78384304242 0.615642020874 -0.0810862934433
0.702046444776 0.69378047756 -0.16062203564
0.783451698363 0.516121620051 -0.346153014789
0.702309846744 0.647411893882 -0.296004592578
0.688190960236 0.587785252292 -0.425325404176
0.757935420048 0.453990499739 -0.468429850867
0.809016994375 0.309016994375 -0.5
0.606825149272 0.758652300163 -0.237086325351
0.601500955008 0.707106781186 -0.37174803446
0.468429850867 0.757935420048 -0.453990499739
0.346153014789 0.783451698363 -0.516121620051
0.383613732685 0.843911474622 -0.375038567478
0.425325404176 0.688190960236 -0.587785252292
0.259891913008 0.862668480416 -0.433888564553
0.711281734962 0.702907030488 0.0
0.78384304242 0.615642020874 0.0810862934433
0.702046444776 0.69378047756 0.16062203564
0.131655371352 0.924304600611 0.358228793487
0.131200378813 0.864929335863 0.484441642061
0.0 0.915043421233 0.403355348617
0.0 0.850650808352 0.525731112119
-0.131200378813 0.864929335863 0.484441642061
-0.131655371352 0.924304600611 0.358228793487
0.0 0.961938357784 0.273266528913
-0.259891913008 0.862668480416 0.433888564553
-0.132792476828 0.966392597402 0.220117027473
-0.264082750659 0.916244175191 0.301258879093
-0.26286555606 0.951056516295 0.162459848116
0.0 0.990438881957 0.137952242128
-0.133071104141 0.987688340595 0.0822424652791
-0.383613732685 0.843911474622 0.375038567478
-0.386187385588 0.891006524188 0.238676930319
0.0 1.0 0.0
-0.133071104141 0.987688340595 -0.0822424652791
-0.266404701135 0.963861263467 0.0
-0.26286555606 0.951056516295 -0.162459848116
-0.399607051702 0.912982492932 -0.0823235800317
-0.399607051702 0.912982492932 0.0823235800317
-0.525731112119 0.850650808352 0.0
-0.386187385588 0.891006524188 -0.238676930319
-0.519258489728 0.840177885327 -0.15643446504
-0.5 0.809016994375 -0.309016994375
0.0 0.990438881957 -0.137952242128
-0.132792476828 0.966392597402 -0.220117027473
0.0 0.961938357784 -0.273266528913
-0.131655371352 0.924304600611 -0.358228793487
-0.264082750659 0.916244175191 -0.301258879093
-0.259891913008 0.862668480416 -0.433888564553
-0.383613732685 0.843911474622 -0.375038567478
-0.0810862934433 0.78384304242 0.615642020874
-0.213022865649 0.792649229259 0.571251659136
-0.16062203564 0.702046444776 0.69378047756
-0.425325404176 0.688190960236 0.587785252292
-0.587785252292 0.425325404176 0.688190960236
-0.707106781186 0.37174803446 0.601500955008
-0.647411893882 0.296004592578 0.702309846744
-0.758652300163 0.237086325351 0.606825149272
-0.809016994375 0.309016994375 0.5
-0.69378047756 0.16062203564 0.702046444776
0.850650808352 0.525731112119 0.0
0.862668480416 0.433888564553 0.259891913008
0.782888506207 0.519553709322 0.342271135182
0.809016994375 0.309016994375 0.5
0.213022865649 0.792649229259 0.571251659136
0.0810862934433 0.78384304242 0.615642020874
0.16062203564 0.702046444776 0.69378047756
0.0810862934433 -0.78384304242 0.615642020874
0.0 -0.850650808352 0.525731112119
0.131200378813 -0.864929335863 0.484441642061
0.891006524188 0.238676930319 0.386187385588
0.840177885327 0.15643446504 0.519258489728
0.912982492932 0.0823235800317 0.399607051702
0.850650808352 0.0 0.525731112119
0.912982492932 -0.0823235800317 0.399607051702
0.840177885327 -0.15643446504 0.519258489728
0.809016994375 -0.309016994375 0.5
0.758652300163 -0.237086325351 0.606825149272
0.78020437071 -0.08114185162 0.620239582613
0.69378047756 -0.16062203564 0.702046444776
0.78020437071 0.08114185162 0.620239582613
0.702907030488 0.0 0.711281734962
0.69378047756 0.16062203564 0.702046444776
0.758652300163 0.237086325351 0.606825149272
0.615642020874 -0.0810862934433 0.78384304242
0.615642020874 0.0810862934433 0.78384304242
-0.5 -0.809016994375 0.309016994375
-0.264082750659 -0.916244175191 0.301258879093
-0.259891913008 -0.862668480416 0.433888564553
-0.26286555606 -0.951056516295 0.162459848116
-0.132792476828 -0.966392597402 0.220117027473
-0.131655371352 -0.924304600611 0.358228793487
0.0 -0.961938357784 0.273266528913
-0.131200378813 -0.864929335863 0.484441642061
0.0 -0.915043421233 0.403355348617
-0.702046444776 -0.69378047756 0.16062203564
-0.702309846744 -0.647411893882 0.296004592578
-0.792649229259 -0.571251659136 0.213022865649
-0.783451698363 -0.516121620051 0.346153014789
-0.688190960236 -0.587785252292 0.425325404176
-0.862668480416 -0.433888564553 0.259891913008
-0.757935420048 -0.453990499739 0.468429850867
-0.843911474622 -0.375038567478 0.383613732685
-0.564254211766 -0.646577791798 0.51337544123
-0.646577791798 -0.51337544123 0.564254211766
-0.707106781186 -0.37174803446 0.601500955008
-0.809016994375 -0.309016994375 0.5
-0.213022865649 -0.792649229259 0.571251659136
-0.346153014789 -0.783451698363 0.516121620051
-0.296004592578 -0.702309846744 0.647411893882
-0.16062203564 -0.702046444776 0.69378047756
-0.0810862934433 -0.78384304242 0.615642020874
-0.425325404176 -0.688190960236 0.587785252292
-0.37174803446 -0.601500955008 0.707106781186
-0.891006524188 0.238676930319 0.386187385588
-0.840177885327 0.15643446504 0.519258489728
-0.912982492932 0.0823235800317 0.399607051702
0.5 -0.809016994375 0.309016994375
0.386187385588 -0.891006524188 0.238676930319
0.525731112119 -0.850650808352 0.0
0.396525177464 -0.914857743445 -0.0761780342124
0.26286555606 -0.951056516295 0.162459848116
0.133071104141 -0.987688340595 0.0822424652791
0.622785464303 -0.778605872826 -0.0768840702267
0.259891913008 -0.862668480416 0.433888564553
0.131655371352 -0.924304600611 0.358228793487
0.375038567478 -0.383613732685 -0.843911474622
0.453990499739 -0.468429850867 -0.757935420048
0.56541318032 -0.641591214532 -0.518332565981
0.587785252292 -0.425325404176 -0.688190960236
0.707106781186 -0.37174803446 -0.601500955008
0.220117027473 0.132792476828 -0.966392597402
0.301258879093 0.264082750659 -0.916244175191
0.358228793487 0.131655371352 -0.924304600611
0.433888564553 0.259891913008 -0.862668480416
0.0822424652791 0.133071104141 -0.987688340595
-0.0822424652791 0.133071104141 -0.987688340595
0.0 0.266404701135 -0.963861263467
0.7604059656 0.341435044712 -0.552453507295
0.704558154249 0.48451809344 -0.518497853815
0.707106781186 0.37174803446 -0.601500955008
0.64944804833 0.399769073957 -0.646839949314
0.646577791798 0.51337544123 -0.564254211766
0.587785252292 0.425325404176 -0.688190960236
0.552418100796 0.496441341615 -0.669612004259
0.606887849479 0.581872755434 -0.541397483036
0.51337544123 0.564254211766 -0.646577791798
0.470917043521 0.628312822406 -0.619241580744
0.564254211766 0.646577791798 -0.51337544123
0.522498564715 0.448259461843 -0.725299045042
0.48520827912 0.517970331272 -0.70447119302
0.447015590794 0.366684154026 -0.815916535421
0.518067092829 0.346843956723 -0.781860445995
0.504617832145 0.239981252547 -0.829318902418
0.572061402817 0.218508012224 -0.790569415042
0.583841056621 0.324091448178 -0.744375143205
0.484441642061 0.131200378813 -0.864929335863
0.552604380112 0.109992082294 -0.826153824002
0.634988226288 0.190184193111 -0.748745567711
0.615642020874 0.0810862934433 -0.78384304242
0.64586883049 0.298028036758 -0.7028746283
0.705297005853 0.268029432135 -0.656289842252
0.69378047756 0.16062203564 -0.702046444776
0.758652300163 0.237086325351 -0.606825149272
0.361591795649 0.697036981561 -0.619185610019
0.280505897816 0.789689530894 -0.545625224936
0.16062203564 0.702046444776 -0.69378047756
0.0810862934433 0.78384304242 -0.615642020874
0.131200378813 0.864929335863 -0.484441642061
0.0 0.915043421233 -0.403355348617
-0.131200378813 0.864929335863 -0.484441642061
-0.574457742135 0.817522985727 0.040675180516
-0.662841946345 0.738886266264 0.121192572763
-0.702046444776 0.69378047756 0.16062203564
-0.574457742135 0.817522985727 -0.040675180516
-0.622291549536 0.782785556443 0.0
-0.620239582613 0.78020437071 -0.08114185162
-0.66750240512 0.743495740018 -0.0406770664482
-0.66750240512 0.743495740018 0.0406770664482
-0.711281734962 0.702907030488 0.0
-0.662841946345 0.738886266264 -0.121192572763
-0.70896915298 0.700621677085 -0.0805729838195
-0.702046444776 0.69378047756 -0.16062203564
-0.70896915298 0.700621677085 0.0805729838195
-0.606825149272 0.758652300163 -0.237086325351
-0.564885986253 0.801372217268 -0.196739401049
[...]
CELL_DATA 2370
SCALARS cell_data_0 double
LOOKUP_TABLE default
3.59536972214e-06
5.69868510945e-06
4.10581181201e-05
9.30802047314e-06
9.31272029278e-06
9.74373501863e-06
8.21376284499e-06
7.31566309713e-06
7.94978779865e-06
6.18814974418e-06
1.37468513377e-05
1.49441467009e-05
9.14182011576e-06
1.10468440939e-05
1.65866035592e-05
6.23726277168e-06
1.94694557342e-06
3.22848558607e-06
6.24681733783e-06
2.70287813468e-06
1.0340309445e-05
7.74955414444e-06
3.55719556174e-06
1.58274247282e-06
6.30451024006e-06
4.27060909796e-06
4.32024728232e-06
6.03341144393e-06
2.67631834475e-06
3.53529867071e-06
2.32331204553e-06
4.27248319466e-06
3.92780005392e-06
3.12732572551e-06
1.95017381524e-06
2.80254549894e-06
6.44802195857e-06
5.12135602664e-06
3.76999675009e-06
3.19084100951e-06
1.945637241e-06
3.19646647135e-07
3.96308718906e-06
2.02227273408e-06
1.60176711519e-06
4.99756591596e-06
2.53674748424e-06
5.60799242648e-06
1.11434081728e-05
7.20327584705e-06
3.94966059382e-06
6.16306002793e-06
1.18531282042e-05
1.10283533158e-05
5.55750809337e-06
1.13085343027e-05
1.26146071038e-05
7.70185031757e-06
1.62178704878e-05
1.26815363724e-05
1.51841436822e-05
2.03032128811e-05
2.91879383467e-05
2.29719221048e-05
1.87118247313e-05
2.83877377796e-05
3.68242473611e-05
2.81396246917e-05
2.09280846291e-05
3.02713303756e-05
4.05045189764e-05
3.23956251097e-05
2.83509578216e-05
2.137390986e-05
1.14084538938e-05
2.13584086774e-05
2.27986364291e-05
3.79598469113e-05
2.87507423173e-05
2.41411095928e-05
2.38462880262e-05
5.07353770455e-05
3.97792682123e-05
4.47470629699e-05
9.72143836081e-06
2.84307690957e-05
1.30977817612e-05
1.9316808666e-05
6.20639077462e-06
1.21395888584e-05
7.49350190523e-07
7.93998501491e-06
1.89794431692e-05
5.11592999921e-05
2.20154320786e-05
2.42618783153e-05
3.06753265721e-05
9.40098398446e-05
3.0532196817e-05
7.17960126539e-05
9.52198986354e-06
3.41353548588e-05
1.20356296508e-05
2.68299060503e-05
2.77627337109e-05
4.08563425087e-05
4.85846304598e-05
4.53569346963e-05
7.06502905785e-05
1.11642628289e-05
3.74483892352e-05
3.58045312098e-05
1.42851921679e-05
3.83790564878e-05
6.11561129784e-05
2.73842021577e-05
2.99442719666e-05
3.93876837267e-05
6.20160107941e-05
2.68990106078e-05
2.67519823366e-05
2.04149038935e-05
1.77014429626e-05
2.18188651313e-05
3.13373452528e-05
3.63242965499e-05
2.33900073225e-05
2.38540777034e-05
2.60220109663e-05
1.09552763389e-05
1.09791335369e-05
1.24549841007e-05
1.6247426459e-06
1.1127424082e-05
1.75875891652e-05
1.5617821284e-05
1.55734290318e-05
9.03839847123e-06
1.17932317302e-05
6.47157216678e-06
3.21731082668e-06
2.58693038272e-06
8.73379499319e-06
8.50732751061e-06
3.31948230632e-07
6.59982491124e-07
5.1288379579e-06
6.93117386062e-06
1.21903488113e-05
5.69655768692e-06
1.08235483768e-05
3.08926111469e-06
2.29170548345e-07
1.20639292167e-05
2.10551116248e-06
3.94678338208e-06
1.66698347759e-06
3.50900538959e-06
2.49586473098e-06
2.98322267814e-06
1.80673191287e-06
5.65415050337e-07
1.89667381468e-06
2.86020053735e-06
6.85743919711e-06
7.28436039795e-06
4.73531432374e-07
5.06817063427e-06
2.49853043014e-06
4.68289832589e-06
1.48898154961e-05
1.4455435459e-05
1.23375333808e-05
1.56598612108e-05
8.59601094217e-06
9.31868473033e-06
1.16291943847e-05
4.40095943918e-06
4.01041826139e-06
7.14607859301e-06
6.00186560578e-06
7.28724929705e-06
9.76535430737e-06
1.42107879927e-05
1.39752150245e-05
2.1960731442e-05
1.91498722606e-05
3.2989441964e-05
2.11881585566e-06
2.04146146254e-06
1.91145682525e-06
1.60861887614e-06
1.72586081277e-06
8.28037267934e-07
3.40044693372e-07
6.12493314251e-07
6.09538881787e-07
5.1994291837e-07
1.88706681482e-06
5.07216513996e-08
1.37976906848e-06
1.28544587128e-06
1.59828503567e-06
1.25484224434e-06
3.19590426184e-07
2.46919344819e-07
6.59700154609e-07
9.29159548341e-07
3.04596171973e-06
2.88070796005e-06
1.78152085902e-06
2.96851928632e-06
4.81684147267e-06
5.54218275241e-06
1.21280701265e-06
1.83616157179e-06
3.79280189714e-06
3.41998689387e-06
1.132117771e-06
1.31288840778e-06
1.31939004795e-06
3.1529242555e-06
4.32193567542e-06
4.32622283528e-06
5.57394590959e-06
1.50609389444e-05
4.70053395178e-06
4.09185970545e-06
3.32734558719e-06
3.04766071849e-06
5.24382065706e-06
4.20560318638e-06
2.2991106014e-06
1.41876527435e-06
1.85095088989e-06
9.68419539316e-06
2.22629521676e-06
2.05323487315e-06
2.36923460599e-06
2.34766125767e-06
1.78100754218e-06
1.26056510266e-06
3.6280812866e-06
3.20333608532e-06
2.21359221572e-06
5.52103261903e-06
1.2124737266e-05
1.41551186485e-05
1.44167475325e-05
1.21440735782e-05
7.06149905551e-06
2.05868419912e-05
1.61215212112e-05
2.55463496714e-06
2.29502372769e-06
2.44435417913e-06
1.74087356714e-06
9.30744780104e-07
4.67359913104e-07
1.30398378355e-06
9.13284405258e-07
1.47623351174e-06
1.02456510923e-07
4.8631672814e-07
3.71809661262e-07
8.41863852391e-07
2.43886195432e-07
1.58928467947e-07
6.26716808059e-07
1.45005464973e-07
6.50617554569e-07
1.45146515382e-07
9.71623202238e-08
7.39001512473e-06
5.67132114648e-06
5.82143631544e-07
1.09780232981e-05
6.40601378585e-06
3.09019070883e-06
1.40486130142e-06
5.41778183699e-06
4.11752259739e-07
5.98855695394e-07
2.27002138111e-07
5.18575561142e-07
6.41298960029e-07
9.49694562891e-08
1.12581145711e-06
7.45659324944e-07
3.72965064881e-07
2.36045559562e-07
2.8501959099e-08
1.21567386089e-06
7.30022544083e-07
3.20112093477e-07
8.12171382236e-07
4.81567735346e-07
3.64711399134e-06
3.27830116895e-06
4.62356470396e-07
3.56855276096e-07
3.80374244999e-07
5.83036511961e-07
8.2926767255e-07
6.75971927482e-07
1.28500500562e-06
7.64829382462e-07
7.0034951667e-07
6.19822404469e-07
9.89649275298e-07
5.21322657904e-07
4.66531853606e-07
2.49075668545e-07
7.69326406761e-07
6.23492691551e-07
6.43393230698e-07
1.46488341675e-07
8.76960388449e-07
5.17386525524e-07
8.03296369287e-07
3.52307055031e-07
3.67293345548e-07
7.15808676192e-07
2.79839620338e-07
1.03958977991e-08
6.24311913087e-08
8.75227703428e-07
1.79524146727e-07
4.49922964493e-07
4.32288337418e-08
9.0652255757e-08
5.04477004216e-07
2.27860350103e-07
4.93844327035e-07
1.46062137777e-06
3.50568798957e-07
6.86577899007e-07
9.23861678922e-07
7.36259775613e-07
2.9754999523e-07
5.01744797208e-07
8.18956991878e-07
8.08230136816e-07
6.17442765978e-07
1.42488306288e-06
1.01106120831e-06
1.71911232674e-06
1.70947660448e-06
1.1094035129e-07
7.09856262797e-07
4.64794777229e-06
1.16432557767e-06
3.75631052476e-06
2.04494302492e-06
4.49846275208e-06
1.99140811935e-06
2.5150897061e-06
2.81854208974e-06
2.9387500884e-06
2.67838326099e-06
6.73806664858e-06
4.31389559224e-06
3.00069408722e-06
3.21241459767e-06
3.6105177891e-06
3.16027317136e-06
6.846944152e-06
6.79470683154e-06
6.47578458138e-06
6.54510912632e-06
6.83411057634e-06
6.91021007567e-06
7.20565926477e-06
7.24206392457e-06
7.17525782998e-06
7.07571117102e-06
7.18962960341e-06
7.25377725372e-06
7.36830902202e-06
7.10530877175e-06
6.71399304086e-06
6.59243356042e-06
6.78606879891e-06
6.43263875846e-06
9.70702604179e-06
1.06311071018e-05
5.96778265231e-06
5.96407558626e-06
5.88332179291e-06
6.41831069265e-06
1.04112150413e-05
8.24261889532e-06
1.0049456564e-05
8.64019111182e-06
6.89629357154e-06
9.15381403495e-06
6.09518677022e-06
5.9392563818e-06
6.38775493145e-06
6.3928362662e-06
6.78914823464e-06
6.50577117202e-06
6.35798920857e-06
5.69277286313e-06
6.0439068565e-06
6.66378505211e-06
6.61755606792e-06
7.18154935095e-06
6.98660093156e-06
7.25669444932e-06
6.02152742248e-06
6.20448626469e-06
6.76751396727e-06
6.0891893943e-06
6.85427204806e-06
5.66480181643e-06
6.81846075809e-06
6.43408208139e-06
6.72950158222e-06
6.88396595124e-06
6.78110248508e-06
6.78241171401e-06
6.20526499853e-06
5.09115342829e-06
6.69841782375e-06
5.80156372704e-06
8.80295040665e-06
5.94857125783e-06
3.75991227242e-06
8.27530025109e-06
7.19542997794e-06
8.32445803034e-06
7.17401213959e-06
9.38186992292e-06
1.02975613029e-05
1.07330940369e-05
1.23391057355e-05
1.15384589517e-05
1.23155681838e-05
5.23976141744e-06
4.28379693969e-06
5.99091834532e-06
5.7707199649e-06
6.01640871349e-06
5.27386860425e-06
6.16591078141e-06
6.67492561825e-06
6.35325462332e-06
5.18462902997e-06
6.8513816505e-06
6.89773309897e-06
6.00060784739e-06
4.38282412139e-06
5.567733093e-06
6.48093559804e-06
7.13283291418e-06
5.76922584471e-06
7.01027600497e-06
7.25399852387e-06
4.3122982003e-06
7.63883896573e-06
7.28913245852e-06
4.10884577175e-06
7.8732631181e-06
7.94369150031e-06
1.65594438635e-05
8.23529709699e-06
4.76224764307e-06
8.0594435523e-06
8.29334299987e-06
4.8460103942e-06
7.1290071144e-06
5.43977463486e-06
6.89462422621e-06
7.00158499694e-06
6.74746864962e-06
4.38403436919e-06
6.25310591905e-06
6.87232265224e-06
1.38225106906e-05
6.66046822476e-06
4.07261054135e-06
5.99132310425e-06
5.53452048929e-06
5.86834068578e-06
3.12798798926e-06
5.1880275595e-06
5.18424173032e-06
8.85696337182e-06
7.65277871435e-06
4.61877264318e-06
6.54149004919e-06
6.31346798076e-06
1.78631388512e-06
4.75162808381e-06
2.22162658212e-06
4.35981233877e-06
5.22943044804e-06
2.91324941348e-06
4.45582242013e-06
4.18798733627e-06
5.2026455897e-06
4.61872955304e-06
2.14659971854e-05
2.4787322676e-05
2.204076992e-05
4.73497598588e-05
6.76084964154e-05
2.53620665047e-05
3.48675058415e-06
1.05425393587e-05
1.11561247443e-05
1.19388139271e-05
1.21847673394e-05
1.57975480565e-06
1.13318333329e-06
1.32779589122e-06
1.61298609593e-06
2.47906129942e-05
2.08951788588e-06
3.00506660469e-07
4.4485815768e-06
8.91056321886e-06
9.68272672184e-06
9.39992915748e-06
2.51662760859e-05
5.5869639669e-06
1.76829928191e-05
1.51872888869e-05
1.40618934605e-06
5.9835724332e-06
2.92929573369e-06
1.24274449996e-05
1.31387367274e-05
2.76932025296e-05
1.53559419365e-05
2.15712674741e-05
3.43312140749e-06
1.15512501412e-05
1.56792094089e-05
2.00872140595e-05
1.43632592629e-05
8.34850242343e-06
9.32176347188e-06
3.99092376322e-06
9.77830388586e-06
1.57014275799e-05
2.94706111285e-05
1.97465510123e-05
1.41147919888e-05
7.22766795522e-06
1.49292958544e-05
3.60671503942e-06
1.62483953484e-05
1.5175261498e-05
2.44682943748e-05
1.44839003687e-05
1.07777091278e-05
2.70422028916e-05
1.5405822542e-05
2.59662349913e-05
2.37144902961e-05
1.88366869702e-05
3.43010908254e-05
1.22187398986e-05
1.38625198623e-05
6.36270484037e-05
0.000126239802167
6.754162615e-05
7.89000730163e-05
9.16828239651e-05
0.000135371582631
7.31493001338e-05
6.54217686994e-05
4.04220636487e-05
6.20791657362e-05
3.09128556076e-05
3.55527602615e-05
3.03682489375e-05
5.75859575405e-05
4.35633852838e-05
3.31252015659e-05
2.19690419134e-05
3.39126900555e-05
2.7752353376e-05
2.40838092174e-05
2.69065804702e-05
4.79884845622e-05
2.2494109687e-05
4.02994708842e-05
2.35304794712e-05
4.22372671539e-05
2.45380545188e-05
3.48903086456e-05
5.50672426407e-05
0.000110033020609
7.07961643373e-05
6.59540172117e-05
4.77768608452e-05
0.000100123900615
6.83360747559e-05
5.12802545337e-05
7.34628209855e-05
0.000123860159873
7.05601140382e-05
7.50485079775e-05
2.79416877099e-05
5.99288496112e-05
4.18734710772e-05
3.60444856985e-05
4.72252612754e-05
6.98895329669e-05
4.39216261037e-05
4.03317806343e-05
4.91916504983e-05
6.38820576908e-05
3.41365071066e-05
3.60508623433e-05
3.02784465014e-05
4.40230961033e-05
3.14922355221e-05
1.73130604698e-05
2.98733557554e-05
5.70736196038e-05
4.12665930969e-05
3.83622770816e-05
4.42369778923e-05
5.6751328695e-05
3.53274008502e-05
3.68298900643e-05
3.6864981277e-05
4.68458708331e-05
2.2849970371e-05
3.25340095105e-05
2.76501101271e-05
4.62601266129e-05
3.47141933847e-05
2.43749166161e-05
1.39626060832e-05
2.11014061231e-05
1.63430194538e-05
1.55415724414e-05
1.2074944477e-05
2.20464948395e-05
1.12534931401e-05
1.89802204885e-05
1.58698547791e-05
3.034334056e-05
2.38215856886e-05
1.93118827935e-05
2.14217999907e-05
4.23623473011e-05
3.3122119895e-05
2.87071788864e-05
9.16989642228e-05
0.00016664479008
9.90898124516e-05
8.84110034368e-05
6.37738264127e-05
0.000118067718803
8.59657042462e-05
4.90593984842e-05
5.42792724882e-05
8.27332337342e-05
5.11257416786e-05
5.26741784876e-05
1.1521230842e-05
8.69000507193e-06
1.12353251814e-05
1.5150166312e-05
4.13735139419e-06
8.63890478653e-06
3.87130283519e-06
3.66908895014e-06
1.17957369113e-06
3.93451624036e-07
1.47425465046e-05
7.52966994915e-06
9.94273581636e-06
1.4849732759e-05
8.02183530974e-06
6.74462688802e-06
3.1757804364e-06
1.19850740333e-05
2.85891159208e-06
6.23295345977e-06
4.6779847338e-06
1.16261440359e-05
3.9296206216e-06
5.46988476299e-06
3.5032233921e-06
5.21827864441e-06
1.7777691356e-06
2.81465904562e-06
5.92334554893e-07
1.30503755539e-06
2.57393420059e-08
1.20071340431e-06
1.04456535937e-06
1.86954922509e-06
4.58267852982e-07
2.20601970624e-06
6.48056462464e-08
5.94492184952e-07
2.56126744285e-06
9.64770173463e-07
1.85602354304e-06
2.70655747622e-06
1.34609506621e-06
2.04943548394e-06
2.8130260725e-06
2.70849603337e-06
9.75268030947e-08
1.21464996665e-06
9.91203503103e-07
2.90645261528e-06
3.05460896145e-06
3.11502247142e-06
3.24023425339e-06
3.43004302738e-06
3.43489557749e-06
4.10658656165e-06
4.77240783206e-06
4.06646827843e-06
5.11311837004e-06
4.66358776005e-06
5.5433512311e-06
4.30988615547e-06
5.44583971544e-06
5.48536079756e-06
6.07858618145e-06
5.77286212284e-06
4.18213700624e-06
4.23330613886e-06
5.30741507877e-06
4.37411144385e-06
5.77224173702e-06
4.56799054183e-06
5.76640675008e-06
4.74301626646e-06
4.17311895712e-06
3.39229338045e-06
5.12350379722e-06
4.21959908544e-06
5.24547081916e-06
3.66224177232e-06
5.15465562546e-06
4.54512199027e-06
4.09881072658e-06
2.47167603548e-06
4.67180404154e-06
3.17011985336e-06
1.3775286233e-06
2.06022701265e-06
2.525974306e-06
3.96469981711e-06
3.349027943e-06
3.12736590924e-06
4.48551802236e-06
4.18466252556e-06
3.00701125438e-06
1.96878524173e-06
3.09718509177e-06
4.14725012753e-06
4.51832080891e-06
4.83845485137e-06
4.91073532286e-06
5.13554940956e-06
3.63078931066e-06
3.99368204733e-06
4.39335140523e-06
3.89451737272e-06
4.49672518427e-06
4.41705036743e-06
4.5811049208e-06
4.18024549311e-06
4.60583578347e-06
4.74309012569e-06
4.98367664502e-06
4.72343674932e-06
4.07012784348e-06
4.21043228843e-06
4.41495188437e-06
4.11117225598e-06
5.49042747503e-06
5.23820758543e-06
5.15852278138e-06
5.0421475826e-06
4.76524905375e-06
4.64957128456e-06
4.8334243137e-06
4.41744365781e-06
4.16673020612e-06
4.32586185789e-06
4.51824024927e-06
4.24598529256e-06
4.65110370892e-06
4.52325319617e-06
4.55606700509e-06
4.36171312876e-06
4.67617901885e-06
4.84467172961e-06
5.17398382098e-06
4.79921919512e-06
3.98416940552e-06
4.03374914487e-06
3.87556455722e-06
4.38990599717e-06
4.13054577142e-06
4.37868476808e-06
4.41554891089e-06
4.5355715048e-06
3.91418576079e-06
3.96461240187e-06
3.73517167053e-06
4.18317179606e-06
4.72808507568e-06
4.82543669622e-06
4.5911476821e-06
5.0441903963e-06
4.42791884686e-06
4.68752448297e-06
4.68577436755e-06
5.00005916395e-06
4.9682004486e-06
5.23985455558e-06
5.39457292391e-06
5.31693511825e-06
4.83262972834e-06
5.04051755078e-06
4.93553661188e-06
5.26003982107e-06
5.50366326849e-06
5.79443608442e-06
5.67393994357e-06
6.05998096848e-06
5.34334724586e-06
5.67157586774e-06
5.75835098645e-06
5.76503969948e-06
6.14395978435e-06
6.36183691848e-06
6.64251928544e-06
6.14201224236e-06
6.19212273095e-06
6.5121419834e-06
6.54663146732e-06
6.64741695102e-06
4.84636659344e-06
4.96444867785e-06
4.76277476341e-06
5.26211087582e-06
4.87603114282e-06
5.15085462021e-06
5.23700111513e-06
5.40831064473e-06
4.54575782083e-06
4.54749889753e-06
4.35719495872e-06
4.92416107293e-06
5.66903542516e-06
5.6883968442e-06
5.44248373095e-06
5.95324419384e-06
7.23533798773e-06
6.27443142119e-06
6.08737113028e-06
5.07734012654e-06
7.39181010479e-06
6.95444789408e-06
7.29008962105e-06
6.20719398513e-06
5.84526885748e-06
5.86226351919e-06
6.89506366592e-06
4.25257487748e-06
5.98959220558e-06
6.82258525852e-06
7.38448117699e-06
7.28565891097e-06
5.36735270771e-06
5.40004969547e-06
5.14967490448e-06
5.53895876098e-06
4.70935005429e-06
4.54155465345e-06
4.31912522751e-06
4.74234913329e-06
4.99756256385e-06
4.75827416592e-06
4.53923808326e-06
4.73079150768e-06
4.35175432602e-06
4.31010931625e-06
4.11810854338e-06
4.53231538465e-06
4.1145862183e-06
3.82291082731e-06
3.66446715451e-06
3.83793817831e-06
4.42916703738e-06
4.1910655886e-06
4.05269128576e-06
4.07358163934e-06
4.6243848264e-06
4.45141287529e-06
4.22339753291e-06
4.54472401233e-06
4.40537474885e-06
4.0987417525e-06
3.98468718213e-06
4.05414903024e-06
7.3385522697e-06
6.74656559656e-06
7.30905834999e-06
5.91914948087e-06
7.34760326243e-06
7.00366751861e-06
7.52808660118e-06
6.13413170802e-06
7.43398798287e-06
6.29526289023e-06
4.90990233795e-06
6.01436935401e-06
1.30003941786e-05
7.86521809817e-06
4.77282603142e-06
7.54678967411e-06
4.67804537852e-07
2.39154960123e-06
3.11099031834e-06
3.00760748376e-06
3.88683083403e-06
3.79261141356e-06
4.50857595638e-06
3.83396162481e-06
9.82798652267e-06
8.68295972093e-06
4.08911038101e-06
4.20519967913e-06
4.62345199887e-06
4.32067107406e-06
1.1053591358e-05
1.02943474603e-05
6.45931521424e-06
6.01600408556e-06
6.49526975377e-06
5.32811290093e-06
6.91315410875e-06
7.24753825748e-06
7.87165737588e-06
7.04148467603e-06
5.08794505479e-06
5.17360251203e-06
5.87501042642e-06
4.87112248331e-06
5.32265578588e-06
1.27326703985e-06
6.5508729776e-06
5.98567819445e-06
7.04011496873e-06
6.69146039949e-06
7.11372686702e-06
6.00976099942e-06
7.04757022518e-06
6.22764479247e-06
5.86980508234e-06
5.93663075067e-06
7.34873512679e-06
6.94777615791e-06
7.46894001737e-06
5.92450209146e-06
5.2453836412e-06
4.82102376165e-06
4.93826472403e-06
4.16729146825e-06
5.9063284203e-06
7.08122550448e-06
7.53345377175e-06
7.68772407854e-06
1.74187958906e-06
2.31131249559e-06
2.29267599557e-06
2.42911298539e-06
2.8012241637e-06
3.31891361475e-06
4.31760634221e-06
2.91475427622e-06
2.25037770896e-06
2.35681847568e-06
3.89503066209e-06
2.69925203132e-06
2.92601207345e-06
7.15253470371e-06
8.24781263797e-06
6.68621761387e-06
1.62486121359e-05
2.32267316828e-05
1.48537453527e-05
1.34290226734e-05
1.679304846e-05
2.23733663131e-05
1.21751261058e-05
1.33113975375e-05
6.70681853695e-06
1.22879597729e-05
1.25616965667e-05
5.94385484219e-06
1.67552198765e-05
2.56638058455e-05
1.26608719674e-05
1.9972427006e-05
1.28055395434e-05
2.19644002258e-05
1.59451671044e-05
1.66344098492e-05
1.12846943162e-05
2.14521730007e-05
1.33690498409e-05
1.66778465993e-05
2.01299405653e-05
2.07207062262e-05
1.15873170614e-05
1.25425562454e-05
1.21778353921e-05
2.09927552614e-06
1.38313174317e-06
9.74820599838e-07
9.47464667099e-07
1.53794931302e-06
4.73613946615e-07
7.12674571347e-07
1.60070341767e-06
7.99270694383e-08
1.72307605369e-06
9.71235233094e-07
7.23406377207e-07
9.89337831917e-07
9.72161369929e-07
1.23581552496e-06
1.80386743493e-06
1.77894594133e-06
1.04529222339e-06
3.00215037562e-07
3.22227171398e-07
1.68343127972e-06
9.91954948409e-07
3.7741390524e-08
3.14181808611e-06
9.03462632064e-08
1.39203901731e-06
1.64304305789e-07
4.08150950644e-07
4.01257833463e-07
3.51424294789e-06
2.2018867583e-06
9.48781590808e-07
1.59712956241e-06
6.90915317961e-06
2.4516647558e-06
1.27733571561e-06
2.28617687112e-06
5.82482462901e-07
8.2326497531e-07
2.40248308803e-08
5.61036395037e-07
2.50531754814e-07
5.08044400152e-08
1.95307592454e-07
8.20803430312e-07
4.43773928246e-07
3.9325346312e-07
2.95572632844e-07
7.36153948166e-07
1.18335417201e-06
3.73836630864e-07
2.79533092162e-06
1.91599524409e-07
3.91674169636e-07
7.29835290914e-07
1.06720818699e-06
1.00734238344e-06
4.1916441378e-07
2.71514817527e-07
6.06874681272e-07
3.01121431391e-07
2.21908939224e-06
2.98237924917e-06
1.56464370613e-06
1.3058620669e-06
3.92081179458e-07
3.03912211597e-08
4.08570637659e-07
5.22849517014e-07
1.09860647895e-06
8.63694270873e-07
6.72179967641e-07
2.26702046937e-06
3.30228602978e-06
2.91754482603e-06
1.76595830474e-06
1.6734202376e-06
2.8313525291e-06
4.88983046424e-06
6.26971699185e-06
2.79371209633e-06
5.99518214193e-06
6.09195707964e-06
4.18215744698e-07
1.11394603574e-06
6.14836963463e-06
3.29580751352e-06
3.47239785199e-06
5.59379166638e-06