# vtk DataFile Version 3.0
File Name: Molecule/arg/arg_4.0-5.vtk
ASCII
DATASET UNSTRUCTURED_GRID
FIELD FieldData 1
TIME 1 1 double
0.0
POINTS 810 double
-3.293463707 0.21156659722 1.6118866205
-3.0535438061 -0.53448683023 1.3888351917
-3.0456748009 -0.04905005917 1.8668855429
-3.4269611835 0.066599056125 1.1233190298
-2.8855023384 -0.56803715229 0.72473955154
-3.2750585079 -0.0065089827403 0.49081999063
-2.888892889 -0.22431479394 0.33199685812
-2.6242406368 -0.46853259206 0.26940155029
-2.514929533 -0.074609875679 -0.34673038125
-2.6394762993 -0.18906606734 0.06419710815
-2.9836792946 0.08066521585 0.00033395458013
-2.3814609051 -0.39829182625 -0.069818332791
-2.2410678864 -0.41721189022 -0.85119521618
-2.2367012501 -0.4136146009 -0.51180040836
-2.4705986977 -0.044918891042 -0.77914965153
-2.7880587578 0.39974862337 -0.70904868841
-3.2154006958 0.54495602846 -0.27723497152
-2.4014604092 -0.25764924288 -1.1135727167
-2.6082930565 0.14170326293 -1.389950037
-2.7511901855 1.0190697908 -0.83511823416
-3.1839294434 1.2738389969 -0.42151024938
-2.5606868267 0.80172616243 -1.3946452141
-2.7759242058 1.6859440804 -0.53848946095
-2.3183119297 1.2127515078 -1.1975436211
-2.3289985657 1.5088835955 -0.84002941847
-2.1932966709 1.1313375235 -1.6866930723
-2.4339017868 2.0141253471 -0.41399523616
-1.9543675184 1.8010846376 -0.87115770578
-1.6957122087 1.8197020292 -1.3010112047
-1.9479272366 1.5073390007 -1.4656699896
-1.9315825701 2.2330303192 -0.55799031258
-2.1503465176 2.5411882401 -0.081889614463
-2.6799292564 2.4031429291 0.049402281642
-1.6756387949 2.9104573727 -0.39016205072
-1.5438033342 2.5010409355 -0.89068311453
-2.5012257099 2.6404986382 0.63336706161
-1.8512898684 2.8132030964 0.35846349597
-1.4518524408 3.1701953411 0.17097853124
-2.6799366474 2.6532814503 1.2337867022
-2.1370019913 2.8796813488 1.1764056683
-2.3820030689 2.9273912907 1.6012557745
-1.8560403585 3.321385622 1.4516839981
-2.1888749599 3.3216831684 1.9101209641
-2.7067501545 2.5870125294 1.8631026745
-3.1885795593 2.2851629257 1.4853765965
-2.5173714161 2.9867739677 2.3196299076
-2.9108448029 2.3200690746 1.9548701048
-3.0819602013 2.0169644356 2.1109144688
-3.4276013374 1.7981015444 1.7618186474
-2.7851419449 2.4573845863 2.4378304482
-2.9717345238 2.0455691814 2.6080114841
-3.5637593269 1.2428646088 1.8339574337
-3.1612944603 1.6913260221 2.3019354343
-3.2562077045 1.1163706779 2.4201333523
-3.1207602024 1.7854442596 2.9552242756
-3.250241518 1.127969265 3.021406889
-3.3294444084 0.64951592684 1.925549984
-3.1396546364 0.67164200544 2.3453278542
-3.0947356224 0.65430629253 2.8288002014
-3.1089775562 0.32638606429 2.0490121841
-2.8999688625 0.077853620052 2.2638773918
-3.0112123489 0.40919023752 2.3870413303
-2.8952190876 0.30248633027 2.652944088
-2.9501719475 0.34500858188 3.1186144352
-2.8228595257 -0.35992661119 2.2028048038
-2.9466123581 -0.42569312453 1.8651666641
-2.3685929775 -0.29992103577 2.9474039078
-2.6988968849 -0.063066966832 2.6978082657
-2.5238273144 -0.66066896915 2.4745528698
-2.6066257954 -0.026667479426 3.3903684616
-2.2148487568 -0.64713209867 2.8637342453
-2.2135505676 -0.9764367342 2.6666586399
-2.0353486538 -1.3693197966 2.6782860756
-2.4296514988 -1.1471402645 2.2289686203
-1.9620476961 -1.5717036724 2.2368774414
-2.303838253 -1.4216854572 1.8277779818
-1.9316120148 -1.5981544256 3.1393797398
-1.7304753065 -1.9615937471 2.7687129974
-1.9395124912 -1.6817799807 1.5885851383
-1.5683732033 -1.8704560995 2.0959148407
-1.3817631006 -2.1982605457 2.4069247246
-1.294521451 -1.8450266123 1.6599998474
-1.552693367 -1.7413791418 1.2490843534
-1.0009754896 -2.2325768471 2.0163676739
-1.9730938673 -1.6175829172 0.90841305256
-1.2608567476 -1.8221040964 0.78094893694
-1.589271903 -1.7529007196 0.42095309496
-1.0043703318 -2.2066867352 0.30467802286
-1.4589358568 -2.0388169289 -0.019802551717
-1.9591608047 -1.3772222996 0.10726697743
-2.3883955479 -1.2054774761 0.62375175953
-1.8259407282 -1.6469285488 -0.48213133216
-1.9992893934 -1.0479955673 -0.28285834193
-2.3361802101 -0.85361039639 0.21052597463
-1.9437593222 -1.1989524364 -0.74404484034
-2.1660394669 -0.67071902752 -0.22745269537
-2.0407931805 -0.78344416618 -0.6663851738
-1.9897089005 -0.9507805109 -1.1580792665
-1.8706240654 -1.4458737373 -1.178602457
-2.2939641476 -0.44290986657 -1.4372652769
-2.1490397453 -0.60697185993 -1.0474153757
-1.9202702045 -0.88382482529 -1.6343359947
-2.1255164146 -0.49946707487 -1.9138790369
-1.691162467 -1.2922860384 -1.7832092047
-2.0048263073 -0.26744094491 -2.2801818848
-1.7707569599 -0.74947184324 -2.0493896008
-1.6310902834 -0.42046809196 -2.4681017399
-1.8867359161 0.15254467726 -2.5262019634
-1.373536706 0.0057774139568 -2.8041675091
-1.6157803535 0.82193672657 -2.6567387581
-1.4972906113 0.36341887712 -2.777916193
-2.0159854889 0.63737040758 -2.4167771339
-1.1577279568 0.43003812432 -3.1955769062
-1.3357489109 0.95112389326 -3.0371627808
-2.0181572437 1.0261433125 -2.1787526608
-1.6553795338 1.1765565872 -2.3843722343
-1.3790971041 1.4042836428 -2.6485574245
-1.6919158697 1.4328005314 -2.0936691761
-1.2591068745 1.9271533489 -2.3921146393
-1.4688030481 1.8197455406 -1.7630296946
-1.4086561203 2.154392004 -1.3365080357
-1.6774470806 2.064904213 -0.96489465237
-1.1398564577 2.6066615582 -1.3199757338
-1.0471394062 2.2378582954 -1.7835452557
-0.66952633858 2.6852805614 -1.673132062
-0.86668848991 3.0851156712 -1.1750119925
-0.54117339849 2.5645713806 -2.2453076839
-0.40687343478 2.9706749916 -1.4803731441
-0.12002304196 3.4613807201 -0.90777176619
0.28792762756 3.0152189732 -1.3697272539
0.48195016384 3.1322109699 -0.92702287436
-0.17348319292 2.938398838 -1.9828156233
0.34716209769 3.0139019489 -1.9741665125
0.0058208405972 3.1129844189 -2.5371236801
0.47025841475 3.1735904217 -2.4479341507
-0.051119510084 3.3328039646 -2.9974217415
0.19776390493 3.3900859356 -2.7036657333
0.81948584318 2.9265639782 -0.59313982725
0.9395750165 2.6174621582 -0.9943805337
0.62955003977 2.8235087395 -1.3545402288
0.86931723356 2.6980054379 -1.8801716566
1.2641093731 2.4432897568 -1.5274189711
1.078913331 2.4332351685 -0.36465650797
1.2146011591 2.2166137695 -0.89444106817
1.5501500368 2.003569603 -1.1600019932
1.0636560917 2.5920448303 0.19607503712
1.4072247744 2.0215768814 0.0063882609829
1.3426346779 2.2099585533 0.52090442181
0.79125678539 2.8002021313 0.64570093155
1.1463090181 2.2806577682 1.0297689438
0.29379290342 3.0676124096 0.99038040638
0.6926894784 2.6055862904 1.0884442329
0.43542507291 2.7452912331 1.3964540958
0.79989731312 2.4457712173 1.5223783255
0.56552612782 2.644920826 1.8800691366
0.83051753044 2.7360918522 2.4203028679
1.1185084581 2.4117004871 2.0379936695
0.064752183855 3.0185215473 1.645272851
-0.2431243211 3.362565279 1.315623045
0.01879381761 3.4484081268 0.64576071501
-0.018484245986 3.2541737556 2.1645424366
-0.35172212124 3.5826265812 1.9416553974
-0.61712896824 3.4923188686 0.97165614367
-0.47173172235 3.6325280666 0.41597229242
-0.81219536066 3.7395706177 1.6903175116
-1.0840777159 3.4385588169 0.50613182783
-1.2385463715 3.4386193752 1.1515928507
-1.4511320591 3.648273468 1.6127711535
-1.5679459572 3.1174683571 0.86903440952
0.3157723546 2.9103763103 2.2131938934
0.21149995923 3.1102278233 2.7706782818
-0.17965266109 3.5276207924 2.6390862465
0.64546245337 2.9001140594 2.9856693745
-0.32862323523 3.4086689949 3.2227816582
0.06582441926 3.0470466614 3.32630229
0.42482417822 2.8408162594 3.5841126442
-0.24165266752 2.928760767 3.6738607883
-0.71332114935 3.2225575447 3.625480175
-0.015909567475 2.6153428555 4.0499825478
-1.2700585127 3.200925827 3.7427840233
-0.64750570059 2.8062901497 3.8911476135
-1.2640470266 2.7607827187 4.0360074043
-1.7692022324 2.8905296326 3.7861840725
-1.7569695711 3.1853702068 3.6089372635
-2.2381193638 2.9405925274 3.3793516159
-2.1181271076 3.2665278912 3.2903647423
-2.3784675598 3.1209213734 2.904872179
-2.56102705 2.7513942719 2.9762773514
-0.8015473485 2.4068763256 4.2548003197
-0.28514847159 2.1888751984 4.4276976585
-0.92724049091 1.9774811268 4.4477953911
-0.47801998258 1.6076952219 4.6396203041
-1.3799461126 2.3295309544 4.3097996712
-1.4306120872 1.6406642199 4.5968647003
-1.86216259 2.027315855 4.4393620491
-1.8574150801 2.5453894138 4.0348291397
-2.1910150051 2.2876031399 4.1533041
-2.4249777794 2.5332326889 3.5924112797
-2.6810452938 2.2402541637 3.845220089
-2.885748148 2.1512861252 3.4358866215
-2.8092341423 2.3507504463 2.9989273548
-0.95199787617 1.6029816866 4.5301585197
-0.94475615025 1.2346252203 4.6036424637
-1.4245349169 1.1270042658 4.6694965363
-0.41695705056 1.0356096029 4.7150206566
-1.6833494902 0.71389210224 4.6246728897
-0.94217073917 0.79831379652 4.6013507843
-0.84866774082 0.3125410676 4.6437883377
-1.2983095646 0.21195687354 4.5216627121
-0.37750679255 0.50647741556 4.860678196
-0.51130390167 -0.0020729191601 4.8523921967
-1.9974068403 0.22933256626 4.3919801712
-1.664496541 -0.21852114797 4.3690958023
-1.4284055233 -0.75877076387 4.5637922287
-0.92709571123 -0.36298850179 4.7636232376
-2.0726344585 -0.30954840779 3.9333603382
-2.484777689 0.13948446512 4.011475563
-1.8632315397 -0.8515278101 4.0031700134
-2.147629261 -0.51043754816 3.3835370541
-2.0049273968 -1.0991712809 3.4054560661
-0.38142195344 -0.67812895775 5.0643963814
0.028654634953 0.0022225179709 5.1526389122
0.30999681354 -0.63588380814 5.1444163322
0.12839278579 -1.1479429007 5.0874156952
0.33857953548 -1.6271861792 4.9651050568
0.6139600873 -1.048846364 5.0679349899
0.86872470379 -1.5336616039 4.910900116
0.96090054512 -0.77359902859 5.2594203949
1.2163273096 -1.2404145002 5.151807785
0.61775827408 -2.0843946934 4.6351146698
1.0700848103 -1.8811486959 4.6178507805
1.5234194994 -1.7081807852 4.8191509247
0.82257205248 -2.3579165936 4.2171430588
1.2194945812 -2.130408287 4.2088017464
1.5118733644 -1.9959634542 4.3805174828
1.0015002489 -2.4962456226 3.6191513538
1.4177228212 -2.2316880226 3.6956613064
0.9880040288 -2.52998209 3.0736801624
1.4216765165 -2.2110984325 3.1796057224
[...]
CELL_DATA 1616
SCALARS cell_data_0 double
LOOKUP_TABLE default
1.01154700754e-08
3.69062899213e-08
2.97965997248e-08
3.35259185169e-08
4.8459541433e-08
7.14970365723e-09
2.67559880734e-08
1.01573789443e-08
3.01631115678e-08
4.16308766068e-08
5.13055870078e-08
5.9808877667e-08
6.9581370801e-08
2.24283282705e-07
1.34906123071e-08
1.86236732766e-08
5.52969960825e-08
6.04973409813e-08
3.37660624383e-08
4.20622007535e-08
2.08132088249e-07
9.32564532484e-08
3.78125438996e-08
1.30423128653e-08
1.60271435262e-08
1.60818006799e-08
4.25966829929e-08
2.29991446289e-08
3.94038454937e-08
2.96391074934e-08
8.07624867777e-10
3.36698026845e-08
3.76499130028e-09
3.39080608422e-08
1.78663518192e-08
1.33649418257e-08
1.65665277314e-08
2.82772425686e-09
4.53281351298e-09
7.73303138926e-10
8.7379153915e-09
1.21617738924e-08
6.4113525981e-09
4.93662862959e-09
2.22769640696e-09
4.75802041923e-09
1.19786441934e-09
3.4547020611e-09
3.1896644626e-08
6.02649452348e-09
3.87443851136e-08
7.82393665459e-09
1.59094986878e-08
1.53502619773e-08
2.03767084106e-08
1.61006998703e-09
3.13532216122e-10
1.07906363153e-09
9.82614887135e-09
4.489476405e-09
1.20349452719e-09
1.64047711724e-09
1.64635587513e-09
2.68827842245e-08
1.17648602868e-08
6.91754693113e-08
7.97581828823e-08
2.15102223915e-07
7.48037015679e-09
4.27863727714e-07
3.41804990509e-07
3.6182962426e-09
2.6778369432e-08
1.25564661129e-07
9.03545130628e-08
4.66331990109e-09
2.88514519861e-08
2.34744260429e-08
9.53978927487e-08
2.49920588713e-09
8.05887314937e-08
7.2316870176e-08
2.86031389543e-08
4.34072830195e-09
1.49716287198e-08
5.96346402926e-08
8.31480447834e-09
2.65372335542e-08
6.03258607337e-08
6.23019047036e-09
3.90297888489e-09
1.100813437e-08
1.47125054018e-08
5.86382790641e-09
1.50240924225e-08
1.93311786969e-08
5.61385378365e-08
1.56239771877e-08
1.28205044245e-08
3.15454568321e-08
2.11836105461e-08
4.57522913521e-09
5.18456703086e-10
2.66793230804e-08
1.45036933693e-08
1.76300933667e-08
4.96253841101e-09
4.12100729516e-08
5.94634096102e-08
1.84049928133e-08
1.60363728067e-08
5.55200835804e-08
3.34133202593e-08
1.46649040226e-08
8.60694271512e-08
4.64657947758e-09
3.43900573254e-08
9.42970817404e-08
8.66991597325e-08
6.71372725465e-08
4.69986301008e-08
6.94881537858e-08
1.53193605959e-08
5.9485254945e-08
7.90638476429e-08
8.05565394273e-08
1.15967750658e-08
2.68439328255e-08
2.28224440957e-07
8.05206870456e-08
5.45277142312e-08
9.25562790686e-08
3.2272714433e-07
3.10350902733e-09
1.12551346162e-08
2.02296358115e-08
5.6267692207e-08
2.67001907758e-08
9.94969707338e-08
5.34715440765e-08
1.24687362528e-07
2.02382042692e-08
1.52356210655e-08
8.69098318362e-09
4.33623897036e-09
3.11002938145e-08
8.45920231893e-09
2.41653311441e-08
1.04802036303e-08
1.83078535961e-08
2.76569783626e-08
1.73160859921e-08
1.89210013797e-08
1.31444729906e-08
2.31292155953e-09
1.48711330615e-08
1.46989698175e-08
2.87436108489e-09
1.97975470295e-08
1.31184167487e-08
3.10687765137e-09
9.67462546603e-10
1.47911896004e-08
1.60750972826e-08
2.41288552934e-09
1.60958179155e-09
9.11355632946e-09
2.2395758683e-09
2.49264442356e-08
5.3417059777e-08
4.81533368889e-08
3.84760625279e-09
1.44656651825e-08
4.84825444493e-08
1.16411270992e-07
3.18886834586e-09
9.10563291191e-09
9.30183168757e-09
1.13699173478e-07
6.12098661667e-09
1.57327577292e-08
2.84940396124e-09
3.42437430887e-10
7.28133228804e-09
1.87882001615e-11
1.82311585396e-09
4.9089921691e-09
1.1857507226e-08
2.22427244755e-09
2.36812681799e-08
3.0445885834e-08
4.33219406581e-09
1.46987757341e-08
6.84108223933e-09
1.54265635366e-09
1.97751641137e-10
3.27390482115e-09
1.38727537208e-08
7.08780894945e-09
1.29175055734e-08
1.26281132266e-08
6.21757777343e-09
7.03330308905e-10
5.97214724524e-09
6.14456588308e-09
3.50901195514e-09
2.7971940604e-08
3.8869832401e-10
2.97742468839e-08
2.03895305952e-08
1.67046629796e-08
1.21819147153e-10
2.99126889735e-08
5.23798301825e-08
7.64348110476e-08
2.36763792113e-08
4.9451412065e-08
8.90740943406e-08
1.31231186753e-07
6.027483768e-08
2.34657565185e-07
5.03318338938e-08
1.03712443882e-08
4.65584585393e-09
2.56202343354e-08
2.14297331472e-08
1.17542080357e-08
2.51635791038e-08
1.18417825013e-09
1.85234726312e-08
1.49253801809e-08
2.7783695654e-08
1.04915716933e-07
4.05344837614e-08
7.5810968385e-08
1.11183288614e-07
3.44388285739e-07
7.89041865437e-08
8.55409331104e-08
2.40394008838e-07
4.00358314547e-08
1.8165870337e-07
8.11125910534e-08
9.03601569625e-08
3.2766041507e-08
3.42680208085e-08
6.6008188051e-08
4.64811103175e-08
1.07743624111e-08
9.2581437502e-09
8.83963560419e-08
8.55468268261e-08
6.97438918395e-08
1.41291875622e-07
3.54516673119e-08
2.8031247721e-07
1.15424288569e-07
9.9027228753e-08
4.71988189089e-09
1.71562815292e-07
2.81199193735e-08
1.87075342571e-07
1.52096108008e-07
2.70913549852e-09
6.89619073285e-08
3.33912187539e-09
5.76746463995e-08
5.53209334499e-08
2.77423638049e-08
5.19851354242e-08
2.18767847087e-08
8.74057935074e-08
7.69195548624e-08
8.24049465822e-08
6.79691058579e-08
2.69139288054e-07
1.95667910051e-08
1.06173516398e-08
2.38631967132e-08
1.20185865519e-08
6.84372053438e-08
9.48203828182e-09
2.59943089604e-08
1.21059094871e-07
1.80775531856e-08
1.71593603344e-08
1.73974968492e-08
4.82794410691e-08
5.52929990569e-08
1.59796629808e-07
9.5321835685e-08
1.38761846794e-07
1.05968568341e-07
3.53034823368e-08
1.57769888195e-07
1.85005713742e-09
1.10326809077e-07
5.89547985608e-08
6.36268068755e-08
1.94766436073e-09
3.25438951983e-08
8.8603920552e-09
3.03073305928e-08
1.12197977618e-08
6.17454193763e-08
1.65133060374e-08
9.76816018906e-08
1.90171963622e-08
4.85255452173e-08
8.12588342415e-08
1.37262711372e-07
2.47714967481e-08
6.07821231804e-08
1.32444179995e-07
9.43871292307e-08
3.2345803402e-08
4.95971917475e-08
1.83701964498e-08
1.93016135862e-08
2.93834567636e-08
5.23396523404e-08
6.00323155015e-08
5.90113737734e-08
3.97512250916e-09
3.42577882666e-08
2.15777580318e-08
6.88737366188e-09
1.10372778983e-07
1.60158216741e-07
3.07051174927e-07
3.85469908739e-08
2.93934600099e-07
4.37615870999e-08
6.20516913683e-08
1.54145137579e-07
3.46631051018e-08
2.20695746444e-09
1.16702465058e-07
1.2058335842e-07
1.33079916451e-08
7.15337448893e-08
5.97885123504e-08
1.11848950086e-07
3.92930184257e-08
1.06406609098e-08
3.34107560386e-08
1.23303220512e-07
5.79463863249e-08
9.16322413816e-09
2.85755862216e-08
3.25696590036e-08
1.06822813779e-07
2.54419493995e-08
5.50947118382e-08
2.52030438809e-07
1.49887361776e-07
1.26491172805e-07
3.63800916914e-08
2.47092225037e-08
1.54831298955e-08
6.04082590427e-09
1.68679468359e-08
1.13568306701e-08
3.30062713534e-09
1.23891901718e-08
2.89762627887e-09
1.68283079228e-08
1.98794393859e-08
9.25360685248e-09
6.4473849685e-08
1.11551703516e-08
6.71551374025e-09
1.61782547755e-08
2.320577933e-08
7.86963718615e-09
7.87614555983e-08
1.77539881893e-08
3.85989994398e-08
7.77286577004e-09
6.23163972386e-08
3.57637202041e-08
3.53871636046e-09
1.34522375795e-07
1.71527384249e-08
1.05165027097e-07
5.11041640125e-08
3.64208789566e-08
3.76189189549e-08
1.2275825138e-07
1.36001445363e-07
1.98890223168e-08
1.52376924362e-07
1.06493408435e-07
1.06959616528e-07
3.57169685605e-08
9.31666945187e-09
1.27889584214e-08
3.47132407461e-08
1.08005649943e-08
9.4191675944e-10
8.73566112312e-09
5.32441110517e-09
2.33820954027e-08
6.02617815051e-09
5.49784243382e-09
2.6175918727e-08
3.66217415715e-08
4.32601985406e-08
2.28558218625e-09
1.8315646358e-08
2.27420545791e-08
1.26667528123e-09
1.56794345402e-08
7.88168468996e-10
1.41625199031e-08
2.08894431189e-09
8.24570859272e-10
2.01457929691e-09
6.69005622703e-08
6.89567115541e-08
1.54298589383e-08
4.87933740162e-08
4.14226260402e-08
5.84428432859e-08
6.07115947095e-08
1.93283656582e-09
1.13217496501e-08
2.52041366511e-08
3.93330551633e-08
1.51914138637e-08
3.12698998928e-09
2.68722325575e-08
9.70272528391e-09
2.18494477954e-08
1.68228347879e-08
2.08953329429e-08
1.88192731186e-08
1.39706775707e-09
1.35260702167e-08
9.53663707655e-09
8.60471164661e-09
1.45098778477e-08
3.52463869756e-08
3.5660878219e-09
2.69550018344e-07
3.43741603339e-07
2.0730671377e-07
1.71338586614e-08
5.45709707499e-08
9.28894685459e-08
1.18105307265e-07
1.5330027071e-09
2.95676525505e-09
4.27360928707e-09
2.70762969048e-09
4.59810919198e-08
3.63665135174e-08
4.93025736181e-08
6.26886370922e-08
2.55127785896e-08
3.01383931909e-08
2.27131706727e-08
1.04425656331e-08
3.25181067679e-08
3.25764697478e-08
7.30360135954e-08
1.08150100082e-07
1.74986252419e-07
4.49152715354e-08
2.81826271163e-07
1.85535273602e-07
8.77432505318e-08
4.84082445456e-08
4.39802402027e-08
5.453481827e-08
3.68040366591e-07
1.01239606396e-07
2.16230858268e-07
8.40277906872e-08
3.94378210102e-08
2.13654811692e-08
9.4234820415e-08
2.76880657055e-09
1.79895055097e-08
3.63849472615e-09
3.97751186418e-08
9.88239854042e-09
4.39575162197e-08
1.39039576718e-08
1.10824052595e-08
1.10170291986e-08
6.11727756464e-09
8.68260999457e-09
1.05320201819e-09
6.58460914806e-09
4.64358010231e-09
2.02386543468e-08
1.54444902201e-08
8.08034712821e-10
5.75133486925e-09
1.70179940893e-08
1.48806839145e-08
7.58121541983e-09
1.9543849246e-09
3.03613009793e-08
1.84308935117e-08
7.20310588526e-09
4.4169611598e-08
1.46646554025e-07
9.6355150104e-08
4.28265440556e-08
5.24719638841e-08
2.85943077637e-08
1.55583224615e-08
1.05860397691e-09
1.01315947907e-08
8.57739157852e-08
1.95486237505e-07
6.3143620977e-10
4.56429234785e-08
3.3432760077e-08
8.59950442243e-08
2.71627569035e-08
1.14748024396e-07
7.00856243673e-08
2.0888457893e-08
1.30592043783e-08
3.46000247762e-08
7.56850352597e-08
4.65530178566e-08
4.00746622931e-08
1.9073415667e-08
6.03043238275e-08
6.13746288741e-08
1.7055874251e-08
1.17541253392e-07
1.25187987006e-07
1.34182020755e-07
5.66326365786e-08
3.95801595493e-08
5.97325251941e-10
2.57676910841e-07
6.69140125613e-08
4.9883016419e-08
3.31296957343e-08
7.86595278649e-08
6.22903982333e-08
2.6676175981e-08
2.93330631636e-08
2.21262470816e-08
4.76488448022e-09
5.7917750259e-09
1.04380107488e-11
9.07958712761e-09
4.69079426088e-10
1.9411576034e-09
4.12211433619e-09
5.3912263517e-09
2.62245531176e-09
3.97934082991e-10
5.82248816515e-09
1.69216696386e-09
1.42575789597e-09
1.49702281171e-09
5.76461877244e-10
2.53104959046e-09
7.10058250825e-10
5.65178766291e-10
1.38230673294e-09
2.75478454519e-10
7.33909255149e-09
1.24103008321e-09
8.2649511279e-09
2.98848132522e-09
4.99606691507e-09
3.27662051869e-10
4.33877436012e-09
3.05375120827e-09
2.89503699116e-09
9.49541132206e-10
4.18010552591e-11
2.27777682327e-08
3.32017976359e-09
3.91526199379e-09
2.37102503766e-08
1.33680904324e-08
4.11311123224e-08
1.0026224556e-08
4.83079026163e-10
6.13892602554e-09
1.95596898043e-08
1.79397389001e-08
1.23213313545e-08
8.05333272363e-09
1.2295298619e-08
6.39265453694e-09
5.68596638307e-09
2.34935608269e-08
1.27805336763e-08
2.36927552994e-09
1.14964907486e-08
3.00994237179e-08
1.72094036695e-08
2.55121417405e-08
1.10279687969e-08
1.75921366931e-09
7.18854433841e-09
1.66498184286e-08
1.43511695243e-08
1.98558668062e-08
3.30787435361e-08
2.80794522798e-08
4.17537796623e-08
2.90972252928e-10
2.82199376142e-08
1.48456115012e-08
1.33875728976e-08
1.68940675716e-08
2.57838571948e-08
8.84476792158e-09
4.88924863601e-10
2.69901724921e-08
1.68191791128e-07
1.53950503218e-07
4.23302614413e-08
6.15305601234e-08
7.63692245276e-10
3.03806382441e-08
7.79048300837e-08
2.49834377718e-08
1.55539133792e-07
9.62588722528e-08
4.31948150113e-08
7.93262415682e-09
6.85372351253e-08
2.38357914334e-09
6.11332859936e-09
2.30136292637e-08
4.23029679311e-08
1.29577179468e-08
9.31018854925e-09
1.11405939711e-08
2.56182464125e-09
1.12020648268e-08
1.42314836274e-08
2.40663039974e-09
3.84535814531e-09
1.0957614495e-08
1.77692891296e-08
1.06988395329e-08
1.01933391168e-08
4.74385283098e-09
7.55657358414e-09
2.12649160961e-08
1.31456239091e-08
7.83339459343e-09
5.46628364844e-08
7.63608078712e-08
2.34883845455e-08
1.10367093705e-08
1.56288264965e-08
9.17133062197e-08
1.29765202598e-08
9.25148674628e-09
1.16275375359e-08
4.07443321106e-08
1.48990137369e-08
3.37934351985e-08
7.4562256135e-08
1.45288349756e-09
3.07350420398e-09
2.3462303794e-09
5.74394716994e-10
7.82208452281e-10
1.84037478341e-09
1.97212389636e-09
7.18805996143e-09
2.97183962034e-09
1.89213213969e-09
2.53556267693e-09
1.64412083355e-09
1.0600930524e-09
3.3782101598e-09
1.52534272343e-09
2.44881257278e-08
3.90366276004e-09
4.00132889263e-09
2.192697486e-09
2.33061005433e-09
4.74750450179e-09
1.19790358666e-09
8.40814369351e-10
1.12545179905e-08
9.21425376741e-09
9.70719224953e-09
1.54165710319e-08
8.86738325429e-09
7.43833778239e-09
2.31167115925e-09
3.33135864423e-09
6.58691514539e-09
4.80590645019e-09
1.41260084826e-08
9.06045896055e-09
7.01135531084e-09
1.04831211147e-08
1.29186356569e-09
3.25169435625e-10
4.48160352091e-09
3.5641187854e-09
9.95189126727e-09
9.93417323447e-09
1.0814339995e-08
1.05138726105e-08
7.64069027935e-09
1.45546765151e-08
1.29294322376e-08
5.36504316689e-09
6.11351671949e-09
1.15873515518e-10
1.67197110575e-09
9.55920012353e-10
8.23840119651e-09
2.7526289095e-09
2.0324341176e-09
8.59139464833e-10
6.50763838772e-09
7.01445926319e-10
1.16893225167e-08
5.73565900397e-09
4.07102322521e-09
3.96914735674e-09
2.74097235024e-10
1.95841895257e-09
6.02665985669e-09
2.76367914873e-08
1.49752415461e-08
4.29426914697e-10
1.9019241594e-09
6.73496163295e-09
6.92459534004e-09
3.13231068944e-08
5.7081187802e-09
2.46145941292e-08
5.68175319399e-09
6.32633481304e-09
8.80452745653e-09
6.94826900013e-09
1.75474866844e-08
1.15856598033e-09
3.14909927513e-09
4.78783422531e-09
6.63027190004e-09
6.4368974796e-09
1.49080210822e-09
1.62319515578e-09
1.35692659136e-09
1.99209649082e-09
6.89116036619e-09
9.64767940047e-08
3.74258307269e-08
3.79790081516e-07
8.01100534492e-08
3.06690164935e-08
1.09877916613e-08
4.80805159624e-08
3.15902346956e-08
2.9284101612e-09
1.94202764103e-08
2.49078116065e-09
2.61366590448e-08
6.45505073753e-09
6.95059946797e-08
4.26096627288e-09
1.15710416159e-07
9.61734487761e-08
5.061213777e-08
3.05287249441e-09
1.95884338806e-08
3.19621240261e-10
1.19740171565e-08
1.58908199654e-08
1.62504230222e-09
1.58869315325e-08
9.8287134923e-09
2.52631862442e-08
1.17834814777e-09
7.87946145803e-09
5.24409146904e-10
5.18274664647e-09
7.60051404392e-10
5.12011930743e-09
4.01993671269e-08
9.54251920859e-09
1.96420025953e-08
4.87070241228e-09
5.96155034206e-09
7.12720883732e-08
1.18690353883e-07
1.31091286844e-07
2.98491373603e-07
1.46446538397e-07
3.41635825808e-08
5.32582770002e-08
5.29798739004e-09
4.45707252135e-08
1.34974853369e-08
2.57000716307e-08
2.04075479981e-08
7.96224758568e-08
1.45003206276e-07
1.90703219214e-07
4.17140965923e-09
1.06919956786e-07
1.51662723975e-07
3.40154504709e-07
2.75460829218e-07
3.56121107574e-07
3.67003181238e-07
2.55038979166e-07
1.84370611981e-07
8.24137143734e-09
1.98074570315e-07
4.82110000014e-08
7.06667426684e-08
1.03522369856e-08
2.51396144835e-08
1.93288387401e-08
3.76939420139e-08
6.76862004293e-08
1.32898685436e-08
2.84928673025e-08
1.43569948028e-07
2.58113585856e-07
2.15445456848e-07
2.62055235208e-07
1.28502870357e-07
1.76379466995e-08
9.32006021606e-09
2.54231708898e-08
2.91596858519e-08
1.25866218285e-08
7.26984857561e-09
3.02664472594e-09
2.64572337809e-09
1.00807276085e-08
6.31756235203e-09
1.99925123728e-08
4.22423412253e-09
3.69735818876e-09
1.26798340173e-09
7.12962154562e-09
1.33874635035e-09
5.85652425246e-09
3.24577517841e-08
1.04748491601e-08
7.9537026189e-09
9.81066936523e-09
3.61904341795e-09
5.89596784004e-09
1.80265453967e-09
8.90995802805e-09
7.17550670493e-10
1.74396261059e-08
3.14857014352e-10
1.8623960173e-08
1.09011573536e-09
1.00881855509e-08
2.35193302813e-09
7.51421887993e-09
2.06948208221e-09
7.10744233869e-09
5.42335933227e-10
3.45810857823e-09
7.12890944498e-11
7.99725884694e-10
1.29156801099e-09
2.72122072425e-09
1.00678112086e-09
7.75033921778e-09
7.8032782604e-09
4.82174209141e-09
3.97365643196e-09
5.04526684227e-09
4.96509091553e-09
6.70631207266e-09
8.83037855863e-09
1.01087714984e-08
1.56014593114e-08
3.29303693345e-09
4.41500437691e-09
3.00300767661e-09
4.33288922402e-09
4.77554102555e-09
9.579906446e-09
2.41326235441e-09
6.0252319538e-10
2.24621287612e-08
1.75139951809e-08
2.31396671328e-08
2.98486954113e-08
4.1481650553e-08
5.82603088913e-09
1.76002160896e-08
6.51759923934e-08
7.75960907072e-08
9.66231238475e-08
5.14267671074e-08
1.64134377836e-07
5.26599439597e-08
1.93327865997e-08
9.45403185723e-08
3.7732371206e-08
3.51617703507e-08
2.13589023075e-08
6.10676770461e-08
8.9235765367e-09
4.10963532645e-09
2.61035937798e-08
1.00883289544e-08
1.33730675337e-08
1.83493398337e-08
2.00699551363e-08
1.00919728572e-08
3.91909471889e-09
1.37240572811e-08
2.90396914577e-08
5.61342880029e-08
5.45332691902e-08
3.77728017369e-08
1.18064284773e-09
1.75592256588e-08
1.77832665705e-08
1.30953499313e-08
3.49604818829e-08
7.87357053675e-08
3.47521955912e-08
2.08623975133e-08
6.99674655872e-08
1.54588140099e-08
5.39870548637e-09
7.67996158022e-08
7.57396367429e-08
7.5826478658e-08
4.01150463451e-08
3.13059137835e-08
1.40830830724e-08
3.25308715564e-08
7.91897960399e-09
2.38223546457e-08
2.35893078577e-09
5.38029881175e-09
3.05510869773e-08
2.57987936796e-08
2.32155132164e-08
5.3429054079e-08
3.92757653266e-08
9.14301477895e-09
2.84147349472e-08
2.31279375447e-08
1.91174968853e-08
2.20187612403e-08
7.7167168555e-09
7.24843005583e-09
1.82639798918e-07
6.74453781198e-08
2.67203182942e-07
1.46893198843e-07
5.37673652379e-08
3.86344471428e-08
6.34561889437e-09
1.10544244539e-08
7.22013871594e-10
1.77152541873e-08
3.98256763958e-08
4.72287383352e-08
1.1444160227e-07
1.35490778867e-07
1.10465425239e-08
2.78946654486e-07
1.93934160798e-07
5.97658425839e-08
2.42685334946e-09
3.11179211444e-07
6.36113039295e-08
5.47228584989e-08
8.38779667424e-10
1.98069352422e-08
7.67787348517e-09
3.71562012807e-10
1.8313592664e-08
9.29704709217e-08
1.65760798614e-07
3.23163868188e-07
1.03386212119e-07
2.65583772912e-08
1.7586470585e-08
3.70551556465e-10
1.70623937024e-08
2.57428895672e-08
3.52800808638e-08
1.92820533504e-08
3.67245667624e-09
1.21894035046e-08
1.03533818605e-08
1.46207685549e-08
2.25999331706e-08
7.16213814228e-08
6.84605474555e-08
1.648281613e-08
3.93130213249e-09
5.43642829548e-09
3.40530849182e-08
1.23098564287e-09
2.8424068177e-08
1.19367215878e-08
1.340667778e-08
1.42009258146e-08
3.56899100487e-08
4.10378748842e-08
1.21931611824e-08
8.85225640211e-08
9.02299832535e-08
6.45610336896e-08
2.63073572359e-08
1.68526046241e-08
1.27433953041e-08
1.8458577447e-08
4.29446949115e-08
1.07429581817e-07
2.10156551663e-07
2.08149635975e-07
2.22005095871e-08
4.41646499738e-08
1.07882264154e-08
1.51898924588e-09
1.10560496807e-08
1.18511210933e-08
8.05350607079e-08
1.32371500864e-08
5.0964627152e-08
6.95298671478e-08
1.72104691679e-07
3.98532873358e-08
1.72057034237e-08
6.39959614677e-08
2.42457177004e-08
1.23399614301e-08
6.14971431696e-10
3.5175773665e-09
1.06528937899e-10
1.22298638726e-08
3.58612637254e-08
1.99568616099e-08
1.30742125601e-07
1.99573692913e-07
1.86877071695e-08
1.91362364443e-07
1.02850283719e-07
2.72962222797e-08
2.67929616915e-08
1.64345515134e-08
8.02716330896e-09
3.85492680106e-09
8.83488750354e-08
1.74445519752e-08
1.72916053079e-08
9.53204672751e-09
1.03508349203e-09
1.56865725641e-09
1.77408695515e-08
2.38601258017e-08
5.18886708301e-08
2.29229774212e-07
3.13192111433e-08
2.45864774416e-07
1.78066510067e-08
1.11188380887e-08
5.24953402833e-09
3.63525767525e-09
8.63983813638e-09
1.30075729227e-08
9.09232358122e-09
1.00307697171e-07
6.9051975881e-08
6.09618334002e-08
2.01099657e-07
1.12776069888e-07
2.74320704333e-08
3.20467488983e-08
2.37539965936e-08
1.05523843306e-08
2.42473769088e-08
4.78320477846e-09
3.86583835671e-08
2.65387288387e-08
2.31019635942e-08
1.58483070458e-08
8.42441937541e-08
4.9542339095e-08
2.09510305201e-08
2.50498009937e-08
2.95036975808e-08
1.46588823686e-09
2.65825493623e-08
6.29977438189e-09
4.51130843831e-09
6.26084096665e-09
9.90637858312e-09
1.06104153712e-07
9.05345112688e-09
1.06242251062e-08
2.97952005756e-10