# vtk DataFile Version 3.0
File Name: Molecule/arg/arg_2.0-3.vtk
ASCII
DATASET UNSTRUCTURED_GRID
FIELD FieldData 1
TIME 1 1 double
0.0
POINTS 327 double
-2.9484050274 -0.4330458343 1.8066629171
-3.362621069 0.23598767817 1.563560605
-2.9762911797 -0.64611375332 1.0050998926
-3.3762347698 0.011079112068 0.76347374916
-2.8603084087 -0.13800467551 0.22870223224
-2.5011818409 -0.45255866647 0.13923038542
-2.6336722374 0.0710580796 -0.42675486207
-2.2213175297 -0.43973758817 -0.90479409695
-2.2659714222 -0.37456923723 -0.46356129646
-2.4496765137 -0.11683833599 -0.9797976017
-2.7918624878 0.69157367945 -0.83598035574
-3.2589244843 0.90500456095 -0.35910230875
-3.0562281609 0.16488349438 0.078687481582
-2.621307373 0.45487049222 -1.5021982193
-2.4543128014 1.3722566366 -0.87017059326
-2.8609836102 1.7068858147 -0.39898872375
-2.2629199028 1.1796728373 -1.5350598097
-2.4490029812 2.020349741 -0.37947192788
-1.8459191322 1.7642073631 -1.0911831856
-1.5456495285 3.1573839188 0.30491149426
-1.7578982115 2.5195081234 -0.57321095467
-2.4684669971 2.6639144421 0.62608677149
-3.1276729107 2.3601737022 1.5267702341
-1.9217369556 3.2883808613 1.4810723066
-2.5479652882 2.9599554539 2.2724795341
-2.7370653152 2.5188624859 2.3886170387
-3.002918005 2.014647007 2.5235726833
-3.4362008572 1.764120698 1.747785449
-3.4113390446 0.62819254398 1.839974165
-3.1355061531 1.7417324781 2.9603266716
-3.1218645573 0.63991576433 2.9792544842
-3.0713152885 0.047224238515 1.8945709467
-3.0997145176 0.34617987275 2.1001589298
-2.8254580498 0.15809065104 2.5641758442
-2.9321534634 0.33647894859 3.1449100971
-2.8861427307 -0.16660133004 2.1565723419
-2.5173385143 -0.69724774361 2.4406933784
-2.4690063 -0.11644860357 3.4031701088
-2.2153708935 -1.5018496513 1.9549973011
-2.0370166302 -1.0510164499 3.1947951317
-1.7516263723 -1.9353690147 2.7844426632
-1.0222690105 -2.2392179966 2.0548815727
-1.5713299513 -1.7344121933 1.2807040215
-2.184794426 -1.4674153328 0.76811271906
-1.037345767 -2.099817276 0.42947804928
-1.7154840231 -1.7619605064 -0.069805458188
-2.3039772511 -1.0078514814 0.22711579502
-1.9983251095 -1.0969281197 -0.47947728634
-2.0463533401 -0.79204833508 -0.79352015257
-1.8480677605 -1.3678926229 -1.0632722378
-2.0706608295 -0.72252655029 -1.0909807682
-1.6563835144 -1.3447159529 -1.7846759558
-2.3160302639 -0.40336087346 -1.4090483189
-1.8687316179 -0.72762608528 -1.9004129171
-2.1617155075 -0.43059015274 -1.9045443535
-1.9968911409 0.20240047574 -2.3922646046
-1.5729522705 0.14987052977 -2.6736764908
-2.0762045383 0.99067139626 -2.1020288467
-1.7377004623 1.2131373882 -2.2196030617
-1.3412388563 1.4485374689 -2.7169513702
-1.8453891277 1.5091680288 -1.6593352556
-1.4674715996 1.8107551336 -1.771094799
-1.0658072233 2.0382525921 -2.2843363285
-1.2395435572 2.4628288746 -1.3276194334
-0.50567167997 2.548207283 -2.3507916927
-0.64958620071 2.9871032238 -1.3620193005
-0.075604692101 2.9763412476 -2.1615078449
0.32279831171 2.9963166714 -1.8165986538
0.45145761967 3.1548891068 -0.89572435617
-0.064874663949 3.3304646015 -2.9706528187
0.55218881369 3.3072488308 -2.5550532341
1.0596959591 2.5690593719 -0.39041772485
0.78014546633 2.6766657829 -1.5816258192
1.5492471457 2.0202908516 -1.2046861649
0.87453073263 2.7939372063 0.45396533608
1.5419199467 1.9141526222 0.0099330218509
1.2607604265 2.1581454277 1.073951602
0.41241621971 3.0884273052 0.9028044343
0.73217338324 2.5256662369 1.1991783381
0.46978625655 2.6930294037 1.6936343908
1.1554908752 2.3835077286 2.0706870556
0.67146837711 2.7446322441 2.3344273567
-0.21181173623 3.4818651676 0.83420407772
-0.032473064959 3.2002065182 1.9008206129
-0.53238070011 3.669952631 1.8430972099
-1.225779891 3.6155622005 1.4370982647
-0.90470659733 3.54048419 0.32591378689
-0.1422509253 3.4202842712 2.9560630322
0.54152047634 2.9209825993 3.2523198128
-0.61916804314 3.1796276569 3.6562514305
0.12773390114 2.5658724308 4.0993933678
-1.2870788574 3.1999144554 3.7376184464
-0.68086618185 2.6741576195 4.0273461342
-1.464707613 2.7897946835 3.9798984528
-2.0466160774 2.9108672142 3.5792307854
-1.9211438894 3.176295042 3.5021805763
-2.3145632744 3.1756844521 3.0652070045
-2.4978208542 2.8319056034 2.9665641785
-2.3330609798 3.4062640667 2.5027971268
-0.59117174149 1.7080112696 4.5478711128
-1.0474700928 2.0071852207 4.4220609665
-1.989163518 2.0152413845 4.4680814743
-1.444447279 1.6326241493 4.5968976021
-1.4877351522 2.3328900337 4.2897381783
-2.481616497 2.1893298626 4.1034865379
-2.1747009754 2.5613124371 3.798188448
-2.8498706818 2.1574211121 3.4822089672
-2.727668047 2.4526047707 3.089710474
-1.0839290619 1.0608359575 4.6155734062
-0.25834289193 1.0893362761 4.7734093666
-0.71092677116 0.26757580042 4.7256269455
-1.5420683622 0.529553473 4.5859394073
-0.91803145409 -0.39647093415 4.7627062798
-1.774762392 -0.54783576727 4.2105035782
-2.3511507511 0.23426279426 4.2275161743
-0.047933235765 -0.30713707209 5.1184353828
-0.42511326075 -0.75734704733 5.043235302
0.19285649061 -1.1783107519 5.0917167664
0.53698503971 -0.53177797794 5.1938467026
1.0969759226 -0.80059301853 5.266831398
1.1911127567 -1.5587705374 4.923145771
0.47353634238 -1.8789958954 4.8178877831
0.82836300135 -2.2584896088 4.3836669922
1.644225359 -2.0167937279 4.3937749863
1.146176219 -2.3891253471 3.6276173592
1.9100092649 -2.1223218441 3.7769844532
1.8162697554 -1.9975526333 2.959307909
1.1099408865 -2.3416261673 2.818353653
1.0161861181 -1.8572281599 2.1312959194
1.9126359224 -1.4771765471 2.2981498241
0.7775490284 -1.6629291773 1.2611573935
0.14600239694 -2.1467776299 1.2180280685
0.0065216040239 -2.5030896664 2.063164711
1.0303512812 -1.836558938 0.35472655296
0.031429715455 -2.4713654518 0.36467134953
-0.76392775774 -1.9882428646 1.2202966213
1.4583457708 -1.1153800488 0.028056861833
1.0766890049 -1.3340550661 0.95324319601
1.3700085878 -0.824254632 0.83897507191
1.3462665081 -1.2510993481 1.7247881889
1.6696593761 -0.77671319246 1.5948582888
2.340937376 -0.72379040718 1.999175787
1.6714172363 -0.61561322212 -0.53875786066
1.6809657812 -0.17678275704 0.63116419315
1.8489279747 0.23425298929 0.053431525826
1.6787326336 -1.3900239468 -1.0214413404
2.0586731434 -0.24292248487 -1.3371704817
2.1903059483 -0.87019270658 -1.8408448696
1.387963891 -1.7366006374 -1.7207405567
1.729138732 -1.3720476627 -2.2640955448
0.89578944445 -1.9156509638 -2.1436226368
1.4416642189 -1.4092159271 -2.9067788124
0.59313726425 -1.3952028751 -3.0238132477
0.1257481277 -1.8785917759 -2.4778091908
-0.36976182461 -1.2632913589 -2.7000432014
0.14984245598 -0.80964559317 -3.4125723839
-0.36419576406 -0.62489938736 -3.1573367119
-1.1572650671 -0.7196034193 -2.5754308701
-0.81006109715 -0.2921897769 -3.1153306961
-0.99534833431 -1.3899339437 -2.346955061
-1.1450568438 0.43725505471 -3.2058775425
-0.31921958923 0.0042296443135 -3.7445659637
0.22897848487 -0.25087746978 -3.9654462337
0.55922162533 0.42578834295 -4.2406802177
0.059617564082 0.73365062475 -4.0760550499
-0.40912273526 1.9302523136 -3.5732147694
0.1484478116 1.6639089584 -4.3709011078
0.018395669758 2.9873833656 -3.6847977638
0.89089274406 3.0639810562 -3.7074708939
0.53332644701 2.3212525845 -4.1707396507
0.89623945951 3.3289210796 -2.7819581032
1.5736349821 2.752907753 -2.5471057892
1.0899039507 3.263178587 -3.2392282486
1.1402289867 2.6167008877 -2.0502829552
2.0956537724 1.6689599752 -1.9608619213
1.9572997093 2.4467024803 -2.3313360214
2.0260224342 1.1299026012 -1.3165949583
2.4305262566 1.2327564955 -2.3054513931
2.3403565884 0.56632071733 -1.5500103235
1.8513766527 0.7991450429 -0.71809047461
1.9689924717 0.94870853424 0.05977184698
1.8072930574 0.12641614676 -0.80986195803
1.8787660599 1.2760639191 -3.7860937119
2.2812869549 2.0328855515 -3.0415847301
0.6456540823 1.936704874 -4.4732341766
0.99728190899 1.7827318907 -4.2607226372
0.41918238997 1.2955095768 -4.4059958458
2.0710637569 0.64798432589 0.81779873371
1.8529343605 -0.25486952066 1.4256118536
2.1801440716 0.37690520287 1.6031236649
2.7169797421 0.13804967701 2.1372406483
1.902050972 1.4099246264 1.2451149225
2.0554230213 0.99698293209 1.971056819
2.5324938297 0.96945512295 2.5882978439
1.7926075459 1.6293570995 2.246257782
1.9696005583 1.7852418423 3.116052866
2.5760457516 1.3097305298 3.3343338966
2.1999166012 1.4994466305 3.9179699421
1.5596226454 2.0598478317 3.810564518
1.3800384998 1.6688005924 4.4157786369
1.9551802874 1.2010515928 4.6794953346
1.3030844927 0.82657319307 5.0590310097
0.67132264376 1.4212437868 4.7724533081
0.55066049099 0.83989793062 4.9799742699
-0.087309494615 0.41650700569 4.9823021889
1.1945074797 0.0044211507775 5.3576989174
0.55188286304 0.16163238883 5.2139906883
0.11646407843 2.0395863056 -4.1066093445
1.5027301311 2.5790138245 -3.3536026478
0.95633667707 2.229691267 -4.0034694672
2.2170209885 2.1160235405 -2.5003483295
1.291170001 1.4348356724 -4.1318826675
1.8383426666 1.9792510271 -3.4524583817
-3.7266089916 1.9538491964 0.86880338192
-3.270891428 2.2691495419 0.23499074578
-3.7141187191 1.5596916676 0.15040133893
-3.7224001884 0.77241140604 0.18848058581
-3.7331111431 0.43385386467 0.87433463335
-3.9377863407 1.1877164841 0.89475047588
-2.7600879669 -1.137270689 1.4915152788
-2.453315258 0.045116439462 -2.0139615536
0.46539217234 3.4499275684 -0.017039665952
-0.28455072641 3.6857230663 -0.32639616728
-1.2272744179 3.2987246513 -0.65235155821
-0.4997729063 3.8219220638 2.5039675236
-1.106644392 4.012922287 2.4426298141
-1.105915904 3.787607193 3.2426280975
-1.8722169399 3.8339283466 2.4558093548
-1.8774572611 3.5831034184 3.2224025726
-1.9641804695 1.2757320404 4.7410917282
-2.5695602894 1.6362345219 4.4861264229
-2.5881624222 0.8734292984 4.499671936
-3.0515916348 1.6028257608 4.0104475021
-3.1397843361 0.8713055253 3.8696901798
0.45816421509 -2.7103435993 3.9986720085
-0.1442232728 -2.4515995979 4.5719704628
-0.19514910877 -2.8632159233 3.9164042473
0.47704514861 -2.8534390926 3.2385442257
-0.21510000527 -2.9698219299 3.2742373943
-0.1320797205 -2.8594434261 2.6733012199
[...]
CELL_DATA 650
SCALARS cell_data_0 double
LOOKUP_TABLE default
2.65444317252e-08
4.26649240127e-07
6.68623503379e-07
3.93518034557e-07
2.87911891842e-07
4.67031877732e-09
1.22692842374e-07
1.1007906619e-07
1.78956562592e-06
8.34533388793e-07
3.748576514e-07
5.50473187703e-07
1.81214202678e-06
1.93916194965e-06
4.61512248818e-07
5.69587554853e-07
4.41424521734e-07
1.65322351035e-06
7.05367333037e-07
4.14556288575e-07
2.92019525196e-07
4.15478394073e-07
1.7424828133e-06
6.3150364482e-07
5.48352015114e-07
3.46072353405e-07
9.21567161897e-07
2.06891090674e-06
5.19594453006e-07
3.12228739339e-07
2.22961230318e-07
1.28339931981e-05
1.04178315091e-05
4.90843825472e-06
6.24913581475e-06
1.23966035127e-05
7.47424429586e-06
1.40413696669e-06
6.98300989336e-07
7.86151941706e-07
1.89722918024e-06
6.53118243766e-07
8.13736891068e-07
5.26306341322e-07
9.62163183354e-07
7.96500947755e-07
5.01777278946e-07
1.0803239518e-07
1.40255421163e-06
8.58571941598e-07
3.13509764525e-06
4.63591592036e-06
3.67653495963e-06
1.50931230929e-06
4.00322666803e-06
3.25242477664e-06
4.28910781774e-06
3.60448751373e-07
1.4459517506e-06
4.88852756531e-06
6.83108042529e-06
4.26578085315e-06
1.96836247674e-05
3.8507259528e-06
6.99999379097e-06
8.95276123315e-06
2.09691098576e-06
2.53459787571e-06
3.92604482352e-07
2.59929419444e-08
1.17497398714e-06
4.5376145036e-06
3.22767608769e-07
1.44292037413e-06
2.48622698029e-07
1.37908015152e-06
2.01974651801e-06
4.29429708236e-07
2.05128046391e-07
6.67378983996e-06
3.65020148238e-06
8.27839781652e-07
9.99538230664e-07
3.19677168209e-07
1.02093772003e-07
2.67746685634e-07
7.64989672549e-08
7.32820849745e-08
4.36435578082e-07
3.47289232637e-07
2.62576306553e-06
3.20199988655e-07
3.38822375947e-07
3.69512627017e-07
3.90414665701e-07
4.7168831578e-07
2.98783480178e-07
4.89815975353e-07
2.18377679431e-07
5.45691707932e-07
1.12307932485e-06
1.03255091824e-07
6.54674480414e-07
1.77370658889e-06
3.64098483141e-06
2.45961253388e-06
3.89948503629e-06
2.58272126881e-06
6.08711930193e-07
2.08349831606e-07
5.54016655808e-08
5.64886127874e-07
4.28952478626e-06
3.04170228983e-06
2.49614271325e-06
1.32457685528e-05
1.04754947128e-05
2.92861638456e-05
3.22150832437e-05
2.67878791483e-06
3.01309961181e-06
6.21294869755e-06
3.24594272594e-06
7.52376607571e-06
5.79067560018e-06
1.08287516673e-05
1.49683790933e-06
8.82004829592e-06
6.13319791215e-08
8.43852276831e-06
3.39786187723e-06
5.49313001168e-06
3.86338407406e-06
1.3889135713e-09
1.02401789249e-06
2.63932503041e-06
3.56481085188e-06
2.73636173758e-06
3.28400811457e-06
3.07829147905e-06
3.30304113916e-06
3.47834658859e-07
4.23546015947e-07
2.31176426582e-06
2.65125473134e-06
2.2377574642e-07
9.77536269326e-07
2.11831857902e-06
6.79715500613e-08
5.34371787479e-08
2.12152381266e-06
4.09033616221e-06
2.35650483013e-06
6.28703548933e-06
8.4844738718e-07
1.59753045103e-06
5.27708357356e-06
2.2878665839e-06
2.2820088056e-05
4.30517948645e-05
2.09719666793e-05
3.68365516206e-05
4.14898040017e-05
2.28765627542e-05
8.89516838725e-06
2.30465763761e-05
4.06564115341e-06
2.889689835e-07
6.27872774485e-06
7.24358384174e-06
2.42770717334e-06
2.03851700788e-06
2.71776604247e-06
1.797456967e-06
1.84181562325e-05
6.00764033136e-06
5.91885364256e-07
1.61636866191e-06
2.33929467943e-06
6.51730209063e-07
1.0731412928e-06
2.58653750441e-06
6.7789031555e-07
1.81201251846e-06
1.10044239002e-05
3.49439387929e-06
3.85636641678e-06
2.81764533036e-05
2.49206701313e-05
1.8947742026e-05
2.48171266048e-05
6.72700002388e-06
4.06330946279e-07
6.1447203151e-06
7.76111742711e-07
7.34992461138e-07
3.49443632659e-07
2.63062473321e-07
3.81261299147e-07
7.11601895546e-07
7.99626441036e-07
8.56556913686e-08
1.3842361962e-06
6.49848294929e-07
4.43562652724e-07
9.89975461942e-07
4.01418214022e-06
3.88095767603e-06
1.64724313495e-06
1.79773589712e-06
1.06188083345e-06
6.40487337067e-07
1.6777508717e-05
2.86100331235e-06
3.65096826165e-06
7.78399317385e-07
1.23998497994e-06
1.92693293524e-06
7.99720248004e-07
5.06159372407e-06
6.25913439637e-06
4.2774388415e-05
9.67578186198e-06
4.81878726832e-07
6.38467389566e-06
5.65552527594e-06
2.02477505023e-06
1.25037192108e-06
3.48368197037e-08
1.72761250774e-06
8.82984922086e-07
3.29234035079e-07
8.75860000341e-07
2.38065709789e-07
1.25913612581e-06
4.36405273783e-06
8.84535277285e-07
3.00816345582e-06
1.95106676527e-06
2.18658958017e-06
2.62063635458e-06
6.09868601987e-07
4.21097618357e-07
1.46413331568e-06
1.95171443804e-06
3.08108280301e-08
8.0771983636e-07
2.8156685329e-05
7.33759715744e-05
3.32755109196e-05
1.36432743959e-05
8.4163689515e-06
2.89740366086e-06
2.12240027001e-06
1.57664519083e-05
4.32145528588e-06
3.74228811135e-06
3.3682412231e-08
2.79897134703e-07
1.93396756562e-07
2.59852796586e-07
1.12660092764e-08
1.42431020745e-07
1.95586305179e-06
9.69683211213e-08
1.07793564421e-07
2.81605446873e-07
1.29545621978e-06
8.90399749397e-07
1.98658352657e-07
3.02385280725e-07
1.36974583369e-06
6.92248515341e-08
3.13623496193e-07
1.76781622067e-08
7.307237516e-09
2.07778759315e-07
4.86875952252e-07
4.57388358368e-07
3.74560918615e-08
2.80082988126e-06
1.63390166017e-06
1.69203854363e-07
9.63851312438e-07
5.50235504303e-07
4.70710438215e-06
1.44775689484e-06
2.07652655856e-06
2.16716108542e-07
7.26391365176e-07
1.48925036792e-06
4.18816296699e-06
1.24083832367e-06
2.27989391939e-06
3.22566112545e-07
1.77683834866e-06
8.07414111133e-07
1.12257264258e-06
1.43746956428e-06
1.55931576799e-06
1.05284794118e-06
8.97135289241e-07
2.62617832042e-06
1.76097263863e-06
2.6442196334e-06
4.33382681784e-07
1.88343714226e-06
4.53058392277e-06
3.47849577118e-06
5.0550940745e-08
3.64152759602e-06
9.75228519524e-07
3.14673988864e-07
2.24889044626e-07
1.81286250681e-07
4.06042758747e-07
5.83568608235e-08
3.94916220617e-07
6.8246046611e-09
2.890565784e-08
3.90681695949e-07
1.02970671591e-07
1.65452821919e-06
2.50557485425e-07
6.15863162361e-07
3.44325375931e-07
2.23454389298e-07
1.7123791315e-06
4.55718113253e-07
1.19686427934e-06
3.15891369456e-07
1.27312078258e-06
3.80857104854e-07
2.65652466356e-08
3.69048798096e-07
8.8183996135e-09
3.72359037386e-07
1.43912195344e-07
3.42234762707e-07
1.74153248698e-07
9.10243261456e-07
2.42220355374e-08
3.59030776427e-07
6.01290091858e-07
1.20338653599e-06
2.07694533749e-07
9.54678230257e-08
5.39170383973e-07
5.2321366029e-08
9.41095014465e-08
3.98354264732e-08
8.97346041858e-08
8.62173855138e-08
3.87713845445e-07
5.94289374028e-07
7.02889196339e-08
3.67481098708e-06
1.20427772245e-06
3.3037415978e-09
3.45893219944e-06
4.36222336265e-07
1.24644163774e-05
1.30447149236e-05
1.33856827361e-05
8.03768627154e-06
1.13288391984e-05
1.3757385348e-06
1.50739390946e-06
1.73484455679e-06
6.71257528191e-07
4.06445557911e-06
1.29941067357e-06
6.34077899418e-08
1.51821849415e-06
6.84059403821e-07
6.12295377883e-07
5.35130440569e-07
7.26582482901e-07
1.5944662876e-06
2.76775086811e-06
2.63065818907e-06
6.33363528325e-07
1.67391863858e-07
1.4152345449e-06
5.30283627665e-06
2.93774331363e-06
9.17822222396e-07
1.10674865809e-06
4.65838627446e-06
7.79089963826e-06
5.76967603407e-06
1.27218141764e-06
1.19749428007e-05
1.74848228142e-05
2.41049142649e-05
1.47379604861e-05
2.50740623353e-06
1.55845782484e-05
7.80162191117e-07
2.13755900969e-06
7.68893294047e-08
2.25754340983e-07
8.44428651381e-07
2.81880242888e-06
2.24792174764e-07
1.52327108321e-06
2.25457178437e-07
1.74635461392e-05
2.71233536405e-06
2.51069745724e-07
1.11752072036e-06
4.11559137826e-06
1.85621738666e-07
8.86882583114e-07
2.55841094141e-07
2.73152654005e-07
1.00786045061e-06
9.21725425118e-07
6.60637771222e-08
1.21181624674e-07
8.57312828207e-08
3.35066500005e-07
8.22573341195e-07
3.02065765828e-07
4.66190673237e-07
2.20639685685e-08
7.2810993918e-07
2.34920103628e-07
1.14064810578e-06
1.91778527626e-07
1.85880605865e-07
4.52134782099e-07
6.07644657871e-07
4.74306376649e-08
9.84596540077e-07
7.22741180863e-07
2.28114626228e-06
2.96701150895e-06
2.30040857664e-06
7.37897107463e-06
4.69859408595e-07
2.97267172732e-06
3.71666165927e-06
1.24368013424e-06
1.15578369239e-06
6.62046610445e-07
5.36590310655e-07
1.22283374951e-06
2.94861313651e-07
3.6085257397e-07
1.0370361774e-06
1.56070946818e-06
4.14298297425e-06
5.04032981143e-06
3.38371008196e-06
1.46340273126e-06
7.2653634421e-06
3.05659191614e-06
1.18788161171e-06
5.34030252036e-06
3.99574408302e-07
6.5321144477e-06
3.88322132917e-05
9.2213893341e-06
2.89085092578e-05
1.02576976392e-05
3.45616371851e-05
1.23706995733e-05
3.65409589319e-06
7.0865885713e-08
3.28577236527e-07
4.98520475318e-07
1.10794108299e-06
6.45167691584e-07
1.96027193218e-06
6.48577483586e-06
9.09545661031e-06
1.26209469615e-05
1.31599484793e-05
1.00034850787e-05
3.38967813768e-05
4.58400521127e-05
1.31310301263e-05
7.74103201377e-07
1.23437995343e-06
2.49356603246e-06
1.34234490108e-06
1.83167543013e-06
2.41067694408e-07
4.11783730259e-07
2.00022480916e-06
8.03715835757e-07
3.17332058477e-08
3.06547202243e-07
2.90621800746e-07
1.98637101818e-07
4.9526539246e-07
5.11290259367e-07
5.59786686126e-07
3.88748690355e-07
9.07824288966e-07
2.46325158838e-07
1.02644178302e-05
1.24101559298e-06
1.0026174767e-06
1.54219322826e-06
1.53357761988e-06
2.27562874741e-06
9.42609482228e-07
2.62857112891e-06
3.3670851263e-07
8.24007566122e-07
3.82672722476e-07
2.47609903051e-07
1.05160121107e-07
3.62007664466e-06
6.44536540463e-06
1.34724359035e-05
6.49164866659e-06
5.4408447566e-06
4.17715281577e-06
1.54231713302e-06
1.29736542417e-06
3.59016203597e-07
1.53312177695e-06
1.40823060603e-06
6.73409680436e-06
9.92614000764e-06
6.2316990281e-06
2.09584430717e-06
1.43407185327e-06
7.83053686489e-06
3.01795304737e-06
1.69988239874e-07
4.53602653919e-07
1.0137339783e-06
1.07369388775e-06
1.13144449562e-06
2.04729170704e-06
1.61461872701e-06
9.30044346804e-06
7.03505394673e-06
3.59560986415e-05
3.04292820044e-05
7.96251492877e-06
1.818632757e-06
4.09709187747e-06
2.15861696076e-06
1.29005157602e-06
4.46487941782e-07
6.65917398366e-07
1.15851999594e-06
5.42894405378e-07
3.44451175127e-06
1.24892488333e-06
1.78263538978e-05
3.42840175647e-07
3.13169806809e-05
3.20531137957e-05
2.95263159048e-06
4.79792037626e-06
1.70304364946e-06
2.83146273412e-06
5.9161447066e-07
1.25320028291e-06
8.11949744356e-07
1.7142610026e-06
1.17911971903e-06
8.73672890401e-07
8.26003216878e-06
2.16706302774e-06
1.83222741271e-06
2.17383289481e-07
3.04275041771e-06
1.39947533116e-06
1.07744122336e-07
9.43681987915e-08
2.58110599509e-06
1.36434946389e-06
6.40695415819e-08
3.40501515172e-07
2.27919099412e-06
1.93921691644e-06
3.65615404492e-07
1.9925194497e-06
1.01495597432e-06
3.96746258155e-06
1.08875018757e-05
3.42388339227e-06
6.12326225171e-07
5.87526517226e-07
6.29939668849e-06
1.56019451831e-06
1.4031558818e-06
5.55872777237e-07
3.35551213377e-06
2.31487993217e-06
6.67918329513e-07
1.88305465111e-06
7.36867304006e-07
5.89182765543e-07
1.15075302174e-06
1.15962980669e-06
6.98692732337e-07
9.61985156519e-07
9.33922107135e-07
1.90096339862e-06
4.9548886217e-07
3.20301535612e-06
2.26199993069e-05
2.62658914595e-05
3.26505464914e-05
2.4453463772e-06
0.000138511190531
1.15763773771e-05
6.53068615481e-06
6.24598354545e-05
2.4548233576e-05
1.35656319852e-06
2.95371093919e-05
1.93503839905e-05
2.66605783948e-05
3.36280479334e-05
8.43523511743e-06
8.1474140762e-06
1.79086250666e-05
2.14129261172e-05
3.66675843074e-05
1.73113226942e-05
2.20900243845e-05
4.51561292889e-05
1.08604012299e-06
1.51024066275e-05
1.40717845691e-05
7.88625021435e-06
1.99928013537e-05
1.78569092905e-06
7.71641674814e-06
1.17224171693e-06
3.20423378594e-07
8.07811050459e-06
3.02459050094e-05
1.81328989272e-05
6.59494959369e-06
1.07001045849e-05
2.99481874665e-05
1.1333785793e-05
6.96174502119e-06
3.09055688351e-05
7.75031861694e-06

