# vtk DataFile Version 3.0
File Name: Molecule/arg/arg_0.5-2.vtk
ASCII
DATASET UNSTRUCTURED_GRID
FIELD FieldData 1
TIME 1 1 double
0.0
POINTS 149 double
-3.439081192 0.23983547091 1.4199645519
-3.1631529331 -0.12192200124 0.6077991128
-2.9867596626 -0.58923572302 1.4816353321
-2.5460751057 -0.99076867104 0.59975469112
-2.8761847019 0.14204324782 -0.14350453019
-2.4992406368 -0.46112987399 0.15347029269
-2.2260568142 -0.48740983009 -1.1259564161
-2.2113919258 -0.46834596992 -0.88129085302
-2.407289505 -0.20037816465 -1.169526577
-2.3965449333 1.0579823256 -1.4033895731
-2.8959219456 1.7477940321 -0.39204627275
-2.1878814697 1.8308618069 -0.68581062555
-1.9190456867 1.4647809267 -1.5639618635
-1.6869574785 1.9371647835 -1.0984216928
-2.544927597 2.6178588867 0.47451710701
-1.7613162994 2.6053850651 -0.55010437965
-1.4110400677 3.2521965504 0.10478755832
-3.1563308239 2.3201267719 1.4784506559
-1.8545203209 3.3279242516 1.4529969692
-2.4314613342 3.1121048927 2.2223148346
-2.9257707596 2.1812844276 2.7218008041
-2.7332458496 2.5387356281 2.3377697468
-3.4109530449 1.7838795185 1.8508409262
-3.1411783695 0.76836854219 3.1048090458
-3.0967717171 1.7775673866 3.0449512005
-3.3802127838 0.79832869768 1.9911373854
-3.023239851 0.45175263286 2.4040679932
-3.1168227196 0.16777849197 1.9056332111
-2.8778581619 0.2317892164 2.939520359
-2.8626413345 0.025210175663 2.2970621586
-2.9951300621 -0.21917381883 1.8693298101
-2.5095648766 -0.70482319593 2.447111845
-2.4420843124 -0.069246865809 3.5867228508
-1.752617836 -1.6804606915 1.3792140484
-1.9557076693 -1.2709804773 3.4416127205
-0.90237659216 -2.3995392323 2.2514007092
-0.95140087605 -2.2290575504 0.28337007761
-1.9565012455 -1.3115375042 -0.0189130418
-2.3005933762 -0.31388342381 -0.45061665773
-2.0486421585 -0.78595906496 -0.78805339336
-1.9357675314 -1.2893470526 -0.93956714869
-2.0609078407 -0.74303132296 -1.3039191961
-1.6542658806 -1.7197556496 -1.4939115047
-2.2050602436 -0.49580848217 -1.761421442
-1.7427150011 -0.76759701967 -2.0759754181
-1.5402771235 0.1404042542 -2.7231872082
-2.2603704929 0.20908367634 -2.2779312134
-1.8442046642 0.96958947182 -2.3896019459
-1.0626895428 0.71116548777 -3.4259057045
-1.5584136248 1.4792808294 -2.230672121
-1.2108858824 1.6233789921 -2.875992775
-1.1336444616 2.0781702995 -2.1355478764
-1.4992077351 1.8357816935 -1.6907385588
-1.3232754469 2.4048485756 -1.2789950371
-0.42182031274 2.5982408524 -2.4371564388
-0.79257529974 3.0176887512 -1.2924627066
0.76457500458 2.7105412483 -1.688160181
0.71318691969 3.3969881535 -2.7106835842
-0.024410113692 3.2409548759 -2.8204257488
0.4224306047 3.3711385727 -0.53126388788
1.0714492798 2.4655919075 -0.53616929054
1.5520349741 2.0220320225 -1.2191559076
0.98748582602 2.7580554485 0.20987930894
1.5481578112 1.9062567949 0.018223967403
1.2066190243 2.219414711 1.0456869602
0.37905478477 3.1054008007 0.85430306196
0.54238641262 2.7760694027 2.2765049934
-0.20606699586 3.405352354 2.0218763351
-0.6132619977 3.3050711155 3.4844896793
0.30379372835 2.6793129444 3.9150958061
-0.64164441824 2.7058928013 4.0083150864
-1.7471312284 2.7410447598 3.926213026
-2.0132346153 3.3748173714 3.3161580563
-2.4074211121 2.6565608978 3.4438238144
-0.52945041656 1.8234866858 4.5318460464
-1.07561481 2.2506194115 4.3515520096
-2.4395594597 2.2314114571 4.1091918945
-1.573461175 1.7630466223 4.5573382378
-0.25085699558 1.0599575043 4.7853507996
-1.0622559786 1.0748963356 4.6174445152
-0.70382404327 0.24597489834 4.7288131714
-1.664003849 0.70952880383 4.6324648857
-1.0617223978 -0.48838487267 4.7345023155
0.11272150278 -1.2080508471 5.0704464912
0.32142573595 -0.30627816916 5.2029285431
0.81123739481 -2.5063605309 3.90148139
1.2918961048 -0.83526140451 5.3282966614
2.0457780361 -2.0564527512 4.0950598717
1.9248176813 -1.4859734774 2.3139488697
0.97568899393 -1.8728283644 2.1355338097
0.88890963793 -1.7362732887 0.69558936357
1.6928613186 -0.13826403022 0.88399338722
2.3461866379 -0.44806870818 1.9683097601
1.3964995146 -1.1532946825 0.12838195264
1.7582879066 0.18895742297 -0.22724376619
1.6782820225 -0.81082504988 -0.85447371006
1.1004061699 -2.0091598034 -1.8245505095
1.6571178436 -1.366430521 -2.6761064529
2.1884770393 -0.19637292624 -1.4586919546
-0.41244015098 -1.6847747564 -2.4897062778
0.16264300048 -0.80702406168 -3.4186737537
-1.0101225376 -1.2744621038 -2.4266219139
-0.4268335402 -0.84706103802 -2.8703856468
-0.61303752661 -0.26149195433 -3.3407831192
-1.1056758165 -0.58778893948 -2.6933484077
-0.059425171465 0.55311685801 -4.0204515457
0.58206111193 0.39276307821 -4.2405018806
-0.41458016634 1.9183850288 -3.5791010857
0.36374205351 1.3329005241 -4.3967285156
0.13448268175 2.0453562737 -4.1165671349
-0.026478916407 2.9956212044 -3.6306145191
0.96099323034 3.0522933006 -3.668949604
0.92087525129 2.2264938354 -4.0189862251
0.48115634918 2.9875161648 -3.8661124706
1.1440109015 3.1185863018 -2.9320039749
1.6239076853 2.6438324451 -3.2642836571
1.6518633366 2.7006652355 -2.5746567249
1.2793837786 2.576084137 -2.1756412983
2.1820390224 2.1770720482 -2.5256114006
2.1167035103 1.6289889812 -1.9230879545
2.3343913555 1.4166299105 -2.4153506756
2.3896214962 0.72957670689 -1.7084900141
1.9558116198 0.91833770275 -1.0488554239
1.9737756252 0.91732287407 0.10677079856
1.8487533331 2.0212173462 -3.4206383228
1.9532268047 1.1421442032 -3.8995206356
1.1892858744 1.6125102043 -4.1910161972
2.5648987293 0.92179167271 2.6185395718
1.8905768394 1.3000411987 1.3652963638
1.8466149569 1.6413683891 2.5288045406
1.293076992 2.3098175526 2.1344954967
0.74793946743 1.755517602 4.6687073708
2.1020195484 1.5091276169 4.0488862991
0.54846692085 0.87836408615 4.9695658684
-0.070005483925 0.43979096413 5.0312728882
1.3262031078 0.77937793732 5.0693821907
-3.9326601028 1.1911048889 0.79480320215
-1.6831661463 3.9108765125 2.5004432201
-2.6260597706 1.4252960682 4.484805584
-1.0869528055 -2.0260205269 4.5925521851
0.74746954441 -2.6471281052 -0.81386744976
3.6440999508 -0.43012568355 3.532875061
2.8362939358 0.47310608625 4.976793766
2.7579405308 -1.1012533903 5.0573306084
2.1511163712 0.61008322239 5.2199401855
2.1088776588 -0.48807868361 -3.9646148682
0.93524670601 3.4181017876 -3.2971351147
0.05318986252 3.3301281929 -3.0701394081
3.0368542671 1.04804492 3.8713843822

CELLS 294 1176
3 0 1 2
3 2 1 3
3 1 4 5
3 6 7 8
3 8 4 9
3 10 9 4
3 10 11 9
3 12 11 13
3 11 14 15
3 15 14 16
3 14 17 18
3 18 17 19
3 20 21 22
3 17 22 21
3 23 24 25
3 22 25 24
3 26 25 27
3 0 27 25
3 23 26 28
3 29 28 26
3 29 27 30
3 2 30 0
3 2 31 30
3 28 31 32
3 31 33 34
3 34 33 35
3 36 33 37
3 3 37 33
3 3 5 37
3 5 38 37
3 37 39 40
3 40 41 42
3 7 6 39
3 38 8 7
3 8 43 6
3 44 42 41
3 45 44 46
3 43 46 44
3 46 47 45
3 45 47 48
3 9 12 47
3 49 47 12
3 50 49 51
3 52 51 49
3 52 13 53
3 53 13 15
3 54 51 55
3 53 55 51
3 55 56 54
3 57 58 56
3 59 60 56
3 56 60 61
3 60 62 63
3 63 62 64
3 62 65 64
3 65 66 64
3 65 16 67
3 67 16 18
3 67 68 66
3 66 68 69
3 70 68 71
3 72 71 68
3 71 72 73
3 72 19 73
3 69 70 74
3 75 74 70
3 76 77 71
3 73 76 71
3 76 73 24
3 20 24 73
3 78 74 79
3 77 79 74
3 79 80 78
3 81 80 79
3 81 32 82
3 82 32 34
3 83 84 82
3 80 82 84
3 83 85 86
3 86 85 87
3 87 85 88
3 89 88 85
3 36 90 35
3 89 35 90
3 88 90 91
3 92 88 91
3 91 93 94
3 95 94 93
3 96 97 95
3 98 95 97
3 96 99 97
3 97 99 100
3 99 101 102
3 103 102 104
3 104 101 44
3 42 44 101
3 104 45 103
3 103 45 48
3 105 100 103
3 100 105 106
3 105 107 108
3 108 107 109
3 107 54 110
3 110 54 58
3 111 112 113
3 111 114 115
3 115 114 116
3 114 57 117
3 117 57 56
3 116 117 118
3 119 118 117
3 120 119 121
3 122 121 119
3 123 122 63
3 61 63 122
3 123 94 122
3 94 98 122
3 118 120 124
3 125 124 120
3 125 106 126
3 126 106 108
3 126 112 124
3 124 112 115
3 127 92 128
3 91 128 92
3 129 128 130
3 64 130 128
3 131 132 69
3 131 78 133
3 133 78 134
3 133 84 135
3 135 84 86
3 27 0 30
3 38 5 4
3 4 8 38
3 12 9 11
3 15 13 11
3 18 16 14
3 21 19 17
3 24 20 22
3 26 23 25
3 28 29 31
3 34 32 31
3 36 35 33
3 39 37 38
3 39 41 40
3 43 44 41
3 50 48 47
3 49 50 47
3 53 51 52
3 58 54 56
3 59 56 55
3 63 61 60
3 130 64 66
3 67 66 65
3 70 69 68
3 77 74 75
3 134 78 80
3 82 80 81
3 86 84 83
3 90 88 89
3 93 91 90
3 98 94 95
3 102 100 99
3 101 104 102
3 108 106 105
3 110 109 107
3 115 112 111
3 117 116 114
3 120 118 119
3 121 122 98
3 126 124 125
3 129 127 128
3 133 135 131
3 0 25 136
3 0 136 1
3 4 1 136
3 4 136 10
3 10 136 14
3 10 14 11
3 14 136 17
3 17 136 22
3 22 136 25
3 5 3 1
3 2 3 33
3 2 33 31
3 29 30 31
3 41 39 6
3 7 39 38
3 9 46 8
3 43 8 46
3 41 6 43
3 47 46 9
3 13 52 12
3 12 52 49
3 16 65 59
3 16 59 55
3 16 55 15
3 53 15 55
3 59 65 62
3 59 62 60
3 72 68 137
3 72 137 19
3 19 137 18
3 18 137 67
3 67 137 68
3 75 71 77
3 21 73 19
3 73 21 20
3 71 75 70
3 138 23 32
3 23 138 24
3 24 138 76
3 76 138 77
3 79 77 81
3 138 81 77
3 81 138 32
3 28 32 23
3 27 29 26
3 35 89 85
3 35 85 139
3 35 139 34
3 34 139 82
3 82 139 83
3 83 139 85
3 37 40 36
3 36 40 42
3 36 42 140
3 36 140 90
3 90 140 93
3 93 140 95
3 96 95 140
3 96 140 99
3 99 140 42
3 99 42 101
3 45 104 44
3 51 54 50
3 50 107 48
3 48 107 105
3 48 105 103
3 102 103 100
3 107 50 54
3 61 122 119
3 61 119 117
3 61 117 56
3 64 128 63
3 63 128 123
3 94 123 91
3 128 91 123
3 66 69 130
3 130 69 129
3 129 69 132
3 131 69 74
3 131 74 78
3 80 84 134
3 134 84 133
3 141 142 143
3 141 143 87
3 141 87 88
3 141 88 92
3 141 92 127
3 86 143 144
3 143 86 87
3 100 106 145
3 100 145 97
3 97 145 98
3 120 121 145
3 98 145 121
3 120 145 125
3 125 145 106
3 109 112 108
3 108 112 126
3 116 118 115
3 115 118 124
3 110 113 109
3 109 113 112
3 111 146 114
3 114 146 57
3 57 147 58
3 58 147 110
3 111 113 146
3 146 113 147
3 110 147 113
3 146 147 57
3 135 132 131
3 129 132 127
3 127 148 141
3 141 148 142
3 144 142 132
3 148 132 142
3 148 127 132
3 144 132 135
3 142 144 143
3 144 135 86

CELL_TYPES 294
5
5
5
5
5
5
5
5
5
5
5
5
5
5
5
5
5
5
5
5
5
5
5
5
5
5
5
5
5
5
5
5
5
5
5
5
5
5
5
5
5
5
5
5
5
5
5
5
5
5
5
5
5
5
5
5
5
5
5
5
5
5
5
5
5
5
5
5
5
5
5
5
5
5
5
5
5
5
5
5
5
5
5
5
5
5
5
5
5
5
5
5
5
5
5
5
5
5
5
5
5
5
5
5
5
5
5
5
5
5
5
5
5
5
5
5
5
5
5
5
5
5
5
5
5
5
5
5
5
5
5
5
5
5
5
5
5
5
5
5
5
5
5
5
5
5
5
5
5
5
5
5
5
5
5
5
5
5
5
5
5
5
5
5
5
5
5
5
5
5
5
5
5
5
5
5
5
5
5
5
5
5
5
5
5
5
5
5
5
5
5
5
5
5
5
5
5
5
5
5
5
5
5
5
5
5
5
5
5
5
5
5
5
5
5
5
5
5
5
5
5
5
5
5
5
5
5
5
5
5
5
5
5
5
5
5
5
5
5
5
5
5
5
5
5
5
5
5
5
5
5
5
5
5
5
5
5
5
5
5
5
5
5
5
5
5
5
5
5
5
5
5
5
5
5
5
5
5
5
5
5
5
5
5
5
5
5
5
5
5
5
5
5
5

CELL_DATA 294
SCALARS cell_data_0 double
LOOKUP_TABLE default
4.87955158214e-07
3.14372012379e-07
2.65877109993e-07
3.97863049179e-07
8.66130419316e-06
1.26215176189e-05
1.07041414824e-05
2.01076806287e-07
3.43967255721e-06
5.46301837188e-06
1.66958766263e-06
1.39214354653e-06
1.06427551461e-07
6.30122713998e-07
3.69054351159e-06
3.57370362401e-07
1.59901181824e-07
2.54770015929e-07
1.2453403792e-07
1.44493227821e-06
6.32072848003e-07
8.7882008814e-07
3.09964751515e-06
2.62689146168e-06
1.72323959043e-05
0.000118195168035
1.13121900202e-05
5.15818525691e-07
1.55504728762e-06
3.93723875973e-06
2.05599380292e-06
4.8148456393e-06
2.18967661912e-08
4.3005718742e-07
2.60531824942e-06
4.68274305234e-06
6.07220101312e-07
3.9216969511e-06
1.46065625227e-06
2.33891499709e-06
7.5837578745e-06
2.00000975804e-06
1.99093336078e-06
2.68900362228e-06
3.56607765267e-07
2.3680664399e-06
2.27799294889e-05
4.97505339893e-06
8.45664143143e-06
0.000123648786444
1.78270168295e-05
9.97898327406e-06
1.86841949241e-06
7.0917305632e-07
1.9256953851e-06
5.5376260474e-06
1.50012921856e-05
4.4050936197e-06
1.02256597706e-07
9.8678617248e-05
1.39315048216e-05
3.26944165237e-06
4.09901646846e-06
6.75564129529e-07
2.00792499297e-05
7.19694387627e-06
1.08036356115e-06
2.28166117891e-06
1.15072092331e-06
1.57525362576e-07
1.847538415e-06
9.35656835171e-06
6.39097154337e-06
2.33117325683e-06
3.31464237494e-05
2.02622691283e-05
1.53263930766e-05
2.35409561571e-05
5.09177567934e-05
0.000618531929271
0.00066870449205
8.7064886291e-05
1.12107601535e-05
8.46365673291e-05
2.29853215321e-05
5.42870711264e-05
1.83341567051e-05
2.92106260036e-06
6.75139680253e-06
1.61041392366e-05
2.3811923117e-05
1.10752462807e-05
2.24497795965e-06
3.87430573319e-06
2.51222434693e-06
4.98686503047e-06
5.31537900422e-06
1.10608352716e-05
1.86826336959e-05
2.95768721886e-05
0.000111045542459
4.96649682386e-05
4.56675547838e-05
0.000108462598324
3.62210905524e-05
2.6198185613e-05
5.68037774343e-05
6.65617417196e-05
3.61060260841e-06
4.30346161975e-05
7.48589191751e-05
4.03285955308e-05
1.22074477756e-05
2.7435264357e-05
2.22044356496e-05
1.56324415395e-05
2.06715219435e-05
5.90400180947e-05
3.81151828423e-05
3.43148815805e-06
7.28049568564e-05
0.000133219943285
0.000134695147109
1.50060025424e-05
1.35300165359e-05
0.000174858808963
1.57869477486e-05
0.000164419223261
3.87326500286e-06
4.92126923563e-06
3.28365622713e-05
2.68044984721e-05
4.687359285e-07
1.49802712969e-06
1.1428260063e-05
4.0430377039e-06
1.50126227515e-06
9.65161261376e-06
2.99564288924e-06
2.05456086124e-06
1.80274893912e-06
7.56952310091e-07
8.1990585166e-06
3.17674838099e-05
1.93888220885e-06
1.27609629504e-06
4.59540392789e-06
1.19791214056e-05
5.46672091725e-06
8.22049537777e-07
2.29809658554e-05
2.03679190036e-05
5.0225926221e-06
3.01095272302e-05
9.83729554129e-06
1.6206527258e-05
2.52275986814e-06
6.43867995531e-06
6.39992743671e-06
8.44368955476e-05
0.000107318968552
2.57524510783e-05
2.13233183937e-05
1.2272934619e-06
5.64116224741e-06
0.000100178817151
5.32514492828e-05
9.37220167809e-05
4.09695813715e-05
9.91012628216e-05
3.04699818275e-05
9.19183807136e-05
0.000129154584496
1.03673801956e-05
6.95458129659e-07
6.13585611337e-07
1.8533648409e-07
1.35639696417e-05
4.76671766515e-06
3.10375112064e-06
3.11477324226e-06
1.2698549891e-06
1.69951808191e-06
1.21823004495e-06
6.17972296608e-06
1.04449195761e-06
2.69652735701e-07
7.00344118325e-07
1.73950424475e-06
3.06930676932e-05
3.6351315927e-06
1.95097013857e-06
2.95249173066e-06
5.30066141046e-07
1.96650058905e-06
1.53582840966e-05
2.04286877011e-05
3.77592038096e-06
2.55962266722e-06
3.1359399758e-06
3.51935124001e-06
5.04883910471e-06
4.49653556956e-06
2.3207323835e-06
1.57082928543e-06
1.36358142668e-05
9.73332902398e-06
2.37210505272e-06
1.23580164093e-06
4.1470704278e-06
5.15231699293e-06
3.8933786144e-06
2.18311190825e-06
1.43803945367e-06
2.33709327946e-06
4.5706924932e-06
3.58454267466e-06
2.09958856158e-07
7.33808205619e-08
0.000355101605519
0.000842078175039
0.000141433937308
5.02985875416e-05
6.65938044074e-05
1.17701624942e-05
8.53987099513e-06
5.93013309268e-06
4.17789528947e-05
2.01046377273e-05
3.29413715154e-06
1.31568479821e-05
1.16496822431e-05
1.64015137879e-05
1.14367509794e-05
7.17672617017e-06
8.10711768803e-06
3.17209910918e-06
5.72636079086e-06
6.24080974047e-05
1.47283742196e-05
9.95276966239e-07
9.5015798443e-06
1.71642607936e-05
3.82878100649e-05
9.1006114689e-06
3.71236257055e-05
2.91986873959e-05
1.36624431269e-05
2.15979745883e-05
0.00011675688543
0.000494857824605
0.000788357157945
3.59736145297e-05
1.67171354574e-06
8.41254760438e-06
7.83569862432e-06
1.93445359329e-05
0.000270560641919
0.000457751471606
2.40475842774e-05
2.13911808387e-06
2.64147941899e-05
0.000172365631041
8.09434757745e-06
6.2742145759e-06
1.48980309319e-05
2.79871002655e-05
5.46721543474e-05
2.95098821269e-05
5.75437908466e-05
0.000412367119913
0.000394810640722
0.000121094362529
0.000330154025871
0.000129742991788
0.000132518186532
2.3723209037e-05
0.00010729703427
0.000181230779648
0.000131514419094
7.17412511174e-05
0.00118969968281
0.000139109040323
0.000101513593862
9.45742109329e-07
0.000164952690598
9.48926630196e-05
4.88099841625e-05
3.73576872762e-05
6.20478191742e-06
0.000137882875895
4.01790795443e-05
2.31823956605e-05
3.73893031462e-05

