# vtk DataFile Version 3.0
File Name: Molecule/arg/arg_1.0-0.vtk
ASCII
DATASET UNSTRUCTURED_GRID
FIELD FieldData 1
TIME 1 1 double
0.0
POINTS 188 double
-3.4049434662 0.27053835988 1.3773874044
-2.9867041111 0.027845079079 0.43314865232
-2.9515676498 -0.44762280583 1.6142177582
-2.6266441345 -0.54667967558 0.46618357301
-3.0057199001 0.13717776537 0.012970315292
-2.221457243 -0.44099971652 -0.91329926252
-2.3252232075 -0.37857815623 -0.46152877808
-2.4518306255 -0.11424668133 -1.0979046822
-2.723423481 1.5518264771 -0.68589401245
-2.2514717579 1.0993722677 -1.5673152208
-1.9578485489 1.7446508408 -1.0884578228
-2.5693628788 2.0078983307 -0.4054710865
-1.4157423973 3.1764769554 0.21664249897
-1.7520083189 2.4714016914 -0.62495529652
-2.4838113785 2.642988205 0.59049022198
-3.0988180637 2.3704180717 1.5485546589
-1.8511373997 3.338326931 1.510856986
-2.4781825542 3.0275294781 2.2832729816
-2.6296715736 2.570797205 2.495900631
-2.9169983864 2.0809426308 2.6801133156
-3.4316935539 1.7751017809 1.7782560587
-3.3998332024 0.68082785606 1.9046638012
-3.1099431515 1.7075699568 3.0499162674
-3.1629898548 0.75787615776 2.9457378387
-3.0691123009 0.43539142609 2.2804522514
-3.1266219616 0.13071171939 1.8297109604
-2.8837866783 0.29832580686 3.1934027672
-2.8514041901 0.0035673901439 2.3449218273
-2.9495704174 -0.1589717567 1.9718286991
-2.498799324 -0.73929917812 2.3992431164
-2.4452917576 -0.23899917305 3.447770834
-1.6338180304 -1.6701493263 1.363079071
-1.934186697 -1.2358598709 3.2776973248
-0.97955262661 -2.2597122192 2.1574470997
-2.299246788 -1.0056384802 0.34996035695
-1.023811698 -2.175093174 0.25070667267
-1.9041805267 -1.2990429401 -0.45628729463
-2.0367553234 -0.76763629913 -0.8879532814
-1.8958684206 -1.2660056353 -1.1382462978
-2.0972428322 -0.68293851614 -1.1839473248
-1.7660200596 -0.82133454084 -1.9812583923
-2.251950264 -0.42038363218 -1.0800071955
-2.162610054 -0.44394746423 -1.8736412525
-1.5326045752 -1.4749404192 -1.8097535372
-2.023399353 0.2532492578 -2.3431184292
-1.5841710567 0.10526452214 -2.6498522758
-1.9366639853 1.0133645535 -2.277977705
-1.3032073975 1.4352431297 -2.7712981701
-1.6311855316 1.4165292978 -2.2206976414
-1.8646330833 1.4284007549 -1.6726452112
-1.1175986528 2.0471568108 -2.2094626427
-1.5100001097 1.8313633204 -1.687962532
-1.2818505764 2.5100827217 -1.3481667042
-0.49410101771 2.5414249897 -2.3780491352
-0.21459725499 2.9745848179 -1.8816424608
-0.84254986048 3.0493907928 -1.1396770477
0.49504899979 3.137219429 -1.0501089096
0.39770540595 2.9973614216 -2.0682537556
-0.075054623187 3.3515231609 -2.9095945358
0.60610991716 3.4220328331 -2.647752285
1.0693317652 2.563740015 -0.44192680717
0.82043832541 2.6874759197 -1.5579899549
1.5487658978 2.0030021667 -1.1222776175
0.840480268 2.7533240318 0.39363896847
1.5327050686 1.922752738 0.10649137944
1.219099164 2.2054653168 1.0207042694
0.37442293763 3.1026313305 0.97377228737
1.214070797 2.3440306187 2.0292990208
0.70354533195 2.6789588928 2.4286234379
-0.12579809129 3.2870123386 2.047375679
-0.62420523167 3.2464361191 3.5218000412
0.012168127112 2.5949420929 4.0560016632
-0.75854891539 2.7888226509 3.8793923855
-1.2871135473 3.6174178123 3.4120118618
-1.8520219326 2.814661026 3.7507603168
-1.9909459352 3.2055785656 3.3530652523
-2.1933414936 2.6648938656 3.6538436413
-1.1131426096 2.0586032867 4.291015625
-0.5017786622 1.6960277557 4.5989098549
-1.5504820347 1.6823619604 4.5396709442
-2.3910441399 2.2249565125 4.030213356
-0.35469758511 1.0296125412 4.7217316628
-1.281784296 1.0992290974 4.7088403702
-0.025143060833 0.46383053064 4.9274597168
-0.56968653202 0.20303356647 4.8219065666
-1.6444600821 0.69290304184 4.6400113106
-0.87521976233 -0.43177196383 4.7778220177
-1.7205258608 -0.84652239084 4.3194999695
-2.3074080944 0.17212533951 4.2568745613
0.33951169252 -0.45790976286 5.1089043617
0.13657000661 -1.2080600262 5.0706810951
1.1972806454 -0.75618708134 5.2618227005
1.5737569332 -1.8170748949 4.6712584496
0.58889871836 -2.2267811298 4.4642195702
1.0758231878 -2.4578950405 3.2691371441
2.0350546837 -2.0526368618 3.4948291779
1.9605658054 -1.4625784159 2.3905396461
1.0028324127 -1.8643752337 2.1201996803
0.75755345821 -1.6726526022 1.2453690767
0.077125869691 -2.168337822 1.24558568
0.13327078521 -2.5010399818 2.1944012642
1.032936573 -1.8395569324 0.30433857441
0.12188057601 -2.46382761 0.27563488483
-0.77540552616 -1.9859064817 1.1449213028
1.4812446833 -1.0800281763 0.14594438672
1.220364213 -1.2346214056 1.3867172003
1.4540047646 -0.74886780977 1.1467708349
2.3364346027 -0.66829925776 1.9497390985
1.7087748051 -0.08410577476 0.74372065067
1.8665635586 0.18913550675 -0.13546454906
1.6485245228 -0.71129995584 -0.66718655825
1.5735374689 -1.620295763 -1.5090247393
2.1780142784 -0.2071800828 -1.4025182724
2.0918877125 -1.067989707 -2.3011348248
1.0810744762 -1.4859496355 -2.9651730061
0.51120352745 -2.0991747379 -2.1287841797
-0.38672941923 -1.3897908926 -2.6649107933
0.18175174296 -0.73848772049 -3.4527344704
-0.39911717176 -0.71046429873 -3.0902431011
-1.0295416117 -0.69286346436 -2.6335942745
-0.61911529303 -0.28848227859 -3.1862504482
-0.93611049652 -1.3265118599 -2.3739666939
-1.0342140198 0.52767670155 -3.2983851433
-0.053751945496 0.64179283381 -4.0003056526
0.58755582571 0.41533690691 -4.2453227043
0.12727503479 2.0451745987 -4.1134281158
0.36667326093 1.3390419483 -4.3939085007
-0.45610269904 1.9048538208 -3.5460810661
0.0068459021859 3.0023827553 -3.6663804054
0.92897254229 2.1911740303 -4.0717377663
0.92515927553 3.0704131126 -3.7018911839
0.89764940739 3.3232295513 -2.9150011539
1.6189134121 2.5462417603 -3.3131232262
1.6711237431 2.6783630848 -2.526604414
1.1477587223 2.6077516079 -2.0408055782
2.0620987415 1.7147948742 -1.9622167349
2.2065727711 2.1313915253 -2.5518696308
2.4441542625 1.2044961452 -2.3416600227
2.3561236858 0.60541158915 -1.6068321466
2.0056166649 0.96732419729 -1.212131381
1.9629061222 0.96861094236 -0.006636986509
1.8951897621 2.0871968269 -3.4265244007
1.8479332924 1.2546789646 -3.7953042984
1.1807230711 1.7115299702 -4.1754670143
1.9220001698 1.3550862074 1.2596868277
2.5430312157 0.94528758526 2.5638196468
1.845862627 1.5771167278 2.336856842
1.6786761284 2.1282432079 3.167403698
2.4544923306 1.4498187304 3.511136055
1.4599739313 1.8459105492 4.2323942184
2.1700248718 1.1936790943 4.5263152122
1.3982806206 0.73163658381 5.0796666145
0.50631302595 1.5767832994 4.7037987709
0.61824017763 0.88329017162 4.9426593781
-3.5211851597 2.2056064606 0.8392983675
-3.5067410469 1.7072101831 -0.052412007004
-3.9298727512 1.1281484365 0.84765446186
-2.6704423428 -1.2455297709 1.3064054251
0.55350142717 3.3067100048 -0.089404940605
-1.1550279856 4.0087914467 2.4956521988
-2.0958356857 3.6402506828 2.5398392677
-2.853802681 1.3913660049 4.3106021881
-0.65898573399 -2.5680058002 4.3303847313
-0.7639247179 -1.6747069359 4.9384851456
-1.5777609348 -1.7629907131 4.2322583199
-0.82739830017 -2.8444385529 3.2595596313
0.31118941307 -2.8859882355 3.3450911045
0.43473902345 -2.7982914448 -0.86261153221
-0.78152412176 -2.742030859 -0.79973912239
-0.64007920027 -2.4517455101 -1.9259324074
1.341381073 -2.1437449455 -0.7814656496
0.92281413078 2.4654040337 4.0413980484
3.6679170132 -0.31123518944 3.7025709152
3.3078172207 0.78367131948 3.6939890385
3.301677227 0.23085774481 4.6526184082
3.3136365414 -0.86379373074 4.6265521049
3.2541708946 -1.4470229149 3.6764388084
3.2990660667 -0.85094445944 2.7285366058
3.3196732998 0.20391236246 2.7671773434
2.3560347557 0.24998603761 5.360909462
2.414191246 -0.85295009613 5.3393230438
2.4974763393 -1.6763123274 4.675974369
2.9091031551 0.14305862784 -2.6370966434
2.5989055634 -0.59722191095 -3.345174551
2.6228995323 0.48250094056 -3.6641294956
1.8042818308 -1.2137659788 -3.3687701225
1.7792986631 -0.4469307065 -4.1679887772
0.79770863056 -0.67001330853 -4.0847578049

CELLS 372 1488
3 0 1 2
3 2 1 3
3 1 4 3
3 5 6 7
3 4 8 7
3 7 8 9
3 8 10 9
3 11 10 8
3 12 13 14
3 11 14 13
3 14 15 16
3 16 15 17
3 18 15 19
3 20 19 15
3 20 21 22
3 22 21 23
3 24 21 25
3 0 25 21
3 23 24 26
3 27 26 24
3 27 25 28
3 28 25 2
3 2 29 28
3 29 30 27
3 29 31 32
3 32 31 33
3 31 34 35
3 35 34 36
3 34 6 36
3 3 6 34
3 36 37 38
3 38 39 40
3 39 5 41
3 41 5 7
3 7 42 41
3 43 38 40
3 44 45 42
3 40 42 45
3 44 46 45
3 46 47 45
3 48 46 49
3 9 49 46
3 47 48 50
3 51 50 48
3 51 10 52
3 52 10 13
3 50 52 53
3 53 52 54
3 55 56 54
3 54 56 57
3 54 57 53
3 58 57 59
3 56 60 61
3 61 60 62
3 60 63 64
3 64 63 65
3 63 66 65
3 67 66 68
3 66 12 69
3 69 12 16
3 69 70 68
3 68 70 71
3 72 73 74
3 75 74 73
3 74 75 76
3 17 18 75
3 72 77 71
3 71 77 78
3 79 77 80
3 76 80 74
3 80 76 22
3 19 22 76
3 81 78 82
3 79 82 78
3 83 81 84
3 85 84 82
3 86 85 87
3 88 87 85
3 88 30 87
3 87 30 32
3 84 86 89
3 90 89 86
3 91 90 92
3 93 92 90
3 93 94 92
3 92 94 95
3 95 94 96
3 97 96 94
3 98 97 99
3 100 99 97
3 98 99 101
3 102 101 99
3 103 99 33
3 100 33 99
3 99 103 102
3 102 103 35
3 101 104 105
3 105 104 106
3 96 105 107
3 106 107 105
3 108 104 109
3 110 109 104
3 110 111 112
3 112 111 113
3 113 111 114
3 115 114 111
3 115 116 114
3 114 116 117
3 118 116 119
3 120 118 119
3 119 121 40
3 43 40 121
3 119 45 120
3 120 45 122
3 123 117 120
3 117 123 124
3 125 126 127
3 123 127 126
3 127 53 128
3 128 53 58
3 125 128 129
3 130 129 128
3 130 131 132
3 132 131 133
3 131 59 134
3 61 134 57
3 134 135 133
3 133 135 136
3 137 135 138
3 139 138 135
3 139 62 140
3 140 62 64
3 140 109 139
3 109 112 139
3 136 137 141
3 142 141 137
3 142 124 143
3 143 124 126
3 143 129 141
3 141 129 132
3 108 144 107
3 107 144 145
3 146 144 67
3 65 67 144
3 147 148 146
3 145 146 148
3 147 149 148
3 148 149 150
3 150 149 151
3 152 151 149
3 152 81 153
3 153 81 83
3 153 89 151
3 151 89 91
3 25 0 2
3 6 3 4
3 4 7 6
3 49 9 10
3 13 10 11
3 16 12 14
3 18 17 15
3 22 19 20
3 24 23 21
3 26 27 30
3 32 30 29
3 103 33 31
3 103 31 35
3 37 36 6
3 37 39 38
3 42 40 39
3 122 45 47
3 48 47 46
3 52 50 51
3 58 53 57
3 55 54 52
3 59 57 134
3 61 57 56
3 64 62 60
3 67 65 66
3 69 68 66
3 72 71 70
3 79 78 77
3 82 84 81
3 86 84 85
3 91 89 90
3 105 96 97
3 105 97 98
3 105 98 101
3 108 107 106
3 108 106 104
3 112 109 110
3 118 117 116
3 121 119 116
3 126 124 123
3 128 125 127
3 132 129 130
3 134 133 131
3 137 136 135
3 138 139 112
3 143 141 142
3 146 145 144
3 153 151 152
3 154 155 156
3 156 155 4
3 0 156 1
3 156 0 21
3 156 21 20
3 156 20 154
3 154 20 15
3 154 15 14
3 154 14 155
3 155 14 11
3 155 11 8
3 155 8 4
3 4 1 156
3 3 34 157
3 3 157 2
3 2 157 29
3 27 28 29
3 29 157 31
3 31 157 34
3 5 39 37
3 5 37 6
3 9 44 7
3 42 7 44
3 39 41 42
3 46 44 9
3 10 51 49
3 49 51 48
3 12 66 158
3 12 158 55
3 12 55 13
3 52 13 55
3 55 158 56
3 56 158 60
3 60 158 63
3 63 158 66
3 73 159 160
3 73 160 75
3 70 73 72
3 73 70 159
3 159 70 69
3 159 69 16
3 159 16 160
3 160 16 17
3 160 17 75
3 77 74 80
3 18 76 75
3 76 18 19
3 74 77 72
3 23 26 161
3 23 161 22
3 22 161 80
3 80 161 79
3 161 85 79
3 82 79 85
3 85 161 88
3 88 161 26
3 88 26 30
3 25 27 24
3 162 163 164
3 162 164 165
3 162 165 166
3 162 166 93
3 162 93 163
3 163 93 90
3 163 90 86
3 163 86 87
3 163 87 164
3 164 87 32
3 164 32 165
3 165 32 33
3 165 33 100
3 165 100 166
3 166 100 94
3 166 94 93
3 94 100 97
3 167 168 169
3 167 169 115
3 167 115 170
3 167 170 101
3 167 101 102
3 167 102 168
3 168 102 35
3 168 35 36
3 168 36 38
3 168 38 43
3 168 43 169
3 169 43 121
3 169 121 116
3 169 116 115
3 101 170 104
3 104 170 110
3 110 170 111
3 111 170 115
3 45 119 40
3 47 50 127
3 47 127 122
3 122 127 123
3 122 123 120
3 118 120 117
3 127 50 53
3 59 131 58
3 128 58 131
3 130 128 131
3 62 139 135
3 62 135 134
3 62 134 61
3 65 144 64
3 64 144 140
3 109 140 108
3 144 108 140
3 68 71 171
3 68 171 147
3 68 147 67
3 67 147 146
3 147 171 149
3 149 171 152
3 152 171 71
3 152 71 78
3 152 78 81
3 84 89 83
3 83 89 153
3 172 173 174
3 172 174 175
3 172 175 176
3 172 176 177
3 172 177 178
3 172 178 173
3 174 179 180
3 175 174 180
3 175 180 181
3 176 175 181
3 176 181 95
3 176 95 96
3 176 96 177
3 177 96 107
3 177 107 178
3 178 107 145
3 178 145 173
3 173 145 148
3 173 148 150
3 173 150 174
3 174 150 179
3 179 150 151
3 179 151 91
3 179 91 180
3 180 91 92
3 180 92 181
3 181 92 95
3 182 183 184
3 183 185 186
3 184 183 186
3 186 185 187
3 186 187 124
3 186 124 142
3 186 142 184
3 184 142 137
3 184 137 182
3 182 137 138
3 182 138 112
3 182 112 113
3 182 113 183
3 183 113 185
3 185 113 114
3 185 114 187
3 187 114 117
3 187 117 124
3 125 129 126
3 126 129 143
3 133 136 132
3 132 136 141

CELL_TYPES 372
5
5
5
5
5
5
5
5
5
5
5
5
5
5
5
5
5
5
5
5
5
5
5
5
5
5
5
5
5
5
5
5
5
5
5
5
5
5
5
5
5
5
5
5
5
5
5
5
5
5
5
5
5
5
5
5
5
5
5
5
5
5
5
5
5
5
5
5
5
5
5
5
5
5
5
5
5
5
5
5
5
5
5
5
5
5
5
5
5
5
5
5
5
5
5
5
5
5
5
5
5
5
5
5
5
5
5
5
5
5
5
5
5
5
5
5
5
5
5
5
5
5
5
5
5
5
5
5
5
5
5
5
5
5
5
5
5
5
5
5
5
5
5
5
5
5
5
5
5
5
5
5
5
5
5
5
5
5
5
5
5
5
5
5
5
5
5
5
5
5
5
5
5
5
5
5
5
5
5
5
5
5
5
5
5
5
5
5
5
5
5
5
5
5
5
5
5
5
5
5
5
5
5
5
5
5
5
5
5
5
5
5
5
5
5
5
5
5
5
5
5
5
5
5
5
5
5
5
5
5
5
5
5
5
5
5
5
5
5
5
5
5
5
5
5
5
5
5
5
5
5
5
5
5
5
5
5
5
5
5
5
5
5
5
5
5
5
5
5
5
5
5
5
5
5
5
5
5
5
5
5
5
5
5
5
5
5
5
5
5
5
5
5
5
5
5
5
5
5
5
5
5
5
5
5
5
5
5
5
5
5
5
5
5
5
5
5
5
5
5
5
5
5
5
5
5
5
5
5
5
5
5
5
5
5
5
5
5
5
5
5
5
5
5
5
5
5
5
5
5
5
5
5
5
5
5
5
5
5
5
5
5
5
5
5
5
5
5
5
5
5
5

CELL_DATA 372
SCALARS cell_data_0 double
LOOKUP_TABLE default
5.36887030787e-07
1.26263101895e-06
1.24337225014e-06
5.19325744081e-07
1.13098765359e-05
6.21281862399e-06
1.098234104e-05
9.00036567262e-07
1.6070682219e-06
1.74436302432e-06
2.51979936845e-06
6.9657355797e-08
1.38325058454e-06
1.72966049543e-07
1.43959988279e-06
2.08849190539e-06
7.84281106246e-07
1.37070800454e-08
4.28756632354e-07
1.48578589672e-06
1.96240216444e-07
2.95248640717e-07
3.61210677386e-07
1.16136485167e-05
1.14592378589e-05
4.00858156081e-05
1.16996780754e-06
3.24545295676e-06
1.90427432338e-06
2.4440811072e-06
2.40470545011e-06
1.02267907453e-06
2.01842363042e-09
4.74549485932e-07
2.09924598488e-06
6.08086312006e-06
9.58588430239e-06
9.26395171905e-06
7.29916994379e-06
1.42201504318e-05
4.72766141495e-06
3.21708937896e-06
1.24572540524e-05
2.53729213722e-06
5.04178983043e-06
1.87124172106e-06
8.44809459176e-06
2.31611262441e-05
5.24664070304e-06
1.09785621674e-05
2.45637388811e-05
2.48686469447e-05
5.40624067272e-06
9.44415574516e-06
6.90626034674e-06
2.71929640378e-07
2.09264512515e-06
3.31277593226e-05
1.38883440123e-05
5.79656689953e-06
3.33564636878e-05
1.9677547747e-05
3.90382514709e-07
1.05113689228e-06
1.44873334783e-06
1.16999616025e-06
6.11421113494e-07
1.75683735625e-06
9.95000863839e-07
1.68059808065e-06
3.285793603e-08
2.26475218496e-06
1.74405315239e-06
7.30529729898e-07
2.18730700803e-06
3.04678739224e-06
5.50363733508e-06
6.00388416578e-07
1.34975460048e-05
7.00887640093e-06
3.82125182985e-06
2.11095693833e-06
2.07373544909e-05
7.17569210507e-05
6.75862709614e-06
8.36118315722e-05
0.000134160318432
2.87554319883e-05
8.20737622166e-06
9.34864121635e-06
1.38567228106e-05
9.49222015467e-06
1.95492900187e-06
3.84304668957e-06
1.25289149325e-06
9.21597583708e-06
7.28769310267e-06
6.96650366853e-07
1.88017270131e-05
2.25624990865e-06
8.45938111116e-06
5.21957223079e-06
4.29134590758e-06
7.56703542136e-06
8.66083610728e-06
1.8675090934e-08
5.36773614687e-06
4.17192360529e-06
2.13121703771e-06
1.77384276498e-06
8.29178829728e-07
2.9257575422e-06
1.18945175541e-06
1.86598161017e-05
1.40451934328e-05
2.40448562077e-05
1.86085424333e-05
0.000109137955116
0.00016206304002
0.00050946639515
0.000165022740758
0.000527898074977
0.000528281454815
0.000267517368904
0.000107852530947
1.12761704706e-05
0.000102241433875
4.56582685403e-05
2.12966663661e-05
4.36226836908e-06
4.71589017711e-06
9.38958312129e-06
3.94112289266e-06
1.46553029174e-05
8.64417651994e-05
4.62232753853e-05
2.60224833918e-05
6.61296257921e-05
0.000132837964202
6.10849045082e-05
1.08461182776e-05
2.42170543192e-05
2.53243995831e-05
3.30245248492e-06
0.000111519756713
1.83563276434e-05
0.000116795953611
6.06323095977e-06
2.04665015498e-05
5.36390262155e-05
4.29462288869e-06
1.27617263662e-06
3.28000572775e-06
8.88405039214e-06
8.12022193636e-07
1.27147254278e-06
1.09899632146e-05
3.8491070559e-06
5.6077811593e-08
1.22496492985e-05
2.70696695334e-06
2.93844822689e-06
8.61869263735e-07
9.7574474434e-07
1.1391507033e-05
2.83437958032e-07
6.08619604148e-06
2.46702850142e-06
1.5249400141e-06
8.04096450866e-07
1.3409879429e-05
2.28145345517e-06
1.68766035586e-05
8.68258802641e-05
1.36181592236e-05
5.50044952281e-05
9.63809994513e-06
8.30330594454e-06
3.81259290289e-06
3.11227222508e-05
2.53462409489e-06
1.12232261792e-06
1.77139432198e-06
5.5113597885e-07
1.08677594642e-05
1.61535627062e-05
7.52833541267e-06
4.66978928266e-06
1.76191291057e-06
7.28709948151e-08
6.48522824813e-06
2.70575596503e-06
1.39695243336e-06
0.000104766404845
0.000237706801816
8.34881031448e-05
0.000328551449787
0.000134603738067
8.79141252422e-07
9.44787976242e-05
4.56726798109e-06
2.97471215981e-06
1.42406893335e-06
1.38181181896e-06
1.5731972407e-08
3.26160298039e-07
2.27896016698e-06
1.24192349007e-06
6.03122936328e-08
1.09748724244e-06
3.86219413168e-08
1.06836916602e-06
1.44951544078e-06
1.16382741295e-05
8.81604842825e-07
2.1407316952e-06
2.43714947671e-06
3.44207094586e-06
2.54895532987e-07
7.08729990389e-06
3.71858090654e-06
3.09107901244e-07
2.31552917049e-06
4.52788730926e-05
6.64822550401e-06
1.15669787967e-06
1.10320037787e-05
1.95487420496e-06
5.55458159951e-06
1.05553720635e-05
1.66915856608e-06
2.77857273087e-06
1.29839043957e-06
6.96663516722e-06
7.4650853122e-07
3.16652571827e-06
3.08334209e-06
1.61151593509e-06
8.53176949193e-07
5.08954908861e-08
1.67130727873e-08
1.31117258813e-05
7.27897495387e-06
4.36470277177e-06
4.7806769213e-07
7.06096036188e-07
2.40352969979e-06
6.5305586567e-07
1.91900228867e-06
1.02230388952e-06
1.1737638313e-06
2.30007608413e-06
2.06027809435e-08
3.89172750856e-07
1.88916181522e-06
9.32190925471e-07
2.11662102738e-06
4.23767409402e-07
6.7869844907e-07
2.00851754502e-07
1.06273074742e-05
4.27121477482e-05
3.53239359777e-05
0.000133259646682
4.23926451731e-05
2.66862368379e-05
8.93023636023e-06
3.32492240389e-06
1.94192412924e-05
1.55689341488e-05
5.85404958071e-05
2.69616252243e-05
5.76887201204e-05
6.57184287e-05
3.69622998687e-05
0.000175538765924
3.66934367024e-05
4.42857212063e-06
4.28352478229e-06
1.02712760811e-05
1.11571034551e-05
6.286914016e-07
9.24322041012e-06
1.26718237532e-06
3.74192748889e-06
3.7665753406e-06
8.81825316991e-06
3.14720214681e-07
6.53493620252e-07
9.11956541553e-07
6.41405257447e-06
1.22524860759e-06
9.09915916856e-06
2.73249773409e-06
7.18847803963e-07
9.79507434706e-06
4.1620461331e-06
9.49025445752e-06
7.92306607439e-05
2.73308660937e-07
2.27860096755e-07
5.52758053071e-05
0.000196911051465
0.00258189940397
0.00178570609999
2.8323457373e-06
6.1392415057e-05
5.80510951875e-06
2.43363914298e-08
3.6718010101e-06
8.80987568956e-07
3.43986058523e-06
2.08540541009e-05
0.000213890757606
2.64807737942e-05
2.45153270113e-06
3.54543585727e-06
9.93398165501e-06
3.16095807597e-05
1.21698717699e-06
3.23448232768e-06
4.0810061948e-08
1.8691447552e-06
6.97318869596e-05
3.20863570632e-05
9.35453224554e-06
1.26403217169e-05
3.02487797156e-05
5.07692152793e-05
1.11504503982e-05
1.66010360279e-05
5.4419857327e-05
5.80284975988e-05
0.000191020186256
9.52767028101e-06
9.38435508576e-06
6.9349840781e-06
1.75702674921e-06
4.23861562487e-06
1.95810843645e-05
7.50218831613e-05
0.000190674688587
8.51888570547e-05
2.77280537216e-05
3.59182692202e-05
5.05667993693e-06
8.13416948475e-06
2.43133419433e-05
3.85729130802e-05
0.000165594299449
2.86801607725e-06
3.60218176516e-06
7.71232247181e-07
1.40677446115e-06
1.46993766284e-05
2.39709158607e-06
1.198572688e-05
1.34954910438e-05
6.45814845776e-06
1.22818229438e-05
7.60705185242e-06
1.43241777169e-05
3.16967268851e-06
6.74598749967e-07
1.33538010512e-06
6.07682797867e-06
1.22460277584e-05
2.35179550015e-06
0.000433361027826
0.000290208795742
0.000383188520723
0.000268598735519

