# vtk DataFile Version 3.0
File Name: Molecule/arg/arg_5.0-3.vtk
ASCII
DATASET UNSTRUCTURED_GRID
FIELD FieldData 1
TIME 1 1 double
0.0
POINTS 892 double
-3.1687808037 -0.21795842052 1.2300930023
-3.1771342754 0.028241137043 1.6051315069
-3.4364619255 0.094858981669 1.0975009203
-3.3960361481 0.2992247045 1.5836865902
-3.0070996284 -0.34862166643 1.7937548161
-2.9680225849 -0.66489285231 1.4023520947
-3.0528075695 -0.2632111907 0.64759415388
-3.3033745289 0.04480214417 0.46902573109
-2.8434922695 -0.70932853222 0.76037675142
-2.8991918564 -0.11089861393 0.24119047821
-2.7115354538 -0.3440939486 0.30183690786
-2.5624473095 -0.62322634459 0.29205310345
-2.5247311592 -0.10731072724 -0.28768411279
-2.6095113754 -0.16041761637 -0.027818262577
-2.6831789017 0.076033629477 -0.35831224918
-3.0259301662 0.12090165913 0.023674448952
-2.395475626 -0.1672976166 -0.50471943617
-2.329164505 -0.30891701579 -0.34531730413
-2.3729560375 -0.4477160275 -0.060539588332
-2.2126243114 -0.45378032327 -0.63845574856
-2.2233192921 -0.43664568663 -0.92875885963
-2.464486599 -0.053344931453 -0.79397630692
-2.9126241207 0.47616738081 -0.5391716361
-3.2793080807 0.56280702353 -0.19985942543
-2.6893968582 0.34049850702 -0.93248224258
-2.6076271534 0.15071606636 -1.3916537762
-2.4007105827 -0.25415372849 -1.1232070923
-3.1619758606 1.2203996181 -0.45451065898
-2.8177592754 1.0459620953 -0.75028431416
-2.6093652248 0.8802524209 -1.1276527643
-2.5384845734 0.79365515709 -1.5532683134
-2.8180472851 1.6857110262 -0.49198842049
-2.5153331757 1.4093203545 -0.79897391796
-2.3165078163 1.2045030594 -1.2129566669
-2.1926751137 1.1378308535 -1.6836955547
-2.5863265991 1.9699617624 -0.42278841138
-2.5296421051 1.6558183432 -0.61250007153
-2.2569036484 1.7323924303 -0.69864469767
-2.2007091045 1.469900012 -1.0152732134
-1.9556770325 1.7288346291 -0.98149961233
-1.6914236546 1.7955960035 -1.3371814489
-1.9332551956 1.4935071468 -1.5020130873
-2.4330396652 2.3498694897 -0.16323918104
-2.0784697533 2.1038780212 -0.55404299498
-1.9569222927 2.5319037437 -0.33387669921
-1.6926310062 2.4256894588 -0.80207055807
-1.5751810074 2.8442296982 -0.62873077393
-2.14083004 2.6221249104 0.073240384459
-2.5824871063 2.5251994133 0.17551101744
-1.6617285013 3.0139856339 -0.19445118308
-2.4525616169 2.6649479866 0.60774964094
-1.8793307543 2.8224914074 0.43606579304
-1.47189641 3.177883625 0.25101199746
-2.853110075 2.6098818779 0.99963957071
-2.2790577412 2.7552826405 1.0471976995
-2.671169281 2.6672914028 1.4296927452
-2.0150980949 2.9933624268 1.2577877045
-2.3560483456 2.9435381889 1.5686813593
-1.8955713511 3.3293282986 1.5569272041
-2.3030772209 3.2473633289 1.9697614908
-3.1969203949 2.2811686993 1.4627816677
-2.8246703148 2.4777739048 1.7266036272
-2.6167943478 2.6927936077 1.981456995
-2.5195355415 2.9836044312 2.3456945419
-3.433599472 1.7815973759 1.7590003014
-2.9208128452 2.3110067844 1.9189919233
-3.0725748539 1.9705746174 2.2002763748
-2.7531051636 2.4929573536 2.3901007175
-2.9524970055 2.0622134209 2.6691431999
-3.6450212002 1.1383658648 1.719592452
-3.3415770531 1.2378807068 2.1524515152
-3.2021868229 1.6645723581 2.2039027214
-3.0992844105 1.7283855677 2.5430722237
-3.221739769 1.256762743 2.5838768482
-3.1248362064 1.7527205944 2.9635078907
-3.2469792366 1.1211049557 3.0283892155
-3.4120471478 0.62879770994 1.8353761435
-3.1865742207 0.71626311541 2.2213695049
-3.0966374874 0.75216805935 2.6221194267
-3.1119260788 0.60767835379 2.9517581463
-3.1342470646 0.38886362314 2.0499463081
-3.070053339 0.044449612498 1.8933098316
-2.9294159412 0.085526943207 2.2396671772
-3.0370116234 0.48607239127 2.4599013329
-2.896658659 0.28484335542 2.6235985756
-2.9405076504 0.33406975865 3.1407551765
-2.8393211365 -0.35571488738 2.1667068005
-2.4015140533 -0.41832497716 2.8315503597
-2.6966731548 -0.17193599045 2.5346570015
-2.5417659283 -0.66400951147 2.4184453487
-2.5463929176 -0.07977040112 3.00223279
-2.7571825981 0.099693402648 2.7894151211
-2.6593091488 0.069806918502 3.4005064964
-2.4279410839 -1.1437518597 2.2445702553
-2.1872217655 -0.86120903492 2.7940766811
-2.0413658619 -1.3500620127 2.7060627937
-2.0240957737 -1.1421403885 3.3008365631
-1.9155470133 -1.6188714504 3.1629157066
-1.9645112753 -1.5688945055 2.241163969
-2.2962112427 -1.4275128841 1.8474315405
-1.7561410666 -1.9322824478 2.7245125771
-1.9657834768 -1.6632790565 1.6095966101
-1.6053237915 -1.8401720524 2.0553095341
-1.3922683001 -2.1965410709 2.423615694
-1.2045686245 -1.9231716394 1.7736338377
-1.5347059965 -1.7594903708 1.3269127607
-0.94744080305 -2.2912063599 2.1316730976
-1.7492948771 -1.6242958307 0.58049029112
-1.3261526823 -1.7777152061 0.87190663815
-1.9890905619 -1.6130158901 1.0091805458
-1.1642813683 -1.9330950975 0.52224755287
-1.5465679169 -1.7988651991 0.2774258852
-0.94349426031 -2.2577002048 0.24928922951
-1.3787713051 -2.1239469051 -0.039255388081
-2.3721218109 -1.2209305763 0.61464720964
-2.0863959789 -1.2756881714 0.25720760226
-1.885684371 -1.4422757626 -0.0630806759
-1.7773945332 -1.7139132023 -0.44441917539
-2.4297363758 -0.88606464863 0.3553160131
-2.1303412914 -0.96427965164 0.0027881064452
-2.0086560249 -1.014313221 -0.34093016386
-1.933930397 -1.2316747904 -0.65681391954
-2.3063323498 -0.70641225576 0.076417535543
-2.1260311604 -0.67943537235 -0.33877146244
-2.2261617184 -0.47640880942 -0.37064704299
-2.0358023643 -0.81106609106 -0.79614007473
-2.0307650566 -0.81214743853 -1.2741676569
-1.8630205393 -1.3578466177 -1.0972143412
-2.318505764 -0.39790701866 -1.4238407612
-2.165699482 -0.59009188414 -1.1364421844
-2.1483640671 -0.49739357829 -1.8678201437
-1.8331662416 -0.93189841509 -1.7471420765
-1.6508966684 -1.4033640623 -1.7366806269
-2.0000195503 -0.24679856002 -2.2948114872
-1.853407383 -0.64182454348 -1.99523592
-1.6668018103 -0.37807586789 -2.4565582275
-1.8899928331 0.16474628448 -2.5256884098
-1.4632662535 0.07832467556 -2.7610673904
-2.0082626343 0.61941182613 -2.4290211201
-1.5104460716 0.37329143286 -2.7637507915
-1.6411617994 0.80031400919 -2.6357555389
-1.3253530264 0.97519481182 -3.0415754318
-1.2393293381 0.37638932467 -3.110098362
-2.0160391331 1.0295323133 -2.1792964935
-1.58198452 1.2090239525 -2.4639718533
-1.2861425877 1.5547297001 -2.7357883453
-1.652610898 1.4684928656 -2.1123404503
-1.1211879253 2.0567734241 -2.1820468903
-1.466088891 1.8365323544 -1.7436032295
-1.4029197693 2.1130664349 -1.3827464581
-1.6554396152 2.0617511272 -1.0440100431
-1.332942009 2.5932178497 -1.1493453979
-0.85509759188 2.9516358376 -1.3166018724
-1.0856609344 2.3249263763 -1.5975362062
-0.63641381264 2.6157586575 -1.8031648397
-0.55625963211 2.5093722343 -2.3465993404
0.036979798228 3.5564961433 -0.62741404772
0.26839014888 3.0261645317 -1.3089056015
-0.71838670969 3.3389456272 -1.0177440643
0.47386237979 3.1421811581 -0.90236496925
-0.43083068728 2.945120573 -1.5418013334
-0.1698872298 2.9372787476 -1.9908417463
0.34846112132 3.0137221813 -1.9692391157
0.014490844682 3.1161766052 -2.5307896137
0.46913203597 3.1700029373 -2.4400794506
-0.080477148294 3.3052945137 -2.9579350948
0.31380236149 3.3965950012 -2.6560463905
0.85338395834 2.892578125 -0.66988420486
0.61111044884 2.8312823772 -1.3173295259
1.0203989744 2.536216259 -1.1738214493
0.85745614767 2.6919639111 -1.8319132328
1.3069517612 2.429782629 -1.5987986326
1.1602557898 2.2696135044 -0.71398562193
1.0209776163 2.5989236832 -0.26176345348
1.5058530569 2.0831098557 -1.2240669727
1.2232263088 2.1846818924 -0.19684068859
1.1573117971 2.4227714539 0.31005689502
0.9326672554 2.8162059784 0.19541710615
1.5233297348 1.9402002096 0.10676051676
1.4502336979 2.1392345428 0.6035848856
0.75802057981 2.8304989338 0.65467315912
0.99790304899 2.4201383591 0.76822215319
1.2219552994 2.2031145096 1.0317503214
0.41118296981 2.8060624599 1.300588131
0.76582431793 2.5395002365 1.1082397699
0.40703776479 3.0869071484 0.85826325417
0.79995828867 2.4709668159 1.6818826199
0.42097598314 2.7192902565 1.8045562506
0.72933059931 2.7110521793 2.2545588017
1.1588851213 2.3811638355 2.0833079815
0.02585695684 3.4350399971 0.70768660307
0.098466478288 3.0794970989 1.2177978754
-0.22548854351 3.3664186001 1.1237219572
-0.26843255758 3.3770911694 1.5145442486
0.082092396915 3.0063750744 1.6594928503
-0.04162812233 3.26461339 2.032531023
-0.41718104482 3.6138696671 1.9555109739
-0.71097004414 3.4944982529 0.87611931562
-0.46739068627 3.6314518452 0.38094678521
-0.70190417767 3.5339553356 1.3426929712
-0.99232119322 3.7408707142 1.6677731276
-1.0481797457 3.486563921 0.32340410352
-1.171838522 3.3782148361 0.77246654034
-1.2360121012 3.4448661804 1.1856158972
-1.4803568125 3.6315555573 1.5879722834
-1.5411807299 3.0944526196 0.7052269578
-1.6108775139 3.1838116646 1.1377367973
-0.067078597844 3.4130489826 2.4899349213
0.25719118118 2.9504904747 2.1857230663
0.28064134717 3.0628883839 2.6442506313
0.72574329376 2.8566937447 2.776206255
-0.14593234658 3.4210045338 2.965814352
0.22465799749 3.0513818264 3.1128396988
0.664706707 2.8425941467 3.2981717587
-0.11758209765 3.0645537376 3.4465622902
-0.44200980663 3.4046542645 3.3224670887
0.27416160703 2.8552145958 3.6698441505
-0.65757703781 3.1893036366 3.6515176296
-0.28249323368 2.8478524685 3.7600679398
-0.055229522288 2.6336684227 4.0394077301
-1.1364562511 2.7351391315 4.0539240837
-0.64287567139 2.793112278 3.9065527916
-1.1294615269 3.2006902695 3.7465560436
-1.6083948612 2.8762581348 3.8693230152
-1.5908551216 3.2209825516 3.6501176357
-1.9541293383 3.1536831856 3.5138075352
-2.0696101189 2.871142149 3.5988833904
-2.2526860237 3.1301107407 3.1975028515
-2.3812439442 2.8495833874 3.2342915535
-2.4401330948 3.0865943432 2.7946076393
-2.6001777649 2.744484663 2.8286178112
-0.76614826918 2.3892197609 4.265185833
-0.24729567766 2.1568918228 4.4464268684
-0.87701845169 1.9565882683 4.4579935074
-0.36657243967 1.5903886557 4.6754112244
-1.3065890074 2.2468371391 4.3507604599
-1.4051707983 1.6217870712 4.6063346863
-1.7261586189 1.9826822281 4.4867053032
-1.706379652 2.5097527504 4.1235427856
[...]
CELL_DATA 1780
SCALARS cell_data_0 double
LOOKUP_TABLE default
6.60819774993e-09
7.79603099917e-09
1.83204689764e-08
7.64001228912e-09
8.59513783706e-09
2.18638681579e-08
1.52079732123e-08
1.39736223741e-08
3.09253146437e-08
2.41871916624e-08
3.45138129907e-08
3.79746410547e-09
1.36869116011e-08
1.03130101294e-08
1.60229398718e-08
5.35223320228e-09
6.77435187575e-09
1.17246454882e-08
9.59788966671e-09
2.80307577795e-08
8.26554288844e-09
4.3325804572e-08
5.48310607693e-08
2.9507677617e-08
1.59446789524e-08
7.60402176607e-09
2.10840905324e-08
2.26383138923e-08
3.68515649003e-08
5.3563830785e-08
2.21416685786e-08
2.94924876077e-08
6.3533124026e-08
1.00195724798e-08
5.6065314411e-08
2.71426558307e-08
1.34803630592e-10
4.75713264819e-09
1.6670927605e-08
2.7410826583e-08
1.86555702087e-09
1.30375836259e-08
2.13804226662e-08
2.35424405413e-08
2.8546443538e-08
1.79842876898e-08
6.83947725724e-09
6.78796123957e-09
5.50654187785e-09
1.28475002352e-08
4.93884108135e-11
2.53735747778e-08
2.53630331287e-09
8.09554485965e-09
1.27820314957e-08
1.31731311589e-08
5.59083980887e-09
2.21401411124e-09
1.55351330972e-10
9.08006383098e-10
4.00338069735e-09
2.65883350067e-09
2.18791982014e-09
2.30713250081e-09
5.61539830404e-09
8.61394383485e-09
7.82003005156e-09
6.37759508454e-09
7.43396583836e-09
3.53791931435e-10
4.0634627661e-09
1.16434095018e-08
1.33460348106e-08
4.11477386237e-09
3.98198097653e-09
3.52712106756e-09
2.08725242258e-08
2.14625698944e-08
2.17777922967e-08
1.18617034943e-08
6.66812606552e-09
5.2325585236e-09
1.74728004602e-09
3.59846021389e-09
6.40953859151e-10
8.5190111097e-09
3.15829263662e-09
7.34243785874e-09
9.5091454612e-10
3.62033720483e-09
3.58546381693e-08
2.63733970444e-09
1.91784912531e-08
9.22696737538e-09
2.74703207265e-08
1.95383664459e-08
1.14902964296e-07
1.68842021047e-08
6.43639161034e-07
2.44515422167e-07
3.34269895848e-07
2.80256936175e-08
4.05538019526e-07
3.15944345645e-07
3.61839621314e-09
2.52590131461e-08
8.27136394805e-08
4.0456312671e-08
5.89785050315e-08
1.02202177493e-07
4.03249931758e-08
3.65042152951e-08
9.07487371642e-10
8.46267170861e-09
3.85662099003e-08
9.72700909748e-09
4.74800329462e-08
1.983299263e-08
6.73660606411e-09
5.84962529064e-09
2.10876351718e-08
2.32792745294e-08
2.78920254277e-08
1.99778086699e-08
3.95531643542e-08
2.31445892506e-08
2.81096421574e-08
1.72884876815e-08
5.99583932661e-08
1.47866405012e-08
4.69502449092e-09
4.09816062269e-09
1.70920486913e-09
6.43631038296e-09
5.78928873971e-09
1.29560730245e-08
2.66436484292e-08
1.23467517531e-08
5.85247470603e-09
1.63298997203e-08
1.88758415591e-08
4.05767567147e-08
3.88476211717e-09
5.35643168007e-10
3.95551881185e-08
1.74226598439e-08
5.90883465375e-09
4.27610297693e-08
7.1398790921e-09
4.41013928603e-08
2.94564110664e-09
1.72400224812e-08
5.04088889875e-08
9.4902127717e-08
4.29567220635e-08
9.15103834408e-08
2.69486590754e-08
1.35523391706e-08
6.9565855703e-08
3.29029159439e-08
1.29291170721e-08
4.43123271311e-08
3.05180821169e-08
2.22042709221e-08
5.64886856683e-08
1.02650039401e-07
1.19742136421e-07
2.61569155001e-07
1.62933627038e-08
6.4340482953e-08
2.38710477484e-07
7.10630548001e-08
2.49222216477e-08
9.65362831075e-08
1.21074335273e-07
3.64658996375e-08
2.19658787492e-08
2.039590986e-07
1.04499935628e-07
5.69105808828e-08
2.72251076894e-08
2.2709346306e-08
9.19382978101e-08
6.42117124485e-09
1.92118914218e-08
1.80514792998e-08
1.85152958985e-08
2.02760521152e-09
2.76772739705e-08
8.37517145733e-11
2.42091509152e-10
9.19483717578e-09
6.12969546047e-09
1.23887437517e-09
1.83543407227e-09
3.15053307074e-08
5.58718587372e-08
6.79655687081e-09
1.61605891428e-08
7.25573708243e-09
7.32077701771e-09
1.4844225417e-10
1.39149715383e-08
1.35878856864e-08
4.37673339589e-09
4.02973381527e-09
9.05619419581e-09
1.2007979596e-09
2.60410582303e-09
2.98204465538e-09
6.62213376047e-09
3.25648336176e-11
5.2956079626e-09
1.02213903849e-08
5.56794567895e-09
4.88334109785e-09
2.03277526217e-09
3.07869576517e-09
4.75222305512e-10
9.03830985955e-09
1.57347796582e-09
6.27555773922e-10
1.4923669977e-08
4.09341964548e-08
1.08009379087e-08
1.54558456446e-09
2.20335624582e-08
2.37426576262e-08
2.91101777309e-08
1.04183283075e-08
3.57828147377e-09
1.76009505154e-07
1.08862575314e-08
3.33178977986e-11
8.83564427505e-09
2.9123940184e-09
2.86999478502e-08
6.95404794345e-10
6.07789839609e-09
1.33396733382e-09
3.30247439175e-09
1.13215739954e-09
3.76705119332e-09
1.63850756063e-09
2.99474093234e-09
1.69676977753e-10
1.89411745684e-09
1.12488828303e-09
4.29767221577e-09
1.42799889525e-08
2.77827576273e-08
2.72598870533e-09
1.91503615716e-08
6.25261042254e-09
1.35168527811e-09
2.4082031214e-09
2.69014645474e-09
3.90052675784e-09
6.08140840765e-10
7.50483643309e-09
1.29767199885e-09
1.99890315701e-09
3.40208721221e-09
2.04611817917e-09
3.91028701028e-09
7.5675282126e-09
3.11828637361e-09
2.43666971896e-08
1.50101267333e-08
6.14315900294e-09
4.80193891279e-09
1.35980694425e-09
2.15879214489e-09
3.3726099909e-09
7.53781796779e-09
8.17124943072e-09
6.70378248788e-09
1.4863269179e-08
5.64745654385e-09
2.11186282478e-08
1.85090406184e-09
5.31070981083e-09
3.56738516382e-09
1.59982344025e-08
7.7720269774e-09
5.8582455963e-08
2.7978358644e-08
2.0052468738e-08
2.17228131271e-08
1.89507618992e-08
3.18409288194e-08
4.90241867422e-08
2.09732760205e-08
3.9155162183e-08
4.97412115519e-08
1.21719150913e-07
4.71583901986e-08
1.17896936009e-07
2.97821897558e-07
2.00178029856e-08
3.77040664064e-09
3.25497410943e-09
1.05884829937e-08
1.68397404374e-09
2.3559154943e-08
1.65720271112e-08
1.19259550933e-08
1.02283579296e-09
2.20478674327e-08
1.00740232635e-09
6.62747105536e-08
1.73175651219e-08
2.25607152634e-08
4.27990754459e-08
1.4062851249e-07
1.35430859585e-08
1.3576042695e-07
5.72045479327e-07
1.83091140581e-07
1.78693559273e-07
6.68308324542e-08
5.47275436113e-08
3.00743356019e-07
2.21747371881e-07
2.32348821157e-07
5.17077172687e-08
8.1070964313e-08
6.05599906297e-09
3.55890382683e-07
7.34402305062e-08
1.31303948356e-08
7.41555122395e-10
9.35557235987e-08
2.77455768169e-08
1.23649937884e-08
9.33942056109e-09
6.31155180726e-09
5.20498956653e-08
6.0687625545e-08
2.60110567687e-08
2.88518516202e-08
4.34973023225e-08
7.9890608626e-08
1.71842090632e-07
1.04021418201e-07
3.43100680801e-08
4.2259388365e-08
4.30590839604e-08
1.70573310831e-08
6.45862126258e-08
2.89376544926e-08
1.5747850993e-07
1.14257087443e-07
1.8676317939e-08
4.2497627583e-08
9.61164543069e-09
2.56847862901e-09
1.88354299723e-08
6.88313878381e-09
7.15309548386e-09
1.94736286192e-08
2.71174626872e-08
1.24575825275e-08
2.42158912989e-08
7.08835564342e-09
5.58733106727e-08
1.36453672851e-08
4.7815306825e-08
3.71355018121e-08
3.00769340817e-07
1.23837783251e-07
4.0671915985e-08
5.93639834167e-08
8.25816453543e-09
2.03779302327e-08
1.36611099747e-08
3.1423785921e-08
1.06361851285e-08
1.73590081936e-08
1.4078243152e-07
8.56460325609e-09
1.53002038866e-08
2.02576613776e-08
2.48609360811e-08
6.55758193666e-08
2.0319937273e-07
7.04949492554e-08
4.90936836677e-08
4.90130905166e-08
6.68535262751e-08
1.04525435219e-08
5.846104342e-10
6.42640961828e-08
7.13141848106e-09
9.08460655923e-08
1.95138158468e-08
9.10503077123e-08
2.41087018003e-08
3.38493560959e-08
1.90941059917e-08
1.01327325175e-08
1.08232999448e-08
4.19609185964e-08
1.71375573051e-08
6.13275763966e-08
8.3708767307e-09
4.67653349209e-08
3.63932429434e-08
6.68516384415e-09
6.21350715951e-08
6.14140284251e-08
2.86582225337e-08
4.20131646161e-08
5.07623353706e-08
1.97099121463e-08
2.7258214751e-08
3.09438688406e-08
2.85644191687e-08
4.39082919287e-09
8.99385590607e-09
3.43711519601e-08
2.01984445593e-09
6.27708645907e-08
6.14296697075e-09
1.50287927677e-08
1.38301729762e-08
1.00455151691e-08
6.37602625764e-08
7.64207063385e-08
2.47924216543e-07
2.14050022985e-08
2.65117925531e-07
1.82401558335e-07
2.78736462e-07
4.54975953181e-07
9.25941998983e-08
2.9320438704e-07
3.33517972417e-07
2.74918297675e-07
2.29595466028e-09
2.5471753456e-08
3.98328134696e-07
9.18313003451e-08
4.49281738388e-07
5.14874631374e-08
2.93880302164e-08
1.18259954604e-07
9.22813190566e-08
1.12702595779e-07
1.88316753934e-07
4.23554994999e-08
4.06101742718e-08
2.62207311009e-08
8.4426815747e-10
7.16069083181e-09
9.12106464515e-09
2.35012933705e-08
2.47916204063e-08
3.82905449845e-08
4.2438641017e-08
1.1727504792e-08
8.07327162508e-09
2.08388336273e-08
3.75066904221e-10
2.31687853577e-09
2.5452860561e-08
1.44219718156e-09
9.23094460284e-08
2.20518852822e-09
1.49534851641e-07
3.6647439326e-08
2.93378730311e-08
5.73189987032e-08
2.33251792189e-08
2.91056737351e-07
4.14166332135e-08
6.8582462079e-08
4.37300477883e-08
6.45272455709e-08
1.54938159561e-08
1.95442838139e-08
1.49092512188e-07
1.84265808026e-07
1.66426697339e-07
1.80376983481e-07
4.58603770225e-08
1.00027206809e-09
3.91037117935e-08
2.54974453734e-09
1.32905077168e-08
6.73088518736e-09
1.50366085906e-08
2.27956879773e-08
2.44732588937e-08
8.11559985349e-09
1.60109808082e-08
8.65205864016e-09
3.59129143386e-09
7.47243741368e-09
3.14662592941e-08
9.37756854086e-09
7.22094009286e-08
1.37033004217e-08
9.81540663977e-09
1.03302729678e-08
2.54433468916e-08
1.43787855655e-08
3.04283980552e-09
8.0865332872e-08
2.4298231003e-08
9.90336767991e-10
4.59842161694e-08
2.89689343439e-08
1.11320942306e-08
2.34709053683e-08
9.01540535306e-09
8.89605035113e-08
5.56433430081e-08
4.94277467621e-08
2.0352523879e-07
7.91369601445e-09
3.04144659567e-08
2.43685897755e-08
1.76199637543e-07
1.06410648628e-07
5.96136311873e-08
3.94229585413e-08
2.62713828301e-08
1.02800950198e-07
2.60486655438e-07
2.40380522159e-08
2.72536172175e-07
2.74949998098e-07
3.73766175989e-08
5.58664399284e-09
1.33158026088e-08
1.91420307523e-08
6.00165030518e-08
1.47471188681e-08
1.47635952043e-08
2.55955025069e-08
3.11610939947e-08
1.76297917767e-08
2.30123222297e-09
8.21153160966e-09
1.81491395767e-08
1.26722708699e-08
5.80368566301e-10
6.20007220509e-09
3.35096502042e-10
7.16990524592e-09
6.46494131112e-09
5.47141027196e-09
1.99202292956e-09
2.16131825626e-08
1.58290341928e-08
1.63146190682e-08
7.61685747262e-10
2.15482599167e-10
1.43240035746e-09
7.44310146901e-10
2.4490079674e-08
2.02630891957e-08
9.72104787773e-09
3.46616657979e-08
4.40006298685e-08
2.59744349311e-08
1.31911198768e-08
1.28834259056e-08
1.51665020044e-08
3.72448706611e-08
2.67206944041e-08
6.46929698489e-08
2.47379147438e-09
3.62215869783e-09
1.22246898569e-09
8.74632053177e-09
3.64653111839e-09
1.4523062546e-08
4.09602935624e-10
5.45606408113e-09
8.81640233155e-09
5.68849251006e-09
6.98815920164e-09
3.77260495806e-09
6.59140368026e-09
8.0809759703e-09
6.16283832175e-09
1.25764715609e-09
7.31893596526e-09
1.73922106905e-08
2.68850331059e-10
4.46854720299e-09
9.59998180448e-09
9.28083472753e-09
1.31279572241e-09
1.18649764818e-08
4.97448788158e-09
1.48235940862e-08
9.26494521941e-09
7.20309803913e-08
1.0186358761e-07
2.66794410917e-07
4.28497070193e-07
2.86521825744e-07
3.05787872846e-08
9.47588450031e-09
5.29670210582e-08
3.76958467354e-08
4.37797078966e-08
4.32397371085e-08
3.25667859905e-08
9.53817960716e-09
2.42263342674e-08
5.41131230467e-09
4.38722081886e-10
2.93768687202e-09
5.41971081474e-08
2.36938356433e-08
4.77653460051e-08
7.31152397762e-08
2.57426435663e-09
1.05082139474e-08
6.73241244251e-08
2.90165400996e-08
4.27771874129e-08
1.04147877174e-07
4.54807126807e-08
1.97698103564e-08
2.36479279702e-07
2.12034819928e-07
9.06456075249e-08
5.97536343094e-08
6.31537933581e-08
2.63259126065e-07
3.95677312363e-07
8.09127874941e-08
2.14761526561e-07
7.67316146496e-08
3.28065657479e-08
3.91744736879e-08
5.08427251976e-08
6.27000140735e-08
1.43409128023e-09
5.16861099637e-08
3.26982452674e-09
2.01512035895e-09
3.55092907366e-08
1.44538689574e-08
3.35006450228e-09
2.83885095521e-08
5.25107554282e-09
4.28743690003e-10
5.35185128504e-09
4.59560039047e-09
5.35217409903e-09
8.33532624287e-09
2.8858465724e-09
3.3837309758e-09
8.49175870686e-09
4.43032931848e-09
1.39040956329e-08
1.18756361425e-10
9.48558389103e-10
1.73036834997e-08
4.37427829108e-09
1.07805417664e-09
4.03362369135e-09
7.88726746088e-09
2.19897381616e-09
1.46794752791e-09
9.76382256654e-09
8.77998577289e-09
3.37086748271e-08
4.74042881153e-08
3.74457438539e-08
1.11776415608e-08
1.89926805736e-08
1.18413702428e-07
6.86088583006e-08
2.66356804706e-08
7.49526303064e-09
3.89252943055e-08
9.9417591997e-09
7.47578394789e-09
3.2867233391e-10
3.18238337432e-08
9.81296597143e-08
1.46071411063e-07
5.19566332433e-08
3.0206534629e-08
1.7139588769e-08
7.49760472996e-08
1.59387994768e-08
5.1703141996e-08
8.46800913355e-08
1.29022778503e-07
2.22682071175e-08
8.84109184243e-09
3.84218564364e-08
4.8158642953e-08
1.51970310493e-08
1.44744770232e-08
1.75236872693e-08
1.85596927243e-07
1.97580214397e-07
2.8065143972e-07
5.11152482394e-08
1.52196212942e-07
1.07779148184e-08
6.81666501216e-08
5.30860794095e-09
7.20832259375e-09
3.61283007837e-08
3.90695004098e-08
4.67682507267e-08
9.39289294048e-09
2.8081945868e-08
9.47641442158e-09
8.72157068781e-08
1.59318673298e-09
8.52495741256e-09
1.48758978361e-08
2.40770698235e-08
3.82187944147e-10
1.50842112608e-09
3.31192879228e-09
3.13462336835e-09
6.08125558771e-10
2.23693812327e-10
6.31895067944e-10
8.82769070982e-10
1.50675241165e-09
1.01750299779e-10
4.23689412606e-10
5.20193681528e-10
1.03472093355e-09
4.85346596354e-10
1.45753879554e-09
1.69374876787e-09
7.44449733262e-09
2.33634149414e-09
2.36390458743e-10
1.18361817051e-09
1.96639749027e-09
2.98353414346e-09
9.74743426045e-10
4.5079268028e-10
6.26108618738e-10
2.39108689719e-10
2.04739522429e-09
7.59180512935e-10
2.50041787567e-09
3.85426881792e-09
5.65721521711e-09
2.29266814115e-09
2.69314232364e-09
1.08796060853e-08
6.77715781485e-10
1.61766620374e-09
5.73170110663e-09
9.18137350105e-09
1.22962584819e-09
5.56407429584e-09
1.08977614569e-10
5.66099829915e-09
2.47670801961e-10
4.97766304622e-09
1.10278505206e-08
6.75876050578e-10
1.3152996039e-08
1.35409289531e-09
2.24388694114e-09
1.10488718931e-08
9.45655177694e-09
1.34224234347e-08
1.23787442049e-08
9.76790504552e-09
6.96054311698e-09
8.54665113898e-09
5.16934726006e-09
1.29110538557e-09
1.01420605384e-08
5.76899425299e-09
2.31375330286e-10
1.00137815431e-08
9.44410432104e-11
5.17197664984e-09
8.20879570027e-09
8.30918499902e-09
6.62784817205e-09
3.55371272972e-08
2.58320203907e-08
9.07118625326e-09
1.31660550377e-08
1.69286977623e-08
8.93149440972e-09
5.78623751562e-09
2.11901606408e-08
1.95506443371e-08
1.01258328735e-08
6.64913650111e-09
2.71167001447e-08
2.76433991123e-09
3.1640799457e-08
3.49121323237e-08
1.15995186924e-09
8.46788180243e-10
1.10459183287e-08
3.57913733834e-08
4.6965359046e-09
4.97713180214e-08
1.05949877556e-08
1.12817653855e-08
2.53683922322e-08
2.57236542583e-08
7.75130369488e-08
4.45598642662e-08
4.5962421438e-08
6.23161249293e-08
8.14240920048e-08
1.97204948725e-08
3.83751848315e-08
1.63455377412e-08
1.04272338117e-08
2.35828549111e-08
9.62600681931e-09
1.03174715662e-08
4.2445625416e-09
8.86876313685e-09
1.16271822457e-09
2.7251569068e-09
2.37502782836e-09
1.66173261277e-09
3.80255512366e-09
2.39312164615e-09
4.31367947458e-09
4.10749244412e-09
1.19134137889e-09
1.55484669577e-10
5.5805258186e-09
2.32961157646e-10
1.05769489913e-09
7.31276293312e-09
1.07794863496e-08
5.10075648849e-09
1.84663618392e-09
2.28125236902e-09
4.25456219034e-09
7.85944395145e-09
7.01164330155e-09
1.45835264825e-08
4.20068935049e-09
8.65614194312e-09
7.26321280708e-09
3.99145459638e-08
1.47700896928e-08
8.11897344797e-09
4.97924552457e-09
1.65680270883e-07
1.85388603986e-08
1.02696805358e-08
4.35584871043e-08
3.80119611052e-09
3.56971111509e-08
6.43060754554e-09
1.16006342339e-08
3.64434841143e-09
4.67922341069e-10
1.88714312518e-09
4.51182115726e-09
5.6022578206e-09
1.7579594626e-09
1.71968735129e-09
3.75049686343e-09
3.48800292207e-10
1.22080703925e-09
1.00988878386e-09
1.00662321712e-09
5.08147410368e-10
5.46867260332e-10
5.66911760136e-10
5.43969619342e-10
1.70308331415e-09
1.4374444058e-09
7.57918583341e-10
3.67792531434e-09
6.13073440418e-10
3.48137348117e-09
1.29382306749e-09
1.02010327835e-08
4.43990261064e-09
3.30216569409e-09
3.14244864631e-09
2.53735461467e-09
2.3096981631e-09
1.62965582478e-09
4.85584909051e-10
1.79775964081e-09
2.10738149111e-09
4.83138006303e-09
5.61073306252e-09
2.60709464848e-09
1.65500791249e-09
7.05009120998e-09
1.09281416251e-09
1.77260644612e-08
4.78665288679e-09
1.7840623511e-09
5.9470168544e-09
1.2081757807e-09
5.28458747492e-09
1.24954975689e-08
5.15544789993e-09
1.3151228919e-08
7.64314010865e-09
2.39860773062e-09
2.24040195611e-09
2.61545762111e-10
2.92125177811e-09
1.94504438304e-09
1.58475062362e-09
3.72656332002e-09
8.88074508646e-10
4.1764199042e-09
7.74046541012e-09
9.46070104716e-09
1.16272516503e-08
8.41842371706e-10
7.22768040235e-10
1.98216499497e-09
3.18758075147e-09
9.20736623039e-10
3.7943356514e-10
1.55420279863e-09
6.5986972166e-10
3.43803696854e-10
1.41319697457e-09
8.33503877765e-10
7.91757310782e-10
1.80269196356e-09
1.42912598217e-09
3.08734965277e-09
3.00795312306e-09
3.97882063071e-09
1.33176045435e-09
4.7375702074e-09
1.18123506855e-09
1.90197418218e-09
1.89584876494e-09
6.88709701797e-09
3.91944927585e-09
1.50823870895e-10
1.43080549901e-08
2.10869920798e-08
4.13086340432e-10
3.11531269698e-08
8.32091518063e-09
5.01504217678e-09
4.35004508479e-09
8.06466081541e-09
4.63081267661e-09
4.77490722602e-09
4.76519442049e-09
1.36384654275e-09
8.71738841437e-10
8.82005027264e-10
1.4081956632e-09
2.61479777287e-09
2.74195105386e-09
1.63365315875e-09
5.26715354645e-09
1.77251827171e-09
9.41215240406e-09
4.01371158283e-10
7.35790302459e-10
1.89303313437e-08
1.00015606565e-07
4.36456388095e-08
1.28906266338e-07
1.92622569381e-08
4.32314216943e-08
7.61066068166e-09
1.0749195982e-07
3.23461288934e-08
3.67029008044e-07
2.02663611541e-07
1.56094850077e-08
4.48740975473e-07
4.26250853333e-07
1.31559152416e-07
1.77376093317e-07
1.49293957154e-08
6.49384244231e-08
2.42662352066e-09
1.52148964415e-08
4.3890726188e-09
5.93232183315e-08
2.67861357536e-08
1.39186321761e-07
1.27812361593e-07
1.03361905525e-07
2.79312646352e-07
1.53626045972e-07
2.17214521833e-07
1.61447839386e-07
9.66883138942e-08
7.76801579069e-08
1.40994476313e-08
1.90256056328e-09
6.6146207933e-09
1.23745891571e-09
1.51455822315e-09
3.43089562923e-08
2.48943706509e-08
5.15188258804e-08
5.83452790244e-08
1.08729788991e-08
7.26279695683e-08
3.05429890475e-08
4.51327862129e-08
1.80315666703e-08
2.00968769646e-08
6.04174417782e-10
1.31418294104e-09
1.32627334029e-09
1.17173843744e-08
6.1788696415e-09
1.15841052705e-08
1.22045886003e-08
1.56823735608e-08
1.56598583475e-08
8.85879913083e-09
8.17861261249e-09
7.83519613705e-09
3.66129631038e-08
1.06367047883e-08
3.13133669458e-09
1.50640974121e-08
2.52887702162e-08
1.41411504504e-08
1.8085595933e-07
1.59474165227e-08
2.09454439643e-07
4.81962809604e-08
7.7542276146e-08
1.92417941057e-08
3.80574981757e-08
1.64623502926e-08
2.15719106886e-08
2.12723064868e-09
1.56777743659e-08
3.20505944239e-08
3.67365694014e-08
6.55143694765e-08
3.87974171214e-08
5.39089429887e-08
1.04262660619e-07
2.56529459542e-07
2.45557961358e-08
1.91266227005e-07
3.75225994858e-07
4.04348191061e-07
5.9591217009e-07
3.01966095976e-07
2.30539158177e-07
1.08643012259e-07
5.58458739773e-08
4.12810962195e-08
1.05178939773e-08
1.92517264714e-08
3.42928529648e-09
7.11688518354e-09
8.47641129983e-09
5.57014315331e-09
2.28142252777e-08
1.91045944863e-08
5.18066965636e-08
3.30014879147e-08
1.2428563316e-09
6.25734552297e-08
1.12502147728e-07
1.18246278088e-07
2.68404498403e-08
1.30270051542e-07
5.16496597117e-08
2.95795254204e-08
3.08941091393e-09
2.17369529342e-08
6.49403139994e-09
1.87871874064e-09
5.72259741073e-09
5.35034547029e-09
1.16061333736e-08
4.96202064147e-09
5.10677694043e-09
3.34573438021e-09
3.04453223934e-09
6.09764900241e-10
6.43110804101e-09
4.32070177349e-09
2.83153628105e-09
6.33377804561e-09
2.29924772227e-09
3.3495182651e-09
1.08952967354e-10
1.03193511949e-09
1.47839823816e-09
7.05520668051e-10
4.88380298871e-11
8.65889162525e-10
2.88434876586e-09
1.33485419382e-09