# vtk DataFile Version 3.0
File Name: Molecule/arg/arg_12.5-4.vtk
ASCII
DATASET UNSTRUCTURED_GRID
FIELD FieldData 1
TIME 1 1 double
0.0
POINTS 2698 double
-3.2791428566 0.0045300815254 1.3735326529
-3.2089934349 0.076055295765 1.6119134426
-3.4602403641 0.21733511984 1.3527630568
-3.3758387566 0.30900073051 1.6446589231
-3.0684986115 -0.13468559086 1.7242103815
-3.1516058445 -0.18374551833 1.4681429863
-2.9741353989 -0.39537066221 1.8401808739
-3.0601058006 -0.43426662683 1.5726739168
-3.4816207886 0.15158139169 1.0783753395
-3.2528352737 -0.094271451235 1.1582534313
-3.1123666763 -0.329626441 1.2710424662
-3.0222620964 -0.59372109175 1.3787449598
-3.3694367409 -0.0028500992339 0.81667250395
-3.1854534149 -0.18460325897 0.86774122715
-3.0717353821 -0.38357508183 0.97716659307
-2.9799473286 -0.65312683582 1.0789419413
-3.1553986073 -0.14001646638 0.58816242218
-3.3287651539 0.049227450043 0.49576357007
-3.0026545525 -0.3606428504 0.68905597925
-2.8728690147 -0.675560534 0.76520329714
-3.1355733871 -0.048195280135 0.31892156601
-2.9575812817 -0.23007178307 0.41374611855
-2.8476452827 -0.43782159686 0.5095769763
-2.7597956657 -0.66128754616 0.54399484396
-2.9060087204 -0.073155589402 0.17624951899
-2.7288250923 -0.21608218551 0.1492716372
-2.7026979923 -0.37490305305 0.30638870597
-2.5894289017 -0.6041277647 0.32146728039
-2.8044335842 0.12380553782 -0.23430417478
-2.7149302959 -0.050194155425 -0.060634225607
-3.024255991 0.10102602839 0.019699923694
-2.6115148067 -0.016493048519 -0.27040076256
-2.4722173214 -0.27370798588 -0.068975880742
-2.4971249104 -0.14966231585 -0.22048377991
-2.4535460472 -0.1262781769 -0.41954150796
-2.3349392414 -0.30965605378 -0.33079501987
-2.2916765213 -0.30659869313 -0.51071375608
-2.2189908028 -0.45249935985 -0.49586436152
-2.2078015804 -0.4436058104 -0.70168173313
-2.3426289558 -0.21106888354 -0.68177556992
-2.2784018517 -0.3834194243 -0.97428810596
-3.0458612442 0.31206253171 -0.23804035783
-3.293697834 0.31227433681 -0.019653460011
-2.6345562935 0.077304139733 -0.46648192406
-2.797655344 0.2666836977 -0.53534024954
-2.5143566132 -0.022558117285 -0.62827599049
-2.6656765938 0.18799631298 -0.74474298954
-2.4383268356 -0.1058428362 -0.88811790943
-2.5812211037 0.093348234892 -1.004095912
-2.4147341251 -0.22370451689 -1.1664431095
-2.5645022392 -0.012991322204 -1.254812479
-3.2590181828 0.55524003506 -0.22895136476
-2.9872107506 0.49398899078 -0.45635357499
-2.815564394 0.43669298291 -0.67799502611
-2.7161622047 0.36694714427 -0.87301212549
-2.6278619766 0.26427951455 -1.1481360197
-2.6013932228 0.1402400136 -1.4290164709
-3.0356533527 0.81485038996 -0.53576695919
-3.288646698 0.92868357897 -0.34651973844
-2.8531117439 0.725464046 -0.74796676636
-2.7386374474 0.65019541979 -0.93602931499
-2.6545891762 0.56182223558 -1.1844002008
-2.6258077621 0.45600816607 -1.4899045229
-3.1117417812 1.2019022703 -0.50676774979
-2.902674675 1.0803040266 -0.66349601746
-2.748493433 0.97512495518 -0.85389059782
-2.6479122639 0.89927428961 -1.0495131016
-2.5610826015 0.80717808008 -1.3252445459
-2.5353934765 0.73944413662 -1.5991593599
-2.8490407467 1.325895071 -0.63359558582
-3.0576071739 1.4914224148 -0.46861129999
-2.6803870201 1.1951217651 -0.8350661397
-2.5677120686 1.1068903208 -1.0172251463
-2.4819951057 1.0209395885 -1.2640930414
-2.4354362488 0.97267371416 -1.5583283901
-2.7878975868 1.6877151728 -0.51999038458
-2.638143301 1.4576848745 -0.68147230148
-2.4811620712 1.3618824482 -0.85939353704
-2.3543653488 1.2962571383 -1.0598607063
-2.2912414074 1.1720080376 -1.336045742
-2.17695117 1.2122454643 -1.6210907698
-2.5949437618 1.9404881001 -0.43865224719
-2.50771451 1.6165142059 -0.65761834383
-2.3176183701 1.8081650734 -0.61505514383
-2.0541548729 1.765157342 -0.81794273853
-2.2606172562 1.5397467613 -0.8824635148
-1.9215303659 1.6526306868 -1.1335369349
-2.1160812378 1.4584383965 -1.1456404924
-1.9696471691 1.4734200239 -1.4562009573
-1.7293819189 1.7151216269 -1.5074008703
-2.2709679604 2.0561416149 -0.45595803857
-2.3822133541 2.2667000294 -0.24640715122
-2.7121400833 2.1851017475 -0.20467308164
-1.9904254675 2.19500494 -0.54700177908
-2.1268107891 2.3567588329 -0.33793523908
-1.7796127796 2.305570364 -0.69803833961
-1.8626170158 2.5106959343 -0.48163375258
-1.5789563656 2.4347133636 -0.92741936445
-1.658899188 2.6812140942 -0.69088828564
-2.666312933 2.4089663029 0.037326186895
-2.3572878838 2.4775502682 0.0080278050154
-2.1399025917 2.5346839428 -0.10503388941
-1.8936098814 2.6859400272 -0.2178068459
-1.6619002819 2.9109869003 -0.40085884929
-2.5817582607 2.5667676926 0.30645433068
-2.2820365429 2.6323833466 0.31346279383
-2.0653116703 2.6872501373 0.15102191269
-1.8037563562 2.8482365608 0.023782424629
-1.6092582941 3.0684764385 -0.083504892886
-2.4674546719 2.6598944664 0.63896876574
-2.1577661037 2.7074258327 0.67862790823
-1.9988927841 2.7507104874 0.45026132464
-1.7334375381 2.9083359241 0.32265779376
-1.4767512083 3.1720838547 0.23350563645
-2.720916748 2.6510665417 0.88797819614
-2.3373579979 2.7220573425 0.94327354431
-2.5904917717 2.6902246475 1.1759415865
-2.1366660595 2.8861010075 1.1915512085
-2.3920812607 2.8411331177 1.3709517717
-1.9590624571 3.0794408321 1.3256200552
-2.210862875 3.0546245575 1.5285919905
-1.8625011444 3.319072485 1.4854100943
-2.1594417095 3.2775197029 1.7333365679
-3.0231072903 2.4977507591 1.2203111649
-2.8350193501 2.5551855564 1.4453896284
-2.6266527176 2.7096996307 1.6291893721
-2.4691722393 2.9194889069 1.8382816315
-2.4063000679 3.1449956894 2.0446195602
-3.1831023693 2.2979300022 1.4870715141
-2.896668911 2.4377634525 1.6639424562
-2.724663496 2.5643761158 1.8753648996
-2.598553896 2.7464702129 2.1007037163
-2.5318551064 2.9680294991 2.3179104328
-3.3123486042 2.0662133694 1.6831905842
-2.987026453 2.2950291634 1.810836792
-3.1095216274 2.0991446972 1.9273953438
-2.8067457676 2.4161062241 2.1017985344
-2.970480442 2.1754510403 2.1794741154
-2.6881456375 2.6060011387 2.3788907528
-2.8746471405 2.3049550056 2.4972712994
-3.1810679436 1.8879677057 2.0437679291
-3.4210298061 1.7839493752 1.8007938862
-3.028249979 1.955955267 2.3654260635
-2.9774544239 2.0066933632 2.7148590088
-3.357834816 1.4138337374 2.0946338177
-3.2714624405 1.6781853437 2.0646486282
-3.5181677341 1.4935610294 1.8418375254
-3.1438398361 1.7208777666 2.3395287991
-3.2290956974 1.4765625 2.3910050392
-3.093203783 1.7370980978 2.6489472389
-3.1859490871 1.4790625572 2.7146818638
-3.1169734001 1.7667771578 3.00395751
-3.2276694775 1.4362249374 3.0405261517
-3.5501294136 1.2345517874 1.8557019234
-3.3772144318 1.1293189526 2.1033043861
-3.259783268 1.2377998829 2.4094674587
-3.2138693333 1.2435128689 2.7567424774
-3.2491772175 1.1287140846 3.0481541157
-3.3553833961 0.88502579927 2.0582363605
-3.5420510769 0.91567748785 1.816277504
-3.2430329323 0.94060492516 2.3646304607
-3.1935625076 0.95265591145 2.7050864697
-3.2030131817 0.86795336008 3.0338771343
-3.4355757236 0.601339221 1.7764892578
-3.2295217514 0.64397424459 2.1083884239
-3.1264226437 0.68601751328 2.4194843769
-3.0962746143 0.70795243979 2.7453663349
-3.0950882435 0.5879380703 2.9817025661
-3.180614233 0.38758301735 1.9718722105
-3.1011133194 0.10806498677 1.8849331141
-2.9765238762 0.13507075608 2.1674726009
-3.0452609062 0.44506248832 2.3244402409
-2.9054896832 0.23569612205 2.4556984901
-3.0258874893 0.5141313076 2.6385295391
-2.9224936962 0.3494989872 2.7614209652
-2.9751291275 0.38328278065 3.1219844818
-2.9053885937 -0.2001439929 2.0650331974
-2.7492909431 -0.47711881995 2.2728426456
-2.8202674389 -0.087459638715 2.3236091137
-2.6894652843 -0.25270017982 2.484962225
-2.7727091312 0.05153542012 2.6120901108
-2.6301045418 -0.14893881977 2.7234075069
-2.8218617439 0.21553729475 2.910456419
-2.6820356846 0.012175487354 2.965862751
-2.8089635372 0.17191669345 3.272778511
-2.5306761265 -0.69547557831 2.4108500481
-2.4935703278 -0.44721958041 2.5997071266
-2.4706473351 -0.24979504943 2.8856070042
-2.522998333 -0.086256086826 3.1556594372
-2.611967802 0.019700950012 3.4300255775
-2.4604539871 -0.9560905695 2.3607060909
-2.317448616 -0.76500988007 2.6205444336
-2.2682256699 -1.0507265329 2.5138940811
-2.1795473099 -0.76199007034 2.8698420525
-2.1836893559 -0.99856686592 2.7162089348
-2.26475811 -1.2024021149 2.338054657
-2.4685053825 -1.1137241125 2.1733820438
-2.120493412 -1.2881640196 2.5361292362
-2.0245053768 -1.2957324982 2.933024168
-2.0851342678 -1.2197611332 2.7599740028
-1.9902011156 -1.4417587519 2.7728784084
-1.9485821724 -1.5775036812 3.0394129753
-1.9985218048 -1.2778675556 3.1579806805
-2.3494079113 -1.3377546072 2.0125827789
-2.1084423065 -1.4340261221 2.2373616695
-1.9546607733 -1.5521993637 2.4640023708
-1.8580656052 -1.6927931309 2.6772141457
-1.8030480146 -1.8800715208 2.9546244144
-2.2036268711 -1.5237079859 1.7486464977
-1.9995931387 -1.5807044506 1.9758064747
-1.8612867594 -1.6645642519 2.1810002327
-1.7292938232 -1.815153718 2.402431488
-1.6468715668 -2.0241370201 2.6267259121
-1.9602131844 -1.6613457203 1.6405799389
-1.787329793 -1.7061862946 1.8506481647
-1.6535624266 -1.8055820465 2.0341069698
-1.5130871534 -1.978200078 2.2721455097
-1.416626215 -2.1891553402 2.4548742771
-1.662080884 -1.7437211275 1.6438354254
-1.8385984898 -1.6983194351 1.4131268263
-1.506415844 -1.8335300684 1.8324631453
-1.3695075512 -1.9837466478 2.0487058163
-1.2404645681 -2.2163214684 2.2477946281
-1.5677704811 -1.7301981449 1.2824255228
-1.4036020041 -1.7789783478 1.5383902788
-1.237023592 -1.901211381 1.7644160986
-1.1027433872 -2.0533699989 1.9444334507
-0.95222604275 -2.2717490196 2.0858342648
-1.8346582651 -1.680339098 1.1045939922
-1.4279514551 -1.7355523109 0.99525082111
-1.6424387693 -1.7021993399 0.8187136054
-1.1452349424 -1.8380500078 0.85555022955
-1.3723301888 -1.8201305866 0.64756941795
-1.1028369665 -1.9923692942 0.50992661715
-1.3423339128 -1.9375550747 0.36298584938
-0.93372994661 -2.2292053699 0.32966393232
-1.2246412039 -2.1525013447 0.17025983334
-1.9659363031 -1.6080062389 0.88011419773
[...]
CELL_DATA 5392
SCALARS cell_data_0 double
LOOKUP_TABLE default
2.09528413723e-09
1.26580554035e-09
1.60767388496e-09
5.30967360818e-10
6.39384642363e-10
1.71858109593e-09
1.76506031878e-09
1.81434036404e-09
6.31915549345e-10
1.08517396791e-09
1.8539048464e-10
5.44576808853e-10
1.3305207798e-09
1.21846923175e-09
1.77374570241e-09
3.76984110916e-10
2.45802802306e-10
1.41774357298e-09
1.58194000228e-09
2.72081707676e-09
7.90724221052e-10
7.23722048095e-10
1.53422744289e-09
1.80146126133e-09
1.8835182891e-10
1.54085788982e-09
2.88693059678e-09
3.27051233249e-10
1.84843655836e-09
5.9652698944e-10
8.44484704774e-09
4.51480941838e-09
3.19302592434e-09
2.40728393701e-09
4.42231994076e-10
4.65221067901e-09
1.18712500671e-10
3.10619007366e-09
3.6946124505e-09
3.79612470131e-09
1.2110360799e-09
9.0473516862e-10
1.26682533081e-09
7.76061096964e-10
4.42129210032e-10
5.22821395845e-09
1.9447255739e-10
9.85183243734e-09
3.49930026988e-10
7.87573664704e-09
3.12580189721e-09
1.05970459831e-08
2.16399277673e-08
9.14477685267e-09
3.58953250333e-10
4.82301381944e-10
1.46696016174e-09
4.09832682845e-10
6.06556412725e-11
1.04114726019e-09
5.60209216012e-09
2.08950005015e-09
5.05988674675e-09
6.13416100089e-10
3.13102276154e-10
1.49551176925e-09
6.041336006e-10
2.03785219556e-09
9.06164214851e-10
1.76992332905e-09
3.02843200357e-09
5.88153966119e-10
9.11836916459e-09
1.62076222736e-09
5.88959835749e-10
2.4815695894e-09
3.23418265855e-11
1.82771095274e-09
2.68382901616e-09
2.07491706209e-09
2.33438885689e-09
7.91214981971e-09
1.64373162872e-09
1.03763171406e-08
2.80396774104e-09
8.38082824118e-10
2.40502301355e-09
1.72767882872e-09
2.38369219662e-09
1.4631601519e-10
3.53300378943e-09
1.54955615971e-10
1.03354110174e-09
1.85995066245e-09
8.77311918693e-10
3.57607392718e-09
3.14888213668e-09
3.50182560883e-09
8.50011338939e-09
3.75666468472e-09
9.98125574454e-09
8.64887031168e-09
5.84159669081e-09
5.65934324635e-09
1.02748595677e-09
4.81060985348e-09
2.85422573692e-09
2.70026573625e-09
5.0871840913e-09
8.5123871461e-09
9.20126781836e-09
1.5175706656e-09
1.35240940919e-09
2.79332101584e-09
2.30721845821e-09
2.70228104763e-09
6.10038674598e-09
8.64835297022e-09
7.55738143809e-10
5.40946910289e-09
2.44994189879e-09
1.606559519e-10
2.62866290257e-09
1.07316033981e-09
3.67663256812e-09
8.30934655083e-10
3.81904892709e-09
9.66169657837e-10
7.38291938608e-10
5.40390695008e-10
1.91154399701e-09
5.33682054849e-10
4.3779044171e-10
1.86850130431e-09
5.88523281282e-10
1.17829400804e-09
2.14695799416e-09
1.51449080765e-09
5.16268817716e-09
2.88728786498e-09
2.01846497555e-09
1.12838605055e-09
1.6404403064e-09
1.00613120334e-10
2.39602956211e-09
4.51366584848e-09
2.45777765784e-09
1.70802723144e-09
1.95347231158e-09
5.67198475581e-09
9.20010386027e-10
1.88118963681e-09
3.17895371159e-09
9.38434910193e-10
1.53649935333e-09
1.3512398873e-09
3.77505236093e-09
9.46137511043e-10
3.85725848303e-09
4.57323193559e-10
4.41154697439e-10
1.79378629458e-09
2.11070173488e-09
3.18066308501e-09
3.24590208631e-09
4.78229507622e-09
8.67814320974e-11
1.55229153648e-09
1.17856681484e-10
4.4273333984e-10
1.50453280123e-09
1.02206254604e-09
1.59210310028e-09
5.54949784186e-10
2.43044553902e-10
5.93868847622e-10
1.64669561737e-09
6.23610975659e-10
2.46386667654e-10
5.48465495073e-10
1.90151106146e-09
7.1133228543e-10
1.77097333928e-09
2.42742925738e-09
1.58633499179e-09
1.44242845978e-09
1.92265131619e-09
2.22050095775e-09
3.28732885061e-09
2.08296226289e-09
1.46973492756e-09
6.64465643796e-10
1.02125852003e-09
4.33841098664e-10
5.17852822202e-10
6.55533691365e-10
3.08183191087e-10
7.92061690385e-10
1.58128522138e-10
3.39697558497e-11
2.192134868e-09
2.36813311078e-09
2.9716682228e-09
3.34607965589e-09
2.12714469955e-09
1.99105440339e-09
6.34755931347e-10
1.50951394835e-09
2.13085760392e-09
6.37830532169e-10
1.40107874496e-09
5.73065513736e-10
2.82624402264e-09
1.64690728817e-09
5.20276781259e-09
5.93063906166e-09
2.74377394685e-09
3.05089490818e-09
8.70770542068e-10
1.68684724799e-09
2.99069576535e-09
1.66220285741e-09
8.71612522466e-09
6.46258811127e-09
2.7885388988e-09
3.43280192351e-10
4.18152441915e-09
6.19573336236e-11
4.53559529442e-10
5.38259567352e-10
8.8284945683e-09
3.1708656215e-09
3.18317600288e-09
6.33728790708e-09
7.97581815995e-10
2.94733912114e-09
5.5668513117e-10
1.28639284775e-09
9.31214582658e-09
1.42740763139e-08
6.5019239539e-09
9.45045541263e-09
8.24380787809e-10
5.22448869667e-09
9.94530943993e-09
5.51283636467e-08
5.00672995746e-08
4.72194695276e-08
1.56898645012e-08
5.77718404783e-09
1.32174886772e-08
2.55061937915e-08
1.21737208442e-08
3.77720814652e-08
8.31783501492e-10
4.01486169603e-08
3.47150300082e-08
1.22647068287e-09
6.10031536485e-09
1.08932066868e-08
3.84575255837e-09
3.38315425299e-08
4.55633574561e-09
5.05373961207e-08
2.36968443164e-08
1.82773360332e-09
1.57267484579e-09
5.41427263775e-09
2.95479037605e-09
2.49974294971e-10
3.92106734369e-09
3.9143949768e-09
1.44589206421e-08
2.289155764e-09
3.67763189812e-11
1.85797627309e-09
1.05472979373e-09
4.53911234312e-09
2.7154599735e-09
2.66023666361e-09
6.15414635368e-09
5.46581059308e-09
6.08556624052e-09
6.47415078802e-10
4.2500529486e-09
3.22676116062e-10
1.28854918738e-08
4.70749104059e-09
4.84537539342e-09
1.43797468029e-09
3.73411137813e-09
3.44267510911e-09
4.04346436592e-09
3.62008677902e-09
4.43465892687e-09
7.68541663116e-09
5.47033385314e-09
6.26292649873e-09
2.86236179653e-10
4.65341731842e-09
6.65755928168e-10
4.18569292866e-09
2.53332510706e-09
1.89422219071e-09
2.15029983156e-09
1.57026645623e-09
1.58990779721e-09
5.25367350736e-09
4.57348700935e-09
2.36479140165e-09
1.46386629364e-09
1.08837428765e-08
2.20715212974e-09
1.91043966439e-09
1.21463088325e-10
1.33233703401e-09
3.31543066562e-09
3.6542813749e-09
5.2692546283e-11
3.2262983744e-09
6.92416481435e-09
5.04245555791e-10
1.65719696003e-09
5.5391991551e-10
7.17410361489e-11
1.64800959998e-09
1.40798861086e-09
8.01975375713e-10
1.24622330189e-10
1.78568586447e-09
1.13356291638e-09
7.22683008759e-10
3.39405965477e-09
6.16286425716e-09
2.27890976517e-09
6.60500755178e-09
1.99187808334e-09
1.59824633938e-09
5.57412917938e-09
5.86754013842e-09
7.05951038653e-10
1.22505349313e-09
6.26964934208e-11
1.02042837072e-09
6.72574963302e-09
1.05186596217e-08
8.30811316146e-09
3.36334439591e-09
2.20515068383e-09
3.82061995148e-09
1.09178173242e-08
1.06247651541e-08
3.50739635732e-09
8.5930388628e-09
3.67304901635e-09
9.22450269522e-10
5.23122021742e-09
2.51823263684e-09
5.60158174216e-09
5.76910885159e-09
8.80141535491e-09
2.44572818635e-09
3.17478357074e-09
1.38314966962e-08
3.90004925166e-09
1.67905086941e-08
1.34374243706e-08
2.84710698058e-09
1.23761856253e-08
1.35397503633e-08
8.27563584955e-09
8.84294420882e-11
1.35073482678e-08
2.78315055038e-09
1.42102016172e-09
5.95981361695e-09
8.94364039554e-09
6.25797225638e-09
6.19501152926e-09
4.57077960366e-09
8.65901048377e-10
2.04379171973e-09
1.90414160855e-08
1.32878620402e-08
2.67308862142e-08
4.55514562277e-09
2.44885143203e-09
1.19280954707e-09
6.9723324339e-09
4.86207934438e-09
8.48957565883e-10
1.29427450698e-08
2.33497510742e-08
4.69407770007e-09
6.1200778584e-09
9.4245993786e-09
7.5196952678e-09
3.18573620614e-08
2.57780509234e-08
1.76671723728e-08
9.23672462663e-09
1.95483385016e-09
1.06054061501e-09
1.01029073758e-08
5.86591271546e-09
1.13538834092e-08
6.68495363826e-09
3.4825970373e-09
2.22794515071e-08
1.37481604563e-08
1.13284055594e-08
1.54705026207e-08
6.60638626527e-12
2.97617503308e-09
6.86439872314e-10
7.70677270951e-10
1.22088180674e-08
1.61968204904e-09
1.79373102549e-08
1.31511509588e-08
4.24074034772e-08
2.39103174878e-08
2.18778611543e-08
5.62688063258e-11
2.95357912528e-08
1.49086531649e-08
1.27966646737e-08
1.16392545779e-08
2.5612692947e-09
5.52163501662e-09
4.27206690309e-10
1.06735307019e-08
3.86313626269e-09
9.12443535787e-10
2.62006872901e-09
2.2079316574e-09
3.11135399987e-09
5.00097010986e-09
4.42319960379e-09
3.70913910717e-09
1.34885782103e-08
7.0076980625e-09
1.39009086182e-08
2.68388914118e-08
6.57500767742e-09
1.34186560305e-08
1.47764573133e-08
5.9482221406e-09
9.64211815392e-09
3.15670820455e-09
1.86486623567e-08
1.67681367895e-08
2.67604321178e-09
3.47305878138e-09
5.80801173738e-09
3.25068321019e-09
1.35575621339e-08
1.83441294358e-08
2.01452359854e-08
3.80351308619e-10
3.52324764547e-08
6.35185958192e-09
1.97263338771e-09
3.54015095966e-09
3.25588040363e-09
9.09921961023e-09
4.94287135211e-09
2.44502150682e-08
1.09389975133e-08
5.23046446255e-09
1.16343613996e-08
5.64479113344e-09
4.97492249446e-09
2.12048907797e-08
2.99237062691e-08
1.27401255385e-08
2.03502058469e-08
3.61760207448e-09
4.22398722479e-09
1.63017154549e-09
9.27883985452e-09
5.63207792426e-09
2.86395130998e-09
4.13453761526e-09
9.21555945256e-10
3.73048410908e-09
2.21172244673e-09
8.84279867147e-10
6.53415540708e-10
2.23689339795e-09
3.63635447284e-09
5.80388053697e-10
4.28112577245e-09
3.08843750609e-09
1.34034610136e-09
2.69371785518e-09
4.94715969548e-09
7.07157370793e-09
5.7680077442e-09
4.51941633954e-10
5.93511866267e-10
6.98778201356e-09
9.97476960279e-09
7.17737197451e-09
1.56209198928e-08
2.21401348132e-09
5.31617819556e-09
1.88979690834e-09
3.33692330228e-09
3.63889486024e-09
1.12341199378e-09
1.26244182564e-10
7.9641261611e-10
1.96407903307e-09
1.28417696982e-09
5.2474428841e-10
6.23559741691e-10
3.36731182695e-10
1.38121879007e-09
7.32143485422e-11
3.19250465255e-10
1.90983968768e-09
1.18562061937e-10
1.16890098518e-09
9.09346347016e-10
4.63793486435e-10
1.8439151425e-09
7.58748266283e-10
5.76065619896e-11
1.79130704e-09
2.72719032663e-10
1.26877652284e-09
2.57185546079e-09
1.25958389651e-09
1.03138627967e-09
4.19436102874e-11
9.05814743256e-10
9.04054957866e-11
2.38177019779e-10
1.03952027247e-09
1.34433309384e-09
1.12628529563e-09
1.52401589716e-10
3.90911125801e-10
7.32008317649e-10
6.45858282732e-10
4.18802880823e-10
4.82546731116e-10
1.30853999719e-09
5.05764591985e-11
1.58485071451e-09
2.27875484272e-09
7.80371015442e-10
4.95843632362e-10
1.27077093408e-10
6.79090289949e-10
2.06191190951e-09
6.97520076043e-10
5.57750334173e-10
1.04687970697e-11
4.6670114627e-11
1.40158101238e-09
2.00136719469e-09
6.58777577612e-11
3.50283948085e-10
4.01563579193e-09
5.21076103315e-11
8.98348275906e-11
1.65984911286e-09
5.82929947414e-10
9.42014417946e-10
2.23435940495e-09
3.79075745393e-09
2.25085156028e-09
2.38086848466e-09
3.50048152867e-10
4.11884214085e-09
3.60948281635e-09
7.77465073883e-09
5.14508401171e-09
7.22361562537e-09
3.3997354014e-11
4.13723403473e-10
9.38447351413e-09
1.00719851206e-09
2.39600863552e-09
8.45973674343e-09
1.92812050358e-09
7.58986629831e-10
8.44827129543e-10
8.15628235423e-09
1.81151086413e-08
1.44001330062e-08
8.22505346179e-10
3.01542498317e-09
1.46318966762e-09
6.58999965062e-09
9.42772075944e-09
1.50228841051e-08
2.69185054338e-09
1.31929162447e-10
3.63455606713e-09
1.51681072784e-09
5.50547249285e-09
1.84448887217e-08
1.1769656511e-10
4.56471080864e-10
1.20364748307e-09
2.98249159418e-09
9.11512123614e-10
4.9527581905e-09
1.05964494387e-09
1.7424014645e-10
2.13075767727e-10
1.31343746951e-09
2.09617446096e-09
3.87700665211e-10
1.07663213882e-09
9.16331513684e-11
8.55361421209e-10
2.35876821891e-10
1.00182073614e-09
2.85584798973e-10
6.49630798118e-10
7.64545556649e-10
1.59270616711e-10
2.93949229883e-10
1.89999130387e-09
8.01233279933e-10
4.33381361654e-10
3.3157365508e-09
1.79535546195e-09
1.6795076266e-09
1.06626722434e-09
4.18326183409e-09
7.31742972984e-11
9.94157082399e-10
1.55865791647e-09
1.80069965133e-09
4.78274001765e-10
1.69193127164e-10
1.53386097119e-09
1.33521420534e-09
1.45307589092e-09
2.20624163402e-10
1.17799435981e-09
1.69122577639e-09
3.71598214957e-09
1.37433577176e-09
2.01967082155e-10
1.42063661685e-09
6.51848927797e-10
1.51302382104e-09
9.88557693604e-10
2.26474861617e-10
9.53143350588e-10
8.12905769255e-11
1.7221183941e-09
9.90822857266e-10
3.30886015265e-10
1.62701615334e-09
4.45066912305e-10
6.94621066437e-10
1.26188315956e-09
1.10771966906e-09
1.445819564e-09
5.69533892522e-10
2.23396356172e-09
1.26358669903e-09
5.7147513513e-10
6.49441754992e-10
4.10076347354e-09
2.43071171226e-09
2.40512232665e-09
1.65274185082e-09
1.83523748544e-09
6.65413631961e-10
6.82314091249e-10
5.22780284388e-09
2.89544877184e-09
1.22934298802e-09
1.53727581969e-09
2.02278760128e-09
3.86499736646e-09
1.15795302345e-09
8.92600198744e-10
6.76015593194e-09
2.01933427744e-09
1.54001738335e-10
1.92163230377e-10
3.91681453362e-10
3.68077912469e-10
7.70378646537e-10
2.38965827538e-09
2.95646362615e-09
8.80818995694e-10
1.1217217926e-09
6.64499815259e-10
1.31197447093e-09
1.09227754263e-09
1.36026939684e-09
8.25283227419e-11
3.40533106645e-10
2.00396872791e-11
4.95640348159e-10
3.55268542898e-09
4.67754113558e-09
5.73544472936e-10
2.17557187179e-09
2.6135427175e-09
8.69890792606e-11
1.25133696447e-09
1.14260471568e-09
2.23214359319e-09
1.34442184163e-08
8.60883392501e-09
7.30792189525e-09
2.60675747792e-09
3.84188035332e-09
4.21738348457e-09
1.19739887163e-09
1.4909049319e-09
9.50470110807e-09
1.74283629269e-08
8.72309616419e-10
6.35670211085e-09
3.51263940814e-09
9.13599123077e-11
3.85217046553e-09
9.70808246278e-09
8.3668849398e-09
8.39366293923e-09
7.45542113891e-09
4.26231540457e-09
8.95566088027e-09
2.44081937782e-08
2.14009355397e-09
7.1958009831e-09
6.77680430618e-09
1.26162641489e-08
1.04045642665e-08
1.8351104036e-08
2.80899965334e-08
2.28464671426e-09
1.40749166188e-08
3.32520406459e-10
2.6729056284e-09
3.08652480317e-09
4.44343323013e-09
4.79781184911e-10
1.59550877438e-10
2.67325647562e-09
1.18309242628e-09
1.85701748003e-09
6.06735949487e-10
3.56231529838e-10
1.0418087313e-09
1.56070879079e-09
1.08816252544e-10
8.14998687561e-10
6.92768323105e-10
5.49059279366e-10
7.57879933496e-10
2.09625864601e-09
1.77249887617e-09
4.88936086346e-09
1.48795095995e-09
2.25924503269e-09
5.28861250848e-10
1.31741051967e-09
6.57567597941e-09
1.51662324039e-09
4.91808659483e-09
1.41910209432e-09
3.24090799721e-09
4.60963537088e-09
6.34830059764e-09
5.60764810125e-10
4.09752179109e-09
2.68965505777e-10
6.99141016878e-09
3.79343260394e-09
1.33457556253e-08
5.47311309243e-09
5.59376556692e-10
5.20144192553e-09
6.19174461841e-09
1.17718381048e-08
9.925460181e-09
2.13623590343e-08
1.12862941175e-08
6.17283725113e-09
1.477009333e-08
2.21151162039e-08
7.60988790468e-10
4.38058590545e-08
1.25265576855e-09
5.44104109306e-09
3.71455789746e-08
7.69787388289e-09
1.90284917919e-08
1.6282579262e-08
3.21582912831e-08
1.05485837884e-08
5.92811822531e-09
3.85240331845e-08
2.91286461524e-08
2.24004421133e-08
1.9251902676e-08
2.77499234204e-08
2.85370217524e-08
1.89009345054e-08
1.81629821204e-08
2.18743927896e-08
1.16237012429e-08
2.01630793345e-08
8.70284484982e-09
1.88239767867e-08
6.47960339736e-09
1.64972389652e-08
6.96705418994e-09
3.86019900493e-09
4.67567457109e-09
4.78282960779e-09
1.84850774787e-09
5.899490769e-09
7.6677484759e-09
1.20049536009e-09
5.47296634929e-09
6.76256362103e-09
8.55214767376e-09
1.66125303962e-09
5.0000069186e-11
7.72222199432e-10
3.19791905888e-09
3.20994913851e-09
9.32999821857e-10
4.37468397242e-09
8.02810253393e-09
4.99127067752e-09
2.3012009842e-09
5.04311395177e-09
1.034902254e-08
5.24541699948e-09
1.19353237735e-08
3.84074741942e-08
1.78676204785e-08
1.27156902211e-08
1.6401695291e-08
1.10176483165e-08
4.06695829633e-09
2.34499947464e-09
6.60756866856e-10
3.47484828693e-09
2.78247431368e-10
3.03498502481e-09
3.77897238527e-09
2.5913481816e-09
1.42794303749e-10
6.10753622461e-09
1.16087839915e-08
1.87746676014e-08
9.36176577404e-09
1.05167530824e-08
3.02357258306e-09
5.14552377146e-09
7.47153367846e-10
4.28368236232e-09
2.12087840825e-09
1.6381428074e-11
7.89400668875e-10
4.12315440682e-10
3.65425817672e-09
2.53482851519e-09
7.38071424628e-09
2.98730942453e-09
6.5199137594e-09
1.06867560615e-10
3.17583875151e-09
3.34634095984e-09
2.74939759306e-09
1.37148617601e-09
3.52939856227e-09
2.21937257292e-09
2.64424770116e-09
2.44912083371e-09
1.85616391582e-09
2.5727708952e-11
2.47365635295e-09
8.40162467173e-09
5.99552873288e-09
7.87493048946e-09
1.34664759809e-09
2.92700941977e-09
5.68687691606e-10
4.09053011006e-09
7.55444865655e-10
3.03327377136e-09
1.54134698273e-09
3.35682904325e-09
8.21788180802e-09
2.22716291636e-09
6.73371681984e-09
1.33551252745e-08
4.08242426406e-09
1.15664100336e-08
3.14190212511e-09
3.58705359465e-09
3.28151620552e-09
9.55747540567e-10
5.36626595405e-09
1.77051972816e-09
9.89915254325e-10
2.57560065622e-09
8.59595191232e-10
2.86435122304e-09
3.76550867274e-10
7.20119709403e-09
9.08938960683e-10
9.09057979621e-09
1.29987631239e-09
3.42179537673e-09
4.03389346576e-09
3.3698900992e-09
8.33549210004e-10
1.24905476845e-09
4.5169595048e-09
8.78864469185e-09
1.6349691949e-08
6.23860967758e-09
9.49447774978e-09
7.12342935086e-09
1.77777049641e-10
3.17738329796e-09
2.97867656607e-08
6.83564513556e-10
3.046975594e-08
2.67237067612e-08
1.3980085617e-08
2.23273649724e-08
1.90483770304e-09
1.61214592135e-08
2.37650157119e-09
2.50075704537e-09
1.69397534651e-09
1.26446781257e-09
4.24934710896e-10
3.88853446216e-09
8.32907800382e-09
2.23660728586e-09
1.68676740103e-08
1.16748729959e-08
2.6717408091e-08
4.74321279869e-09
9.16071471921e-09
1.1983552786e-08
1.56282732706e-09
5.03242059746e-09
3.36218622036e-09
1.25587323161e-09
4.73529351734e-09
5.50600144053e-10
6.37529165186e-09
9.61603266773e-09
4.97594752834e-09
1.01319214557e-09
2.92838258371e-08
1.86078401061e-08
1.30702985012e-09
1.19886912721e-08
5.19650623878e-09
8.13675774429e-09
4.45038946579e-09
7.20400232618e-09
9.77034970429e-10
5.11534168778e-10
1.12660363605e-08
1.05493154135e-08
1.27539372181e-08
1.17364692649e-08
2.52813532106e-09
2.87076191698e-10
1.72254004804e-08
6.81074669198e-10
5.6249487522e-09
1.23144924603e-08
4.11535307682e-08
5.04597357777e-08
1.29174022835e-08
3.04572553959e-08
9.24982949795e-10
4.66085890602e-09
1.11514269496e-09
3.62401571269e-09
3.06114785889e-08
2.7183616007e-08
2.18430629609e-08
1.36298564295e-08
3.69061641184e-10
2.16419548428e-09
7.54447928329e-10
7.41613861013e-09
1.01023622168e-08
5.47457177889e-09
4.1795339353e-09
5.17158500414e-09
2.87090959109e-09
1.71089282823e-09
2.64078005617e-09
2.08352278596e-09
5.6329718561e-09
6.0458589494e-09
1.12105512797e-09
6.44882994284e-09
4.85202404774e-09
1.11234162487e-09
1.60242382266e-09
8.07674800383e-09
1.78354552352e-08
1.3642448771e-08
3.990331827e-09
1.52554973804e-09
2.71488873669e-09
2.62032721785e-09
2.00236178208e-09
8.7842380401e-11
1.474878402e-08
1.71735041679e-08
1.84341645692e-09
6.12573388346e-09
3.67814396133e-09
2.26667313223e-09
4.7238230556e-09
2.38429828967e-09
1.0442989367e-08
1.08470899185e-08
4.02772376968e-09
4.51072908814e-09
1.58647725954e-09
3.00787637235e-09
2.04889156626e-09
7.07064066758e-09
1.75294528103e-09
9.11545848597e-09
1.08941294464e-09
2.97717018167e-09
8.40811622009e-10
1.04962488577e-09
3.8470394478e-09
2.75915147036e-10
4.7712179417e-09
4.64147741114e-09
1.97317595316e-09
6.84420143388e-09
1.18136357737e-09
1.92570564822e-09
1.82268579716e-09
6.22237472807e-09
2.02895368592e-10
5.33504330305e-09
1.77535077639e-10
2.51840799506e-09
2.93059518787e-10
1.02433653785e-09
5.66003022814e-09
7.06151167898e-10
5.66886005133e-09
8.0958254144e-09
8.30653800196e-09
2.56686688791e-09
3.52928539189e-10
5.39899992763e-09
6.52138915832e-09
7.87824636965e-09
9.31346353433e-09
5.19201914002e-09
2.06281122986e-09
3.05760262402e-09
5.49414587084e-10
1.30315139085e-09
1.31978586615e-08
3.80644557026e-10
1.10334812494e-08
1.0901822488e-08
7.37367977621e-09
1.49298796882e-08
3.68011357524e-09
8.47669018596e-09
8.00945414633e-09
1.1460945663e-08
7.51065005067e-09
8.72690468673e-09
3.39517185482e-09
2.0126350177e-10
3.603808926e-09
7.31816257819e-09
1.49717818153e-09
1.18217746154e-09
2.67991027327e-09
1.6953533257e-09
1.17653977617e-09
4.3716995086e-09
7.18099928809e-09
5.72089234451e-09
1.9932379676e-10
5.06225108589e-09
6.89364514012e-09
5.70628914675e-09
2.07855548196e-09
8.96027351848e-09
1.93692359125e-08
2.79876491286e-10
1.72545314303e-08
1.219562727e-08