# vtk DataFile Version 3.0
File Name: Molecule/arg/arg_1.0-1.vtk
ASCII
DATASET UNSTRUCTURED_GRID
FIELD FieldData 1
TIME 1 1 double
0.0
POINTS 191 double
-3.4433333874 0.24837963283 1.4162664413
-3.0907781124 -0.093681588769 0.48400890827
-3.0247979164 -0.43689358234 1.6416326761
-2.7245604992 -0.52513873577 0.46084904671
-2.9925806522 0.087639376521 0.025405567139
-2.3036687374 -0.30720093846 -0.45093521476
-2.2936263084 -0.37387859821 -0.99313986301
-2.1168925762 -0.67559170723 -0.81256890297
-2.5934863091 1.487678647 -0.69083428383
-2.514844656 -0.022799424827 -1.0829912424
-2.2269151211 1.151309967 -1.6021174192
-1.9472932816 1.656891346 -1.0941191912
-2.6132385731 1.9587060213 -0.40627223253
-1.4647562504 3.1676294804 0.22641785443
-1.7648442984 2.4873209 -0.62263530493
-2.4911046028 2.6512415409 0.64125961065
-3.0371952057 2.3491716385 1.6099615097
-1.8467336893 3.3344511986 1.512131691
-2.518871069 2.9866070747 2.3050639629
-2.7036840916 2.5756406784 2.5777723789
-2.9852817059 2.0300769806 2.5970759392
-3.4245438576 1.7921901941 1.7770441771
-3.3877179623 0.77444094419 1.9474449158
-3.1037838459 1.792206049 3.021586895
-3.1478281021 0.79746580124 2.8829131126
-3.0455329418 0.42170509696 2.2851965427
-3.1125867367 0.11129006743 1.8539603949
-2.8648679256 0.24195876718 3.2335195541
-2.7675950527 -0.038193222135 2.4871850014
-2.9692168236 -0.23242050409 1.9387245178
-2.5067534447 -0.72139590979 2.4175260067
-2.3345139027 -0.242202878 3.3924453259
-1.729937911 -1.7067778111 1.3901534081
-1.9763035774 -1.3289794922 3.2699687481
-0.98009878397 -2.2627635002 2.1181182861
-2.3042619228 -1.0109636784 0.32913193107
-0.98589134216 -2.2094717026 0.29415464401
-1.9103851318 -1.3270322084 -0.43292027712
-1.910700202 -1.2748697996 -1.0776591301
-2.0971748829 -0.68633615971 -1.2215551138
-1.7539284229 -0.78746569157 -2.0412876606
-2.2264983654 -0.447080791 -0.87013947964
-2.2212598324 -0.43153735995 -1.8868846893
-1.5812327862 -1.5374726057 -1.80209589
-2.118537426 0.21431203187 -2.386087656
-1.5567440987 0.14332810044 -2.7027666569
-1.8517671824 0.96519201994 -2.3777420521
-1.0622112751 0.56063514948 -3.3877124786
-1.5709705353 1.4527316093 -2.2403781414
-1.8707169294 1.4509596825 -1.7726037502
-1.3034054041 1.4992694855 -2.746326685
-1.1034194231 2.0535490513 -2.2196202278
-1.4856256247 1.8258860111 -1.7288810015
-1.2099120617 2.465713501 -1.3610315323
-0.51314067841 2.5327694416 -2.3545444012
-0.27417978644 2.9324374199 -1.7740857601
-0.93781590462 3.0744931698 -1.1081041098
0.41174721718 3.0880355835 -1.0500248671
0.3659837842 3.0526301861 -2.1314723492
-0.064982369542 3.3317620754 -2.9259915352
0.36322012544 3.431853056 -2.7562065125
1.0636041164 2.4633471966 -0.46533277631
0.85371387005 2.657835722 -1.4485733509
1.5103466511 1.955475688 -1.0783004761
0.92967158556 2.7959887981 0.34276840091
1.5393357277 1.9169402122 0.067110769451
1.2186200619 2.2064855099 1.0081875324
0.27603670955 3.0715022087 0.98434615135
1.2604665756 2.2482755184 1.9870113134
0.7353476882 2.7648751736 2.4710595608
-0.14776887 3.3971505165 2.0586047173
-0.5635420084 3.2794804573 3.5153141022
0.0024067645427 2.6098828316 4.0484781265
-0.78437155485 2.8190495968 3.9334344864
-1.2941349745 3.6796154976 3.3883852959
-1.8703409433 2.8459572792 3.7698898315
-2.0410871506 3.2471020222 3.3711938858
-2.2628293037 2.6895859241 3.583930254
-1.0785037279 2.1314229965 4.3804645538
-0.48882564902 1.6575814486 4.6182985306
-2.448877573 2.2240476608 4.1057562828
-1.5618866682 1.7512172461 4.5644302368
-0.27771112323 1.0560078621 4.7830233574
-1.2112845182 1.0763163567 4.6497883797
-0.041511110961 0.40399518609 5.0404243469
-0.59800314903 0.19680701196 4.8124842644
-1.6430006027 0.70256912708 4.6419606209
-0.85514521599 -0.39957809448 4.7883043289
-1.681332469 -0.88620680571 4.3357548714
-2.3497362137 0.23915393651 4.2320399284
0.33888626099 -0.45666566491 5.1815671921
0.16706475616 -1.1860232353 5.0835986137
1.2520028353 -0.80482560396 5.3380613327
1.581007123 -1.8293198347 4.6721992493
0.56044852734 -2.2834861279 4.4982800484
1.0665842295 -2.473208189 3.2701656818
1.9832212925 -2.0898077488 3.4698543549
1.9331560135 -1.474845767 2.3415660858
1.0192425251 -1.8554844856 2.1246130466
0.7696608305 -1.6636561155 1.2418655157
0.13235157728 -2.1517338753 1.238068819
0.14141654968 -2.602189064 2.260792017
1.0499073267 -1.8226751089 0.33334848285
0.049287907779 -2.4809942245 0.29472222924
-0.77970170975 -1.9839638472 1.1874229908
1.3944950104 -0.83481985331 1.0954499245
1.4151157141 -1.031255126 0.17472055554
1.2535499334 -1.2098478079 1.4964624643
2.3324120045 -0.71742582321 1.9779906273
1.7009363174 -0.10580257326 0.67933654785
1.7704398632 0.21100060642 -0.22978779674
1.6525580883 -0.65452617407 -0.71315973997
1.5319876671 -1.5967373848 -1.5023065805
2.1961381435 -0.15775927901 -1.4376704693
2.0736069679 -1.1074998379 -2.2474431992
1.0503722429 -1.4596147537 -2.8929560184
0.49787029624 -2.1576793194 -2.1503992081
-0.2817581296 -1.4148013592 -2.6503708363
0.1087455675 -0.7035292387 -3.5254614353
-0.37719872594 -0.71822482347 -3.0215165615
-0.99799257517 -0.69898557663 -2.6584537029
-0.70541357994 -0.30124798417 -3.1965112686
-0.98672693968 -1.3292235136 -2.4003965855
-0.026894569397 0.55956447124 -4.039126873
0.54397720098 0.41023695469 -4.2395777702
0.12335936725 2.0082709789 -4.1288328171
0.36945769191 1.3407568932 -4.3975176811
-0.41260838509 1.9328052998 -3.5779480934
0.045179754496 2.9974946976 -3.689296484
-0.14988337457 3.1668889523 -3.338085413
0.91491240263 2.2189517021 -4.031056881
0.90261900425 3.0931544304 -3.6779518127
0.93773335218 3.2341573238 -2.853345871
1.572101593 2.526689291 -3.333491087
1.6666681767 2.6812212467 -2.5230824947
0.60835808516 3.3138477802 -2.6356201172
1.1294537783 2.6185069084 -2.0061819553
2.1110198498 1.6475479603 -1.9659318924
2.1902449131 2.1618492603 -2.5291719437
2.0268821716 0.90371149778 -1.1878114939
2.3499917984 0.60714101791 -1.6170744896
2.4301412106 1.2561079264 -2.287009716
1.972399354 0.93228703737 0.011366917752
1.8441368341 2.0390834808 -3.4151713848
1.84540236 1.3012347221 -3.8133046627
1.174379468 1.6462110281 -4.1885623932
1.8835623264 1.3137001991 1.3390384912
2.5436367989 0.95080810785 2.584813118
1.8519589901 1.5687232018 2.3304522038
1.6932700872 2.1848347187 3.1720705032
2.372040987 1.4408334494 3.4564366341
1.4424774647 1.7655278444 4.272793293
2.1976325512 1.1986783743 4.6246919632
1.369330287 0.76053458452 5.0785708427
0.5239393115 1.5590759516 4.7613997459
0.6027277112 0.85430073738 4.9816207886
-3.5271134377 2.2047493458 0.82250887156
-3.5323729515 1.6286143064 -0.078953705728
-3.9372515678 1.1596400738 0.84759300947
-2.6783795357 -1.2418552637 1.3419800997
0.54703009129 3.3681669235 -0.086929343641
-1.1138352156 4.0091238022 2.4959552288
-2.128087759 3.6430048943 2.5088932514
-2.8501803875 1.3419311047 4.3451828957
-0.63603073359 -2.6129720211 4.2843518257
-0.80158627033 -1.6629823446 4.9317059517
-1.5614334345 -1.8444577456 4.2510557175
-0.82763648033 -2.849252224 3.2127592564
0.27370458841 -2.9096674919 3.3884725571
0.48983201385 -2.7864003181 -0.90599125624
-0.77412176132 -2.7651202679 -0.75765949488
-0.59260505438 -2.4379293919 -1.9521416426
1.3685668707 -2.110960722 -0.74740767479
0.90335047245 2.4549455643 4.0748329163
3.6675009727 -0.31391009688 3.6998353004
3.3286247253 0.75310611725 3.6968612671
3.3281025887 0.19396106899 4.633626461
3.3346011639 -0.883895576 4.5817537308
3.2244794369 -1.4948598146 3.6872057915
3.2396731377 -0.8525365591 2.6661720276
3.3362948895 0.18631017208 2.7784729004
2.3078539371 0.2117793113 5.3886499405
2.4692931175 -0.82837617397 5.3331141472
2.4945070744 -1.7037813663 4.6697993279
2.9128842354 0.11214669794 -2.6017079353
2.5698847771 -0.62440872192 -3.3692924976
2.6625933647 0.4801916182 -3.6150174141
1.8076853752 -1.2265520096 -3.3989751339
1.808119297 -0.44084876776 -4.186548233
0.87776678801 -0.71292847395 -4.0965895653
0.20750242472 3.3451595306 -3.743948698

CELLS 378 1512
3 0 1 2
3 2 1 3
3 1 4 3
3 5 6 7
3 4 8 9
3 9 8 10
3 8 11 10
3 12 11 8
3 13 14 15
3 12 15 14
3 15 16 17
3 17 16 18
3 19 16 20
3 21 20 16
3 21 22 23
3 23 22 24
3 25 22 26
3 0 26 22
3 24 25 27
3 28 27 25
3 28 26 29
3 29 26 2
3 2 30 29
3 30 31 28
3 30 32 33
3 33 32 34
3 32 35 36
3 36 35 37
3 35 5 37
3 3 5 35
3 37 7 38
3 38 39 40
3 39 41 6
3 9 6 5
3 9 42 6
3 43 38 40
3 42 44 40
3 45 40 44
3 44 46 45
3 45 46 47
3 48 46 49
3 10 49 46
3 50 48 51
3 52 51 48
3 52 11 53
3 53 11 14
3 51 53 54
3 54 53 55
3 56 57 55
3 55 57 58
3 55 58 54
3 59 58 60
3 57 61 62
3 62 61 63
3 61 64 65
3 65 64 66
3 64 67 66
3 68 67 69
3 70 67 17
3 13 17 67
3 70 71 69
3 69 71 72
3 73 74 75
3 76 75 74
3 75 76 77
3 18 19 76
3 73 78 72
3 72 78 79
3 80 81 75
3 77 80 75
3 80 77 23
3 20 23 19
3 82 79 83
3 81 83 79
3 84 82 85
3 86 85 83
3 87 86 88
3 89 88 86
3 89 31 88
3 88 31 33
3 85 87 90
3 91 90 87
3 92 91 93
3 94 93 91
3 94 95 93
3 93 95 96
3 96 95 97
3 98 97 95
3 99 98 100
3 101 100 98
3 99 100 102
3 103 102 100
3 104 100 34
3 101 34 100
3 100 104 103
3 103 104 36
3 102 105 99
3 106 105 102
3 97 107 108
3 105 108 107
3 109 106 110
3 111 110 106
3 111 112 113
3 113 112 114
3 114 112 115
3 116 115 112
3 116 117 115
3 115 117 118
3 119 117 120
3 121 119 120
3 120 122 40
3 43 40 122
3 120 45 121
3 121 45 47
3 123 118 121
3 118 123 124
3 125 126 127
3 123 127 126
3 128 127 129
3 125 128 130
3 131 130 128
3 131 132 133
3 133 132 134
3 132 135 136
3 62 136 58
3 136 137 134
3 134 137 138
3 139 140 137
3 141 137 140
3 139 63 142
3 142 63 65
3 142 110 139
3 110 113 139
3 138 141 143
3 144 143 141
3 144 124 145
3 145 124 126
3 145 130 143
3 143 130 133
3 109 146 108
3 108 146 147
3 148 146 68
3 66 68 146
3 149 150 148
3 147 148 150
3 149 151 150
3 150 151 152
3 152 151 153
3 154 153 151
3 154 82 155
3 155 82 84
3 155 90 153
3 153 90 92
3 26 0 2
3 5 3 4
3 4 9 5
3 49 10 11
3 14 11 12
3 17 13 15
3 19 18 16
3 23 20 21
3 25 24 22
3 27 28 31
3 33 31 30
3 104 34 32
3 104 32 36
3 7 37 5
3 7 39 38
3 42 40 39
3 50 47 46
3 48 50 46
3 53 51 52
3 59 54 58
3 56 55 53
3 135 58 136
3 62 58 57
3 65 63 61
3 68 66 67
3 70 69 67
3 73 72 71
3 81 79 78
3 83 85 82
3 87 85 86
3 92 90 91
3 107 97 98
3 107 98 99
3 107 99 105
3 109 108 105
3 109 105 106
3 113 110 111
3 119 118 117
3 122 120 117
3 126 124 123
3 128 125 127
3 133 130 131
3 136 134 132
3 141 138 137
3 140 139 113
3 145 143 144
3 148 147 146
3 155 153 154
3 156 157 158
3 158 157 4
3 0 158 1
3 158 0 22
3 158 22 21
3 158 21 156
3 156 21 16
3 156 16 15
3 157 156 12
3 15 12 156
3 157 12 8
3 157 8 4
3 4 1 158
3 3 35 159
3 3 159 2
3 2 159 30
3 28 29 30
3 30 159 32
3 32 159 35
3 41 39 7
3 41 7 6
3 10 44 9
3 42 9 44
3 39 6 42
3 46 44 10
3 11 52 49
3 49 52 48
3 13 67 160
3 13 160 56
3 13 56 14
3 53 14 56
3 56 160 57
3 57 160 61
3 61 160 64
3 64 160 67
3 74 161 162
3 74 162 76
3 71 74 73
3 74 71 161
3 161 71 70
3 161 70 17
3 161 17 162
3 162 17 18
3 162 18 76
3 78 75 81
3 19 77 76
3 77 19 23
3 75 78 73
3 24 27 163
3 24 163 23
3 23 163 80
3 80 163 81
3 163 86 81
3 83 81 86
3 86 163 89
3 89 163 27
3 89 27 31
3 26 28 25
3 164 165 166
3 164 166 167
3 164 167 168
3 164 168 94
3 164 94 165
3 165 94 91
3 165 91 87
3 165 87 88
3 165 88 166
3 166 88 33
3 166 33 167
3 167 33 34
3 167 34 101
3 167 101 168
3 168 101 95
3 168 95 94
3 95 101 98
3 169 170 171
3 169 171 116
3 169 116 172
3 169 172 102
3 169 102 103
3 169 103 170
3 170 103 36
3 170 36 37
3 170 37 38
3 170 38 43
3 170 43 171
3 171 43 122
3 171 122 117
3 171 117 116
3 102 172 106
3 106 172 111
3 111 172 112
3 112 172 116
3 45 120 40
3 50 51 127
3 50 127 47
3 47 127 123
3 47 123 121
3 119 121 118
3 127 51 54
3 63 139 137
3 63 137 136
3 63 136 62
3 66 146 65
3 65 146 142
3 110 142 109
3 146 109 142
3 69 72 173
3 69 173 149
3 69 149 68
3 68 149 148
3 149 173 151
3 151 173 154
3 154 173 72
3 154 72 79
3 154 79 82
3 85 90 84
3 84 90 155
3 174 175 176
3 174 176 177
3 174 177 178
3 174 178 179
3 174 179 180
3 174 180 175
3 176 181 182
3 177 176 182
3 177 182 183
3 178 177 183
3 178 183 96
3 178 96 97
3 178 97 179
3 179 97 108
3 179 108 180
3 180 108 147
3 180 147 175
3 175 147 150
3 175 150 152
3 175 152 176
3 176 152 181
3 181 152 153
3 181 153 92
3 181 92 182
3 182 92 93
3 182 93 183
3 183 93 96
3 184 185 186
3 185 187 188
3 186 185 188
3 188 187 189
3 188 189 124
3 188 124 144
3 188 144 186
3 186 144 141
3 186 141 184
3 184 141 140
3 184 140 113
3 184 113 114
3 184 114 185
3 185 114 187
3 187 114 115
3 187 115 189
3 189 115 118
3 189 118 124
3 125 130 126
3 126 130 145
3 134 138 133
3 133 138 143
3 59 129 54
3 54 129 127
3 132 60 135
3 135 60 58
3 128 129 190
3 60 190 59
3 129 59 190
3 190 60 131
3 128 190 131
3 132 131 60

CELL_TYPES 378
5
5
5
5
5
5
5
5
5
5
5
5
5
5
5
5
5
5
5
5
5
5
5
5
5
5
5
5
5
5
5
5
5
5
5
5
5
5
5
5
5
5
5
5
5
5
5
5
5
5
5
5
5
5
5
5
5
5
5
5
5
5
5
5
5
5
5
5
5
5
5
5
5
5
5
5
5
5
5
5
5
5
5
5
5
5
5
5
5
5
5
5
5
5
5
5
5
5
5
5
5
5
5
5
5
5
5
5
5
5
5
5
5
5
5
5
5
5
5
5
5
5
5
5
5
5
5
5
5
5
5
5
5
5
5
5
5
5
5
5
5
5
5
5
5
5
5
5
5
5
5
5
5
5
5
5
5
5
5
5
5
5
5
5
5
5
5
5
5
5
5
5
5
5
5
5
5
5
5
5
5
5
5
5
5
5
5
5
5
5
5
5
5
5
5
5
5
5
5
5
5
5
5
5
5
5
5
5
5
5
5
5
5
5
5
5
5
5
5
5
5
5
5
5
5
5
5
5
5
5
5
5
5
5
5
5
5
5
5
5
5
5
5
5
5
5
5
5
5
5
5
5
5
5
5
5
5
5
5
5
5
5
5
5
5
5
5
5
5
5
5
5
5
5
5
5
5
5
5
5
5
5
5
5
5
5
5
5
5
5
5
5
5
5
5
5
5
5
5
5
5
5
5
5
5
5
5
5
5
5
5
5
5
5
5
5
5
5
5
5
5
5
5
5
5
5
5
5
5
5
5
5
5
5
5
5
5
5
5
5
5
5
5
5
5
5
5
5
5
5
5
5
5
5
5
5
5
5
5
5
5
5
5
5
5
5
5
5
5
5
5
5
5
5
5
5
5
5

CELL_DATA 378
SCALARS cell_data_0 double
LOOKUP_TABLE default
4.9212621132e-07
1.02470469831e-06
9.91300987274e-07
1.26387934434e-05
1.03234916549e-05
8.75585577026e-06
1.01117309726e-05
1.82427342441e-07
4.36470402955e-07
2.74475371326e-06
6.7579300962e-07
2.56864638065e-07
4.90963730384e-07
1.35515419489e-06
1.46180630772e-06
2.25527574417e-06
3.14694217968e-07
1.65933519392e-07
2.80794563306e-07
1.7916110438e-07
6.78262612466e-07
3.14032571266e-07
7.39542268065e-07
4.29562813278e-06
8.00000114797e-06
2.9217600451e-05
1.84310866125e-06
1.12626250181e-06
3.52731922689e-06
1.38711767277e-06
1.10872662242e-06
1.20716177972e-06
3.04411747218e-06
2.5737003977e-06
1.46169466263e-06
6.09413905389e-06
7.33514094049e-06
2.26721647412e-06
2.02993536397e-06
7.74420607063e-07
4.64647284975e-06
1.60013830432e-07
3.00773190543e-06
4.21236186764e-07
5.12814880732e-06
6.28095308961e-06
1.15442890026e-05
5.51990550098e-06
2.71989818936e-07
2.09060020419e-06
8.04035673573e-06
0.00016948846067
6.67020937237e-07
1.32890733122e-06
4.59881372252e-06
1.84359151576e-06
4.102056357e-06
3.36109516506e-05
1.79710248296e-05
1.26727867777e-06
2.54507324036e-05
1.44941946515e-05
1.24678116768e-07
8.22769065261e-07
1.15459609467e-06
1.32335340704e-06
1.15980475453e-07
2.19150187279e-06
2.64013092343e-07
1.53734385183e-06
1.27804813705e-06
4.11304629677e-07
2.06830685714e-07
1.22345779537e-06
2.4672044985e-06
2.53109237328e-06
2.95649436109e-06
1.05843703506e-06
4.6797415253e-06
1.3500542335e-05
1.93519257138e-06
3.96811473306e-06
1.57133350128e-05
6.87289854618e-05
2.24563047861e-07
8.27440628314e-05
0.000126337427899
2.1778207177e-05
5.5834576087e-06
8.51281167884e-06
6.54779994331e-06
1.27615031762e-05
1.30086342118e-06
3.37547232699e-06
1.84177686615e-06
4.84397363551e-06
6.42007120666e-06
9.52589714865e-07
1.39253114403e-05
6.926151336e-06
9.41706842524e-06
5.01507278818e-06
2.72616456934e-06
4.66676713752e-06
7.4642724058e-06
4.10934742438e-06
8.01086466337e-06
2.83526979171e-06
1.43259025522e-07
1.13660408952e-06
1.81254420757e-06
3.17028455207e-06
1.65129095237e-06
1.28738094954e-05
1.22760752639e-05
2.14893270935e-05
6.85097052397e-05
9.68375128965e-05
2.56504899991e-05
6.52035393312e-05
1.98867493357e-05
0.000200201641522
6.41473852613e-05
6.3348805347e-05
3.88928955299e-06
2.89565744233e-05
9.58826869979e-05
2.95855607052e-06
2.25850284925e-05
9.11590927206e-06
8.50852504476e-06
6.41612224076e-06
1.15098162664e-05
4.52941426765e-05
3.02149026651e-05
2.16656555264e-05
6.85257465286e-05
0.0001398620582
0.000107101276953
1.33947234026e-05
2.30919921025e-05
1.76562758362e-05
4.74936000563e-06
9.99739725262e-05
1.96915896091e-06
0.000105239469563
1.26824589056e-05
1.55374880856e-05
4.07613612794e-05
2.99441441231e-06
7.74326649517e-07
2.614766712e-06
9.25549364679e-06
1.0962793135e-06
1.28133308864e-07
1.30378649854e-05
2.49257114238e-06
3.59394887422e-06
1.20403591948e-05
1.91844071554e-06
1.65162069507e-06
1.44949272436e-06
3.7907768873e-06
5.57621068341e-07
5.12240494626e-07
7.30520084709e-06
7.03196228256e-06
1.13863848089e-06
6.70063878835e-07
1.08988302111e-05
2.29873121406e-06
3.40851497413e-06
9.10772712931e-05
2.67622423132e-06
4.53506163601e-05
1.15198402035e-06
8.11234512913e-06
1.45998837673e-07
3.03033618268e-05
1.55055152678e-06
3.51663365615e-07
6.04849331557e-07
9.53809335271e-07
9.95397708624e-06
1.45937350663e-05
1.28655732228e-05
4.79201943932e-07
7.85063573425e-07
2.1105199633e-06
8.20820945316e-06
1.74891216365e-07
1.54150353196e-06
8.66776652666e-05
9.47684840526e-05
0.000228935160278
0.000114499080083
0.000111393857152
2.40545505057e-06
8.62945189003e-05
2.34195081089e-06
2.75065312537e-06
1.19882584644e-06
2.78142874183e-06
4.66661514483e-09
1.80314529356e-07
2.09636928351e-06
2.70293598292e-07
3.13872852728e-07
9.62207071092e-07
1.39994036313e-06
4.74463584559e-06
1.83374501569e-06
1.16758542044e-05
2.22760013993e-07
1.48557165592e-06
4.32688701726e-06
6.17946639376e-06
6.22603059645e-08
5.22954751796e-06
3.29591831207e-06
2.13729799222e-06
2.68960471717e-06
3.88592214265e-05
3.21353661284e-06
3.29098729956e-06
5.12387627331e-06
1.21893571196e-06
3.47596718008e-07
1.18347033791e-05
4.5561675056e-06
3.58515783372e-06
3.69642122476e-07
5.97339665552e-07
3.58568404658e-06
2.81795925158e-06
1.87530507165e-06
5.29742175413e-07
1.5029865752e-06
9.99515291067e-08
5.11276654269e-07
1.09420112612e-05
7.01679642523e-06
5.16482051917e-06
2.10027832881e-07
1.54993472236e-06
3.74109446673e-07
8.38294592918e-07
5.17640339777e-07
4.04077401721e-07
3.09144729598e-06
1.7186741807e-06
4.80654787262e-07
1.12075490379e-08
8.2782041066e-08
3.41476379959e-07
1.25227064583e-07
4.55531198057e-06
5.31157957458e-06
1.00169045752e-06
7.73694033335e-06
3.67778250897e-05
3.29182170983e-05
8.75396163675e-05
3.06690731843e-05
2.15426676075e-05
7.72772173477e-06
4.94830617981e-06
1.43049940663e-05
1.28050602104e-05
4.87729186846e-05
2.21840639865e-05
4.60525964741e-05
5.51513982254e-05
2.16270578017e-05
0.00017228090954
3.1862111411e-05
6.12145822646e-06
4.92293505778e-07
9.37424150079e-06
1.34704672512e-05
4.07192928752e-06
8.14800589794e-06
3.61627663839e-06
4.14737411702e-06
2.4439402619e-06
7.96790992299e-06
6.72852389945e-07
1.48051365572e-06
2.95045839244e-07
7.20637889739e-06
2.5522968066e-06
9.26472710858e-06
1.7587838531e-06
1.86183053679e-08
1.34690760259e-05
5.45808716772e-06
2.67421723127e-06
7.0011887982e-05
6.30804070972e-06
4.76731035217e-07
2.33541324315e-05
1.77385584896e-05
4.77721491919e-05
1.32035686612e-05
9.31650149525e-07
4.90920802826e-06
1.19831113671e-06
3.99873841822e-06
2.43189365062e-05
0.000152983507128
2.69833126826e-05
2.23132417749e-05
1.36508936759e-05
1.02775689795e-05
2.88650205421e-05
9.41204481662e-07
1.69910565984e-06
4.29258614728e-07
2.73163865606e-06
6.7251596833e-05
3.32291308584e-05
6.30835842593e-06
1.72848220779e-05
3.39370225545e-05
5.24224601835e-05
1.04780485796e-05
1.87377765403e-05
5.37925807206e-05
5.43495238286e-05
0.000185600667808
2.47345418119e-06
1.4703443086e-05
1.00618392798e-05
4.52093463272e-08
2.85008703426e-06
2.50241749028e-05
8.1761740761e-05
0.000226215983605
4.63202356764e-05
2.26535844892e-05
2.7102036062e-05
6.4982984564e-06
7.79222777789e-06
2.4651780416e-05
3.49760485281e-05
0.000148685909701
3.72465054781e-06
3.59396080007e-06
1.28046002024e-06
3.80526657239e-06
1.14038841774e-05
6.3074498356e-06
9.78196646369e-06
1.51719174368e-05
4.24534884448e-06
6.9567159437e-06
6.76023646702e-06
9.78428765563e-06
3.51635142322e-06
2.05562614372e-08
2.85374882664e-07
6.67503015485e-06
1.43983761344e-05
5.48298972553e-06
0.00039763810844
0.000363126047898
0.000315431985965
0.000332571466246
2.53090564737e-05
6.5270816884e-05
6.02924182268e-05
5.48343199418e-05
4.1670955701e-05
0.000109445405884
7.38357079939e-05
0.000984105621198
0.000111469985236
0.000148028305707

