# vtk DataFile Version 3.0
File Name: Molecule/arg/arg_8.0-5.vtk
ASCII
DATASET UNSTRUCTURED_GRID
FIELD FieldData 1
TIME 1 1 double
0.0
POINTS 1735 double
-3.403 0.327 1.604
-3.458 0.149 1.214
-3.138 0.005 1.702
-3.19 -0.164 1.33
-2.981 -0.361 1.858
-3.036 -0.538 1.468
-3.398 0.034 0.803
-3.133 -0.274 0.938
-2.976 -0.654 1.057
-3.231 -0.009 0.408
-2.974 -0.315 0.561
-2.809 -0.697 0.662
-2.971 0.024 0.066
-2.725 -0.284 0.235
-2.549 -0.664 0.32
-2.984 0.046 0.042
-2.617 -0.045 -0.207
-2.63 -0.024 -0.229
-2.351 -0.22 -0.527
-2.365 -0.198 -0.55
-2.2 -0.483 -0.862
-2.216 -0.458 -0.889
-3.183 0.343 -0.145
-2.753 0.07 -0.229
-2.923 0.323 -0.389
-2.57 0.022 -0.532
-2.724 0.253 -0.678
-2.446 -0.093 -0.847
-2.6 0.138 -0.992
-2.39 -0.269 -1.153
-2.559 -0.016 -1.312
-3.263 0.702 -0.308
-2.991 0.63 -0.528
-2.786 0.532 -0.805
-2.663 0.417 -1.12
-2.628 0.291 -1.452
-3.216 1.083 -0.43
-2.951 0.955 -0.632
-2.75 0.829 -0.899
-2.626 0.714 -1.214
-2.587 0.616 -1.556
-3.047 1.443 -0.495
-2.807 1.262 -0.688
-2.618 1.109 -0.95
-2.495 0.993 -1.265
-2.443 0.924 -1.611
-2.776 1.74 -0.497
-2.575 1.516 -0.689
-2.407 1.34 -0.951
-2.283 1.225 -1.266
-2.211 1.177 -1.613
-2.622 1.932 -0.429
-2.434 1.563 -0.734
-2.291 1.743 -0.67
-2.16 1.459 -1.077
-2.01 1.647 -1.011
-1.982 1.439 -1.492
-1.81 1.654 -1.416
-2.666 2.281 -0.134
-2.227 2.054 -0.482
-2.267 2.371 -0.214
-1.881 2.228 -0.637
-1.921 2.545 -0.369
-1.615 2.438 -0.879
-1.659 2.787 -0.585
-2.622 2.533 0.247
-2.227 2.6 0.132
-1.881 2.773 -0.023
-1.614 3.039 -0.203
-2.495 2.657 0.67
-2.111 2.713 0.516
-1.765 2.886 0.361
-1.488 3.163 0.22
-2.797 2.625 0.927
-2.251 2.77 1.005
-2.52 2.741 1.234
-2.033 3.002 1.293
-2.299 2.974 1.519
-1.863 3.333 1.507
-2.155 3.302 1.755
-3.035 2.497 1.22
-2.731 2.627 1.494
-2.507 2.861 1.775
-2.385 3.178 2.038
-3.186 2.284 1.521
-2.865 2.437 1.761
-2.64 2.674 2.039
-2.53 2.972 2.328
-3.419 1.801 1.788
-2.888 2.359 1.917
-3.122 1.876 2.185
-2.717 2.558 2.345
-2.979 2.017 2.644
-3.552 1.393 1.822
-3.202 1.735 2.161
-3.319 1.374 2.191
-3.094 1.732 2.585
-3.21 1.376 2.614
-3.107 1.793 3.017
-3.235 1.399 3.05
-3.548 0.964 1.825
-3.316 0.994 2.194
-3.206 1.001 2.617
-3.231 0.984 3.053
-3.408 0.559 1.798
-3.191 0.635 2.17
-3.084 0.647 2.593
-3.095 0.593 3.027
-3.105 0.348 2.085
-3.1 0.088 1.867
-2.97 0.105 2.152
-3.02 0.504 2.546
-2.901 0.29 2.606
-2.978 0.383 3.085
-2.865 -0.346 2.113
-2.52 -0.7 2.425
-2.789 -0.06 2.411
-2.48 -0.378 2.69
-2.828 0.19 2.745
-2.523 -0.123 3.02
-2.645 0.041 3.387
-2.483 -1.039 2.238
-2.249 -0.827 2.688
-2.359 -1.33 2.011
-2.214 -1.15 2.51
-2.096 -1.427 2.294
-2.036 -1.312 2.826
-2.159 -1.55 1.761
-1.905 -1.637 2.055
-1.914 -1.599 2.602
-1.716 -1.817 2.356
-1.826 -1.833 2.912
-1.606 -2.075 2.638
-1.897 -1.684 1.507
-1.655 -1.765 1.813
-1.457 -1.949 2.105
-1.318 -2.222 2.359
-1.592 -1.721 1.268
-1.365 -1.8 1.585
-1.156 -1.986 1.869
-0.984 -2.263 2.097
-1.926 -1.641 1.017
-1.351 -1.766 0.91
-1.664 -1.691 0.675
-1.133 -1.941 0.578
-1.457 -1.864 0.334
-0.96 -2.23 0.303
-1.327 -2.142 0.027
-2.203 -1.444 0.759
-1.923 -1.507 0.433
-1.726 -1.673 0.084
-1.631 -1.926 -0.256
-2.396 -1.15 0.52
-2.103 -1.231 0.209
-1.913 -1.387 -0.149
-1.843 -1.603 -0.519
-2.487 -0.785 0.321
-2.189 -0.889 0.022
-2.002 -1.032 -0.342
-1.943 -1.202 -0.738
-2.264 -0.668 -0.026
-2.322 -0.554 -0.027
-2.141 -0.611 -0.433
-2.203 -0.492 -0.433
-2.131 -0.618 -0.861
-2.114 -0.682 -1.181
-1.927 -1.264 -1.052
-2.312 -0.441 -1.376
-2.121 -0.506 -1.916
-2.042 -0.816 -1.214
-1.838 -0.886 -1.79
-1.682 -1.348 -1.746
-1.975 -0.256 -2.322
-1.864 -0.768 -1.888
-1.672 -0.441 -2.421
-1.897 0.192 -2.527
-1.57 0.147 -2.691
-1.996 0.646 -2.441
-1.495 0.306 -2.776
-1.602 0.798 -2.682
-1.198 0.386 -3.152
-1.328 0.981 -3.039
-2.011 1.039 -2.18
-1.619 1.224 -2.399
-1.348 1.496 -2.696
-1.72 1.257 -2.235
-1.631 1.561 -2.005
-1.259 1.801 -2.466
-1.479 1.817 -1.75
-1.107 2.057 -2.211
-1.346 2.153 -1.415
-1.642 2.007 -1.116
-1.319 2.584 -1.178
-1.091 2.821 -1.245
-1.159 2.356 -1.471
-0.94 2.583 -1.535
-1.087 2.175 -1.825
-0.858 2.412 -1.893
-0.852 2.322 -2.287
-0.816 3.013 -1.267
-0.676 2.767 -1.557
-0.583 2.604 -1.915
-0.543 2.537 -2.312
-0.229 3.384 -1.004
-0.488 2.934 -1.522
-0.105 3.176 -1.351
-0.228 2.93 -1.855
0.02 3.086 -1.745
-0.059 3.001 -2.236
0.134 3.123 -2.15
0.003 3.141 -2.63
0.229 3.284 -2.529
0.466 3.148 -0.891
0.348 3.022 -1.277
0.313 2.987 -1.697
0.364 3.045 -2.112
0.833 2.913 -0.61
0.553 2.897 -1.196
0.905 2.671 -0.926
0.699 2.74 -1.539
1.057 2.557 -0.305
1.12 2.33 -0.634
1.067 2.504 -1.257
1.29 2.148 -0.952
1.303 2.425 -1.576
1.553 2.026 -1.234
1.025 2.711 0.026
1.24 2.204 -0.113
1.21 2.35 0.201
1.539 1.918 0.039
1.507 2.071 0.37
0.916 2.809 0.362
1.106 2.444 0.521
1.398 2.17 0.706
0.737 2.845 0.68
0.936 2.478 0.823
1.22 2.206 1.024
0.406 3.093 0.833
0.701 2.629 1.02
0.405 2.851 1.157
0.756 2.48 1.392
0.466 2.698 1.526
0.897 2.411 1.765
0.584 2.646 1.91
1.112 2.426 2.108
0.748 2.699 2.276
0.102 3.399 0.689
0.198 3.058 1.115
-0.072 3.33 0.987
0.05 3.076 1.433
-0.206 3.335 1.311
-0.029 3.146 1.769
-0.293 3.414 1.643
-0.034 3.266 2.099
-0.327 3.561 1.96
-0.29 3.571 0.538
-0.421 3.483 0.852
-0.539 3.48 1.183
-0.636 3.563 1.511
-0.705 3.727 1.814
-0.721 3.587 0.398
-0.805 3.497 0.727
-0.904 3.494 1.065
-1.012 3.577 1.389
-1.123 3.742 1.679
-1.138 3.445 0.287
-1.176 3.371 0.629
-1.257 3.373 0.971
-1.376 3.453 1.292
-1.525 3.605 1.572
-1.488 3.12 0.569
-1.554 3.135 0.914
-1.681 3.207 1.233
-0.038 3.383 2.443
0.304 2.919 2.221
0.3 3.037 2.566
0.743 2.833 2.666
-0.112 3.436 2.794
0.225 3.091 2.918
0.658 2.893 3.065
-0.253 3.42 3.128
0.084 3.075 3.254
0.499 2.875 3.445
-0.449 3.338 3.421
-0.113 2.992 3.549
0.276 2.781 3.779
-0.687 3.194 3.654
-0.352 2.847 3.783
0.006 2.617 4.044
-1.016 3.185 3.753
-0.58 2.815 3.881
-0.962 2.805 3.996
-1.359 3.167 3.763
-1.359 2.784 4.008
-1.693 3.142 3.685
-1.746 2.755 3.917
-1.995 3.111 3.523
-2.096 2.719 3.73
-2.244 3.076 3.289
-2.384 2.678 3.458
-2.423 3.039 2.998
-2.593 2.636 3.121
-2.521 3.004 2.671
-2.706 2.595 2.741
-0.749 2.537 4.164
-0.16 2.345 4.321
-0.912 2.194 4.368
-0.321 2.009 4.521
-1.061 1.806 4.483
-0.466 1.628 4.634
-1.28 2.135 4.399
-1.452 1.611 4.604
-1.641 1.894 4.531
-1.543 2.398 4.242
-1.868 2.121 4.396
-1.833 2.577 4.025
-2.118 2.276 4.208
-2.128 2.66 3.763
-2.373 2.347 3.982
-2.409 2.64 3.473
-2.615 2.33 3.732
-2.655 2.52 3.176
-2.827 2.227 3.476
-2.849 2.307 2.894
-2.995 2.043 3.232
-1.464 1.095 4.666
-0.956 1.592 4.533
-0.968 1.074 4.596
-0.48 1.041 4.705
-1.655 0.731 4.634
-1.079 0.886 4.596
-1.26 0.541 4.565
-0.689 0.687 4.666
-0.881 0.322 4.633
-0.333 0.517 4.869
-0.555 0.096 4.831
-1.956 0.515 4.553
-1.383 0.368 4.531
-1.661 0.166 4.457
-1.114 -0.009 4.584
-1.407 -0.22 4.505
-0.878 -0.357 4.785
-1.219 -0.603 4.693
-2.226 0.322 4.369
-1.912 -0.012 4.286
-1.67 -0.408 4.326
-1.526 -0.822 4.484
-2.442 0.172 4.097
-2.112 -0.152 4.033
-1.88 -0.555 4.06
-1.772 -0.993 4.174
-2.586 0.075 3.76
-2.246 -0.241 3.721
-2.021 -0.649 3.731
-1.935 -1.103 3.791
-2.301 -0.273 3.375
-2.078 -0.682 3.368
-2.003 -1.142 3.367
-0.642 -0.546 4.955
-0.314 -0.097 5.005
-0.383 -0.749 5.065
-0.05 -0.304 5.117
-0.111 -0.96 5.11
0.227 -0.52 5.163
0.164 -1.171 5.088
0.507 -0.734 5.141
0.328 -1.528 5.007
0.615 -0.976 5.092
0.771 -1.314 5.015
1.043 -0.806 5.264
1.207 -1.163 5.184
0.496 -1.85 4.839
0.93 -1.621 4.855
1.375 -1.486 5.015
0.658 -2.122 4.593
1.084 -1.878 4.621
1.537 -1.757 4.769
0.805 -2.327 4.281
1.224 -2.073 4.326
1.684 -1.962 4.458
1.026 -2.497 3.536
1.086 -2.453 3.142
1.433 -2.234 3.618
1.491 -2.193 3.244
1.109 -2.324 2.763
1.512 -2.07 2.884
1.965 -2.088 3.318
1.988 -1.959 2.939
1.092 -2.118 2.42
1.496 -1.875 2.558
1.971 -1.753 2.596
1.037 -1.846 2.131
1.444 -1.616 2.284
1.916 -1.481 2.307
0.796 -2.146 2.122
0.866 -1.735 1.801
0.66 -1.991 1.794
0.779 -1.673 1.428
0.591 -1.907 1.421
0.784 -1.666 1.039
0.596 -1.899 1.033
0.88 -1.714 0.666
0.674 -1.97 0.659
1.061 -1.813 0.337
0.819 -2.113 0.328
0.482 -2.37 2.114
0.391 -2.182 1.787
0.347 -2.08 1.414
0.352 -2.073 1.026
0.406 -2.161 0.652
0.505 -2.337 0.32
0.119 -2.499 2.107
0.081 -2.292 1.78
0.065 -2.18 1.409
0.07 -2.173 1.021
0.096 -2.271 0.646
0.142 -2.466 0.313
-0.266 -2.524 2.101
-0.247 -2.313 1.776
-0.234 -2.2 1.405
-0.229 -2.193 1.016
-0.232 -2.292 0.641
-0.243 -2.491 0.308
-0.643 -2.443 2.098
-0.569 -2.244 1.773
-0.527 -2.137 1.402
-0.522 -2.13 1.014
-0.554 -2.224 0.638
-0.62 -2.41 0.304
-0.86 -2.09 1.772
-0.792 -1.997 1.401
-0.787 -1.99 1.013
-0.845 -2.07 0.637
1.343 -1.496 0.161
1.028 -1.535 0.641
1.242 -1.295 0.508
1.078 -1.33 0.996
1.248 -1.139 0.89
1.205 -1.217 1.373
1.361 -1.043 1.276
1.4 -1.205 1.737
1.57 -1.014 1.631
1.644 -1.296 2.058
1.857 -1.056 1.925
2.198 -1.164 2.131
1.48 -1.078 0.031
1.346 -0.978 0.409
1.331 -0.887 0.812
1.436 -0.812 1.205
1.652 -0.762 1.553
1.961 -0.739 1.826
2.335 -0.746 2.002
1.639 -0.712 -0.547
1.451 -0.719 0.207
1.594 -0.39 -0.313
1.526 -0.39 0.423
1.664 -0.072 -0.079
1.697 -0.118 0.66
1.842 0.216 0.134
1.696 -1.065 -0.74
1.721 -0.524 -0.905
1.773 -0.846 -1.081
1.914 -0.328 -1.213
1.966 -0.645 -1.386
2.201 -0.141 -1.444
2.256 -0.481 -1.629
1.664 -1.393 -0.979
1.744 -1.145 -1.299
1.937 -0.939 -1.601
2.226 -0.795 -1.858
1.546 -1.673 -1.249
1.636 -1.4 -1.545
1.831 -1.191 -1.843
2.112 -1.064 -2.117
1.348 -1.888 -1.533
1.457 -1.596 -1.804
1.654 -1.384 -2.098
1.923 -1.27 -2.389
1.085 -2.024 -1.812
1.217 -1.72 -2.058
1.418 -1.506 -2.348
1.67 -1.4 -2.657
0.772 -2.072 -2.068
0.932 -1.764 -2.291
1.137 -1.549 -2.578
1.371 -1.446 -2.902
0.431 -2.029 -2.284
0.62 -1.725 -2.489
0.83 -1.51 -2.772
1.043 -1.405 -3.11
0.082 -1.898 -2.448
0.302 -1.605 -2.638
0.517 -1.392 -2.919
0.708 -1.279 -3.267
-0.251 -1.687 -2.547
-0.001 -1.412 -2.728
0.218 -1.203 -3.008
0.389 -1.077 -3.362
-0.548 -1.409 -2.576
-0.272 -1.16 -2.755
-0.048 -0.954 -3.034
0.104 -0.811 -3.39
-0.822 -1.287 -2.506
-0.448 -1.093 -2.709
-0.71 -0.976 -2.643
-0.376 -0.814 -2.921
-0.64 -0.696 -2.853
-0.336 -0.591 -3.197
-0.616 -0.466 -3.125
-1.158 -1.334 -2.315
-0.988 -0.705 -2.664
-1.33 -0.753 -2.469
-1.449 -1.354 -2.058
[...]
CELL_DATA 3466
SCALARS cell_data_0 double
LOOKUP_TABLE default
3.27539310816e-09
3.09167732904e-09
1.78944941573e-08
9.73573852154e-09
4.32655782094e-09
7.48564545208e-09
7.5137279937e-09
4.38397143112e-09
8.00967717427e-09
1.0720725793e-08
6.70483898239e-09
3.82485098529e-09
1.69586574702e-08
1.82151104192e-08
3.22657164113e-09
1.42301731441e-08
5.16954956674e-09
1.50194312633e-09
2.97070506459e-09
1.02183092631e-08
4.50377031543e-09
3.04922921765e-09
1.18609821596e-08
1.44506057144e-08
1.69653273229e-08
1.74643009089e-08
1.46690092863e-08
1.89100136988e-08
4.32170111388e-08
2.0112823944e-08
2.7552684134e-09
6.38529145644e-10
6.6723935768e-09
6.69032424435e-10
1.70311924313e-09
3.5129880847e-09
1.01869038546e-08
7.18566260565e-09
1.85404038069e-09
8.98940613702e-10
1.5223557731e-09
2.58470408561e-10
3.85128726128e-09
5.21007795859e-09
1.59765817391e-08
5.67986560064e-09
3.08439626949e-09
4.31071523734e-09
3.24196211102e-09
9.60263642612e-10
8.3948814e-09
9.03120060305e-09
7.65093942656e-09
7.32176556149e-09
6.51954734992e-09
8.85091955675e-09
7.60938793779e-09
8.79739948749e-09
2.33725629966e-08
1.67335279302e-08
2.47388222668e-09
1.12052157297e-08
9.22461088753e-09
1.18146482626e-08
7.48232565564e-09
1.19821925291e-08
8.43859650874e-09
5.20780741798e-09
1.82943630262e-08
2.11542101804e-08
2.36430305873e-08
3.06134412133e-08
2.26080767829e-08
2.36761997157e-08
5.44576388716e-09
7.34718448526e-10
7.2606906606e-09
7.53918391994e-09
1.08412409454e-08
5.28214065913e-09
5.62053914586e-09
1.4370056912e-08
5.87015459008e-09
7.96868773853e-09
8.8772206209e-10
1.35967185124e-09
6.09582631929e-09
5.08981217719e-09
4.07103387533e-09
6.01131075862e-09
3.03281742464e-09
4.76933076745e-09
7.61635190325e-10
3.36954603949e-09
1.39052663516e-09
1.39131911699e-10
5.87736065004e-09
1.52469108569e-09
2.32336346291e-09
7.90137891454e-09
3.6193659789e-12
7.23844088127e-09
4.54009974337e-09
5.82145911636e-10
3.57768010319e-09
7.73435500274e-09
1.1858121195e-08
2.56490262667e-11
8.48125292321e-10
3.52694879542e-09
4.91994099305e-09
2.77783873708e-09
8.90811014346e-09
8.8371389309e-10
3.79844284633e-09
6.35651947537e-09
3.07311998196e-09
3.18374668268e-09
6.80281163343e-09
4.60890284924e-10
8.33083654892e-09
1.23757599401e-08
8.4469240298e-09
3.79306438042e-09
3.31982496119e-09
1.86151556131e-09
4.3633994965e-09
1.64220330039e-09
6.70702984643e-09
5.13415776648e-09
1.59141365589e-08
1.4880611313e-08
2.14039319027e-09
7.28495570696e-09
1.39622312431e-08
3.17141372567e-08
1.4128299589e-09
1.19266125652e-08
2.15379031691e-08
1.14831952745e-08
2.35158048611e-08
1.05687136061e-08
6.83548471811e-09
9.61185827353e-08
1.41925599453e-08
8.18891014036e-09
4.91895849737e-08
1.80647323223e-08
8.70101505927e-08
1.6832076796e-08
1.57376817039e-08
2.65033445109e-09
2.73607646253e-09
1.15292195411e-08
1.72877440904e-08
1.67052681461e-08
2.88558443023e-08
2.12465777011e-08
7.49716431249e-09
3.69904002635e-08
4.27803862825e-09
7.76310117009e-09
1.91317581548e-09
2.74184170937e-08
3.29146885336e-08
3.27268441767e-08
4.14628804816e-08
9.03435554813e-09
3.61395748055e-09
6.70861259854e-09
2.41199012159e-09
5.92584317657e-10
1.8554093611e-08
3.17809083587e-09
9.04507212739e-09
9.49640597617e-09
3.35468549983e-09
7.64807557027e-09
1.79285903034e-08
6.09846455379e-09
2.29366178835e-08
2.0429572893e-08
1.66568633145e-08
2.34965214495e-08
1.58995378977e-09
1.68502923333e-08
1.70985834349e-08
7.54530137454e-09
4.74143611323e-09
2.00877494984e-08
2.59346983309e-08
2.79267808002e-09
3.34770936596e-08
4.60922422103e-08
2.06655663122e-08
1.29958655268e-08
3.85470615702e-08
6.66501192593e-08
2.56596039904e-08
5.77162880569e-08
1.59112555968e-08
2.49981424698e-08
6.1222718857e-08
8.9572068915e-08
1.96028114111e-08
4.13518208737e-08
1.25027563762e-07
3.94669809852e-08
7.00953301194e-08
1.18349936367e-07
1.69257064335e-08
7.86541707836e-08
4.17994794014e-08
2.94789014299e-08
4.39870127768e-08
2.51756979807e-08
5.53145061593e-08
2.34247380809e-08
3.6080480829e-08
3.82026954731e-08
9.76950150886e-09
2.19237907074e-09
2.90400295275e-10
3.80950530129e-09
4.21712007793e-08
8.61694589238e-09
9.08998004004e-08
6.66193269858e-09
1.79568868333e-08
1.82582520015e-08
1.45446554458e-08
6.96778557371e-08
2.45610474928e-08
2.47532585481e-08
8.56173997452e-08
7.04095304446e-08
6.76816295959e-08
7.63880851097e-08
2.67260311487e-08
5.08678933166e-08
4.76262707224e-09
3.68064823451e-08
6.21752421887e-09
6.22857723275e-08
1.85789609132e-08
3.26941298888e-08
1.17397270076e-08
1.88735247859e-08
8.83271327031e-08
1.97918296055e-08
1.08123273781e-08
7.30121991309e-08
1.72397518778e-08
2.69605950133e-08
5.850153266e-09
4.75648270475e-08
5.56522044949e-08
3.91449518265e-08
6.26298818268e-09
8.21169314064e-09
1.15974158712e-08
1.25007879639e-08
3.29361438923e-11
4.3555219729e-09
1.15893844528e-08
6.3403655879e-09
6.6180022296e-09
1.29036130532e-08
5.24118938076e-09
6.93489234775e-09
4.14496658769e-09
2.93916721877e-09
1.53617136117e-09
4.24302619604e-10
7.38840347347e-09
2.27477136812e-08
2.46641578789e-08
3.45802791616e-08
3.34395451416e-09
1.01719168134e-08
6.08569337494e-09
9.09069754319e-09
2.98054906857e-09
8.43744490782e-09
1.05308497869e-08
8.5471399544e-09
1.26001525934e-11
1.28430944629e-10
5.48934909825e-09
1.04438482369e-09
1.66832496315e-09
8.72689182663e-10
3.82210315995e-09
8.02445960384e-10
1.15291172498e-09
4.32921029525e-10
4.36712118329e-11
1.93651683412e-10
1.80150275212e-09
1.61351045337e-09
2.8647443011e-09
1.10458817582e-09
2.34869394764e-09
4.49897879784e-09
8.0559283703e-10
2.25431890362e-09
3.66481259606e-09
2.43271919506e-09
2.80285229074e-09
1.00285525217e-09
3.25919210425e-09
8.49848762825e-09
4.24668271445e-09
1.27577910417e-09
6.15217817239e-09
2.67957249889e-09
8.27930058743e-10
2.35068353409e-09
5.38488315205e-10
1.49550685783e-08
6.9771469869e-10
4.5283506892e-08
7.54683854512e-10
1.19784409915e-08
9.30939774172e-09
3.46927495289e-08
4.00684151787e-10
1.04911360617e-08
1.1098637147e-08
4.70799142657e-08
7.28522447165e-10
5.98088091707e-09
3.79098572484e-09
4.24342349246e-08
1.30924198298e-09
3.89350897619e-09
5.77347611323e-09
3.23172791443e-08
3.41070300037e-09
4.23297468309e-09
8.15719402955e-10
1.19694349545e-09
3.78442528204e-10
5.81227114655e-10
6.0104168627e-10
2.29881643464e-09
2.16893480415e-09
2.6923451504e-09
2.66469078833e-09
1.70023959025e-09
2.79606262598e-09
2.63696717562e-09
2.20640720303e-09
4.8125908856e-09
1.16977829205e-08
2.34211321831e-08
1.46346732337e-09
2.00355494519e-08
7.45306226317e-09
1.78015169547e-08
7.12616887585e-09
9.79209171182e-10
1.14100144347e-09
2.29520770133e-09
6.60217191399e-10
1.54055940693e-10
5.59705883576e-10
1.20044191053e-09
1.77947711471e-09
1.03614957116e-09
2.78749140796e-09
9.62521928658e-10
2.69234677613e-09
3.76847663063e-10
5.82401571237e-10
1.20328662045e-10
8.70008968427e-09
1.50294180895e-08
4.34564405601e-09
2.17434943769e-08
2.29130994922e-09
1.0515342259e-08
3.32385910347e-09
3.89168244168e-10
4.32959727142e-09
7.64573543108e-09
1.20160359272e-09
5.52075440855e-09
8.12207404082e-09
8.10315162142e-09
1.20786299156e-08
6.28804858979e-09
5.46708121993e-09
1.12130431756e-08
5.59696478749e-09
1.26831306136e-08
3.88251193478e-08
1.92945262789e-08
1.12741484847e-08
1.57618468259e-08
2.30994521455e-09
2.62686149621e-08
7.28962501728e-08
5.47034612041e-08
1.8545501773e-08
2.52522825434e-08
2.5043584707e-08
7.64765233009e-08
1.13510012116e-07
9.262763677e-08
3.24571294923e-08
3.34832415863e-08
1.89643457176e-07
6.84850890304e-09
1.79492515203e-08
6.66457215327e-09
2.18484746285e-08
1.37379819714e-08
1.85862604098e-08
2.00013661909e-08
8.62145640431e-09
1.54686490145e-08
8.12076964126e-09
1.46056164195e-08
1.704780859e-08
1.64412407719e-08
1.8115723802e-08
1.98719118196e-08
2.83334679133e-08
1.10447821551e-08
8.38153947691e-08
1.03078192764e-09
4.54789043831e-08
1.09110702261e-07
1.21892835993e-07
9.9289443543e-08
8.05350916647e-08
2.15780464889e-08
8.15989375432e-08
4.78158457656e-08
3.78847656336e-08
2.04500047066e-09
6.67469646466e-08
2.03446945581e-08
1.01290484963e-08
2.27368153462e-08
3.51487210254e-08
1.11839774222e-08
6.13266912053e-09
8.5947612295e-09
1.05718949296e-10
2.20854423211e-08
1.72591607779e-08
7.79044583893e-09
4.13905415199e-09
1.18665826976e-08
1.47535408089e-08
2.85210704528e-08
1.0906249632e-08
6.3361522672e-08
6.26549938146e-09
8.80218572671e-09
1.82505023006e-08
1.74147541867e-10
6.16908966175e-09
2.03058124878e-10
9.07359048476e-09
2.55604569428e-09
2.11295043797e-08
4.26399167477e-08
1.20682580903e-09
1.43486981245e-08
1.39605058849e-08
2.84569053339e-09
3.96006830294e-09
6.52523670332e-09
8.62598353793e-09
8.0342139426e-10
1.81750065148e-08
3.47072331806e-08
6.70244598666e-09
6.90314654859e-09
9.82949049025e-09
3.31665797885e-09
4.55979693944e-09
6.44585518688e-09
1.04971268308e-08
2.04860952312e-09
1.86534536981e-08
3.05687582325e-08
1.23196001202e-09
6.55272728615e-09
4.38228794971e-09
5.34486655968e-09
6.019961581e-09
1.08476295695e-08
9.72185277417e-09
8.92087520961e-09
1.81489090756e-08
2.10684801243e-08
3.94728844626e-09
1.13435623005e-08
3.21852178107e-09
1.78378925949e-08
7.71034237466e-09
1.9930456827e-08
1.51512656505e-08
1.80379564285e-08
2.26082570809e-08
1.8922449919e-08
7.67930278716e-09
5.67082453613e-08
1.44123251126e-08
6.43528845872e-08
4.4215295502e-08
2.1056254709e-09
1.75162805777e-08
2.21788888308e-09
2.61526223425e-09
3.83536880576e-09
8.85732220647e-09
1.46499711151e-08
1.18875302572e-08
3.33319535226e-09
8.22209558788e-08
3.9622072577e-08
1.49184297387e-08
1.13752751224e-08
7.48226683436e-10
3.87560402809e-09
2.56084332425e-09
1.32440768628e-08
2.28358721679e-08
3.9371435337e-10
8.56205535205e-10
1.1124683033e-07
2.75667194376e-08
3.93303538936e-08
1.3199573631e-08
1.6835916747e-09
1.29133322755e-08
8.11263829255e-09
3.55752649688e-09
1.1561485429e-08
2.6233235397e-08
3.54260314801e-08
2.35908163251e-08
1.09023710517e-09
1.07823726426e-08
4.94269068241e-09
3.13002400737e-08
1.37678316777e-08
2.27552037482e-08
1.97494514925e-09
1.34063520876e-08
1.03062311759e-08
3.10180541807e-08
4.95329891701e-09
1.95738912352e-08
9.06667729557e-10
1.09038397032e-08
1.5191849937e-08
2.91771150742e-08
9.62259718693e-10
1.37318862783e-08
4.0512933817e-09
9.91028831252e-09
2.05346402296e-08
2.47490061051e-08
6.28679521785e-09
1.34764031436e-08
5.39459452825e-09
9.02153535705e-09
2.62212931523e-08
1.89409609362e-08
1.31375797843e-08
9.70597350691e-09
6.5200719856e-09
7.93007899306e-09
3.33997254023e-08
1.53528978825e-08
1.81412920808e-08
4.10606398615e-09
6.34873378339e-09
7.04362835005e-09
4.19207664087e-08
7.97923417693e-09
2.66436086054e-08
3.07142512518e-09
5.43305323555e-09
6.45629119763e-09
4.96680534356e-08
5.09362461334e-10
3.60856401889e-08
6.60911747195e-09
4.5736638389e-09
1.09301583067e-08
6.04196390584e-08
1.51118107558e-08
5.95505818616e-08
3.95127885989e-08
5.90976954454e-09
1.00580592809e-08
7.39316293973e-09
8.56701919865e-09
2.8991148747e-08
1.10501807508e-08
6.65664108677e-09
7.66607922216e-09
1.4370495141e-08
3.93529689336e-08
2.05906356472e-08
3.5777262964e-09
1.52525824334e-08
5.42922840795e-09
4.40090711755e-09
1.20431465316e-09
5.73235377774e-09
5.78381495461e-08
7.88526924581e-08
5.55079879962e-08
1.05911970238e-07
4.77732550121e-08
2.26929737078e-08
3.41273950722e-08
6.31476793638e-08
4.80638540658e-08
5.27197332072e-08
7.99949765622e-09
8.81068375553e-08
5.70360802143e-08
6.38456808564e-08
3.4776864953e-08
1.16999363399e-07
3.46721842347e-08
6.26041048316e-09
1.76831210772e-08
2.71990289948e-08
5.40571414224e-09
1.61640065365e-08
1.36119419268e-08
1.21906079858e-08
3.11565347272e-08
1.56822010696e-08
7.15307877698e-09
1.2923483118e-08
8.4408262672e-09
8.72503624475e-09
4.93449556279e-08
1.45053208649e-08
1.60545162169e-08
1.04199877752e-08
4.11569373148e-09
5.54155461957e-09
1.19883387802e-08
9.87135753888e-09
1.4084085118e-09
2.87830293236e-08
3.09754103396e-08
1.509176533e-08
3.29898730827e-08
2.32222028203e-08
2.64745077263e-08
8.01402254965e-09
1.37153240893e-08
3.6985152696e-08
4.63380186517e-08
3.61060535076e-08
3.93887689599e-08
1.34864354507e-07
1.23399153559e-07
8.82077612498e-08
7.35986902137e-08
3.89924989102e-08
5.64131940861e-08
1.18790485887e-08
2.20452983709e-09
2.36077150239e-09
5.05266894395e-09
3.2075113483e-09
4.40938808872e-09
9.6897410903e-09
1.21182193975e-09
6.93980928277e-09
6.20028252502e-09
5.34930980938e-10
1.76688118122e-09
1.15490374286e-08
9.3849287693e-09
4.10882322619e-09
8.58159438155e-09
3.38068324071e-09
5.3982810943e-09
2.39856938439e-10
5.49038286581e-10
1.08783409201e-08
4.33409161101e-09
9.13740468461e-09
1.69742095378e-08
2.77415830732e-09
3.63913872793e-09
1.68224835815e-09
1.18260189122e-09
6.45622581329e-09
2.45793976011e-09
5.35447183392e-10
1.56693161632e-08
6.98693974406e-09
7.59231435016e-09
2.72122695056e-09
1.0804715258e-09
1.8880215337e-09
2.07881557359e-09
2.49739759098e-08
1.28554209445e-08
7.54167888812e-10
6.5191344729e-09
2.77230480421e-09
1.64009928276e-08
1.79473931521e-08
5.58025118924e-09
2.20140074531e-11
1.81027220317e-09
5.72016462812e-09
1.49532091768e-08
3.34820315812e-09
8.99534741098e-09
9.18659637766e-09
3.85062209164e-09
8.94741550475e-09
1.45609676905e-08
4.70958856682e-09
2.02223921297e-09
1.79484787885e-08
9.49995518351e-09
5.26571483971e-09
3.086568986e-08
4.5045319011e-08
8.24214927257e-08
4.49016478545e-08
3.99119085049e-09
2.35681966833e-08
3.1152865129e-08
1.65220879755e-08
6.68137499691e-08
5.2334671946e-09
7.78606838176e-09
9.63907305868e-09
2.57881182675e-08
4.78798511911e-09
1.05477611184e-08
3.60687875473e-10
7.14721287621e-10
4.42887309795e-09
1.51812515481e-08
1.61367425187e-09
1.66724288347e-08
9.69711275275e-09
1.76834401319e-08
6.95301949065e-09
2.00895931074e-09
1.54668720413e-08
2.02131613335e-09
2.26263744697e-08
6.03398632371e-09
2.8426017939e-08
1.47939098617e-08
2.21883728836e-10
5.97113188841e-10
6.64311315675e-09
9.6078903832e-09
4.80061332248e-09
2.93376194194e-08
2.00412637688e-08
2.63972297218e-08
1.98480504096e-08
3.06157896899e-09
1.00569052177e-08
3.86471016282e-09
1.2135554697e-08
8.74948220339e-09
2.52642987601e-09
8.01196305546e-09
3.76673610413e-08
1.54221833164e-08
1.11543711029e-08
5.71299364336e-09
1.1504407648e-09
2.24785537987e-09
1.06413324471e-08
2.19727428197e-08
3.10237069823e-09
1.07990804495e-08
7.23888227669e-09
1.56603205767e-08
1.01441580901e-09
2.11066800277e-08
2.31271118096e-08
1.78459519235e-08
3.53300781182e-10
1.86794274408e-09
4.52361686907e-10
7.88936084323e-09
4.51055036548e-10
3.44609807209e-09
3.14281141321e-09
9.35473758324e-09
2.04572081824e-10
1.34855055531e-08
2.79965690466e-09
8.84283504182e-10
4.88922325051e-09
1.34617066807e-09
1.46890654556e-09
4.6777753617e-09
1.62185176535e-10
9.95618332424e-10
1.15994178045e-09
7.11627539182e-09
5.75296691376e-11
2.18296317856e-09
6.82007420782e-09
7.85708296133e-10
8.81903210197e-09
1.00558635406e-09
2.20082324684e-09
7.19146738705e-09
5.49555331235e-08
7.88449338505e-08
1.34219779228e-08
1.17935263206e-08
2.06455192072e-08
8.27275940442e-09
1.91050844647e-08
3.33242292568e-08
8.32664543337e-10
3.60862062272e-08
4.51645559441e-09
1.38321752863e-08
3.1905102524e-09
4.12913930849e-08
2.81175590565e-08
1.64189536522e-08
3.07911231132e-09
5.02713330918e-09
2.63816134322e-08
3.04918081202e-08
2.45611270135e-08
3.7254687424e-08
4.99624434749e-08
1.6101916549e-08
3.76181073186e-08
6.15619895582e-08
2.65633184419e-08
9.91536212379e-09
1.08786508463e-08
1.20435543203e-08
2.16862522095e-08
6.39035273162e-08
1.15008843985e-08
4.16878425078e-08
5.96189482408e-08
1.39269171599e-09
2.70019638861e-08
6.69824933867e-09
2.61000073596e-08
1.38885306515e-08
5.98713271898e-08
3.1502150176e-09
7.57268547042e-08
8.27230361165e-08
5.04577771854e-08
2.90299664013e-08
4.20092085399e-08
1.34624341756e-08
4.02381441282e-08
5.52581798756e-08
8.76181066114e-09
9.99676707557e-08
1.57424864152e-08
4.15861291553e-08
6.63850794223e-09
5.02796822007e-08
2.36784924562e-08
4.1844608738e-09
2.00631724261e-08
1.63240030848e-08
4.49321680369e-09
1.34276206675e-08
1.68933659632e-09
6.61426062331e-09
3.38086398078e-09
6.81010942844e-09
1.01810981667e-09
5.22744845368e-09
4.82227662189e-09
4.26356942828e-09
3.16948301466e-09
3.37601509e-09
8.89642513156e-09
3.79959558295e-09
2.38205408791e-09
2.62884611277e-10
7.50911863545e-09
4.9762252232e-09
3.41397144353e-09
7.0182082525e-09
2.94567203846e-09
1.92692861044e-09
2.23596999403e-09
5.63313806849e-09
5.49482232539e-09
1.04309784323e-09
1.23830423615e-09
2.22222272938e-08
3.07137939143e-09
2.54142619381e-09
2.08461806893e-09
4.40965038364e-10
3.49166247536e-09
2.14659507925e-09
3.08494399268e-09
1.30693923673e-08
1.55300633835e-09
1.41053587482e-08
1.58677123199e-08
2.18362411617e-08
3.11707112741e-08
4.90335084311e-08
1.0014652616e-08
8.56800024357e-08
1.92444436926e-08
2.42126044218e-09
8.91636397107e-09
2.55203935652e-09
1.70397940372e-10
1.43617139721e-08
5.21461154575e-09
2.95317616227e-08
4.61323292206e-09
1.4288910897e-08
2.16671254527e-08
2.06798020281e-09
1.11453303016e-08
6.24885355171e-09
1.83017282838e-08
2.08946258274e-08
4.18493871008e-08
5.37508677354e-08
6.74265481093e-08
1.38300426034e-08
1.04680306223e-08
2.67849707125e-08
2.201092294e-09
1.91569144278e-08
2.09438720153e-08
3.96994017174e-08
8.95944066154e-09
2.58326445787e-09
2.85797864167e-08
1.55170320171e-08
4.10072730663e-08
1.43084354951e-08
7.77472724924e-08
2.68988452966e-08
1.0826807724e-08
2.8117740648e-08
4.24970411388e-08
1.50965917055e-08
7.63987736868e-08
5.2197789874e-08
1.08084926936e-09
7.5095825446e-09
4.03153661045e-09
7.20674922721e-09
4.58501353286e-08
4.97386386864e-09
7.27921287175e-08
7.55765957178e-08
8.58914234818e-08
9.67144796841e-09
2.11755433855e-08
8.0447669014e-09
1.75179083866e-08
2.02584490248e-09
2.88305599406e-08
8.81089984705e-09
2.72234044517e-09
1.48576315764e-08
5.50556773829e-09
6.96244606702e-09
1.73180068541e-09
1.58927769746e-08
2.80630738686e-09
1.16529490308e-08
1.27864209803e-08
7.54048201116e-10
7.02597317997e-10
4.38419611039e-10
2.65835509714e-10
2.2375573021e-10
5.30387028629e-10
9.92771306679e-10
5.49559854051e-10
4.29794010748e-10
7.33901617335e-10
3.19593081374e-09
2.6943230216e-09
3.68639370297e-10
4.90872344562e-10
2.37909521843e-10
9.62098335e-10
8.63035494082e-10
1.29970360617e-09
5.92127270676e-10
5.13208214289e-10
6.16520862517e-10
3.01747028229e-09
3.62361955308e-10
4.84470922819e-09
3.84777843275e-09
4.95485249634e-10
1.53619772682e-09
1.10661389215e-10
3.092447463e-11
6.19423018314e-10
1.44142082744e-09
5.58075528718e-10
1.19841998215e-09
8.88702782462e-10
1.08661361693e-09
2.62748207612e-09
4.06844813123e-10
2.84837241156e-09
2.03305526582e-10
1.00882153924e-09
4.76346988506e-10
7.48969300618e-10
9.64027043032e-10
2.43833452522e-10
8.00422760354e-10
6.48639741607e-10
1.49762508722e-09
2.25241114266e-10
5.66458238715e-10
4.4075851255e-10
2.38834765022e-10
1.07300769862e-09
1.24699522057e-09
8.49387820959e-10
8.46371552632e-10
5.47012303768e-10
5.62701166504e-10
6.77744840712e-10
5.09642027336e-10
2.77702416629e-12
3.88540925141e-10
2.72903442666e-10
1.55438176473e-09
2.70292736446e-09
4.29233502955e-09
9.6429291595e-10
4.69434273362e-09
2.03754840978e-09
1.33263671795e-09
8.15794523841e-10
1.02857608443e-11
2.68924112633e-09
8.45276507726e-10
3.81956933448e-09
2.56471783131e-09
1.27190006104e-09
1.03248897703e-09
1.08745317705e-09
1.19561663702e-09
1.09922372732e-09
3.94271434223e-10
4.94968010656e-09
5.37780550142e-10
6.03536536436e-09
6.16444878419e-09
2.4925938301e-09
4.12073656526e-09
7.32400084508e-09
6.4565074525e-10
5.37609638886e-09
8.84883910331e-10
1.21462667244e-09
5.04141879117e-10
5.36336074269e-09
4.78651490283e-09
3.62294742756e-09
4.10099921084e-09
8.51932972189e-10
3.45771761882e-09
8.89331020309e-09
4.54234392601e-09
3.86231561151e-09
1.10147658317e-09
2.58423283465e-09
1.11999767856e-09
1.44820053438e-09
7.7282074048e-09
1.68236336657e-10
5.41278004549e-10
2.30475469256e-11
1.7480018499e-09
3.56626817553e-09
1.47924885668e-09
1.9938736533e-09
8.65526731421e-10
4.28697608215e-09
6.52984041231e-10
6.19067860124e-09