# vtk DataFile Version 3.0
File Name: Molecule/arg/arg_2.0-6.vtk
ASCII
DATASET UNSTRUCTURED_GRID
FIELD FieldData 1
TIME 1 1 double
0.0
POINTS 381 double
-2.9621915817 -0.40189450979 1.8296464682
-3.3831300735 0.28116092086 1.5752011538
-2.9811754227 -0.6422393322 1.023900032
-3.3820724487 0.011073093861 0.80006581545
-2.8666374683 -0.10658219457 0.18645828962
-2.4905512333 -0.46874111891 0.13667243719
-2.6263113022 0.060200765729 -0.43386396766
-2.2093763351 -0.45952281356 -0.91302663088
-2.2769262791 -0.33539140224 -0.50229001045
-2.4294114113 -0.1481205672 -0.99695986509
-2.7996022701 0.6935697794 -0.82440978289
-3.2557415962 0.898630023 -0.36946365237
-3.1765356064 0.14520211518 0.11106170714
-2.6213126183 0.45615521073 -1.5058525801
-2.4537067413 1.3750857115 -0.86927264929
-2.8893613815 1.7807966471 -0.40932753682
-2.246389389 1.1806665659 -1.4462993145
-2.4457247257 2.0024273396 -0.40793564916
-1.8354179859 1.7575222254 -1.1137748957
-1.5212278366 3.1626534462 0.27745905519
-1.7690063715 2.604487896 -0.53977501392
-2.4781720638 2.6634364128 0.6465459466
-3.154194355 2.3251340389 1.5255540609
-1.8942306042 3.3093175888 1.4924367666
-2.5444419384 2.9617307186 2.270627737
-2.7333171368 2.5294158459 2.3667297363
-3.0078883171 1.9746595621 2.4626252651
-3.4301595688 1.7754408121 1.7643641233
-3.4102468491 0.58886265755 1.8149758577
-3.1240155697 1.7660306692 2.9863045216
-3.1125688553 0.614995718 2.9891762733
-3.0879118443 0.33093351126 2.1196930408
-3.0831441879 0.065236978233 1.8847156763
-2.7771265507 0.056355684996 2.600792408
-2.9307954311 0.35369944572 3.1568865776
-2.8802039623 -0.18119525909 2.1496829987
-2.5086028576 -0.71279841661 2.4368712902
-2.3583989143 -0.21423660219 3.3819282055
-2.1385495663 -1.4887112379 2.0165007114
-2.0221147537 -1.0695203543 3.204549551
-1.7373347282 -1.9506464005 2.7849183083
-1.0040410757 -2.2497649193 2.0743508339
-1.5812389851 -1.7292143106 1.2508257627
-1.0186021328 -2.1105406284 0.39568802714
-1.7065922022 -1.7167688608 0.019301354885
-2.2081530094 -1.4411791563 0.78958630562
-2.3180532455 -0.99509847164 0.28555825353
-2.0007808208 -1.0484224558 -0.39587438107
-2.0476067066 -0.78043437004 -0.81887853146
-1.8823916912 -1.3987355232 -0.99024045467
-2.0199589729 -0.84387052059 -1.2344352007
-1.6762516499 -1.3437154293 -1.7576265335
-2.311501503 -0.42578276992 -1.3941531181
-1.8599021435 -0.73611664772 -1.912707448
-2.2241327763 -0.42076089978 -1.8955745697
-2.0939121246 0.18718600273 -2.4202749729
-1.5826179981 0.13622502983 -2.6703767776
-2.0516068935 1.0139580965 -2.1301732063
-1.6966087818 1.2473773956 -2.2643415928
-1.1670464277 0.42153382301 -3.1803987026
-1.8541922569 1.5242470503 -1.6333861351
-1.3309237957 1.4871343374 -2.7222163677
-1.0829329491 2.0471508503 -2.258109808
-1.4775366783 1.8249379396 -1.7434465885
-1.2417695522 2.4723675251 -1.3080997467
-0.52145451307 2.5498392582 -2.3327839375
-0.66853761673 2.9802060127 -1.3585170507
-0.092933960259 2.9744751453 -2.1319315434
0.31715640426 2.9949989319 -1.8162199259
0.45610427856 3.1520798206 -0.88830369711
-0.070580244064 3.32421875 -2.9636316299
0.52988421917 3.2340700626 -2.541877985
1.057267189 2.5646545887 -0.34951898456
0.72257345915 2.7075679302 -1.5147783756
1.2952948809 2.4262382984 -1.5593181849
0.85572069883 2.814081192 0.4835653007
1.5408831835 1.915276885 0.025219753385
1.2406537533 2.1821620464 1.0544960499
0.40876674652 3.0909469128 0.87356424332
0.72774624825 2.5287556648 1.2125999928
0.48217535019 2.6834757328 1.6848765612
1.1377983093 2.4008920193 2.1215195656
0.58019882441 2.7595803738 2.3097352982
-0.19532684982 3.4712634087 0.79619383812
-0.035982370377 3.2003788948 1.91102314
-0.52801001072 3.6689002514 1.8595542908
-1.2354958057 3.6120893955 1.460688591
-0.90636438131 3.538402319 0.31834378839
-0.15761366487 3.4282915592 2.9595618248
0.54823708534 2.917829752 3.2530045509
-0.6506010294 3.1865851879 3.6547994614
0.10886855423 2.5770354271 4.093919754
-1.2805860043 3.1857867241 3.7545464039
-0.6593272686 2.6984126568 4.0106253624
-1.4577744007 2.7895789146 3.9835348129
-2.0444903374 2.9424953461 3.5820763111
-1.8715019226 3.2170174122 3.5463540554
-2.3223438263 3.1638314724 3.0724527836
-2.5054531097 2.888011694 2.9343121052
-2.3472352028 3.3946182728 2.5028479099
-0.60508203506 1.6954874992 4.5549378395
-1.0558271408 2.0768299103 4.4211211205
-1.9848889112 2.0214629173 4.4669427872
-1.4448009729 1.6286582947 4.5984683037
-1.490585804 2.3384790421 4.2857480049
-2.4689583778 2.2011475563 4.1065998077
-2.207681179 2.5195720196 3.8388886452
-2.8586857319 2.1722512245 3.4546175003
-2.7019398212 2.472632885 3.1173939705
-1.1131160259 1.0735673904 4.606400013
-0.28920599818 1.0845671892 4.7722425461
-0.78335720301 0.30025911331 4.6710615158
-1.5508098602 0.56325012445 4.5804924965
-0.89778625965 -0.37785929441 4.7739167213
-1.7564758062 -0.56895309687 4.2204174995
-2.3516697884 0.23589500785 4.2274141312
-0.026079619303 -0.33430317044 5.1239328384
-0.43272301555 -0.73290914297 5.0444097519
0.17850638926 -1.1748902798 5.089805603
0.52604073286 -0.55022138357 5.1916251183
1.0745420456 -0.80271536112 5.2657566071
1.2153109312 -1.5507575274 4.9263749123
0.48976996541 -1.8776835203 4.819065094
0.80311697721 -2.2682476044 4.3773889542
1.6356155872 -1.9943447113 4.4149179459
1.1150449514 -2.3385050297 2.8111145496
1.0257623196 -1.8518155813 2.1311614513
1.7982820272 -1.9925689697 2.9207117558
1.9145759344 -1.4781663418 2.3014035225
0.77401739359 -1.6626439095 1.2487926483
0.13878199458 -2.147393465 1.2166837454
0.018800375983 -2.5082535744 2.083217144
1.045285821 -1.8251419067 0.34561568499
0.042800873518 -2.475736618 0.33984273672
-0.77303975821 -1.9857020378 1.2127482891
1.4679764509 -1.0985907316 0.029657365754
1.0761311054 -1.333740592 0.9728898406
1.3539749384 -0.84863364697 0.82397699356
1.3703761101 -1.2310791016 1.7320381403
1.6617336273 -0.77011805773 1.5758169889
2.3386354446 -0.73461866379 2.0013711452
1.6585417986 -0.65525949001 -0.54535603523
1.6874461174 -0.15280669928 0.64826059341
1.8460706472 0.22658921778 0.088323295116
1.6700824499 -1.4016093016 -1.0155119896
2.0623681545 -0.23197981715 -1.3440868855
2.2021870613 -0.8481426239 -1.8550636768
1.3704211712 -1.7548279762 -1.7108861208
1.7418284416 -1.3577477932 -2.2799713612
0.88939768076 -1.9233283997 -2.1275856495
1.4293899536 -1.4279280901 -2.8852376938
0.56057214737 -1.3936111927 -2.9428637028
0.11729617417 -1.89448452 -2.4572472572
-0.40347537398 -1.2833451033 -2.6630375385
0.12757253647 -0.81426936388 -3.3986196518
-0.34492516518 -0.59817785025 -3.1875598431
-1.1471556425 -0.73089295626 -2.5791811943
-0.77432245016 -0.31935489178 -3.1347103119
-1.0465506315 -1.4781986475 -2.3483259678
0.21188788116 -0.25000429153 -3.9594342709
-0.30650576949 -0.0053071212023 -3.7505719662
0.065246835351 0.67815119028 -4.0721764565
0.54123967886 0.37000027299 -4.2318949699
1.1083441973 3.2446482182 -3.2384490967
0.94085675478 3.2269170284 -2.8113942146
1.4994881153 2.8612930775 -3.0657799244
1.0986161232 2.6483762264 -2.0411570072
2.1179680824 1.6392937899 -1.967821002
2.030834198 1.1137802601 -1.3008265495
2.4382507801 1.2403142452 -2.2758989334
2.3399090767 0.57884442806 -1.5554988384
1.5564661026 1.9963219166 -1.1677544117
1.8648505211 0.77139031887 -0.73392236233
1.9722155333 0.93446576595 0.040341340005
1.806753397 0.12666021287 -0.80869328976
1.8523688316 1.3213527203 -3.811691761
2.2747955322 1.7593563795 -3.0603840351
2.7299687862 0.64585453272 -3.416305542
0.66130644083 1.936807394 -4.4712796211
1.0707269907 1.7733950615 -4.2668323517
0.38865691423 1.3884167671 -4.3942284584
2.0721049309 0.65573322773 0.81870639324
1.8568326235 -0.26923781633 1.447560668
2.1804294586 0.37591218948 1.6056611538
2.730915308 0.12541185319 2.1539611816
1.8930745125 1.4214627743 1.2218556404
2.0402944088 1.011700511 1.953935504
2.5369186401 0.96346205473 2.5894777775
1.818721652 1.6017549038 2.2690763474
1.9786100388 1.7766113281 3.1061675549
2.5512464046 1.3229070902 3.2934584618
1.5651408434 2.0387074947 3.8483459949
1.4135442972 1.6077977419 4.4148406982
2.1676912308 1.5169678926 3.9188916683
1.9488924742 1.213840127 4.6732726097
1.3093930483 0.81530535221 5.0638942719
0.6739589572 1.4013770819 4.7825789452
0.47887137532 0.79543149471 5.0078430176
-0.081741884351 0.40173491836 5.0343456268
1.1781688929 0.010573025793 5.3568520546
0.5762245059 0.13637650013 5.2226719856
1.5211092234 2.7458636761 -2.6078007221
2.2076611519 2.1353871822 -2.5130751133
1.8246406317 1.8753398657 -3.4756734371
1.2645648718 1.8378537893 -3.9329946041
-3.7269210815 1.9509940147 0.8568611145
-3.2787287235 2.2608177662 0.23600661755
-3.7201087475 1.5626777411 0.16413019598
-3.7284786701 0.79627996683 0.18426246941
-3.7283625603 0.41950976849 0.83697807789
-3.9382641315 1.1844367981 0.87050491571
-2.7542715073 -1.1466639042 1.4843703508
-2.4524972439 0.034887500107 -2.0116136074
0.46003398299 3.453328371 -0.051064543426
-0.29808911681 3.6723930836 -0.41349041462
-1.2176226377 3.2953436375 -0.67571872473
-0.50244653225 3.8237428665 2.5018708706
-1.1119123697 4.0115699768 2.4684073925
-1.1115407944 3.7846972942 3.2505750656
-1.8816184998 3.8303017616 2.4764342308
-1.8819845915 3.5769677162 3.2300486565
-1.9709867239 1.2830604315 4.7375020981
-2.5786156654 1.6373586655 4.4805173874
-2.5883321762 0.86314553022 4.5000967979
-3.0522651672 1.5973937511 4.011341095
-3.1393482685 0.88702261448 3.8786253929
0.44861412048 -2.7122430801 3.9982714653
-0.16154554486 -2.4451532364 4.5788164139
-0.18846158683 -2.8630416393 3.9188930988
0.45907613635 -2.8574531078 3.2299878597
-0.19897171855 -2.9713590145 3.2854056358
-0.15443973243 -2.8610873222 2.6731672287
0.58297759295 -2.6465976238 2.5855093002
-0.18494580686 -1.9169726372 4.9504704475
-0.80362266302 -1.5002411604 4.9754719734
-0.80383455753 -2.2228367329 4.6331791878
-0.94625359774 -2.642786026 4.0066070557
-0.94639074802 -2.8019378185 3.3737494946
-0.79912668467 -2.7166256905 2.6107873917
-1.4848872423 -1.3505952358 4.5676512718
[...]
CELL_DATA 758
SCALARS cell_data_0 double
LOOKUP_TABLE default
2.19420588764e-07
4.82217715729e-07
7.08011580912e-07
2.70615764035e-07
2.56287843866e-07
1.9065138422e-07
6.3841593691e-07
5.98198169503e-07
1.5639034571e-06
7.05103346328e-07
8.01984324237e-07
5.2063791612e-07
2.1287676662e-06
9.12295479549e-07
5.57190726998e-07
1.83660022423e-07
7.72160108966e-07
2.10091127932e-06
1.02611808222e-06
5.74776612026e-07
2.85492216386e-07
2.19082495749e-07
1.91450946044e-06
3.90158086432e-07
5.56414321558e-07
2.35324218113e-07
5.20677002516e-07
1.55962771693e-06
6.80748768982e-07
3.79216705252e-07
3.19824711372e-07
1.1325436556e-05
9.48980477024e-06
7.88016446056e-06
5.67946234949e-06
1.23598022629e-05
4.09401029944e-06
2.29884040237e-06
1.33290877738e-06
1.02967377854e-06
1.24393238666e-06
1.50067630491e-06
1.64530732163e-06
3.8729693638e-07
1.24099080662e-06
7.04511686449e-07
1.0455203504e-06
3.15597058637e-07
1.69850861577e-06
2.01269322779e-06
3.4266434913e-06
3.70489734755e-06
3.8318774515e-06
1.62592922182e-06
9.88937293309e-06
2.28421251645e-06
3.72473249063e-06
4.74705804782e-07
9.74557102617e-07
1.8261573464e-06
7.72445895157e-06
7.010875833e-06
2.46999273308e-05
7.27683391402e-06
1.70056495658e-06
4.63958260535e-07
3.2067678919e-06
3.20622553752e-06
4.17450252162e-07
2.19898377111e-06
2.99412853133e-06
9.08287300648e-08
7.81067761979e-07
1.32510180396e-06
4.76408198742e-07
1.44170438659e-06
2.11292134188e-06
6.88775999992e-07
1.37627112859e-06
1.29659096766e-08
5.03490078637e-06
1.18477025335e-06
6.7510953735e-07
8.564314054e-08
2.42229450231e-08
2.99878228912e-07
1.41060077701e-07
4.08826433964e-08
3.96419587684e-07
3.99451802445e-07
1.48751635914e-06
2.12995610007e-07
2.98782780911e-07
4.14228578432e-07
3.65975564558e-07
5.12559859367e-07
1.48690267541e-07
2.95820694997e-07
2.52475194575e-07
7.14904339392e-07
1.04874312768e-06
8.36907326316e-08
9.78010430326e-07
1.51461447925e-06
3.54628004829e-06
1.49885099782e-06
2.12673575404e-06
9.95961726237e-07
8.65949891891e-07
3.28376999724e-07
9.41358914129e-08
7.35963511466e-07
4.22047296623e-06
2.28545949786e-06
3.40147961355e-06
1.46783335327e-05
2.27482261485e-06
1.57496566558e-06
3.30264021546e-06
7.05924910646e-06
6.23761733977e-06
1.1915375767e-05
1.91111255071e-06
8.74068440435e-06
2.93687245846e-07
7.69736864206e-06
2.35361989811e-06
5.95397782179e-06
3.87465626352e-06
7.33800492885e-07
1.46044952335e-06
1.24285025708e-06
3.6694491436e-06
2.7551674466e-06
3.22574890669e-06
3.22606800192e-06
3.42993908292e-06
2.26293194267e-07
5.32009221773e-07
2.41505053906e-06
2.80402214957e-06
7.883402605e-07
1.64045382169e-06
3.12970641326e-06
6.2639771128e-08
1.05735237159e-06
2.3405000137e-06
4.28987698577e-06
1.39814985775e-06
7.64099845513e-06
1.18365237102e-06
2.58234519811e-07
1.61615533648e-06
7.96271093984e-07
1.03865768698e-05
1.11291931599e-05
1.66999087619e-05
5.20578740432e-06
2.24243895491e-06
1.87445336896e-06
1.95658789185e-07
2.05404195785e-06
1.09935900445e-06
2.6618595835e-06
1.24174406543e-06
8.42019491221e-06
2.58026333639e-05
3.26663343687e-07
1.17223274819e-06
1.84794797753e-06
4.70121669254e-07
5.7093452545e-07
2.05010583468e-06
1.60095213407e-06
5.18186716638e-07
8.28723030096e-06
4.6851876182e-06
1.13738874094e-05
1.54794911048e-05
1.09155808674e-05
7.973528737e-06
2.92169777723e-06
3.96663874149e-06
6.30718156774e-08
4.13595615935e-07
2.74562268386e-07
1.13889088255e-07
2.90841176893e-07
5.22362745056e-07
6.38933252859e-07
3.86492664002e-07
1.56451999007e-06
9.74338772125e-07
1.08840172432e-06
1.13492102933e-06
4.24014543937e-06
4.09673018452e-06
1.83737754602e-06
1.9011090877e-06
1.16056448541e-06
1.68930511604e-06
1.40829221961e-05
1.64807781886e-06
3.71465234069e-06
7.17682425087e-07
9.12283078724e-07
1.82718421266e-06
1.10771245109e-06
6.07496647896e-06
4.22759791768e-06
2.06055399509e-05
5.5748168933e-06
6.84493745962e-06
5.54475207208e-06
7.31331559936e-06
6.16526947639e-06
1.99376918075e-06
9.97647987009e-07
3.18108688722e-07
3.80411007673e-08
3.81220571833e-07
9.48653470548e-07
8.63960049301e-08
1.32267366881e-06
6.03828978597e-06
1.35038109564e-06
3.06957511502e-06
2.03839311257e-06
1.99871789681e-06
2.66579131916e-06
7.63844698853e-07
1.55230486581e-07
2.0587226444e-06
1.83231688841e-06
2.63585291275e-07
1.48092221708e-06
2.78579364708e-05
1.71811205294e-05
1.92355853627e-06
5.46913911943e-07
9.31744212726e-06
4.90155304085e-06
2.2927022835e-06
8.9125112059e-07
6.17390852672e-08
2.83533104703e-08
8.43009123711e-08
1.15618327508e-07
3.18777031347e-07
2.36401256717e-06
4.85627369413e-08
1.37248653079e-07
3.38560316884e-07
1.19264897388e-06
9.1834481402e-07
4.5269767598e-07
2.6057953725e-08
1.36467467644e-06
4.08391556202e-07
5.86620193521e-07
6.80459172019e-07
6.05291166995e-08
1.14863558892e-07
4.14027404836e-07
2.21462560301e-07
4.1106826945e-07
1.84998977527e-06
1.74107241315e-06
3.99460746899e-07
1.6699640446e-06
1.6033998959e-07
3.59615871085e-06
3.8017328079e-06
5.9482445114e-07
9.6276494221e-07
4.30797561204e-07
1.72871608065e-06
3.16565247355e-06
1.38627656712e-06
2.72558146017e-06
1.21903351705e-06
1.06741921053e-06
9.3824892723e-07
1.03930709293e-06
2.18861072202e-06
1.11504743949e-06
1.66791336208e-06
1.38387916832e-06
2.46431478993e-06
1.73080344578e-06
2.50252107979e-06
4.45472691353e-07
1.31984004768e-06
4.35794135368e-06
2.38268439646e-06
9.29329685548e-07
3.73732704482e-06
4.76771136294e-07
1.67186787493e-06
8.68187409742e-07
3.35593554392e-07
1.79096261526e-07
7.30847342022e-08
3.4605528974e-07
3.93766319451e-08
9.30963742507e-08
4.33957244627e-07
2.30353389442e-07
3.28381022078e-06
8.61102941548e-07
1.88961290507e-06
6.57210411066e-08
5.86481273965e-07
2.00886422442e-06
7.19042225159e-07
1.00430879206e-06
3.72104055559e-07
1.14293632447e-06
3.64339393641e-07
1.81067292001e-07
1.91065495083e-07
1.90192960935e-07
4.562932739e-07
1.42317854158e-08
4.5764773292e-07
2.35092257992e-07
1.27067989993e-06
3.77082582234e-08
3.62530417306e-07
2.14037262074e-07
8.80353092244e-07
6.99138327168e-07
3.68251833034e-07
6.78214822457e-07
1.12368784135e-07
1.86993347119e-07
1.15752269079e-07
1.01256965781e-08
1.09440407891e-07
5.11317709782e-07
5.21051345574e-07
1.96783086186e-07
3.26970235939e-06
9.47172926509e-07
1.92514106995e-06
1.51257491868e-06
7.64162542841e-08
1.07509210555e-05
1.81264561978e-05
1.30189071715e-05
6.60805874893e-06
9.62201766757e-06
1.4586444095e-06
1.57785141255e-06
2.07310419439e-06
8.48027469787e-07
4.11445303918e-06
2.18748345138e-06
9.28123577097e-07
1.55124008316e-06
3.61426590635e-07
8.12446152676e-07
4.70637290499e-07
3.68339418429e-07
1.710470431e-06
2.53919633973e-06
2.8780180758e-06
1.2007877095e-06
5.41844567329e-07
1.76722848565e-07
5.01784310044e-06
3.04029738076e-06
8.79584802943e-07
4.44689004624e-07
4.60732218433e-06
6.72787037993e-06
4.3982561274e-06
3.284244403e-06
8.04589009939e-06
4.25664310781e-06
1.44613483786e-05
6.32700176321e-06
3.07554029571e-07
1.46697467425e-05
7.85443452227e-07
1.70797358895e-06
1.42169969962e-07
1.34739509498e-07
3.75135901132e-07
3.19784035366e-06
1.24665882742e-07
2.47241503335e-06
3.16484093063e-06
1.31673294899e-05
2.57497382979e-06
2.92104553025e-08
1.01248107515e-06
4.44970463922e-06
2.46922984607e-07
1.01280666869e-06
1.99343752557e-07
5.14169794483e-07
9.38430895039e-07
1.39657186945e-06
3.4830649555e-07
5.75087625224e-09
1.09480141009e-07
3.12976074551e-07
1.14610320559e-06
3.10162790345e-07
5.535386154e-07
1.19573091463e-07
4.1634855578e-07
2.2064704545e-07
5.67393658706e-07
6.38764808671e-07
5.39759930864e-07
7.38942676284e-07
5.95643482895e-07
6.95545607271e-08
1.0286735278e-06
7.56576050424e-07
2.05122188013e-06
3.50340872823e-06
2.64136554353e-06
7.5713274353e-06
5.14845251453e-07
3.09047337323e-06
3.75097138473e-06
6.40684778005e-07
1.9090540143e-06
5.17858194987e-07
7.59598453128e-07
1.34377658652e-06
2.36784154632e-07
4.32442388998e-07
6.65415586154e-07
2.27237533468e-06
3.88295668611e-06
4.42498506051e-06
3.48835600101e-07
1.35875175342e-06
6.1463703368e-06
2.87886505164e-06
1.01229855183e-06
3.14181200537e-06
5.88115229382e-07
3.01239946756e-06
3.09467553922e-06
6.29590298836e-06
2.04216997173e-05
2.41417724727e-06
3.53743694727e-06
1.41426150249e-06
2.48254177751e-07
3.71642211758e-07
6.70752563072e-07
1.03595133341e-06
1.43873120108e-06
2.0750040473e-06
4.42719927952e-06
6.093532419e-07
1.33686763287e-06
1.39660362779e-05
2.74991730969e-06
1.53084672868e-06
6.47210964733e-07
1.21762265778e-06
1.27274798272e-06
3.72816331507e-07
2.53449904767e-07
2.6959162314e-06
3.54148184358e-06
1.40361829707e-07
5.03401115393e-07
1.68216973835e-07
4.80278993195e-07
2.47671738037e-06
1.0875366012e-06
9.83222079834e-07
3.77710935981e-07
1.59734543488e-06
2.02089786623e-06
3.67205154725e-06
2.61880231857e-06
4.7415456042e-07
5.02462939145e-07
4.56806154503e-07
1.4136858663e-06
1.88327623293e-06
9.58356537091e-08
2.14568750527e-07
1.53291072085e-06
7.00335241217e-07
1.18261449341e-07
1.16812097939e-06
3.64119616557e-06
2.11692797897e-06
6.08327746816e-07
6.68947047089e-06
1.30357227675e-06
2.12421304628e-06
1.39784125974e-06
1.96459693422e-07
8.99509245973e-07
6.56411654794e-07
2.9976793016e-06
2.15879643407e-06
4.61241448055e-06
4.36328024023e-06
1.64621779164e-06
1.65862723428e-06
5.75964380101e-10
7.45357229121e-07
8.84489902418e-07
5.11991032075e-07
4.10383885176e-08
4.90897426021e-07
7.1148762058e-07
2.86844947627e-07
1.15149523924e-06
2.29685832148e-06
9.41287623623e-08
2.66280206776e-07
1.15523784101e-06
1.61635098603e-06
3.46053946864e-07
2.79657280243e-06
2.03219304601e-06
1.49657496812e-05
1.68590306535e-06
9.72933202544e-07
2.22781634165e-06
2.43717492416e-09
1.02385818673e-06
1.25555346206e-06
1.75102651171e-06
1.59771274918e-06
4.01544300965e-07
9.11446471389e-06
1.56679890041e-06
1.60755072472e-06
7.61865314808e-07
3.47645277225e-06
1.52634273567e-06
1.41169815937e-07
1.38003072319e-08
2.61625062395e-06
2.42282820432e-06
2.30554944693e-07
1.187400114e-07
1.58702573685e-06
1.06167953389e-06
1.16299241189e-06
1.09291124334e-06
5.45914361321e-07
2.58495116796e-06
8.80062919009e-07
2.23382659419e-08
3.08541249327e-06
4.79529057122e-06
1.14364717335e-06
1.27416519603e-06
2.48728417848e-06
1.5497571035e-07
3.96077862759e-06
1.9169999644e-06
3.92623577085e-08
2.01270954822e-06
1.14820142121e-06
7.40165797627e-07
1.07226487973e-06
1.41934875526e-06
5.93891479847e-07
2.12545882437e-06
1.66126875048e-06
1.34412379045e-06
1.15281553383e-06
1.11378038859e-06
6.84953333592e-06
1.58388096279e-05
9.91394568371e-06
1.33509603149e-05
1.17425501767e-05
1.08618671426e-05
3.19197469893e-05
5.4261413764e-07
1.69696444361e-05
8.27391027782e-06
1.0023835781e-05
1.34270458456e-05
1.33991447666e-05
8.65440939676e-06
1.39437126565e-05
2.23944514723e-05
3.2616670489e-06
7.90584336148e-07
1.97792729858e-05
1.88675375908e-05
2.08404975055e-05
9.12400768971e-08
7.01751732647e-06
8.23646309398e-06
9.7034672441e-06
1.27846635761e-05
5.97279789465e-06
6.71482060762e-07
5.48225987168e-06
1.73349231487e-06
7.56330568958e-06
5.31846330492e-06
6.41161259961e-06
1.55989874498e-06
4.28412894451e-06
1.46982536959e-05
2.16113802269e-06
3.55327808921e-07
3.7994550934e-06
2.15224004779e-05
5.31232998036e-06
1.34356395131e-05
8.02643682265e-06
1.09434234886e-05
1.346366903e-06
1.05179258058e-05
1.8768245982e-06
1.20061863709e-06
1.94697697543e-05
5.46490368726e-06
1.31898560126e-06
1.47041773576e-06
2.69005610874e-06
2.95519536694e-06
5.94490497302e-06
4.27668831942e-06
3.27012979813e-06
1.39088971541e-06
1.11977714036e-06
2.24615252261e-07
7.10264017456e-06
3.5593791564e-06
2.17355681713e-06
3.8371708061e-06
4.12359522599e-06
8.90851038362e-06
9.20411361469e-06
2.28650228001e-06
1.69644398517e-06
1.53445606301e-06
4.47848854032e-06
6.79789823825e-07
2.18715643668e-06
4.91656902516e-06
1.07546822318e-05
5.75179064353e-07
2.92453336537e-06
3.79581007883e-06
4.92053479031e-06
7.81335051646e-06
1.5221090082e-06
5.72899187519e-06
1.13018134093e-07
3.99218078444e-06
2.69373344892e-06
8.42149325167e-06
2.19425893952e-06
1.48928161461e-06
5.6844507568e-07
1.32528315827e-06
4.59373371562e-07
3.40684086875e-06
4.40653032553e-06
3.00848150127e-06
3.02935357507e-06
1.01973380512e-05
4.88396720698e-06
6.37662364765e-06
5.98893680408e-06
5.70057195352e-07
6.36218609355e-07
1.64793324382e-06
4.52906530997e-07
3.40050871689e-06
4.88864672659e-06
1.41749966344e-06
3.04494472208e-06
5.26705991107e-06
4.8569262404e-08
1.16416703241e-07
2.91058858054e-06
6.71744640344e-06
5.74045552647e-07
2.48296185554e-06
3.34638583186e-06
1.22043607282e-05
1.13010937907e-05
3.12191965674e-06
1.00543067543e-05
2.13963647199e-06
8.66158584971e-07
3.69515569241e-06
1.25582824995e-05
3.89235465536e-06
6.51051235909e-06
3.10406143683e-06
2.73152995752e-07
1.55447508373e-06
2.59870860146e-07
2.68859286631e-06
1.82007340843e-06
3.1289191395e-06
2.52157491277e-06
1.02219071799e-06
6.2780764434e-07
1.38238667106e-06
4.46616539105e-06
3.19952021774e-06
2.48468892374e-06
7.08713427921e-07
6.95581721739e-07
1.30402010696e-06
6.52572511306e-07
7.99853903466e-07
8.60134539502e-07
5.10619982087e-06
3.91688953014e-06
3.60590292048e-06
5.61123048492e-06
7.09142731482e-08
3.33116354859e-06
7.69236908736e-07
2.76210408373e-06
5.59739069663e-06
1.61696112934e-06
2.64354124402e-06
3.15843890027e-06
1.06617536787e-05
1.58517757851e-05
1.99996820814e-06
3.79519604352e-08
6.68638078916e-06
1.19996443462e-05
1.67520060033e-06
5.02987895429e-06
2.85390784944e-06
9.54177528489e-09
1.50498381132e-06
4.10092205273e-06
5.35176494983e-06
5.8970582739e-06
4.36509753277e-07
3.42186750247e-07
1.60644716845e-06
3.28091694559e-06
3.67834696904e-06
2.11940748521e-06
1.90472292223e-06
1.52399610588e-06

