# vtk DataFile Version 3.0
File Name: Molecule/arg/arg_2.0-5.vtk
ASCII
DATASET UNSTRUCTURED_GRID
FIELD FieldData 1
TIME 1 1 double
0.0
POINTS 357 double
-2.9627063274 -0.40133184195 1.829887867
-3.3811421394 0.27799168229 1.5827281475
-2.9811003208 -0.64235526323 1.0240175724
-3.3819174767 0.010711178184 0.8004681468
-2.8666045666 -0.1066147536 0.18640726805
-2.4905576706 -0.4687461853 0.13671059906
-2.6263079643 0.0601965487 -0.43386918306
-2.2093763351 -0.45952278376 -0.91302663088
-2.2769258022 -0.33539307117 -0.50228744745
-2.4294111729 -0.148120597 -0.99696058035
-2.7996022701 0.6935697794 -0.82440978289
-3.2557411194 0.89863020182 -0.36946505308
-3.1765189171 0.14519560337 0.11105130613
-2.6213126183 0.45615524054 -1.5058524609
-2.4537067413 1.3750855923 -0.86927264929
-2.8893616199 1.7807965279 -0.40932744741
-2.246389389 1.1806666851 -1.4462993145
-2.4457249641 2.0024273396 -0.40793561935
-1.8354179859 1.7575223446 -1.1137746572
-1.5212278366 3.1626534462 0.27745905519
-1.7690063715 2.604487896 -0.53977495432
-2.4781720638 2.6634366512 0.6465460062
-3.1541731358 2.3251638412 1.525575161
-1.8942308426 3.3093173504 1.4924371243
-2.5444417 2.9617307186 2.2706296444
-2.7333159447 2.5294175148 2.3667294979
-3.0078861713 1.9746631384 2.4626340866
-3.4301838875 1.7754015923 1.7643618584
-3.4101688862 0.58880776167 1.8151495457
-3.1240341663 1.7659959793 2.9862978458
-3.1125524044 0.61498266459 2.9892556667
-3.0989067554 0.08889002353 1.8726308346
-3.0882723331 0.33146482706 2.1190824509
-2.7771542072 0.056394219398 2.6006858349
-2.9307656288 0.35369423032 3.1568872929
-2.8827629089 -0.17816539109 2.1466517448
-2.5087180138 -0.71264433861 2.4367454052
-2.3583939075 -0.21423086524 3.3819279671
-2.1385450363 -1.4887114763 2.0165030956
-2.022131443 -1.0695061684 3.2045373917
-1.7373354435 -1.9506458044 2.7849178314
-1.0040414333 -2.2497649193 2.0743510723
-1.5812387466 -1.7292143106 1.2508270741
-1.0186020136 -2.1105406284 0.39568802714
-1.7065931559 -1.7167685032 0.019301919267
-2.2081410885 -1.4411809444 0.78951537609
-2.3180463314 -0.99510669708 0.28558075428
-2.0007817745 -1.0484229326 -0.39587241411
-2.0476067066 -0.78043460846 -0.81887811422
-1.8823916912 -1.3987356424 -0.99024027586
-2.0199589729 -0.8438706398 -1.2344352007
-1.6762517691 -1.3437153101 -1.7576265335
-2.311501503 -0.42578279972 -1.3941532373
-1.8599020243 -0.73611664772 -1.912707448
-2.2241327763 -0.42076089978 -1.8955746889
-2.0939121246 0.18718597293 -2.4202749729
-1.582521677 0.13635219634 -2.6705696583
-2.0516085625 1.0139523745 -2.1301691532
-1.6969624758 1.2469319105 -2.2639541626
-1.1656360626 0.42286881804 -3.1828012466
-1.8541975021 1.5242530107 -1.6333725452
-1.330567956 1.4866195917 -2.7241075039
-1.0822107792 2.049654007 -2.2552418709
-1.4776614904 1.8249976635 -1.7433319092
-1.241902709 2.4724743366 -1.3075736761
-0.52152186632 2.5502362251 -2.3308141232
-0.66866445541 2.9802072048 -1.3584082127
-0.093075253069 2.9744610786 -2.1315670013
0.3173160851 2.995316267 -1.8159409761
0.45618903637 3.1520855427 -0.88848090172
-0.070630684495 3.323949337 -2.9641301632
0.53033638 3.2343418598 -2.5413854122
1.0573687553 2.5637497902 -0.35093790293
0.72480428219 2.7118325233 -1.5243573189
1.5512260199 2.0252835751 -1.2233082056
0.85611689091 2.8126254082 0.4820240736
1.5413870811 1.9151126146 0.022689076141
1.2411085367 2.1817901134 1.0548292398
0.40902343392 3.0908541679 0.87332230806
0.72771376371 2.5287044048 1.2126023769
0.48218759894 2.6834704876 1.6848766804
1.1377738714 2.4008536339 2.1215615273
0.58020186424 2.7595820427 2.309738636
-0.19507560134 3.4712450504 0.79595631361
-0.035981357098 3.2003788948 1.9109895229
-0.52800452709 3.6688988209 1.8595471382
-1.2354973555 3.6120882034 1.4606792927
-0.90634298325 3.5383994579 0.31831106544
-0.1576153785 3.4282913208 2.9595608711
0.54823768139 2.9178299904 3.2530040741
-0.65060138702 3.1865851879 3.6547994614
0.10886868089 2.5770351887 4.093919754
-1.2805860043 3.1857867241 3.7545464039
-0.65932732821 2.6984128952 4.0106253624
-1.4577745199 2.7895786762 3.9835348129
-2.044490099 2.9424953461 3.5820763111
-1.8715019226 3.2170176506 3.546353817
-2.3223438263 3.1638314724 3.0724527836
-2.5054531097 2.888011694 2.9343123436
-2.3472352028 3.3946182728 2.5028479099
-0.60508191586 1.69548738 4.5549378395
-1.0558271408 2.0768299103 4.4211211205
-1.9848889112 2.0214629173 4.4669427872
-1.4448008537 1.6286581755 4.5984687805
-1.490585804 2.3384790421 4.2857480049
-2.468957901 2.2011480331 4.1065993309
-2.207681179 2.5195717812 3.8388886452
-2.8586819172 2.1722595692 3.454611063
-2.7019395828 2.4726362228 3.1173892021
-1.1131161451 1.0735675097 4.606400013
-0.28920596838 1.08456707 4.7722425461
-0.78335726261 0.30025908351 4.6710615158
-1.5508098602 0.56325030327 4.5804924965
-0.89778614044 -0.37785944343 4.7739167213
-1.7564759254 -0.56895238161 4.2204174995
-2.3516695499 0.23589454591 4.2274141312
-0.026079608127 -0.33430320024 5.1239328384
-0.43272307515 -0.73290920258 5.0444097519
0.17830790579 -1.1748850346 5.0897350311
0.52602481842 -0.55022072792 5.1916227341
1.0745105743 -0.8024366498 5.2657318115
1.2139770985 -1.5518680811 4.9260935783
0.48920601606 -1.8773661852 4.8191332817
0.80584925413 -2.2675902843 4.3759465218
1.6696145535 -2.00572896 4.3962826729
1.1409446001 -2.390982151 3.6258349419
1.9025297165 -2.1257252693 3.7773735523
1.8196110725 -1.9956128597 2.9586567879
1.1112190485 -2.339271307 2.807510376
1.0264049768 -1.8515224457 2.1306834221
1.915222168 -1.4787877798 2.30337286
0.77408587933 -1.6625806093 1.2488965988
0.1387527138 -2.1473867893 1.2167127132
0.018815033138 -2.508259058 2.0830280781
1.0452882051 -1.8251413107 0.34562024474
0.042804144323 -2.475733757 0.33986273408
-0.77304387093 -1.9857004881 1.2127501965
1.4679763317 -1.0985912085 0.029657416046
1.0761420727 -1.3337285519 0.97285526991
1.3539532423 -0.84868735075 0.8239890933
1.3702325821 -1.2312831879 1.7319265604
1.6618455648 -0.76977753639 1.5758421421
2.3387534618 -0.73470717669 2.0015928745
1.6585276127 -0.65529507399 -0.54537862539
1.6874521971 -0.15279822052 0.64827847481
1.8460595608 0.22670201957 0.08833488822
1.6700819731 -1.4016106129 -1.0155137777
2.0623474121 -0.23200187087 -1.3440428972
2.2021870613 -0.84814250469 -1.8550624847
1.3704209328 -1.7548282146 -1.7108861208
1.7418283224 -1.3577479124 -2.2799711227
0.88939774036 -1.9233283997 -2.1275858879
1.4293899536 -1.4279280901 -2.8852376938
0.56057214737 -1.3936111927 -2.9428639412
0.11729624122 -1.8944844007 -2.4572472572
-0.4034756422 -1.2833446264 -2.6630382538
0.12758089602 -0.81378692389 -3.3991086483
-0.34522807598 -0.59821552038 -3.1873054504
-1.1471600533 -0.73088103533 -2.5791852474
-0.77496898174 -0.3198967576 -3.1333756447
-1.0465508699 -1.4781979322 -2.3483264446
-0.2711327374 0.012658775784 -3.7789187431
0.21026973426 -0.25050216913 -3.9592652321
0.048651739955 0.68514233828 -4.0596790314
0.53917384148 0.42092081904 -4.2427477837
0.93764907122 3.228423357 -2.8133187294
1.5052502155 2.7594640255 -2.623021841
1.1172164679 3.2365479469 -3.2354574203
1.1216737032 2.6322565079 -2.0254771709
2.1161732674 1.6454638243 -1.9676246643
1.9539763927 2.4563074112 -2.3523828983
2.0315613747 1.1113042831 -1.3026118279
2.4370718002 1.2406218052 -2.2769036293
2.3398649693 0.57883965969 -1.5553388596
1.8646429777 0.76817631721 -0.73369622231
1.9722908735 0.93405681849 0.040048234165
1.8067495823 0.12653487921 -0.80864012241
1.8544340134 1.3187158108 -3.8090610504
2.2656450272 1.8915871382 -3.0461440086
2.7300262451 0.64887624979 -3.4161407948
0.66291069984 1.940636158 -4.4692058563
1.0704487562 1.774612546 -4.2670264244
0.38843640685 1.3846524954 -4.394153595
2.0721054077 0.65573823452 0.81870555878
1.8568392992 -0.26922142506 1.4475374222
2.1804311275 0.37591394782 1.6056631804
2.7308726311 0.12572410703 2.1537666321
1.8930906057 1.4214419127 1.2218291759
2.0404529572 1.011269331 1.9542088509
2.5366663933 0.96412199736 2.5893406868
1.818097353 1.6032648087 2.2689340115
1.9973255396 1.7544931173 3.1127538681
2.5708806515 1.3148838282 3.3394117355
2.2207708359 1.4814419746 3.9221253395
1.5689300299 2.0371572971 3.8491947651
1.4164408445 1.6076946259 4.4144124985
1.9466640949 1.2118327618 4.6746301651
1.3092757463 0.81677520275 5.0635662079
0.67401957512 1.4011876583 4.7826604843
0.47884246707 0.79539185762 5.007850647
-0.081745758653 0.40173181891 5.03434515
1.1782295704 0.010541858152 5.3568496704
0.57620579004 0.1366392374 5.2226390839
2.2060146332 2.1370782852 -2.5130753517
1.8209148645 1.8833224773 -3.4746744633
1.2635439634 1.8356039524 -3.934399128
-3.7269201279 1.95099473 0.85686010122
-3.2787282467 2.260818243 0.23600657284
-3.7201106548 1.5626782179 0.16413497925
-3.7284758091 0.79627877474 0.18425410986
-3.7282004356 0.41906139255 0.83774983883
-3.9382500648 1.1844370365 0.87044686079
-2.7542808056 -1.1466120481 1.4842623472
-2.452498436 0.034888833761 -2.0116119385
0.46049228311 3.4535832405 -0.05042450875
-0.29801854491 3.6723544598 -0.41358566284
-1.2176525593 3.2953488827 -0.67566210032
-0.50244772434 3.8237431049 2.5018701553
-1.1119116545 4.0115709305 2.4684064388
-1.1115407944 3.7846972942 3.2505748272
-1.8816182613 3.830302 2.476433754
-1.8819845915 3.5769677162 3.2300486565
-1.9709866047 1.2830604315 4.7375020981
-2.5786156654 1.6373586655 4.4805173874
-2.5883321762 0.86314511299 4.5000967979
-3.0522654057 1.5973931551 4.0113415718
-3.1393477917 0.88702374697 3.8786282539
0.4510807395 -2.7117965221 3.9984641075
-0.16048917174 -2.4460160732 4.5786566734
-0.18837194145 -2.8630023003 3.9189043045
0.46300795674 -2.8566594124 3.2295720577
-0.19911497831 -2.9712696075 3.2851669788
-0.15424354374 -2.8611760139 2.6735639572
0.58225214481 -2.6464726925 2.5849618912
-0.18505649269 -1.9169596434 4.9504532814
-0.80362671614 -1.5002391338 4.9754714966
-0.80382466316 -2.2228138447 4.6331839561
-0.94629251957 -2.6427912712 4.0064840317
-0.9463775754 -2.8019444942 3.3737473488
-0.79908853769 -2.7166433334 2.6108188629
-1.4848912954 -1.3505901098 4.5676493645
[...]
CELL_DATA 710
SCALARS cell_data_0 double
LOOKUP_TABLE default
2.66957170391e-07
5.71130820679e-07
6.37983842595e-07
4.24573378837e-07
2.40106249504e-07
1.9604193233e-07
7.74257196436e-07
6.52555257689e-07
1.6449640891e-06
6.82314076755e-07
8.64888212534e-07
5.01298051578e-07
2.16345021485e-06
9.63709272228e-07
6.7716357403e-07
1.86870472729e-07
7.25111438751e-07
2.30136434418e-06
9.64478943672e-07
4.95451530676e-07
3.45337898036e-07
3.46068643888e-07
1.82706510129e-06
4.60736039622e-07
2.70794446132e-07
5.9093027834e-07
4.84010776807e-07
1.66979106835e-06
6.50182179634e-07
4.19241976435e-07
1.97844684017e-07
1.14735664501e-05
9.52340205186e-06
7.77876952245e-06
5.60936849267e-06
1.2199479403e-05
4.19836561008e-06
2.19943952246e-06
1.31603851428e-06
9.41423025624e-07
1.15808779871e-06
1.39438192793e-06
1.55922410116e-06
1.21794570091e-07
1.1973186889e-06
6.49715201931e-07
9.79839660674e-07
4.1693236166e-07
1.64755383776e-06
2.00535127897e-06
3.22989480917e-06
3.78421653667e-06
3.83768055388e-06
1.56082366474e-06
9.84273613472e-06
2.38778647799e-06
3.74283301757e-06
4.7279989595e-07
7.56383831387e-07
1.51318244957e-06
7.88954481451e-06
8.56246138243e-06
2.49751804253e-05
7.39437208143e-06
7.80450293816e-06
5.22190392709e-06
2.18556054122e-06
2.8211581806e-06
6.48755503669e-07
1.9807393042e-06
2.89953797638e-06
1.64581677564e-07
9.32887994695e-07
1.30724961073e-06
4.60351996434e-07
1.30073452379e-06
2.09181542732e-06
5.79010568651e-07
1.35933245759e-06
8.64180198893e-08
5.04764920053e-06
8.75913664121e-07
7.44374360959e-07
7.61897876668e-08
9.43951466145e-08
1.98160645771e-07
1.53127642418e-07
1.8824714188e-08
4.40419576759e-07
3.05119886803e-07
1.60476612176e-06
1.59505467762e-07
2.85237849359e-07
3.30022430674e-07
3.8123488061e-07
4.8388515854e-07
1.01219449339e-07
2.82224604548e-07
1.86421909727e-07
7.13414244314e-07
1.09453742931e-06
2.1683980981e-07
1.10674236318e-06
1.64953937345e-06
3.49845017594e-06
1.45293610964e-06
2.1450717827e-06
1.11190785896e-06
9.39047163572e-07
2.68053690539e-07
8.36316607368e-08
6.74944660573e-07
4.52533837503e-06
2.56574924154e-06
2.54874997083e-06
1.48420452719e-05
1.26732297956e-05
2.87464307393e-05
3.24013861315e-05
2.07257469078e-06
2.78296152414e-06
6.17404974438e-06
3.43778012817e-06
7.76263609453e-06
6.19189221389e-06
1.20590365066e-05
2.09249857328e-06
9.06664341395e-06
3.52408288187e-08
7.94020211905e-06
2.26251640865e-06
5.71791953196e-06
3.88433537451e-06
3.70968329291e-07
1.02726171873e-06
2.21339623663e-06
3.51916720703e-06
2.7777064991e-06
2.81819343549e-06
3.0295679451e-06
3.54212662998e-06
3.46535851419e-07
5.07782560917e-07
2.37025891232e-06
2.68209374839e-06
7.894453666e-07
1.49754339219e-06
3.21027988811e-06
1.05876493028e-08
9.19974717985e-07
2.37102426484e-06
4.16264120799e-06
1.64345001232e-06
7.95323991066e-06
5.7135747303e-07
5.10084504346e-07
7.61564490249e-07
4.37429585939e-06
1.00952717272e-05
1.61696787157e-05
1.75338602667e-05
2.06676924671e-05
6.56469888058e-06
1.09182715965e-06
3.95400818227e-06
7.42474600231e-06
2.38391910001e-06
1.62956055837e-06
2.51590258802e-06
1.7539259417e-06
6.95830061906e-06
1.3659122235e-05
1.88135822276e-07
1.44751282503e-06
1.90835160052e-06
4.37905974463e-07
7.37697812206e-07
2.28612915319e-06
1.53571134634e-06
4.979812014e-07
8.58340469363e-06
5.26834665071e-06
1.43288234357e-05
1.88041685484e-05
1.60289352173e-05
1.82960040183e-05
2.46657560146e-06
8.82637689513e-07
4.65905982995e-06
9.91236720409e-08
5.46109753552e-07
5.30580492093e-07
2.40679013806e-07
3.71871270091e-07
5.57633664602e-07
7.23569515787e-07
5.39350698263e-07
1.59646985828e-06
1.0510700859e-06
8.87743826943e-07
1.13866583621e-06
4.33999032226e-06
4.20666162506e-06
1.81082552488e-06
1.84196507529e-06
1.21798775384e-06
1.75844687778e-06
1.38623207212e-05
1.577453221e-06
3.7493963732e-06
8.78340075186e-07
9.36574350157e-07
1.82006244189e-06
1.55895274352e-06
6.18250695686e-06
4.09781112015e-06
1.97303240218e-05
5.36568716358e-06
4.44322345871e-06
6.41154302539e-06
6.64154289018e-06
6.08040797164e-06
2.46029433556e-06
7.88722601884e-07
3.34489650958e-07
1.74091941742e-07
3.58151449517e-07
8.17262629748e-07
8.92356833182e-08
1.26900777757e-06
4.59961078969e-06
1.18144979775e-06
2.94695524495e-06
2.101337991e-06
2.30724840016e-06
2.49528725397e-06
9.96813039944e-07
1.62318575064e-07
1.52461347145e-06
2.01327605528e-06
4.48209533239e-08
1.59272943029e-06
2.68624496763e-05
1.70488751552e-05
3.96771962202e-06
1.27482871377e-06
1.00462956842e-05
5.35687287922e-06
2.45711635796e-06
5.03286172118e-07
8.86110486344e-08
1.44534079244e-07
6.72708878038e-08
5.96485328853e-09
2.6402747726e-07
2.56732328824e-06
1.2342532492e-07
1.72630585963e-07
2.91640069958e-07
1.23103350178e-06
9.45214850742e-07
5.80987589485e-07
7.43644951996e-08
1.48139329589e-06
4.36294827147e-07
4.09382863958e-07
4.04068418309e-07
1.17260361436e-07
1.2043876969e-07
5.186657128e-07
1.38403707452e-07
6.01037831367e-07
1.88828801002e-06
1.739421589e-06
3.48273650154e-07
1.61440552703e-06
1.43203691333e-07
3.62773512806e-06
3.71721880836e-06
5.34955340514e-07
1.01301033505e-06
4.18900644247e-07
1.82425893665e-06
3.23560629569e-06
1.42540514008e-06
2.83485007165e-06
1.17384505222e-06
1.07611476119e-06
8.65487034874e-07
1.02812116491e-06
2.03667995186e-06
8.90304917559e-07
1.72812148353e-06
1.35383192773e-06
2.25638255157e-06
1.79623500738e-06
2.49525391992e-06
1.61500062226e-07
1.64171822401e-06
4.92657904907e-06
2.8318619372e-06
4.53975592038e-07
3.6926743847e-06
7.59103379084e-07
1.3045418096e-06
9.48752190716e-07
3.42597218725e-07
2.27369277093e-08
6.8193727319e-08
2.84792656982e-07
1.75359149645e-08
1.14951310344e-07
4.45697273486e-07
3.09068954983e-07
3.21915819401e-06
8.20599301731e-07
1.87012564929e-06
4.41745521242e-08
6.61167637554e-07
1.94684112204e-06
7.84318391077e-07
1.0682912916e-06
2.81417101409e-07
1.2309444995e-06
3.07511331205e-07
1.46025627289e-07
1.73646349035e-07
2.2874816387e-07
4.35255013668e-07
2.80475137402e-08
4.22476283747e-07
2.21684219462e-07
1.27332364556e-06
7.03398468731e-08
3.48606694796e-07
1.71336348023e-07
9.27654471224e-07
7.19831282686e-07
2.08080762277e-07
4.54754767585e-07
2.47098240835e-07
1.76319430003e-08
1.50542360301e-07
9.108950749e-08
1.492951228e-07
5.61501999397e-07
4.58439399739e-07
3.18445212765e-07
3.2719786417e-06
1.04022923556e-06
1.92751303418e-06
1.5318159052e-06
1.90836036025e-07
1.38082535783e-05
1.17174338563e-05
1.19003663871e-05
8.72953922599e-06
1.1489041788e-05
1.37531940427e-06
1.35327760718e-06
1.94755921919e-06
1.18773058784e-06
3.50416608089e-06
3.06848407761e-07
8.34216873117e-08
1.45833741649e-06
4.67270789371e-07
7.38204900405e-07
7.74964071785e-07
2.27240214501e-07
1.15792941127e-06
2.38828383683e-06
2.36463252076e-06
1.27400332281e-06
7.12321942541e-07
3.10076684402e-07
4.77919803044e-06
2.81176659164e-06
8.14172778003e-07
8.80711232702e-07
4.73653351885e-06
8.46116102252e-06
5.99037851382e-06
1.04377281832e-06
1.21473315835e-05
1.84144378218e-05
2.6090622985e-05
1.62775162186e-05
1.78348415158e-06
1.5937420207e-05
7.42494786675e-07
2.10129420193e-06
1.14967752874e-07
1.65553618573e-07
4.65065715995e-07
3.24270568903e-06
1.74143806581e-07
2.4230981741e-06
3.20470949119e-06
1.30566041029e-05
2.52745609697e-06
9.84026242503e-08
1.04209261127e-06
4.31223961258e-06
4.15682599394e-07
1.08736917372e-06
3.32263820283e-07
3.64243692222e-07
9.33630498463e-07
1.33374032806e-06
2.98372806479e-07
7.22890606293e-08
1.2156263006e-07
2.82633256503e-07
1.15907618632e-06
2.96325768138e-07
5.17468838577e-07
1.60682552731e-07
3.97821434623e-07
2.8925060919e-07
4.45229442317e-07
4.58997207458e-07
5.20428494417e-07
7.08487998709e-07
4.42494158314e-07
1.30607715247e-07
9.88228467446e-07
7.43967545835e-07
2.27146903339e-06
3.6703672061e-06
2.59226358276e-06
7.61756211788e-06
3.24649248066e-07
3.06196111304e-06
3.78113288792e-06
6.8253334412e-07
1.7820511625e-06
5.00080216938e-07
7.38227316721e-07
1.23560836645e-06
9.16452698733e-08
2.35365989934e-07
6.70056260323e-07
2.20175017575e-06
4.00298918073e-06
4.48735562136e-06
1.26752943284e-07
2.22163966255e-06
5.88354714018e-06
2.14315429229e-06
8.61910186641e-07
3.46643152086e-06
7.76759066933e-07
4.10135494449e-06
1.25753659099e-06
5.41236177627e-06
2.14145585568e-05
1.20610718795e-05
3.42727178535e-05
1.81140451467e-05
3.69749822192e-06
6.21218867407e-07
5.07576452015e-07
2.3756255289e-07
9.10707922515e-07
8.71410365689e-07
1.45015399779e-06
1.87837622417e-06
4.19608540022e-06
5.61780715463e-07
1.53143858464e-06
1.31875941521e-05
4.63269041878e-06
4.94801123734e-06
7.99609254381e-07
1.91344595108e-06
1.14581754803e-06
2.67275934658e-07
5.46558456246e-07
2.1932650155e-06
4.47766294451e-06
6.8698806757e-08
3.14622324528e-07
4.12424404249e-07
3.03657416366e-07
5.20309112533e-07
4.01601491441e-07
4.14709990737e-07
3.27866476712e-07
8.47030559992e-07
5.66944191753e-08
1.02779204299e-05
1.28079797561e-06
1.09034054878e-06
1.73172908434e-06
1.5496647177e-06
2.31508930198e-06
8.49728016013e-07
2.57730088753e-06
3.66673778481e-07
8.5682484921e-07
4.48342915176e-07
6.6510905501e-07
1.78696207235e-07
2.27309144728e-06
7.90131638434e-06
1.29177328963e-05
7.01300451488e-06
4.37245209786e-06
4.56410838572e-06
1.35498037119e-06
1.35418496838e-06
2.90942266636e-07
1.53689409412e-06
1.33291585769e-06
6.76474750848e-06
1.00492366026e-05
6.40352359351e-06
1.74986772219e-06
1.5853672933e-06
7.49979314565e-06
3.0719920794e-06
2.21519045889e-07
1.21762892013e-08
9.72189103907e-07
9.86666030742e-07
1.13512347475e-06
1.99615731644e-06
1.58573272789e-06
9.78608910353e-06
7.70782000187e-06
3.67739228664e-05
3.01487707295e-05
8.61929590192e-06
1.93435030011e-06
4.1170933396e-06
2.06007494081e-06
9.4944236787e-07
3.29743122467e-07
5.68951459291e-07
1.09050100545e-06
1.83650197463e-07
2.07986846447e-06
6.67741605564e-07
1.35356598302e-05
2.87215830751e-06
2.71272024591e-05
3.51392209605e-05
6.29828938797e-07
3.98007395356e-06
2.74699101436e-06
1.76351028915e-06
8.1052221338e-07
9.94884429896e-07
7.27958886527e-07
1.85910905897e-06
1.01769635551e-06
5.6686018332e-07
8.63112188443e-06
1.16067139462e-06
1.49789700896e-06
8.62081488445e-07
3.70496594801e-06
1.60460631451e-06
1.24519426026e-07
3.12178076006e-08
3.35955919941e-06
2.03100404864e-06
3.14955031063e-07
3.36173989252e-07
2.18686654596e-06
1.47979093226e-06
1.01238320834e-06
1.68625004947e-06
1.01975975042e-06
1.31126208291e-06
4.85991790958e-06
2.19261680978e-06
3.90373933945e-06
4.34410235816e-06
4.46981742361e-07
1.47138985117e-06
2.98905413979e-06
4.00683233435e-08
3.52387058274e-06
2.02026323762e-06
1.50422435479e-08
1.89087159721e-06
1.08732879452e-06
6.79887299381e-07
1.1194019121e-06
1.30611556957e-06
8.41644685113e-07
2.10391085382e-06
1.38739399491e-06
1.37610621515e-06
3.81214801252e-07
1.77110524944e-06
2.17123928367e-06
2.46242761971e-06
1.66267523159e-05
1.30931065152e-05
8.04658160232e-06
1.64832170283e-05
1.34357688119e-05
1.56792095423e-05
2.30674754886e-05
2.51182731592e-06
1.32727107264e-05
1.18699506001e-05
5.91157975884e-07
2.38232173964e-05
1.79531492101e-05
1.0921776557e-05
7.23481167866e-06
2.95367495479e-05
2.63410378594e-05
2.56461057779e-05
1.59622910081e-06
1.76752260822e-05
9.25784652607e-06
1.14801727166e-06
2.04784231494e-05
1.89206452877e-05
2.3032720765e-05
8.05977103591e-07
1.36612548953e-05
8.93712451363e-06
1.19586844474e-05
1.29004459349e-05
6.67295717113e-06
9.23669205601e-07
6.42429480811e-06
1.23804448989e-06
8.53729043241e-06
6.10115095388e-06
7.43141687758e-06
5.79810416786e-07
4.1992542921e-06
1.43425552305e-05
1.79458763189e-06
4.44799004972e-06
3.11638406376e-06
1.64693647735e-05
4.26675521163e-06
8.42600818666e-06
7.01750127693e-06
1.07934194419e-05
1.16364546664e-06
9.63316763337e-06
3.52133363554e-06
9.17899136674e-06
1.86844602219e-05
6.33063904292e-06
2.19952290109e-06
3.16734019892e-06
1.17240903829e-06
1.29023232011e-06
1.01106581698e-05
1.60330781942e-05
2.82936553268e-06
8.81425363832e-07
2.26508579932e-06
7.64744429527e-07
5.95137753736e-06
2.93120385382e-05
7.57786117695e-06
3.79677565544e-06
3.80527252199e-06
4.66617415487e-06
4.89135393056e-06
1.57806855588e-05
1.14151065427e-05
2.66555932871e-06
1.03987272682e-06
2.62834065676e-07
2.41887808569e-06
1.62089879743e-06
6.76348219645e-07
3.9977821894e-06
7.71254860264e-06
4.21973050752e-06
9.15578849672e-06
1.86637290448e-06
1.48911692973e-06
4.46255112287e-06
4.44801946975e-06
4.3888384638e-06
3.43705406803e-06
6.15708778436e-06
4.20145148851e-06
4.72742929474e-06
8.66806207035e-06
2.19504722244e-06
1.97679037668e-06
9.05756501943e-07
8.91156571713e-07
8.46476995516e-07
3.70395545328e-06
3.92017002682e-06
5.02845784881e-06
3.50496525452e-06
9.66166217647e-06
3.92409815858e-06
6.73671697513e-06
5.2465765656e-06
1.64894188972e-07
1.61881361349e-06
2.6663799326e-06
1.56502532208e-08

