# vtk DataFile Version 3.0
File Name: Molecule/arg/arg_1.0-4.vtk
ASCII
DATASET UNSTRUCTURED_GRID
FIELD FieldData 1
TIME 1 1 double
0.0
POINTS 211 double
-3.4446015358 0.24739670753 1.3995529413
-3.182431221 -0.077067166567 0.6233227849
-3.0522708893 -0.48532575369 1.4888942242
-2.7262973785 -0.52383542061 0.46558210254
-3.110919714 0.2484793216 -0.072188846767
-2.3112626076 -0.3522900641 -0.27829304338
-2.2960531712 -0.35922273993 -1.0060338974
-2.0600426197 -0.78354811668 -0.75446337461
-2.6539719105 1.3085659742 -0.75642037392
-2.5921976566 0.15207092464 -1.047231555
-2.2319278717 1.1306356192 -1.6046876907
-1.957177639 1.6759718657 -1.0541902781
-2.6591320038 2.0860798359 -0.29059913754
-1.4403537512 3.1739666462 0.21894314885
-1.7689871788 2.5953364372 -0.5585821867
-2.4832484722 2.6599321365 0.64994364977
-3.0304913521 2.3582427502 1.6163585186
-1.8309936523 3.3356771469 1.5156587362
-2.5165772438 2.9912159443 2.2956516743
-2.7310643196 2.5497686863 2.720192194
-3.0882241726 1.8153096437 2.3514280319
-3.5417153835 1.761305213 1.6406012774
-3.3944017887 0.81372052431 1.9427727461
-3.1898014545 0.96787053347 2.9080941677
-3.0101439953 0.44002315402 2.4297554493
-3.1180028915 0.12788598239 1.8557503223
-2.8487393856 0.22494828701 3.3679335117
-2.671785593 -0.13449707627 2.6546428204
-2.8757932186 -0.1964559257 2.1448349953
-2.4782702923 -0.76433074474 2.4059035778
-2.2207217216 -0.37757572532 3.3955402374
-1.7290428877 -1.7036044598 1.4294433594
-1.9415488243 -1.492621541 3.1761834621
-0.97548174858 -2.2636659145 2.132062912
-2.2636158466 -1.1574809551 0.4623260498
-1.0078442097 -2.1961984634 0.31158229709
-1.8682904243 -1.4179543257 -0.26210477948
-1.8808659315 -1.3050795794 -1.0973280668
-1.4908870459 -1.6616733074 -1.8595585823
-1.7503867149 -0.7642429471 -2.0667037964
-2.0807259083 -0.69538521767 -1.3403836489
-2.1090083122 -0.68295890093 -1.0362458229
-2.260235548 -0.41535937786 -1.820920825
-2.2547061443 0.22761492431 -2.2936420441
-1.5415555239 0.12935476005 -2.7168323994
-1.7284369469 1.0068954229 -2.4505417347
-1.084586978 0.70501726866 -3.4059453011
-1.5302991867 1.4915661812 -2.2641832829
-1.8516975641 1.4629254341 -1.7906360626
-1.2129793167 1.611232996 -2.8831889629
-1.0858278275 2.0765616894 -2.2137393951
-1.4722315073 1.8297936916 -1.7424566746
-1.1925199032 2.3975880146 -1.3792203665
-0.40955257416 2.5986821651 -2.4593877792
-0.35613951087 2.9116265774 -1.6837219
-0.9265640378 3.1990597248 -1.007222414
0.39850050211 3.091616869 -1.0388436317
0.35799765587 3.0505223274 -2.1057312489
-0.038627192378 3.2437241077 -2.8175563812
0.34091153741 3.4434819221 -2.7403516769
1.0546804667 2.4729750156 -0.47971376777
0.85278427601 2.6508705616 -1.422457099
1.5100978613 1.949837327 -1.0620532036
0.93237060308 2.7936434746 0.33711004257
1.5392410755 1.9171020985 0.08812674135
1.2173317671 2.2071733475 0.99788635969
0.26196870208 3.0712108612 0.99824565649
1.2560799122 2.2523841858 1.9882516861
0.71363389492 2.8237612247 2.6385471821
-0.16336338222 3.4000248909 2.0730626583
-0.45464152098 3.3411390781 3.4005737305
0.031113887206 2.5938224792 4.0558466911
-0.78997242451 2.8276839256 3.9263823032
-1.3103270531 3.6716089249 3.3937437534
-1.7371771336 2.8408763409 3.8485941887
-2.159535408 3.2321972847 3.2707164288
-2.3822691441 2.6543426514 3.4855206013
-1.0429913998 2.1050581932 4.405436039
-0.42487853765 1.6397408247 4.6292419434
-2.4507966042 2.2218210697 4.1056251526
-1.6980757713 1.7621968985 4.584341526
-3.0290045738 1.920899868 3.1728041172
-0.25528365374 0.94860523939 4.7883048058
-1.1014299393 1.1320559978 4.5939736366
-0.11982762069 0.34480041265 5.032933712
-0.72437870502 0.4851924479 4.6937427521
-1.6354447603 0.66814112663 4.6489906311
-0.76334106922 -0.45327174664 4.8710684776
-1.6914927959 -0.86640965939 4.3356113434
-2.3489918709 0.22279138863 4.2256317139
0.18473552167 -1.191385746 5.0823574066
0.36392426491 -0.31521740556 5.2127656937
1.275624752 -0.79757761955 5.3367915154
1.4459027052 -1.8593997955 4.6810512543
0.51797890663 -2.2548604012 4.526342392
1.982460022 -2.0861017704 3.4209656715
1.1019024849 -2.4495725632 3.2104640007
1.9637188911 -1.4687800407 2.3920354843
1.0048114061 -1.8627334833 2.1257901192
0.80293059349 -1.6403982639 1.2555048466
0.1353315115 -2.1550104618 1.2538056374
0.14651010931 -2.6035428047 2.2840330601
1.0411361456 -1.8302742243 0.32703223825
0.042842354625 -2.4810516834 0.2814476788
-0.77705717087 -1.9849704504 1.1794422865
1.3890968561 -0.84297370911 1.0939096212
1.4234445095 -1.0160546303 0.15324302018
1.4094477892 -1.2142202854 1.773475647
2.3307180405 -0.69358479977 1.9661612511
1.7039500475 -0.092614896595 0.68155556917
1.7493644953 0.18980994821 -0.35287892818
1.6508357525 -0.67024040222 -0.7419179678
1.5720697641 -1.4851652384 -1.6210092306
2.1964905262 -0.16590426862 -1.4577591419
2.1182210445 -1.1285996437 -2.4175703526
1.0437750816 -1.4545110464 -2.894967556
0.5031311512 -2.1615636349 -2.1373922825
-0.25554376841 -1.4166562557 -2.6607441902
0.11210216582 -0.69764041901 -3.5285558701
-0.99140256643 -1.3414387703 -2.3851969242
-0.99885457754 -0.6892863512 -2.6642282009
-0.71797305346 -0.2016608119 -3.2885901928
-0.39263531566 -0.71254748106 -3.0166819096
-0.20088019967 0.51815295219 -3.986733675
0.55265134573 0.40753659606 -4.2368292809
-0.41402882338 1.9141697884 -3.5853536129
0.35787260532 1.3254593611 -4.3974971771
0.093287982047 2.8180217743 -3.7330548763
-0.19004814327 2.9997699261 -3.2646920681
0.61340397596 3.1452152729 -3.8533365726
1.0004109144 2.9749696255 -3.5835897923
0.50645780563 2.4414792061 -4.0752811432
1.0716257095 3.0796663761 -2.8254480362
1.4525052309 2.6033349037 -3.3465118408
1.6386021376 2.7121801376 -2.5586235523
0.63114726543 3.3047981262 -2.6504216194
1.1531355381 2.5971002579 -2.0336811543
2.1854865551 2.1675336361 -2.4922645092
2.1070723534 1.6330736876 -1.9090114832
2.4426517487 1.2243118286 -2.3192343712
2.3913958073 0.71697342396 -1.6920824051
1.9588243961 0.90577465296 -1.0793879032
1.9704068899 0.93708926439 0.022288423032
1.8568657637 1.2828452587 -3.8145172596
2.2450373173 1.9468706846 -3.0417361259
1.1771248579 1.629965663 -4.1881895065
1.8903436661 1.2980597019 1.3399213552
2.5413038731 0.94781470299 2.5672569275
1.8571484089 1.5686752796 2.3646473885
1.6340210438 2.2794601917 3.1823501587
2.2678883076 1.5418294668 3.3612833023
1.5236216784 1.6653989553 4.2906937599
2.319801569 1.1451410055 4.6600289345
1.3624446392 0.7630418539 5.0772109032
0.55649900436 1.6822317839 4.731616497
0.47218370438 0.79647272825 5.0072569847
0.1064170748 2.0310788155 -4.1104574203
0.94556963444 2.2079935074 -4.0179681778
1.716555357 2.1038293839 -3.4730789661
-3.5216681957 2.2032175064 0.79672569036
-3.530056715 1.6148222685 -0.092963166535
-3.933068037 1.1362687349 0.83174932003
-2.6728692055 -1.2488939762 1.3351293802
0.40414178371 3.4697749615 -0.09058791399
-1.1106832027 4.0090970993 2.4946942329
-2.1094512939 3.6517326832 2.5132882595
-2.8540160656 1.3225098848 4.3402552605
-0.62521713972 -2.6127383709 4.2871570587
-0.7953608036 -1.6634186506 4.9331111908
-1.5515506268 -1.8608824015 4.2405138016
-0.84682756662 -2.8441450596 3.2043969631
0.1884124577 -2.9207046032 3.3444526196
0.47794750333 -2.7898552418 -0.89742767811
-0.92246496677 -2.6985862255 -0.76357769966
-0.58865511417 -2.4390389919 -1.951371789
1.382371664 -2.0937964916 -0.77293604612
0.99717867374 2.4239096642 4.0450472832
3.6672236919 -0.31776627898 3.697488308
3.3637313843 0.68871963024 3.7192981243
3.3182070255 0.19674359262 4.6425366402
3.3335413933 -0.88643991947 4.5816168785
3.2116241455 -1.5041707754 3.6774938107
3.2381618023 -0.85617411137 2.6688511372
3.3349659443 0.19615408778 2.7798540592
2.3033061028 0.21344482899 5.3896660805
2.487626791 -0.82879465818 5.325322628
2.5726466179 -1.6429754496 4.6701498032
2.8778731823 1.1840746403 3.4852864742
2.0360479355 -1.7795352936 4.7190556526
2.8901736736 0.035135179758 -2.4775960445
2.5722498894 -0.61630618572 -3.3737609386
2.6678144932 0.47518771887 -3.6032767296
1.8085870743 -1.2029517889 -3.4256336689
1.8117436171 -0.28429675102 -4.2496948242
0.88883972168 -0.72673803568 -4.0876960754
0.93216061592 3.451523304 -3.158408165
0.20484660566 3.3408658504 -3.7651200294
0.071338973939 3.613404274 -3.2579512596
0.69857853651 1.8702789545 -4.4865131378
0.40221938491 2.0845062733 -4.3103275299
1.1182408333 1.9257478714 -4.1299853325
2.0711078644 2.5727055073 -2.9515542984
2.0371010303 2.3636057377 -3.2474098206
1.0398465395 1.8995535374 -4.1841726303
0.99838680029 -2.4517071247 3.9644405842
1.7105624676 -2.1354281902 4.0814495087
2.3127617836 1.3969886303 4.115093708
0.42409539223 -2.7190945148 3.9904315472
0.7043107152 -2.7362101078 3.3252241611
2.3334200382 -2.0129213333 4.1070580482
2.9086782932 1.089238286 4.1760091782

CELLS 418 1672
3 0 1 2
3 2 1 3
3 1 4 3
3 5 6 7
3 4 8 9
3 9 8 10
3 8 11 10
3 12 11 8
3 13 14 15
3 12 15 14
3 15 16 17
3 17 16 18
3 19 16 20
3 21 20 16
3 21 22 20
3 22 23 20
3 24 22 25
3 0 25 22
3 23 24 26
3 27 26 24
3 25 28 24
3 28 25 2
3 2 29 28
3 29 30 27
3 29 31 32
3 32 31 33
3 31 34 35
3 35 34 36
3 34 5 36
3 3 5 34
3 36 7 37
3 38 37 39
3 40 41 6
3 9 6 5
3 9 42 6
3 40 39 37
3 42 43 39
3 44 39 43
3 43 45 44
3 44 45 46
3 47 45 48
3 10 48 45
3 49 47 50
3 51 50 47
3 51 11 52
3 52 11 14
3 53 50 54
3 52 54 50
3 55 56 54
3 54 56 57
3 54 57 53
3 58 57 59
3 56 60 61
3 61 60 62
3 60 63 64
3 64 63 65
3 63 66 65
3 67 66 68
3 69 66 17
3 13 17 66
3 69 70 68
3 68 70 71
3 72 73 74
3 75 74 73
3 74 75 76
3 18 19 75
3 72 77 71
3 71 77 78
3 79 80 74
3 76 79 74
3 79 76 81
3 20 81 19
3 82 78 83
3 80 83 77
3 84 82 85
3 86 85 83
3 87 86 88
3 89 88 86
3 89 30 88
3 88 30 32
3 85 87 84
3 90 91 87
3 92 90 93
3 94 93 90
3 95 96 97
3 98 97 96
3 99 98 100
3 101 100 98
3 99 100 102
3 103 102 100
3 104 100 33
3 101 33 100
3 100 104 103
3 103 104 35
3 102 105 99
3 106 105 102
3 97 107 108
3 105 108 107
3 109 106 110
3 111 110 106
3 111 112 113
3 113 112 114
3 114 112 115
3 116 115 112
3 116 117 115
3 115 117 118
3 119 120 117
3 121 122 120
3 120 119 39
3 38 39 119
3 120 44 121
3 121 44 46
3 123 118 121
3 118 123 124
3 123 125 126
3 127 125 128
3 129 130 131
3 130 132 133
3 133 132 134
3 132 135 136
3 61 136 57
3 134 136 137
3 138 137 136
3 139 138 140
3 141 140 138
3 141 62 142
3 142 62 64
3 142 110 141
3 110 113 141
3 139 143 144
3 143 124 145
3 109 146 108
3 108 146 147
3 148 146 67
3 65 67 146
3 149 150 148
3 147 148 150
3 149 151 150
3 152 151 153
3 154 153 151
3 154 82 155
3 155 82 84
3 155 91 153
3 153 91 92
3 25 0 2
3 5 3 4
3 4 9 5
3 48 10 11
3 14 11 12
3 17 13 15
3 19 18 16
3 81 20 23
3 24 23 22
3 26 27 30
3 32 30 29
3 104 33 31
3 104 31 35
3 7 36 5
3 40 37 41
3 42 39 40
3 49 46 45
3 47 49 45
3 52 50 51
3 58 53 57
3 55 54 52
3 135 57 136
3 61 57 56
3 64 62 60
3 67 65 66
3 69 68 66
3 72 71 70
3 78 77 83
3 83 85 82
3 87 85 86
3 92 91 90
3 107 97 98
3 107 98 99
3 107 99 105
3 109 108 105
3 109 105 106
3 113 110 111
3 122 118 117
3 122 117 120
3 126 124 123
3 127 156 125
3 133 157 130
3 136 134 132
3 139 137 138
3 140 141 113
3 145 158 143
3 148 147 146
3 155 153 154
3 159 160 161
3 161 160 4
3 0 161 1
3 161 0 22
3 161 22 21
3 161 21 159
3 159 21 16
3 159 16 15
3 160 159 12
3 15 12 159
3 160 12 8
3 160 8 4
3 4 1 161
3 3 34 162
3 3 162 2
3 2 162 29
3 27 28 29
3 29 162 31
3 31 162 34
3 7 41 37
3 41 7 6
3 10 43 9
3 42 9 43
3 40 6 42
3 45 43 10
3 11 51 48
3 48 51 47
3 13 66 163
3 13 163 55
3 13 55 14
3 52 14 55
3 55 163 56
3 56 163 60
3 60 163 63
3 63 163 66
3 73 164 165
3 73 165 75
3 70 73 72
3 73 70 164
3 164 70 69
3 164 69 17
3 164 17 165
3 165 17 18
3 165 18 75
3 77 74 80
3 19 76 75
3 76 19 81
3 74 77 72
3 23 26 166
3 23 166 81
3 81 166 79
3 79 166 80
3 166 86 80
3 83 80 86
3 86 166 89
3 89 166 26
3 89 26 30
3 27 24 28
3 167 168 169
3 167 169 170
3 167 170 171
3 167 94 168
3 168 94 90
3 168 90 87
3 168 87 88
3 168 88 169
3 169 88 32
3 169 32 170
3 170 32 33
3 170 33 101
3 170 101 171
3 96 101 98
3 172 173 174
3 172 174 116
3 172 116 175
3 172 175 102
3 172 102 103
3 172 103 173
3 173 103 35
3 173 35 36
3 173 36 37
3 173 37 38
3 173 38 174
3 174 38 119
3 174 119 117
3 174 117 116
3 102 175 106
3 106 175 111
3 111 175 112
3 112 175 116
3 44 120 39
3 125 49 53
3 49 125 46
3 46 125 123
3 46 123 121
3 122 121 118
3 50 53 49
3 62 141 138
3 62 138 136
3 62 136 61
3 65 146 64
3 64 146 142
3 110 142 109
3 146 109 142
3 68 71 176
3 68 176 149
3 68 149 67
3 67 149 148
3 149 176 151
3 151 176 154
3 154 176 71
3 154 71 78
3 154 78 82
3 91 84 87
3 84 91 155
3 177 178 179
3 177 179 180
3 177 180 181
3 177 181 182
3 177 182 183
3 177 183 178
3 179 184 185
3 180 179 185
3 180 185 186
3 181 180 186
3 181 95 97
3 181 97 182
3 182 97 108
3 182 108 183
3 183 108 147
3 178 183 187
3 179 152 184
3 184 152 153
3 184 153 92
3 184 92 185
3 185 92 188
3 189 190 191
3 190 192 193
3 191 190 193
3 193 192 194
3 193 194 124
3 193 124 143
3 193 143 191
3 191 143 139
3 191 139 189
3 189 139 140
3 189 140 113
3 189 113 114
3 189 114 190
3 190 114 192
3 192 114 115
3 192 115 194
3 194 115 118
3 194 118 124
3 58 128 53
3 53 128 125
3 59 135 195
3 135 59 57
3 127 128 196
3 196 128 197
3 59 197 58
3 58 197 128
3 129 196 195
3 197 195 196
3 197 59 195
3 129 195 130
3 196 129 127
3 127 129 131
3 130 195 132
3 132 195 135
3 125 156 126
3 198 126 199
3 157 131 130
3 127 131 156
3 158 144 143
3 139 144 137
3 124 126 145
3 199 157 198
3 145 200 158
3 200 157 158
3 157 133 158
3 201 202 133
3 156 131 199
3 203 198 157
3 131 157 199
3 156 199 126
3 126 198 145
3 200 203 157
3 145 198 203
3 203 200 145
3 137 201 134
3 134 201 133
3 158 133 202
3 201 144 202
3 201 137 144
3 202 144 158
3 94 204 93
3 93 204 205
3 95 205 96
3 96 205 204
3 152 206 151
3 151 206 150
3 171 207 167
3 167 207 94
3 96 208 101
3 101 208 171
3 171 208 207
3 208 204 207
3 208 96 204
3 207 204 94
3 186 209 181
3 181 209 95
3 150 187 147
3 147 187 183
3 178 187 210
3 187 206 210
3 187 150 206
3 210 206 152
3 178 210 179
3 210 152 179
3 93 188 92
3 185 188 186
3 186 188 209
3 188 205 209
3 188 93 205
3 209 205 95

CELL_TYPES 418
5
5
5
5
5
5
5
5
5
5
5
5
5
5
5
5
5
5
5
5
5
5
5
5
5
5
5
5
5
5
5
5
5
5
5
5
5
5
5
5
5
5
5
5
5
5
5
5
5
5
5
5
5
5
5
5
5
5
5
5
5
5
5
5
5
5
5
5
5
5
5
5
5
5
5
5
5
5
5
5
5
5
5
5
5
5
5
5
5
5
5
5
5
5
5
5
5
5
5
5
5
5
5
5
5
5
5
5
5
5
5
5
5
5
5
5
5
5
5
5
5
5
5
5
5
5
5
5
5
5
5
5
5
5
5
5
5
5
5
5
5
5
5
5
5
5
5
5
5
5
5
5
5
5
5
5
5
5
5
5
5
5
5
5
5
5
5
5
5
5
5
5
5
5
5
5
5
5
5
5
5
5
5
5
5
5
5
5
5
5
5
5
5
5
5
5
5
5
5
5
5
5
5
5
5
5
5
5
5
5
5
5
5
5
5
5
5
5
5
5
5
5
5
5
5
5
5
5
5
5
5
5
5
5
5
5
5
5
5
5
5
5
5
5
5
5
5
5
5
5
5
5
5
5
5
5
5
5
5
5
5
5
5
5
5
5
5
5
5
5
5
5
5
5
5
5
5
5
5
5
5
5
5
5
5
5
5
5
5
5
5
5
5
5
5
5
5
5
5
5
5
5
5
5
5
5
5
5
5
5
5
5
5
5
5
5
5
5
5
5
5
5
5
5
5
5
5
5
5
5
5
5
5
5
5
5
5
5
5
5
5
5
5
5
5
5
5
5
5
5
5
5
5
5
5
5
5
5
5
5
5
5
5
5
5
5
5
5
5
5
5
5
5
5
5
5
5
5
5
5
5
5
5
5
5
5
5
5
5
5
5
5
5
5
5
5
5
5
5
5
5
5
5
5
5
5
5
5
5
5
5
5
5
5
5
5
5
5

CELL_DATA 418
SCALARS cell_data_0 double
LOOKUP_TABLE default
9.30364129136e-08
4.53727232617e-07
1.21304875464e-06
1.15362588539e-07
4.70739562027e-06
4.79443853748e-06
8.04433945504e-06
9.92851152321e-07
9.9563774571e-07
3.26508237e-06
1.10362560068e-06
1.08280753411e-07
8.20883806526e-07
7.47403176185e-07
7.39079212845e-07
7.6870672701e-07
5.79982302849e-07
1.87277723973e-09
5.38488143531e-07
2.83507034216e-06
1.07958169426e-07
1.0031173214e-06
3.06331727195e-06
6.73459822894e-07
5.88147681634e-06
1.83370945587e-05
3.86741666609e-06
8.12725354544e-07
2.02291788939e-06
5.19398413825e-07
2.74076169299e-06
5.65156424052e-06
5.51891590234e-07
1.0256118016e-06
3.07411886213e-07
8.94388646021e-07
3.47938706164e-06
1.07059353416e-06
2.33502046994e-06
2.69725015198e-07
2.39990362887e-06
4.02995875729e-07
1.74255054106e-06
1.90161990405e-07
3.43095894664e-06
3.00324974007e-06
3.04955038008e-06
4.45522762006e-06
1.4178763081e-06
1.7925190853e-07
1.15562687187e-05
9.68745224447e-06
9.02856507742e-07
4.40998219301e-06
2.90867637811e-06
1.20093460691e-06
4.11301338427e-06
2.29248058235e-05
1.68386650768e-05
7.71542567111e-07
1.89731937936e-05
1.11427082904e-05
3.85639202188e-07
1.0713435149e-06
6.18181862218e-07
1.21783548963e-06
1.66295605989e-06
5.31813606944e-07
4.45811614726e-08
6.47324259732e-07
1.06898630532e-06
1.32004446201e-06
2.20721686337e-07
6.17414770835e-07
2.34563774803e-07
2.25519975061e-06
6.72688811951e-07
2.95539762121e-06
1.00217305762e-05
3.91851652367e-05
2.68849474086e-06
4.40220200474e-07
1.88862178605e-05
1.97448163614e-05
5.876410319e-05
1.29566203583e-05
2.8083372032e-06
1.54295711121e-05
7.89591763916e-06
1.40202145825e-05
1.96945028128e-06
9.04235925266e-06
1.58134778247e-06
4.25439111565e-06
2.47255753761e-06
2.51354805772e-06
4.9992587503e-06
1.76108888136e-06
1.0089177819e-05
3.70719103604e-06
1.19350738218e-06
1.08042565094e-06
3.17151833411e-06
4.61728880485e-06
7.96805826712e-06
3.43355611696e-06
8.12780639458e-07
1.00090802788e-06
1.82073442572e-06
3.53669869786e-06
3.72573484134e-06
8.1596179376e-06
8.28201859401e-06
2.32936234492e-05
2.06321589308e-05
6.05903971445e-06
7.85060057279e-06
3.10306813367e-05
3.13308478869e-06
3.16646436225e-05
1.50015662442e-06
3.83874152402e-05
2.36894663404e-05
1.10175187706e-05
4.24770630876e-06
2.01392030913e-06
5.92933876778e-06
5.45953881894e-06
1.3002354992e-05
9.57032632397e-06
6.89089920659e-06
1.92062555857e-05
5.48986454277e-06
1.25448152723e-06
1.82895877171e-06
3.69665117547e-05
3.08410749837e-05
3.35700206631e-05
1.5820985701e-06
2.22067190429e-05
1.28443701203e-06
1.41307317312e-07
9.25040841851e-07
5.27996106553e-06
3.68910580979e-07
1.22185744709e-06
9.7744334102e-06
2.24684796961e-06
3.9996536851e-06
1.23306899785e-05
1.6973997615e-06
5.01647851161e-07
3.24358326708e-06
9.48267705117e-06
2.24233347887e-05
3.75470815311e-06
8.64222731227e-06
1.78876104363e-06
1.36193653711e-06
5.19616011762e-07
4.93372887138e-06
2.94496602242e-06
4.21682577861e-06
4.79478743735e-06
5.86896863244e-06
5.55505426284e-06
1.53510362306e-06
6.47376793045e-06
7.52890588564e-07
2.93502973868e-05
8.67777067782e-07
1.36847398824e-06
1.28724829035e-06
9.198835917e-07
8.6185869297e-06
8.43821150668e-06
8.85595662317e-06
1.76413581405e-06
6.7830154103e-07
3.32440883829e-06
6.98350799372e-06
6.60740480143e-07
3.63545740826e-07
6.60289634505e-05
5.9541617777e-05
6.00477693542e-05
6.28397104539e-05
3.81195887905e-05
7.60156029536e-07
5.65488840573e-05
1.77930266042e-05
3.68447241724e-06
8.7498220684e-07
3.11985112574e-06
3.88535997367e-07
4.03793326317e-08
1.08342040283e-06
2.45060304633e-07
4.01073152737e-07
1.17956208421e-06
5.28402645104e-07
3.45348592947e-06
1.37816408515e-06
7.61612180012e-06
1.33127790835e-06
5.69934304074e-08
5.30200925106e-06
7.48840384261e-06
3.27892163512e-07
2.09624018684e-06
2.97521872132e-06
1.23428442328e-07
3.78944082269e-07
2.47749301407e-05
2.29765557037e-06
5.15625022352e-07
1.99577492371e-06
1.25546191747e-06
1.0134964312e-07
1.04187122916e-05
4.22158323288e-06
7.22510634022e-08
2.1991552851e-06
1.96450231179e-06
2.29435029772e-06
2.94999927809e-06
8.92941801851e-07
4.91314285633e-07
1.42095055439e-06
1.47799471802e-06
1.65863914587e-08
8.36135914758e-06
7.04970911877e-06
4.08987897028e-06
8.74279458938e-08
8.83127551988e-07
5.82529512148e-07
4.24216895559e-07
3.28089526288e-07
3.1019522344e-07
5.13673252476e-06
2.22324337194e-07
2.05436322533e-07
3.39098160878e-07
1.93758694914e-06
4.09408460932e-07
2.94516035305e-06
8.92923991237e-06
1.37145302066e-05
2.37869959372e-06
1.9063587672e-06
2.26017805628e-05
2.01432855525e-05
8.44403194329e-06
8.90303333229e-06
5.65766909796e-07
7.27914453918e-06
1.02011346637e-05
2.02775712986e-06
4.87075643065e-05
3.4214487657e-05
2.75468698511e-05
3.93595073808e-06
3.07081756318e-05
8.51059053326e-06
4.1656669202e-07
7.35315041431e-06
1.44591815925e-05
1.98444010552e-06
7.0515017617e-06
1.86501500605e-06
3.20939128831e-06
1.98089199255e-06
7.48969179353e-06
5.3123020451e-07
1.68576137277e-06
6.7713116719e-07
7.65488442986e-06
2.47514771332e-06
7.06156719994e-06
9.81128147956e-07
3.65118887245e-06
9.13948017378e-06
2.67280586139e-05
6.2227092339e-06
2.80834824003e-05
4.81206326331e-06
6.19029425865e-07
3.75763226867e-06
3.54381890389e-06
2.27123870522e-05
9.38662191607e-06
1.13946627045e-06
4.8849024374e-06
1.98546731057e-07
3.71084908035e-06
3.59178950399e-05
7.9509495711e-05
2.59133069722e-05
1.92121879128e-05
9.11251209058e-06
1.00701839503e-05
1.9145257942e-05
1.01270235603e-06
1.62905977438e-07
7.06041756274e-07
2.63433810847e-06
2.58430759502e-06
7.17546988129e-06
1.46107443398e-05
2.16723744079e-05
1.76354875332e-05
1.329516928e-07
2.91015882237e-06
1.68818652277e-06
3.43436412622e-06
1.12521522461e-05
7.49761630819e-05
1.69993685371e-05
3.0137350669e-06
2.39629902776e-06
1.33116718642e-05
1.96634006154e-06
1.58946348057e-05
1.01942001389e-05
7.64199452305e-06
7.58124087932e-06
6.43794795378e-06
2.67431442998e-06
3.90597300746e-07
1.9173623224e-06
3.26308436285e-06
7.40798032868e-06
2.39446410423e-06
4.30698476737e-06
1.58579777206e-05
2.57964726024e-06
5.53432240075e-06
2.39917725317e-06
7.80789086904e-06
2.33996481158e-07
2.17432391001e-06
8.37016778218e-07
4.2086736701e-06
1.14306547863e-05
1.77135567237e-06
8.83265658275e-06
4.17238457908e-05
1.88007448473e-05
9.73035942776e-06
1.67722912803e-05
3.76574406204e-05
1.07540354414e-05
8.62799302176e-06
6.16721211039e-05
0.000140280689842
1.37108828678e-05
2.53942516786e-05
2.82019286814e-05
9.07363398561e-06
2.80554336567e-05
3.62094865068e-05
6.22632846849e-05
1.49752713561e-05
1.25556190563e-05
2.04068506828e-06
3.7075323095e-05
2.72689853266e-05
6.01124650692e-05
5.27435539696e-06
1.23117668233e-05
1.66023488371e-05
5.17075246779e-06
1.76318075474e-05
1.54511547128e-05
8.55823017178e-07
8.64473564755e-06
3.8434145663e-05
4.38391889216e-05
3.39364636765e-06
1.83114247442e-05
1.97957978877e-06
3.18292805349e-05
3.23495088487e-05
1.55118446875e-05
1.40263704793e-05
4.33824976047e-06
1.5286178151e-05
5.01343908492e-06
4.68956659528e-06
2.633460266e-05
1.11486068548e-07
1.37012187989e-05
1.87151506964e-05
1.19392967753e-05
4.73737603359e-06
1.54044572162e-05
2.58149712597e-05
5.88958853752e-06
1.93262531526e-06
1.95219722403e-05
3.20873505194e-06
3.61335122188e-06
3.28970118194e-05
1.34547140048e-07
3.93699924285e-06
3.681177583e-06
3.16204670963e-06
1.18338064851e-05
6.5332855127e-06
3.02801195245e-06
1.04751448106e-05
2.88655069224e-06
8.74973039004e-06
8.44748861955e-06
4.17331927755e-06
2.73000960533e-05
4.573161181e-06

