# vtk DataFile Version 3.0
File Name: Molecule/arg/arg_4.0-2.vtk
ASCII
DATASET UNSTRUCTURED_GRID
FIELD FieldData 1
TIME 1 1 double
0.0
POINTS 692 double
-2.9909946918 -0.3589515388 1.8334040642
-3.2623100281 0.15682800114 1.6399371624
-3.0460619926 -0.5483891964 1.3829433918
-3.4315078259 0.075360298157 1.1350462437
-2.8880007267 -0.63603168726 0.72099137306
-3.2594778538 -0.025642581284 0.48340460658
-2.7773530483 -0.21869927645 0.22997868061
-2.6059696674 -0.48161068559 0.24878621101
-2.4532489777 -0.29177880287 -0.073258511722
-2.4948177338 -0.13066789508 -0.29127323627
-2.9756336212 0.066462881863 -0.0052895024419
-2.3241724968 -0.42288857698 -0.16368536651
-2.2332861423 -0.41630578041 -0.92104607821
-2.2246642113 -0.44957271218 -0.61934167147
-2.5228893757 -0.00082532153465 -0.64304715395
-2.7991268635 0.40912911296 -0.69410657883
-3.2211406231 0.5367744565 -0.2646549046
-2.414765358 -0.23255173862 -1.1178063154
-2.6146893501 0.14385153353 -1.376499176
-2.7542319298 1.0169192553 -0.83197563887
-3.1768181324 1.2725995779 -0.43075487018
-2.5572464466 0.80739170313 -1.4003310204
-2.7845466137 1.6841236353 -0.53060299158
-2.3447365761 1.2476696968 -1.1152225733
-2.3225140572 1.5001186132 -0.85861217976
-2.20175457 1.1395951509 -1.6640639305
-2.542178154 2.0019638538 -0.438652426
-2.0187013149 1.7914727926 -0.83353924751
-1.7021925449 1.8058962822 -1.3079739809
-1.9685168266 1.4757711887 -1.4714338779
-1.9624226093 2.2054545879 -0.55620080233
-2.1525168419 2.5391786098 -0.083529472351
-2.6821928024 2.404207468 0.053640082479
-1.6673103571 2.9156601429 -0.39341649413
-1.5911439657 2.4767136574 -0.85886621475
-2.4967565536 2.6443574429 0.63518399
-1.8566731215 2.8148992062 0.37288790941
-1.4661244154 3.1641566753 0.18057414889
-2.7537813187 2.6354522705 1.1523869038
-2.1401088238 2.8712761402 1.1537791491
-2.4304783344 2.8624286652 1.5253741741
-1.872699976 3.3129448891 1.4541344643
-2.2063605785 3.3018677235 1.8845126629
-2.7330853939 2.5581624508 1.8467479944
-3.1944277287 2.2779648304 1.4894070625
-2.5137324333 2.9911389351 2.3184428215
-2.9068558216 2.3295695782 1.938370347
-3.0779232979 2.0189497471 2.1190285683
-3.4247741699 1.7997500896 1.7696784735
-2.7453849316 2.5073127747 2.3909306526
-2.9687488079 2.0481283665 2.6157946587
-3.565482378 1.2495418787 1.8281718493
-3.1565825939 1.6979653835 2.316557169
-3.2610080242 1.1213047504 2.3963561058
-3.116738081 1.7903528214 2.9694781303
-3.2547135353 1.1138769388 3.0025143623
-3.3920662403 0.59765917063 1.8773964643
-3.1218512058 0.67938101292 2.4263563156
-3.1119232178 0.60481548309 2.9588603973
-3.1102089882 0.36554974318 2.0905623436
-3.0496547222 0.02423533611 1.9229323864
-2.9135870934 0.099149487913 2.252982378
-3.0153961182 0.45528307557 2.4888854027
-2.8970651627 0.30949577689 2.6639938354
-2.9434964657 0.32139369845 3.0987238884
-2.8421859741 -0.35076159239 2.16578722
-2.4665868282 -0.25665506721 2.8950800896
-2.7420403957 -0.027056030929 2.5806703568
-2.5382788181 -0.65137642622 2.4500808716
-2.6077136993 -0.0091160945594 3.4056274891
-2.4320731163 -1.1411437988 2.2353551388
-2.1677470207 -0.80492281914 2.8551740646
-2.0490117073 -1.3392273188 2.6991677284
-2.027605772 -1.1085937023 3.3393394947
-1.9277075529 -1.606957674 3.1352314949
-1.9571361542 -1.5755038261 2.2493619919
-2.2965376377 -1.4269326925 1.8411052227
-1.7304160595 -1.9612098932 2.769775629
-1.9462547302 -1.6761997938 1.5854284763
-1.5702596903 -1.8688651323 2.0942516327
-1.3865355253 -2.1968874931 2.413258791
-1.2943996191 -1.8455044031 1.6627240181
-1.5583101511 -1.7385499477 1.2538542747
-0.99828624725 -2.239720583 2.0368421078
-1.9772605896 -1.615124464 0.92487967014
-1.2526751757 -1.8269928694 0.77283215523
-1.5929057598 -1.7491050959 0.42718547583
-0.99044317007 -2.2137525082 0.30542626977
-1.4430789948 -2.056460619 -0.017910506576
-1.9599952698 -1.374671936 0.10212044418
-2.374178648 -1.2148422003 0.60125750303
-1.8237440586 -1.6532815695 -0.47026106715
-2.4423046112 -0.82657361031 0.26951450109
-2.0445611477 -1.0027494431 -0.20267796516
-1.952277422 -1.1852573156 -0.73196578026
-2.1710071564 -0.65319806337 -0.24857479334
-2.0639915466 -0.7691513896 -0.74910503626
-2.0149040222 -0.8814394474 -1.1924118996
-1.8851783276 -1.4275554419 -1.1634969711
-2.3040394783 -0.43711650372 -1.4094896317
-2.133174181 -0.64060950279 -1.0399661064
-1.9153152704 -0.88719594479 -1.6419756413
-2.1259448528 -0.49889162183 -1.9134318829
-1.6954526901 -1.2984365225 -1.7712156773
-2.0029070377 -0.25944161415 -2.2869515419
-1.7727456093 -0.75400203466 -2.0434689522
-1.6562088728 -0.41560411453 -2.4472355843
-1.9085074663 0.17045259476 -2.5085160732
-1.4806752205 0.10335823148 -2.7560553551
-1.6105242968 0.81620937586 -2.6652832031
-1.500212431 0.36321541667 -2.7742066383
-2.0100200176 0.64341944456 -2.4237987995
-1.1613004208 0.42828482389 -3.192656517
-1.3358449936 0.95386016369 -3.035831213
-1.6496474743 1.188726902 -2.3837954998
-2.0166635513 1.0301119089 -2.1782622337
-1.3966554403 1.4119483232 -2.6110217571
-1.7007387877 1.4250239134 -2.0913131237
-1.0863552094 2.0030858517 -2.4513549805
-1.4655557871 1.8237987757 -1.761956811
-1.3951119184 2.1356499195 -1.366429925
-1.7021453381 2.0397405624 -0.96141755581
-1.255723238 2.5967991352 -1.2427418232
-1.0519434214 2.2376186848 -1.7694699764
-0.65567564964 2.6936569214 -1.6708395481
-0.82085174322 3.0502820015 -1.1852728128
-0.50885403156 2.5239191055 -2.3783948421
-0.41757053137 2.9533224106 -1.5134786367
-0.11376599967 3.534566164 -0.77548950911
0.30358058214 3.0150308609 -1.3609306812
0.47128197551 3.141541481 -0.90882635117
-0.16629849374 2.9403319359 -1.9854480028
0.34561595321 3.0150558949 -1.9762936831
0.010082526132 3.1138453484 -2.5401172638
0.46526175737 3.1720578671 -2.4448974133
-0.066708162427 3.3126940727 -2.9669311047
0.20294308662 3.4081122875 -2.7307288647
0.81491786242 2.9321696758 -0.59081733227
0.94804131985 2.6102440357 -0.99816715717
0.61474263668 2.8285865784 -1.3311560154
0.85721081495 2.7012565136 -1.8656852245
1.2750854492 2.4376294613 -1.5267738104
1.1015257835 2.5050475597 -0.33987221122
1.2174001932 2.2124035358 -0.88800358772
1.5470414162 2.0233547688 -1.1999284029
1.048230648 2.6078138351 0.21777683496
1.4942066669 1.9891204834 0.012215494178
1.347874403 2.2042412758 0.50844496489
0.78488194942 2.8071012497 0.64777684212
1.1652097702 2.2617995739 1.025328517
0.39216816425 3.0939614773 0.90407723188
0.70180761814 2.5992319584 1.0810693502
0.43935787678 2.7451162338 1.3640160561
0.79739999771 2.448302269 1.5241906643
0.5488832593 2.6544744968 1.8457186222
0.77128452063 2.6845750809 2.354016304
1.1240049601 2.4091989994 2.046694994
0.09347358346 3.0424125195 1.4990971088
-0.25019985437 3.3664629459 1.3176717758
0.016122184694 3.4460172653 0.69867533445
-0.023392625153 3.2597329617 2.0915679932
-0.38608565927 3.599136591 1.9754399061
-0.63715976477 3.496106863 1.061478138
-0.46861994267 3.631531477 0.41216269135
-0.82200056314 3.7433328629 1.7176623344
-1.0805211067 3.4875748158 0.37569072843
-1.2057298422 3.4128544331 1.0438816547
-1.4513523579 3.6390006542 1.5772783756
-1.571936965 3.1143324375 0.86429703236
0.30920419097 2.9149253368 2.1980948448
0.22239927948 3.1032102108 2.7769362926
-0.16683475673 3.5206620693 2.6401877403
0.65252393484 2.8990552425 2.9643633366
-0.33384907246 3.4141776562 3.2153973579
0.01796784997 3.0598156452 3.349684
0.43106123805 2.8401296139 3.5820851326
-0.70021647215 3.2167012691 3.6284365654
-0.28528538346 2.8510758877 3.7566986084
0.0013394886628 2.6042220592 4.056643486
-1.2732154131 3.1938009262 3.7483634949
-0.63938117027 2.7954661846 3.9011290073
-1.2662786245 2.7675557137 4.0312299728
-1.7663983107 2.8890192509 3.791613102
-1.7420884371 3.1692633629 3.6339507103
-2.260633707 2.84679389 3.4170155525
-2.1610293388 3.1571824551 3.2889463902
-2.3971998692 3.0971069336 2.9096403122
-2.5593316555 2.7534861565 2.9767274857
-0.80838906765 2.3940591812 4.2632694244
-0.27060723305 2.1900439262 4.4274582863
-0.94675207138 1.9658147097 4.4511427879
-0.47975814342 1.6060739756 4.6401195526
-1.381207943 2.3422651291 4.3037118912
-1.4531394243 1.6353816986 4.5957603455
-1.8484200239 2.0419685841 4.436583519
-1.882098794 2.5626423359 4.0085887909
-2.176286459 2.2820644379 4.1687808037
-2.4423437119 2.5177514553 3.5903007984
-2.6072716713 2.2674899101 3.8180706501
-2.8803789616 2.1638782024 3.4313759804
-2.8038020134 2.3639008999 2.9914729595
-1.4373605251 1.1272243261 4.6670322418
-1.0005117655 1.5534161329 4.5398726463
-0.90798205137 1.1486002207 4.5898323059
-0.41444671154 1.0325936079 4.7156662941
-1.6656752825 0.70945692062 4.6303529739
-0.91035968065 0.82354736328 4.6090455055
-0.99040240049 0.42313963175 4.6047749519
-0.37504941225 0.52326399088 4.859582901
-0.5550262928 0.045792520046 4.8325796127
-2.0052189827 0.24222362041 4.3929805756
-1.2487257719 0.12330771983 4.5352277756
-1.6866676807 -0.20404328406 4.3548793793
-0.89393919706 -0.41150933504 4.7766318321
-1.4275485277 -0.73124164343 4.5692367554
-2.0620043278 -0.33329609036 3.9345164299
-2.4850084782 0.13533017039 4.0073261261
-1.8744269609 -0.95754992962 4.035595417
-2.1601018906 -0.49474617839 3.3691780567
-0.39218512177 -0.69898551702 5.0592808723
0.028025342152 -0.091438740492 5.151869297
0.41603276134 -0.70066303015 5.1250710487
0.13610379398 -1.1640931368 5.0853610039
0.34500145912 -1.6264401674 4.9656362534
0.62912333012 -1.0369497538 5.0734291077
0.87176209688 -1.5293675661 4.9134640694
0.99471884966 -0.79320782423 5.260037899
1.2253203392 -1.2455126047 5.1499047279
0.59575945139 -2.1059241295 4.6210722923
1.0712275505 -1.872248292 4.6289167404
1.5522706509 -1.7092831135 4.8119711876
0.82304316759 -2.3573498726 4.2185144424
1.2332935333 -2.1175339222 4.2339353561
1.677821517 -2.0108191967 4.3726110458
1.0057259798 -2.4956448078 3.6184809208
1.4711859226 -2.210416317 3.7031493187
2.0461661816 -2.0986683369 3.8272473812
1.4710543156 -2.1901736259 3.1887066364
1.0325918198 -2.4716234207 3.1061415672
[...]
CELL_DATA 1380
SCALARS cell_data_0 double
LOOKUP_TABLE default
1.47249254843e-08
2.53922210575e-08
1.93327498844e-08
2.43255890099e-08
6.53888218892e-08
1.62137617309e-08
1.85134667155e-08
4.00125780464e-08
4.11225918033e-08
3.56352355779e-08
4.04846985487e-08
6.07556853982e-08
4.58187526037e-08
2.25203186924e-07
1.44977883473e-08
2.25536552678e-08
6.38458928198e-08
5.88813488845e-08
4.40411979658e-08
8.23456733762e-08
1.93155105609e-07
9.27885654619e-08
2.74091501049e-08
6.49081557941e-09
7.66245621472e-09
9.47016901592e-09
1.39070790467e-08
1.76028628613e-08
3.03518212431e-08
3.48454517634e-08
3.04253850058e-09
3.46351917323e-08
6.06279063431e-09
3.17436292988e-08
1.28760767966e-08
1.46367404071e-08
2.02320388045e-08
9.73827294909e-09
5.60053736024e-09
2.00903086083e-09
5.08631247387e-09
1.45204712456e-08
5.35797346501e-09
3.61531759965e-09
4.30752917209e-09
1.02672570832e-09
6.89124221618e-09
8.60582247855e-09
2.94653887225e-08
6.46069576836e-09
2.64694524821e-08
2.26784384308e-08
8.40293695752e-10
6.27992871578e-09
9.9133442512e-10
1.20746897057e-08
4.76191778499e-09
7.1183741508e-09
1.05461065607e-08
6.19767670419e-09
6.19496531698e-10
2.94791834196e-09
5.99713712365e-08
1.49707098857e-08
4.42011046887e-08
4.4413530508e-08
2.03208797459e-07
7.22122596772e-08
9.85639900167e-07
1.62221090619e-07
3.70536867547e-07
4.18834188796e-08
4.24861516029e-07
4.07985146711e-07
1.02417804272e-08
1.95878613548e-08
1.27234440353e-07
8.97351639943e-08
3.64778704279e-09
3.29170205641e-08
2.52792416716e-08
9.94521643372e-08
5.66835102617e-09
8.76542537545e-08
8.91351439746e-08
3.8282957726e-08
1.73030422629e-08
1.1485757195e-08
5.974212281e-08
1.00437435352e-08
3.95155558173e-08
2.47188750276e-08
4.8573972521e-09
5.47565712564e-09
6.95060571126e-09
1.83712561182e-08
5.69748087006e-09
4.34322630848e-08
2.75717681714e-08
7.36578099479e-08
7.39112963838e-09
3.02650972087e-08
5.3550830298e-08
1.49803272003e-08
4.99541093362e-09
1.81463530644e-09
3.02145186331e-08
9.87954028758e-09
5.86585551524e-09
4.05832638132e-08
3.26510362283e-08
3.83234888909e-08
3.49529046859e-08
6.93196739517e-09
2.29157033877e-08
6.93172800372e-08
2.67515527009e-08
1.00710201431e-07
2.4714878709e-08
4.06178965465e-08
2.82262295938e-08
8.80698135751e-08
3.28795949809e-08
6.0699328058e-08
1.72033505067e-08
3.52781237726e-08
4.16763093657e-08
1.68402977691e-08
8.55259537715e-08
1.56548721064e-07
2.68943392081e-08
5.09351433101e-08
3.41386889113e-07
1.21277617413e-07
9.8693879281e-09
1.07280534619e-07
2.36031202389e-09
2.26065640732e-08
3.32036933561e-08
1.86925344429e-08
4.81338145147e-08
9.65464240493e-09
8.00617193719e-08
1.54063339345e-08
1.25596872384e-07
1.92273195085e-08
1.01676362393e-08
6.47525008024e-10
6.2864261301e-09
2.55353175848e-08
3.80153294014e-09
4.63466858601e-09
1.06556828896e-08
2.66768884614e-08
1.72060921032e-08
9.83790252912e-09
1.24609905446e-08
1.98079927606e-09
1.98807721725e-08
1.3790987525e-08
1.64051278259e-08
5.25661364562e-09
1.99338278901e-08
9.47870972509e-09
1.18464589045e-08
5.27521818592e-09
9.90511496873e-09
1.26349005661e-08
1.0051333253e-08
9.67288876187e-09
1.2872305168e-08
1.37016911067e-08
2.42101955446e-08
2.980394056e-08
6.82769573087e-08
3.30305745999e-09
1.73445137625e-08
6.06566264959e-08
1.59927950971e-07
8.83228770322e-09
7.27995033646e-09
2.47449376917e-08
1.11941337086e-07
7.93532952012e-09
1.52871458554e-08
8.73573100244e-10
2.60995367706e-10
6.79604629093e-09
6.34698800316e-09
3.48169989169e-09
1.62079044624e-09
1.37920036708e-08
1.64412039083e-09
2.6380493318e-08
3.30800185429e-08
1.16434157662e-09
1.49775680484e-08
7.69747968613e-09
5.71393365472e-10
1.43571128667e-09
2.26382646069e-09
8.29682321467e-09
4.59962003348e-09
3.9246801106e-09
8.17550952979e-09
5.31755593175e-09
3.17189887957e-09
1.22432536113e-08
1.09400422018e-08
3.01702814102e-09
2.69192899316e-08
3.94201191906e-09
8.0921802956e-09
9.90666882347e-09
8.14272496203e-09
1.69135472561e-09
2.29283983221e-08
1.72931257338e-09
4.10346902336e-09
3.27535876465e-08
5.26237000098e-08
1.22811785304e-07
1.00873455796e-07
8.41308219698e-08
3.12188106741e-07
7.67629883567e-08
3.87055422951e-07
2.27968195289e-08
1.8440434153e-08
2.76347120498e-08
1.20859003867e-08
2.199264136e-08
1.39460413735e-09
1.89834974135e-08
1.95785529016e-08
3.98541356078e-08
1.1666616137e-07
3.59285515823e-08
9.2120914075e-08
1.99975789198e-07
3.90644213603e-07
1.85190590762e-07
1.34014389702e-07
2.4420004163e-07
1.18458662698e-07
1.73680119451e-07
4.53918721864e-07
2.34200277348e-08
1.08428365638e-07
7.90381847704e-07
1.7935452149e-07
1.80098804459e-07
1.94610305855e-09
3.97545272011e-09
7.93493683369e-08
3.88648830389e-08
2.3336870746e-08
8.14171687931e-08
4.06348139547e-08
6.10150697078e-08
5.38608029713e-08
1.20985336629e-07
5.14307243848e-08
2.72536153405e-07
1.13456012982e-07
8.11370427502e-09
6.22663586986e-08
1.81245357807e-07
5.71042657331e-08
1.89684856215e-07
1.49964596195e-07
1.27628867921e-08
6.59737917221e-08
1.00406844535e-08
5.35571633544e-08
4.98972771467e-08
2.33201253161e-08
4.73935319501e-08
2.19891445266e-08
7.97114781445e-08
5.44436092002e-08
9.19580908024e-08
6.52318884436e-08
3.18033147794e-07
4.65730295201e-08
1.86066618442e-08
1.1255673158e-08
9.57577550074e-10
6.58189093642e-08
1.30550449141e-08
3.55585080658e-08
1.20689666088e-07
2.05964004393e-08
1.94651322732e-08
2.22754952656e-08
3.23916677507e-08
6.19891241157e-08
1.65152810144e-07
1.01180130208e-07
1.46609621879e-07
1.11572572187e-07
3.98754345894e-08
1.5721471999e-07
6.88186334901e-10
1.17949814997e-07
6.10940745257e-08
6.74395069289e-08
1.84650375723e-08
4.26301701905e-08
2.60270292436e-09
4.00902268186e-08
1.70293249961e-08
7.8910739893e-08
8.75654099291e-09
9.34606894762e-08
1.44731116778e-08
4.28592092328e-08
7.87649353996e-08
1.40616783544e-07
4.44708311482e-08
5.85922944482e-08
1.39710106417e-07
9.059078097e-08
1.14783959728e-08
3.72476571298e-08
3.46110559951e-08
2.87648327263e-08
9.79176001722e-09
2.40766392738e-08
1.98679350968e-08
5.24225992345e-08
1.09046228165e-08
1.98685857456e-09
8.51777420948e-09
1.02550937505e-09
9.63569752894e-08
1.36885855613e-07
3.41667400536e-07
2.03626319109e-08
3.70375253056e-07
1.33427619146e-07
9.92431252569e-07
1.18298731591e-06
1.16636972911e-06
1.66474258222e-06
2.37237135124e-07
3.30549592711e-07
2.3585539511e-07
2.97934285573e-07
1.39069621775e-06
2.82230982331e-07
2.26878613236e-07
1.46745593067e-07
1.24034188306e-08
6.06004861944e-07
8.75236503382e-07
7.20089999632e-07
1.15585594892e-06
1.24974860169e-07
4.82199201604e-08
3.67518715032e-09
8.92804196208e-08
3.54227536573e-08
1.40041617028e-07
5.20912515626e-08
1.06168312104e-08
5.20226165376e-08
1.32747924869e-07
2.09089358495e-08
1.53156943113e-08
2.3379456273e-08
3.90844094414e-08
1.09791301298e-07
3.21402519794e-08
6.85740903971e-08
2.60825279092e-07
9.17349042315e-08
9.55382718932e-07
1.2065906929e-06
1.07665594341e-07
8.3747767745e-08
8.08972030702e-07
6.29428559003e-07
1.17241109576e-06
5.5067427624e-07
5.56247713666e-07
8.38497978425e-07
1.77061124523e-07
8.48289605781e-08
5.95397714679e-07
5.21378474184e-07
8.91425722455e-07
5.52592031306e-07
9.07768590049e-08
4.56154992466e-07
3.22467818554e-07
3.44258379555e-08
2.36129839024e-08
5.14135008177e-09
1.41118943685e-08
5.79286223831e-09
8.88415684587e-09
2.23141221632e-08
1.057314119e-08
1.98580299402e-08
2.9843559565e-08
1.02299120444e-08
6.40426347259e-08
1.92796933281e-08
5.05661932699e-09
1.38484696602e-08
2.58656950419e-09
1.98116879256e-08
7.02539323203e-08
5.29614529677e-09
5.6552116806e-08
2.43316478835e-08
3.5810052258e-08
3.65143750932e-08
3.16949172822e-09
8.80533723625e-08
9.88921960805e-09
5.04054777506e-09
2.35915694365e-07
2.99593826333e-08
7.05424780417e-08
1.35261874892e-07
1.74690955867e-07
1.30120382278e-07
8.08678276543e-08
2.02211915869e-07
4.55194506561e-07
5.13985276438e-07
2.54757248676e-07
2.58485524188e-07
6.88488519853e-08
1.05688902928e-07
3.53484448836e-07
5.11687465451e-08
8.04557726587e-09
2.99680440581e-08
3.14018448639e-08
1.38980462021e-08
1.47314721375e-09
7.28131066288e-09
1.83313838239e-09
1.70575583993e-08
8.81870934487e-09
9.2161399683e-09
2.17993601504e-08
4.25452499971e-08
3.96764008817e-08
7.63510035376e-09
1.46970251101e-08
1.62308448901e-08
4.28314834605e-09
8.99695067175e-09
2.2270910095e-08
1.43959293537e-08
1.86684716571e-08
7.69028794802e-09
4.38223917174e-09
1.00626527574e-07
4.60725430392e-08
2.47390139876e-08
3.73859705278e-08
3.50573390214e-08
6.72358587535e-08
6.10693960403e-08
4.35134777731e-09
5.83106759499e-09
2.3960141248e-08
3.73009510088e-08
1.60804530871e-08
4.12300417896e-09
2.66096978346e-08
1.4812427773e-08
1.76062884608e-08
1.19422901925e-08
1.69440640594e-08
1.80314614365e-08
1.14650581826e-09
7.19500577543e-09
2.2334426959e-08
2.62862442557e-08
4.41935890347e-08
2.57569521753e-08
1.83901485653e-08
4.34198200257e-07
6.48869622775e-07
3.09592894652e-07
5.69532301192e-07
2.06953935204e-08
4.72110132466e-08
9.68760888753e-08
1.18663045075e-07
2.67628316756e-09
8.22901388659e-10
2.87334027538e-09
2.06961833476e-08
6.02648954554e-08
4.60891853625e-08
4.86502851358e-08
6.3340297801e-08
2.74802065545e-08
2.29881036751e-08
1.00343867494e-08
9.38621106473e-09
1.53587643166e-08
2.82938940666e-08
3.40039726111e-08
1.63127926315e-07
1.37001756036e-07
3.92778637756e-07
3.33049401505e-07
6.85633478726e-08
2.24846512344e-07
5.91808455421e-08
3.79315046783e-08
5.40970617353e-08
4.76318958649e-07
1.46658275116e-08
2.19678282458e-07
1.02216282529e-07
3.57039013315e-08
4.96404577033e-08
1.15407487725e-07
9.08610385804e-08
1.20557511719e-09
1.38240779154e-08
3.55876330837e-08
1.92964636913e-09
5.77772385904e-08
9.09016215148e-09
6.88733691755e-09
1.80331203635e-08
1.66837775144e-08
1.38318633319e-08
3.2755663847e-10
6.91006923729e-09
2.25621111775e-09
2.05659942066e-08
4.23964582102e-09
1.74139465094e-09
2.08921999353e-08
1.06401789088e-08
1.08469044578e-08
6.6183713169e-09
9.84223347095e-09
6.24192466812e-09
1.85617841644e-08
2.0648674832e-08
4.01141880351e-08
1.56299730364e-07
8.82019227481e-08
2.80503068707e-08
5.8124623112e-08
2.02537139349e-08
1.68162517162e-08
1.03537244496e-09
1.21307891369e-08
9.79730139081e-08
2.14370816377e-07
3.88089888304e-08
4.60512484649e-08
3.27629347334e-08
8.84155292415e-08
2.87317999099e-08
1.11009747136e-07
7.29143192593e-08
1.92965969157e-08
1.8127930501e-08
2.86761754473e-08
6.14415199597e-08
1.74316256033e-08
2.65008532464e-08
5.67751126222e-09
1.14230527056e-07
2.3636868605e-07
9.05823487339e-08
9.97615354166e-07
4.29972342911e-07
1.19098452261e-07
5.07277032061e-07
1.09515526753e-07
1.39288275171e-06
1.38231810091e-07
1.70028702841e-07
1.11202214022e-07
5.25915876159e-08
3.29889530213e-08
6.91240159674e-09
4.41961832503e-07
2.70718484942e-08
3.13242700906e-07
2.87965183883e-07
5.51341772421e-08
1.76202805896e-08
5.83231955971e-08
3.53069467013e-08
3.36475103687e-08
3.09032091484e-08
1.74795628009e-08
1.12358956009e-08
9.26090009332e-09
1.20415585801e-09
9.45606453481e-09
3.00549212672e-10
1.25667018363e-09
5.2304716255e-09
5.94405603735e-09
7.7498049109e-13
1.98539134759e-09
7.84996471534e-09
4.33324226464e-10
7.88784458637e-10
1.90952331227e-09
1.34182425046e-09
2.50679735868e-09
1.34894569375e-10
1.95793358039e-09
9.28646841147e-10
1.06244633532e-09
9.12172754712e-09
8.10264537081e-10
8.35796521602e-09
3.1265565282e-09
5.98942711971e-09
4.95555710654e-10
2.48771117211e-09
3.89137016713e-09
2.79072881216e-09
3.08159551877e-09
1.33481236332e-09
1.45930505171e-08
4.68972522009e-10
1.04243818819e-08
2.26133053969e-08
1.17867777175e-08
3.29419490687e-08
1.51309119341e-08
8.86586972964e-10
5.37007637192e-09
1.75475143995e-08
1.77085687525e-08
1.20101351483e-08
1.2627592737e-08
1.29748223891e-08
8.00542480382e-10
1.64173892583e-08
2.28955334369e-08
1.01697531706e-08
4.33337421769e-09
6.63922337908e-09
2.03290941135e-08
1.21093010592e-08
2.51706829703e-08
6.1890133927e-09
4.7340954529e-09
2.4075595102e-08
2.98879269081e-08
5.89913957125e-09
4.61299651013e-08
1.47117619895e-08
6.87952033046e-08
6.3128079448e-08
1.51608777367e-08
2.08200473098e-08
1.90843153176e-08
1.12179284359e-08
1.54708926877e-08
2.93150638704e-08
4.5014810238e-09
1.50171020988e-08
3.32897571591e-08
1.62947210642e-07
1.62569666888e-07
4.20038442109e-08
5.76220663227e-08
8.3363580536e-09
3.81346030187e-08
8.02604800041e-08
3.07646940929e-08
1.41423347079e-07
8.60386216053e-08
4.47693330348e-08
1.23650415651e-08
8.38909168871e-08
7.64654821389e-09
1.29547771275e-08
1.19767851488e-08
2.76622070588e-09
1.55892293129e-10
8.52867031797e-09
8.05583434768e-09
4.06501789064e-09
8.75963997769e-09
1.16117963562e-08
1.54878891168e-09
7.1553914126e-09
1.7490112054e-08
1.70627151383e-08
2.81031759048e-09
9.80067685581e-09
5.49456774094e-09
6.69335373531e-11
1.02634611539e-08
8.81432673849e-09
8.41890690113e-09
3.90911347277e-08
4.94534226237e-08
2.06255070705e-08
2.06438326456e-08
2.38086953477e-08
1.65514890351e-07
9.85096263571e-09
1.58237999839e-08
1.08091025668e-08
3.87245485082e-08
1.41921841741e-10
2.17676105539e-08
5.02948570103e-08
1.41702426817e-09
4.79991071494e-09
1.56344070298e-09
7.05106994549e-10
1.67150634429e-09
1.47145803225e-09
1.97371040689e-09
6.62765334098e-09
1.96247237094e-09
1.72355188508e-09
1.65622252993e-09
1.36747591523e-09
3.03183078592e-09
5.93971345685e-09
2.62714357128e-09
2.11313471517e-08
1.86976276625e-09
5.68780944532e-09
3.64943802322e-09
4.16470973392e-09
5.64348797073e-09
3.72288782257e-09
1.73837505667e-09
1.06292777567e-08
1.13978372867e-08
1.05640695342e-08
1.63032164487e-08
9.09938396902e-09
9.9855529358e-09
1.12887051185e-09
4.34012140215e-09
2.25759341909e-09
7.69696352247e-09
1.03003348668e-08
5.53185141604e-09
2.25382193549e-08
1.15128467458e-08
1.1353815369e-09
4.12973360073e-10
2.24953761059e-09
1.13299916546e-08
4.95021930764e-09
8.18845009606e-09
6.346808329e-09
7.18815230147e-09
8.90583006807e-09
1.81218864141e-08
1.19230822428e-08
3.79407319947e-09
5.44743006635e-09
4.69734959382e-10
5.24569280727e-10
2.8706297733e-09
1.132757461e-08
1.24859583218e-10
4.56313464803e-10
2.383343861e-09
6.80653694701e-09
6.82316022887e-10
1.16011338229e-08
7.34560654203e-09
4.64481736528e-09
4.03349042168e-09
2.07053990771e-09
1.57376430071e-09
2.26834700924e-09
1.63050140441e-08
8.67320379363e-09
9.17656238407e-09
1.55190089419e-09
5.92962096705e-09
7.45619451919e-09
2.98626861944e-08
5.52468884105e-09
2.34612793049e-08
4.65103056482e-09
8.38461179278e-09
1.11191951414e-08
7.7289747569e-09
1.9692454944e-08
1.12879007766e-09
4.77963869205e-09
7.04516326463e-09
7.86756334956e-09
7.78847375097e-09
5.37284074032e-09
1.75405834579e-09
4.7532424904e-10
6.02242344256e-10
1.18340908479e-08
1.78977465298e-07
1.12087211182e-07
1.34173576238e-07
3.51246380642e-07
4.2399874584e-07
1.20027975784e-08
5.93524282257e-08
6.07043807262e-08
2.86687097529e-07
9.69664022786e-07
7.43433465425e-07
5.46092989102e-07
1.6000278672e-07
1.1762286517e-06
7.55719135828e-07
2.23448582114e-07
4.22675488515e-08
1.3089838921e-09
2.62049608872e-08
8.10444563872e-09
8.81190568807e-08
3.68828561552e-08
1.1982977753e-07
6.8026647436e-08
7.08945963124e-08
1.18257869122e-07
5.56437436587e-09
6.38836345274e-08
1.75528124138e-08
2.30050308768e-08
1.54627482326e-09
7.89624862877e-09
1.92303165146e-08
2.21753393069e-09
1.90290770963e-08
9.89661801681e-09
2.86348477507e-08
2.14436109475e-09
1.07304370767e-08
6.35729792919e-10
5.60765102196e-09
9.38295423887e-10
4.45991454496e-09
5.51309464054e-08
1.13334131371e-08
1.74454131932e-08
8.02686588649e-09
6.96803998439e-09
9.39629255379e-08
1.40908924239e-07
1.42911084528e-07
3.13110754983e-07
1.54038534385e-07
3.69494963929e-08
4.90236262826e-08
8.96336028997e-09
5.00745836043e-08
7.39878290053e-09
2.39921396228e-08
1.09549663949e-08
9.5154954258e-08
1.31187307427e-07
2.08646964191e-07
1.01146948904e-08
1.24888571845e-07
1.01272061991e-07
3.67923803971e-07
2.51575091284e-07
3.92625716607e-07
3.9490135472e-07
2.20036532429e-07
1.08825316772e-07
1.68281708095e-08
1.98565324998e-07
5.35644307627e-08
7.76987001416e-08
6.73978429979e-09
2.982951234e-08
2.01255260043e-08
3.21996617915e-08
6.32618216836e-08
1.65965297866e-08
3.92467501232e-08
8.89477958568e-08
1.77644744923e-07
3.08948342731e-07
1.88450857271e-07
1.05737112383e-07
1.80536153768e-08
1.70897641259e-08
1.87489602643e-09
2.18385443548e-08
1.11238023394e-08
8.25140524489e-10
2.87060500371e-09
2.29479071537e-09
7.44825004848e-09
4.72841890266e-09
2.51740219396e-08
2.75265518042e-09
2.67228079292e-10
2.94228520439e-10
9.3120355989e-09
3.27614311295e-09
5.93528030794e-09
3.35004455004e-08
9.2416575341e-09
8.26210471287e-09
1.03535689627e-08
3.11469477233e-09
5.99675043979e-09
1.71484890349e-10
8.97499072866e-09
2.17552477316e-10
1.7800202417e-08
1.54146971304e-09
1.77836970641e-08
9.61598507093e-10
1.24063720323e-08
2.7385219108e-09
6.89868534753e-09
2.70943463544e-09
7.76494991982e-09
6.75221339642e-09
5.69242506881e-10
4.55397580444e-09
1.25089553318e-09
3.57341831671e-09
4.42215560881e-09
5.39359775538e-09
1.14135596788e-08
8.26700504725e-09
2.73408080143e-09
5.48286493425e-09
8.92163943953e-09
1.26027979117e-08
8.0052974778e-09
2.29937281885e-08
2.8692977261e-09
3.57102922345e-08
1.60040172942e-08
2.4300664846e-08
8.738858841e-09
8.70583621949e-09
8.24635806622e-09
3.68460913841e-09
4.57812269168e-09
1.2228641381e-10
2.19328394064e-08
1.82478625887e-08
2.03406610135e-08
3.21892632231e-08
4.54396754954e-08
1.04616262064e-08
9.03290981348e-09
6.85515079085e-08
7.61109334244e-08
1.3289423745e-07
1.33921434936e-07
2.13085445933e-07
2.3167476347e-08
3.11157426739e-08
9.65991716415e-08
3.24408024429e-08
3.93830845316e-08
1.70258276139e-08
5.82959923053e-08
6.3600275448e-09
3.53396434342e-10
2.74492304392e-08
8.32551103347e-09
1.23053029256e-08
1.82855564696e-08
1.81303087463e-08
1.74293209633e-08
1.36948468083e-08
1.85791021146e-08
4.62493262155e-08
7.45003751022e-08
5.62646149229e-08
3.91014966207e-08
1.54850298542e-07
9.50764551861e-08
1.79183815991e-07
2.91879843494e-07
2.25498153627e-08
1.54281927124e-07
6.47416451605e-08
6.7104227064e-08
6.15392504055e-08
4.21550751813e-08
1.13114770744e-07
2.51159469267e-08
1.7420364858e-08
3.31151302887e-08
3.03387422249e-08
2.75803564272e-08
4.92879014403e-08
1.30291695384e-07
6.56535135087e-07
8.46406077388e-10
1.20110547093e-08
1.31906686262e-07
3.18405876096e-08
1.38950965438e-07
1.89905630101e-08
2.07918004593e-08
7.3569780417e-09
2.796952854e-08
2.50214400133e-08
1.5755163063e-08
3.17988440443e-08
2.98169754834e-08
1.43767703557e-08
2.42852012697e-08
2.15885690672e-08
2.05911149421e-08
1.54906992345e-08
4.06120939903e-09
4.66573272102e-09
4.04391890797e-07
4.38050162343e-07
3.85065548495e-07
2.55148026283e-07
6.17300817627e-08
5.89277599851e-08
7.06327220343e-08
9.38681014954e-09
9.90157100228e-09
5.95687493369e-11
1.87297718046e-08
3.56815370751e-08
6.44524306741e-08
9.32961757526e-08
1.78858549682e-07
5.10448277427e-07
7.93203088761e-07
1.51529526867e-07
7.93930504257e-07
1.71507039032e-07
3.24291777794e-07
5.32385564021e-07
1.14004183755e-07
3.49625281948e-08
1.63878336191e-08
3.46575800454e-07
5.41656886476e-08
4.59665992757e-08
7.47777521616e-10
2.67346223889e-08
7.02864949969e-09
1.55957939523e-09
1.71100040478e-08
7.50483625723e-08
1.63203473027e-07
2.08044267902e-07
2.62213610142e-07
2.81179042586e-08
2.22194538826e-08
1.22826630803e-08
1.63535307587e-08
3.33248497486e-08
3.20679389907e-08
1.56242637919e-08
2.32830955542e-09
1.19037413133e-08
9.96724469171e-09
7.02583639219e-09
2.29105284332e-08
1.06875074225e-07
7.44758205342e-08
1.87032747316e-08
6.63461893809e-09
3.88239707606e-09
4.07077437876e-08
1.61706738057e-09
3.75500128406e-08
7.13647872406e-09
1.65624253908e-08
1.39698599582e-08
3.90087150479e-08
3.83409148056e-08
3.88023394777e-08
1.03756285045e-07
1.49069228634e-07
1.34968475196e-07
2.97098968032e-07
7.10058234821e-07
1.72539143623e-07
6.54598951338e-08
2.05855473021e-08
1.49348182307e-08
1.00753127709e-08
1.91114074026e-08
4.70091353413e-08
1.02751644311e-07
2.02706939862e-07
2.13260515431e-07
3.99066001809e-08
8.79802782425e-08
6.22412871741e-08