# vtk DataFile Version 3.0
File Name: Molecule/arg/arg_5.0-6.vtk
ASCII
DATASET UNSTRUCTURED_GRID
FIELD FieldData 1
TIME 1 1 double
0.0
POINTS 1106 double
-3.130038023 -0.28602644801 1.2558494806
-3.211309433 -0.011196773499 1.5322754383
-3.4225435257 0.06830561161 1.115198493
-3.3890872002 0.28961852193 1.5924048424
-3.00958395 -0.34354799986 1.7911634445
-2.979370594 -0.73038893938 1.3785464764
-3.0533087254 -0.26652806997 0.6503303051
-3.2993812561 0.033071544021 0.48130998015
-2.8419716358 -0.70918637514 0.75214767456
-2.9649744034 -0.13494265079 0.284442693
-2.705445528 -0.34589287639 0.29053521156
-2.554415226 -0.64562624693 0.30539035797
-2.4793467522 -0.16728575528 -0.22778320312
-2.6546211243 -0.11314620078 -0.010151816532
-2.6799395084 0.068326316774 -0.35146832466
-3.0167901516 0.099464699626 0.034365281463
-2.3962161541 -0.16976752877 -0.49555933475
-2.314658165 -0.32242649794 -0.35361897945
-2.4122533798 -0.38028025627 -0.033617157489
-2.2029521465 -0.46900135279 -0.64077478647
-2.2198932171 -0.44316574931 -0.93104362488
-2.4669442177 -0.05461955443 -0.78146272898
-2.9044847488 0.46572443843 -0.54606229067
-3.2696681023 0.5492092967 -0.2061547786
-2.6846842766 0.33257386088 -0.93913078308
-2.6069178581 0.14447255433 -1.3908643723
-2.3989799023 -0.25684610009 -1.1259053946
-3.1570475101 1.2344050407 -0.45939096808
-2.8171799183 1.0511308908 -0.75076532364
-2.6072459221 0.88399291039 -1.1311911345
-2.5364961624 0.78981405497 -1.5596497059
-2.8078474998 1.7038757801 -0.49086910486
-2.5148625374 1.425620079 -0.78879737854
-2.3190839291 1.2253395319 -1.1876891851
-2.1946191788 1.1503354311 -1.6685042381
-2.5948257446 1.9606678486 -0.42373293638
-2.5260164738 1.6451245546 -0.62329345942
-2.2492206097 1.7382030487 -0.70007610321
-2.1491589546 1.5123668909 -1.0343056917
-1.9090424776 1.8492568731 -0.87285006046
-1.7280247211 1.7895087004 -1.2916514874
-1.9398909807 1.484135747 -1.5042864084
-2.4479827881 2.3485629559 -0.14931812882
-2.1242678165 2.1078193188 -0.50551813841
-1.967361927 2.5339169502 -0.31714847684
-1.7241798639 2.3664755821 -0.73677146435
-1.5673254728 2.8827421665 -0.69557958841
-2.1411812305 2.6195831299 0.068083621562
-2.5915794373 2.5221552849 0.18013446033
-1.6496423483 3.0112195015 -0.22107897699
-2.4621694088 2.6638326645 0.62450820208
-1.8752619028 2.8225569725 0.42898479104
-1.4782236814 3.1727116108 0.24211882055
-2.8585355282 2.6076276302 1.0064667463
-2.266623497 2.7632477283 1.0450086594
-2.6668436527 2.6708865166 1.4353278875
-2.023639679 2.9873929024 1.2561388016
-2.3638882637 2.9369006157 1.5674177408
-1.887087822 3.3303337097 1.5439968109
-2.3083806038 3.2416825294 1.9671317339
-3.1884522438 2.2832150459 1.5015358925
-2.8259136677 2.4739465714 1.7462311983
-2.6289606094 2.6773226261 1.9925992489
-2.5246267319 2.9759790897 2.3536119461
-2.8912901878 2.3471765518 1.9596120119
-3.0774371624 2.0168812275 2.1277825832
-3.4330511093 1.7810410261 1.7640334368
-2.7920482159 2.4501338005 2.4308242798
-2.9586582184 2.0515816212 2.656888485
-3.6508646011 1.1341116428 1.7025302649
-3.3710439205 1.2449656725 2.1094214916
-3.1994161606 1.6903316975 2.1900963783
-3.0998730659 1.7301424742 2.5347180367
-3.2250258923 1.2853951454 2.5747365952
-3.1210970879 1.7668827772 2.9697740078
-3.2483301163 1.118716836 3.0264720917
-3.4121377468 0.61246228218 1.8234381676
-3.1891367435 0.66732889414 2.1937618256
-3.1540646553 0.8085258007 2.5754752159
-3.1109583378 0.61729699373 2.9728467464
-3.1328418255 0.37173357606 2.0427103043
-3.0785543919 0.045274317265 1.8707449436
-2.9080944061 0.083352513611 2.2478687763
-3.0360348225 0.45198532939 2.3611721992
-2.8994050026 0.30681851506 2.6429719925
-2.9593434334 0.37299203873 3.150562048
-2.8527600765 -0.34063801169 2.1498091221
-2.3293638229 -0.47218951583 2.8098654747
-2.6888895035 -0.1669190228 2.5655019283
-2.5474905968 -0.66349470615 2.4048433304
-2.4987313747 -0.15946039557 3.0016276836
-2.7594432831 0.1042900458 2.937805891
-2.6727874279 0.080187760293 3.3838353157
-2.5598535538 -1.0852310658 2.0880177021
-2.2884714603 -1.4306259155 1.8783333302
-2.2274711132 -1.2325406075 2.3511974812
-1.9670743942 -1.6605764627 1.5989189148
-1.9675993919 -1.5665515661 2.2220950127
-1.6045562029 -1.8404018879 2.0784766674
-1.8814684153 -1.6506896019 2.6144077778
-1.7026762962 -1.9896445274 2.7725329399
-1.3896368742 -2.1991267204 2.4268860817
-1.2117023468 -1.9193438292 1.7749861479
-1.5535495281 -1.7474524975 1.305464983
-0.95855122805 -2.2840335369 2.1239843369
-1.7383559942 -1.6371393204 0.58452755213
-1.3332890272 -1.7736413479 0.87803727388
-1.9911824465 -1.6104797125 0.99675297737
-1.1594111919 -1.9239884615 0.56611537933
-1.5438001156 -1.8013117313 0.29411044717
-0.94791668653 -2.2500793934 0.26425659657
-1.3832933903 -2.1203086376 -0.038425825536
-2.3704996109 -1.2235013247 0.61384493113
-2.0826778412 -1.2823032141 0.25538855791
-1.8910298347 -1.4399542809 -0.041270192713
-1.7936991453 -1.6932348013 -0.46007674932
-2.4425060749 -0.94416517019 0.35718768835
-2.135794878 -0.9566667676 0.004294979386
-1.9862602949 -1.0602992773 -0.33064362407
-1.9427462816 -1.2023037672 -0.73752075434
-2.307179451 -0.67870175838 0.038447484374
-2.0933098793 -0.74323040247 -0.35081666708
-2.2202694416 -0.51074677706 -0.32926350832
-2.0577895641 -0.76912951469 -0.7956558466
-2.0133514404 -0.86110192537 -1.237451911
-1.8753254414 -1.4579820633 -1.1329858303
-2.3112170696 -0.42133048177 -1.412309885
-2.1492931843 -0.6200543642 -1.1387221813
-2.1319236755 -0.50514024496 -1.8911557198
-1.8354411125 -0.89131933451 -1.7890411615
-1.6722419262 -1.3723332882 -1.7339071035
-1.9785314798 -0.25592154264 -2.3158302307
-1.8096169233 -0.6478126049 -2.1026637554
-1.6402298212 -0.40861088037 -2.466376543
-1.8718752861 0.16984464228 -2.5449681282
-1.385037899 0.011871840805 -2.7957844734
-2.0040338039 0.6271828413 -2.4330592155
-1.4979305267 0.34357345104 -2.7749950886
-1.6305869818 0.79911118746 -2.6481430531
-1.3212255239 0.98141223192 -3.0453169346
-1.2286399603 0.37011322379 -3.1194424629
-2.0128893852 1.0394240618 -2.1768996716
-1.5784589052 1.2293395996 -2.4555442333
-1.3016569614 1.5898411274 -2.7729592323
-1.6300859451 1.5237830877 -2.0724525452
-1.1684700251 2.0061845779 -2.1764309406
-1.4764780998 1.8382287025 -1.7228264809
-1.3995412588 2.1227867603 -1.374514699
-1.6095873117 2.1295158863 -1.0544558764
-1.336086154 2.5935828686 -1.1442536116
-0.83280277252 2.9780311584 -1.3035738468
-1.0988857746 2.3186426163 -1.5845739841
-0.62999731302 2.6451284885 -1.7598102093
-0.74974930286 3.3431622982 -0.99693709612
0.036718323827 3.556520462 -0.62550055981
-0.21156917512 3.1659834385 -1.3529469967
0.47152075171 3.1448760033 -0.89370262623
0.28948816657 3.0360200405 -1.2750070095
0.84858900309 2.896979332 -0.6557841897
0.60369950533 2.8345918655 -1.3136826754
1.0175836086 2.53845644 -1.1697852612
0.86791026592 2.6877641678 -1.8264336586
1.3072990179 2.4272246361 -1.5928962231
1.1724293232 2.2542514801 -0.72073787451
1.0304940939 2.5877230167 -0.27274417877
1.5216635466 2.0606746674 -1.2179318666
1.2266288996 2.1800191402 -0.20162725449
1.1503536701 2.4313011169 0.31977710128
0.94431173801 2.8036050797 0.19628584385
1.5277705193 1.9335756302 0.086306288838
1.4533058405 2.1358554363 0.58818995953
0.7532017827 2.8336901665 0.66134899855
0.99073660374 2.4244976044 0.78621572256
1.2230732441 2.2020316124 1.0309170485
0.40784037113 2.8107933998 1.2820966244
0.75397211313 2.5499317646 1.1051280499
0.40558663011 3.0895805359 0.85044139624
0.81318169832 2.459416151 1.6834051609
0.42604511976 2.7147219181 1.7973784208
0.73396635056 2.7080123425 2.261204958
1.1452693939 2.3934051991 2.0903263092
0.03138852492 3.4347481728 0.69893890619
0.10479602963 3.0738217831 1.2281373739
-0.21500125527 3.362578392 1.1237660646
-0.27943235636 3.3829240799 1.4989336729
0.077989175916 3.0092387199 1.6531101465
-0.035693395883 3.2640099525 2.0545232296
-0.40786859393 3.6095197201 1.9529534578
-0.71721923351 3.4946510792 0.88850420713
-0.46555224061 3.6313536167 0.38361248374
-0.70419353247 3.5337820053 1.3367717266
-0.99075078964 3.7433581352 1.6770948172
-1.0573916435 3.4836792946 0.31963223219
-1.1659165621 3.381980896 0.7810330987
-1.2454026937 3.4402356148 1.1747661829
-1.4754605293 3.6333150864 1.5879659653
-1.5340309143 3.0999054909 0.71113717556
-1.612578392 3.1779530048 1.1233074665
-0.077017337084 3.4194355011 2.5243768692
0.27133226395 2.94109869 2.1969401836
0.29148104787 3.0547633171 2.6615643501
0.73602986336 2.8498036861 2.7877390385
-0.066754192114 3.3014309406 3.0071547031
0.30780091882 2.9989798069 3.1478803158
0.72293293476 2.8442764282 3.3468675613
-0.083765864372 3.04246521 3.4577760696
-0.4186578095 3.3874032497 3.3321709633
0.31333124638 2.8278405666 3.6889579296
-0.66869473457 3.1916620731 3.6518518925
-0.29075971246 2.8414320946 3.7699518204
-0.041337329894 2.628484726 4.0404553413
-1.125690937 2.7502896786 4.0435161591
-0.62693941593 2.7956786156 3.9023230076
-1.1339604855 3.1983668804 3.7483232021
-1.5980250835 2.9023213387 3.8530361652
-1.5993463993 3.2659783363 3.64975214
-1.9788870811 3.1427714825 3.5046958923
-2.0576307774 2.8298816681 3.6550533772
-2.3585660458 2.9034392834 3.2503163815
-2.2379207611 3.20434165 3.1974198818
-2.4454545975 3.1526494026 2.807256937
-2.5945587158 2.7494165897 2.83948493
-0.78077179193 2.3823266029 4.270629406
-0.24350839853 2.158624649 4.4452342987
-0.84196925163 1.9299119711 4.45327425
-0.33918091655 1.5787307024 4.6818966866
-1.31503582 2.241985321 4.353600502
-1.391576767 1.6186896563 4.6092853546
-1.7206360102 1.9785499573 4.4894576073
-1.7294584513 2.5228788853 4.1077432632
-2.0543861389 2.2285983562 4.2690730095
-2.2091798782 2.5247399807 3.838037014
-2.3928508759 2.3104758263 4.0029754639
-2.6957855225 2.2685029507 3.6841340065
-2.5374948978 2.5322973728 3.4264845848
-2.9474465847 2.107909441 3.3110432625
-2.7938780785 2.3885648251 2.9702734947
-0.80046015978 1.5271537304 4.5646748543
-0.97417479753 1.1198906898 4.5903000832
[...]
CELL_DATA 2208
SCALARS cell_data_0 double
LOOKUP_TABLE default
1.60098432028e-08
9.71855800749e-09
1.30069287831e-08
7.30480277372e-09
7.74853132512e-09
2.13624919102e-08
3.685602141e-09
1.83535084148e-08
1.99899793926e-08
2.17651432754e-08
2.39310436328e-08
5.89219314235e-09
6.67012904864e-09
1.16764166738e-09
1.09813337416e-08
8.29141098034e-09
6.61929184864e-09
1.85547275575e-08
8.96253132147e-09
3.06064751307e-08
2.5560503488e-09
4.26691056482e-08
5.33913015881e-08
2.61040442676e-08
1.84752623407e-08
4.65005445998e-09
2.83638455558e-08
2.12023466482e-08
4.38841711777e-08
5.96704845892e-08
2.04172219595e-08
3.40154522207e-08
6.16581181746e-09
6.5778335113e-08
5.65907626141e-08
3.40865758443e-08
1.77734450845e-09
7.00315257502e-09
1.74570337691e-08
9.43998828613e-09
3.93591109742e-08
1.81564492134e-08
2.40251290443e-08
2.24528648881e-08
4.27182207845e-08
4.24655581571e-08
9.68240496076e-09
6.89039778037e-09
2.88905335947e-11
8.49149870566e-09
8.20526799024e-10
2.7956545759e-08
2.23345126034e-09
5.23338872833e-09
1.2903565144e-08
1.37391837303e-08
5.93573312576e-09
3.90345414621e-09
1.3103577925e-09
2.15801751467e-09
5.77761705998e-09
4.28576003149e-09
3.07905550437e-09
2.98063141223e-09
3.95061635494e-09
8.42565810514e-09
2.54571517558e-09
3.72859920965e-09
4.68417752816e-09
3.71407793058e-09
2.9895894487e-09
4.16705438018e-09
1.15601954706e-08
7.28548224694e-09
1.2057962907e-09
5.95101664017e-09
1.91847303888e-08
1.98856266716e-08
2.51166451261e-09
8.31053631471e-09
4.8087389533e-09
6.2774697626e-10
1.08289808662e-09
2.28741812026e-09
4.23676060218e-10
7.03764125185e-09
2.80361363329e-08
9.57031811547e-09
7.67395011216e-10
3.62621595647e-10
1.10689857877e-07
2.09942999823e-08
5.02757248852e-08
3.89062637986e-08
1.01021755475e-10
1.73494670309e-08
2.03402180322e-09
4.93567955919e-09
2.94080828187e-08
1.28236647256e-07
3.27038930589e-09
5.94236171534e-08
8.89668625568e-08
5.19296650235e-08
3.39353711939e-08
7.94986130254e-10
9.5911456981e-09
4.23380426141e-08
1.64001062528e-08
5.09740149455e-08
2.53599373773e-08
2.06347623096e-09
1.19733124576e-08
2.5897907108e-08
2.34944473202e-08
3.65957117109e-08
1.30711955046e-08
3.24244835029e-08
1.53085024772e-08
2.10917536317e-08
3.44412149886e-08
4.10797197976e-08
3.39530967254e-08
2.58085851649e-09
5.41304103076e-09
7.84820126989e-09
1.01143005926e-08
3.6017672711e-09
2.03650918281e-08
3.24391696985e-08
8.99371312435e-08
8.71646591404e-09
2.21808471797e-08
2.2081727065e-09
7.37139108238e-08
1.58262947643e-08
5.94488773381e-08
3.65618790722e-08
8.50091600558e-09
1.85714286078e-08
2.96367813998e-08
8.20168951756e-09
3.78378044037e-08
1.06195988288e-08
1.13673634966e-08
5.87689519945e-08
8.58083168365e-08
1.27614182134e-08
6.11929343103e-08
3.00923806964e-08
1.98654251103e-09
5.59644264525e-08
5.52072710692e-08
1.03633672238e-08
1.74139893134e-08
4.82933254109e-08
3.33650458808e-08
4.71167725581e-08
7.02715645566e-08
7.52943634059e-08
4.69083014187e-08
2.82092769616e-08
2.18873499852e-08
1.99715805992e-07
8.38432795543e-08
5.56218706572e-08
3.14032961136e-08
1.88061130025e-08
1.22077240797e-07
1.43472182396e-09
1.85551764191e-08
1.34739191527e-08
1.99622097128e-08
4.57116363611e-10
2.2987361365e-08
7.28958248324e-10
2.21273363419e-09
1.34885858215e-08
4.73702120816e-09
1.77979561288e-09
2.16582534258e-09
3.37459948614e-08
3.93962775088e-08
9.28441233576e-09
1.53707112609e-08
2.57113889214e-09
5.37064253817e-09
1.12790318504e-09
1.40121970067e-08
1.48183365612e-08
3.00123556193e-09
3.87675696707e-09
6.06443836318e-09
1.19768958899e-10
1.2971287632e-09
5.090596185e-09
9.83766275637e-10
3.8710993152e-09
5.83370362554e-09
7.6551312775e-09
5.81398843935e-09
2.81120883064e-09
5.36032077093e-09
2.37256376627e-09
4.58986379972e-09
9.05285777519e-09
1.07049106021e-09
2.51582900438e-10
2.15888029154e-08
5.39852855769e-08
1.94823385291e-08
3.07869883358e-09
1.66673347987e-08
2.14571312612e-09
2.84610921487e-08
1.24471797515e-08
1.35455707276e-09
1.13093674037e-07
3.28054620633e-08
2.40779173651e-09
4.52851034705e-09
2.87763901705e-09
4.52253711786e-08
1.12386869698e-09
5.25523116174e-09
1.54656329185e-09
3.60864138457e-11
8.07320364248e-10
3.94606580089e-09
1.75233420112e-09
1.56102429291e-09
8.11123327476e-10
6.03138001975e-09
6.37423499699e-09
5.54088270018e-09
1.54718276375e-08
2.8424361357e-08
4.05274126305e-09
2.12903932249e-08
1.08505226844e-08
2.36380967201e-10
1.97763105383e-09
2.08852602858e-09
2.18534664865e-09
2.45051071733e-09
4.53153645814e-11
3.48258460526e-09
1.44262006356e-10
2.14479059614e-09
1.0576903994e-09
3.46661822928e-09
4.27322850711e-09
3.73296185813e-09
2.01231313409e-08
1.58955323223e-08
5.73450922103e-09
6.62582270851e-10
3.67237678199e-10
2.55379042209e-10
1.09294861407e-09
5.97093890947e-09
6.9177367792e-09
7.69377498207e-09
1.52901884552e-08
6.41426628503e-09
2.24049685166e-08
3.18159979494e-09
6.52039333122e-09
2.44412042247e-09
6.1192632536e-09
1.80571908979e-08
6.28584308433e-08
2.61034143899e-08
2.3882656424e-08
2.72484690556e-08
9.98293836874e-09
2.44158449931e-08
4.36173427051e-08
3.94059849789e-08
7.21605485349e-09
3.72696692123e-08
3.31900674191e-09
6.20677714923e-09
1.2941101205e-08
1.47305210201e-09
1.24142202902e-08
2.99682316622e-09
2.20696328319e-08
1.84662442945e-08
1.35293588817e-08
3.99011612616e-10
2.06734232992e-08
2.27214572486e-09
6.20420230574e-08
2.50419929313e-08
1.87686954505e-08
4.52056459899e-08
1.20491350688e-07
2.1258809162e-08
7.19557524874e-08
1.91107609826e-08
7.78459151987e-08
2.38668366589e-08
3.76332637698e-08
5.7928027673e-09
5.43503413049e-08
2.19032846513e-08
2.44835467839e-09
1.1162152335e-08
1.03921403726e-08
5.48835102372e-09
4.48173025447e-08
6.78089183649e-08
4.0615011153e-08
6.20819361955e-08
4.62990601487e-08
1.12690120359e-07
1.69404771597e-07
1.08249337632e-07
4.05833724489e-08
4.09811347144e-08
3.20806364658e-08
2.06214667399e-08
7.58908709448e-08
2.02884111429e-08
1.63410033269e-07
1.23978210216e-07
1.91397903584e-08
3.75723412713e-08
2.84014131358e-10
1.23556717401e-08
2.81911392445e-08
2.42249827457e-10
1.53481986193e-09
1.9943367771e-08
2.79176212889e-08
3.53600640871e-09
3.13546305254e-08
3.01863905613e-08
7.27362051937e-08
4.97330797177e-10
5.88320568781e-08
3.30169159419e-08
1.86544044095e-07
6.9138503922e-08
9.70689570851e-09
5.26775748551e-08
4.01280143489e-08
3.95240003767e-10
3.30345913009e-08
6.1966128703e-09
2.61669782173e-08
1.4743754282e-08
1.74141409873e-07
3.51684581245e-08
4.62303701576e-08
2.56965801366e-10
3.04692829446e-08
6.54640551783e-08
1.85822901814e-07
7.39387120276e-08
6.06904621407e-08
5.10480428653e-08
8.42715650433e-08
2.95007646204e-08
2.29390123872e-09
6.38616984318e-08
7.5826151801e-09
9.98923174971e-08
2.13939049433e-08
9.7897396011e-08
2.44097628926e-08
3.45089480199e-08
1.78900993948e-08
1.49431621489e-08
8.19618440726e-09
3.82242021268e-08
1.99206520617e-08
6.50386334097e-08
2.97119609487e-09
4.66358340932e-08
3.80613257483e-08
9.52693131919e-09
6.18106820108e-08
6.24532408011e-08
1.47547529847e-08
4.10024942926e-08
5.97067603835e-08
1.88523262619e-08
1.24818188615e-08
2.51607551209e-08
1.86915566366e-08
1.63512228031e-08
2.39757575026e-08
8.93993131807e-09
3.12579011245e-09
6.27526449408e-08
1.29548755055e-09
4.60334134657e-09
3.79028430541e-09
5.54456564028e-09
7.09360026011e-08
7.16164242287e-08
1.70973865112e-07
7.56878761941e-09
9.51527657835e-08
1.00336252029e-07
4.04893750744e-08
2.15618772056e-08
2.03480683891e-08
1.22882321178e-07
1.14990943076e-07
1.66091864271e-08
1.61927834962e-08
3.03756878764e-08
2.2600633182e-08
1.95713642223e-08
8.62999840486e-10
6.12939011554e-09
2.91578477181e-08
1.72013163538e-08
1.40487652413e-08
4.64797074367e-08
6.8029002624e-10
1.90324133765e-08
1.7884844675e-08
3.24682015096e-09
2.48387477753e-09
2.58853970159e-08
3.05867521913e-09
3.21543586288e-08
2.03598596545e-08
1.46790557293e-07
1.82616665283e-08
4.674609145e-08
4.79773642278e-08
1.70463017847e-07
9.92497799593e-08
2.19319665383e-08
2.78076718968e-07
3.1723248178e-08
7.59870308881e-08
3.14493103432e-08
1.94805465399e-07
2.13239217593e-08
4.68106473187e-09
2.77341156024e-08
3.42011327889e-10
9.19889992692e-09
7.16469340537e-09
2.51653950381e-08
2.45185456129e-08
2.90024170024e-08
7.87048588701e-09
1.29559138524e-08
1.22228877959e-08
2.70788321132e-09
6.18765264751e-09
3.40119206421e-08
1.7469865118e-08
7.93507292784e-08
1.41696181493e-08
6.67444620372e-09
1.30751272495e-08
2.91715585326e-08
1.17808375318e-08
3.29413835747e-09
1.01910642664e-08
2.63876973702e-08
8.2731959492e-10
3.430175809e-08
1.36590222534e-08
2.67361723289e-09
2.16969170839e-08
1.11571720558e-08
7.43293953847e-08
5.32087471602e-08
1.55028505097e-08
1.01307400269e-07
1.47748601453e-08
1.0842631531e-07
1.89371388402e-08
1.80985250318e-08
6.34755726903e-10
1.36467132453e-07
1.01617174873e-08
2.83073908858e-08
8.43065421772e-09
2.26258486944e-08
4.79411333872e-08
1.08386582218e-07
1.64955757687e-08
1.83905984011e-08
4.08899333534e-08
3.47749078841e-08
1.3967641646e-08
4.52607268638e-09
9.09224480482e-09
1.91799857509e-08
5.16888565868e-09
7.85696075793e-09
1.23703032015e-08
2.33398408069e-09
1.00111607409e-08
2.37181713426e-09
4.84350730293e-09
2.08416157635e-09
1.69546859907e-08
1.08519916566e-08
4.82129250329e-09
1.81165338852e-09
2.17559467946e-09
1.00093231215e-08
1.69172858438e-09
1.98631897784e-08
2.51209350187e-08
1.01572646514e-08
2.40085762915e-08
2.99279087282e-08
2.04296257502e-08
1.56648417069e-08
2.35939086075e-08
1.18195193694e-08
1.90740842772e-08
1.7687348845e-08
3.47215314002e-08
2.57623479481e-08
5.31094640515e-09
6.73379884842e-10
1.14974796491e-08
5.28432659432e-09
1.35055373454e-08
4.86013058276e-09
2.26267858349e-09
1.1175397541e-08
4.73955577321e-09
2.93700805011e-09
6.83014196056e-09
7.26126717085e-09
1.1837130192e-08
3.37284736259e-09
2.51185242274e-09
6.3675600561e-09
8.92763303929e-09
2.29331489298e-09
1.20517823283e-08
8.59405570294e-09
9.12097683078e-09
5.29084532454e-09
5.47641964717e-09
1.55333599166e-08
2.97078806711e-10
2.29487026859e-09
2.29470644854e-08
5.34025752523e-08
6.89205957437e-08
2.56870274192e-08
6.80937374775e-09
6.33228049175e-08
3.30904866313e-08
3.53844331951e-08
5.16951521248e-08
3.18220357004e-08
2.30715783499e-08
2.54279972267e-08
5.95784621206e-09
8.48546377759e-09
1.19431056981e-09
4.55417506466e-08
3.69720416769e-08
7.03098592542e-08
6.1250633201e-08
9.75067476981e-09
1.54246157311e-08
6.72160177754e-08
5.87085943181e-09
2.59221151579e-09
9.11129900693e-08
2.83634703705e-08
2.47369581792e-08
1.99409289682e-07
4.01915769102e-08
2.00810891392e-08
2.7352813335e-08
5.68940136982e-08
7.86853375878e-08
1.14615772822e-08
4.3498180564e-08
4.22307635933e-09
6.74716862519e-09
3.81732407235e-08
1.31176329797e-08
3.15039646719e-09
2.76138480193e-08
6.13549700181e-10
1.10389138829e-09
5.07423005416e-09
4.79433420301e-09
4.86099224514e-09
6.89033478949e-09
2.50586801884e-09
6.20063108235e-09
6.69223397852e-09
4.71890221797e-09
1.30078670183e-08
7.17039672573e-10
2.70538130395e-09
2.86143989147e-08
2.40169828166e-09
8.75577115855e-10
4.85299796734e-09
1.31029190779e-08
3.92001943861e-09
2.20437603288e-09
7.10533031088e-09
1.14554126517e-08
1.52278730841e-08
3.99744563372e-08
2.49825771863e-08
5.65572635919e-08
1.04200631921e-07
1.27289330957e-08
1.40454102608e-07
1.01455410211e-08
8.3209158047e-09
5.70254868916e-08
1.78642502924e-08
2.55622064884e-08
4.05277608534e-08
2.38413656392e-08
1.45838639889e-07
1.77803375274e-07
4.74122734106e-09
1.61785207938e-08
4.15787837252e-10
7.55472049442e-08
1.50705168782e-08
6.10373724098e-08
7.83619273015e-08
1.06855314212e-07
2.27343491951e-08
1.90415581044e-08
4.47240653124e-08
4.99795225371e-08
2.08335476322e-08
1.12041555846e-08
3.84698086405e-10
2.10167988254e-07
1.21823999485e-08
8.97908339173e-09
3.22486273724e-09
7.50275294783e-09
3.14582725448e-08
9.53638445046e-08
9.33536753869e-08
7.57208276103e-09
3.63045202371e-08
1.86157647096e-08
6.80539805367e-08
3.85772685461e-09
1.09612724474e-08
1.47157635428e-08
2.4371166145e-08
7.36952265163e-10
2.16624714107e-09
3.57306651902e-09
2.55802464263e-09
2.20149638819e-09
1.55278950185e-09
1.18936582944e-09
1.47484719213e-09
1.93599996058e-10
4.23044759067e-09
8.10752670093e-10
3.78393637307e-10
8.58606675684e-10
9.0570563289e-10
9.16419876945e-11
5.92560785439e-10
8.25458833937e-09
3.73891740948e-09
9.49503295894e-10
5.57141312428e-10
3.39926768775e-09
3.90187665334e-09
1.71424929443e-09
1.51901277611e-09
2.93005974643e-10
2.59383995059e-11
1.84800616189e-09
7.18353208416e-10
6.05820467073e-10
3.72053240669e-09
6.25643063791e-09
2.15942653895e-09
3.92838882613e-09
9.61702964663e-09
9.05873561713e-10
1.70050999046e-09
9.84366318849e-10
1.19851600849e-08
1.24123882888e-09
5.24908805469e-09
3.32468685729e-09
5.99255552164e-09
2.62708513314e-10
3.06772419163e-09
8.5004910327e-09
1.392698608e-09
1.51770676869e-08
3.45245821757e-09
8.84746001368e-10
1.21873979046e-08
1.16164157788e-08
1.5426078026e-08
9.51132958992e-09
1.29047838314e-08
3.41879947378e-09
8.25897214705e-09
3.35343848762e-09
5.39132865651e-10
1.16616872044e-08
6.76889023765e-09
1.6223022839e-09
4.49598165077e-09
1.79282647027e-09
4.3696595483e-09
6.3140031348e-09
9.8975054515e-09
1.91031413859e-08
1.29927171454e-08
2.26288126606e-09
1.43943271271e-08
2.12941468343e-08
2.7586522164e-09
9.74091200841e-09
4.69034879828e-09
8.5467079199e-09
1.69717072884e-08
3.79284347751e-09
5.18021684069e-09
1.47606645915e-08
2.20223162488e-08
2.44735184097e-08
2.81867480506e-08
1.96091600689e-09
8.59845509408e-10
6.05244884516e-09
4.06959629453e-08
1.27419581985e-08
4.50587606084e-08
3.08105775746e-09
7.32220746679e-09
1.68338074521e-08
2.92430660619e-08
8.2050584094e-08
3.19315989663e-08
5.70594321233e-08
5.46438989941e-08
8.42609086406e-08
3.24318655204e-08
3.60419259761e-08
1.60189638431e-08
8.62119330745e-09
1.35256618779e-08
1.08061984757e-08
1.21304865624e-08
3.1071179787e-09
2.79283226353e-09
4.47820327237e-10
1.09706091051e-09
2.63536990329e-09
2.30874050521e-09
1.62841878443e-09
1.21454834049e-09
3.845427067e-09
5.55299014707e-09
7.46427697376e-10
3.39632989723e-09
7.25974333074e-09
2.02438609259e-09
5.94097988349e-10
8.80405469337e-09
1.24966958393e-08
2.4927795276e-09
1.32126157497e-09
5.17046345682e-09
3.66346204255e-09
9.22811359034e-09
4.03688366337e-09
1.62441593712e-08
9.83425134905e-10
7.29897004735e-09
8.04746048479e-09
3.45872701545e-08
5.6756240353e-09
9.45671444784e-10
1.33172971412e-08
1.21646437854e-09
7.25620213966e-09
2.72617221997e-08
1.73979403613e-08
3.65682057714e-08
6.03697117282e-09
8.06726943807e-09
6.38783981404e-09
4.02880053505e-08
7.20095327176e-10
2.58344874794e-09
5.63217748517e-09
3.12100247864e-10
1.99234413221e-09
1.59694384852e-09
7.98786643727e-11
2.77893230449e-09
1.66006608241e-09
2.24152548824e-09
9.80619115322e-10
1.50601282179e-11
4.90957713703e-10
2.1841751493e-09
2.0759828736e-09
4.83867108534e-10
1.04479230219e-09
2.22847105253e-09
7.11330197486e-10
3.61561164381e-09
8.65261503746e-10
8.37307251041e-09
2.33697393424e-10
4.64860296332e-09
1.48379676213e-09
1.94985173106e-09
3.3925732613e-09
1.42333910863e-09
2.42171384665e-09
3.50309358067e-09
9.30547657473e-10
3.16588552956e-09
4.56900906363e-09
2.79013817588e-09
4.57511778944e-09
2.21300723308e-09
7.30079592458e-09
1.56393647596e-08
4.46324672824e-09
2.18730446414e-09
8.73046763307e-09
3.45190667236e-09
4.59361909853e-09
1.23566347678e-08
5.72219211162e-09
1.27693478356e-08
8.97016755178e-09
2.63998921161e-09
2.46483944374e-09
1.53782010214e-09
2.64501982031e-09
2.05366811618e-09
4.54882681695e-10
2.6893270867e-09
4.35027459329e-10
6.17202395376e-09
8.71958663583e-09
1.27137463237e-08
1.16345753165e-08
2.95156294492e-10
1.30087688261e-09
1.68616369638e-09
2.94254386245e-09
1.18305940095e-09
2.65461885973e-10
1.32093402624e-09
2.30967872973e-09
1.31917127808e-10
1.05400216314e-09
9.08015081582e-10
2.13867596831e-09
1.51169027301e-09
6.35030617309e-10
2.95832845083e-09
3.4647765464e-09
2.30326000603e-09
4.10419063616e-09
3.66263298361e-09
2.06340327847e-09
2.03271053888e-09
3.78499182718e-09
1.18125376315e-09
7.47884700125e-09
1.11083583966e-10
1.82066665372e-08
3.28423563912e-08
1.80453253183e-09
3.6023520771e-08
9.61360704307e-09
4.01231559393e-09
4.84049250687e-09
7.64289729756e-09
2.62966735048e-09
5.44098436867e-09
2.52970123149e-09
1.87136576033e-09
1.15074416483e-09
1.28186150667e-09
1.70809687433e-09
2.49321722462e-09
2.10434614252e-09
7.44441195297e-10
5.69492379621e-09
1.73195535582e-09
1.0021153155e-08
1.89402961578e-09
3.46240224068e-11
1.73242224623e-08
1.04107405169e-07
3.38910603816e-08
4.02699608713e-08
4.63211199486e-08
9.78593136602e-09
6.63592852027e-08
1.55351905076e-07
5.1470913108e-08
5.31972778237e-08
2.90121239327e-09
1.81373465671e-08
6.56199024691e-09
6.40904611559e-08
2.8723778249e-08
8.07779337481e-08
7.21503286593e-08
1.96704836835e-09
1.53431917284e-07
1.51618503474e-07
1.43033908955e-07
9.15318417902e-08
8.24642594635e-08
1.84038682557e-08
2.13164438284e-09
6.87540136791e-09
1.15297328358e-09
1.82626345234e-09
3.55177841782e-08
2.47774600144e-08
4.37419235521e-08
5.63318976023e-08
1.14441520791e-08
7.97416534162e-08
3.11722712458e-08
4.45146152734e-08
1.98916174305e-08
2.03584597823e-08
3.83554621332e-09
1.69477948051e-09
3.37714818015e-09
1.24007639906e-08
5.42437949465e-09
1.05416875709e-08
8.5132579612e-09
1.28439592235e-08
7.14983526165e-09
6.93929981709e-09
6.11470166158e-09
9.59503431158e-09
3.2390666801e-08
1.12842110863e-08
2.61643183792e-09
1.21004305658e-08
2.02906901082e-08
3.20880594824e-08
7.6572066603e-08
3.75348084762e-08
4.36976085549e-08
4.72188506099e-08
1.47254353709e-08
3.30244879143e-08
1.73663067716e-08
1.5031305891e-08
9.17734775348e-09
4.44820838319e-09
2.15789760028e-08
2.59620426433e-08
6.00869883368e-08
6.01623328999e-08
4.93341208218e-08
9.53406909059e-08
1.89864680066e-07
1.4648094842e-07
6.97101100609e-08
5.61234922165e-08
4.07186733846e-08
1.17392018832e-08
1.5990588299e-08
3.85212270453e-09
7.6169453224e-09
5.25613827097e-09
2.9552431231e-09
1.36434395493e-08
2.15229430732e-08
5.16442100721e-08
3.72496815865e-08
2.40665608112e-09
5.39210167985e-08
1.1175487235e-07
1.27361192268e-07
8.70558431485e-08
3.14140888944e-08
5.13547659342e-09
6.18138069982e-09
1.58037693085e-08
9.99177832385e-11
1.88044181041e-09
4.31791164303e-09
9.15007421158e-09
1.21996429731e-08
6.99103403346e-09
4.98744576072e-09
2.21082557218e-09
2.45270244752e-09
2.12516259305e-10
6.52785609123e-09
5.37811606653e-09
2.57756701489e-09
4.78468959326e-09
2.05552556533e-10
3.06788938024e-09
1.17043513886e-10
8.70410220039e-10
1.19802850509e-09
3.11883577265e-10
1.49623652078e-09
3.99027916223e-10
1.44279404055e-09
6.06867304119e-10
2.3183641541e-09
2.32211381666e-09
2.06185656234e-09
3.9688472928e-09
1.91896641232e-09
1.80126908363e-09
4.3245159152e-10
4.54750382223e-10
3.13191917964e-10
5.1353559271e-10
5.19360175459e-09
8.28170184915e-09
6.07732966799e-09
4.35970367983e-10
9.06254629262e-10
2.35841941186e-10
1.15065612379e-09
1.46072188875e-09
1.25048885987e-09
3.72764561959e-09
6.40579943305e-10
4.9193040866e-09
1.71284957285e-09
6.46023216042e-09
4.36389959499e-10
5.13102115732e-10
4.73282806161e-09
3.78500388403e-09
5.95697525985e-09
1.28099988718e-08
5.3003142308e-09
5.50298642949e-10
7.57207983647e-09
2.23785033742e-08
1.20872901235e-08
2.892929753e-09
1.57814460652e-08
3.1007338856e-09
2.34776360634e-09
2.64748533449e-08
2.47003532619e-09
4.56291150424e-09
4.34611962932e-09
5.16014498218e-09
4.20452217114e-09
9.33801529289e-10
9.12645931269e-09
1.56561365823e-08
7.12364112792e-09
8.66365612963e-09
1.00606607932e-08
8.30624601601e-09
1.46801158407e-08
1.93367871947e-08
7.89085763658e-08
1.69283510306e-07
4.51680064298e-08
9.78174282088e-08
5.76996798323e-08
9.01365156522e-10
6.54799542638e-08
1.80479155289e-08
6.24167340046e-08
2.13524841146e-08
1.83231908634e-08
1.83286475472e-08
2.70400662635e-08
2.06791773845e-08
5.23430574462e-09
1.57378141831e-08
2.0586769389e-08
1.33020267324e-08
2.11113324249e-08
1.51921358463e-08
5.47824003399e-08
8.9763797766e-08
2.131185146e-08
1.03649671889e-07
5.9009097086e-08