# vtk DataFile Version 3.0
File Name: Molecule/arg/arg_5.0-2.vtk
ASCII
DATASET UNSTRUCTURED_GRID
FIELD FieldData 1
TIME 1 1 double
0.0
POINTS 857 double
-3.2091505527 -0.15626806021 1.2283246517
-3.1828372478 0.058871082962 1.6469464302
-3.449439764 0.11374712735 1.1192620993
-3.3956382275 0.30653402209 1.5964267254
-2.9966304302 -0.34916174412 1.8287153244
-3.0063874722 -0.60704505444 1.3922104836
-3.0504219532 -0.25907561183 0.62350529432
-3.2857737541 0.015801183879 0.47665631771
-2.847784996 -0.7002286315 0.7480584383
-2.8736419678 -0.10718610883 0.18701079488
-2.6905915737 -0.35543140769 0.27414816618
-2.5637869835 -0.63224059343 0.30704715848
-2.5546462536 -0.078341975808 -0.26877716184
-2.6083631516 -0.14710888267 -0.04885552451
-2.6846067905 0.066386908293 -0.33889916539
-3.0025298595 0.076230086386 0.037423551083
-2.3913786411 -0.17538371682 -0.50046169758
-2.3110599518 -0.3322621882 -0.34960335493
-2.199906826 -0.46732842922 -0.6679341197
-2.21768713 -0.45017752051 -0.91703039408
-2.4720375538 -0.052415225655 -0.76482063532
-2.8983924389 0.45641082525 -0.55069518089
-3.2572836876 0.5347597599 -0.21525515616
-2.6801993847 0.32437250018 -0.94512480497
-2.6067051888 0.13845576346 -1.3890315294
-2.3961923122 -0.2610540688 -1.1326669455
-3.1515607834 1.2501482964 -0.46474632621
-2.8175256252 1.0569832325 -0.75012546778
-2.6053168774 0.8880828619 -1.1343272924
-2.5332381725 0.78400713205 -1.5706921816
-2.7943871021 1.7219866514 -0.49192878604
-2.5144135952 1.4412446022 -0.77773749828
-2.3224947453 1.2436155081 -1.1640452147
-2.2032184601 1.1586167812 -1.6448425055
-2.5973443985 1.9432133436 -0.43829521537
-2.5199313164 1.629229784 -0.63977771997
-2.2579727173 1.7294889688 -0.69985443354
-2.201161623 1.4630305767 -1.0213190317
-2.0000827312 1.6896891594 -0.97227537632
-1.7210634947 1.7657417059 -1.3313657045
-1.9584102631 1.4645287991 -1.4976350069
-2.4750511646 2.3377785683 -0.13873401284
-2.1019108295 2.0998864174 -0.53473782539
-1.9943721294 2.5210945606 -0.30149820447
-1.6532928944 2.4269397259 -0.84650969505
-1.6213279963 2.8316044807 -0.58254599571
-2.1386506557 2.6172447205 0.059824593365
-2.6069457531 2.5165629387 0.18570046127
-1.6396560669 3.0147604942 -0.22825488448
-2.475176096 2.6616299152 0.64470916986
-1.8689754009 2.823338747 0.41949412227
-1.4839892387 3.1679325104 0.23394457996
-2.8635046482 2.6044151783 1.0096391439
-2.2485291958 2.7751457691 1.0433996916
-2.6596386433 2.6777620316 1.4429496527
-2.0371625423 2.9790136814 1.2566224337
-2.3744158745 2.9276499748 1.5637985468
-1.8761342764 3.3315880299 1.5273660421
-2.3160071373 3.2336764336 1.9619106054
-3.1917047501 2.2817025185 1.4958633184
-2.8277955055 2.4700562954 1.763713479
-2.642234087 2.6637761593 1.9939570427
-2.5246634483 2.9782326221 2.3338019848
-3.42542696 1.7934968472 1.7730922699
-2.9027919769 2.3370051384 1.9175803661
-3.1011521816 1.9190560579 2.1844878197
-2.7339758873 2.526778698 2.3694133759
-2.9664576054 2.0390927792 2.6532046795
-3.6392421722 1.1404502392 1.7354359627
-3.3211126328 1.2533602715 2.2082650661
-3.1907148361 1.7028079033 2.2081787586
-3.1002783775 1.7275204659 2.5378313065
-3.2239749432 1.2615824938 2.5790781975
-3.1145224571 1.7792011499 2.9887039661
-3.246679306 1.1089750528 3.0420629978
-3.4035172462 0.58012574911 1.8237352371
-3.1787683964 0.66839462519 2.2172842026
-3.0925261974 0.69239014387 2.5816941261
-3.1042325497 0.60346210003 2.9902124405
-3.0878386497 0.069353155792 1.8762123585
-3.1206307411 0.37241119146 2.0693199635
-2.9475507736 0.089059993625 2.1934006214
-3.0260696411 0.49258708954 2.508058548
-2.8976504803 0.28182911873 2.6073925495
-2.9597840309 0.35867467523 3.110863924
-2.8473126888 -0.35473760962 2.1472015381
-2.4435257912 -0.38006305695 2.7736997604
-2.707269907 -0.15345364809 2.5332267284
-2.5320675373 -0.68277716637 2.4172959328
-2.5349628925 -0.10969489813 2.9814560413
-2.7848324776 0.12627364695 2.743724823
-2.650793314 0.052285965532 3.3916497231
-2.4440960884 -1.1312320232 2.2107326984
-2.1879653931 -0.86230713129 2.788569212
-2.0505037308 -1.3404728174 2.6882927418
-2.0148229599 -1.1366486549 3.3366968632
-1.9275634289 -1.6081329584 3.1299519539
-1.9520193338 -1.5804382563 2.2557935715
-2.2807314396 -1.4400993586 1.8678736687
-1.7380973101 -1.9517375231 2.7548992634
-1.9668271542 -1.6607111692 1.589020133
-1.5901339054 -1.8518298864 2.0717041492
-1.3930848837 -2.1974050999 2.4296422005
-1.2122176886 -1.9194597006 1.778573513
-1.5661854744 -1.738042593 1.2917480469
-0.96981835365 -2.2758276463 2.1155350208
-1.7176223993 -1.6569926739 0.58860486746
-1.3203670979 -1.7816667557 0.86981362104
-1.9904071093 -1.6094045639 0.98210817575
-1.1580140591 -1.9204638004 0.58386051655
-1.5419644117 -1.8020914793 0.30621546507
-0.95315432549 -2.2415857315 0.28019362688
-1.3876513243 -2.1154985428 -0.035008784384
-2.3696250916 -1.2144379616 0.5814011097
-2.0512216091 -1.3071250916 0.233363837
-1.8919862509 -1.4365894794 -0.064571738243
-1.7971265316 -1.6896803379 -0.4589728713
-2.4632182121 -0.82942843437 0.33886247873
-2.1474864483 -0.93065869808 -0.0073328632861
-2.0143592358 -1.0108577013 -0.31931903958
-1.9442700148 -1.205697298 -0.70022845268
-2.3362071514 -0.4935015738 -0.072030507028
-2.3080937862 -0.70205533504 0.07488964498
-2.1372241974 -0.64535742998 -0.36566269398
-2.2173025608 -0.48657286167 -0.37915182114
-2.0488409996 -0.78073310852 -0.81468290091
-2.0395166874 -0.81002777815 -1.2398329973
-1.8974022865 -1.3079262972 -1.0712178946
-2.3133804798 -0.42738988996 -1.3935109377
-2.1345264912 -0.64890706539 -1.1462644339
-2.1331903934 -0.50125551224 -1.8957113028
-1.8393012285 -0.89472538233 -1.7786978483
-1.6757555008 -1.3632403612 -1.7380299568
-1.9880690575 -0.24829700589 -2.3103535175
-1.8622740507 -0.7110927701 -1.9328936338
-1.6724089384 -0.41058301926 -2.4357562065
-1.9030094147 0.18481110036 -2.5187578201
-1.5163265467 0.122011289 -2.729300499
-1.9989804029 0.6375862956 -2.4382975101
-1.4957224131 0.33714291453 -2.7768681049
-1.6194373369 0.7980029583 -2.661662817
-1.32224226 0.98202246428 -3.0445466042
-1.2130213976 0.38230100274 -3.1367180347
-2.018122673 1.0332915783 -2.173210144
-1.6058387756 1.2149522305 -2.4246189594
-1.3164981604 1.521333456 -2.7205119133
-1.6759967804 1.4207613468 -2.1296823025
-1.1149398088 2.055492878 -2.1976795197
-1.4790116549 1.8202043772 -1.7454302311
-1.3826508522 2.1240594387 -1.3982151747
-1.6503440142 2.0288302898 -1.0838028193
-1.3214417696 2.593318224 -1.1638519764
-0.8317078352 2.9899468422 -1.2845648527
-1.1045715809 2.3111479282 -1.5872364044
-0.61964613199 2.6310884953 -1.8018301725
-0.54694348574 2.526911974 -2.3268098831
0.027630051598 3.5681278706 -0.58678352833
0.31118038297 3.0168707371 -1.3266116381
-0.75195604563 3.3407034874 -0.99744337797
0.46931159496 3.1453204155 -0.89664322138
-0.43778085709 2.9349250793 -1.5580813885
-0.16682107747 2.9408874512 -1.9799594879
0.3426681459 3.0165622234 -1.9808312654
0.0033668209799 3.1134457588 -2.5500123501
0.46821138263 3.165677309 -2.4339885712
-0.06066410616 3.3242383003 -2.9838411808
0.3319478929 3.4186882973 -2.685890913
0.84058862925 2.9052438736 -0.63406324387
0.59801989794 2.8373594284 -1.3033272028
1.0143750906 2.5409693718 -1.1664243937
0.87638604641 2.6902673244 -1.8650004864
1.302395463 2.4256811142 -1.5774686337
1.1573712826 2.2736446857 -0.72286790609
1.0416599512 2.5748751163 -0.28722509742
1.5333384275 2.0501577854 -1.2279479504
1.2291051149 2.1766238213 -0.20278269053
1.1384375095 2.446407795 0.327337116
0.95919841528 2.7878599167 0.19597837329
1.5329450369 1.9264918566 0.062961995602
1.4575093985 2.131960392 0.56669557095
0.74672865868 2.8380074501 0.66986787319
0.98514306545 2.4253542423 0.81375843287
1.2229371071 2.2023222446 1.0296567678
0.40631219745 2.8146631718 1.2589664459
0.73548418283 2.5665507317 1.1001592875
0.4052374959 3.0916209221 0.8419406414
0.83191585541 2.4434239864 1.6868048906
0.4327955842 2.7090156078 1.788677454
0.74003964663 2.7042069435 2.2674043179
1.1320874691 2.4069755077 2.0984222889
0.038298226893 3.4346859455 0.68555438519
0.11103206873 3.0672645569 1.2446715832
-0.20376601815 3.3584067822 1.1249504089
-0.29125094414 3.3891706467 1.479852438
0.073891550303 3.0123398304 1.6402196884
-0.031785346568 3.2616980076 2.0710287094
-0.39503374696 3.6034185886 1.9466223717
-0.72590875626 3.4948189259 0.90593600273
-0.4622964263 3.6312084198 0.38610067964
-0.70449316502 3.5327076912 1.3270066977
-0.99069571495 3.7471904755 1.6919945478
-1.0673186779 3.4804627895 0.31329268217
-1.1611818075 3.3860039711 0.79409170151
-1.2550109625 3.4348387718 1.1607867479
-1.4705138206 3.6348826885 1.5873804092
-1.5243494511 3.1080994606 0.72264140844
-1.6126337051 3.1714179516 1.1041767597
-0.057865008712 3.4076864719 2.5170276165
0.28546595573 2.9313092232 2.2050490379
0.28549832106 3.0590131283 2.6502716541
0.73060828447 2.8539049625 2.7697992325
-0.16576451063 3.4318759441 2.9645695686
0.18375572562 3.0774166584 3.0972487926
0.624389112 2.8701989651 3.2750961781
-0.080920226872 3.03469944 3.469810009
-0.41676220298 3.3827857971 3.3389186859
0.31295123696 2.8279356956 3.6901533604
-0.67902350426 3.1942632198 3.6516244411
-0.31309357285 2.8422026634 3.7761247158
-0.017376493663 2.6255679131 4.040225029
-1.1129477024 2.7696485519 4.0309910774
-0.60609579086 2.8024022579 3.8947434425
-1.1303946972 3.1919622421 3.7545707226
-1.6018160582 2.8774785995 3.8721623421
-1.5913863182 3.1789057255 3.69099617
-1.9765521288 3.132818222 3.516462326
-2.0573022366 2.8656537533 3.6223685741
-2.2911317348 3.0879042149 3.1963057518
-2.3808619976 2.8255701065 3.2733223438
-2.4714276791 3.0481853485 2.7878403664
-2.6046457291 2.7362487316 2.8363978863
-0.80563575029 2.3790037632 4.2724709511
-0.25007531047 2.1715245247 4.4379019737
-0.94647550583 1.9569011927 4.4538249969
-0.38200613856 1.5707235336 4.6812105179
-1.3391008377 2.2404675484 4.3511610031
-1.4385020733 1.6129535437 4.6049375534
-1.7185180187 1.9777152538 4.4905266762
-1.7213989496 2.5236833096 4.1092371941
[...]
CELL_DATA 1710
SCALARS cell_data_0 double
LOOKUP_TABLE default
9.65598870639e-09
1.01505672539e-08
1.81386969404e-08
1.40605742307e-08
9.44753890227e-09
2.22711227373e-08
8.0356199121e-09
1.52700598676e-08
2.96206937453e-08
1.94569892902e-08
3.16030938206e-08
1.67871133214e-09
1.24959987347e-08
6.19968064988e-09
2.05833478913e-08
8.7976984705e-09
1.03985873552e-08
1.39181125666e-08
1.57923601054e-08
3.25541519972e-08
2.78148297092e-10
4.5690150567e-08
4.84080966218e-08
2.77403295639e-08
2.1569223517e-08
5.25903806255e-09
3.19743206701e-08
2.00991994857e-08
5.16724098855e-08
7.02824840559e-08
2.25093679982e-08
3.35964794946e-08
1.74980298754e-10
6.80503223949e-08
5.29804596319e-08
4.14967102929e-08
5.57890568042e-09
6.83064742322e-09
1.56465824165e-08
2.42573447154e-08
8.91511670104e-10
2.99074512743e-09
2.39528082327e-08
2.24523123865e-08
3.72828634341e-08
2.80495813727e-08
6.71900596617e-09
6.40530243247e-09
4.08918661076e-09
1.56518448625e-08
1.27734967872e-09
2.74092508212e-08
6.29241636533e-09
9.36577827031e-09
1.2220544785e-08
1.23887374294e-08
9.16673569982e-09
4.04055521102e-09
3.94064821198e-10
1.60882163143e-09
5.09423457914e-09
2.45988369939e-09
3.40770709198e-09
5.37567877619e-09
2.98846477438e-09
6.69441252865e-09
1.18288240172e-09
1.23205903112e-08
1.11076417949e-08
3.95478606042e-10
1.17972227716e-09
9.68142248818e-09
1.12651989521e-08
2.52788906164e-09
2.09993160318e-09
5.53726500773e-09
2.40835427721e-08
2.64251974469e-08
2.69084734665e-08
9.88853582149e-09
8.30312330656e-09
3.9599834136e-09
1.32561004357e-09
3.23777199549e-10
4.84867511711e-10
8.11315514771e-09
1.02602587939e-08
1.10789085682e-08
1.83383874917e-09
3.39877693387e-09
2.49055464922e-08
1.02132573339e-08
8.93216199325e-09
7.29467797632e-10
3.6887227796e-08
1.90175107702e-08
1.42933554812e-07
4.82933563105e-08
6.65682313131e-07
2.21711933275e-07
3.07404072415e-07
2.92268463243e-08
3.76885961421e-07
3.47355045607e-07
2.66444169787e-09
2.58393127972e-08
9.43719418982e-08
3.29745272147e-08
5.72658739132e-08
1.15384013862e-07
4.60630634228e-08
3.47093955571e-08
1.44685511319e-08
1.28010706706e-08
4.71048765831e-08
2.14874912659e-08
5.32531670412e-08
2.50373770872e-08
1.1064214112e-08
1.16706139096e-08
2.71006458825e-08
2.72172361539e-08
3.40692390096e-08
1.57509712466e-08
3.90223116473e-08
2.77424842301e-08
2.3843855806e-08
1.15536149244e-08
6.46475700017e-08
1.86325842092e-08
8.17347980772e-09
3.02139799272e-09
1.08320940143e-09
7.21967714524e-09
1.11239447418e-08
7.06469099205e-09
3.3865406515e-08
6.68029638174e-09
2.02425090517e-08
2.51563670948e-08
2.81839999307e-09
7.37857362441e-08
6.40799137998e-09
2.51290471313e-08
2.15280669675e-08
2.25382568649e-08
1.56875258446e-08
7.92870914713e-08
3.81685820496e-09
4.81429953615e-08
6.72735305264e-09
3.01511372671e-08
8.76003284473e-08
1.18753891992e-07
2.47597804117e-08
6.70668500868e-08
2.37556970103e-08
2.51436301683e-08
8.02171242198e-08
3.36805422249e-08
2.26882706177e-08
5.28933482626e-08
2.48679011004e-08
2.86792725227e-08
8.1580302202e-08
1.34694074973e-07
1.42173742091e-07
2.61532682407e-07
1.51522171324e-08
7.1420577149e-08
2.95644921398e-07
6.34168070171e-08
6.20798905414e-08
1.21902314337e-07
2.11077477821e-07
4.84102994556e-08
6.13183918085e-09
2.14020862855e-07
1.50463746802e-07
5.83618165169e-08
2.80665593431e-08
3.87598169137e-09
1.1925811768e-07
9.75527112259e-09
2.83953313252e-08
9.95987908142e-09
2.65401586571e-08
1.41300950272e-10
1.79591256807e-08
4.3954167724e-10
4.98657945848e-09
1.42908025762e-08
6.01646611009e-09
3.40958208627e-09
2.85503082354e-09
4.09850334916e-08
3.2835152427e-08
5.36799529907e-09
1.39051520262e-08
1.58844735871e-09
9.51786774599e-09
6.24577342706e-10
1.37632153612e-08
1.43152529971e-08
6.24077575234e-09
3.43906289563e-09
4.48379530809e-09
1.00696882948e-09
6.770962237e-11
5.41869526449e-09
4.19758466342e-09
5.40986897651e-09
7.56950896694e-09
6.63336896337e-09
3.69172407251e-09
1.66319165707e-09
2.37058418845e-09
2.32382178815e-09
2.11092285204e-10
9.95401755662e-09
7.1310975481e-11
1.87774027245e-09
1.79262008802e-08
2.4758802008e-08
1.67262639163e-08
5.18567245307e-09
2.0163425121e-08
3.41592825845e-08
4.12877623583e-08
1.00201976601e-08
4.2269312126e-09
1.31345665882e-07
1.01482389731e-08
4.94122060058e-09
6.08564741158e-09
5.57399298478e-09
4.78724750795e-08
3.10444198231e-09
5.35129342827e-09
1.02397235766e-09
4.6303968754e-10
1.34003159702e-09
2.80459518027e-09
5.35432023714e-11
1.78102855083e-09
7.73122974558e-10
4.67170751176e-09
2.54822248242e-09
5.11657032648e-09
1.85544388997e-08
3.18014607303e-08
7.13453045061e-11
2.29159051205e-08
5.91841199552e-09
3.03896793547e-10
9.95523151586e-10
1.54321472254e-09
3.58349481817e-09
1.1052711015e-09
1.74284930026e-09
5.83674760737e-09
5.60113577876e-10
2.74366241008e-09
3.87391816713e-10
2.71225258758e-09
6.97266284023e-09
1.27033311416e-09
2.82208838568e-08
1.58008651833e-08
2.77007028978e-09
8.44346419049e-09
6.07383766585e-09
3.86694779442e-09
3.7305787297e-09
8.62522390917e-09
7.9787314988e-09
6.06281680395e-09
1.52601956903e-08
6.16466445996e-09
2.32978676474e-08
2.00211859753e-09
7.89112344045e-09
4.11943713074e-09
7.88793254263e-09
1.75330110216e-08
6.76670856566e-08
3.37168800734e-08
2.44476801536e-08
2.38968855753e-08
7.56047173562e-09
2.34279991909e-08
4.02200780126e-08
1.60089655958e-08
5.66806200648e-08
5.74466389571e-08
3.98806252127e-08
3.534697978e-08
1.04044120843e-07
3.34493895396e-07
2.34240114797e-08
8.1013323005e-09
2.80046145742e-09
1.22927847085e-08
2.74635693456e-09
2.66601373966e-08
1.98185533463e-08
1.44085184265e-08
1.35393146909e-09
2.0194381504e-08
6.51538083052e-09
5.9195301093e-08
4.42954932279e-08
2.18364375981e-08
7.82895429491e-08
1.74086033311e-07
3.33714717113e-08
1.00034423942e-07
6.35721545532e-07
1.22798051992e-07
1.6538806283e-07
2.43932130836e-08
3.34426768201e-08
2.86730148449e-07
1.79994640697e-07
2.3237525353e-07
9.11110058178e-08
7.59263385319e-08
1.16587317374e-09
2.9570627187e-07
8.01027334735e-08
1.98058594767e-08
6.15506087896e-09
1.05275060433e-07
1.46404471297e-08
8.84420746993e-09
2.26878643396e-08
1.1478497922e-09
6.25305177149e-08
3.80448612406e-08
2.17448279623e-08
2.42229679282e-08
4.66709351537e-08
6.27576859414e-08
1.51652202107e-07
1.02102492653e-07
3.00740284526e-08
4.80504048454e-08
5.07332527719e-08
2.81733562093e-08
1.01528267609e-07
1.44830473096e-08
1.74107959971e-07
1.35297842098e-07
1.7655713501e-08
4.79161637681e-08
1.33552812849e-09
1.25242963208e-08
3.68721161509e-08
2.53184447537e-09
6.4913783921e-09
1.28546490382e-08
2.88713454645e-08
1.08846370934e-08
2.05007744947e-08
1.89819519856e-08
1.70079283698e-08
4.52395121772e-08
5.20826743591e-08
3.40581101384e-08
3.75159170289e-07
1.16465056957e-07
3.96665316587e-08
8.93057632845e-08
3.65403253191e-09
1.52961101847e-08
1.37387268592e-08
3.82898604332e-08
1.42830959038e-08
1.36969494506e-08
1.27238775635e-07
3.1596678865e-08
1.55755706694e-08
6.40074812989e-09
9.99346148556e-09
6.07713132754e-08
1.76931655924e-07
8.12964797475e-08
6.90384758299e-08
5.04018188419e-08
1.05740872679e-07
5.33290873137e-08
1.3857042818e-09
6.31213676057e-08
2.88202329235e-08
1.12713552889e-07
2.61810501429e-08
1.04567762409e-07
2.55823503544e-08
3.62016503025e-08
1.31726137162e-08
1.82103619737e-08
4.39974185068e-09
3.39785703853e-08
2.18176339912e-08
6.96166530974e-08
1.33727073711e-09
4.58934030888e-08
3.91338030241e-08
6.72697273007e-09
5.9145577006e-08
6.52018234143e-08
3.21183705279e-08
3.73053120422e-08
7.54164025429e-08
2.32295328061e-08
2.0209315936e-08
3.72421547943e-08
2.0027958384e-08
2.74117531764e-09
9.29576596918e-10
3.27244295279e-08
2.44928935927e-09
6.78638037224e-08
1.6526253084e-08
2.70402201051e-09
1.05424057494e-08
1.4231303678e-08
6.28270247928e-08
8.09054991509e-08
2.43441344475e-07
8.84340247823e-09
3.54268567189e-07
1.38728730208e-07
6.79592060423e-07
8.88145560611e-07
2.72093860998e-07
4.90829555112e-07
1.31398073536e-07
3.17219895112e-07
2.69223325004e-07
2.54023658044e-07
7.89967089589e-08
9.01256287015e-08
2.82363215879e-07
1.3839339546e-07
6.87059911238e-08
7.71248198726e-08
1.10846045051e-07
5.43862315716e-07
7.60723591351e-07
1.18023267934e-07
1.06189760013e-07
1.09077608456e-07
1.45244591124e-07
3.88021720412e-08
4.36898949259e-08
2.92882401279e-08
1.65889051058e-09
4.94727950147e-09
1.00634793416e-08
3.65478332593e-08
3.91505232178e-10
4.67124162534e-08
6.26331158883e-08
1.05634613901e-08
1.2328259223e-08
1.69371449477e-08
9.25881888972e-09
7.68918079421e-09
3.27985197444e-08
1.89950823834e-09
9.80334515193e-08
7.12996566326e-10
1.5295089836e-07
5.89189225536e-07
3.70954163787e-09
8.58794551546e-07
3.62562088724e-07
7.51135977611e-08
1.79522124195e-07
2.25813794525e-08
2.39658284711e-07
5.25486311258e-07
6.338456355e-07
1.40311066997e-06
4.94405434356e-07
5.3088950445e-07
1.75205725814e-07
1.08064910868e-06
4.38530768627e-07
1.06834950626e-07
1.47405722186e-07
1.56348930226e-08
1.96545479786e-09
8.75334462959e-08
4.57912327814e-07
2.21834085667e-07
8.44604281575e-07
3.56240129349e-07
3.89742109059e-07
1.13566546138e-07
8.54769189395e-09
4.78477384066e-08
2.77414630077e-09
1.05834973766e-08
6.14556373105e-09
2.30455117635e-08
1.0038970091e-08
3.20439027909e-08
1.17338791646e-08
1.64727663199e-08
9.09258336566e-09
8.16972241781e-10
5.22542588966e-09
3.75251166875e-08
1.72417890286e-08
8.29055260858e-08
1.27804505527e-08
1.03524243043e-08
1.24577888762e-08
3.0034496157e-08
1.61447165862e-08
1.44451450721e-08
1.90183292353e-08
3.07017812879e-08
3.00689869027e-09
4.55541790212e-08
2.3456255812e-08
1.17141891831e-09
2.62332813261e-08
1.048762751e-08
9.25073033036e-08
6.34103899588e-08
9.94279479021e-08
1.80921847794e-07
2.89667334289e-08
1.69407221966e-08
4.25675217316e-08
2.00144223303e-07
6.52276965305e-08
2.30548925691e-08
5.26099269672e-08
4.3234128661e-08
2.26367835665e-07
3.86219424481e-07
4.52338402336e-08
3.05477791644e-07
3.68698765598e-08
2.08244744816e-07
1.68596934596e-08
4.07145910563e-09
1.69850204456e-08
8.63063142914e-08
1.38954452503e-08
1.96883056316e-08
3.421661627e-08
3.94598454931e-08
1.91815414074e-08
4.36621956885e-09
1.11408419352e-08
2.11738594727e-08
2.03787632082e-08
2.92972808179e-09
3.53183856746e-09
3.92019538257e-09
1.32263573589e-08
9.56674951519e-09
2.80607243415e-09
1.2368357469e-09
2.14086525365e-08
7.27075621612e-09
1.21239203522e-08
6.33669761989e-09
1.57136091345e-09
1.0920890527e-10
2.65935287e-09
2.15022123472e-08
1.72890313225e-08
1.42119013548e-08
2.80239923416e-08
7.99307204057e-09
1.67021713615e-08
1.81494674687e-08
1.94287051108e-08
1.1853777428e-08
5.59170082734e-08
1.11531709079e-08
8.05828861087e-08
6.47926625858e-09
5.65514923488e-09
2.91873770249e-09
1.01744974275e-08
2.13466453484e-09
1.37762808047e-08
4.50748320954e-10
4.18805759196e-09
9.91236887741e-09
8.84408438898e-09
2.69647221616e-09
1.08484111795e-09
5.2441156476e-09
6.27766565477e-09
4.04750190134e-09
3.17901452786e-10
2.88100714947e-09
1.67979752956e-08
1.51571790413e-09
2.66347548696e-10
5.72949800603e-09
1.03347627305e-08
2.40422583805e-09
9.79184338658e-09
9.42259391776e-09
1.96926449472e-08
1.11852713225e-08
5.74137748711e-08
3.13873163519e-08
2.73510923708e-07
4.83090692504e-07
3.40119740913e-07
3.5973838668e-08
3.86994870559e-09
5.91209414069e-08
4.56151595044e-08
4.8235252797e-08
3.6339967876e-08
2.37696337142e-08
1.14895143117e-08
2.06749053864e-08
1.52200577741e-09
8.2554704351e-09
6.45942832101e-09
4.96495823223e-08
3.15095611063e-08
5.13346245899e-08
7.25647475384e-08
2.5411547345e-08
1.46277219538e-08
8.20761557864e-08
4.07643245401e-08
5.03940167106e-08
9.30702416583e-08
3.8220865766e-08
6.72990138731e-08
2.734429962e-07
2.35503405269e-07
7.44273608819e-08
7.47969291548e-08
3.94085041065e-08
2.45914339121e-07
2.67573862371e-07
1.37030099658e-07
2.66158273191e-07
1.12853022109e-07
3.13129137224e-08
2.43267628283e-08
5.5152587432e-08
7.20090507564e-08
6.98960060303e-09
3.60553042117e-08
1.56108168407e-09
1.02659836856e-08
4.14226838408e-08
1.62229081341e-08
5.28510170129e-09
2.83102722051e-08
1.15396046417e-09
2.06956133229e-09
6.60460606607e-09
5.90219382044e-09
1.27808938899e-09
6.95288057205e-09
1.54412073661e-09
2.07452150281e-09
1.19561581629e-08
4.91318938265e-09
1.33196019473e-08
1.78009999249e-09
2.96702197503e-09
1.9722678052e-08
3.29633972085e-09
2.28481151278e-09
3.6568641052e-09
8.11532590154e-09
6.65185116638e-09
2.31426357031e-09
1.69933609169e-09
6.30445962643e-09
3.85810378791e-08
6.904840275e-08
5.90714546372e-08
1.54230077918e-08
4.79278976733e-08
8.55888627742e-08
3.76063860962e-08
2.37312548325e-08
2.19534697735e-09
3.93670495435e-08
4.60715416065e-09
8.32585991741e-09
1.40705633642e-08
3.67012975357e-08
1.08725813051e-07
1.56997855777e-07
8.45449526644e-08
4.61338411781e-08
1.34751048901e-08
7.69599361402e-08
9.75988168501e-09
4.53647592035e-08
8.01587437836e-08
1.13703827059e-07
9.51931125482e-09
1.75943547139e-08
3.34059863136e-08
5.39541869065e-08
1.41364899126e-08
2.07092486194e-08
2.38262217185e-08
6.79886226979e-08
4.64957672041e-07
1.98189630076e-07
3.65931216409e-07
2.81075202913e-07
2.13120032288e-09
1.17152299632e-07
1.40378430879e-08
4.83518605897e-08
4.77670932227e-10
6.06021911096e-09
3.29208635004e-08
4.5521478016e-07
6.57615095414e-08
5.24535544154e-07
3.10635035745e-07
1.96542995399e-08
1.20117994166e-08
3.0455014955e-08
1.22752350463e-07
2.73977093714e-09
7.72282053393e-09
5.22701501821e-09
2.01978337555e-08
2.19455664789e-09
3.60938919336e-09
3.29077127813e-09
1.88532961597e-09
2.8731840899e-09
6.51647692759e-10
3.8824038789e-10
1.47628878904e-09
1.99446830268e-09
1.05284420679e-09
6.66316203072e-10
1.21213843229e-09
8.92570249463e-10
2.7565683103e-10
8.74674090299e-10
6.41298448446e-10
6.08149811001e-09
3.80682663865e-09
1.88856480613e-11
1.18528625383e-09
1.90902094461e-09
2.99731661962e-09
1.13916063939e-10
1.74933142531e-09
3.02754942394e-10
1.91883945882e-09
1.82329565515e-10
1.38318836672e-09
1.0476597673e-09
4.0390316958e-09
6.52357032473e-09
4.14890710686e-09
2.62598688745e-09
9.87076234923e-09
3.5756780157e-09
2.48260111465e-09
3.62001313513e-09
7.82748465184e-09
4.07681332661e-09
5.74192402634e-09
3.53024594372e-09
5.59264122943e-09
2.67765660018e-09
1.80723367814e-09
9.47408029818e-09
8.62388402534e-10
1.80714130568e-08
4.76670974604e-09
1.93698807782e-09
1.34971168412e-08
1.28146588634e-08
1.54973685618e-08
8.81924762362e-09
1.5101928503e-08
1.87262529309e-09
9.51726629154e-09
6.5006910544e-09
2.80270483045e-10
1.09607664911e-08
7.81166588977e-09
8.88521020387e-10
1.35310559672e-08
6.50353444628e-10
5.37530292857e-09
9.83023897644e-09
7.88613320421e-09
6.11554176309e-09
3.7072818287e-08
2.63874546008e-08
2.55110188849e-08
1.1694508423e-08
1.92173571129e-08
1.23433064144e-08
1.15221432441e-08
1.73911526518e-08
1.97551172165e-08
4.40670829183e-09
1.08266869738e-08
2.7340117612e-08
3.09769379575e-09
4.12026840839e-08
3.22861631514e-08
8.51579254912e-09
1.24798599123e-08
5.15116292772e-09
4.88864235829e-08
3.17629805028e-08
6.23193156615e-08
6.92299047492e-10
8.01356622811e-09
3.11687891599e-08
3.09553257034e-08
9.51614824204e-08
2.99499411258e-08
6.87619170294e-08
4.61920611333e-08
8.85809677412e-08
2.63905744735e-08
2.27255338139e-08
9.31118540513e-09
2.0313867339e-08
4.71143256536e-08
1.03338541154e-08
1.45501367814e-08
7.28550887645e-09
7.53636466098e-09
1.41282439614e-09
1.02594195679e-09
1.00941281935e-09
5.90035653425e-10
3.53885313352e-09
4.51565620999e-09
6.77807906844e-10
1.32187527311e-09
3.29789042676e-10
4.44216058415e-09
7.38543876376e-09
1.88311751849e-10
1.2819228416e-11
3.82745451672e-09
5.49969337376e-09
5.30282253753e-09
1.47831589666e-09
3.21834031325e-09
4.25933220353e-09
9.72566559275e-09
4.0214596775e-10
1.54278223583e-08
2.15878019753e-10
5.33416476828e-09
1.55621873354e-08
3.56951705492e-08
1.02546837344e-08
3.95146279885e-09
1.03956368989e-10
2.01978109758e-07
2.59565658268e-08
1.27371043152e-08
6.68932440502e-08
9.81571510575e-11
3.20618129076e-08
3.15802009224e-09
9.13113732461e-09
3.28534305875e-10
1.01166544397e-09
3.0016372062e-10
4.94557590795e-09
5.63188140917e-09
6.47248551227e-10
1.63257246552e-10
6.10322843938e-10
2.86231766605e-10
4.9587183257e-09
3.67490333913e-10
1.1608885199e-09
8.00153242945e-10
1.99052478331e-10
1.2513474634e-09
4.29339671239e-10
5.7868781411e-10
7.07798955175e-10
2.83378312117e-10
1.56833162033e-09
2.58925956382e-09
5.11823546895e-09
5.61786753032e-10
1.13892474364e-08
1.14441241046e-09
4.17247835718e-09
3.70651669399e-09
2.88361396761e-09
7.59863929031e-10
2.27948315834e-09
1.74924714441e-09
4.67036973349e-09
2.21595825151e-09
1.05259384299e-09
3.04397893805e-09
7.8583876196e-09
2.17323452421e-09
6.98105007788e-09
9.34642807902e-10
1.37084688466e-08
6.99748679638e-09
2.09227184745e-09
8.50459676655e-09
1.5997322863e-09
6.11044528933e-09
1.16557052252e-08
3.57710177948e-09
1.20651452915e-08
1.13685729051e-08
3.46427340371e-09
1.5621130335e-09
2.18913987212e-09
2.3715422821e-09
2.75871165423e-09
5.35414385779e-09
2.54200948752e-09
1.91517875284e-09
3.26863222059e-09
7.07588750808e-09
1.2812885414e-08
1.31480426437e-08
7.87554296074e-11
8.65174382993e-10
1.43775955845e-09
3.85134477078e-09
1.93371879783e-09
3.66672489978e-10
1.55787582255e-09
3.0275316929e-09
4.05362391748e-10
1.9077334295e-10
7.96420112683e-10
2.13810410234e-09
1.38491499578e-09
1.21666641815e-09
3.61600843211e-09
3.47025323961e-09
7.20527875921e-09
1.57530699275e-09
3.77978081479e-09
6.13214880163e-10
2.39970038869e-10
2.79899879596e-09
4.72638100761e-09
5.46940370381e-09
1.76291196358e-09
1.03900287395e-08
2.34315236745e-08
1.58253631152e-09
3.86423278565e-08
8.29992777573e-09
5.59876305961e-09
3.88754231849e-09
6.98923202621e-09
4.43672903145e-10
3.06481344375e-09
2.46742637203e-09
1.50437598027e-09
1.3302264147e-09
2.31648351159e-09
1.77223050842e-09
3.67900039094e-09
2.90844375704e-09
7.59014242297e-10
4.73547729297e-09
2.05728801061e-09
1.1690084052e-08
4.73896493924e-09
1.03767539505e-09
1.83760698048e-08
1.5425762475e-07
7.99342522636e-09
8.96164227104e-08
4.37175594242e-09
5.67462949723e-08
1.3934870761e-08
1.11989674925e-07
3.30911745521e-08
3.82674128623e-07
2.32415882766e-07
4.07637175236e-08
4.76564414816e-07
4.54325923266e-07
1.359727974e-07
1.4449364286e-07
2.48888162306e-08
5.94191781961e-08
3.72682991448e-09
1.82595876701e-08
6.59044054778e-09
6.34913609916e-08
3.24839477302e-08
1.3284019122e-07
1.21875172299e-07
8.41313869766e-08
2.64134795254e-07
1.61621316554e-07
1.99309499009e-07
1.41405937829e-07
9.64069403026e-08
8.25741595718e-08
1.59335817054e-08
1.06540144714e-09
6.34038349603e-09
2.25567877323e-09
3.12739050197e-09
3.5457662503e-08
2.64819280393e-08
5.39382823349e-08
6.15473708579e-08
1.46324051531e-08
7.45291390432e-08
2.94677238267e-08
4.41939261576e-08
1.8891509788e-08
2.405332881e-08
1.19965096639e-09
5.72375139427e-10
3.08963187604e-09
1.19678308703e-08
5.64051009312e-09
9.16576922429e-09
1.12891659946e-08
1.54454214997e-08
1.40036472155e-08
5.87243802031e-09
1.34053174646e-08
6.41424325728e-09
3.81965799596e-08
1.19836436232e-08
6.58694033741e-09
1.96574879196e-08
3.38806548042e-08
1.33142502965e-09
1.67820647773e-07
6.57268610909e-09
1.9606131583e-07
3.82602074794e-08
8.57522857041e-08
1.19796609525e-08
3.91458180368e-08
1.70653720985e-08
2.20515423888e-08
1.05817927863e-09
2.57622527518e-08
4.2932576378e-08
5.36410480131e-08
8.18572888403e-08
7.22570059981e-08
6.27144507603e-08
8.3918100543e-08
3.14459429283e-07
3.18027111467e-08
1.37557910148e-07
3.67212737488e-07
4.08461836029e-07
5.50294430516e-07
2.99393791887e-07
2.3387685027e-07
1.15152917558e-07
4.57870113557e-08
3.48010721954e-08
1.34210308388e-08
1.34564172028e-08
5.16835883357e-09
8.63946464217e-09
9.30835161088e-09
6.40999914317e-09
2.53483948587e-08
2.31160694128e-08
5.0152959216e-08
3.73279597085e-08
3.96233521371e-09
7.29912266935e-08
1.08874851733e-07
9.00132862759e-08
1.76056752609e-08
1.55809835195e-07
5.76626865758e-08
3.33955798462e-08
9.10935097377e-09
2.56159442151e-08
8.43900449435e-09
4.30453510286e-09
7.27994226507e-09
3.20245089798e-09
1.69917744767e-08
7.8486694355e-09