# vtk DataFile Version 3.0
File Name: Molecule/arg/arg_12.5-6.vtk
ASCII
DATASET UNSTRUCTURED_GRID
FIELD FieldData 1
TIME 1 1 double
0.0
POINTS 3211 double
-3.2915728092 0.021511036903 1.3649736643
-3.2118530273 0.076628118753 1.6056106091
-3.4651155472 0.23058536649 1.362196207
-3.3672487736 0.31401985884 1.6683750153
-3.0587067604 -0.15049450099 1.7353010178
-3.1553630829 -0.17457689345 1.469399333
-2.9723987579 -0.40958604217 1.8294577599
-3.0658664703 -0.41838032007 1.5730702877
-3.4821083546 0.15173785388 1.0689491034
-3.2477896214 -0.10209715366 1.1394293308
-3.10227561 -0.35090434551 1.2700285912
-3.0220651627 -0.59321725368 1.3832327127
-3.3652431965 -0.0076161362231 0.81616824865
-3.1802744865 -0.18933463097 0.85949420929
-3.0669343472 -0.39156594872 0.97923612595
-2.9834420681 -0.64976191521 1.0952317715
-3.1582069397 -0.13813535869 0.59084063768
-3.3381001949 0.057430107147 0.50025177002
-3.0078835487 -0.35440996289 0.69093489647
-2.9011836052 -0.6425921917 0.78885871172
-3.1357448101 -0.046428188682 0.31654527783
-2.9495518208 -0.23429949582 0.40733781457
-2.8354372978 -0.45794734359 0.51233923435
-2.7566268444 -0.69663435221 0.57565176487
-2.9092545509 -0.07167481631 0.17855556309
-2.7221150398 -0.21917940676 0.14366991818
-2.710398674 -0.37515357137 0.31707730889
-2.5976684093 -0.60568434 0.33521735668
-2.811037302 0.13350838423 -0.2387445122
-2.7197768688 -0.050201825798 -0.053566519171
-3.0327568054 0.1123156175 0.015418865718
-2.6192669868 -0.0070418869145 -0.27287569642
-2.472430706 -0.28187391162 -0.058601468801
-2.4975619316 -0.14780196548 -0.22307497263
-2.4529623985 -0.12306968123 -0.43110954762
-2.3489313126 -0.29407694936 -0.32361704111
-2.2992930412 -0.29424196482 -0.51645290852
-2.2284188271 -0.44361409545 -0.47578158975
-2.2118432522 -0.43740791082 -0.69455689192
-2.3437056541 -0.20816259086 -0.69411534071
-2.2779092789 -0.38445273042 -0.97008085251
-3.0471639633 0.31151473522 -0.23611651361
-3.2927987576 0.31587263942 -0.024555331096
-2.6384744644 0.084915645421 -0.47211799026
-2.8105707169 0.26742222905 -0.51215279102
-2.5097153187 -0.026995141059 -0.63602137566
-2.6620972157 0.17922857404 -0.7397480607
-2.4316382408 -0.11682038754 -0.89634680748
-2.5807499886 0.089413315058 -0.99376446009
-2.4192683697 -0.21531535685 -1.1676259041
-2.5677342415 -0.0062342174351 -1.2498427629
-3.2605648041 0.5706834197 -0.23585321009
-2.988193512 0.50276368856 -0.46041324735
-2.8148105145 0.44366389513 -0.68426334858
-2.7073531151 0.36381214857 -0.9025567174
-2.6237549782 0.26503521204 -1.1741291285
-2.5998744965 0.14190228283 -1.4405174255
-3.052056551 0.82171577215 -0.51977038383
-3.2974276543 0.94206821918 -0.33970019221
-2.8667817116 0.73199975491 -0.73014658689
-2.7398109436 0.65090769529 -0.93264108896
-2.6562547684 0.56344610453 -1.1779980659
-2.6273543835 0.45574909449 -1.4839310646
-3.1074607372 1.1865121126 -0.51201874018
-2.9001288414 1.0657811165 -0.66811704636
-2.7485003471 0.96434676647 -0.85680317879
-2.642162323 0.88271605968 -1.0707716942
-2.5605146885 0.79531264305 -1.3378926516
-2.5378787518 0.72922873497 -1.601853013
-2.864002943 1.3359125853 -0.61917507648
-3.0615665913 1.5024006367 -0.46155500412
-2.6930730343 1.2073819637 -0.81714659929
-2.5665245056 1.1154093742 -1.0117888451
-2.4841902256 1.0275892019 -1.2521804571
-2.431943655 0.98282158375 -1.5518857241
-2.7875459194 1.6718418598 -0.52925390005
-2.6489694118 1.443415761 -0.68221706152
-2.4847261906 1.3629865646 -0.85501807928
-2.3463878632 1.291479826 -1.0760143995
-2.2966225147 1.1557226181 -1.3513982296
-2.163107872 1.2268353701 -1.6238780022
-2.5899262428 1.9409580231 -0.44127866626
-2.5045092106 1.6223675013 -0.65590417385
-2.3037266731 1.8121783733 -0.62188339233
-2.0410220623 1.7753640413 -0.82147020102
-2.2537443638 1.551400423 -0.87792438269
-1.9078862667 1.6628906727 -1.139867425
-2.1164691448 1.4589024782 -1.1447798014
-1.9660736322 1.481343627 -1.4492952824
-1.7278658152 1.7193183899 -1.5024415255
-2.2642290592 2.0668325424 -0.45150029659
-2.4005842209 2.2641217709 -0.2367015332
-2.734975338 2.1739423275 -0.20144708455
-1.9868905544 2.2007124424 -0.54568934441
-2.1173381805 2.3606889248 -0.34300222993
-1.762305975 2.3169636726 -0.71002691984
-1.8570141792 2.5151705742 -0.48439714313
-1.5673247576 2.4333078861 -0.9434555769
-1.6594692469 2.6701111794 -0.70115196705
-2.6747465134 2.4021384716 0.032865650952
-2.3659436703 2.4815609455 0.026846826077
-2.1414020061 2.5297524929 -0.11143273115
-1.9025762081 2.6783070564 -0.21604894102
-1.6649031639 2.9059717655 -0.40322297812
-2.5875561237 2.5625464916 0.30105417967
-2.2844700813 2.6382257938 0.33719301224
-2.052952528 2.6939589977 0.1434622407
-1.7962188721 2.8483569622 0.0038932887837
-1.606965661 3.0717270374 -0.077550604939
-2.4672470093 2.6581933498 0.63124924898
-2.1613845825 2.7054877281 0.67715978622
-1.9969086647 2.7506246567 0.44483277202
-1.7340914011 2.9060189724 0.31091192365
-1.4732851982 3.174823761 0.2367323786
-2.7109065056 2.6552786827 0.88844692707
-2.3487102985 2.7200555801 0.95798927546
-2.6098690033 2.6809206009 1.1963268518
-2.1371996403 2.8883323669 1.1982922554
-2.3999249935 2.8374733925 1.3783990145
-1.9523081779 3.0792908669 1.3170150518
-2.2056269646 3.0527253151 1.5167095661
-1.8659148216 3.3179731369 1.4880123138
-2.1744811535 3.2656443119 1.7398210764
-3.0080442429 2.5078604221 1.2044341564
-2.8388700485 2.5540950298 1.4332066774
-2.6289725304 2.7058041096 1.6075470448
-2.4617202282 2.9192638397 1.8137800694
-2.4049737453 3.1415896416 2.0319685936
-3.1735138893 2.3086395264 1.4825476408
-2.8817815781 2.4530827999 1.6596508026
-2.7181944847 2.5723292828 1.868953824
-2.5944330692 2.7516384125 2.0945105553
-2.5290977955 2.9722185135 2.3147265911
-3.3076970577 2.0689167976 1.6891690493
-2.9874126911 2.292693615 1.8196991682
-3.1072402 2.1014704704 1.9289706945
-2.7997939587 2.4234220982 2.1184763908
-2.9733738899 2.1746239662 2.1700623035
-2.6809191704 2.6179373264 2.3894510269
-2.8761451244 2.3023476601 2.49696064
-3.178538084 1.8922250271 2.0464172363
-3.4178023338 1.7812212706 1.8097954988
-3.0194706917 1.9661622047 2.382422924
-2.974704504 2.0082204342 2.7378122807
-3.3570444584 1.4055982828 2.1003932953
-3.2780885696 1.6612719297 2.0649492741
-3.5115609169 1.5014443398 1.8502271175
-3.1439950466 1.7314611673 2.3243541718
-3.2262401581 1.4938958883 2.3884806633
-3.0929038525 1.7445235252 2.6304223537
-3.1842794418 1.4897669554 2.7134065628
-3.1201338768 1.7591152191 2.9973084927
-3.2288544178 1.4295345545 3.0386805534
-3.5476369858 1.226477623 1.860915184
-3.3765234947 1.1289741993 2.1060886383
-3.2584309578 1.2302459478 2.4183561802
-3.2132205963 1.2387779951 2.7680549622
-3.2492740154 1.1285846233 3.0484302044
-3.3587703705 0.87247878313 2.0444784164
-3.5424003601 0.91829019785 1.8166707754
-3.2476124763 0.93712699413 2.3472323418
-3.1966617107 0.95780968666 2.693580389
-3.1971342564 0.84663873911 3.0291900635
-3.4352128506 0.611374259 1.7855417728
-3.2236032486 0.64397996664 2.1233110428
-3.1254246235 0.69318914413 2.4350643158
-3.0993878841 0.71774601936 2.750648737
-3.0894668102 0.57363688946 2.9640729427
-3.180991888 0.38610765338 1.9702051878
-3.1011323929 0.10331778973 1.8807473183
-2.9821248055 0.14593295753 2.1652638912
-3.0511467457 0.44444483519 2.3057115078
-2.908520937 0.24138011038 2.4555830956
-3.0293362141 0.51264089346 2.6150305271
-2.9242806435 0.35220122337 2.7636806965
-2.9745032787 0.38342413306 3.1310780048
-2.9114906788 -0.20467945933 2.048150301
-2.7503991127 -0.4661000371 2.2802042961
-2.8288435936 -0.072457291186 2.319881916
-2.694583416 -0.23990954459 2.4875690937
-2.7714095116 0.055813428015 2.6268699169
-2.6297764778 -0.1537079066 2.7172281742
-2.817606926 0.21524052322 2.9344930649
-2.6782779694 0.001345647499 2.9531013966
-2.8076045513 0.16866992414 3.2692635059
-2.5373134613 -0.68684780598 2.4070930481
-2.5084087849 -0.43586295843 2.5835978985
-2.4727444649 -0.24717317522 2.8855907917
-2.5345642567 -0.06834898144 3.1676640511
-2.6097187996 0.023863429204 3.4515697956
-2.4613547325 -0.94441747665 2.3702254295
-2.3293502331 -0.74659627676 2.614824295
-2.2852129936 -1.0195256472 2.5125246048
-2.2600419521 -1.2029862404 2.3407320976
-2.4624941349 -1.1140258312 2.1835570335
-2.11140728 -1.3080617189 2.5150825977
-2.1697692871 -1.1458170414 2.6100151539
-2.3163375854 -1.3599854708 2.0409963131
-2.0884473324 -1.4517734051 2.2600388527
-1.9927448034 -1.4875786304 2.5400595665
-2.2116467953 -1.5193737745 1.7408355474
-2.0164139271 -1.5677448511 1.96243155
-1.9104480743 -1.6072643995 2.480537653
-1.8594334126 -1.6664167643 2.1330821514
-1.9615734816 -1.66073668 1.6504403353
-1.7874079943 -1.7067192793 1.859328866
-1.6455869675 -1.8149499893 2.0484237671
-1.5225447416 -1.9679141045 2.2716805935
-1.7259255648 -1.8004202843 2.3087711334
-1.6936328411 -1.878993988 2.4574697018
-1.6145817041 -1.992782712 2.5335731506
-1.666734457 -1.7398966551 1.6211624146
-1.8376891613 -1.6983828545 1.4066107273
-1.504825592 -1.8326745033 1.8232731819
-1.3679699898 -1.9825927019 2.0398945808
-1.2412874699 -2.2121167183 2.2382121086
-1.4457005262 -2.1665508747 2.4637584686
-1.5603557825 -1.7330121994 1.286609292
-1.3928022385 -1.7825551033 1.5349594355
-1.2346975803 -1.9006658792 1.7595225573
-1.0975124836 -2.0599844456 1.9520334005
-0.94131231308 -2.2765700817 2.08497715
-1.8324086666 -1.681219101 1.1053820848
-1.4248958826 -1.7368959188 0.99582076073
-1.6442942619 -1.7020398378 0.81253492832
-1.1342080832 -1.8431415558 0.85409325361
-1.3713390827 -1.8192970753 0.6559035182
-1.1023824215 -1.9898886681 0.518250525
-1.3444314003 -1.9300416708 0.3815176785
-0.923597157 -2.2315862179 0.33473825455
-1.2175761461 -2.1458222866 0.19508607686
-1.9594925642 -1.6077933311 0.85633176565
-1.7961252928 -1.6225364208 0.62846833467
-1.588987112 -1.745988965 0.46906623244
-1.5091032982 -1.8712263107 0.19189947844
-1.4328066111 -2.0649859905 -0.019860781729
-2.0113279819 -1.4690858126 0.54682809114
-2.191236496 -1.4558472633 0.77040708065
[...]
CELL_DATA 6418
SCALARS cell_data_0 double
LOOKUP_TABLE default
1.78507000543e-09
2.23041944591e-09
1.25800359789e-09
3.85008930029e-10
7.29943789501e-11
1.87471339644e-09
6.40213699516e-10
1.2815311939e-09
1.3722870706e-09
1.84869611813e-09
3.73563977856e-10
1.51691863455e-09
1.51068692682e-09
1.28680254868e-09
2.07603563478e-09
5.08397227634e-10
8.42904353988e-11
1.69044786683e-09
1.66954492446e-09
2.65783545296e-09
4.72352767693e-10
1.26790469988e-09
1.21986440579e-09
6.50665076172e-10
8.3786118164e-10
1.23532419259e-09
3.05451585152e-09
1.47031984032e-10
1.38001000152e-09
2.57059909088e-10
8.73375342561e-09
3.963458578e-09
3.04402506034e-09
2.38982001425e-09
1.83586901215e-09
2.77253621472e-09
3.34667158695e-10
3.61709318477e-09
2.96342943717e-09
3.78606752759e-09
6.76056346459e-10
3.0936024988e-10
1.93302492428e-09
2.2420227519e-09
6.2525932166e-10
5.53234030906e-09
3.89385999621e-10
8.5647687349e-09
5.02247207135e-09
1.12348618688e-08
3.8339058481e-09
8.871214629e-09
1.36770258514e-08
9.43425530053e-09
2.14891396485e-11
6.05433587389e-10
5.4683850321e-11
9.45054067752e-10
2.41777631748e-10
6.50338917246e-10
6.99755936035e-11
2.56198289256e-09
5.69621092484e-09
1.72590530847e-09
9.38021692731e-10
1.74908907729e-09
2.4558263489e-09
9.32718899935e-10
9.41392590154e-10
1.72133877568e-09
8.67276762103e-10
7.96144963329e-10
9.44602165512e-09
1.9612052643e-09
5.94104022417e-10
1.34549152369e-09
3.83150836108e-10
1.51006522283e-09
2.93092181015e-09
1.90289002766e-09
4.33037717655e-09
6.11549965048e-09
1.07355516188e-09
1.12879067704e-08
2.7675895028e-09
1.02920274841e-09
2.11212544715e-09
2.41734402623e-09
2.74345408304e-09
1.84066992213e-10
4.40630196021e-10
5.89947736388e-10
3.245229435e-09
4.62451739012e-09
2.63895058655e-10
4.09400833703e-09
2.99648794677e-09
4.15050939075e-09
1.12742987065e-08
4.1089737522e-09
8.16403068606e-09
1.10869583567e-08
1.03646255673e-08
5.10992005336e-09
7.05928469354e-11
3.80436528598e-09
2.3466190034e-09
4.18333401458e-10
1.15014590833e-09
1.23782657227e-08
9.87797630432e-09
3.39735326989e-09
1.58445319321e-09
3.5196943645e-09
2.33263535614e-09
3.65343439742e-09
5.63097320393e-09
9.08086246283e-09
1.45278655315e-10
5.17928420021e-09
1.96480144781e-09
5.36758073106e-10
3.45937560389e-09
1.06584776496e-09
5.16914432805e-09
4.22723029421e-10
5.4286184661e-09
2.43009381803e-09
1.01898313471e-09
8.43417931027e-10
1.74550566882e-09
1.64687338821e-09
1.32007554528e-09
9.00686032902e-10
8.30560843163e-10
6.12631925017e-10
2.42345713073e-09
7.88584968894e-10
2.74464215464e-09
3.75981550915e-09
3.35100918967e-09
1.68274399057e-09
1.65230694379e-09
1.01850756667e-09
5.73460758241e-10
2.65779624933e-09
2.71253562746e-09
7.17411476298e-10
1.89176776153e-09
4.87704084954e-09
4.37474655587e-10
2.36635136209e-09
3.15641413359e-09
8.784411597e-10
6.48464998036e-10
7.81306033806e-10
3.97582586706e-09
1.74927042072e-09
3.19309638206e-09
8.24982270413e-10
5.07167708225e-10
1.19727230574e-09
1.71971634168e-09
3.21331669498e-09
3.38706633103e-09
4.69700085611e-09
2.39105862506e-10
1.26138620823e-09
8.7890788738e-10
6.25665370437e-10
1.01580698031e-09
9.03664656246e-10
1.6320686458e-09
2.63369652507e-10
1.6709048714e-10
2.76086264967e-11
1.10144265144e-09
8.55316925571e-10
6.70083729485e-10
3.822053017e-10
1.97378378694e-09
6.10936004496e-10
7.3931492156e-11
3.21243755837e-10
3.50515741758e-10
9.75245765505e-10
8.48193369289e-10
1.96059720299e-09
1.47911423155e-09
3.50486247992e-09
8.66376765207e-10
1.30871756621e-10
1.96544243169e-10
7.44849925903e-10
6.37272945335e-10
7.01143657923e-10
3.00766197588e-09
1.17641941713e-09
1.47392427232e-09
6.95746730994e-10
1.92125931156e-09
2.26071978547e-09
2.18737961435e-10
4.49174895695e-09
1.92000360672e-09
8.38883870756e-10
1.01643304748e-09
3.20319329956e-09
6.34893511439e-09
2.58426363531e-10
1.64369066719e-10
8.38731954676e-10
7.29885313697e-10
9.92473736129e-10
3.62946736701e-09
5.01415572333e-09
1.1897499796e-09
3.15817626148e-09
6.88457328175e-10
6.86516868776e-10
2.71154429675e-09
1.52574173922e-09
8.94811320257e-09
7.9586202807e-09
4.03522170173e-09
8.590505201e-10
4.92764771635e-09
5.84207581263e-10
7.40745528679e-10
1.3291938713e-09
7.57268101138e-09
3.20718383225e-09
3.69696853944e-09
5.70780106472e-09
3.26884114197e-10
5.79185751874e-09
2.10566683942e-09
2.56502019581e-09
7.51285287963e-09
1.52263305529e-08
7.98255492019e-09
5.05956594939e-10
1.15445963705e-09
8.51039712954e-09
1.42257571917e-08
2.40039053479e-08
5.94930013923e-09
3.60684051781e-10
1.36948684939e-08
1.41705373604e-08
1.06931647875e-08
2.69321391182e-09
1.36868436868e-09
5.26228167388e-09
4.50340422817e-09
5.83226856422e-10
6.29212842424e-09
8.65640257316e-09
1.38581740943e-09
1.99399608754e-09
2.41130435197e-09
3.15185146644e-09
1.33196885666e-08
1.49078008569e-09
4.54273735637e-09
6.97576514301e-09
5.34118227486e-09
5.34155517905e-09
2.7855167599e-09
4.43951131909e-09
2.40167966359e-09
1.47164522033e-08
7.51715852409e-09
5.31316092552e-09
1.19723658301e-09
6.84286557461e-09
4.59769020202e-09
3.69139431823e-09
4.54570063055e-09
2.14623233616e-09
6.9780261339e-09
3.51461057871e-09
3.43168839407e-09
1.91580259751e-09
4.93054811101e-09
3.46985982365e-09
3.23080438269e-09
2.47833990224e-09
2.51746989953e-09
7.97238660385e-10
8.53698501984e-10
1.27740676989e-10
4.62668470734e-09
3.93537195681e-09
1.1245202354e-09
4.1293226939e-09
9.29737332254e-09
3.75889529959e-09
3.38560049275e-09
1.91622528393e-09
2.18563499333e-09
3.31133824861e-09
1.4291791494e-09
9.04162649346e-10
2.92895711735e-09
6.29230298488e-09
2.37800518389e-09
2.45950846366e-09
1.12608101186e-09
5.63236318522e-10
4.11030458472e-10
1.35487101689e-09
2.48998042086e-09
3.80321734773e-10
6.62270126845e-10
6.59015527742e-11
3.07441677999e-09
5.65862220046e-09
4.1285851692e-09
1.10652145351e-09
5.72146798537e-09
3.07769654735e-09
2.47777248668e-09
1.96602018617e-09
5.00617793519e-09
2.60013235721e-09
3.65842887064e-09
4.15899817401e-10
1.15547717064e-09
5.76127229699e-09
1.21554282931e-08
9.8095107199e-09
1.49026856005e-09
8.47122785175e-10
3.42429104351e-10
1.14131137249e-08
1.1447716938e-08
2.01453919342e-09
8.76368502614e-09
2.38411700497e-09
1.52611182832e-09
7.17933033334e-09
5.92142039073e-09
4.74334070998e-09
2.25983322399e-09
9.50284257971e-09
1.98253901011e-10
4.51952401236e-09
1.5776734038e-08
1.00392519979e-08
1.81098368329e-08
1.39271707664e-08
1.18670074896e-09
4.43092465e-09
1.6015096117e-08
9.70614395263e-09
1.1329019559e-09
1.39437060527e-08
5.1540056274e-09
1.33956875336e-09
2.40537155814e-09
1.1079986853e-08
7.02216305442e-09
8.99484200431e-10
9.92589092455e-10
9.31727166056e-10
6.41128364751e-09
1.38691868771e-08
1.11590561336e-08
2.65162254562e-08
8.8279004063e-09
1.16619002759e-08
5.20949692831e-09
1.20598315676e-08
3.97558333159e-09
1.7225893611e-09
3.72446863232e-09
6.97451812476e-09
2.04682903627e-08
7.95697569997e-09
1.74558064002e-08
5.74829010206e-09
9.9786350946e-10
4.27323058129e-10
5.30116906999e-09
1.43705647931e-09
6.64907697449e-09
2.91174373558e-09
4.34975472835e-09
2.14056336283e-08
2.27127133339e-09
1.41787028311e-08
2.10509177253e-10
3.30738096555e-09
3.78085616401e-09
1.06553589738e-08
5.4924208245e-09
4.92333848243e-09
2.42643426792e-08
1.38292433444e-08
1.02314363823e-08
6.00818657267e-09
9.57317233124e-10
1.97335310452e-08
1.05289790204e-08
6.71145262593e-09
7.79856781635e-10
2.00256932276e-09
3.26093236387e-09
1.39767698232e-09
4.20273338494e-09
3.86550922752e-09
5.5002366028e-10
4.40871613969e-10
1.22055683195e-08
1.41466347486e-08
1.20536008876e-08
2.29383448161e-08
2.0088229123e-09
1.17029556719e-08
8.56137340111e-09
9.40731275856e-09
1.73158563576e-08
1.61074695292e-08
1.62859433134e-08
1.43266382267e-08
8.52082941698e-09
8.74791659485e-09
9.64523148623e-09
1.06091565388e-08
6.89349292761e-09
7.97794254369e-10
6.72823678748e-09
4.21558438443e-09
5.33751063566e-09
3.01125659515e-10
9.57184002456e-09
4.17178267563e-09
3.68231097862e-09
1.20359909198e-08
9.3466924077e-09
2.55168306389e-09
1.38817120537e-09
9.43645671999e-09
1.47807760435e-09
6.5286689961e-09
4.21155553083e-09
3.43428938604e-09
2.07995176706e-09
9.1809323951e-10
2.18382009278e-09
1.65930944741e-09
1.35481493225e-09
2.96466872733e-09
1.94532094853e-10
4.92760546537e-09
2.29266810045e-10
2.90977243513e-09
6.81551412983e-10
3.97790659608e-09
2.49554964841e-09
1.92444882346e-09
3.49700229585e-09
1.10028110927e-09
3.83727272738e-10
6.59907254353e-10
5.61416830772e-09
1.00293299401e-08
4.05029303893e-09
8.82495755691e-09
2.00931793075e-09
4.74498971119e-09
1.42809137597e-09
4.77933585003e-09
1.34912719618e-09
8.44945207819e-10
4.94630291906e-10
2.00078622984e-10
1.11900701239e-09
1.67868143977e-09
1.21140015306e-09
6.81121013123e-10
7.54845488757e-10
5.9452420951e-10
2.15647459775e-09
1.5108677948e-09
1.01696841347e-09
2.01753095349e-09
1.13225246045e-09
9.34444708093e-10
1.11077550015e-09
1.28913009033e-09
2.2403783947e-10
5.66629033977e-10
2.31872983308e-10
9.29130222498e-10
1.93848716614e-09
1.28846906674e-09
1.1263951593e-09
3.79100132924e-10
3.79501265429e-10
1.64748735409e-09
6.75476574462e-10
5.18779378466e-11
9.99797514465e-10
3.04943909835e-10
2.08769449881e-09
1.10132324017e-09
7.43794938289e-10
1.37948753056e-10
1.74546762553e-09
8.24874223132e-10
1.98155566225e-10
6.74702264547e-10
2.15360179216e-10
2.59264113956e-09
6.94650398187e-10
3.97892609034e-10
1.34166636368e-09
9.0931646913e-10
1.17884950421e-09
2.13050595716e-09
1.14325123253e-09
4.6126404222e-10
8.72674340522e-10
2.46904842936e-09
5.07148546324e-10
7.83413812657e-10
1.97488956596e-09
8.51062718944e-10
3.5680192638e-09
4.05771814106e-10
2.48638884956e-10
1.10957677945e-09
9.09445381605e-10
2.54585828815e-09
1.3167602349e-09
1.70831013637e-09
3.02736507248e-09
2.59594242038e-09
2.55312740455e-09
4.80548202401e-09
2.40059301665e-09
6.31621038098e-09
3.86893560939e-09
7.48967772819e-09
4.1797092369e-10
1.14282106455e-10
9.06531752149e-09
2.49476454731e-09
2.4495674672e-09
1.16038189192e-08
1.97583082904e-09
5.5344739965e-10
3.94169255895e-10
8.82596802443e-09
1.47200799402e-08
1.04378699171e-08
1.41265380167e-09
3.02115840676e-09
2.41304501809e-09
5.45281607902e-09
6.12333329091e-09
1.00064302687e-08
2.15098353928e-09
8.36507092319e-11
3.79885547641e-09
2.24360568338e-10
5.11553515598e-09
1.82341589628e-08
1.28347338616e-09
3.33717825206e-11
6.16582640596e-10
1.8970934253e-09
1.69801008585e-09
3.62563612534e-09
1.93620922006e-09
2.51605855137e-10
7.52295427947e-10
1.15849651556e-09
3.47107420677e-10
1.39426661041e-09
4.6010478852e-10
1.86039194428e-10
6.94124079753e-10
2.53044774063e-10
6.69842400043e-10
1.2339790676e-09
1.27461199377e-09
8.41468645425e-10
3.76613062144e-11
2.72258486711e-10
1.67044627569e-09
6.90840269458e-10
4.64917918464e-10
3.11007675412e-09
1.41429893512e-09
1.85397175282e-09
1.50444837184e-09
2.86501235987e-09
2.92438462507e-10
4.6943425113e-10
1.0656034695e-09
1.24315147032e-09
3.92510627872e-10
8.27551635368e-10
1.62157206279e-09
1.08522515872e-09
3.9999293963e-10
7.09628079848e-11
1.39209328742e-09
1.7615098208e-09
2.63142095346e-09
7.81372490664e-10
2.02085051513e-10
3.7453508783e-10
7.90787060451e-10
7.57406897839e-10
7.75869788645e-10
4.70315551288e-10
1.4030112649e-09
1.09030235568e-09
3.25718503823e-10
7.60258117286e-10
3.20640911983e-10
1.2899436027e-09
1.68775060339e-10
1.21412993589e-09
9.75583425664e-10
1.72489177289e-09
8.46361483085e-10
1.34815483839e-09
1.77567522879e-09
3.42802049642e-10
2.31047639793e-10
2.10355128691e-09
2.64858141285e-09
1.73671163684e-09
2.2836577315e-09
1.17698321161e-09
8.45346480091e-11
8.31236724882e-10
1.11189338388e-09
4.79430737741e-09
3.06485499943e-09
3.96958306573e-10
1.54824707629e-09
9.93412158286e-10
2.93988729392e-09
1.52210693674e-09
8.20243762748e-10
4.81448573157e-09
9.91559296709e-10
5.55864708066e-10
1.88045620845e-10
4.49443392801e-10
1.0934887656e-09
9.80452371608e-10
2.15353013763e-09
2.61042414912e-09
1.63190076952e-10
5.93299644056e-10
5.02777775571e-10
1.22014355056e-09
1.62520572843e-09
5.59171146886e-10
1.6062625585e-09
1.35748057301e-09
3.50258306062e-10
2.14884968738e-09
3.30419857684e-09
4.42804687047e-09
1.26053794441e-09
2.35648192542e-09
2.33316021927e-09
1.30197046555e-09
1.15098950293e-09
7.78083256878e-10
2.25212218483e-09
1.25065291959e-08
7.48343519271e-09
4.5382598234e-09
6.58792344711e-10
1.36940756861e-09
3.44800819998e-09
2.76996546732e-09
1.15627149842e-09
9.30758940149e-09
1.88224135488e-08
2.07554022073e-09
6.72359809524e-09
5.54989972749e-09
6.13030763224e-09
6.00207047907e-09
8.15705443891e-09
9.39613723138e-09
1.2063603768e-08
1.23577636742e-08
1.04825881061e-08
1.40999263211e-08
2.43001966642e-08
1.30241238319e-09
6.05249150578e-09
4.66934470375e-09
9.51415808571e-09
2.36750811283e-08
1.14967408951e-08
1.55772320052e-09
2.84815943244e-09
3.57796382319e-09
3.89534554931e-09
6.20006814112e-10
2.39776326648e-10
1.51141393454e-09
8.80143287549e-10
2.684331621e-09
2.21384022003e-10
1.23341242695e-09
1.83637985588e-09
1.74962266498e-09
1.86079717774e-10
4.10425232762e-11
9.19042710031e-10
3.37559316309e-10
8.85398819385e-10
1.44401807714e-09
1.19089150206e-09
4.55815013007e-09
1.38227035303e-09
2.54258627649e-09
1.22281944301e-09
2.32760172537e-09
5.00142494698e-09
5.18088850631e-10
3.42490569717e-09
1.60886908935e-09
2.81137239479e-09
4.48227410225e-09
5.28422241574e-09
3.44105071427e-10
2.08529511751e-09
9.99001609021e-10
9.41333685736e-09
1.7571697135e-09
1.61656050802e-08
3.73023096485e-09
3.24322131414e-09
4.84748321383e-09
2.82929481256e-09
1.31128866328e-08
1.4006007135e-08
1.16293827986e-08
4.1572154435e-09
1.40663121419e-08
7.02229525997e-09
5.00599051262e-09
1.21404209686e-09
5.92989526712e-09
1.29159684315e-08
1.71325107889e-08
4.10354619333e-10
4.60124038807e-09
2.68556570167e-09
4.32768463849e-09
1.73437360911e-09
5.80822308258e-09
1.48240938455e-08
1.33574318698e-08
8.30513300893e-09
1.56032700678e-08
3.17413020897e-09
2.89012871687e-09
5.54321736538e-09
8.93081226821e-09
1.42171148619e-09
2.41562685862e-09
8.05451623141e-09
1.33788159094e-09
6.67956010691e-09
5.69393811638e-09
8.92645193633e-09
1.14070472903e-09
1.15814353259e-09
2.96180641287e-09
4.06875967032e-09
2.44099757078e-09
2.12131122805e-09
5.23414433054e-09
5.26869877706e-09
3.12763660781e-09
2.970375375e-09
3.59079288223e-09
9.21359405632e-09
3.25066003981e-09
1.88875305889e-08
7.42789381128e-09
1.29741917161e-09
4.09507305354e-09
3.63430614784e-09
1.09508481914e-09
3.34734068998e-09
2.97233076525e-09
3.08207634872e-09
8.97828591483e-09
2.20371196296e-09
1.05600567878e-09
1.97659534308e-09
3.50774362348e-09
1.06084717781e-08
2.37503717895e-08
4.04228402004e-09
2.54000066966e-09
4.37695713342e-09
9.07345482052e-10
3.80768596243e-09
8.72919513276e-10
3.96255884913e-09
2.41330862722e-10
2.39381882222e-09
6.33113382706e-09
7.40754483974e-10
6.46459864702e-09
1.47074903147e-09
8.10113893917e-09
3.56944362561e-09
6.62876200531e-09
4.47540953999e-09
7.34416643675e-09
3.28974347519e-09
7.26055750485e-10
1.85930001628e-09
2.20339589533e-09
2.36347715144e-09
1.15687005471e-09
1.63532456098e-09
2.57054472111e-09
1.28791945038e-08
6.53657392496e-09
6.54102010022e-09
1.99193563768e-09
8.27566877679e-10
4.67832332591e-10
1.8715528718e-09
7.48050028771e-10
1.00041327367e-10
1.39518169081e-10
3.43078656575e-09
3.3009304214e-09
2.63552482622e-09
9.81807891638e-10
1.8583431568e-08
1.43703324964e-09
1.27040434055e-08
3.78356274222e-09
3.05335940924e-09
2.77387019848e-09
5.4375037734e-10
5.5455293863e-09
1.39829659497e-09
4.28870121484e-09
2.93303794561e-09
2.02511965124e-11
2.06774579115e-09
8.45566308505e-10
6.46225427612e-09
2.82570362822e-09
9.01148787377e-09
3.48718372483e-09
5.28055773552e-09
5.47991595468e-09
5.93254176514e-10
1.03467937898e-09
1.65761164674e-09
4.72868350741e-09
8.52121798398e-09
1.26673516021e-08
4.57813454262e-09
9.97207755471e-09
5.20278179167e-09
8.33593323269e-10
2.899233466e-09
1.59574102451e-08
2.58526320013e-08
1.30530388758e-08
9.25693133561e-09
1.17966133564e-08
1.69350703459e-09
1.34681595911e-08
4.43475494853e-09
3.62729203368e-09
1.36530193098e-09
1.50463349122e-09
7.95695361549e-10
5.17935252599e-09
8.38897278142e-09
2.19999019619e-09
1.91950065735e-09
1.5678817435e-08
1.35636204731e-09
4.41333651255e-09
2.97765896961e-10
5.72857470584e-09
4.24957094595e-09
1.77350735943e-09
5.04866466659e-09
1.48137478219e-09
5.45153343025e-09
8.18607237481e-09
4.42319940922e-09
2.73377114353e-09
8.33051881067e-09
1.49528494259e-08
2.70450643803e-09
2.02281995302e-09
6.10610136641e-09
8.20750227456e-10
2.68784883297e-09
5.14954538604e-09
8.61026602959e-10
1.59540360626e-08
2.55573151369e-10
7.78651701855e-09
7.1038224692e-09
9.16055453906e-09
2.00928221433e-09
4.76040613047e-09
9.34798126348e-09
3.34747086869e-09
5.12731287995e-09
2.67429757098e-09
8.11096281584e-09
1.03640377725e-08
1.14656412274e-08
1.49850476261e-09
4.75768846142e-09
2.73381535681e-09
5.68824295504e-10
2.14112491892e-10
2.65819798298e-09
7.6571999383e-09
9.52338589204e-09
5.18006535031e-09
1.77918798337e-09
3.05209557146e-09
2.77046562536e-09
1.77378983327e-09
4.41643312609e-09
1.81490321137e-09
7.01996859948e-09
8.77610885235e-09
1.80925021702e-09
5.76050448005e-09
5.55027168413e-09
1.44166957138e-10
5.82251696049e-10
7.89467934101e-09
1.46412810717e-08
1.02565853963e-08
2.32586783364e-09
1.96084320434e-10
3.114655803e-09
3.52445593466e-09
1.71525540122e-09
1.23750837693e-09
1.43136740326e-08
1.66840042636e-08
2.39366597998e-09
6.22919564439e-09
3.59402531871e-09
1.65295836946e-09
6.10710687272e-09
4.58204149797e-09
9.20313805111e-09
7.45566307497e-09
4.21720275561e-09
5.47056345366e-09
1.24964270292e-09
3.36891503789e-09
9.70658173336e-10
8.06922106664e-09
1.07422537616e-09
1.00629071339e-08
2.95729730235e-09
2.62681642881e-09
3.24070813659e-11
1.3475423076e-09
4.08596372123e-09
1.4780789069e-12
4.86907114505e-09
5.03103294782e-09
3.73960845324e-09
9.05469324836e-09
2.36726976457e-09
3.34257943133e-09
1.48606273946e-09
5.16006687211e-09
5.58494434538e-10
6.73494013345e-09
8.70331135494e-10
1.43064409398e-09
2.35659042686e-10
1.06148089626e-09
6.78733963281e-09
1.71519011922e-09
6.20037624154e-09
7.96347218947e-09
9.78233172443e-09
3.45423016805e-09
9.41261569037e-10
4.98265687249e-09
6.34774908306e-09
7.53296244082e-09
8.96955007086e-09
7.06010142366e-09
2.17796516254e-10
3.49138522842e-09
4.28078325874e-10
1.950501764e-09
1.35503575445e-08
1.20388251569e-09
1.32898541426e-08
1.09213987618e-08
9.71122083588e-09
1.69224095321e-08
3.74708145592e-09
6.38313751034e-09
9.14907226835e-09
9.87330076549e-09
9.66263832773e-10
3.95694696785e-09
4.36300508909e-09
7.5096989578e-10
3.97989329183e-09
6.01818333668e-09
1.9168927405e-09
1.6811340238e-09
2.59166512871e-09
2.77825563266e-09
1.59859617088e-09
5.07054771765e-09
8.0542454283e-09
5.1155643322e-09
1.77665825184e-09
5.08183369255e-09
6.04990180226e-09
5.00316270019e-09
2.82833823773e-09
4.89983726064e-09
1.58778251127e-08
1.33967637886e-09
1.31406212904e-08
6.98570955466e-09
4.59412667998e-10
6.46689558698e-09
1.62236155889e-09
3.48726409129e-10
2.07043478289e-09
1.32468621699e-09
4.25919397604e-09
1.95038215943e-09
7.69394401553e-10
1.21903709037e-08
2.91968543733e-09
3.80707495577e-10
1.39940087175e-09
1.00543318106e-08
4.61950942945e-09
5.06988879707e-09
8.96419961311e-09
1.603123558e-08
8.22038255795e-09
1.99696708712e-08
6.68894127347e-09
9.48820912719e-09
2.70143477404e-09
1.85222415812e-08
1.7091055708e-08
1.03747556196e-08
9.1955922953e-09
3.49952585638e-09
1.32684622854e-08
1.99431666826e-08
9.69242376345e-09
3.74920904103e-09
9.48661539996e-09
1.38184004666e-08
5.64955846791e-09
4.46920658594e-09
3.79489196922e-09
1.980292134e-08
5.98367671753e-09
6.72332379472e-09
8.97154619749e-09
9.92344101479e-09
3.77120360553e-09
1.49629230684e-08
8.42134487306e-09
9.91610530247e-09
5.55982896877e-09
1.44616325148e-08
1.59043490899e-08
1.60142492637e-10
4.09318558005e-10
7.34846860248e-09
1.44176698229e-09
2.63865132962e-09
2.69280783744e-09
1.52385034602e-08
4.56259741759e-09
5.44201440471e-09
7.54299772467e-10
6.62312216233e-10
2.80436726111e-09
4.50590261317e-09