# vtk DataFile Version 3.0
File Name: Molecule/arg/arg_0.5-5.vtk
ASCII
DATASET UNSTRUCTURED_GRID
FIELD FieldData 1
TIME 1 1 double
0.0
POINTS 168 double
-3.4372963905 0.23968450725 1.4284119606
-3.1600146294 -0.12256467342 0.57864451408
-2.9763965607 -0.73413056135 1.372805357
-2.5486445427 -1.0926824808 0.63717544079
-2.9809682369 0.22227314115 -0.18783816695
-2.487537384 -0.47809895873 0.14126819372
-2.216919899 -0.53228497505 -1.2734173536
-2.2032792568 -0.47415727377 -0.90424799919
-2.5004863739 -0.11797186732 -1.2231991291
-2.3975017071 1.0951733589 -1.3003828526
-3.0252933502 1.7255510092 -0.3724180758
-2.2234113216 1.8181655407 -0.64452034235
-1.874779582 1.5396864414 -1.590852499
-1.696959734 1.9320509434 -1.0896195173
-2.5269153118 2.6256387234 0.46084269881
-1.7613488436 2.6027550697 -0.55526053905
-1.4314334393 3.2444813251 0.094211004674
-3.131367445 2.3804411888 1.3516476154
-1.8590065241 3.3307590485 1.4810603857
-2.4599452019 3.0861196518 2.2234494686
-2.9297969341 2.173979044 2.7204768658
-2.769546032 2.4673316479 2.1887097359
-3.4154472351 1.7977899313 1.8104228973
-3.192214489 0.76369714737 3.2053413391
-3.103315115 1.781917572 3.0287208557
-3.3827273846 0.78394329548 1.9774470329
-3.0174024105 0.4555054903 2.4222311974
-3.1178584099 0.2325220257 1.9685035944
-2.77932477 0.12692181766 2.9195861816
-2.870759964 0.035341948271 2.2865195274
-2.9974484444 -0.22202290595 1.8540649414
-2.5107674599 -0.71197396517 2.4298920631
-2.4426150322 -0.051965110004 3.6990687847
-1.7382456064 -1.6987551451 1.3705813885
-1.9698355198 -1.2542544603 3.4411017895
-0.93882113695 -2.3858633041 2.1863548756
-0.95468652248 -2.2294356823 0.29512500763
-1.9624644518 -1.3716669083 0.12287591398
-2.0532510281 -0.80139178038 -0.59023046494
-1.9280362129 -1.2278650999 -0.71634662151
-2.0247709751 -0.83184701204 -1.228933692
-1.6809819937 -1.8019626141 -1.4056681395
-2.3085410595 -0.28700563312 -0.47982794046
-2.2046537399 -0.49197953939 -1.7693096399
-1.757717967 -0.77228152752 -2.0525074005
-1.5605654716 0.14348682761 -2.7013971806
-2.3427262306 0.20722131431 -2.2256391048
-1.7429404259 1.022211194 -2.4265811443
-1.0856697559 0.6895685792 -3.4064149857
-1.511600256 1.5621290207 -2.1880433559
-1.1809345484 1.6555780172 -2.9648241997
-1.1179234982 2.0701501369 -2.1737439632
-1.4817665815 1.8436713219 -1.7086120844
-1.3201109171 2.4176692963 -1.2627203465
-0.4261263907 2.6037249565 -2.4267246723
-0.80350112915 3.0152826309 -1.2809538841
0.78569823503 2.7031476498 -1.7161386013
0.71079194546 3.40244174 -2.7609066963
-0.014633412473 3.2515017986 -2.8489875793
0.43974035978 3.3663306236 -0.54561853409
1.0707570314 2.4607534409 -0.49431547523
1.5516867638 2.0265564919 -1.2308533192
0.98336297274 2.7628252506 0.20628987253
1.5439634323 1.9104434252 0.028007971123
1.2183185816 2.2083733082 1.0452957153
0.39105293155 3.1001431942 0.84600436687
0.56005614996 2.7696170807 2.2703080177
-0.27547132969 3.5072147846 1.9775693417
-0.64853549004 3.4479725361 3.4519844055
0.37494784594 2.6996910572 3.936924696
-0.64389926195 2.7170155048 3.9977562428
-1.7675282955 2.7487504482 3.911179781
-2.015781641 3.3699536324 3.3209571838
-2.469014883 2.6693034172 3.3334493637
-0.53459298611 1.8149706125 4.5367164612
-1.06637609 2.2403399944 4.3590545654
-2.4467766285 2.2330513 4.1020650864
-1.5532602072 1.7482749224 4.5695366859
-0.27778762579 1.0730806589 4.7783813477
-0.97396230698 1.0840139389 4.5915670395
-0.81566143036 0.3215700984 4.6596660614
-1.6680797338 0.72580575943 4.6282482147
-1.0385121107 -0.46402534842 4.7525491714
0.12482000142 -1.195006609 5.0737056732
0.3621815145 -0.33625751734 5.2146029472
-0.11154069752 0.39336159825 5.0286035538
0.79601472616 -1.6808575392 0.92456579208
0.91801267862 -2.0037484169 2.1487343311
1.9105968475 -1.4760074615 2.2604575157
1.698340416 -0.13414636254 0.86778664589
2.3446550369 -0.47284832597 1.9523001909
1.386202693 -1.1777614355 0.18217417598
1.7605099678 0.20208194852 -0.19911755621
1.7048152685 -0.92857736349 -0.8837838769
1.0906358957 -2.0187528133 -1.815772891
1.6612454653 -1.3873416185 -2.6638290882
2.1934595108 -0.17247715592 -1.4466254711
-0.42620760202 -1.8004593849 -2.4688873291
0.13307712972 -0.81220269203 -3.402009964
-0.99039286375 -1.2976578474 -2.4238495827
-0.40739753842 -0.8372476697 -2.8872036934
-0.61419469118 -0.2874096632 -3.3303291798
-1.107286334 -0.58716732264 -2.6923139095
-0.18549217284 0.51614332199 -3.9952700138
0.5452568531 0.40415534377 -4.2384619713
0.38691291213 1.3109333515 -4.4033932686
0.068344794214 1.7391819954 -4.2439436913
-0.4074536562 1.9147187471 -3.587859869
-0.0029592541978 2.8574409485 -3.5993237495
1.002098918 2.9788763523 -3.5796048641
0.93491971493 2.2171266079 -4.0237383842
0.47056546807 2.9622955322 -3.8912689686
1.2228230238 3.0289902687 -2.8917219639
1.6432495117 2.6251580715 -3.2621328831
1.6583725214 2.6937448978 -2.5524101257
1.26783216 2.5864424706 -2.1585261822
2.1887087822 2.1667521 -2.5224940777
2.1274576187 1.6233108044 -1.960796833
2.4276037216 1.3846117258 -2.5539824963
2.3862273693 0.73498928547 -1.6880241632
1.9070661068 0.91886657476 -0.94996505976
2.029104948 0.98217457533 0.17838834226
1.8512606621 2.0255322456 -3.4169778824
1.9502186775 1.0754265785 -3.9941389561
1.1786910295 1.637532711 -4.1885890961
2.55351758 0.93564063311 2.5993797779
1.8854148388 1.3145130873 1.3507865667
1.6577563286 1.9332101345 2.1712608337
0.72310167551 1.7641429901 4.6703414917
0.47869226336 0.80780470371 5.0040383339
1.3315043449 0.78554624319 5.0731635094
1.2493468523 -0.80298447609 5.3409705162
1.2323089838 2.3638291359 2.1630051136
0.15264552832 2.1593103409 -4.0184526443
1.9623020887 1.5291686058 2.5404963493
-3.9381611347 1.1729227304 0.81925201416
-1.5848948956 3.9566493034 2.4958944321
-2.7310237885 1.3436353207 4.4472494125
-1.1136813164 -1.9643447399 4.636174202
0.76520746946 -2.6566224098 -0.80959671736
3.630464077 -0.48572438955 3.4194767475
3.0316956043 0.40679395199 4.8852443695
2.762566328 -1.1275599003 5.0488142967
2.0452415943 -2.0529971123 4.1214718819
2.1674144268 0.51372820139 5.2882032394
2.1001653671 -0.50415205956 -3.9893305302
1.0070440769 3.4023544788 -3.2869725227
-0.03992395103 3.4319016933 -3.1341695786
0.53880596161 3.723129034 -3.1208715439
2.1486670971 1.4440866709 4.0935006142
3.0243604183 1.0709166527 3.8517789841
2.1092264652 1.6259313822 3.3514540195
0.823174119 -2.5176739693 3.8992059231
-0.0037949662656 -2.9476680756 3.0573346615
1.4663037062 -2.156914711 3.0386164188
-1.2178612947 -2.633379221 3.4741704464
-0.16948434711 -2.5451290607 4.4690332413
0.97383964062 -1.76658988 4.7406358719
0.7631033659 3.1667058468 -3.7591264248
0.081465639174 3.2207975388 -3.7076730728
1.3145956993 2.1762969494 4.0652985573
0.98952460289 2.7867064476 3.005749464
1.4465872049 2.445510149 3.341542244
1.6987005472 -1.6360015869 4.9398665428
1.3643994331 -2.1796298027 3.9915912151
2.0046725273 -2.0191617012 3.1427648067
0.53042566776 2.2355771065 -4.2165546417
0.67191153765 1.902977705 -4.480796814

CELLS 332 1328
3 0 1 2
3 2 1 3
3 1 4 5
3 6 7 8
3 8 4 9
3 10 9 4
3 10 11 9
3 12 11 13
3 11 14 15
3 15 14 16
3 14 17 18
3 18 17 19
3 20 21 22
3 17 22 21
3 23 24 25
3 22 25 24
3 26 25 27
3 0 27 25
3 23 26 28
3 29 28 26
3 29 27 30
3 2 30 0
3 2 31 30
3 28 31 32
3 31 33 34
3 34 33 35
3 36 33 37
3 3 37 33
3 3 5 37
3 37 5 38
3 37 38 39
3 39 40 41
3 38 7 40
3 42 8 7
3 8 43 6
3 44 41 40
3 45 44 46
3 43 46 44
3 46 47 45
3 45 47 48
3 9 12 47
3 49 47 12
3 50 49 51
3 52 51 49
3 52 13 53
3 53 13 15
3 54 51 55
3 53 55 51
3 55 56 54
3 57 58 56
3 59 60 56
3 56 60 61
3 60 62 63
3 63 62 64
3 62 65 64
3 65 66 64
3 65 16 67
3 67 16 18
3 67 68 66
3 66 68 69
3 70 68 71
3 72 71 68
3 71 72 73
3 72 19 73
3 69 70 74
3 75 74 70
3 76 77 71
3 73 76 71
3 76 73 24
3 20 24 73
3 78 74 79
3 77 79 74
3 79 80 78
3 81 80 79
3 81 32 82
3 82 32 34
3 83 84 82
3 80 82 85
3 36 86 35
3 87 35 86
3 88 86 89
3 90 88 89
3 89 91 92
3 93 92 91
3 94 95 93
3 96 93 95
3 94 97 95
3 95 97 98
3 97 99 100
3 101 100 102
3 102 99 44
3 41 44 99
3 102 45 101
3 101 45 48
3 103 98 101
3 98 103 104
3 105 103 106
3 107 54 108
3 108 54 58
3 109 110 111
3 109 112 113
3 113 112 114
3 112 57 115
3 115 57 56
3 114 115 116
3 117 116 115
3 118 117 119
3 120 119 117
3 121 120 63
3 61 63 120
3 121 92 120
3 92 96 120
3 116 118 122
3 123 122 118
3 123 104 124
3 124 104 105
3 124 110 122
3 122 110 113
3 125 90 126
3 89 126 90
3 126 64 127
3 128 78 129
3 129 78 85
3 129 84 130
3 130 84 131
3 27 0 30
3 42 5 4
3 4 8 42
3 12 9 11
3 15 13 11
3 18 16 14
3 21 19 17
3 24 20 22
3 26 23 25
3 28 29 31
3 34 32 31
3 36 35 33
3 42 38 5
3 38 40 39
3 43 44 40
3 50 48 47
3 49 50 47
3 53 51 52
3 58 54 56
3 59 56 55
3 63 61 60
3 132 64 66
3 67 66 65
3 70 69 68
3 77 74 75
3 85 78 80
3 82 80 81
3 131 84 83
3 86 88 87
3 91 89 86
3 96 92 93
3 100 98 97
3 99 102 100
3 105 104 103
3 108 133 107
3 113 110 109
3 115 114 112
3 118 116 117
3 119 120 96
3 124 122 123
3 134 125 126
3 129 130 128
3 0 25 135
3 0 135 1
3 4 1 135
3 4 135 10
3 14 10 17
3 10 14 11
3 135 17 10
3 17 135 22
3 22 135 25
3 5 3 1
3 2 3 33
3 2 33 31
3 29 30 31
3 6 40 7
3 7 38 42
3 9 46 8
3 43 8 46
3 40 6 43
3 47 46 9
3 13 52 12
3 12 52 49
3 16 65 59
3 16 59 55
3 16 55 15
3 53 15 55
3 59 65 62
3 59 62 60
3 72 68 136
3 72 136 19
3 19 136 18
3 18 136 67
3 67 136 68
3 75 71 77
3 21 73 19
3 73 21 20
3 71 75 70
3 137 23 32
3 23 137 24
3 24 137 76
3 76 137 77
3 79 77 81
3 137 81 77
3 81 137 32
3 28 32 23
3 27 29 26
3 34 138 82
3 82 138 83
3 37 39 36
3 36 39 41
3 36 41 139
3 36 139 86
3 86 139 91
3 91 139 93
3 94 93 139
3 94 139 97
3 97 139 41
3 97 41 99
3 45 102 44
3 51 54 50
3 50 107 48
3 48 107 103
3 48 103 101
3 100 101 98
3 107 50 54
3 61 120 117
3 61 117 115
3 61 115 56
3 64 126 63
3 63 126 121
3 92 121 89
3 126 89 121
3 128 69 74
3 128 74 78
3 84 85 82
3 85 84 129
3 140 141 142
3 140 142 143
3 140 88 90
3 140 90 125
3 131 142 144
3 98 104 145
3 98 145 95
3 95 145 96
3 118 119 145
3 96 145 119
3 118 145 123
3 123 145 104
3 114 116 113
3 113 116 122
3 108 111 133
3 109 146 112
3 112 146 57
3 147 58 148
3 58 147 108
3 130 149 128
3 125 150 140
3 140 150 141
3 144 141 149
3 150 149 141
3 149 150 151
3 144 149 130
3 141 144 142
3 144 130 131
3 152 153 154
3 87 153 35
3 35 153 155
3 153 156 155
3 153 152 156
3 155 156 138
3 35 155 34
3 155 138 34
3 138 156 83
3 83 156 157
3 111 158 109
3 109 158 146
3 146 158 148
3 158 159 148
3 158 111 159
3 148 159 147
3 147 159 108
3 108 159 111
3 146 148 57
3 57 148 58
3 132 127 64
3 126 127 134
3 149 160 128
3 128 160 69
3 69 161 66
3 66 161 132
3 127 132 162
3 161 162 132
3 161 69 162
3 127 162 134
3 134 162 151
3 162 160 151
3 162 69 160
3 151 160 149
3 134 151 125
3 125 151 150
3 152 157 156
3 83 157 131
3 131 157 163
3 157 164 163
3 157 152 164
3 163 164 143
3 143 164 165
3 164 154 165
3 164 152 154
3 165 154 88
3 88 154 87
3 87 154 153
3 133 106 107
3 107 106 103
3 143 165 140
3 140 165 88
3 131 163 142
3 142 163 143
3 133 166 106
3 166 167 106
3 166 110 167
3 106 167 105
3 105 167 124
3 167 110 124
3 110 166 111
3 111 166 133

CELL_TYPES 332
5
5
5
5
5
5
5
5
5
5
5
5
5
5
5
5
5
5
5
5
5
5
5
5
5
5
5
5
5
5
5
5
5
5
5
5
5
5
5
5
5
5
5
5
5
5
5
5
5
5
5
5
5
5
5
5
5
5
5
5
5
5
5
5
5
5
5
5
5
5
5
5
5
5
5
5
5
5
5
5
5
5
5
5
5
5
5
5
5
5
5
5
5
5
5
5
5
5
5
5
5
5
5
5
5
5
5
5
5
5
5
5
5
5
5
5
5
5
5
5
5
5
5
5
5
5
5
5
5
5
5
5
5
5
5
5
5
5
5
5
5
5
5
5
5
5
5
5
5
5
5
5
5
5
5
5
5
5
5
5
5
5
5
5
5
5
5
5
5
5
5
5
5
5
5
5
5
5
5
5
5
5
5
5
5
5
5
5
5
5
5
5
5
5
5
5
5
5
5
5
5
5
5
5
5
5
5
5
5
5
5
5
5
5
5
5
5
5
5
5
5
5
5
5
5
5
5
5
5
5
5
5
5
5
5
5
5
5
5
5
5
5
5
5
5
5
5
5
5
5
5
5
5
5
5
5
5
5
5
5
5
5
5
5
5
5
5
5
5
5
5
5
5
5
5
5
5
5
5
5
5
5
5
5
5
5
5
5
5
5
5
5
5
5
5
5
5
5
5
5
5
5
5
5
5
5
5
5
5
5
5
5
5
5
5
5
5
5
5
5
5
5
5
5
5
5
5
5
5
5
5
5

CELL_DATA 332
SCALARS cell_data_0 double
LOOKUP_TABLE default
1.29201750317e-06
3.56915425763e-07
3.23714777788e-07
1.16324135108e-06
4.78544324445e-06
1.38940419707e-05
1.15252169121e-05
8.08478710967e-07
5.71314663144e-06
2.65946563154e-06
1.21591232377e-07
2.13665607578e-06
7.22775748014e-07
3.08654375061e-07
2.47533528901e-06
4.12295868308e-07
2.02539233835e-07
3.58064867439e-07
6.17499777987e-07
9.34206018399e-07
4.32868143304e-07
1.47461561542e-06
3.13659782855e-06
6.32440857406e-06
2.47361232486e-05
9.94830735211e-05
1.52606433455e-05
6.64013918212e-07
1.8728929699e-06
2.21913880428e-07
8.45656414103e-07
3.92706608751e-06
5.77980528442e-07
3.383150005e-07
9.64052708499e-07
5.3193468523e-06
2.53990611417e-06
2.65586250028e-06
3.53741806623e-06
2.82524922912e-06
8.40571233619e-06
4.29847881348e-07
1.67166642347e-07
1.18914784091e-06
1.29418687259e-06
5.82537228406e-07
1.50816019124e-05
1.19210725651e-06
5.15482615033e-05
4.85337730278e-06
8.4340462461e-06
1.47160660596e-05
2.87378483848e-06
4.56392942803e-06
2.36106003581e-06
3.56361489785e-06
1.99912980048e-06
2.50311248458e-07
5.71514106837e-06
1.18495533896e-05
1.97698606589e-06
4.96693909668e-07
1.14999777526e-06
3.1437944617e-07
1.15248520073e-06
2.41234559277e-07
2.82990455622e-07
1.3073743101e-06
2.90006818524e-08
2.52926511965e-07
1.1078299361e-06
2.84416811332e-06
1.93893317706e-07
4.68850854516e-06
3.28086071439e-05
1.52984612693e-05
4.97842180497e-06
3.00105356618e-06
2.43918729896e-05
2.02179008224e-05
4.77168754692e-05
1.10920187446e-05
1.47423104863e-05
1.63795670219e-05
9.89495531711e-06
2.30668924315e-05
2.17005050963e-05
1.90434924498e-05
5.19832676698e-06
3.1657619401e-06
9.50613974141e-07
3.67942840583e-06
4.55393459637e-06
5.69746280348e-06
1.24493317012e-05
2.16429897128e-05
3.53322547582e-05
4.04109984319e-05
3.91279702381e-05
6.20007828564e-05
1.6843372468e-05
5.46138280437e-05
2.08708230602e-05
5.76449615797e-05
3.93115817869e-05
4.19420791551e-05
4.37791519369e-05
9.35105587508e-06
1.49401603551e-05
1.97331134956e-05
1.77803779979e-05
1.71764006762e-05
3.72522175032e-05
1.30586391886e-05
2.10704076608e-05
9.3039311841e-05
1.43548335942e-05
7.04022218548e-05
4.02169401435e-05
3.14216322723e-05
3.90555777715e-06
1.7559023724e-06
1.14849623704e-06
5.7574396081e-06
7.88080897002e-06
1.85536209825e-07
2.65646826811e-06
8.61273971201e-06
3.94795907576e-06
7.47705578517e-07
8.376385716e-06
3.21881165816e-06
1.90589325741e-06
1.91389166385e-06
1.08473401028e-06
1.2727363911e-05
2.90365067707e-05
4.08680074672e-07
1.48681318578e-06
3.15384212568e-06
9.34651208652e-06
6.07690569504e-06
1.65481949149e-06
6.14963357353e-05
6.167360223e-06
8.56066876397e-06
8.82218457411e-06
1.30585534132e-05
4.36845980302e-06
6.79432207616e-07
1.66131963508e-06
3.63239053199e-07
1.35016944842e-06
7.88919706087e-06
6.53767483574e-08
2.42619819836e-05
1.31926447025e-06
4.04738286394e-06
5.07043390694e-05
3.7470890263e-05
8.2617709603e-05
3.36506076825e-05
0.000104666417425
3.4761347298e-05
0.000111608129252
3.05004251946e-05
6.56573293251e-06
1.13433550149e-06
9.88444459562e-07
8.06817117594e-07
1.1606009692e-05
3.96936841023e-06
3.2836274268e-06
5.43316155611e-06
1.11534583011e-06
1.60092203844e-06
2.04579689891e-06
1.95988183025e-06
5.02283531908e-06
6.16534210717e-07
6.15449749343e-07
6.32994240382e-07
2.3257040484e-05
2.11636151842e-06
6.45189167161e-07
9.45993800261e-06
5.43220825798e-07
9.15137446275e-07
1.80556833976e-05
8.65086216333e-06
1.18614336731e-06
2.53036487435e-06
2.77410994402e-06
1.07905979581e-06
5.56053284384e-07
2.86742229705e-07
5.06245397366e-07
6.67840227726e-06
4.65585153738e-06
1.14383696757e-06
1.91115644441e-06
1.3387616337e-06
6.472352689e-07
4.4865210759e-06
3.36664337945e-06
1.82104792538e-06
1.14821148646e-06
8.48486282281e-07
4.33795161036e-06
5.19502633963e-07
3.62186731963e-07
4.16710103742e-07
4.96698943595e-05
2.85151415586e-05
4.52984347375e-06
9.73114962772e-06
2.09873923758e-05
6.92406951369e-05
1.95578777924e-05
5.45925770814e-06
1.16155787218e-05
1.93980698014e-05
1.33276406079e-05
5.66118535504e-06
7.0494744675e-06
1.36100726827e-05
8.54925054964e-06
4.64063909438e-05
5.33442737759e-06
4.22244651385e-07
2.82902980755e-05
7.14422863388e-06
4.31897606363e-05
7.60478192207e-06
1.23442415687e-05
1.02381398352e-05
3.41881189903e-07
1.53438528724e-05
8.14336779613e-07
2.06623417313e-06
5.33891373285e-06
3.91148939499e-06
2.91357398425e-05
5.53908969626e-05
2.74409783504e-06
1.43914826857e-05
6.59976802476e-06
6.45000480325e-06
9.24686247136e-06
2.15085563704e-05
2.29039924461e-05
6.48748175462e-05
5.5324006529e-05
4.6562741468e-05
0.000131213862074
0.000312298821721
1.39511638271e-05
3.01177917442e-05
2.65193247877e-05
3.16977909052e-05
3.80466034482e-05
3.75597260739e-06
0.00012657736194
3.52296388733e-05
5.34482774455e-05
7.05514661416e-06
4.22788855185e-05
1.87705427474e-06
3.01287171241e-06
1.35543865146e-05
3.08591783521e-05
5.26974680406e-05
5.17553091113e-05
4.30861912831e-05
0.000182238491642
2.41822747316e-05
1.4995992373e-05
4.31032818776e-05
1.29731189056e-05
3.02055494475e-05
8.04145533109e-06
2.36858196532e-05
4.01097276182e-05
0.000156697160418
4.53895167995e-05
1.58405898898e-05
2.18196549239e-05
1.72038582934e-05
2.69704972563e-05
3.21983605454e-05
1.41410727157e-05
1.19863350539e-05
2.088917699e-05
1.87462769561e-05
2.32499765341e-05
6.2255213432e-06
2.66461999471e-05
2.5367307049e-06
3.10053202898e-05
3.96016387591e-05
2.69522733023e-05
7.07929241482e-06
2.22577953e-05
1.93587224299e-05
2.3268621685e-07
1.50149062981e-05
6.97975742231e-05
9.39746017132e-06
2.28159337814e-05
0.000122584286144
7.08257153047e-06
9.08704797605e-05
7.57870843007e-05
4.98325322278e-05
1.43782442936e-06
4.43865695882e-06
2.46042893305e-05
8.57151218231e-06
7.81291681629e-06
1.87970946686e-05
7.00985458514e-05
1.23205904224e-05
5.08793263977e-05
9.10194572761e-05
3.04589998119e-05
3.62988442432e-06
4.47746684378e-06
3.76428053613e-06
5.48509062989e-05
2.85143605446e-05
5.52507710303e-06
1.64373643127e-05

