# vtk DataFile Version 3.0
File Name: Molecule/arg/arg_2.0-0.vtk
ASCII
DATASET UNSTRUCTURED_GRID
FIELD FieldData 1
TIME 1 1 double
0.0
POINTS 314 double
-2.9491958618 -0.43516975641 1.7952409983
-3.3768882751 0.2488771826 1.5396517515
-2.9873483181 -0.62875252962 1.0019923449
-3.3745379448 0.0024852268398 0.77830541134
-2.8897349834 -0.14591707289 0.16832005978
-2.6308822632 -0.48392105103 0.14382624626
-2.5964355469 0.046562083066 -0.49656873941
-2.2122554779 -0.44135943055 -0.9313249588
-2.3416438103 -0.36185753345 -0.60244727135
-2.4462022781 -0.19932556152 -1.0748056173
-3.0029428005 0.10744063556 0.0085541047156
-2.7825360298 0.67970108986 -0.85153222084
-3.2666990757 0.8995320797 -0.34896624088
-2.6099421978 0.44634371996 -1.526222229
-2.8314516544 1.7040445805 -0.43226203322
-2.4108474255 1.3395860195 -0.94910407066
-2.2516646385 1.1463109255 -1.5686146021
-2.5234277248 2.019146204 -0.46742102504
-1.8653212786 1.7543774843 -1.2109389305
-1.5554196835 3.1432003975 0.28254309297
-1.7007365227 2.4711840153 -0.70238566399
-2.4638369083 2.661593914 0.61400878429
-3.1358690262 2.3470776081 1.4987365007
-1.9272173643 3.2825596333 1.4778300524
-2.5413653851 2.9680876732 2.2677035332
-3.4260442257 1.7792268991 1.7917100191
-2.7602448463 2.5040261745 2.3192527294
-2.9605579376 2.0636622906 2.6280851364
-3.409150362 0.62295389175 1.8392292261
-3.1332194805 1.7337883711 2.9615468979
-3.1343762875 0.65692549944 2.9583158493
-3.1083216667 0.37278467417 2.1031184196
-3.0944311619 0.080210164189 1.8799835443
-2.9077410698 0.1393622309 2.3921792507
-2.9534494877 0.29549273849 3.0577440262
-2.9012916088 -0.26825040579 2.1252555847
-2.521520853 -0.67862594128 2.4618935585
-2.5727055073 -0.091891355813 3.4207532406
-2.238493681 -1.4778653383 1.9399768114
-2.069167614 -1.0747884512 3.2927722931
-1.7537072897 -1.936199069 2.7667312622
-1.0057191849 -2.2442150116 2.0515861511
-1.5720825195 -1.7336645126 1.2766383886
-2.1798434258 -1.4734385014 0.73792272806
-1.0068073273 -2.191347599 0.40768486261
-1.6963460445 -1.862678051 -0.20971059799
-2.3774561882 -0.92258834839 0.19996626675
-1.988134861 -1.1717514992 -0.61404633522
-2.0801112652 -0.73148614168 -0.80666834116
-1.8785824776 -1.3224315643 -1.0820034742
-2.2805137634 -0.50789707899 -1.375475049
-2.1937584877 -0.55714738369 -1.0342191458
-1.6426250935 -1.3496938944 -1.7965042591
-1.8572992086 -0.72567021847 -1.9254056215
-2.1495037079 -0.47482022643 -1.8960822821
-1.9594836235 0.18048277497 -2.4441349506
-1.5551109314 0.12534798682 -2.6914327145
-2.0247793198 0.99643170834 -2.1706125736
-1.3274304867 1.4494889975 -2.7335791588
-1.6766198874 1.2939311266 -2.2687313557
-1.9123932123 1.4228105545 -1.6059656143
-1.0600166321 2.0439050198 -2.285425663
-1.49444139 1.8130078316 -1.732976079
-1.2572937012 2.5387170315 -1.3362461329
-0.5011934042 2.546533823 -2.3606374264
-0.74062645435 3.0225324631 -1.3234411478
-0.11811790615 2.9451286793 -2.1067326069
0.32087022066 3.0144076347 -1.8717908859
0.44215539098 3.1555905342 -0.90608769655
-0.03397615999 3.3416452408 -2.9856145382
0.61449247599 3.4280598164 -2.6451251507
1.0554578304 2.5704832077 -0.37917256355
0.82882398367 2.6941761971 -1.6307806969
1.5534077883 2.0110404491 -1.1839361191
0.8017988801 2.7832267284 0.51305067539
1.5325000286 1.9257792234 0.029846435413
1.2676621675 2.1521160603 1.0843155384
0.38115942478 3.107894659 0.90322744846
0.75626200438 2.484869957 1.2616827488
0.43899938464 2.7150752544 1.6493330002
1.1670273542 2.3707342148 2.0751252174
0.68091440201 2.7392640114 2.3291795254
-0.20689351857 3.5646178722 0.76149177551
-0.0038766236976 3.259237051 1.9939154387
-0.55353271961 3.6832633018 1.7915281057
-1.236169219 3.7147774696 1.5198626518
-0.87488365173 3.5563840866 0.36373791099
-0.15290294588 3.4248912334 2.9609043598
0.53753244877 2.9258332253 3.2434926033
-0.63318824768 3.1919734478 3.64473176
0.11181353778 2.5454804897 4.0803060532
-1.3503130674 3.2084369659 3.7190670967
-0.63563817739 2.7119596004 3.9546709061
-1.3985897303 2.8019661903 3.9791090488
-2.021916151 2.8566679955 3.6398096085
-1.9501826763 3.1619153023 3.4987142086
-2.3721477985 3.0962402821 2.9864926338
-2.5115091801 2.7593669891 3.0585303307
-0.55144637823 1.7242404222 4.5843033791
-1.0669267178 1.9231103659 4.4194898605
-1.4528058767 1.6055817604 4.6058287621
-1.9067171812 2.0563442707 4.4140310287
-1.5048019886 2.3998529911 4.2487158775
-2.4145450592 2.2502644062 4.0206136703
-2.147608757 2.5988771915 3.7907524109
-2.8377115726 2.1742992401 3.5053870678
-2.7056522369 2.4524028301 3.1696014404
-1.2979068756 1.0748226643 4.6985788345
-0.3322507143 1.0980734825 4.6929783821
-1.5432931185 0.52648365498 4.686814785
-0.33224251866 0.53268867731 4.8713412285
-0.54064077139 0.028472777456 4.836889267
-0.92242866755 -0.42603290081 4.7537255287
-1.782024622 -0.7234145999 4.294690609
-2.3128540516 0.17922478914 4.2549118996
-0.41500994563 -0.74968528748 5.054265976
-0.022168595344 -0.29195207357 5.1213736534
0.14337216318 -1.194262743 5.0793066025
0.51463419199 -0.64045250416 5.144920826
0.5319827795 -1.83023417 4.8527674675
1.0446118116 -0.82674121857 5.260494709
1.2928949594 -1.524821043 4.9986228943
0.87303364277 -2.2838685513 4.3221416473
1.6452372074 -1.986713171 4.4409060478
1.1101379395 -2.4654297829 3.5649514198
1.8865250349 -2.1398909092 3.7155909538
1.9010211229 -2.0064163208 2.9233384132
1.1080391407 -2.3287768364 2.785282135
1.0369179249 -1.8542853594 2.1496560574
1.9046192169 -1.4775595665 2.2896485329
0.11021569371 -2.4812762737 2.0614168644
0.75206327438 -1.687038064 1.2885020971
0.074746668339 -2.1620721817 1.1967257261
1.0314365625 -1.8357340097 0.35015827417
0.10154733807 -2.4517354965 0.37858310342
-0.7697865963 -1.9875422716 1.2158830166
1.4596176147 -1.1127942801 0.030932765454
1.0763731003 -1.3335003853 0.9604305625
1.369930625 -0.82465398312 0.83793240786
1.3451911211 -1.2512633801 1.7247829437
1.6694508791 -0.77779275179 1.5949050188
2.3405547142 -0.72287619114 1.9986046553
1.6721898317 -0.6147249341 -0.53983324766
1.6802227497 -0.1784760505 0.63227057457
1.8481081724 0.23297001421 0.066605329514
1.6837048531 -1.3718954325 -1.0092480183
2.1654863358 -0.19073370099 -1.3450998068
2.2016224861 -0.83984589577 -1.8201950788
1.4432091713 -1.7796549797 -1.6632926464
1.8359326124 -1.3717604876 -2.2760791779
0.83820086718 -2.0083949566 -2.150853157
1.3887138367 -1.4306176901 -2.9171280861
0.62278330326 -1.3823280334 -3.157191515
0.096733585 -1.8693743944 -2.4835348129
-0.40245780349 -1.3168344498 -2.7349505424
0.15363878012 -0.80059051514 -3.4208395481
-0.35291552544 -0.64567917585 -3.1540739536
-1.0550060272 -0.71131622791 -2.5976347923
-0.69376462698 -0.36447823048 -3.0955898762
-0.89083015919 -1.3366317749 -2.4133861065
-1.1336535215 0.42714118958 -3.2109591961
0.21921211481 -0.24734702706 -3.9643986225
-0.3494772017 -0.004471052438 -3.7203154564
0.024384569377 0.75065755844 -4.050994873
0.54687529802 0.45286378264 -4.2414059639
0.39099663496 1.3516937494 -4.4008851051
0.11819767952 2.0179626942 -4.12368536
-0.40268865228 1.9649300575 -3.5609078407
-0.0086667621508 2.9808769226 -3.6743385792
0.95015823841 2.1519637108 -4.0913748741
0.89904260635 3.0932695866 -3.6840958595
0.88538533449 3.339795351 -2.8927648067
1.6568148136 2.5027730465 -3.3192369938
1.6688508987 2.6797833443 -2.5225381851
1.1331957579 2.6196620464 -2.033633709
2.0700588226 1.7008498907 -1.9686586857
2.2231760025 2.1087684631 -2.5496981144
2.0159857273 1.0106270313 -1.3057740927
2.4467258453 1.214279294 -2.3065619469
2.3446469307 0.56553858519 -1.5629673004
1.8600972891 0.78678941727 -0.76095068455
1.9658834934 0.95674735308 0.027898218483
1.7976921797 0.13103725016 -0.77336043119
1.8610922098 1.3247970343 -3.7815623283
1.8878694773 2.1109325886 -3.4303431511
1.1921994686 1.6601573229 -4.1782708168
1.6121777296 0.4409711957 -4.3836951256
2.0706820488 0.64920610189 0.81376427412
1.8531022072 -0.25499156117 1.4261169434
2.1799221039 0.37726128101 1.6026371717
2.7154092789 0.14239798486 2.1349773407
1.9028903246 1.4094420671 1.2463241816
2.054787159 0.99704235792 1.9698268175
2.5230665207 0.97525805235 2.5717558861
1.7894637585 1.6299940348 2.2324826717
1.9583292007 1.848793149 3.0518565178
2.5653197765 1.3157052994 3.2988605499
2.2297484875 1.5145879984 3.9982683659
1.5955681801 2.0619311333 3.7511305809
1.3494582176 1.7210034132 4.4501948357
1.9153363705 1.197329402 4.7034707069
1.3166595697 0.81869953871 5.062936306
0.67809820175 1.4257832766 4.7694368362
0.61462748051 0.87660610676 4.933968544
1.1831248999 0.00034830532968 5.357260704
0.51888102293 0.17246522009 5.2105484009
-3.7347512245 1.9418002367 0.8664265275
-3.2103204727 2.2632923126 0.1781283319
-3.723184824 1.5513154268 0.1610378623
-3.7308785915 0.7700958848 0.20573818684
-3.7456204891 0.45216873288 0.87445342541
-3.9360668659 1.1878343821 0.89831131697
-2.8041143417 -1.062499404 1.4564484358
-2.3600082397 -0.0012577753514 -2.0899760723
0.39073577523 3.4971702099 -0.021030906588
-0.33362436295 3.6806268692 -0.24862590432
-1.1825408936 3.3237650394 -0.64955574274
-0.50776749849 3.8273837566 2.4903619289
-1.1740090847 4.0163536072 2.4362111092
-1.174616456 3.8250603676 3.1906614304
-1.875849247 3.8332979679 2.4514520168
-1.8938040733 3.6000647545 3.1910514832
-2.3445627689 3.365735054 2.4984395504
-1.9259498119 1.2353870869 4.7238726616
-2.5769197941 1.5931696892 4.4954862595
-2.5828619003 0.85237044096 4.4977221489
-3.0851914883 1.5758316517 3.9623117447
-3.1109130383 0.82152330875 3.9077889919
0.49091500044 -2.6769788265 4.012275219
-0.14471745491 -2.4419529438 4.5848035812
-0.1841442585 -2.8382582664 3.9794008732
0.51563334465 -2.8341915607 3.2900359631
-0.18030098081 -2.9729924202 3.2964336872
-0.16956098378 -2.8387601376 2.6362674236
0.53276264668 -2.6616652012 2.5623233318
-0.20279015601 -1.8578763008 4.9721317291
-0.86311888695 -1.5016150475 4.9522037506
-0.85404640436 -2.1965379715 4.6276073456
-0.883908391 -2.6580455303 4.0402116776
-0.87974971533 -2.8330693245 3.2985825539
[...]
CELL_DATA 624
SCALARS cell_data_0 double
LOOKUP_TABLE default
1.48103928262e-07
3.30750123868e-08
5.04457413702e-07
3.87069776258e-07
3.45538924847e-07
9.65497893918e-07
1.24532683407e-07
9.13614798736e-07
2.50539261733e-06
1.04822843705e-06
5.99947116901e-07
6.89478461664e-07
1.57161808964e-06
2.19374496855e-06
1.00910431341e-06
6.84821232277e-07
6.90356736907e-07
1.90826334597e-06
2.25296612009e-07
6.90376461632e-08
8.48686921424e-08
2.81526984138e-07
1.01096647658e-06
7.91469701158e-07
5.31845719936e-07
3.75606918495e-07
2.65289443783e-07
1.85023727349e-06
5.75019112373e-07
3.06736491437e-07
5.42034188134e-07
9.36042535112e-06
3.0010911845e-06
9.708537098e-06
2.88738203665e-06
1.21491785801e-05
6.45451988725e-06
6.30737360457e-07
9.84502983273e-07
5.30969417391e-08
2.27514954625e-07
1.31789520485e-07
6.36580717705e-07
2.34230747647e-06
4.28850007973e-07
2.37182121177e-08
2.00547746506e-06
4.15559574028e-06
3.27305589226e-06
8.34027185724e-07
4.25788250898e-06
1.17693551725e-05
3.58179168488e-06
2.23324367442e-06
1.18374983774e-05
4.10081155762e-06
2.91476470297e-06
4.25439704514e-07
1.12547483727e-05
1.23296873881e-05
2.98857161268e-05
3.08047124043e-05
0.000215366029137
4.2649041064e-05
2.03361902738e-06
4.35246871167e-06
4.1780687093e-06
3.4657589992e-06
1.07780228757e-07
5.95520228859e-07
1.18316903156e-06
3.83824674755e-06
1.73013106943e-07
1.00423428921e-06
1.81073566357e-07
1.43357717204e-06
2.78275512775e-06
2.40251058732e-07
4.36401298761e-07
5.04659858712e-06
4.2331128273e-06
6.90677799202e-07
1.06760708974e-06
3.83115636798e-07
2.12361484996e-07
2.48531730471e-07
1.96784500127e-08
1.08339150428e-07
6.2062661586e-07
1.29765403443e-07
2.70513059085e-06
6.56238426877e-07
5.29434493512e-08
1.79136564559e-07
4.95728778873e-07
3.24643650253e-08
2.96180709629e-07
4.0139457721e-07
2.02903399024e-07
3.98504130224e-07
1.21581543779e-06
1.92206314643e-06
3.76412829911e-06
2.65738867409e-06
5.66476652091e-06
1.39552816179e-06
7.48896827601e-06
8.64421917899e-06
3.90943968384e-07
2.72741704071e-07
8.44646270483e-08
9.74152846464e-07
7.74495173936e-07
1.94170200122e-07
2.35329673851e-06
1.64827675774e-05
8.91779984012e-06
3.21749198711e-05
2.92531858855e-05
8.46136322967e-06
2.19629630958e-06
6.69594127138e-06
6.56035360592e-06
2.59531813398e-06
7.81767817442e-06
8.03766242738e-06
3.65659037866e-06
7.52227513106e-06
1.47937053536e-06
9.48968024451e-06
2.85691728202e-06
5.17697355365e-06
3.93017827787e-06
2.8980676674e-07
1.0470620852e-06
2.29859545771e-06
2.65339170317e-06
2.53180868718e-06
1.19623581902e-06
3.28145385411e-06
3.28235461498e-06
4.45736995924e-07
5.52242216801e-07
2.95308236522e-06
2.84646023062e-06
1.19152865704e-06
2.91076249278e-07
2.81911960483e-06
8.56053521716e-07
4.63948942128e-08
2.09899812396e-06
2.74115735165e-06
3.1319221731e-06
5.75896040556e-06
2.16990535493e-06
1.04236647345e-06
1.1814845902e-06
2.10520421607e-05
8.73003163796e-05
3.05960211107e-05
8.68027523645e-05
0.000528432327186
2.51318661791e-05
0.000515471576399
0.000444295917176
0.000103466819057
2.42095246424e-05
3.70000363284e-06
4.24972240131e-05
7.32996912605e-05
2.25259721703e-05
6.23005239254e-06
2.13552502206e-06
2.18222718152e-06
2.01049355865e-06
1.93895132017e-07
2.33738408527e-06
4.31624815755e-07
0.000105068259358
1.5707135706e-05
1.29416662323e-06
6.5034740307e-05
6.5141919021e-05
4.81912015659e-05
1.72912668766e-07
1.25504772216e-06
2.08547947766e-06
7.58137307785e-07
1.59386136359e-06
2.02474238965e-06
3.17254876159e-07
1.24614696972e-06
1.03603651338e-05
2.52735709379e-06
2.70964097295e-06
2.90159273243e-05
2.07499509201e-05
1.40820866512e-05
2.72049745661e-05
8.43412372693e-06
1.17814362083e-06
6.78119680516e-06
1.53382332886e-06
2.0063076941e-06
8.58316038386e-07
1.46427801196e-06
7.51980904626e-07
4.03832483097e-07
4.49099925458e-07
4.31128046093e-07
1.13024980074e-06
8.90025663811e-07
1.61639669015e-06
8.71459530637e-07
2.86510248484e-06
4.17727234829e-06
1.62771359714e-06
1.78375951555e-06
9.0964305726e-07
3.16499904371e-07
1.54604784919e-05
2.44426456026e-06
3.61140126818e-06
2.45420909532e-06
1.58893941598e-06
1.0390445324e-06
1.43244808627e-06
5.91680953874e-06
1.26554853849e-05
0.00015537906742
4.84178918954e-05
8.49882545913e-06
1.54080522419e-05
1.45993607302e-05
1.70681463691e-06
5.45479665393e-07
7.69779154381e-07
1.04936825849e-06
6.58926756787e-07
5.30991467324e-08
6.90781252569e-07
5.14906962537e-07
1.20544599069e-06
2.62500766289e-06
9.51727551278e-07
2.39479032237e-06
2.02631693173e-06
2.19252840483e-06
2.46851304975e-06
6.69972867386e-07
4.90509124934e-07
7.4174943648e-07
5.87668890537e-07
1.78003240234e-06
1.5510889146e-06
9.54026348631e-05
0.000148825620037
0.000306882438527
0.000187500410728
8.59777603692e-05
4.31775072514e-06
2.84140032027e-06
5.99470783497e-05
3.19624043752e-06
3.61594874355e-06
6.41073574712e-07
8.08516953255e-08
2.36800871345e-09
1.65867019756e-07
9.04321216303e-08
2.81621511897e-07
2.28862710556e-06
3.97254253224e-07
2.59389922324e-07
1.82704044569e-07
1.27605675452e-06
1.08648204046e-06
1.2019811246e-07
4.29034679974e-07
1.14665371454e-06
1.53557958056e-07
1.5959529338e-07
3.80416385962e-07
4.85437683837e-08
2.10360874503e-07
3.57569520455e-07
4.68246978361e-07
2.0424383843e-08
2.89231205537e-06
1.75734786768e-06
2.5647585749e-07
4.5659697558e-09
9.74284296328e-08
2.17750169124e-06
1.84633667438e-06
4.02349378423e-07
4.61565606833e-07
1.73592349975e-07
1.46695150009e-07
2.73610402214e-06
4.46086872258e-06
2.13277580939e-06
1.38027804408e-06
2.36698444683e-06
1.20218882545e-06
1.09184680626e-06
3.44463343404e-06
6.03222490893e-07
2.62238911694e-07
5.62299274385e-07
3.58500349792e-06
2.63464567516e-06
4.20733215782e-06
6.75640995734e-08
9.10313531334e-06
8.29600513973e-06
1.69426944064e-06
2.02827592108e-06
6.08654719692e-06
2.8677721834e-06
1.62627304452e-06
4.08146175584e-07
3.83091065081e-07
1.17014339367e-07
1.49115906016e-07
1.44672799043e-07
8.95288938512e-08
3.06739542583e-08
2.45644230722e-07
2.37533241026e-07
1.89429008194e-06
5.28269033553e-07
6.93170858524e-07
2.14311370648e-07
4.29269324973e-07
1.14268025384e-06
2.88650205932e-07
1.27703136744e-06
3.11298345449e-07
9.9232560032e-07
3.17624483809e-07
3.56896833031e-07
2.3991792408e-07
1.07240874874e-07
1.63073500552e-07
2.64877950329e-08
5.84144122349e-08
1.99936422113e-07
8.30622399958e-07
1.70915313457e-07
6.47861297517e-07
3.7641014669e-07
1.91829864323e-06
2.1909895214e-07
2.36544816706e-07
2.0107599631e-07
1.8734066177e-07
3.9225098784e-07
2.0928896866e-07
1.09032460139e-07
7.2444575268e-08
3.57029400587e-07
6.19419180875e-07
2.62241873608e-07
3.51662562855e-06
7.46793689821e-07
1.01811263245e-06
2.06740684597e-06
3.37381642868e-07
1.52362436498e-05
1.82503820301e-05
1.90902322324e-05
8.92859993128e-06
1.16076014793e-05
9.67341281972e-07
1.67573088787e-06
2.41850118553e-06
2.38429994501e-06
3.97340480033e-06
3.09762315416e-06
8.73391353857e-07
2.75051407825e-06
1.0742028839e-06
1.40122716471e-07
4.60909974042e-07
1.16484440296e-06
1.58288657398e-06
3.42637888379e-06
5.80192996223e-07
1.69132956809e-07
6.14003530736e-07
3.10627177572e-06
5.63127381344e-06
3.45229185563e-06
2.97202915481e-07
1.04367213011e-06
3.70015158575e-06
6.70124702939e-06
6.2785065619e-06
1.26193216154e-06
1.11215024062e-05
1.17777252868e-05
1.34238296012e-05
1.44058649924e-05
1.40462273602e-06
1.9903722213e-05
1.34762496437e-06
1.27961560362e-06
7.57739102203e-08
4.9416671375e-07
1.64487478573e-06
3.0539071741e-06
6.41289800521e-07
9.16076678938e-07
4.48505272201e-06
1.81848340523e-05
2.76551489228e-06
9.34019372306e-08
8.27034608244e-07
3.17047554368e-06
3.23161215307e-07
4.00830247022e-07
4.66601492837e-08
1.49360779376e-07
8.24294713714e-07
3.53835320869e-07
1.6042751434e-07
2.54016732363e-08
3.15740313655e-07
3.33020499953e-07
2.52406558301e-07
1.75368544652e-07
4.11485778326e-07
2.00856861815e-08
2.31269983446e-07
6.52091629497e-07
1.62109807255e-06
5.20752975651e-07
4.85077204914e-07
5.60306493593e-07
2.47588673599e-07
7.30543948208e-10
1.15262190677e-06
1.12979650673e-06
2.67654163589e-06
2.64349072473e-06
2.78837783648e-06
6.5710927014e-06
2.53145816291e-07
3.30105955812e-06
3.15047372777e-06
1.77202228266e-06
1.02158413706e-06
1.3144509308e-06
1.07273155234e-06
2.435798449e-06
7.89501171776e-07
1.02933649225e-06
1.06566312808e-06
1.70274437692e-06
3.34857493583e-06
3.07269159129e-06
1.00888797663e-05
2.11493057948e-05
2.99701868371e-06
8.09319926245e-06
4.04887345468e-06
5.12107419701e-06
1.92958816139e-06
1.49174591298e-06
6.10174124484e-06
4.43359184713e-05
4.54791826442e-05
0.000150324177601
0.00265452471175
0.00173807123985
2.19571374785e-06
5.48344195247e-05
4.59285185756e-06
2.86468753004e-06
7.32243669378e-07
3.09067159905e-07
1.13914250265e-06
2.72305002268e-07
3.84658791786e-07
2.11168003188e-06
3.33386228293e-06
4.22380930268e-06
8.86457421972e-06
1.14471365798e-05
6.67405632895e-06
2.10060843843e-05
3.56063980014e-05
2.13467496463e-05
2.3062611624e-07
1.18456975376e-06
2.10952423498e-06
1.04843687674e-06
2.30741490582e-06
1.31229169777e-07
2.45649669954e-07
2.18660582635e-06
1.95212664774e-06
6.31097099295e-07
1.8550221419e-06
6.82981478869e-07
1.60517229226e-06
2.20319652232e-07
4.63224382352e-07
6.46904470944e-07
1.95141421963e-07
4.59699139451e-07
1.05518806707e-07
9.6985791551e-06
1.98197079291e-06
6.81286923882e-07
1.45385435952e-06
1.68316614383e-06
3.26462745301e-06
1.03891246859e-06
3.36969285652e-06
2.71410228313e-08
1.14327359967e-06
3.58720716944e-07
1.7443040646e-07
6.15754652328e-08
3.57248545928e-06
6.24339988384e-06
1.21053576372e-05
7.48508765586e-06
8.36178117703e-07
4.00351100164e-06
1.42647849833e-06
1.9044272715e-06
4.78400842444e-07
1.96739407787e-06
1.40055060086e-06
7.01198858892e-06
1.2137459473e-05
1.03706013965e-05
1.21635055364e-06
1.59244797841e-06
7.76247876455e-06
2.5244418421e-06
5.323766946e-07
9.21280160338e-07
1.01318414274e-06
1.32330871955e-06
1.30193338165e-06
2.13472622248e-06
2.3278193737e-06
1.00146513879e-05
4.8714608265e-06
5.79362045729e-05
3.01705637398e-05
1.08511273918e-06
2.05889945749e-06
4.26163641686e-06
1.47989660244e-06
1.30332774784e-06
3.14834365046e-07
1.83723095544e-07
9.42473042147e-07
3.60795208263e-07
3.26352650093e-06
8.92693294911e-07
1.46400672852e-05
2.83853251999e-06
3.35875459687e-05
2.45936648929e-05
5.39835942357e-07
5.81425460878e-06
1.16909591505e-06
2.74784243259e-06
6.88168089845e-07
1.33062547922e-06
8.96357200389e-07
1.95967122358e-06
2.20069988796e-06
2.93709059033e-07
5.04467221975e-06
2.75030332829e-07
2.06227051982e-06
1.34047122219e-06
5.30053646019e-07
1.15949663972e-06
1.15887193068e-07
1.20993727483e-06
2.23685205637e-06
3.45879667672e-06
2.18618669845e-07
1.9209832468e-07
1.69167164659e-06
6.72777925395e-07
9.38262834678e-07
2.96329612652e-06
1.72653731503e-06
1.4786480166e-05
2.02807796474e-05
1.03751678296e-05
1.92377244284e-06
2.71147915772e-05
2.80868588714e-06
5.25971340647e-06
8.40254419859e-06
3.59102155486e-06
2.3849016878e-06
1.7409685134e-07
1.20659015457e-06
2.83205992829e-06
7.49083440952e-07
5.35363238986e-07
1.98221583467e-06
1.95697639005e-06
1.42867835669e-06
4.23301949942e-07
2.865662362e-07
3.96607047597e-06
5.64001034668e-06
8.62440825254e-06
0.000362564828701
0.000252850158205
0.000422244835408
0.0002505144639

