# vtk DataFile Version 3.0
File Name: Molecule/arg/arg_0.5-3.vtk
ASCII
DATASET UNSTRUCTURED_GRID
FIELD FieldData 1
TIME 1 1 double
0.0
POINTS 155 double
-3.4370772839 0.23243527114 1.4102438688
-3.1618573666 -0.13079237938 0.62555027008
-2.9596781731 -0.74128758907 1.453333497
-2.5512399673 -0.99325615168 0.63409948349
-2.879740715 0.17879378796 -0.16208072007
-2.5102956295 -0.45150396228 0.17717573047
-2.2386510372 -0.50315463543 -1.2454123497
-2.199208498 -0.47546592355 -0.91958659887
-2.4264733791 -0.1547973901 -1.1579216719
-2.4166705608 1.0512645245 -1.3729687929
-2.913203001 1.7247059345 -0.37080001831
-2.1816716194 1.8306328058 -0.69725763798
-1.9036991596 1.4723563194 -1.5816794634
-1.6794778109 1.9463454485 -1.0977095366
-2.5416469574 2.6138999462 0.45719644427
-1.7609832287 2.6075472832 -0.54662370682
-1.3855282068 3.2601671219 0.11303652823
-3.1512236595 2.3196344376 1.4271646738
-1.8536270857 3.3269307613 1.436745882
-2.4183745384 3.1197578907 2.2559764385
-2.9264338017 2.1891124249 2.7094247341
-2.7613832951 2.5224664211 2.27678895
-3.4076433182 1.7813328505 1.8711322546
-3.129635334 0.77294719219 3.131793499
-3.0917394161 1.7708809376 3.058557272
-3.3786187172 0.82162922621 2.0114905834
-3.0136959553 0.45256716013 2.4316573143
-3.1260998249 0.25406530499 1.9650263786
-2.8628172874 0.196685642 2.9384298325
-2.8530268669 0.015758654103 2.3126573563
-2.987985611 -0.2318405807 1.8723603487
-2.50259161 -0.71395146847 2.4522836208
-2.4201083183 -0.083755388856 3.6090970039
-1.7664073706 -1.6646758318 1.37860322
-1.9290446043 -1.3003308773 3.4401454926
-0.91309756041 -2.3861589432 2.1438422203
-0.94907534122 -2.2271945477 0.28428480029
-1.9961054325 -1.27965343 0.11518657207
-2.3075077534 -0.31231117249 -0.42599672079
-2.0608067513 -0.78559321165 -0.73248118162
-1.9273862839 -1.2929033041 -0.77925348282
-2.0409109592 -0.77538782358 -1.2937706709
-1.6355499029 -1.7583960295 -1.4580186605
-2.2218568325 -0.47181883454 -1.7510080338
-1.739720583 -0.76085889339 -2.090075016
-1.547811389 0.1359873414 -2.7149925232
-2.3537347317 0.20744223893 -2.2058684826
-1.8198953867 0.97100526094 -2.4258844852
-1.0614938736 0.71606719494 -3.4277615547
-1.5305316448 1.5094707012 -2.2427206039
-1.1762529612 1.6624907255 -2.9653968811
-1.1297314167 2.0871338844 -2.1296124458
-1.4945921898 1.8467539549 -1.6827261448
-1.3245532513 2.3966720104 -1.290797472
-0.42189243436 2.5942091942 -2.4386765957
-0.784735322 3.0209283829 -1.2980880737
0.75438827276 2.7134134769 -1.6810619831
0.71793484688 3.3859136105 -2.7053346634
-0.0092633953318 3.2372322083 -2.8302371502
0.40650883317 3.3758807182 -0.52116769552
1.0692636967 2.4722700119 -0.56158608198
1.5502985716 2.0289580822 -1.237629652
0.99098229408 2.7545676231 0.21223695576
1.5524274111 1.9005604982 0.0083436043933
1.2008759975 2.2252511978 1.0561813116
0.36676156521 3.1110858917 0.86248511076
0.52318435907 2.7834339142 2.2824249268
-0.23865166306 3.4109530449 2.0079283714
-0.62020498514 3.3207242489 3.4532620907
0.38682192564 2.6286072731 3.9228997231
-0.63280940056 2.6976311207 4.0161070824
-1.7315320969 2.7388615608 3.9346220493
-2.0058043003 3.3827369213 3.3097772598
-2.4174005985 2.6657938957 3.4124600887
-0.50980764627 1.8210927248 4.5330862999
-1.0820106268 2.2576360703 4.3461613655
-2.4393024445 2.2298922539 4.11024189
-1.5898005962 1.7658754587 4.5507292747
-0.25926589966 1.0648183823 4.7829518318
-1.0432466269 1.0785038471 4.6210608482
-0.71221750975 0.27202653885 4.7241969109
-1.6686016321 0.69748687744 4.6317586899
-1.0731322765 -0.49578434229 4.7249293327
0.082841739058 -1.245934844 5.0561275482
0.30624222755 -0.29959222674 5.2008180618
0.8559949398 -2.4596238136 3.9106395245
1.3094818592 -0.83629208803 5.3216161728
2.0785434246 -2.0346653461 4.092086792
1.9279849529 -1.4802978039 2.3354415894
0.9511629343 -1.8994723558 2.1750934124
0.82120347023 -1.7122899294 0.84318464994
1.6877886057 -0.14815154672 0.90873748064
2.3503630161 -0.42466071248 1.9840897322
1.3971825838 -1.1484956741 0.1261845082
1.7542181015 0.17097054422 -0.24026319385
1.668838501 -0.83131945133 -0.8821387887
1.1051181555 -2.0054206848 -1.8258941174
1.6499732733 -1.3536416292 -2.68288517
2.1831264496 -0.21704854071 -1.4695907831
-0.39474707842 -1.7076379061 -2.4703388214
0.18889456987 -0.80519086123 -3.4309082031
-1.0259870291 -1.2652301788 -2.4200184345
-0.44315367937 -0.85500466824 -2.8560802937
-0.6175673604 -0.24390585721 -3.3446555138
-1.1075823307 -0.58750647306 -2.6915462017
-0.084203019738 0.54781931639 -4.0046892166
0.61116737127 0.38306617737 -4.2416267395
-0.41465115547 1.9003329277 -3.5812718868
0.35951447487 1.3282850981 -4.3953895569
0.14521284401 2.0955784321 -4.1081738472
-0.030661696568 2.9499895573 -3.6464240551
0.96791899204 3.0252902508 -3.6712753773
0.91663700342 2.2511856556 -4.0115642548
0.47417098284 2.9114348888 -3.9119179249
1.1724390984 3.0893805027 -2.9233207703
1.6090046167 2.6646237373 -3.2690451145
1.640791297 2.7179324627 -2.5942265987
1.2904807329 2.5627295971 -2.1765949726
2.175495863 2.1881549358 -2.5334250927
2.1105487347 1.6319782734 -1.9029867649
2.3270974159 1.4220907688 -2.4570772648
2.3918690681 0.72986882925 -1.7298426628
1.9508780241 0.92326897383 -1.0223249197
1.9739602804 0.91537117958 0.14177007973
1.8514313698 2.0060491562 -3.4228899479
1.9526643753 1.1120816469 -3.903002739
1.1986511946 1.5846867561 -4.1901750565
2.5776033401 0.90108436346 2.6305658817
1.897751689 1.2844436169 1.3830138445
1.8919620514 1.6081546545 2.5628242493
1.3067156076 2.2938215733 2.1431417465
0.73921698332 1.7318856716 4.6870183945
2.0942306519 1.5079632998 4.0573306084
0.47772204876 0.81739079952 5.0017414093
-0.085376664996 0.45012247562 5.0274429321
1.3033511639 0.77615010738 5.0689930916
-3.9309363365 1.1821175814 0.77582609653
-1.6570554972 3.916387558 2.4981350899
-2.6407558918 1.3971606493 4.4706764221
-1.150924921 -1.9288618565 4.632188797
0.72936505079 -2.6519858837 -0.78940683603
3.6325075626 -0.45332190394 3.5116913319
2.9665699005 0.48590251803 4.8794517517
2.7717673779 -1.0724955797 5.0610628128
2.1665859222 0.57969087362 5.2250270844
2.1164708138 -0.4764714241 -3.9397521019
0.99322122335 3.4122040272 -3.2759122849
-0.0013587800786 3.3433785439 -3.1060934067
0.52595436573 3.7173845768 -3.1492204666
3.0531466007 1.0340409279 3.849694252
-0.016221530735 -2.9494166374 3.0646789074
-1.2057003975 -2.6328516006 3.5010564327
-0.225493595 -2.5687382221 4.4270415306
0.73223412037 3.2050025463 -3.7297627926
0.12119770795 3.2624981403 -3.6814098358

CELLS 306 1224
3 0 1 2
3 2 1 3
3 1 4 5
3 6 7 8
3 8 4 9
3 10 9 4
3 10 11 9
3 12 11 13
3 11 14 15
3 15 14 16
3 14 17 18
3 18 17 19
3 20 21 22
3 17 22 21
3 23 24 25
3 22 25 24
3 26 25 27
3 0 27 25
3 23 26 28
3 29 28 26
3 29 27 30
3 2 30 0
3 2 31 30
3 28 31 32
3 31 33 34
3 34 33 35
3 36 33 37
3 3 37 33
3 3 5 37
3 5 38 37
3 37 39 40
3 40 41 42
3 39 7 41
3 38 8 7
3 8 43 6
3 44 42 41
3 45 44 46
3 43 46 44
3 46 47 45
3 45 47 48
3 9 12 47
3 49 47 12
3 50 49 51
3 52 51 49
3 52 13 53
3 53 13 15
3 54 51 55
3 53 55 51
3 55 56 54
3 57 58 56
3 59 60 56
3 56 60 61
3 60 62 63
3 63 62 64
3 62 65 64
3 65 66 64
3 65 16 67
3 67 16 18
3 67 68 66
3 66 68 69
3 70 68 71
3 72 71 68
3 71 72 73
3 72 19 73
3 69 70 74
3 75 74 70
3 76 77 71
3 73 76 71
3 76 73 24
3 20 24 73
3 78 74 79
3 77 79 74
3 79 80 78
3 81 80 79
3 81 32 82
3 82 32 34
3 83 84 82
3 80 82 84
3 83 85 86
3 86 85 87
3 87 85 88
3 89 88 85
3 36 90 35
3 89 35 90
3 88 90 91
3 92 88 91
3 91 93 94
3 95 94 93
3 96 97 95
3 98 95 97
3 96 99 97
3 97 99 100
3 99 101 102
3 103 102 104
3 104 101 44
3 42 44 101
3 104 45 103
3 103 45 48
3 105 100 103
3 100 105 106
3 105 107 108
3 108 107 109
3 107 54 110
3 110 54 58
3 111 112 113
3 111 114 115
3 115 114 116
3 114 57 117
3 117 57 56
3 116 117 118
3 119 118 117
3 120 119 121
3 122 121 119
3 123 122 63
3 61 63 122
3 123 94 122
3 94 98 122
3 118 120 124
3 125 124 120
3 125 106 126
3 126 106 108
3 126 112 124
3 124 112 115
3 127 92 128
3 91 128 92
3 129 128 130
3 64 130 128
3 131 132 69
3 131 78 133
3 133 78 134
3 133 84 135
3 135 84 86
3 27 0 30
3 38 5 4
3 4 8 38
3 12 9 11
3 15 13 11
3 18 16 14
3 21 19 17
3 24 20 22
3 26 23 25
3 28 29 31
3 34 32 31
3 36 35 33
3 39 37 38
3 39 41 40
3 43 44 41
3 50 48 47
3 49 50 47
3 53 51 52
3 58 54 56
3 59 56 55
3 63 61 60
3 130 64 66
3 67 66 65
3 70 69 68
3 77 74 75
3 134 78 80
3 82 80 81
3 86 84 83
3 90 88 89
3 93 91 90
3 98 94 95
3 102 100 99
3 101 104 102
3 108 106 105
3 110 109 107
3 115 112 111
3 117 116 114
3 120 118 119
3 121 122 98
3 126 124 125
3 129 127 128
3 133 135 131
3 0 25 136
3 0 136 1
3 4 1 136
3 4 136 10
3 14 10 17
3 10 14 11
3 136 17 10
3 17 136 22
3 22 136 25
3 5 3 1
3 2 3 33
3 2 33 31
3 29 30 31
3 6 41 7
3 7 39 38
3 9 46 8
3 43 8 46
3 41 6 43
3 47 46 9
3 13 52 12
3 12 52 49
3 16 65 59
3 16 59 55
3 16 55 15
3 53 15 55
3 59 65 62
3 59 62 60
3 72 68 137
3 72 137 19
3 19 137 18
3 18 137 67
3 67 137 68
3 75 71 77
3 21 73 19
3 73 21 20
3 71 75 70
3 138 23 32
3 23 138 24
3 24 138 76
3 76 138 77
3 79 77 81
3 138 81 77
3 81 138 32
3 28 32 23
3 27 29 26
3 34 139 82
3 82 139 83
3 37 40 36
3 36 40 42
3 36 42 140
3 36 140 90
3 90 140 93
3 93 140 95
3 96 95 140
3 96 140 99
3 99 140 42
3 99 42 101
3 45 104 44
3 51 54 50
3 50 107 48
3 48 107 105
3 48 105 103
3 102 103 100
3 107 50 54
3 61 122 119
3 61 119 117
3 61 117 56
3 64 128 63
3 63 128 123
3 94 123 91
3 128 91 123
3 66 69 130
3 130 69 129
3 129 69 132
3 131 69 74
3 131 74 78
3 80 84 134
3 134 84 133
3 141 142 143
3 141 143 87
3 141 87 88
3 141 88 92
3 141 92 127
3 86 143 144
3 143 86 87
3 100 106 145
3 100 145 97
3 97 145 98
3 120 121 145
3 98 145 121
3 120 145 125
3 125 145 106
3 109 112 108
3 108 112 126
3 116 118 115
3 115 118 124
3 110 113 109
3 109 113 112
3 111 146 114
3 114 146 57
3 147 58 148
3 58 147 110
3 135 132 131
3 129 132 127
3 127 149 141
3 141 149 142
3 144 142 132
3 149 132 142
3 149 127 132
3 144 132 135
3 142 144 143
3 144 135 86
3 85 150 89
3 89 150 35
3 35 150 151
3 150 152 151
3 150 85 152
3 151 152 139
3 35 151 34
3 151 139 34
3 139 152 83
3 83 152 85
3 113 153 111
3 111 153 146
3 146 153 148
3 153 154 148
3 153 113 154
3 148 154 147
3 147 154 110
3 110 154 113
3 146 148 57
3 57 148 58

CELL_TYPES 306
5
5
5
5
5
5
5
5
5
5
5
5
5
5
5
5
5
5
5
5
5
5
5
5
5
5
5
5
5
5
5
5
5
5
5
5
5
5
5
5
5
5
5
5
5
5
5
5
5
5
5
5
5
5
5
5
5
5
5
5
5
5
5
5
5
5
5
5
5
5
5
5
5
5
5
5
5
5
5
5
5
5
5
5
5
5
5
5
5
5
5
5
5
5
5
5
5
5
5
5
5
5
5
5
5
5
5
5
5
5
5
5
5
5
5
5
5
5
5
5
5
5
5
5
5
5
5
5
5
5
5
5
5
5
5
5
5
5
5
5
5
5
5
5
5
5
5
5
5
5
5
5
5
5
5
5
5
5
5
5
5
5
5
5
5
5
5
5
5
5
5
5
5
5
5
5
5
5
5
5
5
5
5
5
5
5
5
5
5
5
5
5
5
5
5
5
5
5
5
5
5
5
5
5
5
5
5
5
5
5
5
5
5
5
5
5
5
5
5
5
5
5
5
5
5
5
5
5
5
5
5
5
5
5
5
5
5
5
5
5
5
5
5
5
5
5
5
5
5
5
5
5
5
5
5
5
5
5
5
5
5
5
5
5
5
5
5
5
5
5
5
5
5
5
5
5
5
5
5
5
5
5
5
5
5
5
5
5
5
5
5
5
5
5
5
5
5
5
5
5
5
5
5
5
5
5

CELL_DATA 306
SCALARS cell_data_0 double
LOOKUP_TABLE default
1.15490046106e-06
9.09748738093e-07
7.46378755379e-07
8.55360656503e-07
4.73299516131e-06
1.2343153626e-05
1.05028901635e-05
9.48998347862e-07
4.19533404857e-06
2.71244020197e-06
3.3411221473e-07
4.59462818581e-08
1.45352694048e-07
1.02610262081e-06
3.85635614898e-06
1.28347960976e-07
1.40864134575e-07
2.52177401823e-07
1.61730350761e-07
1.0547002307e-06
9.83389163536e-08
1.14701908304e-06
2.43512716061e-06
4.33445926226e-06
2.01149042899e-05
9.00362213872e-05
1.89256565035e-05
9.69354268896e-07
3.26825166633e-08
4.1417875591e-06
5.28373565316e-07
4.24530548592e-06
1.37708758504e-06
4.410034232e-07
1.51083724355e-06
5.74937480835e-06
3.0224444098e-06
3.42199502915e-06
1.27397741331e-07
4.08394877887e-06
9.21307771674e-06
1.82627000054e-06
1.23107435424e-07
2.23129584009e-06
8.34501555372e-07
1.12844403337e-06
1.83768663533e-05
8.2189136509e-07
3.72561651042e-05
3.91665863678e-07
6.54978265037e-06
1.54535661882e-05
7.86195870972e-07
2.45055649969e-06
2.74956642319e-06
1.24440588935e-05
1.49732688317e-05
4.6650060834e-06
7.955356731e-06
0.000119334622154
1.8415331221e-05
3.43353893926e-06
4.99620752011e-06
2.53663490936e-07
2.61581293765e-05
9.09802844113e-06
1.80603667607e-06
2.72969129475e-06
1.22052984763e-06
1.33495584818e-08
4.82575973444e-08
1.04997602973e-05
7.4721537946e-06
5.00759811236e-06
3.32731517783e-05
1.15945439584e-05
1.31954195608e-05
6.177912438e-06
0.000106330135451
0.000410709578238
0.000401345644532
0.000116905773612
3.75487281529e-05
3.29024340386e-05
1.5170948962e-05
4.19403868075e-05
2.09783810793e-05
8.45785140944e-06
8.01645831515e-06
1.53028774093e-05
2.365708662e-05
1.0591663746e-05
3.12794239772e-06
3.37341633242e-06
1.3392924355e-06
4.89382452555e-06
5.128844276e-06
1.24176816808e-05
1.87579262134e-05
3.19166513161e-05
0.000102650127872
5.14869710568e-05
4.49801865711e-06
5.7543198203e-05
1.99927140249e-05
2.15452901609e-05
5.7854893961e-05
1.39962110105e-05
4.95604187115e-05
3.31007386223e-05
7.31154805515e-05
4.48528448004e-05
1.48338945178e-05
2.61756358282e-05
2.57039666128e-05
1.66582741553e-05
2.2015616883e-05
5.97720834822e-05
3.2978867676e-05
1.73952893232e-06
7.01230954855e-05
0.000143141806195
0.000132454789649
1.36678411327e-06
2.64158410104e-05
0.000176414091772
2.91333797986e-05
0.000167613119989
2.27720107993e-06
5.05112005553e-07
1.82267924858e-05
2.48490786753e-05
1.30646431898e-08
5.52647196141e-07
1.04787408289e-05
4.31689914904e-06
1.05586384241e-06
6.12600083216e-06
3.14677656736e-06
2.30342809165e-06
1.72332285425e-06
7.25564371578e-07
8.44371740211e-06
1.74200065592e-05
2.36848871281e-06
9.46797687307e-07
3.45340631357e-06
1.68653547546e-05
6.66488230641e-06
8.48383885854e-07
5.8351116118e-05
5.2905113781e-06
1.16000964221e-05
4.32912040498e-05
7.54418355998e-06
2.30055943208e-05
2.05495612526e-06
2.22043830986e-06
4.53318948804e-06
3.58284039542e-05
1.89579457326e-05
1.87044975146e-05
2.16880773323e-05
1.43011766801e-06
4.84522659735e-06
0.000105425012613
9.93390591138e-05
0.000109177503458
3.53911288004e-05
0.000109648578328
3.23177599372e-05
8.43842348214e-05
0.000117439631466
9.9284572637e-06
6.78878585419e-07
9.07241779882e-07
5.13920193883e-07
1.17718477366e-05
3.14811846622e-06
2.63604174769e-06
4.29995817124e-06
1.45735526861e-06
2.66834086014e-06
2.07614410728e-06
2.1602040718e-06
5.35123303232e-06
5.59985796477e-07
1.13745150276e-06
6.80890718327e-08
2.27963546827e-05
2.2477992946e-06
6.71113605985e-07
5.86071897187e-06
1.03635580005e-06
1.7886192406e-06
1.32315821552e-05
1.13029141485e-05
4.98099030931e-07
1.79465085295e-06
4.15795898756e-06
1.24699114839e-07
5.70946582518e-06
4.25492735298e-06
1.93568131055e-06
3.46547187327e-07
1.33167655415e-05
1.11013235597e-05
2.94426431392e-06
1.34437599198e-06
4.40417263521e-06
3.96690449528e-06
3.76462704456e-06
2.61573594609e-06
1.71066199931e-06
2.33443003091e-06
4.23392386853e-06
4.42650521045e-06
4.7063074382e-07
2.92213828783e-07
4.59784158326e-05
4.03854763632e-05
5.16840017556e-06
8.58327306213e-06
2.27101626608e-05
4.63652784436e-05
1.74974211295e-05
5.71510044294e-06
1.16034573142e-05
1.84557260536e-05
1.70370517399e-05
5.97451844552e-06
6.97866141946e-06
8.17703218038e-06
3.28486828295e-06
6.77894381048e-05
1.30605126341e-05
6.75195098652e-07
3.12566277489e-05
1.31470472211e-05
4.42030154445e-05
9.73130321618e-06
3.94268476687e-05
2.72404686741e-05
1.1606990527e-05
2.37973110458e-05
9.37120769694e-05
0.000592368676874
0.00064023710373
3.79417043252e-05
7.97853363911e-06
2.85823868949e-06
3.89680281058e-06
2.77051118425e-05
0.000192615167437
0.00017435453762
1.55527731677e-05
2.04420444138e-05
2.98920104332e-05
3.2236824809e-05
8.44568985304e-06
4.52551536514e-06
1.48085869452e-05
2.71201002735e-05
5.54320194785e-05
2.97852783458e-05
5.59390293071e-05
0.000383590448871
0.000416828944331
0.000109149931635
0.000343300513025
1.08901870682e-05
6.85016784023e-05
3.45832736444e-05
1.46101730709e-05
2.44805081444e-05
4.30838121364e-06
4.28589806659e-06
0.000148914083367
9.18080656153e-05
6.38710670653e-05
4.29793896389e-05
1.64645673689e-05
0.000148813437404
3.18113193901e-05
1.24271081072e-05
1.70092817638e-05
0.000325974069749
0.000150116376757
5.82033538168e-05
5.03536624821e-05
0.000331994874428
1.38094844485e-05
2.59845824821e-05
2.77784026368e-05
4.78562507177e-05
4.3263689185e-05
3.44372054088e-06
1.86213567329e-05
2.93124275558e-05
9.38086219396e-05
3.35155918229e-05
2.55435530681e-06
2.4258476788e-05
7.65262065121e-06
2.21608094574e-05
4.49556952318e-05

