# vtk DataFile Version 3.0
File Name: Molecule/arg/arg_1.0-5.vtk
ASCII
DATASET UNSTRUCTURED_GRID
FIELD FieldData 1
TIME 1 1 double
0.0
POINTS 226 double
-3.4445781708 0.24730089307 1.3992958069
-3.1820785999 -0.077751494944 0.62354183197
-3.0525679588 -0.48499596119 1.4882938862
-2.7168488503 -0.53988021612 0.45907884836
-3.1105837822 0.24763345718 -0.072452031076
-2.3024847507 -0.36359930038 -0.28974881768
-2.2837460041 -0.37403506041 -1.0239217281
-2.0580112934 -0.78570026159 -0.75820761919
-2.6539576054 1.3084214926 -0.75647884607
-2.5914318562 0.15141661465 -1.048418045
-2.2312893867 1.1301769018 -1.6058990955
-1.9579552412 1.6767458916 -1.0533853769
-2.659204483 2.0861122608 -0.29061564803
-1.4404423237 3.1744272709 0.22083300352
-1.7709113359 2.5956888199 -0.55512869358
-2.4832437038 2.6599318981 0.65003019571
-3.0304927826 2.3582308292 1.6163604259
-1.8307152987 3.3358941078 1.5168657303
-2.5165281296 2.9912099838 2.2957081795
-2.7308461666 2.5498330593 2.7211306095
-3.088146925 1.8154389858 2.3515067101
-3.5416891575 1.7613122463 1.6405738592
-3.394554615 0.81353676319 1.9424364567
-3.1898827553 0.96752309799 2.9081938267
-3.0133314133 0.4460529685 2.4269173145
-3.1176788807 0.12713697553 1.8562890291
-2.8461356163 0.23054300249 3.3776962757
-2.6817312241 -0.072743117809 2.721632719
-2.8729431629 -0.19453723729 2.1612036228
-2.4848732948 -0.75634616613 2.4008183479
-2.2190835476 -0.37893953919 3.3974809647
-1.7260875702 -1.7047011852 1.44190979
-1.9419590235 -1.4922651052 3.1757256985
-0.97507530451 -2.263892889 2.1322815418
-2.2242162228 -1.2630578279 0.51242798567
-1.010027647 -2.1957118511 0.31744074821
-1.8661743402 -1.4197647572 -0.2624989152
-1.8791191578 -1.3056035042 -1.0989124775
-1.490583539 -1.6616661549 -1.8599553108
-1.7415972948 -0.76919597387 -2.0779557228
-2.0743966103 -0.72285699844 -1.4382830858
-2.0960743427 -0.69532310963 -1.0653992891
-2.2594532967 -0.412761271 -1.8251028061
-2.2542037964 0.22777962685 -2.2946395874
-1.5409123898 0.12939977646 -2.7170433998
-1.7095865011 1.0164074898 -2.4748077393
-1.0947021246 0.69812494516 -3.396545887
-1.5126460791 1.5003180504 -2.2799897194
-1.847823143 1.4646738768 -1.7948098183
-1.1691137552 1.6659547091 -2.9731514454
-1.0928753614 2.0783529282 -2.1995403767
-1.4740678072 1.8309072256 -1.7380136251
-1.2078536749 2.3981814384 -1.3552883863
-0.41420432925 2.5987992287 -2.4533581734
-0.35710373521 2.9115111828 -1.6818342209
-0.92670887709 3.1993811131 -1.0060751438
0.39878994226 3.0918154716 -1.0386689901
0.36284977198 3.0491063595 -2.1174509525
-0.038648732007 3.241799593 -2.8169291019
0.33905440569 3.4456546307 -2.7338552475
1.0545641184 2.4729163647 -0.48057696223
0.85381352901 2.6486449242 -1.4279533625
1.5105786324 1.9487649202 -1.0631479025
0.93233466148 2.793453455 0.33658149838
1.5393743515 1.9173246622 0.088808260858
1.2171806097 2.2067739964 0.99788177013
0.26211103797 3.0730984211 1.0016169548
1.2522945404 2.2542703152 1.9753872156
0.66476672888 2.864358902 2.562964201
-0.16506138444 3.4019079208 2.0675430298
-0.42881906033 3.3261721134 3.4118947983
0.80201381445 2.8207163811 3.3706576824
-0.78815507889 2.8265779018 3.9277095795
-1.3066809177 3.6738870144 3.3937761784
-1.7372883558 2.8415420055 3.8481345177
-2.1620931625 3.228530407 3.2736661434
-2.3987150192 2.6336195469 3.4919540882
-1.0398513079 2.1063036919 4.4052500725
0.052330195904 2.5700240135 4.0757489204
-0.42058601975 1.6402362585 4.6291427612
-2.4502270222 2.2191240788 4.1076278687
-1.6977262497 1.7619024515 4.5845937729
-3.0297887325 1.9200886488 3.1720097065
-0.25516790152 0.95056402683 4.7877736092
-1.1004726887 1.1332378387 4.5939884186
-0.11988580227 0.34514912963 5.0327439308
-0.72436106205 0.48535487056 4.6937475204
-1.6353961229 0.66823971272 4.6489844322
-0.76339781284 -0.45327192545 4.8710012436
-1.6913207769 -0.86643403769 4.3358306885
-2.3486042023 0.22281116247 4.2260251045
0.18226060271 -1.1947273016 5.0807681084
0.36513030529 -0.31824633479 5.2138347626
1.2760363817 -0.80642044544 5.3336839676
1.31845963 -1.8692616224 4.624417305
0.50695616007 -2.2602748871 4.5209846497
1.1150220633 -2.4453859329 3.2122600079
1.0259686708 -1.8574080467 2.1498277187
1.9285163879 -1.9324005842 2.8117377758
0.80327379704 -1.6412622929 1.2524321079
0.13554733992 -2.1554584503 1.2510851622
0.14510641992 -2.6037442684 2.2773525715
1.0410392284 -1.8301932812 0.32722315192
0.042600572109 -2.4809439182 0.28145495057
-0.77687096596 -1.9850451946 1.1816043854
1.3897242546 -0.84111243486 1.0978776217
1.4235278368 -1.0159362555 0.15353642404
1.9222509861 -1.4714750051 2.2996530533
1.4049683809 -1.2166025639 1.7634599209
2.3342344761 -0.70341527462 1.9759236574
1.7043066025 -0.094330564141 0.67872416973
1.7494060993 0.19013372064 -0.35279759765
1.6508281231 -0.67021095753 -0.74182993174
1.5720734596 -1.4851591587 -1.6207735538
2.1965072155 -0.16578654945 -1.4576992989
2.1183645725 -1.1283704042 -2.4174380302
1.0435940027 -1.4547307491 -2.8946275711
0.50321060419 -2.161498785 -2.1376252174
-0.25472223759 -1.4164861441 -2.6608686447
0.11297237873 -0.69691616297 -3.5285050869
-0.99137920141 -1.3414332867 -2.3855876923
-0.99824208021 -0.6895813942 -2.6646182537
-0.72349363565 -0.20512938499 -3.2818276882
-0.3938549161 -0.71152347326 -3.0182390213
-0.34493297338 0.4192520082 -3.871311903
0.085136890411 2.829023838 -3.7186498642
-0.40973114967 1.9182162285 -3.5842573643
-0.19255122542 2.9987535477 -3.2629311085
0.61369079351 3.1513502598 -3.8475580215
0.99118441343 2.9889993668 -3.5815768242
0.50820428133 2.532097578 -4.0187087059
1.0526000261 3.0966088772 -2.8380644321
1.4520535469 2.5991668701 -3.3522627354
1.1473119259 2.5707740784 -1.9334641695
2.1010482311 1.6481108665 -1.9474667311
1.4595098495 2.5473308563 -2.3122916222
2.4441378117 1.2321770191 -2.3069682121
2.3917222023 0.71899729967 -1.6895829439
1.9587359428 0.90588843822 -1.0817558765
1.9704024792 0.93697208166 0.022194925696
1.8390735388 1.3039900064 -3.8157320023
2.2427470684 1.9543865919 -3.0397644043
1.1746543646 1.6430907249 -4.1858778
0.49221119285 0.95806407928 -4.2447485924
1.8894927502 1.3004949093 1.3410259485
2.5365240574 0.9520842433 2.5637569427
1.8425155878 1.5852053165 2.363465786
1.7716388702 2.1560206413 3.2420141697
2.2205398083 1.538125515 3.3728413582
1.5158041716 1.6708441973 4.2911467552
2.3209717274 1.1444339752 4.6604118347
1.3624266386 0.76299512386 5.0773768425
0.55656892061 1.6808332205 4.7322049141
0.47249394655 0.7956943512 5.0074777603
0.63532924652 3.3112704754 -2.6747002602
1.0760918856 2.8011863232 -2.4750897884
0.11152674258 1.9981257915 -4.1258077621
0.94725441933 2.1977961063 -4.0244035721
2.1913862228 2.1593091488 -2.4957010746
1.7154688835 2.1094005108 -3.4681513309
-3.5216646194 2.2031903267 0.79670649767
-3.5300447941 1.6147384644 -0.093054801226
-3.9330453873 1.1361984015 0.83166229725
-2.6703145504 -1.2522300482 1.34004426
0.40369346738 3.4701447487 -0.09034332633
-1.1095635891 4.0089316368 2.4950084686
-2.1089463234 3.651706934 2.5143742561
-2.8535835743 1.322458744 4.3406829834
-0.62734502554 -2.6134197712 4.2852134705
-0.7958894968 -1.6636394262 4.9327821732
-1.5515024662 -1.8610022068 4.240339756
-0.85716980696 -2.8405385017 3.199224472
0.086868807673 -2.9485216141 3.300134182
0.47785076499 -2.7898874283 -0.89732682705
-0.92274051905 -2.6987862587 -0.76274752617
-0.58856666088 -2.4390518665 -1.95135355
1.3823624849 -2.0938050747 -0.77289277315
1.3118776083 2.5798723698 2.8422908783
0.98079991341 2.400632143 4.0844807625
3.6673915386 -0.31749436259 3.6976363659
3.3634142876 0.6881415844 3.7181253433
3.3183524609 0.1975081861 4.6429843903
3.338095665 -0.88112866879 4.5787363052
3.2480881214 -1.4707770348 3.7140085697
3.2541267872 -0.85255652666 2.6999013424
3.3349633217 0.19655123353 2.7796554565
2.3034493923 0.21337327361 5.3897275925
2.4871311188 -0.82993000746 5.3249354362
2.6740627289 -1.608176589 4.6649007797
2.7460713387 -1.6705677509 2.8813164234
2.8729679585 1.1911603212 3.4808154106
2.0196838379 -1.7945929766 4.7191023827
2.8900511265 0.035026337951 -2.4775109291
2.572347641 -0.61612838507 -3.3738281727
2.6669821739 0.47754594684 -3.6064374447
1.8094838858 -1.2029588223 -3.4248206615
1.8136065006 -0.28783357143 -4.2487940788
0.88841098547 -0.73110413551 -4.0857691765
0.60824483633 0.32473251224 -4.2140135765
0.53960162401 3.726221323 -3.1055173874
0.23458458483 3.318048954 -3.8019368649
0.07476285845 3.486364603 -3.5682885647
0.042329631746 3.5934410095 -3.2158255577
0.96405398846 3.4426939487 -3.1365234852
0.70746463537 3.5937886238 -3.5954034328
0.16722929478 0.98604238033 -4.1239414215
0.70354574919 1.8860083818 -4.478290081
0.3775280118 1.3995864391 -4.3964123726
0.39949187636 2.0915005207 -4.3091468811
1.1209429502 1.9226915836 -4.1302957535
2.0510547161 2.5886516571 -2.9609146118
2.0356121063 2.3687460423 -3.2452626228
1.0415914059 1.9021990299 -4.1827754974
1.7173137665 2.6422743797 -2.5405094624
1.416988492 2.7947199345 -2.7018334866
0.98162615299 -2.4321041107 3.9414126873
1.6299933195 -2.115786314 4.0535144806
1.9421488047 -2.1158764362 3.4631567001
2.3060054779 1.40379107 4.1117463112
0.4111212194 -2.7255680561 3.9802570343
0.67728632689 -2.7426073551 3.3209984303
2.3340690136 -2.0145397186 4.1020750999
2.9082126617 1.0896509886 4.175693512
0.15319781005 0.46301943064 -4.0829343796
1.3551182747 2.4164967537 3.6215121746
2.5938949585 -1.957256794 3.4542226791

CELLS 448 1792
3 0 1 2
3 2 1 3
3 1 4 3
3 5 6 7
3 4 8 9
3 9 8 10
3 8 11 10
3 12 11 8
3 13 14 15
3 12 15 14
3 15 16 17
3 17 16 18
3 19 16 20
3 21 20 16
3 21 22 20
3 22 23 20
3 24 22 25
3 0 25 22
3 23 24 26
3 27 26 24
3 25 28 24
3 28 25 2
3 2 29 28
3 29 30 27
3 29 31 32
3 32 31 33
3 31 34 35
3 35 34 36
3 34 5 36
3 3 5 34
3 36 7 37
3 38 37 39
3 40 41 6
3 9 6 5
3 9 42 6
3 40 39 37
3 42 43 39
3 44 39 43
3 43 45 44
3 44 45 46
3 47 45 48
3 10 48 45
3 49 47 50
3 51 50 47
3 51 11 52
3 52 11 14
3 53 50 54
3 52 54 50
3 55 56 54
3 54 56 57
3 54 57 53
3 58 57 59
3 56 60 61
3 61 60 62
3 60 63 64
3 64 63 65
3 63 66 65
3 67 66 68
3 69 66 17
3 13 17 66
3 69 70 68
3 68 70 71
3 72 73 74
3 75 74 73
3 74 75 76
3 18 19 75
3 72 77 78
3 78 77 79
3 80 81 74
3 76 80 74
3 80 76 82
3 20 82 19
3 83 79 84
3 81 84 77
3 85 83 86
3 87 86 84
3 88 87 89
3 90 89 87
3 90 30 89
3 89 30 32
3 86 88 85
3 91 92 88
3 93 91 94
3 95 94 91
3 96 97 98
3 99 97 100
3 101 100 97
3 99 100 102
3 103 102 100
3 104 100 33
3 101 33 100
3 100 104 103
3 103 104 35
3 102 105 99
3 106 105 102
3 107 108 109
3 105 109 108
3 110 106 111
3 112 111 106
3 112 113 114
3 114 113 115
3 115 113 116
3 117 116 113
3 117 118 116
3 116 118 119
3 120 121 118
3 122 123 121
3 121 120 39
3 38 39 120
3 121 44 122
3 122 44 46
3 124 119 122
3 125 126 127
3 128 129 130
3 129 131 132
3 61 133 57
3 133 134 135
3 136 134 137
3 138 137 134
3 138 62 139
3 139 62 64
3 139 111 138
3 111 114 138
3 136 140 141
3 142 140 143
3 110 144 109
3 109 144 145
3 146 144 67
3 65 67 144
3 147 148 146
3 145 146 148
3 147 149 148
3 150 149 151
3 152 151 149
3 152 83 153
3 153 83 85
3 153 92 151
3 151 92 93
3 25 0 2
3 5 3 4
3 4 9 5
3 48 10 11
3 14 11 12
3 17 13 15
3 19 18 16
3 82 20 23
3 24 23 22
3 26 27 30
3 32 30 29
3 104 33 31
3 104 31 35
3 7 36 5
3 40 37 41
3 42 39 40
3 49 46 45
3 47 49 45
3 52 50 51
3 58 53 57
3 55 54 52
3 154 57 155
3 61 57 56
3 64 62 60
3 67 65 66
3 69 68 66
3 72 78 70
3 79 77 84
3 84 86 83
3 88 86 87
3 93 92 91
3 108 107 97
3 108 97 99
3 108 99 105
3 110 109 105
3 110 105 106
3 114 111 112
3 123 119 118
3 123 118 121
3 125 156 126
3 132 157 129
3 136 158 134
3 137 138 114
3 142 159 140
3 146 145 144
3 153 151 152
3 160 161 162
3 162 161 4
3 0 162 1
3 162 0 22
3 162 22 21
3 162 21 160
3 160 21 16
3 160 16 15
3 161 160 12
3 15 12 160
3 161 12 8
3 161 8 4
3 4 1 162
3 3 34 163
3 3 163 2
3 2 163 29
3 27 28 29
3 29 163 31
3 31 163 34
3 7 41 37
3 41 7 6
3 10 43 9
3 42 9 43
3 40 6 42
3 45 43 10
3 11 51 48
3 48 51 47
3 13 66 164
3 13 164 55
3 13 55 14
3 52 14 55
3 55 164 56
3 56 164 60
3 60 164 63
3 63 164 66
3 73 165 166
3 73 166 75
3 70 73 72
3 73 70 165
3 165 70 69
3 165 69 17
3 165 17 166
3 166 17 18
3 166 18 75
3 77 74 81
3 19 76 75
3 76 19 82
3 74 77 72
3 23 26 167
3 23 167 82
3 82 167 80
3 80 167 81
3 167 87 81
3 84 81 87
3 87 167 90
3 90 167 26
3 90 26 30
3 27 24 28
3 168 169 170
3 168 170 171
3 168 171 172
3 168 95 169
3 169 95 91
3 169 91 88
3 169 88 89
3 169 89 170
3 170 89 32
3 170 32 171
3 171 32 33
3 171 33 101
3 171 101 172
3 96 101 97
3 173 174 175
3 173 175 117
3 173 117 176
3 173 176 102
3 173 102 103
3 173 103 174
3 174 103 35
3 174 35 36
3 174 36 37
3 174 37 38
3 174 38 175
3 175 38 120
3 175 120 118
3 175 118 117
3 102 176 106
3 106 176 112
3 112 176 113
3 113 176 117
3 44 121 39
3 126 49 53
3 49 126 46
3 46 126 124
3 46 124 122
3 123 122 119
3 50 53 49
3 62 138 134
3 62 134 133
3 62 133 61
3 65 144 64
3 64 144 139
3 111 139 110
3 144 110 139
3 147 146 177
3 149 178 152
3 152 178 78
3 152 78 79
3 152 79 83
3 92 85 88
3 85 92 153
3 179 180 181
3 179 181 182
3 179 182 183
3 179 183 184
3 179 184 185
3 179 185 180
3 181 186 187
3 182 181 187
3 182 187 188
3 183 182 188
3 107 109 189
3 184 109 185
3 185 109 145
3 180 185 190
3 181 150 186
3 186 150 151
3 186 151 93
3 186 93 187
3 187 93 191
3 192 193 194
3 193 195 196
3 194 193 196
3 196 195 197
3 196 197 198
3 196 198 140
3 196 140 194
3 194 140 136
3 194 136 192
3 192 136 137
3 192 137 114
3 192 114 115
3 192 115 193
3 193 115 195
3 195 115 116
3 195 116 197
3 197 116 119
3 197 119 198
3 58 127 53
3 53 127 126
3 59 154 199
3 154 59 57
3 200 125 201
3 59 202 58
3 58 202 127
3 203 129 204
3 200 128 125
3 125 128 130
3 129 203 131
3 131 203 154
3 126 156 205
3 206 207 208
3 157 130 129
3 125 130 156
3 159 141 140
3 136 141 158
3 208 157 206
3 142 209 159
3 209 157 159
3 157 132 159
3 210 211 132
3 156 130 208
3 212 206 157
3 130 157 208
3 156 208 207
3 207 206 142
3 209 212 157
3 142 206 212
3 212 209 142
3 158 210 213
3 213 210 214
3 159 132 211
3 210 141 211
3 210 158 141
3 211 141 159
3 95 215 94
3 94 215 216
3 217 216 96
3 96 216 215
3 150 218 149
3 149 218 148
3 172 219 168
3 168 219 95
3 96 220 101
3 101 220 172
3 172 220 219
3 220 215 219
3 220 96 215
3 219 215 95
3 188 221 183
3 148 190 145
3 145 190 185
3 180 190 222
3 190 218 222
3 190 148 218
3 222 218 150
3 180 222 181
3 222 150 181
3 94 191 93
3 187 191 188
3 188 191 221
3 191 216 221
3 191 94 216
3 221 216 217
3 107 98 97
3 96 98 217
3 124 223 119
3 119 223 198
3 207 205 156
3 126 205 124
3 131 214 132
3 132 214 210
3 133 155 57
3 154 155 131
3 213 135 158
3 158 135 134
3 207 143 205
3 143 223 205
3 143 198 223
3 205 223 124
3 133 135 155
3 135 214 155
3 135 213 214
3 155 214 131
3 178 71 78
3 78 71 70
3 68 71 177
3 71 224 177
3 71 178 224
3 177 224 147
3 68 177 67
3 67 177 146
3 147 224 149
3 224 178 149
3 183 225 189
3 225 98 189
3 225 217 98
3 189 98 107
3 183 189 184
3 184 189 109
3 202 201 127
3 127 201 125
3 200 204 128
3 128 204 129
3 202 199 201
3 199 204 201
3 199 203 204
3 201 204 200
3 203 199 154
3 59 199 202
3 198 143 140
3 143 207 142
3 217 225 221
3 221 225 183

CELL_TYPES 448
5
5
5
5
5
5
5
5
5
5
5
5
5
5
5
5
5
5
5
5
5
5
5
5
5
5
5
5
5
5
5
5
5
5
5
5
5
5
5
5
5
5
5
5
5
5
5
5
5
5
5
5
5
5
5
5
5
5
5
5
5
5
5
5
5
5
5
5
5
5
5
5
5
5
5
5
5
5
5
5
5
5
5
5
5
5
5
5
5
5
5
5
5
5
5
5
5
5
5
5
5
5
5
5
5
5
5
5
5
5
5
5
5
5
5
5
5
5
5
5
5
5
5
5
5
5
5
5
5
5
5
5
5
5
5
5
5
5
5
5
5
5
5
5
5
5
5
5
5
5
5
5
5
5
5
5
5
5
5
5
5
5
5
5
5
5
5
5
5
5
5
5
5
5
5
5
5
5
5
5
5
5
5
5
5
5
5
5
5
5
5
5
5
5
5
5
5
5
5
5
5
5
5
5
5
5
5
5
5
5
5
5
5
5
5
5
5
5
5
5
5
5
5
5
5
5
5
5
5
5
5
5
5
5
5
5
5
5
5
5
5
5
5
5
5
5
5
5
5
5
5
5
5
5
5
5
5
5
5
5
5
5
5
5
5
5
5
5
5
5
5
5
5
5
5
5
5
5
5
5
5
5
5
5
5
5
5
5
5
5
5
5
5
5
5
5
5
5
5
5
5
5
5
5
5
5
5
5
5
5
5
5
5
5
5
5
5
5
5
5
5
5
5
5
5
5
5
5
5
5
5
5
5
5
5
5
5
5
5
5
5
5
5
5
5
5
5
5
5
5
5
5
5
5
5
5
5
5
5
5
5
5
5
5
5
5
5
5
5
5
5
5
5
5
5
5
5
5
5
5
5
5
5
5
5
5
5
5
5
5
5
5
5
5
5
5
5
5
5
5
5
5
5
5
5
5
5
5
5
5
5
5
5
5
5
5
5
5
5
5
5
5
5
5
5
5
5
5
5
5
5
5
5
5
5
5
5
5
5
5
5
5
5
5
5
5
5
5

CELL_DATA 448
SCALARS cell_data_0 double
LOOKUP_TABLE default
1.6238239572e-08
6.31910223411e-07
1.35361444037e-06
1.59720531562e-08
4.55195773634e-06
4.57394317096e-06
8.18461038708e-06
9.75177702671e-07
7.8693928423e-07
2.62279978681e-06
1.85817683565e-06
6.63017941184e-07
6.70943962316e-07
7.63636976093e-07
8.07799444446e-07
7.69382896157e-07
4.9727179074e-07
2.7993161869e-08
3.23418959743e-07
2.57766019742e-06
4.82146911989e-08
1.0117241905e-06
2.98960447386e-06
1.10381275324e-06
6.14570106667e-06
1.86873638438e-05
4.80621805531e-06
5.67645714295e-07
1.12560514708e-06
1.41878240511e-06
2.89980119479e-06
4.50003453295e-06
6.71303271116e-07
1.16408537166e-06
3.00452664967e-07
1.08721055367e-06
2.77420105899e-06
4.11077190615e-07
3.64264059023e-06
1.31777724199e-06
2.29257460813e-06
3.70548267614e-07
2.00867724708e-06
1.27036159268e-08
3.40474211476e-06
3.09764738168e-06
1.46271756758e-06
3.5891115809e-06
9.18615031959e-07
3.84863960183e-07
1.37058431376e-05
1.09916702135e-05
9.64227444968e-07
2.67741736951e-06
3.23824068286e-06
1.88687299758e-06
3.17563991889e-06
8.18428807155e-06
5.24751626534e-06
3.4296764522e-07
3.64763765376e-06
2.08335698203e-06
3.38040008132e-08
1.03190770723e-06
5.89422109562e-07
1.2736686952e-06
1.89055258733e-06
6.02416127358e-07
1.17753085638e-07
7.18614608494e-07
8.80739140938e-07
1.22621172073e-06
1.92991913125e-07
6.2353151838e-07
4.64420070483e-07
2.37918806461e-06
6.98565786604e-07
2.93998262678e-06
9.84750079087e-06
3.91149258468e-05
2.780196852e-06
4.37636583467e-08
1.94412753229e-05
1.56565501945e-05
6.70216548691e-06
2.81341783836e-06
1.38989057596e-05
7.36605291907e-06
1.39489538308e-05
2.01764145414e-06
8.79772105808e-06
1.32178111644e-06
4.54473334337e-06
1.44857767712e-06
2.34489049923e-06
5.06565352693e-07
1.97213034402e-06
1.04108620987e-05
3.4392471788e-06
1.41822562096e-06
1.03089336898e-06
3.06080519439e-06
4.44273056157e-06
7.64954650812e-06
4.17046188744e-06
9.80443500877e-07
4.37321180245e-07
1.71533908452e-06
3.29839878681e-06
2.08472052954e-06
3.8772277511e-06
3.32046643534e-06
2.00877528836e-06
7.0034370218e-06
1.03521758161e-06
2.76136531773e-06
1.624562724e-05
9.43920753394e-06
5.61180468554e-06
1.85140984374e-06
6.15372233738e-06
5.32956202445e-06
1.31241229959e-05
4.82047382026e-07
2.75939843057e-05
2.27251358351e-05
4.94197246158e-06
9.27178469085e-06
2.22845031064e-06
1.44031156027e-05
1.08578664417e-05
4.88460806056e-06
4.24177924938e-06
1.25273765229e-05
2.06468448629e-06
1.91396935261e-07
2.46609324689e-06
3.82809391955e-06
3.39020154662e-07
1.71911026722e-06
1.00491770331e-05
2.2028665275e-06
4.08849064526e-06
1.04611920557e-05
1.95705644581e-06
4.37999680117e-07
3.13638753937e-06
8.94948948812e-06
2.22827366719e-05
3.70963408315e-06
8.37526857038e-06
1.616310501e-06
1.72186189157e-06
5.19047701025e-07
2.63663256501e-06
3.56538972811e-06
4.64495641108e-06
8.09738691954e-06
6.05577725162e-06
4.23618882495e-06
2.41299302592e-06
6.54026549723e-06
4.55792849598e-06
1.13887462495e-05
1.64669623108e-06
1.31445987862e-06
1.15789963489e-06
9.32137667012e-07
7.90518074517e-06
5.06139904462e-06
6.55806503293e-06
7.63948669528e-07
3.45628351297e-07
4.16571381608e-06
6.81278591997e-06
9.52732337187e-07
1.59860537432e-06
8.41280025019e-05
7.4867225873e-05
3.1800138101e-05
1.30227626877e-06
6.6137412586e-05
2.54980367057e-05
3.52840290297e-06
8.03830352576e-07
2.86975942391e-06
3.77728792671e-07
5.37232097506e-08
1.23774676776e-06
4.71780491323e-07
4.39021067896e-07
6.46362436339e-07
3.83820758242e-07
3.20671743388e-06
1.38263265704e-06
7.64529560273e-06
1.2978522545e-06
5.14479497621e-07
5.18377404709e-06
7.32639449906e-06
4.49477526113e-07
2.11723753864e-06
2.69983947483e-06
8.13613206229e-08
2.71422017995e-07
2.54235104427e-05
2.33722417878e-06
3.24442238019e-07
2.44937971807e-06
1.36100239414e-06
8.61814200936e-09
7.99562173415e-06
5.85984836915e-06
9.85164751789e-08
2.23882047216e-06
2.46206871062e-06
1.27808350394e-06
1.96810745076e-06
1.95206219724e-06
7.12050182521e-08
8.67998326543e-07
1.04774777628e-06
7.09195007814e-07
3.8345067425e-06
3.77694637022e-06
2.17273411261e-06
6.40327837927e-08
2.42994753586e-07
5.60962550528e-07
3.59187010356e-07
3.8895010624e-07
7.28243718832e-07
5.06105848888e-06
2.28135779979e-08
2.77381825954e-07
4.23006661807e-07
2.01788016161e-06
3.33921696041e-07
3.02060856674e-06
8.68878928979e-06
1.39016580381e-05
2.59765383923e-06
2.41828859814e-06
2.34314068433e-05
1.62986245915e-05
7.4633420421e-06
1.04846298326e-05
4.8423420346e-07
7.03687808818e-06
1.0490014231e-05
1.95558959619e-06
4.97047915257e-05
3.48861642288e-05
2.78230770719e-05
4.0901904531e-08
2.56927346486e-05
8.6562117456e-06
5.88583030265e-07
7.21502357649e-06
1.43961162187e-05
2.02710235182e-06
7.13819330938e-06
1.58285431906e-06
3.41824561996e-06
1.68310172783e-06
7.03799640287e-06
4.36995514878e-07
1.66937844598e-06
7.49683384418e-07
7.62731911946e-06
1.90104614294e-06
7.25008402415e-06
9.41251165506e-07
3.66575358419e-06
7.64381643339e-06
2.8634458771e-05
3.57653005421e-06
1.45653859227e-05
1.11039017861e-06
1.99388793287e-06
4.97700205981e-06
2.10676046406e-06
2.66470514392e-05
3.00189449966e-06
1.98238431982e-06
4.81107075641e-06
8.02589330365e-07
3.30995912041e-06
3.32886355103e-05
2.24693838151e-08
3.30157405188e-06
8.01068324232e-08
8.82424212891e-07
4.59132753869e-07
2.86351532182e-06
3.4472105109e-06
1.92295814099e-06
4.2956887484e-06
7.93149524304e-06
1.12768450293e-05
3.33523815884e-06
2.21558331415e-06
5.08998672492e-07
4.34498109076e-06
8.9417356164e-06
7.66742632501e-06
6.15399601824e-06
7.04225673522e-06
5.90317890166e-06
1.78346030669e-05
8.55045872226e-06
6.84839283841e-06
6.18268195064e-06
6.37399742397e-06
3.03528056882e-06
4.95525504629e-07
2.5428809059e-06
3.58595291947e-06
7.14834850369e-06
1.40592226938e-05
3.00069228158e-06
1.47749658488e-05
3.96808244016e-06
5.08095580005e-06
1.54747145231e-06
7.79003435445e-06
4.23660168053e-07
2.04087806851e-06
8.4468302608e-07
4.60481622541e-06
1.04940040554e-05
2.58885788674e-07
1.22539254681e-05
4.16873514542e-05
6.07969422568e-06
1.95740818918e-05
1.72983976981e-06
1.29951298236e-05
2.04527249708e-05
2.37740442536e-05
1.39391449711e-05
1.11523693345e-05
1.96099046458e-05
3.99366813633e-06
7.55065517027e-05
2.36073186984e-05
3.26846028679e-06
1.08220591893e-05
3.24503671484e-05
1.66799658786e-05
1.72056168064e-05
1.03838981815e-05
1.37921516804e-05
3.89305142892e-06
1.44240835433e-05
1.48250005764e-05
3.76185363672e-07
2.06588707623e-05
1.06482399933e-05
3.01021631507e-05
2.26246621524e-06
1.99223256478e-05
1.86731581753e-06
1.72044897854e-05
1.53571371173e-05
2.04778936527e-05
1.65630962144e-05
1.47964828061e-05
1.20225179648e-05
4.21621124361e-07
1.30176392225e-05
1.24800612699e-05
1.21491141886e-05
1.36067090103e-05
6.93681070613e-06
1.12158368544e-05
1.47665225728e-06
7.92031171333e-06
2.24901808635e-05
3.09372269511e-06
6.46394954277e-06
1.76507610631e-05
4.97634420171e-06
2.26131951624e-05
8.62324508268e-06
8.74311468099e-06
4.3507110035e-06
6.56461963488e-06
8.28651258416e-06
3.67025941148e-06
2.29550184798e-06
9.36156544929e-06
4.13474523536e-06
4.23149193331e-06
4.52164141111e-06
7.53955698247e-06
2.07289233237e-05
1.17521363247e-05
6.54764233234e-06
1.72865596963e-05
9.89481973845e-06
1.10734703605e-05
1.79551813704e-05
6.36032547012e-06
5.60612329278e-06
5.11489442545e-05
2.13595355138e-05
2.22284623052e-06
1.93126459532e-05
4.04274835723e-05
4.13905723785e-05
1.17445270033e-05
5.33145287006e-06
1.0061834531e-05
1.97295064887e-05
4.68964036033e-06
2.32716223678e-05
8.69366784738e-06
1.11687380371e-05
8.51091320049e-06
4.63080571233e-06
2.86983534714e-06
2.13365970372e-06
1.67381805285e-06
1.12305405827e-05
1.53413985697e-05
4.86329714445e-06
6.36430744471e-06
1.40499211915e-06
1.09119478258e-06
1.09468935522e-05
3.45253299839e-06
5.15533596569e-06
5.06739196111e-06
1.01473316059e-05
4.39478859804e-05
7.80477861666e-06
8.71070233563e-06
1.31406994407e-05
2.22130748765e-05
1.86782439638e-05
1.07091591295e-05
1.09875445518e-05
6.95975156565e-07
8.10174677081e-06
4.87771952873e-05
1.00169141032e-06
4.22011499354e-06

