# vtk DataFile Version 3.0
File Name: Molecule/arg/arg_2.0-5.vtk
ASCII
DATASET UNSTRUCTURED_GRID
FIELD FieldData 1
TIME 1 1 double
0.0
POINTS 376 double
-2.9617307186 -0.40376409888 1.8307598829
-3.3802039623 0.27618646622 1.5837761164
-2.9778707027 -0.64734363556 1.0294026136
-3.3853225708 0.020943138748 0.78054022789
-2.857601881 -0.12355221808 0.19141758978
-2.5017845631 -0.45511358976 0.14744219184
-2.6200020313 0.055782217532 -0.44519299269
-2.2219581604 -0.44273138046 -0.89626961946
-2.2750155926 -0.34838572145 -0.48162508011
-2.4292440414 -0.14806430042 -0.99822187424
-2.798815012 0.69462281466 -0.82591414452
-3.2537691593 0.89624243975 -0.37228244543
-3.0250346661 0.11296111345 0.063166961074
-2.6210999489 0.4543556869 -1.5055946112
-2.4413022995 1.3694800138 -0.89044618607
-2.8228850365 1.7216824293 -0.44270455837
-2.2385320663 1.1781644821 -1.5715622902
-2.4491832256 2.0000183582 -0.40681439638
-1.8372354507 1.7488204241 -1.1215314865
-1.5202797651 3.1598052979 0.26756098866
-1.7513456345 2.5005702972 -0.61820590496
-2.4803876877 2.6606762409 0.64510887861
-3.1529247761 2.3275969028 1.5271635056
-1.894525528 3.3089270592 1.4924311638
-2.5393989086 2.9658563137 2.2974126339
-2.7303285599 2.5332763195 2.3693025112
-2.9916369915 2.0157542229 2.5801212788
-3.4283258915 1.7811371088 1.7649905682
-3.4089019299 0.59133464098 1.8201935291
-3.1218028069 1.7672361135 2.986515522
-3.1088955402 0.61930966377 3.0053982735
-3.0829429626 0.065269306302 1.884781003
-3.1055319309 0.35062927008 2.0866603851
-2.8741941452 0.21347618103 2.5063114166
-2.9418327808 0.33202090859 3.1129097939
-2.8568170071 -0.20375584066 2.181303978
-2.5012485981 -0.23426003754 2.8283698559
-2.2373220921 -1.4818031788 1.9314105511
-1.7470638752 -1.9409884214 2.7722616196
-2.1748967171 -0.89820843935 2.751814127
-1.0040537119 -2.2499959469 2.0714232922
-1.5813218355 -1.7278105021 1.2744239569
-2.1911787987 -1.4585188627 0.76111006737
-1.0286748409 -2.1044175625 0.41581085324
-1.6874706745 -1.7892459631 -0.09583299607
-2.3195345402 -0.98973721266 0.24993017316
-1.9804444313 -1.1083642244 -0.52421337366
-2.0493700504 -0.7798704505 -0.81152409315
-1.8827513456 -1.3220751286 -1.0587439537
-2.096414566 -0.69431197643 -1.057336688
-1.8669276237 -0.74612665176 -1.8941694498
-2.3133113384 -0.42138022184 -1.3959466219
-1.662728548 -1.3475096226 -1.77391541
-2.1429214478 -0.46549478173 -1.9095232487
-1.9491257668 0.19755589962 -2.4555366039
-1.5719149113 0.14662697911 -2.6810221672
-1.7263567448 1.2402697802 -2.2287695408
-1.3418762684 1.4728770256 -2.7092001438
-2.0457131863 1.0134443045 -2.1389160156
-1.8485170603 1.526026845 -1.640634656
-1.4737869501 1.8134570122 -1.7602593899
-1.0843291283 2.0483846664 -2.2516834736
-1.2394778728 2.4711573124 -1.313331008
-0.52288556099 2.5489413738 -2.3291099072
-0.66769605875 2.9808733463 -1.3571521044
-0.09025914222 2.9759712219 -2.1393315792
0.32238283753 2.9954059124 -1.8247592449
0.45843279362 3.151494503 -0.89505672455
-0.066240869462 3.3264014721 -2.9584331512
0.59603023529 3.3035767078 -2.608435154
1.0581482649 2.5642917156 -0.34939348698
0.79800868034 2.6834900379 -1.680858016
1.5465539694 2.0229072571 -1.2095278502
0.854185462 2.8136849403 0.48580789566
1.5408904552 1.9151725769 0.024202171713
1.2409164906 2.183986187 1.0546091795
0.40885895491 3.0910079479 0.87395215034
0.7277969718 2.5281510353 1.2146326303
0.48187014461 2.6833639145 1.6869592667
1.0935511589 2.4445796013 2.0530486107
0.72570747137 2.712857008 2.3109326363
-0.19911152124 3.4728834629 0.80530506372
-0.035547450185 3.1991722584 1.9166332483
-0.52811515331 3.6689169407 1.8598521948
-1.2353900671 3.6121664047 1.4607720375
-0.91067063808 3.5408098698 0.33340013027
-0.15716123581 3.4277060032 2.9610159397
0.55466878414 2.9133872986 3.2548816204
-0.65079009533 3.1866464615 3.6549282074
0.10856553912 2.5771124363 4.0938568115
-1.2869701385 3.1871659756 3.7516007423
-0.66502916813 2.6951980591 4.0125660896
-1.4548120499 2.7852985859 3.9881534576
-2.042276144 2.8949317932 3.6016948223
-1.9557038546 3.149091959 3.5091559887
-2.3386957645 3.1580803394 3.0545148849
-2.5225479603 2.7970285416 2.9832680225
-0.5962511301 1.6878522635 4.5586042404
-1.0341962576 1.9850690365 4.434401989
-1.9824970961 2.0241475105 4.4663100243
-1.4497481585 1.6233433485 4.5996460915
-1.4841376543 2.3382658958 4.2872681618
-2.463932991 2.2134103775 4.101588726
-2.1540365219 2.6029498577 3.784371376
-2.8578765392 2.1736097336 3.4545807838
-2.7162640095 2.464607954 3.1007907391
-1.1053330898 1.0694942474 4.6089901924
-0.27496957779 1.0807288885 4.7747592926
-0.69372653961 0.2458562851 4.7317142487
-1.5462282896 0.56114119291 4.5828647614
-0.89814758301 -0.37941217422 4.7734794617
-1.7404822111 -0.57375311852 4.2353982925
-2.3410534859 0.23612557352 4.2407302856
-0.021912327036 -0.32837000489 5.1250071526
-0.43223792315 -0.73240959644 5.0446686745
0.17845572531 -1.1749795675 5.089782238
0.52661651373 -0.5501204133 5.1917157173
1.0737570524 -0.80235242844 5.2655639648
1.2146934271 -1.5513551235 4.9263105392
0.48924934864 -1.8771731853 4.8191552162
0.80604714155 -2.2678027153 4.3761229515
1.6646845341 -2.0068717003 4.3946247101
1.1409026384 -2.3910076618 3.625844717
1.9026688337 -2.1257343292 3.7782022953
1.8196804523 -1.995580554 2.9586865902
1.111279726 -2.3392412663 2.8075215816
1.0263748169 -1.8515427113 2.1306767464
1.9152344465 -1.4787875414 2.3033864498
0.77408158779 -1.6625850201 1.2489038706
0.13879755139 -2.1473674774 1.21666646
0.018569864333 -2.5082557201 2.0826382637
1.0452939272 -1.8251005411 0.34595146775
0.042428553104 -2.475839138 0.34058076143
-0.77299040556 -1.9856697321 1.2143653631
1.4679704905 -1.0985965729 0.029671493918
1.0761461258 -1.3337210417 0.97286552191
1.3539533615 -0.84868663549 0.82398951054
1.3702304363 -1.2312855721 1.7319264412
1.6618453264 -0.76977735758 1.5758419037
2.3387713432 -0.73477232456 2.0016667843
1.6582057476 -0.65601992607 -0.54565012455
1.6874630451 -0.15272045135 0.64811962843
1.8459587097 0.22659763694 0.088103018701
1.6699715853 -1.4017854929 -1.0156458616
2.0628771782 -0.23110571504 -1.3439610004
2.202586174 -0.84755152464 -1.8551356792
1.370287776 -1.755058527 -1.7110456228
1.7418855429 -1.3576337099 -2.2797014713
0.89182543755 -1.9208672047 -2.1313362122
1.4340735674 -1.4255162477 -2.8863899708
0.61658012867 -1.3705054522 -3.0524048805
0.12126511335 -1.891287446 -2.4619202614
-0.39040756226 -1.2756024599 -2.6771633625
0.13137274981 -0.80944335461 -3.4037919044
-0.34334003925 -0.59743922949 -3.18907547
-1.148883462 -0.72215634584 -2.5828225613
-0.77598941326 -0.31454801559 -3.1370327473
-0.98700201511 -1.3593659401 -2.3796787262
-1.1576907635 0.41869482398 -3.1903190613
-0.2950091362 0.0037737395614 -3.7615392208
0.2214063108 -0.25221765041 -3.9622921944
0.24533994496 0.54103475809 -4.1005282402
0.83796608448 3.3553099632 -2.7984874249
1.2524671555 2.8962817192 -2.7117118835
1.1261620522 2.6358971596 -2.0395526886
2.0352184772 1.1057975292 -1.2986111641
2.3419368267 0.58912503719 -1.5688376427
2.1999621391 1.4668432474 -2.0211052895
1.8644168377 0.76754808426 -0.73360049725
1.9723557234 0.93389177322 0.04041281715
1.8068345785 0.12675516307 -0.80855590105
1.3017046452 1.5082662106 -4.1184959412
1.1090728045 1.8825494051 -4.1565380096
1.8124592304 1.6207948923 -3.6052913666
2.0722444057 0.65628552437 0.81839454174
1.8567545414 -0.26936239004 1.447520256
2.1803874969 0.3758572042 1.6056513786
2.7309083939 0.12572140992 2.15370965
1.8936089277 1.4303926229 1.2399587631
2.040828228 1.0104503632 1.9552445412
2.5415039062 0.9595913887 2.5947849751
1.8686716557 1.5460454226 2.3137285709
1.547196269 2.0616686344 2.0982556343
2.0472211838 1.6740443707 3.144169569
2.5758876801 1.3087619543 3.342877388
2.2179045677 1.4849842787 3.9202756882
1.5668702126 2.0376832485 3.8503506184
1.3528295755 1.6919603348 4.404176712
1.9401044846 1.2183258533 4.672188282
1.3238366842 0.81090205908 5.0652518272
0.6650814414 1.4129657745 4.7772722244
0.60494595766 0.83715170622 4.9855294228
-0.057100396603 0.40066942573 5.0389800072
1.178511858 0.010338673368 5.3568110466
0.57710397243 0.13970404863 5.2220520973
-2.5034489632 -0.034575957805 3.4123706818
1.574765563 2.5109484196 -3.3536462784
0.92291760445 2.2532446384 -4.0032801628
0.91235953569 3.0849626064 -3.6827805042
-3.7267787457 1.9512190819 0.8569342494
-3.2780921459 2.2588028908 0.23097778857
-3.7194378376 1.5611755848 0.16200406849
-3.7239508629 0.7834738493 0.18327842653
-3.7305910587 0.42545840144 0.85797119141
-3.9388408661 1.184180975 0.87121355534
-2.7645699978 -1.133338809 1.4706496
-2.5406513214 -0.69428175688 2.3632895947
-2.443785429 0.028332563117 -2.028305769
0.46099042892 3.4528951645 -0.045357894152
-0.28808286786 3.6919133663 -0.29256105423
-1.2210291624 3.2949464321 -0.67151898146
-0.50216817856 3.8236403465 2.502011776
-1.1119281054 4.0115065575 2.4687130451
-1.1116195917 3.7846753597 3.2505910397
-1.8807415962 3.8300924301 2.4757409096
-1.8846160173 3.5750362873 3.2323286533
-2.3407270908 3.4003243446 2.498994112
-1.9709377289 1.2822722197 4.7376685143
-2.5783948898 1.6379003525 4.4804797173
-2.5889971256 0.86258274317 4.4999866486
-3.052918911 1.5967173576 4.0112447739
-3.1354105473 0.87961775064 3.8796856403
0.45108342171 -2.7118039131 3.998472929
-0.16041606665 -2.4460413456 4.5786738396
-0.18838201463 -2.8630030155 3.9188995361
0.46306246519 -2.8566739559 3.2296392918
-0.19921174645 -2.9712765217 3.2851188183
-0.15413592756 -2.8611626625 2.6735973358
0.58219593763 -2.6464791298 2.5849194527
-0.18503719568 -1.9169530869 4.9504594803
-0.80352509022 -1.5001716614 4.9755239487
-0.80380517244 -2.2228019238 4.6331996918
-0.94617986679 -2.6427209377 4.0066132545
-0.94644641876 -2.8019227982 3.3737995625
-0.79889327288 -2.7165982723 2.6107373238
-1.4829239845 -1.3515506983 4.5681753159
-1.4549582005 -1.9842883348 4.2954435349
-1.4781662226 -2.3871643543 3.6218733788
-1.4458492994 -2.4141557217 2.972599268
-1.8402048349 -1.533981204 3.950296402
[...]
CELL_DATA 748
SCALARS cell_data_0 double
LOOKUP_TABLE default
2.35823231989e-08
3.78793827261e-09
1.19663518156e-07
2.31141534732e-08
3.68309679511e-08
6.94477461687e-08
7.10351718806e-10
1.5970821824e-07
2.9175050832e-08
2.43979187184e-07
1.95783167711e-09
1.29749842372e-07
3.96406269132e-08
3.54777626827e-07
8.09844113948e-08
7.66967880386e-08
6.24823334217e-08
1.88118967974e-07
8.48426216377e-08
4.47145609956e-09
4.838373351e-08
2.11785552096e-08
5.04969251921e-08
1.06460397642e-07
3.03251498502e-08
1.51403314045e-08
4.58801191066e-08
3.27340107075e-08
3.14133350689e-08
2.67760407021e-08
5.93020584082e-08
1.38218317477e-06
1.64839449602e-07
3.33661931032e-07
9.26202659916e-08
1.12841360636e-07
2.3423505395e-07
8.39177077721e-08
2.29181121881e-07
6.69384924787e-08
4.31052991993e-08
5.35661387255e-08
6.53355950544e-08
6.30590802952e-08
2.18567443149e-07
2.04676887251e-07
1.35457243432e-07
1.15978248926e-07
1.56358999493e-07
4.00086650013e-07
2.34496684741e-07
1.07965281948e-07
3.6439576752e-07
1.67664219473e-07
8.27707339158e-08
2.42467959374e-07
2.24668698935e-07
2.50638660275e-07
2.67966155222e-07
4.2190598353e-07
1.45547922069e-06
3.53172491656e-07
2.12843232394e-07
1.13079318034e-07
1.83241608863e-07
7.63402127564e-09
1.26692845547e-08
5.55791899375e-08
1.43135415281e-08
5.2013926189e-08
1.4506986837e-08
5.87442714408e-08
3.30114050795e-09
6.8635478355e-08
7.08386499663e-08
1.87619904362e-08
1.39152253617e-07
3.62641280404e-07
5.41503914798e-08
6.87706348208e-07
2.34125892155e-08
1.65861129465e-08
3.01655154153e-09
1.94022249598e-09
2.15148793025e-09
4.85293402748e-09
3.67545251925e-08
1.15668674144e-08
3.88930220742e-08
8.74152910985e-09
1.10919340585e-08
1.1083593062e-08
7.11620866673e-09
2.74224400003e-08
1.14838541978e-08
1.96781930174e-08
3.22223129351e-08
2.68908186548e-08
7.03495999365e-08
6.64229768703e-08
5.94296984893e-09
5.81682777122e-09
9.52371246728e-09
1.15414099415e-07
2.29826261536e-08
1.01662046747e-08
2.55675393237e-08
3.0512442463e-09
1.5830189959e-07
1.9887118558e-08
5.82149251238e-08
1.07760602686e-06
1.44875883896e-06
1.08299487434e-06
1.96273728898e-06
2.39229794163e-07
2.03738164339e-07
1.11636944442e-07
2.97246504534e-07
6.90939882736e-07
8.54274443769e-07
4.0200035645e-08
1.37587233824e-07
1.29884451044e-07
3.48094141837e-08
6.39488047408e-07
5.77683931442e-07
4.67091424046e-07
1.25406476145e-07
7.18650914559e-08
8.49663113986e-08
2.6941423444e-08
1.24444514684e-08
4.30830486144e-08
2.30386486975e-07
1.08429798235e-06
1.37759214966e-07
1.86053076113e-07
2.51756679722e-07
7.5612432778e-07
3.27914438268e-07
1.65718215868e-07
6.65350784783e-07
2.54823345288e-07
2.05851641925e-07
6.53436609767e-08
1.55790276451e-07
4.45184067816e-08
2.89693853503e-08
3.01825075768e-07
1.37855886696e-07
2.71832486187e-07
5.04195614165e-07
5.5756275792e-08
9.95960169818e-07
1.05508513694e-07
7.64109304202e-07
2.9112326699e-07
1.27981120494e-07
1.31017523301e-07
4.9097374164e-07
3.5537831623e-07
1.40059018469e-06
1.19408081548e-07
2.01720941759e-08
1.36742782817e-07
6.17781870777e-08
4.09265082127e-08
1.42194158534e-07
1.17123544178e-07
2.96619902027e-07
2.76080061788e-07
6.80827135398e-08
7.19392844306e-07
1.524008243e-06
9.25360891922e-08
1.4691903268e-06
1.65767466944e-07
2.57149689554e-07
6.10003928769e-08
1.32757375264e-08
1.02683945727e-07
2.59583613607e-08
4.91582539152e-08
5.06096329006e-08
3.7835603642e-08
3.5249346626e-08
7.21245378288e-08
2.61655959695e-08
8.7176107359e-08
7.08484152501e-08
3.7370027561e-08
1.23107224127e-07
1.00691067582e-07
5.5932113492e-08
1.62069915577e-07
6.92687326478e-08
3.91376788006e-08
8.88336740655e-08
1.40965021846e-07
6.43248768703e-08
1.24327902801e-07
5.4905687861e-08
8.03767566853e-08
4.98150325194e-07
2.18435838359e-06
6.66928995207e-07
8.35045711109e-07
8.13559173779e-07
5.56218846759e-07
1.50170119751e-07
5.4076972728e-10
1.23249234214e-07
1.18485606956e-08
5.31385809654e-09
9.81128145462e-09
6.04517195368e-08
2.98531368783e-08
1.90488952428e-08
1.60142919783e-09
9.49728295737e-09
2.61018492749e-07
1.27805450288e-07
9.6872818617e-08
5.97678264204e-08
1.53210548021e-07
5.5844590299e-08
1.25757248095e-07
4.86990040619e-07
1.35350554879e-07
6.98676839902e-08
1.86046843226e-06
3.67059369445e-08
2.00883237723e-07
1.8917722502e-07
3.26704142324e-07
1.60689581129e-08
1.86663178615e-08
1.82099476831e-08
1.49867931608e-09
1.65097084622e-08
2.63016896114e-08
6.11021354722e-08
1.70930473351e-08
2.75510742237e-08
3.34787289989e-08
3.99107695364e-08
1.66832835248e-07
7.98736696934e-08
1.07103952764e-08
1.91985807484e-08
2.61212174651e-08
8.80180993863e-08
1.5643816042e-08
2.99178243317e-08
2.11784585261e-08
9.1494977763e-09
3.87111490024e-08
4.38591894468e-08
8.57266608486e-08
3.27527793538e-09
4.97500587479e-08
1.74697809245e-07
8.81186746582e-09
1.08001203412e-07
1.99089731248e-07
1.50744848456e-07
4.51066655493e-08
7.21853448669e-08
3.33613619316e-07
2.90491258164e-07
4.05306498915e-08
2.90590744697e-07
3.18568913338e-08
1.41630072662e-07
1.31191573937e-07
1.28359719089e-07
1.50223098648e-07
4.66036922698e-08
2.75292100916e-08
4.89878196398e-08
5.78681631486e-08
4.76810433596e-08
1.54260769693e-07
1.01077913355e-07
1.3302400899e-07
6.12745064427e-07
2.14490476206e-07
2.35923063601e-07
5.54732289927e-08
8.50580571244e-08
1.0910863322e-07
3.85390751248e-08
3.79940577534e-09
1.45211698907e-08
1.61567279946e-08
1.47253655486e-08
1.15505006626e-08
5.35538564903e-09
1.53049485586e-08
1.11750340306e-08
1.09534924441e-07
2.80091184415e-08
7.5288584619e-08
2.80010961035e-08
5.04912809653e-08
5.94790643366e-08
2.74378024228e-09
2.94714819446e-08
2.12362116773e-08
5.05020312032e-08
2.537130014e-08
1.8024785205e-08
2.98676758657e-09
1.03458288112e-08
6.87600532363e-10
1.37307068037e-08
1.27459115158e-08
2.59372290187e-08
5.8985061552e-08
1.05609573366e-08
1.06251747204e-08
1.89750770068e-08
6.47352424503e-08
8.41970307137e-09
7.89433789713e-09
2.27583432484e-08
9.09247913562e-09
1.27999044801e-09
4.43115132946e-09
2.76562180343e-09
8.78770293234e-09
7.50743454826e-09
2.16805287438e-08
4.65641555582e-08
9.32700972267e-08
1.14992149603e-07
7.4305798608e-08
3.0266784041e-08
1.54903356804e-08
2.46823245248e-06
1.80238943462e-06
2.51077475692e-07
1.15105032495e-06
9.93395291473e-07
4.96715576972e-08
2.77032476986e-07
2.75208344074e-07
7.21894752619e-07
1.39378821114e-06
9.95473296413e-07
3.09270019679e-07
1.86893406653e-07
3.35636339681e-08
3.70217328318e-08
8.9133736665e-08
4.29333371599e-08
4.74421767996e-08
9.42336360238e-09
7.7669666819e-10
3.3125744055e-08
4.06567976887e-08
4.33643086712e-07
9.73786250493e-08
1.4011360328e-07
1.17118543554e-07
2.28414043948e-07
1.07891109967e-07
2.40562970181e-07
9.56763173155e-09
3.25886163989e-08
2.52692163436e-07
2.8397625437e-07
2.30874642175e-06
1.01784899545e-07
2.45855809222e-06
7.81250333487e-07
1.65836179397e-07
6.04569144308e-08
3.84472456928e-08
4.766568777e-08
4.51418099379e-08
1.90865128325e-07
1.62916350613e-07
2.72687871322e-07
1.49312374422e-06
1.14937731225e-08
4.58018461131e-08
3.96300502412e-08
1.65887769464e-07
2.29921693981e-09
2.67666181737e-08
2.33551184303e-09
3.00387976747e-09
2.29582692715e-08
4.67253797462e-08
2.245116773e-08
2.57123949829e-09
5.29462846644e-09
1.22309010155e-08
3.80418653216e-08
6.59917750553e-08
2.3716305034e-08
3.96640040249e-08
1.06716713392e-08
6.03460771951e-08
1.3163327928e-07
1.68523025424e-07
6.20850063994e-08
7.16207037283e-08
4.71999107766e-08
4.22274364524e-09
4.94385596418e-08
1.3663772276e-07
9.81098920651e-08
5.24758683259e-07
8.33120429424e-07
2.45185445692e-07
1.88217803394e-07
1.3185661372e-07
1.37839358541e-07
1.70277798823e-07
5.25412375463e-08
2.96671679943e-08
3.90335701181e-09
8.88038641718e-08
5.94374540181e-08
2.02120392864e-08
5.88754874601e-08
2.090587452e-07
1.08712832614e-08
1.98553971403e-07
2.4234208903e-07
3.45628583772e-07
1.16431288025e-07
5.36898626414e-08
1.14418914385e-07
2.0584342457e-08
5.52172236808e-08
3.26405037665e-07
8.50348612558e-08
6.15475385082e-07
1.09945371442e-08
1.24082676344e-06
5.86417630405e-09
2.71608274087e-08
1.51182533402e-07
1.73778798977e-08
1.84908673754e-08
6.18441686547e-08
2.24313796212e-08
1.14032573639e-06
3.69036401898e-07
9.14567968529e-07
1.16372830133e-07
6.23774204348e-08
6.091191332e-07
5.54128331519e-08
6.8111497804e-08
1.06137529705e-07
4.52058003524e-08
5.81524744067e-08
1.91925822367e-07
4.50427953007e-07
3.54134164851e-08
8.87013934352e-10
3.73395489128e-08
5.04194247775e-08
3.20069427588e-08
7.35012533211e-09
2.63005116024e-08
6.32102905839e-08
3.91815610166e-08
9.05673514699e-08
4.12348761894e-07
2.54013548903e-07
7.5412593171e-08
2.38183857557e-08
5.20948525384e-08
6.0880548854e-09
1.89086776137e-07
4.99731151304e-08
5.5067669941e-08
3.17508463529e-08
1.54841309777e-07
2.24695907163e-08
2.56039999213e-07
1.097808952e-06
4.29007878287e-07
1.14091730486e-06
1.58775331937e-08
2.82371804534e-07
1.39237326122e-07
1.11223687207e-07
1.48308352906e-08
3.60871032623e-08
1.67401528014e-07
3.69083818645e-07
1.36935647028e-07
2.47046652547e-07
1.30273568028e-07
8.30535132103e-08
8.62822174014e-08
4.4817319755e-08
1.39268493577e-08
4.46256161147e-08
4.25650165322e-07
1.54126662151e-06
1.00175103547e-06
1.80528313688e-06
1.47106819229e-06
1.60526869484e-07
2.04968001998e-07
1.2675221597e-07
4.04604331458e-08
2.424879495e-09
1.60394604028e-07
7.45618841593e-08
1.29486569454e-07
5.64362879274e-07
1.70150021994e-06
6.29721711219e-07
1.28087518243e-06
1.52406272457e-06
4.431022437e-07
8.71367644901e-07
4.77683724169e-07
1.93305487748e-07
2.35094236345e-08
5.13191122652e-09
6.86188723774e-08
1.25191550006e-07
1.56331746743e-07
2.46205876211e-07
8.62615181271e-07
5.81641743176e-08
2.02712973891e-08
2.45721319843e-08
3.77302105607e-08
5.51729972326e-09
4.8954721116e-09
9.57769985329e-09
4.71516817758e-08
4.5391709031e-08
2.27115438139e-08
3.18405694987e-09
4.72291764708e-09
4.53699153057e-08
2.75358288305e-08
2.79877123694e-10
2.54062861428e-08
6.79122073851e-08
1.59008006384e-07
8.79709367661e-08
2.17413297757e-07
7.15232215733e-08
1.56721452588e-07
7.46161964403e-07
1.44647948292e-07
1.4779425087e-08
2.6231685359e-08
1.40920650578e-07
1.00806301747e-08
7.98575659236e-08
8.21967016693e-08
2.79854540628e-08
2.88160338714e-07
2.74942727976e-07
3.32885996105e-07
1.02192067373e-08
1.55163591043e-07
3.11898524719e-07
1.09217426499e-06
9.62471932144e-07
2.52132209758e-07
8.17848050103e-07
3.53548422418e-07
8.28325609431e-07
2.54418928528e-07
9.6335761109e-08
6.64833790513e-09
4.72405269753e-07
8.18721550574e-07
1.30954710476e-06
1.28148399407e-07
2.52687671571e-07
2.19764856769e-07
4.10776128583e-07
7.04948461224e-09
1.25110236682e-07
1.18032568579e-07
9.0467240958e-08
2.69802337841e-08
1.6783110876e-07
8.57473727908e-07
4.44657849401e-07
5.98497008634e-07
4.51075966094e-07
6.23059560863e-07
8.00832787754e-07
3.65387001727e-08
3.90703036401e-07
7.55214749674e-08
6.27794861354e-07
8.00038210525e-07
2.7586771502e-07
1.39399073506e-06
5.36878703358e-07
4.59831798864e-07
9.54426063944e-07
5.58413150392e-07
4.27742767364e-07
2.15376367758e-07
3.33079431708e-07
4.66918122185e-07
1.60121651677e-07
2.46857166689e-07
7.52405069753e-07
2.95327053777e-07
3.50355153926e-08
5.48963133363e-08
1.66582214647e-07
4.19412644032e-07
9.44531935194e-07
7.66016175123e-07
1.66695801311e-07
1.17267412743e-07
4.67551719686e-07
2.82736815897e-08
5.48261886198e-07
8.32528733779e-07
5.18660431166e-07
1.60932255246e-06
3.19221737851e-07
7.30633005046e-07
1.31911907437e-06
3.95059015212e-07
2.70493158068e-07
3.900115425e-07
5.88165644789e-07
6.09218662554e-08
3.59587724425e-07
2.55466380662e-07
3.35285061663e-07
4.10336426415e-07
7.25355589091e-07
2.30850785934e-07
8.99697580461e-08
6.52418159605e-08
1.99529886454e-07
1.2969685583e-07
2.28330816299e-08
7.61803311038e-09
6.34248919676e-07
3.1032514205e-08
3.96562469431e-07
1.98932473755e-07
4.08843639107e-07
7.11782620121e-07
1.87549925277e-07
1.71820277077e-07
4.15011177889e-07
6.22656822689e-07
8.56279342893e-08
7.57379357985e-07
1.85581723398e-07
1.57766145887e-07
2.58406640912e-08
3.86720196829e-08
5.7661026463e-08
6.38059057364e-07
1.1524757131e-07
5.81208874097e-07
2.81043074395e-07
2.44200549666e-07
2.16923274835e-07
1.39847490565e-07
1.51323117667e-07
4.88076483261e-07
5.19806894131e-07
8.10746682235e-08
1.3065868685e-07
2.10198092172e-06
3.81384992808e-07
7.95058941654e-08
3.05042261989e-07
2.64663186807e-07
2.67935076889e-07
1.11390805498e-07
6.02722917495e-07
2.31173513052e-07
8.00604872618e-08
8.58985419738e-08
5.21793703083e-07
9.86378863508e-08
8.23926750399e-08
4.41702896304e-07
5.52320637949e-07
3.87839868263e-07
7.01514528537e-07
1.1498419173e-07
2.77080878897e-08
5.17678281645e-07
1.28458355976e-06
3.40656605373e-07
4.06354182183e-07
4.85940559018e-07
1.96325571667e-08
7.45125581533e-09
1.22186216018e-07
4.1593705305e-07
1.52708062414e-07
5.26903421662e-09
2.05590776617e-07
6.25723759789e-07
2.29146737124e-07
1.13775824055e-06
2.06609155098e-07
6.31529384223e-07
5.44676971937e-07
8.12540607061e-07
4.61533832604e-07
4.44078162487e-07
2.01583851296e-06
1.17894920143e-06
6.69795228841e-07
2.35925197061e-06
3.32682424152e-07
2.42963818298e-07
8.0177282378e-07
1.45678220666e-07
6.06916820182e-07
1.23421593734e-06
9.64058842945e-07
1.89356345536e-07
1.65084935621e-06
7.38879305663e-08
5.74803720394e-07
6.22943333376e-07
1.45902967651e-07
4.38139902776e-07
1.3117628613e-06
7.7304115779e-08
5.78977758379e-07
3.94105266263e-07
1.2353241942e-07
1.11192101938e-07
9.79363398082e-09

