# vtk DataFile Version 3.0
File Name: Molecule/arg/arg_8.0-0.vtk
ASCII
DATASET UNSTRUCTURED_GRID
FIELD FieldData 1
TIME 1 1 double
0.0
POINTS 1350 double
-3.403 0.327 1.604
-3.458 0.149 1.214
-3.138 0.005 1.702
-3.19 -0.164 1.33
-2.981 -0.361 1.858
-3.036 -0.538 1.468
-3.398 0.034 0.803
-3.133 -0.274 0.938
-2.976 -0.654 1.057
-3.231 -0.009 0.408
-2.974 -0.315 0.561
-2.809 -0.697 0.662
-2.971 0.024 0.066
-2.725 -0.284 0.235
-2.549 -0.664 0.32
-2.984 0.046 0.042
-2.617 -0.045 -0.207
-2.63 -0.024 -0.229
-2.351 -0.22 -0.527
-2.365 -0.198 -0.55
-2.2 -0.483 -0.862
-2.216 -0.458 -0.889
-3.183 0.343 -0.145
-2.753 0.07 -0.229
-2.923 0.323 -0.389
-2.57 0.022 -0.532
-2.724 0.253 -0.678
-2.446 -0.093 -0.847
-2.6 0.138 -0.992
-2.39 -0.269 -1.153
-2.559 -0.016 -1.312
-3.263 0.702 -0.308
-2.991 0.63 -0.528
-2.786 0.532 -0.805
-2.663 0.417 -1.12
-2.628 0.291 -1.452
-3.216 1.083 -0.43
-2.951 0.955 -0.632
-2.75 0.829 -0.899
-2.626 0.714 -1.214
-2.587 0.616 -1.556
-3.047 1.443 -0.495
-2.807 1.262 -0.688
-2.618 1.109 -0.95
-2.495 0.993 -1.265
-2.443 0.924 -1.611
-2.776 1.74 -0.497
-2.575 1.516 -0.689
-2.407 1.34 -0.951
-2.283 1.225 -1.266
-2.211 1.177 -1.613
-2.622 1.932 -0.429
-2.434 1.563 -0.734
-2.291 1.743 -0.67
-2.16 1.459 -1.077
-2.01 1.647 -1.011
-1.982 1.439 -1.492
-1.81 1.654 -1.416
-2.666 2.281 -0.134
-2.227 2.054 -0.482
-2.267 2.371 -0.214
-1.881 2.228 -0.637
-1.921 2.545 -0.369
-1.615 2.438 -0.879
-1.659 2.787 -0.585
-2.622 2.533 0.247
-2.227 2.6 0.132
-1.881 2.773 -0.023
-1.614 3.039 -0.203
-2.495 2.657 0.67
-2.111 2.713 0.516
-1.765 2.886 0.361
-1.488 3.163 0.22
-2.797 2.625 0.927
-2.251 2.77 1.005
-2.52 2.741 1.234
-2.033 3.002 1.293
-2.299 2.974 1.519
-1.863 3.333 1.507
-2.155 3.302 1.755
-3.035 2.497 1.22
-2.731 2.627 1.494
-2.507 2.861 1.775
-2.385 3.178 2.038
-3.186 2.284 1.521
-2.865 2.437 1.761
-2.64 2.674 2.039
-2.53 2.972 2.328
-3.419 1.801 1.788
-2.888 2.359 1.917
-3.122 1.876 2.185
-2.717 2.558 2.345
-2.979 2.017 2.644
-3.552 1.393 1.822
-3.202 1.735 2.161
-3.319 1.374 2.191
-3.094 1.732 2.585
-3.21 1.376 2.614
-3.107 1.793 3.017
-3.235 1.399 3.05
-3.548 0.964 1.825
-3.316 0.994 2.194
-3.206 1.001 2.617
-3.231 0.984 3.053
-3.408 0.559 1.798
-3.191 0.635 2.17
-3.084 0.647 2.593
-3.095 0.593 3.027
-3.105 0.348 2.085
-3.1 0.088 1.867
-2.97 0.105 2.152
-3.02 0.504 2.546
-2.901 0.29 2.606
-2.978 0.383 3.085
-2.865 -0.346 2.113
-2.52 -0.7 2.425
-2.789 -0.06 2.411
-2.48 -0.378 2.69
-2.828 0.19 2.745
-2.523 -0.123 3.02
-2.645 0.041 3.387
-2.483 -1.039 2.238
-2.249 -0.827 2.688
-2.214 -1.15 2.51
-2.072 -0.978 3.011
-2.036 -1.312 2.826
-2.003 -1.142 3.367
-1.962 -1.514 3.162
-2.359 -1.33 2.011
-2.096 -1.427 2.294
-1.914 -1.599 2.602
-1.826 -1.833 2.912
-2.159 -1.55 1.761
-1.905 -1.637 2.055
-1.716 -1.817 2.356
-1.606 -2.075 2.638
-1.897 -1.684 1.507
-1.655 -1.765 1.813
-1.457 -1.949 2.105
-1.318 -2.222 2.359
-1.592 -1.721 1.268
-1.365 -1.8 1.585
-1.156 -1.986 1.869
-0.984 -2.263 2.097
-1.926 -1.641 1.017
-1.351 -1.766 0.91
-1.664 -1.691 0.675
-1.133 -1.941 0.578
-1.457 -1.864 0.334
-0.96 -2.23 0.303
-1.327 -2.142 0.027
-2.203 -1.444 0.759
-1.923 -1.507 0.433
-1.726 -1.673 0.084
-1.631 -1.926 -0.256
-2.396 -1.15 0.52
-2.103 -1.231 0.209
-1.913 -1.387 -0.149
-1.843 -1.603 -0.519
-2.487 -0.785 0.321
-2.189 -0.889 0.022
-2.002 -1.032 -0.342
-1.943 -1.202 -0.738
-2.264 -0.668 -0.026
-2.322 -0.554 -0.027
-2.141 -0.611 -0.433
-2.203 -0.492 -0.433
-2.131 -0.618 -0.861
-2.114 -0.682 -1.181
-1.927 -1.264 -1.052
-2.312 -0.441 -1.376
-2.121 -0.506 -1.916
-2.042 -0.816 -1.214
-1.838 -0.886 -1.79
-1.682 -1.348 -1.746
-1.975 -0.256 -2.322
-1.864 -0.768 -1.888
-1.672 -0.441 -2.421
-1.897 0.192 -2.527
-1.57 0.147 -2.691
-1.996 0.646 -2.441
-1.495 0.306 -2.776
-1.602 0.798 -2.682
-1.198 0.386 -3.152
-1.328 0.981 -3.039
-2.011 1.039 -2.18
-1.619 1.224 -2.399
-1.348 1.496 -2.696
-1.72 1.257 -2.235
-1.631 1.561 -2.005
-1.259 1.801 -2.466
-1.479 1.817 -1.75
-1.107 2.057 -2.211
-1.346 2.153 -1.415
-1.642 2.007 -1.116
-1.319 2.584 -1.178
-1.091 2.821 -1.245
-1.159 2.356 -1.471
-0.94 2.583 -1.535
-1.087 2.175 -1.825
-0.858 2.412 -1.893
-0.852 2.322 -2.287
-0.816 3.013 -1.267
-0.676 2.767 -1.557
-0.583 2.604 -1.915
-0.543 2.537 -2.312
-0.229 3.384 -1.004
-0.488 2.934 -1.522
-0.105 3.176 -1.351
-0.228 2.93 -1.855
0.02 3.086 -1.745
-0.059 3.001 -2.236
0.134 3.123 -2.15
0.003 3.141 -2.63
0.229 3.284 -2.529
-0.048 3.337 -3.001
0.294 3.553 -2.848
0.466 3.148 -0.891
0.348 3.022 -1.277
0.313 2.987 -1.697
0.364 3.045 -2.112
0.497 3.193 -2.485
0.699 3.415 -2.782
0.833 2.913 -0.61
0.553 2.897 -1.196
0.905 2.671 -0.926
0.699 2.74 -1.539
1.067 2.504 -1.257
0.892 2.689 -1.891
1.303 2.425 -1.576
1.057 2.557 -0.305
1.12 2.33 -0.634
1.29 2.148 -0.952
1.553 2.026 -1.234
1.025 2.711 0.026
1.24 2.204 -0.113
1.21 2.35 0.201
1.539 1.918 0.039
1.507 2.071 0.37
0.916 2.809 0.362
1.106 2.444 0.521
1.398 2.17 0.706
0.737 2.845 0.68
0.936 2.478 0.823
1.22 2.206 1.024
0.406 3.093 0.833
0.701 2.629 1.02
0.405 2.851 1.157
0.756 2.48 1.392
0.466 2.698 1.526
0.897 2.411 1.765
0.584 2.646 1.91
1.112 2.426 2.108
0.748 2.699 2.276
0.102 3.399 0.689
0.198 3.058 1.115
-0.072 3.33 0.987
0.05 3.076 1.433
-0.206 3.335 1.311
-0.029 3.146 1.769
-0.293 3.414 1.643
-0.034 3.266 2.099
-0.327 3.561 1.96
-0.29 3.571 0.538
-0.421 3.483 0.852
-0.539 3.48 1.183
-0.636 3.563 1.511
-0.705 3.727 1.814
-0.721 3.587 0.398
-0.805 3.497 0.727
-0.904 3.494 1.065
-1.012 3.577 1.389
-1.123 3.742 1.679
-1.138 3.445 0.287
-1.176 3.371 0.629
-1.257 3.373 0.971
-1.376 3.453 1.292
-1.525 3.605 1.572
-1.488 3.12 0.569
-1.554 3.135 0.914
-1.681 3.207 1.233
-0.038 3.383 2.443
0.304 2.919 2.221
0.3 3.037 2.566
0.743 2.833 2.666
-0.112 3.436 2.794
0.225 3.091 2.918
0.658 2.893 3.065
-0.253 3.42 3.128
0.084 3.075 3.254
0.499 2.875 3.445
-0.449 3.338 3.421
-0.113 2.992 3.549
0.276 2.781 3.779
-0.687 3.194 3.654
-0.352 2.847 3.783
0.006 2.617 4.044
-1.016 3.185 3.753
-0.58 2.815 3.881
-0.962 2.805 3.996
-1.359 3.167 3.763
-1.359 2.784 4.008
-1.693 3.142 3.685
-1.746 2.755 3.917
-1.995 3.111 3.523
-2.096 2.719 3.73
-2.244 3.076 3.289
-2.384 2.678 3.458
-2.423 3.039 2.998
-2.593 2.636 3.121
-2.521 3.004 2.671
-2.706 2.595 2.741
-0.749 2.537 4.164
-0.16 2.345 4.321
-0.912 2.194 4.368
-0.321 2.009 4.521
-1.061 1.806 4.483
-0.466 1.628 4.634
-1.28 2.135 4.399
-1.452 1.611 4.604
-1.641 1.894 4.531
-1.543 2.398 4.242
-1.868 2.121 4.396
-1.833 2.577 4.025
-2.118 2.276 4.208
-2.128 2.66 3.763
-2.373 2.347 3.982
-2.409 2.64 3.473
-2.615 2.33 3.732
-2.655 2.52 3.176
-2.827 2.227 3.476
-2.849 2.307 2.894
-2.995 2.043 3.232
-1.464 1.095 4.666
-0.956 1.592 4.533
-0.968 1.074 4.596
-0.48 1.041 4.705
-1.655 0.731 4.634
-1.079 0.886 4.596
-1.26 0.541 4.565
-0.689 0.687 4.666
-0.881 0.322 4.633
-0.333 0.517 4.869
-0.555 0.096 4.831
-1.956 0.515 4.553
-1.383 0.368 4.531
-1.661 0.166 4.457
-1.114 -0.009 4.584
-1.407 -0.22 4.505
-0.878 -0.357 4.785
-1.219 -0.603 4.693
-2.226 0.322 4.369
-1.912 -0.012 4.286
-1.67 -0.408 4.326
-1.526 -0.822 4.484
-2.442 0.172 4.097
-2.112 -0.152 4.033
-1.88 -0.555 4.06
-1.772 -0.993 4.174
-2.586 0.075 3.76
-2.246 -0.241 3.721
-2.021 -0.649 3.731
-1.935 -1.103 3.791
-2.301 -0.273 3.375
-2.078 -0.682 3.368
-0.642 -0.546 4.955
-0.314 -0.097 5.005
-0.383 -0.749 5.065
-0.05 -0.304 5.117
-0.111 -0.96 5.11
0.227 -0.52 5.163
0.164 -1.171 5.088
0.507 -0.734 5.141
0.328 -1.528 5.007
0.615 -0.976 5.092
0.771 -1.314 5.015
1.043 -0.806 5.264
1.207 -1.163 5.184
0.496 -1.85 4.839
0.93 -1.621 4.855
1.375 -1.486 5.015
0.658 -2.122 4.593
1.084 -1.878 4.621
1.537 -1.757 4.769
0.805 -2.327 4.281
1.224 -2.073 4.326
1.684 -1.962 4.458
0.93 -2.454 3.923
1.343 -2.194 3.985
1.809 -2.089 4.099
1.026 -2.497 3.536
1.433 -2.234 3.618
1.905 -2.132 3.712
1.086 -2.453 3.142
1.491 -2.193 3.244
1.965 -2.088 3.318
1.109 -2.324 2.763
1.512 -2.07 2.884
1.988 -1.959 2.939
1.092 -2.118 2.42
1.496 -1.875 2.558
1.971 -1.753 2.596
1.037 -1.846 2.131
1.444 -1.616 2.284
1.916 -1.481 2.307
0.796 -2.146 2.122
0.866 -1.735 1.801
0.66 -1.991 1.794
0.779 -1.673 1.428
0.591 -1.907 1.421
0.784 -1.666 1.039
0.596 -1.899 1.033
0.88 -1.714 0.666
0.674 -1.97 0.659
1.061 -1.813 0.337
0.819 -2.113 0.328
0.482 -2.37 2.114
0.391 -2.182 1.787
0.347 -2.08 1.414
0.352 -2.073 1.026
0.406 -2.161 0.652
0.505 -2.337 0.32
0.119 -2.499 2.107
0.081 -2.292 1.78
0.065 -2.18 1.409
0.07 -2.173 1.021
0.096 -2.271 0.646
0.142 -2.466 0.313
-0.266 -2.524 2.101
-0.247 -2.313 1.776
-0.234 -2.2 1.405
-0.229 -2.193 1.016
-0.232 -2.292 0.641
-0.243 -2.491 0.308
-0.643 -2.443 2.098
-0.569 -2.244 1.773
-0.527 -2.137 1.402
-0.522 -2.13 1.014
-0.554 -2.224 0.638
-0.62 -2.41 0.304
-0.86 -2.09 1.772
-0.792 -1.997 1.401
-0.787 -1.99 1.013
-0.845 -2.07 0.637
1.343 -1.496 0.161
1.028 -1.535 0.641
1.242 -1.295 0.508
1.078 -1.33 0.996
1.248 -1.139 0.89
1.205 -1.217 1.373
1.361 -1.043 1.276
1.4 -1.205 1.737
1.57 -1.014 1.631
1.644 -1.296 2.058
1.857 -1.056 1.925
2.198 -1.164 2.131
1.48 -1.078 0.031
1.346 -0.978 0.409
1.331 -0.887 0.812
1.436 -0.812 1.205
1.652 -0.762 1.553
1.961 -0.739 1.826
2.335 -0.746 2.002
1.639 -0.712 -0.547
1.451 -0.719 0.207
1.594 -0.39 -0.313
1.526 -0.39 0.423
1.664 -0.072 -0.079
1.697 -0.118 0.66
1.842 0.216 0.134
1.696 -1.065 -0.74
1.721 -0.524 -0.905
1.773 -0.846 -1.081
1.914 -0.328 -1.213
1.966 -0.645 -1.386
2.201 -0.141 -1.444
2.256 -0.481 -1.629
1.664 -1.393 -0.979
1.744 -1.145 -1.299
1.937 -0.939 -1.601
2.226 -0.795 -1.858
1.546 -1.673 -1.249
1.636 -1.4 -1.545
1.831 -1.191 -1.843
2.112 -1.064 -2.117
1.348 -1.888 -1.533
1.457 -1.596 -1.804
1.654 -1.384 -2.098
1.923 -1.27 -2.389
1.085 -2.024 -1.812
1.217 -1.72 -2.058
1.418 -1.506 -2.348
1.67 -1.4 -2.657
0.772 -2.072 -2.068
0.932 -1.764 -2.291
1.137 -1.549 -2.578
1.371 -1.446 -2.902
0.431 -2.029 -2.284
0.62 -1.725 -2.489
0.83 -1.51 -2.772
1.043 -1.405 -3.11
0.082 -1.898 -2.448
0.302 -1.605 -2.638
0.517 -1.392 -2.919
0.708 -1.279 -3.267
-0.251 -1.687 -2.547
-0.001 -1.412 -2.728
0.218 -1.203 -3.008
0.389 -1.077 -3.362
-0.548 -1.409 -2.576
-0.272 -1.16 -2.755
-0.048 -0.954 -3.034
0.104 -0.811 -3.39
[...]
CELL_DATA 2696
SCALARS cell_data_0 double
LOOKUP_TABLE default
4.72509348486e-09
1.2449591781e-09
1.75585481152e-08
1.00831429932e-08
5.20280647608e-09
6.78038083416e-09
1.02431107435e-08
2.77534494351e-09
6.22862460737e-09
1.23822396388e-08
7.07116768543e-09
1.60013156516e-09
1.63277857285e-08
2.1146862226e-08
5.87539819105e-09
1.25154132516e-08
5.47554306398e-09
1.40778896816e-09
3.73402236052e-09
1.07188940218e-08
4.46915130987e-09
3.01073012265e-09
1.19587255288e-08
1.36990449077e-08
1.77119346649e-08
1.84244246218e-08
1.51713249121e-08
1.80549232863e-08
4.28586597938e-08
1.99896936823e-08
2.61300770087e-09
8.80892379329e-10
6.60820693495e-09
1.27092294291e-09
2.35236162849e-09
4.02487837977e-09
9.98479818409e-09
8.14929327431e-09
1.17906439191e-09
7.07198358514e-10
7.9460618974e-10
5.44236980398e-10
4.21782652987e-09
4.94442439666e-09
1.62811164893e-08
5.98354634769e-09
2.32776221371e-09
3.64976498817e-09
7.34558228494e-10
4.17262408536e-09
6.39936291199e-09
9.89387766612e-09
8.57175638191e-09
6.18288432095e-09
6.76346530808e-09
9.25392829095e-09
9.74438066484e-09
9.9958476596e-09
2.3586546505e-08
1.50462720832e-08
1.18685375463e-09
9.73996376233e-09
8.43389639732e-09
9.67449148743e-09
7.52471241358e-09
1.23235621715e-08
9.23122452689e-09
5.6684438312e-09
1.86364799305e-08
2.10274914501e-08
2.16295359451e-08
3.14421183867e-08
2.43767364239e-08
2.71041071788e-08
8.67806451181e-09
1.37251399766e-09
8.16110046995e-09
6.78877720825e-09
1.1798748467e-08
2.69931114331e-09
3.85598141601e-09
1.30053377942e-08
7.6835766654e-09
7.56548793463e-09
2.55091591488e-10
2.93942596965e-09
6.91109782123e-09
5.24150251835e-09
5.92025527837e-09
5.13434251468e-09
5.86412235472e-09
4.22646032941e-09
2.42319288022e-09
3.88291115843e-09
1.1717283399e-09
1.65624311167e-09
5.32218422528e-09
1.67452181047e-09
2.74026945229e-09
6.77407150607e-09
1.05942330349e-09
7.1950725228e-09
4.46440856157e-09
1.41933951632e-10
4.67544385165e-09
8.06954096775e-09
1.30220524505e-08
8.45891976002e-10
1.33090849109e-09
2.15319294049e-09
5.98379503609e-09
1.71255681955e-09
9.74459363377e-09
1.06765783175e-09
4.2255317474e-09
7.07718043225e-09
3.3326275783e-09
3.91701485862e-09
5.93659258917e-09
1.12888370672e-09
1.02630413301e-08
9.80623209343e-09
8.11218643211e-09
3.39976172742e-09
4.75737757893e-09
9.99422108629e-10
3.30854718742e-09
1.47119262714e-09
7.03865429044e-09
6.20180235532e-09
1.41396459397e-08
1.14832009446e-08
2.63123047291e-09
6.45913175e-09
1.82649630365e-08
2.72402382937e-08
3.46858006259e-09
6.02437467297e-09
2.4641880948e-08
1.72914191737e-10
4.90155824077e-08
6.0941900148e-08
1.91811455935e-07
7.9224086112e-08
3.04551225113e-07
3.83838142308e-08
2.05988999318e-09
4.42070311552e-09
5.28619911288e-08
5.23107315875e-08
1.2532772152e-07
3.54117273199e-08
1.25832763304e-08
2.21298645628e-09
1.66825377446e-08
3.72370158359e-08
4.42010741234e-08
1.81602813434e-08
1.47565849159e-08
4.19035675601e-09
2.96003979076e-09
1.07423646867e-08
2.36381604827e-08
1.78802240736e-08
2.98327142889e-08
2.05787288009e-08
9.8258227156e-09
3.61569132891e-08
2.41996281386e-09
6.92772214867e-09
1.10999113815e-09
2.54568453039e-08
3.02380854579e-08
3.4293491872e-08
4.0115768136e-08
9.09337318373e-09
2.07206358015e-09
5.35961806951e-09
2.25490678325e-09
1.86022561296e-09
1.6904371207e-08
2.36144304174e-09
1.03792818178e-08
9.7530976157e-09
4.55618021421e-09
7.39117267844e-09
1.75741918682e-08
2.95073717134e-09
2.37483153037e-08
2.16616979265e-08
1.91526465495e-08
2.22267429016e-08
1.50510153696e-09
1.5470111116e-08
1.75952826901e-08
7.01780539895e-09
4.40753203708e-09
1.97211668902e-08
2.81805926939e-08
2.70121097985e-09
3.33013222854e-08
4.54082231433e-08
1.92953458739e-08
1.45782436895e-08
3.838694428e-08
6.46875717864e-08
2.89204214432e-08
5.5288062698e-08
1.61918205277e-08
2.44661819645e-08
6.48137506509e-08
8.83546571667e-08
2.05976664855e-08
4.03561244991e-08
1.25665002256e-07
3.9234560194e-08
6.77228754468e-08
1.16903853498e-07
2.44735433611e-08
8.00320089623e-08
4.04359895724e-08
2.46533610631e-08
5.40469544928e-08
2.32485529611e-08
5.4683653702e-08
1.62562724928e-08
3.61475144922e-08
3.70377839269e-08
1.21549994553e-08
7.20716751978e-10
1.89890432263e-09
1.44395625548e-09
4.14058209657e-08
4.35956619481e-09
8.82172901152e-08
4.23899898732e-09
1.76011444368e-08
1.89321893612e-08
1.41456197302e-08
7.1767493129e-08
1.99228532126e-08
2.36407684452e-08
8.54284409663e-08
7.18754546708e-08
6.69102966811e-08
7.64915201897e-08
2.19051441338e-08
5.64550442445e-08
1.89269179865e-08
7.46868089098e-08
2.38258194892e-07
9.33543376155e-08
2.97829892024e-09
6.35781945804e-08
2.05019247184e-08
3.27672868943e-08
9.10836692827e-09
1.28661857221e-08
1.05575261653e-07
5.41814787351e-08
3.99522376447e-07
1.60867676308e-07
2.74044808449e-08
5.16281379539e-09
7.85218152155e-08
7.72840576606e-08
1.65000362053e-07
1.40603460413e-07
2.24592594887e-08
2.87691592691e-08
1.12271036353e-08
5.08676277732e-08
1.2304733786e-08
1.8267861099e-08
4.74320542586e-09
1.00813962909e-08
1.15297800807e-08
1.31840490813e-08
3.5944252187e-10
1.92160806232e-09
1.03115041126e-08
6.52783665411e-09
6.30678378513e-09
1.24709247393e-08
5.69591736184e-09
4.9412378576e-09
5.03635244447e-09
3.56855996832e-10
1.9887951578e-09
1.30782241926e-09
5.9004519909e-09
2.03176172846e-08
2.36719665644e-08
3.30268228665e-08
9.76155553234e-09
5.23002179832e-09
8.35319805601e-09
8.19075776488e-09
8.84141520249e-10
9.77901589483e-09
9.76318908652e-09
1.13671713019e-08
1.50100658021e-09
6.08435428425e-10
4.17460247818e-09
1.86697062345e-10
3.23617630814e-09
1.54155974848e-09
4.72775070975e-09
2.1399264753e-10
5.9874535652e-10
1.34167353447e-09
1.14089789684e-09
7.14983197021e-10
7.55643369977e-10
5.86002434173e-10
2.9612656229e-09
1.20326373845e-09
4.26754994117e-10
2.31900057706e-09
1.81716196004e-09
1.26323255536e-09
2.45021168764e-09
2.31199152361e-09
1.27622349836e-09
9.54943514758e-10
2.56426885193e-09
7.06867253116e-09
4.19668946729e-09
2.62757077427e-09
5.33345051251e-09
4.23775162788e-09
4.92722880713e-10
1.32822831748e-09
3.36355823815e-10
1.32953529191e-08
2.82368955829e-09
4.27399125938e-08
6.51029355131e-10
1.33211364575e-08
8.49026013067e-09
3.4710481867e-08
1.31227509138e-10
1.05093765175e-08
1.10947569273e-08
4.6914732643e-08
2.7635023889e-09
5.83619275631e-09
4.10570428898e-09
4.28591934636e-08
3.44196288323e-10
4.15669440646e-09
6.49907752416e-09
3.38133422291e-08
3.46126477209e-09
4.44116247977e-09
6.57753443099e-10
1.33898078613e-09
1.24170784193e-09
1.30077406939e-09
6.99617880177e-10
1.83672457187e-09
2.32964419502e-09
1.89908311886e-09
2.65336682491e-09
8.14801003513e-10
2.27828168867e-09
2.29406545665e-09
1.37448925451e-09
5.65316517362e-09
1.15553577178e-08
2.42072826356e-08
6.69725257013e-10
1.97005548314e-08
6.22999787359e-09
1.70065079261e-08
6.04827400256e-09
9.40081740869e-10
8.50757700476e-10
1.24688092609e-09
7.63158946572e-10
6.18597988191e-10
6.84124326825e-10
1.20627254222e-09
1.83048551874e-09
1.95458292518e-09
2.34185148211e-09
2.04478005339e-09
1.72555578445e-09
1.21527505219e-09
3.0110471256e-09
2.50807498357e-09
8.63914580346e-09
1.31222240924e-08
4.09087647472e-09
2.02222364523e-08
1.55191275751e-09
8.96488158915e-09
5.29428640649e-09
9.58204991971e-10
3.18885621637e-09
7.10052078988e-09
2.36392804886e-10
6.01330908364e-09
9.89265366006e-09
7.20010596016e-09
1.28287817319e-08
7.02120125182e-09
5.8024642338e-09
1.14390569568e-08
6.23675522164e-09
1.38889213762e-08
3.83001039897e-08
1.87922096444e-08
1.21505865709e-08
1.55879553483e-08
2.48647660887e-09
2.48186917825e-08
7.27588019826e-08
5.63014733494e-08
1.60502041623e-08
2.71571788854e-08
3.06845249942e-08
7.21637340964e-08
1.16007410872e-07
1.09061273343e-07
4.31271480395e-08
3.89700357811e-08
8.16710706333e-08
1.42772710777e-07
1.34159597082e-07
1.87036669054e-07
7.0888883485e-09
1.86562644679e-08
7.76825514204e-09
2.07026326646e-08
1.24451773018e-08
1.87801893115e-08
2.02059089004e-08
8.41445721078e-09
1.43100926028e-08
7.23088311433e-09
1.64755136442e-08
1.63702987736e-08
1.64484971601e-08
1.66336425206e-08
1.96576668452e-08
2.85476000444e-08
1.2634516527e-08
8.79453490457e-08
5.26557328449e-09
4.10238415514e-08
1.0832608706e-07
1.63981047687e-07
7.27944348534e-08
3.53014652243e-08
1.82950115341e-07
2.37470172045e-07
1.95467201413e-07
1.25393789904e-07
9.6419787485e-08
1.17582992862e-07
1.77485608005e-07
6.11543850995e-08
2.43358374599e-08
6.44502386801e-08
7.86039950034e-08
1.06685306767e-07
4.95627651021e-08
2.67591192567e-08
2.84161979183e-08
8.65618098904e-08
2.01308847427e-08
9.8625904631e-09
2.02222795598e-08
3.29130876046e-08
9.63595109173e-09
7.30285614464e-09
8.11029671109e-09
2.71194017758e-09
2.32781524121e-08
1.68844068258e-08
7.41943644975e-09
2.49232297588e-09
1.33269452048e-08
1.60728115528e-08
3.17675034992e-08
7.70081693353e-09
6.48875184085e-08
7.17446282642e-09
6.64156257646e-09
1.59452543297e-08
4.3355782469e-10
6.53779970096e-09
1.4547911977e-09
9.58216293394e-09
4.26476760574e-09
1.859857911e-08
4.6586982295e-08
1.4015090083e-09
1.38188770576e-08
1.4435200529e-08
1.45277751957e-09
5.09339866638e-09
5.42569862778e-09
7.72114808472e-09
7.14053094119e-10
2.11054330637e-08
3.60763195692e-08
3.39764987199e-09
6.57642498843e-09
1.07301396811e-08
3.50788349211e-09
5.52201136184e-09
6.19659528972e-09
9.69128920158e-09
2.12461989151e-09
1.85065494612e-08
2.67128115565e-08
4.70765536793e-10
6.78247822532e-09
5.37426098365e-09
4.43002457113e-09
6.11881528116e-09
1.02040236062e-08
8.96316560082e-09
5.22542378999e-09
1.76851800057e-08
2.57947828472e-08
4.1907114784e-09
1.20117571185e-08
5.68238907191e-10
1.8580945138e-08
7.91586981138e-09
2.04132326549e-08
1.6415736665e-08
1.78320908029e-08
1.91740776198e-08
1.65731574063e-08
5.65388368873e-09
5.63888763458e-08
1.48891097827e-08
6.17191705693e-08
4.29972423491e-08
3.4550224359e-09
1.66412249758e-08
2.10592608863e-09
4.99962159455e-09
3.22261588894e-09
6.75003705879e-09
1.33365777785e-08
1.16584027548e-08
2.60421265385e-09
8.18483345466e-08
4.02904478382e-08
1.77697002579e-08
1.3497803606e-08
2.73148287651e-09
6.32709408591e-09
3.38677219129e-09
1.27608539588e-08
2.246586445e-08
8.50763228427e-10
3.93168941889e-11
1.14091341815e-07
2.47964612478e-08
3.70783371389e-08
1.53825482913e-08
4.63988619833e-09
1.64844491653e-08
5.63226223828e-09
1.39011995464e-09
9.28648569366e-09
2.56796350861e-08
3.73167550923e-08
2.49641565587e-08
9.66181043353e-10
1.23732594395e-08
3.54027879631e-09
3.12558219802e-08
1.3217211085e-08
2.43090673762e-08
8.2527800221e-10
1.29887835703e-08
1.00029347956e-08
3.06793545382e-08
5.36464729926e-09
1.96037663712e-08
1.12668002385e-09
1.16656394711e-08
1.47969635348e-08
2.97558588431e-08
1.39610534343e-09
1.36389090499e-08
2.17213235768e-09
1.0708825654e-08
1.82398361082e-08
2.58424524437e-08
5.79973851445e-09
1.25303915192e-08
5.45236433021e-09
8.83808899307e-09
2.68434479975e-08
1.96901877106e-08
1.29112493461e-08
9.82749241332e-09
5.95580035537e-09
7.71996261343e-09
3.33231070548e-08
1.45685208012e-08
1.86460629549e-08
4.37742114032e-09
6.22577586461e-09
6.93876835063e-09
4.09961408157e-08
7.71959858439e-09
2.65328741702e-08
4.1125461253e-09
7.42267657449e-09
7.2357495501e-09
4.97788469929e-08
9.85058321402e-10
3.41821752462e-08
7.06763965982e-09
4.26946375609e-09
1.15178555761e-08
6.14927463061e-08
1.46312275603e-08
5.96151704564e-08
4.04032876483e-08
3.18288789202e-09
1.41204611898e-08
2.55222898965e-09
3.74959554376e-09
2.68332300218e-08
1.10237728605e-08
7.95965741266e-09
3.86140015815e-09
1.36691275266e-08
4.11602279594e-08
1.83940721038e-08
5.27825342132e-09
1.88124235439e-08
2.85548693967e-09
4.42489721377e-09
1.27724530384e-09
9.51080060464e-09
5.6087904623e-08
7.52730309542e-08
5.49665044484e-08
1.23250639574e-07
3.64498788445e-08
1.65556099787e-07
1.56581542986e-08
3.04427223103e-07
4.29793580887e-08
1.92164883828e-07
1.13927521374e-07
4.3080997131e-07
1.44206464252e-08
4.38617801273e-07
2.4871152792e-07
4.16264500153e-08
2.86179770113e-07
2.27261674965e-07
2.28453332597e-07
1.98535972539e-07
3.38314291114e-07
4.38642876514e-07
1.49051930833e-07
6.33008202604e-08
1.5192736953e-07
1.69930577793e-07
2.53126299623e-08
4.44433102695e-08
4.16224086161e-07
3.73676904134e-07
2.74010844046e-07
1.97390392758e-08
3.69810303301e-07
3.40603865057e-07
2.08083887532e-07
1.29648663336e-07
2.43273453718e-07
3.01796084629e-07
1.26977609725e-08
5.19430389809e-07
3.1861870097e-07
1.24654120738e-07
2.7874168314e-07
7.00385327721e-08
3.52589100762e-07
4.0136842822e-07
6.09001731148e-07
1.62208657305e-07
2.58308864058e-07
3.06692634051e-07
8.02224977355e-09
5.39324415776e-07
3.46994648204e-07
1.07674593163e-07
9.9606351313e-08
3.02169709994e-08
5.0609778862e-08
1.93278939788e-08
1.44836818559e-08
6.01175929828e-07
5.62939934279e-07
9.86739703681e-07
5.91112949532e-07
4.14782257996e-07
1.54947357794e-10
4.76302271414e-07
2.62724838676e-07
1.55668655596e-08
6.05457697353e-08
8.21297025203e-08
3.10339564928e-08
1.15087731701e-07
3.41318630013e-08
6.93991102655e-09
1.76498231762e-08
2.832514374e-08
5.02009059167e-09
1.76447369255e-08
1.04006792261e-08
1.12058529436e-08
3.47076762136e-08
1.43777443215e-08
7.82264018349e-09
1.37637893348e-08
6.44624751198e-09
7.03628003173e-09
5.17751958115e-08
1.76022067572e-08
1.74343288827e-08
1.09427741938e-08
4.37824666066e-09
6.49960949061e-09
1.30706465403e-08
9.34321806092e-09
4.47893552825e-09
3.25328238783e-08
3.00789384721e-08
1.20508261802e-08
3.42471150974e-08
2.31355850126e-08
2.4618292298e-08
1.27565337429e-08
1.32262854001e-08
3.5587454092e-08
4.57237281573e-08
3.61772421778e-08
3.99832060289e-08
6.16545468551e-07
4.94761049738e-08
9.05434855386e-07
3.17123322503e-07
1.83503431134e-07
1.50078873261e-07
5.1983162425e-07
6.05340014262e-07
1.43077211535e-07
4.07816770132e-07
3.31383804739e-07
4.65428468905e-07
9.14037651606e-07
2.26641424776e-07
1.22553360111e-06
2.0038186341e-07
3.43151247382e-07
1.53624339138e-07
5.5611776228e-07
5.25534556826e-07
3.81756479133e-08
2.52865118689e-07
2.32656726329e-07
6.18182738292e-07
2.16237587898e-08
4.11293915239e-08
7.17409004574e-08
7.83883612555e-08
1.6054881561e-07
6.02994534009e-08
1.1566897951e-08
1.8009661802e-09
1.50906199106e-09
5.77697242223e-09
5.21530877722e-10
3.6400897334e-09
1.32436837034e-08
1.67751277804e-09
6.37595459506e-09
2.8568725906e-09
5.4993148787e-10
9.51853782465e-10
1.25111123276e-08
6.00121618679e-09
4.75552818505e-09
8.9096193564e-09
8.449938573e-10
6.32331806697e-09
7.16487869628e-10
8.47013077134e-10
1.16080238165e-08
3.93926800122e-09
4.70556097229e-09
1.65575977438e-08
2.53125590358e-09
2.72794955062e-09
3.00663036726e-09
1.0475415498e-09
6.20231167135e-09
1.83308412429e-09
8.21549021135e-10
1.558853749e-08
6.47366629217e-09
8.58581051087e-09
3.53122824963e-09
1.28979925735e-10
3.73202172659e-09
1.07920842935e-09
2.51618212693e-08
1.40565848726e-08
1.77590921897e-10
5.999670989e-09
3.68986906837e-09
1.31249040617e-08
1.55420606833e-08
6.47449844673e-09
5.65262522456e-09
1.14953578799e-09
4.4357681354e-09
1.36506486203e-08
7.41488928847e-09
3.24955214225e-08
4.02457580751e-09
8.38117185868e-09
1.20246293395e-08
1.10770374538e-08
8.16560473353e-10
7.40426734728e-09
3.92376197357e-08
1.18482445738e-07
2.89584657092e-09
2.59806560566e-08
1.43256033058e-07
1.76068368392e-07
1.19435358615e-07
5.80065387725e-08
1.69350548881e-07
1.83524123105e-07
1.63642186945e-07
7.79885834688e-08
3.70511860731e-09
5.85904562798e-08
8.75539853435e-08
1.08776044545e-07
6.44555298098e-08
2.98410350418e-08
3.15302807893e-09
1.7968638938e-07
2.96353320434e-08
2.16415572233e-08
7.56964322847e-09
9.23501567932e-08
5.80889016266e-09
5.32599649709e-09
6.93684025559e-09
2.22720521789e-08
7.25313171036e-09
8.90248424315e-09
1.04323855229e-09
1.25185731131e-09
5.54513060692e-09
1.59779688954e-08
1.55486110095e-09
1.78760547333e-08
6.67502133723e-09
1.91894907375e-08
6.89793933607e-09
2.116100859e-09
1.53975828129e-08
1.6832136009e-09
2.29406856353e-08
6.29516632177e-09
2.8107827917e-08
1.46964956944e-08
5.19136683801e-10
8.25165972278e-10
7.048355031e-09
7.37987374095e-09
4.76998116505e-09
2.92156253026e-08
2.14586756824e-08
2.17223922462e-08
2.22286057323e-08
6.20846463993e-09
8.58465756779e-09
3.13274399286e-09
1.08811589566e-08
6.8670011408e-09
4.06615181137e-09
8.95911721997e-09
3.99780252453e-08
1.57914519407e-08
1.17627694798e-08
5.69849872194e-09
1.17908504359e-09
2.62196810925e-09
9.79984821301e-09
2.16044398446e-08
3.02545813747e-09
1.02374843585e-08
8.63960808162e-09
1.67869499934e-08
2.15885750363e-09
2.06435875442e-08
2.44588671141e-08
1.99464400444e-08
1.45346390941e-09
1.35043436415e-10
6.78517522946e-11
6.47103160608e-09
4.00851545567e-10
3.4919324909e-09
5.65847520781e-09
8.74854517165e-09
2.26112973402e-09
1.03672945244e-08
1.33760464995e-09
1.51957925884e-13
3.86754184191e-09
2.07987419405e-09
1.26881805745e-09
5.2041361389e-09
3.44204720475e-10
1.00356465107e-09
9.99707880164e-10
6.79601043741e-09
1.19179313797e-09
1.56132005148e-09
5.14958806627e-09
7.45570261038e-10
9.2768950645e-09
2.87058170653e-09
5.74444443731e-10
9.88770997738e-09
3.3131796383e-08
1.2630008688e-07
2.05453143025e-07
3.35635704462e-07
1.45605673957e-07
3.93921968796e-08
1.51483795051e-07
1.23191704176e-07
5.20428448235e-08
9.15207949574e-09
1.33012034341e-08
1.88222620285e-08
7.57164933583e-09
2.01336516704e-08
3.36049182121e-08
4.86094984626e-09
3.83574506399e-08
3.11816042983e-09
1.4303237406e-08
2.87745538654e-09
4.33192992282e-08
2.67694671481e-08
1.30069931363e-08
3.23171530678e-09
5.21924490888e-09
2.63526849583e-08
3.03514141294e-08
2.45169810708e-08
3.65556259525e-08
5.0015455955e-08
1.53392474994e-08
2.70958652574e-08
6.07759685053e-08
2.95142027854e-08
4.30768596843e-09
9.39156436611e-09
1.4390988671e-08
3.37858848031e-08
1.0613189103e-07
9.73906775559e-08
1.10255076619e-07
1.87079246169e-08
5.67145739361e-08
9.16554120446e-09
2.20866166017e-08
7.96992786406e-09
2.52215484911e-08
1.82711788364e-08
5.49306625778e-08
3.16597703202e-08
9.82127389668e-08
6.77959852005e-08
5.64655622582e-08
4.67009007791e-08
1.40496963093e-09
3.83420710213e-08
1.22288902962e-08
3.72537190767e-08
4.9333146468e-08
2.93746953898e-09
1.1061123999e-07
7.55064910681e-09
4.07078153114e-08
3.96571797365e-09
4.81388987733e-08
2.4086950403e-08
2.88291357519e-10
2.1363535286e-08
1.4974816048e-08
3.39061052676e-09
7.71689168423e-09
3.79603506418e-09
5.45382074928e-09
4.14744482484e-09
6.22001037765e-09
1.79845712528e-09
3.71057124718e-09
6.76662769896e-09
3.52595360342e-09
3.01733989976e-09
1.97885856445e-09
7.02846343696e-09
5.21061487907e-09
2.69366574031e-09
1.0770215359e-09
6.66771543219e-09
4.48803786372e-09
5.43310882731e-09
7.20616744309e-09
3.40898171331e-09
9.55396792012e-10
2.1374183788e-09
4.94791495472e-09
5.95275743985e-09
1.46047792343e-09
1.164321963e-09
2.00300765757e-08
3.3853940897e-09
1.43282364777e-09
3.29278510071e-09
6.10471885402e-10
4.16284650554e-09
1.91480187719e-09
1.93354780848e-09
1.40521041029e-08
3.85444582706e-10
1.55853186749e-08
1.45658106436e-08
2.17011250319e-08
3.34898069999e-08
4.3733126623e-08
1.09366438881e-08
8.67715650522e-08
2.02781879721e-08
4.05337837193e-09
7.50379115003e-09
4.26572137246e-10
7.10136909798e-11
1.50504908735e-08
4.39010111344e-09
2.70928686972e-08
2.58745884911e-09
1.39022704094e-08
1.77565962798e-08
1.29396264672e-10
1.28576145834e-08
8.09092455777e-09
2.07333640482e-08
2.32740062265e-08
4.06000894371e-08
5.37966345526e-08
6.82493581958e-08
1.58004598572e-08
1.08297245769e-08
2.59546001945e-08
7.4498498638e-11
1.93425129364e-08
1.92396207047e-08
3.98976666503e-08
1.03545077955e-08
5.00824012803e-09
2.84792093002e-08
1.70716981188e-08
4.1844386642e-08
1.30505548401e-08
7.69719509117e-08
2.62775307398e-08
1.09269347693e-08
2.83760512516e-08
4.12568887153e-08
1.6085375431e-08
7.56927568469e-08
5.03024619824e-08
7.14450986686e-10
8.08878550595e-09
4.4431762311e-09
8.00214104496e-09
4.38984579846e-08
5.61239994531e-09
1.41588856222e-09
1.05599963923e-07
3.58395759628e-07
1.12901872143e-07
2.1659020223e-07
1.90751747004e-07
5.58280401594e-08
3.04175127674e-07