# vtk DataFile Version 3.0
File Name: Molecule/arg/arg_1.0-3.vtk
ASCII
DATASET UNSTRUCTURED_GRID
FIELD FieldData 1
TIME 1 1 double
0.0
POINTS 208 double
-3.4470865726 0.25012344122 1.3917139769
-3.1056027412 -0.07102586329 0.54376977682
-3.0230927467 -0.4496409297 1.5878138542
-2.7279603481 -0.52434808016 0.48849105835
-3.0065615177 0.14205211401 0.010538504459
-2.3205993176 -0.30673241615 -0.37668323517
-2.2791454792 -0.37455573678 -1.0371216536
-2.0789058208 -0.704883039 -0.83554512262
-2.5942423344 1.4460234642 -0.70631855726
-2.5275404453 0.017714824528 -1.0791379213
-2.2363607883 1.1336716413 -1.5938595533
-1.9429812431 1.6702234745 -1.0836064816
-2.6316328049 1.9850369692 -0.33258906007
-1.4403320551 3.1718571186 0.21247628331
-1.7799129486 2.4931101799 -0.58919888735
-2.4837124348 2.6556870937 0.63830310106
-3.0278377533 2.360806942 1.6099932194
-1.8312140703 3.335616827 1.5150339603
-2.5127623081 2.9976937771 2.2893714905
-2.7059345245 2.5489630699 2.6205496788
-3.0434412956 1.9052805901 2.4126665592
-3.4344782829 1.7701500654 1.7227824926
-3.3933398724 0.81242060661 1.9464075565
-3.1539766788 0.83702218533 2.873439312
-3.036298275 0.43332624435 2.3221096992
-3.11942029 0.1314548254 1.856987834
-2.8539729118 0.24505406618 3.2620148659
-2.7480647564 -0.050415024161 2.5238893032
-2.9436190128 -0.25305640697 1.9949259758
-2.4937846661 -0.74336528778 2.4071445465
-2.3064815998 -0.28287383914 3.4015843868
-1.736681819 -1.6974321604 1.4122427702
-1.9553371668 -1.3540451527 3.2540748119
-0.97757965326 -2.26237607 2.1334476471
-2.2744202614 -1.0489076376 0.37017050385
-1.0092799664 -2.1913580894 0.29027628899
-1.894236207 -1.35473454 -0.38497975469
-1.895501852 -1.2873321772 -1.0958358049
-2.0729441643 -0.6925496459 -1.2814524174
-1.7554006577 -0.7581012249 -2.06214118
-2.1183125973 -0.66397434473 -1.0483890772
-2.2447731495 -0.43416377902 -1.8351310492
-1.5682113171 -1.557191968 -1.8027424812
-2.154920578 0.22218456864 -2.3310632706
-1.5374877453 0.12099241465 -2.7176980972
-1.8320995569 0.96190583706 -2.4019269943
-1.0319232941 0.60269999504 -3.4148619175
-1.5636875629 1.4721769094 -2.2319283485
-1.8622362614 1.4548211098 -1.7816489935
-1.260555625 1.5061113834 -2.7975003719
-1.0988749266 2.0496690273 -2.2312943935
-1.4849005938 1.8327797651 -1.720638752
-1.2020337582 2.457146883 -1.3915097713
-0.47562646866 2.5463051796 -2.3997952938
-0.28991758823 2.930341959 -1.751047492
-0.94070863724 3.0921719074 -1.0520712137
0.40702465177 3.0898454189 -1.0529860258
0.35392922163 3.0547194481 -2.1188676357
1.0577546358 2.4715406895 -0.47846916318
0.86256051064 2.6505277157 -1.4696975946
1.5124038458 1.9413123131 -1.0549021959
0.93960297108 2.7868831158 0.33335086703
1.5386785269 1.9174112082 0.088874042034
1.2175848484 2.2064828873 0.99796366692
0.25893038511 3.0751373768 1.0005760193
1.2561116219 2.2509949207 1.9673746824
0.67049908638 2.8070187569 2.4313707352
-0.16311809421 3.4029111862 2.0633852482
-0.51401233673 3.2735204697 3.4922411442
0.79789340496 2.8250010014 3.3644442558
-0.81056332588 2.8238790035 3.9276587963
-1.303131938 3.6760315895 3.3898961544
-1.8361828327 2.8197972775 3.8021245003
-2.0560209751 3.2540123463 3.344076395
-2.2924318314 2.6694238186 3.564804554
-1.0282678604 2.1127023697 4.4037117958
0.023828584701 2.5768685341 4.0737876892
-0.43593794107 1.6582978964 4.6203837395
-2.4540872574 2.208694458 4.1108822823
-1.5986025333 1.7590571642 4.5466361046
-3.0497062206 1.8167991638 3.1192677021
-0.23583064973 1.01866889 4.7983055115
-1.075743556 1.1057126522 4.6079668999
-0.086878150702 0.34101888537 5.0402183533
-0.74587607384 0.35508656502 4.7034263611
-1.6373244524 0.68424475193 4.6466341019
-0.83378595114 -0.40493178368 4.7961235046
-1.6985222101 -0.86463451385 4.3324632645
-2.3550775051 0.23512871563 4.2238483429
0.17264080048 -1.2004024982 5.0798478127
0.354732126 -0.42213577032 5.1818246841
1.2792253494 -0.78902584314 5.3370079994
1.5737737417 -1.8265016079 4.6724090576
0.53528577089 -2.2900381088 4.4904508591
1.0655465126 -2.4686768055 3.2681338787
2.0133111477 -2.0721819401 3.4875144958
1.9593945742 -1.469240427 2.3822145462
1.0025857687 -1.8636204004 2.1231887341
0.79413974285 -1.6443296671 1.2419098616
0.13475033641 -2.1550736427 1.2529011965
0.14510723948 -2.6032037735 2.2774298191
1.0410687923 -1.8301688433 0.32620376348
0.043921627104 -2.4812977314 0.28145372868
-0.77759587765 -1.984842062 1.1746225357
1.388582468 -0.84087908268 1.0816127062
1.4235482216 -1.015910387 0.15596948564
1.3479123116 -1.2075632811 1.6895343065
2.3322384357 -0.69167459011 1.9654335976
1.7042278051 -0.09367210418 0.69205701351
1.773473978 0.19828917086 -0.26720809937
1.6471151114 -0.67294305563 -0.72662001848
1.5453184843 -1.5718128681 -1.5356220007
2.1928927898 -0.1719841361 -1.4372750521
2.0882103443 -1.0790452957 -2.282936573
1.0421177149 -1.4595907927 -2.8877696991
0.49942287803 -2.162951231 -2.1358792782
-0.255648911 -1.4163241386 -2.661632061
0.12163386494 -0.69359099865 -3.5342226028
-0.39407402277 -0.71721762419 -3.012680769
-1.0010178089 -0.6860794425 -2.6645789146
-0.700096488 -0.21343752742 -3.2950103283
-0.99770069122 -1.3434866667 -2.3772325516
-0.11930367351 0.46088573337 -3.9647972584
0.56531214714 0.32036417723 -4.2160620689
-0.46955376863 1.935860157 -3.5221815109
-0.02575131692 2.9695498943 -3.6543819904
-0.075314447284 3.3228571415 -2.9562089443
0.91675335169 2.2398383617 -4.023021698
0.13857890666 2.0503482819 -4.120880127
0.47220596671 2.9281408787 -3.9062421322
0.91027271748 3.2388141155 -2.8050506115
1.5967342854 2.7478132248 -2.5735294819
1.1363505125 3.224158287 -3.0832080841
0.77567583323 2.9010062218 -2.3523335457
2.4306373596 1.2591129541 -2.3290905952
2.1240413189 1.5894622803 -1.8889425993
2.3565776348 0.61857563257 -1.6549524069
2.0130221844 0.89669090509 -1.1293342113
1.9692912102 0.94389313459 0.014447898604
2.1667239666 2.1948728561 -2.5728764534
1.8509116173 2.0188224316 -3.4178025723
1.8607561588 1.2741286755 -3.8085815907
1.2153916359 1.6206508875 -4.1715717316
1.5406317711 2.5654485226 -3.3434929848
1.8903570175 1.2977327108 1.338992238
2.5463593006 0.94334542751 2.5779671669
1.8448667526 1.5795186758 2.351565361
1.8120667934 2.0700199604 3.2314245701
2.3825728893 1.4232196808 3.4693233967
1.4574475288 1.7502304316 4.2761921883
2.2289426327 1.1673680544 4.6252274513
1.3805991411 0.74076241255 5.0816078186
0.51985776424 1.5826067924 4.7486906052
0.5601965189 0.84676647186 4.9819502831
1.1700196266 2.6033101082 -2.0451471806
0.95240956545 3.000398159 -3.7040433884
-3.5217533112 2.2033178806 0.80140304565
-3.5326080322 1.6130335331 -0.087045565248
-3.9327664375 1.1367166042 0.84575802088
-2.6862154007 -1.2324489355 1.3254623413
0.50972181559 3.3782815933 -0.086414977908
-1.109306097 4.0081348419 2.4964199066
-2.107678175 3.651352644 2.5188577175
-2.8494536877 1.3149853945 4.343547821
-0.62447619438 -2.6149618626 4.2866201401
-0.79969602823 -1.6623507738 4.9315209389
-1.5487177372 -1.8616415262 4.2460751534
-0.84844511747 -2.8385033607 3.2106728554
0.25693744421 -2.9102766514 3.3989975452
0.4824475646 -2.7875039577 -0.89961218834
-0.79405164719 -2.7462630272 -0.76218426228
-0.58852630854 -2.4363572598 -1.9566134214
1.3713616133 -2.1039512157 -0.74772804976
0.49086871743 3.4043097496 -2.7059586048
1.7050948143 2.2283730507 -1.830648303
1.323099494 2.5707681179 2.847640276
0.90476900339 2.4241702557 4.1102046967
3.6670148373 -0.31841400266 3.6970784664
3.3218340874 0.76563423872 3.6926000118
3.3191971779 0.19637134671 4.6442627907
3.3320248127 -0.88931804895 4.581682682
3.211376667 -1.5052330494 3.6735460758
3.2374031544 -0.85774636269 2.6689398289
3.3347246647 0.1817779839 2.7734463215
2.3021376133 0.21613800526 5.3892378807
2.4714794159 -0.83254545927 5.3285260201
2.5164048672 -1.6962332726 4.6567463875
2.9094552994 0.098679594696 -2.5766947269
2.5718460083 -0.62224775553 -3.3678553104
2.6651954651 0.47552549839 -3.6089999676
1.8094880581 -1.2170639038 -3.4075939655
1.7987772226 -0.39317786694 -4.2003979683
0.88363748789 -0.73814630508 -4.0816140175
0.86263734102 0.9480022788 -4.3304595947
0.35478258133 1.3511580229 -4.3924679756
0.82794332504 1.5925687551 -4.4432964325
1.0685604811 3.2022809982 -3.3958973885
0.71768707037 3.3171262741 -3.7868187428
0.22107629478 3.3288221359 -3.7890625
-0.046924453229 1.6623815298 -4.1051898003
-0.2961896956 1.2689899206 -3.9516611099
0.16295546293 0.88329857588 -4.1314492226
0.81474602222 3.5936152935 -3.4138748646
-0.010086141527 3.4512617588 -3.4158513546
1.7802474499 2.4392683506 -2.2532773018
2.0926606655 1.906920433 -2.2422399521
0.48757833242 0.89891153574 -4.2460074425
1.3598223925 2.4134991169 3.626121521

CELLS 412 1648
3 0 1 2
3 2 1 3
3 1 4 3
3 5 6 7
3 4 8 9
3 9 8 10
3 8 11 10
3 12 11 8
3 13 14 15
3 12 15 14
3 15 16 17
3 17 16 18
3 19 16 20
3 21 20 16
3 21 22 20
3 22 23 20
3 24 22 25
3 0 25 22
3 23 24 26
3 27 26 24
3 27 25 28
3 28 25 2
3 2 29 28
3 29 30 27
3 29 31 32
3 32 31 33
3 31 34 35
3 35 34 36
3 34 5 36
3 3 5 34
3 36 7 37
3 38 39 37
3 38 40 6
3 9 6 5
3 9 41 6
3 42 37 39
3 41 43 39
3 44 39 43
3 43 45 44
3 44 45 46
3 47 45 48
3 10 48 45
3 49 47 50
3 51 50 47
3 51 11 52
3 52 11 14
3 50 52 53
3 53 52 54
3 55 56 54
3 54 56 57
3 54 57 53
3 56 58 59
3 59 58 60
3 58 61 62
3 62 61 63
3 61 64 63
3 65 64 66
3 67 64 17
3 13 17 64
3 67 68 66
3 66 68 69
3 70 71 72
3 73 72 71
3 72 73 74
3 18 19 73
3 70 75 76
3 76 75 77
3 78 79 72
3 74 78 72
3 78 74 80
3 20 80 19
3 81 77 82
3 79 82 75
3 83 81 84
3 85 84 82
3 86 85 87
3 88 87 85
3 88 30 87
3 87 30 32
3 84 86 83
3 89 90 86
3 91 89 92
3 93 92 89
3 93 94 92
3 92 94 95
3 95 94 96
3 97 96 94
3 98 97 99
3 100 99 97
3 98 99 101
3 102 101 99
3 103 99 33
3 100 33 99
3 99 103 102
3 102 103 35
3 101 104 98
3 105 104 101
3 96 106 107
3 104 107 106
3 108 105 109
3 110 109 105
3 110 111 112
3 112 111 113
3 113 111 114
3 115 114 111
3 115 116 114
3 114 116 117
3 118 116 119
3 120 118 119
3 119 121 39
3 42 39 121
3 119 44 120
3 120 44 46
3 122 117 120
3 117 122 123
3 124 53 125
3 125 53 126
3 127 128 129
3 130 131 132
3 130 133 131
3 57 59 133
3 134 135 136
3 137 136 135
3 137 60 138
3 138 60 62
3 138 109 137
3 109 112 137
3 139 134 140
3 141 140 134
3 142 127 140
3 140 127 143
3 108 144 107
3 107 144 145
3 146 144 65
3 63 65 144
3 147 148 146
3 145 146 148
3 147 149 148
3 148 149 150
3 150 149 151
3 152 151 149
3 152 81 153
3 153 81 83
3 153 90 151
3 151 90 91
3 25 0 2
3 5 3 4
3 4 9 5
3 48 10 11
3 14 11 12
3 17 13 15
3 19 18 16
3 80 20 23
3 24 23 22
3 26 27 30
3 32 30 29
3 103 33 31
3 103 31 35
3 7 36 5
3 38 37 40
3 41 39 38
3 49 46 45
3 47 49 45
3 52 50 51
3 126 53 57
3 55 54 52
3 154 133 59
3 59 57 56
3 62 60 58
3 65 63 64
3 67 66 64
3 70 76 68
3 77 75 82
3 82 84 81
3 86 84 85
3 91 90 89
3 106 96 97
3 106 97 98
3 106 98 104
3 108 107 104
3 108 104 105
3 112 109 110
3 118 117 116
3 121 119 116
3 125 128 124
3 143 127 155
3 154 131 133
3 136 137 112
3 142 140 141
3 146 145 144
3 153 151 152
3 156 157 158
3 158 157 4
3 0 158 1
3 158 0 22
3 158 22 21
3 158 21 156
3 156 21 16
3 156 16 15
3 157 156 12
3 15 12 156
3 157 12 8
3 157 8 4
3 4 1 158
3 3 34 159
3 3 159 2
3 2 159 29
3 27 28 29
3 29 159 31
3 31 159 34
3 7 40 37
3 40 7 6
3 10 43 9
3 41 9 43
3 38 6 41
3 45 43 10
3 11 51 48
3 48 51 47
3 13 64 160
3 13 160 55
3 13 55 14
3 52 14 55
3 55 160 56
3 56 160 58
3 58 160 61
3 61 160 64
3 71 161 162
3 71 162 73
3 68 71 70
3 71 68 161
3 161 68 67
3 161 67 17
3 161 17 162
3 162 17 18
3 162 18 73
3 75 72 79
3 19 74 73
3 74 19 80
3 72 75 70
3 23 26 163
3 23 163 80
3 80 163 78
3 78 163 79
3 163 85 79
3 82 79 85
3 85 163 88
3 88 163 26
3 88 26 30
3 25 27 24
3 164 165 166
3 164 166 167
3 164 167 168
3 164 168 93
3 164 93 165
3 165 93 89
3 165 89 86
3 165 86 87
3 165 87 166
3 166 87 32
3 166 32 167
3 167 32 33
3 167 33 100
3 167 100 168
3 168 100 94
3 168 94 93
3 94 100 97
3 169 170 171
3 169 171 115
3 169 115 172
3 169 172 101
3 169 101 102
3 169 102 170
3 170 102 35
3 170 35 36
3 170 36 37
3 170 37 42
3 170 42 171
3 171 42 121
3 171 121 116
3 171 116 115
3 101 172 105
3 105 172 110
3 110 172 111
3 111 172 115
3 44 119 39
3 49 50 124
3 49 124 46
3 46 122 120
3 118 120 117
3 124 50 53
3 57 133 173
3 60 137 135
3 154 59 174
3 63 144 62
3 62 144 138
3 109 138 108
3 144 108 138
3 147 146 175
3 149 176 152
3 152 176 76
3 152 76 77
3 152 77 81
3 90 83 86
3 83 90 153
3 177 178 179
3 177 179 180
3 177 180 181
3 177 181 182
3 177 182 183
3 177 183 178
3 179 184 185
3 180 179 185
3 180 185 186
3 181 180 186
3 181 186 95
3 181 95 96
3 181 96 182
3 182 96 107
3 182 107 183
3 183 107 145
3 183 145 178
3 178 145 148
3 178 148 150
3 178 150 179
3 179 150 184
3 184 150 151
3 184 151 91
3 184 91 185
3 185 91 92
3 185 92 186
3 186 92 95
3 187 188 189
3 188 190 191
3 189 188 191
3 191 190 192
3 191 192 123
3 141 191 193
3 191 141 189
3 189 141 134
3 189 134 187
3 187 134 136
3 187 136 112
3 187 112 113
3 187 113 188
3 188 113 190
3 190 113 114
3 190 114 192
3 192 114 117
3 192 117 123
3 194 128 195
3 131 139 143
3 143 139 140
3 125 129 128
3 127 129 155
3 155 196 143
3 155 129 197
3 129 125 198
3 130 173 133
3 57 173 126
3 194 199 128
3 128 199 124
3 122 200 201
3 201 200 194
3 200 124 199
3 199 194 200
3 122 201 123
3 124 200 46
3 46 200 122
3 196 132 143
3 143 132 131
3 132 202 130
3 202 203 173
3 202 198 203
3 173 203 126
3 126 203 125
3 203 198 125
3 198 197 129
3 155 197 196
3 132 196 202
3 197 202 196
3 197 198 202
3 173 130 202
3 154 204 131
3 131 204 139
3 135 205 174
3 205 204 174
3 205 139 204
3 174 204 154
3 123 193 191
3 141 193 142
3 142 193 195
3 195 193 194
3 193 123 206
3 206 194 193
3 139 205 134
3 134 205 135
3 135 174 60
3 60 174 59
3 176 69 76
3 76 69 68
3 66 69 175
3 69 207 175
3 69 176 207
3 175 207 147
3 66 175 65
3 65 175 146
3 147 207 149
3 207 176 149
3 142 195 127
3 127 195 128
3 194 206 201
3 201 206 123

CELL_TYPES 412
5
5
5
5
5
5
5
5
5
5
5
5
5
5
5
5
5
5
5
5
5
5
5
5
5
5
5
5
5
5
5
5
5
5
5
5
5
5
5
5
5
5
5
5
5
5
5
5
5
5
5
5
5
5
5
5
5
5
5
5
5
5
5
5
5
5
5
5
5
5
5
5
5
5
5
5
5
5
5
5
5
5
5
5
5
5
5
5
5
5
5
5
5
5
5
5
5
5
5
5
5
5
5
5
5
5
5
5
5
5
5
5
5
5
5
5
5
5
5
5
5
5
5
5
5
5
5
5
5
5
5
5
5
5
5
5
5
5
5
5
5
5
5
5
5
5
5
5
5
5
5
5
5
5
5
5
5
5
5
5
5
5
5
5
5
5
5
5
5
5
5
5
5
5
5
5
5
5
5
5
5
5
5
5
5
5
5
5
5
5
5
5
5
5
5
5
5
5
5
5
5
5
5
5
5
5
5
5
5
5
5
5
5
5
5
5
5
5
5
5
5
5
5
5
5
5
5
5
5
5
5
5
5
5
5
5
5
5
5
5
5
5
5
5
5
5
5
5
5
5
5
5
5
5
5
5
5
5
5
5
5
5
5
5
5
5
5
5
5
5
5
5
5
5
5
5
5
5
5
5
5
5
5
5
5
5
5
5
5
5
5
5
5
5
5
5
5
5
5
5
5
5
5
5
5
5
5
5
5
5
5
5
5
5
5
5
5
5
5
5
5
5
5
5
5
5
5
5
5
5
5
5
5
5
5
5
5
5
5
5
5
5
5
5
5
5
5
5
5
5
5
5
5
5
5
5
5
5
5
5
5
5
5
5
5
5
5
5
5
5
5
5
5
5
5
5
5
5
5
5
5
5
5
5
5
5
5
5
5
5
5
5
5
5
5
5
5
5
5
5
5
5
5
5
5
5
5
5
5
5
5
5

CELL_DATA 412
SCALARS cell_data_0 double
LOOKUP_TABLE default
1.92257505565e-08
1.14894162456e-07
8.80550360717e-08
1.52504328643e-07
1.88568886734e-07
3.89931754984e-07
8.22420293616e-07
2.79785287981e-08
5.0233156896e-08
1.74548675912e-07
1.85749090432e-07
3.51047402676e-08
4.91422959798e-08
2.67715531037e-08
2.27771158218e-08
6.30514836535e-08
3.00208520738e-08
1.2673985462e-08
8.62586772409e-09
1.71246643292e-08
8.56703476792e-09
1.27211589983e-08
2.07114718405e-09
1.77623527739e-07
6.20753838316e-06
6.79063926514e-06
1.26356024254e-07
1.78764155714e-07
2.89295197933e-07
1.1745606261e-07
2.27267226608e-07
1.35471362428e-07
7.38966929394e-08
1.38813227765e-07
9.62144786438e-08
4.05874966067e-07
2.79100285686e-07
2.3395160908e-08
1.62777408523e-07
9.33628078502e-08
2.35049386402e-07
1.83050134004e-08
6.4579893074e-08
1.75446530284e-07
1.08249452856e-07
4.01263828461e-07
1.14235405903e-07
5.81382519698e-07
3.24671804886e-08
6.87218297636e-08
5.7098975978e-07
2.48028620452e-07
3.23069519608e-07
9.98274969424e-08
5.9131712902e-09
1.82063940499e-07
4.27810508677e-07
1.41544905693e-07
1.41649850093e-07
1.29860643032e-07
1.31388757345e-06
8.43874207343e-08
2.9748108777e-08
1.87953202195e-08
1.19168752471e-07
1.04955093799e-07
1.28174059122e-08
2.55786014146e-08
6.21517755561e-08
7.0235884651e-09
5.1064939301e-08
6.34404936124e-09
1.27171883685e-08
8.79563768861e-08
7.29432826279e-09
1.23078485283e-08
1.00154717376e-07
7.23888900052e-07
1.03979665269e-06
2.36634877895e-08
1.15648676936e-07
2.17433617364e-06
1.41726088583e-06
2.52507379281e-06
3.18820163639e-06
5.86430131986e-06
2.56148961551e-06
4.41591390692e-07
1.00527345807e-06
1.03663436824e-06
1.52781707145e-06
6.49089768495e-08
3.91097032083e-07
9.16392745663e-09
6.83202075061e-07
3.23880091453e-07
9.61942737229e-07
3.25037643839e-07
1.73424705623e-07
1.59923618727e-07
6.03394199952e-07
1.20515763523e-06
2.20193042072e-06
2.43722374901e-07
8.68613075802e-07
1.34299235863e-06
6.12454220847e-08
2.79214112246e-07
1.42326008281e-07
2.51830705945e-09
7.35212990542e-08
8.99656463646e-08
2.79054268134e-07
1.33714192785e-06
3.34164123084e-07
5.61915238986e-08
2.91561159665e-06
2.44750372799e-06
8.99080405891e-07
1.02077602106e-06
7.29456842097e-07
9.93658976774e-07
5.56706810967e-07
9.74567423448e-07
6.3299843555e-08
1.606307341e-07
1.19642692694e-06
4.44030632213e-06
8.46420057285e-06
9.19697445326e-07
5.6040666154e-06
3.00092019236e-07
1.17095315254e-06
6.37121715328e-07
2.55073084576e-07
2.72975555735e-06
2.26748536748e-06
7.6631546276e-07
8.6862126286e-06
8.5555619512e-07
1.33276541261e-06
3.38078124138e-08
5.20259629868e-09
7.24371473959e-08
7.02324102594e-08
6.39096647697e-08
8.05073612631e-08
8.30580744748e-07
3.20708896392e-08
1.12370109328e-07
3.27888981542e-07
9.22917892436e-08
3.03959748517e-08
1.36104606588e-07
3.75609597398e-07
4.85503632218e-07
1.37293696812e-06
2.69860484527e-07
2.33402402564e-07
1.27168131452e-07
6.26836387453e-08
5.85432786916e-07
1.70560254946e-07
4.33202462426e-07
1.57893976163e-06
6.24826529454e-07
1.88607450388e-07
5.94829946717e-07
1.24808115227e-07
1.81874492349e-07
4.34136509731e-07
4.57381850047e-09
3.02969204169e-09
1.62821959198e-08
4.75259311712e-08
1.53893374687e-07
2.41121320064e-07
3.24914113785e-07
5.8560453718e-08
2.19513192352e-08
2.37334612844e-07
1.7448008757e-06
7.11838725769e-08
1.60015415523e-07
2.72627865436e-06
2.40232315342e-06
1.35969326865e-07
5.42444607211e-07
2.14818195606e-06
9.08138316087e-07
5.54925412062e-08
7.97416443045e-08
3.88586099493e-08
1.30018757364e-07
9.35154108971e-08
1.55762695717e-08
9.36826195412e-10
4.30676670908e-08
7.84571528217e-08
2.64980218611e-08
2.4790600459e-07
2.85935971757e-07
2.3348324973e-08
1.62650150708e-07
1.85632094362e-08
2.71088441668e-08
2.9425281466e-08
8.32002366985e-08
1.52166598494e-06
3.71312989486e-08
4.43901937513e-08
3.95026977163e-08
1.73115700134e-06
2.35806085718e-07
4.87676806972e-08
3.10411132572e-07
9.98153163437e-08
3.20951057844e-08
3.68024403774e-07
3.15676057185e-07
1.70575943039e-07
2.09255984505e-07
1.22765925295e-07
2.65674503855e-07
2.64235070863e-07
2.9908541387e-07
9.88015859437e-09
2.230995656e-08
3.45133391591e-10
3.41271173677e-08
8.80774833727e-08
6.12007564468e-08
2.60169756106e-09
3.54671513297e-08
2.73284422042e-08
1.14801578663e-08
1.75421706578e-08
7.62451609834e-08
6.94006995309e-08
1.58296295379e-07
2.66459981932e-08
1.43192670379e-07
2.12031577878e-08
1.52136596408e-08
1.32450861796e-08
1.4700926791e-08
1.48152225828e-07
3.74655520524e-08
9.02725520752e-08
1.06075020466e-06
2.80505263837e-07
8.3086575856e-06
3.93337481729e-06
5.07051525912e-06
1.90822875397e-06
1.69698659085e-07
5.85366437748e-07
1.00220389728e-07
2.98441973155e-07
2.05322624615e-06
1.71937933844e-07
2.07997936002e-07
2.56067846302e-06
3.10444842675e-06
5.30669062001e-06
1.80104509865e-06
1.13958530769e-07
3.48857636169e-08
4.96578352549e-08
8.19714251613e-08
1.28971895354e-06
4.54632464539e-07
7.76167038723e-07
3.32805790139e-07
6.8393643514e-08
2.57713216528e-07
2.30917208135e-08
1.28412438333e-07
1.10161934347e-07
2.92050528799e-08
7.08316524363e-07
9.93267156162e-09
7.74026956889e-07
1.68809061006e-07
4.11380107848e-07
2.64740757824e-07
9.37952229605e-07
1.29595531565e-07
5.95798818434e-07
1.31867919447e-06
2.52428894106e-06
6.3735532716e-07
4.96609071958e-07
1.06191704339e-07
2.82919992884e-07
4.1378279339e-08
4.10033837531e-07
4.63165574703e-06
8.00020145255e-07
2.83655500005e-07
2.29364342148e-07
1.0366078526e-07
2.715042627e-08
5.90337935149e-08
6.14819501585e-08
8.35012126977e-07
2.55592404471e-07
9.17485143264e-08
5.76039093712e-07
2.93382671605e-07
5.52152257128e-07
4.78473481318e-07
3.62412194618e-06
5.26170510396e-06
5.00200339072e-06
1.23145047519e-05
3.81695664728e-06
1.80843130024e-07
3.25183537836e-07
9.06498926349e-08
3.75320828676e-06
3.55345277011e-06
6.00730910852e-06
8.57827230849e-06
2.84227995744e-06
6.26267140234e-08
4.93270849827e-07
1.31409717369e-07
1.80637337696e-06
7.16196988399e-06
9.49585435303e-06
5.75983977415e-08
1.35275335915e-09
2.39238988945e-07
3.98350474106e-08
3.57458824364e-07
5.92672511674e-06
1.42502092694e-06
3.5159537791e-07
3.64727156126e-08
4.83843009689e-07
7.57439102316e-07
2.20541451659e-07
4.57065372175e-07
1.36320709576e-07
7.69459570994e-08
1.7799489772e-07
4.86836123921e-07
4.64291810135e-07
1.62631591201e-06
2.70762065596e-06
1.28414324602e-05
2.34734567824e-06
4.09795511479e-07
8.54225974129e-07
1.05908510881e-06
1.94475225245e-06
3.49084048964e-07
3.19595051995e-06
9.02476685718e-07
4.27962329866e-07
9.39735885267e-08
1.35759161936e-07
2.49142525697e-07
1.71688481031e-07
7.91729951928e-07
4.71445153924e-07
4.74274526867e-08
1.53375583422e-07
4.06307073119e-06
1.77048335536e-07
3.00643766343e-06
2.29048697908e-06
1.46911849614e-06
1.27569990195e-07
1.83571070986e-06
1.07655725144e-07
1.00415466885e-06
4.20127460558e-07
1.46297171987e-06
1.15752207025e-06
1.07088284285e-06
2.47450008863e-07
1.55698553947e-06
1.4320167848e-06
1.62890522487e-06
2.04818536194e-06
4.79376038576e-08
3.05537763809e-06
2.00518061258e-06
3.55617452676e-06
3.27280948121e-06
8.07708130448e-07
1.04098908047e-06
9.98088375758e-06
1.36558837482e-07
5.23407746402e-07
6.04412702358e-08
1.07970211105e-06
2.4382714037e-08
3.63342500067e-07
1.44028536333e-06
9.37665491635e-07
8.61165142644e-07
1.0847272081e-08
5.23632802377e-07
2.24317859641e-06
2.27076887723e-06
3.54583418425e-06
4.5271640279e-06
4.8441471219e-07
2.51191321572e-07

