# vtk DataFile Version 3.0
File Name: Molecule/arg/arg_1.0-1.vtk
ASCII
DATASET UNSTRUCTURED_GRID
FIELD FieldData 1
TIME 1 1 double
0.0
POINTS 191 double
-3.4433333874 0.24837963283 1.4162664413
-3.0907781124 -0.093681588769 0.48400890827
-3.0247979164 -0.43689358234 1.6416326761
-2.7245604992 -0.52513873577 0.46084904671
-2.9925806522 0.087639376521 0.025405567139
-2.3036687374 -0.30720093846 -0.45093521476
-2.2936265469 -0.37387818098 -0.99313986301
-2.1168923378 -0.67559176683 -0.81256890297
-2.5934863091 1.487678647 -0.69083428383
-2.514844656 -0.022799424827 -1.0829912424
-2.2269151211 1.151309967 -1.6021174192
-1.9472484589 1.6567373276 -1.0942269564
-2.6132326126 1.9587072134 -0.40627959371
-1.4647563696 3.1676294804 0.22641807795
-1.7650325298 2.4872341156 -0.62257564068
-2.4911055565 2.6512408257 0.64125919342
-3.0371952057 2.3491714001 1.6099612713
-1.8467335701 3.3344511986 1.5121315718
-2.518871069 2.9866070747 2.3050637245
-2.7036838531 2.5756406784 2.5777726173
-2.9852817059 2.0300769806 2.5970757008
-3.4245438576 1.7921900749 1.7770441771
-3.3877179623 0.77444088459 1.9474449158
-3.1037838459 1.792206049 3.021586895
-3.1478281021 0.79746574163 2.8829131126
-3.0455329418 0.42170506716 2.2851965427
-3.1125867367 0.11129011959 1.8539605141
-2.8648679256 0.24195878208 3.2335195541
-2.7675950527 -0.038193114102 2.4871845245
-2.9692168236 -0.23242047429 1.9387243986
-2.5067534447 -0.72139596939 2.4175260067
-2.3345139027 -0.2422029078 3.3924453259
-1.729937911 -1.7067778111 1.3901534081
-1.9763036966 -1.3289794922 3.2699685097
-0.98009878397 -2.2627635002 2.1181180477
-2.3042619228 -1.0109635592 0.32913193107
-0.98589134216 -2.2094717026 0.29415458441
-1.9103851318 -1.3270322084 -0.43292024732
-1.910700202 -1.2748697996 -1.0776591301
-2.0971748829 -0.68633621931 -1.2215551138
-1.7539284229 -0.78746569157 -2.0412876606
-2.2264983654 -0.447080791 -0.87013947964
-2.2212598324 -0.43153756857 -1.8868846893
-1.5812327862 -1.5374726057 -1.80209589
-2.1185367107 0.21431091428 -2.3860878944
-1.5567440987 0.14332830906 -2.7027666569
-1.8517676592 0.96519261599 -2.3777418137
-1.0614749193 0.56217968464 -3.3894171715
-1.5707520247 1.452436924 -2.2407484055
-1.8706771135 1.4509549141 -1.772664547
-1.3020619154 1.4997589588 -2.7484667301
-1.1034702063 2.0534906387 -2.2197153568
-1.4857709408 1.8256635666 -1.7289273739
-1.2095314264 2.4656596184 -1.3630324602
-0.51092147827 2.5366990566 -2.3532824516
-0.27348729968 2.9309751987 -1.7803428173
-0.93816888332 3.0746974945 -1.1079833508
0.41128835082 3.0883364677 -1.0493494272
0.36639150977 3.052259922 -2.1336963177
-0.046488568187 3.3382122517 -2.9943673611
0.92002385855 3.2425818443 -2.834936142
1.0635865927 2.4632873535 -0.46536332369
0.85193163157 2.6587967873 -1.4478063583
1.5103363991 1.9554015398 -1.0782686472
0.92966926098 2.7959899902 0.34276488423
1.5393610001 1.9169166088 0.06712988019
1.2186198235 2.206485033 1.008186698
0.27603891492 3.0715007782 0.98434484005
1.2604663372 2.2482755184 1.9870111942
0.73534822464 2.7648749352 2.4710595608
-0.14776869118 3.3971505165 2.0586047173
-0.5635420084 3.2794804573 3.5153141022
0.002406769665 2.6098828316 4.0484781265
-0.78437155485 2.8190495968 3.9334344864
-1.2941349745 3.6796154976 3.3883852959
-1.8703409433 2.8459572792 3.7698898315
-2.0410871506 3.2471020222 3.3711941242
-2.2628293037 2.6895861626 3.583930254
-1.0785037279 2.1314229965 4.3804645538
-0.48882564902 1.6575814486 4.6182985306
-2.448877573 2.2240476608 4.1057562828
-1.5618866682 1.7512172461 4.5644302368
-0.27771112323 1.0560078621 4.7830233574
-1.2112845182 1.0763163567 4.6497883797
-0.041511110961 0.40399518609 5.0404243469
-0.59800314903 0.19680699706 4.8124842644
-1.6430006027 0.70256912708 4.6419606209
-0.85514521599 -0.39957809448 4.7883043289
-1.6813325882 -0.88620680571 4.3357548714
-2.3497364521 0.23915396631 4.2320399284
0.33888626099 -0.45666569471 5.1815671921
0.16706475616 -1.1860232353 5.0835986137
1.2520028353 -0.80482560396 5.3380613327
1.581007123 -1.8293198347 4.6721992493
0.56044852734 -2.2834861279 4.4982800484
1.0665842295 -2.473208189 3.2701656818
1.9832212925 -2.0898077488 3.4698543549
1.9331560135 -1.474845767 2.3415660858
1.0192425251 -1.8554844856 2.1246130466
0.7696608305 -1.6636561155 1.2418655157
0.13235159218 -2.1517338753 1.238068819
0.14141653478 -2.602189064 2.260792017
1.0499073267 -1.8226751089 0.33334851265
0.049287907779 -2.4809942245 0.29472222924
-0.77970176935 -1.983963728 1.1874228716
1.3944950104 -0.83481985331 1.0954498053
1.4151157141 -1.0312552452 0.17472055554
1.2535499334 -1.2098478079 1.4964624643
2.3324120045 -0.71742594242 1.9779906273
1.7009363174 -0.10580281168 0.67933678627
1.770439744 0.21100063622 -0.22978766263
1.6525582075 -0.65452611446 -0.71315979958
1.5319876671 -1.5967373848 -1.5023065805
2.196138382 -0.15775875747 -1.4376708269
2.0736069679 -1.1074998379 -2.2474431992
1.0503722429 -1.4596147537 -2.8929560184
0.49787029624 -2.1576793194 -2.1503992081
-0.2817581296 -1.4148013592 -2.6503708363
0.10877875984 -0.70355606079 -3.5254440308
-0.37719702721 -0.71822816133 -3.021515131
-0.99799251556 -0.69898533821 -2.6584539413
-0.70535069704 -0.30148023367 -3.1963860989
-0.98672682047 -1.3292235136 -2.400396347
-0.028165664524 0.55994719267 -4.038257122
0.5440453887 0.41041702032 -4.2396478653
0.12486602366 2.0093288422 -4.1271409988
0.36948040128 1.3413001299 -4.3976430893
-0.42164635658 1.9275873899 -3.5728514194
0.014653871767 2.9964373112 -3.6768784523
0.91613209248 2.2177584171 -4.0285568237
0.47408270836 2.9709413052 -3.8883228302
1.5834105015 2.513130188 -3.3372349739
1.6589657068 2.6877467632 -2.5157265663
0.80213052034 2.9750864506 -2.3278987408
1.1343308687 2.6067006588 -1.9820261002
2.1084353924 1.6529692411 -1.9631896019
2.1894657612 2.1631996632 -2.5284087658
2.0265851021 0.90329575539 -1.1872304678
2.3500425816 0.60716575384 -1.6171853542
2.4300248623 1.25639081 -2.2869622707
1.9723814726 0.93234038353 0.011405008845
1.8441944122 2.0397496223 -3.4151535034
1.8456785679 1.3000020981 -3.812690258
1.1752912998 1.6448664665 -4.1883177757
1.8835624456 1.3137004375 1.3390401602
2.5436367989 0.95080810785 2.584813118
1.8519597054 1.5687227249 2.330452919
1.6932700872 2.1848347187 3.1720705032
2.372040987 1.4408334494 3.4564366341
1.4424774647 1.7655278444 4.272793293
2.1976325512 1.1986783743 4.6246919632
1.369330287 0.76053458452 5.0785708427
0.5239393115 1.5590759516 4.7613997459
0.6027277112 0.85430079699 4.9816207886
0.94322729111 3.0394208431 -3.700083971
-3.5271131992 2.204750061 0.82250744104
-3.5323731899 1.6286146641 -0.078953757882
-3.9372515678 1.159640193 0.84759300947
-2.6783797741 -1.2418551445 1.3419800997
0.54644602537 3.3684489727 -0.085430689156
-1.1138352156 4.0091238022 2.4959552288
-2.1280882359 3.6430048943 2.5088927746
-2.8501803875 1.3419311047 4.3451828957
-0.63603073359 -2.6129720211 4.2843518257
-0.80158627033 -1.6629823446 4.9317059517
-1.5614334345 -1.8444577456 4.2510557175
-0.82763648033 -2.849252224 3.2127592564
0.27370458841 -2.9096674919 3.3884725571
0.48983201385 -2.7864003181 -0.90599125624
-0.77412170172 -2.7651202679 -0.75765961409
-0.59260505438 -2.4379293919 -1.9521416426
1.3685668707 -2.1109609604 -0.74740761518
0.90335059166 2.4549453259 4.0748329163
3.6675009727 -0.31391009688 3.6998353004
3.3286247253 0.75310611725 3.6968612671
3.3281025887 0.19396106899 4.633626461
3.3346011639 -0.883895576 4.5817537308
3.2244794369 -1.4948598146 3.6872057915
3.2396731377 -0.8525365591 2.6661720276
3.3362948895 0.18631014228 2.7784729004
2.3078539371 0.2117793113 5.3886499405
2.4692931175 -0.82837617397 5.3331141472
2.4945070744 -1.7037813663 4.6697993279
2.9128885269 0.11214725673 -2.6017098427
2.5698850155 -0.62440824509 -3.3692924976
2.6626076698 0.48014006019 -3.6150023937
1.8076850176 -1.2265523672 -3.3989746571
1.8081395626 -0.4408479929 -4.1865267754
0.87777495384 -0.71290934086 -4.0966043472
1.0773966312 3.2040424347 -3.3720419407
0.23486328125 3.3363659382 -3.7609651089

CELLS 378 1512
3 0 1 2
3 2 1 3
3 1 4 3
3 5 6 7
3 4 8 9
3 9 8 10
3 8 11 10
3 12 11 8
3 13 14 15
3 12 15 14
3 15 16 17
3 17 16 18
3 19 16 20
3 21 20 16
3 21 22 23
3 23 22 24
3 25 22 26
3 0 26 22
3 24 25 27
3 28 27 25
3 28 26 29
3 29 26 2
3 2 30 29
3 30 31 28
3 30 32 33
3 33 32 34
3 32 35 36
3 36 35 37
3 35 5 37
3 3 5 35
3 37 7 38
3 38 39 40
3 39 41 6
3 9 6 5
3 9 42 6
3 43 38 40
3 42 44 40
3 45 40 44
3 44 46 45
3 45 46 47
3 48 46 49
3 10 49 46
3 50 48 51
3 52 51 48
3 52 11 53
3 53 11 14
3 51 53 54
3 54 53 55
3 56 57 55
3 55 57 58
3 55 58 54
3 59 58 60
3 57 61 62
3 62 61 63
3 61 64 65
3 65 64 66
3 64 67 66
3 68 67 69
3 70 67 17
3 13 17 67
3 70 71 69
3 69 71 72
3 73 74 75
3 76 75 74
3 75 76 77
3 18 19 76
3 73 78 72
3 72 78 79
3 80 81 75
3 77 80 75
3 80 77 23
3 20 23 19
3 82 79 83
3 81 83 79
3 84 82 85
3 86 85 83
3 87 86 88
3 89 88 86
3 89 31 88
3 88 31 33
3 85 87 90
3 91 90 87
3 92 91 93
3 94 93 91
3 94 95 93
3 93 95 96
3 96 95 97
3 98 97 95
3 99 98 100
3 101 100 98
3 99 100 102
3 103 102 100
3 104 100 34
3 101 34 100
3 100 104 103
3 103 104 36
3 102 105 99
3 106 105 102
3 97 107 108
3 105 108 107
3 109 106 110
3 111 110 106
3 111 112 113
3 113 112 114
3 114 112 115
3 116 115 112
3 116 117 115
3 115 117 118
3 119 117 120
3 121 119 120
3 120 122 40
3 43 40 122
3 120 45 121
3 121 45 47
3 123 118 121
3 118 123 124
3 125 126 127
3 123 127 126
3 127 54 128
3 128 54 59
3 129 125 130
3 131 60 132
3 60 133 132
3 58 62 133
3 134 135 132
3 132 135 136
3 137 138 135
3 139 135 138
3 137 63 140
3 140 63 65
3 140 110 137
3 110 113 137
3 136 139 141
3 142 141 139
3 142 124 143
3 143 124 126
3 143 129 141
3 141 129 131
3 109 144 108
3 108 144 145
3 146 144 68
3 66 68 144
3 147 148 146
3 145 146 148
3 147 149 148
3 148 149 150
3 150 149 151
3 152 151 149
3 152 82 153
3 153 82 84
3 153 90 151
3 151 90 92
3 26 0 2
3 5 3 4
3 4 9 5
3 49 10 11
3 14 11 12
3 17 13 15
3 19 18 16
3 23 20 21
3 25 24 22
3 27 28 31
3 33 31 30
3 104 34 32
3 104 32 36
3 7 37 5
3 7 39 38
3 42 40 39
3 50 47 46
3 48 50 46
3 53 51 52
3 59 54 58
3 56 55 53
3 134 133 62
3 62 58 57
3 65 63 61
3 68 66 67
3 70 69 67
3 73 72 71
3 81 79 78
3 83 85 82
3 87 85 86
3 92 90 91
3 107 97 98
3 107 98 99
3 107 99 105
3 109 108 105
3 109 105 106
3 113 110 111
3 119 118 117
3 122 120 117
3 126 124 123
3 128 125 127
3 131 129 154
3 134 132 133
3 139 136 135
3 138 137 113
3 143 141 142
3 146 145 144
3 153 151 152
3 155 156 157
3 157 156 4
3 0 157 1
3 157 0 22
3 157 22 21
3 157 21 155
3 155 21 16
3 155 16 15
3 156 155 12
3 15 12 155
3 156 12 8
3 156 8 4
3 4 1 157
3 3 35 158
3 3 158 2
3 2 158 30
3 28 29 30
3 30 158 32
3 32 158 35
3 41 39 7
3 41 7 6
3 10 44 9
3 42 9 44
3 39 6 42
3 46 44 10
3 11 52 49
3 49 52 48
3 13 67 159
3 13 159 56
3 13 56 14
3 53 14 56
3 56 159 57
3 57 159 61
3 61 159 64
3 64 159 67
3 74 160 161
3 74 161 76
3 71 74 73
3 74 71 160
3 160 71 70
3 160 70 17
3 160 17 161
3 161 17 18
3 161 18 76
3 78 75 81
3 19 77 76
3 77 19 23
3 75 78 73
3 24 27 162
3 24 162 23
3 23 162 80
3 80 162 81
3 162 86 81
3 83 81 86
3 86 162 89
3 89 162 27
3 89 27 31
3 26 28 25
3 163 164 165
3 163 165 166
3 163 166 167
3 163 167 94
3 163 94 164
3 164 94 91
3 164 91 87
3 164 87 88
3 164 88 165
3 165 88 33
3 165 33 166
3 166 33 34
3 166 34 101
3 166 101 167
3 167 101 95
3 167 95 94
3 95 101 98
3 168 169 170
3 168 170 116
3 168 116 171
3 168 171 102
3 168 102 103
3 168 103 169
3 169 103 36
3 169 36 37
3 169 37 38
3 169 38 43
3 169 43 170
3 170 43 122
3 170 122 117
3 170 117 116
3 102 171 106
3 106 171 111
3 111 171 112
3 112 171 116
3 45 120 40
3 50 51 127
3 50 127 47
3 47 127 123
3 47 123 121
3 119 121 118
3 127 51 54
3 133 60 58
3 63 137 135
3 63 135 134
3 63 134 62
3 66 144 65
3 65 144 140
3 110 140 109
3 144 109 140
3 69 72 172
3 69 172 147
3 69 147 68
3 68 147 146
3 147 172 149
3 149 172 152
3 152 172 72
3 152 72 79
3 152 79 82
3 85 90 84
3 84 90 153
3 173 174 175
3 173 175 176
3 173 176 177
3 173 177 178
3 173 178 179
3 173 179 174
3 175 180 181
3 176 175 181
3 176 181 182
3 177 176 182
3 177 182 96
3 177 96 97
3 177 97 178
3 178 97 108
3 178 108 179
3 179 108 145
3 179 145 174
3 174 145 148
3 174 148 150
3 174 150 175
3 175 150 180
3 180 150 151
3 180 151 92
3 180 92 181
3 181 92 93
3 181 93 182
3 182 93 96
3 183 184 185
3 184 186 187
3 185 184 187
3 187 186 188
3 187 188 124
3 187 124 142
3 187 142 185
3 185 142 139
3 185 139 183
3 183 139 138
3 183 138 113
3 183 113 114
3 183 114 184
3 184 114 186
3 186 114 115
3 186 115 188
3 188 115 118
3 188 118 124
3 125 129 126
3 126 129 143
3 132 136 131
3 131 136 141
3 128 130 125
3 129 130 154
3 154 189 131
3 189 60 131
3 60 190 59
3 59 190 128
3 189 154 190
3 130 190 154
3 130 128 190
3 189 190 60

CELL_TYPES 378
5
5
5
5
5
5
5
5
5
5
5
5
5
5
5
5
5
5
5
5
5
5
5
5
5
5
5
5
5
5
5
5
5
5
5
5
5
5
5
5
5
5
5
5
5
5
5
5
5
5
5
5
5
5
5
5
5
5
5
5
5
5
5
5
5
5
5
5
5
5
5
5
5
5
5
5
5
5
5
5
5
5
5
5
5
5
5
5
5
5
5
5
5
5
5
5
5
5
5
5
5
5
5
5
5
5
5
5
5
5
5
5
5
5
5
5
5
5
5
5
5
5
5
5
5
5
5
5
5
5
5
5
5
5
5
5
5
5
5
5
5
5
5
5
5
5
5
5
5
5
5
5
5
5
5
5
5
5
5
5
5
5
5
5
5
5
5
5
5
5
5
5
5
5
5
5
5
5
5
5
5
5
5
5
5
5
5
5
5
5
5
5
5
5
5
5
5
5
5
5
5
5
5
5
5
5
5
5
5
5
5
5
5
5
5
5
5
5
5
5
5
5
5
5
5
5
5
5
5
5
5
5
5
5
5
5
5
5
5
5
5
5
5
5
5
5
5
5
5
5
5
5
5
5
5
5
5
5
5
5
5
5
5
5
5
5
5
5
5
5
5
5
5
5
5
5
5
5
5
5
5
5
5
5
5
5
5
5
5
5
5
5
5
5
5
5
5
5
5
5
5
5
5
5
5
5
5
5
5
5
5
5
5
5
5
5
5
5
5
5
5
5
5
5
5
5
5
5
5
5
5
5
5
5
5
5
5
5
5
5
5
5
5
5
5
5
5
5
5
5
5
5
5
5
5
5
5
5
5
5
5
5
5
5
5
5
5
5
5
5
5
5
5
5
5
5
5
5

CELL_DATA 378
SCALARS cell_data_0 double
LOOKUP_TABLE default
1.67966188219e-08
1.15183652901e-07
9.90151207108e-08
1.59159380479e-07
2.16740692273e-07
3.55099387013e-07
8.8145395148e-07
1.36283942198e-08
8.32436532905e-08
2.35114463479e-07
1.7996063536e-07
5.77992590608e-09
5.19953166423e-08
3.30860820391e-08
5.06932749376e-08
6.24778458551e-09
3.27887283221e-08
1.10537726127e-08
1.08463560185e-08
2.32038252492e-08
7.68684664797e-09
3.55603544112e-09
7.66833905085e-09
1.50183549587e-07
6.3180353231e-06
7.12989139791e-06
6.82602996234e-08
1.94139345591e-07
3.58546745852e-07
1.09374679802e-07
1.37356308053e-07
1.24506175379e-07
1.71777148322e-07
3.28003747311e-07
3.04026425818e-08
4.0051336999e-07
4.01707209084e-07
7.2437334858e-08
9.7937319632e-08
9.77179859833e-08
2.26147100204e-07
4.98907541534e-08
8.99434614699e-08
1.29165479743e-07
1.5978967215e-07
3.48959127608e-07
7.86218201242e-09
1.9983202773e-08
9.53528950723e-08
1.66592824011e-08
1.11756925509e-06
4.74196916009e-06
3.12355202592e-07
4.60076099471e-08
1.96839264752e-07
2.57205440515e-08
2.32006830214e-07
1.61168554995e-06
4.29933163444e-07
3.08086628121e-07
2.67799297291e-07
3.45109381857e-06
6.22382859996e-08
3.71791861689e-08
2.05985080909e-08
1.13596352071e-07
1.07766113188e-07
4.15568860921e-08
2.8471928478e-08
7.34653923551e-08
2.50045429224e-08
5.13165772737e-09
3.03172357881e-08
8.27296586759e-08
8.23071832446e-08
1.12724008951e-08
3.79994722079e-08
8.27739333109e-08
6.50408080189e-07
1.26820579011e-06
4.07691346485e-08
1.15063786741e-07
2.14705259269e-06
1.16947836074e-06
2.39310060406e-06
3.10998270568e-06
5.24799916629e-06
2.35763144271e-06
4.48558363378e-07
1.02633249113e-06
9.94248440841e-07
1.47984392827e-06
2.96317658648e-08
3.84803780531e-07
2.78760820522e-08
6.48816290698e-07
3.16392327207e-07
8.75751620507e-07
5.05448673935e-07
5.33244468029e-08
1.31124968145e-07
6.02253659512e-07
1.17157662214e-06
2.19677955566e-06
5.79114996651e-07
1.06094134614e-06
1.51118784751e-06
4.97090225588e-07
3.60564825093e-07
1.24907582031e-07
3.7909879525e-08
6.2680005666e-08
4.65344760694e-08
4.3657403653e-07
2.51575094018e-06
1.1312898538e-06
8.54597754208e-07
1.61156741011e-05
3.70789629673e-06
5.04258462078e-06
2.01491962952e-06
9.12690757184e-06
4.26293444632e-06
1.41531951408e-06
7.71987059272e-06
2.92094179646e-06
2.30123046546e-07
7.77437101002e-07
9.94152713773e-07
8.03930989275e-09
2.48958436613e-07
1.24733395429e-06
2.37417086619e-06
9.80386908946e-06
9.78397082212e-06
1.3780437946e-05
5.72235110438e-06
5.89062138801e-06
3.65515959936e-07
1.98862693331e-06
1.87859873395e-07
3.84624571033e-07
5.11926318666e-06
8.68077625736e-07
5.05225793307e-06
6.85988945108e-06
1.09497605202e-06
1.33288214283e-06
1.14625674498e-08
3.17397838202e-08
2.56121776055e-08
7.55828997378e-08
7.05653144174e-08
1.06409942921e-07
8.72263676195e-07
2.25906675386e-08
9.89992407495e-08
3.63316801459e-07
8.76999866605e-08
6.21918860062e-08
8.47492897683e-08
3.30518405969e-07
8.51896004047e-07
1.43000033717e-06
2.95506281859e-07
4.60087880581e-07
1.21717016943e-07
1.02966065279e-07
4.03658338858e-07
1.24354301928e-07
4.79148134027e-07
6.96896378066e-06
7.14759480037e-07
2.57248610655e-07
5.01906507906e-07
1.00228056851e-07
4.46067494985e-08
1.27167997509e-06
3.03045028667e-08
1.88618929618e-09
4.51735984913e-08
3.75593979782e-08
1.5780320711e-07
2.1529606739e-08
3.15613168199e-07
1.20864323805e-07
4.56741265747e-08
2.73821592324e-07
1.76896754322e-06
1.36216071833e-08
1.43499939696e-07
1.15331270559e-05
2.69065421955e-06
2.01027309256e-06
9.06841194191e-07
7.03066361424e-06
3.98927740369e-07
2.82199195363e-07
4.56077433984e-08
5.55641077435e-08
9.70998710077e-08
3.20261342464e-08
1.55195607502e-07
9.63598907655e-08
4.02641822203e-08
7.45755447245e-09
3.76073762264e-08
7.10380309957e-08
3.5668645529e-09
2.98307052991e-07
2.76612220001e-07
6.44481071612e-08
1.44608136207e-07
3.5324174964e-08
4.9230000331e-08
4.9831612794e-08
1.03430381427e-07
1.56060852968e-06
6.41900369645e-08
2.68024045835e-07
1.32865852404e-07
1.92500875513e-06
3.95575388878e-07
1.78941131185e-07
3.83432238632e-07
1.57973926167e-07
2.3298213291e-08
4.95616718476e-07
3.29050000395e-07
1.54129194227e-07
2.15184267094e-07
9.65311515195e-08
3.62511003167e-07
1.98259083768e-07
2.8386631086e-07
3.47757546993e-08
4.14367592297e-08
1.34762367033e-08
6.39295322192e-08
4.06717351595e-07
1.35890319045e-07
2.58039491446e-08
4.40492714353e-08
4.53939644693e-09
3.80468634203e-08
4.70978005051e-08
8.6584502198e-08
4.53475148366e-08
1.55962048301e-07
4.18950310552e-08
1.26719349349e-07
3.02295220896e-08
2.16607015273e-08
2.39138764218e-08
1.11347215869e-08
1.52178928431e-07
2.02132537815e-08
9.20126907649e-08
1.1064438856e-06
3.18102826015e-07
8.1992824489e-06
3.35110679135e-06
4.95099525112e-06
1.90030611774e-06
1.50778871678e-07
5.70655783666e-07
7.25935842944e-08
2.81370624884e-07
2.02367804388e-06
4.36305762967e-07
2.473175341e-07
2.94622842722e-06
2.96749453826e-06
4.58320672261e-06
1.77002153057e-06
9.86294610837e-08
2.01440506205e-08
2.89502562924e-08
6.82118172612e-08
1.2471075923e-06
4.24428538784e-07
8.19431760865e-07
4.0974583275e-07
1.44345619953e-07
2.48408508597e-07
4.93420280015e-08
1.20644902962e-07
1.04650093968e-07
1.97408564277e-08
7.66273194944e-07
7.26250820289e-09
7.87027283477e-07
1.65836378322e-07
6.15952453203e-07
5.48242801849e-07
5.11397876614e-07
4.67186801079e-06
6.70514002641e-09
4.75135379447e-07
1.07614486082e-06
3.71132477484e-07
3.51549580171e-07
2.2396252517e-06
2.87256433692e-07
7.61923998414e-08
2.34089570997e-07
2.2701894516e-08
4.73601021476e-07
7.30536956272e-07
1.25893023942e-05
5.56632782201e-06
5.04204766166e-06
1.06662602756e-05
1.10000183604e-06
2.88920566429e-08
1.94389421337e-07
7.81713522006e-08
5.00923057083e-08
4.46020695688e-08
5.74949120611e-08
9.03862232686e-07
2.26211385341e-07
1.14668785056e-07
6.60396512954e-07
2.15397437701e-07
5.01982922716e-07
5.00328791621e-07
3.7580429377e-06
5.3920343839e-06
4.97175913793e-06
1.19414752921e-05
4.01360669284e-06
1.4791940216e-07
2.37914470101e-07
3.45620518129e-07
4.49948193779e-06
2.46826046072e-06
4.00953530796e-06
9.11619274369e-06
3.20257996593e-06
2.92843144747e-07
5.34353387173e-07
1.23005100318e-07
1.86836655095e-06
6.87114953527e-06
8.07517331134e-06
1.27643247868e-07
1.29967428416e-08
2.31161788031e-07
2.9086888526e-08
2.01393761209e-07
2.81594713116e-06
1.27357789175e-06
2.03070622276e-08
1.53836930514e-07
8.19548410547e-07
8.76213148394e-07
1.09892331908e-07
4.28538684623e-07
1.36492083956e-07
2.07358603807e-08
2.59386468065e-07
4.19505205239e-07
4.46209786161e-07
5.97542947922e-06
4.18804525936e-06
4.10355330446e-06
1.1212837801e-05
4.92612017352e-07
2.52560087139e-06
4.10491353401e-07
7.1599277245e-06
2.17411047208e-05
7.96426021416e-06
2.31312674104e-07
3.18675678931e-06
2.59817348439e-06
2.37094849628e-05

