# vtk DataFile Version 3.0
File Name: Molecule/arg/arg_9.0-0.vtk
ASCII
DATASET UNSTRUCTURED_GRID
FIELD FieldData 1
TIME 1 1 double
0.0
POINTS 1601 double
-3.403 0.327 1.604
-3.456 0.18 1.295
-3.138 0.005 1.702
-3.188 -0.134 1.407
-2.981 -0.361 1.858
-3.034 -0.507 1.549
-3.435 0.072 0.968
-3.169 -0.238 1.095
-3.014 -0.616 1.222
-3.344 0.007 0.641
-3.081 -0.299 0.784
-2.922 -0.68 0.895
-3.186 -0.009 0.334
-2.93 -0.315 0.491
-2.764 -0.697 0.588
-2.971 0.024 0.066
-2.725 -0.284 0.235
-2.549 -0.664 0.32
-2.984 0.046 0.042
-2.699 -0.017 -0.133
-2.712 0.004 -0.155
-2.471 -0.12 -0.363
-2.484 -0.099 -0.385
-2.302 -0.279 -0.611
-2.316 -0.256 -0.635
-2.2 -0.483 -0.862
-2.216 -0.458 -0.889
-3.183 0.343 -0.145
-2.753 0.07 -0.229
-2.923 0.323 -0.389
-2.57 0.022 -0.532
-2.724 0.253 -0.678
-2.446 -0.093 -0.847
-2.6 0.138 -0.992
-2.39 -0.269 -1.153
-2.559 -0.016 -1.312
-3.263 0.702 -0.308
-2.991 0.63 -0.528
-2.786 0.532 -0.805
-2.663 0.417 -1.12
-2.628 0.291 -1.452
-3.216 1.083 -0.43
-2.951 0.955 -0.632
-2.75 0.829 -0.899
-2.626 0.714 -1.214
-2.587 0.616 -1.556
-3.047 1.443 -0.495
-2.807 1.262 -0.688
-2.618 1.109 -0.95
-2.495 0.993 -1.265
-2.443 0.924 -1.611
-2.776 1.74 -0.497
-2.575 1.516 -0.689
-2.407 1.34 -0.951
-2.283 1.225 -1.266
-2.211 1.177 -1.613
-2.622 1.932 -0.429
-2.515 1.601 -0.663
-2.37 1.782 -0.599
-2.287 1.501 -0.894
-2.142 1.682 -0.83
-2.106 1.446 -1.176
-1.952 1.639 -1.108
-1.982 1.439 -1.492
-1.81 1.654 -1.416
-2.663 2.202 -0.218
-2.227 2.054 -0.482
-2.264 2.299 -0.29
-1.881 2.228 -0.637
-1.918 2.473 -0.445
-1.615 2.438 -0.879
-1.656 2.708 -0.668
-2.655 2.421 0.048
-2.257 2.498 -0.049
-1.911 2.672 -0.204
-1.647 2.927 -0.402
-2.597 2.577 0.351
-2.204 2.639 0.226
-1.858 2.813 0.071
-1.59 3.083 -0.1
-2.495 2.657 0.67
-2.111 2.713 0.516
-1.765 2.886 0.361
-1.488 3.163 0.22
-2.797 2.625 0.927
-2.251 2.77 1.005
-2.52 2.741 1.234
-2.033 3.002 1.293
-2.299 2.974 1.519
-1.863 3.333 1.507
-2.155 3.302 1.755
-3.035 2.497 1.22
-2.731 2.627 1.494
-2.507 2.861 1.775
-2.385 3.178 2.038
-3.186 2.284 1.521
-2.865 2.437 1.761
-2.64 2.674 2.039
-2.53 2.972 2.328
-3.324 2.06 1.667
-2.975 2.319 1.779
-3.111 2.099 1.924
-2.815 2.412 2.059
-2.958 2.183 2.21
-2.717 2.558 2.345
-2.872 2.307 2.509
-3.419 1.801 1.788
-3.205 1.843 2.043
-3.055 1.917 2.334
-2.979 2.017 2.644
-3.552 1.393 1.822
-3.202 1.735 2.161
-3.319 1.374 2.191
-3.094 1.732 2.585
-3.21 1.376 2.614
-3.107 1.793 3.017
-3.235 1.399 3.05
-3.548 0.964 1.825
-3.316 0.994 2.194
-3.206 1.001 2.617
-3.231 0.984 3.053
-3.408 0.559 1.798
-3.191 0.635 2.17
-3.084 0.647 2.593
-3.095 0.593 3.027
-3.105 0.348 2.085
-3.1 0.088 1.867
-2.97 0.105 2.152
-3.031 0.459 2.387
-2.908 0.238 2.449
-3.027 0.542 2.707
-2.911 0.332 2.766
-2.978 0.383 3.085
-2.865 -0.346 2.113
-2.52 -0.7 2.425
-2.789 -0.06 2.411
-2.48 -0.378 2.69
-2.828 0.19 2.745
-2.523 -0.123 3.02
-2.645 0.041 3.387
-2.483 -1.039 2.238
-2.249 -0.827 2.688
-2.214 -1.15 2.51
-2.072 -0.978 3.011
-2.036 -1.312 2.826
-2.003 -1.142 3.367
-1.962 -1.514 3.162
-2.359 -1.33 2.011
-2.096 -1.427 2.294
-1.914 -1.599 2.602
-1.826 -1.833 2.912
-2.159 -1.55 1.761
-1.905 -1.637 2.055
-1.716 -1.817 2.356
-1.606 -2.075 2.638
-1.897 -1.684 1.507
-1.655 -1.765 1.813
-1.457 -1.949 2.105
-1.318 -2.222 2.359
-1.592 -1.721 1.268
-1.365 -1.8 1.585
-1.156 -1.986 1.869
-0.984 -2.263 2.097
-1.863 -1.667 1.068
-1.351 -1.766 0.91
-1.605 -1.715 0.723
-1.133 -1.941 0.578
-1.396 -1.889 0.384
-0.96 -2.23 0.303
-1.258 -2.17 0.083
-2.101 -1.536 0.862
-1.827 -1.593 0.529
-1.627 -1.762 0.183
-1.519 -2.027 -0.144
-2.291 -1.337 0.66
-2.006 -1.406 0.34
-1.812 -1.569 -0.013
-1.728 -1.808 -0.365
-2.422 -1.081 0.476
-2.129 -1.167 0.168
-1.939 -1.32 -0.192
-1.872 -1.528 -0.567
-2.487 -0.785 0.321
-2.189 -0.889 0.022
-2.002 -1.032 -0.342
-1.943 -1.202 -0.738
-2.264 -0.668 -0.026
-2.322 -0.554 -0.027
-2.141 -0.611 -0.433
-2.203 -0.492 -0.433
-2.131 -0.618 -0.861
-2.114 -0.682 -1.181
-2.003 -0.9 -0.803
-1.987 -0.962 -1.114
-1.927 -1.264 -1.052
-2.312 -0.441 -1.376
-2.242 -0.501 -1.651
-2.116 -0.68 -1.269
-2.044 -0.743 -1.552
-1.985 -0.96 -1.159
-1.906 -1.028 -1.469
-1.837 -1.343 -1.406
-2.121 -0.506 -1.916
-1.92 -0.747 -1.824
-1.77 -1.033 -1.766
-1.682 -1.348 -1.746
-1.975 -0.256 -2.322
-1.864 -0.768 -1.888
-1.672 -0.441 -2.421
-1.897 0.192 -2.527
-1.57 0.147 -2.691
-1.971 0.497 -2.491
-1.495 0.306 -2.776
-1.576 0.637 -2.736
-1.198 0.386 -3.152
-1.296 0.786 -3.104
-2.011 0.787 -2.372
-1.619 0.951 -2.607
-1.347 1.167 -2.948
-2.011 1.039 -2.18
-1.619 1.224 -2.399
-1.348 1.496 -2.696
-1.72 1.257 -2.235
-1.631 1.561 -2.005
-1.505 1.361 -2.45
-1.417 1.659 -2.224
-1.259 1.801 -2.466
-1.479 1.817 -1.75
-1.268 1.91 -1.974
-1.107 2.057 -2.211
-1.379 2.028 -1.517
-1.683 1.878 -1.211
-1.325 2.288 -1.323
-1.617 2.145 -1.029
-1.319 2.584 -1.178
-1.091 2.821 -1.245
-1.159 2.356 -1.471
-0.94 2.583 -1.535
-1.087 2.175 -1.825
-0.858 2.412 -1.893
-0.852 2.322 -2.287
-0.816 3.013 -1.267
-0.676 2.767 -1.557
-0.583 2.604 -1.915
-0.543 2.537 -2.312
-0.463 3.323 -1.084
-0.539 2.942 -1.474
-0.291 3.16 -1.345
-0.306 2.923 -1.738
-0.135 3.073 -1.649
-0.131 2.956 -2.042
-0.005 3.067 -1.976
-0.026 3.04 -2.368
0.091 3.143 -2.307
0.002 3.17 -2.695
0.146 3.297 -2.62
-0.048 3.337 -3.001
0.158 3.517 -2.895
0.018 3.374 -0.943
0.047 3.196 -1.246
0.098 3.097 -1.58
0.167 3.085 -1.926
0.251 3.16 -2.26
0.343 3.317 -2.562
0.438 3.547 -2.812
0.466 3.148 -0.891
0.362 3.037 -1.209
0.315 2.988 -1.555
0.328 3.005 -1.907
0.4 3.085 -2.243
0.526 3.225 -2.541
0.699 3.415 -2.782
0.725 3.006 -0.709
0.553 2.897 -1.196
0.801 2.761 -1.021
0.699 2.74 -1.539
0.958 2.598 -1.356
0.892 2.689 -1.891
1.182 2.53 -1.686
0.926 2.805 -0.509
0.994 2.568 -0.829
1.159 2.397 -1.156
1.407 2.305 -1.463
1.057 2.557 -0.305
1.12 2.33 -0.634
1.29 2.148 -0.952
1.553 2.026 -1.234
1.025 2.711 0.026
1.24 2.204 -0.113
1.21 2.35 0.201
1.539 1.918 0.039
1.507 2.071 0.37
0.916 2.809 0.362
1.106 2.444 0.521
1.398 2.17 0.706
0.737 2.845 0.68
0.936 2.478 0.823
1.22 2.206 1.024
0.406 3.093 0.833
0.701 2.629 1.02
0.405 2.851 1.157
0.756 2.48 1.392
0.466 2.698 1.526
0.897 2.411 1.765
0.584 2.646 1.91
1.112 2.426 2.108
0.748 2.699 2.276
0.16 3.357 0.714
0.198 3.058 1.115
-0.02 3.292 1.009
0.05 3.076 1.433
-0.157 3.299 1.333
-0.029 3.146 1.769
-0.243 3.376 1.665
-0.034 3.266 2.099
-0.271 3.52 1.984
-0.152 3.531 0.588
-0.298 3.447 0.896
-0.422 3.446 1.225
-0.515 3.528 1.554
-0.572 3.688 1.862
-0.504 3.599 0.465
-0.612 3.508 0.787
-0.72 3.504 1.122
-0.823 3.588 1.447
-0.913 3.754 1.744
-0.865 3.557 0.357
-0.933 3.47 0.691
-1.026 3.468 1.03
-1.137 3.551 1.353
-1.261 3.713 1.639
-1.202 3.407 0.273
-1.234 3.337 0.616
-1.312 3.341 0.958
-1.432 3.42 1.279
-1.587 3.569 1.558
-1.488 3.12 0.569
-1.554 3.135 0.914
-1.681 3.207 1.233
-0.038 3.383 2.443
0.177 3.023 2.187
0.173 3.139 2.526
0.443 2.83 2.247
0.439 2.952 2.602
0.743 2.833 2.666
-0.112 3.436 2.794
0.099 3.191 2.873
0.361 3.007 2.966
0.658 2.893 3.065
-0.253 3.42 3.128
-0.039 3.176 3.204
0.216 2.991 3.311
0.499 2.875 3.445
-0.449 3.338 3.421
-0.233 3.094 3.494
0.013 2.905 3.616
0.276 2.781 3.779
-0.687 3.194 3.654
-0.468 2.951 3.724
-0.233 2.756 3.857
0.006 2.617 4.044
-1.016 3.185 3.753
-0.58 2.815 3.881
-0.962 2.805 3.996
-1.359 3.167 3.763
-1.359 2.784 4.008
-1.693 3.142 3.685
-1.746 2.755 3.917
-1.995 3.111 3.523
-2.096 2.719 3.73
-2.244 3.076 3.289
-2.384 2.678 3.458
-2.423 3.039 2.998
-2.593 2.636 3.121
-2.521 3.004 2.671
-2.706 2.595 2.741
-0.749 2.537 4.164
-0.29 2.688 3.939
-0.455 2.418 4.213
-0.16 2.345 4.321
-0.912 2.194 4.368
-0.613 2.086 4.412
-0.321 2.009 4.521
-1.061 1.806 4.483
-0.757 1.709 4.523
-0.466 1.628 4.634
-1.28 2.135 4.399
-1.452 1.611 4.604
-1.641 1.894 4.531
-1.543 2.398 4.242
-1.868 2.121 4.396
-1.833 2.577 4.025
-2.118 2.276 4.208
-2.128 2.66 3.763
-2.373 2.347 3.982
-2.409 2.64 3.473
-2.615 2.33 3.732
-2.655 2.52 3.176
-2.827 2.227 3.476
-2.849 2.307 2.894
-2.995 2.043 3.232
-1.464 1.095 4.666
-1.124 1.592 4.538
-1.135 1.082 4.6
-0.789 1.598 4.548
-0.801 1.064 4.613
-0.48 1.041 4.705
-1.655 0.731 4.634
-1.177 0.938 4.601
-1.359 0.592 4.57
-0.882 0.784 4.614
-1.066 0.434 4.582
-0.595 0.641 4.705
-0.793 0.265 4.671
-0.333 0.517 4.869
-0.555 0.096 4.831
-1.956 0.515 4.553
-1.452 0.461 4.543
-1.733 0.259 4.468
-1.246 0.178 4.538
-1.527 -0.025 4.463
-1.051 -0.1 4.621
-1.352 -0.318 4.54
-0.878 -0.357 4.785
-1.219 -0.603 4.693
-2.226 0.322 4.369
-1.985 0.079 4.295
-1.78 -0.205 4.29
-1.624 -0.511 4.354
-1.526 -0.822 4.484
-2.442 0.172 4.097
-2.187 -0.062 4.041
-1.982 -0.346 4.035
-1.841 -0.663 4.081
-1.772 -0.993 4.174
-2.586 0.075 3.76
-2.321 -0.152 3.726
-2.117 -0.436 3.72
-1.986 -0.76 3.742
-1.935 -1.103 3.791
-2.377 -0.184 3.377
-2.172 -0.468 3.371
-2.045 -0.795 3.367
-0.642 -0.546 4.955
-0.314 -0.097 5.005
-0.383 -0.749 5.065
-0.05 -0.304 5.117
-0.111 -0.96 5.11
0.227 -0.52 5.163
0.164 -1.171 5.088
0.507 -0.734 5.141
0.313 -1.496 5.018
0.465 -1.039 5.071
0.607 -1.35 5.005
0.763 -0.915 5.131
0.905 -1.226 5.065
1.043 -0.806 5.264
1.192 -1.132 5.195
0.466 -1.795 4.876
0.753 -1.635 4.869
1.051 -1.511 4.928
1.345 -1.43 5.052
0.615 -2.054 4.667
0.895 -1.882 4.669
1.194 -1.758 4.729
1.494 -1.689 4.843
0.754 -2.261 4.401
1.028 -2.08 4.415
1.327 -1.956 4.475
1.633 -1.896 4.577
0.877 -2.406 4.09
1.145 -2.219 4.118
1.444 -2.095 4.178
1.756 -2.041 4.267
0.978 -2.484 3.749
1.242 -2.293 3.792
1.54 -2.169 3.852
1.857 -2.119 3.925
1.052 -2.491 3.392
1.313 -2.3 3.451
1.611 -2.176 3.511
1.931 -2.126 3.568
1.096 -2.426 3.036
1.355 -2.237 3.111
1.654 -2.114 3.171
1.975 -2.061 3.213
1.109 -2.292 2.698
1.367 -2.11 2.788
1.665 -1.986 2.848
1.988 -1.927 2.874
1.089 -2.096 2.391
1.348 -1.922 2.495
1.646 -1.798 2.555
1.968 -1.731 2.567
1.037 -1.846 2.131
1.299 -1.683 2.246
1.597 -1.56 2.306
1.916 -1.481 2.307
0.796 -2.146 2.122
0.866 -1.735 1.801
0.66 -1.991 1.794
0.779 -1.673 1.428
0.591 -1.907 1.421
0.784 -1.666 1.039
0.596 -1.899 1.033
0.88 -1.714 0.666
0.674 -1.97 0.659
1.061 -1.813 0.337
0.819 -2.113 0.328
0.482 -2.37 2.114
0.391 -2.182 1.787
0.347 -2.08 1.414
0.352 -2.073 1.026
0.406 -2.161 0.652
[...]
CELL_DATA 3198
SCALARS cell_data_0 double
LOOKUP_TABLE default
1.99212776461e-07
2.09084425277e-07
8.51029777062e-08
4.09484440661e-08
3.24094413329e-07
1.31617846858e-07
1.50796054503e-07
5.49199110138e-08
3.06374966737e-07
5.474786781e-07
2.9482437774e-07
4.1317047457e-07
1.15629711986e-06
8.41468053321e-07
4.49487421183e-07
3.01388493277e-07
3.72466401396e-07
2.35810525673e-07
4.27483819104e-08
2.355213019e-07
1.6675287952e-08
1.55531973718e-07
2.82456776229e-07
4.87483225778e-07
2.04270928981e-07
2.30810917696e-07
2.22896554133e-08
1.34977607416e-07
2.61465668377e-06
3.47300550332e-06
1.30519553077e-06
2.00309049738e-07
9.12978490609e-08
3.03794520947e-09
4.37850814372e-07
3.82990417305e-07
3.01992906878e-06
1.0111364095e-06
5.79532562347e-07
1.8681898793e-07
1.59034604143e-07
1.66759731979e-07
1.4917185204e-07
3.3318846015e-08
9.5199691589e-07
7.45606682264e-07
6.12274056284e-07
4.79960954222e-07
2.75373132665e-07
2.51971847922e-08
1.77215902355e-07
2.2334028387e-07
1.42317834481e-06
9.76453504263e-07
6.00437629398e-07
4.99346748617e-07
1.66228042716e-07
2.70131446709e-08
2.04768932307e-07
2.28384438081e-07
6.37396859177e-07
1.55717689656e-07
5.6046618368e-07
7.53377773579e-08
1.85209236401e-08
3.93978300729e-07
3.63425545018e-07
8.22829623197e-07
2.28989823851e-08
3.63385615104e-08
3.33090496865e-08
1.82583444932e-07
3.89989759628e-07
5.46477326442e-07
6.99389604681e-07
8.55237717209e-07
2.59476194189e-07
3.63106932338e-07
3.29798452389e-08
6.86711133537e-08
2.38392611267e-07
1.14858024358e-07
1.33406180767e-06
1.13973001683e-06
5.17082310008e-07
6.33428811537e-07
4.59648219448e-07
8.5507260166e-07
2.20990756512e-06
1.96539627567e-06
1.43420360705e-06
1.73110680802e-06
1.34855013522e-06
1.90014609776e-06
2.0203934503e-06
1.64564904326e-06
2.22678743939e-06
1.96845930553e-06
1.95877203996e-06
1.23188425137e-06
1.82266195684e-06
2.55877327158e-06
2.52138843811e-06
3.20890253799e-06
2.21314315666e-06
2.59399603381e-06
3.59036109932e-06
2.63154420885e-06
2.80929201356e-06
2.57853517139e-06
3.16485534579e-06
3.70728270924e-06
2.25039273412e-06
1.88822685821e-06
2.39138118601e-06
2.30922987485e-06
2.68437037565e-06
1.99507929273e-06
2.08303208301e-06
2.74497426687e-06
2.70242410932e-06
3.41199565791e-06
2.57917554795e-06
2.8746265278e-06
2.66461648577e-06
3.00967438699e-06
3.77462916264e-06
4.33807614338e-06
3.85675046421e-06
3.22751850721e-06
5.29100744772e-06
6.10291106232e-06
6.55536719367e-06
7.05205274495e-06
6.25367889814e-06
6.72577736857e-06
7.96030233556e-06
8.05095514123e-06
7.68487741838e-06
7.99062230484e-06
7.11051425033e-06
7.82527557248e-06
7.81392893292e-06
6.86374053142e-06
8.4126714928e-06
8.38047485331e-06
7.92956421615e-06
7.17630194224e-06
1.97872932861e-06
8.31849178353e-07
1.98358006149e-06
2.46006213562e-06
3.81129280734e-06
3.82230148427e-06
3.1094071515e-06
1.76430284285e-06
1.70803529699e-07
7.80143248251e-08
1.44832190739e-06
2.03028478599e-06
3.91448377385e-06
2.64099685438e-06
1.74902432575e-06
1.22306170167e-06
3.04047233349e-07
4.87510467883e-07
7.56871375861e-07
5.24344145685e-07
1.65435655507e-06
2.08370251419e-07
2.78581905847e-06
1.46447832026e-06
6.20174528262e-07
3.92292677121e-07
1.02400491513e-06
2.29045164026e-06
3.93628496893e-06
1.51313755895e-06
1.45784915773e-07
2.66033247425e-07
1.47702562876e-06
1.77448724094e-06
2.77020794967e-06
8.20477012416e-07
4.42240107395e-07
1.29718150772e-06
1.12055618411e-06
1.78247649363e-06
1.54903295219e-06
1.78857608853e-06
2.19452538249e-06
2.57030038098e-06
1.95302332741e-06
1.7969973614e-06
1.12092977686e-05
1.93976824112e-05
1.33503658511e-05
7.85713442993e-06
1.75236452276e-06
2.79504671515e-07
1.57133596564e-05
6.93133228376e-06
5.5927249917e-06
1.0352558424e-06
7.00997130521e-07
3.38227704592e-06
8.95209744285e-06
7.34445446659e-06
1.27176550753e-06
1.15722149932e-06
3.25731248312e-06
3.72810423707e-06
8.76737464625e-06
2.22326172099e-06
1.62925439283e-06
5.21333424418e-06
4.36604389487e-06
1.44101456764e-05
2.08293986183e-06
8.82303431019e-07
4.34969229401e-06
3.26365830911e-06
1.17468650962e-05
5.95528896965e-06
2.99464336003e-08
3.77430100735e-07
1.05682963525e-06
1.89948876971e-06
1.02097688911e-06
2.43605063867e-07
4.67407825487e-07
7.63218254629e-07
4.51404963719e-07
1.74682341235e-07
9.28822286593e-07
6.21506576957e-07
4.86078664887e-07
9.20297814429e-07
7.07032561169e-07
9.80390823314e-07
1.02402802813e-06
1.46446742422e-06
5.57041746341e-07
3.52090110492e-07
9.02862130962e-07
8.85418251764e-07
1.05719959075e-06
6.16704698219e-07
2.86018272602e-07
1.79023842476e-07
4.68323741235e-07
1.38905057971e-06
6.35919812751e-07
7.96180007612e-07
9.84278649823e-07
1.17618278221e-06
6.04636416829e-07
9.62078527073e-07
1.05582431651e-06
1.35660472408e-06
9.40099095631e-07
1.39848181873e-06
1.24363754646e-06
1.71889824157e-06
2.18961752327e-06
3.07636499768e-06
1.31037521312e-06
1.10500130527e-06
1.26282545182e-06
1.2035498421e-06
1.13491203897e-06
1.25772345215e-06
1.09208642486e-06
1.12243114798e-06
1.23641082564e-06
1.09612593797e-06
8.77152072417e-07
7.63343322306e-07
6.38152970532e-07
5.57505153418e-07
7.00387529175e-07
7.97041654694e-07
1.0126967109e-06
1.24074381126e-06
1.34141950368e-06
1.52804733735e-06
7.12398386307e-07
1.09231190765e-06
1.03101357066e-06
1.30602214223e-06
1.4454899316e-06
2.62324715062e-06
1.09861280919e-06
6.96341508713e-07
7.57855229232e-07
5.50331168085e-07
6.3571345244e-07
5.29733854981e-07
5.65179649093e-07
6.07961746782e-07
6.76850994512e-07
1.00690091311e-06
1.16504444568e-06
1.58553627216e-06
7.63925368093e-07
6.28273366276e-07
6.8799187262e-07
6.29142852146e-07
6.5777117586e-07
5.92829299775e-07
5.9579064684e-07
6.1239918552e-07
6.13468225232e-07
9.17042815177e-07
9.96902430588e-07
1.53055928377e-06
8.76602476124e-07
8.80778435431e-07
9.72464337195e-07
8.36528615101e-07
8.489780612e-07
7.435398564e-07
6.92404806647e-07
7.84454033747e-07
7.3089352377e-07
1.31852998538e-06
1.31263256108e-06
2.24226007555e-06
7.81296968727e-07
8.45768757194e-07
1.07587453431e-06
1.36467413691e-06
2.0316503641e-06
3.17816032101e-06
6.78280245384e-07
8.50940787257e-07
9.93547301253e-07
1.3040169672e-06
2.17788516853e-06
3.22349779355e-06
8.64131668348e-07
1.12876436972e-06
1.021387893e-06
1.25289878809e-06
2.01522392536e-06
2.43046314917e-06
7.1724700775e-07
9.53425683465e-07
7.85749652411e-07
7.41918459385e-07
7.59854694102e-07
6.06872230725e-07
6.99556648306e-07
7.26275434713e-07
9.5086476523e-08
2.82056144485e-07
7.17015437984e-07
5.51295675601e-07
1.83715752701e-07
3.68944824108e-07
3.11466467571e-07
4.7323934982e-07
6.07916803537e-07
9.90308438097e-07
9.59740513911e-07
9.11834231458e-07
4.67747084297e-07
6.38263061527e-07
6.58307429564e-07
6.079161666e-07
5.9059516747e-07
5.81755783285e-07
2.35622560851e-07
1.4016371811e-07
6.95134425964e-07
5.71385918649e-07
5.67697109902e-07
4.66744002095e-07
4.99667507219e-07
3.52455671542e-07
3.42987570647e-07
1.76569041896e-07
3.38781673682e-07
9.40292547521e-08
2.68783100853e-07
1.59059247788e-07
2.17578757108e-07
5.73580917503e-08
5.16310481235e-08
5.48091597826e-10
1.09828310145e-08
9.96960212313e-09
4.28367049194e-09
4.43504033484e-08
3.16687770573e-08
1.04342233376e-08
4.06685955918e-08
1.21059005634e-07
1.9158863877e-07
2.42271808979e-07
3.62054151465e-08
1.84991856582e-07
1.5685058298e-07
3.36710301845e-07
2.68666969416e-07
2.98895169245e-07
2.98538600439e-07
3.1778824252e-07
4.98095198368e-07
5.08478875878e-07
4.39899852062e-07
4.67134480013e-07
3.87724725453e-07
6.44650577196e-08
2.33690523973e-07
5.81067453702e-07
7.17083967743e-07
7.91550584375e-07
6.64286533109e-07
7.53256080396e-07
3.59951529854e-07
3.15588570442e-07
4.77926839593e-07
3.44104264457e-07
4.75876017258e-07
2.86181418164e-07
1.15250878751e-07
1.48523096138e-07
1.82534841052e-07
2.33848082029e-07
1.45311404595e-07
4.28165461863e-07
5.77169152671e-08
7.04194229957e-08
1.45981402942e-07
1.41416552083e-07
2.5977676551e-07
2.78948941684e-07
3.65637531996e-07
4.09085936437e-07
1.13060794012e-09
7.44432076215e-09
5.12311051162e-08
2.26143700814e-07
9.05133889676e-07
5.30139032374e-07
2.78942731212e-07
4.37243168745e-07
4.77569240721e-07
4.47550158992e-07
3.42015288352e-07
9.59413266067e-08
1.43185655673e-08
1.4102843281e-08
1.79884969574e-07
5.26243979313e-07
6.26745303183e-07
4.33295203647e-07
3.87338340865e-07
7.40591930337e-07
5.96077555214e-07
6.79388023364e-07
7.76659992567e-07
1.37838712667e-06
1.02804746017e-06
9.22402289471e-07
1.23287180223e-06
1.19673747686e-06
7.39496731615e-07
1.2859818572e-06
1.49262920733e-06
1.46887237882e-06
2.89988512289e-06
3.91450263766e-06
5.40924815409e-06
4.87812766823e-06
1.05132787069e-05
6.60101291371e-06
4.1876685255e-06
4.99957336862e-08
2.78651867369e-08
6.46741957774e-08
1.73507792174e-08
7.42526323528e-08
3.56535302645e-08
5.27346524734e-08
6.76065412869e-07
2.1223940702e-06
3.83783055904e-07
7.69659766825e-08
2.17455638388e-08
6.14473610315e-08
2.64846099578e-07
5.30602380341e-07
1.17664870411e-07
1.05837773044e-07
1.9914876657e-09
1.48149642932e-07
1.6346044906e-07
3.24219578251e-07
3.47256161975e-07
4.49385551469e-07
1.48243505605e-06
3.06979427055e-06
2.60013429856e-06
2.96352033919e-06
1.63571585552e-06
2.59009068758e-06
1.59206392336e-06
3.75569212106e-06
6.65475690354e-06
7.27549429277e-06
4.3458995673e-06
4.14266316343e-06
3.63889901477e-06
6.95293837278e-06
7.72213041447e-06
1.35107687507e-05
7.85127178305e-06
5.30636910637e-06
5.05862092162e-06
7.84384196799e-06
9.80581776843e-06
1.15638374051e-05
1.19191154008e-05
1.01473858041e-05
5.46748430935e-06
5.90204792304e-06
8.86622686817e-06
7.19302845547e-06
6.97857121003e-06
3.18134462504e-06
3.85184520368e-06
2.05167308009e-06
4.3358521541e-06
3.2855784743e-06
3.82129546081e-06
1.04042926407e-06
5.92411096574e-07
5.40804594824e-07
1.62972726676e-07
8.48529745927e-07
1.15199992117e-06
1.83609313808e-06
2.07700547328e-06
1.53230160823e-06
1.03695161005e-06
8.439991285e-07
9.81302020079e-07
9.26897236221e-07
3.6002325032e-07
8.73253188904e-08
8.37217674496e-08
1.01568951246e-07
2.69734565727e-07
2.76454318868e-07
6.88007899146e-08
2.96811415732e-07
2.8470052276e-07
5.61786508572e-07
2.86532599813e-07
1.34274264491e-06
7.64651481975e-07
2.05815943358e-06
1.80896588628e-06
2.5311431298e-06
2.15064463194e-06
2.95352386234e-06
1.54171556262e-06
4.71171041631e-07
1.25518058893e-06
5.19102533349e-08
7.88294437486e-07
7.66027124009e-08
8.17357206762e-07
8.06538366388e-07
4.5700323119e-07
7.06235128992e-07
6.59628910689e-07
1.04566450765e-06
1.50112013744e-06
1.16443168342e-06
1.14171779037e-06
1.17866844383e-06
1.3465626881e-06
1.74622571783e-06
1.28433945907e-06
1.07110638838e-06
8.39648668902e-07
6.98349099951e-07
1.37567513172e-06
1.36831366111e-06
1.12452561731e-06
7.95818642992e-07
6.58814163077e-07
7.74452730472e-07
8.35059764473e-07
8.35465628093e-07
4.16161241058e-07
2.53856727653e-07
3.43066316334e-07
2.15744149582e-07
4.40074047276e-07
2.21703146486e-07
9.69337931461e-08
4.88484971624e-09
1.68112066494e-08
1.42169344483e-07
3.64279819554e-07
6.82664967264e-07
1.30410731134e-07
3.1494481555e-08
4.01678665421e-07
9.8852010044e-07
9.61925824952e-07
5.06402647223e-07
1.12245853868e-06
1.7350527827e-06
2.06164856196e-06
6.58312572988e-07
5.93791704972e-07
1.0718996667e-07
3.35675082313e-07
7.07095600498e-07
1.16787503445e-06
8.90617038551e-07
5.55815672284e-07
1.17520996792e-07
1.83047583436e-07
4.01727390002e-08
8.52694638145e-08
2.13005102863e-07
3.90662035482e-07
2.54320999766e-07
5.38809888258e-07
2.29210805843e-07
2.71955413804e-07
3.89987177982e-07
5.88590618378e-08
8.63305203295e-09
9.9128316893e-09
1.43714426449e-07
1.05980300688e-08
3.14370115641e-07
5.18764704252e-08
1.27014873283e-07
1.79262683506e-06
1.69238492793e-06
6.24324180253e-07
7.28012044454e-07
7.9086740038e-08
9.38241901537e-08
1.53222036687e-07
2.52615628328e-07
3.28415829695e-07
2.42510915442e-08
2.43867814746e-06
1.57210174083e-06
1.62655177169e-06
1.09240060342e-06
7.17308395563e-07
2.15561123362e-07
1.31958542231e-08
3.65237388286e-07
3.23630493113e-07
3.89139239861e-07
1.41973045914e-06
4.56558437343e-07
5.03097870113e-07
1.98740918088e-07
7.09095763554e-08
2.47043291594e-07
4.57004323044e-07
1.24415174535e-07
4.78205437925e-07
4.3955586877e-07
2.936877978e-07
6.2012093669e-07
2.71531622677e-07
4.81729389918e-07
2.65993697001e-07
1.00510401511e-07
5.06736656824e-07
4.27545392911e-07
4.2786370257e-07
6.14974279217e-07
3.87964860244e-07
6.47007572066e-07
1.47752298581e-07
2.39444351344e-07
8.19043143439e-07
6.80105795041e-07
1.07833554935e-06
9.5907655877e-07
6.86102474061e-07
6.86202601287e-07
2.23939094371e-08
6.38091992169e-08
3.38755759799e-07
3.51421153814e-07
7.4004919005e-07
9.3246331618e-07
6.84212323062e-07
2.55618151129e-07
1.5959703273e-07
1.18244746254e-06
9.94146475678e-07
9.39513421565e-07
1.12300773024e-08
6.56024107076e-08
3.98743685217e-07
4.33148115318e-07
1.12194473865e-06
9.80593481233e-07
8.10060375996e-07
5.61558090531e-07
1.12727612344e-07
5.24269199265e-07
3.91094264186e-07
2.62991682419e-07
5.23438245505e-08
1.63880712473e-07
4.44542497616e-07
1.13875158733e-07
5.16821432449e-07
5.80156195345e-07
2.24377031746e-07
4.58167764798e-07
1.6594277378e-07
2.04218639266e-08
9.25428431384e-08
7.36193963754e-08
6.05890891151e-08
1.01530337354e-06
4.80403032536e-07
1.01781368497e-06
4.65417202758e-07
1.27669641505e-06
1.17563014262e-06
3.89871058503e-06
1.62551454828e-06
2.00499149387e-06
2.64742897714e-06
2.62106735276e-06
3.43206587265e-06
4.54403197903e-06
2.09646369662e-06
2.91612786659e-06
2.92846289029e-06
3.42864209393e-06
3.69211232158e-06
4.38308989571e-06
3.10829120822e-06
3.20387173221e-06
3.72358352782e-06
3.73896134841e-06
3.65960190257e-06
4.58818225975e-06
3.43567242781e-06
3.86991477901e-06
3.89040123001e-06
4.43050114108e-06
4.77019906994e-06
6.12124594213e-06
4.65013829916e-06
4.32428163404e-06
4.33479672112e-06
5.21958551761e-06
6.11487637239e-06
5.50778707768e-06
1.80220381224e-06
7.31327599592e-07
3.38647763786e-06
1.51614283496e-06
1.91354876676e-06
9.27579062089e-07
7.88337601419e-08
1.10940246912e-07
3.80603816219e-08
3.19067510047e-07
1.1623722404e-06
1.90338031211e-06
2.55822814237e-07
8.01942367334e-07
2.16430436279e-06
5.87296321548e-06
2.31555143166e-06
7.12723824929e-07
1.0454668812e-05
1.51135947883e-05
4.59396686399e-06
3.05914495496e-06
1.56858656975e-05
1.01948239413e-05
7.27753413875e-06
1.18570225725e-05
7.15052927824e-06
9.21874942366e-06
1.77165338316e-05
1.30957239235e-05
2.29715233252e-06
5.24313490507e-06
1.67423706107e-06
3.25156942645e-06
6.72554138914e-06
9.9664731762e-06
1.07902812639e-05
1.55772362981e-05
6.78528202649e-06
4.61845346449e-06
1.13663852679e-05
3.482100393e-06
2.14432879052e-06
1.02258698759e-05
2.77777840555e-05
2.94536105832e-05
2.84484333447e-05
3.09626226146e-05
1.66143348576e-05
6.73376382776e-06
2.42025418103e-06
5.60218095903e-06
7.17893975582e-07
1.15823639972e-06
1.07754637417e-05
1.0188295538e-05
4.99738993928e-06
2.50441106878e-06
9.48514487853e-07
1.90956088073e-06
3.40280110965e-06
3.09284417776e-06
1.24453314971e-06
5.43494599094e-06
4.09234764027e-06
1.95299279838e-06
4.25997327654e-06
2.87593063424e-06
1.05746863026e-05
9.35041618521e-06
4.67137667082e-06
5.6926339417e-06
1.90901966302e-06
1.05823514999e-06
6.36450278135e-06
1.91909850948e-06
9.22075133764e-06
7.26161070375e-06
4.47928665023e-06
2.29711825536e-06
6.55193443002e-06
1.3051373579e-07
3.69798527895e-08
1.42597725031e-08
5.44631492118e-06
6.86685027479e-06
5.62950476767e-06
5.58925215452e-06
9.24639203345e-08
1.03895355604e-06
2.37211806212e-06
8.36533525103e-06
1.12633076395e-05
2.29973350104e-06
3.46247194148e-06
5.06181783461e-06
5.92639413293e-06
9.8743203596e-06
1.14648814122e-05
1.08238784741e-05
5.03794541432e-06
7.57419924267e-06
6.56499563464e-06
1.09936438417e-05
8.16306713197e-07
1.00777361548e-06
2.59613909098e-07
1.95056980659e-07
2.22831573183e-07
1.16662542866e-06
2.26336427251e-06
2.62549120661e-06
5.45265900278e-06
4.03918899272e-06
2.89421398678e-06
3.53790722174e-06
4.86691112231e-06
3.36345820967e-06
3.41957973069e-06
2.63958090885e-06
3.51919766797e-06
2.66295463168e-06
1.32464722722e-06
2.91175694836e-08
2.17705732993e-07
1.5274044902e-06
2.60007044411e-07
3.13940576386e-07
4.66179541212e-07
5.34107768421e-07
9.39950246069e-07
8.47695822836e-07
4.12516869403e-07
4.5557094094e-07
2.68869621597e-07
2.9722717727e-07
1.97257299692e-07
3.70794784903e-07
1.93578390586e-07
2.77143665808e-07
1.53228310941e-07
1.08282046757e-07
6.48605797391e-10
7.7921500698e-08
1.18486859198e-06
1.30708182508e-06
1.0704841613e-06
1.0440710989e-06
7.0221514182e-07
6.54000224762e-07
4.56199293993e-07
2.62287559303e-07
2.86998834464e-08
4.96994372697e-07
1.92598486562e-07
2.24252246072e-07
6.67045149486e-07
1.31658310678e-06
6.82057649796e-07
5.77857903648e-06
4.33287932534e-06
4.48735378152e-06
3.3263537853e-08
1.85923092041e-07
5.12246671146e-07
5.17684920031e-06
5.49152619819e-06
3.69548233417e-06
4.14766345731e-06
6.73811515879e-06
7.18180498226e-06
1.72191044968e-06
7.14812197946e-06
7.76516179892e-06
1.13006244428e-06
4.35114516286e-06
1.83937281989e-05
2.41721842156e-05
2.14839885735e-06
3.8037030792e-06
2.51054163137e-05
7.0392180595e-07
3.43908629818e-06
2.44219004559e-06
8.2288854263e-06
1.5132529324e-05
2.05991608547e-06
1.53268508805e-06
2.99844180856e-05
2.59582527816e-05
1.58831237181e-05
2.35557724907e-06
2.11639927186e-05
3.16900200311e-06
7.93293719847e-07
2.61642015134e-06
2.27521404638e-06
1.60167366174e-06
1.27908016905e-06
1.21651700025e-06
1.43996776307e-06
1.91892986074e-06
3.91667779602e-07
1.33653148757e-07
1.36853887978e-07
7.68973800307e-08
6.91157894911e-08
4.10359613634e-08
2.09310754255e-08
1.18625862963e-08
1.53477086654e-08
1.88193361047e-08
5.27797947623e-08
3.62208422562e-08
3.37753697218e-08
7.65021056278e-09
1.86407952493e-08
1.73457687217e-08
5.71791104333e-09
3.85122761178e-08
8.77594383021e-09
2.8328905872e-08
3.90705871367e-09
6.86766276837e-09
6.47760101913e-09
2.99318726471e-08
2.09495565369e-08
5.95623301152e-08
3.13214194116e-08
1.0256154267e-07
5.15434381337e-08
1.93367303676e-07
3.16258769939e-08
4.41503563972e-08
4.81276352364e-08
7.86880688081e-08
6.37075517674e-08
1.27430620719e-07
1.05715441161e-07
2.4004768267e-07
2.30230382364e-07
5.74389063177e-07
1.45758738672e-07
1.72162245368e-07
3.24744306111e-08
3.87863361479e-09
7.38596200926e-08
2.05293820852e-08
9.78128421274e-08
6.90610545054e-08
3.2676585594e-07
3.83441207516e-07
1.35267132191e-07
4.1197831102e-07
2.44058393256e-07
5.69295539958e-08
4.98408377178e-07
7.16202407819e-07
8.72604785929e-07
2.54682727998e-07
5.26012579027e-08
9.88504074008e-08
1.87319153709e-07
1.16088888135e-08
9.73275433914e-07
8.42325571156e-07
2.75064651959e-07
8.44427764512e-07
1.0542667132e-06
4.96723038613e-07
8.55717475161e-07
6.25378738047e-07
8.8286654361e-07
1.39952385458e-06
4.18704369199e-07
4.62908272917e-07
8.99778853595e-07
1.82659400743e-06
1.90991492052e-06
1.18325393688e-06
5.11731729903e-07
1.29808369748e-07
1.21246898915e-06
1.16263044914e-06
9.90427249765e-07
4.31220617496e-09
4.22765506555e-07
1.14193292229e-06
4.24136175077e-07
3.35446918183e-07
4.8947786533e-07
9.46103135747e-07
1.17833125986e-06
1.68802540018e-06
2.75973911485e-07
8.35650669924e-07
1.01172882023e-06
9.78499997106e-07
1.14762031122e-06
1.22592837494e-06
3.68916225787e-07
6.18455532704e-07
7.41335135981e-07
6.14803417819e-07
6.98361980991e-07
6.29312390665e-07
2.2321860593e-07
2.97915637077e-07
3.74278013883e-07
3.07874636848e-07
3.29599716499e-07
2.47466752148e-07
9.02972220606e-08
1.20339897226e-07
1.62786585976e-07
1.40951714623e-07
1.27164981596e-07
6.80443888583e-08
3.52710137695e-08
5.46143551144e-08
5.71541574521e-08
4.86573682396e-08
3.57533544359e-08
4.9191999796e-08
3.63572527267e-07
2.92237168132e-07
1.11524431003e-07
3.4783228444e-10
3.11654354124e-07
6.25977402597e-07
3.47218980064e-07
1.58123662242e-07
8.30265827131e-10
2.30603427178e-08
3.8704157278e-09
2.73717676507e-08
5.34165507895e-09
2.67954678639e-08
1.63333257725e-07
3.85856226345e-07
3.70905615944e-09
6.25147754276e-08
3.49596375931e-07
1.87264284925e-06