# vtk DataFile Version 3.0
File Name: Molecule/sphere_dip_C5/sphere_dip_C5_0-s4.vtk
ASCII
DATASET UNSTRUCTURED_GRID
FIELD FieldData 1
TIME 1 1 double
0.0
POINTS 247 double
-0.5 -0.809016994375 -0.309016994375
0.0 -1.0 0.0
-0.5 -0.809016994375 0.309016994375
-0.850650808352 -0.525731112119 0.0
-0.809016994375 -0.309016994375 0.5
0.5 -0.809016994375 0.309016994375
0.0 -0.850650808352 0.525731112119
0.26286555606 0.951056516295 0.162459848116
0.0 0.961938357784 0.273266528913
0.259891913008 0.862668480416 0.433888564553
0.0 1.0 0.0
0.0 0.850650808352 0.525731112119
-0.259891913008 0.862668480416 0.433888564553
-0.26286555606 0.951056516295 0.162459848116
-0.5 0.809016994375 0.309016994375
-0.16062203564 0.702046444776 0.69378047756
-0.425325404176 0.688190960236 0.587785252292
-0.309016994375 0.5 0.809016994375
-0.688190960236 0.587785252292 0.425325404176
-0.587785252292 0.425325404176 0.688190960236
-0.809016994375 0.309016994375 0.5
-0.702046444776 0.69378047756 0.16062203564
-0.862668480416 0.433888564553 0.259891913008
0.16062203564 0.702046444776 0.69378047756
0.0 0.525731112119 0.850650808352
0.309016994375 0.5 0.809016994375
0.5 0.809016994375 0.309016994375
0.425325404176 0.688190960236 0.587785252292
-1.0 0.0 0.0
0.525731112119 0.0 0.850650808352
0.433888564553 -0.259891913008 0.862668480416
0.69378047756 -0.16062203564 0.702046444776
0.587785252292 -0.425325404176 0.688190960236
0.309016994375 -0.5 0.809016994375
0.809016994375 -0.309016994375 0.5
0.425325404176 -0.688190960236 0.587785252292
0.688190960236 -0.587785252292 0.425325404176
0.850650808352 -0.525731112119 0.0
0.0 -0.525731112119 -0.850650808352
-0.162459848116 -0.26286555606 -0.951056516295
0.162459848116 -0.26286555606 -0.951056516295
0.0 0.0 -1.0
-0.433888564553 -0.259891913008 -0.862668480416
-0.273266528913 0.0 -0.961938357784
-0.309016994375 -0.5 -0.809016994375
0.951056516295 -0.162459848116 0.26286555606
1.0 0.0 0.0
0.951056516295 0.162459848116 0.26286555606
0.850650808352 0.0 0.525731112119
0.809016994375 0.309016994375 0.5
0.961938357784 0.273266528913 0.0
0.862668480416 0.433888564553 0.259891913008
0.850650808352 0.525731112119 0.0
0.69378047756 0.16062203564 0.702046444776
0.702046444776 0.69378047756 0.16062203564
0.688190960236 0.587785252292 0.425325404176
0.587785252292 0.425325404176 0.688190960236
0.433888564553 0.259891913008 0.862668480416
-0.525731112119 0.0 -0.850650808352
-0.69378047756 -0.16062203564 -0.702046444776
-0.69378047756 0.16062203564 -0.702046444776
-0.850650808352 0.0 -0.525731112119
-0.809016994375 -0.309016994375 -0.5
-0.809016994375 0.309016994375 -0.5
-0.951056516295 -0.162459848116 -0.26286555606
-0.951056516295 0.162459848116 -0.26286555606
-0.862668480416 -0.433888564553 -0.259891913008
-0.961938357784 -0.273266528913 0.0
-0.862668480416 0.433888564553 -0.259891913008
-0.961938357784 0.273266528913 0.0
-0.850650808352 0.525731112119 0.0
-0.587785252292 0.425325404176 -0.688190960236
-0.688190960236 0.587785252292 -0.425325404176
-0.425325404176 0.688190960236 -0.587785252292
-0.433888564553 0.259891913008 -0.862668480416
-0.702046444776 -0.69378047756 -0.16062203564
-0.587785252292 -0.425325404176 0.688190960236
-0.69378047756 -0.16062203564 0.702046444776
-0.433888564553 -0.259891913008 0.862668480416
-0.525731112119 0.0 0.850650808352
-0.69378047756 0.16062203564 0.702046444776
-0.850650808352 0.0 0.525731112119
-0.587785252292 -0.425325404176 -0.688190960236
0.0 0.266404701135 0.963861263467
0.162459848116 0.26286555606 0.951056516295
-0.162459848116 0.26286555606 0.951056516295
-0.0822424652791 0.133071104141 0.987688340595
0.0822424652791 0.133071104141 0.987688340595
0.0 0.0 1.0
0.238676930319 0.386187385588 0.891006524188
-0.273266528913 0.0 0.961938357784
-0.353553390593 0.135045378369 0.925614793411
0.353553390593 0.135045378369 0.925614793411
0.273266528913 0.0 0.961938357784
-0.309016994375 -0.5 0.809016994375
-0.238676930319 -0.386187385588 0.891006524188
-0.353553390593 -0.135045378369 0.925614793411
-0.162459848116 -0.26286555606 0.951056516295
-0.0822424652791 -0.133071104141 0.987688340595
0.0 -0.525731112119 0.850650808352
0.162459848116 -0.26286555606 0.951056516295
0.0 -0.266404701135 0.963861263467
0.238676930319 -0.386187385588 0.891006524188
0.0822424652791 -0.133071104141 0.987688340595
0.353553390593 -0.135045378369 0.925614793411
-0.782888506207 0.519553709322 -0.342271135182
0.862668480416 -0.433888564553 -0.259891913008
0.961938357784 -0.273266528913 0.0
0.951056516295 -0.162459848116 -0.26286555606
0.809016994375 -0.309016994375 -0.5
0.850650808352 0.0 -0.525731112119
0.951056516295 0.162459848116 -0.26286555606
0.809016994375 0.309016994375 -0.5
0.69378047756 -0.16062203564 -0.702046444776
0.69378047756 0.16062203564 -0.702046444776
0.525731112119 0.0 -0.850650808352
0.862668480416 0.433888564553 -0.259891913008
0.702046444776 0.69378047756 -0.16062203564
0.688190960236 0.587785252292 -0.425325404176
0.5 0.809016994375 -0.309016994375
0.587785252292 0.425325404176 -0.688190960236
0.425325404176 0.688190960236 -0.587785252292
0.309016994375 0.5 -0.809016994375
0.433888564553 0.259891913008 -0.862668480416
0.0 -0.850650808352 -0.525731112119
0.0 -0.961938357784 -0.273266528913
-0.259891913008 -0.862668480416 0.433888564553
-0.425325404176 -0.688190960236 0.587785252292
-0.16062203564 -0.702046444776 0.69378047756
0.259891913008 -0.862668480416 -0.433888564553
0.26286555606 -0.951056516295 -0.162459848116
0.5 -0.809016994375 -0.309016994375
0.702046444776 -0.69378047756 -0.16062203564
0.433888564553 -0.259891913008 -0.862668480416
0.587785252292 -0.425325404176 -0.688190960236
0.309016994375 -0.5 -0.809016994375
0.688190960236 -0.587785252292 -0.425325404176
0.425325404176 -0.688190960236 -0.587785252292
0.16062203564 -0.702046444776 -0.69378047756
0.273266528913 0.0 -0.961938357784
0.162459848116 0.26286555606 -0.951056516295
0.0 0.525731112119 -0.850650808352
0.16062203564 0.702046444776 -0.69378047756
-0.16062203564 0.702046444776 -0.69378047756
-0.309016994375 0.5 -0.809016994375
0.0 0.850650808352 -0.525731112119
0.131200378813 0.864929335863 -0.484441642061
0.294754166588 0.70600443598 -0.643954748142
0.259891913008 0.862668480416 -0.433888564553
0.383613732685 0.843911474622 -0.375038567478
0.519258489728 0.840177885327 -0.15643446504
0.707106781187 0.707106781187 0.0
0.525731112119 0.850650808352 0.0
0.386187385588 0.891006524188 -0.238676930319
0.399607051702 0.912982492932 -0.0823235800317
0.26286555606 0.951056516295 -0.162459848116
0.266404701135 0.963861263467 0.0
0.399607051702 0.912982492932 0.0823235800317
0.519258489728 0.840177885327 0.15643446504
0.386187385588 0.891006524188 0.238676930319
0.264082750659 0.916244175191 -0.301258879093
0.131655371352 0.924304600611 -0.358228793487
0.132792476828 0.966392597402 -0.220117027473
0.0 0.961938357784 -0.273266528913
0.0 0.915043421233 -0.403355348617
-0.26286555606 0.951056516295 -0.162459848116
-0.266404701135 0.963861263467 0.0
-0.399607051702 0.912982492932 -0.0823235800317
-0.399607051702 0.912982492932 0.0823235800317
-0.525731112119 0.850650808352 0.0
-0.386187385588 0.891006524188 -0.238676930319
-0.519258489728 0.840177885327 -0.15643446504
-0.5 0.809016994375 -0.309016994375
-0.132792476828 0.966392597402 -0.220117027473
-0.131655371352 0.924304600611 -0.358228793487
-0.264082750659 0.916244175191 -0.301258879093
-0.259891913008 0.862668480416 -0.433888564553
-0.131200378813 0.864929335863 -0.484441642061
-0.383613732685 0.843911474622 -0.375038567478
-0.620239582613 0.78020437071 0.08114185162
-0.620239582613 0.78020437071 -0.08114185162
-0.711281734962 0.702907030488 0.0
-0.702046444776 0.69378047756 -0.16062203564
-0.453990499739 0.468429850867 0.757935420048
-0.792649229259 0.571251659136 0.213022865649
-0.78384304242 0.615642020874 0.0810862934433
-0.864929335863 0.484441642061 0.131200378813
-0.433888564553 0.259891913008 0.862668480416
-0.572061402817 0.218508012224 0.790569415042
-0.15643446504 0.519258489728 0.840177885327
-0.238676930319 0.386187385588 0.891006524188
-0.0823235800317 0.399607051702 0.912982492932
0.15643446504 -0.519258489728 0.840177885327
0.16062203564 -0.702046444776 0.69378047756
0.0 -0.707106781187 0.707106781187
-0.15643446504 -0.519258489728 0.840177885327
-0.294754166588 0.70600443598 -0.643954748142
0.37174803446 -0.601500955008 0.707106781186
0.218508012224 -0.790569415042 0.572061402817
0.15643446504 -0.519258489728 -0.840177885327
-0.15643446504 -0.519258489728 -0.840177885327
-0.16062203564 -0.702046444776 -0.69378047756
0.0 -0.707106781187 -0.707106781187
-0.137952242128 0.0 -0.990438881957
-0.403355348617 0.0 -0.915043421233
-0.843911474622 -0.375038567478 -0.383613732685
-0.37174803446 0.601500955008 -0.707106781186
-0.468429850867 0.757935420048 -0.453990499739
-0.375038567478 0.383613732685 -0.843911474622
-0.484441642061 0.131200378813 -0.864929335863
-0.606825149272 -0.758652300163 -0.237086325351
-0.453990499739 -0.468429850867 0.757935420048
-0.56541318032 -0.641591214532 0.518332565981
-0.707106781186 -0.37174803446 -0.601500955008
-0.425325404176 -0.688190960236 -0.587785252292
-0.51337544123 -0.564254211766 -0.646577791798
-0.564254211766 -0.646577791798 -0.51337544123
-0.646577791798 -0.51337544123 -0.564254211766
-0.688190960236 -0.587785252292 -0.425325404176
-0.468429850867 -0.757935420048 -0.453990499739
-0.601500955008 -0.707106781186 -0.37174803446
-0.757935420048 -0.453990499739 -0.468429850867
-0.783451698363 -0.516121620051 -0.346153014789
-0.702309846744 -0.647411893882 -0.296004592578
-0.792649229259 -0.571251659136 -0.213022865649
-0.0822424652791 0.133071104141 -0.987688340595
0.0761780342124 0.396525177464 -0.914857743445
-0.162459848116 0.26286555606 -0.951056516295
-0.238676930319 0.386187385588 -0.891006524188
-0.220117027473 0.132792476828 -0.966392597402
-0.358228793487 0.131655371352 -0.924304600611
-0.301258879093 0.264082750659 -0.916244175191
-0.554740147179 0.785714975624 -0.273706679107
-0.571389930426 0.811915153848 -0.11961325328
-0.606825149272 0.758652300163 -0.237086325351
-0.656005712554 0.727958497701 -0.199331208598
-0.744726981819 0.656281825525 -0.121144079657
-0.749648388399 0.66061875674 0.0401266995101
-0.78384304242 0.615642020874 -0.0810862934433
-0.819207405919 0.572055577341 -0.0406404050256
-0.259749608443 0.200299530438 0.944674673642
-0.442612297818 0.0679788453512 0.894132669353
-0.337623226227 0.323597423474 0.883909081655
-0.346153014789 0.783451698363 -0.516121620051
-0.791061816019 0.573174132258 -0.213758315269
-0.749039808963 0.612037319849 -0.253672394439
-0.703639431325 0.647180911034 -0.293340108198

CELLS 490 1960
3 0 1 2
3 3 2 4
3 1 5 6
3 7 8 9
3 7 10 8
3 9 8 11
3 11 8 12
3 8 13 12
3 8 10 13
3 12 13 14
3 11 12 15
3 12 16 15
3 12 14 16
3 15 16 17
3 14 18 16
3 18 19 16
3 18 20 19
3 14 21 18
3 18 22 20
3 11 15 23
3 15 24 23
3 23 24 25
3 26 9 27
3 9 23 27
3 9 11 23
3 27 23 25
3 20 22 28
3 29 30 31
3 30 32 31
3 30 33 32
3 31 32 34
3 35 36 32
3 35 5 36
3 32 36 34
3 34 36 37
3 36 5 37
3 38 39 40
3 40 39 41
3 39 42 43
3 39 44 42
3 37 45 34
3 46 47 45
3 47 48 45
3 47 49 48
3 45 48 34
3 46 50 47
3 50 51 47
3 50 52 51
3 47 51 49
3 34 48 31
3 48 53 31
3 48 49 53
3 31 53 29
3 52 54 51
3 54 55 51
3 54 26 55
3 51 55 49
3 49 56 53
3 56 57 53
3 56 25 57
3 53 57 29
3 58 59 60
3 59 61 60
3 59 62 61
3 60 61 63
3 62 64 61
3 64 65 61
3 64 28 65
3 61 65 63
3 66 67 64
3 66 3 67
3 64 67 28
3 63 65 68
3 65 69 68
3 65 28 69
3 68 69 70
3 71 72 73
3 71 63 72
3 74 60 71
3 71 60 63
3 3 75 2
3 4 76 77
3 76 78 77
3 77 78 79
3 79 80 77
3 80 81 77
3 80 20 81
3 77 81 4
3 4 81 28
3 28 81 20
3 28 67 4
3 4 67 3
3 58 42 59
3 42 82 59
3 42 44 82
3 20 80 19
3 83 84 24
3 85 86 83
3 86 87 83
3 86 88 87
3 83 87 84
3 84 89 24
3 24 89 25
3 88 86 90
3 86 91 90
3 25 89 57
3 89 92 57
3 89 84 92
3 57 92 29
3 84 87 92
3 87 93 92
3 87 88 93
3 92 93 29
3 94 95 78
3 95 96 78
3 95 97 96
3 78 96 79
3 79 96 90
3 96 98 90
3 96 97 98
3 90 98 88
3 97 95 99
3 100 101 99
3 99 101 97
3 99 102 100
3 97 101 98
3 101 103 98
3 101 100 103
3 98 103 88
3 88 103 93
3 103 104 93
3 103 100 104
3 93 104 29
3 100 102 104
3 102 30 104
3 102 33 30
3 104 30 29
3 49 55 27
3 27 55 26
3 25 56 27
3 27 56 49
3 68 105 63
3 63 105 72
3 22 69 28
3 37 106 107
3 106 108 107
3 106 109 108
3 107 108 46
3 109 110 108
3 110 111 108
3 110 112 111
3 108 111 46
3 109 113 110
3 113 114 110
3 113 115 114
3 110 114 112
3 52 116 117
3 116 118 117
3 116 112 118
3 117 118 119
3 112 120 118
3 120 121 118
3 120 122 121
3 118 121 119
3 112 114 120
3 114 123 120
3 114 115 123
3 120 123 122
3 124 125 0
3 0 125 1
3 6 126 1
3 1 126 2
3 2 126 127
3 126 128 127
3 126 6 128
3 127 128 94
3 124 129 125
3 129 130 125
3 129 131 130
3 125 130 1
3 1 130 5
3 5 130 131
3 131 132 5
3 132 37 5
3 115 113 133
3 113 134 133
3 113 109 134
3 133 134 135
3 109 136 134
3 136 137 134
3 136 131 137
3 134 137 135
3 109 106 136
3 106 132 136
3 106 37 132
3 136 132 131
3 135 137 138
3 137 129 138
3 137 131 129
3 138 129 124
3 115 139 123
3 139 140 123
3 139 41 140
3 123 140 122
3 122 141 142
3 141 143 142
3 141 144 143
3 142 143 145
3 145 146 142
3 146 147 142
3 146 148 147
3 142 147 122
3 122 147 121
3 147 149 121
3 147 148 149
3 121 149 119
3 119 150 117
3 150 151 117
3 150 152 151
3 117 151 52
3 119 153 150
3 153 154 150
3 153 155 154
3 150 154 152
3 155 156 154
3 156 157 154
3 156 7 157
3 154 157 152
3 7 156 10
3 10 156 155
3 152 157 158
3 157 159 158
3 157 7 159
3 158 159 26
3 119 149 153
3 149 160 153
3 149 148 160
3 153 160 155
3 148 161 160
3 161 162 160
3 161 163 162
3 160 162 155
3 148 146 161
3 146 164 161
3 146 145 164
3 161 164 163
3 155 162 10
3 162 163 10
3 26 159 9
3 159 7 9
3 165 166 10
3 10 166 13
3 165 167 166
3 167 168 166
3 167 169 168
3 166 168 13
3 165 170 167
3 170 171 167
3 170 172 171
3 167 171 169
3 13 168 14
3 168 169 14
3 163 173 10
3 10 173 165
3 163 174 173
3 174 175 173
3 174 176 175
3 173 175 165
3 163 164 174
3 164 177 174
3 164 145 177
3 174 177 176
3 165 175 170
3 175 178 170
3 175 176 178
3 170 178 172
3 169 179 14
3 14 179 21
3 169 180 179
3 180 181 179
3 180 182 181
3 179 181 21
3 19 183 16
3 16 183 17
3 21 184 18
3 184 22 18
3 21 185 184
3 185 186 184
3 185 70 186
3 184 186 22
3 17 183 187
3 183 188 187
3 183 19 188
3 187 188 79
3 17 189 15
3 15 189 24
3 17 190 189
3 190 191 189
3 190 85 191
3 189 191 24
3 33 192 193
3 192 194 193
3 192 99 194
3 193 194 6
3 6 194 128
3 194 195 128
3 194 99 195
3 128 195 94
3 144 196 143
3 196 177 143
3 196 176 177
3 143 177 145
3 112 116 50
3 50 116 52
3 46 111 50
3 50 111 112
3 33 197 32
3 197 35 32
3 35 198 5
3 5 198 6
3 6 198 193
3 198 197 193
3 198 35 197
3 193 197 33
3 115 133 40
3 40 133 135
3 41 139 40
3 40 139 115
3 135 199 40
3 199 38 40
3 38 200 39
3 200 44 39
3 44 200 201
3 200 202 201
3 200 38 202
3 201 202 124
3 124 202 138
3 202 199 138
3 202 38 199
3 138 199 135
3 43 203 39
3 39 203 41
3 58 204 42
3 42 204 43
3 37 107 45
3 45 107 46
3 62 205 64
3 205 66 64
3 73 206 71
3 71 206 144
3 172 207 72
3 72 207 73
3 144 208 71
3 208 74 71
3 74 209 60
3 209 58 60
3 75 210 2
3 210 0 2
3 94 211 127
3 211 212 127
3 211 76 212
3 127 212 2
3 2 212 4
3 212 76 4
3 76 211 78
3 211 94 78
3 82 213 59
3 59 213 62
3 214 215 44
3 44 215 82
3 214 216 215
3 216 217 215
3 216 218 217
3 215 217 82
3 214 219 216
3 219 220 216
3 219 0 220
3 216 220 218
3 82 217 213
3 217 221 213
3 217 218 221
3 213 221 62
3 0 219 124
3 219 214 124
3 44 201 214
3 214 201 124
3 62 221 205
3 221 222 205
3 221 218 222
3 205 222 66
3 218 223 222
3 223 224 222
3 223 75 224
3 222 224 66
3 218 220 223
3 220 210 223
3 220 0 210
3 223 210 75
3 66 224 3
3 224 75 3
3 41 225 140
3 225 226 140
3 225 227 226
3 140 226 122
3 227 228 226
3 228 141 226
3 228 144 141
3 226 141 122
3 41 203 225
3 203 229 225
3 203 43 229
3 225 229 227
3 43 230 229
3 230 231 229
3 230 74 231
3 229 231 227
3 43 204 230
3 204 209 230
3 204 58 209
3 230 209 74
3 227 231 228
3 231 208 228
3 231 74 208
3 228 208 144
3 152 158 54
3 54 158 26
3 52 151 54
3 54 151 152
3 172 232 171
3 232 233 171
3 232 234 233
3 171 233 169
3 169 233 180
3 233 235 180
3 233 234 235
3 180 235 182
3 182 236 181
3 236 237 181
3 236 238 237
3 181 237 21
3 21 237 185
3 237 239 185
3 237 238 239
3 185 239 70
3 79 188 80
3 80 188 19
3 24 191 83
3 83 191 85
3 85 240 86
3 86 240 91
3 91 241 90
3 90 241 79
3 79 241 187
3 241 242 187
3 241 91 242
3 187 242 17
3 91 240 242
3 240 190 242
3 240 85 190
3 242 190 17
3 94 195 95
3 95 195 99
3 99 192 102
3 102 192 33
3 144 206 196
3 206 243 196
3 206 73 243
3 196 243 176
3 176 243 178
3 243 207 178
3 243 73 207
3 178 207 172
3 70 239 68
3 239 238 68
3 238 244 68
3 244 105 68
3 238 236 244
3 236 245 244
3 236 182 245
3 244 245 105
3 105 246 72
3 246 234 72
3 105 245 246
3 245 235 246
3 245 182 235
3 246 235 234
3 234 232 72
3 72 232 172
3 22 186 69
3 69 186 70

CELL_TYPES 490
5
5
5
5
5
5
5
5
5
5
5
5
5
5
5
5
5
5
5
5
5
5
5
5
5
5
5
5
5
5
5
5
5
5
5
5
5
5
5
5
5
5
5
5
5
5
5
5
5
5
5
5
5
5
5
5
5
5
5
5
5
5
5
5
5
5
5
5
5
5
5
5
5
5
5
5
5
5
5
5
5
5
5
5
5
5
5
5
5
5
5
5
5
5
5
5
5
5
5
5
5
5
5
5
5
5
5
5
5
5
5
5
5
5
5
5
5
5
5
5
5
5
5
5
5
5
5
5
5
5
5
5
5
5
5
5
5
5
5
5
5
5
5
5
5
5
5
5
5
5
5
5
5
5
5
5
5
5
5
5
5
5
5
5
5
5
5
5
5
5
5
5
5
5
5
5
5
5
5
5
5
5
5
5
5
5
5
5
5
5
5
5
5
5
5
5
5
5
5
5
5
5
5
5
5
5
5
5
5
5
5
5
5
5
5
5
5
5
5
5
5
5
5
5
5
5
5
5
5
5
5
5
5
5
5
5
5
5
5
5
5
5
5
5
5
5
5
5
5
5
5
5
5
5
5
5
5
5
5
5
5
5
5
5
5
5
5
5
5
5
5
5
5
5
5
5
5
5
5
5
5
5
5
5
5
5
5
5
5
5
5
5
5
5
5
5
5
5
5
5
5
5
5
5
5
5
5
5
5
5
5
5
5
5
5
5
5
5
5
5
5
5
5
5
5
5
5
5
5
5
5
5
5
5
5
5
5
5
5
5
5
5
5
5
5
5
5
5
5
5
5
5
5
5
5
5
5
5
5
5
5
5
5
5
5
5
5
5
5
5
5
5
5
5
5
5
5
5
5
5
5
5
5
5
5
5
5
5
5
5
5
5
5
5
5
5
5
5
5
5
5
5
5
5
5
5
5
5
5
5
5
5
5
5
5
5
5
5
5
5
5
5
5
5
5
5
5
5
5
5
5
5
5
5
5
5
5
5
5
5
5
5
5
5
5
5
5
5
5
5
5
5
5
5
5
5
5
5
5
5
5
5
5
5
5
5
5
5
5
5
5
5
5
5
5
5
5
5
5
5
5
5
5
5
5
5
5
5
5
5

CELL_DATA 490
SCALARS cell_data_0 double
LOOKUP_TABLE default
7.67708645823e-05
0.000101962613908
9.28736392523e-05
4.09977312414e-06
1.57873598185e-05
5.54167502609e-06
7.381290374e-07
7.35759730785e-06
1.14337829655e-05
1.49818908086e-05
5.26487688381e-06
3.05588409395e-05
4.76124222133e-05
5.73323870684e-06
2.519418509e-05
2.46076150238e-05
3.83701169053e-05
1.45081571451e-06
2.19425800719e-05
2.8169333439e-05
5.00986244358e-05
5.44824544022e-05
2.39049868881e-06
3.30861815318e-05
2.72562299189e-05
3.92049827808e-05
1.31525501269e-05
5.91522456432e-05
5.59882882011e-05
5.57613191016e-05
3.44289582755e-05
4.83421624607e-05
3.20930592798e-05
3.19901377048e-05
3.6563719261e-06
1.7241289427e-05
7.82586501233e-05
0.000115680309423
0.000181497164889
0.000134967900922
6.03054026601e-05
2.98909593391e-05
5.54667954297e-06
2.05893609207e-06
2.43856890396e-06
8.56371262224e-06
7.51018715602e-05
6.67871446165e-05
9.02751294145e-05
2.99502867508e-05
1.58611601105e-05
2.69811775459e-05
1.83547173852e-05
0.000158580087912
0.000301190610939
0.000219370714103
0.000190112408902
0.000132503332902
0.000196623400937
9.7825879535e-05
5.92918933527e-05
0.000216844340232
0.000317495636843
0.000222798870732
0.000224636474018
0.000276768423539
0.00038305474165
0.000240448114999
0.000257033896342
0.00020524222793
9.40552623082e-05
0.000155511436349
0.000210283280191
0.00032697254806
0.000216873393636
0.00017557856088
0.000413656607986
0.00030699752325
0.000425156851503
0.000272120892163
5.42804327503e-05
6.48853781496e-05
3.30623765651e-05
4.06311110442e-05
2.53997696558e-05
1.08160655576e-05
2.73934949367e-05
3.81481235642e-06
3.78517489263e-05
1.67728990475e-05
6.62617712327e-05
3.945444874e-05
0.000163196979937
0.00013382360394
9.14965249836e-05
3.6808192603e-05
5.12611729053e-05
2.67679507743e-05
2.81681842526e-05
3.47866361047e-05
2.60230845242e-05
4.53206808356e-05
3.87109906123e-05
5.93917798449e-05
4.68331720061e-05
1.19603648423e-05
3.59680783319e-05
3.9298956346e-05
2.48465520297e-05
4.34609428262e-05
4.62655437003e-05
5.87747003276e-05
4.21630190479e-05
3.23955389275e-05
3.67210211105e-05
3.88303975725e-05
3.58433147109e-05
4.12738119436e-05
4.65082485902e-05
4.40317219481e-05
5.92063848272e-05
4.49894042938e-05
4.74018010039e-05
4.88085420982e-05
4.22108247012e-05
2.56214160316e-05
2.89165920863e-05
2.54172023557e-05
3.35539332722e-05
5.7125485076e-05
4.94858621346e-05
4.43934778574e-05
4.08945295195e-05
3.70682395746e-05
3.56574588597e-05
3.00051799523e-05
3.34495824187e-05
6.12859985466e-05
9.8126584307e-05
1.97773525167e-05
4.2682704238e-05
4.1813141086e-05
5.09690430387e-05
6.9661106727e-05
8.66062284997e-06
6.23967083291e-07
1.25118857846e-05
7.22642606064e-07
1.12729166375e-05
4.15413348914e-06
4.84041194679e-06
2.08955745908e-09
8.48806964808e-06
7.5443374592e-07
8.26273364977e-06
8.08450502731e-06
1.75617261567e-06
7.50834400493e-06
3.94637718227e-06
1.40082373926e-05
4.87360540208e-06
5.94707704368e-06
1.86368181755e-05
1.94830294396e-05
8.73599230726e-06
9.72767692956e-07
9.65151937305e-06
1.85645640684e-05
7.14859989161e-06
1.38791522635e-05
5.16352197923e-05
5.01251131471e-05
2.94627875347e-05
3.85036586714e-05
3.5082422468e-05
3.72667478805e-05
1.56055652378e-06
5.42568804234e-06
5.48364008641e-06
7.91042127212e-06
3.10575319471e-05
2.54596768234e-05
2.01417500487e-05
3.88472989685e-06
1.09016206275e-05
7.71134898566e-06
1.5289259585e-05
5.73758788749e-05
2.3371946827e-05
1.12238339613e-05
1.31072534031e-06
6.33727075278e-05
1.55463501082e-05
2.11267968262e-06
9.27866378562e-06
1.22906048806e-06
5.23233200037e-05
3.75904694325e-06
2.68974139721e-06
7.01710826241e-06
1.30579919473e-05
1.10939358173e-05
6.62548759221e-05
2.69212167876e-05
3.45623689485e-05
2.11595007963e-05
2.7593114164e-05
2.722742279e-05
9.87616286857e-06
4.33906225636e-06
1.10006400545e-07
1.49366830929e-05
1.01111536924e-05
6.04403215088e-07
6.62719255946e-08
1.09400162703e-05
8.38195907912e-06
3.59674464564e-06
4.66480133024e-06
1.26974110224e-06
6.77700237523e-06
1.95337293615e-07
5.85157440604e-07
1.56787454365e-06
1.0332109802e-06
4.36544056721e-08
5.35349360747e-07
1.51109829278e-06
4.67586135415e-06
8.30676983738e-07
2.05922397678e-06
1.95249381121e-06
7.33297669944e-07
4.78853677776e-06
6.37272287175e-06
7.42978415491e-07
1.55355655549e-07
3.97151438016e-07
6.05673396196e-08
4.05064082909e-07
8.65905449715e-07
5.3455834701e-07
5.0256654909e-09
4.14444796026e-07
3.24437782588e-06
8.05103670939e-07
1.1472893107e-06
4.6604605788e-06
6.58012115091e-06
2.97851406933e-06
5.12093840809e-06
1.23756177718e-06
1.21060625826e-08
2.79126629581e-06
1.9253762042e-06
2.27850384125e-06
4.08197469332e-07
4.05819021414e-07
4.48305797756e-06
4.1784916763e-08
3.328010121e-06
4.4514073631e-06
5.29735912107e-06
6.47147026069e-06
1.78781356799e-06
1.30192769547e-06
7.51310743854e-06
1.9536440403e-06
1.38203019148e-06
8.05118105086e-06
1.12294906872e-05
1.64329230181e-05
1.23687584819e-06
1.25307930767e-06
7.9050848933e-06
4.66045946434e-06
6.46628556008e-06
6.81560626431e-06
6.03022053688e-07
1.1311408384e-05
1.51020825977e-05
1.08639198988e-05
1.40868874552e-06
7.96567417434e-07
6.35863070255e-06
8.68468510044e-07
2.13908921761e-05
4.1600329451e-05
3.11206224585e-05
1.83838380965e-05
1.46712207587e-05
4.93292179758e-06
1.44742801397e-05
1.93469677948e-05
1.66511896366e-05
2.10573511015e-05
1.23016155334e-05
1.79409146522e-05
2.43982957043e-05
1.93789474251e-05
1.74465927278e-05
1.8958114111e-05
2.65625213704e-05
1.69668112072e-05
2.07107831364e-05
2.59962307767e-05
2.77294887343e-05
2.5012500034e-05
1.04439226673e-05
1.90849932974e-05
2.90578816548e-05
2.78430321297e-05
4.44997640298e-06
1.73413884726e-06
3.89540019431e-07
4.09345901579e-06
2.81647901099e-05
2.56069738605e-05
2.93941998032e-05
2.99305863349e-05
1.46673809072e-05
1.82764734744e-05
1.91814281003e-05
1.99832475482e-05
1.52533116338e-05
5.65660355769e-05
6.34524721528e-05
1.59634965229e-05
2.96010520351e-05
1.65137363086e-05
3.60269527264e-05
3.77945533225e-05
1.39734155548e-05
1.47165950197e-06
1.35543782012e-05
3.28093602416e-06
5.31721278716e-06
2.14621687147e-06
1.18852449455e-05
2.4827216036e-05
4.54131689651e-05
4.54821027256e-05
3.75684250101e-05
5.9262566055e-05
2.32271019385e-05
1.44948675876e-05
5.77514493842e-05
5.60881359548e-05
0.000149153578471
0.000107816244829
7.49775238932e-05
0.000109578084023
5.99266225877e-05
0.000113214749033
0.000106564972814
6.08040154985e-05
2.37282100476e-05
1.00868430852e-05
2.31417268822e-05
2.38750288189e-05
2.81937500177e-06
1.74961986804e-05
4.1316355116e-05
5.22927782505e-06
1.39380779716e-05
2.6515150564e-05
2.94986143091e-05
5.53892551228e-05
1.63296420922e-05
1.81006906551e-05
6.15846934951e-07
3.98661250907e-07
6.95780631844e-08
1.38961799427e-06
6.49075660941e-07
3.3817851414e-07
1.93334903354e-06
9.65815099741e-08
1.36197438864e-06
6.52513567277e-07
2.9105718434e-07
1.1305188195e-05
7.08169874183e-06
4.22704886916e-06
2.54551407598e-05
4.19368446597e-06
9.11474001537e-06
3.07241105345e-07
4.82502582597e-07
7.41863721737e-06
1.4326643277e-06
2.28081385116e-06
9.38152991408e-06
6.2284455511e-06
6.19470050324e-07
1.08057953136e-06
9.43521243882e-07
9.70932272878e-06
1.41456144971e-05
2.06277765965e-05
3.55244792503e-05
3.20329992549e-06
1.87416376923e-06
1.55996121423e-05
1.43576207382e-06
2.87989139161e-06
1.08915011545e-05
1.57679000737e-05
1.2998382034e-05
2.38679139154e-07
1.25753095812e-05
1.13484767768e-06
1.44381491545e-05
1.924355457e-06
2.43652367364e-05
2.07864060348e-06
1.38222689526e-05
1.27942156195e-06
5.3226147281e-06
2.21260242235e-05
2.00167442825e-06
1.16641813245e-06
2.20082499271e-05
3.36464153262e-06
2.23334638032e-05
4.75931303412e-05
3.01924590381e-05
2.11315770872e-05
2.19433273523e-06
2.34276711177e-07
1.5649904855e-07
2.48930410132e-07
2.01376128863e-07
2.26481359586e-07
1.48748331553e-07
1.49977387904e-06
7.14870169068e-06
5.14667831542e-06
3.97653116128e-07
5.03795288948e-06
5.24623918292e-06
5.00196583684e-06
5.45080836592e-07
6.67671134969e-06
2.23758937239e-05
2.09293051335e-05
2.4185391731e-05
2.5759439056e-05
2.56884569933e-05
2.57794752221e-05
2.05844645363e-05
1.84823834209e-05
8.04605372729e-06
2.33560872698e-06
1.38135608483e-05
8.34988424807e-06
1.34358916544e-05
2.20310197373e-06
1.65142601978e-05
8.45326939547e-06
1.85341253976e-05
2.00196572341e-05
1.7974475391e-05
1.44706127806e-05
1.21551714526e-05
7.40371545551e-06
2.31865367084e-05
5.81626575139e-06
7.47935485076e-06
4.53730394583e-06
1.68055806203e-05
9.14999561146e-06
1.74051048917e-05
1.24556251792e-05
1.30758223829e-05
1.46780274566e-05
2.39881946438e-07
1.59475500581e-07
1.34033121324e-06
4.84279955717e-08
1.87914390443e-05
1.84516400748e-05
5.70984472104e-08
5.32689753544e-08
1.21648494884e-06
4.77255242669e-08
1.78898339087e-05
2.50303553718e-05
6.05115478397e-05
7.90749429025e-05

