# vtk DataFile Version 3.0
File Name: Molecule/sphere_dip_C5/sphere_dip_C5_0-s3.vtk
ASCII
DATASET UNSTRUCTURED_GRID
FIELD FieldData 1
TIME 1 1 double
0.0
POINTS 130 double
0.850650808352 -0.525731112119 0.0
0.809016994375 -0.309016994375 -0.5
1.0 0.0 0.0
0.809016994375 0.309016994375 -0.5
0.525731112119 0.0 -0.850650808352
0.850650808352 0.525731112119 0.0
0.5 0.809016994375 -0.309016994375
0.309016994375 0.5 -0.809016994375
-0.5 -0.809016994375 -0.309016994375
0.0 -1.0 0.0
-0.5 -0.809016994375 0.309016994375
0.0 -0.850650808352 -0.525731112119
0.0 -0.850650808352 0.525731112119
-0.850650808352 -0.525731112119 0.0
-0.809016994375 -0.309016994375 0.5
-0.309016994375 -0.5 0.809016994375
0.5 -0.809016994375 -0.309016994375
0.5 -0.809016994375 0.309016994375
0.309016994375 -0.5 -0.809016994375
0.0 0.0 -1.0
-0.309016994375 0.5 -0.809016994375
0.0 0.850650808352 -0.525731112119
0.259891913008 0.862668480416 -0.433888564553
0.525731112119 0.850650808352 0.0
0.26286555606 0.951056516295 -0.162459848116
0.26286555606 0.951056516295 0.162459848116
0.0 1.0 0.0
0.5 0.809016994375 0.309016994375
0.0 0.961938357784 -0.273266528913
0.259891913008 0.862668480416 0.433888564553
0.0 0.961938357784 0.273266528913
0.0 0.850650808352 0.525731112119
-0.259891913008 0.862668480416 0.433888564553
-0.26286555606 0.951056516295 0.162459848116
-0.5 0.809016994375 0.309016994375
-0.26286555606 0.951056516295 -0.162459848116
-0.525731112119 0.850650808352 0.0
-0.5 0.809016994375 -0.309016994375
-0.259891913008 0.862668480416 -0.433888564553
-0.702046444776 0.69378047756 0.16062203564
-0.702046444776 0.69378047756 -0.16062203564
-0.16062203564 0.702046444776 0.69378047756
-0.425325404176 0.688190960236 0.587785252292
-0.309016994375 0.5 0.809016994375
-0.688190960236 0.587785252292 0.425325404176
-0.587785252292 0.425325404176 0.688190960236
-0.809016994375 0.309016994375 0.5
-0.862668480416 0.433888564553 0.259891913008
-0.850650808352 0.525731112119 0.0
-0.525731112119 0.0 0.850650808352
0.16062203564 0.702046444776 0.69378047756
0.0 0.525731112119 0.850650808352
0.309016994375 0.5 0.809016994375
-0.162459848116 0.26286555606 0.951056516295
0.309016994375 -0.5 0.809016994375
0.0 -0.525731112119 0.850650808352
0.425325404176 0.688190960236 0.587785252292
-1.0 0.0 0.0
0.961938357784 0.273266528913 0.0
0.525731112119 0.0 0.850650808352
0.433888564553 -0.259891913008 0.862668480416
0.69378047756 -0.16062203564 0.702046444776
0.587785252292 -0.425325404176 0.688190960236
0.809016994375 -0.309016994375 0.5
0.425325404176 -0.688190960236 0.587785252292
0.688190960236 -0.587785252292 0.425325404176
0.162459848116 -0.26286555606 -0.951056516295
0.0 -0.525731112119 -0.850650808352
-0.162459848116 -0.26286555606 -0.951056516295
-0.309016994375 -0.5 -0.809016994375
-0.273266528913 0.0 -0.961938357784
-0.433888564553 -0.259891913008 -0.862668480416
-0.525731112119 0.0 -0.850650808352
0.951056516295 -0.162459848116 0.26286555606
0.951056516295 0.162459848116 0.26286555606
0.850650808352 0.0 0.525731112119
0.809016994375 0.309016994375 0.5
0.862668480416 0.433888564553 0.259891913008
0.69378047756 0.16062203564 0.702046444776
0.702046444776 0.69378047756 0.16062203564
0.688190960236 0.587785252292 0.425325404176
0.587785252292 0.425325404176 0.688190960236
0.433888564553 0.259891913008 0.862668480416
-0.69378047756 -0.16062203564 -0.702046444776
-0.69378047756 0.16062203564 -0.702046444776
-0.850650808352 0.0 -0.525731112119
-0.809016994375 -0.309016994375 -0.5
-0.809016994375 0.309016994375 -0.5
-0.951056516295 -0.162459848116 -0.26286555606
-0.951056516295 0.162459848116 -0.26286555606
-0.862668480416 -0.433888564553 -0.259891913008
-0.961938357784 -0.273266528913 0.0
-0.862668480416 0.433888564553 -0.259891913008
-0.961938357784 0.273266528913 0.0
-0.587785252292 0.425325404176 -0.688190960236
-0.425325404176 0.688190960236 -0.587785252292
-0.688190960236 0.587785252292 -0.425325404176
-0.433888564553 0.259891913008 -0.862668480416
-0.702046444776 -0.69378047756 -0.16062203564
-0.587785252292 -0.425325404176 0.688190960236
-0.69378047756 -0.16062203564 0.702046444776
-0.433888564553 -0.259891913008 0.862668480416
-0.69378047756 0.16062203564 0.702046444776
-0.850650808352 0.0 0.525731112119
-0.587785252292 -0.425325404176 -0.688190960236
-0.425325404176 -0.688190960236 -0.587785252292
-0.688190960236 -0.587785252292 -0.425325404176
-0.162459848116 0.26286555606 -0.951056516295
-0.606825149272 0.758652300163 -0.237086325351
-0.78384304242 0.615642020874 -0.0810862934433
0.0 0.266404701135 0.963861263467
0.162459848116 0.26286555606 0.951056516295
-0.0822424652791 0.133071104141 0.987688340595
0.0822424652791 0.133071104141 0.987688340595
0.0 0.0 1.0
0.238676930319 0.386187385588 0.891006524188
-0.273266528913 0.0 0.961938357784
-0.353553390593 0.135045378369 0.925614793411
0.353553390593 0.135045378369 0.925614793411
0.273266528913 0.0 0.961938357784
-0.238676930319 -0.386187385588 0.891006524188
-0.353553390593 -0.135045378369 0.925614793411
-0.162459848116 -0.26286555606 0.951056516295
-0.0822424652791 -0.133071104141 0.987688340595
0.162459848116 -0.26286555606 0.951056516295
0.0 -0.266404701135 0.963861263467
0.238676930319 -0.386187385588 0.891006524188
0.0822424652791 -0.133071104141 0.987688340595
0.353553390593 -0.135045378369 0.925614793411
-0.782888506207 0.519553709322 -0.342271135182

CELLS 256 1024
3 0 1 2
3 1 3 2
3 1 4 3
3 5 3 6
3 3 7 6
3 3 4 7
3 8 9 10
3 8 11 9
3 10 9 12
3 13 10 14
3 10 12 15
3 11 16 9
3 16 17 9
3 16 0 17
3 9 17 12
3 4 1 18
3 1 16 18
3 1 0 16
3 18 16 11
3 4 19 7
3 7 20 21
3 21 22 7
3 7 22 6
3 6 23 5
3 6 24 23
3 24 25 23
3 24 26 25
3 23 25 27
3 6 22 24
3 22 28 24
3 22 21 28
3 24 28 26
3 27 25 29
3 25 30 29
3 25 26 30
3 29 30 31
3 31 30 32
3 30 33 32
3 30 26 33
3 32 33 34
3 26 35 33
3 35 36 33
3 35 37 36
3 33 36 34
3 26 28 35
3 28 38 35
3 28 21 38
3 35 38 37
3 34 36 39
3 36 40 39
3 31 32 41
3 32 42 41
3 32 34 42
3 41 42 43
3 34 44 42
3 44 45 42
3 44 46 45
3 42 45 43
3 34 39 44
3 39 47 44
3 39 48 47
3 44 47 46
3 43 45 49
3 31 41 50
3 41 51 50
3 41 43 51
3 50 51 52
3 43 53 51
3 54 55 12
3 12 55 15
3 27 29 56
3 29 50 56
3 29 31 50
3 56 50 52
3 20 38 21
3 46 47 57
3 5 58 3
3 3 58 2
3 59 60 61
3 60 62 61
3 60 54 62
3 61 62 63
3 54 64 62
3 64 65 62
3 64 17 65
3 62 65 63
3 17 64 12
3 12 64 54
3 63 65 0
3 65 17 0
3 18 66 4
3 4 66 19
3 18 67 66
3 67 68 66
3 67 69 68
3 66 68 19
3 69 67 11
3 11 67 18
3 19 68 70
3 68 71 70
3 68 69 71
3 70 71 72
3 2 73 0
3 0 73 63
3 2 74 73
3 74 75 73
3 74 76 75
3 73 75 63
3 2 58 74
3 58 77 74
3 58 5 77
3 74 77 76
3 63 75 61
3 75 78 61
3 75 76 78
3 61 78 59
3 5 79 77
3 79 80 77
3 79 27 80
3 77 80 76
3 76 81 78
3 81 82 78
3 81 52 82
3 78 82 59
3 72 83 84
3 83 85 84
3 83 86 85
3 84 85 87
3 86 88 85
3 88 89 85
3 88 57 89
3 85 89 87
3 86 90 88
3 90 91 88
3 90 13 91
3 88 91 57
3 87 89 92
3 89 93 92
3 89 57 93
3 92 93 48
3 20 94 95
3 94 96 95
3 94 87 96
3 95 96 37
3 20 97 94
3 97 84 94
3 97 72 84
3 94 84 87
3 13 98 10
3 98 8 10
3 15 99 10
3 10 99 14
3 14 99 100
3 99 101 100
3 99 15 101
3 100 101 49
3 49 102 100
3 102 103 100
3 102 46 103
3 100 103 14
3 14 103 57
3 57 103 46
3 57 91 14
3 14 91 13
3 72 71 83
3 71 104 83
3 71 69 104
3 83 104 86
3 69 105 104
3 105 106 104
3 105 8 106
3 104 106 86
3 8 105 11
3 11 105 69
3 86 106 90
3 106 98 90
3 106 8 98
3 90 98 13
3 19 107 7
3 107 20 7
3 19 70 107
3 70 97 107
3 70 72 97
3 107 97 20
3 27 79 23
3 23 79 5
3 37 108 36
3 36 108 40
3 40 109 39
3 39 109 48
3 46 102 45
3 45 102 49
3 53 110 51
3 110 111 51
3 53 112 110
3 112 113 110
3 112 114 113
3 110 113 111
3 111 115 51
3 51 115 52
3 114 112 116
3 112 117 116
3 112 53 117
3 116 117 49
3 49 117 43
3 117 53 43
3 52 115 82
3 115 118 82
3 115 111 118
3 82 118 59
3 111 113 118
3 113 119 118
3 113 114 119
3 118 119 59
3 15 120 101
3 120 121 101
3 120 122 121
3 101 121 49
3 49 121 116
3 121 123 116
3 121 122 123
3 116 123 114
3 122 120 55
3 55 120 15
3 124 125 55
3 55 125 122
3 54 126 55
3 55 126 124
3 122 125 123
3 125 127 123
3 125 124 127
3 123 127 114
3 114 127 119
3 127 128 119
3 127 124 128
3 119 128 59
3 124 126 128
3 126 60 128
3 126 54 60
3 128 60 59
3 76 80 56
3 56 80 27
3 52 81 56
3 56 81 76
3 20 95 38
3 38 95 37
3 48 109 92
3 109 129 92
3 109 40 129
3 92 129 87
3 87 129 96
3 129 108 96
3 129 40 108
3 96 108 37
3 48 93 47
3 47 93 57

CELL_TYPES 256
5
5
5
5
5
5
5
5
5
5
5
5
5
5
5
5
5
5
5
5
5
5
5
5
5
5
5
5
5
5
5
5
5
5
5
5
5
5
5
5
5
5
5
5
5
5
5
5
5
5
5
5
5
5
5
5
5
5
5
5
5
5
5
5
5
5
5
5
5
5
5
5
5
5
5
5
5
5
5
5
5
5
5
5
5
5
5
5
5
5
5
5
5
5
5
5
5
5
5
5
5
5
5
5
5
5
5
5
5
5
5
5
5
5
5
5
5
5
5
5
5
5
5
5
5
5
5
5
5
5
5
5
5
5
5
5
5
5
5
5
5
5
5
5
5
5
5
5
5
5
5
5
5
5
5
5
5
5
5
5
5
5
5
5
5
5
5
5
5
5
5
5
5
5
5
5
5
5
5
5
5
5
5
5
5
5
5
5
5
5
5
5
5
5
5
5
5
5
5
5
5
5
5
5
5
5
5
5
5
5
5
5
5
5
5
5
5
5
5
5
5
5
5
5
5
5
5
5
5
5
5
5
5
5
5
5
5
5
5
5
5
5
5
5
5
5
5
5
5
5
5
5
5
5
5
5

CELL_DATA 256
SCALARS cell_data_0 double
LOOKUP_TABLE default
3.57435870878e-05
0.000142811486831
0.000132885288645
0.000209627044474
0.000288676946221
7.53212758089e-05
4.83440876343e-05
1.77638647653e-06
6.38908958259e-05
6.28435325477e-05
0.000142183676551
7.94945619827e-05
3.68818022678e-05
1.55742158469e-05
6.40950878154e-05
0.000113760831271
0.000245338402502
0.000124981124102
0.000131505356593
4.83026077975e-05
4.53187956188e-05
5.11931327004e-05
0.000132355628306
0.000163538933629
0.000127628670922
9.250572679e-05
2.51754697802e-05
7.61588824902e-05
7.85677594409e-05
4.51790682848e-05
4.01795541832e-05
1.74103566307e-05
1.66077841017e-05
9.29296068674e-06
7.22156946787e-06
1.6733561891e-05
1.17316651211e-05
5.31901096695e-05
6.33706300246e-06
4.11757079924e-05
6.76037938974e-05
0.000144357210719
9.54454831044e-05
4.33115434982e-05
5.3329127963e-05
0.000177933439796
0.000107587532036
0.000135437685517
5.49868582409e-05
0.000147134132771
1.25597961535e-05
1.56368489996e-05
5.78505345779e-06
3.88643299723e-05
2.84725685681e-05
8.34105603843e-06
9.41433907071e-06
3.41721117989e-05
8.22810837733e-06
6.67556005261e-05
8.04751279389e-05
8.41546344299e-06
0.000115839039838
1.70535150078e-05
1.84754969102e-05
4.42369575186e-05
3.79420303821e-05
8.32376983615e-05
0.000102268266152
0.000101390481998
1.74709781029e-05
2.10242715587e-05
1.44246811556e-05
3.72815169277e-05
0.000174624831722
1.86174208621e-05
1.33748444918e-05
1.73013296391e-05
5.82917989818e-05
5.4943399858e-05
5.67159378965e-05
3.81490736615e-05
5.04515440744e-05
3.54890405632e-05
1.82227667822e-05
3.06004976409e-05
4.46626714817e-05
7.42965782654e-05
2.40951315289e-05
2.67232202728e-05
6.34688348801e-05
5.72677428208e-05
6.69296541091e-05
6.22352264357e-05
5.95793922646e-05
4.83260634039e-05
7.29477100221e-05
6.44986462628e-05
5.32510204885e-05
5.04918958396e-05
3.65384584733e-05
4.20592271893e-05
1.68717622534e-06
1.23308447684e-05
2.42348238429e-05
6.55166426171e-05
5.22609002326e-05
2.99370902357e-05
9.97357272233e-06
1.31879242806e-06
1.28257560873e-05
2.77118221641e-06
8.28335845371e-06
2.88483910509e-05
4.30924483944e-06
5.18459122448e-05
1.35946229692e-05
2.1320192752e-05
1.35851577771e-05
1.8174156654e-05
3.55204587394e-05
5.35649984309e-05
5.41438666207e-05
5.83082881379e-05
9.062571334e-06
8.15880055991e-06
1.16672616184e-05
1.46168978901e-05
1.09411564198e-05
6.19225833741e-06
6.02058284747e-07
1.61883257292e-05
3.3367936787e-06
6.38806571804e-06
4.06471089227e-07
4.14632089152e-06
9.48588602927e-06
4.4924331096e-06
3.91850295537e-06
4.55043993452e-06
3.95005368946e-05
6.61974443088e-05
4.07289995602e-05
5.61660156146e-05
5.68092721159e-05
5.35118823168e-05
5.49794550497e-05
1.37447822974e-05
3.02880067356e-05
1.4355508678e-05
8.30344165471e-05
6.16944991529e-05
3.24275038666e-05
5.07745565116e-05
5.11093392632e-05
5.80113485993e-05
5.00585905317e-05
4.21977508429e-05
3.29518618537e-05
3.46648427285e-05
5.86894806679e-05
5.9323000985e-05
3.24365737257e-05
1.73075772217e-05
1.41804888405e-05
1.20297090202e-05
2.73448318741e-05
1.05130657366e-05
2.63004583801e-05
0.000102344118676
9.32833713135e-05
0.000104319915393
6.10235839647e-06
3.87784824579e-05
7.85251127431e-05
0.000103660716412
0.000107170362189
2.40367758389e-05
0.000237630940701
0.000216556834373
0.000150594817978
0.000226900728632
9.32667993903e-05
0.000170376921457
2.98620149122e-05
2.37860239192e-05
6.89411251852e-05
0.000114178125999
0.000112702854459
7.22735310649e-05
2.0882244846e-05
4.14832394244e-05
3.19314524734e-05
2.93195485178e-05
1.67651874761e-05
5.97208345992e-06
2.99239909937e-05
1.09818649709e-05
2.80442381549e-05
2.26115235271e-05
5.25142200671e-05
1.52314964337e-05
3.16840687208e-05
1.86765615948e-05
7.47883475708e-05
6.95451179511e-05
2.71214799435e-05
2.30846159367e-05
2.03348173472e-05
3.42309541599e-05
2.99790765653e-05
1.68732083829e-05
4.97704652956e-05
3.04164903323e-05
2.66028186332e-05
1.23256384482e-05
1.07126292104e-05
3.03351897772e-05
1.68242691369e-05
2.45690054979e-06
2.52055393109e-05
5.09198340396e-05
4.22379404146e-05
3.26581010294e-05
5.62196322453e-05
5.05905466255e-05
3.48095698639e-05
4.60923247252e-05
1.78601924047e-05
3.44123671147e-06
2.20273621904e-05
2.74641189496e-05
4.81566941395e-05
7.53433287534e-06
3.82824017529e-05
2.86383890439e-05
3.24163057506e-05
2.6677834153e-05
2.97831320652e-05
3.65349046953e-05
3.77672690086e-05
2.77270478785e-05
5.320606943e-05
4.45236184501e-05
0.000127623500669
0.000109862570773
4.30334352933e-05
4.18327776233e-05
7.60712532375e-05
4.02446248456e-06
1.63724919265e-05
6.48212503981e-05
7.73027992531e-05
6.17138109511e-05
2.7867827517e-05
2.10813058306e-05

