# vtk DataFile Version 3.0
File Name: Molecule/sphere_dip_C5/sphere_dip_C5_0-s2.vtk
ASCII
DATASET UNSTRUCTURED_GRID
FIELD FieldData 1
TIME 1 1 double
0.0
POINTS 69 double
0.850650808352 -0.525731112119 0.0
0.809016994375 -0.309016994375 -0.5
1.0 0.0 0.0
0.809016994375 0.309016994375 -0.5
0.525731112119 0.0 -0.850650808352
0.850650808352 0.525731112119 0.0
0.5 0.809016994375 -0.309016994375
0.309016994375 0.5 -0.809016994375
0.525731112119 0.0 0.850650808352
0.309016994375 -0.5 0.809016994375
0.809016994375 -0.309016994375 0.5
0.5 -0.809016994375 0.309016994375
0.0 -0.850650808352 0.525731112119
0.309016994375 -0.5 -0.809016994375
0.0 0.0 -1.0
-0.309016994375 -0.5 -0.809016994375
0.0 -0.850650808352 -0.525731112119
-0.525731112119 0.0 -0.850650808352
0.809016994375 0.309016994375 0.5
0.5 0.809016994375 0.309016994375
0.309016994375 0.5 0.809016994375
-0.809016994375 -0.309016994375 -0.5
-0.809016994375 0.309016994375 -0.5
-1.0 0.0 0.0
-0.850650808352 -0.525731112119 0.0
-0.850650808352 0.525731112119 0.0
-0.309016994375 0.5 -0.809016994375
-0.5 0.809016994375 -0.309016994375
-0.5 -0.809016994375 -0.309016994375
-0.5 -0.809016994375 0.309016994375
0.0 -1.0 0.0
-0.809016994375 -0.309016994375 0.5
-0.309016994375 -0.5 0.809016994375
-0.525731112119 0.0 0.850650808352
-0.809016994375 0.309016994375 0.5
0.5 -0.809016994375 -0.309016994375
0.0 0.850650808352 -0.525731112119
0.259891913008 0.862668480416 -0.433888564553
0.525731112119 0.850650808352 0.0
0.26286555606 0.951056516295 -0.162459848116
0.26286555606 0.951056516295 0.162459848116
0.0 1.0 0.0
0.0 0.961938357784 -0.273266528913
0.259891913008 0.862668480416 0.433888564553
0.0 0.961938357784 0.273266528913
0.0 0.850650808352 0.525731112119
-0.259891913008 0.862668480416 0.433888564553
-0.26286555606 0.951056516295 0.162459848116
-0.5 0.809016994375 0.309016994375
-0.26286555606 0.951056516295 -0.162459848116
-0.525731112119 0.850650808352 0.0
-0.259891913008 0.862668480416 -0.433888564553
-0.702046444776 0.69378047756 0.16062203564
-0.702046444776 0.69378047756 -0.16062203564
-0.16062203564 0.702046444776 0.69378047756
-0.425325404176 0.688190960236 0.587785252292
-0.309016994375 0.5 0.809016994375
-0.688190960236 0.587785252292 0.425325404176
-0.587785252292 0.425325404176 0.688190960236
-0.862668480416 0.433888564553 0.259891913008
0.16062203564 0.702046444776 0.69378047756
0.0 0.525731112119 0.850650808352
-0.162459848116 0.26286555606 0.951056516295
0.162459848116 0.26286555606 0.951056516295
0.0 0.0 1.0
-0.162459848116 -0.26286555606 0.951056516295
0.0 -0.525731112119 0.850650808352
0.162459848116 -0.26286555606 0.951056516295
0.425325404176 0.688190960236 0.587785252292

CELLS 134 536
3 0 1 2
3 1 3 2
3 1 4 3
3 2 3 5
3 5 3 6
3 3 7 6
3 3 4 7
3 8 9 10
3 9 11 10
3 9 12 11
3 10 11 0
3 4 13 14
3 13 15 14
3 13 16 15
3 14 15 17
3 0 2 10
3 2 18 10
3 2 5 18
3 10 18 8
3 5 19 18
3 18 20 8
3 17 21 22
3 21 23 22
3 21 24 23
3 22 23 25
3 26 22 27
3 26 17 22
3 24 28 29
3 28 30 29
3 28 16 30
3 29 30 12
3 24 29 31
3 29 32 31
3 29 12 32
3 31 32 33
3 33 34 31
3 34 23 31
3 31 23 24
3 17 15 21
3 15 28 21
3 15 16 28
3 21 28 24
3 16 35 30
3 35 11 30
3 35 0 11
3 30 11 12
3 4 1 13
3 1 35 13
3 1 0 35
3 13 35 16
3 4 14 7
3 14 26 7
3 14 17 26
3 7 26 36
3 36 37 7
3 7 37 6
3 6 38 5
3 5 38 19
3 6 39 38
3 39 40 38
3 39 41 40
3 38 40 19
3 6 37 39
3 37 42 39
3 37 36 42
3 39 42 41
3 19 40 43
3 40 44 43
3 40 41 44
3 43 44 45
3 45 44 46
3 44 47 46
3 44 41 47
3 46 47 48
3 41 49 47
3 49 50 47
3 49 27 50
3 47 50 48
3 41 42 49
3 42 51 49
3 42 36 51
3 49 51 27
3 48 50 52
3 50 53 52
3 50 27 53
3 52 53 25
3 45 46 54
3 46 55 54
3 46 48 55
3 54 55 56
3 48 57 55
3 57 58 55
3 57 34 58
3 55 58 56
3 48 52 57
3 52 59 57
3 52 25 59
3 57 59 34
3 56 58 33
3 58 34 33
3 45 54 60
3 54 61 60
3 54 56 61
3 60 61 20
3 56 62 61
3 62 63 61
3 62 64 63
3 61 63 20
3 64 62 33
3 33 62 56
3 20 63 8
3 63 64 8
3 32 65 33
3 33 65 64
3 32 66 65
3 66 67 65
3 66 9 67
3 65 67 64
3 9 66 12
3 12 66 32
3 64 67 8
3 67 9 8
3 19 68 18
3 68 20 18
3 19 43 68
3 43 60 68
3 43 45 60
3 68 60 20
3 27 51 26
3 26 51 36
3 25 53 22
3 22 53 27
3 34 59 23
3 59 25 23

CELL_TYPES 134
5
5
5
5
5
5
5
5
5
5
5
5
5
5
5
5
5
5
5
5
5
5
5
5
5
5
5
5
5
5
5
5
5
5
5
5
5
5
5
5
5
5
5
5
5
5
5
5
5
5
5
5
5
5
5
5
5
5
5
5
5
5
5
5
5
5
5
5
5
5
5
5
5
5
5
5
5
5
5
5
5
5
5
5
5
5
5
5
5
5
5
5
5
5
5
5
5
5
5
5
5
5
5
5
5
5
5
5
5
5
5
5
5
5
5
5
5
5
5
5
5
5
5
5
5
5
5
5
5
5
5
5
5
5

CELL_DATA 134
SCALARS cell_data_0 double
LOOKUP_TABLE default
5.35631212122e-05
1.99648953652e-05
4.63119287503e-05
0.000127954002062
0.000142572590242
2.15898728821e-05
1.95461544418e-06
0.000234425827757
0.000195548817372
0.000148649154399
5.27397070904e-05
7.44589670453e-05
0.000174139273293
0.00011866642063
0.000113783977685
4.43927203755e-05
1.43510924109e-05
0.000271941020723
0.000126838845746
0.000222612991756
0.000195600840767
0.000313600025644
0.000314190019646
0.000247955564102
0.000199931914748
0.000271295187225
7.27852936613e-05
6.79970796526e-06
4.78931561098e-05
1.5962187945e-05
6.14746005805e-05
1.82217637113e-05
0.000158820077475
0.000129619677208
0.000209679030303
0.000161815664487
0.000106986414896
2.88304274627e-06
0.000330547233544
0.000328177527724
5.52187074145e-05
0.000244767939517
3.33585347691e-06
4.10990092347e-05
3.95532093641e-07
6.70097489268e-05
0.000106533677534
0.000126027285569
8.58181802116e-05
5.0977559148e-05
3.20324674565e-05
3.41206336626e-05
4.31593847452e-05
2.2450710578e-05
1.34848385185e-05
6.66109722947e-07
0.00010312275421
7.77047964202e-05
1.25577351729e-05
2.68905420816e-05
3.43343110271e-05
6.00803645157e-06
5.25781727038e-06
1.68190912255e-05
1.68282060682e-05
3.05029609456e-05
6.01159117594e-06
4.02828066694e-06
2.38253998218e-05
1.45562753486e-05
1.72260247339e-05
9.49365253972e-06
1.11307393336e-05
8.34515839355e-06
8.2836952348e-06
3.24271322052e-06
4.67005560974e-05
1.132003027e-06
2.02191378645e-05
8.629323277e-06
1.73972362677e-05
3.96174587879e-05
2.07232069182e-05
3.67199807035e-05
6.59983710638e-05
8.55152228539e-05
1.09410252598e-05
3.70905780103e-06
1.12470165456e-05
2.2922948995e-05
6.60559445733e-06
1.13973733576e-05
1.57973039939e-05
4.29073170552e-05
3.06043162535e-05
4.76193981479e-05
8.40620911537e-05
1.15172438273e-05
0.000112791956374
8.32575773363e-05
1.01665622449e-05
6.78262862221e-05
8.28470313445e-07
7.97358531251e-06
1.93555522746e-05
9.3743891388e-05
7.3677316753e-05
3.0536818429e-05
0.000208987959075
0.000146693333493
0.00013223190984
0.000221110172593
0.000138732941412
0.00020836478883
3.68371254987e-05
3.1638904505e-06
4.61541548472e-05
9.53054883491e-05
8.15682397467e-05
7.27459867455e-05
0.000216712476589
0.000159661166464
1.36739862474e-05
2.4432689058e-05
1.1806677564e-05
8.4765908165e-06
6.44930239278e-06
1.04798531377e-05
8.39537528224e-05
1.45271030145e-05
0.000160007369044
0.00016736975087
7.06558639627e-06
9.99568032287e-05

