# vtk DataFile Version 3.0
File Name: Molecule/sphere_excent/sphere_excent_0-s3.vtk
ASCII
DATASET UNSTRUCTURED_GRID
FIELD FieldData 1
TIME 1 1 double
0.0
POINTS 48 double
0.85065078735 -0.52573108673 -1.6231224365e-08
0.80892956257 -0.3089825809 -0.49994668365
0.99989539385 1.6984584363e-05 1.1338150898e-06
0.80893456936 0.30900061131 -0.49994382262
0.52573090792 4.6205306603e-07 -0.85065084696
0.85048997402 0.52598780394 2.5730894748e-08
0.5040987134 0.79969674349 -0.32237073779
0.30887687206 0.49983409047 -0.80908793211
-0.0002330209245 0.85102111101 -0.52504682541
-0.00023296657309 0.85102128983 0.52504652739
-0.50862652063 0.79238063097 0.33424007893
-0.3087221384 0.49951043725 0.80937254429
-0.80912280083 0.30834874511 0.50011885166
-0.85026544333 0.52630800009 5.5141867961e-07
-0.52572876215 -8.4120065367e-06 0.85065227747
0.30888286233 0.49983075261 0.8090877533
3.0240537399e-06 -1.8563012418e-05 0.99989366531
0.52573102713 3.2244125237e-07 0.85065084696
-0.30898433924 -0.49994656444 0.80892843008
0.30898547173 -0.49994665384 0.80892789364
1.7823476028e-08 -0.85065084696 0.52573102713
0.80892968178 -0.30898231268 0.49994662404
0.49994504452 -0.80893033743 0.30898153782
0.30898249149 -0.49994528294 -0.8089299202
-1.1329647123e-06 -5.475697435e-06 -0.99989318848
-0.30898535252 -0.49994668365 -0.80892789364
-1.8160267956e-08 -0.85065078735 -0.52573108673
-0.52572894096 -8.2541992015e-06 -0.85065215826
0.80900448561 0.30877423286 0.50001418591
0.50411456823 0.79969781637 0.32234933972
-0.80892896652 -0.30898469687 -0.49994710088
-0.80912435055 0.30835205317 -0.50011390448
-0.99989598989 2.9566461308e-05 1.2585072682e-06
-0.85065096617 -0.52573084831 2.4176159741e-08
-0.30872938037 0.49950623512 -0.80937284231
-0.50865226984 0.79238051176 -0.3342011869
-0.49994507432 -0.80893027782 -0.30898153782
-0.49994572997 -0.80892914534 0.30898350477
1.1649224234e-06 -0.99989134073 1.1180310011e-08
-0.80892449617 -0.30899631977 0.49994793534
0.49994564056 -0.80892902613 -0.30898356438
0.013907816261 0.99968999624 3.7814976395e-07
-0.26407778263 0.9508150816 0.16210363805
-0.26408839226 0.95081084967 -0.16211295128
-0.52531760931 0.85090446472 2.1534538064e-06
0.52553194761 0.85078650713 -3.4855594322e-07
0.27214759588 0.94861519337 -0.1617154628
0.2721567452 0.94861000776 0.16173097491

CELLS 92 368
3 0 1 2
3 1 3 2
3 1 4 3
3 2 3 5
3 5 3 6
3 3 7 6
3 3 4 7
3 6 7 8
3 9 10 11
3 10 12 11
3 10 13 12
3 11 12 14
3 9 11 15
3 11 16 15
3 11 14 16
3 15 16 17
3 14 18 16
3 18 19 16
3 18 20 19
3 16 19 17
3 17 19 21
3 19 22 21
3 19 20 22
3 21 22 0
3 4 23 24
3 23 25 24
3 23 26 25
3 24 25 27
3 0 2 21
3 2 28 21
3 2 5 28
3 21 28 17
3 5 29 28
3 29 15 28
3 29 9 15
3 28 15 17
3 27 30 31
3 30 32 31
3 30 33 32
3 31 32 13
3 8 34 35
3 34 31 35
3 34 27 31
3 35 31 13
3 33 36 37
3 36 38 37
3 36 26 38
3 37 38 20
3 33 37 39
3 37 18 39
3 37 20 18
3 39 18 14
3 14 12 39
3 12 32 39
3 12 13 32
3 39 32 33
3 27 25 30
3 25 36 30
3 25 26 36
3 30 36 33
3 26 40 38
3 40 22 38
3 40 0 22
3 38 22 20
3 4 1 23
3 1 40 23
3 1 0 40
3 23 40 26
3 4 24 7
3 24 34 7
3 24 27 34
3 7 34 8
3 41 42 9
3 9 42 10
3 41 43 42
3 43 44 42
3 43 35 44
3 42 44 10
3 35 43 8
3 8 43 41
3 10 44 13
3 44 35 13
3 6 45 5
3 5 45 29
3 6 46 45
3 46 47 45
3 46 41 47
3 45 47 29
3 41 46 8
3 8 46 6
3 29 47 9
3 47 41 9

CELL_TYPES 92
5
5
5
5
5
5
5
5
5
5
5
5
5
5
5
5
5
5
5
5
5
5
5
5
5
5
5
5
5
5
5
5
5
5
5
5
5
5
5
5
5
5
5
5
5
5
5
5
5
5
5
5
5
5
5
5
5
5
5
5
5
5
5
5
5
5
5
5
5
5
5
5
5
5
5
5
5
5
5
5
5
5
5
5
5
5
5
5
5
5
5
5

CELL_DATA 92
SCALARS cell_data_0 double
LOOKUP_TABLE default
0.000136880457476
0.000197291419897
0.000165680959309
9.76474174561e-05
0.000256355619819
0.00135314327589
0.000822965621092
0.00081238474386
6.05550555381e-06
1.42635784207e-05
8.76679019037e-05
7.70509862499e-05
7.01202886617e-05
0.000147661212909
0.000135136656782
6.95106000015e-05
8.95297355e-05
8.75504339051e-05
5.35216002171e-05
7.02636930071e-05
4.34289319144e-05
5.15034871888e-05
4.15155429867e-05
5.79219418174e-05
1.58308432081e-05
2.09126407867e-05
1.52146499271e-05
6.78663143949e-06
4.54816823963e-05
2.87815426043e-05
1.33188233848e-05
4.180195066e-05
4.43755575187e-05
2.50659652413e-05
2.59941854809e-05
5.44160642688e-05
5.76114212355e-06
5.88362060371e-07
8.19897512504e-06
9.37200500372e-06
3.21539552057e-05
2.40801191545e-05
4.25453575437e-06
3.90022867863e-05
1.31102711464e-05
2.71659054173e-05
3.06035675342e-05
5.99191953512e-06
1.41759960035e-05
4.98881444645e-05
4.16321879346e-05
5.93772341832e-05
5.0969350434e-05
2.72319010327e-05
5.33367279942e-06
1.04687439671e-05
9.45663387528e-06
2.03162230808e-05
1.1789901203e-05
2.54734257425e-05
2.08596479841e-05
4.10992231549e-05
0.000116680936939
1.0184830485e-05
4.32635807676e-05
5.87389671393e-05
0.000145902989854
1.76918006794e-05
0.000523366100502
0.000642850543951
8.41864872292e-06
0.000557889943771
2.67264536425e-05
1.8949092021e-05
2.8628272098e-05
4.12992946329e-08
7.23114312655e-06
2.55841269736e-05
1.55342616246e-05
5.29703162432e-05
5.82329762513e-05
2.47505227191e-05
4.37210865528e-05
3.83133177123e-05
3.02170671657e-05
9.58672767488e-09
2.66207372706e-05
2.77761308158e-05
5.08252123026e-05
5.70873673156e-05
2.37407482047e-05
2.56225756603e-05

