# vtk DataFile Version 3.0
File Name: Molecule/sphere_dip_12/sphere_dip_12_0-s4.vtk
ASCII
DATASET UNSTRUCTURED_GRID
FIELD FieldData 1
TIME 1 1 double
0.0
POINTS 53 double
0.850650808352 -0.525731112119 0.0
0.809016994375 -0.309016994375 -0.5
1.0 0.0 0.0
0.809016994375 0.309016994375 -0.5
0.525731112119 0.0 -0.850650808352
0.850650808352 0.525731112119 0.0
0.5 0.809016994375 -0.309016994375
0.309016994375 0.5 -0.809016994375
0.0 0.850650808352 -0.525731112119
0.5 0.809016994375 0.309016994375
0.0 1.0 0.0
0.0 0.850650808352 0.525731112119
-0.5 0.809016994375 0.309016994375
-0.5 0.809016994375 -0.309016994375
-0.850650808352 0.525731112119 0.0
-0.309016994375 0.5 0.809016994375
0.309016994375 0.5 0.809016994375
0.0 0.0 1.0
-0.525731112119 0.0 0.850650808352
0.525731112119 0.0 0.850650808352
0.309016994375 -0.5 -0.809016994375
0.0 0.0 -1.0
-0.309016994375 -0.5 -0.809016994375
0.0 -0.850650808352 -0.525731112119
-0.525731112119 0.0 -0.850650808352
0.809016994375 -0.309016994375 0.5
0.809016994375 0.309016994375 0.5
-0.809016994375 -0.309016994375 -0.5
-0.809016994375 0.309016994375 -0.5
-1.0 0.0 0.0
-0.850650808352 -0.525731112119 0.0
-0.309016994375 0.5 -0.809016994375
-0.5 -0.809016994375 -0.309016994375
-0.5 -0.809016994375 0.309016994375
0.0 -1.0 0.0
0.0 -0.850650808352 0.525731112119
-0.809016994375 -0.309016994375 0.5
-0.309016994375 -0.5 0.809016994375
-0.809016994375 0.309016994375 0.5
0.5 -0.809016994375 -0.309016994375
0.5 -0.809016994375 0.309016994375
0.309016994375 -0.5 0.809016994375
0.559016994375 -0.404508497188 0.654508497187
0.404508497188 -0.654508497187 0.559016994375
0.654508497187 -0.559016994375 0.404508497188
-0.154508497188 -0.25 0.904508497187
0.0 -0.5 0.809016994375
0.154508497188 -0.25 0.904508497187
-0.154508497188 -0.675325404176 0.667374053247
0.154508497188 -0.675325404176 0.667374053247
-0.404508497188 0.654508497187 0.559016994375
-0.654508497187 0.559016994375 0.404508497188
-0.559016994375 0.404508497188 0.654508497187

CELLS 102 408
3 0 1 2
3 1 3 2
3 1 4 3
3 2 3 5
3 5 3 6
3 3 7 6
3 3 4 7
3 6 7 8
3 5 6 9
3 6 10 9
3 6 8 10
3 9 10 11
3 11 10 12
3 10 13 12
3 10 8 13
3 12 13 14
3 11 15 16
3 15 17 16
3 15 18 17
3 16 17 19
3 4 20 21
3 20 22 21
3 20 23 22
3 21 22 24
3 0 2 25
3 2 26 25
3 2 5 26
3 25 26 19
3 5 9 26
3 9 16 26
3 9 11 16
3 26 16 19
3 24 27 28
3 27 29 28
3 27 30 29
3 28 29 14
3 8 31 13
3 31 28 13
3 31 24 28
3 13 28 14
3 30 32 33
3 32 34 33
3 32 23 34
3 33 34 35
3 30 33 36
3 33 37 36
3 36 37 18
3 18 38 36
3 38 29 36
3 38 14 29
3 36 29 30
3 24 22 27
3 22 32 27
3 22 23 32
3 27 32 30
3 23 39 34
3 39 40 34
3 39 0 40
3 34 40 35
3 4 1 20
3 1 39 20
3 1 0 39
3 20 39 23
3 4 21 7
3 21 31 7
3 21 24 31
3 7 31 8
3 41 42 19
3 19 42 25
3 41 43 42
3 43 44 42
3 43 40 44
3 42 44 25
3 40 43 35
3 25 44 0
3 44 40 0
3 37 45 18
3 18 45 17
3 37 46 45
3 46 47 45
3 46 41 47
3 45 47 17
3 37 48 46
3 48 49 46
3 48 35 49
3 46 49 41
3 17 47 19
3 47 41 19
3 35 48 33
3 33 48 37
3 41 49 43
3 43 49 35
3 12 50 11
3 11 50 15
3 12 51 50
3 51 52 50
3 51 38 52
3 50 52 15
3 38 51 14
3 14 51 12
3 15 52 18
3 52 38 18

CELL_TYPES 102
5
5
5
5
5
5
5
5
5
5
5
5
5
5
5
5
5
5
5
5
5
5
5
5
5
5
5
5
5
5
5
5
5
5
5
5
5
5
5
5
5
5
5
5
5
5
5
5
5
5
5
5
5
5
5
5
5
5
5
5
5
5
5
5
5
5
5
5
5
5
5
5
5
5
5
5
5
5
5
5
5
5
5
5
5
5
5
5
5
5
5
5
5
5
5
5
5
5
5
5
5
5

CELL_DATA 102
SCALARS cell_data_0 double
LOOKUP_TABLE default
3.16127147809e-05
0.000109956555085
0.000139524111938
3.13099752517e-05
3.00964146555e-05
0.000262915859936
0.000314393646167
0.000205372171249
0.000570209958475
0.000674698095057
2.64471958017e-05
0.000644467055043
0.000275014568366
0.000681320709913
0.000306303343632
0.000425053195112
0.00189691792582
0.00229871166924
0.001734288043
0.000528106656424
0.000849693606273
0.00102928345777
0.000247757025403
0.00084495419375
9.33270043584e-05
0.000137298940258
0.000120874545404
0.000465071540923
0.000529103581852
0.000517875840757
0.000539481822838
0.000374074649042
0.000250756763082
0.000131944570588
4.86894025169e-05
4.92157006395e-05
4.47801721477e-05
7.25786496361e-05
0.000369334632215
0.00019635034552
2.99174995285e-05
5.07050035709e-05
4.47931249316e-05
2.50898111176e-05
2.07099927886e-06
5.14317275879e-05
8.96808093602e-05
0.000244718735955
0.000367036993874
0.000322925641945
1.3740231141e-06
0.000299423657633
3.99286981977e-05
8.50806394616e-05
4.84998781053e-05
3.21839393732e-05
0.000124885528802
8.24685415993e-05
9.58747597867e-05
0.000319923128248
0.000260478409806
5.94124073192e-05
0.000170406513968
0.000949888968101
0.00101340203229
0.00069232132581
0.000418093571498
0.000122726393342
0.000230690833963
7.48981619689e-06
2.75464193074e-06
2.63665378232e-05
2.81166295898e-05
3.82344814985e-05
3.5168158697e-05
3.63563059943e-05
6.10085229927e-05
3.53683991159e-05
7.22898542809e-06
1.454320939e-05
4.49016038106e-06
7.3516101659e-05
6.79562808887e-06
3.50873768605e-06
2.64449425463e-06
5.6662310299e-06
0.000321379816416
0.000149258779515
2.28725774277e-06
1.3678417803e-05
5.79826324236e-06
7.24841596081e-07
8.35934730748e-05
0.000946099051902
2.70999929216e-05
5.08766448922e-06
0.000111843519103
0.000510985201245
0.000170450784433
3.76153269071e-05
0.000738857353976
0.000136189686767

