# vtk DataFile Version 3.0
File Name: Molecule/sphere_dip_12/sphere_dip_12_0-s2.vtk
ASCII
DATASET UNSTRUCTURED_GRID
FIELD FieldData 1
TIME 1 1 double
0.0
POINTS 45 double
0.850650808352 -0.525731112119 0.0
0.809016994375 -0.309016994375 -0.5
1.0 0.0 0.0
0.809016994375 0.309016994375 -0.5
0.525731112119 0.0 -0.850650808352
0.850650808352 0.525731112119 0.0
0.5 0.809016994375 -0.309016994375
0.309016994375 0.5 -0.809016994375
0.0 0.850650808352 -0.525731112119
0.5 0.809016994375 0.309016994375
0.0 1.0 0.0
0.0 0.850650808352 0.525731112119
-0.5 0.809016994375 0.309016994375
-0.5 0.809016994375 -0.309016994375
-0.850650808352 0.525731112119 0.0
-0.309016994375 0.5 0.809016994375
-0.809016994375 0.309016994375 0.5
-0.525731112119 0.0 0.850650808352
0.309016994375 0.5 0.809016994375
0.0 0.0 1.0
0.525731112119 0.0 0.850650808352
-0.309016994375 -0.5 0.809016994375
0.309016994375 -0.5 0.809016994375
0.0 -0.850650808352 0.525731112119
0.309016994375 -0.5 -0.809016994375
0.0 0.0 -1.0
-0.309016994375 -0.5 -0.809016994375
0.0 -0.850650808352 -0.525731112119
-0.525731112119 0.0 -0.850650808352
0.809016994375 -0.309016994375 0.5
0.809016994375 0.309016994375 0.5
-0.809016994375 -0.309016994375 -0.5
-0.809016994375 0.309016994375 -0.5
-1.0 0.0 0.0
-0.850650808352 -0.525731112119 0.0
-0.309016994375 0.5 -0.809016994375
-0.5 -0.809016994375 -0.309016994375
-0.5 -0.809016994375 0.309016994375
0.0 -1.0 0.0
-0.809016994375 -0.309016994375 0.5
0.5 -0.809016994375 -0.309016994375
0.5 -0.809016994375 0.309016994375
0.559016994375 -0.404508497188 0.654508497187
0.404508497188 -0.654508497187 0.559016994375
0.654508497187 -0.559016994375 0.404508497188

CELLS 86 344
3 0 1 2
3 1 3 2
3 1 4 3
3 2 3 5
3 5 3 6
3 3 7 6
3 3 4 7
3 6 7 8
3 5 6 9
3 6 10 9
3 6 8 10
3 9 10 11
3 11 10 12
3 10 13 12
3 10 8 13
3 12 13 14
3 11 12 15
3 12 16 15
3 12 14 16
3 15 16 17
3 11 15 18
3 15 19 18
3 15 17 19
3 18 19 20
3 17 21 19
3 21 22 19
3 21 23 22
3 19 22 20
3 4 24 25
3 24 26 25
3 24 27 26
3 25 26 28
3 0 2 29
3 2 30 29
3 2 5 30
3 29 30 20
3 5 9 30
3 9 18 30
3 9 11 18
3 30 18 20
3 28 31 32
3 31 33 32
3 31 34 33
3 32 33 14
3 8 35 13
3 35 32 13
3 35 28 32
3 13 32 14
3 34 36 37
3 36 38 37
3 36 27 38
3 37 38 23
3 34 37 39
3 37 21 39
3 37 23 21
3 39 21 17
3 17 16 39
3 16 33 39
3 16 14 33
3 39 33 34
3 28 26 31
3 26 36 31
3 26 27 36
3 31 36 34
3 27 40 38
3 40 41 38
3 40 0 41
3 38 41 23
3 4 1 24
3 1 40 24
3 1 0 40
3 24 40 27
3 4 25 7
3 25 35 7
3 25 28 35
3 7 35 8
3 22 42 20
3 20 42 29
3 22 43 42
3 43 44 42
3 43 41 44
3 42 44 29
3 41 43 23
3 23 43 22
3 29 44 0
3 44 41 0

CELL_TYPES 86
5
5
5
5
5
5
5
5
5
5
5
5
5
5
5
5
5
5
5
5
5
5
5
5
5
5
5
5
5
5
5
5
5
5
5
5
5
5
5
5
5
5
5
5
5
5
5
5
5
5
5
5
5
5
5
5
5
5
5
5
5
5
5
5
5
5
5
5
5
5
5
5
5
5
5
5
5
5
5
5
5
5
5
5
5
5

CELL_DATA 86
SCALARS cell_data_0 double
LOOKUP_TABLE default
3.16013025015e-05
0.000109839608897
0.000139349968083
3.18026632318e-05
2.69576009243e-05
0.000276009229357
0.0003205207642
0.000219894485787
0.000216699677592
0.000238366138187
1.32207203182e-05
0.000258366445616
0.000674648552165
0.000717226448361
2.06228934496e-05
0.000468531763309
0.000589970242283
0.000661821445707
0.000506174486228
1.8310687529e-06
2.23810196273e-05
2.89599701467e-05
5.63749350435e-06
0.000336195785289
0.0016476537241
0.00296555719516
0.00226590051928
0.000890050058434
0.000887775546315
0.000909754312147
0.000339834196618
0.000751215233267
8.86194676594e-05
0.000192534879112
0.000173791229351
0.000536507740472
0.000252340780577
0.000115722084063
0.000110239309128
0.000332455171984
0.000240934754924
0.000163667788246
0.000258098490797
0.000237226462369
0.000193589372277
0.000246103859217
0.000341340311957
3.83860911193e-05
1.20980716616e-05
2.8822858143e-05
3.03901990965e-05
8.2426193892e-06
3.83056229497e-05
0.00207795183461
0.00168283776184
0.00153611884187
2.99444730791e-05
0.000582509108876
0.000443257998741
0.00039049757538
0.000347623436164
0.00023209125536
0.000146921477524
7.29415869435e-05
3.04840859671e-05
0.000394216080834
0.000339730199092
0.00039043759658
0.000326934481484
0.0002662584169
8.20820846338e-05
0.000188182946836
0.000894650326932
0.000868359663362
0.00071064526853
0.000350931969823
0.000365500709977
0.000219817361508
9.36316998759e-05
4.74830943049e-06
0.000125929498912
2.50216830234e-05
0.00019961627549
0.00014168743792
3.39268901054e-05
0.000200388864952

