# vtk DataFile Version 3.0
File Name: Molecule/sphere_dip_C5/sphere_dip_C5_0-s2.vtk
ASCII
DATASET UNSTRUCTURED_GRID
FIELD FieldData 1
TIME 1 1 double
0.0
POINTS 162 double
0.850650808352 -0.525731112119 0.0
0.862668480416 -0.433888564553 -0.259891913008
0.961938357784 -0.273266528913 0.0
0.951056516295 -0.162459848116 -0.26286555606
0.809016994375 -0.309016994375 -0.5
1.0 0.0 0.0
0.850650808352 0.0 -0.525731112119
0.951056516295 0.162459848116 -0.26286555606
0.809016994375 0.309016994375 -0.5
0.69378047756 -0.16062203564 -0.702046444776
0.69378047756 0.16062203564 -0.702046444776
0.525731112119 0.0 -0.850650808352
0.961938357784 0.273266528913 0.0
0.862668480416 0.433888564553 -0.259891913008
0.850650808352 0.525731112119 0.0
0.702046444776 0.69378047756 -0.16062203564
0.688190960236 0.587785252292 -0.425325404176
0.5 0.809016994375 -0.309016994375
0.587785252292 0.425325404176 -0.688190960236
0.425325404176 0.688190960236 -0.587785252292
0.309016994375 0.5 -0.809016994375
0.433888564553 0.259891913008 -0.862668480416
0.259891913008 0.862668480416 -0.433888564553
0.16062203564 0.702046444776 -0.69378047756
0.0 0.850650808352 -0.525731112119
0.702046444776 0.69378047756 0.16062203564
0.525731112119 0.850650808352 0.0
0.5 0.809016994375 0.309016994375
0.26286555606 0.951056516295 -0.162459848116
0.26286555606 0.951056516295 0.162459848116
0.0 1.0 0.0
0.0 0.961938357784 -0.273266528913
0.259891913008 0.862668480416 0.433888564553
0.0 0.961938357784 0.273266528913
0.0 0.850650808352 0.525731112119
-0.259891913008 0.862668480416 0.433888564553
-0.26286555606 0.951056516295 0.162459848116
-0.5 0.809016994375 0.309016994375
-0.26286555606 0.951056516295 -0.162459848116
-0.525731112119 0.850650808352 0.0
-0.5 0.809016994375 -0.309016994375
-0.259891913008 0.862668480416 -0.433888564553
-0.702046444776 0.69378047756 0.16062203564
-0.702046444776 0.69378047756 -0.16062203564
-0.850650808352 0.525731112119 0.0
-0.16062203564 0.702046444776 0.69378047756
-0.425325404176 0.688190960236 0.587785252292
-0.309016994375 0.5 0.809016994375
-0.688190960236 0.587785252292 0.425325404176
-0.587785252292 0.425325404176 0.688190960236
-0.809016994375 0.309016994375 0.5
-0.862668480416 0.433888564553 0.259891913008
-0.433888564553 0.259891913008 0.862668480416
-0.69378047756 0.16062203564 0.702046444776
-0.525731112119 0.0 0.850650808352
0.16062203564 0.702046444776 0.69378047756
0.0 0.525731112119 0.850650808352
0.309016994375 0.5 0.809016994375
-0.162459848116 0.26286555606 0.951056516295
0.162459848116 0.26286555606 0.951056516295
0.0 0.0 1.0
-0.273266528913 0.0 0.961938357784
0.433888564553 0.259891913008 0.862668480416
0.273266528913 0.0 0.961938357784
0.525731112119 0.0 0.850650808352
-0.433888564553 -0.259891913008 0.862668480416
-0.162459848116 -0.26286555606 0.951056516295
-0.309016994375 -0.5 0.809016994375
0.0 -0.525731112119 0.850650808352
0.162459848116 -0.26286555606 0.951056516295
0.309016994375 -0.5 0.809016994375
-0.16062203564 -0.702046444776 0.69378047756
0.16062203564 -0.702046444776 0.69378047756
0.0 -0.850650808352 0.525731112119
0.433888564553 -0.259891913008 0.862668480416
0.69378047756 -0.16062203564 0.702046444776
0.587785252292 -0.425325404176 0.688190960236
0.809016994375 -0.309016994375 0.5
0.425325404176 -0.688190960236 0.587785252292
0.688190960236 -0.587785252292 0.425325404176
0.5 -0.809016994375 0.309016994375
0.259891913008 -0.862668480416 0.433888564553
0.862668480416 -0.433888564553 0.259891913008
0.702046444776 -0.69378047756 0.16062203564
0.433888564553 -0.259891913008 -0.862668480416
0.273266528913 0.0 -0.961938357784
0.162459848116 -0.26286555606 -0.951056516295
0.309016994375 -0.5 -0.809016994375
0.0 0.0 -1.0
0.0 -0.525731112119 -0.850650808352
-0.162459848116 -0.26286555606 -0.951056516295
-0.309016994375 -0.5 -0.809016994375
0.16062203564 -0.702046444776 -0.69378047756
-0.16062203564 -0.702046444776 -0.69378047756
0.0 -0.850650808352 -0.525731112119
-0.273266528913 0.0 -0.961938357784
-0.433888564553 -0.259891913008 -0.862668480416
-0.525731112119 0.0 -0.850650808352
0.951056516295 -0.162459848116 0.26286555606
0.951056516295 0.162459848116 0.26286555606
0.850650808352 0.0 0.525731112119
0.809016994375 0.309016994375 0.5
0.862668480416 0.433888564553 0.259891913008
0.69378047756 0.16062203564 0.702046444776
0.688190960236 0.587785252292 0.425325404176
0.425325404176 0.688190960236 0.587785252292
0.587785252292 0.425325404176 0.688190960236
-0.69378047756 -0.16062203564 -0.702046444776
-0.69378047756 0.16062203564 -0.702046444776
-0.850650808352 0.0 -0.525731112119
-0.809016994375 -0.309016994375 -0.5
-0.809016994375 0.309016994375 -0.5
-0.951056516295 -0.162459848116 -0.26286555606
-0.951056516295 0.162459848116 -0.26286555606
-1.0 0.0 0.0
-0.862668480416 -0.433888564553 -0.259891913008
-0.961938357784 -0.273266528913 0.0
-0.850650808352 -0.525731112119 0.0
-0.862668480416 0.433888564553 -0.259891913008
-0.961938357784 0.273266528913 0.0
-0.16062203564 0.702046444776 -0.69378047756
-0.425325404176 0.688190960236 -0.587785252292
-0.309016994375 0.5 -0.809016994375
-0.587785252292 0.425325404176 -0.688190960236
-0.688190960236 0.587785252292 -0.425325404176
-0.433888564553 0.259891913008 -0.862668480416
-0.702046444776 -0.69378047756 -0.16062203564
-0.702046444776 -0.69378047756 0.16062203564
-0.525731112119 -0.850650808352 0.0
-0.5 -0.809016994375 -0.309016994375
-0.5 -0.809016994375 0.309016994375
-0.26286555606 -0.951056516295 -0.162459848116
-0.26286555606 -0.951056516295 0.162459848116
0.0 -1.0 0.0
-0.259891913008 -0.862668480416 -0.433888564553
0.0 -0.961938357784 -0.273266528913
-0.259891913008 -0.862668480416 0.433888564553
0.0 -0.961938357784 0.273266528913
-0.862668480416 -0.433888564553 0.259891913008
-0.688190960236 -0.587785252292 0.425325404176
-0.809016994375 -0.309016994375 0.5
-0.425325404176 -0.688190960236 0.587785252292
-0.587785252292 -0.425325404176 0.688190960236
-0.69378047756 -0.16062203564 0.702046444776
-0.850650808352 0.0 0.525731112119
-0.951056516295 0.162459848116 0.26286555606
-0.951056516295 -0.162459848116 0.26286555606
-0.587785252292 -0.425325404176 -0.688190960236
-0.425325404176 -0.688190960236 -0.587785252292
-0.688190960236 -0.587785252292 -0.425325404176
0.259891913008 -0.862668480416 -0.433888564553
0.26286555606 -0.951056516295 -0.162459848116
0.5 -0.809016994375 -0.309016994375
0.525731112119 -0.850650808352 0.0
0.26286555606 -0.951056516295 0.162459848116
0.702046444776 -0.69378047756 -0.16062203564
0.587785252292 -0.425325404176 -0.688190960236
0.688190960236 -0.587785252292 -0.425325404176
0.425325404176 -0.688190960236 -0.587785252292
0.162459848116 0.26286555606 -0.951056516295
-0.162459848116 0.26286555606 -0.951056516295
0.0 0.525731112119 -0.850650808352

CELLS 320 1280
3 0 1 2
3 1 3 2
3 1 4 3
3 2 3 5
3 4 6 3
3 6 7 3
3 6 8 7
3 3 7 5
3 4 9 6
3 9 10 6
3 9 11 10
3 6 10 8
3 5 7 12
3 7 13 12
3 7 8 13
3 12 13 14
3 14 13 15
3 13 16 15
3 13 8 16
3 15 16 17
3 8 18 16
3 18 19 16
3 18 20 19
3 16 19 17
3 8 10 18
3 10 21 18
3 10 11 21
3 18 21 20
3 17 19 22
3 19 23 22
3 19 20 23
3 22 23 24
3 14 15 25
3 15 26 25
3 15 17 26
3 25 26 27
3 17 28 26
3 28 29 26
3 28 30 29
3 26 29 27
3 17 22 28
3 22 31 28
3 22 24 31
3 28 31 30
3 27 29 32
3 29 33 32
3 29 30 33
3 32 33 34
3 34 33 35
3 33 36 35
3 33 30 36
3 35 36 37
3 30 38 36
3 38 39 36
3 38 40 39
3 36 39 37
3 30 31 38
3 31 41 38
3 31 24 41
3 38 41 40
3 37 39 42
3 39 43 42
3 39 40 43
3 42 43 44
3 34 35 45
3 35 46 45
3 35 37 46
3 45 46 47
3 37 48 46
3 48 49 46
3 48 50 49
3 46 49 47
3 37 42 48
3 42 51 48
3 42 44 51
3 48 51 50
3 47 49 52
3 49 53 52
3 49 50 53
3 52 53 54
3 34 45 55
3 45 56 55
3 45 47 56
3 55 56 57
3 47 58 56
3 58 59 56
3 58 60 59
3 56 59 57
3 47 52 58
3 52 61 58
3 52 54 61
3 58 61 60
3 57 59 62
3 59 63 62
3 59 60 63
3 62 63 64
3 54 65 61
3 65 66 61
3 65 67 66
3 61 66 60
3 67 68 66
3 68 69 66
3 68 70 69
3 66 69 60
3 67 71 68
3 71 72 68
3 71 73 72
3 68 72 70
3 60 69 63
3 69 74 63
3 69 70 74
3 63 74 64
3 64 74 75
3 74 76 75
3 74 70 76
3 75 76 77
3 70 78 76
3 78 79 76
3 78 80 79
3 76 79 77
3 70 72 78
3 72 81 78
3 72 73 81
3 78 81 80
3 77 79 82
3 79 83 82
3 79 80 83
3 82 83 0
3 11 84 85
3 84 86 85
3 84 87 86
3 85 86 88
3 87 89 86
3 89 90 86
3 89 91 90
3 86 90 88
3 87 92 89
3 92 93 89
3 92 94 93
3 89 93 91
3 88 90 95
3 90 96 95
3 90 91 96
3 95 96 97
3 0 2 82
3 2 98 82
3 2 5 98
3 82 98 77
3 5 99 98
3 99 100 98
3 99 101 100
3 98 100 77
3 5 12 99
3 12 102 99
3 12 14 102
3 99 102 101
3 77 100 75
3 100 103 75
3 100 101 103
3 75 103 64
3 14 25 102
3 25 104 102
3 25 27 104
3 102 104 101
3 27 105 104
3 105 106 104
3 105 57 106
3 104 106 101
3 27 32 105
3 32 55 105
3 32 34 55
3 105 55 57
3 101 106 103
3 106 62 103
3 106 57 62
3 103 62 64
3 97 107 108
3 107 109 108
3 107 110 109
3 108 109 111
3 110 112 109
3 112 113 109
3 112 114 113
3 109 113 111
3 110 115 112
3 115 116 112
3 115 117 116
3 112 116 114
3 111 113 118
3 113 119 118
3 113 114 119
3 118 119 44
3 24 120 41
3 120 121 41
3 120 122 121
3 41 121 40
3 122 123 121
3 123 124 121
3 123 111 124
3 121 124 40
3 122 125 123
3 125 108 123
3 125 97 108
3 123 108 111
3 40 124 43
3 124 118 43
3 124 111 118
3 43 118 44
3 117 126 127
3 126 128 127
3 126 129 128
3 127 128 130
3 129 131 128
3 131 132 128
3 131 133 132
3 128 132 130
3 129 134 131
3 134 135 131
3 134 94 135
3 131 135 133
3 130 132 136
3 132 137 136
3 132 133 137
3 136 137 73
3 117 127 138
3 127 139 138
3 127 130 139
3 138 139 140
3 130 141 139
3 141 142 139
3 141 67 142
3 139 142 140
3 130 136 141
3 136 71 141
3 136 73 71
3 141 71 67
3 140 142 143
3 142 65 143
3 142 67 65
3 143 65 54
3 54 53 143
3 53 144 143
3 53 50 144
3 143 144 140
3 50 145 144
3 145 146 144
3 145 114 146
3 144 146 140
3 50 51 145
3 51 119 145
3 51 44 119
3 145 119 114
3 140 146 138
3 146 116 138
3 146 114 116
3 138 116 117
3 97 96 107
3 96 147 107
3 96 91 147
3 107 147 110
3 91 148 147
3 148 149 147
3 148 129 149
3 147 149 110
3 91 93 148
3 93 134 148
3 93 94 134
3 148 134 129
3 110 149 115
3 149 126 115
3 149 129 126
3 115 126 117
3 94 150 135
3 150 151 135
3 150 152 151
3 135 151 133
3 152 153 151
3 153 154 151
3 153 80 154
3 151 154 133
3 152 155 153
3 155 83 153
3 155 0 83
3 153 83 80
3 133 154 137
3 154 81 137
3 154 80 81
3 137 81 73
3 11 9 84
3 9 156 84
3 9 4 156
3 84 156 87
3 4 157 156
3 157 158 156
3 157 152 158
3 156 158 87
3 4 1 157
3 1 155 157
3 1 0 155
3 157 155 152
3 87 158 92
3 158 150 92
3 158 152 150
3 92 150 94
3 11 85 21
3 85 159 21
3 85 88 159
3 21 159 20
3 88 160 159
3 160 161 159
3 160 122 161
3 159 161 20
3 88 95 160
3 95 125 160
3 95 97 125
3 160 125 122
3 20 161 23
3 161 120 23
3 161 122 120
3 23 120 24

CELL_TYPES 320
5
5
5
5
5
5
5
5
5
5
5
5
5
5
5
5
5
5
5
5
5
5
5
5
5
5
5
5
5
5
5
5
5
5
5
5
5
5
5
5
5
5
5
5
5
5
5
5
5
5
5
5
5
5
5
5
5
5
5
5
5
5
5
5
5
5
5
5
5
5
5
5
5
5
5
5
5
5
5
5
5
5
5
5
5
5
5
5
5
5
5
5
5
5
5
5
5
5
5
5
5
5
5
5
5
5
5
5
5
5
5
5
5
5
5
5
5
5
5
5
5
5
5
5
5
5
5
5
5
5
5
5
5
5
5
5
5
5
5
5
5
5
5
5
5
5
5
5
5
5
5
5
5
5
5
5
5
5
5
5
5
5
5
5
5
5
5
5
5
5
5
5
5
5
5
5
5
5
5
5
5
5
5
5
5
5
5
5
5
5
5
5
5
5
5
5
5
5
5
5
5
5
5
5
5
5
5
5
5
5
5
5
5
5
5
5
5
5
5
5
5
5
5
5
5
5
5
5
5
5
5
5
5
5
5
5
5
5
5
5
5
5
5
5
5
5
5
5
5
5
5
5
5
5
5
5
5
5
5
5
5
5
5
5
5
5
5
5
5
5
5
5
5
5
5
5
5
5
5
5
5
5
5
5
5
5
5
5
5
5
5
5
5
5
5
5
5
5
5
5
5
5
5
5
5
5
5
5
5
5
5
5
5
5
5
5
5
5
5
5

CELL_DATA 320
SCALARS cell_data_0 double
LOOKUP_TABLE default
2.7485321674e-06
5.12347674726e-06
1.0771208424e-05
1.32749702704e-06
3.7141137254e-05
5.91479952974e-05
5.91703015291e-05
1.78636560419e-05
7.82379498907e-05
9.7940937642e-05
6.01966254289e-05
4.58908199804e-05
3.50692586185e-05
5.83814092087e-05
3.51886690001e-05
2.7631109147e-05
1.26445366735e-05
7.43003180578e-05
6.94986575449e-05
5.40203842895e-05
0.000107409287038
0.000201020846264
0.000101849924906
0.00013117580959
4.81110600588e-05
8.40458164247e-05
4.6749510156e-05
6.2715891051e-05
0.000109646037008
0.000187621902274
0.000102562903349
0.000105326804057
6.76385560494e-05
0.000196171980126
8.18368993435e-05
0.000156175540104
0.00027523988205
0.000485765287933
0.000251041986657
0.000189195736511
0.000191169861152
0.000300436729613
0.000113451369918
0.000172929004315
0.000146131623989
0.000247068311869
0.000111290923713
8.58165832153e-05
5.08210967993e-05
0.000186728740099
0.000107834637804
9.58324675308e-05
0.000129416664903
0.000247252385927
9.30831747207e-05
0.000129248168216
8.08204863258e-05
0.000231040906887
0.000158213057902
0.000126170542192
6.22877125089e-05
0.000121036351905
6.31986259975e-05
4.63992217348e-05
1.3757584838e-05
2.98072674768e-05
1.47776079444e-05
3.20785277914e-05
1.67966650188e-05
3.64873727877e-05
1.61347546246e-05
3.90075787551e-05
5.17034931195e-05
9.77456817235e-05
3.86936240395e-05
3.07819052014e-05
4.80391649617e-05
2.8041602228e-05
1.77993807608e-05
4.92650472962e-05
2.21027434156e-05
3.50433659892e-05
4.98986758407e-05
5.2112270792e-05
8.50651702104e-05
0.000103937045066
0.000121091704752
8.48393810059e-05
7.04804290556e-05
8.70842393474e-05
7.29509578713e-05
0.000100187124317
7.17086523831e-05
8.76995482951e-05
9.76473886472e-05
7.40250774612e-05
7.45132459543e-05
8.73996768928e-05
7.18508053125e-05
9.6845516938e-05
8.60170884074e-05
0.000102973894838
8.64109090149e-05
0.000113984508475
5.69723911281e-05
5.59414222751e-05
4.07347367739e-05
5.68139383495e-05
9.47807294406e-05
8.59375129642e-05
7.16694839282e-05
7.38972075425e-05
5.89259328008e-05
5.52706348154e-05
5.62506537095e-05
3.72472752462e-05
5.57291210676e-05
4.76385843825e-05
3.46040119996e-05
3.69981702316e-05
4.66104030618e-05
4.00102448187e-05
3.38149356494e-05
2.86568621264e-05
1.56106194522e-05
1.06584407981e-05
1.49709298943e-05
3.89609496493e-06
4.02498415531e-05
5.20060934052e-05
3.90075834414e-05
3.54987472248e-05
6.00193328963e-05
7.43762247931e-05
5.80761237543e-05
3.87332951343e-05
6.39641076258e-05
9.47442963755e-05
5.1648564341e-05
6.44879892e-05
2.18101336299e-05
1.5699586904e-05
1.75484158944e-05
3.1955907531e-06
6.54208603928e-06
8.69409295288e-06
9.9939395934e-06
1.0997646563e-05
1.81744075686e-05
2.95807908402e-05
2.48214897619e-05
2.69111820643e-05
7.03808495423e-06
3.17881641841e-06
6.97559896951e-06
1.37711597851e-05
3.24983445885e-05
4.30658666158e-05
2.96080535343e-05
5.15310955474e-05
4.84040406709e-05
4.64196176268e-05
4.26459700177e-05
1.34634546656e-05
2.82982570423e-05
3.88755107227e-05
5.41435416156e-05
2.70762295585e-05
2.61105936756e-05
2.39206206572e-05
2.62839644234e-05
4.26598241165e-05
3.20899439363e-05
5.40112934536e-05
5.67131689841e-05
5.89762291498e-05
8.94570052491e-06
1.20202075137e-05
1.75292615183e-05
2.19891218905e-05
1.03891390165e-05
1.09770932597e-06
2.15062721853e-06
1.92260066847e-05
1.78822062274e-06
9.64795654188e-06
1.101277021e-05
5.72879902458e-07
1.07653536203e-05
8.13362106825e-06
8.30233188256e-07
1.00920123179e-05
9.02200440119e-05
9.96207092574e-05
1.83010613043e-05
8.3386846022e-05
2.37478939443e-05
1.49505798144e-05
2.45417137667e-05
4.50438791968e-06
2.49503589516e-05
1.92652826844e-05
1.44686458649e-05
2.32692676353e-05
1.75235332912e-05
2.03231489589e-05
1.38435088378e-05
1.25914561805e-05
4.36643122997e-06
2.41563592842e-07
7.26616770628e-06
5.12423179262e-06
5.44738022415e-06
7.8073243654e-06
7.27094461344e-06
1.1454054677e-05
1.65194992722e-05
1.6047332692e-05
1.97848419116e-05
4.2824185591e-06
1.24065364862e-05
5.01381458766e-06
9.85639670855e-07
9.31798575826e-06
1.20064454014e-07
1.22228972318e-05
5.97828231154e-07
1.35883030769e-06
4.57609152981e-06
1.59057251143e-05
2.31806083352e-05
8.14936247456e-06
4.58415826819e-06
2.244361533e-05
2.94365025451e-05
3.7571484599e-05
1.87413484569e-05
4.36534297642e-05
5.18226473779e-05
5.70564900703e-05
3.83085406257e-05
1.99663888364e-05
2.21869549235e-05
2.29474940138e-05
2.04533146067e-05
1.71861319251e-05
2.29217698589e-06
2.72395999169e-05
7.9382776327e-07
7.88715849301e-06
1.86970405663e-06
1.29901518976e-06
1.36022544184e-05
8.24503210106e-06
6.03012614351e-06
4.57970058455e-06
6.95299671092e-06
6.12665034424e-06
4.12450084812e-06
1.35451856632e-05
4.92786236277e-06
1.41167810949e-06
8.96436350114e-06
9.20168492269e-06
2.97466723561e-05
4.20658457168e-05
4.13652882126e-05
2.0076595809e-05
4.28132488616e-06
3.09498680771e-06
7.06482594711e-06
7.07918179993e-06
1.00949245873e-05
7.27981669608e-06
1.49329951841e-07
5.14700272575e-06
2.48014227696e-06
1.59953638642e-06
6.72779094538e-06
1.45213885396e-06
5.88672796102e-07
1.83069356502e-06
3.73263115309e-06
3.63740857502e-06
3.71725285168e-06
9.66674095637e-06
1.61991132033e-05
1.72703838929e-05
6.65104944533e-05
6.3779346427e-05
4.23542670897e-05
2.59420454366e-05
4.23126872441e-06
1.02838436983e-07
1.08170797005e-06
8.67280371188e-06
8.2947351238e-06
4.26489254404e-06
1.34593201297e-06
6.23680361484e-07
2.80493620515e-05
2.16447100649e-05
1.33704154617e-06
2.2877446682e-05
5.11862602108e-05
4.824090594e-05
2.29079418263e-05
2.80009472911e-05
6.8668088953e-06
9.65315100952e-08
8.61203941582e-06
2.18417724814e-06
7.10181217086e-06
1.14504512712e-05
1.27327244114e-05
1.87004677926e-05
3.96383532761e-05
4.29645776319e-05
1.11201512519e-05
4.70681522351e-05

