# vtk DataFile Version 3.0
File Name: Molecule/sphere_excent/sphere_excent_0-s2.vtk
ASCII
DATASET UNSTRUCTURED_GRID
FIELD FieldData 1
TIME 1 1 double
0.0
POINTS 45 double
0.85065078735 -0.52573114634 -3.1782762533e-10
0.80892878771 -0.30898338556 -0.49994581938
0.99989438057 -2.0369122922e-06 6.8678446041e-06
0.80892795324 0.30898481607 -0.49994629622
0.52573055029 1.7780358519e-08 -0.85065114498
0.85065054893 0.52573156357 4.6538448828e-07
0.49994528294 0.80892926455 -0.30898311734
0.30898210406 0.49994522333 -0.8089299798
-6.5818932171e-07 0.85065090656 -0.52573090792
0.49994769692 0.8089287281 0.30899092555
-1.7640758188e-06 0.99989110231 -1.4086576527e-07
-4.1463863454e-07 0.85065048933 0.52573156357
-0.49994647503 0.8089286685 0.30898529291
-0.49994623661 0.80892831087 -0.30898472667
-0.85065114498 0.52573049068 8.1360838067e-09
-0.30898037553 0.49994429946 0.80894261599
-0.80893009901 0.3089825213 0.49994665384
-0.52573084831 -7.3067963058e-07 0.85065090656
0.30908924341 0.49969145656 0.80901998281
-0.016441727057 0.010413002223 0.99838900566
-0.30878728628 -0.49978047609 0.80918902159
-0.00017199062859 -0.85088902712 0.52539098263
0.308732301 -0.51567995548 0.79744750261
0.49992793798 -0.80911457539 0.30869397521
0.80874621868 -0.30888232589 0.50021582842
0.30898278952 -0.49994546175 -0.80892956257
-1.3425728973e-08 -2.3407165983e-08 -0.99989140034
-0.30898478627 -0.49994620681 -0.80892831087
-1.7695242605e-08 -0.85065114498 -0.52573055029
-0.52573162317 3.8117218537e-07 -0.85065048933
0.80913335085 0.30928516388 0.49948635697
0.53798538446 0.011402223259 0.84070527554
-0.80892956257 -0.30898281932 -0.49994543195
-0.80892914534 0.30898344517 -0.49994567037
-0.99989122152 2.7878795095e-07 6.1126894479e-07
-0.85065054893 -0.52573156357 4.01726993e-07
-0.30898344517 0.49994561076 -0.80892908573
-0.49994498491 -0.80892980099 -0.30898237228
-0.49995008111 -0.80892640352 0.30899050832
-1.5413686469e-06 -0.99989175797 -1.6091484213e-05
-0.80892562866 -0.30898454785 0.49995592237
0.49994495511 -0.80892896652 -0.30898791552
0.27634045482 -5.2862520533e-05 0.96105378866
0.16000694036 -0.26428744197 0.95088160038
0.43506595492 -0.25695878267 0.86295372248

CELLS 86 344
3 0 1 2
3 1 3 2
3 1 4 3
3 2 3 5
3 5 3 6
3 3 7 6
3 3 4 7
3 6 7 8
3 5 6 9
3 6 10 9
3 6 8 10
3 9 10 11
3 11 10 12
3 10 13 12
3 10 8 13
3 12 13 14
3 11 12 15
3 12 16 15
3 12 14 16
3 15 16 17
3 11 15 18
3 15 19 18
3 15 17 19
3 17 20 19
3 20 21 22
3 22 23 24
3 22 21 23
3 24 23 0
3 4 25 26
3 25 27 26
3 25 28 27
3 26 27 29
3 0 2 24
3 2 30 24
3 2 5 30
3 24 30 31
3 5 9 30
3 9 18 30
3 9 11 18
3 30 18 31
3 29 32 33
3 32 34 33
3 32 35 34
3 33 34 14
3 8 36 13
3 36 33 13
3 36 29 33
3 13 33 14
3 35 37 38
3 37 39 38
3 37 28 39
3 38 39 21
3 35 38 40
3 38 20 40
3 38 21 20
3 40 20 17
3 17 16 40
3 16 34 40
3 16 14 34
3 40 34 35
3 29 27 32
3 27 37 32
3 27 28 37
3 32 37 35
3 28 41 39
3 41 23 39
3 41 0 23
3 39 23 21
3 4 1 25
3 1 41 25
3 1 0 41
3 25 41 28
3 4 26 7
3 26 36 7
3 26 29 36
3 7 36 8
3 19 42 18
3 18 42 31
3 22 43 20
3 20 43 19
3 19 43 42
3 43 44 42
3 43 22 44
3 42 44 31
3 31 44 24
3 44 22 24

CELL_TYPES 86
5
5
5
5
5
5
5
5
5
5
5
5
5
5
5
5
5
5
5
5
5
5
5
5
5
5
5
5
5
5
5
5
5
5
5
5
5
5
5
5
5
5
5
5
5
5
5
5
5
5
5
5
5
5
5
5
5
5
5
5
5
5
5
5
5
5
5
5
5
5
5
5
5
5
5
5
5
5
5
5
5
5
5
5
5
5

CELL_DATA 86
SCALARS cell_data_0 double
LOOKUP_TABLE default
8.54207012835e-08
2.99733076718e-07
1.51719941486e-08
1.95422801783e-08
2.61650413796e-07
2.03912072833e-07
9.02553978131e-08
1.37402348427e-07
6.05468880564e-07
3.26304109654e-07
1.99865625863e-07
1.07785473876e-06
7.01897850623e-07
9.6855214327e-07
5.1027525685e-07
6.18954143751e-07
7.47976403764e-06
1.46116966465e-09
9.61064602467e-07
4.68549521868e-06
1.43829065026e-05
2.56726405933e-05
1.39872105988e-05
2.1904212345e-05
3.78352315282e-06
1.00068338095e-05
9.65941865344e-06
1.56247019781e-06
1.20892453274e-08
5.29839457779e-08
4.48222648133e-09
2.58576187504e-08
4.34462162926e-07
2.24785269034e-06
6.26149008845e-07
4.01015066559e-06
1.18155048971e-06
2.52563346572e-07
6.77390185957e-07
1.066818456e-05
1.31493275045e-07
2.89971844653e-07
4.82614778264e-07
4.62709497537e-07
9.44135988489e-08
1.76235627394e-08
8.55375500656e-09
1.39215614653e-07
6.12927452245e-07
3.04029192559e-07
1.96139383323e-07
1.097733116e-06
1.25346905732e-06
3.56202098319e-09
1.21385214939e-06
1.32134686752e-05
1.02656181079e-05
1.39066994785e-06
2.09415117853e-06
2.02763134469e-06
4.12737171595e-08
1.91426624021e-08
3.39487084561e-08
1.3328146745e-07
3.24067439079e-07
3.26087490365e-07
2.34017996134e-07
6.10859538557e-07
4.43865618688e-08
1.97322049517e-07
1.15351943847e-07
3.14628426626e-08
1.29858363057e-08
2.6330352703e-08
2.66770907388e-08
3.50863497941e-09
4.8618164546e-06
1.67229887832e-06
2.54181663618e-06
1.46799614469e-07
3.53357671424e-06
2.42070931887e-06
3.17344654941e-06
1.06163227529e-06
1.77357680198e-06
3.57213401751e-06

