# vtk DataFile Version 3.0
File Name: Molecule/sphere_excent/sphere_excent_0-s29.vtk
ASCII
DATASET UNSTRUCTURED_GRID
FIELD FieldData 1
TIME 1 1 double
0.0
POINTS 1432 double
-0.24510276318 0.95160156488 -0.18369233608
-0.42287683487 0.89985889196 -0.10101802647
-0.28900751472 0.95688921213 -0.019533224404
-0.93277573586 0.18314191699 -0.30743992329
-0.9464609623 0.29347810149 -0.13099966943
-0.86625754833 0.40846171975 -0.28551027179
-0.12567609549 -0.68416982889 0.71838313341
-0.20169530809 -0.67973387241 0.70461630821
-0.14064997435 -0.74985665083 0.64636802673
-0.29775759578 -0.93537354469 0.18948425353
-0.45613270998 -0.86991846561 0.18620032072
-0.37188529968 -0.92642498016 0.05761154741
0.60813945532 -0.24209648371 0.75600600243
0.63944596052 -0.30811002851 0.70437568426
0.66545033455 -0.22263859212 0.71237456799
0.68944257498 0.5052703023 0.51877129078
0.74645507336 0.55920046568 0.3604837656
0.6563167572 0.61441707611 0.43705314398
-0.70303660631 -0.32112592459 0.63444930315
-0.70538783073 -0.23127728701 0.67001026869
-0.77649575472 -0.22987955809 0.58662968874
-0.65274149179 -0.29030141234 0.69968366623
-0.74918854237 -0.14502449334 0.64599996805
0.10486929119 -0.0588163957 0.99274140596
0.13495060802 -0.0022618221119 0.99084037542
0.07067450881 -0.013440480456 0.99735224247
-0.4153547883 -0.58464032412 0.6968909502
-0.34793686867 -0.60707384348 0.71387785673
-0.38085919619 -0.53785175085 0.75210648775
-0.39296641946 -0.37409716845 0.84002381563
-0.3191613555 -0.40237796307 0.85801166296
-0.34700784087 -0.32096651196 0.8809440136
0.64306426048 -0.75513440371 -0.12328144163
0.6093711257 -0.79140758514 0.040664862841
0.50999212265 -0.85434240103 -0.10149283707
0.68718290329 0.27609598637 0.6719647646
0.73389685154 0.18392890692 0.65384882689
0.74056941271 0.28848773241 0.60690230131
0.66648936272 0.20076005161 0.71795898676
0.054470162839 0.762398839 0.64461022615
0.040972709656 0.83247172832 0.55251890421
-0.031983438879 0.77446001768 0.63151443005
0.84996324778 0.07387124747 0.52147531509
0.79763746262 0.15290957689 0.58342248201
0.77930545807 0.091109655797 0.61991614103
0.17144028842 0.77389448881 0.60956025124
0.16512070596 0.83838051558 0.51938182116
0.27629727125 0.78758984804 0.55015015602
0.4251960218 0.75276434422 0.5024856925
0.34180691838 0.81389659643 0.46976828575
0.34392046928 0.74742752314 0.5679513216
0.35683116317 -0.27253246307 0.89346313477
0.36328518391 -0.33435660601 0.86961358786
0.42564147711 -0.29936611652 0.85393816233
0.45693251491 -0.37467730045 0.80671954155
0.39520320296 -0.38108333945 0.83574354649
0.49813055992 -0.30529940128 0.81157469749
0.4335873425 -0.49313670397 0.75415986776
0.49571126699 -0.44067329168 0.74838507175
0.41839194298 -0.43692010641 0.79623180628
0.011524274945 0.49063518643 0.8712836504
-0.017884384841 0.55843579769 0.82934606075
-0.061669040471 0.51413112879 0.85547947884
0.074908263981 0.44283610582 0.89346241951
0.095897078514 0.50635421276 0.85697168112
0.98976224661 -0.016139864922 -0.13848602772
0.99674844742 0.075571857393 0.027619037777
0.99407964945 -0.098589211702 0.043441299349
0.98227804899 -0.0036023296416 0.1847769469
0.4591923058 0.88725107908 -0.041095517576
0.57720583677 0.8120418787 0.086858607829
0.62124109268 0.77934759855 -0.081814862788
0.71911710501 0.69080489874 0.074074491858
0.85164052248 -0.35189780593 0.38831919432
0.87832593918 -0.24020951986 0.41324296594
0.8295366168 -0.26897126436 0.48913675547
0.53796452284 0.25825214386 0.80241477489
0.62366819382 0.27430188656 0.73201483488
0.58671396971 0.33416295052 0.73763436079
0.63466185331 0.34750875831 0.6901704073
0.80112427473 -0.34159135818 -0.49139532447
0.64529013634 -0.56944358349 -0.50916916132
0.64360636473 -0.38395565748 -0.66172862053
-0.047469835728 -0.80618679523 0.58971762657
-0.037889055908 -0.75405907631 0.65571087599
0.42510789633 -0.88438677788 0.19173489511
0.28567528725 -0.93943059444 0.18588401377
0.39469611645 -0.91494035721 0.083785809577
-0.59933114052 -0.77441948652 0.20260627568
-0.55801546574 -0.82945615053 0.021194899455
-0.72564190626 -0.67404276133 0.13790889084
-0.57763165236 0.064157657325 0.81375867128
-0.61794435978 0.012627800927 0.78593975306
-0.5659430027 0.0035682418384 0.82432919741
-0.68665772676 -0.67059612274 0.28030049801
0.4932693243 -0.68520402908 0.53589427471
0.56651562452 -0.61851966381 0.54450541735
0.47581145167 -0.63005048037 0.61343824863
0.57609659433 -0.6739872694 0.46241763234
0.4787556231 -0.7541102767 0.44959002733
0.44601070881 -0.82999634743 0.33462235332
0.55854427814 -0.73126161098 0.3911858201
-0.6229287982 0.22217875719 0.75006997585
-0.57853502035 0.18552199006 0.79423797131
-0.54261541367 0.25566419959 0.80012738705
-0.76153773069 -0.57796359062 0.29322612286
0.66212767363 -0.57624685764 0.47905668616
0.49319282174 -0.5243921876 0.69383132458
0.95421022177 0.28092747927 -0.099615849555
0.88051998615 0.37894070148 -0.28379315138
0.86304003 0.48839989305 -0.12892717123
0.29359424114 0.05685826391 0.954236269
0.33833503723 0.09807009995 0.93589925766
0.26589405537 0.10611017048 0.95811283588
0.35327541828 0.027318820357 0.93510204554
0.40119946003 0.064213484526 0.9136813879
0.12216150761 0.39111211896 0.91220009327
0.14663594961 0.44592410326 0.88297176361
0.18597413599 0.38952031732 0.90203768015
0.056044384837 0.16609072685 0.98451238871
0.09511718154 0.22920046747 0.96869325638
0.029632035643 0.23068137467 0.97257715464
-0.42844569683 0.68317955732 0.59133327007
-0.49826058745 0.66192656755 0.55996805429
-0.47753790021 0.61354607344 0.62891376019
-0.58836084604 0.57417327166 0.56932783127
0.2399096787 -0.87409108877 0.42201921344
0.18066324294 -0.92058461905 0.34554871917
0.31121790409 -0.90070414543 0.30285874009
0.19912260771 -0.9532455802 0.22718697786
-0.55783385038 0.79376846552 -0.24109996855
-0.70181041956 0.6696998477 -0.2418409586
-0.63593953848 0.76425361633 -0.10646012425
0.58112663031 -0.16030295193 0.79784953594
0.54575705528 -0.24233750999 0.80214953423
0.56865149736 -0.30817753077 0.76266980171
0.48072677851 -0.23719383776 0.84418523312
0.52999222279 -0.18606348336 0.82731986046
-0.046054191887 0.11998349428 0.99171090126
0.015883106738 0.11209963262 0.99356913567
-0.0060614473186 0.17193384469 0.98508626223
0.8038175106 -0.50857079029 -0.30845811963
0.30266395211 0.16013018787 0.93954837322
0.37062752247 0.16308937967 0.91432285309
-0.36448463798 0.15451095998 0.91823846102
-0.36788582802 0.097852610052 0.92470896244
-0.31049346924 0.12774451077 0.94191199541
-0.40300524235 0.045247413218 0.91406923532
-0.44197189808 0.10229478031 0.89113098383
-0.46904072165 0.019845336676 0.88289695978
-0.34504768252 0.039782065898 0.9376527667
0.032463725656 -0.97537589073 0.21771214902
0.1171464622 -0.95930957794 0.25586971641
-0.011649372056 -0.95782899857 0.28690522909
0.66740715504 -0.66878604889 -0.32648697495
0.45733058453 -0.75777482986 -0.46502918005
0.76785588264 -0.62400829792 -0.14447243512
0.72123032808 -0.1248447001 -0.68124818802
0.6903064847 0.13499414921 -0.71077102423
0.83326792717 0.05396476388 -0.5501807332
0.50552582741 -0.0036456068046 -0.86278069019
0.79232257605 0.2615390718 -0.55077952147
-0.83107244968 0.2577920258 0.49265888333
-0.8726991415 0.29492366314 0.3876247704
-0.88752627373 0.19252538681 0.41841712594
-0.83005923033 0.445725739 0.33446466923
-0.74734258652 0.5282548666 0.40284028649
-0.76858204603 0.57320135832 0.28405338526
-0.66986078024 0.56184011698 0.48545774817
-0.68310719728 0.61952978373 0.38661959767
-0.61483770609 0.6383125782 0.463180691
-0.67212188244 0.67946654558 0.29378518462
-0.59565705061 0.71124881506 0.37310326099
-0.36218607426 0.88016569614 -0.30448427796
-0.17184314132 0.90934920311 -0.37761738896
-0.91869407892 0.22581578791 0.32334682345
0.0067033912055 0.42058804631 0.90722560883
0.061200946569 0.38304311037 0.92160302401
-0.055410999805 0.38962128758 0.91930240393
-0.010384444147 0.35829398036 0.93346351385
-0.87016642094 0.45539084077 0.18825002015
-0.083855703473 0.33021169901 0.94004666805
-0.1266836375 0.37728521228 0.91732025146
-0.19710086286 0.40726298094 0.89179170132
-0.14098335803 0.42906805873 0.89220052958
-0.1696011126 0.47465533018 0.8636610508
0.38320702314 0.47719749808 0.7908655405
0.43529558182 0.50320494175 0.74647825956
0.36401355267 0.53063064814 0.7654812932
0.48076590896 0.52373200655 0.70308548212
0.40651899576 0.56649589539 0.71676760912
0.087215796113 -0.13068383932 0.9875831604
0.047436513007 -0.080371446908 0.99563491344
0.023178156465 -0.13522198796 0.99051171541
-0.019569832832 -0.090954318643 0.99565774202
-0.54971665144 0.42197027802 0.72090047598
-0.48507887125 0.39442497492 0.78046488762
-0.45374727249 0.47946342826 0.75111204386
-0.54685807228 0.34440895915 0.7631046772
-0.41688597202 0.41553205252 0.80841851234
0.13530865312 -0.16265666485 0.97728872299
0.093269757926 -0.19947256148 0.97545665503
0.67592775822 0.36135950685 0.64215487242
0.25734779239 0.57954442501 0.77305692434
0.31769064069 0.59519743919 0.73783904314
0.22627669573 0.64131832123 0.73314857483
0.40527379513 0.6358294487 0.65662652254
0.47003927827 0.57683795691 0.66784983873
-0.5706423521 0.77024394274 0.28236734867
-0.51190626621 0.80152094364 0.30772393942
0.39059907198 0.6986066699 0.59939491749
0.46195703745 0.68056309223 0.5686929822
0.7147308588 0.38776659966 0.58170413971
0.76547533274 0.39775618911 0.50573158264
0.42678761482 -0.2194481343 0.87725883722
0.45174095035 -0.18082176149 0.8736063838
0.39061686397 -0.19255438447 0.90013277531
0.95826083422 0.19698661566 0.20634156466
0.9722763896 0.2206389904 0.077979497612
0.93191742897 0.31321784854 0.18150907755
0.9393325448 0.33796086907 0.058450274169
-0.046401795 0.45508861542 0.88922947645
0.49204564095 0.45190793276 0.74407118559
0.43363747001 0.45279681683 0.77905869484
0.63623774052 0.3796120882 -0.67158526182
0.51830035448 0.24504612386 -0.81931555271
-0.59356600046 -0.066585808992 0.8020260334
-0.5466760993 -0.121364519 0.82850378752
-0.53254884481 -0.064492337406 0.84385031462
[...]
CELL_DATA 2860
SCALARS cell_data_0 double
LOOKUP_TABLE default
9.77084795226e-09
8.34996587067e-09
5.6241387913e-09
3.86012778517e-09
2.12252516013e-09
5.59792783413e-10
1.11120697111e-08
4.80469677989e-09
3.98207958002e-09
3.95269971668e-10
2.73333186612e-09
2.96528198345e-09
3.94660539348e-09
1.54934541992e-09
3.16197577165e-09
3.11134135449e-09
3.91092240126e-10
4.86543907773e-09
3.37486189939e-09
2.59160224495e-09
6.48248466291e-09
4.73511617653e-09
5.01820587851e-09
2.46797062267e-09
3.1515473716e-09
3.166255546e-09
5.11914772969e-09
9.28260060553e-09
5.24477625267e-09
1.75809637903e-09
6.94588606551e-09
6.48945219781e-09
2.87707494691e-09
1.13967543655e-08
8.09763143282e-09
1.42386062903e-09
4.55160053677e-09
5.30871329505e-09
3.73236150866e-09
1.48684016743e-09
1.35855482405e-09
3.04604565403e-09
2.64488723198e-09
2.25106851424e-09
3.1000280841e-09
2.33478597144e-09
5.03305610224e-10
4.48773283939e-09
1.71129666136e-09
7.56221220138e-09
8.74040772836e-09
2.16357982398e-09
5.34024411817e-09
1.44548837408e-09
4.11618514612e-09
6.97788037243e-09
4.37439209414e-09
2.07083524812e-09
1.45525381213e-09
2.10155584989e-09
9.47647483115e-09
5.74732642674e-09
4.28608002649e-09
4.23742512103e-09
2.53007495388e-09
8.24559030565e-09
6.04591004295e-09
2.0246587276e-09
2.70767824123e-11
7.36103235347e-09
3.8760416491e-09
8.91545039517e-09
1.82515537867e-09
1.51729221865e-09
6.88185393025e-09
4.65169792071e-09
1.59576314032e-09
2.59616066935e-09
8.44422980048e-09
1.75525893076e-10
6.40889662972e-09
4.73750258825e-09
5.49002674406e-09
6.9924934458e-09
3.53074490924e-09
1.71969310975e-09
7.19528862005e-09
2.26196605115e-09
3.26659394673e-11
4.31600141614e-09
1.68748577742e-09
3.21368803321e-09
1.56013475892e-09
3.76888864889e-09
2.08603199875e-09
7.83193728878e-09
1.32487235594e-08
2.25139158153e-09
2.12271653718e-09
3.31131230929e-09
5.27244590924e-10
7.32786220995e-09
1.43722310134e-10
1.67481171705e-09
2.65411838627e-09
2.47126117201e-09
6.40117729834e-09
2.57060670822e-09
1.9536059349e-09
4.27618196048e-09
7.20765772496e-09
4.09575817436e-09
2.85242587135e-09
3.54160775861e-09
1.88177736043e-09
3.36338171122e-09
7.9026353995e-09
2.61252990217e-09
3.56726710577e-09
5.7534657211e-09
1.45673099171e-09
1.92587974308e-09
3.97934329705e-10
5.25014701956e-10
1.62686032468e-09
1.03991204133e-09
1.05894378126e-09
3.71318935911e-09
3.4645725705e-10
8.02610152774e-10
3.93823555672e-10
1.01159999531e-08
2.51658506986e-09
1.70615186147e-10
2.22424225274e-09
1.14867607974e-09
6.56728126795e-09
1.00422305053e-09
3.39590734463e-09
3.75337970122e-09
8.09985459374e-11
5.21428062276e-09
2.03637657716e-09
5.23170348169e-09
5.157368637e-09
9.01239604518e-09
2.0676908767e-09
4.20949447747e-09
4.06428939731e-09
3.325766734e-09
2.29780637158e-09
6.81212726394e-09
1.43434291152e-09
8.00118031389e-09
8.72877373071e-09
4.72551326315e-09
8.91925929997e-09
7.36338960291e-09
2.79631720089e-10
6.99789821966e-09
5.49434308098e-09
7.63320674953e-09
1.1661360834e-08
6.4410916477e-09
1.31942450043e-09
9.61234360425e-09
5.20479774521e-10
8.54208728039e-09
1.92630951691e-09
5.75781467581e-09
3.46521625801e-10
9.53463414324e-09
7.9084909392e-09
6.44785206679e-09
6.48901146737e-10
1.22313003038e-09
5.39439430063e-09
6.05125057963e-09
5.07421984293e-09
1.8066649801e-09
8.43016154177e-09
9.28914483785e-11
3.89233227843e-10
8.26131667758e-09
1.2352595922e-09
5.53023341196e-09
3.94185039326e-09
1.68405582516e-09
1.55720282809e-10
1.11157073655e-08
1.47693863087e-10
2.21661760656e-09
5.05487382527e-09
8.17597032794e-11
1.49305733297e-09
6.11242846982e-10
1.3883640765e-09
1.8779645681e-09
2.72212304988e-09
3.05400946289e-09
2.19386130103e-09
1.95894777441e-09
7.02229372908e-09
1.20126553223e-09
1.93422144465e-09
7.9405891004e-09
5.84023497263e-09
1.3220254616e-08
3.99007424624e-09
7.89866028623e-09
1.16779843653e-09
1.47442479268e-09
2.44364476009e-09
3.44596485664e-09
7.14337663243e-09
6.23825363762e-09
2.32126491297e-09
3.51485585843e-09
5.23219652285e-09
4.77989114082e-09
8.36405572521e-09
5.69501587262e-09
4.87209707189e-11
1.68448564176e-09
5.87938713908e-09
4.67699713854e-09
1.59397796004e-09
3.70959275134e-09
5.07173602223e-10
3.11906849654e-09
2.15306596359e-09
6.79207491519e-09
6.47800264227e-09
4.54476827663e-09
5.84276788843e-09
3.36894896627e-09
1.22723918026e-09
8.49363271855e-09
2.06812833219e-09
1.02991810395e-08
7.75705451759e-09
3.27124678176e-09
6.57607778559e-09
3.84567689581e-09
3.03581560107e-09
3.66389183806e-09
5.87665078613e-09
2.01967066931e-09
2.46013824706e-10
5.90573852198e-11
1.03802877408e-09
6.19048877429e-09
8.90862513107e-09
4.81004665405e-09
4.14874594697e-09
4.81980673148e-09
3.2122201393e-09
3.12133999493e-10
3.15216030922e-10
3.17269133324e-09
2.28752535282e-09
8.17668063132e-10
2.26993044691e-09
6.5872068993e-10
6.85707009433e-10
3.85889044096e-09
2.42742646286e-09
1.27173263448e-09
7.75636661502e-09
5.9468454839e-09
7.1202575687e-09
6.17659669447e-09
4.1727742181e-09
3.88088872976e-09
5.04196486113e-11
7.09962405502e-09
7.07147906969e-09
3.36024050138e-09
3.06181713183e-09
1.15630793107e-08
2.8279587552e-09
1.32563590372e-08
2.4292689148e-09
6.39297487475e-09
5.5321562472e-09
2.29566862908e-09
5.78426253094e-09
5.22537064954e-09
6.91470471403e-10
2.47184573844e-09
1.46522890884e-09
8.00361809034e-10
4.13603102159e-10
6.4848463477e-10
8.48012948348e-09
4.87499106382e-10
1.21024617037e-09
5.75005671498e-09
2.94253821728e-10
1.46820420822e-08
7.1593521222e-10
3.93814321683e-09
1.22018335406e-09
9.65336943412e-09
5.76289314576e-09
4.57820548822e-09
5.89612105279e-09
6.12404422028e-09
3.53344031004e-09
2.42864414718e-09
2.05523473057e-09
3.24700940665e-09
8.0931672477e-09
4.81484438338e-10
7.73683524236e-09
1.07458800857e-09
1.60535917528e-09
1.7318885023e-09
1.82336356857e-10
5.20893249472e-09
6.32252645213e-09
2.43902762214e-09
2.32134265575e-09
3.3420904629e-09
1.04299055508e-09
3.45396706563e-09
6.05363352073e-09
4.40098224092e-09
6.15410353407e-09
1.98283584747e-09
1.03085398358e-09
5.31141342009e-09
1.65483451199e-09
6.41955545928e-10
1.8605613933e-09
6.81635210778e-09
1.1743558378e-08
2.83173574006e-11
4.6599029759e-09
2.14756616812e-09
7.11167219643e-10
1.31361529924e-09
2.29921062017e-09
3.6973457892e-10
2.24685328289e-09
6.01001670957e-09
9.31412236018e-09
4.32562064948e-09
1.07986830894e-09
2.02672300637e-09
9.54839526654e-10
4.82624365675e-09
2.61770799976e-09
2.90055538688e-09
2.20468639991e-09
1.06630191503e-09
4.51572909396e-10
1.920508856e-09
5.65611134008e-09
4.00190869778e-10
8.30772982152e-09
4.55325627859e-09
2.54837236327e-09
6.44617598427e-10
3.04397958341e-09
3.5374895582e-09
7.7579190593e-10
1.8398600521e-09
2.07992471272e-09
4.7947467053e-09
7.53623948454e-09
3.14321419862e-09
1.49544967812e-09
5.5770818954e-09
6.67382465182e-09
7.59192651965e-09
8.53929196122e-09
2.28745311589e-09
9.8004474885e-09
1.19846628985e-09
7.67297694954e-09
9.7751057508e-09
7.27285660681e-09
1.09918763695e-09
1.37954591178e-09
5.94479331534e-09
8.29023936879e-09
5.09701870268e-10
5.81210824451e-09
3.32558931573e-09
8.27770716687e-10
6.03289812113e-09
6.96045010233e-09
7.76320904632e-10
2.29028028115e-10
9.32975030865e-09
7.66554680347e-09
5.78369265574e-09
5.36951191075e-09
1.6156321737e-09
2.60996657483e-09
1.4411511362e-09
5.85948816743e-09
3.44941836902e-09
7.48653553918e-10
1.67341985987e-09
6.46220707639e-09
1.62903988181e-10
3.99342397629e-10
4.43105633576e-09
9.11204213977e-09
3.87750749051e-09
6.52908491004e-09
6.17611406506e-09
4.88080036107e-09
8.65255807899e-09
4.85139086196e-09
1.97715961408e-09
6.38599801018e-09
7.14617159062e-09
2.78218634388e-09
4.42247985409e-09
1.34962562266e-09
1.09545640412e-10
5.29626141301e-09
2.57221759139e-09
4.71487205829e-10
5.91305872205e-09
5.07227587854e-09
8.00762641873e-09
7.0912313758e-09
2.5543500812e-09
2.57376912053e-09
3.01768951989e-09
9.10383406527e-10
1.0887656869e-09
5.24841978504e-09
5.59418651185e-09
7.47048402178e-09
2.53434032397e-09
3.83302486261e-09
5.1656863066e-09
4.7769139075e-09
4.89164544083e-09
6.92010868946e-09
3.12303875707e-09
2.18522033057e-09
3.905060485e-09
9.79702184992e-12
2.28398804181e-09
9.79992597729e-10
1.61778353736e-09
6.36522929276e-09
3.10303025084e-10
3.8451917729e-09
1.235202926e-08
3.01789159036e-09
2.39887990061e-09
5.25079399402e-09
2.13300219085e-09
7.66727696275e-10
4.11656176567e-09
2.68531540072e-09
1.59025352049e-09
5.70404426568e-09
5.19141833909e-09
1.91628131389e-09
2.81691028136e-10
7.64489993985e-09
3.45977796787e-09
2.54270860865e-09
6.64904259261e-09
3.24500460332e-09
2.71896983794e-09
5.25212881945e-09
3.32617094307e-09
4.20103802821e-09
7.08865440458e-10
1.51819341272e-10
1.16027095943e-09
1.0038215034e-10
2.4642107975e-09
5.03272008262e-09
7.81698410549e-10
3.88266670175e-09
1.14926450671e-09
1.62753976887e-09
3.78397047555e-09
1.13278594118e-08
4.18727560072e-09
2.63428417556e-09
3.75906755815e-09
2.20862314124e-09
1.53704989024e-09
3.2389204627e-09
4.99314324103e-09
5.9564226995e-10
4.10308703529e-10
1.53231286411e-09
1.66541082199e-09
4.30170949681e-09
3.7041036556e-09
6.79637650645e-09
1.9394808058e-09
2.53977219114e-10
3.3741877756e-09
3.44852740003e-09
2.64906423363e-09
2.19215737877e-09
2.42113448601e-09
3.22743725276e-09
5.77128579347e-09
3.7387838533e-09
7.73241663539e-09
2.36727522782e-09
1.55748422539e-09
4.68282036854e-09
3.93579415438e-09
1.47022907288e-09
1.87896721957e-09
8.7004068308e-10
1.68608136326e-09
1.94577605631e-09
1.64381788392e-09
1.91435219666e-09
2.52243172691e-09
2.59793708701e-09
4.48114666772e-09
7.68046107092e-10
3.95292199291e-09
2.20192206127e-09
7.41549955426e-09
1.3531954335e-09
2.52661587755e-09
6.1417474199e-09
3.50851532772e-09
6.82519385886e-09
8.85453230168e-09
1.96534635703e-09
2.35596882629e-09
5.69552385209e-09
1.32888439741e-09
1.5476631436e-09
1.07917385022e-09
7.62788862915e-09
5.51887788679e-09
5.17102342498e-10
6.5061840463e-09
9.45720277793e-09
1.88592290652e-09
6.95468440514e-09
4.02842299351e-09
3.5256127629e-09
6.98371597997e-10
5.8768916563e-09
6.99735484015e-10
1.5241387388e-09
7.5047015236e-10
9.92959772913e-10
4.35335198058e-09
8.02066642261e-10
1.32258977192e-09
1.97417758394e-09
2.91780131958e-09
2.91462928134e-09
5.49897478251e-09
2.48165450151e-10
1.8043196206e-09
2.25047933567e-09
2.17301132434e-09
1.34434550119e-09
5.09651674885e-09
8.29307174233e-10
4.19997484731e-10
1.935119974e-09
2.82647554548e-09
7.48514529333e-09
5.92561707522e-09
5.4536968474e-09
6.83658718209e-10
2.38622349878e-09
2.39097637905e-10
2.56904569888e-09
6.46457007403e-09
7.78759737659e-10
3.72999278589e-09
7.85225935143e-09
4.1749388733e-09
2.56346018017e-09
1.33875885805e-09
6.61363140389e-09
3.99960463704e-09
3.50455549939e-09
6.68236519563e-09
3.88126981143e-09
3.57489527529e-09
3.2570448932e-09
3.50693121932e-09
2.20973651422e-09
4.46304872368e-09
2.87028543257e-09
7.17712600478e-10
1.05594562369e-09
2.10819271393e-09
2.26152039316e-09
2.04904608192e-09
9.52541235845e-09
7.39608549555e-10
3.86875131e-09
1.7194492058e-09
2.05988710521e-09
1.0560223564e-10
1.7784715568e-10
2.401546887e-09
5.98860378721e-10
1.57703150821e-09
3.37552962156e-10
1.85863595503e-09
1.7496680505e-09
5.68305946684e-09
2.9428231925e-10
4.2625948233e-10
1.93814167191e-09
2.71879722771e-09
2.54640667615e-09
1.57721150996e-09
4.89759171838e-09
7.15121216483e-09
2.62105140927e-09
1.42165999308e-09
1.20363590585e-09
4.05554674639e-09
7.48040082464e-09
2.27751680088e-09
2.13827890408e-09
3.27965336811e-09
1.34281768583e-08
2.81047111261e-09
1.55319437778e-08
3.79726197179e-10
1.87484504106e-09
9.27969074966e-10
1.05134468062e-09
6.07049937505e-10
3.535692459e-09
1.70002550928e-09
1.55920445535e-09
1.24651464962e-09
2.83012789818e-09
3.21166964816e-09
8.85009286333e-10
3.44598863439e-09
3.48702877513e-10
1.17035576558e-09
2.64707475165e-09
4.17323553908e-09
3.13043735229e-09
1.51115586379e-09
1.77147487427e-10
7.66387000145e-10
1.65245844432e-09
3.73652864194e-09
4.11066843266e-09
8.07041688459e-10
2.45857579787e-09
2.97137473989e-09
5.04335463247e-09
2.42410996312e-09
2.03638873767e-09
2.84996496329e-09
1.82925011369e-09
1.0933061885e-10
1.16271915865e-10
6.62607931216e-10
2.66877873226e-09
1.50981792953e-09
1.7133978601e-09
1.32210550419e-09
5.38120198277e-10
4.24367324877e-09
2.26414548303e-09
3.05732065563e-09
3.36723923186e-09
4.46121666161e-09
2.83255420862e-09
2.69408384073e-09
1.93407910101e-09
7.38890508111e-10
2.06757855711e-09
6.83581320216e-10
1.43644768752e-09
4.71407002621e-09
3.3142080499e-09
3.07951053026e-09
8.93490604912e-10
7.07542464073e-10
3.34829087154e-10
5.16939016425e-09
3.24162387868e-09
2.7384832416e-09
5.94417782664e-09
8.97029332026e-09
1.18407549632e-09
1.38107489069e-09
1.51977282405e-09
4.72178919445e-10
3.80375508448e-13
4.46201327965e-10
1.74257873984e-09
1.21328071874e-09
2.10123363281e-09
1.94478295822e-09
1.67733478215e-09
2.23781234031e-09
2.434388903e-09
8.67232562093e-10
3.3258978034e-09
3.1384398831e-09
2.72657975834e-09
1.60218720791e-09
5.71019171675e-09
1.51006840467e-09
3.89197281314e-09
5.13750456657e-09
3.87683484728e-09
2.88202584907e-09
4.25038296228e-09
1.65989602644e-09
4.75462192537e-09
2.51328949365e-09
1.01544682022e-10
3.60909156755e-10
2.99339495968e-09
4.77720503658e-10
4.7877467341e-11
6.03834926041e-10
1.45474565004e-09
4.45742198549e-09
1.09397882329e-09
3.27241809642e-10
2.78606099155e-09
2.36675492239e-09
2.17087418853e-10
1.37793732093e-09
6.42285024821e-09
6.26952601648e-09
2.24627933241e-09
4.2370075071e-09
2.22483327866e-09
3.15776181058e-09
4.2138377685e-09
1.19268569397e-09
2.14130901793e-09
1.76724045906e-10
6.06637997425e-09
4.69106165388e-09
4.87911402917e-10
1.11921936091e-08
6.95516523384e-09
8.83087954232e-09
2.47535325685e-09
3.31943954843e-09
8.9360873574e-09
2.65963496689e-09
1.6263470872e-09
1.11073199992e-09
3.28256306262e-10
3.79180180262e-11
4.4671000294e-09
5.31837348398e-09
8.64350100276e-10
4.51456509653e-09
5.13410059284e-09
1.18993212304e-10
4.90985434244e-09
3.20868374265e-09
7.42492839504e-09
7.3415204223e-09
4.21023177393e-09
3.43757956624e-09
4.48122420807e-10
4.03726256563e-09
2.6823496324e-09
2.25051087166e-09
8.90329834454e-09
7.0319673917e-10
9.32949605057e-10
1.0615859337e-10
9.9453529459e-10
5.19050247579e-09
8.34085287544e-10
6.84396058233e-09
7.23764932737e-10
7.86155352832e-09
4.22930335762e-10
2.99245917827e-09
8.48780674101e-09
2.35415110818e-09
1.48260026205e-09
2.69134074885e-09
1.4935061184e-09
5.43737839263e-09
4.69482023275e-09
1.04296869066e-09
3.05167137225e-09
4.87519910227e-09
1.50599787039e-09
5.89539131413e-09
3.07104465346e-09
4.52871950107e-09
2.04309714978e-09
2.58582116088e-09
1.07290650549e-09
7.28343874781e-10
1.60276523384e-09
3.71203605285e-10
1.1508469002e-09
7.73315993567e-10
6.18547658461e-10
1.10115503658e-09
3.84091851276e-09
4.48620803491e-09
1.66175006583e-09
2.03377052828e-09
1.55177304973e-09
3.01828796165e-09
1.53538946e-09
3.61624909399e-09
3.90036435653e-09
3.44229620807e-10
1.36382232867e-09
4.80125848826e-09
2.93851606575e-09
9.2851427722e-10
3.75187035222e-09
4.96396286201e-09
2.2763911151e-09
5.14350081019e-09
6.74233721046e-09
2.05252066408e-09
5.16179334673e-09
4.21236786016e-10
8.49418124854e-10
2.04063513555e-09
1.41290867535e-09
3.24276127421e-10
1.77879381717e-09
2.85277443874e-09
4.96786741481e-09
2.30777183234e-09
2.88055105093e-09
2.39474370939e-09
2.4793024595e-09
2.2835781289e-09
9.93963213447e-09
3.09139824379e-10
3.19187811955e-09
8.73404097793e-09
1.35170107698e-08
1.21914397467e-10
2.17523373184e-09
3.35749116222e-09
4.72076733655e-09
6.0674506018e-11
1.15016439388e-09
2.7115302035e-09
3.93790077865e-09
3.21309009392e-09
4.67291495365e-09
1.24193914393e-10
2.41551770586e-09
4.58643594404e-09
1.40052670257e-09
4.91319863021e-09
7.61028167712e-09
4.27219581666e-10
1.54645667684e-09
1.12823449847e-08
6.41475234115e-09
8.70074878263e-10
9.95600784381e-10
3.22050778878e-09
1.48752102627e-09
8.32884142718e-09
3.86217481538e-09
1.82650533306e-09
4.60250659808e-09
1.35271999745e-09
1.61961117105e-09
2.75741274093e-09
1.00516903962e-08
4.56268759082e-09
7.53676313696e-09
3.65998267437e-09
1.61808492268e-09
6.20834342116e-09
3.29965274955e-09
8.6575230459e-10
5.70536417451e-09
1.26133856917e-09
5.61216264167e-09
1.98626869087e-09
1.79671583546e-10
1.71707941746e-09
1.18938471268e-09
2.57295523264e-09
3.1562323379e-09
1.2048960809e-08
8.49449240985e-10
7.13606110379e-09
3.64454409695e-09
3.15862195173e-09
2.49701421831e-09
2.6081125989e-09
3.17256837301e-09
1.60749282043e-09
5.00086589991e-10
2.21751069232e-11
1.2098501313e-09
3.43211860144e-09
5.68387826495e-09
4.16981771277e-09
3.38400752795e-09
1.05319533622e-08
3.90907774643e-09
2.30821545852e-10
3.40967629257e-09
2.14132840966e-09
1.87562894924e-09
1.29942012965e-09
1.15103604064e-10
2.20347114795e-09
1.09776901075e-09
2.3716972489e-09
1.40281620678e-09
4.0829519153e-09
3.46290372519e-09
5.75173945044e-09
3.48689520716e-09
2.23144348394e-09
1.46479143312e-10
1.70468536965e-09
1.21717173956e-09
7.34635128836e-10
7.0248396682e-10
1.399343437e-09
1.94380680054e-09
2.98844558875e-09
3.95007436807e-09
1.60863361238e-09
1.90318482703e-09
4.61158391318e-09
7.43424785504e-12
3.88414764229e-10
2.58134548364e-10
7.48676159848e-10
5.42800170825e-09
1.44761651117e-09
3.62529731981e-09
1.56532924264e-09
5.04446492309e-09
2.87854394425e-09
1.96952833993e-09
3.63575796457e-09
3.64626361631e-09
4.49528878827e-09
1.92703407618e-09
7.52426303018e-10
5.77921632858e-10
5.32679577875e-09
9.81341445405e-10
4.0947149027e-09
9.6397109124e-10
2.57703182282e-09
3.74429186508e-09
3.83469936293e-10
2.25351488529e-09
9.22923030388e-10
3.34542983782e-10
1.0985551271e-09
6.47041074094e-09
1.00793052752e-09
4.15708358914e-09
5.2079563452e-10
2.04779323998e-09
4.95326786714e-09
9.10872644478e-10
5.07117239684e-09
5.8103772003e-09
1.4083926469e-09
1.62039786504e-11
1.9051097864e-09
2.02489902283e-09
5.53996523438e-09
1.21329744363e-09
5.02903800843e-09
1.28580572783e-09
6.91350985307e-10
4.25814239168e-10
4.28064640253e-09
1.73344446414e-09
6.69174751924e-09
5.42509183544e-09
3.52555504089e-09
2.41619732754e-09
1.4067173608e-09
3.00429193259e-09
2.1218350971e-09
4.79274781236e-09
4.50567835198e-09
6.66369284443e-10
7.19063246731e-09
3.55687324671e-09
1.266067099e-08
2.23845521331e-09
1.25401822878e-09
3.21709051654e-09
2.08539377889e-09
7.72912621174e-09
1.2769688249e-09
2.72602359981e-09
2.7542072534e-10
5.71659211428e-09
1.98077458288e-09
3.13962924426e-09
5.30316195157e-10
2.10835378995e-09
5.15492536642e-09
1.48713474315e-09
1.66280287246e-09
2.3120062658e-09
1.92332694115e-09
7.38416540765e-10
2.71930669404e-10
2.52711714449e-09
2.70819982865e-09
9.6159570225e-10
1.3525558202e-09
2.27324468293e-09
3.89244538081e-09
2.42280295891e-09
4.18011469093e-09
1.039433867e-09
1.6267955638e-09
2.45107439805e-09
1.95301363971e-09
2.28208660218e-09
3.48034208865e-09
1.50003116817e-09
2.61338206044e-09
6.43744773698e-09
3.40600800094e-09
8.39368410544e-09
3.75213460357e-09
2.37366704434e-09
1.73672108188e-09
2.91884664178e-10
2.90558697924e-09
1.50458774016e-09
9.33296877374e-10
1.62552130036e-09
1.44475282791e-09
3.82281677722e-09
8.05019648359e-09
6.26702585302e-09
6.21535158032e-09
7.65435867667e-10
8.1098003716e-09
1.05395093691e-08
7.0317774324e-09
4.91952728146e-09
1.22718937411e-09
3.69880493478e-09
1.58891618989e-09
6.45141601316e-10
2.46397519492e-09
3.72095319091e-09
5.16571824446e-09
2.67803727078e-09
8.3260101816e-09
1.14458680608e-09
2.0433541003e-09
1.11837908802e-08
7.76525939345e-11
2.07096878653e-09
2.54709405451e-09
7.02065573588e-10
1.20474899793e-09
1.43115001847e-09
1.25587051632e-09
2.78323547618e-09
1.11038811488e-09
2.24459433311e-09
4.29075791848e-09
1.80059484216e-09
2.34191525887e-09
2.04725262752e-09
1.18111505443e-09
2.25006158136e-09
7.69881757855e-10
4.52534125551e-09
1.80962532303e-09
2.02897449415e-09
4.19290126132e-10
1.99186840658e-09
6.96686216136e-11
2.70448870028e-09
3.36723001613e-09
2.75405621478e-09
4.50288875382e-09
6.58928786951e-10
5.26991738186e-11
1.8481591372e-10
9.79284041437e-10
4.25841290317e-09
8.00364409605e-12