# vtk DataFile Version 3.0
File Name: Molecule/sphere_excent/sphere_excent_0-s15.vtk
ASCII
DATASET UNSTRUCTURED_GRID
FIELD FieldData 1
TIME 1 1 double
0.0
POINTS 189 double
0.85048878193 -0.5260335803 -0.00066152744694
0.80676972866 -0.3105404675 -0.50273454189
0.99600362778 -0.0045338654891 -0.088305428624
0.80500394106 0.30902960896 -0.5064278245
0.5252533555 -0.00011532293865 -0.85094666481
0.86413538456 0.50003916025 -0.053266566247
0.5001732111 0.80757284164 -0.31288141012
0.30864420533 0.49988016486 -0.80913734436
-0.0018905741163 0.84998357296 -0.52689117193
0.0091309193522 0.9979993701 -0.050262078643
0.30864214897 -0.49947801232 -0.8093791604
-3.6267374526e-05 -1.1707496924e-05 -0.99989509583
-0.30823913217 -0.49939510226 -0.8097435236
0.002150851069 -0.84756332636 -0.53092002869
-0.5256767869 -0.0001235933596 -0.85068511963
-0.80878454447 -0.31062212586 -0.49909779429
-0.80829429626 0.30843171477 -0.50155842304
-0.99723905325 0.0069189332426 -0.061431512237
-0.3083191216 0.4984537065 -0.81022769213
-0.51469343901 0.7761991024 -0.36243036389
-0.82140487432 0.56739604473 -0.038683444262
-0.47165879607 -0.80645954609 -0.35592520237
0.50040853024 -0.80447477102 -0.32060196996
0.047817248851 -0.99410551786 -0.07346393913
0.45852437615 -0.86804550886 0.17859752476
-0.50444489717 0.023499831557 0.86287283897
-0.45998597145 -0.15789020061 0.87293213606
-0.31712192297 -0.024360377342 0.94807320833
-0.72514754534 0.20802809298 0.65466958284
-0.85434156656 0.31206524372 0.41518127918
-0.87462627888 0.0080888494849 0.48434823751
0.28505787253 -0.59408193827 0.75219327211
0.38098177314 -0.71752911806 0.580465734
0.57120907307 -0.50045186281 0.65059298277
0.7031134963 -0.58118849993 0.40778416395
0.82721090317 -0.29838019609 0.4760145247
0.061150804162 -0.85649377108 0.51236337423
0.073043942451 -0.71320801973 0.69703435898
0.83234208822 0.3176933825 0.45393517613
0.61496096849 0.4097635448 0.67303168774
0.7139903307 0.18282285333 0.67574763298
0.51495307684 0.2574518621 0.81750953197
0.57883584499 0.066622816026 0.81265693903
0.044105254114 0.82889693975 0.55726742744
-0.2401984483 0.87309968472 0.42430958152
-0.16498413682 0.71544128656 0.67892026901
-0.40140321851 0.70703047514 0.58218604326
-0.5317954421 0.80584108829 0.25971725583
-0.3163421452 0.53999817371 0.78003543615
0.095401823521 0.6140614748 0.7831953764
-0.082975871861 0.54379451275 0.8349673748
-0.55898070335 0.47054824233 0.68130356073
0.17894604802 -0.46323734522 0.86794155836
0.067021332681 -0.5733191967 0.81490850449
0.2890265882 -0.045289710164 0.95523029566
0.3361761272 -0.2455830723 0.90870147943
0.47501474619 -0.10240412503 0.87391537428
0.36957925558 -0.42738726735 0.82508778572
0.48735302687 -0.29485991597 0.82178300619
0.40608710051 0.10483658314 0.90765827894
0.74724060297 -0.054101701826 0.6622492075
0.87950599194 0.021646980196 0.47564718127
0.64189398289 -0.30862602592 0.70136332512
0.16063573956 0.28211137652 0.94579535723
0.2449259907 0.14429305494 0.95874708891
0.32989123464 0.27996015549 0.90146273375
0.31091144681 0.63595443964 0.70546060801
0.081862293184 0.43358656764 0.89723193645
0.23972517252 0.44619908929 0.86190921068
0.41429847479 0.42368042469 0.80519175529
-0.73765164614 0.58387726545 0.33840703964
0.96098548174 -0.1440154165 0.23671117425
0.96063035727 0.16298013926 0.2247159481
-0.09265653044 0.17046755552 0.98091298342
0.072854705155 0.14315322042 0.98689413071
0.017992766574 0.27715811133 0.96063297987
-0.71725350618 0.43514716625 0.54433917999
-0.60001266003 0.62768578529 0.49592915177
-0.11030361056 -0.74516415596 0.65737611055
-0.11300387233 -0.62584137917 0.77031308413
0.30438899994 0.94166630507 0.1381983012
0.68873685598 0.71295100451 0.12887179852
0.49606627226 0.80186837912 0.33320665359
0.27163344622 0.86357533932 0.42489695549
0.023449501023 0.96010857821 0.27875751257
-0.84620422125 -0.53180974722 -0.027291651815
-0.95818942785 -0.28566932678 -0.011701043695
-0.50385791063 -0.81260633469 0.29265397787
-0.27475115657 -0.94977897406 0.14773570001
-0.23366187513 -0.89112955332 0.38754883409
0.025367405266 -0.96589261293 0.25592663884
-0.70375853777 -0.69434279203 0.15073177218
-0.59142583609 -0.65279746056 0.47195905447
-0.86281967163 -0.45937973261 0.21060043573
-0.81500673294 -0.38294431567 0.43477419019
-0.9536793828 -0.17578165233 0.24295060337
0.41242355108 -0.81310099363 0.4050436914
-0.38574850559 0.14382906258 0.91134566069
-0.4981277287 0.25463953614 0.82812076807
-0.9628303051 0.15743683279 0.2179235667
-0.7937272191 -0.22183576226 0.56482303143
-0.18656890094 0.27486279607 0.94319051504
-0.29712086916 0.28949245811 0.90967184305
-0.25264176726 0.1635029763 0.95363789797
-0.27796715498 0.95204436779 0.12758074701
-0.27236682177 0.94594907761 -0.1759442091
-0.53060084581 0.84689962864 -0.037541653961
0.86233758926 0.45061862469 0.2305136025
0.73900598288 0.56564110518 0.3661428988
-0.95589339733 0.292304039 -0.019305620342
-0.69706004858 -0.69712841511 -0.16728977859
-0.54384726286 -0.83914488554 0.0096972361207
-0.88626509905 0.42023530602 0.19501329958
-0.16869409382 0.41361239552 0.89429181814
-0.044003475457 0.40114089847 0.9148773551
-0.19049315155 -0.81974476576 0.54001444578
-0.29940092564 -0.74169737101 0.60012692213
-0.22898377478 -0.67440265417 0.70186334848
-0.43276083469 -0.64792579412 0.62667840719
-0.40772238374 -0.7796511054 0.47526419163
-0.087894283235 0.30489784479 0.94828653336
-0.010598762892 -0.075955912471 0.99658185244
-0.15279711783 -0.046071320772 0.9868863225
-0.051394090056 -0.22217561305 0.97340732813
-0.17847643793 -0.20500156283 0.96138936281
-0.61985594034 0.10093543679 0.7781842947
-0.61721819639 -0.069388143718 0.78364396095
-0.7181289196 0.035906460136 0.69479739666
-0.73040533066 -0.10726024956 0.67404508591
0.49101880193 0.5550122261 0.67100316286
0.43636777997 0.72243791819 0.53631746769
0.57540202141 0.64567667246 0.50187075138
0.67178720236 0.51607710123 0.53132450581
-0.30156761408 -0.58326417208 0.75382596254
0.616499722 -0.093310989439 0.78174304962
0.58129221201 -0.20161439478 0.78835064173
0.68885487318 -0.18400758505 0.70096111298
-0.062362473458 0.051444686949 0.99675214291
-0.18302901089 0.065686836839 0.98090362549
0.62997698784 0.69194322824 0.35233545303
-0.55823338032 -0.52140182257 0.64471036196
0.074716426432 -0.22820426524 0.97035616636
0.11498440802 -0.064383000135 0.99104213715
-0.32915627956 -0.20395478606 0.92189097404
-0.41947028041 0.40321522951 0.81298929453
0.55306202173 -0.6745801568 0.48871451616
0.59276151657 -0.73914825916 0.31943288445
-0.42166778445 -0.28313955665 0.86132186651
-0.29458642006 -0.31735116243 0.9008885622
-0.39269712567 -0.38117834926 0.83661276102
-0.35621914268 -0.46359235048 0.81110441685
-0.48037803173 -0.44957876205 0.7530490756
-0.4323169589 -0.54402947426 0.71897405386
-0.50991183519 -0.34836438298 0.78650319576
-0.60203057528 -0.4099316597 0.68522328138
-0.61729967594 -0.30663341284 0.72447872162
-0.5498380661 -0.23799589276 0.80032759905
-0.6857920289 -0.45433357358 0.56803101301
-0.72034478188 -0.33685666323 0.60616117716
-0.67706865072 -0.21300040185 0.70435607433
0.13009984791 -0.34660074115 0.92872959375
-0.0064864987507 -0.48891976476 0.87123191357
0.20181632042 -0.24588160217 0.94804614782
0.2481379956 -0.34939461946 0.90352982283
0.048685733229 0.028812658042 0.99830138683
0.16389147937 0.040828920901 0.98564106226
-0.39607170224 0.29509031773 0.86954540014
-0.31703385711 0.40506833792 0.85754460096
-0.22561250627 -0.94915837049 -0.21720929444
-0.64504998922 0.3382101655 0.68499851227
-0.53960388899 0.35984620452 0.76115608215
-0.61098492146 0.24206417799 0.75370460749
-0.093759097159 -0.42404517531 0.90074837208
-0.0082938224077 -0.33469697833 0.94227665663
-0.12884642184 -0.31755682826 0.93941545486
-0.029095334932 -0.58965814114 0.80700242519
-0.20690333843 -0.59206426144 0.77887266874
-0.30817827582 -0.52582639456 0.79242390394
-0.10306237638 -0.52212530375 0.84657126665
-0.19321911037 -0.51407670975 0.83572548628
-0.22058312595 -0.45081466436 0.86487191916
-0.12527401745 -0.99160397053 0.031296178699
-0.37903523445 -0.91993021965 -0.099022746086
0.19820211828 -0.063563756645 0.97811222076
0.2380528897 -0.14957533777 0.95961415768
0.16453327239 -0.15435874462 0.97419083118
-0.22855862975 -0.27521014214 0.93381476402
-0.19574972987 -0.37053787708 0.90778183937
-0.30852404237 -0.39902821183 0.86346817017

CELLS 374 1496
3 0 1 2
3 1 3 2
3 1 4 3
3 2 3 5
3 5 3 6
3 3 7 6
3 3 4 7
3 6 7 8
3 6 8 9
3 4 10 11
3 10 12 11
3 10 13 12
3 11 12 14
3 14 15 16
3 15 17 16
3 8 18 19
3 18 16 19
3 18 14 16
3 19 16 20
3 14 12 15
3 12 21 15
3 12 13 21
3 13 22 23
3 22 24 23
3 22 0 24
3 4 1 10
3 1 22 10
3 1 0 22
3 10 22 13
3 4 11 7
3 11 18 7
3 11 14 18
3 7 18 8
3 25 26 27
3 28 29 30
3 31 32 33
3 33 34 35
3 36 32 37
3 35 34 0
3 38 39 40
3 39 41 40
3 40 41 42
3 43 44 45
3 44 46 45
3 44 47 46
3 45 46 48
3 43 45 49
3 50 45 48
3 48 46 51
3 31 52 53
3 54 55 56
3 52 31 57
3 55 57 58
3 58 56 55
3 54 56 59
3 42 60 40
3 38 40 61
3 58 57 33
3 33 57 31
3 35 62 33
3 33 62 58
3 63 64 65
3 64 59 65
3 64 54 59
3 65 59 41
3 50 49 45
3 43 49 66
3 50 67 49
3 67 68 49
3 67 63 68
3 49 68 66
3 39 69 41
3 41 59 42
3 42 59 56
3 63 65 68
3 65 69 68
3 65 41 69
3 68 69 66
3 20 70 47
3 2 71 0
3 0 71 35
3 2 72 71
3 72 61 71
3 72 38 61
3 71 61 35
3 5 72 2
3 73 74 75
3 75 74 63
3 29 76 70
3 76 77 70
3 76 51 77
3 70 77 47
3 76 29 28
3 35 61 60
3 60 61 40
3 47 77 46
3 46 77 51
3 53 37 31
3 31 37 32
3 36 37 78
3 37 79 78
3 67 75 63
3 63 74 64
3 9 80 6
3 6 80 81
3 82 80 83
3 80 84 83
3 80 9 84
3 83 84 43
3 83 43 66
3 85 86 15
3 15 86 17
3 87 88 89
3 88 90 89
3 89 90 36
3 91 92 93
3 94 95 93
3 95 86 93
3 95 17 86
3 93 86 85
3 36 90 96
3 24 90 23
3 27 97 25
3 25 97 98
3 17 95 99
3 30 95 100
3 101 102 103
3 102 97 103
3 103 97 27
3 43 84 44
3 44 84 104
3 101 103 73
3 82 81 80
3 6 81 5
3 9 105 104
3 105 106 104
3 105 19 106
3 104 106 47
3 19 105 8
3 8 105 9
3 47 106 20
3 106 19 20
3 5 81 107
3 81 108 107
3 107 108 38
3 17 109 16
3 16 109 20
3 85 110 91
3 110 111 91
3 110 21 111
3 91 111 87
3 29 112 99
3 112 109 99
3 112 20 109
3 99 109 17
3 21 110 15
3 15 110 85
3 101 113 102
3 48 113 50
3 29 99 30
3 30 99 95
3 9 104 84
3 44 104 47
3 50 114 67
3 67 114 75
3 20 112 70
3 70 112 29
3 5 107 72
3 72 107 38
3 115 78 116
3 117 116 78
3 116 117 118
3 89 115 119
3 75 120 73
3 73 120 101
3 79 117 78
3 101 120 113
3 120 114 113
3 120 75 114
3 113 114 50
3 87 111 88
3 85 91 93
3 94 93 92
3 78 115 36
3 115 89 36
3 121 122 123
3 124 122 27
3 98 125 25
3 25 125 126
3 125 127 126
3 125 28 127
3 126 127 128
3 128 127 30
3 30 127 28
3 25 126 26
3 66 129 130
3 129 131 130
3 131 129 132
3 130 131 82
3 133 118 117
3 87 92 91
3 56 134 42
3 42 134 60
3 56 135 134
3 135 136 134
3 135 62 136
3 134 136 60
3 62 135 58
3 58 135 56
3 60 136 35
3 136 62 35
3 39 129 69
3 69 129 66
3 73 137 74
3 121 137 122
3 137 138 122
3 137 73 138
3 122 138 27
3 66 130 83
3 83 130 82
3 27 138 103
3 103 138 73
3 82 139 81
3 81 139 108
3 108 132 38
3 38 132 39
3 39 132 129
3 139 131 108
3 132 108 131
3 131 139 82
3 116 119 115
3 89 119 87
3 87 119 92
3 119 118 92
3 119 116 118
3 92 118 140
3 141 142 121
3 26 143 27
3 143 124 27
3 51 144 48
3 94 100 95
3 30 100 128
3 32 145 33
3 145 34 33
3 32 96 145
3 96 146 145
3 96 24 146
3 145 146 34
3 24 96 90
3 96 32 36
3 34 146 0
3 146 24 0
3 26 147 143
3 147 148 143
3 147 149 148
3 150 151 152
3 150 149 151
3 152 151 140
3 149 153 151
3 153 154 151
3 153 155 154
3 151 154 140
3 149 147 153
3 147 156 153
3 147 26 156
3 153 156 155
3 140 154 157
3 154 158 157
3 154 155 158
3 157 158 94
3 94 158 100
3 158 159 100
3 158 155 159
3 100 159 128
3 128 159 126
3 126 159 156
3 52 160 161
3 141 160 162
3 160 163 162
3 160 52 163
3 162 163 55
3 55 163 57
3 57 163 52
3 121 142 164
3 142 165 164
3 164 165 74
3 74 165 64
3 64 165 54
3 98 166 144
3 166 167 144
3 166 102 167
3 144 167 48
3 48 167 113
3 167 102 113
3 102 166 97
3 166 98 97
3 155 156 159
3 126 156 26
3 133 152 118
3 118 152 140
3 140 157 92
3 92 157 94
3 121 164 137
3 137 164 74
3 23 168 13
3 13 168 21
3 124 123 122
3 121 123 141
3 51 169 170
3 169 171 170
3 169 28 171
3 170 171 98
3 172 161 173
3 52 161 53
3 124 174 123
3 174 173 123
3 174 172 173
3 123 173 141
3 28 169 76
3 76 169 51
3 53 175 37
3 37 175 79
3 133 176 177
3 176 178 179
3 176 79 178
3 180 179 172
3 172 178 161
3 178 175 161
3 178 79 175
3 161 175 53
3 23 181 168
3 181 182 168
3 181 88 182
3 168 182 21
3 88 181 90
3 181 23 90
3 79 176 117
3 117 176 133
3 21 182 111
3 111 182 88
3 98 171 125
3 125 171 28
3 54 183 184
3 183 185 184
3 183 142 185
3 184 185 162
3 51 170 144
3 144 170 98
3 148 186 143
3 143 186 124
3 124 186 174
3 186 187 174
3 186 148 187
3 174 187 172
3 172 187 180
3 187 188 180
3 187 148 188
3 180 188 150
3 133 177 152
3 177 150 152
3 141 173 160
3 160 173 161
3 162 185 141
3 141 185 142
3 54 184 55
3 55 184 162
3 150 188 149
3 149 188 148
3 178 172 179
3 180 177 179
3 180 150 177
3 179 177 176
3 142 183 165
3 183 54 165

CELL_TYPES 374
5
5
5
5
5
5
5
5
5
5
5
5
5
5
5
5
5
5
5
5
5
5
5
5
5
5
5
5
5
5
5
5
5
5
5
5
5
5
5
5
5
5
5
5
5
5
5
5
5
5
5
5
5
5
5
5
5
5
5
5
5
5
5
5
5
5
5
5
5
5
5
5
5
5
5
5
5
5
5
5
5
5
5
5
5
5
5
5
5
5
5
5
5
5
5
5
5
5
5
5
5
5
5
5
5
5
5
5
5
5
5
5
5
5
5
5
5
5
5
5
5
5
5
5
5
5
5
5
5
5
5
5
5
5
5
5
5
5
5
5
5
5
5
5
5
5
5
5
5
5
5
5
5
5
5
5
5
5
5
5
5
5
5
5
5
5
5
5
5
5
5
5
5
5
5
5
5
5
5
5
5
5
5
5
5
5
5
5
5
5
5
5
5
5
5
5
5
5
5
5
5
5
5
5
5
5
5
5
5
5
5
5
5
5
5
5
5
5
5
5
5
5
5
5
5
5
5
5
5
5
5
5
5
5
5
5
5
5
5
5
5
5
5
5
5
5
5
5
5
5
5
5
5
5
5
5
5
5
5
5
5
5
5
5
5
5
5
5
5
5
5
5
5
5
5
5
5
5
5
5
5
5
5
5
5
5
5
5
5
5
5
5
5
5
5
5
5
5
5
5
5
5
5
5
5
5
5
5
5
5
5
5
5
5
5
5
5
5
5
5
5
5
5
5
5
5
5
5
5
5
5
5
5
5
5
5
5
5
5
5
5
5
5
5
5
5
5
5
5
5
5
5
5
5
5
5
5
5
5
5
5
5
5
5
5
5
5
5
5
5
5
5
5
5

CELL_DATA 374
SCALARS cell_data_0 double
LOOKUP_TABLE default
7.34680990961e-09
1.28037576551e-07
9.1860301539e-09
7.54453840809e-08
1.13205365683e-07
2.23300308821e-07
1.14910663627e-07
1.65903870141e-07
2.56357085855e-07
2.25395506296e-08
5.34311154222e-08
2.15705718588e-08
3.0203040315e-08
1.74886536803e-07
2.59735606579e-07
8.76677601928e-08
7.17034922003e-08
2.39983258352e-08
2.08082201552e-07
5.36985091348e-08
3.06299518319e-08
6.23332536602e-08
6.55712888562e-08
1.51934793006e-07
3.26978908949e-07
5.02393241117e-08
1.88358139328e-07
9.55839806106e-08
8.94453194078e-08
1.68727203977e-08
4.12862041825e-08
3.01095004592e-08
2.78712671892e-08
2.59340988477e-07
2.73777227888e-07
2.8768261957e-07
3.74678039097e-07
4.95099110878e-08
5.13232188561e-08
3.4983682834e-07
1.53420230182e-07
3.04470250084e-07
3.16349484779e-07
2.69960496583e-07
3.62301816053e-07
2.94136118262e-07
3.43307856085e-07
1.42606406313e-07
9.22180630748e-08
1.13102569404e-08
1.88470823204e-07
1.48619378421e-07
2.84893271083e-07
1.90994974214e-07
2.37114748248e-07
3.48554174485e-07
1.71073771685e-07
3.14115961725e-07
1.17873162521e-07
1.55432684379e-07
5.15453474052e-08
9.69201442433e-08
2.03987307198e-07
2.45765243033e-07
2.98348832127e-07
5.85875728533e-08
2.09569533929e-07
2.37753253464e-07
2.1829692979e-08
1.99381741087e-07
3.16966258703e-07
2.23463646251e-07
1.37772650807e-07
1.95386779072e-07
2.54979265169e-08
1.22064226802e-07
2.80505955191e-07
1.77980066229e-08
2.98279640783e-08
1.09756246817e-08
1.71939729916e-08
2.60915429963e-07
6.98442378543e-08
1.98673838111e-07
2.97189509262e-07
2.41281454882e-07
1.71567627461e-07
5.7666613854e-08
8.17526364715e-08
5.53022200279e-08
1.83400816217e-07
2.60767747032e-08
2.19589972116e-07
1.69305713284e-07
1.43716841989e-07
1.61521218375e-07
1.31891432612e-07
1.11196821797e-07
3.26843396201e-08
2.38013729933e-07
1.19967853098e-07
1.89458559448e-08
1.61912237357e-07
2.60263890482e-07
2.95314311535e-07
1.98206631412e-08
4.20305817092e-08
1.41982603803e-08
1.06010404813e-07
2.0673548814e-07
7.09777581795e-08
1.14870146467e-07
8.50170240026e-08
4.93014723094e-08
8.92832585276e-08
1.47261775826e-07
2.49086512571e-07
3.14987110612e-08
1.56306255866e-07
9.7052442958e-08
4.58903262779e-08
1.83061716184e-07
2.14529516669e-07
2.58988418536e-07
6.93578418104e-08
3.47491899678e-07
7.02993605053e-08
1.79918194069e-08
1.31687838539e-07
1.74448520663e-07
8.5527344376e-08
8.19367603197e-08
6.54074928484e-08
1.16324269344e-07
1.39339025578e-08
1.6490133737e-08
4.54391391579e-08
4.99153255563e-08
7.28497568121e-08
9.58415979287e-08
1.60313661384e-07
2.57798614572e-08
1.37838765156e-07
4.86086037817e-08
8.40355337653e-08
4.95650287738e-08
1.3789825542e-07
2.02404208964e-08
1.49519114347e-08
2.9820236415e-08
2.85324264762e-08
1.02409104525e-07
6.32485196271e-08
7.71910939711e-08
1.3984371069e-07
6.64385002162e-08
4.84282676157e-08
1.66680836571e-08
9.90623915196e-08
1.07366395754e-07
2.35451743317e-07
1.27046956983e-08
1.69070381461e-07
3.08374952912e-08
4.53746105159e-08
1.20562421792e-07
8.71503555369e-08
5.80203529275e-08
6.56700392962e-08
2.47496640666e-08
2.17536909115e-09
2.35649535657e-08
3.10577026943e-08
4.49636292802e-08
6.30013018584e-08
6.57314036098e-08
3.71377877492e-08
4.34306424415e-08
6.0904059523e-08
2.08670039697e-09
1.25881646056e-08
1.21256154873e-07
3.47389961449e-07
5.10321778443e-08
5.54389407848e-08
2.76403328428e-07
3.69930837424e-07
1.96737503449e-07
2.33459154149e-07
2.81303301369e-08
8.03405022028e-08
5.42984052236e-08
1.13320355624e-07
1.36587581318e-07
2.4108289339e-08
4.09229064419e-08
9.29491213015e-08
6.04821295171e-08
2.80190572145e-08
5.9613800968e-08
1.97663441339e-07
1.82568940327e-07
3.75711479845e-08
1.45657081506e-07
2.59913799897e-08
4.47998050925e-08
1.36186041593e-07
2.30935890628e-08
7.9446897858e-08
1.91281330517e-07
3.07509828092e-08
1.21460753272e-07
2.41681289036e-07
1.77469787438e-07
8.34295884274e-09
3.97390322529e-08
1.69709742083e-08
1.44625223525e-07
3.59561887463e-07
1.72722884063e-08
1.48857951423e-07
5.00159111786e-09
3.90995221524e-08
4.72667830793e-08
5.41295790701e-08
6.02674568509e-09
3.38697506457e-09
1.34679391192e-08
3.66763758487e-08
4.36974306941e-08
3.833817618e-09
8.66286482171e-08
1.31538517254e-07
8.10186154314e-09
6.57236457209e-08
7.03896435639e-08
2.31228899155e-07
1.3470457398e-07
3.7297659556e-08
5.18325811715e-08
3.1688682469e-07
3.77256715185e-08
1.16185353011e-07
1.3011047186e-07
1.78612728994e-07
5.55809493035e-08
2.29209487496e-07
2.98544265067e-08
6.90917067373e-08
1.13884831345e-07
1.57185010271e-07
1.86350332154e-07
6.37249908367e-08
8.63808713226e-09
4.62726725167e-08
5.41047502586e-08
6.61535979919e-08
4.15316327021e-08
4.45163843034e-08
7.19227635161e-09
3.80669947891e-08
3.67385398298e-08
4.64709489688e-08
5.11741176342e-08
4.06129145579e-08
1.58869124067e-08
2.75610798745e-08
3.71019388368e-08
5.24892352959e-08
3.70463910025e-08
6.7686177381e-08
3.65400706253e-08
1.69754332684e-08
4.04189224633e-08
2.08916318838e-08
1.03931507912e-07
1.17656000995e-07
1.4730784407e-08
2.71337969498e-08
9.49736771836e-08
1.81693362074e-08
6.31060862984e-08
1.28908138026e-08
5.4880916103e-08
1.86628092592e-08
7.50296265848e-09
1.93889818017e-08
1.80630095614e-07
2.11001266854e-08
1.10781443661e-08
7.10489415185e-09
7.35987493659e-08
1.5515322476e-07
9.74213943783e-10
5.6967494553e-08
6.78731169231e-09
6.98149288209e-09
7.27110177026e-08
4.96141994057e-08
9.93922858655e-09
5.69538697507e-08
1.29354764911e-07
1.51383550506e-08
6.13664141306e-08
6.77676210617e-08
1.48348963536e-08
8.48586109676e-09
1.43079186614e-07
6.74185037176e-09
8.23488237989e-09
1.43323108094e-08
2.20062622758e-08
9.64019922914e-09
1.4298515551e-08
6.32414202679e-08
9.08469259153e-09
7.05587572877e-08
6.05502046813e-08
9.65794665961e-08
1.13375430883e-07
4.09774972799e-08
2.64501540614e-08
1.36485919165e-08
2.46134534777e-08
5.70247765619e-08
2.92225678187e-08
6.72587272886e-08
3.83814152172e-08
3.67715051567e-09
8.26944925212e-08
6.56956207045e-09
2.96120372267e-08
5.51147726571e-08
3.71373695914e-08
1.77392613342e-08
7.4561078523e-08
6.56355703614e-09
3.74038376573e-08
6.19799240677e-09
6.62481891614e-09
1.13368624296e-07
5.27900039709e-09
2.06347130079e-08
2.34707892698e-08
5.6789306614e-09
4.27185338747e-09
1.08304438515e-07
7.3610175103e-08
2.79469097598e-08
6.90279614379e-08
5.84980922586e-08
3.1762957127e-08
2.17955814395e-08
2.16979581348e-08
3.70253689187e-08
4.41538615518e-08
2.9132107366e-08
3.143398622e-08
1.99851098519e-08
3.54948593491e-08
9.51051701277e-08
3.06275506963e-07
3.80727952496e-08
1.38278719009e-08
2.1933805655e-07
8.03694958559e-08
5.29964141624e-08
1.02004711903e-08
5.56204290222e-08
1.54431560198e-08
3.13075720295e-08
1.77805115318e-08
9.92089554673e-09
3.54366400505e-08

