# vtk DataFile Version 3.0
File Name: Molecule/sphere_excent/sphere_excent_0-s10.vtk
ASCII
DATASET UNSTRUCTURED_GRID
FIELD FieldData 1
TIME 1 1 double
0.0
POINTS 95 double
0.85037773848 -0.52612519264 0.0012992497068
0.80895453691 -0.30905717611 -0.49989455938
0.99811285734 -0.00074137013871 -0.021507039666
0.80869442225 0.30903878808 -0.50036901236
0.52571851015 -8.0415647972e-06 -0.85065865517
0.85081326962 0.52570098639 -0.0041961320676
0.49984389544 0.80895620584 -0.30913630128
0.30896529555 0.49993875623 -0.80894225836
-1.9742783479e-05 0.85066306591 -0.52571022511
0.50308644772 0.80898737907 0.30440759659
-0.00066740764305 0.99978995323 0.0012689122232
0.052518643439 0.85024505854 0.52204835415
-0.50023752451 0.80835556984 -0.31044968963
-0.52827304602 0.80786496401 0.25999605656
-0.85089188814 0.52565324306 -0.0087298946455
0.30894073844 -0.49990594387 -0.80897480249
-2.7720141134e-06 2.9348800012e-07 -0.99989175797
-0.30898907781 -0.4999384582 -0.80893176794
-6.9194829848e-05 -0.85054570436 -0.52590221167
-0.52572655678 -7.004078725e-06 -0.85065364838
0.84032094479 0.31093600392 0.44326561689
0.3331246078 0.57988405228 0.74112081528
-0.80892646313 -0.30893722177 -0.49998810887
-0.80879962444 0.30864790082 -0.50039172173
-1.0000644922 -0.0004540712107 -0.00071328203194
-0.84967315197 -0.52766168118 -0.003810106311
-0.30896010995 0.49990788102 -0.80896508694
-0.49975201488 -0.80895477533 -0.30929031968
-0.49827423692 -0.81210881472 0.30419272184
-0.0019611550961 -1.0000345707 -0.0029729676899
0.010785340331 -0.86311483383 0.50367808342
-0.82169747353 -0.35922497511 0.44353872538
-0.84168499708 0.33989191055 0.41675049067
0.49947631359 -0.80825859308 -0.31182029843
0.47729635239 -0.84344542027 0.2451916486
-0.0092916376889 -0.010452682152 0.99943381548
0.11197397113 -0.25425520539 0.96012687683
0.27374103665 -0.036049377173 0.96059548855
-0.32265999913 0.52163356543 0.78972262144
-0.17470499873 0.28956449032 0.94024068117
-0.046282462776 0.5227009654 0.8494630456
-0.53449177742 0.016098611057 0.84491753578
-0.45106500387 -0.20785535872 0.86740374565
-0.2957572639 0.011838658713 0.95506161451
-0.18611201644 -0.22921139002 0.95530205965
-0.45036184788 0.26545009017 0.8524594903
-0.58901005983 0.44524642825 0.67328232527
-0.69867998362 0.16963841021 0.69487076998
-0.70641803741 -0.11016907543 0.69903498888
-0.86463338137 0.0022660556715 0.50237345695
0.28537541628 -0.58337408304 0.76035165787
0.41913214326 -0.71442937851 0.55905580521
0.57748174667 -0.48193958402 0.65878742933
0.6892619133 -0.59431731701 0.41475474834
0.8327960372 -0.27811452746 0.47786563635
0.020440205932 -0.72904658318 0.68150305748
0.60440629721 0.44425800443 0.66116827726
0.69617944956 0.18681974709 0.69292676449
0.48507198691 0.26530873775 0.83263206482
0.56072080135 0.053280040622 0.82608294487
-0.24965849519 0.866733253 0.43181681633
-0.17277574539 0.71735614538 0.67461174726
-0.41054329276 0.70364099741 0.57980006933
-0.29129207134 -0.57062834501 0.76719653606
-0.57496416569 -0.48865038157 0.65520113707
0.13195326924 0.57371264696 0.80643051863
-0.38246577978 -0.39384520054 0.8355961442
-0.080637827516 -0.42499536276 0.90134185553
-0.62938803434 -0.30476161838 0.714661479
0.19306319952 -0.43454441428 0.87934535742
0.020509498194 -0.58127874136 0.81240785122
0.30605378747 -0.25856378675 0.91614431143
0.49868518114 -0.1174005419 0.85847580433
0.37169605494 -0.41811364889 0.82880979776
0.47212901711 -0.27813228965 0.83595323563
0.38667017221 0.12482818961 0.91332954168
0.71531975269 -0.10379052162 0.69063651562
0.64553850889 -0.27987492085 0.71052706242
0.87534511089 0.017106205225 0.48312723637
0.14589634538 0.26970338821 0.95167523623
0.22831456363 0.13696555793 0.96375954151
0.31367605925 0.27792453766 0.90787643194
0.082072466612 0.41250014305 0.90715658665
-0.009275117889 0.27852782607 0.96028095484
0.2416305393 0.42226460576 0.87349307537
0.067330740392 0.13713499904 0.98817580938
0.39925903082 0.41495990753 0.81751459837
-0.71626251936 0.59589928389 0.36201792955
0.95853239298 -0.14144380391 0.24756680429
0.95988184214 0.15725871921 0.23212474585
-0.14801359177 -0.73822647333 0.65723592043
-0.090890154243 0.14203539491 0.98567056656
-0.72532212734 0.41045045853 0.55266588926
-0.58896803856 0.6412858963 0.49171197414
-0.13157527149 -0.59404289722 0.7930085063

CELLS 186 744
3 0 1 2
3 1 3 2
3 1 4 3
3 2 3 5
3 5 3 6
3 3 7 6
3 3 4 7
3 6 7 8
3 5 6 9
3 6 10 9
3 6 8 10
3 9 10 11
3 10 12 13
3 10 8 12
3 13 12 14
3 4 15 16
3 15 17 16
3 15 18 17
3 16 17 19
3 5 9 20
3 9 11 21
3 19 22 23
3 22 24 23
3 22 25 24
3 23 24 14
3 8 26 12
3 26 23 12
3 26 19 23
3 12 23 14
3 25 27 28
3 27 29 28
3 27 18 29
3 28 29 30
3 25 28 31
3 32 14 24
3 31 24 25
3 19 17 22
3 17 27 22
3 17 18 27
3 22 27 25
3 18 33 29
3 33 34 29
3 33 0 34
3 29 34 30
3 4 1 15
3 1 33 15
3 1 0 33
3 15 33 18
3 4 16 7
3 16 26 7
3 16 19 26
3 7 26 8
3 35 36 37
3 38 39 40
3 41 42 43
3 42 44 43
3 43 44 35
3 35 44 36
3 41 43 45
3 38 46 45
3 46 47 45
3 45 47 41
3 41 47 48
3 47 49 48
3 47 32 49
3 48 49 31
3 31 49 24
3 24 49 32
3 38 45 39
3 39 45 43
3 41 48 42
3 50 51 52
3 51 53 52
3 51 34 53
3 52 53 54
3 34 51 30
3 30 51 55
3 54 53 0
3 53 34 0
3 21 56 9
3 9 56 20
3 20 56 57
3 56 58 57
3 57 58 59
3 13 60 10
3 10 60 11
3 11 60 61
3 60 62 61
3 60 13 62
3 61 62 38
3 63 64 28
3 28 64 31
3 11 61 65
3 40 61 38
3 42 66 44
3 44 66 67
3 63 66 64
3 66 68 64
3 66 42 68
3 64 68 31
3 38 62 46
3 31 68 48
3 48 68 42
3 50 69 70
3 69 67 70
3 69 36 67
3 36 71 37
3 37 71 72
3 36 69 71
3 69 73 71
3 69 50 73
3 71 73 74
3 74 72 71
3 37 72 75
3 59 72 76
3 72 77 76
3 72 74 77
3 76 77 54
3 63 67 66
3 44 67 36
3 59 76 57
3 20 57 78
3 74 73 52
3 52 73 50
3 54 77 52
3 52 77 74
3 79 80 81
3 80 75 81
3 80 37 75
3 81 75 58
3 40 65 61
3 11 65 21
3 82 40 83
3 40 82 65
3 82 84 65
3 82 79 84
3 65 84 21
3 35 37 85
3 21 86 56
3 56 86 58
3 58 75 59
3 59 75 72
3 79 81 84
3 81 86 84
3 81 58 86
3 84 86 21
3 32 87 14
3 14 87 13
3 2 88 0
3 0 88 54
3 2 89 88
3 89 78 88
3 89 20 78
3 88 78 54
3 20 89 5
3 5 89 2
3 30 90 28
3 28 90 63
3 39 91 83
3 91 85 83
3 91 35 85
3 83 85 79
3 35 91 43
3 43 91 39
3 32 92 87
3 92 93 87
3 92 46 93
3 87 93 13
3 46 92 47
3 92 32 47
3 54 78 76
3 76 78 57
3 13 93 62
3 62 93 46
3 70 55 50
3 50 55 51
3 30 55 90
3 55 94 90
3 55 70 94
3 90 94 63
3 63 94 67
3 67 94 70
3 39 83 40
3 82 83 79
3 79 85 80
3 80 85 37

CELL_TYPES 186
5
5
5
5
5
5
5
5
5
5
5
5
5
5
5
5
5
5
5
5
5
5
5
5
5
5
5
5
5
5
5
5
5
5
5
5
5
5
5
5
5
5
5
5
5
5
5
5
5
5
5
5
5
5
5
5
5
5
5
5
5
5
5
5
5
5
5
5
5
5
5
5
5
5
5
5
5
5
5
5
5
5
5
5
5
5
5
5
5
5
5
5
5
5
5
5
5
5
5
5
5
5
5
5
5
5
5
5
5
5
5
5
5
5
5
5
5
5
5
5
5
5
5
5
5
5
5
5
5
5
5
5
5
5
5
5
5
5
5
5
5
5
5
5
5
5
5
5
5
5
5
5
5
5
5
5
5
5
5
5
5
5
5
5
5
5
5
5
5
5
5
5
5
5
5
5
5
5
5
5
5
5
5
5
5
5

CELL_DATA 186
SCALARS cell_data_0 double
LOOKUP_TABLE default
2.35398219517e-07
2.28527367179e-07
2.2341626315e-08
1.37771271949e-07
2.82923321908e-07
2.18293809327e-07
1.1084122224e-07
1.24613830033e-07
6.56409520288e-07
3.63601721281e-07
1.86941626082e-07
1.41534422931e-06
1.0549486032e-06
4.24153901811e-07
6.009169898e-07
1.93527882802e-08
5.61127608597e-08
1.81008733357e-08
2.25113842208e-08
9.57460669175e-07
9.15904707895e-07
1.70073371209e-07
2.69058937072e-07
4.29823894375e-07
4.36295905596e-07
7.12836935142e-08
2.36579637525e-08
9.78789445234e-09
1.30967328832e-07
7.29755135511e-07
2.82716629231e-07
1.59803490443e-07
1.66267329035e-06
9.15945961058e-07
9.7677776287e-07
1.37579957346e-06
4.4474761794e-08
2.66759769774e-08
8.44345543984e-08
1.1416386326e-07
1.68067971119e-07
2.96335842562e-07
3.10628347174e-07
5.19039402407e-07
4.07574507211e-08
2.17407029353e-07
1.52769294752e-07
9.51110626385e-08
1.75860732873e-08
3.15827740153e-08
2.19825007865e-08
1.67598405722e-08
7.06621237001e-10
1.15937777489e-07
4.17047993449e-08
9.74421912559e-07
9.01226829692e-07
2.64097871775e-07
3.44364397755e-07
5.71601151735e-07
4.10959792865e-07
1.98316668378e-07
7.2838496861e-07
9.58895067338e-08
4.80335972345e-07
6.33860267712e-07
8.83263518937e-07
8.87791731064e-07
5.21956537033e-07
2.05721207894e-06
8.14142868313e-07
5.67220003813e-07
2.89783929741e-07
5.67470664186e-07
3.83843222209e-07
4.29246966481e-07
2.01488033603e-07
2.27677249227e-08
6.47223011107e-08
2.17207676359e-07
3.02154792167e-07
7.09182135015e-07
2.21384693126e-07
3.42819492167e-07
5.74942375526e-07
8.41638881451e-07
3.66408374303e-08
1.96641009384e-07
1.42704608492e-07
3.82983322923e-07
1.03649651602e-06
4.75544125857e-08
5.82534176263e-07
7.04246451929e-07
4.63215927837e-07
2.55762212262e-08
4.48859188546e-07
5.90468506719e-07
7.13736687054e-07
7.33932829383e-08
2.70343570627e-07
4.48032112139e-07
2.7165262389e-07
6.52019758324e-08
3.58191477349e-07
1.88933857434e-07
1.27618682695e-07
4.26268605487e-07
6.09528028028e-07
2.74298939554e-07
3.66108117668e-07
1.85323110529e-07
2.31528745222e-07
1.57958989807e-07
4.5440493639e-07
7.59476295782e-07
1.6464436904e-07
5.29352012978e-09
2.81465965841e-07
8.94484265864e-08
3.85087059241e-07
1.51668726005e-07
3.02034232104e-07
9.74228190024e-08
1.32187304825e-07
8.27985848804e-08
1.98217655499e-07
1.25981388273e-07
9.06627912498e-08
9.56875718688e-08
4.88662565731e-07
4.21833408349e-07
3.61486095133e-07
1.51166178507e-07
5.28895470943e-08
3.38742292232e-07
1.20353860361e-07
6.15763747238e-07
3.11565469646e-07
3.17841150236e-07
3.05976582188e-07
2.68132257037e-07
8.76193530444e-08
2.66421361127e-08
1.79598259427e-07
1.12239099121e-07
7.43515660151e-08
1.38664255544e-07
3.00954448025e-08
2.5233597885e-08
1.59311317111e-07
1.57519745126e-07
3.36515026329e-07
2.88146903545e-07
6.08343120841e-07
1.08074116157e-07
7.03472828273e-07
1.18028116052e-06
2.88488211646e-07
2.80620714302e-07
4.03471856872e-07
1.20915960513e-07
1.18462053486e-07
7.02690915611e-07
4.33707338132e-08
6.25656200747e-08
1.89347012373e-07
6.38381128809e-08
3.05078147766e-08
2.22785516275e-07
1.44834294486e-07
4.51992439053e-07
1.35204034529e-07
1.02165207561e-07
8.68478158192e-08
1.57963430045e-07
4.45026797167e-07
1.56256849084e-07
8.06189215302e-08
1.55334115487e-07
3.06688600926e-07
3.84425695477e-07
1.15454627758e-06
3.68394231387e-08
2.72771044466e-08
4.35288561042e-09

