# vtk DataFile Version 3.0
File Name: Molecule/sphere_dip_C5/sphere_dip_C5_0-s3.vtk
ASCII
DATASET UNSTRUCTURED_GRID
FIELD FieldData 1
TIME 1 1 double
0.0
POINTS 50 double
0.850650808352 -0.525731112119 0.0
0.809016994375 -0.309016994375 -0.5
1.0 0.0 0.0
0.809016994375 0.309016994375 -0.5
0.525731112119 0.0 -0.850650808352
0.850650808352 0.525731112119 0.0
0.5 0.809016994375 -0.309016994375
0.309016994375 0.5 -0.809016994375
0.0 0.850650808352 -0.525731112119
0.0 0.850650808352 0.525731112119
-0.5 0.809016994375 0.309016994375
-0.309016994375 0.5 0.809016994375
-0.809016994375 0.309016994375 0.5
-0.525731112119 0.0 0.850650808352
0.309016994375 0.5 0.809016994375
0.0 0.0 1.0
0.525731112119 0.0 0.850650808352
-0.309016994375 -0.5 0.809016994375
0.309016994375 -0.5 0.809016994375
0.0 -0.850650808352 0.525731112119
0.809016994375 -0.309016994375 0.5
0.5 -0.809016994375 0.309016994375
0.309016994375 -0.5 -0.809016994375
0.0 0.0 -1.0
-0.309016994375 -0.5 -0.809016994375
0.0 -0.850650808352 -0.525731112119
-0.525731112119 0.0 -0.850650808352
0.809016994375 0.309016994375 0.5
0.5 0.809016994375 0.309016994375
-0.809016994375 -0.309016994375 -0.5
-0.809016994375 0.309016994375 -0.5
-1.0 0.0 0.0
-0.850650808352 -0.525731112119 0.0
-0.850650808352 0.525731112119 0.0
-0.309016994375 0.5 -0.809016994375
-0.5 0.809016994375 -0.309016994375
-0.5 -0.809016994375 -0.309016994375
-0.5 -0.809016994375 0.309016994375
0.0 -1.0 0.0
-0.809016994375 -0.309016994375 0.5
0.5 -0.809016994375 -0.309016994375
0.0 1.0 0.0
-0.25 0.904508497187 0.154508497188
-0.25 0.904508497187 -0.154508497188
-0.5 0.809016994375 0.0
-0.675325404176 0.667374053247 0.154508497188
-0.675325404176 0.667374053247 -0.154508497188
0.5 0.809016994375 0.0
0.25 0.904508497187 -0.154508497188
0.25 0.904508497187 0.154508497188

CELLS 96 384
3 0 1 2
3 1 3 2
3 1 4 3
3 2 3 5
3 5 3 6
3 3 7 6
3 3 4 7
3 6 7 8
3 9 10 11
3 10 12 11
3 11 12 13
3 9 11 14
3 11 15 14
3 11 13 15
3 14 15 16
3 13 17 15
3 17 18 15
3 17 19 18
3 15 18 16
3 16 18 20
3 18 21 20
3 18 19 21
3 20 21 0
3 4 22 23
3 22 24 23
3 22 25 24
3 23 24 26
3 0 2 20
3 2 27 20
3 2 5 27
3 20 27 16
3 5 28 27
3 28 14 27
3 28 9 14
3 27 14 16
3 26 29 30
3 29 31 30
3 29 32 31
3 30 31 33
3 8 34 35
3 34 30 35
3 34 26 30
3 32 36 37
3 36 38 37
3 36 25 38
3 37 38 19
3 32 37 39
3 37 17 39
3 37 19 17
3 39 17 13
3 13 12 39
3 12 31 39
3 12 33 31
3 39 31 32
3 26 24 29
3 24 36 29
3 24 25 36
3 29 36 32
3 25 40 38
3 40 21 38
3 40 0 21
3 38 21 19
3 4 1 22
3 1 40 22
3 1 0 40
3 22 40 25
3 4 23 7
3 23 34 7
3 23 26 34
3 7 34 8
3 41 42 9
3 9 42 10
3 41 43 42
3 43 44 42
3 43 35 44
3 42 44 10
3 35 43 8
3 8 43 41
3 10 44 45
3 44 46 45
3 44 35 46
3 45 46 33
3 10 45 12
3 45 33 12
3 33 46 30
3 30 46 35
3 6 47 5
3 5 47 28
3 6 48 47
3 48 49 47
3 48 41 49
3 47 49 28
3 41 48 8
3 8 48 6
3 28 49 9
3 49 41 9

CELL_TYPES 96
5
5
5
5
5
5
5
5
5
5
5
5
5
5
5
5
5
5
5
5
5
5
5
5
5
5
5
5
5
5
5
5
5
5
5
5
5
5
5
5
5
5
5
5
5
5
5
5
5
5
5
5
5
5
5
5
5
5
5
5
5
5
5
5
5
5
5
5
5
5
5
5
5
5
5
5
5
5
5
5
5
5
5
5
5
5
5
5
5
5
5
5
5
5
5
5

CELL_DATA 96
SCALARS cell_data_0 double
LOOKUP_TABLE default
0.00047640595757
0.000591984312886
0.000256632089201
0.000353494732463
0.000904353007943
0.001691055816
0.000438605168024
0.00105771307329
0.000100485289404
0.000135936925764
0.000205275321071
0.000211317307249
0.000438301052898
0.000354484332834
0.000348312916691
0.000343584439382
0.00041022653102
0.000203142127507
0.000339554236101
0.000209090794704
0.000135697064756
0.000125491464769
0.000149291324299
1.90629567048e-05
4.35444178457e-05
3.24739468041e-05
4.55827050248e-05
0.000379070442336
0.000115834236369
8.13516177389e-05
0.000145129434173
4.60564743323e-05
9.52991695512e-05
8.60475866244e-05
0.00021478538794
1.67391404542e-05
1.01897165791e-05
1.3585200442e-05
1.77059246959e-05
8.56541240213e-05
6.29846920187e-05
1.80254568212e-05
2.97345899347e-05
5.89070482025e-05
7.44295966564e-05
1.66124458874e-05
4.27887288569e-05
0.000174632617396
0.000132633346311
0.000207519085418
0.000167736501787
0.00011941160408
2.88671662864e-05
3.52585584829e-05
4.55392386517e-05
7.19856818274e-05
5.66866195621e-05
5.48742859949e-05
4.42911438684e-05
4.21610660979e-05
0.00014705200999
2.64312424384e-06
6.66202805691e-05
7.31524156117e-05
0.000231573209965
1.26248173453e-05
0.000205517397598
0.00025581423261
3.3634214282e-05
0.000233442150924
4.23563894755e-05
1.51351143526e-05
4.94784706201e-05
1.92869510164e-06
1.74272363619e-05
8.5027870709e-06
3.91985133514e-05
9.02177912595e-05
7.63705854931e-06
1.60870075595e-06
1.4865730761e-05
1.24534925869e-05
1.96952573168e-05
8.58502163352e-06
1.68530072098e-05
2.25671685312e-05
0.000283891996744
4.98771489422e-05
0.000186787740851
1.78216936593e-06
4.87513390955e-05
4.0981884167e-05
8.9690502869e-05
0.000332819323277
2.81482119976e-05
4.18175693122e-05

