# vtk DataFile Version 3.0
File Name: Molecule/sphere_excent/sphere_excent_0-s3.vtk
ASCII
DATASET UNSTRUCTURED_GRID
FIELD FieldData 1
TIME 1 1 double
0.0
POINTS 48 double
0.850650808352 -0.525731112119 0.0
0.809016994375 -0.309016994375 -0.5
1.0 0.0 0.0
0.809016994375 0.309016994375 -0.5
0.525731112119 0.0 -0.850650808352
0.850650808352 0.525731112119 0.0
0.5 0.809016994375 -0.309016994375
0.309016994375 0.5 -0.809016994375
0.0 0.850650808352 -0.525731112119
0.0 0.850650808352 0.525731112119
-0.5 0.809016994375 0.309016994375
-0.309016994375 0.5 0.809016994375
-0.809016994375 0.309016994375 0.5
-0.850650808352 0.525731112119 0.0
-0.525731112119 0.0 0.850650808352
0.309016994375 0.5 0.809016994375
0.0 0.0 1.0
0.525731112119 0.0 0.850650808352
-0.309016994375 -0.5 0.809016994375
0.309016994375 -0.5 0.809016994375
0.0 -0.850650808352 0.525731112119
0.809016994375 -0.309016994375 0.5
0.5 -0.809016994375 0.309016994375
0.309016994375 -0.5 -0.809016994375
0.0 0.0 -1.0
-0.309016994375 -0.5 -0.809016994375
0.0 -0.850650808352 -0.525731112119
-0.525731112119 0.0 -0.850650808352
0.809016994375 0.309016994375 0.5
0.5 0.809016994375 0.309016994375
-0.809016994375 -0.309016994375 -0.5
-0.809016994375 0.309016994375 -0.5
-1.0 0.0 0.0
-0.850650808352 -0.525731112119 0.0
-0.309016994375 0.5 -0.809016994375
-0.5 0.809016994375 -0.309016994375
-0.5 -0.809016994375 -0.309016994375
-0.5 -0.809016994375 0.309016994375
0.0 -1.0 0.0
-0.809016994375 -0.309016994375 0.5
0.5 -0.809016994375 -0.309016994375
0.0 1.0 0.0
-0.25 0.904508497187 0.154508497188
-0.25 0.904508497187 -0.154508497188
-0.5 0.809016994375 0.0
0.5 0.809016994375 0.0
0.25 0.904508497187 -0.154508497188
0.25 0.904508497187 0.154508497188

CELLS 92 368
3 0 1 2
3 1 3 2
3 1 4 3
3 2 3 5
3 5 3 6
3 3 7 6
3 3 4 7
3 6 7 8
3 9 10 11
3 10 12 11
3 10 13 12
3 11 12 14
3 9 11 15
3 11 16 15
3 11 14 16
3 15 16 17
3 14 18 16
3 18 19 16
3 18 20 19
3 16 19 17
3 17 19 21
3 19 22 21
3 19 20 22
3 21 22 0
3 4 23 24
3 23 25 24
3 23 26 25
3 24 25 27
3 0 2 21
3 2 28 21
3 2 5 28
3 21 28 17
3 5 29 28
3 29 15 28
3 29 9 15
3 28 15 17
3 27 30 31
3 30 32 31
3 30 33 32
3 31 32 13
3 8 34 35
3 34 31 35
3 34 27 31
3 35 31 13
3 33 36 37
3 36 38 37
3 36 26 38
3 37 38 20
3 33 37 39
3 37 18 39
3 37 20 18
3 39 18 14
3 14 12 39
3 12 32 39
3 12 13 32
3 39 32 33
3 27 25 30
3 25 36 30
3 25 26 36
3 30 36 33
3 26 40 38
3 40 22 38
3 40 0 22
3 38 22 20
3 4 1 23
3 1 40 23
3 1 0 40
3 23 40 26
3 4 24 7
3 24 34 7
3 24 27 34
3 7 34 8
3 41 42 9
3 9 42 10
3 41 43 42
3 43 44 42
3 43 35 44
3 42 44 10
3 35 43 8
3 8 43 41
3 10 44 13
3 44 35 13
3 6 45 5
3 5 45 29
3 6 46 45
3 46 47 45
3 46 41 47
3 45 47 29
3 41 46 8
3 8 46 6
3 29 47 9
3 47 41 9

CELL_TYPES 92
5
5
5
5
5
5
5
5
5
5
5
5
5
5
5
5
5
5
5
5
5
5
5
5
5
5
5
5
5
5
5
5
5
5
5
5
5
5
5
5
5
5
5
5
5
5
5
5
5
5
5
5
5
5
5
5
5
5
5
5
5
5
5
5
5
5
5
5
5
5
5
5
5
5
5
5
5
5
5
5
5
5
5
5
5
5
5
5
5
5
5
5

CELL_DATA 92
SCALARS cell_data_0 double
LOOKUP_TABLE default
0.000136814724263
0.0001969822488
0.000165831822579
9.69037540874e-05
0.000258340086357
0.00139167599007
0.000822252292194
0.000821147797994
4.3037574841e-06
1.63056625621e-05
9.02861056293e-05
7.65541854518e-05
6.98350443112e-05
0.000147452734465
0.000134172389891
6.90400519354e-05
8.84839512169e-05
8.72483166559e-05
5.35420416874e-05
6.96836142067e-05
4.29883156416e-05
5.13900842715e-05
4.15314089034e-05
5.79814927632e-05
1.44414378513e-05
1.92338825878e-05
1.39733903873e-05
6.57904908497e-06
4.53742640202e-05
2.83893411178e-05
1.30565564963e-05
4.1372552251e-05
4.54878396931e-05
2.51489142779e-05
2.5277497769e-05
5.40589223958e-05
5.64990162323e-06
3.76464712904e-07
7.05253085471e-06
9.14849472016e-06
3.26957416061e-05
2.50206298135e-05
4.13536835264e-06
3.88924752728e-05
1.16771404078e-05
2.71127731175e-05
3.05905662413e-05
6.00215410161e-06
1.44370373035e-05
4.98674235786e-05
4.16594444268e-05
5.88507370696e-05
5.06679026697e-05
2.64047576818e-05
5.40153211909e-06
1.03606181856e-05
9.27549032568e-06
2.03992135248e-05
1.18604352491e-05
2.35741030778e-05
1.9401717145e-05
3.93421078859e-05
0.000114016451746
1.02535689268e-05
4.16176850726e-05
5.32958009848e-05
0.00014241221118
1.46290855641e-05
0.000523162771284
0.000643080067504
8.13458767063e-06
0.000556269083696
2.54225900044e-05
1.80657761213e-05
2.73046756918e-05
8.63153139643e-08
6.69501837908e-06
2.3497026757e-05
1.43490384675e-05
5.04374731752e-05
5.37415977371e-05
2.22944264556e-05
4.10163086096e-05
3.65530938862e-05
2.90322452815e-05
8.62894852026e-08
2.73052933951e-05
2.723149325e-05
5.04333729152e-05
5.45368325977e-05
2.31489810775e-05
2.54218702969e-05

