# vtk DataFile Version 3.0
File Name: Molecule/sphere_excent/sphere_excent_0-s4.vtk
ASCII
DATASET UNSTRUCTURED_GRID
FIELD FieldData 1
TIME 1 1 double
0.0
POINTS 51 double
0.850650808352 -0.525731112119 0.0
0.809016994375 -0.309016994375 -0.5
1.0 0.0 0.0
0.809016994375 0.309016994375 -0.5
0.525731112119 0.0 -0.850650808352
0.850650808352 0.525731112119 0.0
0.0 0.850650808352 0.525731112119
-0.5 0.809016994375 0.309016994375
-0.309016994375 0.5 0.809016994375
-0.809016994375 0.309016994375 0.5
-0.850650808352 0.525731112119 0.0
-0.525731112119 0.0 0.850650808352
0.309016994375 0.5 0.809016994375
0.0 0.0 1.0
0.525731112119 0.0 0.850650808352
-0.309016994375 -0.5 0.809016994375
0.309016994375 -0.5 0.809016994375
0.0 -0.850650808352 0.525731112119
0.809016994375 -0.309016994375 0.5
0.5 -0.809016994375 0.309016994375
0.309016994375 -0.5 -0.809016994375
0.0 0.0 -1.0
-0.309016994375 -0.5 -0.809016994375
0.0 -0.850650808352 -0.525731112119
-0.525731112119 0.0 -0.850650808352
0.809016994375 0.309016994375 0.5
0.5 0.809016994375 0.309016994375
-0.809016994375 -0.309016994375 -0.5
-0.809016994375 0.309016994375 -0.5
-1.0 0.0 0.0
-0.850650808352 -0.525731112119 0.0
0.0 0.850650808352 -0.525731112119
-0.309016994375 0.5 -0.809016994375
-0.5 0.809016994375 -0.309016994375
-0.5 -0.809016994375 -0.309016994375
-0.5 -0.809016994375 0.309016994375
0.0 -1.0 0.0
-0.809016994375 -0.309016994375 0.5
0.5 -0.809016994375 -0.309016994375
0.309016994375 0.5 -0.809016994375
0.0 1.0 0.0
-0.25 0.904508497187 0.154508497188
-0.25 0.904508497187 -0.154508497188
-0.5 0.809016994375 0.0
0.5 0.809016994375 -0.309016994375
0.5 0.809016994375 0.0
0.25 0.904508497187 -0.154508497188
0.25 0.904508497187 0.154508497188
0.654508497187 0.559016994375 -0.404508497188
0.559016994375 0.404508497188 -0.654508497187
0.404508497188 0.654508497187 -0.559016994375

CELLS 98 392
3 0 1 2
3 1 3 2
3 1 4 3
3 2 3 5
3 6 7 8
3 7 9 8
3 7 10 9
3 8 9 11
3 6 8 12
3 8 13 12
3 8 11 13
3 12 13 14
3 11 15 13
3 15 16 13
3 15 17 16
3 13 16 14
3 14 16 18
3 16 19 18
3 16 17 19
3 18 19 0
3 4 20 21
3 20 22 21
3 20 23 22
3 21 22 24
3 0 2 18
3 2 25 18
3 2 5 25
3 18 25 14
3 5 26 25
3 26 12 25
3 26 6 12
3 25 12 14
3 24 27 28
3 27 29 28
3 27 30 29
3 28 29 10
3 31 32 33
3 32 28 33
3 32 24 28
3 33 28 10
3 30 34 35
3 34 36 35
3 34 23 36
3 35 36 17
3 30 35 37
3 35 15 37
3 35 17 15
3 37 15 11
3 11 9 37
3 9 29 37
3 9 10 29
3 37 29 30
3 24 22 27
3 22 34 27
3 22 23 34
3 27 34 30
3 23 38 36
3 38 19 36
3 38 0 19
3 36 19 17
3 4 1 20
3 1 38 20
3 1 0 38
3 20 38 23
3 4 21 39
3 21 32 39
3 21 24 32
3 39 32 31
3 40 41 6
3 6 41 7
3 40 42 41
3 42 43 41
3 42 33 43
3 41 43 7
3 33 42 31
3 31 42 40
3 7 43 10
3 43 33 10
3 44 45 5
3 5 45 26
3 44 46 45
3 46 47 45
3 46 40 47
3 45 47 26
3 40 46 31
3 31 46 44
3 26 47 6
3 47 40 6
3 3 48 5
3 5 48 44
3 3 49 48
3 49 50 48
3 49 39 50
3 48 50 44
3 39 49 4
3 4 49 3
3 44 50 31
3 50 39 31

CELL_TYPES 98
5
5
5
5
5
5
5
5
5
5
5
5
5
5
5
5
5
5
5
5
5
5
5
5
5
5
5
5
5
5
5
5
5
5
5
5
5
5
5
5
5
5
5
5
5
5
5
5
5
5
5
5
5
5
5
5
5
5
5
5
5
5
5
5
5
5
5
5
5
5
5
5
5
5
5
5
5
5
5
5
5
5
5
5
5
5
5
5
5
5
5
5
5
5
5
5
5
5

CELL_DATA 98
SCALARS cell_data_0 double
LOOKUP_TABLE default
0.00107688108044
0.00133080018874
0.000342762640557
0.00107688674357
4.04100562577e-05
4.86633278046e-05
6.58447774972e-06
5.39284607733e-05
4.69497196447e-05
8.42717156429e-05
8.59470431163e-05
6.99449343085e-05
0.000134524120339
0.000167955788456
7.26123353372e-05
9.43452645347e-05
5.86026901391e-05
4.7972246824e-05
3.9826323624e-05
3.59803885285e-05
3.15699593418e-05
1.8450686986e-05
7.48041908092e-06
3.73935367202e-05
0.000615414820422
0.000318882991871
0.000577652823566
3.8164682708e-05
5.84051054952e-05
5.04122472015e-05
4.08606975713e-05
4.52695592827e-05
2.81404856424e-05
1.06337216434e-05
8.01293045502e-06
2.82810835008e-05
9.30413774893e-06
5.77327276351e-06
3.86246523765e-05
1.41493059979e-05
9.92906735306e-06
1.27991315808e-06
1.18089315581e-05
1.97447933022e-05
1.6766779731e-05
4.91778515114e-05
4.1915140232e-05
7.20576438312e-05
4.33088874713e-05
2.51364385116e-05
1.71857141772e-06
5.33799709201e-06
2.7597685826e-05
2.79570221933e-05
2.21999205959e-05
2.29524979332e-05
1.91850915615e-06
1.00937255226e-05
9.41024538745e-05
1.98734711045e-05
0.000151146467407
0.000168440647091
0.00030660768978
1.76445297504e-05
0.000158071144527
0.000170994858103
4.9241339001e-05
0.000138143263415
4.35769405134e-06
9.82043399902e-06
4.41028263951e-06
2.19710689373e-06
1.13465727065e-06
2.07776742395e-06
2.31347893833e-06
1.47873086008e-05
5.88758825354e-06
3.20089657719e-06
0.000123307173197
5.44413795164e-05
2.92045699863e-05
4.22328168335e-08
6.07855310314e-06
3.68434026572e-06
1.28778838675e-05
5.46688263383e-05
5.80916857369e-06
1.84253203219e-06
0.000135083550574
0.000122116671773
3.32070490066e-05
1.1753723327e-07
3.04629066756e-05
2.82894394376e-05
6.7275393502e-05
7.24865435296e-05
5.40405158475e-05
5.85028107653e-05

