# vtk DataFile Version 3.0
File Name: Molecule/methanol/methanol_12.5-5.vtk
ASCII
DATASET UNSTRUCTURED_GRID
FIELD FieldData 1
TIME 1 1 double
0.0
POINTS 689 double
1.611 0.0 -0.359
1.582 -0.31 -0.356
1.475 0.0 -0.634
1.448 -0.29 -0.632
1.498 -0.608 -0.348
1.36 -0.887 -0.334
1.369 -0.57 -0.624
1.173 -1.135 -0.315
1.24 -0.83 -0.611
1.066 -1.062 -0.594
1.174 -0.808 -0.91
1.004 -1.034 -0.893
0.945 -1.344 -0.292
0.852 -1.258 -0.572
0.796 -1.224 -0.872
0.682 -1.508 -0.266
0.605 -1.411 -0.548
0.557 -1.374 -0.849
0.393 -1.62 -0.238
0.335 -1.517 -0.521
0.294 -1.476 -0.822
0.089 -1.677 -0.207
0.051 -1.57 -0.493
0.017 -1.528 -0.795
-0.22 -1.677 -0.176
-0.239 -1.57 -0.464
-0.265 -1.528 -0.767
-0.524 -1.62 -0.146
-0.523 -1.517 -0.435
-0.542 -1.476 -0.739
-0.813 -1.508 -0.117
-0.793 -1.411 -0.408
-0.805 -1.374 -0.713
-1.075 -1.344 -0.091
-1.039 -1.258 -0.384
-1.044 -1.224 -0.689
-1.304 -1.135 -0.069
-1.253 -1.062 -0.363
-1.252 -1.034 -0.668
-1.49 -0.887 -0.05
-1.428 -0.83 -0.345
-1.422 -0.808 -0.651
-1.628 -0.608 -0.036
-1.557 -0.57 -0.332
-1.548 -0.554 -0.639
-1.713 -0.31 -0.028
-1.636 -0.29 -0.324
-1.625 -0.282 -0.631
-1.742 0.0 -0.025
-1.663 0.0 -0.322
-1.651 0.0 -0.629
-1.713 0.31 -0.028
-1.636 0.29 -0.324
-1.625 0.282 -0.631
-1.628 0.608 -0.036
-1.557 0.57 -0.332
-1.548 0.554 -0.639
-1.49 0.887 -0.05
-1.428 0.83 -0.345
-1.422 0.808 -0.651
-1.304 1.135 -0.069
-1.253 1.062 -0.363
-1.252 1.034 -0.668
-1.075 1.344 -0.091
-1.039 1.258 -0.384
-1.044 1.224 -0.689
-0.813 1.508 -0.117
-0.793 1.411 -0.408
-0.805 1.374 -0.713
-0.524 1.62 -0.146
-0.523 1.517 -0.435
-0.542 1.476 -0.739
-0.22 1.677 -0.176
-0.239 1.57 -0.464
-0.265 1.528 -0.767
0.089 1.677 -0.207
0.051 1.57 -0.493
0.017 1.528 -0.795
0.393 1.62 -0.238
0.335 1.517 -0.521
0.294 1.476 -0.822
0.682 1.508 -0.266
0.605 1.411 -0.548
0.557 1.374 -0.849
0.945 1.344 -0.292
0.852 1.258 -0.572
0.796 1.224 -0.872
1.173 1.135 -0.315
1.066 1.062 -0.594
1.004 1.034 -0.893
1.36 0.887 -0.334
1.24 0.83 -0.611
1.174 0.808 -0.91
1.498 0.608 -0.348
1.369 0.57 -0.624
1.582 0.31 -0.356
1.448 0.29 -0.632
1.907 0.0 0.656
1.883 0.295 0.656
1.883 0.148 0.911
1.883 -0.148 0.911
1.883 -0.295 0.656
1.883 -0.148 0.4
1.883 0.148 0.4
1.814 0.505 0.947
1.814 0.292 1.161
1.814 -0.0 1.239
1.814 -0.292 1.161
1.814 -0.505 0.947
1.814 -0.583 0.656
1.814 -0.505 0.364
1.814 -0.292 0.15
1.814 -0.0 0.072
1.814 0.292 0.15
1.814 0.505 0.364
1.814 0.583 0.656
1.701 0.805 0.949
1.701 0.656 1.206
1.701 0.428 1.398
1.701 0.149 1.499
1.701 -0.149 1.499
1.701 -0.428 1.398
1.701 -0.656 1.206
1.701 -0.805 0.949
1.701 -0.857 0.656
1.701 -0.805 0.363
1.701 -0.656 0.105
1.701 -0.428 -0.087
1.701 -0.149 -0.188
1.701 0.149 -0.188
1.701 0.428 -0.087
1.701 0.656 0.105
1.701 0.805 0.363
1.701 0.857 0.656
1.546 1.072 0.943
1.546 0.961 1.21
1.546 0.784 1.44
1.546 0.555 1.616
1.546 0.287 1.727
1.546 0.0 1.765
1.546 -0.287 1.727
1.546 -0.555 1.616
1.546 -0.784 1.44
1.546 -0.961 1.21
1.546 -1.072 0.943
1.546 -1.109 0.656
1.546 -1.072 0.368
1.546 -0.961 0.101
1.546 -0.784 -0.129
1.546 0.784 -0.129
1.546 0.961 0.101
1.546 1.072 0.368
1.546 1.109 0.656
1.354 1.301 0.953
1.354 1.202 1.235
1.354 1.043 1.488
1.354 0.832 1.699
1.354 0.579 1.858
1.354 0.297 1.957
1.354 0.0 1.99
1.354 -0.297 1.957
1.354 -0.579 1.858
1.354 -0.832 1.699
1.354 -1.043 1.488
1.354 -1.202 1.235
1.354 -1.301 0.953
1.354 -1.335 0.656
1.354 -1.301 0.359
1.354 -1.202 0.077
1.354 -1.043 -0.177
1.354 1.043 -0.177
1.354 1.202 0.077
1.354 1.301 0.359
1.354 1.335 0.656
1.128 1.499 0.945
1.128 1.418 1.223
1.128 1.285 1.481
1.128 1.105 1.709
1.128 0.886 1.899
1.128 0.634 2.045
1.128 0.36 2.14
1.128 0.073 2.181
1.128 -0.217 2.167
1.128 -0.499 2.099
1.128 -0.764 1.978
1.128 -1.0 1.81
1.128 -1.2 1.6
1.128 -1.357 1.355
1.128 -1.465 1.086
1.128 -1.52 0.801
1.128 -1.52 0.51
1.128 -1.465 0.225
1.128 -1.357 -0.044
1.128 1.285 -0.17
1.128 1.418 0.088
1.128 1.499 0.367
1.128 1.527 0.656
0.876 1.656 0.948
0.876 1.58 1.231
0.876 1.456 1.496
0.876 1.288 1.737
0.876 1.081 1.944
0.876 0.841 2.112
0.876 0.575 2.236
0.876 0.292 2.312
0.876 0.0 2.337
0.876 -0.292 2.312
0.876 -0.575 2.236
0.876 -0.841 2.112
0.876 -1.081 1.944
0.876 -1.288 1.737
0.876 -1.456 1.496
0.876 -1.58 1.231
0.876 -1.656 0.948
0.876 -1.682 0.656
0.876 -1.656 0.364
0.876 -1.58 0.08
0.876 1.58 0.08
0.876 1.656 0.364
0.876 1.682 0.656
0.602 1.771 0.951
0.602 1.698 1.238
0.602 1.579 1.51
0.602 1.417 1.758
0.602 1.216 1.976
0.602 0.982 2.158
0.602 0.721 2.3
0.602 0.441 2.396
0.602 0.148 2.445
0.602 -0.148 2.445
0.602 -0.441 2.396
0.602 -0.721 2.3
0.602 -0.982 2.158
0.602 -1.216 1.976
0.602 -1.417 1.758
0.602 -1.579 1.51
0.602 -1.698 1.238
0.602 -1.771 0.951
0.602 -1.795 0.656
0.602 -1.771 0.36
0.602 -1.698 0.073
0.602 1.698 0.073
0.602 1.771 0.36
0.602 1.795 0.656
0.314 1.841 0.947
0.314 1.773 1.232
0.314 1.661 1.502
0.314 1.508 1.751
0.314 1.318 1.974
0.314 1.096 2.164
0.314 0.846 2.317
0.314 0.576 2.429
0.314 0.292 2.497
0.314 -0.0 2.52
0.314 -0.292 2.497
0.314 -0.576 2.429
0.314 -0.846 2.317
0.314 -1.096 2.164
0.314 -1.318 1.974
0.314 -1.508 1.751
0.314 -1.661 1.502
0.314 -1.773 1.232
0.314 -1.841 0.947
0.314 -1.864 0.656
0.314 -1.841 0.364
0.314 -1.773 0.08
0.314 1.773 0.08
0.314 1.841 0.364
0.314 1.864 0.656
0.019 1.865 0.944
0.019 1.8 1.225
0.019 1.692 1.493
0.019 1.544 1.742
0.019 1.36 1.964
0.019 1.144 2.157
0.019 0.902 2.314
0.019 0.638 2.432
0.019 0.359 2.509
0.019 0.072 2.542
0.019 -0.216 2.531
0.019 -0.5 2.476
0.019 -0.772 2.378
0.019 -1.026 2.24
0.019 -1.256 2.065
0.019 -1.456 1.857
0.019 -1.622 1.62
0.019 -1.751 1.361
0.019 -1.838 1.086
0.019 -1.882 0.8
0.019 -1.882 0.511
0.019 -1.838 0.226
0.019 -1.751 -0.05
0.019 1.8 0.086
0.019 1.865 0.367
0.019 1.888 0.656
-0.276 1.864 0.656
-0.276 1.841 0.947
-0.276 1.773 1.232
-0.276 1.661 1.502
-0.276 1.508 1.751
-0.276 1.318 1.974
-0.276 1.096 2.164
-0.276 0.846 2.317
-0.276 0.576 2.429
-0.276 0.292 2.497
-0.276 -0.0 2.52
-0.276 -0.292 2.497
-0.276 -0.576 2.429
-0.276 -0.846 2.317
-0.276 -1.096 2.164
-0.276 -1.318 1.974
-0.276 -1.508 1.751
-0.276 -1.661 1.502
-0.276 -1.773 1.232
-0.276 -1.841 0.947
-0.276 -1.864 0.656
-0.276 -1.841 0.364
-0.276 -1.773 0.08
-0.276 1.773 0.08
-0.276 1.841 0.364
-0.564 1.795 0.656
-0.564 1.771 0.951
-0.564 1.698 1.238
-0.564 1.579 1.51
-0.564 1.417 1.758
-0.564 1.216 1.976
-0.564 0.982 2.158
-0.564 0.721 2.3
-0.564 0.441 2.396
-0.564 0.148 2.445
-0.564 -0.148 2.445
-0.564 -0.441 2.396
-0.564 -0.721 2.3
-0.564 -0.982 2.158
-0.564 -1.216 1.976
-0.564 -1.417 1.758
-0.564 -1.579 1.51
-0.564 -1.698 1.238
-0.564 -1.771 0.951
-0.564 -1.795 0.656
-0.564 -1.771 0.36
-0.564 -1.698 0.073
-0.564 1.698 0.073
-0.564 1.771 0.36
-0.838 1.682 0.656
-0.838 1.656 0.948
-0.838 1.58 1.231
-0.838 1.456 1.496
-0.838 1.288 1.737
-0.838 1.081 1.944
-0.838 0.841 2.112
-0.838 0.575 2.236
-0.838 0.292 2.312
-0.838 0.0 2.337
-0.838 -0.292 2.312
-0.838 -0.575 2.236
-0.838 -0.841 2.112
-0.838 -1.081 1.944
-0.838 -1.288 1.737
-0.838 -1.456 1.496
-0.838 -1.58 1.231
-0.838 -1.656 0.948
-0.838 -1.682 0.656
-0.838 -1.656 0.364
-0.838 -1.58 0.08
-0.838 1.58 0.08
-0.838 1.656 0.364
-1.09 1.527 0.656
-1.09 1.499 0.945
-1.09 1.418 1.223
-1.09 1.285 1.481
-1.09 1.105 1.709
-1.09 0.886 1.899
-1.09 0.634 2.045
-1.09 0.36 2.14
-1.09 0.073 2.181
-1.09 -0.217 2.167
-1.09 -0.499 2.099
-1.09 -0.764 1.978
-1.09 -1.0 1.81
-1.09 -1.2 1.6
-1.09 -1.357 1.355
-1.09 -1.465 1.086
-1.09 -1.52 0.801
-1.09 -1.52 0.51
-1.09 -1.465 0.225
-1.09 1.418 0.088
-1.09 1.499 0.367
-1.316 1.335 0.656
-1.316 1.301 0.953
-1.316 1.202 1.235
-1.316 1.043 1.488
-1.316 0.832 1.699
-1.316 0.579 1.858
-1.316 0.297 1.957
-1.316 0.0 1.99
-1.316 -0.297 1.957
-1.316 -0.579 1.858
-1.316 -0.832 1.699
-1.316 -1.043 1.488
-1.316 -1.202 1.235
-1.316 -1.301 0.953
-1.316 -1.335 0.656
-1.316 -1.301 0.359
-1.316 -1.202 0.077
-1.316 1.202 0.077
-1.316 1.301 0.359
-1.508 1.109 0.656
-1.508 1.072 0.943
-1.508 0.961 1.21
-1.508 0.784 1.44
-1.508 0.555 1.616
-1.508 0.287 1.727
-1.508 0.0 1.765
-1.508 -0.287 1.727
-1.508 -0.555 1.616
-1.508 -0.784 1.44
-1.508 -0.961 1.21
-1.508 -1.072 0.943
-1.508 -1.109 0.656
-1.508 -1.072 0.368
-1.508 -0.961 0.101
-1.508 0.961 0.101
-1.508 1.072 0.368
-1.663 0.857 0.656
-1.663 0.805 0.949
-1.663 0.656 1.206
-1.663 0.428 1.398
-1.663 0.149 1.499
-1.663 -0.149 1.499
-1.663 -0.428 1.398
-1.663 -0.656 1.206
-1.663 -0.805 0.949
-1.663 -0.857 0.656
-1.663 -0.805 0.363
-1.663 0.805 0.363
-1.776 0.583 0.656
-1.776 0.505 0.947
-1.776 0.292 1.161
-1.776 -0.0 1.239
-1.776 -0.292 1.161
-1.776 -0.505 0.947
-1.776 -0.583 0.656
-1.776 -0.505 0.364
-1.776 0.505 0.364
-1.845 0.295 0.656
-1.845 0.148 0.911
-1.845 -0.148 0.911
-1.845 -0.295 0.656
-1.845 -0.148 0.4
-1.776 -0.292 0.15
-1.776 0.292 0.15
-1.845 0.148 0.4
-1.868 -0.0 0.656
1.312 -0.0 -1.292
1.185 -0.221 -1.514
1.185 0.075 -1.542
1.015 -0.87 -1.296
0.805 -1.023 -1.41
0.805 -0.841 -1.628
1.015 -0.677 -1.519
0.805 -0.612 -1.798
1.015 -0.43 -1.678
0.805 -1.151 -1.156
0.565 -1.344 -1.023
0.565 -1.255 -1.296
0.565 -1.112 -1.545
0.565 -0.919 -1.758
0.565 -0.687 -1.927
0.565 -0.425 -2.044
0.805 0.731 -1.72
0.565 0.687 -1.927
0.565 0.919 -1.758
0.805 0.938 -1.525
0.565 1.112 -1.545
0.805 1.095 -1.287
0.565 1.255 -1.296
0.805 1.192 -1.02
0.565 1.344 -1.023
0.3 -1.448 -1.025
0.3 -1.364 -1.302
0.3 -1.228 -1.557
0.3 -1.044 -1.781
0.3 -0.82 -1.965
0.3 -0.565 -2.101
0.3 -0.288 -2.185
0.565 -0.144 -2.104
0.3 0.0 -2.214
0.565 0.144 -2.104
0.3 0.288 -2.185
0.565 0.425 -2.044
0.3 0.565 -2.101
0.3 0.82 -1.965
0.3 1.044 -1.781
0.3 1.228 -1.557
0.3 1.364 -1.302
0.3 1.448 -1.025
0.022 -1.467 -1.168
0.022 -1.359 -1.438
0.022 -1.201 -1.682
0.022 -1.001 -1.892
0.022 -0.764 -2.061
0.022 -0.5 -2.182
0.022 -0.218 -2.25
0.022 0.073 -2.264
0.022 0.36 -2.223
0.022 0.635 -2.128
0.022 0.887 -1.982
0.022 1.106 -1.792
0.022 1.286 -1.564
0.022 1.419 -1.305
0.022 1.501 -1.026
-0.261 -1.467 -1.168
-0.261 -1.359 -1.438
-0.261 -1.201 -1.682
-0.261 -1.001 -1.892
-0.261 -0.764 -2.061
-0.261 -0.5 -2.182
-0.261 -0.218 -2.25
-0.261 0.073 -2.264
-0.261 0.36 -2.223
-0.261 0.635 -2.128
[...]
CELL_DATA 1374
SCALARS cell_data_0 double
LOOKUP_TABLE default
1.84198745052e-08
2.74966987605e-09
2.09003860178e-08
1.64612055759e-08
6.31660577e-09
1.3948843237e-08
5.57882654135e-08
5.33620128302e-08
2.25090811054e-09
2.81378077155e-09
1.48865624228e-08
1.82191466446e-08
5.07512786653e-09
3.84598960819e-09
3.87391486817e-09
7.17218773977e-09
5.77562455195e-09
8.21833230231e-09
7.07661394466e-10
1.23350623752e-09
4.86522646041e-09
1.02677755671e-08
4.97959316493e-10
2.05280026947e-09
3.97143791197e-09
1.15618000208e-08
1.71116395999e-09
1.81346782338e-09
2.23875953798e-09
1.2346083762e-08
3.38957264988e-09
3.19591822166e-09
1.29787457616e-09
1.27198243215e-08
4.73936713744e-09
3.01414823324e-09
6.14256658199e-10
1.29684777139e-08
5.64121315089e-09
3.732602481e-09
4.24976985498e-10
1.25003693518e-08
7.16585527419e-09
4.66429165579e-09
1.58027499884e-09
1.23743919516e-08
7.78614119327e-09
3.66672531303e-09
2.27149001793e-09
1.22361350143e-08
8.79672368479e-09
4.16165274918e-09
3.85289068981e-09
1.18057365883e-08
9.75245823338e-09
1.91360514611e-09
4.57247939732e-09
1.22141845239e-08
1.01069323374e-08
2.82203404103e-09
6.17187722442e-09
1.11535465136e-08
1.07977364313e-08
2.4761319621e-09
5.11527633802e-09
1.10938262757e-08
1.10241374198e-08
1.33349027946e-09
6.78801660569e-09
1.0712173429e-08
1.13563211697e-08
7.44397200644e-10
6.26356782449e-09
9.61391689062e-09
1.1117531049e-08
3.22211576486e-10
7.51106304577e-09
8.51212105991e-09
1.14436013966e-08
9.36410281848e-10
8.79087792971e-09
6.97906335382e-09
1.12881719116e-08
9.97259449241e-11
9.86317112905e-09
5.14311580597e-09
1.10207075124e-08
2.75068840648e-10
1.06763185169e-08
3.53764567438e-09
1.05434187536e-08
9.18704085966e-10
1.20695450621e-08
1.03019438601e-09
1.03057306578e-08
1.71975726743e-09
1.25750804656e-08
1.69541483331e-09
9.47167528024e-09
3.8141915229e-09
1.25700510317e-08
4.79900125822e-09
8.31471948806e-09
6.02633584727e-09
1.18717782039e-08
7.79828620585e-09
5.96891768546e-09
8.51571917784e-09
8.16421200823e-09
8.37088295057e-09
1.63753978627e-09
9.69533188349e-09
1.95514939047e-09
3.25525192393e-09
9.57862388569e-09
3.34856864044e-10
7.23190932644e-09
9.16703967116e-09
1.8170134929e-08
1.05425213305e-08
3.13852923034e-08
1.7870724708e-09
3.58850092741e-08
5.43167966571e-11
8.22390857756e-11
2.27300357957e-11
3.43573122937e-11
7.09266027197e-11
7.90101208354e-11
2.30805857464e-10
2.45823054587e-10
1.36237081997e-10
2.11167437393e-10
9.65880543012e-11
1.43573113208e-10
3.05772705288e-10
6.87549906848e-11
1.63866772279e-10
1.05646474288e-10
8.15342530153e-11
2.71562838658e-10
2.92098083675e-10
9.62419499989e-11
9.49375741374e-11
1.96971589017e-10
9.74719871257e-11
2.1606499124e-11
1.42640978263e-10
6.03185758372e-11
1.74038211416e-10
4.54079686867e-12
8.74169758163e-11
2.88974442302e-11
1.47310286218e-10
1.68788683301e-10
7.73343922875e-11
6.7653529363e-11
1.80849592858e-10
9.66866547244e-11
2.53449265876e-10
3.28329007088e-11
1.21926694888e-10
1.08617384789e-10
1.95279684996e-10
8.32901556545e-11
3.83384449541e-10
1.68750074438e-09
1.41908950194e-10
2.05970812953e-09
2.15716358008e-10
8.2376742859e-10
2.4384363314e-10
4.55430155433e-10
3.45632508131e-10
2.42640665581e-10
7.5479680089e-11
6.41021556656e-12
1.09806258186e-10
5.7542095042e-11
1.05989535116e-10
2.41780993557e-11
1.7289490032e-10
2.64707180823e-11
1.78771541435e-11
1.40345088438e-10
1.22437847911e-10
6.88356697544e-11
1.27135154752e-10
3.46358154779e-11
9.47428285036e-11
7.5488692634e-11
8.59080768156e-11
2.63029087899e-11
1.51863273725e-10
3.02225486581e-11
1.61936914821e-10
2.4447197247e-10
5.83885652805e-10
3.75303704281e-10
2.86731641544e-10
4.15607842943e-10
5.90819964229e-10
1.42866060036e-09
2.51797195901e-10
3.68689845866e-10
3.01118380222e-10
1.91807428175e-10
1.78672565665e-10
7.87446785704e-11
1.06477683498e-12
3.29853714837e-11
1.91464758661e-12
1.86856636467e-11
1.04245620655e-11
5.45855730886e-11
2.62421163904e-11
3.21618515123e-12
6.83399959401e-11
4.45828617959e-11
4.7711920884e-11
6.00296022674e-12
4.58712784283e-11
1.05684997744e-12
2.24637305251e-11
3.46022412873e-11
6.030513138e-11
1.75971822014e-11
4.63687954029e-11
2.70132207319e-11
1.04574503677e-10
2.3669487105e-11
3.27206256523e-11
1.41543472148e-11
2.48851908334e-12
8.93285187981e-11
2.3797324813e-10
2.19210208905e-10
4.46760287008e-10
3.29490600206e-10
6.09152913731e-10
5.51213681928e-10
4.07150034698e-10
5.15164468402e-10
3.59386749146e-10
3.07146490484e-10
2.67894174612e-11
1.48225283298e-10
4.46212037192e-11
7.45803841698e-12
2.26370712458e-11
1.53449079786e-11
4.23418073751e-11
7.91636990145e-12
2.24680039321e-11
2.75014562608e-11
6.31423606845e-11
4.93259782179e-11
6.46858951088e-12
4.40257189946e-11
4.38976909401e-11
1.88046126236e-11
2.81200387732e-11
4.71133732922e-11
1.23536623667e-11
8.26323444486e-11
6.04941025517e-11
1.04090703132e-10
2.18817502276e-11
9.30812765493e-11
8.27913021414e-11
5.66543161013e-11
1.55901920222e-11
1.42353362544e-10
3.50276502702e-11
1.19625360869e-10
1.59629398358e-11
1.67115368688e-10
2.44903240789e-11
2.47087873426e-10
5.4578890184e-11
6.84275717887e-10
3.87213204428e-10
4.96413866931e-10
6.75758886604e-10
7.12215686043e-10
5.34761969279e-12
3.52218992579e-10
8.40586045027e-11
1.07527474684e-10
1.39545731654e-11
4.31128391372e-11
6.67163852468e-12
4.10192804531e-12
4.8127395768e-11
5.35070432005e-11
1.93108564687e-11
5.1171805592e-11
3.46492224661e-11
1.995609948e-11
3.07961278323e-11
3.76984122313e-11
3.26348828771e-11
3.58260214889e-12
1.56744138724e-11
7.34050157346e-11
7.48205934103e-11
3.45608883485e-11
1.66898102495e-11
7.45120739522e-11
2.19645598706e-12
1.17833562939e-11
2.30852238373e-10
5.91104079655e-11
2.62257924348e-11
2.62843597745e-11
5.83183046727e-11
1.77002621563e-11
3.49092296829e-11
5.74263115809e-11
5.84099887075e-11
4.0779166407e-11
1.10055771358e-10
5.22355877414e-12
2.021975719e-10
1.10544923371e-10
4.66943837824e-10
8.03170498228e-11
6.72227745381e-10
1.64159893138e-10
3.16577020936e-10
2.99020579609e-10
1.63875747206e-10
7.70214405453e-11
4.64572319701e-11
6.42422299769e-11
4.15149148126e-12
1.40372837452e-11
3.83895774901e-11
2.88312490958e-11
1.69870860128e-11
6.25520540441e-11
2.95557149676e-11
1.31302990587e-11
1.2349207986e-10
8.80979043394e-11
2.428111381e-11
1.18085813932e-11
1.97141670911e-11
4.63110803934e-11
9.7466146985e-11
1.95796130151e-11
7.01449678141e-12
1.00906851748e-11
5.15242449411e-11
1.82675512659e-10
1.0983164158e-10
6.02238922261e-11
1.99651451027e-11
3.86156351583e-11
3.46806776933e-11
8.83548276235e-12
1.16027610397e-12
4.55652803678e-12
8.46516868669e-12
6.65861025382e-11
4.19712232868e-11
8.72921888712e-11
3.24435597155e-11
1.44107724803e-10
7.91300708649e-11
7.56858081822e-10
2.48608145819e-10
1.17712628361e-09
6.05726515417e-10
2.71723327035e-10
3.80540018995e-10
6.20383186733e-11
1.68897015028e-10
6.26247196404e-11
7.51880483918e-11
3.32340386111e-11
1.1208882849e-11
1.64776648517e-11
3.1243223686e-11
4.48592052329e-12
1.0169374974e-11
6.96529417687e-11
1.35183616639e-10
8.270066051e-12
5.02466223468e-11
3.84107062651e-11
5.61972904851e-11
1.00953426929e-10
2.12294770669e-11
2.31537163513e-11
1.01133551885e-11
3.98604383718e-11
2.61013639042e-11
1.02926524961e-10
1.06007221824e-10
9.72263975659e-11
5.06088551244e-11
2.76627148667e-11
1.93416641386e-11
4.66813731674e-12
2.3092207867e-11
1.00808968884e-11
9.35310975781e-12
8.12633271149e-12
4.38116293983e-11
1.25059219019e-11
5.60398527268e-11
9.32574226431e-13
9.50663582906e-11
3.2424286037e-11
2.25939623805e-10
1.45801381696e-10
7.43666841206e-10
7.94322675098e-11
1.41820199772e-09
1.0705109464e-09
1.41992829436e-10
6.37120279854e-10
5.8506640794e-11
1.86528021912e-10
3.05964980079e-11
1.67987411343e-10
2.29531121992e-11
5.87159578073e-11
3.19596423442e-11
6.9397314962e-11
2.69615044309e-11
6.8445850528e-13
5.22635935447e-11
1.44758345749e-11
1.13250540602e-11
1.38109222979e-11
5.61272468493e-11
1.01816926546e-10
2.67364298603e-11
3.03736096743e-11
7.93870506215e-11
1.80105546891e-11
9.62359961878e-11
7.01336391451e-11
8.19963209054e-11
6.45271014205e-12
1.26480323403e-11
7.77910361958e-11
7.92726006541e-12
7.19229501738e-11
1.04978743377e-11
1.34774984192e-10
9.71846888432e-11
1.59621511917e-10
1.73625712823e-10
7.14027237187e-11
1.50606101378e-10
2.73945092906e-11
8.3099773436e-11
4.20328701187e-11
1.2970217852e-10
1.01863544705e-10
1.39607252735e-10
2.73174845788e-10
1.78767453366e-10
4.84620985466e-10
4.42394501918e-10
8.92859043667e-10
1.50340593583e-09
4.85440502791e-12
7.87358574059e-10
6.40057955838e-11
2.73317439229e-10
4.9454746552e-10
6.19562197134e-11
2.73146062526e-10
6.03551298661e-12
1.40001100827e-10
4.58065559028e-11
8.63610545708e-11
1.44654253773e-11
6.46061120856e-11
1.20431958636e-11
4.83175511245e-11
8.45085916881e-12
7.31255937164e-12
2.39438470386e-11
3.19211620876e-11
1.30738101623e-11
3.39761207001e-11
2.85006458115e-11
5.13386759028e-11
6.25775015333e-12
1.96095665313e-11
5.90517511909e-11
2.31316594929e-12
7.18577970131e-11
7.71839469872e-11
4.50790398778e-12
7.95968444626e-11
8.58462511766e-12
7.51818526312e-11
4.70628483947e-12
1.13776328429e-11
1.98165260522e-12
2.01540252821e-11
3.75672177264e-11
2.26293657354e-11
5.69702208776e-11
4.70541341409e-11
1.59198891425e-10
5.18057333702e-11
2.66482602643e-10
1.2841074999e-10
4.82577997103e-10
1.63198498676e-10
1.05032294869e-09
3.42903104543e-10
1.35606005135e-09
2.66485418691e-10
4.50811563954e-10
6.5722411142e-11
5.48830205836e-10
6.70657873896e-11
2.13397624939e-10
2.04860579746e-11
1.633289131e-10
9.31237456504e-12
1.02469472474e-10
4.87145681521e-11
5.28746832689e-12
8.16552691638e-11
2.16307255907e-11
1.35349987693e-10
4.52964173505e-11
7.60832735501e-11
1.22800643724e-10
2.08374743666e-11
4.73411455108e-11
1.52863555824e-12
5.23686175714e-11
6.35604261426e-11
1.80814005767e-10
4.77832040177e-11
1.25427557728e-10
6.35392164905e-11
1.23662358335e-11
6.06314186073e-12
1.53836761047e-11
1.09290624238e-11
3.91542341545e-11
4.02694852013e-12
6.1104831187e-11
5.04161213138e-12
1.05926331255e-10
1.91214082856e-11
1.58740947789e-10
4.90344457524e-11
2.92269652033e-10
5.75036447361e-11
5.44478938499e-10
5.61532186738e-10
8.30857128602e-10
1.26570011731e-09
1.78581288193e-09
1.81685240667e-09
3.39826285086e-10
5.58745165032e-10
1.23220750192e-10
6.96543983204e-10
7.93287983317e-11
3.48317334658e-10
1.33001844354e-11
1.67838801526e-10
1.17897133327e-11
1.27437119475e-10
4.34259775986e-12
8.72462859555e-11
2.73253514444e-11
5.1474615956e-11
3.85080227375e-11
9.99644789581e-12
1.77691456021e-11
1.97767434162e-11
2.9645580544e-11
2.3072572018e-11
7.26672339522e-11
8.53732974725e-11
9.00242083433e-11
8.54511918857e-12
4.66562617719e-11
1.76428509354e-11
2.95397769126e-11
1.68922730651e-12
8.83485150929e-11
3.90300240814e-11
7.73719871327e-11
3.39630134129e-11
2.34728671141e-11
8.52856002377e-11
1.55661220717e-11
1.94460165455e-10
1.3615299763e-11
3.6331475779e-10
6.39124235028e-11
6.22333243043e-10
8.00150335687e-10
7.84765619517e-10
2.09251949619e-09
1.91409019354e-09
2.00566301409e-09
3.14845656015e-10
7.50183904317e-10
5.89178248762e-11
7.18944187121e-10
8.30996600289e-11
3.61052362808e-10
6.11170118689e-11
2.08687949997e-10
6.70272592692e-12
1.2878622827e-10
1.43196325265e-11
9.14781658959e-11
3.83419131789e-11
6.8220465754e-11
5.26041142489e-11
4.33555209199e-11
9.44698803292e-11
4.0808755345e-11
9.68678142839e-12
2.82665806232e-11
2.64367630547e-11
7.50748062193e-11
6.17549102276e-11
6.23332830354e-11
6.7221419753e-12
7.52078162989e-11
5.83830169751e-11
9.34518710351e-13
6.66611538573e-11
4.50482665871e-11
4.14284037294e-11
3.32789103513e-11
2.36593100828e-11
1.44231973164e-10
1.99625244994e-11
2.5988327676e-10
1.79481364093e-11
5.71367132806e-10
2.07244903703e-10
1.1007543003e-09
1.28364082536e-09
2.16408595281e-09
1.06600221928e-10
8.87335778304e-10
2.09214946505e-11
7.54259674941e-10
2.06109469481e-10
3.7851509126e-10
7.90099764656e-11
2.106345991e-10
4.02899844102e-11
1.30524165403e-10
2.7478391669e-12
8.53986624279e-11
2.67168733132e-11
4.09635631341e-11
4.9312588601e-11
2.71551892686e-11
1.37306283284e-11
7.93321387048e-11
4.25171564167e-11
3.5035105599e-11
6.19206904396e-11
7.25429414371e-11
4.2170685966e-11
7.36982009585e-11
9.0914119512e-11
5.84220971442e-11
1.53064814724e-10
1.89523617231e-11
1.14858809035e-10
3.00059853515e-11
2.48927480922e-10
6.79218551027e-11
5.01169645462e-10
1.46401010492e-10
1.10996487864e-09
2.33698027365e-10
2.12737789581e-09
2.92334797915e-09
4.65190264764e-11
1.0968390521e-09
2.10146478454e-11
8.9615751164e-10
1.51882001401e-10
3.99849207407e-10
9.54143770562e-12
2.38309343713e-10
1.60885074893e-12
1.12849834994e-10
5.90608062317e-11
5.07556636085e-11
6.72477867807e-11
2.65392883935e-11
1.08931171624e-10
7.65136934757e-11
6.76681716225e-11
9.82275462806e-11
1.60691595107e-11
6.28071306558e-11
1.03954260829e-10
6.49678968989e-11
1.23097170471e-10
2.84975264018e-11
2.29829806508e-10
3.19910004346e-11
3.28197403907e-10
1.6019301122e-10
5.87261681548e-10
1.33393211431e-09
9.98474287142e-10
3.53874564951e-09
1.96409945562e-09
1.92070426662e-09
3.86595481777e-10
1.30539129437e-09
1.98885340575e-10
8.89002883098e-10
2.93220779315e-10
3.26795229106e-10
8.12201933417e-11
2.10144776567e-10
2.36280943643e-11
6.59593233679e-11
1.97838329813e-11
2.02596956896e-10
3.01477967099e-11
1.89485322639e-10
9.12113151085e-11
2.80245223784e-10
1.83597626017e-10
9.02047078761e-11
1.23536578835e-11
1.58623650379e-10
2.92741244149e-11
2.53737517145e-10
3.17098519491e-10
6.50876304104e-10
1.44020917952e-09
9.75390218806e-10
4.58836601901e-09
3.6237506544e-10
1.30851618028e-09
1.43281281993e-10
1.0385869782e-09
2.59955542749e-10
3.55968223305e-10
2.30530603381e-11
1.64750868217e-10
1.09691551099e-11
3.88926286577e-10
1.46674750453e-10
3.13233006458e-10
2.02509209875e-10
1.93674322905e-10
3.17644188849e-11
2.70166848957e-10
3.05344662162e-10
6.03510019731e-10
1.44599002775e-09
6.90837988644e-10
1.95207006637e-09
3.28663070849e-10
1.01402267743e-09
4.74281435007e-11
2.6759354981e-10
5.23363735248e-11
8.29027958182e-10
4.2969725047e-10
3.42205921524e-10
7.600669915e-11
5.44309743047e-10
1.57475608495e-09
2.63530628645e-10
4.10103516578e-09
1.08384420655e-10
1.46049743494e-09
4.4206430534e-10
6.70033356361e-10
2.58008162704e-10
1.23935193285e-10
1.04040381176e-09
8.63373057396e-11
4.0871300139e-10
5.03706065002e-09
6.61952378946e-09
4.78801518215e-09
3.0547839308e-09
2.39858663604e-09
1.1167514051e-08
7.74396907964e-09
7.2365744743e-09
1.28147062471e-09
3.37419500469e-09
8.22015912332e-10
1.6259034962e-09
7.09878528209e-09
2.56472406355e-10
3.26592481849e-09
1.69526903069e-09
4.16327418115e-09
2.80209328767e-09
5.46885808976e-09
7.15060758342e-10
1.44881625128e-09
3.03239896158e-09
4.84234962312e-09
4.01604823662e-09
3.24875405431e-09
4.13465383913e-09
1.3428448593e-09
2.7324275467e-09
9.50638146056e-10
1.17659912791e-09
3.24598559911e-10
5.73191402796e-10
1.080333067e-09
5.50077399911e-10
2.07537788438e-09
1.2949058763e-10
1.25456016956e-09
2.65925669866e-10
1.15195298049e-09
3.13787694058e-10
7.10091415053e-10
2.42971337998e-10
1.61105415451e-09
8.30838091736e-10
1.35652359646e-09
8.53853832596e-10
5.61867577125e-10
7.27714108525e-10
1.62425882142e-09
1.1047988729e-09
1.4298495481e-09
3.17597411579e-09
1.01183664954e-09
4.79811079566e-09
7.16051052768e-10
5.51438425371e-09
8.22739547656e-10
4.98774039128e-09
1.00043104907e-09
4.05068531979e-09
6.60184561663e-11
2.90105836628e-10
3.10313150212e-09
7.26355452604e-10
2.28490566085e-09
2.01193209953e-10
3.20055092227e-09
1.4666291066e-09
1.3835108148e-08
4.98931276344e-09
5.47771737037e-09
2.23517178672e-09
3.10067810494e-09
5.7229446352e-08
1.57383453277e-08
3.7225683394e-08
4.60956943367e-08
5.25090940289e-08
1.20036967674e-08
8.01219339303e-09
2.15242814356e-08
1.33429511537e-08
3.98900923041e-08
1.6959176096e-08
6.40648466663e-08
3.70283931996e-08
3.59408564588e-08
4.0980298436e-08
1.94112391966e-08
2.40657490415e-08
1.08442051809e-08
1.40213300137e-08
6.14343866046e-09
2.24722528313e-09
2.3558479452e-09
4.28301814195e-09
3.07988905007e-09
7.13683633492e-09
3.6835415084e-09
1.17842081758e-08
4.56637888637e-09
2.01899477216e-08
3.40483278601e-10
2.89534614981e-08
3.35611077599e-08
3.33610595065e-08
2.82340316968e-08
2.4002562468e-08
2.06362374179e-08
1.91306573885e-08
1.31160523243e-08
1.36923492264e-08
7.42167756318e-09
8.75867255108e-09
4.23736002669e-09
5.45376267557e-09
2.41979601898e-09
1.24287279538e-09
3.20452817915e-09
1.14044552855e-09
4.81717958608e-09
8.08874222747e-10
6.73390553903e-09
2.26255585814e-10
9.4364608123e-09
1.04277777696e-09
1.16043603522e-08
3.38196144454e-09
1.3461748519e-08
5.91516771992e-09
1.4306506983e-08
8.4989934573e-09
1.28028288802e-08
9.3319339011e-09
1.03029019512e-08
8.64434578885e-09
7.45533655797e-09
7.07135340531e-09
5.14545956073e-09
5.46072550239e-09
3.30692538639e-09
3.64381144306e-09
2.30719882579e-09
2.37047435622e-09
6.98375905245e-10
1.56943972787e-09
2.2967445082e-10
4.48505755415e-10
4.19289087213e-11
1.37278810322e-09
9.21613935095e-11
9.32608772953e-10
4.73658379507e-09
3.13570425747e-09
6.80856557496e-11
4.13766247105e-09
1.48714624626e-09
4.92084442821e-09
2.72688871605e-09
5.47904248961e-09
3.67972662258e-09
5.59954313468e-09
4.18933521131e-09
4.97802405545e-09
4.36278857265e-09
4.08005725122e-09
3.52650741329e-09
2.90576265423e-09
2.52553838208e-09
2.49529252703e-09
1.90059858106e-09
1.82897593893e-09
1.85454721216e-09
2.39708623675e-09
1.01517217913e-09
1.18239725838e-09
7.53147969577e-10
5.44926526599e-10
8.9475300552e-10
1.01148085945e-09
5.26302451871e-10
1.6033329204e-09
3.0896591819e-11
1.93941988114e-09
2.9441469741e-10
1.86136215325e-09
5.41617198331e-10
2.17096265361e-09
1.15197722765e-09
2.15799575218e-09
1.32790310482e-09
1.85416896567e-09
1.24789374095e-09
1.49275252838e-09
1.23685629946e-09
7.4088201233e-10
8.86633903974e-10
1.02163526742e-09
5.32958980402e-10
3.63878506407e-10
1.01618578041e-09
6.00244812173e-10
4.11724044229e-11
2.51435402847e-10
5.31441698114e-10
2.88189953639e-10
7.43400081504e-10
6.3424048379e-11
1.22215563579e-09
9.01779604115e-11
1.60212017661e-09
3.00579271149e-10
1.04888358769e-09
4.89980534525e-11
1.25401370635e-09
4.32966603302e-10
7.88970567748e-10
4.11465061422e-10
5.93901068328e-10
4.51212606846e-10
8.60607611386e-10
2.89605462319e-10
4.56625524794e-10
7.96830379779e-12
3.91763138437e-10
8.52158798814e-11
2.54998599313e-10
1.63923519561e-10
2.04171480552e-10
1.5213755292e-09
4.28527401107e-10
6.87879212924e-10
2.04812215588e-10
7.03088440632e-10
1.64755344795e-10
7.54384982382e-11
8.36817807165e-10
3.26229307519e-10
3.26322867705e-10
1.14337035874e-10
1.97632114559e-10
6.29003644727e-10
1.55225662811e-10
7.88566580018e-10
1.08219025483e-10
2.92955786592e-10
6.18875868515e-10
4.5625334081e-11
5.94764123982e-10
6.74359400515e-10
4.49360946486e-10
1.00983237889e-09
2.02731997261e-09
2.82600950151e-09
2.04932446034e-10
5.09791159497e-10
3.32416374569e-11
3.19165497664e-10
1.66645696212e-09
1.12987852602e-09
2.00272299746e-09
1.14959264426e-09
1.61805424434e-09
8.22965335076e-10
1.39136738609e-09
1.93381924467e-10
7.93742548243e-10
4.79708501389e-10
6.2904205832e-10
1.41411964489e-09
1.39490553025e-09
9.53102888933e-10
1.26821145693e-09
3.12713981291e-09
3.56377148313e-10
1.38768252961e-09
2.27718491663e-11
7.37044973741e-10
1.91369855868e-09
1.36571236657e-09
1.17008300687e-09
1.39566043084e-09
1.97186035301e-09
2.22560674204e-10
2.5332083817e-10
1.76062698328e-09
1.36003891872e-09
1.26766853546e-09
2.02828550003e-09
3.84401444744e-09
4.04294376442e-09
8.500489744e-10
1.63961970133e-09
1.74926506098e-09
1.94179048049e-09
3.15984029418e-09
1.6948833214e-09
5.2563415338e-10
1.44542292172e-09
1.33214076999e-09
5.29477982918e-09
5.35078110271e-09
1.33995271271e-09
7.84798012493e-10
1.72720416595e-09
5.0411882994e-09
2.09898614318e-09
5.51002999571e-09
1.71048180845e-09
7.60683938128e-09
1.9918482808e-09
7.19697775108e-09
1.58434761791e-09
5.99911816941e-09
2.07782626807e-09
3.25552120886e-09
3.56935511925e-09
2.93594169049e-09