# vtk DataFile Version 3.0
File Name: Molecule/methanol/methanol_2.0-6.vtk
ASCII
DATASET UNSTRUCTURED_GRID
FIELD FieldData 1
TIME 1 1 double
0.0
POINTS 132 double
1.445 -0.731 -0.342
0.98 -1.317 -0.296
1.252 -0.666 -0.918
0.828 -1.2 -0.876
0.308 -1.642 -0.229
0.216 -1.496 -0.815
-0.438 -1.642 -0.155
-0.464 -1.496 -0.747
-1.11 -1.317 -0.088
-1.076 -1.2 -0.686
-1.576 -0.731 -0.042
-1.5 -0.666 -0.644
-1.742 0.0 -0.025
-1.651 0.0 -0.629
-1.576 0.731 -0.042
-1.5 0.666 -0.644
-1.11 1.317 -0.088
-1.076 1.2 -0.686
-0.438 1.642 -0.155
-0.464 1.496 -0.747
0.308 1.642 -0.229
0.216 1.496 -0.815
0.98 1.317 -0.296
0.828 1.2 -0.876
1.445 0.731 -0.342
1.252 0.666 -0.918
1.611 0.0 -0.359
1.907 0.0 0.656
1.763 0.722 0.656
1.763 0.361 1.281
1.763 -0.361 1.281
1.763 -0.722 0.656
1.763 -0.361 0.03
1.763 0.361 0.03
1.354 1.123 1.377
1.354 0.554 1.87
1.354 -0.19 1.977
1.354 -0.874 1.664
1.354 -1.281 1.032
1.354 -1.281 0.28
1.354 1.335 0.656
0.741 1.571 1.412
0.741 1.087 2.019
0.741 0.388 2.356
0.741 -0.388 2.356
0.741 -1.087 2.019
0.741 -1.571 1.412
0.741 -1.744 0.656
0.741 1.744 0.656
0.019 1.744 1.378
0.019 1.335 1.99
0.019 0.722 2.399
0.019 -0.0 2.543
0.019 -0.722 2.399
0.019 -1.335 1.99
0.019 -1.744 1.378
0.019 -1.888 0.656
0.019 1.888 0.656
-0.703 1.744 0.656
-0.703 1.571 1.412
-0.703 1.087 2.019
-0.703 0.388 2.356
-0.703 -0.388 2.356
-0.703 -1.087 2.019
-0.703 -1.571 1.412
-0.703 -1.744 0.656
-1.316 1.335 0.656
-1.316 1.123 1.377
-1.316 0.554 1.87
-1.316 -0.19 1.977
-1.316 -0.874 1.664
-1.316 -1.281 1.032
-1.725 0.722 0.656
-1.725 0.361 1.281
-1.725 -0.361 1.281
-1.725 -0.722 0.656
-1.868 0.0 0.656
0.648 -0.871 -1.742
-0.12 -1.149 -1.755
-0.12 -0.544 -2.172
0.648 -0.189 -2.053
-0.12 0.185 -2.261
0.648 0.552 -1.946
-0.12 0.872 -2.0
0.648 1.118 -1.456
-0.12 1.359 -1.451
-0.887 -1.276 -1.112
-0.887 -0.871 -1.742
-0.887 -0.189 -2.053
-0.887 0.552 -1.946
-0.887 1.118 -1.456
-1.449 -0.384 -1.402
-1.449 0.384 -1.402
0.929 0.468 -1.674
0.648 0.835 -1.701
0.929 0.751 -1.429
1.21 -0.384 -1.402
0.929 -0.6275 -1.572
0.929 -0.2865 -1.7275
0.648 -0.53 -1.8975
1.3275 0.333 -0.9255
1.231 0.525 -1.16
1.3065 0.192 -1.1675
1.403 0.0 -0.933
1.3065 -0.192 -1.1675
1.0695 0.5675 -1.4155
1.0905 0.7085 -1.1735
1.21 0.0 -1.402
1.528 -0.3655 -0.3505
1.507 0.0 -0.646
1.424 -0.3655 -0.6375
1.25825 0.288 -1.28475
1.21 0.384 -1.402
1.21 0.192 -1.402
1.25825 0.096 -1.28475
0.7885 0.1395 -1.8635
0.929 0.0975 -1.7275
1.0695 0.426 -1.538
0.7885 -0.40825 -1.8125
0.648 -0.3595 -1.97525
0.7885 -0.23775 -1.89025
0.99925 0.51775 -1.54475
1.13975 0.47575 -1.40875
1.0695 0.04875 -1.56475
1.231 -0.525 -1.16
1.25825 -0.288 -1.28475
1.27925 -0.429 -1.04275
0.85875 -0.262125 -1.808875
0.99925 0.073125 -1.646125
0.929 -0.0945 -1.7275
0.85875 -0.070125 -1.808875
0.99925 -0.118875 -1.646125

CELLS 260 1040
3 0 1 2
3 2 1 3
3 1 4 3
3 3 4 5
3 4 6 5
3 5 6 7
3 6 8 7
3 7 8 9
3 8 10 9
3 9 10 11
3 10 12 11
3 11 12 13
3 12 14 13
3 13 14 15
3 14 16 15
3 15 16 17
3 16 18 17
3 17 18 19
3 18 20 19
3 19 20 21
3 20 22 21
3 21 22 23
3 22 24 23
3 23 24 25
3 24 26 25
3 27 28 29
3 27 29 30
3 27 30 31
3 27 31 32
3 27 32 33
3 27 33 28
3 29 28 34
3 29 34 35
3 29 35 36
3 30 29 36
3 30 36 37
3 30 37 38
3 31 30 38
3 31 38 39
3 32 31 39
3 28 40 34
3 34 40 41
3 34 41 42
3 35 34 42
3 35 42 43
3 36 35 43
3 36 43 44
3 37 36 44
3 37 44 45
3 37 45 46
3 38 37 46
3 38 46 47
3 39 38 47
3 40 48 41
3 41 48 49
3 41 49 50
3 42 41 50
3 42 50 51
3 43 42 51
3 43 51 52
3 44 43 52
3 44 52 53
3 45 44 53
3 45 53 54
3 46 45 54
3 46 54 55
3 47 46 55
3 47 55 56
3 48 57 49
3 49 57 58
3 49 58 59
3 50 49 59
3 50 59 60
3 51 50 60
3 51 60 61
3 52 51 61
3 52 61 62
3 53 52 62
3 53 62 63
3 54 53 63
3 54 63 64
3 55 54 64
3 55 64 65
3 56 55 65
3 59 58 66
3 59 66 67
3 60 59 67
3 60 67 68
3 61 60 68
3 61 68 69
3 62 61 69
3 62 69 70
3 63 62 70
3 64 63 70
3 64 70 71
3 65 64 71
3 67 66 72
3 67 72 73
3 68 67 73
3 69 68 73
3 69 73 74
3 70 69 74
3 71 70 74
3 71 74 75
3 73 72 76
3 74 73 76
3 75 74 76
3 75 76 12
3 75 12 10
3 75 10 8
3 75 8 71
3 71 8 65
3 65 8 6
3 65 6 56
3 56 6 4
3 56 4 47
3 47 4 1
3 47 1 39
3 39 1 0
3 39 0 32
3 32 26 33
3 33 26 24
3 33 24 28
3 28 24 40
3 40 24 22
3 40 22 48
3 48 22 20
3 48 20 57
3 57 20 18
3 57 18 58
3 58 18 16
3 58 16 66
3 66 16 14
3 66 14 72
3 72 14 12
3 72 12 76
3 77 78 79
3 80 79 81
3 82 80 81
3 82 81 83
3 84 83 85
3 78 86 87
3 79 78 87
3 79 87 88
3 81 79 88
3 81 88 89
3 83 81 89
3 83 89 90
3 85 83 90
3 87 86 91
3 88 87 91
3 88 91 92
3 89 88 92
3 90 89 92
3 90 92 15
3 90 15 17
3 90 17 19
3 90 19 85
3 85 19 21
3 85 21 84
3 84 21 23
3 84 23 25
3 77 2 3
3 77 3 5
3 77 5 78
3 78 5 7
3 78 7 86
3 86 7 9
3 86 9 11
3 86 11 91
3 91 11 13
3 91 13 92
3 92 13 15
3 93 94 95
3 93 82 94
3 95 94 84
3 84 94 83
3 94 82 83
3 96 97 98
3 97 77 99
3 99 77 79
3 77 97 2
3 26 100 25
3 101 100 102
3 101 25 100
3 102 100 103
3 102 103 104
3 105 106 101
3 105 95 106
3 101 106 25
3 25 106 84
3 106 95 84
3 98 107 96
3 26 108 109
3 108 110 109
3 108 0 110
3 109 110 103
3 103 110 2
3 110 0 2
3 0 108 32
3 32 108 26
3 26 109 100
3 100 109 103
3 102 111 101
3 101 111 112
3 112 111 113
3 111 114 113
3 111 102 114
3 113 114 107
3 107 114 104
3 104 114 102
3 113 107 98
3 93 115 82
3 82 115 80
3 80 115 116
3 115 117 116
3 115 93 117
3 116 117 112
3 99 118 97
3 97 118 98
3 118 119 120
3 118 99 119
3 120 119 80
3 80 119 79
3 119 99 79
3 105 121 95
3 95 121 93
3 93 121 117
3 121 122 117
3 121 105 122
3 117 122 112
3 112 122 101
3 122 105 101
3 113 123 112
3 96 124 97
3 97 124 2
3 104 125 107
3 107 125 96
3 96 125 124
3 125 126 124
3 125 104 126
3 124 126 2
3 2 126 103
3 103 126 104
3 120 127 118
3 118 127 98
3 123 128 112
3 112 128 116
3 123 129 128
3 129 130 128
3 129 120 130
3 128 130 116
3 123 131 129
3 131 127 129
3 131 98 127
3 129 127 120
3 116 130 80
3 130 120 80
3 98 131 113
3 131 123 113

CELL_TYPES 260
5
5
5
5
5
5
5
5
5
5
5
5
5
5
5
5
5
5
5
5
5
5
5
5
5
5
5
5
5
5
5
5
5
5
5
5
5
5
5
5
5
5
5
5
5
5
5
5
5
5
5
5
5
5
5
5
5
5
5
5
5
5
5
5
5
5
5
5
5
5
5
5
5
5
5
5
5
5
5
5
5
5
5
5
5
5
5
5
5
5
5
5
5
5
5
5
5
5
5
5
5
5
5
5
5
5
5
5
5
5
5
5
5
5
5
5
5
5
5
5
5
5
5
5
5
5
5
5
5
5
5
5
5
5
5
5
5
5
5
5
5
5
5
5
5
5
5
5
5
5
5
5
5
5
5
5
5
5
5
5
5
5
5
5
5
5
5
5
5
5
5
5
5
5
5
5
5
5
5
5
5
5
5
5
5
5
5
5
5
5
5
5
5
5
5
5
5
5
5
5
5
5
5
5
5
5
5
5
5
5
5
5
5
5
5
5
5
5
5
5
5
5
5
5
5
5
5
5
5
5
5
5
5
5
5
5
5
5
5
5
5
5
5
5
5
5
5
5
5
5
5
5
5
5
5
5
5
5
5
5

CELL_DATA 260
SCALARS cell_data_0 double
LOOKUP_TABLE default
1.29305659161e-06
1.39733230212e-06
8.04109926096e-08
1.4905487603e-07
1.4509994901e-07
2.77136228197e-07
5.91407462888e-08
2.4670376845e-08
3.43904355178e-08
2.15884724561e-07
2.67021911635e-07
2.78264628753e-07
1.60637710252e-07
3.681862632e-07
3.25777052037e-07
3.92240998169e-07
1.96165418304e-07
2.49880175633e-07
2.41915015732e-07
2.84773106822e-07
2.90253185408e-07
2.6956045054e-07
1.31164563255e-07
8.62598076652e-07
3.61640906626e-07
9.13224316081e-09
9.36043279326e-09
5.85460374244e-10
8.05380986665e-09
2.91288267339e-09
1.92509961535e-09
1.06962161943e-08
5.62951578362e-09
2.33561255811e-09
3.74411584934e-09
1.50462659744e-08
7.88593422057e-09
1.42170624718e-08
4.84574693405e-09
2.61744139788e-10
1.82583719477e-08
5.61307996743e-09
6.16628433365e-09
6.95989994828e-11
1.10431871466e-09
4.94873744341e-09
2.12774961706e-09
2.09473145213e-09
2.12837003564e-09
1.19269358976e-09
1.47691192179e-09
4.23270024691e-09
2.30597015456e-08
5.64861616307e-09
5.4195819628e-09
2.8713101536e-09
2.989052296e-10
3.66963835595e-09
2.50586209101e-09
2.91326532248e-09
5.87376878377e-10
3.04279163026e-09
1.8188222862e-09
3.54157653346e-09
4.2082807793e-10
2.70574032383e-09
1.0573363996e-08
2.34443614488e-08
1.6669206553e-08
1.6337766981e-08
6.75946272682e-09
2.45683021683e-09
3.64827271137e-09
4.42995032596e-09
1.72304392793e-09
1.60941807096e-09
1.53289996394e-11
3.61005871178e-09
6.83537534105e-10
4.47843402985e-09
1.47995182974e-09
8.75947321549e-10
6.20494227108e-10
1.48825548096e-08
2.63434449416e-08
1.49588510036e-08
8.89254551279e-09
2.70553692687e-09
3.93820906538e-09
2.25652811825e-09
7.73139913338e-09
3.65972888648e-10
3.65966657291e-09
4.04424851635e-09
1.08268442339e-08
2.56113263299e-08
2.34781868537e-08
1.71936121772e-08
8.29498695998e-09
5.76231359349e-09
5.72495776776e-09
9.97169788307e-09
1.25999274146e-08
2.65155507974e-08
1.94900123428e-08
1.06959539561e-08
1.42004800091e-08
1.63317677285e-07
2.21325692132e-07
1.61241374751e-07
3.10532854198e-07
3.39012881436e-07
1.97190133989e-07
1.8275976419e-07
1.65076520981e-07
1.17083671702e-07
1.41038537154e-07
6.8007311603e-08
6.63734697652e-08
4.77339450267e-08
2.07576944333e-08
7.72799187395e-09
1.06524995798e-08
5.36589458315e-09
5.16118121159e-08
1.97978139388e-08
1.01101944695e-07
1.24154216165e-07
1.76900096631e-07
1.91740646232e-07
1.9492421724e-07
1.90169099254e-07
1.81818360968e-07
1.80864163753e-07
1.71631769518e-07
1.61138126337e-07
8.81872786723e-07
1.26454894024e-06
1.19390642824e-06
1.00355350613e-06
3.85235389055e-07
1.47228881588e-07
2.42763678321e-07
4.53060186202e-08
3.27028004431e-07
2.9284574644e-09
1.51497589209e-07
5.38491005657e-08
1.92964314742e-07
1.35957608236e-08
2.47406045223e-07
5.41325789005e-08
4.6803247564e-08
3.61563090353e-07
4.7945741478e-07
2.78258904647e-07
2.92065524678e-08
3.31984034458e-08
4.77003142417e-08
1.35703498726e-07
1.51498950633e-07
1.04779466621e-06
8.23923157395e-07
8.21514399689e-07
9.98023028309e-07
6.16032853182e-08
1.78107419252e-07
3.74429671383e-07
1.00644565799e-07
6.29223728727e-07
6.81088166795e-08
3.15909369491e-08
7.55149998333e-08
3.27437028772e-07
5.52257901257e-07
2.76367746244e-07
3.44439395224e-07
5.01188540239e-07
7.64480671897e-07
6.66339445137e-07
4.57053295836e-07
2.31436327693e-07
5.31444852265e-07
1.33948808749e-07
2.56651419355e-07
3.52345525978e-07
3.51730049578e-07
1.46530956409e-08
5.70919751716e-08
1.81999377284e-07
2.73306378969e-07
5.59075328295e-07
9.8936718429e-07
2.6165547185e-08
8.29110250916e-09
1.05445856094e-07
6.8247548192e-07
3.14778388238e-07
4.14784022577e-07
1.12242443884e-08
3.09451350707e-08
7.24109554453e-07
4.22996758421e-07
4.89021357657e-08
8.75858509186e-08
5.28520013528e-07
1.96629597031e-07
5.30343233687e-08
9.52562878011e-07
1.74163986424e-07
6.8743945698e-07
1.54435473514e-06
5.28383416888e-07
1.38569040486e-07
1.12512807779e-06
5.92221948615e-08
1.06041868374e-07
3.77366455483e-07
1.18155697229e-07
5.20582973474e-07
2.59808610033e-09
1.71467242627e-08
2.19329381819e-08
3.74650879072e-07
3.33153378199e-07
9.53837621202e-08
7.5066449192e-08
1.65236540685e-07
7.48778301357e-08
2.9953504434e-08
2.3612495099e-07
5.56285417427e-08
9.26024627561e-08
1.01481013222e-06
1.32895221301e-07
3.40214651069e-07
4.76487133854e-07
8.21522500483e-07
2.29038114161e-07
4.88460615365e-08
1.4438687141e-07
5.53458546289e-07
1.51844512277e-07
9.44581947659e-08
2.32655768939e-08
1.0391203359e-07
8.38858007667e-08
5.15640535185e-07
3.38978699844e-07
1.61040306409e-07
9.03739924429e-09
2.19495975674e-07
2.65186566913e-07
1.27017470592e-07
4.87235964227e-07
9.07127305407e-08
4.89732546682e-07
1.17644286367e-07
7.4077186491e-08
6.35048117256e-07

