# vtk DataFile Version 3.0
File Name: Molecule/methanol/methanol_4.0-1.vtk
ASCII
DATASET UNSTRUCTURED_GRID
FIELD FieldData 1
TIME 1 1 double
0.0
POINTS 186 double
1.611 0.0 -0.359
1.51 -0.576 -0.349
1.403 0.0 -0.933
1.311 -0.525 -0.924
1.219 -1.083 -0.32
1.046 -0.986 -0.897
0.773 -1.459 -0.275
0.639 -1.329 -0.857
0.226 -1.659 -0.221
0.141 -1.511 -0.807
-0.356 -1.659 -0.163
-0.389 -1.511 -0.754
-0.903 -1.459 -0.108
-0.887 -1.329 -0.705
-1.349 -1.083 -0.064
-1.294 -0.986 -0.664
-1.64 -0.576 -0.035
-1.559 -0.525 -0.638
-1.742 -0.0 -0.025
-1.651 -0.0 -0.629
-1.64 0.576 -0.035
-1.559 0.525 -0.638
-1.349 1.083 -0.064
-1.294 0.986 -0.664
-0.903 1.459 -0.108
-0.887 1.329 -0.705
-0.356 1.659 -0.163
-0.389 1.511 -0.754
0.226 1.659 -0.221
0.141 1.511 -0.807
0.773 1.459 -0.275
0.639 1.329 -0.857
1.219 1.083 -0.32
1.046 0.986 -0.897
1.51 0.576 -0.349
1.311 0.525 -0.924
1.907 0.0 0.656
1.83 0.532 0.656
1.83 0.266 1.116
1.83 -0.266 1.116
1.83 -0.532 0.656
1.83 -0.266 0.195
1.83 0.266 0.195
1.607 0.884 1.166
1.607 0.51 1.539
1.607 -0.0 1.676
1.607 -0.51 1.539
1.607 -0.884 1.166
1.607 -1.02 0.656
1.607 -0.884 0.145
1.607 0.884 0.145
1.607 1.02 0.656
1.255 1.33 1.171
1.255 1.054 1.617
1.255 0.636 1.933
1.255 0.132 2.076
1.255 -0.39 2.028
1.255 -0.86 1.794
1.255 -1.213 1.407
1.255 -1.402 0.918
1.255 -1.402 0.393
1.255 1.33 0.14
1.255 1.426 0.656
0.803 1.633 1.186
0.803 1.389 1.665
0.803 1.009 2.045
0.803 0.531 2.288
0.803 -0.0 2.373
0.803 -0.531 2.288
0.803 -1.009 2.045
0.803 -1.389 1.665
0.803 -1.633 1.186
0.803 -1.717 0.656
0.803 -1.633 0.125
0.803 1.633 0.125
0.803 1.717 0.656
0.288 1.793 1.182
0.288 1.572 1.666
0.288 1.223 2.068
0.288 0.776 2.355
0.288 0.266 2.505
0.288 -0.266 2.505
0.288 -0.776 2.355
0.288 -1.223 2.068
0.288 -1.572 1.666
0.288 -1.793 1.182
0.288 -1.868 0.656
0.288 -1.793 0.129
0.288 1.793 0.129
0.288 1.868 0.656
-0.25 1.793 1.182
-0.25 1.572 1.666
-0.25 1.223 2.068
-0.25 0.776 2.355
-0.25 0.266 2.505
-0.25 -0.266 2.505
-0.25 -0.776 2.355
-0.25 -1.223 2.068
-0.25 -1.572 1.666
-0.25 -1.793 1.182
-0.25 -1.868 0.656
-0.25 -1.793 0.129
-0.25 1.793 0.129
-0.25 1.868 0.656
-0.765 1.717 0.656
-0.765 1.633 1.186
-0.765 1.389 1.665
-0.765 1.009 2.045
-0.765 0.531 2.288
-0.765 -0.0 2.373
-0.765 -0.531 2.288
-0.765 -1.009 2.045
-0.765 -1.389 1.665
-0.765 -1.633 1.186
-0.765 -1.717 0.656
-1.217 1.426 0.656
-1.217 1.33 1.171
-1.217 1.054 1.617
-1.217 0.636 1.933
-1.217 0.132 2.076
-1.217 -0.39 2.028
-1.217 -0.86 1.794
-1.217 -1.213 1.407
-1.217 -1.402 0.918
-1.217 -1.402 0.393
-1.569 1.02 0.656
-1.569 0.884 1.166
-1.569 0.51 1.539
-1.569 -0.0 1.676
-1.569 -0.51 1.539
-1.569 -0.884 1.166
-1.569 -1.02 0.656
-1.792 0.532 0.656
-1.792 0.266 1.116
-1.792 -0.266 1.116
-1.792 -0.532 0.656
-1.868 0.0 0.656
1.323 -0.263 -1.192
1.056 -0.854 -1.231
1.056 -0.493 -1.592
1.056 -0.0 -1.724
1.323 0.263 -1.192
1.056 0.493 -1.592
1.056 0.854 -1.231
0.648 -1.228 -1.246
0.648 -0.94 -1.677
0.648 -0.509 -1.965
0.648 0.509 -1.965
0.648 0.94 -1.677
0.648 1.228 -1.246
0.147 -1.421 -1.254
0.147 -1.158 -1.709
0.147 -0.756 -2.046
0.147 -0.263 -2.226
0.648 0.0 -2.067
0.147 0.262 -2.226
0.147 0.756 -2.046
0.147 1.158 -1.709
0.147 1.421 -1.254
-0.386 -1.421 -1.254
-0.386 -1.158 -1.709
-0.386 -0.756 -2.046
-0.386 -0.263 -2.226
-0.386 0.262 -2.226
-0.386 0.756 -2.046
-0.386 1.158 -1.709
-0.386 1.421 -1.254
-0.887 -1.228 -1.246
-0.887 -0.94 -1.677
-0.887 -0.509 -1.965
-0.887 0.0 -2.067
-0.887 0.509 -1.965
-0.887 0.94 -1.677
-0.887 1.228 -1.246
-1.296 -0.854 -1.231
-1.296 -0.493 -1.592
-1.296 -0.0 -1.724
-1.296 0.493 -1.592
-1.296 0.854 -1.231
-1.562 -0.263 -1.192
-1.562 0.263 -1.192
0.852 -0.2545 -1.8445
0.852 0.0 -1.8955
0.648 -0.2545 -2.016
0.852 0.2545 -1.8445
0.648 0.2545 -2.016

CELLS 368 1472
3 0 1 2
3 2 1 3
3 1 4 3
3 3 4 5
3 4 6 5
3 5 6 7
3 6 8 7
3 7 8 9
3 8 10 9
3 9 10 11
3 10 12 11
3 11 12 13
3 12 14 13
3 13 14 15
3 14 16 15
3 15 16 17
3 16 18 17
3 17 18 19
3 18 20 19
3 19 20 21
3 20 22 21
3 21 22 23
3 22 24 23
3 23 24 25
3 24 26 25
3 25 26 27
3 26 28 27
3 27 28 29
3 28 30 29
3 29 30 31
3 30 32 31
3 31 32 33
3 32 34 33
3 33 34 35
3 34 0 35
3 35 0 2
3 36 37 38
3 36 38 39
3 36 39 40
3 36 40 41
3 36 41 42
3 36 42 37
3 38 37 43
3 38 43 44
3 38 44 45
3 39 38 45
3 39 45 46
3 39 46 47
3 40 39 47
3 40 47 48
3 40 48 49
3 41 40 49
3 37 42 50
3 37 50 51
3 37 51 43
3 43 51 52
3 43 52 53
3 44 43 53
3 44 53 54
3 44 54 55
3 45 44 55
3 45 55 56
3 46 45 56
3 46 56 57
3 47 46 57
3 47 57 58
3 47 58 59
3 48 47 59
3 48 59 60
3 49 48 60
3 51 50 61
3 51 61 62
3 51 62 52
3 52 62 63
3 52 63 64
3 53 52 64
3 53 64 65
3 54 53 65
3 54 65 66
3 55 54 66
3 55 66 67
3 56 55 67
3 56 67 68
3 57 56 68
3 57 68 69
3 57 69 70
3 58 57 70
3 58 70 71
3 59 58 71
3 59 71 72
3 60 59 72
3 60 72 73
3 62 61 74
3 62 74 75
3 62 75 63
3 63 75 76
3 63 76 77
3 64 63 77
3 64 77 78
3 65 64 78
3 65 78 79
3 66 65 79
3 66 79 80
3 67 66 80
3 67 80 81
3 68 67 81
3 68 81 82
3 69 68 82
3 69 82 83
3 70 69 83
3 70 83 84
3 71 70 84
3 71 84 85
3 72 71 85
3 72 85 86
3 72 86 87
3 73 72 87
3 75 74 88
3 75 88 89
3 75 89 76
3 76 89 90
3 76 90 91
3 77 76 91
3 77 91 92
3 78 77 92
3 78 92 93
3 79 78 93
3 79 93 94
3 80 79 94
3 80 94 95
3 81 80 95
3 81 95 96
3 82 81 96
3 82 96 97
3 83 82 97
3 83 97 98
3 84 83 98
3 84 98 99
3 85 84 99
3 85 99 100
3 86 85 100
3 86 100 101
3 87 86 101
3 89 88 102
3 89 102 103
3 89 103 90
3 90 103 104
3 90 104 105
3 91 90 105
3 91 105 106
3 92 91 106
3 92 106 107
3 93 92 107
3 93 107 108
3 94 93 108
3 94 108 109
3 95 94 109
3 95 109 110
3 96 95 110
3 96 110 111
3 97 96 111
3 97 111 112
3 98 97 112
3 98 112 113
3 99 98 113
3 99 113 114
3 100 99 114
3 101 100 114
3 103 102 104
3 105 104 115
3 105 115 116
3 106 105 116
3 106 116 117
3 107 106 117
3 107 117 118
3 108 107 118
3 108 118 119
3 109 108 119
3 109 119 120
3 110 109 120
3 110 120 121
3 111 110 121
3 112 111 121
3 112 121 122
3 113 112 122
3 113 122 123
3 114 113 123
3 114 123 124
3 116 115 125
3 116 125 126
3 117 116 126
3 117 126 127
3 118 117 127
3 119 118 127
3 119 127 128
3 120 119 128
3 120 128 129
3 121 120 129
3 121 129 130
3 122 121 130
3 123 122 130
3 123 130 131
3 124 123 131
3 126 125 132
3 126 132 133
3 127 126 133
3 128 127 133
3 128 133 134
3 129 128 134
3 130 129 134
3 130 134 135
3 131 130 135
3 133 132 136
3 134 133 136
3 135 134 136
3 135 136 18
3 135 18 16
3 135 16 131
3 131 16 14
3 131 14 124
3 124 14 12
3 124 12 114
3 114 12 101
3 101 12 10
3 101 10 8
3 101 8 87
3 87 8 73
3 73 8 6
3 73 6 4
3 73 4 60
3 60 4 49
3 49 4 1
3 49 1 41
3 41 1 0
3 41 0 42
3 42 0 34
3 42 34 50
3 50 34 32
3 50 32 61
3 61 32 30
3 61 30 74
3 74 30 28
3 74 28 88
3 88 28 102
3 102 28 26
3 102 26 24
3 102 24 104
3 104 24 115
3 115 24 22
3 115 22 125
3 125 22 20
3 125 20 132
3 132 20 18
3 132 18 136
3 137 138 139
3 137 139 140
3 141 137 140
3 141 140 142
3 141 142 143
3 138 144 145
3 139 138 145
3 139 145 146
3 142 147 148
3 143 142 148
3 143 148 149
3 144 150 151
3 145 144 151
3 145 151 152
3 146 145 152
3 146 152 153
3 154 153 155
3 147 155 156
3 148 147 156
3 148 156 157
3 149 148 157
3 149 157 158
3 150 159 160
3 151 150 160
3 152 151 160
3 152 160 161
3 152 161 162
3 153 152 162
3 153 162 163
3 155 153 163
3 155 163 164
3 156 155 164
3 156 164 165
3 157 156 165
3 157 165 166
3 158 157 166
3 160 159 167
3 160 167 168
3 161 160 168
3 161 168 169
3 162 161 169
3 162 169 170
3 163 162 170
3 163 170 171
3 164 163 171
3 164 171 172
3 165 164 172
3 165 172 173
3 166 165 173
3 168 167 174
3 168 174 175
3 169 168 175
3 169 175 176
3 170 169 176
3 171 170 176
3 171 176 177
3 172 171 177
3 172 177 178
3 173 172 178
3 175 174 179
3 176 175 179
3 176 179 180
3 177 176 180
3 178 177 180
3 178 180 21
3 178 21 23
3 178 23 173
3 173 23 25
3 173 25 166
3 166 25 27
3 166 27 29
3 166 29 158
3 158 29 31
3 158 31 149
3 149 31 33
3 149 33 143
3 143 33 35
3 143 35 141
3 141 35 2
3 141 2 137
3 137 2 3
3 137 3 138
3 138 3 5
3 138 5 144
3 144 5 7
3 144 7 150
3 150 7 9
3 150 9 159
3 159 9 11
3 159 11 13
3 159 13 167
3 167 13 15
3 167 15 174
3 174 15 17
3 174 17 179
3 179 17 19
3 179 19 180
3 180 19 21
3 146 181 139
3 139 181 140
3 140 181 182
3 181 183 182
3 181 146 183
3 182 183 154
3 140 182 184
3 182 185 184
3 182 154 185
3 184 185 147
3 140 184 142
3 142 184 147
3 154 183 153
3 183 146 153
3 147 185 155
3 185 154 155

CELL_TYPES 368
5
5
5
5
5
5
5
5
5
5
5
5
5
5
5
5
5
5
5
5
5
5
5
5
5
5
5
5
5
5
5
5
5
5
5
5
5
5
5
5
5
5
5
5
5
5
5
5
5
5
5
5
5
5
5
5
5
5
5
5
5
5
5
5
5
5
5
5
5
5
5
5
5
5
5
5
5
5
5
5
5
5
5
5
5
5
5
5
5
5
5
5
5
5
5
5
5
5
5
5
5
5
5
5
5
5
5
5
5
5
5
5
5
5
5
5
5
5
5
5
5
5
5
5
5
5
5
5
5
5
5
5
5
5
5
5
5
5
5
5
5
5
5
5
5
5
5
5
5
5
5
5
5
5
5
5
5
5
5
5
5
5
5
5
5
5
5
5
5
5
5
5
5
5
5
5
5
5
5
5
5
5
5
5
5
5
5
5
5
5
5
5
5
5
5
5
5
5
5
5
5
5
5
5
5
5
5
5
5
5
5
5
5
5
5
5
5
5
5
5
5
5
5
5
5
5
5
5
5
5
5
5
5
5
5
5
5
5
5
5
5
5
5
5
5
5
5
5
5
5
5
5
5
5
5
5
5
5
5
5
5
5
5
5
5
5
5
5
5
5
5
5
5
5
5
5
5
5
5
5
5
5
5
5
5
5
5
5
5
5
5
5
5
5
5
5
5
5
5
5
5
5
5
5
5
5
5
5
5
5
5
5
5
5
5
5
5
5
5
5
5
5
5
5
5
5
5
5
5
5
5
5
5
5
5
5
5
5
5
5
5
5
5
5
5
5
5
5
5
5
5
5
5
5
5
5
5
5
5
5
5
5
5
5
5
5
5
5

CELL_DATA 368
SCALARS cell_data_0 double
LOOKUP_TABLE default
9.15494891557e-07
6.84664137304e-07
4.72492577292e-07
6.44577845301e-07
5.70339678431e-08
1.39376997406e-07
4.5568850006e-08
6.03143655465e-08
3.89368718375e-08
9.67288809484e-08
3.19284119205e-10
1.20907336563e-07
2.66163699953e-08
1.1474281378e-07
5.74466022977e-08
1.17630720973e-07
7.37563915939e-08
1.10342686325e-07
8.90455135026e-08
1.06335215784e-07
1.05030783507e-07
8.66827586846e-08
1.19668093283e-07
6.80048900014e-08
1.14947840166e-07
2.75331786967e-08
1.25263218213e-07
9.87940609178e-09
1.42190971186e-07
8.79730605589e-08
1.06310963226e-07
1.51635397323e-07
7.68651421085e-08
3.7396879847e-07
3.54186355584e-09
1.74821920067e-06
1.37055873512e-09
7.43925531607e-10
2.24461969651e-09
3.1837988231e-10
9.38602134466e-09
5.61766867584e-11
1.02912379981e-09
1.10166030546e-09
5.92036312706e-10
1.9002187651e-11
3.72677956685e-10
2.03707454872e-09
3.00063672264e-09
3.19868008634e-09
5.0943601121e-10
1.21823126081e-08
8.83587198442e-10
7.9476450904e-10
4.59274164098e-10
1.04070972903e-10
8.76234830476e-10
1.274582019e-10
1.53179950074e-10
5.05892765618e-10
6.31216156058e-10
9.63316948214e-10
9.64312493803e-10
4.32160622952e-10
5.63898770338e-10
1.11959475138e-10
1.23453147e-09
2.62525876022e-09
7.78676101155e-10
4.09791555727e-09
5.73941872647e-10
1.77052732627e-09
8.44051617295e-10
1.20387924459e-10
4.89768533218e-11
2.12046867707e-10
1.25501342574e-10
1.85096398717e-10
2.11502325935e-10
1.41329481259e-10
1.07634575424e-10
2.42235086339e-12
1.50142360631e-10
4.28382727879e-10
7.78987853449e-11
4.06338256575e-10
3.48948364455e-10
5.66431928416e-11
5.51674518442e-10
5.76009247768e-10
2.47197414505e-09
1.159823104e-09
1.64339094073e-09
1.3726755192e-09
1.61632780694e-09
4.14784608296e-10
5.58804317304e-11
3.26200660762e-11
1.85014294368e-10
1.81619903567e-10
4.58299503067e-10
1.44782333123e-11
6.74776444657e-10
3.23772816054e-10
6.73095935967e-10
3.1686464052e-10
8.41562223605e-10
4.48774981843e-11
1.45750519224e-10
1.16954537902e-10
1.63790289349e-10
1.5080978334e-10
3.12223862115e-10
2.98685079534e-10
2.71433148351e-09
9.47753102516e-10
9.93122867048e-09
6.17258582751e-09
2.01654252153e-10
1.83187270055e-09
2.37189159229e-10
8.31554070013e-10
9.35493458973e-11
3.05705982579e-10
1.34762949779e-10
1.68328909805e-10
1.08719933046e-10
1.18712301558e-10
4.68492380666e-10
9.94581913636e-11
3.10372718529e-10
4.11301662744e-11
5.62562250204e-10
1.21917265527e-10
6.71685786608e-10
1.70055557341e-10
7.70691243051e-10
1.05512998207e-10
1.50557685053e-09
1.45478854433e-10
5.50140614918e-09
4.36050184938e-10
1.42292634298e-08
1.21341943705e-08
8.19001089621e-10
3.2216750437e-09
5.7087251002e-09
9.52925973751e-10
2.03257971736e-09
3.21296297283e-10
9.53515056443e-10
2.48706665264e-10
6.41133671502e-10
1.45810081957e-10
5.5625128085e-10
2.36000192851e-10
5.5426440079e-10
4.7024406364e-10
3.70829499687e-10
2.96454972498e-10
8.13123927769e-11
1.85708404929e-10
5.62001036224e-10
1.8072566412e-11
2.08494070975e-09
7.95761381083e-11
2.92386116949e-09
9.91908483556e-09
1.31986344612e-09
2.17134643771e-09
6.72251883687e-10
2.9788217971e-09
1.50322478886e-10
9.01659682761e-10
5.75937943163e-10
1.90114818754e-10
6.18097320138e-10
7.65492243781e-11
5.98858551157e-10
2.71817898298e-10
7.22130820749e-10
8.04579134052e-10
1.97661636221e-10
6.60518310452e-11
3.19249216784e-10
2.8413867654e-09
1.89561053067e-09
2.15469187043e-09
6.88503763466e-10
1.23858872785e-10
3.19408916123e-09
5.49807210139e-12
4.55901289413e-10
1.33526330873e-10
1.25172132227e-09
8.73424816818e-12
9.41150640636e-10
4.96557416913e-10
1.23845562281e-09
3.50553949828e-09
6.90290103558e-10
1.7416726213e-09
2.98839147772e-09
1.11272149587e-09
2.18405789145e-10
2.77936202182e-09
6.41046119941e-10
6.49096117479e-09
2.98303954027e-09
2.283033823e-09
2.44687543542e-10
2.50108805365e-09
1.33575668837e-09
1.34815574218e-09
2.09593987186e-09
3.76235657712e-08
1.33776076076e-07
4.32548811212e-08
1.46352178044e-07
4.84062133882e-09
6.10615915872e-08
7.38094487489e-08
1.99641613885e-08
2.83813916467e-08
1.66677497444e-08
1.28021377119e-08
2.69100790632e-08
3.1479345829e-08
2.08670197763e-08
1.05014022606e-08
2.38632369945e-08
2.42610725089e-08
3.10363597792e-09
5.6427309054e-08
2.77256921037e-09
1.37945942167e-08
5.1195865682e-09
2.0803205386e-08
8.51078280545e-09
5.77305766881e-09
7.54416604933e-09
1.84335774073e-08
4.46286031249e-09
8.02764566965e-09
1.74891352135e-08
2.80360443789e-08
1.1016672258e-07
2.7843988094e-08
1.40885123343e-07
2.52714431162e-08
1.413571984e-07
2.99855850337e-08
1.36619195886e-07
3.81283836886e-08
2.01515715088e-06
9.24229598165e-09
7.77716964719e-07
1.14975910784e-08
1.94043394577e-06
2.58169465761e-07
8.2597282327e-07
1.12978890337e-06
1.15508933809e-06
1.15497795054e-06
2.18793585396e-07
6.67521255943e-08
4.16256500731e-08
1.37805412262e-07
5.38088650163e-08
2.81590715054e-07
3.88098071546e-07
2.77398078364e-07
2.4103643636e-07
1.4340327962e-07
1.47344783545e-07
6.57284324274e-08
1.28156367832e-08
6.20941837776e-09
2.22677583891e-09
5.95143158785e-08
4.39450118187e-08
1.21949619457e-08
6.24681519901e-08
3.70358783021e-08
6.67878295148e-08
5.26361705312e-08
5.69110062961e-08
5.26162064519e-08
3.3625384913e-08
2.51818653059e-08
7.59555564915e-09
1.34890439302e-09
8.95974513186e-09
1.17783259173e-08
6.0672477159e-10
1.47581365417e-08
2.06775569469e-09
1.35767614567e-08
5.83401286575e-09
1.0717552835e-08
2.40439049563e-09
1.71322328413e-09
3.2502900823e-09
1.75381358485e-08
5.36157059383e-09
7.13086889469e-09
2.39382467253e-09
4.1030391711e-09
1.84868822479e-09
2.40027554544e-09
6.68920739548e-09
5.24494897151e-09
1.67692949126e-08
2.21355904693e-08
1.14637375056e-08
1.10500107804e-08
1.40079490802e-08
2.04125367819e-08
8.4772832261e-09
3.52805070356e-08
6.33451567669e-09
4.37690111051e-08
1.29288039579e-09
2.62829449275e-08
3.3526180499e-08
2.1934172856e-08
4.56760562595e-08
3.29696734252e-08
1.1173917328e-07
1.04195164173e-07
2.83691132642e-07
6.91158259763e-08
1.61987923916e-07
2.42346924725e-09
2.61634589965e-07
1.88998154642e-06
3.14432175631e-07
1.04789929825e-07
1.09246734556e-07
3.84882729437e-08
4.3086434196e-08
2.94866584019e-08
3.44833165429e-08
2.34754344036e-08
2.55274444062e-08
4.22101401963e-08
1.78490710505e-08
3.55666584718e-08
7.79650356088e-09
3.85700102229e-08
2.84226209707e-08
3.90071282584e-08
3.8100552836e-07
3.22878811913e-07
3.02537605302e-07
6.84550359015e-08
1.58908909869e-07
5.80601968112e-08
3.0226159527e-07
1.26681926206e-07
5.81227190368e-08
1.56565770624e-07
5.33494210728e-07
8.53159116601e-08
1.3963303436e-07
2.70520719636e-08
1.68202409265e-07
1.00504225247e-07

