# vtk DataFile Version 3.0
File Name: Molecule/sphere_cent/sphere_cent_0-s20.vtk
ASCII
DATASET UNSTRUCTURED_GRID
FIELD FieldData 1
TIME 1 1 double
0.0
POINTS 320 double
0.54341012239 0.45788824558 -0.70295327902
0.28206554055 0.50267034769 -0.8170863986
0.42664402723 0.67249935865 -0.60291796923
-0.31383082271 -0.51556694508 0.79709285498
-0.045633383095 -0.52585434914 0.84911841154
-0.14693452418 -0.33050480485 0.93223375082
0.10465085506 -0.27076622844 0.95460951328
0.12349957228 -0.41603446007 0.89905184507
-0.93288677931 0.15241642296 0.32585734129
-0.95579212904 -0.13681088388 0.25975880027
-0.86813640594 -0.046174291521 0.49411153793
-0.84208369255 -0.27173623443 0.46569558978
0.02401426807 0.99968254566 -0.00073246308602
-0.22135858238 0.96799182892 -0.11672566831
-0.27291044593 0.95417380333 0.117586568
-0.45854440331 0.88811665773 -0.024978088215
-0.63607674837 0.58782464266 0.49939930439
-0.53266125917 0.48099687696 0.69633233547
-0.41427505016 0.65405547619 0.63272130489
-0.29873600602 0.53191393614 0.79180133343
-0.52184975147 -0.80565655231 -0.27976876497
-0.32735919952 -0.93230670691 -0.15087515116
-0.53273892403 -0.84520536661 -0.010591389611
-0.26074275374 -0.95394510031 0.13957096636
-0.006080659572 -0.99964052439 0.018414624035
-0.012193562463 -0.96969711781 0.24252609909
-0.49597021937 -0.8044885993 0.32464534044
-0.42827776074 -0.69430780411 0.57837694883
-0.62889093161 -0.63107931614 0.45407447219
-0.5601990819 -0.5012242198 0.65949356556
-0.27995789051 -0.84953814745 0.44590929151
-0.18889823556 -0.71009427309 0.67819333076
0.20071125031 -0.96868944168 0.14432629943
-0.94511026144 -0.088840164244 -0.31415235996
-0.93589746952 0.14887097478 -0.3192204833
-0.86399227381 0.03440457955 -0.50164318085
-0.82797110081 0.30372622609 -0.47027915716
-0.29045918584 0.49746114016 -0.81733781099
-0.52793633938 0.45342117548 -0.71808350086
-0.42015317082 0.64414781332 -0.63889318705
-0.66776871681 0.55136454105 -0.49989578128
-0.37545603514 -0.51406210661 -0.77103286982
-0.44476151466 -0.65033447742 -0.61562335491
-0.60574007034 -0.44461300969 -0.65973478556
-0.62950563431 -0.62433171272 -0.46218812466
0.52435332537 -0.0011191134108 0.8514881134
0.46862766147 -0.26045459509 0.84357458353
0.68600803614 -0.1576179266 0.71029639244
0.58817100525 -0.4364451468 0.68085074425
0.35060420632 -0.50007516146 0.79137545824
0.78076905012 -0.33088460565 0.53001189232
0.46155324578 -0.66422080994 0.58786273003
0.68336653709 -0.57495111227 0.44993489981
0.52698940039 -0.77817696333 0.34145614505
0.856959939 -0.43588888645 0.27464747429
0.71883296967 -0.66613912582 0.19884628057
0.83968067169 -0.54213261604 -0.023317771032
0.86016708612 -0.028018072248 0.5091317296
0.71077680588 0.12387826294 0.69201266766
0.8309366703 0.25026807189 0.49594527483
0.015682963654 0.037219267339 -0.99858319759
-0.23790343106 0.031172685325 -0.96986633539
-0.14103043079 0.28499871492 -0.9480792284
-0.39590847492 0.28553238511 -0.8722859621
0.53199839592 -0.84255260229 0.078933514655
-0.039570290595 0.85780543089 0.51222789288
-0.13349725306 0.68440252542 0.71672266722
0.13382400572 0.72451907396 0.67433726788
-0.0206034109 0.49603131413 0.86678820848
-0.11497186124 0.28646573424 0.95073217154
0.14398898184 0.27791953087 0.94977098703
-0.015212974511 0.069308251143 0.99664664268
0.28937369585 0.48950585723 0.82198417187
0.40299007297 0.23972594738 0.882807374
0.30061924458 0.035328641534 0.95238518715
-0.0043028602377 0.51054853201 -0.85984659195
0.1188512519 0.69242578745 -0.71074414253
-0.13764773309 0.68417912722 -0.71621775627
0.23849713802 0.87127548456 0.42888042331
0.13637639582 0.27840432525 -0.95071554184
0.48043739796 0.83824932575 0.2579099834
0.27352821827 0.95179051161 0.13875579834
0.051382299513 0.96218901873 0.2665976882
0.33817568421 -0.5270370841 -0.77894109488
0.44986656308 -0.66760182381 -0.59323215485
0.21978752315 -0.69678664207 -0.68131995201
0.50885111094 -0.77512079477 -0.37448823452
0.29510828853 -0.83965617418 -0.45327237248
0.53027242422 -0.0012373733334 -0.84779053926
0.28204110265 0.035916361958 -0.95861560106
0.38951873779 0.2576417625 -0.88425540924
0.099541716278 -0.51939958334 -0.84818863869
0.38551014662 0.69746005535 0.60359412432
0.31790697575 -0.92345738411 -0.21207226813
0.8496337533 0.52715569735 -0.0068998066708
0.66977345943 0.73323839903 -0.10427530855
0.70471489429 0.69395452738 0.14709882438
0.49824690819 0.86704224348 0.0036794464104
0.48714751005 0.83469343185 -0.25486963987
0.22246417403 0.88583016396 -0.40581709146
0.03999100253 0.96522307396 -0.25831019878
0.27480068803 0.95119184256 -0.14043606818
0.95472365618 0.28964555264 0.032135918736
0.87868410349 0.43325921893 0.19708402455
0.78951489925 -0.33584931493 -0.51367431879
0.68093293905 -0.17809048295 -0.70854824781
0.81704497337 -0.065170988441 -0.57280647755
0.70584839582 0.059747923166 -0.70582407713
0.90497606993 0.38429221511 -0.18268761039
0.93796783686 0.17084427178 0.29849079251
0.57911384106 -0.46001714468 -0.67231434584
0.66663879156 -0.58373749256 -0.46347245574
0.82880377769 -0.47470712662 -0.2962102294
0.7097542882 -0.66353148222 -0.23657490313
0.93118047714 -0.2595538497 -0.25462326407
0.90733110905 -0.1244019419 -0.4014005661
0.91740041971 0.070558570325 -0.39155060053
0.97580391169 -0.048456527293 -0.21262769401
0.96844136715 0.17296141386 -0.17905759811
0.82091063261 0.16119228303 -0.54783177376
0.88792306185 0.27071973681 -0.37184733152
0.76793640852 0.36891588569 -0.52223056555
0.97548133135 -0.21532662213 -0.043393563479
0.99828702211 -0.020435258746 0.041401069611
-0.71812278032 -0.17158101499 0.67439627647
0.55327141285 -0.81807476282 -0.15684120357
0.69501549006 -0.71836143732 -0.028621930629
-0.76287060976 -0.46565270424 0.44844594598
-0.70348745584 -0.34957042336 0.61878335476
-0.57431429625 -0.26505431533 0.77424418926
-0.7351500392 0.016943167895 0.67780578136
-0.53213793039 -0.00817566365 0.8465231061
-0.73359596729 0.15481206775 -0.66175574064
-0.69147258997 0.35519018769 -0.62906986475
-0.58945953846 0.23611339927 -0.77258592844
-0.57146340609 -0.045789282769 -0.81909173727
-0.1814532429 -0.54107427597 -0.82061982155
-0.24080508947 -0.66712969542 -0.70471483469
-0.045796982944 -0.69317859411 -0.71680802107
0.81744605303 0.4492149055 -0.36059874296
0.58284002542 0.21430306137 -0.78378456831
0.70293807983 0.26382780075 -0.66052550077
-0.83730810881 0.31061056256 0.44989106059
-0.8192666769 0.15447817743 0.55221670866
-0.70233005285 0.36240145564 0.61267226934
-0.67427504063 0.17725118995 0.71678262949
-0.51571452618 0.26343762875 0.81511729956
0.79958379269 0.55491811037 -0.2287337333
0.67798918486 0.60057783127 -0.42295295
-0.13640266657 -0.23778782785 -0.96065729856
-0.29301872849 -0.36465013027 -0.88380426168
-0.35382241011 -0.16937312484 -0.91985994577
-0.48536783457 -0.2994440496 -0.82113188505
-0.32647442818 -0.15282528102 0.93277138472
-0.27083659172 0.01435197331 0.96238863468
-0.11534287781 -0.1287394166 0.98494690657
-0.86490428448 -0.50149095058 0.014761125669
-0.88381463289 -0.39766424894 0.24607680738
-0.96131515503 -0.2711109519 0.046971000731
-0.99854022264 -0.04356527701 0.02353021875
-0.77279722691 -0.57833993435 0.25986760855
-0.88022255898 -0.2814194262 -0.38201665878
-0.83368676901 -0.14579004049 -0.5324677825
-0.98757368326 0.091924801469 -0.12756076455
-0.98474091291 -0.12335719913 -0.12293826789
-0.93758267164 -0.30859792233 -0.16021007299
-0.85316038132 -0.45199415088 -0.25964343548
-0.76735240221 -0.46017158031 -0.44625261426
-0.68049108982 -0.2057261318 -0.70307159424
-0.77613711357 -0.30094894767 -0.55370408297
-0.73476660252 -0.61868172884 -0.27645003796
-0.86612278223 0.41650572419 0.27651008964
-0.55554455519 0.81202119589 -0.17897775769
-0.36765643954 0.89900332689 -0.23772227764
-0.53736883402 0.82883381844 0.15571881831
-0.43927291036 0.83939665556 0.31912472844
-0.6055431962 0.72214049101 0.33440583944
-0.66885769367 0.74347829819 -0.0054393005557
-0.69600772858 0.69886893034 0.16448423266
-0.85129445791 0.5246181488 0.0058168247342
-0.70726156235 0.68520712852 -0.1730543673
-0.62307137251 0.70237267017 -0.34419038892
-0.44737643003 0.76088613272 0.46992352605
-0.77423965931 0.46196490526 0.43256437778
-0.77159768343 0.57711708546 0.26765233278
-0.45984047651 0.75087499619 -0.47350257635
-0.47175425291 0.81704872847 -0.3314576447
-0.79186737537 0.54963207245 -0.26387622952
-0.98569655418 0.11050643772 0.12738700211
-0.93831932545 0.31496673822 0.14334103465
-0.96421658993 0.26430779696 -0.014205900952
-0.30759513378 -0.86681771278 -0.39175894856
-0.92465895414 0.336763978 -0.17499566078
-0.45283061266 -0.76248878241 -0.4621167779
-0.2624809444 -0.78581470251 -0.55830949545
0.90104013681 -0.22528119385 0.37064534426
0.95708084106 -0.057565566152 0.28392717242
0.95871311426 -0.22457931936 0.17420957983
0.91781830788 -0.37841248512 -0.11972218752
0.92831343412 -0.3667140007 0.060941979289
-0.2989102602 0.85929697752 -0.41492426395
-0.16991400719 0.93181711435 -0.32067036629
-0.079436577857 0.86332774162 -0.49720528722
-0.26703804731 0.87211763859 0.40968364477
-0.25739791989 0.78504878283 0.56341391802
0.36830678582 -0.89115816355 0.2649910152
0.1881057471 -0.91646969318 0.35296046734
0.320776999 -0.82204532623 0.47031989694
0.11513600498 -0.82223147154 0.55716049671
-0.26570132375 0.78002858162 -0.56650739908
0.2391307354 -0.69091147184 0.68206626177
0.15317456424 -0.54354345798 0.82496589422
0.039897724986 -0.69581305981 0.71696019173
-0.021823484451 -0.88292044401 -0.46723860502
0.13974228501 -0.93563860655 -0.32371672988
-0.011191142723 -0.97081279755 -0.23932094872
0.13673296571 -0.98396968842 -0.11393593997
-0.66221016645 -0.73672574759 -0.13617247343
-0.15146283805 -0.9829660058 -0.10369502008
-0.16191834211 -0.93835091591 -0.30514681339
-0.08130428195 -0.84445559978 0.52907723188
-0.74295085669 -0.038472540677 -0.66828340292
-0.7905806303 -0.59970605373 -0.12422523648
-0.71438843012 -0.69974410534 -0.00075208663475
-0.14310443401 -0.84270489216 -0.51799672842
[...]
CELL_DATA 636
SCALARS cell_data_0 double
LOOKUP_TABLE default
1.88454677366e-07
1.70936030786e-08
1.08057136568e-07
5.00774068332e-08
1.19308813724e-07
1.04961769807e-07
9.34902440652e-08
4.77098779722e-08
7.83564776094e-08
8.4290599485e-08
5.695255932e-08
5.95364280366e-08
7.68502597873e-08
1.52948420985e-07
5.26893166961e-08
7.27663684816e-09
4.96798663122e-08
8.41296681493e-08
1.1612920061e-07
1.30797218048e-07
1.39510749088e-08
7.43379245033e-08
6.18397397241e-08
1.19476349806e-08
4.01358147615e-08
3.01413609206e-08
6.55677361464e-08
4.03356479201e-08
8.9425290096e-09
5.25960707365e-08
2.35521580505e-08
7.06427219208e-08
9.83911794238e-09
6.93522225593e-08
1.06156704822e-08
6.62777901162e-09
2.33981335453e-07
1.26031967491e-07
7.62045418117e-08
7.59651330877e-08
4.98349220175e-08
8.4473625496e-08
1.80582842706e-08
5.50326334666e-08
6.12267226131e-09
9.6942344731e-08
8.06681896917e-08
6.11546356455e-08
4.92871953966e-08
7.80426693057e-08
6.19115631083e-09
1.41400612536e-08
1.65214899132e-07
1.40637421451e-07
7.73313712533e-08
7.54302659854e-08
2.88791120415e-08
1.01401493866e-07
7.87295510738e-08
5.79576063281e-08
1.7854653673e-07
1.76851832084e-08
6.61790039016e-08
2.90979394637e-08
6.31264544408e-09
5.35753539139e-08
2.70287026348e-07
1.40110175231e-07
2.03946275087e-07
1.34323051558e-07
5.60601119529e-08
1.59238828389e-07
2.06033352277e-07
1.03914681308e-07
2.23272507735e-07
9.09758391927e-08
1.41798982573e-07
1.56328556252e-07
1.10556254341e-07
2.89141371019e-07
1.31389648067e-07
7.05381031232e-08
3.58550468354e-08
2.62363547038e-08
5.84373690445e-08
4.81778090985e-08
1.75586499004e-07
5.22522938031e-08
1.79272277308e-07
2.03141636486e-07
2.05547304355e-07
4.67384776918e-08
1.75176041007e-07
9.59819193544e-08
2.78072666878e-09
6.60174053679e-09
6.00092231985e-08
1.49419958757e-07
3.77385340751e-10
1.25089005215e-07
1.70997393538e-08
9.02461557341e-08
4.44410489357e-08
5.19382780023e-08
7.49158600525e-08
7.51045773981e-08
1.63323101775e-08
2.4139039799e-08
8.35816164679e-09
1.01401415967e-08
1.73687705029e-08
4.70938046107e-08
8.82738914298e-08
1.30874350068e-07
1.15555075355e-08
2.25895539745e-08
1.12411680835e-08
2.57183508255e-08
9.92566176886e-08
6.80106975587e-08
6.91691343601e-08
6.96684254049e-08
3.42751608948e-08
8.77883495575e-08
5.78802518605e-08
3.71345002274e-08
2.04744186722e-08
8.26159616054e-08
6.36253907392e-08
1.73501457337e-07
2.8394161447e-08
1.09847575509e-08
3.27182118915e-08
7.41021333796e-08
9.98515455013e-09
8.012946479e-08
1.05438481599e-08
8.14313933691e-08
1.10299555143e-09
6.15303974404e-08
7.37243164527e-09
4.14438186194e-08
7.07065352899e-08
6.63544768202e-08
7.78043487625e-08
6.08095298402e-09
4.79402018898e-08
7.93653319435e-08
9.16132104833e-08
6.05412486769e-09
3.79215270483e-08
2.83430088394e-08
3.12836628321e-08
5.26206870457e-08
1.35451917977e-07
8.45098781322e-08
8.80031672788e-08
1.14631035275e-07
5.06561118984e-08
6.56197903561e-09
3.00504421969e-08
4.11253096916e-08
8.10446750812e-08
2.9133673251e-08
5.00082358607e-08
1.18277000045e-07
9.58460334838e-08
3.53499625738e-08
3.53430824145e-08
2.52945917549e-08
9.81268572853e-08
9.80354861805e-08
5.90797128921e-08
6.08669361955e-08
7.42163602251e-08
1.51926242506e-08
6.51786578556e-08
5.90871675339e-08
3.84013961023e-08
7.69269621788e-08
7.36391623617e-08
1.44091591125e-08
1.03070131006e-08
1.39295946596e-08
1.1422858324e-08
3.4687626433e-08
4.69968057437e-08
3.13295312488e-08
3.15828427111e-08
6.78084764502e-08
1.29724585268e-07
2.50521982648e-08
3.47895835565e-08
1.35242793405e-08
8.38307436862e-08
5.39754771111e-08
2.16943793521e-08
1.19842111127e-08
6.94315886597e-08
5.71501797551e-09
6.67240199818e-08
8.62766133304e-08
8.73095572615e-08
6.97544795628e-08
8.27655232318e-08
6.66026610611e-08
2.20993563148e-09
9.72777820687e-08
1.25575288232e-10
1.26786719008e-07
4.63587295795e-08
9.9091139018e-08
5.42340670425e-09
2.87947384163e-08
2.0027054385e-08
4.43511964534e-08
3.12287370701e-08
6.99530486121e-08
1.38041869393e-08
5.54359582649e-08
4.40228660509e-08
1.3447358118e-08
6.96671738674e-08
6.98512254115e-08
1.24881182311e-07
4.18297388855e-08
6.45301230946e-08
1.31747917877e-07
8.79545595749e-08
1.59857161219e-09
1.0463996917e-07
1.21872788907e-07
2.04294936805e-08
7.39349309721e-08
5.72067525024e-08
3.89064778718e-09
4.23930225243e-08
7.52481031922e-08
5.87822369988e-08
2.35718027544e-08
3.37859280583e-08
2.08715307984e-08
2.8995048438e-08
1.48868480327e-08
3.87085314183e-08
5.08251451433e-08
8.84782975073e-09
2.98985052588e-08
8.01079358215e-09
1.30022093813e-08
6.85022018461e-09
5.68200922878e-08
5.13811143532e-08
4.13728146528e-08
1.89032284275e-08
2.91280534712e-08
1.3157309909e-07
2.25042016991e-08
7.93238579064e-08
2.27404817201e-08
5.14509122446e-08
3.45155950433e-08
2.01236414389e-08
9.13534390606e-09
6.99743279291e-09
1.1389913765e-08
9.57638951958e-08
4.15026723599e-08
9.87788231403e-08
3.47309762949e-08
2.74575372047e-08
5.54163260499e-09
4.75748183826e-08
4.14751029297e-08
1.35114555856e-08
6.73216192524e-08
2.05693822681e-08
1.39356972003e-09
2.54514659817e-08
5.34736299335e-08
4.91344963696e-08
3.89158376866e-09
6.42400699031e-08
4.42103473739e-08
4.65924869685e-09
7.21136906093e-08
3.52415288981e-08
4.77027071497e-08
3.22731150743e-10
1.69704988004e-08
1.12382721422e-08
2.48258512006e-08
1.55934702555e-10
9.59130626209e-08
9.42515509177e-08
1.16348138811e-07
4.22085758171e-08
5.08843009896e-08
7.51217689798e-08
6.53633721432e-08
2.92774613117e-08
1.65454929359e-08
1.08619860251e-07
1.82348396555e-10
3.31478180881e-08
1.88109678455e-08
4.10800389872e-08
8.74457398207e-08
1.8379086515e-10
2.30899541483e-08
1.92124144883e-09
4.35279000217e-09
4.50101438269e-09
5.0376512554e-09
1.39729421718e-08
5.85909679217e-08
3.71829089489e-08
3.32590133751e-08
3.26608574848e-08
6.5615172019e-08
2.92152802326e-09
1.03749948781e-08
1.86078386396e-08
6.76965086046e-10
4.56714639326e-08
4.91316008166e-08
4.62565305964e-08
4.5461035194e-09
9.97569939688e-08
1.18933460609e-08
3.70437246234e-08
1.10126921922e-08
5.92030621445e-08
7.02087789967e-08
4.01541755203e-08
4.86582871996e-08
1.89516372127e-08
5.45684554308e-08
6.80171737479e-10
3.19062417249e-08
2.6310755046e-08
9.26753996827e-09
3.33944258299e-08
8.13112816055e-09
4.38225165961e-08
1.52559841491e-08
5.34043064149e-08
7.57480416811e-08
3.92458665109e-08
1.40147521227e-08
2.98739708711e-08
6.21062333341e-08
3.78962812056e-08
1.30525458653e-08
2.35706816452e-08
4.97662370023e-09
2.98387437117e-08
1.14934979984e-08
4.29013344931e-08
3.74690009603e-08
3.82438413632e-08
4.15126946579e-09
3.84994397756e-08
2.08229349235e-08
3.5800277413e-08
1.58457669045e-07
2.66236806375e-08
4.16424674033e-09
6.09811375628e-08
1.0064803416e-07
1.13954700227e-08
4.20354501976e-08
5.81404607414e-08
4.2165166207e-08
2.92095943343e-08
2.02982509227e-08
5.45600255946e-09
1.57347665503e-08
1.67793141131e-08
1.89802633279e-09
5.57007055401e-08
1.35644363715e-07
5.53871577014e-10
7.25806707548e-08
4.96634609189e-08
5.46809248424e-09
1.41692504321e-09
2.8292533077e-08
7.21530699436e-08
6.525632715e-08
2.00180994467e-07
1.20483071069e-08
2.22183285219e-08
1.46122016622e-08
3.54319939869e-08
6.88074217812e-08
5.30440744361e-08
6.26419012233e-08
1.10305319287e-08
3.0662063423e-08
1.67225327147e-08
1.79409274927e-08
3.23727546949e-08
6.85337841631e-08
7.92933738128e-08
1.19000672043e-08
2.02731598393e-08
6.66468027176e-08
2.84054002266e-08
1.5362306694e-08
3.72518062633e-08
3.7645626795e-09
5.23898896713e-08
3.62614146095e-08
6.85043579785e-08
5.76360945122e-08
9.89506012648e-09
2.12054379083e-08
3.1352759633e-08
4.80742929786e-08
3.85290456631e-08
1.21711883854e-08
2.75355083473e-08
2.78751157971e-09
2.53163975747e-08
3.76910364675e-08
6.91062457655e-08
3.04384975963e-08
4.85534470016e-08
3.02087203378e-08
5.74610832174e-08
9.97411878738e-09
4.87953547028e-08
4.52711053221e-08
3.84191821039e-08
4.3057491429e-09
5.43285344052e-08
3.68213790774e-08
8.49957317554e-09
2.85948196418e-08
7.09689933221e-08
4.2967086421e-08
3.73763999704e-08
1.32256526552e-08
3.00657482479e-08
4.14439639091e-08
5.00736974306e-08
2.61332286759e-08
2.32702157745e-08
5.63561699157e-09
4.0948102071e-08
5.39971934621e-08
5.41472034937e-08
7.92569150101e-08
3.89891072848e-08
1.91357017956e-09
5.35196769416e-09
8.85616016911e-09
2.94967884171e-08
4.32733372125e-09
4.74636306007e-09
2.00529045729e-08
1.30853736949e-08
1.89485681342e-08
9.40955887454e-08
1.5240588603e-08
1.33227218005e-09
2.69872446321e-08
3.86548350831e-09
3.19388155206e-08
1.41144811865e-08
9.8108651004e-08
5.72272587938e-09
7.74435156854e-08
9.74254630529e-08
2.54759678666e-08
2.31039838304e-08
8.54913491929e-08
5.23435947948e-08
5.11183248665e-08
3.15616784797e-08
3.86013667372e-09
8.12799033469e-09
4.97079230614e-08
7.61784617427e-08
1.06896188082e-08
1.60326744467e-08
1.38153315137e-08
5.70086289957e-09
4.46571636667e-09
1.15802350053e-08
1.16324167955e-08
3.05791170607e-08
2.06475861699e-08
7.06192652202e-08
1.8045695884e-08
5.58327200579e-08
2.41305439287e-08
2.36634620348e-09
2.2235997827e-08
1.48649021828e-08
1.41627128699e-08
3.75838498893e-09
3.1921582609e-08
4.38192612772e-08
2.78210605218e-08
3.0001877605e-08
1.0928532689e-08
7.29562362214e-08
8.83483053734e-09
2.38554403462e-08
5.93779140182e-08
4.08374827037e-08
1.5426332644e-08
3.06403207499e-08
8.76229305462e-09
6.10335958837e-08
6.42585221836e-08
4.00999653098e-08
7.05705697485e-09
5.62248432936e-08
3.11983127447e-08
6.26896939307e-08
4.30363907285e-10
1.26618850291e-08
3.52058276781e-08
2.84011404109e-08
4.18959308095e-09
2.81343300948e-08
1.38752839521e-07
1.04863028095e-08
1.55695944244e-08
2.97335704734e-08
3.67385915046e-08
3.59668961419e-08
2.20202837241e-08
1.33988676961e-08
2.3847627188e-08
3.34095479328e-08
3.07770993072e-08
3.9096551774e-08
5.27855398236e-08
8.24126948708e-10
5.05519539143e-08
9.6569292899e-10
7.56003873602e-08
4.43172066528e-08
1.28464941888e-08
7.80119088504e-09
1.87293841091e-08
2.58174123374e-08
1.71566221435e-08
5.89049579682e-08
7.39125119181e-09
2.23446415311e-08
2.779406619e-08
7.53778402845e-08
3.26512837732e-08
4.72940241062e-08
5.4856945903e-08
4.47180261403e-08
3.69178516622e-09
5.39661150327e-08
2.25128237408e-08
2.67381393146e-08
1.65438489584e-08
7.18503559037e-09
5.53677835832e-08
1.28554034256e-09
1.72149236004e-08
7.91561130558e-08
5.77504497987e-08
4.35597154048e-10
1.96591298517e-08
5.7244313407e-09
3.14175530732e-09
5.02383669186e-08
8.18339988792e-08
1.99199167849e-08
4.6073149646e-08
4.1342649623e-08
2.21647555934e-09
3.6395681891e-08
1.43121512887e-08
2.86652873007e-08
7.71437152857e-08
1.02773480591e-07
9.13786519585e-08
1.02646428001e-08
9.34151734554e-08
1.22412108947e-08
2.31085146086e-08
2.63315787544e-08
1.81505518971e-08
1.10930474148e-09
3.30463599553e-09
2.49799645359e-08
1.99750751207e-08
5.84480711587e-08
1.3886116963e-09
2.19005285479e-08
7.95093679337e-08
1.8371321016e-08
2.78086451945e-08
1.87107281258e-09
1.11991905213e-09
4.06768899896e-08
2.23636435437e-08
2.61360128273e-08
2.14342804478e-08
3.3655652987e-08
8.66520940958e-09
3.38819215203e-09
2.77978056152e-08
2.95267232715e-08
3.68420538103e-08
5.10520497353e-08
3.1379246917e-08
5.77373564769e-08
3.6296240798e-08
1.44303662438e-08
1.59021072529e-08
2.58894888921e-08
3.13996956199e-08
4.81932869266e-08
1.61119521745e-08
8.25019500296e-09
4.0604134212e-09
2.82482540123e-08
2.84411150668e-08
5.78722383119e-09
1.86519811286e-08
3.72987535115e-08
2.76210081649e-08
9.80028006911e-09
1.80664475153e-08

