# vtk DataFile Version 3.0
File Name: Molecule/sphere_cent/sphere_cent_0-s2.vtk
ASCII
DATASET UNSTRUCTURED_GRID
FIELD FieldData 1
TIME 1 1 double
0.0
POINTS 162 double
1.70130162 -1.05146222 0.0
1.72533696 -0.86777713 -0.51978383
1.92387672 -0.54653306 0.0
1.90211303 -0.3249197 -0.52573111
1.61803399 -0.61803399 -1.0
2.0 0.0 0.0
1.70130162 0.0 -1.05146222
1.90211303 0.3249197 -0.52573111
1.61803399 0.61803399 -1.0
1.38756095 -0.32124407 -1.40409289
1.38756095 0.32124407 -1.40409289
1.05146222 0.0 -1.70130162
1.92387672 0.54653306 0.0
1.72533696 0.86777713 -0.51978383
1.70130162 1.05146222 0.0
1.40409289 1.38756095 -0.32124407
1.37638192 1.17557051 -0.85065081
1.0 1.61803399 -0.61803399
1.17557051 0.85065081 -1.37638192
0.85065081 1.37638192 -1.17557051
0.61803399 1.0 -1.61803399
0.86777713 0.51978383 -1.72533696
0.51978383 1.72533696 -0.86777713
0.32124407 1.40409289 -1.38756095
0.0 1.70130162 -1.05146222
1.40409289 1.38756095 0.32124407
1.05146222 1.70130162 0.0
1.0 1.61803399 0.61803399
0.52573111 1.90211303 -0.3249197
0.52573111 1.90211303 0.3249197
0.0 2.0 0.0
0.0 1.92387672 -0.54653306
0.51978383 1.72533696 0.86777713
0.0 1.92387672 0.54653306
0.0 1.70130162 1.05146222
-0.51978383 1.72533696 0.86777713
-0.52573111 1.90211303 0.3249197
-1.0 1.61803399 0.61803399
-0.52573111 1.90211303 -0.3249197
-1.05146222 1.70130162 0.0
-1.0 1.61803399 -0.61803399
-0.51978383 1.72533696 -0.86777713
-1.40409289 1.38756095 0.32124407
-1.40409289 1.38756095 -0.32124407
-1.70130162 1.05146222 0.0
-0.32124407 1.40409289 1.38756095
-0.85065081 1.37638192 1.17557051
-0.61803399 1.0 1.61803399
-1.37638192 1.17557051 0.85065081
-1.17557051 0.85065081 1.37638192
-1.61803399 0.61803399 1.0
-1.72533696 0.86777713 0.51978383
-0.86777713 0.51978383 1.72533696
-1.38756095 0.32124407 1.40409289
-1.05146222 0.0 1.70130162
0.32124407 1.40409289 1.38756095
0.0 1.05146222 1.70130162
0.61803399 1.0 1.61803399
-0.3249197 0.52573111 1.90211303
0.3249197 0.52573111 1.90211303
0.0 0.0 2.0
-0.54653306 0.0 1.92387672
0.86777713 0.51978383 1.72533696
0.54653306 0.0 1.92387672
1.05146222 0.0 1.70130162
-0.86777713 -0.51978383 1.72533696
-0.3249197 -0.52573111 1.90211303
-0.61803399 -1.0 1.61803399
0.0 -1.05146222 1.70130162
0.3249197 -0.52573111 1.90211303
0.61803399 -1.0 1.61803399
-0.32124407 -1.40409289 1.38756095
0.32124407 -1.40409289 1.38756095
0.0 -1.70130162 1.05146222
0.86777713 -0.51978383 1.72533696
1.38756095 -0.32124407 1.40409289
1.17557051 -0.85065081 1.37638192
1.61803399 -0.61803399 1.0
0.85065081 -1.37638192 1.17557051
1.37638192 -1.17557051 0.85065081
1.0 -1.61803399 0.61803399
0.51978383 -1.72533696 0.86777713
1.72533696 -0.86777713 0.51978383
1.40409289 -1.38756095 0.32124407
0.86777713 -0.51978383 -1.72533696
0.54653306 0.0 -1.92387672
0.3249197 -0.52573111 -1.90211303
0.61803399 -1.0 -1.61803399
0.0 0.0 -2.0
0.0 -1.05146222 -1.70130162
-0.3249197 -0.52573111 -1.90211303
-0.61803399 -1.0 -1.61803399
0.32124407 -1.40409289 -1.38756095
-0.32124407 -1.40409289 -1.38756095
0.0 -1.70130162 -1.05146222
-0.54653306 0.0 -1.92387672
-0.86777713 -0.51978383 -1.72533696
-1.05146222 0.0 -1.70130162
1.90211303 -0.3249197 0.52573111
1.90211303 0.3249197 0.52573111
1.70130162 0.0 1.05146222
1.61803399 0.61803399 1.0
1.72533696 0.86777713 0.51978383
1.38756095 0.32124407 1.40409289
1.37638192 1.17557051 0.85065081
0.85065081 1.37638192 1.17557051
1.17557051 0.85065081 1.37638192
-1.38756095 -0.32124407 -1.40409289
-1.38756095 0.32124407 -1.40409289
-1.70130162 0.0 -1.05146222
-1.61803399 -0.61803399 -1.0
-1.61803399 0.61803399 -1.0
-1.90211303 -0.3249197 -0.52573111
-1.90211303 0.3249197 -0.52573111
-2.0 0.0 0.0
-1.72533696 -0.86777713 -0.51978383
-1.92387672 -0.54653306 0.0
-1.70130162 -1.05146222 0.0
-1.72533696 0.86777713 -0.51978383
-1.92387672 0.54653306 0.0
-0.32124407 1.40409289 -1.38756095
-0.85065081 1.37638192 -1.17557051
-0.61803399 1.0 -1.61803399
-1.17557051 0.85065081 -1.37638192
-1.37638192 1.17557051 -0.85065081
-0.86777713 0.51978383 -1.72533696
-1.40409289 -1.38756095 -0.32124407
-1.40409289 -1.38756095 0.32124407
-1.05146222 -1.70130162 0.0
-1.0 -1.61803399 -0.61803399
-1.0 -1.61803399 0.61803399
-0.52573111 -1.90211303 -0.3249197
-0.52573111 -1.90211303 0.3249197
0.0 -2.0 0.0
-0.51978383 -1.72533696 -0.86777713
0.0 -1.92387672 -0.54653306
-0.51978383 -1.72533696 0.86777713
0.0 -1.92387672 0.54653306
-1.72533696 -0.86777713 0.51978383
-1.37638192 -1.17557051 0.85065081
-1.61803399 -0.61803399 1.0
-0.85065081 -1.37638192 1.17557051
-1.17557051 -0.85065081 1.37638192
-1.38756095 -0.32124407 1.40409289
-1.70130162 0.0 1.05146222
-1.90211303 0.3249197 0.52573111
-1.90211303 -0.3249197 0.52573111
-1.17557051 -0.85065081 -1.37638192
-0.85065081 -1.37638192 -1.17557051
-1.37638192 -1.17557051 -0.85065081
0.51978383 -1.72533696 -0.86777713
0.52573111 -1.90211303 -0.3249197
1.0 -1.61803399 -0.61803399
1.05146222 -1.70130162 0.0
0.52573111 -1.90211303 0.3249197
1.40409289 -1.38756095 -0.32124407
1.17557051 -0.85065081 -1.37638192
1.37638192 -1.17557051 -0.85065081
0.85065081 -1.37638192 -1.17557051
0.3249197 0.52573111 -1.90211303
-0.3249197 0.52573111 -1.90211303
0.0 1.05146222 -1.70130162

CELLS 320 1280
3 0 1 2
3 1 3 2
3 1 4 3
3 2 3 5
3 4 6 3
3 6 7 3
3 6 8 7
3 3 7 5
3 4 9 6
3 9 10 6
3 9 11 10
3 6 10 8
3 5 7 12
3 7 13 12
3 7 8 13
3 12 13 14
3 14 13 15
3 13 16 15
3 13 8 16
3 15 16 17
3 8 18 16
3 18 19 16
3 18 20 19
3 16 19 17
3 8 10 18
3 10 21 18
3 10 11 21
3 18 21 20
3 17 19 22
3 19 23 22
3 19 20 23
3 22 23 24
3 14 15 25
3 15 26 25
3 15 17 26
3 25 26 27
3 17 28 26
3 28 29 26
3 28 30 29
3 26 29 27
3 17 22 28
3 22 31 28
3 22 24 31
3 28 31 30
3 27 29 32
3 29 33 32
3 29 30 33
3 32 33 34
3 34 33 35
3 33 36 35
3 33 30 36
3 35 36 37
3 30 38 36
3 38 39 36
3 38 40 39
3 36 39 37
3 30 31 38
3 31 41 38
3 31 24 41
3 38 41 40
3 37 39 42
3 39 43 42
3 39 40 43
3 42 43 44
3 34 35 45
3 35 46 45
3 35 37 46
3 45 46 47
3 37 48 46
3 48 49 46
3 48 50 49
3 46 49 47
3 37 42 48
3 42 51 48
3 42 44 51
3 48 51 50
3 47 49 52
3 49 53 52
3 49 50 53
3 52 53 54
3 34 45 55
3 45 56 55
3 45 47 56
3 55 56 57
3 47 58 56
3 58 59 56
3 58 60 59
3 56 59 57
3 47 52 58
3 52 61 58
3 52 54 61
3 58 61 60
3 57 59 62
3 59 63 62
3 59 60 63
3 62 63 64
3 54 65 61
3 65 66 61
3 65 67 66
3 61 66 60
3 67 68 66
3 68 69 66
3 68 70 69
3 66 69 60
3 67 71 68
3 71 72 68
3 71 73 72
3 68 72 70
3 60 69 63
3 69 74 63
3 69 70 74
3 63 74 64
3 64 74 75
3 74 76 75
3 74 70 76
3 75 76 77
3 70 78 76
3 78 79 76
3 78 80 79
3 76 79 77
3 70 72 78
3 72 81 78
3 72 73 81
3 78 81 80
3 77 79 82
3 79 83 82
3 79 80 83
3 82 83 0
3 11 84 85
3 84 86 85
3 84 87 86
3 85 86 88
3 87 89 86
3 89 90 86
3 89 91 90
3 86 90 88
3 87 92 89
3 92 93 89
3 92 94 93
3 89 93 91
3 88 90 95
3 90 96 95
3 90 91 96
3 95 96 97
3 0 2 82
3 2 98 82
3 2 5 98
3 82 98 77
3 5 99 98
3 99 100 98
3 99 101 100
3 98 100 77
3 5 12 99
3 12 102 99
3 12 14 102
3 99 102 101
3 77 100 75
3 100 103 75
3 100 101 103
3 75 103 64
3 14 25 102
3 25 104 102
3 25 27 104
3 102 104 101
3 27 105 104
3 105 106 104
3 105 57 106
3 104 106 101
3 27 32 105
3 32 55 105
3 32 34 55
3 105 55 57
3 101 106 103
3 106 62 103
3 106 57 62
3 103 62 64
3 97 107 108
3 107 109 108
3 107 110 109
3 108 109 111
3 110 112 109
3 112 113 109
3 112 114 113
3 109 113 111
3 110 115 112
3 115 116 112
3 115 117 116
3 112 116 114
3 111 113 118
3 113 119 118
3 113 114 119
3 118 119 44
3 24 120 41
3 120 121 41
3 120 122 121
3 41 121 40
3 122 123 121
3 123 124 121
3 123 111 124
3 121 124 40
3 122 125 123
3 125 108 123
3 125 97 108
3 123 108 111
3 40 124 43
3 124 118 43
3 124 111 118
3 43 118 44
3 117 126 127
3 126 128 127
3 126 129 128
3 127 128 130
3 129 131 128
3 131 132 128
3 131 133 132
3 128 132 130
3 129 134 131
3 134 135 131
3 134 94 135
3 131 135 133
3 130 132 136
3 132 137 136
3 132 133 137
3 136 137 73
3 117 127 138
3 127 139 138
3 127 130 139
3 138 139 140
3 130 141 139
3 141 142 139
3 141 67 142
3 139 142 140
3 130 136 141
3 136 71 141
3 136 73 71
3 141 71 67
3 140 142 143
3 142 65 143
3 142 67 65
3 143 65 54
3 54 53 143
3 53 144 143
3 53 50 144
3 143 144 140
3 50 145 144
3 145 146 144
3 145 114 146
3 144 146 140
3 50 51 145
3 51 119 145
3 51 44 119
3 145 119 114
3 140 146 138
3 146 116 138
3 146 114 116
3 138 116 117
3 97 96 107
3 96 147 107
3 96 91 147
3 107 147 110
3 91 148 147
3 148 149 147
3 148 129 149
3 147 149 110
3 91 93 148
3 93 134 148
3 93 94 134
3 148 134 129
3 110 149 115
3 149 126 115
3 149 129 126
3 115 126 117
3 94 150 135
3 150 151 135
3 150 152 151
3 135 151 133
3 152 153 151
3 153 154 151
3 153 80 154
3 151 154 133
3 152 155 153
3 155 83 153
3 155 0 83
3 153 83 80
3 133 154 137
3 154 81 137
3 154 80 81
3 137 81 73
3 11 9 84
3 9 156 84
3 9 4 156
3 84 156 87
3 4 157 156
3 157 158 156
3 157 152 158
3 156 158 87
3 4 1 157
3 1 155 157
3 1 0 155
3 157 155 152
3 87 158 92
3 158 150 92
3 158 152 150
3 92 150 94
3 11 85 21
3 85 159 21
3 85 88 159
3 21 159 20
3 88 160 159
3 160 161 159
3 160 122 161
3 159 161 20
3 88 95 160
3 95 125 160
3 95 97 125
3 160 125 122
3 20 161 23
3 161 120 23
3 161 122 120
3 23 120 24

CELL_TYPES 320
5
5
5
5
5
5
5
5
5
5
5
5
5
5
5
5
5
5
5
5
5
5
5
5
5
5
5
5
5
5
5
5
5
5
5
5
5
5
5
5
5
5
5
5
5
5
5
5
5
5
5
5
5
5
5
5
5
5
5
5
5
5
5
5
5
5
5
5
5
5
5
5
5
5
5
5
5
5
5
5
5
5
5
5
5
5
5
5
5
5
5
5
5
5
5
5
5
5
5
5
5
5
5
5
5
5
5
5
5
5
5
5
5
5
5
5
5
5
5
5
5
5
5
5
5
5
5
5
5
5
5
5
5
5
5
5
5
5
5
5
5
5
5
5
5
5
5
5
5
5
5
5
5
5
5
5
5
5
5
5
5
5
5
5
5
5
5
5
5
5
5
5
5
5
5
5
5
5
5
5
5
5
5
5
5
5
5
5
5
5
5
5
5
5
5
5
5
5
5
5
5
5
5
5
5
5
5
5
5
5
5
5
5
5
5
5
5
5
5
5
5
5
5
5
5
5
5
5
5
5
5
5
5
5
5
5
5
5
5
5
5
5
5
5
5
5
5
5
5
5
5
5
5
5
5
5
5
5
5
5
5
5
5
5
5
5
5
5
5
5
5
5
5
5
5
5
5
5
5
5
5
5
5
5
5
5
5
5
5
5
5
5
5
5
5
5
5
5
5
5
5
5
5
5
5
5
5
5
5
5
5
5
5
5
5
5
5
5
5
5

CELL_DATA 320
SCALARS cell_data_0 double
LOOKUP_TABLE default
9.85304220446e-09
3.2389058825e-08
2.55654700691e-09
1.82280948837e-09
1.02844699104e-07
9.42875294429e-08
7.45105737405e-08
7.44350469239e-08
7.30517640284e-09
1.4687839152e-09
4.44990318216e-08
2.68254229876e-08
5.35570001485e-08
2.47922666282e-08
3.01361718564e-08
2.30635874934e-08
1.38119995081e-09
2.59124218295e-08
6.09844751123e-09
5.14076039721e-09
1.03330136303e-07
1.24843987828e-07
7.44409817018e-08
1.0240790971e-07
2.62653513224e-08
5.71641558211e-09
4.09844956199e-08
2.82907871559e-08
2.74479489798e-08
2.77908086845e-09
3.07907501416e-08
2.07972501511e-08
1.96250893859e-08
2.0369649641e-08
2.84123162165e-08
5.60083734599e-08
6.77750044288e-08
8.93089482703e-08
6.83626582432e-08
7.05132776595e-08
3.35687557109e-08
4.07066369104e-10
1.70040877781e-08
3.26728096838e-08
6.7130940299e-09
3.25209735985e-08
2.61066599369e-08
9.08299223606e-09
9.46841235297e-09
6.20928886002e-09
5.21123592894e-08
5.40479509825e-08
3.87291622733e-08
5.76874797758e-08
6.58716701685e-08
1.36332651997e-08
3.19047964806e-08
2.65679318398e-09
1.56024009701e-08
3.31582063697e-08
5.71055412474e-08
1.00483051245e-09
3.08568932594e-08
4.16083971294e-09
7.10686178179e-09
3.1374591138e-08
2.71601072182e-08
3.03106573934e-09
7.42573265381e-08
1.24852129023e-07
1.00337949503e-07
1.03087593805e-07
3.25724710881e-08
1.11944959774e-09
1.97822289533e-08
2.9084478702e-08
7.70546649907e-09
1.41148104325e-09
2.90702141818e-08
2.2866995601e-08
1.6921841974e-08
6.525147527e-10
8.32960625238e-09
3.27007135491e-08
9.71323505042e-08
1.18753370324e-07
1.05196549551e-07
9.63777437379e-08
7.34815211464e-09
2.70036084475e-08
1.21586755536e-09
7.66766885855e-10
4.99847880215e-09
2.94825356028e-08
1.39848498394e-09
3.14159951103e-09
1.91314749142e-08
1.45756660837e-09
3.16129312133e-08
4.8435118509e-09
9.30649566382e-08
8.35850690199e-08
3.96546304065e-08
7.14001019751e-08
3.23883141878e-08
1.6194268758e-09
1.7396982777e-08
3.38166775546e-08
2.61026031104e-08
4.66158996287e-09
5.27772060424e-08
3.8899066273e-09
3.65403932184e-09
3.22915693879e-08
2.56869656745e-08
6.4461998817e-09
7.59492551746e-08
1.25568946665e-07
7.23111517486e-08
9.86978703316e-08
3.00901187433e-08
2.99728635981e-08
9.05047041124e-09
2.66937722008e-08
3.34597502243e-08
2.16929473544e-08
5.38797734555e-08
3.95347648961e-08
4.47912590273e-08
1.77093594117e-09
5.26948722844e-08
1.01526440972e-08
7.2575042433e-08
9.27455935702e-08
7.20280018761e-08
6.93299395876e-08
5.36962802707e-08
2.14096337642e-08
6.60044856334e-08
2.91792929291e-08
3.08290617132e-08
5.56411492245e-09
2.86957631655e-08
1.5647327358e-08
1.47919876921e-08
2.14000437154e-08
2.8599274522e-08
5.82511586144e-08
6.84344492242e-08
8.36565236757e-08
9.38294447822e-08
6.28530531055e-08
3.15586130526e-08
2.38192191153e-08
4.3890197046e-08
3.09529064188e-08
1.22738033258e-08
6.60689351325e-10
3.15092497296e-08
2.07553159707e-08
4.41369444955e-08
2.46988244069e-08
3.53573614521e-08
3.1550037969e-08
9.22114614571e-08
1.17647901395e-07
1.00064059394e-07
9.82400141152e-08
8.7257150266e-09
2.90465284749e-09
1.71724963263e-08
3.0288628629e-08
2.71580536208e-08
5.35919208653e-09
4.31736829547e-09
2.0574063199e-08
1.37056005833e-08
3.25727841341e-08
3.03403511125e-09
2.85555991206e-09
9.94852083893e-08
9.16416765936e-08
7.24214422944e-08
7.33806339969e-08
8.18935183029e-09
1.4244331764e-09
1.9760118042e-08
2.84483118115e-08
5.18534874183e-08
2.09818376443e-08
2.87680984749e-08
1.62931234737e-08
1.52215221507e-08
5.80380042626e-09
2.85341820926e-08
3.05215670968e-08
4.28037874032e-08
8.70433272525e-08
6.95699730931e-08
9.31888520714e-08
5.64030828743e-08
1.78886878147e-09
1.92147079899e-08
2.69886696463e-08
1.0258955315e-08
1.11401910355e-09
3.07296734101e-08
1.60779582651e-08
4.1294024312e-08
2.37151731368e-08
3.40059724257e-08
5.66961388748e-08
9.48508848898e-08
1.19275805857e-07
7.18798962871e-08
6.83859355651e-08
7.20106300701e-09
3.04614292143e-08
1.66076827928e-08
2.82572533386e-08
2.9503036708e-08
4.06947510276e-09
5.4290572682e-08
1.47186212702e-08
2.0228152476e-08
2.46004441742e-08
7.90520310273e-08
3.50791966607e-08
1.34000774422e-08
6.22852976802e-08
7.25321604494e-08
6.89980107815e-08
5.40779616371e-08
2.17716657541e-08
1.50879816482e-08
5.42016822643e-08
3.13761813607e-08
1.96176675479e-08
2.75445270664e-08
4.32718057489e-08
4.38342989309e-08
4.62448417316e-08
5.37079870936e-08
5.63476414901e-08
4.23455049118e-08
3.0577894186e-08
4.2818287961e-08
3.9114443351e-08
5.40647872014e-08
2.11627160724e-08
1.63747115597e-08
2.88598641071e-08
3.55978826896e-08
2.49193469649e-08
5.36023197772e-08
2.00224076353e-08
1.37539185022e-08
7.07126991743e-09
2.91794699733e-08
2.76266740083e-08
4.28414549644e-08
6.19273661391e-08
6.89574036512e-08
7.07285788293e-08
5.3573058421e-08
2.118057149e-08
4.14950581073e-08
3.19037616726e-08
8.10373264783e-09
1.9591086227e-09
3.14510722077e-08
1.93345808375e-08
4.08840992382e-08
1.1331776811e-09
3.26262457012e-08
3.21926111192e-08
6.90235030629e-08
5.7376286093e-08
1.37269533174e-08
3.74074702412e-08
2.79253668846e-08
1.99002821391e-08
1.47306772139e-08
7.74190759626e-08
7.99044654859e-08
2.05035504669e-08
5.30710699244e-08
1.30700636021e-08
4.39948464243e-08
2.26682791795e-08
3.09337157998e-08
7.72538978399e-08
4.38233065111e-08
3.16868905727e-08
4.2642566129e-08
1.43819382188e-08
2.89547243503e-08
4.56803647309e-09
9.40186495109e-09
2.89063797773e-08
7.89284919087e-08
4.75919093292e-08
5.42172745605e-08
6.60536807453e-08
1.97615835426e-08
2.15837862154e-09
3.49194397252e-08
5.31937732915e-08
3.9815724049e-08
3.09544339408e-08
1.34658016012e-08
1.28498117311e-08
3.10574770213e-08
2.09675072153e-09
1.87157353778e-08
5.66078638506e-08
5.81444174767e-08
1.35050042973e-09
5.31460434707e-08
4.67981624693e-09

