# vtk DataFile Version 3.0
File Name: Molecule/sphere_cent/sphere_cent_0-s33.vtk
ASCII
DATASET UNSTRUCTURED_GRID
FIELD FieldData 1
TIME 1 1 double
0.0
POINTS 1356 double
0.92689031363 -0.14520476758 -0.345772475
0.96876353025 -0.098678171635 -0.22730079293
0.93257510662 -0.23437257111 -0.27449315786
0.86601161957 0.4878243506 -0.10890989751
0.88028001785 0.42653679848 -0.20633259416
0.81788343191 0.53426033258 -0.21321815252
-0.98178547621 -0.16684006155 -0.090780965984
-0.94777357578 -0.28684437275 -0.13945755363
-0.96332859993 -0.26818463206 0.0053728958592
-0.77475565672 -0.51124024391 -0.3719496429
-0.74009782076 -0.61641746759 -0.26882770658
-0.82790714502 -0.50220698118 -0.2497048825
-0.84184622765 0.31042420864 0.44149675965
-0.87132614851 0.36857131124 0.32389387488
-0.91379982233 0.23636294901 0.33024281263
-0.79974973202 0.42698895931 0.42198586464
-0.75026232004 0.37536674738 0.54390275478
-0.33527565002 0.91247433424 -0.23401392996
-0.241438061 0.95760542154 -0.15721479058
-0.21871806681 0.93261855841 -0.28699183464
-0.8607839942 -0.26368373632 -0.43457940221
-0.83303004503 -0.17939502001 -0.52334183455
-0.78192287683 -0.30118384957 -0.54569625854
-0.78894859552 -0.59286302328 -0.16142942011
-0.69487410784 -0.7026886344 -0.1523462683
0.64258396626 0.4970459938 0.58292561769
0.59951841831 0.43821564317 0.66901606321
0.69266706705 0.38291922212 0.61109298468
-0.56084698439 -0.28976586461 0.77552378178
-0.45565095544 -0.3649135828 0.81156802177
-0.44728380442 -0.25001180172 0.85873705149
-0.33477696776 -0.32248353958 0.88498157263
-0.3280159533 -0.1968459934 0.9238922596
0.3373645246 -0.93553853035 0.10454784334
0.20770516992 -0.97172522545 0.11222948879
0.29190811515 -0.95640051365 -0.0045692217536
-0.30324149132 0.26479876041 0.91513520479
-0.38155096769 0.14980223775 0.91212439537
-0.24783036113 0.15527452528 0.95591515303
-0.29223278165 0.04804231599 0.95511466265
-0.24946671724 0.37310376763 0.89347684383
-0.17429491878 0.28826203942 0.94096827507
-0.56579488516 -0.8240596652 0.027099059895
-0.65640449524 -0.74689602852 0.10612630099
-0.69234699011 -0.72154933214 -0.003699534107
-0.77452301979 -0.5810559988 0.24996912479
-0.73314750195 -0.65753740072 0.17347788811
-0.68635541201 -0.66783201694 0.28795000911
0.17834049463 -0.12165195495 0.97631728649
0.16775226593 0.015008959919 0.98571527004
0.064966395497 -0.05343914032 0.99643450975
0.15861159563 -0.25526696444 -0.95376133919
0.22616201639 -0.12305764854 -0.96628582478
0.3105623126 -0.24836865067 -0.91751617193
0.34470278025 -0.096240915358 -0.93374800682
0.28512981534 0.017732223496 -0.95831483603
0.25800713897 -0.37881377339 -0.88876765966
0.37600624561 -0.37981784344 -0.8446700573
0.43692725897 -0.2721658349 -0.85733520985
0.32280179858 -0.49889594316 -0.8042755723
0.46345147491 0.77979254723 -0.42003515363
0.40068379045 0.85139548779 -0.33804276586
0.50910907984 0.81017076969 -0.29052096605
-0.27374541759 0.95102882385 0.14136248827
-0.23483005166 0.93591022491 0.26247188449
-0.15498492122 0.9732080698 0.16952769458
0.012085173279 -0.20803807676 -0.97803884745
0.093479059637 -0.11043928564 -0.98947054148
-0.035403929651 -0.086976744235 -0.99559354782
0.027163537219 0.01755980216 -0.99947196245
-0.44367843866 -0.8948314786 0.049041576684
-0.48227074742 -0.86251479387 0.1531790942
-0.82971769571 0.44840681553 -0.33238255978
-0.89481014013 0.31546857953 -0.31472533941
-0.88214713335 0.41341087222 -0.22563967109
-0.93038475513 0.31371170282 -0.18961180747
0.097385525703 0.62820708752 0.77125519514
0.17422330379 0.51519179344 0.83916544914
0.21926783025 0.6106467247 0.76039224863
0.30197221041 0.48494383693 0.82074689865
0.62538385391 -0.34530577064 -0.69975703955
0.53003835678 -0.34512776136 -0.77405518293
0.59861558676 -0.2507995069 -0.76074910164
0.57361972332 -0.45862239599 -0.67868685722
0.95941412449 -0.0043260706589 0.28193730116
0.97663593292 0.091042116284 0.193569839
0.94286543131 0.12522785366 0.30867633224
0.51226323843 0.54896706343 0.65995466709
0.51172703505 0.46207329631 0.72366541624
0.41454279423 0.24732203782 0.87574660778
0.49892508984 0.33331426978 0.79972147942
0.36123976111 0.35254922509 0.86330038309
0.15687261522 0.0098321409896 -0.98756766319
0.6043869257 0.71504956484 -0.34931302071
0.69877594709 0.64823424816 -0.3022095263
0.67477840185 0.6139305234 -0.40934693813
0.61388373375 0.75419282913 -0.23239421844
0.80940109491 -0.54065865278 0.22918017209
0.77454417944 -0.62644869089 0.087417982519
0.83944624662 -0.53221064806 0.10904439539
0.8364263773 -0.54750841856 -0.022989351302
0.48196524382 0.82222664356 0.30202615261
0.37815153599 0.89856392145 0.22265842557
0.36702007055 0.85150295496 0.37450113893
0.26281484962 0.90909928083 0.32310768962
0.23238737881 0.86653923988 0.44168406725
0.53295511007 -0.015332413837 -0.84596246481
0.40635338426 0.024891361594 -0.91339766979
0.46970331669 0.12869973481 -0.87339705229
0.34494543076 0.14371427894 -0.92755150795
0.41277810931 0.25579506159 -0.87416666746
0.21377110481 0.1449880898 -0.96606439352
0.29190048575 0.25806155801 -0.92076718807
0.094504833221 0.12064532191 -0.98818123341
0.10960138589 0.24896636605 -0.96186184883
0.34346982837 0.38180693984 -0.85805076361
0.20674175024 0.41027855873 -0.88789081573
0.27158746123 0.49149125814 -0.82741135359
0.47165352106 0.35969051719 -0.80508083105
0.40674513578 0.48265245557 -0.77453440428
0.69690322876 0.7008972764 0.15151697397
0.60290259123 0.79299736023 0.087555408478
0.60941958427 0.76442366838 0.20929886401
0.50569063425 0.86227935553 0.022971225902
0.49299645424 0.85810428858 0.14062207937
0.80267095566 0.59545332193 0.02922327444
0.78598588705 0.59887361526 0.15345148742
0.85629349947 0.50364458561 0.1141441837
0.85714924335 -0.038801364601 0.51359379292
0.90959537029 0.063868753612 0.41047927737
0.85253107548 0.094689518213 0.51392054558
0.89011394978 0.17774909735 0.41944274306
0.41859266162 0.88195288181 -0.2166762054
0.50870269537 0.84661650658 -0.15505799651
0.43441072106 0.8976764679 -0.07342094183
0.27363193035 0.95418262482 0.12090587616
0.24706062675 0.96899157763 -0.00054189132061
0.14589193463 0.98714619875 0.065013714135
0.11651805788 0.99179697037 -0.052447702736
0.0079616038129 0.9995996356 0.015606116503
0.39245280623 0.91713154316 0.069522619247
-0.58450895548 0.27865219116 -0.76193797588
-0.65795964003 0.19182549417 -0.72820448875
-0.67710262537 0.30461871624 -0.66987264156
-0.74194431305 0.1841480881 -0.64448690414
-0.69656050205 0.071529753506 -0.71382343769
-0.57531011105 0.14883483946 -0.80419874191
0.54304605722 0.22390118241 -0.80930167437
0.45018818974 0.76821649075 0.45389470458
0.32454127073 0.80712032318 0.49301728606
0.82931566238 0.51178777218 0.22391313314
0.72254920006 0.6396561861 0.26098001003
0.50967782736 0.0083895474672 0.86033016443
0.50629365444 -0.12976619601 0.85255765915
0.60681736469 -0.080898746848 0.79070824385
0.57641643286 -0.22070372105 0.78677582741
0.44258776307 -0.24251721799 0.86327761412
0.68330895901 -0.16375878453 0.71151041985
0.55374616385 -0.36178788543 0.74994707108
0.64843475819 -0.30282211304 0.69845974445
0.59784716368 -0.43979939818 0.67019563913
0.74473953247 -0.24787601829 0.61960864067
0.70190268755 -0.38427531719 0.59970855713
0.79406350851 -0.32368370891 0.51446640491
0.6489391923 -0.51305896044 0.56181436777
0.74735873938 -0.45221534371 0.48678067327
0.69255894423 -0.57592320442 0.43436560035
0.82980406284 -0.38394677639 0.40500277281
0.79176110029 -0.48981866241 0.36496078968
0.86247885227 -0.4251293242 0.27451702952
0.82761818171 -0.19091527164 0.52782654762
0.7765558362 -0.10609544814 0.62105494738
0.7855938673 0.032708477229 0.61786025763
0.70455485582 -0.029797559604 0.70902270079
0.68934392929 0.086516179144 0.71915447712
0.61648637056 0.036824218929 0.7864471674
-0.09454485774 0.035884305835 -0.99485701323
-0.011241035536 0.11910349876 -0.99267464876
-0.12021850795 0.68854951859 0.71514332294
-0.20874536037 0.61546480656 0.75999373198
-0.073947057128 0.60268980265 0.79422831535
-0.1529815197 0.53119492531 0.83299946785
-0.055532779545 0.48720791936 0.87151938677
0.24356587231 0.38058760762 0.89208936691
0.30606988072 0.26529854536 0.9137943387
0.35899469256 0.16233113408 0.91907030344
-0.14679275453 0.49539253116 -0.85600161552
-0.092823907733 0.41552385688 -0.90481752157
-0.21144105494 0.40927052498 -0.88742703199
-0.032234951854 0.51717734337 -0.85489946604
0.14541770518 0.91568428278 0.3746445179
0.091993682086 0.87793976068 0.46909242868
0.044884573668 0.91663187742 0.39713510871
0.19809618592 0.80748707056 0.55471068621
0.88488960266 -0.25912436843 -0.3869843781
-0.55830407143 0.59201461077 -0.58126038313
-0.57570379972 0.65008020401 -0.49582773447
-0.45897230506 0.6917001009 -0.55756616592
-0.66098463535 0.54541701078 -0.51537692547
0.87525564432 -0.2593690455 0.40819603205
-0.38646709919 0.65126174688 -0.65305703878
-0.32558295131 0.74495738745 -0.58221542835
-0.12753599882 0.77497518063 0.61889117956
-0.22427390516 0.71057391167 0.66690963507
0.28548318148 0.017435753718 0.95819163322
0.24770969152 0.12644764781 0.96014893055
0.4013133347 -0.13893677294 0.90531098843
0.0035745725036 0.69335609674 0.72027772665
0.11759088188 0.718542099 0.68473428488
0.40924450755 0.42457336187 0.8073362112
-0.058843437582 0.31832486391 -0.94602948427
0.03732342273 0.39517438412 -0.91763067245
-0.94923192263 0.0104229711 0.31430771947
-0.91386246681 -0.097886763513 0.39400273561
-0.90026432276 0.014276014641 0.4350438118
-0.9609683156 -0.10711722076 0.25504863262
-0.85562515259 -0.07961717248 0.51110041142
-0.85903060436 -0.21400137246 0.46495771408
-0.53502416611 -0.79674464464 -0.28100782633
-0.4438919127 -0.86958575249 -0.21625122428
-0.5347661972 -0.8271484971 -0.17216846347
-0.46737062931 -0.88021177053 -0.082097426057
-0.36018827558 -0.92277115583 -0.13700756431
-0.43314111233 -0.68735259771 0.58298408985
-0.3801151216 -0.61436253786 0.69142538309
-0.49895042181 -0.59580993652 0.62933754921
-0.45151758194 -0.53176426888 0.71653187275
[...]
CELL_DATA 2708
SCALARS cell_data_0 double
LOOKUP_TABLE default
1.36338713722e-09
2.17185066641e-09
5.29293527159e-09
1.36795739411e-08
1.07007823847e-08
9.77079246742e-09
1.70090870729e-09
7.24579824249e-09
9.86157464162e-09
1.07413514119e-09
8.56573736147e-09
3.04693303974e-09
1.50814466949e-08
1.32136107894e-08
4.2504748953e-09
1.17324765808e-08
3.91781816034e-09
9.64942770478e-10
1.79454434542e-08
3.46495271287e-10
4.31021043412e-09
3.3164013438e-08
2.45690484491e-08
4.63988806112e-09
3.44779090767e-08
1.55283777971e-08
1.98886904289e-08
1.86880297606e-08
5.52434391854e-09
6.09267907081e-09
1.96436777204e-08
3.87311181536e-09
1.26253159432e-09
6.18060631917e-09
1.09768187293e-08
6.45672153375e-09
1.38597638349e-08
8.8045145218e-09
3.2429016812e-09
1.75579771459e-09
1.53303984786e-09
1.13369581596e-08
1.63913025044e-08
2.08817338284e-08
8.7993361059e-09
7.66348571547e-09
1.69423954956e-08
1.35310949246e-08
9.15707680981e-09
2.91345660889e-08
1.91365740222e-08
2.59339502665e-09
1.46077530638e-08
5.86929073835e-09
2.79467542737e-09
6.40261937511e-09
3.01230804881e-09
5.20086329666e-09
9.5905385221e-10
1.22106146014e-10
3.42560701163e-11
2.21448453166e-09
1.29717743938e-08
1.44454815149e-08
2.26549088937e-09
1.89318416503e-08
3.91947091186e-09
1.08859634712e-08
6.42726231655e-09
1.16203230536e-08
1.22272669295e-08
6.26486723682e-09
2.05924552118e-09
6.08718722673e-09
7.44665569197e-09
1.35184873392e-08
1.75212966527e-09
2.25748320748e-09
3.89349061101e-09
2.53760871246e-08
3.22007633638e-11
1.96335756357e-08
1.03570928983e-08
1.31720126105e-08
4.27633397022e-09
8.36294782153e-11
5.65611595167e-09
2.25806873865e-09
2.09863036267e-08
1.15021148482e-08
6.60076269762e-10
1.54124501761e-08
1.37725715787e-09
1.04196309858e-08
2.95499698114e-09
4.64682556771e-09
5.58945943169e-09
3.0139046621e-09
1.22008043486e-08
3.43096268689e-09
8.17260064157e-09
1.43220173309e-08
6.8752273878e-09
1.32234787519e-08
5.35035416101e-09
6.73056686616e-09
8.93714443862e-09
9.95013148047e-09
1.02165249074e-08
1.48004640021e-08
9.534029142e-09
9.33336917281e-09
2.25199382165e-09
6.77149910901e-09
1.01625960343e-08
5.51871970945e-09
4.0629688179e-09
4.76962974963e-10
8.76523513749e-09
1.76670921731e-08
1.71291852015e-08
9.21483523194e-09
5.62174073925e-10
1.15688977423e-08
8.49831011789e-09
1.15128044529e-08
7.3697334159e-09
6.60922424728e-09
3.78186186938e-09
9.74237490577e-09
4.24801328397e-09
5.19560493375e-09
1.17405735514e-08
7.37266223481e-09
1.82001230494e-09
4.03301805673e-09
6.60018531921e-10
2.21064979364e-09
4.57876269525e-09
6.47019489744e-09
7.81162536171e-09
6.80389435054e-09
8.12658055869e-09
6.07769224144e-10
1.83879286091e-09
1.30725443869e-08
7.94695143174e-09
5.85024385851e-09
3.55315082424e-09
2.65092951408e-09
3.51964987134e-09
5.94934883937e-10
1.6922237945e-08
1.03269695538e-08
1.14722029923e-08
4.22645873625e-09
1.00474320668e-08
8.23254094807e-09
8.1405250437e-09
1.11552294727e-08
1.83301606403e-09
4.58245057329e-09
8.67055507406e-09
1.21574669466e-08
3.55466954515e-10
1.66097594004e-08
5.54053805377e-09
2.73418813265e-09
6.80646883397e-09
1.19018361611e-08
4.14753439134e-09
1.17779289226e-08
5.82288096278e-09
1.43752837981e-08
1.74451709139e-08
6.35126555679e-09
3.83347075528e-09
1.71505163976e-08
1.50818438777e-08
2.29459702174e-09
1.47735274669e-08
6.02319826779e-09
8.44073280044e-09
1.01668465217e-08
2.34645522195e-09
1.34439509938e-09
4.29520269279e-09
2.19787396276e-09
8.83597730654e-09
3.66141907924e-09
4.24223145074e-09
7.38148393426e-09
2.99737590811e-10
5.48118870159e-09
1.68997587856e-10
1.11227565443e-08
3.65012237779e-09
1.28605706032e-08
1.27187062664e-08
1.42512844016e-08
8.88738496677e-09
2.26129957346e-09
5.06205174618e-09
5.12433969134e-09
1.75881141917e-09
8.4282528824e-09
4.25073517411e-09
3.69165499235e-09
1.8099932112e-08
4.29750870447e-09
8.31915118287e-09
1.11796966097e-09
1.02911185104e-08
5.34367216956e-09
3.0973401138e-09
2.99492389309e-09
7.69535083609e-09
1.89002231268e-08
3.45880548561e-09
7.09273824574e-09
2.37234736339e-09
1.61453603527e-08
1.18721197684e-09
1.25267451973e-09
4.37069304727e-10
1.36905084962e-10
1.22098418806e-08
3.69462922091e-09
4.48582417903e-09
5.28650008866e-09
6.92516807609e-09
1.21737150591e-08
1.2721510347e-08
1.06569433544e-08
4.15981444559e-09
1.01930364277e-09
7.17162853016e-11
1.63605202522e-09
6.34213353143e-09
7.71986694225e-09
2.46723191689e-09
1.87790943862e-09
6.16630948009e-10
8.49909051653e-09
4.91633090829e-11
1.98094656525e-08
1.28266783316e-08
8.42436921241e-09
1.49073011688e-09
7.44602169626e-09
9.31478324404e-09
2.26890238983e-08
1.18436702154e-08
2.49638963704e-08
4.93102657171e-10
8.51573069061e-09
1.26756411552e-09
4.0158194084e-09
5.13095945596e-09
1.13911607698e-08
1.04147440247e-08
1.51682798599e-08
1.64298753457e-09
6.62130360066e-09
1.31081295221e-09
1.94489646501e-09
8.4153207214e-09
3.41276308419e-09
1.3004031893e-08
3.88588454605e-09
1.61729872643e-09
1.28027897235e-08
1.92546266312e-08
1.03626330315e-08
3.25759610438e-09
4.94620160482e-09
7.05041106883e-09
2.10243248398e-09
6.33441874719e-09
3.84308979071e-09
1.93793183143e-08
3.47810584086e-09
4.73415792024e-09
9.2676384884e-09
5.61130481521e-09
1.15288422611e-08
4.36838806972e-09
3.36660811287e-09
1.21678099522e-08
6.40376282134e-10
1.79508841479e-09
8.36348705028e-10
2.95823044297e-09
1.95722417726e-09
8.62210763255e-09
3.51188200051e-09
6.2571999826e-09
6.29934049254e-10
2.01818694406e-09
6.40426223376e-09
2.22220367845e-08
2.75815721969e-09
2.48553676251e-09
6.36420494922e-09
1.55222170063e-08
8.86700005863e-09
2.37543642794e-09
1.01210437385e-09
1.41744488398e-08
4.99533633517e-09
1.4381071342e-08
1.15542604308e-08
3.99489598648e-09
2.4439764579e-09
4.30982108684e-10
3.35320991869e-09
1.8253920443e-08
8.08879012592e-09
1.49422958079e-08
9.44787533865e-09
1.5246523508e-08
1.99881995303e-08
9.25799654401e-09
2.94060443841e-09
3.69048325033e-09
2.93482831234e-09
1.13273855143e-08
5.64693394535e-10
2.78861804491e-09
7.53525524793e-09
4.69974172489e-09
4.46699118543e-09
9.38663234658e-09
3.51430490512e-09
6.87291087703e-09
4.81486484885e-09
7.2278156316e-09
1.03398348093e-08
1.2295304705e-08
4.29505851587e-09
2.04402876368e-08
7.63977122751e-09
8.9768554805e-09
1.19825562195e-08
1.09154748717e-08
9.92057225479e-09
4.46113365028e-09
2.33634950489e-09
5.48262133756e-09
1.62669389313e-08
3.777417993e-09
4.28173670028e-09
4.95879811923e-09
1.07300037003e-08
4.23416190803e-10
1.97054888643e-09
1.28870765607e-08
1.71747287745e-09
6.72037873307e-09
1.61488536529e-08
5.62247898335e-09
7.7639639537e-09
7.56004745109e-09
4.44824103209e-09
6.00784427539e-09
9.25380486922e-10
5.31099212688e-09
1.77234767935e-09
2.12935659072e-09
2.46177627281e-09
3.88602477128e-09
2.4285275525e-09
2.74737808926e-09
3.74668647504e-09
4.45752524676e-09
8.93084247155e-09
1.03967935264e-08
1.686657059e-09
5.24375055755e-09
1.00614082865e-08
1.04831351146e-08
3.66807222151e-09
4.22460904102e-09
2.20374372098e-10
3.66049520064e-09
5.15012172304e-10
2.32885866896e-09
5.47535236425e-09
1.4625515201e-08
5.18544698167e-10
1.09648884567e-08
3.22812783282e-09
2.51330851453e-09
2.88274673562e-08
4.22767529513e-09
2.13903428135e-09
5.58665963016e-09
4.38518965347e-09
6.67595153512e-10
8.7194947145e-09
5.56290658809e-09
8.25278037726e-10
1.32100909153e-08
9.13570261223e-09
4.26105938652e-10
3.20079291903e-09
2.00978858341e-09
3.65045582653e-10
6.72856189479e-09
8.20014810966e-09
4.20827966779e-09
9.39466967048e-09
2.64212347281e-09
4.30757754202e-09
3.38402096763e-09
5.91193786157e-09
6.39958439809e-09
3.22302766162e-09
4.0961491378e-09
2.98852060477e-09
6.18579986311e-09
4.2049852477e-10
2.82332900807e-09
7.4885634853e-09
7.37620944809e-09
8.59111079204e-09
3.83512697177e-09
1.0017430818e-08
2.56196351222e-09
4.52769578209e-09
6.41622476677e-09
1.49384473492e-09
5.672240913e-09
2.50970869979e-09
4.37665786681e-09
2.56597729876e-09
1.2837039405e-08
4.69762829473e-11
3.75996299314e-09
8.92319882774e-09
7.66951516296e-09
6.02616806723e-09
2.32536662431e-09
2.65501616888e-09
3.95324117871e-09
3.85613193558e-09
1.30065642029e-09
2.20579585525e-09
3.34816195579e-09
2.01994911658e-09
6.91186118295e-09
3.68329718085e-09
9.57838081079e-09
2.6693684648e-09
2.33889106727e-09
1.79858005893e-09
1.43346102981e-08
2.80944389394e-09
2.06693308331e-08
6.26388033788e-09
6.04780978453e-09
1.40168870096e-09
3.24534764969e-09
7.53423260548e-10
5.04682437726e-09
4.41087369269e-09
1.41267656808e-09
3.39963481376e-10
3.65613038848e-09
5.81499448453e-09
1.42480258924e-09
6.9037990329e-09
1.56982467033e-08
1.80232845805e-08
4.49424092884e-09
1.28215064397e-09
6.64240727461e-09
7.01495339009e-09
4.7529387756e-09
6.28084705155e-09
1.84194773644e-08
1.53138262275e-09
3.35717114583e-09
3.3336493365e-09
6.73792010526e-09
3.12609942322e-09
1.85618730798e-09
6.32226292561e-09
3.50955071306e-09
1.09158072192e-09
1.44422910072e-08
1.08239330154e-08
4.84418018201e-09
1.73190801924e-08
5.33204659629e-09
2.82522627957e-09
1.70632762478e-09
8.09595406721e-09
1.23679711885e-10
1.75278903874e-08
4.16628485102e-09
4.17919451814e-09
1.24451773097e-08
2.78370095203e-09
3.38685698291e-09
1.49053535975e-10
1.02958485084e-09
4.96867229677e-09
1.63949021064e-09
4.30681564963e-09
2.52550810968e-09
1.04199587311e-08
1.46573546764e-08
1.95225479341e-11
3.00013408932e-09
4.2160380049e-09
3.51131078301e-09
3.46415016533e-09
2.47141870691e-09
4.86260723894e-09
1.46293471721e-08
1.41874415257e-08
1.09075660816e-09
8.46483509848e-10
3.74936362304e-09
7.6353177639e-09
1.10938981328e-08
5.55312032759e-09
1.09617450267e-09
1.2522512784e-08
5.29742383257e-09
1.19689275475e-08
8.98306715084e-10
7.86962644882e-09
3.20172041372e-10
1.2398896644e-11
3.84807441467e-09
7.89605197724e-09
3.77995690892e-09
2.98618901265e-09
7.08708783846e-09
4.70335503851e-09
5.38196295531e-09
2.88703549886e-09
5.87096251502e-09
1.07180074705e-09
5.80790112765e-10
3.76462409425e-09
2.10386531159e-09
1.17166630673e-10
3.61617445324e-09
2.14359226324e-09
3.09523066231e-09
2.21333048336e-09
2.80022027645e-09
2.54293753861e-09
7.60144239619e-10
5.24079350923e-09
5.05134618597e-09
9.67342135601e-09
1.15298160157e-08
6.38055107275e-09
7.9644093445e-10
3.39789333529e-09
2.35309881811e-09
1.29379856476e-08
3.98947248941e-09
3.41229321509e-09
6.71128138975e-09
6.74179892965e-09
2.63829548805e-09
5.42034481103e-09
2.60460903405e-09
1.93834007895e-09
9.01875919273e-11
7.34809691708e-09
8.90573899267e-10
6.25927200618e-09
5.43778896006e-09
2.50268304037e-09
7.40956284386e-09
1.63109740073e-09
3.29871921981e-09
2.90226907869e-09
7.81724995541e-09
5.22616433069e-10
1.88804292638e-09
9.58954981253e-09
3.11023393453e-09
7.50463258341e-09
4.84638793444e-09
3.73409907837e-09
3.13982959875e-09
6.52954426283e-09
5.43233483932e-09
3.55746459386e-09
1.1636253151e-09
7.5720610536e-10
3.95669459945e-09
9.93919489022e-09
1.94616204911e-09
5.30190719352e-09
3.28026048551e-09
3.92775697261e-09
2.18930378733e-09
2.89283588108e-09
2.48058028141e-09
5.25754958488e-09
3.12712968792e-09
1.01446116399e-08
4.86104305809e-09
2.21792250251e-09
2.50732405626e-09
5.65172860857e-09
2.59494912506e-09
7.21648571639e-09
3.18579870296e-09
4.89941116063e-09
3.0230927211e-08
1.59172849199e-08
2.25915677172e-08
1.46535503187e-12
6.75486749827e-09
2.62645767081e-09
1.78179212772e-09
6.92842043014e-09
1.88172409139e-09
1.21684835833e-09
2.29281773253e-09
4.07252598508e-09
2.49547064756e-09
5.41293885791e-09
1.74279831699e-08
1.45421916656e-09
1.50884119458e-09
3.38043584827e-09
2.60390916428e-09
9.38078868975e-09
4.96638240149e-09
3.01867133644e-09
5.2210001925e-09
4.11060702666e-09
2.86020802934e-09
3.51933943634e-11
4.55991261269e-09
1.64524479439e-09
9.99618010739e-09
5.16322325659e-09
1.97500492247e-09
2.83197852464e-09
6.45672423338e-09
8.94256635077e-09
5.20834724724e-09
7.19271542832e-09
1.14427541045e-09
1.38946961675e-09
1.55326925987e-08
5.54270077095e-09
1.57175986064e-09
1.73977232341e-09
2.03966973233e-09
2.42985952243e-08
2.35573868076e-09
1.62780257021e-09
8.09336697041e-09
1.07795370517e-10
9.37404430795e-11
1.3008412327e-09
6.13508950912e-09
8.36019219116e-09
9.26518749629e-10
2.9626723296e-09
6.5642428974e-09
5.58272564831e-09
9.66815901789e-09
5.98827140605e-09
7.27454117808e-09
2.87388741246e-09
3.95657499268e-09
5.33267103298e-09
3.18410313085e-09
2.28229458471e-10
9.01041322905e-09
4.48249751909e-09
3.0407150079e-09
7.99062365826e-09
7.2190809284e-09
4.29196621556e-09
3.96499455323e-09
6.15737448503e-10
8.94532701653e-10
3.87721170767e-10
2.99631216775e-09
2.26624265023e-09
3.52537766006e-09
3.56331233076e-09
1.53083566678e-09
8.49502803231e-10
4.84353218949e-09
2.45814351344e-09
6.00341991161e-09
1.97828833723e-10
2.49631321275e-09
3.5945012753e-09
7.40862640651e-10
6.89182266918e-10
9.9642020482e-09
7.35172005141e-10
3.79179677391e-09
3.72414005188e-09
2.58514940032e-09
9.20703366539e-10
4.19041258822e-10
1.01620851286e-08
6.38242442295e-10
4.83019758041e-09
2.71292939043e-09
3.15537529979e-09
4.0869207366e-09
2.65380107849e-09
5.17410482955e-09
3.97468217676e-11
1.95301024586e-09
1.7594413896e-09
2.3768423372e-09
2.69288907645e-09
1.13844033271e-08
2.18229373842e-09
5.7945947283e-10
1.87026779312e-09
3.2867322467e-09
5.85703418333e-11
3.93686031934e-09
3.75292369245e-09
3.3359497736e-09
5.24589894157e-09
1.8551194458e-09
4.41517541157e-09
2.90992959641e-09
3.67094943642e-09
3.25454942648e-09
9.08055927534e-09
8.28577749299e-09
8.59781406577e-10
7.41319347e-09
6.94609712815e-10
4.70942076787e-10
2.16303021357e-09
1.30796677315e-10
1.09986192951e-10
1.63911965486e-09
2.12257716003e-09
1.18537155947e-09
6.14671033277e-10
5.29728937814e-09
3.14251113129e-09
3.19543526962e-09
1.67716615392e-09
5.47915182083e-09
1.01212504776e-08
1.26568769299e-09
5.51574970135e-09
3.3440387682e-09
6.33913695419e-09
1.99080196616e-09
1.11923883917e-09
7.38372159393e-11
1.01483325587e-09
7.4835981842e-09
5.65455147442e-09
4.77503195117e-09
3.11740544006e-10
1.09742465213e-09
1.48838975052e-10
3.86743362678e-09
8.30701076561e-09
4.81174646136e-09
2.2228080462e-09
1.63702755656e-09
5.80435543153e-09
3.16176679639e-09
2.53884308092e-09
5.82079246201e-09
5.47169325564e-09
7.47635363895e-09
3.76978894864e-10
2.50296636959e-09
3.48987015129e-09
3.53835037005e-09
3.8457279266e-09
2.44036241228e-09
1.98934367193e-09
2.04563734195e-09
5.28024986613e-09
4.51850612396e-09
5.05680387574e-09
3.93205392618e-09
1.84664632284e-09
9.52553701329e-10
9.55273638099e-09
1.34925355066e-08
8.31328243693e-11
2.66935830405e-09
4.22387978042e-09
7.44687085619e-09
6.40340415374e-09
3.66786235384e-09
6.91953613301e-09
3.17212373434e-09
1.19129910283e-09
2.4458094819e-09
3.25764383592e-09
2.26745453138e-09
2.74254812721e-09
1.96806620333e-09
2.90303711931e-09
7.82782867051e-09
2.747404755e-09
7.80217796669e-09
6.18910630818e-09
1.02433645287e-08
8.98966329685e-09
2.46009791021e-09
6.98119138607e-09
9.54803885114e-09
8.88160013719e-09
1.88930830659e-09
1.16206623025e-08
4.95749544871e-09
4.89937769642e-10
7.68451646308e-10
2.64604108092e-09
3.43211321401e-09
1.55301734307e-09
1.37318489147e-09
3.55040813445e-10
5.48878105648e-09
2.56207415603e-09
1.07597509214e-09
1.32445763494e-09
1.22136643515e-08
7.36972005922e-09
5.92875519208e-10
1.05098669576e-08
2.60033902773e-09
1.04853253885e-10
5.08562837152e-09
6.13318396694e-09
1.81507420821e-09
1.02351107048e-08
2.71468491894e-09
7.37062913324e-10
5.15794195826e-10
4.31889106509e-10
8.11296925576e-09
6.43385338531e-09
9.67004045034e-09
7.05286211454e-09
2.15591008414e-09
7.63618103288e-09
4.08205817793e-10
6.09022075306e-09
4.44059608059e-09
8.68794431643e-09
5.38813267527e-09
3.5477469315e-09
3.94315414052e-10
7.01532838695e-09
6.10565611926e-09
1.93580597016e-10
1.24563131342e-09
4.11276409053e-09
5.0209025784e-09
8.17898297037e-09
6.49407607515e-10
3.70926794155e-09
6.73962515959e-09
6.29257251206e-09
1.43427258164e-09
7.7222894435e-09
4.81410155471e-09
3.76021951368e-09
3.28862964982e-09
1.21951543773e-08
1.46436807368e-09
1.60686848589e-08
8.77784713594e-09
6.15381223109e-09
2.90989597456e-09
9.56015987942e-10
4.83024831748e-09
1.35076187899e-09
6.41943385008e-09
9.120612279e-10
1.82219085577e-09
1.41612419134e-09
8.85086944715e-09
3.706618317e-09
1.26994498293e-08
3.36377485838e-09
6.21091669149e-09
2.80055769254e-09
3.99829116343e-09
5.28552169576e-09
3.4807955363e-09
8.01244706938e-09
7.65705023255e-10
8.97121373641e-09
5.44269848048e-09
2.7068567606e-09
7.36373833006e-09
6.08927969359e-09
2.61638589192e-09
7.88302484244e-09
5.61357557499e-09
2.97561123699e-09
1.13870686059e-09
1.64900348954e-10
8.42288759419e-10
4.56481023139e-09
4.42179538978e-09
3.40507124994e-10
3.43668403061e-09
4.00230779109e-09
5.98221604215e-09
4.66424836922e-09
3.01438853208e-09
1.2055257122e-08
4.2061887103e-09
3.14094596873e-10
2.91573890834e-09
3.25750019194e-10
6.74833891261e-09
4.03135574284e-09
4.96285307619e-09
6.68991302533e-09
1.80997443153e-10
2.87916310311e-09
5.52749158515e-09
3.64680373646e-09
4.63210580464e-10
6.16874993186e-09
3.16665960552e-09
4.22870779471e-09
3.25636954168e-09
3.37341751047e-09
1.48639287714e-09
4.2348001982e-09
3.66988261692e-09
5.8399833278e-09
3.86940028163e-09
7.56563850605e-10
1.47797038932e-09
2.88314017611e-09
1.41998069449e-09
3.07748964403e-09
2.35983270122e-09
5.03115199165e-09
6.86108078498e-09
1.34099688639e-10
6.37520100178e-09
6.59697467193e-09
3.61311186116e-09
2.67529033571e-10
4.47391890373e-09
3.08928678297e-09
6.44730896467e-10
4.60461860979e-10
2.75398969949e-09
1.8389690709e-10
5.66767839648e-11
3.26738421078e-09
7.63974362088e-10
4.15739131866e-09
1.11891154748e-08
9.10888204982e-09
1.21284626151e-09
3.32555195942e-09
1.8169035101e-09
5.63896610077e-09
4.543933953e-09
7.92761646821e-09
1.96922103712e-09
2.03720508931e-10
3.53325565094e-09
1.89886989672e-09
3.44875640032e-10
2.79999418083e-10
2.86334910907e-09
1.70863513427e-10
5.14151083234e-09
1.03760664072e-09
4.33963330087e-09
6.78757850502e-09
1.04963582252e-08
2.7487741592e-10
1.21148667e-09
7.91796195138e-09
2.4913849353e-09
3.94162935355e-09
2.90509155131e-09
1.63350287716e-09
3.23571792575e-10
1.92091530812e-09
6.80258799896e-09
1.71181493249e-09
1.09721492702e-08
4.69471269427e-09
6.06287736891e-09
4.12720437955e-10
6.61005256125e-09
4.69190580904e-10
2.55242944661e-09
5.16941354278e-09
3.97127822008e-10
2.59216126544e-09
1.25377450596e-09
7.50890228319e-09
5.89104197069e-10
2.43886521319e-09
1.79853006806e-09
8.73951682207e-10
6.51798926326e-09
1.59548204274e-09
1.27481540833e-08
2.14127983462e-09
1.43692234951e-08
6.9929479622e-10
1.0001464894e-08
3.58048772739e-10
3.89574326289e-09
2.60512872599e-09
1.21860084328e-09
9.01474418677e-10
5.29834430474e-09
4.06088351892e-09
6.17811120243e-09
4.50717197792e-09
5.32746832232e-09
3.02735021501e-09
1.04447469892e-09
2.88055340066e-09
3.93697244386e-10
1.42344977384e-08
4.16099282082e-09
2.26036342132e-09
2.28845736749e-09
2.24174346032e-09
2.30850621785e-09
6.67352185397e-09
4.61010875628e-09
9.04628295575e-10
9.44711321114e-10
1.31325493689e-09
3.26308705664e-09
7.56362804289e-10
5.69027167046e-09
4.29172699146e-09
6.32662043947e-09
8.89207975855e-09
5.52779488331e-09
7.16866805705e-09
9.70795353225e-09
3.33893770708e-09
1.76681184917e-10
1.12317311925e-11
3.83648449186e-09
2.95637523393e-10
4.50067123273e-09
9.78431391887e-09
7.37601387866e-10
1.48746431403e-09
5.973537187e-09
2.0795956355e-09
9.7448232874e-10
5.00333439372e-09
2.6404765347e-09
1.99857206576e-09
4.70185542115e-10
4.80693043946e-10
2.31690513687e-10
5.01136247087e-09
5.25033713263e-10
3.83505854279e-09
3.43989705654e-09
2.61628351137e-10
2.28026252137e-09
4.60435341191e-09
8.44373231931e-10
5.89490356106e-10
6.071980949e-09
2.37582522259e-09
2.30120363355e-09
1.31626233983e-09
4.82854585093e-09
2.7103215897e-09
2.29381925336e-09
6.08927249992e-09
5.57072816375e-10
2.05853572272e-10
4.45631229248e-09
1.91920151921e-09
1.2787733526e-08
1.10016182819e-08
1.82368286037e-09
1.03805299103e-09
5.71595813345e-10
3.6431647036e-09
4.91962352891e-09
3.74476633343e-09
6.22370002815e-09
2.53643898138e-09
4.9850655126e-10
1.41175193949e-09