# vtk DataFile Version 3.0
File Name: Molecule/sphere_cent/sphere_cent_0-s4.vtk
ASCII
DATASET UNSTRUCTURED_GRID
FIELD FieldData 1
TIME 1 1 double
0.0
POINTS 217 double
1.70130162 -1.05146222 0.0
1.72533696 -0.86777713 -0.51978383
1.92387672 -0.54653306 0.0
1.90211303 -0.3249197 -0.52573111
1.38756095 -0.32124407 -1.40409289
1.38756095 0.32124407 -1.40409289
1.70130162 0.0 -1.05146222
1.05146222 0.0 -1.70130162
1.90211303 0.3249197 -0.52573111
1.72533696 0.86777713 -0.51978383
1.92387672 0.54653306 0.0
1.70130162 1.05146222 0.0
1.40409289 1.38756095 -0.32124407
1.37638192 1.17557051 -0.85065081
0.86777713 0.51978383 -1.72533696
1.17557051 0.85065081 -1.37638192
0.61803399 1.0 -1.61803399
0.85065081 1.37638192 -1.17557051
0.32124407 1.40409289 -1.38756095
0.51978383 1.72533696 -0.86777713
0.0 1.70130162 -1.05146222
1.40409289 1.38756095 0.32124407
1.05146222 1.70130162 0.0
0.0 1.92387672 -0.54653306
0.52573111 1.90211303 -0.3249197
0.0 2.0 0.0
0.52573111 1.90211303 0.3249197
0.0 1.92387672 0.54653306
0.51978383 1.72533696 0.86777713
0.0 1.70130162 1.05146222
-0.51978383 1.72533696 0.86777713
-0.52573111 1.90211303 0.3249197
-1.0 1.61803399 0.61803399
-0.52573111 1.90211303 -0.3249197
-1.05146222 1.70130162 0.0
-1.0 1.61803399 -0.61803399
-0.51978383 1.72533696 -0.86777713
-1.40409289 1.38756095 0.32124407
-1.40409289 1.38756095 -0.32124407
-1.70130162 1.05146222 0.0
-0.32124407 1.40409289 1.38756095
-0.85065081 1.37638192 1.17557051
-1.37638192 1.17557051 0.85065081
-1.72533696 0.86777713 0.51978383
-1.61803399 0.61803399 1.0
-1.17557051 0.85065081 1.37638192
-1.38756095 0.32124407 1.40409289
-0.86777713 0.51978383 1.72533696
-1.05146222 0.0 1.70130162
0.32124407 1.40409289 1.38756095
0.0 1.05146222 1.70130162
-0.61803399 1.0 1.61803399
0.61803399 1.0 1.61803399
-0.3249197 0.52573111 1.90211303
-0.54653306 0.0 1.92387672
0.3249197 0.52573111 1.90211303
0.86777713 0.51978383 1.72533696
0.54653306 0.0 1.92387672
1.05146222 0.0 1.70130162
-0.86777713 -0.51978383 1.72533696
-0.3249197 -0.52573111 1.90211303
-0.61803399 -1.0 1.61803399
0.0 0.0 2.0
0.0 -1.05146222 1.70130162
0.3249197 -0.52573111 1.90211303
0.61803399 -1.0 1.61803399
-0.32124407 -1.40409289 1.38756095
0.32124407 -1.40409289 1.38756095
0.0 -1.70130162 1.05146222
0.86777713 -0.51978383 1.72533696
1.38756095 -0.32124407 1.40409289
1.17557051 -0.85065081 1.37638192
1.61803399 -0.61803399 1.0
0.85065081 -1.37638192 1.17557051
0.51978383 -1.72533696 0.86777713
1.0 -1.61803399 0.61803399
1.37638192 -1.17557051 0.85065081
1.72533696 -0.86777713 0.51978383
1.40409289 -1.38756095 0.32124407
0.86777713 -0.51978383 -1.72533696
0.54653306 0.0 -1.92387672
0.3249197 -0.52573111 -1.90211303
0.61803399 -1.0 -1.61803399
0.32124407 -1.40409289 -1.38756095
0.0 -1.05146222 -1.70130162
-0.32124407 -1.40409289 -1.38756095
0.0 -1.70130162 -1.05146222
-0.3249197 -0.52573111 -1.90211303
-0.86777713 -0.51978383 -1.72533696
-0.54653306 0.0 -1.92387672
-1.05146222 0.0 -1.70130162
1.90211303 -0.3249197 0.52573111
1.90211303 0.3249197 0.52573111
1.61803399 0.61803399 1.0
1.70130162 0.0 1.05146222
1.72533696 0.86777713 0.51978383
1.38756095 0.32124407 1.40409289
1.37638192 1.17557051 0.85065081
1.0 1.61803399 0.61803399
0.85065081 1.37638192 1.17557051
1.17557051 0.85065081 1.37638192
-1.38756095 -0.32124407 -1.40409289
-1.38756095 0.32124407 -1.40409289
-1.70130162 0.0 -1.05146222
-1.61803399 -0.61803399 -1.0
-1.61803399 0.61803399 -1.0
-1.90211303 -0.3249197 -0.52573111
-1.90211303 0.3249197 -0.52573111
-2.0 0.0 0.0
-1.72533696 -0.86777713 -0.51978383
-1.92387672 -0.54653306 0.0
-1.70130162 -1.05146222 0.0
-1.72533696 0.86777713 -0.51978383
-1.92387672 0.54653306 0.0
-0.32124407 1.40409289 -1.38756095
-0.85065081 1.37638192 -1.17557051
-0.61803399 1.0 -1.61803399
-0.86777713 0.51978383 -1.72533696
-1.17557051 0.85065081 -1.37638192
-1.37638192 1.17557051 -0.85065081
-1.40409289 -1.38756095 -0.32124407
-1.40409289 -1.38756095 0.32124407
-1.05146222 -1.70130162 0.0
-1.0 -1.61803399 -0.61803399
-1.0 -1.61803399 0.61803399
-0.51978383 -1.72533696 -0.86777713
-0.52573111 -1.90211303 -0.3249197
0.0 -1.92387672 -0.54653306
0.0 -2.0 0.0
-0.52573111 -1.90211303 0.3249197
-0.51978383 -1.72533696 0.86777713
0.0 -1.92387672 0.54653306
-1.72533696 -0.86777713 0.51978383
-1.37638192 -1.17557051 0.85065081
-1.61803399 -0.61803399 1.0
-0.85065081 -1.37638192 1.17557051
-1.17557051 -0.85065081 1.37638192
-1.38756095 -0.32124407 1.40409289
-1.70130162 0.0 1.05146222
-1.90211303 0.3249197 0.52573111
-1.90211303 -0.3249197 0.52573111
-1.17557051 -0.85065081 -1.37638192
-0.61803399 -1.0 -1.61803399
-0.85065081 -1.37638192 -1.17557051
-1.37638192 -1.17557051 -0.85065081
0.51978383 -1.72533696 -0.86777713
0.52573111 -1.90211303 -0.3249197
1.0 -1.61803399 -0.61803399
1.05146222 -1.70130162 0.0
0.52573111 -1.90211303 0.3249197
1.40409289 -1.38756095 -0.32124407
1.17557051 -0.85065081 -1.37638192
1.61803399 -0.61803399 -1.0
1.37638192 -1.17557051 -0.85065081
0.85065081 -1.37638192 -1.17557051
0.3249197 0.52573111 -1.90211303
0.0 0.0 -2.0
-0.3249197 0.52573111 -1.90211303
0.0 1.05146222 -1.70130162
1.78201305 -0.47735386 -0.77237477
1.68035577 -0.31286893 -1.03851698
1.82596499 -0.16464716 -0.7992141
1.61803399 0.61803399 -1.0
1.51587084 0.907981 -0.9368597
1.20300191 1.41421356 -0.74349607
1.0 1.61803399 -0.61803399
1.41421356 0.74349607 -1.20300191
1.29315558 1.02675088 -1.12850842
1.02675088 1.12850842 -1.29315558
1.12850842 1.29315558 -1.02675088
0.9368597 1.51587084 -0.907981
-0.74349607 1.20300191 1.41421356
-1.12850842 1.29315558 1.02675088
-1.29315558 1.02675088 1.12850842
-1.02675088 1.12850842 1.29315558
-0.907981 0.9368597 1.51587084
-0.16464716 0.7992141 1.82596499
0.0 0.5328094 1.92772253
0.16464716 0.7992141 1.82596499
-0.16448493 0.26614221 1.97537668
0.16448493 0.26614221 1.97537668
1.02675088 -1.12850842 1.29315558
1.12850842 -1.29315558 1.02675088
1.29315558 -1.02675088 1.12850842
1.12850842 1.29315558 1.02675088
1.02675088 1.12850842 1.29315558
1.29315558 1.02675088 1.12850842
-0.7992141 -1.82596499 -0.16464716
-0.5328094 -1.92772253 0.0
-0.7992141 -1.82596499 0.16464716
1.97537668 -0.16448493 -0.26614221
2.0 0.0 0.0
1.68035577 0.31286893 -1.03851698
1.82596499 0.16464716 -0.7992141
1.78201305 0.47735386 -0.77237477
1.92772253 0.0 -0.5328094
1.97537668 0.16448493 -0.26614221
1.03851698 1.68035577 -0.31286893
1.03851698 1.68035577 0.31286893
0.77237477 1.78201305 -0.47735386
0.7992141 1.82596499 -0.16464716
0.5328094 1.92772253 0.0
0.7992141 1.82596499 0.16464716
0.77237477 1.78201305 0.47735386
0.16448493 -0.26614221 -1.97537668
0.16464716 -0.7992141 -1.82596499
-0.16464716 -0.7992141 -1.82596499
0.0 -0.5328094 -1.92772253
-0.31286893 -1.03851698 -1.68035577
-0.47735386 -0.77237477 -1.78201305
-0.16448493 -0.26614221 -1.97537668
1.97537668 -0.16448493 0.26614221
1.97537668 0.16448493 0.26614221
1.92772253 0.0 0.5328094
-1.02675088 1.12850842 -1.29315558
-1.29315558 1.02675088 -1.12850842
-1.12850842 1.29315558 -1.02675088

CELLS 430 1720
3 0 1 2
3 1 3 2
3 4 5 6
3 4 7 5
3 8 9 10
3 10 9 11
3 11 9 12
3 9 13 12
3 5 14 15
3 5 7 14
3 15 14 16
3 17 18 19
3 17 16 18
3 19 18 20
3 11 12 21
3 12 22 21
3 19 23 24
3 19 20 23
3 24 23 25
3 26 27 28
3 26 25 27
3 28 27 29
3 29 27 30
3 27 31 30
3 27 25 31
3 30 31 32
3 25 33 31
3 33 34 31
3 33 35 34
3 31 34 32
3 25 23 33
3 23 36 33
3 23 20 36
3 33 36 35
3 32 34 37
3 34 38 37
3 34 35 38
3 37 38 39
3 29 30 40
3 30 41 40
3 30 32 41
3 32 37 42
3 37 43 42
3 37 39 43
3 42 43 44
3 45 46 47
3 45 44 46
3 47 46 48
3 29 40 49
3 40 50 49
3 40 51 50
3 49 50 52
3 51 47 53
3 47 54 53
3 47 48 54
3 52 55 56
3 55 57 56
3 56 57 58
3 48 59 54
3 59 60 54
3 59 61 60
3 54 60 62
3 61 63 60
3 63 64 60
3 63 65 64
3 60 64 62
3 61 66 63
3 66 67 63
3 66 68 67
3 63 67 65
3 62 64 57
3 64 69 57
3 64 65 69
3 57 69 58
3 58 69 70
3 69 71 70
3 69 65 71
3 70 71 72
3 65 67 73
3 67 74 73
3 67 68 74
3 73 74 75
3 72 76 77
3 76 78 77
3 76 75 78
3 77 78 0
3 7 79 80
3 79 81 80
3 79 82 81
3 82 83 84
3 83 85 84
3 83 86 85
3 87 88 89
3 89 88 90
3 0 2 77
3 2 91 77
3 77 91 72
3 92 93 94
3 91 94 72
3 10 95 92
3 10 11 95
3 92 95 93
3 72 94 70
3 94 96 70
3 94 93 96
3 70 96 58
3 11 21 95
3 21 97 95
3 21 98 97
3 95 97 93
3 98 28 99
3 28 49 99
3 28 29 49
3 99 49 52
3 93 100 96
3 100 56 96
3 100 52 56
3 96 56 58
3 90 101 102
3 101 103 102
3 101 104 103
3 102 103 105
3 104 106 103
3 106 107 103
3 106 108 107
3 103 107 105
3 104 109 106
3 109 110 106
3 109 111 110
3 106 110 108
3 105 107 112
3 107 113 112
3 107 108 113
3 112 113 39
3 20 114 36
3 114 115 36
3 114 116 115
3 36 115 35
3 116 117 118
3 117 102 118
3 117 90 102
3 118 102 105
3 35 119 38
3 119 112 38
3 119 105 112
3 38 112 39
3 111 120 121
3 120 122 121
3 120 123 122
3 121 122 124
3 123 125 126
3 125 127 126
3 125 86 127
3 126 127 128
3 124 129 130
3 129 131 130
3 129 128 131
3 130 131 68
3 111 121 132
3 121 133 132
3 121 124 133
3 132 133 134
3 124 135 133
3 135 136 133
3 135 61 136
3 133 136 134
3 124 130 135
3 130 66 135
3 130 68 66
3 135 66 61
3 134 136 137
3 136 59 137
3 136 61 59
3 137 59 48
3 48 46 137
3 46 138 137
3 46 44 138
3 137 138 134
3 44 139 138
3 139 140 138
3 139 108 140
3 138 140 134
3 44 43 139
3 43 113 139
3 43 39 113
3 139 113 108
3 134 140 132
3 140 110 132
3 140 108 110
3 132 110 111
3 90 88 101
3 88 141 101
3 88 142 141
3 101 141 104
3 142 143 141
3 143 144 141
3 143 123 144
3 141 144 104
3 142 85 143
3 85 125 143
3 85 86 125
3 143 125 123
3 104 144 109
3 144 120 109
3 144 123 120
3 109 120 111
3 86 145 127
3 145 146 127
3 145 147 146
3 127 146 128
3 147 148 146
3 148 149 146
3 148 75 149
3 146 149 128
3 147 150 148
3 150 78 148
3 150 0 78
3 148 78 75
3 128 149 131
3 149 74 131
3 149 75 74
3 131 74 68
3 7 4 79
3 4 151 79
3 4 152 151
3 79 151 82
3 152 153 151
3 153 154 151
3 153 147 154
3 151 154 82
3 152 1 153
3 1 150 153
3 1 0 150
3 153 150 147
3 82 154 83
3 154 145 83
3 154 147 145
3 83 145 86
3 7 80 14
3 80 155 14
3 80 156 155
3 14 155 16
3 156 157 155
3 157 158 155
3 157 116 158
3 155 158 16
3 156 89 157
3 89 117 157
3 89 90 117
3 157 117 116
3 16 158 18
3 158 114 18
3 158 116 114
3 18 114 20
3 152 159 1
3 1 159 3
3 152 160 159
3 160 161 159
3 160 6 161
3 159 161 3
3 6 160 4
3 4 160 152
3 162 163 9
3 9 163 13
3 13 164 12
3 12 164 165
3 162 166 163
3 166 167 163
3 166 15 167
3 163 167 13
3 15 168 167
3 168 169 167
3 168 17 169
3 167 169 13
3 17 168 16
3 16 168 15
3 13 169 164
3 169 170 164
3 169 17 170
3 164 170 165
3 15 166 5
3 5 166 162
3 165 170 19
3 170 17 19
3 41 171 40
3 40 171 51
3 42 172 32
3 32 172 41
3 42 173 172
3 173 174 172
3 173 45 174
3 172 174 41
3 45 173 44
3 44 173 42
3 41 174 171
3 174 175 171
3 174 45 175
3 171 175 51
3 51 175 47
3 175 45 47
3 53 176 51
3 51 176 50
3 53 177 176
3 177 178 176
3 177 55 178
3 176 178 50
3 53 179 177
3 179 180 177
3 179 62 180
3 177 180 55
3 50 178 52
3 178 55 52
3 62 179 54
3 54 179 53
3 55 180 57
3 180 62 57
3 73 181 65
3 65 181 71
3 73 182 181
3 182 183 181
3 182 76 183
3 181 183 71
3 76 182 75
3 75 182 73
3 71 183 72
3 183 76 72
3 99 184 98
3 98 184 97
3 99 185 184
3 185 186 184
3 185 100 186
3 184 186 97
3 100 185 52
3 52 185 99
3 97 186 93
3 186 100 93
3 126 187 123
3 123 187 122
3 126 188 187
3 188 189 187
3 188 129 189
3 187 189 122
3 129 188 128
3 128 188 126
3 122 189 124
3 189 129 124
3 3 190 2
3 2 190 191
3 6 192 193
3 192 194 193
3 192 162 194
3 193 194 8
3 3 195 190
3 195 196 190
3 195 8 196
3 190 196 191
3 162 192 5
3 5 192 6
3 191 196 10
3 196 8 10
3 8 194 9
3 194 162 9
3 165 197 12
3 12 197 22
3 22 198 21
3 21 198 98
3 165 199 197
3 199 200 197
3 199 24 200
3 197 200 22
3 24 201 200
3 201 202 200
3 201 26 202
3 200 202 22
3 26 201 25
3 25 201 24
3 22 202 198
3 202 203 198
3 202 26 203
3 198 203 98
3 24 199 19
3 19 199 165
3 98 203 28
3 203 26 28
3 81 204 80
3 80 204 156
3 84 205 82
3 82 205 81
3 84 206 205
3 206 207 205
3 206 87 207
3 205 207 81
3 84 208 206
3 208 209 206
3 208 142 209
3 206 209 87
3 81 207 204
3 207 210 204
3 207 87 210
3 204 210 156
3 142 208 85
3 85 208 84
3 156 210 89
3 210 87 89
3 87 209 88
3 209 142 88
3 191 211 2
3 2 211 91
3 191 212 211
3 212 213 211
3 212 92 213
3 211 213 91
3 91 213 94
3 94 213 92
3 92 212 10
3 10 212 191
3 118 214 116
3 116 214 115
3 118 215 214
3 215 216 214
3 215 119 216
3 214 216 115
3 119 215 105
3 105 215 118
3 115 216 35
3 216 119 35
3 8 195 161
3 161 195 3
3 6 193 161
3 161 193 8

CELL_TYPES 430
5
5
5
5
5
5
5
5
5
5
5
5
5
5
5
5
5
5
5
5
5
5
5
5
5
5
5
5
5
5
5
5
5
5
5
5
5
5
5
5
5
5
5
5
5
5
5
5
5
5
5
5
5
5
5
5
5
5
5
5
5
5
5
5
5
5
5
5
5
5
5
5
5
5
5
5
5
5
5
5
5
5
5
5
5
5
5
5
5
5
5
5
5
5
5
5
5
5
5
5
5
5
5
5
5
5
5
5
5
5
5
5
5
5
5
5
5
5
5
5
5
5
5
5
5
5
5
5
5
5
5
5
5
5
5
5
5
5
5
5
5
5
5
5
5
5
5
5
5
5
5
5
5
5
5
5
5
5
5
5
5
5
5
5
5
5
5
5
5
5
5
5
5
5
5
5
5
5
5
5
5
5
5
5
5
5
5
5
5
5
5
5
5
5
5
5
5
5
5
5
5
5
5
5
5
5
5
5
5
5
5
5
5
5
5
5
5
5
5
5
5
5
5
5
5
5
5
5
5
5
5
5
5
5
5
5
5
5
5
5
5
5
5
5
5
5
5
5
5
5
5
5
5
5
5
5
5
5
5
5
5
5
5
5
5
5
5
5
5
5
5
5
5
5
5
5
5
5
5
5
5
5
5
5
5
5
5
5
5
5
5
5
5
5
5
5
5
5
5
5
5
5
5
5
5
5
5
5
5
5
5
5
5
5
5
5
5
5
5
5
5
5
5
5
5
5
5
5
5
5
5
5
5
5
5
5
5
5
5
5
5
5
5
5
5
5
5
5
5
5
5
5
5
5
5
5
5
5
5
5
5
5
5
5
5
5
5
5
5
5
5
5
5
5
5
5
5
5
5
5
5
5
5
5
5
5
5
5
5
5
5
5
5
5
5
5
5
5
5
5
5
5
5
5
5
5
5
5
5
5
5
5
5
5
5
5
5
5
5
5
5
5
5
5
5
5
5
5
5
5

CELL_DATA 430
SCALARS cell_data_0 double
LOOKUP_TABLE default
1.8418936253e-08
6.79836927746e-08
8.32362101106e-08
1.22917734729e-08
6.79239157758e-08
1.61986648178e-08
2.80954146317e-08
6.85629115527e-08
8.07619525069e-08
3.49320411711e-08
2.57779104558e-08
3.5219868089e-08
1.7745018516e-09
2.55790714982e-08
3.15356339358e-08
9.05670701593e-08
2.56669500536e-08
1.53391981967e-08
4.84852367238e-09
6.731134576e-09
1.09464588654e-08
5.1973346826e-08
3.44757686362e-08
1.8922270853e-09
3.63083784513e-08
2.84670972612e-08
9.07916722937e-08
1.25804138963e-07
1.15589260708e-07
9.35467631364e-08
1.54438645567e-08
2.40090889707e-08
6.74202507857e-09
8.60744060774e-09
2.16548238679e-08
3.02686989393e-08
9.52118315253e-09
1.88317794103e-08
2.53329693736e-08
3.65984948017e-08
3.17354352489e-09
5.23137888791e-09
2.84646326165e-08
1.87648690997e-08
4.20979224817e-08
3.44823609923e-08
3.20970151764e-08
2.81195482657e-08
2.12551712109e-08
8.46618978547e-09
1.02255558353e-08
4.83289979461e-10
2.91848576798e-08
4.62153387454e-08
2.84957268906e-08
1.37136863413e-08
4.94602928039e-08
1.65457158686e-09
1.21422116296e-08
4.69765690664e-08
1.13185373654e-08
3.99505604282e-08
9.90021290279e-08
1.22846129838e-07
8.96960459969e-08
1.30386669572e-07
2.04277257658e-08
1.93113641499e-08
1.69698860572e-08
1.38911406066e-08
1.17165045373e-08
6.06262225648e-09
1.22713941768e-08
1.15322058368e-08
2.27230580536e-08
1.05752157962e-08
4.21466527192e-10
2.62114663463e-08
1.7426024381e-08
2.27874176239e-08
9.06234470036e-09
2.89354951403e-10
1.01277725581e-08
3.16236677869e-08
3.76751924512e-09
2.04312915326e-08
2.17647629057e-08
5.77324469669e-08
3.13208728805e-08
3.41922951507e-09
1.7750570073e-09
1.00182562672e-10
4.94800662124e-08
5.91242632537e-09
1.79744692806e-08
5.31835114877e-08
8.71978255651e-09
1.27492075787e-07
1.30268374835e-07
4.30921463614e-08
9.7882497482e-09
1.61969132126e-08
2.2596476185e-08
2.63703248312e-08
9.15725253655e-09
1.26203092479e-08
2.79003572032e-08
3.44678999511e-08
6.00217282696e-08
1.76598979481e-09
3.39546326679e-08
5.71248766252e-09
3.07386107686e-08
6.46329246209e-09
6.69986197486e-09
3.81900388343e-08
1.43141902546e-08
6.75879150728e-09
2.61595062842e-08
2.12046504405e-08
3.27359814189e-08
3.11781597768e-08
6.57621987757e-08
1.06301006936e-07
7.7063996637e-08
6.70503368676e-08
3.42914151544e-08
1.36011449579e-08
1.93141820067e-08
2.70668368005e-08
4.1059367109e-08
1.21209284491e-08
2.2555373119e-08
2.4212088668e-08
1.41611207529e-08
2.33731242157e-08
9.91060159227e-09
2.18550931071e-08
3.77047557801e-09
2.01502412313e-08
2.34633759393e-08
1.08604988387e-08
2.94275905961e-08
2.80304378512e-08
8.95135250373e-09
2.35469562358e-08
1.66762185923e-08
8.83407938984e-09
8.66570287254e-09
4.97271302744e-09
1.07436263086e-08
8.58397605843e-09
6.89749064187e-09
2.467392639e-08
2.8221019278e-08
3.45643411012e-08
1.76129040368e-08
3.09101153397e-08
3.15136788861e-08
2.40447913711e-08
3.69403221823e-08
7.15492710484e-08
7.33631300639e-08
6.51158670868e-08
6.47835439618e-08
2.15800969532e-08
2.6931934878e-08
2.01309840042e-08
2.08531973522e-10
2.7593564679e-09
6.77717527912e-08
1.29455518683e-08
3.50722264291e-08
2.68794459474e-08
4.01681323745e-08
3.60441243203e-09
1.26491023055e-08
3.92347989424e-08
1.03972362306e-07
8.95806103537e-08
5.72704827978e-08
8.1981826352e-08
5.44953301484e-09
1.38420952357e-09
1.67094712698e-08
4.16228846884e-08
4.6127735503e-08
7.8529763667e-09
2.50768789577e-08
4.14264800583e-08
2.64125401402e-08
4.38900347834e-09
2.94838274634e-08
5.49058515727e-08
2.64261417781e-08
6.61851544812e-08
7.30997971679e-08
4.81701108347e-08
4.84617299658e-08
4.59281403731e-08
1.42380181194e-08
5.58730820651e-08
2.69883685694e-08
2.54064121777e-08
1.44580977871e-08
1.42466709006e-08
8.99527536192e-09
1.15216379929e-08
1.68399605576e-08
6.89432854551e-09
8.50240470269e-08
6.87780588868e-08
2.82281020885e-08
9.10324681083e-08
5.00374028132e-08
2.55698038331e-08
3.93054750615e-09
4.83623114094e-08
4.53746046998e-08
1.77823544195e-08
4.25746793446e-08
6.96096227545e-09
6.77967347349e-09
2.14609665109e-08
1.22145064206e-08
1.39216040337e-08
5.93958353792e-08
7.04543327771e-08
5.41860159664e-08
1.00473416822e-07
2.66875688706e-08
2.51501456535e-08
1.18422532465e-09
4.9181484634e-08
2.39100454498e-08
2.47474306267e-08
4.30434332638e-08
9.34354701526e-10
2.96569166692e-08
1.45645325857e-07
1.1540431312e-07
9.36665736472e-08
3.29297082675e-07
4.39846819974e-07
2.88682873949e-07
2.86377793768e-07
8.59820259671e-08
1.02349144577e-07
5.29453662651e-09
8.32702115781e-08
4.34779776074e-08
8.98151052343e-08
5.59503480368e-08
1.49718219148e-08
5.87417551098e-08
4.64930345232e-08
5.23463433718e-08
1.70702952484e-09
2.11208290344e-08
3.91230059407e-08
2.88846916884e-08
4.48616443218e-08
3.13723863591e-08
4.82519244196e-08
2.67836032328e-08
3.74352770156e-09
4.24241537601e-08
4.15761232406e-10
2.46807326709e-08
4.22518753618e-08
2.67296245024e-08
1.64988969764e-08
2.59832682224e-08
1.85997448614e-08
1.06604363225e-08
1.66089327484e-08
2.36961375001e-08
2.18014687203e-08
2.05608627751e-08
2.16246421707e-08
9.58601978332e-09
6.43932104439e-09
2.35687294431e-09
2.2687290864e-08
3.04854977586e-08
4.47151235094e-08
1.40538150217e-09
3.28836052751e-09
4.014617895e-08
2.27675519082e-08
1.96759373639e-08
2.18028339033e-08
3.10945794168e-08
3.1236927772e-08
2.00284562066e-08
1.44934780575e-08
2.42021514159e-08
3.95997924738e-08
4.5464622476e-08
3.4685808871e-08
1.90796149495e-08
9.02671890696e-09
2.21303918476e-08
2.31165364556e-08
2.41717696516e-08
3.63667557193e-08
1.84501748244e-08
1.78081879085e-08
2.48396977287e-08
2.68636603438e-08
1.49010604564e-08
1.63129220186e-08
1.85565574144e-08
1.46167004975e-08
2.8215536967e-08
2.45908963898e-08
1.39177580982e-08
5.73521282913e-09
4.30978229387e-08
1.41621780767e-08
4.37098677433e-08
4.89075958121e-08
6.71989435769e-09
3.64423189586e-09
5.70035082979e-09
5.14404786246e-09
2.25545263572e-08
2.15822865372e-08
4.06302733148e-08
1.5774879876e-08
4.162904159e-08
4.18092160342e-08
8.27883957458e-09
1.12274363714e-08
6.74931231987e-09
5.30665348898e-09
1.03706146003e-08
2.56464226718e-09
4.03424048097e-08
1.34483907779e-08
4.8307491936e-08
4.66534822214e-08
5.18331008377e-09
1.65036836853e-08
3.66009577613e-09
2.90619924313e-09
5.1885902049e-08
2.54903615435e-08
2.14119299727e-08
1.44284564879e-08
2.83984983607e-08
2.95352675575e-08
4.00052348961e-08
7.53245102266e-10
2.99117143709e-08
3.49273287885e-08
8.88215458195e-09
1.31737733252e-08
1.19387195269e-09
2.74214407611e-08
1.97783841442e-08
7.17101415411e-09
5.32648425251e-09
2.21170705543e-08
9.49956509975e-09
1.20834808842e-08
2.51346403496e-08
1.53463398415e-08
2.8386857748e-08
2.0096056476e-08
3.50587186394e-08
1.41419302869e-08
2.97568006348e-08
8.79717543474e-09
1.5227005378e-09
9.53907899325e-09
1.8586576858e-08
2.29128013635e-08
1.95304220661e-08
1.86802493687e-08
3.88282967734e-08
1.04335414326e-08
2.37900154116e-08
2.33181920334e-08
1.48396883893e-08
2.11841228385e-08
2.40672879664e-09
1.30190467201e-08
3.36354109056e-08
1.55029713655e-08
1.13938340894e-08
2.93721559393e-08
2.57961594549e-08
2.20811766091e-08
3.07625043537e-08
1.93954501038e-08
2.00589175632e-08
2.18921152404e-08
1.99236479315e-08
2.61149388542e-08
4.14965132484e-08
4.00339162192e-08
3.55529048322e-08
2.89001954819e-08
1.83458769896e-08
3.28606826615e-08
7.81813543907e-09
1.92558598633e-08
1.21143003031e-08
1.96696938122e-08
3.48367023795e-08
3.57683350065e-08
2.48622536729e-08
2.29492712515e-08
1.90359461861e-08
7.57997404133e-09
8.29920823055e-09
9.30029665561e-09
4.17690108894e-08
1.57580274654e-08
4.01438713585e-08
4.04942436077e-08
9.86006244809e-10
3.27829764051e-09
1.50061239832e-08
1.99380034259e-08
2.48995768594e-08
2.19158553038e-08
1.75169847496e-08
2.48469232401e-08

