# vtk DataFile Version 3.0
File Name: Molecule/sphere_cent/sphere_cent_0-s24.vtk
ASCII
DATASET UNSTRUCTURED_GRID
FIELD FieldData 1
TIME 1 1 double
0.0
POINTS 513 double
-0.29043331742 -0.51848691702 0.80389177799
-0.060691379011 -0.54103159904 0.83868360519
-0.1357871443 -0.33984422684 0.93062192202
0.059598863125 -0.25250166655 0.96538680792
0.082702174783 -0.4189658463 0.9038952589
-0.62603503466 0.59085911512 0.50881326199
-0.50785183907 0.5020429492 0.6994959116
-0.43690085411 0.63772469759 0.63384211063
-0.32762444019 0.52913802862 0.78262901306
-0.20522999763 -0.97027248144 0.12055101991
-0.007288868539 -0.99962037802 0.026112670079
-0.0043513840064 -0.97223389149 0.2339079082
-0.49751296639 -0.79288107157 0.35173529387
-0.42151799798 -0.71209150553 0.56052958965
-0.62278681993 -0.63275700808 0.46007016301
-0.29312685132 -0.83835601807 0.45950305462
-0.19597156346 -0.70759034157 0.67875826359
0.18650397658 -0.9722289443 0.14072974026
-0.94348716736 -0.082499735057 -0.32095846534
-0.92754608393 0.14635927975 -0.34172913432
-0.86460894346 0.04874863103 -0.4999859035
-0.8322892189 0.27546426654 -0.48018160462
0.54317480326 -0.83406710625 0.095478869975
0.68390977383 -0.69868159294 0.20904256403
0.52339535952 -0.78697794676 0.32567089796
-0.31410774589 0.48187425733 -0.8177254796
-0.40535238385 0.30881455541 -0.86023324728
-0.5090059042 0.45470333099 -0.7299016118
0.34181550145 -0.52325022221 -0.77991455793
0.2407117635 -0.67493093014 -0.69746595621
0.11966422945 -0.54664677382 -0.82861143351
0.33652728796 -0.91403162479 -0.22582614422
0.32084140182 -0.84480404854 -0.42714500427
0.50904947519 -0.78154033422 -0.35654988885
0.21499493718 0.89665585756 -0.38677582145
0.043087363243 0.9626698494 -0.26539435983
0.2601108551 0.94661432505 -0.18900673091
0.81435054541 -0.043530087918 -0.5773832202
0.6991673708 -0.14848940074 -0.69926482439
0.7072211504 0.062070988119 -0.70427143574
0.85777390003 0.50986868143 -0.063136421144
0.94611412287 0.32303953171 0.0073309815489
0.90585690737 0.37811461091 -0.19076870382
0.81806242466 -0.50697892904 -0.2702896595
0.70294135809 -0.67094582319 -0.23593427241
0.67882394791 -0.58798712492 -0.43782237172
0.83409398794 -0.54797542095 -0.060209024698
0.91970187426 0.066321544349 -0.3868612051
0.97648924589 -0.054673586041 -0.20843079686
0.9127317071 -0.12907384336 -0.38602304459
0.97001183033 0.16802111268 -0.17554217577
0.93864005804 -0.24252298474 -0.24488310516
0.82203781605 0.15759402514 -0.54716867208
0.89072972536 0.26672399044 -0.36794370413
0.7853435874 0.34361597896 -0.51467472315
0.97506457567 -0.21620625257 -0.050265267491
0.99862754345 -0.031779251993 0.013805437833
-0.84584289789 -0.26710087061 0.46156948805
-0.73601001501 -0.16339454055 0.6554633379
-0.85086578131 -0.052325922996 0.52186512947
0.55554014444 -0.81705641747 -0.15399117768
0.69288885593 -0.72059994936 -0.023847959936
-0.58074206114 -0.48922047019 0.64985686541
-0.76102548838 -0.464276582 0.45291021466
-0.70936751366 -0.34578448534 0.61407119036
-0.58265322447 -0.28210738301 0.76104056835
-0.76085835695 0.15630331635 -0.62953722477
-0.56592613459 0.26850393414 -0.77916508913
-0.39001324773 -0.50679695606 -0.7686123848
-0.20194494724 -0.53982061148 -0.81705069542
-0.25709462166 -0.66110229492 -0.7047867775
-0.068902276456 -0.66461402178 -0.74384152889
0.82005083561 0.44021451473 -0.36569195986
0.55206179619 -0.022992096841 -0.8333427906
0.58203822374 0.21065582335 -0.78536581993
0.70457804203 0.26293033361 -0.65914148092
0.56781435013 0.42452976108 -0.70494407415
-0.83790498972 0.30915397406 0.44983902574
-0.81641948223 0.15481121838 0.55632346869
-0.72163504362 0.35819840431 0.59211778641
-0.73933386803 0.017827212811 0.67305040359
-0.68260639906 0.17686873674 0.70792222023
-0.92184728384 0.18551060557 0.33907493949
-0.42198580503 -0.65656906366 -0.62481105328
0.80776381493 0.54067891836 -0.23468483984
0.6914883256 0.59097135067 -0.41521796584
-0.16567601264 -0.2382799685 -0.95694589615
-0.30324044824 -0.36355161667 -0.88079935312
-0.35966396332 -0.17385144532 -0.91672468185
-0.49514999986 -0.30064341426 -0.81507110596
-0.56398397684 -0.075445644557 -0.82236903906
-0.31020650268 -0.17269927263 0.93368965387
-0.11557088792 -0.12933370471 0.98482084274
-0.25784364343 0.017664734274 0.96534562111
-0.039711203426 0.084269843996 0.99553847313
-0.870647192 -0.49138170481 0.021026263013
-0.88857239485 -0.38493016362 0.24934178591
-0.96106541157 -0.27106237411 0.05326699093
-0.95500081778 -0.16260267794 0.24790127575
-0.99748712778 -0.058752436191 0.037609122694
-0.78256344795 -0.55935156345 0.27308109403
-0.87766939402 -0.29021897912 -0.38134032488
-0.83732074499 -0.14511452615 -0.52698779106
-0.98481118679 -0.12602193654 -0.11943854392
-0.93779224157 -0.30661135912 -0.16266693175
-0.85051387548 -0.46056607366 -0.25376453996
-0.76210939884 -0.47024127841 -0.44485843182
-0.67529118061 -0.21895302832 -0.70431816578
-0.61499249935 -0.42057913542 -0.66726654768
-0.76938742399 -0.31211128831 -0.5571641326
-0.74381887913 -0.60834538937 -0.27702468634
-0.24020770192 -0.0074364882894 -0.97038722038
-0.86954432726 0.39996555448 0.28674483299
-0.56016629934 0.80865120888 -0.179773435
-0.45138522983 0.89158248901 -0.03446855396
-0.36699274182 0.90115374327 -0.23057228327
-0.55028706789 0.82251113653 0.14118768275
-0.65971672535 0.7513859868 -0.0086760213599
-0.69711905718 0.69850599766 0.16132947803
-0.84353798628 0.53647166491 0.001091516111
-0.70707178116 0.68717002869 -0.16694657505
-0.61530280113 0.71282982826 -0.33472147584
-0.60202342272 0.72690790892 0.33036708832
-0.44932237267 0.75649285316 0.475055933
-0.77367669344 0.46331173182 0.43222656846
-0.75503742695 0.58815926313 0.28408750892
-0.47219991684 0.81835252047 -0.32759708166
-0.78114181757 0.5664652586 -0.2607729733
-0.98753327131 0.11973576248 0.095822587609
-0.99040704966 0.066651783884 -0.11440075189
-0.94039702415 0.30372014642 0.15151429176
-0.96343040466 0.2651719451 0.0021707629785
-0.44333040714 -0.76107466221 -0.47336947918
-0.29277837276 -0.77477073669 -0.56026434898
-0.30494269729 -0.86199659109 -0.40464377403
0.95521301031 -0.23552571237 0.17547957599
0.89331287146 -0.25213998556 0.3711849153
0.87613868713 -0.40317076445 0.26338967681
0.91567033529 -0.38237112761 -0.12375867367
0.92749047279 -0.36937451363 0.057367291301
-0.3057538867 0.85870277882 -0.41128286719
-0.17785280943 0.93335342407 -0.31181830168
-0.22587880492 0.96476858854 -0.12878598273
-0.10447892547 0.86498421431 -0.49054697156
-0.42431274056 0.84420460463 0.32587814331
-0.27043506503 0.86719930172 0.41806185246
-0.24717950821 0.79215955734 0.55777668953
-0.071184933186 0.862619102 0.50039857626
0.36720791459 -0.89061230421 0.26823502779
0.18652045727 -0.91757619381 0.35105228424
0.32865712047 -0.81556910276 0.47617414594
0.12406772375 -0.82419830561 0.55246657133
-0.27947723866 0.77433764935 -0.56760674715
-0.44995945692 0.76572006941 -0.45952647924
0.22090047598 -0.70595985651 0.67259502411
-0.13826079667 0.70169842243 -0.69765037298
0.1533805877 -0.56066864729 0.81371277571
0.030503153801 -0.70339548588 0.7100417614
-0.0084922481328 -0.89666378498 -0.44237419963
0.15267515182 -0.93505865335 -0.319629848
-0.0080679915845 -0.97285926342 -0.23115077615
0.13985064626 -0.98332244158 -0.11582357436
-0.13523237407 -0.98356688023 -0.11206166446
-0.16487824917 -0.93673396111 -0.30864462256
-0.085425585508 -0.83642190695 0.5413082242
-0.74874049425 -0.043643213809 -0.66148555279
-0.78713178635 -0.60311484337 -0.12908414006
-0.71372538805 -0.70035433769 -0.0039245714433
-0.66593122482 -0.73214232922 -0.14308004081
-0.55372393131 -0.83226108551 -0.0096971401945
-0.15905432403 -0.85066747665 -0.50097513199
0.48753464222 0.8261487484 0.28210023046
0.45850223303 0.76886808872 0.44558677077
0.59607315063 0.71696895361 0.36141553521
0.55681544542 0.65207201242 0.51453691721
0.39987292886 0.68124443293 0.61304825544
0.68434852362 0.59261649847 0.42480117083
0.51855111122 0.56400191784 0.64265173674
0.64887088537 0.5138451457 0.56117683649
0.60363256931 0.42156693339 0.67669057846
0.7647985816 0.43714109063 0.4731913209
0.7153955698 0.35443902016 0.60209363699
0.81669294834 0.27159011364 0.50905388594
-0.45638123155 -0.38594385982 0.8016307354
-0.45328995585 -0.22856989503 0.86143273115
-0.33121547103 -0.33267325163 0.88284385204
0.36840590835 -0.924895823 0.094002783298
0.42594105005 -0.90310817957 -0.053527295589
0.2861495018 -0.95769333839 -0.029958549887
-0.14731816947 -0.9221971035 0.35634797812
0.017814610153 -0.90978550911 0.41468214989
0.72472172976 0.1503714174 0.67203271389
-0.1281440556 0.27739444375 0.95168304443
-0.32348275185 0.27765128016 0.90457367897
-0.22442555428 0.1637018621 0.9606616497
-0.39019873738 0.14245465398 0.90960752964
-0.50529205799 0.26198214293 0.82153022289
0.9010270834 0.39097717404 0.18732120097
0.87023115158 0.34852945805 0.34793817997
0.95413392782 0.24742548168 0.1686078608
0.72762513161 0.6292322278 0.27282318473
0.60440033674 0.76733142138 0.21375659108
0.78239792585 0.51096898317 0.35606610775
-0.39962476492 0.39545628428 0.82698333263
-0.23445224762 0.4010296762 0.88546824455
-0.6574947834 -0.69730198383 0.28531593084
-0.6292257309 -0.76384752989 0.14348600805
-0.74276518822 -0.65425115824 0.14210698009
0.15304753184 -0.26577591896 -0.95180600882
0.23399636149 -0.40377560258 -0.8842124939
0.015809206292 -0.38419660926 -0.92299842834
0.55088967085 0.66188889742 -0.50830340385
0.58730512857 0.72178649902 -0.36608657241
0.46176147461 0.77008593082 -0.44014841318
0.42008396983 0.68900626898 -0.59048610926
0.49671632051 0.82084822655 -0.28152242303
-0.1206837967 0.2866063118 -0.95018345118
-0.32134708762 0.17003466189 -0.93124145269
-0.23802365363 0.38013961911 -0.89354264736
-0.40311342478 0.001458113431 -0.91516053677
-0.47345075011 0.13189797103 -0.87085467577
0.49697062373 0.021811258048 0.86713188887
0.56848233938 0.18878534436 0.80072325468
0.42849090695 0.23768408597 0.87146568298
0.45910564065 -0.26478475332 0.84789025784
[...]
CELL_DATA 1022
SCALARS cell_data_0 double
LOOKUP_TABLE default
1.58240335695e-07
3.12250817341e-08
2.09800301349e-08
2.11805446487e-08
5.53823537818e-08
9.56084159728e-08
5.30974015708e-08
2.03505858359e-07
2.00164189044e-07
4.82561475306e-08
4.05554744565e-08
5.15238590925e-08
6.71071595049e-08
1.99630179619e-08
5.5653704377e-08
5.5948621332e-08
5.09816886062e-08
1.59418224311e-08
3.75699951146e-08
8.99126292545e-08
5.19367569679e-08
3.05389630655e-08
2.59674712115e-08
2.00671434121e-08
7.00825029937e-08
1.91732038852e-08
1.02698358537e-08
5.00375127546e-08
2.61613134194e-09
6.97743658777e-08
8.78207422728e-08
1.29253627772e-07
1.19514124709e-07
3.32376880308e-08
9.18369422859e-08
9.6630314749e-08
1.29751816685e-07
8.1558039524e-08
3.84932776994e-08
5.88851662819e-09
8.33057063992e-08
3.09734779764e-09
2.91613404452e-08
1.21842844884e-08
4.06617654265e-08
3.42418046459e-08
4.96984942764e-08
1.42097658303e-08
8.98240956767e-10
1.95118906095e-08
3.20565452364e-08
3.05140029547e-08
1.6025362616e-08
8.51123052461e-08
6.25265237452e-09
4.35085501809e-08
3.68783600957e-08
4.43870426554e-09
2.07026528851e-08
5.79877116713e-08
1.73633225215e-08
2.93948109692e-08
7.5392484137e-10
1.63757744957e-08
3.29576934807e-08
2.68370004421e-08
8.99896536884e-09
7.91261988488e-09
7.84340325507e-08
9.27554858875e-08
6.29495194708e-08
1.26896376068e-08
1.10906445469e-07
1.73878417312e-07
2.08526811069e-08
7.04464640178e-08
1.44983122143e-07
5.27586978214e-08
5.05381658587e-08
1.31193658514e-07
6.23387299692e-08
2.07190540984e-08
3.23209584596e-08
5.63893860511e-08
1.02134786477e-07
1.65272633925e-07
2.65061443192e-08
1.46137659364e-07
7.88856455977e-08
6.52445083157e-08
1.25954948106e-07
6.64896584821e-08
6.88938991056e-09
3.42847589518e-08
3.22173276403e-08
2.76112695932e-09
5.29304928736e-08
8.63974780391e-09
4.88562631733e-09
3.05001014593e-08
4.43754788298e-09
8.14715306615e-08
2.04657555392e-07
5.79368855189e-08
6.64568004288e-09
5.32586588599e-08
1.47839830932e-07
9.65460659203e-08
1.7909441725e-08
1.31918238353e-07
4.55930458885e-08
1.74292739629e-07
5.46600237604e-08
4.75888842661e-09
1.63533121798e-07
8.85917355365e-08
4.90020629749e-08
1.49430471854e-08
3.78769550729e-08
2.94250690609e-08
7.03761785527e-09
4.71655775083e-08
1.58602534206e-09
6.80528301443e-08
5.12836487193e-08
7.7263779142e-08
1.93167603962e-08
1.4130291615e-08
6.23035937221e-09
4.91835417122e-08
5.40034641365e-09
4.2985888622e-08
3.24817858556e-08
1.79617934172e-08
1.98982993169e-08
6.3157256787e-08
4.56398371917e-09
1.04528294957e-07
4.86806459384e-08
4.7105221806e-08
8.43710639134e-08
3.70823963586e-08
2.87493200296e-09
2.22529553543e-08
8.53090278674e-09
2.44932700378e-08
5.40471956149e-08
4.9807506796e-08
1.26912703622e-07
6.69458947602e-09
6.6084276319e-08
7.71937478046e-09
9.79418049256e-08
2.63919129411e-08
4.99507307754e-09
1.51047696834e-08
3.12297249421e-08
7.97677011524e-08
7.82031318647e-08
7.31687735419e-09
3.00709081944e-08
3.2520166263e-08
6.64577227172e-08
1.13257447488e-08
5.17389225236e-08
4.49448572012e-08
3.395006679e-08
1.63172068379e-08
7.35379394316e-08
1.55897525332e-07
7.42449076602e-09
4.72525092705e-08
1.00554877944e-08
5.34847909603e-08
2.74090583958e-08
5.38184492179e-08
1.99549633849e-08
2.19580676512e-08
3.35386560476e-08
3.12481304846e-08
3.87922224883e-08
6.8267731613e-08
4.28112965157e-08
2.9833834544e-08
1.37419763368e-08
3.18747484882e-08
1.99301911114e-08
3.67628355044e-08
3.28559952636e-08
1.14443492419e-08
2.03420176561e-08
7.35914614832e-09
1.76662668208e-08
3.57254874291e-08
2.65885952089e-08
3.52050871806e-08
2.21132104388e-08
3.87570460837e-08
4.9109998211e-08
3.32520131569e-09
1.7153632651e-08
1.82556614722e-08
9.72240947765e-09
3.90987901535e-08
4.57044170623e-08
4.96369847579e-08
2.73535360443e-09
7.35788433006e-08
2.53495401628e-08
8.02367667883e-09
2.37661051758e-08
1.540591632e-07
1.18694799116e-07
5.24341985556e-09
2.0220962544e-09
7.27209767217e-09
3.03447270284e-08
6.15734721244e-09
2.36190333883e-08
5.70474620713e-08
1.05524565523e-08
1.37712098953e-08
4.25836373402e-08
4.08903221804e-08
2.30657905043e-08
6.13541863366e-08
1.64079527331e-08
1.30866493337e-08
1.1303362451e-08
1.0631143835e-08
2.70529303628e-08
6.86400049478e-09
6.01988350548e-08
2.13358506339e-08
3.66592759442e-09
3.90433568216e-09
2.65368011967e-08
9.0321418271e-08
2.59352491201e-08
1.9360239902e-08
4.39927239955e-09
3.8645536308e-09
3.11792298534e-08
2.65429465279e-08
7.61934555863e-08
7.78848223249e-08
5.91619074071e-08
6.84305359258e-08
5.12796702778e-08
2.68512710514e-08
2.87727393306e-08
1.91987406458e-08
6.38324185617e-08
2.94848938422e-08
3.5665877654e-09
3.08189763073e-09
1.54195024639e-08
9.07652381483e-08
2.37270078769e-08
3.50133843621e-09
4.6604704949e-08
1.84967528848e-08
2.99341104131e-08
7.1509873195e-08
4.25702204062e-08
1.03068820427e-09
9.44183103491e-10
1.08734123984e-07
6.37780541844e-08
3.35070976526e-08
2.29779397982e-08
3.53388778648e-08
3.61988683451e-08
2.55297246966e-08
1.23183713406e-08
1.32354639548e-08
1.53833823761e-08
1.70956452522e-08
4.35405156775e-08
8.05387170566e-10
1.77248277457e-08
2.17993192271e-08
6.54753987387e-09
2.19212118375e-08
1.32922136136e-08
2.29059246124e-08
3.91788555473e-08
2.76398052837e-08
6.2676299898e-08
2.21891614203e-09
2.33756134649e-08
6.2390211736e-08
3.17717293237e-08
2.20964778497e-08
6.11418881654e-09
2.38553392662e-08
6.13609406342e-09
6.92841106667e-08
3.10941122839e-08
2.96687908903e-08
3.6765257219e-08
7.1082845423e-09
4.70947500103e-09
1.86042096605e-08
2.42312603974e-08
4.90999864164e-09
2.03208651854e-08
2.52628400806e-08
3.42538806175e-08
3.35430136338e-08
2.91126226292e-08
1.10958887228e-08
2.86381809255e-08
2.10838281265e-08
3.41589647341e-08
2.51355969604e-08
3.09056108648e-08
2.11011160741e-09
1.6317673374e-08
3.10259853652e-08
2.59265858036e-10
4.02912875893e-09
1.87616566138e-08
5.48916686441e-08
3.42741724049e-08
2.33027365305e-08
1.79515729722e-08
4.80274481451e-08
2.34200379121e-08
3.65918282147e-08
1.78074970763e-08
6.45759423659e-09
1.40588207569e-08
2.0714667604e-10
1.07373616874e-08
7.80718345561e-08
9.51134349091e-09
1.6332664763e-08
4.46033025809e-09
1.15641937069e-08
2.59652214412e-08
2.20899511805e-08
6.70677180148e-09
3.6224071411e-08
3.98816798512e-08
6.42644629798e-08
4.99413338374e-08
9.30678076993e-09
9.80920582592e-09
1.14587979492e-08
1.51883637888e-09
9.66110086694e-09
5.55932433012e-09
1.02582318764e-08
4.02787036098e-08
2.1970971061e-08
1.2241546358e-08
1.97691479105e-08
2.29216136887e-08
2.75435538949e-08
9.24065785262e-10
9.865260672e-10
2.12093445481e-08
7.15220021598e-08
4.2692045108e-08
7.66882572647e-08
2.15352126507e-08
9.34328858583e-09
4.83457122348e-08
1.91565973494e-08
6.54788052316e-09
2.75775960454e-08
3.89247232053e-09
1.95339805261e-10
7.33846502362e-09
2.73559702863e-08
1.72601697299e-08
1.23852375469e-08
2.34606046638e-08
1.46671991006e-08
3.16962325091e-08
2.07705732587e-08
4.08514750742e-09
3.0921809979e-08
2.50877847884e-08
3.68725274736e-08
1.44096447583e-08
1.57649244242e-08
3.7425542989e-10
1.07649126623e-08
1.11725031686e-08
4.27884464189e-08
1.37746320991e-07
2.8735891619e-08
7.4347476009e-08
3.56193430684e-08
1.58810787469e-08
9.967290259e-09
2.32721453573e-08
1.03038594219e-08
6.63893329522e-09
5.1196896138e-08
4.12062097097e-08
3.22408407593e-08
2.99443334401e-09
5.11961876851e-08
1.13603845164e-08
2.74814699236e-08
3.41383988123e-08
2.18097714313e-08
5.59269333545e-09
1.75527310531e-08
3.02080675609e-08
7.49911576386e-09
1.29996597006e-08
1.57709082565e-08
2.61537329961e-08
2.69078029732e-08
2.9334669698e-08
2.21546283728e-08
1.42263731306e-08
4.10495364471e-09
1.98320185296e-08
1.39838547484e-08
5.13536001588e-09
5.19768203059e-09
1.3439788599e-08
3.35824501333e-08
7.15924740081e-09
1.14017097762e-09
4.06966231771e-08
1.34234719829e-08
6.12419822595e-08
6.37578106207e-09
2.01132137241e-09
1.58191552977e-08
4.24971799527e-09
3.56406539149e-09
1.16995079719e-09
3.08690078099e-08
1.09534804453e-08
1.15577664809e-08
1.75277080421e-08
7.15845407524e-09
3.47525198341e-08
1.18921045379e-08
1.89882967992e-08
1.70413372826e-08
1.2728130464e-08
2.08063612526e-08
1.66595189267e-08
1.899928424e-08
1.53576064542e-08
2.36179943119e-08
1.54994789292e-08
1.41460863689e-08
6.23787048075e-09
2.37783988868e-08
3.30616157417e-08
7.61128640693e-09
9.71786051408e-09
1.52287107619e-08
3.39563417682e-08
1.42959867739e-08
3.16045808834e-09
1.99353194587e-08
3.05636760498e-08
4.28426054952e-08
4.08782756925e-09
2.39274544962e-08
2.29010259876e-08
1.62440550797e-08
1.09530177482e-08
1.80544288194e-09
8.16483901458e-09
4.21073126971e-08
3.86473812003e-08
1.46532792287e-08
4.30805783272e-08
1.44545176003e-08
1.79515493671e-08
4.8765111822e-10
4.69547860334e-08
3.4170592602e-08
2.95510878135e-08
6.94854098256e-09
9.64448026659e-09
4.89649124173e-08
1.09494283158e-08
1.72509069966e-09
1.67558899157e-08
5.55215499552e-08
4.49554485232e-08
2.34185064959e-08
8.10594147452e-09
3.38067685456e-09
7.51651265298e-09
1.49069740891e-08
5.80530124639e-09
9.41935639419e-09
1.58688700228e-08
1.65366942094e-08
9.79002896124e-10
1.11782384182e-08
1.52566874608e-08
8.885270609e-09
4.58155561467e-09
8.15332253319e-09
2.16578563859e-08
4.92061369175e-09
2.85520624637e-08
4.03598561679e-08
2.30784049779e-08
2.96823047761e-08
4.47071362501e-09
1.31458817141e-08
2.56236837222e-08
5.35002970888e-09
1.34312250679e-09
4.7466060203e-09
2.4782537644e-08
2.57291441162e-08
1.4252039191e-08
5.52332398259e-08
2.85196436769e-08
3.87902478678e-08
3.57972230353e-08
1.47719986725e-10
4.25069155445e-08
4.46791194254e-08
1.00685173209e-08
9.38675680576e-09
4.00269467862e-09
4.27139322453e-09
2.12423651e-08
7.89940025024e-09
4.44380614518e-09
1.54627076182e-08
1.50209611963e-09
4.77945474716e-08
1.42784038915e-09
3.69629649493e-09
1.56638786849e-08
2.31569149041e-08
1.18964105403e-08
1.60542740282e-08
1.23923478683e-08
2.76003664607e-08
3.22760412078e-08
4.74292922237e-09
2.9669464688e-08
6.06788219354e-09
2.4115347891e-08
4.4825497491e-10
4.29291224439e-09
9.72685361052e-09
1.20103218539e-08
1.28508163522e-08
4.97266414568e-09
2.47753400661e-08
1.52385203327e-08
5.75215500186e-08
2.43485906927e-08
9.25070514297e-10
1.66109910939e-08
2.27823774413e-08
8.27251955541e-09
1.08947217667e-08
6.23704441079e-09
1.48153436952e-08
3.01181791185e-08
1.23128445165e-08
1.66251751062e-08
2.24087341535e-08
3.05749115466e-08
6.02202921114e-09
6.80482474657e-09
1.35075859572e-08
1.71959322331e-08
5.80463544945e-09
1.80039203737e-08
3.86535790951e-09
6.58061150825e-09
6.42524851455e-09
4.70809973977e-09
1.44279340129e-08
2.45672329696e-08
1.40286630554e-08
2.92994375536e-08
3.84978546726e-08
2.58366430936e-08
2.94775081207e-08
2.2996546192e-08
7.09777882263e-10
1.97000848722e-08
2.55199209784e-08
7.85899303957e-09
1.18763548504e-08
2.31248532616e-09
1.34042201729e-08
1.71082022725e-08
6.44211460865e-09
2.11725987348e-08
2.22462037159e-08
1.40004220047e-08
1.31123640233e-08
3.01204221223e-08
2.74152101722e-08
1.65704435981e-08
1.00385246489e-08
5.07096148927e-09
1.57515818008e-09
9.71916918581e-09
1.12040687607e-08
2.96778678701e-09
1.8409513873e-08
1.81491442409e-08
2.88138258769e-08
8.83352514482e-09
5.86331516406e-09
2.29909977687e-08
3.43884511751e-09
6.28223274103e-09
8.60825719542e-09
1.14390394328e-09
1.10125941874e-08
8.55595737125e-08
2.86311909094e-08
1.54056482799e-08
3.62404940635e-08
8.15113114518e-09
1.27802660592e-08
3.95806289373e-08
1.59976540339e-08
4.57476412792e-09
2.24176070231e-08
1.54134250424e-08
1.86318732207e-08
2.35581964044e-08
1.37888868504e-09
1.60163597176e-09
3.10718852117e-09
5.75335887715e-09
1.99777827388e-08
3.78671048365e-08
5.06360906836e-08
2.99274387652e-09
4.75323943631e-09
2.05092114121e-08
1.50546698936e-08
1.1273017071e-09
1.00026378256e-08
7.79546066936e-09
7.43955925404e-09
2.0321701137e-08
1.27766643194e-08
6.28950375117e-10
1.45214773392e-08
2.14642174406e-08
2.55996517882e-08
1.85657522727e-08
3.90770808438e-08
1.26024758266e-08
2.32631916511e-08
2.40693574429e-08
6.43286002649e-10
7.71296625241e-09
2.5972722347e-08
2.48005840207e-08
3.1391322941e-08
7.59902266878e-11
2.00691730343e-09
1.51067094707e-08
2.1091157259e-08
1.966380312e-08
4.19468068107e-09
2.49442580857e-08
1.38094639341e-08
1.39512497397e-08
2.41619228061e-08
1.19230992804e-08
9.8969678059e-09
2.10107604614e-09
8.32410155509e-09
3.08933115773e-08
9.67533448623e-09
5.08468692484e-08
1.92575093899e-08
1.69290792371e-10
6.96549155496e-09
1.18555565281e-08
1.55384381997e-08
8.91698330881e-09
2.22884164867e-08
1.16126381237e-09
9.22579000712e-09
1.83368553119e-08
4.84269828282e-08
6.3344385927e-08
8.60440772711e-09
1.36863914404e-10
1.21227522302e-08
4.37912901909e-08
1.34307409534e-08
9.53940443012e-09
2.32892910971e-08
2.5164735884e-08
1.05347805652e-08
4.68954120019e-09
1.97042852686e-08
1.84902079521e-08
2.44693312771e-08
5.36969235032e-09
3.09130337768e-08
1.78252554314e-08
1.88585647374e-08
7.14337442042e-09
2.7578782902e-08
7.93360875604e-09
1.70737617632e-08
1.14334413555e-08
2.5826564318e-08
3.71593892214e-09
2.2648339762e-08
4.0225380692e-09
1.76213643282e-08
1.78592778419e-08
2.55750485607e-08
5.91672049886e-09
1.3000003521e-08
1.13078559178e-08
1.50849623458e-08
5.64306737354e-09
1.70873306141e-08
7.3489896746e-09
3.70260960001e-08
7.78049438213e-09
8.60406982561e-08
4.19291849707e-08
2.231424708e-08
2.90148652491e-09
2.42816901489e-08
8.94951344065e-09
2.11788213812e-08
9.30412318127e-08
8.2662051048e-09
1.9037731536e-09
1.02173598483e-08
1.95982781623e-08
1.45905381504e-08
1.99662670793e-08
2.19038337152e-08
9.34947088036e-09
7.59290942258e-09
5.04589373337e-09
8.09398976337e-09
2.5006507571e-08
3.55435325235e-08
2.90875368645e-08
7.95769215088e-09
2.82946920073e-08
2.42458731467e-10
9.96258311778e-09
7.9741453914e-09
1.92197983662e-09
5.15585279636e-09
4.34939540661e-09
2.23892249274e-08
7.89632813768e-09
1.9111983405e-08
2.81897151081e-08
2.6046672901e-09
1.15769978325e-08
2.8743984193e-08
1.56284547344e-08
9.92179318681e-09
3.11707162148e-08
4.96904085853e-08
9.61572561653e-09
1.53842507818e-08
8.46647710961e-09
2.73447332993e-08
9.4957896193e-10
3.69421646926e-08
5.13209345462e-08
6.1923690555e-09
1.1197822683e-08
5.69213933193e-09
1.56829246255e-08
3.4794381581e-10
6.99703355125e-09
7.02614682192e-09
2.90541458456e-08
2.46410765017e-08
7.58992179269e-08
4.39609105508e-09
1.13825206215e-08
7.56289693526e-09
2.48703173292e-08
1.92047654401e-08
2.48919646949e-08
1.05730737511e-08
2.11680987544e-08
6.21973871036e-09
9.78460289427e-09
9.74480681106e-09
1.71800197986e-09
7.99210616814e-09
5.15845106699e-09
2.40649630203e-10
4.38082507618e-09
6.03233211777e-09
1.00663537472e-09
7.54623683827e-09
3.17955822768e-08
2.29892790801e-09
1.67087262327e-08
8.34589753235e-09
6.868235614e-09
2.74686673524e-08
1.74676492629e-08
7.99021398791e-09
1.22717871682e-08
1.53683856464e-08
1.06464488958e-09
8.06205471203e-09
6.82938822529e-09
1.27570340572e-08
3.01396679652e-08
2.368972723e-08
3.70227226196e-08
7.29935173841e-09
7.53313269183e-09
1.29695858667e-08
3.54164856115e-08
8.35575985225e-09
5.17790496251e-09
1.86455170094e-08
9.58865009181e-10
8.72098853535e-09
1.93578394038e-08
8.57430559903e-09
1.20197843191e-08
2.53143859026e-08
1.04012579802e-09
3.35932527771e-08
3.54702328644e-09
1.71670345049e-08
5.70753985662e-08
1.52537749468e-08
1.11157343858e-08
1.53218335383e-08
1.45012755917e-08
1.01066723777e-08
1.81415107185e-08
1.59707741372e-09
1.15974328468e-08
1.41257914443e-08
1.21316578574e-08
1.88638310438e-08
6.168550003e-08
3.9800236372e-08
2.27982492429e-08
1.82716291574e-09
8.50832078031e-09
2.11600457346e-08
6.33324688477e-09
4.12422152464e-08
4.13627482461e-09
6.25685183444e-09
1.96770561174e-08
6.49023609887e-10
2.47921347329e-08
5.97110907697e-10
6.01358835127e-09
3.64527182948e-09
4.32743239898e-10
9.60109551753e-09
9.81233825884e-09
1.18951448844e-09
2.56930559384e-08
7.76329507148e-09
1.99198590242e-09
2.15456185572e-08
2.49146782148e-08
3.06502146737e-09
6.51184349332e-09
2.25448092731e-08
1.58251586069e-08
1.87550047671e-08
1.03315577138e-08
1.28607362392e-08
1.20522048311e-08
1.97557496895e-08
1.22966442616e-08
3.13948046144e-09
4.1349141154e-08
3.47969559423e-09
3.65936306168e-08
9.08068002225e-09
1.94718040337e-08
3.15543672937e-08
2.94425034392e-08
1.59349284766e-08
6.17544351693e-08
4.29494814923e-08
1.75970374682e-08
2.17408783078e-08
2.3618928429e-08
1.98075436619e-09
1.40808558447e-08
1.72988806927e-08
1.05990152874e-09
1.6820876089e-08
1.01203956277e-08
1.31726781824e-09
1.00554747364e-08
4.73174900082e-09
2.12878955837e-10
2.17450010993e-08
4.52605458923e-08
1.79794535723e-08
8.71337496837e-09
1.83702427819e-08
7.63900232233e-09
1.74122691206e-08
2.08448233415e-09
4.63337297886e-09
1.29888262875e-08
5.07237476724e-09
1.04879191706e-08
7.00587658404e-09
5.8679549441e-09
5.35575674862e-09
1.08711221137e-08
9.46954552615e-09
9.84920070568e-10
1.50271842374e-10
2.15486414289e-08
2.61299347721e-08
1.06852160423e-08
1.78917767262e-09
4.46131963912e-09
3.02059178716e-08
1.51264277986e-08
7.81755479123e-09
7.03629977467e-09
1.06245667013e-08
3.73004722613e-08
4.21113016834e-08
2.88301922896e-09
1.40750908712e-08
1.32578485949e-08
3.20028841513e-08
3.0010453093e-09
1.64199873888e-08
4.62555730888e-09
3.94310652211e-09
1.15275991652e-08
4.39463860259e-09
2.64017080429e-08
5.87833152353e-08
1.07173265628e-08
2.85947221519e-09
1.06191867788e-08
2.42972896541e-09
1.37236410605e-08
5.91947603962e-09
1.64948854764e-09
2.37004089118e-09
1.33652841219e-08
2.05788547581e-08
2.25762699436e-08
4.3410507533e-09
6.14113163234e-09
3.71768926597e-09
4.24977157852e-10
1.01215786502e-08
5.3131675081e-09
3.48377996347e-08
1.40767250246e-08
1.36086733447e-08
3.57667413753e-09
3.38095161012e-09
2.5061106548e-09
3.90807985838e-09
1.80428866479e-08
4.4788839569e-09
1.76754965571e-09
2.51414655235e-09
4.12609719356e-09
5.32775655755e-09
3.50681994108e-08
4.41723335151e-09
2.58584432504e-08
2.95104842829e-08
1.50128439768e-08
2.07690086501e-08
1.31746039057e-08
1.15609633534e-08
2.51836478984e-09
1.77095813484e-08
2.4781585497e-08
1.37202199052e-08
7.08772135317e-09
1.46721154073e-08
6.61783282237e-09
1.45014036724e-09
1.17326489377e-09
5.14159264577e-09
4.03112589877e-09
6.74063427502e-09
1.1571929392e-08
9.0850021348e-09
1.40844757657e-08
7.33480766136e-09
2.24637930946e-08
1.31446001083e-08
4.92534596475e-09
7.55117334455e-10
1.3217514209e-08
6.5724905314e-09

