# vtk DataFile Version 3.0
File Name: Molecule/sphere_cent/sphere_cent_0-s27.vtk
ASCII
DATASET UNSTRUCTURED_GRID
FIELD FieldData 1
TIME 1 1 double
0.0
POINTS 686 double
-0.59619826078 0.58827608824 0.54566890001
-0.49600374699 0.50845062733 0.70378488302
-0.44841751456 0.63433563709 0.6297134757
-0.33630239964 0.52773571014 0.77997422218
-0.49999588728 -0.78759860992 0.36000221968
-0.45153421164 -0.70327395201 0.54867434502
-0.6025800705 -0.65333205462 0.45711037517
-0.86506062746 0.070841215551 -0.49574711919
-0.91965925694 0.14437164366 -0.36503431201
-0.84196710587 0.25996348262 -0.47268804908
-0.32230892777 0.4711380899 -0.82099449635
-0.40817067027 0.31392639875 -0.85719823837
-0.48843026161 0.45956930518 -0.7415997386
0.31751447916 -0.52317678928 -0.79050678015
0.24508404732 -0.67129546404 -0.69949442148
0.12104020268 -0.56771069765 -0.81340223551
0.81042712927 -0.017054168507 -0.58552706242
0.70137166977 -0.12855027616 -0.70013970137
0.71883058548 0.066269420087 -0.69095444679
0.81518369913 -0.51694965363 -0.2607768774
0.70831763744 -0.66363608837 -0.23887251318
0.69877195358 -0.57918047905 -0.41944202781
0.92261654139 -0.1297737509 -0.36308386922
0.97353792191 -0.071892097592 -0.21234929562
0.94155615568 -0.23846414685 -0.23773895204
0.82276248932 0.16014505923 -0.54532557726
0.91325426102 0.062754206359 -0.40113386512
0.89243912697 0.26192814112 -0.36723858118
0.7908577323 0.33501622081 -0.51195132732
0.97475492954 -0.21718123555 -0.051947843283
-0.83964061737 -0.23277333379 0.49025967717
-0.75325912237 -0.15681223571 0.63860458136
-0.84209161997 -0.051779434085 0.53679907322
-0.71465480328 -0.33753424883 0.61264503002
-0.58169639111 -0.46765229106 0.66511642933
-0.57837533951 -0.305462569 0.75619363785
-0.56083971262 0.27617025375 -0.78039270639
-0.37983721495 -0.52031654119 -0.76480615139
-0.20797641575 -0.53653669357 -0.81782048941
-0.26002383232 -0.65773105621 -0.70692819357
-0.075560793281 -0.6591296196 -0.74819380045
0.82215213776 0.43432238698 -0.36799275875
0.5766196847 0.2224265784 -0.78536218405
0.57568484545 0.41464522481 -0.70458763838
0.70597755909 0.26065343618 -0.65852200985
-0.83814299107 0.30719265342 0.45060747862
-0.8179371953 0.15497235954 0.55400913954
-0.73432022333 0.34600073099 0.58382719755
-0.74361646175 0.018954217434 0.66827732325
-0.69901049137 0.18097952008 0.6914755106
-0.9162966013 0.20264238119 0.34543037415
-0.4092746675 -0.66164082289 -0.62824732065
0.86002653837 0.50467187166 -0.074599154294
0.89705818892 0.38709291816 -0.20873202384
0.80855888128 0.53784751892 -0.23849873245
0.69671028852 0.58671307564 -0.41260203719
-0.17768083513 -0.24918629229 -0.95162057877
-0.30657243729 -0.36540210247 -0.87890291214
-0.33981537819 -0.1712000072 -0.92456781864
-0.29536095262 -0.19417409599 0.93525338173
-0.14654740691 -0.31244403124 0.93795496225
-0.11442363262 -0.15310920775 0.98125433922
-0.99694025517 -0.06619348377 0.041726872325
-0.96371012926 -0.26182463765 0.051013212651
-0.9632139802 -0.14349481463 0.22607401013
-0.98275774717 -0.15020053089 -0.10420898348
-0.94610238075 -0.28898271918 -0.14534194767
-0.77205401659 -0.49054417014 -0.40208220482
-0.74593579769 -0.60899037123 -0.26937934756
-0.83371210098 -0.48957017064 -0.2547749877
-0.87657231092 0.37757709622 0.29780822992
-0.68830990791 0.69780951738 -0.19646543264
-0.56985914707 0.80124258995 -0.18034774065
-0.59985858202 0.72704327106 -0.33383780718
-0.79442071915 0.43453764915 0.42407891154
-0.47008320689 0.82129245996 -0.32316181064
-0.98968470097 0.11985246092 0.077096387744
-0.99331486225 0.064332202077 -0.092960871756
-0.94163376093 0.29365411401 0.1637378633
-0.96387624741 0.26485231519 0.022248443216
-0.43420952559 -0.76109880209 -0.48183134198
-0.29533341527 -0.77166324854 -0.56328201294
-0.30063012242 -0.85881018639 -0.41477644444
0.95003008842 -0.25381812453 0.18141569197
0.88912111521 -0.26713806391 0.37146010995
0.88020354509 -0.40054580569 0.25455060601
0.8392329216 -0.54001182318 -0.059373922646
0.9145488143 -0.38414883614 -0.1265642345
0.9263150692 -0.37312471867 0.052361842245
-0.35804221034 0.90090787411 -0.2428317368
-0.3087721169 0.85906893015 -0.40821781754
-0.20051619411 0.93392789364 -0.29486060143
-0.24131451547 0.9589369297 -0.14820098877
-0.41563227773 0.84297740459 0.34135249257
-0.44828599691 0.7538151145 0.48029914498
-0.26865777373 0.86827880144 0.41701629758
-0.24240604043 0.79794061184 0.55183833838
-0.08398476243 0.86385792494 0.49661555886
-0.31236442924 0.76589226723 -0.56120336056
-0.44761928916 0.77000522614 -0.45458704233
-0.56623548269 0.75449305773 0.32979357243
0.14970992506 -0.56508159637 0.81134873629
0.060022100806 -0.70801985264 0.70349431038
0.20607881248 -0.71267098188 0.67043286562
0.099557831883 -0.81899625063 0.56477725506
-0.0036251563579 -0.90008693933 -0.43562152982
0.15749420226 -0.93537825346 -0.31652250886
0.0017608263297 -0.9717451334 -0.23554964364
0.15583862364 -0.97748953104 -0.1393199116
0.31897294521 -0.92219924927 -0.2187385112
-0.037149831653 -0.99889039993 0.01617914997
-0.10793692619 -0.98606407642 -0.12454380095
0.052382268012 -0.99644970894 -0.061460219324
-0.1622825712 -0.93589425087 -0.31255629659
-0.76644444466 -0.30212402344 -0.56663274765
-0.66972202063 -0.23483993113 -0.70343524218
-0.62937003374 -0.40694594383 -0.66176527739
0.3239980042 -0.85084974766 -0.4131757617
-0.86035573483 -0.28816208243 -0.41964584589
-0.83287072182 -0.16580277681 -0.52757114172
-0.78672927618 -0.60411417484 -0.12677243352
-0.85053616762 -0.52496540546 0.015223774128
-0.71569383144 -0.69834893942 -0.00025635852944
-0.67197668552 -0.72707098722 -0.14056120813
-0.56797850132 -0.82294821739 -0.0011105755111
-0.15963587165 -0.85213923454 -0.49833714962
0.48981723189 0.8217664361 0.29103219509
0.46153214574 0.76551473141 0.44824019074
0.59613209963 0.71491605043 0.36538517475
0.55784469843 0.65049004555 0.51542174816
0.40636575222 0.67761307955 0.61292409897
0.68311393261 0.59141504765 0.42845505476
0.52134639025 0.56315523386 0.64113348722
0.6495911479 0.5125579834 0.56151217222
0.60342520475 0.42315423489 0.67587053776
0.76471465826 0.43257841468 0.47756272554
0.7134039402 0.35392019153 0.60478568077
0.81332290173 0.27554690838 0.51239746809
-0.45585715771 -0.39123353362 0.79941064119
-0.44963353872 -0.24378919601 0.85921210051
-0.32675042748 -0.33956778049 0.88196069002
-0.31708449125 -0.50226396322 0.80438643694
0.35783237219 -0.92754799128 0.10257548094
0.20220552385 -0.97119516134 0.12402492762
0.28718009591 -0.95723801851 -0.034351602197
0.42155569792 -0.90388053656 -0.063162654638
-0.13771803677 -0.91646039486 0.37543106079
0.02113622427 -0.91075921059 0.4124044776
-0.063027322292 -0.84976834059 0.52302777767
-0.029966138303 -0.96677523851 0.25218471885
0.72786855698 0.16132204235 0.66637676954
-0.14648142457 0.2738724649 0.95041811466
-0.32287552953 0.27788224816 0.90471863747
-0.23023423553 0.1623993665 0.95948290825
-0.38365194201 0.14681482315 0.91171646118
-0.48710978031 0.26564916968 0.83186346292
-0.2688164711 0.035152934492 0.96217930317
0.7220017314 0.63408428431 0.2767790556
0.60836952925 0.76288354397 0.21858017147
0.86618191004 0.35530760884 0.35089755058
0.78187060356 0.50918978453 0.35972559452
-0.39993658662 0.39609205723 0.82652920485
-0.24357953668 0.4004136622 0.88329690695
-0.661873281 -0.69065922499 0.29137226939
-0.63045072556 -0.76202613115 0.14746521413
-0.04729372263 0.10576463491 0.99280536175
-0.74467992783 -0.65160340071 0.14433650672
-0.77612841129 -0.57886606455 0.24999207258
0.55329144001 0.65935534239 -0.50898659229
0.59158456326 0.71840238571 -0.3658888042
0.46341854334 0.76938956976 -0.43962672353
0.41972479224 0.69388061762 -0.58506345749
0.49993798137 0.81654000282 -0.28850749135
-0.24941438437 -0.01124943234 -0.96796959639
-0.39000272751 -0.0073717958294 -0.9201477766
-0.32859238982 0.15969675779 -0.93072903156
-0.47243875265 0.15100926161 -0.86749094725
0.48697060347 0.031760767102 0.87278658152
0.56974667311 0.18827423453 0.7999600172
0.43726217747 0.23114213347 0.86903375387
0.45426508784 -0.26636776328 0.85006815195
0.31641155481 -0.28138953447 0.9058907032
0.36683189869 -0.45637404919 0.81063371897
0.37822496891 -0.12791392207 0.91684114933
0.21489785612 -0.13582326472 0.96712958813
0.30665397644 0.0085585806519 0.95175719261
0.51237219572 0.33623713255 0.79019606113
0.63486075401 0.29064264894 0.71588248014
0.27337017655 0.51967549324 -0.8094201684
0.1594042331 0.67223960161 -0.72286999226
0.3496940136 0.61299616098 -0.70845645666
0.28517463803 0.72190946341 -0.6305192709
0.32573157549 0.80261683464 -0.49962958694
0.18147751689 0.80570143461 -0.56378567219
0.21451447904 0.89673650265 -0.38700470328
0.056141704321 -0.23285834491 0.97012037039
0.054210398346 -0.085114553571 0.99489635229
0.1540928483 0.030473589897 0.98701864481
0.15234696865 -0.26427859068 -0.95231938362
0.23201785982 -0.12494136393 -0.96465039253
0.30917346478 -0.25742405653 -0.91550040245
0.37802088261 -0.11264322698 -0.91890621185
0.28599569201 0.016116004437 -0.95809012651
0.45551249385 -0.23352773488 -0.85903161764
-0.1178265363 0.93222117424 0.34213116765
-0.11367732286 0.97505158186 0.19056603312
0.0696285218 0.97018265724 0.23191308975
-0.0073072724044 0.99916267395 0.035638511181
0.36672323942 0.86247885227 -0.34878703952
0.28500252962 0.93705183268 -0.20094186068
0.54766249657 -0.042790073901 -0.83494979143
0.23970618844 -0.39656531811 -0.88582128286
0.38578990102 -0.37997019291 -0.84069889784
0.093375436962 0.8719856739 -0.48008060455
0.028856828809 0.78957867622 -0.61288893223
-0.051608689129 -0.51977962255 -0.85272777081
-0.1509090811 -0.40724363923 -0.90066164732
-0.25174674392 0.926895082 0.27832993865
-0.28902730346 0.94948840141 0.12233691663
0.0021643550135 -0.22384235263 -0.97446542978
0.085309073329 -0.11417356133 -0.98978942633
-0.055988050997 -0.094993293285 -0.99355137348
0.015416484326 0.021284891292 -0.99962055683
0.6864977479 0.4101100862 -0.60037195683
0.73040539026 0.47138205171 -0.4942676723
[...]
CELL_DATA 1368
SCALARS cell_data_0 double
LOOKUP_TABLE default
2.18839246916e-08
5.18754757122e-09
6.31048452705e-08
9.78917135825e-09
2.69612716836e-08
1.67409929948e-08
2.36708314711e-08
7.44025192438e-08
3.00344268718e-09
6.09589989811e-08
8.31387566603e-08
2.40730590237e-08
5.21128076183e-08
1.03565696834e-08
3.65360060229e-08
4.72699655079e-08
3.600640819e-08
4.07221289848e-09
1.87566650752e-08
1.15312474685e-08
5.96664210436e-08
7.00222794219e-08
3.66175447118e-08
1.07801538832e-08
2.85319822916e-08
3.9703366548e-08
7.15486681787e-08
1.46122561269e-08
9.08953345638e-09
5.27852903802e-09
1.62192732418e-08
8.11360684317e-09
2.09119907055e-08
4.33433530737e-08
1.58485692777e-08
6.03286184908e-08
2.69450942704e-08
8.30594846156e-08
4.25973186473e-08
5.14591574087e-08
1.64265355592e-09
6.6447691773e-08
9.05300425849e-09
5.43237955182e-10
1.42954333238e-08
5.80263639157e-09
1.97020227611e-09
6.75575747709e-08
2.98306647059e-09
3.98434990081e-09
1.4875697139e-08
2.65825704614e-08
8.88156698313e-09
3.29466624271e-09
3.49869879483e-08
2.26318302941e-08
1.28232314581e-08
8.2961843767e-08
2.29874462482e-08
2.75051590964e-08
5.73890718756e-09
2.44946727916e-09
4.00331904332e-08
1.63616580409e-08
1.56653683544e-09
1.35606792907e-08
5.02701843682e-08
3.15770083665e-08
1.78278352745e-08
5.25047493122e-09
3.43449399998e-08
4.79897453398e-08
3.45479388493e-09
5.13585638939e-08
2.76616711816e-08
3.52428678071e-08
1.17322994467e-08
3.07081396202e-08
5.85059900431e-08
6.43958251209e-08
7.42481328023e-08
2.09663041521e-08
1.92567648288e-08
5.9982702493e-08
1.48008766097e-08
8.62005835577e-10
3.15847220339e-08
5.24084819256e-08
5.8463401209e-09
4.92975686682e-09
3.77038369103e-08
2.02890879156e-10
2.79087923336e-09
7.03517055559e-09
2.47759441911e-08
1.75335904267e-09
5.36534724536e-09
1.02548191788e-08
9.95083528405e-09
9.59650984771e-09
9.47827509416e-09
8.90524649066e-09
2.53136409165e-08
9.25010044048e-09
2.92813714692e-08
4.94517015216e-08
1.78329950393e-09
1.47740332449e-08
5.20602040792e-09
4.71318988761e-08
6.65017776727e-09
1.63865216736e-08
6.82510599447e-09
6.18295909087e-09
2.69568046428e-08
2.29411865292e-08
4.41559894463e-09
9.86368423869e-09
2.259642017e-08
1.49709058914e-09
5.1246709328e-09
1.65339591704e-08
2.30443333542e-09
6.60930460683e-09
2.62989420299e-08
4.63484229691e-08
4.22600036795e-08
3.08021615065e-08
5.05883430961e-08
7.60111489934e-08
6.61418215458e-09
1.55903455203e-08
1.31685764727e-09
6.24310223233e-08
2.64743581601e-08
7.00580025372e-10
1.05412606513e-08
2.08256733775e-08
2.9075062726e-08
2.97072773638e-08
6.75658734212e-09
1.76563300141e-08
3.32024315083e-08
1.36525340305e-08
1.18016324037e-08
9.4792532353e-09
1.76204948273e-08
2.7392994945e-08
3.53756082196e-09
3.80936509314e-08
1.29971647803e-09
4.11914989382e-09
6.2385350702e-09
3.05306351543e-08
8.01056224817e-09
1.99510505785e-08
2.619803431e-08
9.17749532062e-09
1.80933692375e-08
1.29286152916e-08
6.65312497728e-10
1.15516615052e-08
3.91751774717e-08
5.46960583161e-08
1.12079999419e-08
6.15283571155e-08
1.77791123793e-08
8.07889423688e-10
1.43164348408e-09
2.38162666527e-09
1.5441759535e-08
3.77225724931e-09
4.62335901595e-08
2.51049374609e-09
4.13469508771e-09
1.31039491283e-09
2.57685260298e-08
4.69037406422e-09
3.4120364705e-09
4.13819073766e-09
5.22812835514e-08
2.07368774209e-08
2.11600981979e-08
9.2588055288e-09
2.04434530463e-08
1.81061404962e-08
9.29507777956e-09
2.02019640967e-08
2.07108436958e-08
4.24357632025e-08
2.14426768746e-08
1.86212094593e-08
6.05862764143e-10
1.06852306086e-08
1.35974090005e-08
2.69978576323e-08
2.28493370959e-08
1.22856508576e-08
1.18786917957e-08
2.11150916302e-08
2.37431277127e-08
3.69604356073e-08
1.47102935287e-09
1.69096233285e-08
6.12875312631e-09
7.15165051887e-09
1.85448664985e-08
9.26845532922e-09
6.25877430652e-08
4.61817968812e-08
2.4194032136e-08
3.02331786045e-08
1.55464881523e-09
7.01419360457e-09
2.23726940718e-08
3.46105613347e-08
1.0373197903e-09
1.97777919362e-08
9.02246028052e-09
7.05748134179e-08
2.54308165534e-08
8.96419530411e-09
1.01147354849e-08
9.35695035576e-09
7.94030887723e-10
1.79393673486e-08
2.57002361378e-08
1.2017746923e-08
5.49082283854e-08
7.19769726164e-09
3.73249981936e-08
1.01276648917e-08
1.59143775764e-08
2.69094881298e-08
8.35575340244e-09
1.26418188115e-08
1.0330638997e-08
9.64261541667e-09
5.83023981384e-09
4.80373876752e-09
2.05807317382e-10
8.05366307993e-09
2.93314343675e-09
5.07893184486e-08
1.02261790617e-08
3.77453901327e-08
1.15222008082e-08
1.45003348521e-11
2.16925081656e-08
8.85008119921e-09
2.94098348314e-08
3.96662300692e-09
1.11426169059e-08
1.88126673729e-08
8.66499912161e-09
1.83319729873e-08
2.73442137309e-08
1.55017806701e-08
1.39817910247e-09
5.82843408973e-10
1.26002869334e-08
9.09936274887e-08
2.02692862895e-08
6.92718594187e-10
7.85844093486e-11
3.9096041918e-08
2.4499459796e-08
1.23008137331e-08
1.36751100739e-09
1.40094376874e-08
9.01653430855e-09
1.19361623176e-08
5.25346897411e-09
9.53642807724e-09
2.13923980906e-09
7.84903955728e-10
1.06333821925e-09
1.41623801245e-09
2.65231253824e-08
7.54504328708e-09
1.03457945358e-08
1.49591247427e-09
9.92555404089e-09
2.07169760805e-08
7.01250746844e-09
7.88912074522e-10
1.48192500886e-08
1.07088233313e-08
2.46954459224e-08
4.09750404148e-08
1.85729521246e-08
1.22584193573e-08
5.6751269961e-09
1.96549933332e-08
5.46311253143e-10
3.2268582251e-08
7.58670351332e-09
1.86081937869e-08
2.49132303659e-08
7.78727657729e-09
1.40086292617e-08
1.65327266653e-08
1.50317320171e-08
7.42719008538e-09
3.96685827496e-09
1.2356553208e-08
1.21126012333e-08
1.06425840782e-08
2.12213829061e-08
2.5710029827e-08
2.08433280032e-09
1.25435422115e-09
2.85710851282e-09
7.19884280449e-09
2.42208249123e-08
1.13624852834e-08
1.81893937852e-08
7.09721107972e-09
7.04392679092e-09
6.62569168534e-09
6.13967768319e-09
3.9129683598e-09
1.0727452993e-08
3.32677090778e-08
5.27256206759e-09
6.79337579608e-09
7.74566089153e-09
1.72759783793e-08
2.30030058204e-08
4.87269196223e-09
1.30887454786e-08
1.48821283127e-09
4.67858587606e-09
3.51912960949e-08
8.04835296162e-09
1.94408673215e-09
6.77638788273e-09
1.03025695526e-08
2.21471344306e-08
1.76768020973e-08
1.69572408654e-08
7.08582278051e-09
2.75644303465e-08
1.85545171859e-08
8.94525102262e-09
4.82017169339e-09
4.79818549747e-10
2.00460439223e-08
2.55521317222e-09
1.20461704466e-08
7.72835570888e-09
9.36308546801e-09
4.03125970325e-09
9.19075700815e-09
9.5827560729e-09
3.13858204597e-09
1.01901922635e-09
3.07278571313e-08
6.59932476297e-10
6.55187086513e-09
1.51357009141e-08
1.7267241134e-08
3.21464816864e-09
1.90209899103e-08
1.12540343106e-08
3.92546219507e-09
3.37166097098e-09
2.05111311912e-09
1.9834402054e-08
3.61213861075e-08
1.2832958777e-08
1.35439000025e-08
1.01273955711e-08
2.66445603919e-08
2.15957160274e-08
5.47672863684e-09
8.20098706585e-09
2.81730991154e-09
1.02399506204e-08
4.90757096009e-09
1.11277742298e-08
1.53847665141e-08
4.44863792718e-09
1.02231882787e-08
1.67753976243e-09
1.60424888112e-08
6.33008751286e-09
1.83040774187e-08
5.22607743217e-09
8.935027663e-10
2.33690291775e-08
2.30981757111e-08
2.61429550301e-08
1.53643460328e-08
6.10035424722e-08
1.28093552888e-08
8.97241912461e-09
1.38179258765e-08
1.02709344276e-08
1.12424646949e-08
6.46726178347e-09
1.08263123155e-09
5.56883586578e-09
2.13462654116e-08
1.07020378625e-09
1.1410759708e-08
7.11616120087e-10
7.86634801955e-09
9.58189814002e-09
3.37689853528e-09
1.09131725192e-08
6.88906192323e-09
1.79813804205e-08
1.99203081212e-08
3.42971248666e-09
1.8450585504e-08
1.32257969615e-08
7.13103254848e-09
3.1616939645e-09
1.06368734349e-08
2.49729584951e-08
9.66121969192e-09
4.69756037699e-09
8.99012912029e-09
5.76254019896e-09
9.47047815576e-09
2.01471013193e-08
5.24514025595e-09
1.40478585981e-08
1.63255519331e-08
2.62978453349e-09
3.53445308976e-09
7.58908270634e-09
4.83514532634e-09
7.64957002226e-09
1.17709504403e-08
9.9263748613e-09
1.77558271949e-09
6.77404551382e-09
7.90612117805e-09
2.13161513212e-08
1.1498103645e-08
7.2602970176e-09
1.7995758049e-08
1.81216446393e-09
3.53819235012e-09
1.13232106626e-08
2.99905034255e-08
4.39886962139e-09
1.09594541066e-08
2.42748260487e-08
2.65052672021e-08
4.30918423448e-09
9.6569500862e-09
1.07812823725e-08
9.27167670227e-09
9.51238051689e-09
8.68043034458e-09
7.29720457703e-10
1.42993747378e-08
9.7122451347e-09
2.514945155e-09
5.04436403031e-09
1.44260639441e-09
5.31707443265e-09
8.53072987572e-09
3.36595351063e-08
3.74829339749e-08
2.80126624724e-08
2.71733678677e-08
1.3429313981e-08
1.10752033959e-08
2.26950551405e-08
5.44960976901e-09
8.09114487157e-09
1.77526712083e-08
2.55887913212e-08
1.56114139326e-08
2.14324653736e-08
4.86299184691e-09
2.4178576799e-08
8.5057544454e-09
1.17802576494e-08
1.02767452879e-08
3.10111507115e-08
3.86972859263e-08
1.96132668519e-08
1.22017752357e-09
5.74839827357e-09
2.45626569331e-08
2.97727378513e-08
2.84423811859e-08
1.10579869734e-08
1.63035170287e-08
1.32536420003e-08
1.302508912e-08
1.97020609491e-08
3.12880837216e-08
9.8969550492e-09
5.40647775646e-09
1.79308762623e-08
1.31909578064e-08
1.23740986983e-08
6.72777635569e-09
3.65527176672e-08
7.51520697346e-09
1.90913548609e-08
4.75715127348e-09
3.79564150511e-09
1.03357519183e-08
3.26293521835e-08
1.86391660056e-08
9.66784308871e-09
7.07177193922e-09
1.12259558526e-08
2.25894640017e-08
1.63590201963e-08
2.05168969545e-08
1.39809324831e-09
2.95975846449e-08
3.98534184946e-09
1.20580690664e-08
2.07882423856e-08
5.72683201197e-09
1.63416449424e-08
1.11979753753e-09
4.03796219997e-08
1.52835946434e-08
2.27658486234e-09
1.10224593211e-09
4.55769320206e-09
1.43022508342e-08
9.32057344106e-09
2.02692759253e-08
1.55217557202e-08
2.66178302752e-09
1.50726958887e-08
8.62815008956e-09
1.33304813905e-08
9.81806615087e-09
9.42825781102e-09
1.11789240759e-08
1.98578611761e-08
3.18727924683e-09
1.67609611122e-09
1.22083530214e-08
3.40114849401e-08
1.72200541048e-08
9.20835617057e-09
5.93625769789e-09
2.41835808123e-08
2.8643578486e-08
5.09470454423e-09
4.58277806671e-09
1.38164775775e-09
4.50291239841e-09
3.37525971753e-08
2.09462331085e-08
1.15418031927e-08
1.3716423377e-08
1.88987729427e-08
2.20150315736e-08
8.5222508333e-09
1.49512266751e-08
6.64284486789e-08
2.2249029166e-08
4.39163123115e-08
2.37359810939e-08
3.23609773814e-09
7.52921182917e-09
1.48704277829e-08
1.53081289398e-08
3.63877813023e-08
8.20261197262e-09
9.51608152987e-09
3.86300382587e-08
9.36033653258e-09
1.79763134172e-08
2.56522670077e-08
1.23854154693e-09
1.01802771967e-08
4.7443697537e-09
3.59073222074e-09
1.8374214321e-09
1.01148458955e-08
9.92625891044e-09
1.26894769139e-08
2.57765999433e-08
4.62824116664e-12
1.96392898103e-09
1.22248831695e-08
2.55640487339e-08
7.82061196026e-10
2.14389772287e-08
1.34400964513e-08
6.65260862056e-09
1.17796321263e-08
2.25649607917e-08
7.6621642507e-09
1.5130521453e-08
2.48806142755e-08
2.34759582956e-08
2.27766519523e-08
3.90857598176e-09
6.38984518619e-09
1.33260174048e-08
1.07367851899e-08
7.77204461063e-09
4.95001747782e-08
6.08861695481e-08
8.70610616392e-09
1.84468915594e-08
7.52519907682e-09
6.01355835887e-09
9.20295082924e-10
9.00609476557e-09
1.38812332733e-08
6.99572878201e-09
9.89203841381e-09
3.23917046041e-08
3.05479913989e-09
1.99735565409e-08
7.09272127136e-09
1.28644845741e-09
1.89812026896e-08
7.46882342265e-09
5.44116056998e-09
8.35074137285e-09
1.79678290537e-08
1.27929591851e-08
8.96836283576e-09
1.37733788682e-08
2.13809862748e-09
9.54291488264e-09
9.87889333084e-09
6.47636081857e-09
2.01454131396e-08
3.79602654079e-09
1.11821989593e-08
1.98366201683e-08
2.14975618821e-08
1.26117500706e-08
2.62947303477e-09
1.67999968156e-08
6.64916475182e-09
1.13860031839e-08
1.30570792627e-08
2.14509368964e-09
5.84612130628e-09
2.6839982449e-09
8.40004748392e-09
6.26153991717e-11
1.6264856691e-08
4.48427404633e-09
2.61371731544e-08
7.8972794954e-09
1.83317524506e-09
2.85733843105e-08
4.01976157994e-10
1.52586795868e-08
3.75537292945e-09
1.21672516945e-08
2.51454118908e-09
2.15937119244e-09
6.57526048381e-09
8.51609916903e-09
2.08384698534e-09
1.24425198296e-08
3.19137968661e-08
4.53425407195e-08
3.00517546058e-08
2.29976731753e-09
2.12356788206e-08
8.78074659243e-09
2.00504398935e-08
6.54943725031e-09
6.63806746843e-09
9.05784226159e-09
3.10435253036e-10
2.2459360158e-08
5.51018633292e-09
3.91091468933e-09
1.36880475877e-08
3.0719093211e-08
1.33237561215e-08
1.37673765597e-08
3.25793805889e-09
2.4488630573e-08
3.37802005972e-08
8.13424116339e-09
1.60545916689e-09
3.74175917206e-09
1.88814726254e-08
1.2530170334e-08
1.12078768453e-08
9.93140622791e-09
1.27499168004e-08
7.43513574076e-09
1.98748670989e-09
4.24358350296e-09
4.17825899486e-09
1.25735690392e-08
5.53583163266e-09
8.86953870192e-09
8.08401067218e-09
3.6161035231e-09
7.60411007547e-09
1.64422116422e-08
6.31217907242e-09
1.81782097149e-08
2.09383416269e-09
9.17649108325e-09
4.43341070558e-09
1.05282181685e-08
9.79570208448e-09
1.66660916878e-08
2.12529254483e-08
3.16549406281e-08
1.79076755413e-08
1.02178760411e-08
2.20595705879e-09
4.80494745819e-09
2.46878438624e-09
3.80018724192e-09
6.31839446699e-08
2.84402017324e-08
2.40773197296e-08
4.1201178156e-09
4.11875145232e-09
2.10580533431e-08
1.08184851917e-08
4.98921641035e-09
4.40993358144e-09
6.07709796e-09
7.98898123822e-09
1.25789716427e-08
3.01270811837e-09
3.48544091936e-09
8.85427251993e-09
5.00609358282e-11
1.05163616911e-08
4.44369896037e-09
1.5128665922e-08
1.23375568572e-08
1.33351100742e-08
7.95383934645e-09
2.31231967245e-08
6.07567103263e-09
7.47731531748e-09
8.21720876735e-09
2.2296356516e-08
8.45379338398e-11
2.25211022491e-08
1.47094292777e-09
7.00070182689e-09
5.45080549592e-09
1.49806364266e-09
1.23321793841e-08
1.03808860085e-08
6.02664906855e-09
3.6078539305e-09
7.73581758958e-09
4.75716888918e-09
1.53319035094e-08
1.15170588481e-09
2.1038505679e-08
5.51537230523e-08
2.24958881837e-09
1.09626172517e-08
4.30925710375e-09
8.29241047082e-11
9.05900928236e-10
6.00288180681e-09
5.04503288293e-08
4.8948907204e-08
1.57997190689e-09
1.82188689853e-08
8.51594203644e-09
9.87711357254e-09
8.99421232531e-09
2.26134187523e-09
7.11932414261e-09
2.10589895936e-09
1.4777791601e-09
1.36265710921e-09
1.48816571717e-08
4.45308139875e-09
1.37016876935e-08
1.29738401923e-08
1.40603598271e-09
4.96176368361e-09
1.29977441673e-10
6.59592794175e-09
3.277542246e-08
1.21287781428e-08
1.48723230042e-08
9.9198716121e-09
3.96443064799e-09
7.16899432642e-09
1.61189824533e-08
6.74476625536e-09
9.0628431003e-09
1.39390180312e-08
4.57473781089e-10
7.34583842714e-09
9.89829712242e-09
1.88745704077e-09
5.06551455222e-09
4.61896368368e-08
5.23650208707e-09
6.09445242795e-10
6.94750088839e-09
1.25159997827e-08
1.5092848152e-09
1.24103653631e-08
1.85035118265e-09
1.466908924e-09
2.79616870183e-08
1.39976983415e-08
3.0954912169e-09
3.81857513127e-09
8.06437839864e-09
3.4300509443e-09
1.06049059171e-08
6.76560367765e-09
2.15484655032e-08
1.18921873865e-08
1.03930235711e-08
1.31090236828e-08
2.76728940175e-09
3.16215883433e-09
1.51800572378e-08
1.17596103224e-08
1.78498733589e-08
1.55364018608e-08
1.77214971335e-08
1.57097041063e-08
2.74698229747e-08
2.11212224298e-08
1.04561056757e-08
7.36769466897e-09
7.82468057182e-09
1.26260677597e-08
1.69359113588e-09
4.34772939308e-09
2.65688781183e-09
3.63618668887e-09
3.10621601214e-08
6.32660663559e-08
8.23354572419e-09
8.84533036261e-10
1.0038206555e-08
5.15499950352e-09
6.24613427879e-10
3.31567916764e-08
5.60228208868e-09
6.49941399194e-09
1.49761859807e-08
5.16016457941e-10
2.88005177986e-09
2.88646207629e-09
7.6806895196e-09
8.15394439692e-09
9.20980199886e-09
4.65530004807e-09
5.88684946938e-09
1.3911645697e-08
3.87336363484e-08
1.61881486291e-09
4.1593095732e-08
5.35519750634e-08
2.35710157954e-09
5.45900918592e-09
7.03845594547e-09
1.11780739581e-08
1.08814070704e-09
6.20332447108e-09
6.18192226266e-09
6.27643764805e-09
3.50513328988e-09
7.72705637034e-09
2.13342234163e-08
8.63318696165e-09
7.86173147343e-09
2.24914167478e-08
1.03539213558e-08
1.87974110996e-08
1.02079082649e-08
1.13341838605e-08
3.08177616149e-09
4.67104025739e-09
1.29586688534e-08
3.79067819871e-09
8.58775659476e-09
7.86576052184e-09
3.19032309319e-09
3.66364999361e-09
3.44450280327e-09
4.81154988491e-08
6.80744126268e-09
6.07717206279e-09
8.66851108037e-10
5.82782296037e-09
7.03444467404e-09
2.00831487297e-09
3.58712009498e-09
7.28967491661e-10
1.00113208998e-08
3.22819501103e-09
5.84778078237e-09
1.07360507546e-08
1.84404247331e-09
1.13206527988e-08
3.45499389182e-08
2.90463725286e-09
1.14895619023e-08
1.1387355874e-08
1.43252998807e-08
3.54970434463e-09
1.88029727234e-10
1.29358703777e-08
9.32213398471e-09
5.33320098988e-09
2.0425062318e-09
6.13514177496e-09
8.36132098587e-09
2.09554589354e-09
2.3153552633e-10
4.75471877849e-09
4.49480579334e-09
7.42694357642e-09
1.34477486205e-09
8.87598778142e-09
1.14817083837e-08
1.48850169838e-08
4.30767466413e-09
1.8547242849e-08
2.1581660347e-08
3.53372501712e-09
3.04741542365e-09
4.23614080705e-09
7.04955471873e-09
3.66960034039e-09
5.4014165163e-09
1.02615155185e-09
4.87937008712e-09
9.03745260981e-09
5.9954200859e-09
8.00524966451e-09
2.33045841931e-08
1.10562871186e-08
2.53230828401e-09
1.26983187318e-08
9.47856974912e-11
4.75834165177e-09
1.03940393515e-08
9.63784935431e-09
2.53537738675e-09
6.76440794969e-10
1.25981746396e-08
3.26328094093e-08
4.26257569043e-09
3.19865093821e-09
5.33119679627e-09
8.74587313232e-09
1.54903417659e-08
2.61321997729e-08
6.6177342106e-09
1.45598481016e-08
5.55024142406e-09
8.87131207981e-09
8.0724818635e-09
6.08443021475e-09
9.89306574966e-09
2.3802019041e-09
2.14005956985e-09
1.26575949334e-08
3.67183326814e-09
5.61882450069e-09
2.006911338e-08
2.10198327039e-08
2.47008219795e-08
2.01817869822e-08
1.91932897797e-09
8.04707239596e-09
5.24157033346e-10
1.31369270021e-08
3.63143950699e-09
1.45652602094e-08
9.68459082728e-09
7.85661925643e-08
2.3575587559e-09
1.65212482253e-08
3.72796344382e-09
4.25064215648e-09
9.39703146822e-11
8.60977391891e-09
1.07311602868e-08
6.23815050947e-09
2.77323574036e-09
2.38789729788e-08
6.57189991294e-09
2.73258358223e-09
4.57761710667e-09
1.87556117314e-09
1.69058337019e-09
7.36426648414e-09
1.32106902518e-08
1.72202197618e-10
3.18124968927e-09
1.60306034063e-08
7.53027367118e-09
2.31286614058e-09
1.40539130453e-08
1.09369538096e-08
8.44034449977e-09
7.25248624266e-09
5.93890420034e-09
2.97553674705e-09
2.1056441281e-08
9.17125141177e-09
1.57424809111e-10
1.23812287748e-08
4.15205720192e-09
8.64568559987e-09
3.58974849497e-09
2.35488236482e-10
4.19427338145e-10
5.14524079557e-09
2.56057921352e-09
1.22396081244e-09
6.91860511488e-09
1.13376790729e-08
7.90408093787e-09
9.39877077044e-10
1.04336376753e-08
3.36022556146e-10
3.50309525515e-10
2.92272730035e-09
2.43499118925e-09
9.25714890323e-09
1.53189529576e-08
2.07582222791e-08
5.65357186485e-08
1.54920736566e-08
1.35327060843e-09
2.21781987364e-08
1.34743396151e-08
1.42843556964e-09
8.3668492618e-09
2.30259839605e-09
1.90154807702e-10
3.1844749491e-08
4.00402969266e-08
1.74270000967e-09
9.65077098328e-09
6.43332071047e-09
4.59620221902e-09
8.28458862794e-10
1.89088182043e-08
8.7971617621e-09
9.28221802823e-11
6.26111185365e-09
1.99294654345e-09
2.90370005194e-08
1.86136030656e-08
1.15532801468e-08
6.41758390577e-09
9.07140010724e-09
4.87893910724e-10
3.11614636366e-09
6.14806882177e-09
5.47174983612e-10
1.09143965967e-08
1.04783015356e-08
1.29169972879e-08
5.93643555819e-09
7.87303290427e-09
5.21055429822e-09
1.92810936556e-08
2.05746752177e-08
1.49937291795e-08
6.64863451213e-09
1.09202542826e-08
1.97470992414e-08
1.81822596466e-09
4.53272140383e-09
1.29609237019e-09
4.26428744392e-09
1.17816655363e-08
3.87055103485e-09
2.99844129824e-09
5.73379118062e-09
4.30267815137e-09
2.62691937782e-09
9.3809922003e-09
1.00315528195e-08
8.28224671351e-10
9.23506513883e-10
5.66928677939e-09
9.09924426746e-09
1.11566270873e-09
9.84965746073e-09
1.62836617587e-09
1.69135684574e-09
2.94272369934e-08
1.14077597764e-08
6.8425907486e-09
2.77737933736e-09
2.18885096846e-10
1.84886496038e-08
2.07807720582e-08
1.04089233765e-08