# vtk DataFile Version 3.0
File Name: Molecule/sphere_excent/sphere_excent_0-s2.vtk
ASCII
DATASET UNSTRUCTURED_GRID
FIELD FieldData 1
TIME 1 1 double
0.0
POINTS 58 double
0.850650808352 -0.525731112119 0.0
0.809016994375 -0.309016994375 -0.5
1.0 0.0 0.0
0.809016994375 0.309016994375 -0.5
0.525731112119 0.0 -0.850650808352
0.850650808352 0.525731112119 0.0
0.5 0.809016994375 -0.309016994375
0.309016994375 0.5 -0.809016994375
0.0 0.850650808352 -0.525731112119
-0.309016994375 0.5 0.809016994375
0.0 0.0 1.0
0.309016994375 0.5 0.809016994375
-0.525731112119 0.0 0.850650808352
0.525731112119 0.0 0.850650808352
-0.309016994375 -0.5 0.809016994375
0.309016994375 -0.5 0.809016994375
0.0 -0.850650808352 0.525731112119
0.809016994375 -0.309016994375 0.5
0.5 -0.809016994375 0.309016994375
0.309016994375 -0.5 -0.809016994375
0.0 0.0 -1.0
-0.309016994375 -0.5 -0.809016994375
0.0 -0.850650808352 -0.525731112119
-0.525731112119 0.0 -0.850650808352
0.809016994375 0.309016994375 0.5
0.5 0.809016994375 0.309016994375
-0.809016994375 -0.309016994375 -0.5
-0.809016994375 0.309016994375 -0.5
-1.0 0.0 0.0
-0.850650808352 -0.525731112119 0.0
-0.850650808352 0.525731112119 0.0
-0.309016994375 0.5 -0.809016994375
-0.5 0.809016994375 -0.309016994375
-0.5 -0.809016994375 -0.309016994375
-0.5 -0.809016994375 0.309016994375
0.0 -1.0 0.0
-0.809016994375 -0.309016994375 0.5
-0.809016994375 0.309016994375 0.5
0.5 -0.809016994375 -0.309016994375
0.5 0.809016994375 0.0
0.25 0.904508497187 -0.154508497188
0.25 0.904508497187 0.154508497188
0.0 1.0 0.0
0.25 0.829833901363 0.417374053247
0.0 0.925325404176 0.26286555606
0.0 0.850650808352 0.525731112119
-0.25 0.829833901363 0.417374053247
-0.25 0.904508497187 0.154508497188
-0.5 0.809016994375 0.309016994375
-0.25 0.904508497187 -0.154508497188
-0.5 0.809016994375 0.0
-0.675325404176 0.667374053247 0.154508497188
-0.675325404176 0.667374053247 -0.154508497188
-0.154508497188 0.675325404176 0.667374053247
-0.404508497188 0.654508497187 0.559016994375
-0.654508497187 0.559016994375 0.404508497188
-0.559016994375 0.404508497188 0.654508497187
-0.829833901363 0.417374053247 0.25

CELLS 112 448
3 0 1 2
3 1 3 2
3 1 4 3
3 2 3 5
3 5 3 6
3 3 7 6
3 3 4 7
3 6 7 8
3 9 10 11
3 9 12 10
3 11 10 13
3 12 14 10
3 14 15 10
3 14 16 15
3 10 15 13
3 13 15 17
3 15 18 17
3 15 16 18
3 17 18 0
3 4 19 20
3 19 21 20
3 19 22 21
3 20 21 23
3 0 2 17
3 2 24 17
3 2 5 24
3 17 24 13
3 5 25 24
3 25 11 24
3 24 11 13
3 23 26 27
3 26 28 27
3 26 29 28
3 27 28 30
3 8 31 32
3 31 27 32
3 31 23 27
3 29 33 34
3 33 35 34
3 33 22 35
3 34 35 16
3 29 34 36
3 34 14 36
3 34 16 14
3 36 14 12
3 12 37 36
3 37 28 36
3 36 28 29
3 23 21 26
3 21 33 26
3 21 22 33
3 26 33 29
3 22 38 35
3 38 18 35
3 38 0 18
3 35 18 16
3 4 1 19
3 1 38 19
3 1 0 38
3 19 38 22
3 4 20 7
3 20 31 7
3 20 23 31
3 7 31 8
3 6 39 5
3 5 39 25
3 6 40 39
3 40 41 39
3 40 42 41
3 39 41 25
3 42 40 8
3 8 40 6
3 25 41 43
3 41 44 43
3 41 42 44
3 43 44 45
3 45 44 46
3 44 47 46
3 44 42 47
3 46 47 48
3 42 49 47
3 49 50 47
3 49 32 50
3 47 50 48
3 32 49 8
3 8 49 42
3 48 50 51
3 50 52 51
3 50 32 52
3 51 52 30
3 45 46 53
3 46 54 53
3 46 48 54
3 53 54 9
3 48 55 54
3 55 56 54
3 55 37 56
3 54 56 9
3 48 51 55
3 51 57 55
3 51 30 57
3 55 57 37
3 9 56 12
3 56 37 12
3 45 53 11
3 53 9 11
3 25 43 11
3 43 45 11
3 30 52 27
3 27 52 32
3 37 57 28
3 57 30 28

CELL_TYPES 112
5
5
5
5
5
5
5
5
5
5
5
5
5
5
5
5
5
5
5
5
5
5
5
5
5
5
5
5
5
5
5
5
5
5
5
5
5
5
5
5
5
5
5
5
5
5
5
5
5
5
5
5
5
5
5
5
5
5
5
5
5
5
5
5
5
5
5
5
5
5
5
5
5
5
5
5
5
5
5
5
5
5
5
5
5
5
5
5
5
5
5
5
5
5
5
5
5
5
5
5
5
5
5
5
5
5
5
5
5
5
5
5

CELL_DATA 112
SCALARS cell_data_0 double
LOOKUP_TABLE default
0.000505285000121
0.000630737361057
0.000286815722706
0.000243140118185
0.000238561182732
0.000412931389952
0.00015326307235
0.000166328248634
0.000148718317547
0.000137144187809
0.000121363640195
0.000149385295437
0.000171754095717
6.26288601049e-05
0.000126170584094
4.94784959218e-05
4.88629796756e-05
4.11831003285e-05
3.67254303007e-05
1.2715202495e-05
1.44774245797e-05
5.9546700138e-06
8.77012624626e-06
0.0001871119417
2.93722298805e-05
5.20957607146e-05
3.96645540048e-05
1.28318640465e-05
5.13517787068e-05
4.57670587287e-05
1.67877328408e-05
1.68988702266e-05
0.000472587306728
0.000112560364111
2.7000839593e-05
4.2289965506e-05
4.9684284944e-05
0.000493717247296
1.07917213089e-05
2.18677655566e-05
1.86792911998e-05
0.000340663155086
5.06605296191e-05
3.97096183213e-05
6.90953303744e-05
4.82197396044e-05
2.97179996725e-05
0.000396867672802
4.13905877628e-06
2.37273964856e-05
1.86588632838e-05
0.000557026946937
1.0550816539e-05
3.82163214563e-06
9.42531621436e-05
1.68118549845e-05
0.000129084820639
0.000181876434044
0.000303032419997
1.63203238985e-05
3.38323232369e-05
9.11986575333e-05
4.08396693201e-05
7.49108786123e-05
3.74616111495e-05
9.96357752965e-07
3.58645252917e-05
4.38988698582e-06
8.95282631771e-06
3.66326464441e-06
1.60146528129e-05
7.12419478657e-05
4.32958805136e-06
2.21491872607e-06
5.21270545955e-06
2.5931967576e-06
4.91358321796e-06
5.9426165488e-07
4.17066399188e-06
3.74415916503e-06
2.42736048283e-06
6.3680534205e-08
8.92722919349e-07
2.6653354111e-06
7.53024463843e-07
6.93344678759e-06
2.49564825053e-06
1.52358350363e-07
6.86839952545e-07
2.16744059958e-05
7.03382932809e-06
3.44565685813e-06
5.54243916637e-06
1.4906296104e-05
4.75276978633e-06
1.35439342217e-06
6.14987727867e-06
1.91342957373e-05
2.86246528724e-06
1.58455740419e-07
2.21345843552e-05
4.13789090066e-06
5.2325913743e-05
3.57441522507e-05
3.61489697194e-05
5.01241165937e-05
1.56251815823e-05
1.93732497044e-05
5.59846852111e-05
3.36261929508e-06
7.27381952968e-06
4.3160831598e-05

