# vtk DataFile Version 3.0
File Name: Molecule/sphere_cent/sphere_cent_0-s8.vtk
ASCII
DATASET UNSTRUCTURED_GRID
FIELD FieldData 1
TIME 1 1 double
0.0
POINTS 291 double
1.70130162 -1.05146222 0.0
1.72533696 -0.86777713 -0.51978383
1.92387672 -0.54653306 0.0
1.90211303 -0.3249197 -0.52573111
1.38756095 -0.32124407 -1.40409289
1.38756095 0.32124407 -1.40409289
1.70130162 0.0 -1.05146222
1.05146222 0.0 -1.70130162
1.90211303 0.3249197 -0.52573111
1.72533696 0.86777713 -0.51978383
1.92387672 0.54653306 0.0
1.70130162 1.05146222 0.0
1.40409289 1.38756095 -0.32124407
1.37638192 1.17557051 -0.85065081
0.86777713 0.51978383 -1.72533696
1.17557051 0.85065081 -1.37638192
0.85065081 1.37638192 -1.17557051
0.32124407 1.40409289 -1.38756095
0.51978383 1.72533696 -0.86777713
0.61803399 1.0 -1.61803399
0.0 1.70130162 -1.05146222
1.40409289 1.38756095 0.32124407
1.05146222 1.70130162 0.0
0.0 1.92387672 -0.54653306
0.52573111 1.90211303 -0.3249197
0.0 2.0 0.0
0.52573111 1.90211303 0.3249197
0.0 1.92387672 0.54653306
0.51978383 1.72533696 0.86777713
0.0 1.70130162 1.05146222
-0.51978383 1.72533696 0.86777713
-0.52573111 1.90211303 0.3249197
-1.0 1.61803399 0.61803399
-0.52573111 1.90211303 -0.3249197
-1.05146222 1.70130162 0.0
-1.0 1.61803399 -0.61803399
-0.51978383 1.72533696 -0.86777713
-1.40409289 1.38756095 0.32124407
-1.40409289 1.38756095 -0.32124407
-1.70130162 1.05146222 0.0
-0.32124407 1.40409289 1.38756095
-0.85065081 1.37638192 1.17557051
-1.37638192 1.17557051 0.85065081
-1.72533696 0.86777713 0.51978383
-1.61803399 0.61803399 1.0
-1.17557051 0.85065081 1.37638192
-1.38756095 0.32124407 1.40409289
-0.86777713 0.51978383 1.72533696
-1.05146222 0.0 1.70130162
0.32124407 1.40409289 1.38756095
0.0 1.05146222 1.70130162
-0.61803399 1.0 1.61803399
0.61803399 1.0 1.61803399
-0.3249197 0.52573111 1.90211303
-0.54653306 0.0 1.92387672
0.3249197 0.52573111 1.90211303
0.86777713 0.51978383 1.72533696
0.54653306 0.0 1.92387672
1.05146222 0.0 1.70130162
-0.86777713 -0.51978383 1.72533696
-0.3249197 -0.52573111 1.90211303
-0.61803399 -1.0 1.61803399
0.0 -1.05146222 1.70130162
0.61803399 -1.0 1.61803399
0.3249197 -0.52573111 1.90211303
-0.32124407 -1.40409289 1.38756095
0.32124407 -1.40409289 1.38756095
0.0 -1.70130162 1.05146222
0.86777713 -0.51978383 1.72533696
1.38756095 -0.32124407 1.40409289
1.17557051 -0.85065081 1.37638192
1.61803399 -0.61803399 1.0
0.85065081 -1.37638192 1.17557051
0.51978383 -1.72533696 0.86777713
1.0 -1.61803399 0.61803399
1.37638192 -1.17557051 0.85065081
1.72533696 -0.86777713 0.51978383
1.40409289 -1.38756095 0.32124407
0.86777713 -0.51978383 -1.72533696
0.54653306 0.0 -1.92387672
0.3249197 -0.52573111 -1.90211303
0.61803399 -1.0 -1.61803399
0.32124407 -1.40409289 -1.38756095
0.0 -1.05146222 -1.70130162
-0.32124407 -1.40409289 -1.38756095
0.0 -1.70130162 -1.05146222
-0.3249197 -0.52573111 -1.90211303
-0.86777713 -0.51978383 -1.72533696
-0.54653306 0.0 -1.92387672
-1.05146222 0.0 -1.70130162
1.90211303 -0.3249197 0.52573111
1.72533696 0.86777713 0.51978383
1.90211303 0.3249197 0.52573111
1.70130162 0.0 1.05146222
1.38756095 0.32124407 1.40409289
1.37638192 1.17557051 0.85065081
1.0 1.61803399 0.61803399
1.61803399 0.61803399 1.0
0.85065081 1.37638192 1.17557051
1.17557051 0.85065081 1.37638192
-1.38756095 -0.32124407 -1.40409289
-1.38756095 0.32124407 -1.40409289
-1.70130162 0.0 -1.05146222
-1.61803399 -0.61803399 -1.0
-1.61803399 0.61803399 -1.0
-1.90211303 -0.3249197 -0.52573111
-1.90211303 0.3249197 -0.52573111
-2.0 0.0 0.0
-1.72533696 -0.86777713 -0.51978383
-1.92387672 -0.54653306 0.0
-1.70130162 -1.05146222 0.0
-1.72533696 0.86777713 -0.51978383
-1.92387672 0.54653306 0.0
-0.32124407 1.40409289 -1.38756095
-0.85065081 1.37638192 -1.17557051
-0.61803399 1.0 -1.61803399
-0.86777713 0.51978383 -1.72533696
-1.17557051 0.85065081 -1.37638192
-1.37638192 1.17557051 -0.85065081
-1.40409289 -1.38756095 -0.32124407
-1.40409289 -1.38756095 0.32124407
-1.05146222 -1.70130162 0.0
-1.0 -1.61803399 -0.61803399
-1.0 -1.61803399 0.61803399
-0.51978383 -1.72533696 -0.86777713
-0.52573111 -1.90211303 -0.3249197
0.0 -1.92387672 -0.54653306
0.0 -2.0 0.0
-0.52573111 -1.90211303 0.3249197
-0.51978383 -1.72533696 0.86777713
0.0 -1.92387672 0.54653306
-1.72533696 -0.86777713 0.51978383
-1.37638192 -1.17557051 0.85065081
-1.61803399 -0.61803399 1.0
-0.85065081 -1.37638192 1.17557051
-1.17557051 -0.85065081 1.37638192
-1.38756095 -0.32124407 1.40409289
-1.70130162 0.0 1.05146222
-1.90211303 0.3249197 0.52573111
-1.90211303 -0.3249197 0.52573111
-1.17557051 -0.85065081 -1.37638192
-0.61803399 -1.0 -1.61803399
-0.85065081 -1.37638192 -1.17557051
-1.37638192 -1.17557051 -0.85065081
0.52573111 -1.90211303 0.3249197
1.78201305 -0.47735386 -0.77237477
1.61803399 -0.61803399 -1.0
1.68035577 -0.31286893 -1.03851698
1.82596499 -0.16464716 -0.7992141
1.61803399 0.61803399 -1.0
1.51587084 0.907981 -0.9368597
1.20300191 1.41421356 -0.74349607
1.0 1.61803399 -0.61803399
1.41421356 0.74349607 -1.20300191
1.29315558 1.02675088 -1.12850842
1.02675088 1.12850842 -1.29315558
1.12850842 1.29315558 -1.02675088
0.9368597 1.51587084 -0.907981
-0.74349607 1.20300191 1.41421356
-1.12850842 1.29315558 1.02675088
-1.29315558 1.02675088 1.12850842
-1.02675088 1.12850842 1.29315558
-0.907981 0.9368597 1.51587084
-0.16464716 0.7992141 1.82596499
0.0 0.5328094 1.92772253
0.16464716 0.7992141 1.82596499
-0.16448493 0.26614221 1.97537668
0.16448493 0.26614221 1.97537668
0.0 0.0 2.0
1.02675088 -1.12850842 1.29315558
1.12850842 -1.29315558 1.02675088
1.29315558 -1.02675088 1.12850842
1.12850842 1.29315558 1.02675088
1.02675088 1.12850842 1.29315558
1.29315558 1.02675088 1.12850842
-0.7992141 -1.82596499 -0.16464716
-0.5328094 -1.92772253 0.0
-0.7992141 -1.82596499 0.16464716
1.97537668 -0.16448493 -0.26614221
2.0 0.0 0.0
1.68035577 0.31286893 -1.03851698
1.82596499 0.16464716 -0.7992141
1.78201305 0.47735386 -0.77237477
1.92772253 0.0 -0.5328094
1.97537668 0.16448493 -0.26614221
1.03851698 1.68035577 -0.31286893
1.03851698 1.68035577 0.31286893
0.77237477 1.78201305 -0.47735386
0.7992141 1.82596499 -0.16464716
0.5328094 1.92772253 0.0
0.7992141 1.82596499 0.16464716
0.77237477 1.78201305 0.47735386
0.16448493 -0.26614221 -1.97537668
0.16464716 -0.7992141 -1.82596499
-0.16464716 -0.7992141 -1.82596499
0.0 -0.5328094 -1.92772253
-0.31286893 -1.03851698 -1.68035577
-0.47735386 -0.77237477 -1.78201305
-0.16448493 -0.26614221 -1.97537668
0.0 0.0 -2.0
1.97537668 -0.16448493 0.26614221
1.97537668 0.16448493 0.26614221
1.92772253 0.0 0.5328094
-1.02675088 1.12850842 -1.29315558
-1.29315558 1.02675088 -1.12850842
-1.12850842 1.29315558 -1.02675088
0.75007714 0.76722747 -1.68782295
0.71645759 0.26331074 -1.8486092
0.44023406 0.26558495 -1.93278519
0.60251776 0.5281655 -1.83248835
0.3249197 0.52573111 -1.90211303
0.27590449 0.0 -1.98087776
0.16448493 0.26614221 -1.97537668
0.47735386 0.77237477 -1.78201305
-0.16448493 0.26614221 -1.97537668
0.0 0.5328094 -1.92772253
-0.3249197 0.52573111 -1.90211303
-0.16464716 0.7992141 -1.82596499
0.16464716 0.7992141 -1.82596499
0.0 1.05146222 -1.70130162
-0.47735386 0.77237477 -1.78201305
-0.31286893 1.03851698 -1.68035577
0.31286893 1.03851698 -1.68035577
1.41421356 -0.74349607 -1.20300191
0.907981 -0.9368597 -1.51587084
1.51587084 -0.907981 -0.9368597
1.29315558 -1.02675088 -1.12850842
1.37638192 -1.17557051 -0.85065081
1.17557051 -0.85065081 -1.37638192
1.12850842 -1.29315558 -1.02675088
1.02675088 -1.12850842 -1.29315558
0.85065081 -1.37638192 -1.17557051
1.20300191 -1.41421356 -0.74349607
0.9368597 -1.51587084 -0.907981
1.0 -1.61803399 -0.61803399
0.74349607 -1.20300191 -1.41421356
1.68782295 -0.75007714 -0.76722747
1.56690339 -1.03224324 -0.69230603
1.58529846 -1.14250332 -0.42604573
1.40461969 -1.29482379 -0.59200919
1.40409289 -1.38756095 -0.32124407
1.2136503 -1.5173046 -0.47417265
0.51978383 -1.72533696 -0.86777713
-0.1622837 1.24047916 -1.56040874
0.1622837 1.24047916 -1.56040874
0.0 1.42256347 -1.40581406
1.78201305 -0.47735386 0.77237477
1.82596499 -0.16464716 0.7992141
1.68035577 -0.31286893 1.03851698
0.77237477 -1.78201305 -0.47735386
0.26614221 -1.97537668 -0.16448493
1.03851698 -1.68035577 -0.31286893
0.7992141 -1.82596499 -0.16464716
1.05146222 -1.70130162 0.0
0.52573111 -1.90211303 -0.3249197
0.7992141 -1.82596499 0.16464716
0.5328094 -1.92772253 0.0
1.03851698 -1.68035577 0.31286893
0.77237477 -1.78201305 0.47735386
0.26614221 -1.97537668 0.16448493
1.14250332 -0.42604573 -1.58529846
1.29482379 -0.59200919 -1.40461969
1.03224324 -0.69230603 -1.56690339
0.69230603 -1.56690339 -1.03224324
0.59200919 -1.40461969 -1.29482379
0.42604573 -1.58529846 -1.14250332
-0.71645759 0.26331074 -1.8486092
-0.44023406 0.26558495 -1.93278519
-0.60251776 0.5281655 -1.83248835
-0.16448493 -0.26614221 1.97537668
0.0 -0.5328094 1.92772253
0.16448493 -0.26614221 1.97537668
1.78201305 0.47735386 0.77237477
1.82596499 0.16464716 0.7992141
1.68035577 0.31286893 1.03851698
-1.68035577 0.31286893 1.03851698
-1.78201305 0.47735386 0.77237477
-1.82596499 0.16464716 0.7992141
-1.41421356 -0.74349607 -1.20300191
-1.02675088 -1.12850842 -1.29315558
-1.12850842 -1.29315558 -1.02675088
-1.29315558 -1.02675088 -1.12850842
-0.9368597 -1.51587084 -0.907981
-1.20300191 -1.41421356 -0.74349607
-1.51587084 -0.907981 -0.9368597
0.26331074 -1.8486092 -0.71645759
0.5281655 -1.83248835 -0.60251776
0.26558495 -1.93278519 -0.44023406
1.42256347 -1.40581406 0.0
1.24047916 -1.56040874 -0.1622837
1.24047916 -1.56040874 0.1622837

CELLS 578 2312
3 0 1 2
3 1 3 2
3 4 5 6
3 4 7 5
3 8 9 10
3 10 9 11
3 11 9 12
3 9 13 12
3 5 14 15
3 5 7 14
3 16 17 18
3 16 19 17
3 18 17 20
3 11 12 21
3 12 22 21
3 18 23 24
3 18 20 23
3 24 23 25
3 26 27 28
3 26 25 27
3 28 27 29
3 29 27 30
3 27 31 30
3 27 25 31
3 30 31 32
3 25 33 31
3 33 34 31
3 33 35 34
3 31 34 32
3 25 23 33
3 23 36 33
3 23 20 36
3 33 36 35
3 32 34 37
3 34 38 37
3 34 35 38
3 37 38 39
3 29 30 40
3 30 41 40
3 30 32 41
3 32 37 42
3 37 43 42
3 37 39 43
3 42 43 44
3 45 46 47
3 45 44 46
3 47 46 48
3 29 40 49
3 40 50 49
3 40 51 50
3 49 50 52
3 51 47 53
3 47 54 53
3 47 48 54
3 52 55 56
3 55 57 56
3 56 57 58
3 48 59 54
3 59 60 54
3 59 61 60
3 61 62 60
3 62 63 64
3 61 65 62
3 65 66 62
3 65 67 66
3 62 66 63
3 64 68 57
3 64 63 68
3 57 68 58
3 58 68 69
3 68 70 69
3 68 63 70
3 69 70 71
3 63 66 72
3 66 73 72
3 66 67 73
3 72 73 74
3 71 75 76
3 75 77 76
3 75 74 77
3 76 77 0
3 7 78 79
3 78 80 79
3 78 81 80
3 81 82 83
3 82 84 83
3 82 85 84
3 86 87 88
3 88 87 89
3 0 2 76
3 2 90 76
3 10 91 92
3 10 11 91
3 93 94 69
3 69 94 58
3 11 21 91
3 21 95 91
3 21 96 95
3 91 95 97
3 96 28 98
3 28 49 98
3 28 29 49
3 98 49 52
3 97 99 94
3 99 56 94
3 99 52 56
3 94 56 58
3 89 100 101
3 100 102 101
3 100 103 102
3 101 102 104
3 103 105 102
3 105 106 102
3 105 107 106
3 102 106 104
3 103 108 105
3 108 109 105
3 108 110 109
3 105 109 107
3 104 106 111
3 106 112 111
3 106 107 112
3 111 112 39
3 20 113 36
3 113 114 36
3 113 115 114
3 36 114 35
3 115 116 117
3 116 101 117
3 116 89 101
3 117 101 104
3 35 118 38
3 118 111 38
3 118 104 111
3 38 111 39
3 110 119 120
3 119 121 120
3 119 122 121
3 120 121 123
3 122 124 125
3 124 126 125
3 124 85 126
3 125 126 127
3 123 128 129
3 128 130 129
3 128 127 130
3 129 130 67
3 110 120 131
3 120 132 131
3 120 123 132
3 131 132 133
3 123 134 132
3 134 135 132
3 134 61 135
3 132 135 133
3 123 129 134
3 129 65 134
3 129 67 65
3 134 65 61
3 133 135 136
3 135 59 136
3 135 61 59
3 136 59 48
3 48 46 136
3 46 137 136
3 136 137 133
3 138 107 139
3 137 139 133
3 43 112 138
3 43 39 112
3 138 112 107
3 133 139 131
3 139 109 131
3 139 107 109
3 131 109 110
3 89 87 100
3 87 140 100
3 87 141 140
3 141 84 142
3 84 124 142
3 84 85 124
3 143 119 108
3 108 119 110
3 144 73 130
3 130 73 67
3 1 145 3
3 146 147 145
3 147 148 145
3 147 6 148
3 145 148 3
3 6 147 4
3 4 147 146
3 149 150 9
3 9 150 13
3 13 151 12
3 12 151 152
3 149 153 150
3 153 154 150
3 153 15 154
3 150 154 13
3 15 155 154
3 155 156 154
3 155 16 156
3 154 156 13
3 16 155 19
3 19 155 15
3 13 156 151
3 156 157 151
3 156 16 157
3 151 157 152
3 15 153 5
3 5 153 149
3 152 157 18
3 157 16 18
3 41 158 40
3 40 158 51
3 42 159 32
3 32 159 41
3 42 160 159
3 160 161 159
3 160 45 161
3 159 161 41
3 45 160 44
3 44 160 42
3 41 161 158
3 161 162 158
3 161 45 162
3 158 162 51
3 51 162 47
3 162 45 47
3 53 163 51
3 51 163 50
3 53 164 163
3 164 165 163
3 164 55 165
3 163 165 50
3 53 166 164
3 166 167 164
3 166 168 167
3 164 167 55
3 50 165 52
3 165 55 52
3 168 166 54
3 54 166 53
3 55 167 57
3 167 168 57
3 72 169 63
3 63 169 70
3 72 170 169
3 170 171 169
3 170 75 171
3 169 171 70
3 75 170 74
3 74 170 72
3 70 171 71
3 171 75 71
3 98 172 96
3 96 172 95
3 98 173 172
3 173 174 172
3 173 99 174
3 172 174 95
3 99 173 52
3 52 173 98
3 95 174 97
3 174 99 97
3 125 175 122
3 122 175 121
3 125 176 175
3 176 177 175
3 176 128 177
3 175 177 121
3 128 176 127
3 127 176 125
3 121 177 123
3 177 128 123
3 3 178 2
3 2 178 179
3 6 180 181
3 180 182 181
3 180 149 182
3 181 182 8
3 3 183 178
3 183 184 178
3 183 8 184
3 178 184 179
3 149 180 5
3 5 180 6
3 179 184 10
3 184 8 10
3 8 182 9
3 182 149 9
3 152 185 12
3 12 185 22
3 22 186 21
3 21 186 96
3 152 187 185
3 187 188 185
3 187 24 188
3 185 188 22
3 24 189 188
3 189 190 188
3 189 26 190
3 188 190 22
3 26 189 25
3 25 189 24
3 22 190 186
3 190 191 186
3 190 26 191
3 186 191 96
3 24 187 18
3 18 187 152
3 96 191 28
3 191 26 28
3 80 192 79
3 83 193 81
3 81 193 80
3 83 194 193
3 194 195 193
3 194 86 195
3 193 195 80
3 83 196 194
3 196 197 194
3 196 141 197
3 194 197 86
3 80 195 192
3 195 198 192
3 195 86 198
3 192 198 199
3 141 196 84
3 84 196 83
3 199 198 88
3 198 86 88
3 86 197 87
3 197 141 87
3 179 200 2
3 2 200 90
3 179 201 200
3 201 202 200
3 201 92 202
3 200 202 90
3 92 201 10
3 10 201 179
3 117 203 115
3 115 203 114
3 117 204 203
3 204 205 203
3 204 118 205
3 203 205 114
3 118 204 104
3 104 204 117
3 114 205 35
3 205 118 35
3 8 183 148
3 148 183 3
3 6 181 148
3 148 181 8
3 14 206 15
3 15 206 19
3 79 207 7
3 7 207 14
3 79 208 207
3 208 209 207
3 208 210 209
3 207 209 14
3 79 211 208
3 211 212 208
3 211 199 212
3 208 212 210
3 14 209 206
3 209 213 206
3 209 210 213
3 206 213 19
3 199 214 212
3 214 215 212
3 214 216 215
3 212 215 210
3 216 217 215
3 217 218 215
3 217 219 218
3 215 218 210
3 216 220 217
3 220 221 217
3 220 115 221
3 217 221 219
3 210 218 213
3 218 222 213
3 218 219 222
3 213 222 19
3 88 214 199
3 115 220 116
3 19 222 17
3 221 115 113
3 199 211 192
3 192 211 79
3 146 223 4
3 78 224 81
3 146 225 223
3 225 226 223
3 225 227 226
3 223 226 228
3 227 229 226
3 229 230 226
3 229 231 230
3 226 230 228
3 227 232 229
3 232 233 229
3 232 234 233
3 229 233 231
3 228 230 224
3 230 235 224
3 230 231 235
3 224 235 81
3 146 236 225
3 236 237 225
3 236 1 237
3 225 237 227
3 1 238 237
3 238 239 237
3 238 240 239
3 237 239 227
3 240 238 0
3 0 238 1
3 227 239 232
3 239 241 232
3 239 240 241
3 232 241 234
3 81 235 82
3 233 234 242
3 219 243 244
3 243 245 244
3 243 113 245
3 244 245 17
3 17 245 20
3 245 113 20
3 1 236 145
3 145 236 146
3 219 244 222
3 222 244 17
3 113 243 221
3 221 243 219
3 90 246 76
3 76 246 71
3 90 247 246
3 247 248 246
3 247 93 248
3 246 248 71
3 71 248 69
3 248 93 69
3 234 249 242
3 126 250 127
3 234 251 249
3 251 252 249
3 251 253 252
3 249 252 254
3 253 255 252
3 255 256 252
3 255 144 256
3 252 256 254
3 253 257 255
3 257 258 255
3 257 74 258
3 255 258 144
3 254 256 250
3 256 259 250
3 256 144 259
3 250 259 127
3 74 257 77
3 127 259 130
3 259 144 130
3 144 258 73
3 258 74 73
3 4 260 7
3 7 260 78
3 4 261 260
3 261 262 260
3 261 228 262
3 260 262 78
3 231 263 264
3 263 265 264
3 263 242 265
3 264 265 82
3 82 265 85
3 265 242 85
3 88 266 267
3 266 268 267
3 266 116 268
3 267 268 216
3 116 266 89
3 89 266 88
3 93 247 202
3 202 247 90
3 88 267 214
3 214 267 216
3 216 268 220
3 220 268 116
3 253 251 241
3 241 251 234
3 228 261 223
3 223 261 4
3 78 262 224
3 224 262 228
3 231 264 235
3 235 264 82
3 242 263 233
3 233 263 231
3 60 269 54
3 54 269 168
3 64 270 62
3 62 270 60
3 60 270 269
3 270 271 269
3 270 64 271
3 269 271 168
3 168 271 57
3 271 64 57
3 92 272 273
3 272 274 273
3 272 97 274
3 273 274 93
3 97 272 91
3 91 272 92
3 93 274 94
3 274 97 94
3 44 275 46
3 46 275 137
3 44 276 275
3 276 277 275
3 276 138 277
3 275 277 137
3 137 277 139
3 139 277 138
3 138 276 43
3 43 276 44
3 140 278 100
3 100 278 103
3 142 279 141
3 141 279 140
3 142 280 279
3 280 281 279
3 280 143 281
3 279 281 140
3 142 282 280
3 282 283 280
3 282 122 283
3 280 283 143
3 140 281 278
3 281 284 278
3 281 143 284
3 278 284 103
3 122 282 124
3 124 282 142
3 103 284 108
3 284 143 108
3 143 283 119
3 283 122 119
3 242 285 85
3 85 285 126
3 242 286 285
3 286 287 285
3 286 254 287
3 285 287 126
3 240 288 289
3 288 290 289
3 288 77 290
3 289 290 253
3 77 288 0
3 0 288 240
3 92 273 202
3 202 273 93
3 240 289 241
3 241 289 253
3 254 286 249
3 249 286 242
3 126 287 250
3 250 287 254
3 253 290 257
3 257 290 77

CELL_TYPES 578
5
5
5
5
5
5
5
5
5
5
5
5
5
5
5
5
5
5
5
5
5
5
5
5
5
5
5
5
5
5
5
5
5
5
5
5
5
5
5
5
5
5
5
5
5
5
5
5
5
5
5
5
5
5
5
5
5
5
5
5
5
5
5
5
5
5
5
5
5
5
5
5
5
5
5
5
5
5
5
5
5
5
5
5
5
5
5
5
5
5
5
5
5
5
5
5
5
5
5
5
5
5
5
5
5
5
5
5
5
5
5
5
5
5
5
5
5
5
5
5
5
5
5
5
5
5
5
5
5
5
5
5
5
5
5
5
5
5
5
5
5
5
5
5
5
5
5
5
5
5
5
5
5
5
5
5
5
5
5
5
5
5
5
5
5
5
5
5
5
5
5
5
5
5
5
5
5
5
5
5
5
5
5
5
5
5
5
5
5
5
5
5
5
5
5
5
5
5
5
5
5
5
5
5
5
5
5
5
5
5
5
5
5
5
5
5
5
5
5
5
5
5
5
5
5
5
5
5
5
5
5
5
5
5
5
5
5
5
5
5
5
5
5
5
5
5
5
5
5
5
5
5
5
5
5
5
5
5
5
5
5
5
5
5
5
5
5
5
5
5
5
5
5
5
5
5
5
5
5
5
5
5
5
5
5
5
5
5
5
5
5
5
5
5
5
5
5
5
5
5
5
5
5
5
5
5
5
5
5
5
5
5
5
5
5
5
5
5
5
5
5
5
5
5
5
5
5
5
5
5
5
5
5
5
5
5
5
5
5
5
5
5
5
5
5
5
5
5
5
5
5
5
5
5
5
5
5
5
5
5
5
5
5
5
5
5
5
5
5
5
5
5
5
5
5
5
5
5
5
5
5
5
5
5
5
5
5
5
5
5
5
5
5
5
5
5
5
5
5
5
5
5
5
5
5
5
5
5
5
5
5
5
5
5
5
5
5
5
5
5
5
5
5
5
5
5
5
5
5
5
5
5
5
5
5
5
5
5
5
5
5
5
5
5
5
5
5
5
5
5
5
5
5
5
5
5
5
5
5
5
5
5
5
5
5
5
5
5
5
5
5
5
5
5
5
5
5
5
5
5
5
5
5
5
5
5
5
5
5
5
5
5
5
5
5
5
5
5
5
5
5
5
5
5
5
5
5
5
5
5
5
5
5
5
5
5
5
5
5
5
5
5
5
5
5
5
5
5
5
5
5
5
5
5
5
5
5
5
5
5
5
5
5
5
5
5
5
5
5
5
5
5
5
5
5
5
5
5
5
5
5
5
5
5
5
5
5
5
5
5
5
5
5
5
5
5
5
5

CELL_DATA 578
SCALARS cell_data_0 double
LOOKUP_TABLE default
4.62559880443e-08
7.63967035142e-08
9.52522452414e-08
3.97311243134e-08
6.29510016359e-08
2.00365066026e-08
2.87628617453e-08
7.13181631874e-08
1.14960270432e-07
6.49753152011e-08
2.79386319294e-08
3.97143066396e-08
1.61904802067e-08
3.8635897604e-08
9.15093029507e-08
1.22642607772e-08
5.58956077733e-08
2.80365955132e-08
3.11770610002e-08
6.75201798086e-09
1.73227457752e-08
3.34878282995e-09
2.13109320868e-08
3.2897155742e-08
1.45272578873e-08
8.99794689228e-08
1.17954368104e-07
1.12525402572e-07
8.03224749964e-08
4.03479671656e-08
4.85983393985e-09
5.93884525498e-08
2.97726767108e-09
2.01170652821e-08
1.93715014865e-08
6.66965102477e-09
1.39735227353e-08
1.00373660359e-11
4.1400693727e-08
2.98558255359e-09
1.24522955408e-08
1.31294840728e-08
3.01017295088e-08
4.82021481212e-08
3.47243716396e-08
5.14095936996e-08
3.27787047715e-08
6.45937646779e-09
2.77761884236e-08
3.12145270683e-08
8.108016548e-09
2.11375117502e-08
5.31925449039e-08
1.5308028954e-08
9.80963353509e-09
4.52311628836e-08
1.19068415891e-08
6.81551372414e-09
6.15443212998e-08
1.19435965419e-08
8.10310824795e-08
1.41668806911e-07
2.61105084008e-09
3.49630268721e-08
2.75186181482e-08
2.4118463228e-08
1.04721398869e-07
4.16804829866e-08
3.31093786104e-08
3.63048505218e-08
6.34194058612e-08
4.20116756092e-08
3.87777732708e-08
1.17883144048e-08
1.67648348691e-08
4.63545277622e-10
2.96394435458e-08
3.85356387011e-08
3.84413856151e-08
4.37650986508e-08
5.61792230118e-08
5.77396149471e-08
3.37429515223e-08
3.92579468993e-08
5.17395989619e-08
2.15866229649e-08
1.12557367056e-08
6.44378273469e-08
4.1152890946e-08
1.50720005619e-08
7.28810512754e-08
7.93311168748e-08
1.52105526345e-08
8.18861740686e-08
4.47733389456e-09
4.13809325488e-08
4.25078522776e-08
4.62651105294e-08
3.02235511949e-08
2.04108556369e-08
9.41923129339e-09
1.96754516892e-08
6.31683272347e-10
2.72888424843e-08
6.97902701751e-09
9.53109289794e-09
2.5794504821e-08
3.02516347669e-08
6.67837460164e-09
2.37415445555e-08
4.66222632355e-08
5.50158130509e-08
9.38092417021e-08
8.39709163491e-08
5.58475643178e-08
8.67432992226e-09
1.59607793534e-08
1.92751268851e-08
2.51648421913e-08
4.39200474432e-08
3.13447387487e-09
2.45572288842e-08
3.61284735659e-08
1.08388133293e-08
1.96404177061e-08
4.2851626769e-08
1.29151565942e-08
3.09283252539e-08
2.10097774095e-08
4.18536868937e-08
4.53270541359e-09
2.51860853398e-08
1.63733353999e-08
1.93406677933e-08
2.92406055831e-08
3.54700203097e-08
4.59855847813e-09
3.61443103715e-08
1.27930611152e-08
1.82111286577e-08
5.1602165753e-09
4.93207426371e-08
3.43820170017e-08
1.2773242805e-08
2.41386269538e-08
7.25109938232e-09
1.88028360271e-08
3.05170551611e-08
9.48365865282e-09
3.69616571868e-08
1.52976059166e-08
1.03091151883e-07
1.55498274829e-07
1.22627540481e-07
1.06573045517e-07
1.21433559996e-08
5.77371159988e-08
3.31209023647e-08
1.97655446778e-08
2.13786095188e-08
9.65207283646e-08
2.43912386924e-08
2.39045437525e-08
1.00651322354e-08
1.55727190538e-07
9.45845677487e-08
2.66861184414e-07
3.02944823824e-07
7.82817700078e-08
3.95760036129e-08
3.02974859977e-08
6.38682335863e-08
1.10785274709e-07
5.55880859363e-08
1.51752695455e-08
2.05805422716e-08
1.18078775913e-07
8.94342222729e-08
5.31664396733e-08
8.29048124097e-08
6.91616879282e-09
1.65090002322e-07
1.45257155742e-08
1.47218689967e-07
1.24232153273e-08
5.40588701401e-09
2.32204661622e-08
2.10050593841e-08
1.94579185007e-08
1.38479571457e-08
2.38105057693e-08
2.56201186466e-08
1.07553236291e-08
2.92895146521e-08
2.69889640267e-08
4.24080826223e-09
2.90895299961e-08
7.27627580387e-10
3.39188291321e-08
4.23163522028e-08
4.01105711958e-08
2.29754930392e-09
2.99340790532e-08
3.06602712032e-08
2.01814613332e-08
4.28678583185e-08
2.59254164355e-08
1.41486148583e-08
2.69799575965e-08
2.57436129888e-08
1.26783189954e-08
1.07221796139e-09
1.01271921786e-08
3.40013296859e-08
3.23435378349e-08
3.84471949874e-08
1.04763259263e-08
5.23478886191e-09
4.25732565409e-08
1.49415021965e-08
3.14894042117e-08
3.08416368241e-08
2.64296786664e-08
2.61106778086e-08
2.97325937718e-08
1.18958900895e-08
2.74949702686e-08
3.61688864311e-08
3.76190026803e-08
2.76550197549e-08
6.97611589853e-09
1.04928469843e-08
2.95993900955e-08
1.58564514384e-09
4.3429030569e-08
5.53163238935e-08
2.72407078439e-08
1.30648647292e-08
2.68093867176e-08
2.67213483686e-08
1.45646969318e-08
1.74979453599e-08
3.39532799292e-09
2.64810267287e-08
2.01179347046e-08
5.69144657103e-10
1.60526788021e-08
9.32909769086e-09
4.29753385577e-08
1.33785736277e-08
4.21719102997e-08
4.57600263031e-08
7.51436564214e-09
7.64393159885e-09
5.49834929483e-09
1.33823430646e-08
7.4817802986e-09
6.7671442341e-09
4.09372655628e-08
1.7217199714e-08
3.93676907793e-08
4.44628996247e-08
1.43795031902e-08
1.40085715509e-08
9.03083400793e-09
9.70903387309e-09
6.04410856725e-09
1.54562470588e-08
5.10042210949e-08
1.24810145731e-08
5.2449844545e-08
4.11538842801e-08
2.30090833155e-09
3.25976210221e-10
6.83355191569e-09
1.61620312296e-09
1.789682866e-08
9.98607007636e-09
2.62870730451e-08
9.85429252695e-09
2.81126902168e-08
3.7056951123e-08
1.47108193561e-08
2.82147313115e-08
2.2539548313e-08
7.45597906863e-09
5.97440021176e-09
1.18790637941e-08
1.43821167826e-08
2.11510043986e-08
2.51273236357e-08
8.33325802219e-09
1.14054297456e-09
1.64028735585e-08
2.08158554709e-08
2.99820523006e-08
3.37401080019e-08
6.82841273767e-09
3.70814784202e-08
1.8651620828e-08
2.5897964623e-08
1.32915515466e-08
3.29087810669e-08
1.71549500715e-08
2.62833920414e-09
2.68442997545e-09
3.15489487327e-08
5.99153324245e-09
3.07494835241e-08
3.62370818719e-08
5.19079672591e-08
3.16884593864e-08
3.81894967145e-08
3.11811052875e-08
1.62311729825e-08
3.49298433466e-08
1.4918866546e-08
2.33572355577e-08
2.35749858035e-08
8.51766135136e-09
2.84649922653e-08
2.18174850571e-08
1.45116278637e-08
3.56947207395e-08
2.35495862835e-08
2.5149588144e-08
1.39304350949e-08
2.73953324462e-08
2.8199666912e-08
4.87046010859e-08
2.88932355242e-08
2.16832149161e-08
3.52494886365e-08
2.79630241266e-08
4.14912096468e-08
1.0303406072e-08
1.4187183186e-08
1.97697524251e-08
1.49643129574e-08
2.38917837135e-08
1.4657047623e-08
2.82655012924e-08
9.97745132245e-09
1.36531763166e-10
7.65377936102e-10
5.25686850284e-08
3.21933987239e-09
5.36972989463e-08
5.56320165837e-08
9.1130037632e-09
7.26109553951e-09
5.28734704547e-09
3.50931602835e-09
3.09193384401e-08
1.359759403e-08
1.75039727045e-08
2.5161679218e-08
1.29408418782e-08
1.82760892086e-08
3.6321104246e-08
2.63211091134e-08
3.75874980814e-08
1.79960313285e-09
5.64278781106e-09
2.72251592669e-08
2.78051402976e-08
5.40034754401e-09
1.52083270736e-08
2.3394148249e-09
2.83268500069e-08
1.66621500363e-11
3.2864292324e-09
3.87107748322e-08
1.67052510888e-08
1.49921230065e-08
1.13140147284e-08
1.35616055662e-08
7.4924193957e-09
5.3631332861e-10
1.06370397549e-08
5.54819119675e-09
1.7987385167e-09
2.5378338361e-09
4.62434875407e-08
6.48734012756e-09
3.10099371169e-09
2.35146120279e-09
3.91618593218e-09
3.08731465963e-08
7.30016085494e-09
3.14504177942e-08
2.46659500702e-08
2.52871425613e-08
1.99271466753e-08
8.25773676979e-09
9.6760784575e-09
1.7632027708e-08
3.78689254479e-08
4.00715338009e-09
7.53011814827e-09
1.65183299999e-08
2.4926921965e-08
2.60522621277e-08
3.09876273735e-08
2.44388514837e-08
2.17111596209e-08
1.86377530809e-08
1.79148325463e-08
2.35354733402e-08
1.22417569999e-08
2.18885657152e-09
1.0371334088e-08
4.78679250075e-08
3.64836952001e-08
2.41724009196e-08
4.58937088581e-08
1.9815059388e-08
4.17087663325e-08
8.15147611119e-09
8.02322780097e-10
4.70996418883e-09
4.39137913771e-08
8.49406826931e-09
8.70364223582e-09
6.8752047766e-09
1.65567346153e-09
1.5908192613e-08
3.53480450165e-08
5.78407522358e-08
2.06624540687e-08
1.59522326818e-08
2.74830395136e-08
3.29613922309e-08
4.85385432323e-08
4.30226018625e-08
9.9904508775e-09
2.55295767551e-08
2.74602403267e-09
1.57704657469e-08
9.33381118224e-09
4.38467585852e-09
1.03564682996e-08
2.20861882955e-08
2.52678438944e-08
1.03618450029e-08
3.94926431913e-08
2.68783867784e-08
2.58627383311e-08
1.78709829285e-08
5.75265164598e-08
1.93185787524e-08
2.95543569988e-08
4.62362336995e-09
5.73323222248e-09
5.79184295937e-09
1.09047764145e-08
5.04162306628e-09
9.80954659307e-09
5.46763742671e-09
1.3548778118e-08
1.75882869677e-08
2.98169191578e-08
7.80734751848e-09
7.3330804967e-09
1.04602565026e-08
6.11679367142e-09
2.82657813831e-08
1.56192476268e-08
2.77016706388e-08
2.07219036418e-08
3.32814085493e-08
2.6454733947e-08
1.47906651946e-08
1.60807114008e-08
2.44233995574e-08
2.00924277242e-08
1.52055181998e-08
2.57734015386e-08
1.69655406227e-08
1.39331241973e-08
8.26493351657e-10
3.11454220225e-08
2.2080247637e-08
5.32609731428e-08
2.42811012553e-08
1.91913623444e-08
2.81008551709e-08
1.22434529365e-08
1.02306584341e-08
4.31073693606e-09
1.56285927937e-08
2.49899523103e-08
6.60230415177e-09
6.10391381854e-09
2.74100803816e-09
1.77732264333e-08
2.51620073666e-08
3.74740915204e-08
7.27992575566e-09
1.05231954046e-08
1.51346576746e-08
1.62934492491e-10
3.49216397134e-10
2.42642471057e-08
1.45745251982e-08
5.82688105824e-09
2.80822259388e-08
2.6646217817e-09
2.03965224099e-08
9.72243441124e-10
4.28723526253e-08
1.81309333185e-08
3.32785191894e-08
1.92081540124e-08
6.54773932955e-09
7.83141264564e-09
1.79041013869e-08
2.04159000793e-08
2.36445070542e-08
2.79729333849e-08
2.60716124931e-08
1.01430103215e-08
1.75727831068e-08
2.71470982375e-08
9.70507174407e-09
2.65786976323e-08
8.39449093604e-09
2.62418146072e-08
1.85452411246e-08
6.304541355e-09
1.20317306484e-07
9.64562160228e-08
3.96438915154e-09
1.22237282667e-08
1.88649694619e-08
3.28186802316e-08
2.36473986615e-08
4.11133715149e-08
1.60413707982e-08
1.23260988667e-08
1.67631753462e-08
7.84953722417e-09
5.0098177281e-09
2.37921385703e-08
2.20737074318e-08
6.4928243308e-09
2.69206899007e-09
2.26070640812e-08
5.61817941225e-09
3.09729195021e-08
2.24092319341e-08
8.99982828288e-09
3.24172402599e-08
2.46375237106e-08
2.70000888365e-08
2.28824558249e-08
5.2820862338e-08
1.35264401201e-08
5.93914051007e-10
1.3901053417e-08
1.61428160908e-09
2.61981486126e-08
7.09472917738e-09
1.12671007887e-08
2.47921001218e-08
7.04223341597e-09
1.53416722837e-08
3.88770821548e-08
1.76121131995e-08
2.48177972543e-08
1.03239494645e-08
3.39739419639e-08
9.03453823007e-09
1.45129423537e-08
1.46254886291e-08
1.00174319225e-08
8.33988619344e-09
3.60390091164e-09

