# vtk DataFile Version 3.0
File Name: Molecule/sphere_cent/sphere_cent_0-s14.vtk
ASCII
DATASET UNSTRUCTURED_GRID
FIELD FieldData 1
TIME 1 1 double
0.0
POINTS 187 double
0.86699062586 -0.49554440379 -0.0438176319
0.94415688515 -0.23175984621 -0.23168763518
0.99439400434 -0.052944086492 0.085769608617
0.34259736538 -0.50829422474 -0.78996127844
0.047294035554 -0.51342236996 -0.85637331009
0.16781665385 -0.26168987155 -0.95042878389
-0.14024287462 -0.24955436587 -0.95748984814
0.0083122849464 0.031898789108 -0.99928796291
0.49022319913 0.82693576813 0.27475124598
0.42539003491 0.68989002705 0.58572155237
0.68824833632 0.58993327618 0.42220658064
0.58932310343 0.42720347643 0.68568366766
0.28139770031 0.4923813343 0.82348829508
0.82950741053 0.28319016099 0.48101007938
0.77720910311 0.35646763444 -0.51738488674
0.56343978643 0.44621229172 -0.69510310888
0.6648671627 0.61254239082 -0.42717581987
0.4168407321 0.69474852085 -0.5861209631
0.27582779527 0.49046817422 -0.82644212246
0.48158812523 0.83255434036 -0.27272665501
-0.54608666897 -0.25213006139 0.7986522913
-0.32691389322 -0.49144181609 0.80707293749
-0.35042443871 -0.14597041905 0.92441052198
-0.0041201906279 -0.5346955657 0.84497195482
-0.16588465869 -0.29137429595 0.94090032578
0.15422548354 -0.26700618863 0.95124197006
0.31429305673 -0.5217256546 0.79293382168
0.10725556314 -0.82694548368 0.55125319958
-0.951407969 0.15797142684 0.26397308707
-0.95328068733 -0.15482336283 0.25902876258
-0.86310940981 -0.036243520677 0.50352144241
-0.99854588509 0.011841668747 -0.0033806543797
-0.82762604952 -0.28898942471 0.48003897071
-0.85837423801 0.51053857803 -0.0042681875639
-0.067067071795 0.86163216829 0.50051826239
-0.24454577267 0.95728361607 0.15455333889
-0.48365262151 0.81469070911 0.31491050124
0.032214362174 0.99923968315 -0.0059411320835
-0.24802470207 0.95539498329 -0.16060771048
-0.50505149364 0.86127483845 -0.0046288259327
-0.48945564032 0.80806368589 -0.32300013304
-0.062689512968 0.86306285858 -0.49816709757
-0.41226902604 0.68537503481 0.60020858049
-0.67222303152 0.58391523361 0.45190572739
-0.55250644684 0.46682709455 0.69004619122
-0.30360034108 0.487732023 0.81843316555
-0.045663852245 -0.87140029669 -0.48664563894
0.27515253425 -0.94544678926 -0.17427203059
-0.0056754839607 -0.99944633245 -0.025257548317
0.51160681248 -0.85798168182 0.039660211653
0.25432667136 -0.95267999172 0.16639341414
0.48983457685 -0.80653035641 0.33068606257
-0.50250291824 -0.80574041605 -0.31303676963
-0.54136711359 -0.83933269978 -0.0037445609923
-0.76795631647 -0.59728944302 -0.22599250078
-0.84489971399 -0.53488987684 -0.00015917955898
-0.76708346605 -0.59854638577 0.22776632011
-0.27681866288 -0.94780021906 -0.15825511515
-0.2819288671 -0.94840097427 0.14467802644
-0.51177799702 -0.80439138412 0.30176144838
-0.24568136036 -0.86484515667 0.43771800399
-0.030148664489 -0.96202814579 0.2712828517
-0.44147664309 -0.68731254339 0.57675814629
-0.65926277637 -0.60586035252 0.44344267249
-0.56558889151 -0.48045599461 0.66988617182
-0.18677170575 -0.7124093771 0.67642682791
-0.79891180992 -0.29379937053 -0.52014756203
-0.85323232412 -0.0033541312441 -0.52155804634
-0.56630605459 -0.050908356905 -0.82131260633
-0.94591027498 -0.13277630508 -0.29312118888
-0.94660264254 0.16210193932 -0.27560088038
-0.82028698921 0.30694493651 -0.48226195574
-0.79335832596 0.55636501312 -0.24018527567
-0.42099866271 0.67931246758 -0.60110867023
-0.29967409372 0.50093644857 -0.81194162369
-0.54725569487 0.45290830731 -0.70319932699
-0.68284922838 0.56622242928 -0.4561060369
-0.60131913424 -0.43596413732 -0.66962856054
-0.35254845023 -0.51079303026 -0.78321808577
-0.4465585053 -0.68283617496 -0.57808071375
-0.66682714224 -0.59999656677 -0.44022166729
0.52164787054 0.0021437611431 0.85314625502
0.44804349542 -0.25705966353 0.85615611076
0.68837106228 -0.15806418657 0.70792031288
0.59114086628 -0.43721094728 0.67770135403
0.7837870717 -0.32896578312 0.52670818567
0.45316261053 -0.67240029573 0.58522975445
0.68534886837 -0.57602363825 0.44550976157
0.88112300634 -0.3890825808 0.26812458038
0.71915525198 -0.66704684496 0.19398069382
0.87719780207 -0.052443146706 0.47679802775
0.70317554474 0.13556933403 0.69793379307
-0.26673769951 0.047352090478 -0.96260643005
-0.14611460268 0.28805336356 -0.9463840127
-0.39936926961 0.25751525164 -0.87992101908
0.41873309016 0.250985533 0.87263953686
0.27357935905 0.015664283186 0.96167045832
-0.13529875875 0.68016457558 0.72045379877
0.13668745756 0.70591318607 0.69474709034
-0.0065103657544 0.50110143423 0.86534994841
-0.15758173168 0.27732476592 0.94768083096
0.13323426247 0.27505117655 0.95212769508
-0.0015023341402 0.038991186768 0.99909228086
-0.5228471756 0.25170341134 0.81344413757
-0.26953038573 0.030362749472 0.96215760708
-0.012007443234 0.51173651218 -0.85901409388
0.13357700408 0.70612043142 -0.69508737326
-0.13896656036 0.68655097485 -0.7137182951
0.24180987477 0.87461525202 0.41985371709
0.24042913318 0.87743735313 -0.41456231475
0.13582381606 0.27772170305 -0.95100784302
0.27531474829 0.952018857 0.1335862875
0.043507710099 0.96562421322 0.25630757213
0.45276233554 -0.67119932175 -0.5868665576
0.20579485595 -0.71222102642 -0.67117643356
0.28074714541 -0.8390353322 -0.46608379483
0.51555043459 -0.77420330048 -0.36716532707
0.54227072001 -0.0015468329657 -0.84014981985
0.28783518076 0.016551911831 -0.95747208595
0.39141714573 0.25169152021 -0.88509470224
0.45543000102 -0.25925457478 -0.85158312321
0.85496777296 0.51846963167 -0.012365705334
0.67805457115 0.72411209345 -0.12598578632
0.70271193981 0.69802057743 0.13724561036
0.49717202783 0.86763435602 0.00097774260212
0.27363196015 0.951998353 -0.13720142841
0.04092765972 0.96463942528 -0.26047596335
0.96215546131 0.26845502853 0.04626885429
0.94732511044 0.15685352683 0.27934131026
0.87019884586 0.42978700995 0.2403832674
0.6738191247 -0.20085640252 -0.71099615097
0.58303380013 -0.45222958922 -0.67491972446
0.78049206734 -0.3535888195 -0.5148152113
0.82432019711 -0.050765864551 -0.56363832951
0.70827257633 0.073276586831 -0.70197737217
0.89969176054 0.38935214281 -0.19669361413
0.96382927895 0.17665477097 -0.19853718579
0.66802811623 -0.59071952105 -0.45234143734
0.82971829176 -0.47263616323 -0.29693853855
0.71578377485 -0.6602204442 -0.2271335721
0.90992379189 -0.10920214653 -0.39964166284
0.91489607096 0.074749335647 -0.39664021134
0.96863275766 -0.018796894699 -0.24656331539
0.82428407669 0.16040915251 -0.54298049212
0.8883420229 0.26511538029 -0.37493529916
-0.70529794693 -0.17551518977 0.68664622307
0.55218935013 -0.81744945049 -0.1640291512
0.70248711109 -0.71099346876 -0.032529383898
-0.76302856207 -0.45829895139 0.45563453436
-0.7032751441 -0.3583805263 0.61377108097
-0.71991360188 0.0091168154031 0.69374519587
-0.51003819704 0.0048010242172 0.85965973139
-0.71911334991 0.15348942578 -0.67768293619
-0.6981497407 0.357296139 -0.62032055855
-0.58747506142 0.22422450781 -0.77773141861
-0.15626661479 -0.53522253036 -0.83023840189
-0.1983409375 -0.69781249762 -0.68823075294
-0.011919879355 -0.7039963603 -0.71015799046
0.8122817874 0.44798970222 -0.3733856082
0.58587437868 0.21996875107 -0.77997010946
0.70701521635 0.2737839818 -0.65199065208
-0.8189343214 0.32234457135 0.4739946425
-0.8301859498 0.15482233465 0.5355463624
-0.70037823915 0.3641012907 0.61378496885
-0.68837177753 0.1748855412 0.70373117924
0.7929443717 0.56453490257 -0.22917373478
-0.27488586307 -0.37290978432 -0.88633328676
-0.36136323214 -0.15910309553 -0.91878628731
-0.45493024588 -0.29344597459 -0.84077996016
-0.10652124137 -0.12022233009 0.98691886663
-0.87355428934 -0.41768607497 0.24882227182
-0.96214389801 -0.27062639594 0.015114901587
-0.88683962822 -0.2522828877 -0.38710644841
-0.9855209589 -0.091808706522 -0.14253637195
-0.93124789 -0.33037611842 -0.15233318508
-0.86179214716 -0.4317484498 -0.26617351174
-0.76823681593 -0.44936275482 -0.45606797934
-0.86287784576 0.43347203732 0.25986176729
-0.52295190096 0.83683907986 -0.1621569097
-0.52234095335 0.83810603619 0.15694840252
-0.59928363562 0.71123439074 0.3677059412
-0.69823902845 0.71587526798 -0.0028868892696
-0.69870585203 0.69698351622 0.16185991466
-0.70018142462 0.69375234842 -0.16899049282
-0.76416182518 0.45802721381 0.45424538851
-0.78467017412 0.57352906466 0.23378406465
-0.60534644127 0.70018744469 -0.37865757942

CELLS 370 1480
3 0 1 2
3 3 4 5
3 4 6 5
3 5 6 7
3 8 9 10
3 9 11 10
3 9 12 11
3 10 11 13
3 14 15 16
3 15 17 16
3 15 18 17
3 16 17 19
3 20 21 22
3 21 23 24
3 23 25 24
3 23 26 25
3 26 23 27
3 28 29 30
3 28 31 29
3 30 29 32
3 31 28 33
3 34 35 36
3 37 38 35
3 38 39 35
3 40 38 41
3 36 42 34
3 43 44 42
3 42 44 45
3 46 47 48
3 49 50 47
3 49 51 50
3 47 50 48
3 50 51 27
3 52 53 54
3 55 53 56
3 52 57 53
3 57 58 53
3 57 48 58
3 53 58 59
3 48 57 46
3 46 57 52
3 59 58 60
3 58 61 60
3 58 48 61
3 60 61 27
3 59 62 63
3 62 64 63
3 62 21 64
3 59 60 62
3 60 65 62
3 60 27 65
3 62 65 21
3 21 65 23
3 23 65 27
3 27 61 50
3 50 61 48
3 66 67 68
3 69 70 67
3 67 70 71
3 71 70 72
3 70 31 33
3 41 73 40
3 74 75 73
3 75 76 73
3 68 77 66
3 78 79 77
3 79 80 77
3 79 52 80
3 52 79 46
3 81 82 83
3 82 84 83
3 82 26 84
3 83 84 85
3 26 86 84
3 86 87 84
3 86 51 87
3 84 87 85
3 51 86 27
3 27 86 26
3 85 87 88
3 87 89 88
3 87 51 89
3 88 89 0
3 85 88 90
3 2 88 0
3 2 90 88
3 85 90 83
3 90 91 83
3 90 13 91
3 83 91 81
3 7 92 93
3 92 94 93
3 92 68 94
3 93 94 74
3 6 92 7
3 81 91 95
3 11 91 13
3 26 82 25
3 25 82 96
3 49 89 51
3 74 94 75
3 34 97 98
3 97 99 98
3 97 45 99
3 98 99 12
3 45 100 99
3 100 101 99
3 100 102 101
3 99 101 12
3 100 103 104
3 12 101 95
3 101 96 95
3 101 102 96
3 95 96 81
3 18 105 106
3 105 107 106
3 105 74 107
3 106 107 41
3 34 98 108
3 9 98 12
3 12 95 11
3 11 95 91
3 18 106 17
3 17 106 109
3 81 96 82
3 25 96 102
3 45 97 42
3 42 97 34
3 41 107 73
3 73 107 74
3 74 105 93
3 93 105 110
3 8 111 108
3 111 112 108
3 111 37 112
3 108 112 34
3 3 113 114
3 113 115 114
3 113 116 115
3 114 115 46
3 117 118 119
3 118 110 119
3 118 7 110
3 119 110 18
3 7 118 5
3 5 118 120
3 3 114 4
3 8 108 9
3 9 108 98
3 15 119 18
3 34 112 35
3 35 112 37
3 46 115 47
3 47 115 116
3 18 110 105
3 93 110 7
3 121 122 123
3 122 124 123
3 122 19 124
3 123 124 8
3 19 109 125
3 109 126 125
3 109 41 126
3 125 126 37
3 2 127 128
3 127 129 128
3 127 121 129
3 128 129 13
3 117 130 120
3 130 131 120
3 130 132 131
3 120 131 3
3 132 130 133
3 133 130 134
3 121 127 135
3 136 127 2
3 117 120 118
3 5 120 3
3 121 123 129
3 10 123 8
3 13 129 10
3 10 129 123
3 19 122 16
3 41 109 106
3 17 109 19
3 37 126 38
3 38 126 41
3 2 128 90
3 90 128 13
3 19 125 124
3 111 125 37
3 8 124 111
3 111 124 125
3 3 131 113
3 113 131 137
3 132 138 137
3 138 139 137
3 138 0 139
3 137 139 116
3 0 138 1
3 1 138 132
3 133 140 132
3 132 140 1
3 133 141 140
3 141 142 140
3 141 136 142
3 140 142 1
3 133 143 141
3 143 144 141
3 143 14 144
3 141 144 136
3 1 142 2
3 142 136 2
3 32 145 30
3 116 146 47
3 146 49 47
3 0 147 139
3 147 146 139
3 147 49 146
3 139 146 116
3 63 64 148
3 32 149 145
3 149 20 145
3 149 64 20
3 150 145 151
3 21 20 64
3 71 152 67
3 67 152 68
3 75 153 76
3 153 71 76
3 71 153 152
3 153 154 152
3 153 75 154
3 152 154 68
3 49 147 89
3 89 147 0
3 68 154 94
3 94 154 75
3 132 137 131
3 113 137 116
3 4 155 6
3 78 155 156
3 155 157 156
3 155 4 157
3 156 157 46
3 16 158 14
3 14 158 144
3 117 159 134
3 159 160 134
3 159 15 160
3 134 160 143
3 161 162 163
3 162 150 164
3 162 30 150
3 164 150 151
3 30 162 28
3 28 162 161
3 43 163 44
3 44 103 45
3 45 103 100
3 44 163 103
3 163 164 103
3 164 163 162
3 103 164 151
3 78 156 79
3 79 156 46
3 46 157 114
3 114 157 4
3 15 159 119
3 119 159 117
3 121 165 122
3 122 165 16
3 143 160 14
3 14 160 15
3 117 134 130
3 133 134 143
3 144 135 136
3 136 135 127
3 121 135 165
3 135 158 165
3 135 144 158
3 165 158 16
3 20 151 145
3 145 150 30
3 6 166 167
3 166 168 167
3 166 78 168
3 167 168 68
3 151 22 104
3 22 169 104
3 22 24 169
3 104 169 102
3 102 169 25
3 25 169 24
3 55 170 171
3 29 170 32
3 31 171 29
3 29 171 170
3 63 56 59
3 59 56 53
3 55 56 170
3 56 148 170
3 56 63 148
3 170 148 32
3 66 172 67
3 172 69 67
3 69 173 70
3 173 31 70
3 31 173 171
3 173 174 171
3 173 69 174
3 171 174 55
3 55 174 175
3 174 172 175
3 174 69 172
3 175 172 176
3 68 168 77
3 77 168 78
3 80 176 77
3 77 176 66
3 66 176 172
3 176 54 175
3 176 80 54
3 175 54 55
3 55 54 53
3 52 54 80
3 6 167 92
3 92 167 68
3 151 104 103
3 100 104 102
3 32 148 149
3 149 148 64
3 24 22 21
3 20 22 151
3 78 166 155
3 155 166 6
3 161 177 28
3 28 177 33
3 40 178 38
3 38 178 39
3 39 179 35
3 35 179 36
3 36 179 180
3 179 181 182
3 179 39 181
3 182 181 33
3 39 178 181
3 178 183 181
3 178 40 183
3 181 183 33
3 36 180 42
3 180 43 42
3 161 184 177
3 184 185 177
3 184 43 185
3 177 185 33
3 33 185 182
3 185 180 182
3 185 43 180
3 182 180 179
3 76 186 73
3 73 186 40
3 40 186 183
3 186 72 183
3 186 76 72
3 183 72 33
3 33 72 70
3 71 72 76
3 43 184 163
3 163 184 161

CELL_TYPES 370
5
5
5
5
5
5
5
5
5
5
5
5
5
5
5
5
5
5
5
5
5
5
5
5
5
5
5
5
5
5
5
5
5
5
5
5
5
5
5
5
5
5
5
5
5
5
5
5
5
5
5
5
5
5
5
5
5
5
5
5
5
5
5
5
5
5
5
5
5
5
5
5
5
5
5
5
5
5
5
5
5
5
5
5
5
5
5
5
5
5
5
5
5
5
5
5
5
5
5
5
5
5
5
5
5
5
5
5
5
5
5
5
5
5
5
5
5
5
5
5
5
5
5
5
5
5
5
5
5
5
5
5
5
5
5
5
5
5
5
5
5
5
5
5
5
5
5
5
5
5
5
5
5
5
5
5
5
5
5
5
5
5
5
5
5
5
5
5
5
5
5
5
5
5
5
5
5
5
5
5
5
5
5
5
5
5
5
5
5
5
5
5
5
5
5
5
5
5
5
5
5
5
5
5
5
5
5
5
5
5
5
5
5
5
5
5
5
5
5
5
5
5
5
5
5
5
5
5
5
5
5
5
5
5
5
5
5
5
5
5
5
5
5
5
5
5
5
5
5
5
5
5
5
5
5
5
5
5
5
5
5
5
5
5
5
5
5
5
5
5
5
5
5
5
5
5
5
5
5
5
5
5
5
5
5
5
5
5
5
5
5
5
5
5
5
5
5
5
5
5
5
5
5
5
5
5
5
5
5
5
5
5
5
5
5
5
5
5
5
5
5
5
5
5
5
5
5
5
5
5
5
5
5
5
5
5
5
5
5
5
5
5
5
5
5
5
5
5
5
5
5
5
5
5
5
5
5
5
5
5
5
5
5
5
5
5
5
5
5
5

CELL_DATA 370
SCALARS cell_data_0 double
LOOKUP_TABLE default
9.82943478398e-07
2.68363289495e-07
4.55151552747e-07
1.22500230823e-07
1.35354353772e-07
7.65348067558e-08
1.76459574855e-07
1.42377705262e-07
2.11306850923e-09
3.86087380267e-07
2.11086630839e-07
1.4601261027e-07
4.87960633578e-07
1.21365860229e-07
1.90641223327e-08
1.05953822592e-07
7.52790854377e-07
8.55244646219e-08
9.25721668713e-08
3.21276646787e-07
1.81566091724e-06
1.18088243368e-06
1.86274457833e-07
2.78610704177e-07
1.04700444548e-06
1.30283220085e-06
2.20565334017e-07
1.15821519313e-09
1.33980296678e-06
4.21874772794e-07
5.27467903669e-07
5.30625283641e-07
3.80319479754e-07
9.17227551722e-07
9.15553158274e-07
1.46072009383e-07
3.84004914582e-08
2.19911142989e-07
9.99077811842e-08
8.12003737077e-07
9.2347902789e-07
9.50371745287e-08
2.40994839502e-07
6.30572802793e-08
1.61360508161e-07
5.80292847679e-08
8.49507421609e-08
9.61036594726e-08
1.02104097269e-07
2.08939179248e-07
1.0480620847e-07
7.37125194356e-08
1.59165354864e-07
1.53807167298e-07
1.94821672298e-07
4.03094153293e-07
8.04921277046e-07
1.61533728428e-07
4.98104624432e-08
7.05988311354e-07
2.02275223659e-06
1.1427259847e-06
2.33218486912e-07
2.48947619795e-07
6.73514510718e-07
1.44275594071e-07
9.24010774053e-08
1.1092254579e-07
1.78616360897e-06
2.24206114469e-07
5.40214333062e-08
8.33268751268e-09
4.98589602309e-07
2.69970818946e-07
1.74901993113e-07
3.35593669797e-07
3.87859849414e-07
8.75546811018e-08
1.40164176354e-07
3.74346108314e-07
8.59000141196e-08
1.33004745782e-07
1.91046155088e-07
1.46190474712e-07
1.14950059217e-06
1.39381848448e-06
4.88117084317e-07
1.54390161121e-08
2.55686141676e-07
2.99426661067e-07
2.98075059706e-08
1.34601400196e-07
3.30098854176e-07
3.08005091539e-07
1.12413486585e-07
6.00086178103e-09
3.32609185088e-08
8.6976423274e-09
1.57725981427e-07
4.7842913534e-08
2.46190383498e-07
1.22014517282e-07
7.6718485348e-08
8.0931865901e-08
1.16421027772e-07
5.13394599723e-08
1.1109627119e-07
1.11734722908e-07
2.05839309655e-07
9.74968085108e-07
2.31822392312e-07
7.2595944549e-08
1.72439969046e-07
1.38322996436e-07
3.15167844698e-08
1.44678343642e-08
3.13565201045e-07
2.21316116375e-07
1.95898344109e-07
4.93987599377e-08
8.40520057885e-08
1.54244891031e-07
3.92778170628e-08
8.13779921715e-08
1.38854748489e-08
9.19760707698e-08
3.73665796322e-09
2.64484717205e-07
5.45484270375e-08
2.26363768992e-07
2.5028797881e-07
4.40108322908e-08
4.27411392999e-08
2.94786796439e-08
1.14606531953e-07
5.14109338774e-08
5.72706214502e-08
6.05004250025e-09
2.38379583412e-07
1.94484377797e-07
3.65396328505e-08
5.21474393529e-08
1.07356788707e-07
1.1143865763e-07
1.92203486895e-07
3.71891953628e-07
2.65287493458e-07
1.05203198256e-07
1.47829125392e-07
5.81830299144e-08
1.79982500499e-07
2.53210264991e-08
3.57081136433e-07
3.96546227037e-07
2.00242523296e-08
3.12918172171e-08
7.18214300589e-08
7.58033346497e-08
1.92292878306e-07
8.87242433766e-08
3.79830162101e-08
5.01095961492e-08
3.14109983396e-07
1.37234279943e-07
2.60872611498e-08
5.63875032436e-08
7.05111905342e-09
4.4024071996e-08
1.34657571285e-08
7.46310730548e-08
8.29172092255e-08
7.04490608339e-08
1.22317578449e-08
6.68492876467e-08
3.8558480469e-08
3.50114246261e-07
2.24232631202e-07
2.69581941855e-07
1.13759289004e-07
1.13740194263e-07
8.1282659145e-08
1.33538570436e-07
5.55234289899e-08
1.37305970472e-07
8.93481699474e-08
1.08127882565e-08
7.14535312664e-08
2.64628840811e-07
8.52732246511e-08
8.98357039987e-08
3.78316898418e-08
1.51164116161e-07
7.40834140339e-08
3.3156308561e-08
2.66129585373e-08
9.28675684496e-08
1.46901262518e-07
1.8182522248e-07
3.10705717023e-07
2.03710110386e-07
2.98311302427e-09
4.21326081445e-08
2.33968295884e-08
1.47186360576e-07
9.79714451648e-08
7.97989219501e-08
2.3005620397e-07
1.07105440943e-07
9.98178183196e-08
8.602635225e-08
5.23004647966e-08
2.45886209159e-08
2.36362227863e-07
1.37462971861e-07
3.22695036911e-07
1.97269279206e-07
1.15337088299e-07
9.6549872938e-08
9.73831074765e-08
3.10965034496e-07
1.93201168946e-08
1.365306722e-07
4.85029272756e-08
2.11167072771e-08
4.96268533532e-08
4.16514338526e-08
1.17846060161e-07
3.35861675649e-07
3.2402951888e-08
1.75089753328e-07
1.89496668328e-07
5.46657645363e-08
9.5772337846e-08
1.01122792907e-07
2.76864990542e-10
1.28119281524e-08
1.52123145709e-08
1.08247786792e-07
5.19120154492e-08
2.33453827976e-07
2.95077089812e-07
1.68754614012e-07
5.00136896557e-09
2.96892994834e-07
1.59947663742e-08
8.51529354099e-08
7.0075594376e-08
1.2028958e-07
6.51388767457e-08
1.59122765167e-07
6.29252927221e-08
1.95866990236e-08
7.64737192294e-09
5.61256184806e-08
1.82597691082e-08
4.85637305043e-08
4.49718487568e-08
8.31139083397e-08
1.37392183516e-07
5.69144697106e-07
1.10112968458e-07
1.72413442729e-07
1.21023830576e-07
9.1594810253e-08
1.77315173325e-07
5.88779036355e-07
1.22157012994e-07
2.81888329188e-07
1.01157812324e-07
6.00782051632e-08
5.63111272891e-08
5.7159531329e-08
1.02098193201e-07
1.28614680907e-07
2.84616888336e-08
1.51710811209e-07
3.15018902519e-08
6.03013947475e-08
3.18777977271e-08
3.95846453549e-08
1.52422091541e-08
7.33840708339e-08
1.2631918385e-07
4.03806184333e-08
1.14109679535e-07
1.85854783757e-08
1.58067586096e-07
1.39318778027e-07
8.96166406073e-08
4.58536960569e-08
9.61351661606e-08
4.46796430875e-08
5.47646259127e-08
6.56405024886e-08
3.04926037859e-07
1.03606212363e-07
1.37236784945e-07
2.26914017154e-07
5.42191836148e-08
7.11596304398e-07
9.1934050407e-08
1.46261757406e-07
6.64016657247e-09
1.01143287746e-07
3.04907696648e-07
1.27422012674e-07
5.97889142723e-08
1.55008970585e-07
6.96625691665e-08
5.84891075937e-08
8.49724787936e-08
5.44020941822e-08
1.00734463542e-07
6.85594436732e-08
6.74197477584e-08
5.89506145558e-08
2.30543222554e-07
2.3519635909e-07
8.26987910328e-08
3.48081968072e-07
2.59168957235e-07
1.18919066228e-07
3.12526877884e-08
1.45989005368e-08
9.11552249685e-07
1.67501981834e-07
6.05377582116e-08
3.26574851541e-08
3.20925118041e-07
4.35722674158e-08
1.79672432051e-07
7.68373824396e-10
8.82383755362e-08
5.93919591375e-09
1.96290529316e-07
3.21821609384e-08
1.24329778981e-07
4.66836813765e-07
3.82081353137e-08
3.36580756632e-08
4.75697739111e-08
5.10802806407e-08
8.57425444737e-08
8.19075283075e-08
5.66739602363e-08
3.01726801648e-08
1.63726544495e-08
4.37192328098e-08
4.37508347748e-09
1.12485156708e-08
4.88553547567e-08
7.82037153905e-08
1.85698448016e-08
8.53355190608e-08
7.24310377758e-08
6.29957289927e-08
4.27549664902e-08
6.17382036301e-08
5.20370357198e-08
1.71650355022e-07
1.02339894749e-07
5.13547959574e-08
2.37859168437e-08
1.40021598442e-07
8.86952833936e-08
1.34604071081e-08
1.24170615737e-06
1.39715128097e-07
2.7678828944e-08
5.55960872406e-08

