# vtk DataFile Version 3.0
File Name: Molecule/sphere_cent/sphere_cent_0-s34.vtk
ASCII
DATASET UNSTRUCTURED_GRID
FIELD FieldData 1
TIME 1 1 double
0.0
POINTS 1508 double
0.92746394873 -0.14786572754 -0.34335097671
0.96852970123 -0.099309928715 -0.22806024551
0.93184792995 -0.23632313311 -0.27527427673
0.86695235968 0.48624014854 -0.10913844407
0.87742465734 0.43310293555 -0.20583537221
0.8196156621 0.53213047981 -0.21213565767
-0.98165529966 -0.16750051081 -0.091064617038
-0.9478443265 -0.28587970138 -0.14093588293
-0.96258556843 -0.27040070295 -0.0054074586369
-0.77444171906 -0.51300162077 -0.3701800704
-0.74734699726 -0.60471123457 -0.27387207747
-0.82727789879 -0.50398343801 -0.24812746048
-0.84164875746 0.31168493629 0.44094985723
-0.87603467703 0.35725259781 0.32306694984
-0.91285651922 0.23709973693 0.33230519295
-0.75602430105 0.37726011872 0.53446596861
-0.79417419434 0.42797136307 0.43105009198
-0.33187174797 0.9137404561 -0.23416307569
-0.24071602523 0.95773297548 -0.15747494996
-0.21772769094 0.9361782074 -0.27487409115
-0.86188298464 -0.2550650537 -0.43817791343
-0.8330322504 -0.1778934449 -0.52385729551
-0.78512680531 -0.29260355234 -0.54567974806
-0.79069602489 -0.58947533369 -0.16482390463
0.64288806915 0.4954687953 0.58405333757
0.59892648458 0.44535034895 0.66530650854
0.69084072113 0.38458096981 0.61216342449
-0.55996531248 -0.28896874189 0.77647316456
-0.45896056294 -0.36083626747 0.81171405315
-0.44650545716 -0.24998056889 0.85915756226
-0.33791351318 -0.31640014052 0.88627791405
-0.3325869143 -0.19628991187 0.92233580351
0.33690789342 -0.9356367588 0.10516177118
0.20799125731 -0.97169172764 0.11200295389
0.2914429903 -0.95656144619 -0.0025133336894
-0.29863324761 0.26201018691 0.91761881113
-0.36935597658 0.1480679363 0.91718131304
-0.25488269329 0.15203458071 0.95483827591
-0.2948281765 0.048230409622 0.95428305864
-0.25310200453 0.37033987045 0.89367884398
-0.17805948853 0.29840528965 0.93740272522
-0.77442133427 -0.58095508814 0.25051352382
-0.73303896189 -0.65741533041 0.17443116009
-0.68674522638 -0.66726619005 0.28833222389
0.176188007 -0.11955802888 0.97704088688
0.16882117093 0.01520496048 0.98551493883
0.06818446517 -0.051305085421 0.99628281593
0.45904448628 0.7850471139 -0.41568276286
0.40303981304 0.85108745098 -0.33642315865
0.50200456381 0.81533867121 -0.28790387511
0.086278162897 -0.094608910382 -0.99123251438
-0.034417897463 -0.086424060166 -0.99567168951
0.029801629484 0.015351771377 -0.99940693378
-0.8303360343 0.44845443964 -0.33077830076
-0.89488863945 0.32147747278 -0.30908057094
-0.88259220123 0.4135876894 -0.22351643443
-0.9307166934 0.31322994828 -0.18881332874
0.10435592383 0.63134175539 0.76830285788
0.17453953624 0.51428878307 0.83965009451
0.22154393792 0.60545992851 0.7641402483
0.30224922299 0.48491048813 0.82066965103
0.62653136253 -0.34562712908 -0.69857430458
0.53658294678 -0.33946034312 -0.77244931459
0.59969830513 -0.250895679 -0.7598567009
0.57248240709 -0.45852151513 -0.67970257998
0.95892751217 -0.0045879860409 0.28357407451
0.97626328468 0.086754471064 0.19790104032
0.94243901968 0.12347685546 0.31064733863
0.51466882229 0.54499590397 0.66182518005
0.5177487731 0.46267846227 0.71948224306
0.28491032124 0.018312703818 -0.95838153362
0.22472181916 -0.10775788128 -0.96786230803
0.15735934675 0.0096274856478 -0.98748898506
0.61350655556 0.70727133751 -0.35005402565
0.69881409407 0.64670646191 -0.30559179187
0.67640209198 0.6152561903 -0.40473166108
0.83865261078 -0.53387475014 0.10728363693
0.77342134714 -0.62907719612 0.075775362551
0.83543694019 -0.54905468225 -0.022419217974
0.5305814147 -0.014805114828 -0.84745448828
0.40622803569 0.025826049969 -0.91341269016
0.46915519238 0.1286149174 -0.87370538712
0.34525036812 0.14143720269 -0.9277766943
0.405243963 0.24270901084 -0.88083297014
0.21541947126 0.14421907067 -0.96579515934
0.29765677452 0.25402340293 -0.92017072439
0.096591584384 0.11848886311 -0.98822432756
0.11441544443 0.24166084826 -0.96335101128
0.32736301422 0.3865428865 -0.86147874594
0.21341753006 0.40873318911 -0.88719946146
0.27118164301 0.4899084866 -0.82850253582
0.69598597288 0.7014619112 0.15331627429
0.60178804398 0.79379850626 0.087904907763
0.61326777935 0.76232260466 0.2062715143
0.50381910801 0.8633608222 0.026093574241
0.49951818585 0.85517829657 0.13623645902
0.80423408747 0.59326094389 0.032765064389
0.78496754169 0.60007297993 0.15402458608
0.85526764393 0.50497955084 0.11609207094
0.86231070757 -0.02749061957 0.50524711609
0.90995711088 0.061879739165 0.41001239419
0.8536350131 0.092851310968 0.5124770999
0.89095199108 0.17418898642 0.41924485564
0.41764363647 0.882199049 -0.21747885644
0.50687980652 0.84641957283 -0.1621157378
0.43691635132 0.89648634195 -0.072993546724
0.25915455818 0.95786005259 0.12012214959
0.24485583603 0.96957433224 -0.00063334510196
0.14508250356 0.98731899261 0.064314112067
0.11623494327 0.99182504416 -0.052659802139
0.015343930572 0.99965459108 0.016648519784
0.39832544327 0.91487139463 0.054267294705
-0.58697110415 0.27912861109 -0.75992184877
-0.65778434277 0.19120819867 -0.72852891684
-0.67696374655 0.30425682664 -0.670178473
-0.73997813463 0.18102347851 -0.64773452282
-0.69816559553 0.072412505746 -0.71220499277
-0.57570523024 0.15096484125 -0.80354881287
0.44091331959 0.77248764038 0.45659691095
0.36917370558 0.84238123894 0.39122736454
0.32350429893 0.80861407518 0.49136543274
0.82887172699 0.51395952702 0.22073803842
0.72387170792 0.64100635052 0.25459262729
0.3542907536 -0.086341306567 -0.93087023497
0.51112872362 0.0079368697479 0.85947078466
0.50696247816 -0.12938478589 0.85221731663
0.60589623451 -0.082105703652 0.79126960039
0.57557308674 -0.22146324813 0.78715187311
0.44165968895 -0.24059978127 0.86430472136
0.67127299309 -0.16260661185 0.7224817276
0.55664622784 -0.3620981276 0.74762356281
0.6497284174 -0.30192106962 0.69763082266
0.59903883934 -0.44075483084 0.66851562262
0.70202112198 -0.38556778431 0.598775208
0.73997819424 -0.26449108124 0.61772608757
0.79423594475 -0.32323253155 0.51448792219
0.64937359095 -0.51311385632 0.56126976013
0.74759507179 -0.45198595524 0.48662588
0.69274061918 -0.57554370165 0.43458476663
0.82948255539 -0.38398912549 0.4056109786
0.79139059782 -0.48991009593 0.36565589905
0.86180371046 -0.42621779442 0.27497413754
0.78499472141 0.032889537513 0.61861813068
0.70333850384 -0.032385274768 0.71011632681
0.77379214764 -0.095016390085 0.62563878298
0.69094121456 0.084322966635 0.71783846617
0.61618888378 0.034811038524 0.78679066896
-0.091713756323 0.034702345729 -0.99514698982
-0.0088845631108 0.11348794401 -0.99345207214
-0.20829086006 0.61625427008 0.75950187445
-0.15211947262 0.53504824638 0.83089029789
-0.079569019377 0.5934894681 0.80054080486
-0.054155580699 0.48801258206 0.87113523483
0.25654938817 0.38471418619 0.88626652956
0.35266205668 0.35880631208 0.86388385296
0.30984085798 0.27253940701 0.91068273783
0.35861253738 0.16380703449 0.91896688938
0.41387963295 0.23595955968 0.87890696526
-0.14277233183 0.49547836185 -0.85674083233
-0.091294720769 0.41665929556 -0.90446001291
-0.20647580922 0.41290152073 -0.88692682981
-0.038148891181 0.52046012878 -0.85291868448
0.23177447915 0.8667589426 0.4415949285
0.14611141384 0.91585737467 0.3739810288
0.093802385032 0.88150149584 0.46251893044
0.04674340412 0.91686278582 0.39643031359
0.20718973875 0.80879843235 0.5499150753
0.89052277803 -0.2558632791 -0.37510243058
-0.55911278725 0.59063440561 -0.58188390732
-0.57749468088 0.64768534899 -0.49690806866
-0.46007066965 0.69047856331 -0.55815988779
-0.66084563732 0.54550355673 -0.51546561718
0.87432736158 -0.25922355056 0.41024011374
0.83315891027 -0.19815513492 0.51531046629
-0.38536971807 0.65137428045 -0.65359967947
-0.33591488004 0.73682910204 -0.58616727591
-0.1294362396 0.69371247292 0.70807641745
-0.13250860572 0.77415561676 0.61897915602
-0.22589015961 0.70977956057 0.66724550724
0.28501906991 0.018331658095 0.95833200216
0.24797198176 0.11912612617 0.96129328012
0.40268850327 -0.13968673348 0.90459823608
0.11021136492 0.71690648794 0.68823313713
0.012563208118 0.6927934885 0.72068721056
0.40399479866 0.42155352235 0.8117557168
0.81278282404 -0.5326128006 0.23521396518
-0.060666780919 0.32198649645 -0.94472122192
0.029855526984 0.39245292544 -0.9191031456
0.24867758155 0.9122376442 0.32419461012
-0.94855427742 0.0093930130824 0.31637459993
-0.91932123899 -0.092355728149 0.38130539656
-0.90030294657 0.012629231438 0.4350336194
-0.96102184057 -0.10570245981 0.25547251105
-0.53693002462 -0.7959228754 -0.27970135212
-0.44392818213 -0.86987966299 -0.21499498188
-0.53206831217 -0.82894706726 -0.1725115329
-0.46421056986 -0.88066911697 -0.09328520298
-0.36124143004 -0.92250555754 -0.13581828773
-0.43240457773 -0.68557912111 0.58558142185
-0.38005203009 -0.61435830593 0.69144958258
-0.49859625101 -0.59630769491 0.62914651632
-0.45877641439 -0.53610855341 0.70811599493
-0.57000505924 -0.49664708972 0.65452730656
0.42101860046 -0.60953938961 0.67112141848
0.46863609552 -0.65684986115 0.59058123827
0.53973048925 -0.55929625034 0.62919294834
0.49409177899 -0.47722363472 0.72628539801
0.52422446012 -0.72896581888 0.43970450759
0.61336988211 -0.68809491396 0.3876376152
0.58390831947 -0.62858903408 0.51373314857
0.54808318615 -0.77863532305 0.30549409986
0.6494191885 -0.71896624565 0.24758537114
-0.0944602862 0.37929493189 0.92039948702
0.016234200448 0.41366955638 0.91025924683
-0.087701871991 0.60583204031 -0.79073214531
0.05224705115 0.59996205568 -0.79830777645
0.0019827596843 0.68433487415 -0.72915285826
-0.14467021823 0.68881440163 -0.71034312248
0.13782986999 0.66597181559 -0.73306202888
-0.27528917789 0.67564338446 -0.68390017748
-0.34026315808 0.57868939638 -0.74112993479
-0.21796353161 0.61665916443 -0.75635486841
0.71622091532 -0.46544021368 -0.5196467638
0.63000953197 -0.5149461627 -0.58110386133
0.67307287455 -0.42036697268 -0.60843449831
-0.59240037203 0.55172616243 0.58700937033
-0.59268063307 0.46440210938 0.6579990387
[...]
CELL_DATA 3012
SCALARS cell_data_0 double
LOOKUP_TABLE default
1.46600652665e-09
3.41777004095e-09
6.69068856847e-09
3.94497711534e-09
8.3248442178e-09
7.47195236645e-09
4.02085230242e-09
2.08016120515e-09
1.54730135631e-10
1.85918869518e-09
6.34281534773e-09
1.36925182797e-08
7.03006618155e-09
1.08409743396e-08
4.00602252839e-10
4.35989099086e-09
3.77781737855e-10
4.89003589434e-09
1.62711787521e-09
2.61724039089e-09
9.15113180517e-09
5.11255769215e-09
1.04007250268e-08
7.76195568344e-09
8.18995788305e-10
8.28939774891e-09
3.06293642236e-09
1.31333307493e-09
1.51280729195e-08
1.13798863544e-09
1.55269027992e-08
1.40702290365e-08
3.02875454909e-09
4.82240821457e-09
1.25624340481e-08
1.325469089e-08
1.01302918104e-08
3.48186067451e-09
1.03644333413e-08
6.45973555389e-09
2.73078845475e-09
1.25169177466e-08
7.57478019041e-09
8.60057558806e-09
7.06159461721e-09
2.19256896235e-09
2.14198651954e-09
3.21989368042e-09
2.77152538965e-09
5.51589594793e-09
1.41858053574e-08
7.06942176031e-09
2.46287783386e-09
2.00908970669e-09
1.48462803567e-08
1.71523350858e-09
4.35661443205e-09
4.76201773587e-09
7.12441604335e-09
1.01656554306e-08
5.6390363434e-09
3.74359869977e-09
2.54520170836e-09
5.02622831122e-09
5.79602788907e-10
3.55592386666e-09
1.12995023821e-08
2.28544792571e-09
1.11386457765e-08
2.02062980315e-09
9.62406695996e-09
8.57130808555e-09
1.01163401453e-08
1.77527373169e-08
2.38654407316e-08
1.22091523056e-08
1.38700661902e-08
1.3830706383e-08
1.30973101385e-08
8.85266396178e-09
4.81802989778e-09
3.20787167833e-09
1.472355812e-08
2.82039894479e-09
1.33590121668e-08
1.18614674238e-08
8.79966057429e-09
7.57454006939e-09
9.63287631046e-09
7.04543842179e-10
8.32653196116e-09
6.67810939447e-09
7.42490091909e-09
5.18578789716e-09
4.42950963416e-09
2.25564132603e-09
1.67768803424e-11
2.96442280728e-09
5.58198852192e-09
3.00760144667e-09
2.4794165996e-09
1.0879018065e-08
1.06170529565e-10
1.0811333242e-08
1.48333806222e-08
3.47068449171e-09
1.51153587121e-09
7.61374702751e-09
4.12752428454e-10
1.98757474722e-09
5.29000266161e-09
2.43003076846e-09
1.48638185177e-08
1.15529268823e-09
5.33373923513e-09
1.20189966011e-08
5.45153179713e-09
4.92699592224e-09
2.47202978426e-10
8.73977363289e-09
6.25972452348e-09
2.79430205664e-09
1.94782584587e-09
3.69136213857e-09
7.12555868612e-09
4.85763038833e-10
4.68982610406e-09
5.32379072052e-09
1.42810808998e-08
1.49466274976e-09
5.45443948847e-09
1.13466319721e-08
1.62598036653e-08
7.26267151857e-09
1.02566643467e-08
1.01698014347e-08
1.90918842158e-08
4.74220919574e-09
3.91269567737e-09
4.4407884599e-09
1.56145695375e-09
2.32507671055e-09
5.22604184066e-11
1.11718244491e-09
9.38780809314e-09
9.87989923652e-09
1.34715281731e-08
2.06729778124e-08
3.60284741674e-09
2.39866136494e-09
2.90641281392e-10
1.6755933941e-08
2.47396002424e-09
2.59370743284e-09
6.45115578351e-09
5.09790109801e-09
1.8508370257e-09
2.04438750397e-08
1.92278742751e-09
3.94759268452e-09
1.77354225007e-09
1.67789188492e-08
1.10745903548e-08
3.75408373105e-09
1.5582437579e-09
1.38640545931e-09
3.06528399893e-09
1.37185210862e-09
3.28924894829e-09
1.16484091781e-08
1.53624224941e-09
1.84987798637e-09
6.77406809911e-09
5.98750541986e-09
7.40353924777e-09
1.16523484823e-08
6.78094337381e-09
6.14456134545e-09
4.55249508295e-09
6.35034502024e-09
1.0377554111e-08
3.99211002139e-09
1.67181438931e-09
6.61410861744e-09
2.10611280035e-09
2.63346410392e-09
8.2510780357e-09
8.34027873087e-09
9.72985791937e-09
4.89973002595e-09
9.63767014062e-09
1.05067346431e-08
1.45716387906e-08
5.21666932757e-09
2.06921738218e-09
1.26897942176e-09
5.33487002326e-09
2.97821801844e-09
7.84261828471e-09
1.07160422813e-09
2.62748746989e-09
3.50281274504e-09
8.19713681698e-09
1.6466623846e-08
1.89831911944e-10
1.28991840682e-08
8.50264337497e-09
1.51544020989e-08
1.71922794608e-09
2.11518103717e-09
4.79977851749e-09
1.21555076007e-09
1.31934161302e-09
7.64354061025e-09
6.93650599869e-09
1.35156221667e-09
5.51365079582e-09
4.99185360204e-10
3.05497461276e-09
6.08189120454e-10
4.0190903119e-09
3.00503649008e-09
1.11534611033e-09
4.56945497655e-09
1.95615542118e-09
4.9075098994e-09
2.87075579801e-09
2.38567658394e-09
1.95394000643e-09
8.14945997224e-09
2.21896313682e-09
4.07785106446e-09
5.35633230179e-09
8.11358821955e-09
1.2180041088e-08
2.62819862341e-09
2.19823269633e-09
1.35866823637e-08
2.021995469e-09
1.41406981277e-08
6.03663569279e-09
2.73526438844e-10
1.07142871299e-08
1.46653783403e-08
5.38245650818e-09
1.47348319452e-08
8.9182255637e-09
2.33382403668e-09
8.89309199141e-09
2.30613868119e-09
5.87053090461e-10
7.31411280493e-10
1.02847916287e-08
3.05837597839e-09
3.36444517931e-09
1.70570843484e-09
5.49480453942e-09
1.02881617884e-08
4.37195011531e-09
7.31518351429e-09
2.06245047746e-09
1.64200422478e-09
1.89782505831e-09
1.66549509192e-09
1.72659975142e-09
4.38072622434e-09
4.26937391575e-09
1.41892345546e-08
1.44504662885e-08
1.06101636253e-08
5.05308942446e-09
3.21481520466e-09
7.14320082511e-09
3.21654010381e-09
3.88725330859e-09
8.00516702879e-09
2.51037305591e-09
1.01465085533e-09
1.82488720465e-08
1.38453006178e-09
2.10885944065e-09
1.98709714165e-09
4.59126230085e-10
2.42523684556e-09
3.27740407245e-09
4.98748753303e-09
5.37661645186e-09
4.64052416559e-09
1.99010821858e-09
3.9292102329e-11
4.68673121653e-09
9.3499713729e-09
9.82295030867e-09
1.52936358137e-09
7.22625212043e-09
8.61482105264e-09
7.05961137087e-09
2.57687297079e-09
5.14431853389e-09
1.37486191781e-08
3.0238061379e-10
2.38571406299e-09
5.03379434022e-09
5.13297279869e-09
1.20767487147e-08
2.34611658897e-09
8.00389643861e-09
1.95075534042e-09
2.27420938686e-09
5.60667881578e-10
6.8126195423e-09
3.9194448393e-09
1.34151658521e-09
2.47619586982e-09
9.50390134765e-09
5.89851711413e-09
2.57735492504e-09
1.03534397046e-08
1.57529307963e-08
2.68920618606e-09
1.51443260653e-09
7.64677615189e-09
1.51328632039e-09
3.66515818175e-09
5.68690756498e-09
3.10822323051e-09
8.39482463568e-09
5.14295165217e-09
4.40766890006e-09
3.13794994614e-09
6.97343663096e-09
1.99678576909e-10
3.253105815e-09
9.79728743193e-11
6.02280951705e-09
1.23265173765e-09
3.78987969221e-09
1.39918578458e-08
1.6111547534e-08
1.18000077721e-08
1.87017839095e-08
3.64860133827e-09
7.99860128187e-09
2.81461459018e-09
5.17487678135e-09
3.73706599602e-09
6.3965135208e-09
6.80113617388e-09
1.55122745045e-09
2.87121717203e-10
4.66024756633e-09
2.57396538933e-10
1.50483382644e-09
1.06354197441e-09
5.52847681977e-09
3.68872837231e-09
1.50131490031e-09
1.66627952024e-09
4.61848717517e-09
3.56590678908e-09
9.35118980722e-09
1.80113028613e-09
1.19236420147e-08
4.07565470004e-10
1.82702792469e-09
9.67509413848e-10
1.55644925434e-08
5.85438254159e-09
1.28061988477e-09
2.04167246639e-09
2.11064259254e-09
5.47676054762e-10
3.9035774933e-09
1.05762734173e-09
3.2882168724e-09
2.75679469826e-09
1.71221919545e-09
7.03602044901e-09
1.29840831949e-09
5.12585006671e-09
7.50290067711e-09
2.54112578636e-09
2.59219196224e-09
3.98177869537e-09
2.03741801082e-09
4.17851005409e-09
2.94321098401e-09
3.26461861725e-09
1.47671167586e-09
3.70513749054e-10
6.78718072986e-09
3.56866982087e-09
1.84360793377e-09
9.81560932316e-09
2.02492719766e-09
6.87853643144e-10
3.16493754392e-09
1.30100792944e-09
5.02628136574e-09
8.83969492347e-09
5.46609084236e-09
3.24327137691e-09
3.65050875516e-09
5.87954696445e-10
5.3479030266e-09
7.0452304869e-09
2.46414500676e-09
9.06413995378e-10
8.48573620052e-09
1.3373152052e-08
1.05551873856e-08
1.17247778504e-09
5.43637836874e-09
5.65182018594e-10
7.64285895595e-09
1.11505066843e-09
1.9432934734e-09
9.71739597635e-09
1.78836130849e-08
6.89394583907e-10
2.07845065835e-09
5.32031243719e-09
7.88327890303e-09
1.58445120444e-08
4.5184511198e-10
2.02989754519e-09
1.29821348679e-08
1.11262394927e-08
8.17089746182e-09
6.96759004786e-09
1.55465054072e-09
2.2768745354e-09
1.42212067957e-09
5.3044032976e-09
1.52825525389e-08
6.88696703135e-09
4.02932468964e-09
5.82207742151e-09
4.11478650575e-09
6.11638864068e-09
1.55107901649e-09
2.39285469788e-09
6.12661561351e-09
1.96840608521e-09
2.9261753277e-09
2.48487108876e-09
3.9974789364e-09
2.04374393162e-09
2.01362756058e-09
5.27048611565e-09
2.81910334405e-09
4.4164493584e-09
1.04244933409e-08
8.95463058552e-09
7.21563381631e-09
4.0319728334e-09
5.67592681421e-09
4.24486789414e-09
1.6216825306e-08
1.31583339206e-08
3.69724279683e-09
1.20412841689e-08
5.81719067769e-09
3.57983139322e-09
2.15707272333e-09
8.43341478564e-10
7.93859302256e-10
9.29588675526e-11
2.99420133122e-09
7.6612151963e-10
1.95094301256e-09
1.88283357367e-09
2.13373499048e-09
3.49128366596e-09
1.18449490239e-09
6.67606849763e-09
2.04129412677e-09
4.53973966174e-09
2.77081157473e-09
4.66482393453e-09
2.00180667871e-09
3.7554272015e-09
9.11354569351e-09
2.32970906376e-09
2.7196617836e-09
8.67348440147e-11
5.45758679433e-09
3.38169104373e-09
6.66745030442e-09
3.27697790549e-09
5.9196078511e-09
8.74887369343e-10
1.01348659523e-09
4.25836321354e-10
8.94057396921e-09
6.2491939085e-09
4.07723025483e-09
3.81707134792e-10
4.46313681673e-10
2.07321072658e-09
5.20598636286e-09
1.37712312212e-08
5.86707353132e-09
8.17961730657e-10
2.75525212936e-09
8.02864152689e-09
2.22385288659e-09
2.54559593956e-09
3.72094465232e-09
5.28547640497e-09
1.09087758525e-09
3.73293788226e-09
2.84373433615e-09
3.76152997414e-09
3.93876032491e-09
1.39023490368e-09
4.15608347627e-09
1.90334372579e-10
8.67534581499e-11
3.47735530863e-09
1.66296183816e-09
1.88633344363e-09
2.11053804108e-09
5.24000352019e-09
6.73075877705e-10
7.36209040332e-09
2.19123911701e-09
1.40466236836e-09
1.6585384305e-09
4.18117877835e-09
3.54281911762e-09
6.49870460384e-09
3.01635327531e-10
5.60897091066e-09
6.32353940554e-09
1.13419082898e-09
1.06702798689e-09
6.16516474154e-09
9.87801446295e-09
4.34526257562e-09
1.11781486465e-09
4.07656993656e-09
1.94680950007e-09
6.78608769801e-10
5.17244986393e-09
1.3502453277e-08
1.33625763967e-08
5.3498184629e-09
7.63607864168e-09
7.81636606938e-09
8.29327454582e-09
5.42791025409e-09
9.89779849346e-09
2.57412496936e-09
4.25290479858e-09
4.03688126283e-09
3.8658872307e-09
5.18658906277e-09
3.02524834357e-09
2.39131103649e-09
4.16040856057e-09
1.47957661099e-09
7.61323569159e-09
4.82854460575e-09
2.00620048444e-09
1.83171612486e-09
2.13473356135e-09
5.45675204259e-09
6.31831040713e-09
4.18057885859e-11
6.74626114114e-11
2.07814659004e-09
2.80148110881e-09
1.26429557762e-09
2.48392117604e-10
1.48618053993e-09
7.42425329236e-10
1.17722597344e-10
2.02264621658e-09
5.31231823723e-10
3.2477410936e-09
1.39632049335e-10
1.68896912714e-09
2.68930651201e-09
2.47846286498e-09
6.79475223603e-09
1.36704585179e-08
3.02276847197e-10
4.8428288854e-09
1.06909927456e-08
3.28066795338e-09
3.0169456109e-09
4.00106252606e-09
4.71604390024e-09
6.62119028164e-10
3.25544962594e-09
4.08301257431e-10
1.67790450498e-09
8.33649163716e-10
3.07009328095e-09
4.93059099842e-09
1.31451972041e-09
8.62982751974e-09
4.60832461877e-09
8.5669102215e-09
9.39784445572e-09
5.83675981911e-09
3.6215434835e-09
2.34046813924e-09
1.08940931708e-09
1.20970994388e-09
1.83091823848e-09
3.70309494181e-09
1.77202945502e-09
4.62733099928e-09
2.8631662347e-09
1.08954540013e-09
3.89068243407e-09
4.47543359954e-09
1.63497476313e-09
2.20687131931e-09
3.6817807712e-09
1.50941228524e-08
8.3318344261e-10
1.25791563765e-09
1.11832658886e-09
1.38267382739e-09
3.02392538336e-09
2.78601501029e-09
2.2626458921e-09
2.96107310188e-09
3.58788828537e-09
5.19738347522e-11
3.75668503368e-09
8.87555877317e-09
4.01997919152e-10
4.08821966885e-09
3.52569558148e-09
8.34384847001e-09
7.45867217297e-09
3.76594606819e-09
2.58201909166e-10
5.78638423226e-09
8.55033262241e-10
2.16229027252e-09
2.22914626857e-09
2.34786114617e-09
6.28776525383e-09
2.87964837397e-09
2.86849935571e-09
2.3515918159e-09
4.28696520142e-10
1.30417456301e-09
5.16818479141e-10
4.06735553363e-09
6.66569064227e-10
2.92557026872e-09
7.04730324462e-09
8.23884756786e-09
2.85060307273e-09
1.47460424912e-09
5.9731953999e-09
2.83460522321e-09
3.95083359017e-09
5.55317282777e-09
4.57668345948e-09
7.35074262248e-09
3.64067404968e-09
5.32665702027e-09
1.99495241033e-09
4.06957719677e-09
3.82359150124e-09
6.58992832932e-09
6.82152662248e-09
3.97043210515e-09
8.88650654358e-11
5.24629395657e-09
1.19389603757e-09
6.26961488286e-09
4.13273974858e-09
1.32732173401e-09
4.40526911757e-09
3.42111652285e-10
9.60156242997e-09
3.71603365323e-09
3.06096419248e-10
1.26851841856e-08
1.26927598619e-08
4.30552801223e-09
6.63895239263e-09
2.88839411075e-10
7.02137723203e-09
2.40082395692e-10
1.07401051867e-08
2.13890447607e-09
1.97971204465e-09
9.18722586094e-09
6.61241381043e-09
7.40497919722e-10
9.2302834978e-10
5.09330240039e-09
1.67773258876e-09
1.16172429025e-09
9.31771865159e-09
1.460905162e-08
5.81387247687e-09
4.0667860122e-10
4.84642434063e-09
3.81839864153e-09
2.95262781583e-09
4.54123930416e-09
3.89310982831e-09
3.25511458402e-09
3.52633144744e-09
2.44752544486e-09
4.61185907425e-09
4.3740635907e-09
3.9632273089e-09
5.34123431148e-09
9.17576321614e-10
6.41765433207e-09
4.47606295575e-09
3.12839772168e-09
8.79136476142e-10
1.10927408543e-09
2.54451211973e-09
2.26141429768e-09
6.80773604963e-09
2.85975056582e-10
5.57971216582e-09
2.55455846636e-09
3.59032682035e-09
1.43075569151e-09
3.37027462499e-09
8.31978616702e-09
3.53277357567e-09
1.57790772958e-08
8.51254407549e-09
3.58134800872e-09
1.10955411086e-09
6.4273758403e-09
3.37644266975e-09
4.75536953379e-09
3.85828152766e-10
4.69080088273e-10
2.48221845049e-09
7.36546484478e-09
2.33676612589e-09
6.33662398937e-09
6.1028208569e-11
7.36635634173e-09
1.17170105094e-09
3.97193615201e-09
2.10685161523e-09
1.13198171329e-10
6.22314016871e-09
5.37965253254e-10
3.80426502845e-09
4.78863750046e-09
8.22617617633e-10
4.25791895048e-09
7.00292084607e-10
7.59246002853e-09
3.18739559363e-09
7.9437439041e-09
5.25809592552e-09
9.37941545723e-09
1.69436530089e-09
1.01884020992e-08
3.72958384721e-09
6.54300352163e-09
3.0144372904e-09
2.87691346231e-09
7.35068132612e-09
4.50932736676e-09
8.54262591477e-09
3.12755340896e-10
8.11152469711e-09
4.6676025836e-09
1.30589832996e-09
6.27342123991e-09
4.59807294018e-09
1.56101894573e-09
3.68487066171e-09
2.71091829883e-09
1.59705288092e-09
1.97953348449e-09
3.78707167258e-10
4.16413278133e-09
5.51146457533e-10
4.64000571165e-09
5.47474731242e-09
1.64628838547e-10
3.2470424075e-09
5.3236361498e-09
4.17019670843e-09
2.16449124577e-09
1.77052742658e-09
1.29339856909e-09
6.4752822501e-09
2.75641403956e-10
3.80026374763e-09
1.34649779449e-09
8.80570360398e-09
9.16604297873e-10
4.64529667826e-09
2.82433427455e-10
1.66702164769e-10
8.99715350724e-09
6.64585673915e-09
5.33023924834e-09
4.42848204804e-09
1.77907625401e-09
1.05922028068e-09
5.92819180449e-10
4.02186132011e-09
2.78286307151e-09
6.04515825096e-09
2.70165011556e-09
2.14178113398e-09
8.39282660314e-09
4.19449623838e-09
8.30593693403e-09
5.0966993386e-09
8.65222345987e-09
3.61609795776e-09
4.74062863999e-09
4.78200870189e-09
7.99370055642e-10
2.80877896369e-09
1.60360504187e-09
1.24302048017e-09
1.84242068273e-10
2.82453970379e-09
2.1185790191e-09
2.17181152695e-09
4.94785354369e-09
2.43680147214e-09
6.94242543983e-09
3.98681793684e-09
1.10318372605e-09
2.58312987285e-09
4.86431553582e-09
4.22651143895e-09
3.63120846595e-09
3.60569704573e-09
1.69041867446e-09
1.89472939647e-10
3.00241613937e-09
2.67656881814e-09
4.69582738016e-09
3.14535308551e-09
9.91181066709e-11
4.56144158458e-09
3.59595206685e-09
4.95213039868e-09
4.68732676077e-09
8.75588457765e-09
1.48597989171e-09
6.10172697269e-09
2.62776078486e-09
2.67937538775e-09
5.90867812557e-09
1.19237085546e-09
1.8538334432e-09
2.88003482418e-09
4.00138707683e-09
6.49617288567e-09
1.66601205764e-09
2.93172928141e-09
2.48789529502e-09
3.98948486301e-09
3.2813807851e-09
5.09147978708e-09
1.27299657038e-08
7.82258201236e-09
5.52376078342e-09
2.87563910633e-09
6.89660185814e-09
1.25774691214e-09
1.63322455793e-09
3.50382663473e-09
1.19849884645e-08
4.71847551666e-09
9.21644247306e-10
9.8372794576e-11
8.31668342607e-10
2.99090611498e-09
2.49108816405e-09
1.94793272696e-09
8.33721625956e-09
1.66947221804e-08
9.38235015649e-09
2.07097736281e-09
7.49583313472e-09
3.62808167558e-09
6.94549288258e-09
9.2083105633e-11
3.17111437186e-09
7.04438865691e-09
4.32925306436e-09
2.85408291415e-09
5.08182890221e-09
2.18322804682e-09
6.63848503637e-09
8.22235593368e-09
4.98219556484e-09
2.1786406197e-09
9.40371487812e-09
4.18232089473e-09
9.98219127477e-09
1.18665022036e-08
5.7670206538e-10
1.41214297933e-09
5.00629245122e-09
8.00060954192e-10
4.7294294162e-09
6.87079679111e-09
3.69256450479e-09
4.95612160625e-10
5.52183948481e-09
4.94044251583e-10
7.28506248669e-10
1.24614789172e-09
3.89273565057e-09
7.72391062945e-10
2.38341301125e-09
1.7981268212e-10
6.12338980336e-09
1.50102480484e-09
7.28400451906e-10
7.50148554166e-09
3.15594843136e-09
3.21943828907e-09
4.1211609308e-09
4.26070951114e-09
7.19415572582e-10
5.04138233129e-09
3.61343696346e-09
1.64430247489e-09
2.04078783454e-09
7.82256769787e-10
1.0453793539e-10
2.85493096962e-09
1.04957497851e-09
2.77632417078e-09
4.24119027965e-09
5.15550051155e-10
6.02142440601e-09
1.14738798e-09
3.03233722907e-09
6.90755617666e-09
8.5397445543e-09
8.45729830951e-09
7.56617798275e-09
4.87441428062e-11
2.89673619134e-09
1.86234934165e-09
4.55039976493e-09
2.52400226329e-09
4.84087004449e-09
1.24201894431e-09
2.86145551193e-09
2.29588821319e-10
3.11272445051e-09
4.45892211733e-09
4.61729373418e-10
1.80731212563e-08
1.17984875827e-08
9.03533916185e-10
6.52498340867e-09
2.2132899243e-09
1.23614006672e-09
9.10911659267e-09
3.64296498606e-09
4.71313830238e-09
4.74167928124e-09
9.98765438216e-10
7.7558794571e-10
5.68420998347e-09
2.70313789967e-09
1.26149214299e-10
4.86720259761e-09
2.44027117858e-09
5.45025678945e-09
4.83931481727e-09
4.92814936475e-09
7.25754354227e-09
3.81268228663e-09
3.53303804776e-10
1.22080717401e-10
1.25805729933e-09
1.09802604916e-10
1.75428125792e-09
5.74682334357e-09
1.65628841841e-09
2.51360397528e-09
1.28435074539e-09
3.18448874763e-09
2.16921266512e-09
7.52847190534e-09
1.45397848679e-08
3.19826592641e-09
3.45392919579e-09
4.3646604413e-09
2.87842284755e-09
4.39975958729e-09
4.97856343611e-09
2.66826534865e-09
1.88262956386e-09
4.93875278636e-09
8.0922636356e-10
4.82072880845e-09
1.76077803691e-09
1.00277499807e-08
1.53543212185e-09
3.08216219332e-10
2.0215410866e-09
6.7857145573e-09
1.60539847912e-09
2.73200893151e-09
5.89564684206e-09
1.96145250948e-09
2.87828352798e-09
1.1497819208e-08
4.99259187884e-09
1.97963147349e-09
1.2544546338e-09
1.38652665764e-09
6.95643265975e-10
4.94238951991e-09
3.09210609898e-09
3.40416762253e-09
1.83745749127e-09
7.63312992051e-09
6.10008159958e-09
5.97509408251e-09
6.38834150852e-09
1.64098113746e-09
1.71193814203e-09
6.00965220796e-09
1.93247290711e-09
5.39348443742e-10
1.03713531313e-09
9.42999787013e-09
2.62908491727e-09
9.917615378e-10
5.29668773747e-09
5.96818111733e-09
5.26730094554e-09
5.5783311678e-09
3.2039216785e-09
1.4188512239e-09
3.86154261829e-09
3.4508153837e-09
5.83773700307e-10
1.09850895966e-08
3.21027683703e-10
1.99560836909e-09
8.30518898738e-10
1.7914672633e-09
9.69984217755e-11
4.894923375e-09
7.8893938081e-09
6.20429976989e-09
8.36948792753e-09
1.04868010635e-08
9.70798190421e-09
2.79400642532e-09
2.25498186369e-10
1.32382249642e-08
4.95580668658e-09
1.42741519889e-09
5.58264467179e-09
1.68279013357e-09
3.50575925959e-09
1.09131058207e-09
1.43623770976e-09
1.22979539141e-09
3.23025037116e-09
7.61589649266e-09
9.34155362483e-10
6.64058494275e-10
2.35785203248e-09
9.47590457735e-10
4.16555300396e-10
5.46519913154e-09
6.42067849943e-09
2.59927609917e-09
4.16847983407e-09
2.24389857792e-09
1.85295437979e-09
7.22425666268e-10
2.09912939731e-09
1.10892319961e-09
9.32078313592e-10
3.70428815182e-09
3.40233803582e-09
3.41964079314e-09
7.80155231137e-09
1.2837710055e-09
3.54366675734e-09
2.92115629442e-09
3.40827524368e-09
4.15745782529e-09
3.47226021017e-09
4.69576506289e-09
4.19546090635e-09
1.98577778179e-09
2.27062028403e-09
5.00450322391e-09
1.82196209127e-09
2.80915716796e-09
1.60656219514e-09