# vtk DataFile Version 3.0
File Name: Molecule/sphere_cent/sphere_cent_0-s3.vtk
ASCII
DATASET UNSTRUCTURED_GRID
FIELD FieldData 1
TIME 1 1 double
0.0
POINTS 191 double
1.70130162 -1.05146222 0.0
1.72533696 -0.86777713 -0.51978383
1.92387672 -0.54653306 0.0
1.90211303 -0.3249197 -0.52573111
2.0 0.0 0.0
1.70130162 0.0 -1.05146222
1.61803399 0.61803399 -1.0
1.90211303 0.3249197 -0.52573111
1.38756095 -0.32124407 -1.40409289
1.38756095 0.32124407 -1.40409289
1.05146222 0.0 -1.70130162
1.92387672 0.54653306 0.0
1.72533696 0.86777713 -0.51978383
1.70130162 1.05146222 0.0
1.40409289 1.38756095 -0.32124407
1.37638192 1.17557051 -0.85065081
0.86777713 0.51978383 -1.72533696
1.17557051 0.85065081 -1.37638192
0.61803399 1.0 -1.61803399
0.85065081 1.37638192 -1.17557051
0.32124407 1.40409289 -1.38756095
0.51978383 1.72533696 -0.86777713
0.0 1.70130162 -1.05146222
1.40409289 1.38756095 0.32124407
1.05146222 1.70130162 0.0
1.0 1.61803399 -0.61803399
1.0 1.61803399 0.61803399
0.52573111 1.90211303 -0.3249197
0.52573111 1.90211303 0.3249197
0.0 2.0 0.0
0.0 1.92387672 -0.54653306
0.51978383 1.72533696 0.86777713
0.0 1.92387672 0.54653306
0.0 1.70130162 1.05146222
-0.51978383 1.72533696 0.86777713
-0.52573111 1.90211303 0.3249197
-1.0 1.61803399 0.61803399
-0.52573111 1.90211303 -0.3249197
-1.05146222 1.70130162 0.0
-1.0 1.61803399 -0.61803399
-0.51978383 1.72533696 -0.86777713
-1.40409289 1.38756095 0.32124407
-1.40409289 1.38756095 -0.32124407
-1.70130162 1.05146222 0.0
-0.32124407 1.40409289 1.38756095
-0.85065081 1.37638192 1.17557051
-1.37638192 1.17557051 0.85065081
-1.72533696 0.86777713 0.51978383
-1.61803399 0.61803399 1.0
-1.17557051 0.85065081 1.37638192
-1.38756095 0.32124407 1.40409289
-0.86777713 0.51978383 1.72533696
-1.05146222 0.0 1.70130162
0.32124407 1.40409289 1.38756095
0.0 1.05146222 1.70130162
-0.61803399 1.0 1.61803399
0.61803399 1.0 1.61803399
-0.3249197 0.52573111 1.90211303
-0.54653306 0.0 1.92387672
0.3249197 0.52573111 1.90211303
0.86777713 0.51978383 1.72533696
0.54653306 0.0 1.92387672
1.05146222 0.0 1.70130162
-0.86777713 -0.51978383 1.72533696
-0.3249197 -0.52573111 1.90211303
-0.61803399 -1.0 1.61803399
0.0 0.0 2.0
0.0 -1.05146222 1.70130162
0.3249197 -0.52573111 1.90211303
0.61803399 -1.0 1.61803399
-0.32124407 -1.40409289 1.38756095
0.32124407 -1.40409289 1.38756095
0.0 -1.70130162 1.05146222
0.86777713 -0.51978383 1.72533696
1.38756095 -0.32124407 1.40409289
1.17557051 -0.85065081 1.37638192
1.61803399 -0.61803399 1.0
0.85065081 -1.37638192 1.17557051
0.51978383 -1.72533696 0.86777713
1.0 -1.61803399 0.61803399
1.37638192 -1.17557051 0.85065081
1.72533696 -0.86777713 0.51978383
1.40409289 -1.38756095 0.32124407
0.86777713 -0.51978383 -1.72533696
0.54653306 0.0 -1.92387672
0.3249197 -0.52573111 -1.90211303
0.61803399 -1.0 -1.61803399
0.0 0.0 -2.0
0.0 -1.05146222 -1.70130162
-0.3249197 -0.52573111 -1.90211303
-0.61803399 -1.0 -1.61803399
0.32124407 -1.40409289 -1.38756095
-0.32124407 -1.40409289 -1.38756095
0.0 -1.70130162 -1.05146222
-0.54653306 0.0 -1.92387672
-0.86777713 -0.51978383 -1.72533696
-1.05146222 0.0 -1.70130162
1.90211303 -0.3249197 0.52573111
1.90211303 0.3249197 0.52573111
1.70130162 0.0 1.05146222
1.61803399 0.61803399 1.0
1.72533696 0.86777713 0.51978383
1.38756095 0.32124407 1.40409289
1.37638192 1.17557051 0.85065081
0.85065081 1.37638192 1.17557051
1.17557051 0.85065081 1.37638192
-1.38756095 -0.32124407 -1.40409289
-1.38756095 0.32124407 -1.40409289
-1.70130162 0.0 -1.05146222
-1.61803399 -0.61803399 -1.0
-1.61803399 0.61803399 -1.0
-1.90211303 -0.3249197 -0.52573111
-1.90211303 0.3249197 -0.52573111
-2.0 0.0 0.0
-1.72533696 -0.86777713 -0.51978383
-1.92387672 -0.54653306 0.0
-1.70130162 -1.05146222 0.0
-1.72533696 0.86777713 -0.51978383
-1.92387672 0.54653306 0.0
-0.32124407 1.40409289 -1.38756095
-0.85065081 1.37638192 -1.17557051
-0.61803399 1.0 -1.61803399
-1.17557051 0.85065081 -1.37638192
-1.37638192 1.17557051 -0.85065081
-0.86777713 0.51978383 -1.72533696
-1.40409289 -1.38756095 -0.32124407
-1.40409289 -1.38756095 0.32124407
-1.05146222 -1.70130162 0.0
-1.0 -1.61803399 -0.61803399
-1.0 -1.61803399 0.61803399
-0.51978383 -1.72533696 -0.86777713
-0.52573111 -1.90211303 -0.3249197
0.0 -1.92387672 -0.54653306
0.0 -2.0 0.0
-0.52573111 -1.90211303 0.3249197
-0.51978383 -1.72533696 0.86777713
0.0 -1.92387672 0.54653306
-1.72533696 -0.86777713 0.51978383
-1.37638192 -1.17557051 0.85065081
-1.61803399 -0.61803399 1.0
-0.85065081 -1.37638192 1.17557051
-1.17557051 -0.85065081 1.37638192
-1.38756095 -0.32124407 1.40409289
-1.70130162 0.0 1.05146222
-1.90211303 0.3249197 0.52573111
-1.90211303 -0.3249197 0.52573111
-1.17557051 -0.85065081 -1.37638192
-0.85065081 -1.37638192 -1.17557051
-1.37638192 -1.17557051 -0.85065081
0.51978383 -1.72533696 -0.86777713
0.52573111 -1.90211303 -0.3249197
1.0 -1.61803399 -0.61803399
1.05146222 -1.70130162 0.0
0.52573111 -1.90211303 0.3249197
1.40409289 -1.38756095 -0.32124407
1.17557051 -0.85065081 -1.37638192
1.61803399 -0.61803399 -1.0
1.37638192 -1.17557051 -0.85065081
0.85065081 -1.37638192 -1.17557051
0.3249197 0.52573111 -1.90211303
-0.3249197 0.52573111 -1.90211303
0.0 1.05146222 -1.70130162
1.78201305 -0.47735386 -0.77237477
1.68035577 -0.31286893 -1.03851698
1.82596499 -0.16464716 -0.7992141
1.51587084 0.907981 -0.9368597
1.20300191 1.41421356 -0.74349607
1.41421356 0.74349607 -1.20300191
1.29315558 1.02675088 -1.12850842
1.02675088 1.12850842 -1.29315558
1.12850842 1.29315558 -1.02675088
0.9368597 1.51587084 -0.907981
-0.74349607 1.20300191 1.41421356
-1.12850842 1.29315558 1.02675088
-1.29315558 1.02675088 1.12850842
-1.02675088 1.12850842 1.29315558
-0.907981 0.9368597 1.51587084
-0.16464716 0.7992141 1.82596499
0.0 0.5328094 1.92772253
0.16464716 0.7992141 1.82596499
-0.16448493 0.26614221 1.97537668
0.16448493 0.26614221 1.97537668
1.02675088 -1.12850842 1.29315558
1.12850842 -1.29315558 1.02675088
1.29315558 -1.02675088 1.12850842
1.12850842 1.29315558 1.02675088
1.02675088 1.12850842 1.29315558
1.29315558 1.02675088 1.12850842
-0.7992141 -1.82596499 -0.16464716
-0.5328094 -1.92772253 0.0
-0.7992141 -1.82596499 0.16464716

CELLS 378 1512
3 0 1 2
3 1 3 2
3 2 3 4
3 5 6 7
3 3 7 4
3 8 9 5
3 8 10 9
3 5 9 6
3 4 7 11
3 7 12 11
3 7 6 12
3 11 12 13
3 13 12 14
3 12 15 14
3 9 16 17
3 9 10 16
3 17 16 18
3 19 20 21
3 19 18 20
3 21 20 22
3 13 14 23
3 14 24 23
3 14 25 24
3 23 24 26
3 25 27 24
3 27 28 24
3 27 29 28
3 24 28 26
3 25 21 27
3 21 30 27
3 21 22 30
3 27 30 29
3 26 28 31
3 28 32 31
3 28 29 32
3 31 32 33
3 33 32 34
3 32 35 34
3 32 29 35
3 34 35 36
3 29 37 35
3 37 38 35
3 37 39 38
3 35 38 36
3 29 30 37
3 30 40 37
3 30 22 40
3 37 40 39
3 36 38 41
3 38 42 41
3 38 39 42
3 41 42 43
3 33 34 44
3 34 45 44
3 34 36 45
3 36 41 46
3 41 47 46
3 41 43 47
3 46 47 48
3 49 50 51
3 49 48 50
3 51 50 52
3 33 44 53
3 44 54 53
3 44 55 54
3 53 54 56
3 55 51 57
3 51 58 57
3 51 52 58
3 56 59 60
3 59 61 60
3 60 61 62
3 52 63 58
3 63 64 58
3 63 65 64
3 58 64 66
3 65 67 64
3 67 68 64
3 67 69 68
3 64 68 66
3 65 70 67
3 70 71 67
3 70 72 71
3 67 71 69
3 66 68 61
3 68 73 61
3 68 69 73
3 61 73 62
3 62 73 74
3 73 75 74
3 73 69 75
3 74 75 76
3 69 71 77
3 71 78 77
3 71 72 78
3 77 78 79
3 76 80 81
3 80 82 81
3 80 79 82
3 81 82 0
3 10 83 84
3 83 85 84
3 83 86 85
3 84 85 87
3 86 88 85
3 88 89 85
3 88 90 89
3 85 89 87
3 86 91 88
3 91 92 88
3 91 93 92
3 88 92 90
3 87 89 94
3 89 95 94
3 89 90 95
3 94 95 96
3 0 2 81
3 2 97 81
3 2 4 97
3 81 97 76
3 4 98 97
3 98 99 97
3 98 100 99
3 97 99 76
3 4 11 98
3 11 101 98
3 11 13 101
3 98 101 100
3 76 99 74
3 99 102 74
3 99 100 102
3 74 102 62
3 13 23 101
3 23 103 101
3 23 26 103
3 101 103 100
3 26 31 104
3 31 53 104
3 31 33 53
3 104 53 56
3 100 105 102
3 105 60 102
3 105 56 60
3 102 60 62
3 96 106 107
3 106 108 107
3 106 109 108
3 107 108 110
3 109 111 108
3 111 112 108
3 111 113 112
3 108 112 110
3 109 114 111
3 114 115 111
3 114 116 115
3 111 115 113
3 110 112 117
3 112 118 117
3 112 113 118
3 117 118 43
3 22 119 40
3 119 120 40
3 119 121 120
3 40 120 39
3 121 122 120
3 122 123 120
3 122 110 123
3 120 123 39
3 121 124 122
3 124 107 122
3 124 96 107
3 122 107 110
3 39 123 42
3 123 117 42
3 123 110 117
3 42 117 43
3 116 125 126
3 125 127 126
3 125 128 127
3 126 127 129
3 128 130 131
3 130 132 131
3 130 93 132
3 131 132 133
3 129 134 135
3 134 136 135
3 134 133 136
3 135 136 72
3 116 126 137
3 126 138 137
3 126 129 138
3 137 138 139
3 129 140 138
3 140 141 138
3 140 65 141
3 138 141 139
3 129 135 140
3 135 70 140
3 135 72 70
3 140 70 65
3 139 141 142
3 141 63 142
3 141 65 63
3 142 63 52
3 52 50 142
3 50 143 142
3 50 48 143
3 142 143 139
3 48 144 143
3 144 145 143
3 144 113 145
3 143 145 139
3 48 47 144
3 47 118 144
3 47 43 118
3 144 118 113
3 139 145 137
3 145 115 137
3 145 113 115
3 137 115 116
3 96 95 106
3 95 146 106
3 95 90 146
3 106 146 109
3 90 147 146
3 147 148 146
3 147 128 148
3 146 148 109
3 90 92 147
3 92 130 147
3 92 93 130
3 147 130 128
3 109 148 114
3 148 125 114
3 148 128 125
3 114 125 116
3 93 149 132
3 149 150 132
3 149 151 150
3 132 150 133
3 151 152 150
3 152 153 150
3 152 79 153
3 150 153 133
3 151 154 152
3 154 82 152
3 154 0 82
3 152 82 79
3 133 153 136
3 153 78 136
3 153 79 78
3 136 78 72
3 10 8 83
3 8 155 83
3 8 156 155
3 83 155 86
3 156 157 155
3 157 158 155
3 157 151 158
3 155 158 86
3 156 1 157
3 1 154 157
3 1 0 154
3 157 154 151
3 86 158 91
3 158 149 91
3 158 151 149
3 91 149 93
3 10 84 16
3 84 159 16
3 84 87 159
3 16 159 18
3 87 160 159
3 160 161 159
3 160 121 161
3 159 161 18
3 87 94 160
3 94 124 160
3 94 96 124
3 160 124 121
3 18 161 20
3 161 119 20
3 161 121 119
3 20 119 22
3 156 162 1
3 1 162 3
3 156 163 162
3 163 164 162
3 163 5 164
3 162 164 3
3 3 164 7
3 7 164 5
3 5 163 8
3 8 163 156
3 6 165 12
3 12 165 15
3 15 166 14
3 14 166 25
3 6 167 165
3 167 168 165
3 167 17 168
3 165 168 15
3 17 169 168
3 169 170 168
3 169 19 170
3 168 170 15
3 19 169 18
3 18 169 17
3 15 170 166
3 170 171 166
3 170 19 171
3 166 171 25
3 17 167 9
3 9 167 6
3 25 171 21
3 171 19 21
3 45 172 44
3 44 172 55
3 46 173 36
3 36 173 45
3 46 174 173
3 174 175 173
3 174 49 175
3 173 175 45
3 49 174 48
3 48 174 46
3 45 175 172
3 175 176 172
3 175 49 176
3 172 176 55
3 55 176 51
3 176 49 51
3 57 177 55
3 55 177 54
3 57 178 177
3 178 179 177
3 178 59 179
3 177 179 54
3 57 180 178
3 180 181 178
3 180 66 181
3 178 181 59
3 54 179 56
3 179 59 56
3 66 180 58
3 58 180 57
3 59 181 61
3 181 66 61
3 77 182 69
3 69 182 75
3 77 183 182
3 183 184 182
3 183 80 184
3 182 184 75
3 80 183 79
3 79 183 77
3 75 184 76
3 184 80 76
3 104 185 26
3 26 185 103
3 104 186 185
3 186 187 185
3 186 105 187
3 185 187 103
3 105 186 56
3 56 186 104
3 103 187 100
3 187 105 100
3 131 188 128
3 128 188 127
3 131 189 188
3 189 190 188
3 189 134 190
3 188 190 127
3 134 189 133
3 133 189 131
3 127 190 129
3 190 134 129

CELL_TYPES 378
5
5
5
5
5
5
5
5
5
5
5
5
5
5
5
5
5
5
5
5
5
5
5
5
5
5
5
5
5
5
5
5
5
5
5
5
5
5
5
5
5
5
5
5
5
5
5
5
5
5
5
5
5
5
5
5
5
5
5
5
5
5
5
5
5
5
5
5
5
5
5
5
5
5
5
5
5
5
5
5
5
5
5
5
5
5
5
5
5
5
5
5
5
5
5
5
5
5
5
5
5
5
5
5
5
5
5
5
5
5
5
5
5
5
5
5
5
5
5
5
5
5
5
5
5
5
5
5
5
5
5
5
5
5
5
5
5
5
5
5
5
5
5
5
5
5
5
5
5
5
5
5
5
5
5
5
5
5
5
5
5
5
5
5
5
5
5
5
5
5
5
5
5
5
5
5
5
5
5
5
5
5
5
5
5
5
5
5
5
5
5
5
5
5
5
5
5
5
5
5
5
5
5
5
5
5
5
5
5
5
5
5
5
5
5
5
5
5
5
5
5
5
5
5
5
5
5
5
5
5
5
5
5
5
5
5
5
5
5
5
5
5
5
5
5
5
5
5
5
5
5
5
5
5
5
5
5
5
5
5
5
5
5
5
5
5
5
5
5
5
5
5
5
5
5
5
5
5
5
5
5
5
5
5
5
5
5
5
5
5
5
5
5
5
5
5
5
5
5
5
5
5
5
5
5
5
5
5
5
5
5
5
5
5
5
5
5
5
5
5
5
5
5
5
5
5
5
5
5
5
5
5
5
5
5
5
5
5
5
5
5
5
5
5
5
5
5
5
5
5
5
5
5
5
5
5
5
5
5
5
5
5
5
5
5
5
5
5
5
5
5
5
5
5
5
5
5
5

CELL_DATA 378
SCALARS cell_data_0 double
LOOKUP_TABLE default
1.46855544121e-08
4.88254917774e-08
1.47382252696e-09
1.34533343577e-07
1.20706685776e-07
4.87414275286e-08
3.48157092363e-08
1.19746028259e-08
9.2796724219e-09
2.88594329956e-08
1.87388281982e-09
7.30311833982e-09
1.81048120459e-08
6.29287942838e-08
3.6195869708e-08
3.45007130577e-08
3.91158358875e-09
4.95927302833e-08
1.99961875404e-08
7.03427459628e-09
1.49077923811e-08
1.49474684827e-08
3.07967404742e-08
5.00190502905e-09
1.20191688557e-07
1.05387741677e-07
6.45283105395e-08
1.16168721286e-07
9.9709959059e-09
8.33162554816e-09
2.25551555612e-09
2.01830139711e-08
2.99710771803e-09
3.64818193543e-09
4.76046083497e-08
2.42537738986e-08
2.87558963046e-08
2.70097311762e-09
3.74158266357e-08
3.06058498963e-09
6.91978319107e-08
6.94496431714e-08
3.4898298021e-08
8.86086168727e-08
2.84416623144e-08
8.00581744561e-09
5.6253815869e-09
4.40868304284e-08
2.19599378926e-08
1.79828874922e-09
4.48706118528e-08
9.26495823283e-09
4.20722612829e-09
5.70688028208e-08
2.246647342e-08
2.55206655573e-08
2.53232492374e-08
1.11854491701e-08
1.30745834035e-08
4.93178073304e-08
2.05850910623e-08
1.17658283079e-08
1.88385165963e-09
3.46771529101e-08
4.5175324428e-08
7.55389778446e-09
3.28149073689e-08
5.19980115206e-08
5.89766827853e-09
1.38691005951e-08
2.64380009003e-08
2.43539513453e-08
3.40007239553e-09
2.48909567917e-08
4.89950127039e-09
9.51082774265e-09
7.58894026144e-08
5.79395741117e-08
3.52383885366e-08
4.55023399102e-08
2.73998655766e-08
2.01699684268e-10
8.70606731565e-09
4.1037701506e-08
5.45010222306e-08
2.08747215585e-08
3.89342205619e-08
2.10142321748e-08
5.70240759078e-09
4.40010470671e-08
1.3868913979e-08
3.36707137571e-10
1.29277387028e-08
1.23106741061e-08
1.18368070331e-08
2.23009540116e-08
2.66170952479e-08
8.01818249105e-09
1.92425742352e-08
3.59083220725e-08
3.57318372695e-08
1.07749057408e-08
2.00763874396e-08
1.5566783361e-08
9.01352665158e-08
1.15895727317e-07
9.24923419564e-08
9.75602037759e-08
9.91526275468e-09
2.92871915781e-08
1.53992435705e-09
1.1101107487e-08
3.51091845105e-09
4.22480448116e-09
3.636931733e-08
1.85822324153e-08
8.66308928363e-09
6.5812571821e-09
2.46949486682e-09
6.00480509906e-08
1.01490862926e-07
8.50507143022e-08
7.29218412922e-08
3.88125535379e-08
6.56135314265e-09
9.52481590915e-09
1.27631908802e-08
3.16982057917e-08
5.1270169672e-08
6.98378148233e-09
3.12614010604e-08
4.11997086889e-09
2.71421033866e-08
6.60988177422e-09
2.56659148721e-08
4.48964441315e-10
3.05852024171e-08
3.05386654146e-08
6.73328873941e-09
1.00127994357e-08
2.50288005711e-08
4.06640443756e-08
2.31860838946e-08
2.89195959621e-09
7.92523850967e-09
3.12511388924e-08
3.95978375911e-09
1.07762972228e-08
8.33333110559e-08
8.88247572127e-08
4.07694305264e-08
8.71958979167e-08
4.76092639839e-08
4.76963893918e-08
3.45613853215e-08
7.71154561901e-08
1.48675965301e-08
2.11979415361e-08
3.76840411815e-08
9.25566794163e-09
9.44434146766e-09
1.34061741664e-08
2.22505818868e-08
2.25091850662e-08
7.82699319937e-08
1.01636409812e-07
7.3459975838e-08
8.04490938212e-08
2.81040065851e-08
1.67438500493e-08
3.10125969061e-10
1.90614709187e-08
2.703295084e-08
1.57000005319e-08
1.88314994286e-08
1.04550333375e-08
6.98782163166e-09
2.34969163583e-08
1.07242606382e-08
1.45132610396e-08
5.78764004917e-09
3.34799565973e-08
6.22202929718e-09
2.12714348286e-08
2.99174343882e-08
2.62386425719e-09
9.96013229627e-09
1.51298272271e-08
1.56390447741e-08
2.56508703531e-08
5.89994158413e-08
5.32072412892e-08
4.58679506102e-08
6.23026426855e-08
8.16478988367e-08
4.47008910904e-08
5.16475016945e-08
2.49150001833e-09
1.24493800895e-08
9.67436452251e-10
5.00894116189e-08
2.04540955159e-08
2.07450574633e-08
2.87944151746e-08
3.30783990072e-08
2.63350894844e-08
3.14212333523e-08
5.25398443044e-08
5.03521851851e-08
3.16393996388e-08
1.62565396303e-08
4.15797537284e-08
3.33453445415e-08
9.93372561337e-09
1.68410762109e-08
5.82545269438e-08
5.15307661477e-08
4.55142752365e-08
7.64416355589e-08
3.52298637522e-08
1.68207054563e-08
1.91279241383e-08
5.81896306695e-08
1.91215482288e-08
6.73534583161e-08
6.55229628981e-08
4.76174828907e-08
5.55848585228e-08
9.06462532608e-09
2.72352248012e-08
5.620888317e-09
3.4866180704e-08
4.6504107194e-08
2.03735142902e-08
5.54576068429e-08
1.06354735423e-08
3.24449977638e-09
1.54570720175e-09
3.80301005222e-08
3.25246735753e-08
4.05735259811e-08
6.88186043811e-08
5.50212374053e-08
7.29420906606e-08
5.89140081718e-08
4.34566242939e-08
3.8368780771e-08
7.06732212619e-08
9.45391399351e-09
4.2778247812e-09
4.84867075096e-08
1.37096071675e-08
3.36464275318e-08
1.85601861035e-08
6.79490983864e-09
1.3405848467e-08
6.81121942322e-08
6.35181219529e-08
3.53528931183e-08
7.26254725565e-08
1.8155284834e-08
2.77363792459e-08
1.42129941175e-08
6.38269311847e-08
3.17585812705e-08
2.41452816498e-09
3.88265569394e-08
5.70531788499e-09
3.03364421329e-08
1.54583014193e-09
3.24328732675e-08
3.69741251022e-08
4.62003525642e-08
3.41994374759e-08
3.20981816758e-08
4.10343089406e-08
2.76422103622e-08
3.47840647641e-09
1.83729916992e-09
4.5551638214e-08
3.24762324216e-08
2.77837596445e-09
4.33005035662e-08
1.81035921948e-09
1.758961347e-08
1.66247452258e-08
2.06670120865e-08
2.5332288337e-08
3.25165380749e-08
3.65335995797e-08
1.23454707654e-08
2.40052981729e-08
1.38922677446e-08
2.12886368644e-08
2.85232398946e-08
1.39372123182e-08
1.79818791836e-08
1.94361891503e-08
2.61081794964e-08
2.29990840017e-08
2.1175937494e-08
1.50060866246e-08
3.08986450759e-08
1.32268710744e-08
2.92454817754e-08
6.30454004251e-09
4.80339146382e-09
2.97061727227e-12
1.50302647046e-08
2.48807630516e-08
2.01004215643e-08
1.60180326273e-08
2.26018682292e-08
2.83367999263e-08
1.77156183423e-08
2.07053380704e-08
1.28897315556e-08
1.99861023572e-08
1.19908930533e-08
1.33443458641e-08
4.53439970608e-08
1.54173346582e-08
2.38983679614e-08
2.49769249971e-08
1.53478191808e-08
1.09211251219e-08
1.83870542257e-08
2.64104570088e-08
1.69134880026e-08
2.2959773289e-08
2.35183129375e-08
1.48255117147e-08
6.48895270031e-09
6.25514033395e-09
2.7634811995e-08
1.51914047116e-08
2.47638156585e-08
4.58050073194e-08
1.75044466944e-08
2.56673671528e-08
3.09964604081e-08
1.78476141208e-08
1.02886714151e-08
9.45021444548e-09
3.06322224531e-08
1.62153214174e-08
2.92443677527e-08
4.41707104258e-08
1.0036320802e-08
9.79326245973e-09
3.82296649165e-08
1.66485148227e-08
3.80593187542e-08
3.88715454806e-08
4.40408711895e-09
4.75636602024e-09
4.3891185822e-10
6.75493259872e-10
2.01465251397e-08
2.28584272035e-08
3.81062984489e-08
1.56835965185e-08
3.80037085623e-08
4.04019383675e-08
1.7386636027e-08
1.43554190539e-08
1.56668802829e-08
1.69466445812e-08
9.01355583276e-09
3.89413388935e-09
3.79943726577e-08
1.52561838139e-08
4.14654206936e-08
4.16210499405e-08
1.01660371834e-08
1.28211394649e-08
5.03934821318e-09
3.25793723059e-09

