# vtk DataFile Version 3.0
File Name: Molecule/sphere_cent/sphere_cent_0-s21.vtk
ASCII
DATASET UNSTRUCTURED_GRID
FIELD FieldData 1
TIME 1 1 double
0.0
POINTS 362 double
-0.31202617288 -0.52063953876 0.79458451271
-0.051069956273 -0.53040707111 0.84583908319
-0.14239695668 -0.33324980736 0.9319460392
0.08835131675 -0.26326027513 0.95941543579
0.10964524001 -0.41772517562 0.90069019794
-0.93200743198 0.15106098354 0.32911133766
-0.95592778921 -0.13441646099 0.260540694
-0.8682846427 -0.0459674187 0.49387636781
-0.84316110611 -0.27070525289 0.46437513828
0.0073792114854 0.99888253212 -1.196435187e-05
-0.21833357215 0.96894699335 -0.1148609519
-0.28113666177 0.9528631568 0.11063974351
-0.45594462752 0.88942885399 -0.027884170413
-0.63259202242 0.58898878098 0.50256633759
-0.5308354497 0.48150035739 0.69738709927
-0.41316002607 0.65280145407 0.63479530811
-0.29724398255 0.53763478994 0.78872269392
-0.52347391844 -0.80510610342 -0.27849787474
-0.33370101452 -0.93035006523 -0.15001356602
-0.53559935093 -0.8436294198 -0.020085113123
-0.24422486126 -0.95956403017 0.1318795383
-0.0067961360328 -0.99972218275 0.022472646087
-0.008827637881 -0.97084605694 0.23867058754
-0.49719271064 -0.79992818832 0.33493623137
-0.42721492052 -0.69405156374 0.57944458723
-0.62680858374 -0.63225072622 0.45534399152
-0.55985152721 -0.50313436985 0.65834420919
-0.28577166796 -0.84552061558 0.45036703348
-0.19066588581 -0.70941668749 0.67841905355
0.19466650486 -0.97013914585 0.14372377098
-0.94457912445 -0.086394846439 -0.31654974818
-0.93512451649 0.14892460406 -0.32148432732
-0.86392509937 0.040167920291 -0.5016450882
-0.82615292072 0.29659280181 -0.47845229506
-0.28804913163 0.49757570028 -0.81804829836
-0.52615743876 0.45223265886 -0.72016680241
-0.41865837574 0.64075285196 -0.64336824417
-0.66559135914 0.55121666193 -0.50295299292
-0.37925246358 -0.51207894087 -0.77049410343
-0.44556897879 -0.64824610949 -0.61730313301
-0.60605061054 -0.44652754068 -0.65816581249
-0.62544739246 -0.62635660172 -0.46505942941
0.52508044243 -0.0019942708313 0.85102599859
0.47767657042 -0.26239228249 0.83809012175
0.68637657166 -0.15756183863 0.70994746685
0.58948290348 -0.43618929386 0.67983347178
0.35774624348 -0.49914771318 0.78891503811
0.78040617704 -0.33103057742 0.53044974804
0.464091748 -0.66219842434 0.58809953928
0.68347400427 -0.57444769144 0.45042401552
0.53010809422 -0.7751467824 0.34344127774
0.85872274637 -0.42457434535 0.28555887938
0.70482176542 -0.67800718546 0.2030249536
0.8549181819 -0.043153785169 0.51624244452
0.7146897912 0.1184598431 0.6889461875
-0.00064973346889 0.037790462375 -0.99827671051
-0.22958484292 0.025644626468 -0.97239017487
-0.14056611061 0.28452378511 -0.94827443361
-0.39630949497 0.29412093759 -0.86964637041
0.53696852922 -0.8389107585 0.084986433387
-0.036223750561 0.85713213682 0.51367330551
-0.13146215677 0.68567806482 0.71588075161
0.13264933228 0.73389434814 0.6652547121
-0.032711714506 0.49127143621 0.86974644661
-0.10849327594 0.28740358353 0.95141357183
0.14451472461 0.27775982022 0.94972842932
-0.023815488443 0.075116656721 0.99640190601
0.28719887137 0.47540643811 0.82978826761
0.39840748906 0.23816984892 0.88555449247
0.30638235807 0.042019739747 0.95057970285
-0.020803712308 0.51650696993 -0.85521233082
-0.13783548772 0.68402290344 -0.71631276608
0.11844220012 0.6834321022 -0.71970266104
0.23120994866 0.86635792255 0.44123536348
0.058451004326 0.96139067411 0.26807391644
0.3437705934 -0.52927321196 -0.77542340755
0.44942703843 -0.66829890013 -0.59276199341
0.22769601643 -0.68826639652 -0.68805199862
0.51003628969 -0.77440732718 -0.37438485026
0.30485919118 -0.84128278494 -0.44479331374
0.10727269948 -0.52529621124 -0.8437910676
0.37891560793 0.69874560833 0.60649675131
0.32343041897 -0.92030358315 -0.21837946773
0.21887101233 0.89005684853 -0.39864140749
0.039210531861 0.96545618773 -0.25746881962
0.26907238364 0.94828218222 -0.15937678516
0.78982442617 -0.33499202132 -0.51373463869
0.68876951933 -0.16641694307 -0.70480054617
0.81742042303 -0.065039590001 -0.57232791185
0.70608437061 0.059780210257 -0.70561212301
0.85052698851 0.52194333076 -0.033316489309
0.95188230276 0.30235484242 0.022785909474
0.90528017282 0.38294693828 -0.18378469348
0.57996857166 -0.47187426686 -0.66338741779
0.66677075624 -0.58367544413 -0.46338826418
0.82841658592 -0.47529295087 -0.29634931684
0.70866221189 -0.66446256638 -0.23731127381
0.83803397417 -0.54323446751 -0.037311129272
0.9296284318 -0.26229277253 -0.25770172477
0.90709006786 -0.12596145272 -0.40148320794
0.91803371906 0.0696047768 -0.39024353027
0.97605133057 -0.05139740929 -0.2110760361
0.96895349026 0.17167638242 -0.17763637006
0.82099205256 0.16017693281 -0.54800957441
0.88848948479 0.27024066448 -0.37082755566
0.77409237623 0.3601821661 -0.51973390579
0.97549796104 -0.21504656971 -0.045944571495
0.99882620573 -0.028487157077 0.035312887281
-0.72097861767 -0.17018486559 0.67173552513
0.55354362726 -0.81799900532 -0.15631234646
0.69436830282 -0.71905308962 -0.027286114171
-0.7622475028 -0.46583229303 0.44930204749
-0.70436966419 -0.34925943613 0.61796152592
-0.57978320122 -0.26583215594 0.7700368166
-0.73641973734 0.017582990229 0.67639815807
-0.53421998024 -0.01024335064 0.8451924324
-0.74375104904 0.15525779128 -0.64891070127
-0.6904271245 0.35419172049 -0.63074576855
-0.57956171036 0.24925108254 -0.77496886253
-0.18875463307 -0.54207146168 -0.8185608387
-0.24628926814 -0.66524368525 -0.70466732979
-0.054673280567 -0.68237614632 -0.72776055336
0.81811839342 0.44721353054 -0.3615038991
0.53839337826 -0.0091575942934 -0.8421458602
0.58188301325 0.21353498101 -0.78468704224
0.70312798023 0.26375007629 -0.66034543514
0.55203026533 0.44560289383 -0.70359110832
-0.83782583475 0.30964231491 0.4496050477
-0.81821906567 0.15472877026 0.55369138718
-0.70205396414 0.36282753944 0.61272639036
-0.67393386364 0.17670337856 0.71727859974
-0.51871526241 0.26476275921 0.81284302473
0.80373960733 0.54831385612 -0.23045252264
0.68253815174 0.59783142805 -0.41994705796
-0.1481089443 -0.23871023953 -0.95948022604
-0.29578721523 -0.3642347157 -0.88306468725
-0.35438030958 -0.17009057105 -0.91949826479
-0.48900637031 -0.29977795482 -0.8189792037
-0.56886613369 -0.057587314397 -0.82015770674
-0.32262721658 -0.15353703499 0.93401128054
-0.26945286989 0.012063262053 0.96287983656
-0.11468917131 -0.12908834219 0.98498022556
-0.86699545383 -0.49788600206 0.01679537259
-0.88528931141 -0.39383473992 0.24697414041
-0.96127611399 -0.27088740468 0.049494598061
-0.99826109409 -0.048940122128 0.027752768248
-0.77618247271 -0.57192522287 0.26452755928
-0.87944757938 -0.28421241045 -0.38176584244
-0.83471941948 -0.14517097175 -0.53107470274
-0.98781436682 0.090882845223 -0.12644514441
-0.98470824957 -0.12453640252 -0.12193784863
-0.93772673607 -0.30774638057 -0.1609698683
-0.85215705633 -0.45495536923 -0.25789347291
-0.76596552134 -0.46306359768 -0.44566476345
-0.67830491066 -0.21044242382 -0.70391327143
-0.77381026745 -0.30452218652 -0.55507355928
-0.73195332289 -0.61960804462 -0.282220155
-0.86636459827 0.41529223323 0.27755379677
-0.5574375391 0.81059277058 -0.17956462502
-0.3670155108 0.90000331402 -0.23498481512
-0.53788208961 0.82891827822 0.15339386463
-0.43534007668 0.84223675728 0.31717067957
-0.6047847867 0.72347575426 0.3328653872
-0.66612839699 0.74591481686 -0.0063124783337
-0.69612979889 0.69894003868 0.16365081072
-0.85070371628 0.52557116747 0.0068294908851
-0.70794385672 0.68493235111 -0.17169523239
-0.62434113026 0.70213663578 -0.34242781997
-0.44818753004 0.7597668767 0.47098213434
-0.77374726534 0.46265634894 0.43267059326
-0.76995313168 0.57802647352 0.27041602135
-0.46178767085 0.74836194515 -0.47559437156
-0.47179722786 0.8170465827 -0.3314024508
-0.7853115201 0.55926662683 -0.26460137963
-0.98572170734 0.11108342558 0.12658801675
-0.9389526248 0.31242921948 0.14466185868
-0.96417939663 0.26472559571 -0.014229674824
-0.31207644939 -0.86639982462 -0.38922339678
-0.928601861 0.32862606645 -0.17121915519
-0.45175120234 -0.76212728024 -0.46378424764
-0.27518758178 -0.78211545944 -0.55813205242
0.90074580908 -0.22540529072 0.37130582333
0.95704805851 -0.057123411447 0.28417015076
0.95898842812 -0.22376899421 0.17379079759
0.91727602482 -0.37971764803 -0.11976876855
0.92818003893 -0.36709412932 0.060685239732
-0.30122378469 0.85900521278 -0.41387951374
-0.17216865718 0.93235379457 -0.31791424751
-0.088342711329 0.8641821146 -0.49472609162
-0.26859155297 0.87005221844 0.41316142678
-0.25765511394 0.78362989426 0.56525570154
0.36847433448 -0.89075320959 0.26612710953
0.18766248226 -0.91694372892 0.35201197863
0.32306173444 -0.81988018751 0.47259712219
0.11894463003 -0.82248592377 0.55608695745
-0.26906695962 0.77853786945 -0.56697916985
0.24289996922 -0.69123834372 0.68045186996
0.15356007218 -0.54992383718 0.82079815865
0.037687268108 -0.6978328824 0.7151247263
-0.016669968143 -0.88828599453 -0.45806777477
0.1434443593 -0.93534439802 -0.32298272848
-0.010026881471 -0.97149115801 -0.23668423295
0.13759937882 -0.98375725746 -0.11470149457
-0.66203254461 -0.73625260592 -0.13971143961
-0.15222783387 -0.98287111521 -0.10363350064
-0.16269376874 -0.93779492378 -0.30650827289
-0.082863852382 -0.84173434973 0.53328382969
-0.74466305971 -0.039717845619 -0.66631668806
-0.78899872303 -0.60133492947 -0.12643821537
-0.7138389349 -0.70030403137 -0.0026359460317
-0.14927770197 -0.84586048126 -0.51146191359
0.48316040635 0.83367794752 0.26666304469
0.45768424869 0.77093011141 0.44268703461
0.59471541643 0.72011011839 0.35736992955
0.55759268999 0.65195089579 0.5137938261
0.68428945541 0.59538000822 0.42081788182
0.51460206509 0.5639424324 0.6458646059
0.64745366573 0.51432782412 0.56238245964
0.60083788633 0.41928005219 0.68055135012
0.76411706209 0.44365093112 0.46821165085
0.71853029728 0.35639476776 0.59709650278
0.82491242886 0.25910976529 0.50147539377
-0.45249995589 -0.38231101632 0.80548858643
-0.45131188631 -0.22255429626 0.86415785551
-0.33633697033 -0.32823196054 0.88260614872
[...]
CELL_DATA 720
SCALARS cell_data_0 double
LOOKUP_TABLE default
6.74162816834e-08
5.5128420792e-08
8.0670189928e-08
9.60619195058e-08
4.57153097163e-08
8.80971156661e-08
5.45245000085e-08
9.56891958904e-08
3.6738405453e-08
4.7790112485e-09
5.08400316994e-08
7.40180786173e-08
1.61095162091e-07
4.92891119553e-08
5.87601598368e-08
1.128556117e-07
1.28234300733e-07
1.02517966388e-07
6.09038997192e-08
2.84370963851e-08
5.51152701607e-08
1.07218862388e-07
1.84775668448e-08
6.35561078726e-08
1.25066927093e-07
1.72374370584e-07
8.55464292472e-08
1.45667150889e-07
1.08591017824e-07
1.42958503667e-07
8.2221414539e-08
1.12389787725e-07
2.08637528312e-07
4.91655450532e-08
1.70953090802e-07
1.74538272737e-07
1.72092256041e-07
1.61204258445e-07
7.31305524203e-08
2.41612836684e-08
1.42438923949e-08
2.18638014737e-07
1.7223866533e-07
1.26259601307e-07
4.57369447849e-08
2.48963756078e-07
1.64878257289e-07
1.44259149266e-07
1.04425564432e-07
6.1405332324e-08
1.81724484574e-07
4.9104687525e-08
9.88451781974e-08
2.47298882393e-07
2.4734200458e-07
6.48394279956e-08
1.21966656537e-07
3.65125639125e-08
2.08511794283e-07
8.68676991222e-08
1.40449243348e-07
1.40446775515e-07
3.86104743674e-08
8.66529244651e-08
9.2111158982e-08
1.23564941332e-07
4.82741934478e-08
1.24266857474e-07
3.36703330391e-08
1.19682104619e-07
8.62602566844e-08
1.64030923122e-07
3.87637557742e-08
8.71198502092e-08
5.96656673684e-08
1.76464861803e-08
3.30878606797e-08
4.6938349962e-08
1.32347000336e-08
6.63828493363e-08
1.65692285311e-08
6.1417208943e-08
3.40763991998e-08
7.48659284787e-08
5.69347632244e-08
1.02240359581e-07
2.46758331565e-08
4.44898492854e-09
1.55337571745e-08
4.60434738069e-08
9.84760679692e-08
5.43958640046e-08
1.37532308611e-07
3.93895580387e-08
5.73584967042e-08
3.14161884082e-09
8.08684049932e-09
5.62351281376e-08
5.79591804097e-08
3.46358078239e-08
1.39138286075e-08
3.3888287053e-09
1.52445897166e-07
9.78149777294e-08
3.93747876907e-08
5.97623965058e-09
5.60398173867e-08
3.91385378417e-08
3.94692132176e-08
6.65777278789e-08
3.73129082126e-08
1.36150195055e-08
6.00126459724e-08
6.76491308865e-08
6.00251702812e-09
1.47504758931e-08
2.58825347053e-08
1.47388169884e-08
5.28633447913e-08
1.36942260627e-08
8.64158585435e-09
4.37531299302e-08
4.53288541663e-08
4.28195834072e-08
8.74651009089e-08
4.56834991582e-08
5.01845766505e-08
2.94979846717e-09
8.47996927651e-09
4.24980187119e-08
3.67211971545e-08
1.21818727755e-08
3.30366725501e-08
7.10767456008e-08
5.9775463187e-08
3.43369934402e-08
5.29152983387e-10
4.6911271617e-08
9.44935965701e-08
1.22503166175e-07
1.03669281819e-07
3.24939650047e-08
1.10496402387e-07
8.52671877022e-08
9.12451014019e-08
3.61203278486e-08
1.08418865126e-07
1.02463300412e-07
6.2167179781e-08
3.84578557805e-08
5.96489794081e-08
3.86271042358e-08
1.13988859989e-08
3.77944111741e-08
8.29808278822e-09
1.71281911234e-08
1.09335422142e-07
1.30988695732e-07
1.68188853807e-08
9.9562748906e-08
1.96345545363e-08
7.12493353324e-08
7.15310012591e-08
3.29766808867e-08
3.89110480939e-08
6.73863227856e-08
1.03861227267e-08
7.17512380573e-08
3.41540809085e-08
4.72364584947e-08
3.92483969425e-08
8.10300589479e-08
1.67031792756e-08
6.61347526082e-08
4.36658965844e-08
3.38458071731e-08
8.99326974433e-08
6.53683591233e-08
3.29410697053e-08
1.54048620004e-08
8.69357476923e-08
6.3510744413e-09
4.38130525841e-08
4.36390016325e-09
7.15927167932e-08
2.68653703516e-08
6.82074608062e-08
4.36328896763e-08
5.16018343883e-08
1.26721770828e-07
9.35911759341e-08
1.58107454169e-08
1.16473770848e-07
2.7739881166e-09
1.76471447639e-07
7.34834885693e-08
1.81070638963e-08
1.17023435235e-07
8.88220184515e-08
1.61335096837e-08
4.65553226554e-08
1.48049030347e-07
2.60331279684e-08
7.48711858955e-09
7.48723441173e-08
1.17457653326e-08
1.01574715907e-08
2.88921747788e-08
4.52932704314e-08
5.09657546054e-08
2.93044070415e-08
1.72512462554e-08
1.3725880069e-07
1.02895019369e-07
8.29527309852e-08
3.01418568119e-08
5.53680013356e-08
3.4828734558e-08
7.32764498238e-08
5.52699123371e-08
3.17395243103e-08
7.21164314385e-08
3.98672505627e-08
1.10955580522e-08
6.93659427059e-08
1.3915817512e-08
5.32672631374e-08
6.38918234534e-08
7.7989000991e-08
5.88531277233e-08
6.00040490053e-08
4.96598986809e-08
6.32965382135e-08
1.34706139337e-09
6.34990025586e-08
1.77333380615e-08
3.25587426157e-08
1.11666135581e-08
6.80138167913e-08
2.89294978028e-09
2.62975680777e-08
2.24054810159e-08
3.57345671808e-08
3.95225998885e-09
1.710904229e-08
1.65704009873e-08
1.0223765343e-08
3.44089480206e-08
2.67647664368e-08
4.13794274533e-08
2.96554843352e-08
5.6436272935e-08
4.95023960766e-08
4.63247083757e-08
3.01817261644e-08
4.36946896796e-08
2.19712354527e-08
3.00074972039e-09
6.38652316581e-08
8.99393267007e-09
3.83414143743e-08
8.76762048011e-08
4.13283193146e-08
5.26541116406e-08
6.65611568672e-08
1.11042308518e-07
1.67921912189e-08
1.31152055681e-08
3.97200988504e-08
2.15711278472e-08
4.87521623407e-08
2.47003433105e-08
2.08279421513e-08
5.29917165457e-08
1.5270356549e-08
3.85288655066e-08
5.10624779166e-08
4.54612031245e-08
2.5734334947e-08
2.22904835864e-08
6.91019771576e-08
1.32321020736e-08
2.57952945496e-08
2.65947413352e-08
4.91751467364e-08
1.5966032513e-08
7.44465476426e-08
1.04482253718e-07
2.14991634218e-08
9.7873522178e-08
2.04178582336e-09
3.27378865857e-08
1.19956420277e-09
9.73217564311e-08
6.54857479779e-08
8.12774662309e-08
6.04896759055e-08
1.06231974081e-10
1.99776369972e-08
4.97218949426e-08
9.70009485025e-09
4.29910363906e-08
3.0611429694e-08
8.10699758233e-10
5.17891711873e-09
5.10232428678e-09
4.60253439229e-09
3.49610162531e-09
5.00996449177e-09
2.53552450212e-09
4.4418847131e-08
4.84114174381e-08
4.73645249394e-08
1.80459385643e-08
3.23107737177e-08
4.19677880311e-08
1.83734660409e-08
1.48780646657e-08
2.59158860568e-08
1.57759681332e-08
6.12733194113e-08
2.01678444361e-08
4.38714162601e-08
5.91928160049e-08
7.00047942444e-08
6.66067254394e-08
8.2953494642e-08
5.62974498064e-08
2.25400395616e-08
1.11074014911e-07
2.39084826764e-09
3.86792751107e-08
5.64597048689e-08
3.3008692495e-08
8.88589114497e-08
1.29142053209e-07
8.99537793199e-08
7.00028558339e-08
2.1345994541e-08
1.93226296388e-08
2.50880795818e-08
2.61866938672e-08
3.54361982974e-08
1.04628901838e-07
5.82159726054e-08
1.1180732967e-07
6.343638726e-09
1.80308365773e-08
5.15038945566e-08
2.04977196595e-08
5.60909327543e-09
3.15892372312e-08
1.97590797455e-08
6.51427471246e-08
3.69835485641e-08
3.96243738722e-08
1.7735907128e-08
2.18887754163e-08
1.48935376462e-08
4.64040781109e-10
3.36646806435e-08
5.52240474547e-08
4.40540114746e-08
3.61274668713e-09
4.8598831647e-08
2.78316984686e-08
4.69978238833e-08
8.03023968465e-09
3.61239602209e-08
2.52478656166e-09
4.69816852331e-08
3.10037513139e-08
1.83253074846e-09
1.14783536528e-08
2.83182953576e-08
8.96787503696e-10
4.16958685951e-08
5.14036174836e-08
2.87311130817e-08
2.38157627707e-08
3.55087438466e-08
1.35591036659e-08
6.23423901502e-08
2.94418242466e-08
7.7922981486e-08
7.49613665358e-09
2.6440644881e-09
1.8243887462e-08
7.38952670621e-09
5.23144732219e-09
4.95803383958e-09
4.43148159872e-08
2.03904876136e-08
2.34601572733e-08
5.52388865228e-08
4.64186261113e-08
6.30027009411e-08
5.49454429664e-08
2.59206886558e-08
3.35571574401e-08
1.75363018094e-08
3.13943759222e-09
6.157643535e-08
4.49084356273e-08
2.80893262992e-08
3.26625325158e-08
1.5097249864e-08
1.01654086724e-08
4.29161136395e-08
8.34621707004e-08
2.49750470094e-08
1.13663303798e-08
2.27271657908e-08
2.01090146775e-09
3.72881692489e-08
4.9652631978e-08
1.35169034924e-08
1.80262433301e-08
2.68371712169e-08
6.70724067421e-08
3.61669408137e-08
2.40271487006e-08
5.39276937307e-08
4.01801728095e-08
3.60230337167e-08
2.04004418844e-08
8.89759398532e-08
4.9027114899e-08
7.35383453101e-08
2.99856448122e-08
6.00958580985e-08
8.63775642648e-08
3.21560091924e-08
5.45674036949e-08
2.14110865253e-08
2.222800318e-08
4.06858176683e-08
6.59836213633e-08
2.20116423427e-08
2.96565101358e-08
3.98826045504e-08
1.09595890702e-08
3.22118598308e-10
2.90254027434e-08
8.92364369039e-09
3.78807572485e-09
2.5170643859e-08
1.07251847878e-08
1.8749865735e-08
2.50879273893e-09
2.31374112696e-08
3.85677909083e-08
6.17737240288e-08
7.8382213386e-08
1.29746304356e-08
2.33033987024e-08
4.81588947664e-08
1.15849440617e-08
2.75177556265e-08
2.38106205388e-08
6.10283654413e-08
3.31837630486e-09
2.23426299373e-08
3.96322013563e-08
5.33030785578e-08
1.94531093438e-08
1.5030312587e-08
1.03674254391e-08
4.36290615322e-08
1.81263239226e-08
1.78829715687e-08
4.82088752313e-09
1.55487969862e-08
1.9781697293e-08
6.82103683446e-08
6.46231192777e-09
3.71825868511e-08
1.05432958179e-08
2.47286710265e-08
5.22893978885e-09
2.86110652333e-08
8.72340576483e-08
3.27755518878e-08
7.10063837526e-09
5.17218588848e-08
2.71971490746e-08
4.4276509528e-08
1.34116195639e-08
6.43461265997e-08
7.53037703095e-08
1.81956547663e-08
1.25468880014e-08
2.93860712707e-08
2.78606946963e-08
5.18167029232e-08
1.14680980349e-07
9.94259831094e-09
2.1030276542e-08
9.29443877721e-08
3.53012851386e-08
1.13580490608e-08
8.1424158443e-09
1.9880750632e-08
1.16414961829e-08
5.6915841421e-08
1.9302540217e-08
3.68429887009e-09
1.24758332928e-08
7.10706472025e-08
1.21319663781e-08
3.03370038336e-08
3.01962150395e-09
4.45883873741e-08
1.1969895359e-08
5.26624009538e-08
3.41553236423e-08
6.17294025345e-08
9.27582094992e-08
3.67642696095e-09
2.72057310737e-08
4.17652604307e-09
1.7953115304e-08
3.50718055857e-08
4.06341399588e-08
8.29245354616e-09
6.70120498243e-09
5.11572406947e-09
2.17838091264e-08
8.65942290306e-09
4.17479771241e-08
9.98478849843e-10
6.21699000497e-08
3.56165636383e-08
4.72839239743e-08
6.46067452611e-08
5.24395449917e-08
1.09647651368e-08
3.81552444691e-08
9.02118546773e-08
7.32295574733e-08
6.09233856821e-10
3.24372647341e-08
2.04173733514e-08
2.67829982759e-08
1.5692952303e-08
1.02819421727e-08
1.01271156188e-08
7.38661638943e-09
7.0226510275e-09
3.04894985357e-08
4.94016562065e-08
2.134369696e-08
2.30452369687e-09
5.09343913005e-08
1.32653880977e-08
2.07846650671e-08
4.26636798349e-09
6.68326945889e-09
9.84099952777e-09
2.0334336045e-08
3.62675282496e-08
2.6261241774e-08
9.105131031e-09
3.23774932474e-08
1.845550371e-08
1.43354672792e-08
4.15896033511e-09
2.61716058535e-08
5.39367458144e-09
3.72612779547e-08
2.66460526066e-08
3.5679700273e-08
4.90647984096e-09
1.52015668551e-08
2.35265029567e-09
3.57740589846e-08
2.38545777503e-08
1.0643675789e-09
4.59693189717e-09
1.16033534544e-08
1.90949325655e-08
4.69210285592e-08
1.58339859712e-08
2.30663172729e-08
7.1375175695e-08
5.09139833447e-08
1.48368037704e-08
3.46406100336e-08
3.24381243056e-08
5.91711102447e-10
2.41271582604e-08
4.00000297531e-08
1.10235981963e-08
5.19368437798e-08
2.2030070545e-08
1.21286473281e-08
2.21486732193e-08
2.9708826327e-08
1.67763132903e-08
2.68559518386e-08
5.33452907516e-09
2.75673774772e-08
5.93503152793e-08
6.94149265374e-08
5.0925110883e-08
8.01769207626e-09
3.14276428825e-08
2.25072928104e-08
4.03547318842e-08
2.94141979509e-08
3.23782713782e-08
4.80100343059e-08
4.84053155866e-08
6.31529521428e-09
4.67390351318e-08
1.57435198423e-08
2.6592527548e-08
1.1705003346e-08
6.63521333509e-09
1.24217687079e-08
4.44484163998e-08
2.985298566e-09
4.71854754477e-08
1.73021206723e-08
1.49216348705e-08
1.68639695065e-10
1.21004524851e-08
1.40794724852e-08
3.10113618773e-08
4.17167275234e-09
2.08197988404e-08
4.31334894488e-09
2.59834086653e-08
1.17327037527e-10
2.15924035902e-08
3.0285609724e-08
8.72373566781e-08
6.49406465542e-08
8.53066442155e-08
7.32695943573e-08
2.62932565114e-08
3.10732185587e-08
2.69409244063e-08
3.81273023419e-08
4.16083954723e-08
6.36763398527e-09
1.85124442703e-08
3.95796298962e-08
2.51707840562e-08
2.33734329485e-08
5.5558337748e-08
1.23094848436e-08
1.0929809132e-08
1.37308357692e-08
1.34427746811e-08
1.93398802621e-08
4.41368684272e-08
9.46910213576e-09
1.77636264605e-08
2.80686958635e-08
2.92539664562e-08
1.24078641804e-08
6.35070174187e-09
7.69062443846e-09
1.48379959326e-08
1.13333069432e-08
5.34466175181e-09
5.1793093468e-08
4.52048987215e-08
5.60231018324e-09
5.47269624715e-09
2.86674556875e-08
4.0420140483e-09
1.87713581341e-08
1.41243859082e-08
3.46500685394e-08
1.65691025555e-08
3.64514964734e-08
2.86662299258e-08
2.48334670195e-09
1.09442622277e-08
3.78804431105e-08
3.72381526917e-08
2.20199888699e-08
1.59444569182e-08
2.48089872176e-08
1.06718132501e-08
4.50658394357e-09
3.89965659318e-08
4.18603089175e-08
1.20766020919e-08
3.67073254236e-08
1.25007558862e-08
6.81157891654e-09
2.8887504163e-08
3.48044845106e-08
2.93937275126e-08
4.88975717574e-09
2.17710839194e-08
4.35543235455e-08
2.93083267909e-08
1.31827094182e-08
2.92331337837e-08
2.63882209965e-08
2.30936005482e-09
2.46164729255e-08
2.2931019691e-08
4.70242175518e-09
2.28679670841e-08
2.34558316895e-08
3.23891182212e-08
3.39659711569e-08
6.87845089874e-09
1.81497699438e-08
3.83430426109e-08
2.86118348492e-08
6.77429884404e-08
4.20916129233e-08
2.06319461134e-08
1.80045742912e-09

