# vtk DataFile Version 3.0
File Name: Molecule/sphere_cent/sphere_cent_0-s6.vtk
ASCII
DATASET UNSTRUCTURED_GRID
FIELD FieldData 1
TIME 1 1 double
0.0
POINTS 248 double
1.70130162 -1.05146222 0.0
1.72533696 -0.86777713 -0.51978383
1.92387672 -0.54653306 0.0
1.90211303 -0.3249197 -0.52573111
1.38756095 -0.32124407 -1.40409289
1.38756095 0.32124407 -1.40409289
1.70130162 0.0 -1.05146222
1.05146222 0.0 -1.70130162
1.90211303 0.3249197 -0.52573111
1.72533696 0.86777713 -0.51978383
1.92387672 0.54653306 0.0
1.70130162 1.05146222 0.0
1.40409289 1.38756095 -0.32124407
1.37638192 1.17557051 -0.85065081
0.86777713 0.51978383 -1.72533696
1.17557051 0.85065081 -1.37638192
0.85065081 1.37638192 -1.17557051
0.32124407 1.40409289 -1.38756095
0.51978383 1.72533696 -0.86777713
0.61803399 1.0 -1.61803399
0.0 1.70130162 -1.05146222
1.40409289 1.38756095 0.32124407
1.05146222 1.70130162 0.0
0.0 1.92387672 -0.54653306
0.52573111 1.90211303 -0.3249197
0.0 2.0 0.0
0.52573111 1.90211303 0.3249197
0.0 1.92387672 0.54653306
0.51978383 1.72533696 0.86777713
0.0 1.70130162 1.05146222
-0.51978383 1.72533696 0.86777713
-0.52573111 1.90211303 0.3249197
-1.0 1.61803399 0.61803399
-0.52573111 1.90211303 -0.3249197
-1.05146222 1.70130162 0.0
-1.0 1.61803399 -0.61803399
-0.51978383 1.72533696 -0.86777713
-1.40409289 1.38756095 0.32124407
-1.40409289 1.38756095 -0.32124407
-1.70130162 1.05146222 0.0
-0.32124407 1.40409289 1.38756095
-0.85065081 1.37638192 1.17557051
-1.37638192 1.17557051 0.85065081
-1.72533696 0.86777713 0.51978383
-1.61803399 0.61803399 1.0
-1.17557051 0.85065081 1.37638192
-1.38756095 0.32124407 1.40409289
-0.86777713 0.51978383 1.72533696
-1.05146222 0.0 1.70130162
0.32124407 1.40409289 1.38756095
0.0 1.05146222 1.70130162
-0.61803399 1.0 1.61803399
0.61803399 1.0 1.61803399
-0.3249197 0.52573111 1.90211303
-0.54653306 0.0 1.92387672
0.3249197 0.52573111 1.90211303
0.86777713 0.51978383 1.72533696
0.54653306 0.0 1.92387672
1.05146222 0.0 1.70130162
-0.86777713 -0.51978383 1.72533696
-0.3249197 -0.52573111 1.90211303
-0.61803399 -1.0 1.61803399
0.0 0.0 2.0
0.0 -1.05146222 1.70130162
0.3249197 -0.52573111 1.90211303
0.61803399 -1.0 1.61803399
-0.32124407 -1.40409289 1.38756095
0.32124407 -1.40409289 1.38756095
0.0 -1.70130162 1.05146222
0.86777713 -0.51978383 1.72533696
1.38756095 -0.32124407 1.40409289
1.17557051 -0.85065081 1.37638192
1.61803399 -0.61803399 1.0
0.85065081 -1.37638192 1.17557051
0.51978383 -1.72533696 0.86777713
1.0 -1.61803399 0.61803399
1.37638192 -1.17557051 0.85065081
1.72533696 -0.86777713 0.51978383
1.40409289 -1.38756095 0.32124407
0.86777713 -0.51978383 -1.72533696
0.54653306 0.0 -1.92387672
0.3249197 -0.52573111 -1.90211303
0.61803399 -1.0 -1.61803399
0.32124407 -1.40409289 -1.38756095
0.0 -1.05146222 -1.70130162
-0.32124407 -1.40409289 -1.38756095
0.0 -1.70130162 -1.05146222
-0.3249197 -0.52573111 -1.90211303
-0.86777713 -0.51978383 -1.72533696
-0.54653306 0.0 -1.92387672
-1.05146222 0.0 -1.70130162
1.90211303 -0.3249197 0.52573111
1.90211303 0.3249197 0.52573111
1.61803399 0.61803399 1.0
1.70130162 0.0 1.05146222
1.72533696 0.86777713 0.51978383
1.38756095 0.32124407 1.40409289
1.37638192 1.17557051 0.85065081
1.0 1.61803399 0.61803399
0.85065081 1.37638192 1.17557051
1.17557051 0.85065081 1.37638192
-1.38756095 -0.32124407 -1.40409289
-1.38756095 0.32124407 -1.40409289
-1.70130162 0.0 -1.05146222
-1.61803399 -0.61803399 -1.0
-1.61803399 0.61803399 -1.0
-1.90211303 -0.3249197 -0.52573111
-1.90211303 0.3249197 -0.52573111
-2.0 0.0 0.0
-1.72533696 -0.86777713 -0.51978383
-1.92387672 -0.54653306 0.0
-1.70130162 -1.05146222 0.0
-1.72533696 0.86777713 -0.51978383
-1.92387672 0.54653306 0.0
-0.32124407 1.40409289 -1.38756095
-0.85065081 1.37638192 -1.17557051
-0.61803399 1.0 -1.61803399
-0.86777713 0.51978383 -1.72533696
-1.17557051 0.85065081 -1.37638192
-1.37638192 1.17557051 -0.85065081
-1.40409289 -1.38756095 -0.32124407
-1.40409289 -1.38756095 0.32124407
-1.05146222 -1.70130162 0.0
-1.0 -1.61803399 -0.61803399
-1.0 -1.61803399 0.61803399
-0.51978383 -1.72533696 -0.86777713
-0.52573111 -1.90211303 -0.3249197
0.0 -1.92387672 -0.54653306
0.0 -2.0 0.0
-0.52573111 -1.90211303 0.3249197
-0.51978383 -1.72533696 0.86777713
0.0 -1.92387672 0.54653306
-1.72533696 -0.86777713 0.51978383
-1.37638192 -1.17557051 0.85065081
-1.61803399 -0.61803399 1.0
-0.85065081 -1.37638192 1.17557051
-1.17557051 -0.85065081 1.37638192
-1.38756095 -0.32124407 1.40409289
-1.70130162 0.0 1.05146222
-1.90211303 0.3249197 0.52573111
-1.90211303 -0.3249197 0.52573111
-1.17557051 -0.85065081 -1.37638192
-0.61803399 -1.0 -1.61803399
-0.85065081 -1.37638192 -1.17557051
-1.37638192 -1.17557051 -0.85065081
0.51978383 -1.72533696 -0.86777713
0.52573111 -1.90211303 -0.3249197
1.0 -1.61803399 -0.61803399
1.05146222 -1.70130162 0.0
0.52573111 -1.90211303 0.3249197
1.40409289 -1.38756095 -0.32124407
1.17557051 -0.85065081 -1.37638192
0.85065081 -1.37638192 -1.17557051
-0.3249197 0.52573111 -1.90211303
1.78201305 -0.47735386 -0.77237477
1.61803399 -0.61803399 -1.0
1.68035577 -0.31286893 -1.03851698
1.82596499 -0.16464716 -0.7992141
1.61803399 0.61803399 -1.0
1.51587084 0.907981 -0.9368597
1.20300191 1.41421356 -0.74349607
1.0 1.61803399 -0.61803399
1.41421356 0.74349607 -1.20300191
1.29315558 1.02675088 -1.12850842
1.02675088 1.12850842 -1.29315558
1.12850842 1.29315558 -1.02675088
0.9368597 1.51587084 -0.907981
-0.74349607 1.20300191 1.41421356
-1.12850842 1.29315558 1.02675088
-1.29315558 1.02675088 1.12850842
-1.02675088 1.12850842 1.29315558
-0.907981 0.9368597 1.51587084
-0.16464716 0.7992141 1.82596499
0.0 0.5328094 1.92772253
0.16464716 0.7992141 1.82596499
-0.16448493 0.26614221 1.97537668
0.16448493 0.26614221 1.97537668
1.02675088 -1.12850842 1.29315558
1.12850842 -1.29315558 1.02675088
1.29315558 -1.02675088 1.12850842
1.12850842 1.29315558 1.02675088
1.02675088 1.12850842 1.29315558
1.29315558 1.02675088 1.12850842
-0.7992141 -1.82596499 -0.16464716
-0.5328094 -1.92772253 0.0
-0.7992141 -1.82596499 0.16464716
1.97537668 -0.16448493 -0.26614221
2.0 0.0 0.0
1.68035577 0.31286893 -1.03851698
1.82596499 0.16464716 -0.7992141
1.78201305 0.47735386 -0.77237477
1.92772253 0.0 -0.5328094
1.97537668 0.16448493 -0.26614221
1.03851698 1.68035577 -0.31286893
1.03851698 1.68035577 0.31286893
0.77237477 1.78201305 -0.47735386
0.7992141 1.82596499 -0.16464716
0.5328094 1.92772253 0.0
0.7992141 1.82596499 0.16464716
0.77237477 1.78201305 0.47735386
0.16448493 -0.26614221 -1.97537668
0.16464716 -0.7992141 -1.82596499
-0.16464716 -0.7992141 -1.82596499
0.0 -0.5328094 -1.92772253
-0.31286893 -1.03851698 -1.68035577
-0.47735386 -0.77237477 -1.78201305
-0.16448493 -0.26614221 -1.97537668
0.0 0.0 -2.0
1.97537668 -0.16448493 0.26614221
1.97537668 0.16448493 0.26614221
1.92772253 0.0 0.5328094
-1.02675088 1.12850842 -1.29315558
-1.29315558 1.02675088 -1.12850842
-1.12850842 1.29315558 -1.02675088
0.75007714 0.76722747 -1.68782295
0.71645759 0.26331074 -1.8486092
0.44023406 0.26558495 -1.93278519
0.60251776 0.5281655 -1.83248835
0.3249197 0.52573111 -1.90211303
0.27590449 0.0 -1.98087776
0.16448493 0.26614221 -1.97537668
0.47735386 0.77237477 -1.78201305
-0.16448493 0.26614221 -1.97537668
0.0 0.5328094 -1.92772253
-0.16464716 0.7992141 -1.82596499
0.16464716 0.7992141 -1.82596499
0.0 1.05146222 -1.70130162
-0.47735386 0.77237477 -1.78201305
-0.31286893 1.03851698 -1.68035577
0.31286893 1.03851698 -1.68035577
1.2136503 -1.5173046 -0.47417265
1.41421356 -0.74349607 -1.20300191
0.907981 -0.9368597 -1.51587084
1.51587084 -0.907981 -0.9368597
1.29315558 -1.02675088 -1.12850842
1.37638192 -1.17557051 -0.85065081
1.12850842 -1.29315558 -1.02675088
1.02675088 -1.12850842 -1.29315558
1.20300191 -1.41421356 -0.74349607
0.9368597 -1.51587084 -0.907981
0.74349607 -1.20300191 -1.41421356
1.68782295 -0.75007714 -0.76722747
1.56690339 -1.03224324 -0.69230603
1.58529846 -1.14250332 -0.42604573
1.40461969 -1.29482379 -0.59200919
-0.1622837 1.24047916 -1.56040874
0.1622837 1.24047916 -1.56040874
0.0 1.42256347 -1.40581406

CELLS 492 1968
3 0 1 2
3 1 3 2
3 4 5 6
3 4 7 5
3 8 9 10
3 10 9 11
3 11 9 12
3 9 13 12
3 5 14 15
3 5 7 14
3 16 17 18
3 16 19 17
3 18 17 20
3 11 12 21
3 12 22 21
3 18 23 24
3 18 20 23
3 24 23 25
3 26 27 28
3 26 25 27
3 28 27 29
3 29 27 30
3 27 31 30
3 27 25 31
3 30 31 32
3 25 33 31
3 33 34 31
3 33 35 34
3 31 34 32
3 25 23 33
3 23 36 33
3 23 20 36
3 33 36 35
3 32 34 37
3 34 38 37
3 34 35 38
3 37 38 39
3 29 30 40
3 30 41 40
3 30 32 41
3 32 37 42
3 37 43 42
3 37 39 43
3 42 43 44
3 45 46 47
3 45 44 46
3 47 46 48
3 29 40 49
3 40 50 49
3 40 51 50
3 49 50 52
3 51 47 53
3 47 54 53
3 47 48 54
3 52 55 56
3 55 57 56
3 56 57 58
3 48 59 54
3 59 60 54
3 59 61 60
3 54 60 62
3 61 63 60
3 63 64 60
3 63 65 64
3 60 64 62
3 61 66 63
3 66 67 63
3 66 68 67
3 63 67 65
3 62 64 57
3 64 69 57
3 64 65 69
3 57 69 58
3 58 69 70
3 69 71 70
3 69 65 71
3 70 71 72
3 65 67 73
3 67 74 73
3 67 68 74
3 73 74 75
3 72 76 77
3 76 78 77
3 76 75 78
3 77 78 0
3 7 79 80
3 79 81 80
3 79 82 81
3 82 83 84
3 83 85 84
3 83 86 85
3 87 88 89
3 89 88 90
3 0 2 77
3 2 91 77
3 77 91 72
3 92 93 94
3 91 94 72
3 10 95 92
3 10 11 95
3 92 95 93
3 72 94 70
3 94 96 70
3 94 93 96
3 70 96 58
3 11 21 95
3 21 97 95
3 21 98 97
3 95 97 93
3 98 28 99
3 28 49 99
3 28 29 49
3 99 49 52
3 93 100 96
3 100 56 96
3 100 52 56
3 96 56 58
3 90 101 102
3 101 103 102
3 101 104 103
3 102 103 105
3 104 106 103
3 106 107 103
3 106 108 107
3 103 107 105
3 104 109 106
3 109 110 106
3 109 111 110
3 106 110 108
3 105 107 112
3 107 113 112
3 107 108 113
3 112 113 39
3 20 114 36
3 114 115 36
3 114 116 115
3 36 115 35
3 116 117 118
3 117 102 118
3 117 90 102
3 118 102 105
3 35 119 38
3 119 112 38
3 119 105 112
3 38 112 39
3 111 120 121
3 120 122 121
3 120 123 122
3 121 122 124
3 123 125 126
3 125 127 126
3 125 86 127
3 126 127 128
3 124 129 130
3 129 131 130
3 129 128 131
3 130 131 68
3 111 121 132
3 121 133 132
3 121 124 133
3 132 133 134
3 124 135 133
3 135 136 133
3 135 61 136
3 133 136 134
3 124 130 135
3 130 66 135
3 130 68 66
3 135 66 61
3 134 136 137
3 136 59 137
3 136 61 59
3 137 59 48
3 48 46 137
3 46 138 137
3 46 44 138
3 137 138 134
3 44 139 138
3 139 140 138
3 139 108 140
3 138 140 134
3 44 43 139
3 43 113 139
3 43 39 113
3 139 113 108
3 134 140 132
3 140 110 132
3 140 108 110
3 132 110 111
3 90 88 101
3 88 141 101
3 88 142 141
3 101 141 104
3 142 143 141
3 143 144 141
3 143 123 144
3 141 144 104
3 142 85 143
3 85 125 143
3 85 86 125
3 143 125 123
3 104 144 109
3 144 120 109
3 144 123 120
3 109 120 111
3 86 145 127
3 145 146 127
3 145 147 146
3 127 146 128
3 147 148 146
3 148 149 146
3 148 75 149
3 146 149 128
3 150 78 148
3 150 0 78
3 148 78 75
3 128 149 131
3 149 74 131
3 149 75 74
3 131 74 68
3 7 4 79
3 4 151 79
3 152 145 83
3 83 145 86
3 89 117 153
3 89 90 117
3 1 154 3
3 155 156 154
3 156 157 154
3 156 6 157
3 154 157 3
3 6 156 4
3 4 156 155
3 158 159 9
3 9 159 13
3 13 160 12
3 12 160 161
3 158 162 159
3 162 163 159
3 162 15 163
3 159 163 13
3 15 164 163
3 164 165 163
3 164 16 165
3 163 165 13
3 16 164 19
3 19 164 15
3 13 165 160
3 165 166 160
3 165 16 166
3 160 166 161
3 15 162 5
3 5 162 158
3 161 166 18
3 166 16 18
3 41 167 40
3 40 167 51
3 42 168 32
3 32 168 41
3 42 169 168
3 169 170 168
3 169 45 170
3 168 170 41
3 45 169 44
3 44 169 42
3 41 170 167
3 170 171 167
3 170 45 171
3 167 171 51
3 51 171 47
3 171 45 47
3 53 172 51
3 51 172 50
3 53 173 172
3 173 174 172
3 173 55 174
3 172 174 50
3 53 175 173
3 175 176 173
3 175 62 176
3 173 176 55
3 50 174 52
3 174 55 52
3 62 175 54
3 54 175 53
3 55 176 57
3 176 62 57
3 73 177 65
3 65 177 71
3 73 178 177
3 178 179 177
3 178 76 179
3 177 179 71
3 76 178 75
3 75 178 73
3 71 179 72
3 179 76 72
3 99 180 98
3 98 180 97
3 99 181 180
3 181 182 180
3 181 100 182
3 180 182 97
3 100 181 52
3 52 181 99
3 97 182 93
3 182 100 93
3 126 183 123
3 123 183 122
3 126 184 183
3 184 185 183
3 184 129 185
3 183 185 122
3 129 184 128
3 128 184 126
3 122 185 124
3 185 129 124
3 3 186 2
3 2 186 187
3 6 188 189
3 188 190 189
3 188 158 190
3 189 190 8
3 3 191 186
3 191 192 186
3 191 8 192
3 186 192 187
3 158 188 5
3 5 188 6
3 187 192 10
3 192 8 10
3 8 190 9
3 190 158 9
3 161 193 12
3 12 193 22
3 22 194 21
3 21 194 98
3 161 195 193
3 195 196 193
3 195 24 196
3 193 196 22
3 24 197 196
3 197 198 196
3 197 26 198
3 196 198 22
3 26 197 25
3 25 197 24
3 22 198 194
3 198 199 194
3 198 26 199
3 194 199 98
3 24 195 18
3 18 195 161
3 98 199 28
3 199 26 28
3 81 200 80
3 84 201 82
3 82 201 81
3 84 202 201
3 202 203 201
3 202 87 203
3 201 203 81
3 84 204 202
3 204 205 202
3 204 142 205
3 202 205 87
3 81 203 200
3 203 206 200
3 203 87 206
3 200 206 207
3 142 204 85
3 85 204 84
3 207 206 89
3 206 87 89
3 87 205 88
3 205 142 88
3 187 208 2
3 2 208 91
3 187 209 208
3 209 210 208
3 209 92 210
3 208 210 91
3 91 210 94
3 94 210 92
3 92 209 10
3 10 209 187
3 118 211 116
3 116 211 115
3 118 212 211
3 212 213 211
3 212 119 213
3 211 213 115
3 119 212 105
3 105 212 118
3 115 213 35
3 213 119 35
3 8 191 157
3 157 191 3
3 6 189 157
3 157 189 8
3 14 214 15
3 15 214 19
3 80 215 7
3 7 215 14
3 80 216 215
3 216 217 215
3 216 218 217
3 215 217 14
3 80 219 216
3 219 220 216
3 219 207 220
3 216 220 218
3 14 217 214
3 217 221 214
3 217 218 221
3 214 221 19
3 207 222 220
3 222 223 220
3 222 153 223
3 220 223 218
3 153 224 223
3 224 225 223
3 224 226 225
3 223 225 218
3 153 227 224
3 227 228 224
3 227 116 228
3 224 228 226
3 218 225 221
3 225 229 221
3 225 226 229
3 221 229 19
3 153 222 89
3 89 222 207
3 116 227 117
3 117 227 153
3 19 229 17
3 228 116 114
3 207 219 200
3 200 219 80
3 147 230 148
3 230 150 148
3 155 231 4
3 4 231 151
3 151 232 79
3 79 232 82
3 155 233 231
3 233 234 231
3 233 235 234
3 231 234 151
3 235 236 234
3 236 237 234
3 236 152 237
3 234 237 151
3 235 238 236
3 238 239 236
3 238 147 239
3 236 239 152
3 151 237 232
3 237 240 232
3 237 152 240
3 232 240 82
3 155 241 233
3 241 242 233
3 241 1 242
3 233 242 235
3 1 243 242
3 243 244 242
3 243 150 244
3 242 244 235
3 150 243 0
3 0 243 1
3 235 244 238
3 244 230 238
3 244 150 230
3 238 230 147
3 82 240 83
3 240 152 83
3 152 239 145
3 239 147 145
3 226 245 246
3 245 247 246
3 245 114 247
3 246 247 17
3 17 247 20
3 247 114 20
3 1 241 154
3 154 241 155
3 226 246 229
3 229 246 17
3 114 245 228
3 228 245 226

CELL_TYPES 492
5
5
5
5
5
5
5
5
5
5
5
5
5
5
5
5
5
5
5
5
5
5
5
5
5
5
5
5
5
5
5
5
5
5
5
5
5
5
5
5
5
5
5
5
5
5
5
5
5
5
5
5
5
5
5
5
5
5
5
5
5
5
5
5
5
5
5
5
5
5
5
5
5
5
5
5
5
5
5
5
5
5
5
5
5
5
5
5
5
5
5
5
5
5
5
5
5
5
5
5
5
5
5
5
5
5
5
5
5
5
5
5
5
5
5
5
5
5
5
5
5
5
5
5
5
5
5
5
5
5
5
5
5
5
5
5
5
5
5
5
5
5
5
5
5
5
5
5
5
5
5
5
5
5
5
5
5
5
5
5
5
5
5
5
5
5
5
5
5
5
5
5
5
5
5
5
5
5
5
5
5
5
5
5
5
5
5
5
5
5
5
5
5
5
5
5
5
5
5
5
5
5
5
5
5
5
5
5
5
5
5
5
5
5
5
5
5
5
5
5
5
5
5
5
5
5
5
5
5
5
5
5
5
5
5
5
5
5
5
5
5
5
5
5
5
5
5
5
5
5
5
5
5
5
5
5
5
5
5
5
5
5
5
5
5
5
5
5
5
5
5
5
5
5
5
5
5
5
5
5
5
5
5
5
5
5
5
5
5
5
5
5
5
5
5
5
5
5
5
5
5
5
5
5
5
5
5
5
5
5
5
5
5
5
5
5
5
5
5
5
5
5
5
5
5
5
5
5
5
5
5
5
5
5
5
5
5
5
5
5
5
5
5
5
5
5
5
5
5
5
5
5
5
5
5
5
5
5
5
5
5
5
5
5
5
5
5
5
5
5
5
5
5
5
5
5
5
5
5
5
5
5
5
5
5
5
5
5
5
5
5
5
5
5
5
5
5
5
5
5
5
5
5
5
5
5
5
5
5
5
5
5
5
5
5
5
5
5
5
5
5
5
5
5
5
5
5
5
5
5
5
5
5
5
5
5
5
5
5
5
5
5
5
5
5
5
5
5
5
5
5
5
5
5
5
5
5
5
5
5
5
5
5
5
5
5
5
5
5
5
5
5
5
5
5
5
5
5
5
5
5
5
5
5
5
5
5
5
5
5
5
5

CELL_DATA 492
SCALARS cell_data_0 double
LOOKUP_TABLE default
4.52587847054e-08
7.85049624513e-08
8.84860338531e-08
1.9241506639e-08
6.79014616958e-08
1.80210609764e-08
2.56737075468e-08
7.09085921122e-08
1.09181988736e-07
6.54129266926e-08
3.82427907634e-08
5.29814079288e-08
4.34550972632e-09
3.13150188134e-08
9.30767218883e-08
2.39936432269e-08
1.66267268863e-08
1.60834387554e-08
7.46368523508e-09
2.30685789589e-08
5.08612012938e-08
3.61844554455e-08
3.80683802956e-09
4.76832372558e-08
2.10235198131e-08
7.73858366119e-08
1.26033351768e-07
1.19236100036e-07
1.06802127861e-07
2.35304941834e-08
2.47781130819e-08
1.30310870598e-08
4.31918212911e-09
1.38270327635e-08
3.24875974684e-08
1.20452710798e-08
1.8116581191e-08
2.45176412939e-08
3.61386396895e-08
7.24786420561e-09
5.54067739482e-09
2.62099908473e-08
2.07300820351e-08
4.04042557925e-08
3.37989282495e-08
3.07556695704e-08
3.48419093484e-08
3.62128976561e-08
3.6367322369e-09
1.42036500923e-08
1.05570272826e-08
2.47021274813e-08
3.31963396155e-08
4.31093453736e-08
2.02232980682e-08
5.78531416249e-08
1.57502789369e-08
2.40127972002e-08
4.2751811254e-08
1.76284882498e-08
3.24986886563e-08
1.05231326966e-07
1.12787183706e-07
7.56484675983e-08
1.20585773906e-07
1.32813559065e-08
2.45760162616e-08
1.8677748058e-08
1.35060339968e-08
7.64486713791e-10
6.83803658505e-09
2.62585056515e-08
2.53242271423e-08
3.73969867503e-08
9.06439449743e-09
9.67445115162e-10
2.43924367975e-08
1.62469431189e-08
2.02141161168e-08
6.1474088219e-09
1.90062090702e-09
1.14948208311e-08
3.31959066053e-08
3.7827700437e-09
2.12961057084e-08
5.29746176331e-08
6.60656968117e-08
5.69864242237e-08
3.22090342418e-08
2.21404382456e-09
4.43038467532e-10
5.39752204772e-08
1.28170388015e-08
2.10530393354e-08
5.44135338033e-08
7.4949793499e-09
1.27680359639e-07
1.30289015974e-07
4.41539253142e-08
8.30897022093e-09
1.60093200115e-08
1.96585962783e-08
2.64931714778e-08
1.01990151401e-08
2.38406002855e-08
2.81910391166e-08
3.46894863695e-08
4.21652421225e-08
1.27609850476e-09
1.21581180373e-08
1.48695230656e-08
4.58827961837e-08
1.09751135719e-08
1.16589942411e-08
4.28160209937e-08
1.66615959297e-08
7.2537617764e-09
2.08368453962e-08
1.01970506647e-08
4.41916208321e-08
3.17232794929e-08
6.552821351e-08
1.06343800065e-07
7.83528542994e-08
6.788361746e-08
3.40130427957e-08
1.61541798977e-08
1.55688093625e-08
2.665685029e-08
4.19945355194e-08
9.22881424031e-09
2.47100308458e-08
2.70187664412e-08
9.48158260749e-09
2.9772319907e-08
4.33303483923e-08
2.18783075494e-08
2.66540408883e-08
2.11893424602e-08
3.13089426348e-08
1.12829703733e-08
3.24919989021e-08
2.54429839477e-08
8.18297599434e-09
2.4721491994e-08
1.29911609966e-08
8.23237302984e-09
1.05322539299e-08
4.90910860655e-09
9.63358524604e-09
8.94643415237e-09
5.12798015578e-09
2.70153194715e-08
2.74556103991e-08
3.36911509404e-08
1.68954689638e-08
3.17479440551e-08
3.03534981704e-08
2.42215765728e-08
3.70907640263e-08
7.15480688684e-08
7.1911937563e-08
6.2717736596e-08
6.32934925263e-08
2.13011136301e-08
2.90932828346e-08
2.54186518272e-08
2.57381947909e-09
1.39396669479e-09
6.99709797176e-08
1.06296482833e-08
3.32158320711e-08
2.97000467811e-08
4.77605205824e-08
1.34374362623e-08
1.40916348388e-09
5.0472076618e-08
8.96459571925e-08
8.4704908031e-08
6.52508868047e-08
7.92043152285e-08
8.3725661126e-09
3.5502543618e-09
1.91399928895e-08
4.52490757866e-08
4.05248582733e-08
2.67693362485e-10
1.44145557705e-08
3.81420704845e-08
2.12546664975e-08
2.10507113059e-08
3.46086965686e-08
7.2858230215e-08
2.23277614597e-08
6.61817405998e-08
8.00688264292e-08
4.49416294309e-08
4.66889765531e-08
4.51051625501e-08
1.58356091218e-08
5.6593086085e-08
2.23089902893e-08
2.81419002585e-08
1.07818307614e-08
1.51667211307e-08
5.95617117336e-08
7.87448079818e-08
7.5814565101e-08
2.2359418923e-08
1.91391217011e-07
2.79578881188e-07
2.14659168315e-07
2.30917572319e-07
1.30171139369e-07
9.95817257341e-08
2.99984365551e-09
5.9729024573e-08
8.95157718879e-08
6.08870610923e-08
9.78195021962e-09
9.52612944906e-09
1.58628339291e-07
1.48550552421e-07
4.81815968922e-08
1.396539428e-07
1.09747656692e-08
2.03710601704e-09
2.05702882684e-08
1.32281533972e-08
2.42139739008e-08
2.81719532862e-08
2.05042029113e-08
2.02418122276e-08
5.29587377341e-09
2.13872784666e-08
2.6147029258e-08
5.21047908005e-09
2.11273510081e-08
2.16877675603e-08
1.67260203649e-08
2.65466490442e-08
2.71552124595e-08
1.77500421217e-08
2.69115540622e-08
1.43504821309e-08
1.78645792551e-08
3.70171299391e-08
2.1704892867e-08
2.27668199216e-08
1.69845237667e-08
2.03526115267e-08
5.68810753108e-09
5.54004343169e-09
3.14592206887e-09
2.20108737782e-08
3.24976656271e-08
4.6453598905e-08
1.31490015936e-08
1.75145774518e-08
4.02803672187e-08
2.15953768843e-08
2.50685343852e-08
1.86826435975e-08
2.39987007108e-08
2.01470286497e-08
2.26517806789e-08
2.11127449888e-08
1.77779768217e-08
3.35953489744e-08
3.28166450922e-08
2.1372549306e-08
1.19296817995e-08
6.56631073014e-09
2.45876769242e-08
1.73335180782e-08
2.56276039939e-08
4.18702556944e-08
2.49672445172e-08
1.05398917848e-08
3.03056568428e-08
2.43273098974e-08
1.09485490453e-08
1.4650829909e-08
3.34145220061e-08
3.22775254329e-08
2.86011881493e-08
2.36939368017e-08
1.73289908141e-08
6.85739580811e-09
4.27505468549e-08
1.50977947443e-08
4.12842675616e-08
4.69217944267e-08
3.30438851452e-09
8.23699325808e-11
3.89742494104e-09
8.93709497222e-09
1.07475370277e-08
9.92777019286e-09
4.25631246966e-08
1.35803261672e-09
5.85992089393e-08
5.83635354317e-08
8.17237389327e-09
6.45549565174e-09
2.35218744214e-08
2.39673930595e-08
6.22416248132e-09
4.26570995335e-09
4.37768323378e-08
1.15278229309e-08
4.80155903368e-08
4.92566188387e-08
4.38393441916e-09
1.2664418214e-08
2.50092682548e-09
2.72290434223e-09
2.79049472854e-08
2.6649220568e-09
1.98241819087e-08
1.75819962405e-08
2.36162298383e-08
2.86333524131e-08
2.5955010581e-08
1.57023381909e-08
2.84385960248e-08
1.82042481111e-08
4.27946652331e-09
1.02171885718e-08
2.67470060691e-09
2.56160730892e-08
1.67680897851e-08
3.34292109908e-09
1.29973893426e-08
2.58605361593e-08
1.40620249638e-08
2.64395297246e-08
2.57673190414e-08
1.58011447571e-08
2.68348431623e-08
2.64327144955e-08
3.95314323319e-08
1.31132782746e-08
3.05079040242e-08
1.16364647481e-08
5.10145541293e-09
1.92263397235e-08
2.04440460088e-08
1.70524277307e-08
2.24008428571e-08
3.05301006533e-08
3.3260694707e-08
3.87710484087e-09
3.901603663e-08
3.09355842363e-08
4.45123815577e-09
1.86813044532e-08
2.78638265654e-08
3.32924127516e-08
6.70190096206e-09
2.57231660962e-08
3.58316800645e-08
2.86644728875e-08
1.93170782738e-08
3.0344364116e-08
2.11575621987e-08
3.06388634477e-08
9.16707570703e-09
3.37649035269e-08
1.64316363718e-08
4.21324582556e-08
4.04962578353e-08
2.41959937662e-08
3.31717795031e-08
1.60650554344e-08
3.12910340256e-08
2.3542674394e-09
2.38948338453e-08
2.05832061153e-08
1.4112327068e-08
3.79610563648e-08
3.84484948308e-08
2.71460527247e-08
2.71701431061e-08
2.7501332955e-08
2.79019704156e-10
9.29084722075e-09
8.51348865049e-09
3.99411728493e-08
1.75475275206e-08
3.70819187831e-08
3.97240479975e-08
9.68943239884e-09
3.76644776847e-10
2.05413533869e-08
2.38052394806e-08
1.82394920621e-08
2.27656495834e-08
2.23668128216e-08
2.02114118966e-08
2.04753694034e-09
2.96418968709e-08
2.67501218262e-08
2.50062669956e-08
2.69779782027e-08
4.92706436687e-09
1.14249656111e-08
3.25890684976e-08
1.57806410684e-08
1.252527865e-08
1.9145024324e-08
8.50994610829e-09
2.89271153962e-08
3.84739522888e-09
4.59385710619e-10
3.01331370102e-08
2.49464322004e-08
2.55060557718e-09
8.42621152028e-09
5.82025791697e-09
1.68987163621e-09
7.4966689662e-09
1.35266848196e-09
1.52405008383e-08
2.81511470081e-09
9.30286014591e-09
2.9781113568e-08
5.39635771954e-09
1.81994627308e-08
2.41719920574e-08
1.18450624739e-08
1.40820027807e-08
4.65003961275e-09
2.81676798894e-08
3.0611663031e-08
2.16463639254e-08
1.31870602885e-09
1.20563264783e-08
1.61841557028e-08
3.20675746351e-09
1.21042534955e-08
2.05975131741e-08
1.7124631051e-08
2.19594632898e-08
1.38900353897e-08
2.96998982919e-08
2.24260025183e-08
1.03350003123e-08
3.15654368487e-09
2.7724303966e-09
3.86875437606e-09
7.97258816579e-09
3.95384552971e-09
8.96591407228e-09
5.37154596364e-09
1.34082337701e-08
1.74020786845e-08
1.03935879236e-08
3.74380170185e-09
1.15872669167e-08
6.34648344368e-09
2.71594421227e-08
1.72222737666e-08
1.2509355532e-08
1.54061895211e-08
2.11395921877e-10
1.73704818687e-08
1.42896298998e-08
5.82897539389e-09
6.04399397355e-09
1.91499586199e-08
8.02970326844e-09
6.9491167472e-10
5.4448671893e-09
1.39904395977e-08
2.85439092904e-08
1.71211179269e-08
5.60540815323e-09
2.28843653171e-08
2.3101802738e-09
1.04586399628e-09
1.73969017737e-08
2.47822106491e-08
2.55505874291e-08
2.9120594132e-08
2.58292457655e-08
1.51631059893e-09
1.64280941337e-08
1.24347848959e-09
4.22975600878e-09
7.48988184765e-09
6.01788820972e-09

