# vtk DataFile Version 3.0
File Name: Molecule/sphere_cent/sphere_cent_0-s37.vtk
ASCII
DATASET UNSTRUCTURED_GRID
FIELD FieldData 1
TIME 1 1 double
0.0
POINTS 2144 double
-0.79163199663 -0.50431936979 -0.34471848607
-0.75797700882 -0.5902133584 -0.27756538987
-0.82960820198 -0.50211501122 -0.24414530396
-0.32840743661 0.91464710236 -0.23575422168
-0.25490245223 0.95379400253 -0.1587447226
-0.24292182922 0.93118989468 -0.27163273096
-0.86220568419 -0.24784646928 -0.44177508354
-0.83270251751 -0.17390170693 -0.52572858334
-0.79397392273 -0.27840587497 -0.54042357206
-0.80630576611 -0.56534838676 -0.17370912433
0.64324247837 0.49463710189 0.58442473412
0.59790283442 0.45355594158 0.66089874506
0.68720835447 0.3951216042 0.60930389166
-0.56033074856 -0.28961825371 0.77598434687
-0.46050667763 -0.35104638338 0.81526941061
-0.46704563498 -0.25936612487 0.84522873163
-0.25618520379 0.36655601859 0.89442139864
-0.27515974641 0.27320167422 0.92174470425
-0.18561601639 0.29860821366 0.93606704473
-0.77458208799 -0.57997274399 0.25232547522
-0.7339065671 -0.65572422743 0.17714318633
-0.69965177774 -0.65066808462 0.29489651322
0.15870919824 -0.10438268632 0.9817610383
0.17222836614 0.012299383059 0.98496872187
0.07153660804 -0.047119580209 0.99632376432
0.083247467875 -0.075747124851 -0.99363529682
-0.033283613622 -0.084718614817 -0.99584901333
0.030573116615 0.013566959649 -0.99944108725
-0.88189888 0.40846312046 -0.23450753093
-0.9033216238 0.3161174655 -0.28939059377
-0.93148636818 0.3115273416 -0.1878311038
0.51804894209 0.54207664728 0.66163575649
0.52273195982 0.46452054381 0.71481114626
0.62451815605 0.69804245234 -0.35017102957
0.69998431206 0.64406728745 -0.30851718783
0.67328900099 0.61960047483 -0.40334254503
0.45777124166 0.15188537538 -0.87594884634
0.3642129302 0.16396288574 -0.91649246216
0.40053626895 0.2319714278 -0.88642591238
0.30063530803 0.24092485011 -0.92276108265
0.13169588149 0.0099963946268 -0.99121797085
0.099444359541 0.11532155424 -0.98833018541
0.20089042187 0.16667103767 -0.96533209085
0.12341909111 0.2332084775 -0.96453124285
0.31106156111 0.39008370042 -0.86660504341
0.21752214432 0.40320074558 -0.88887584209
0.25156924129 0.48191207647 -0.83922684193
0.58842086792 0.80397772789 0.084036663175
0.51718509197 0.85499489307 0.037852380425
0.50898295641 0.85060870647 0.13158489764
0.24333962798 0.96261394024 0.11860082299
0.22916388512 0.97318953276 0.015524592251
0.15526519716 0.98547339439 0.065370559692
-0.64799851179 0.18769867718 -0.7377269268
-0.57737487555 0.26541861892 -0.77207416296
-0.57396286726 0.15258964896 -0.80453425646
0.43247595429 0.77517455816 0.46048277617
0.38324227929 0.8292530179 0.40631240606
0.33043897152 0.80632537603 0.4901048243
0.40182799101 0.85213446617 -0.33529990911
0.42399325967 0.87433475256 -0.23571057618
0.48886048794 0.82695353031 -0.27762886882
0.30370759964 0.0075557325035 -0.95271885395
0.38733592629 0.012023892254 -0.92179864645
0.35552671552 -0.077413380146 -0.9314430356
0.5102186203 -0.0015155589208 0.85986149311
0.50524383783 -0.10795910656 0.85596197844
0.60072058439 -0.083796128631 0.79502242804
0.58466380835 -0.2093603909 0.78349518776
0.65908402205 -0.16330195963 0.73410093784
0.68996024132 -0.05967900157 0.72109663486
0.59903281927 0.034686289728 0.79969632626
-0.086298637092 0.030671318993 -0.99578338861
-0.0046507390216 0.10643362999 -0.99430459738
-0.20776599646 0.6170321703 0.75901299715
-0.15219281614 0.53671610355 0.82991707325
-0.080397672951 0.58672201633 0.80580341816
-0.051070589572 0.49011018872 0.87015360594
0.32091093063 0.26922482252 0.90777760744
0.36096429825 0.16323746741 0.91815757751
0.41481530666 0.22646541893 0.88126516342
-0.13860011101 0.49637597799 -0.85695582628
-0.089025877416 0.41924658418 -0.90349715948
-0.19683437049 0.41898545623 -0.88634592295
-0.043329101056 0.51245135069 -0.85724288225
0.20987294614 0.87152254581 0.44254907966
0.14896081388 0.91563612223 0.37337219715
0.096749074757 0.88372588158 0.45787894726
0.050203330815 0.91747903824 0.39457303286
0.93093603849 -0.22699384391 -0.28568872809
0.89993995428 -0.25150904059 -0.35604661703
0.92223328352 -0.15793246031 -0.35281920433
-0.13930475712 0.70073145628 0.69966822863
-0.14727078378 0.76699841022 0.62414896488
-0.21688900888 0.71265369654 0.66697531939
0.10611902922 0.71484977007 0.69116926193
0.020869527012 0.69043415785 0.72309350967
0.098445251584 0.6398293376 0.76205414534
0.34546750784 0.36399424076 0.86496263742
0.38680583239 0.42466625571 0.81853544712
0.29537156224 0.4380839467 0.84896218777
-0.063613958657 0.32752791047 -0.942681849
0.020864918828 0.38990220428 -0.9205968976
0.23640979826 0.91852849722 0.31677493453
0.26364254951 0.8831551671 0.38777974248
-0.43858522177 -0.87758809328 -0.19344639778
-0.46063914895 -0.88179004192 -0.10142505169
-0.52566099167 -0.8336482048 -0.16930039227
-0.36609256268 -0.91933721304 -0.14311116934
-0.43311676383 -0.6820717454 0.58924692869
-0.40118476748 -0.61746871471 0.67654180527
-0.50102800131 -0.59946060181 0.62420326471
-0.47280612588 -0.54067927599 0.69572812319
-0.57008558512 -0.50041633844 0.65159732103
-0.079263262451 0.38612005115 0.91877061129
0.015060579404 0.41698026657 0.90878587961
0.71058619022 -0.46686437726 -0.52640116215
0.64479368925 -0.51140874624 -0.56802386045
0.67801553011 -0.42588794231 -0.59911978245
-0.58634656668 0.55378383398 0.59119457006
-0.58502674103 0.46814927459 0.66226369143
-0.51056534052 0.54551941156 0.66459953785
-0.95247393847 -0.012376542203 0.30374163389
-0.98015069962 0.012893763371 0.19783566892
-0.96854108572 -0.094936929643 0.2298246026
-0.35492011905 -0.9004637599 -0.25138288736
0.95981639624 -0.018857838586 0.27895885706
0.9179341197 -0.048625420779 0.3937189579
0.93417990208 -0.12225073576 0.3350738287
0.87379199266 -0.027779780328 0.48466262221
0.88662689924 -0.11593355983 0.44755610824
-0.24942405522 0.77175790071 0.5849224925
0.30636233091 -0.65005254745 0.69533216953
0.3712208569 -0.69157928228 0.6195936203
0.42102468014 -0.62029635906 0.66176962852
0.46093073487 -0.65782183409 0.5951026082
0.11536420137 0.42934516072 0.89573389292
0.0546121113 0.49320206046 0.86820161343
0.15163137019 0.5111514926 0.84597223997
0.90582120419 0.047756865621 0.41976124048
-0.30691665411 0.6349414587 0.70832079649
-0.31984043121 0.56591796875 0.75973445177
0.25603416562 -0.66467237473 -0.70188653469
0.34986162186 -0.62173831463 -0.7006893158
0.32272833586 -0.70182228088 -0.63485431671
0.4176234901 -0.70246356726 -0.57626134157
0.42269420624 -0.76094084978 -0.49204745889
0.33286902308 -0.76381599903 -0.55297857523
0.85889911652 -0.089398518205 -0.50426149368
0.855496943 -0.17298638821 -0.48804339767
0.81036311388 -0.16409674287 -0.56246054173
-0.72022515535 0.015349984169 0.69357347488
-0.65944927931 -0.04750199616 0.750236094
-0.64468473196 0.055809978396 0.76235949993
-0.49420258403 0.45758095384 -0.73915559053
-0.58559125662 0.42900890112 -0.68776154518
-0.53044217825 0.52074480057 -0.66891729832
-0.66668921709 0.41963687539 -0.61544448137
-0.60973274708 0.49971777201 -0.61522912979
-0.70640546083 0.12427522987 0.6967971921
-0.51336288452 -0.025527883321 0.85778266191
-0.46294796467 -0.10067868233 0.88062006235
-0.42314428091 -0.010188160464 0.90592926741
-0.45372506976 0.87879532576 0.14772549272
-0.47748863697 0.84725928307 0.23273541033
-0.38659256697 0.89479410648 0.22328905761
-0.54199075699 0.82698595524 0.14945739508
-0.41605365276 0.85464704037 0.31056925654
-0.97063672543 0.1171189025 -0.21007350087
-0.96330070496 0.21529200673 -0.15874488652
-0.94166147709 0.2175937593 -0.25672534108
-0.95163345337 0.29424831271 -0.084123305976
-0.9674268961 0.24720716476 0.0468390733
-0.98083376884 0.1914691925 -0.028820987791
-0.98689389229 0.14947174489 0.060743995011
-0.91632515192 0.38457304239 -0.10950628668
0.98576307297 -0.027557807043 0.16585627198
0.9731733799 -0.096781142056 0.20876863599
0.98185360432 -0.14324991405 0.12423207611
-0.2474475354 -0.96197330952 -0.11547441781
-0.18373142183 -0.98156434298 -0.051635824144
-0.26853433251 -0.9626403451 -0.032554790378
-0.52894932032 -0.18507070839 0.82822412252
-0.4320987761 -0.89856982231 0.073985278606
-0.38185015321 -0.91134870052 0.15366660058
-0.45849081874 -0.87443220615 0.15801689029
0.97549748421 0.079158060253 0.20502303541
-0.56125634909 0.57528537512 -0.59497433901
-0.64148902893 0.56183063984 -0.52208065987
-0.65812927485 0.61809271574 -0.42909759283
-0.58917450905 0.64615225792 -0.48493349552
-0.20720529556 -0.42163264751 0.88274425268
-0.11531174183 -0.4410572648 0.89002406597
-0.13607172668 -0.35305717587 0.92564332485
-0.91787493229 -0.29604613781 0.26427897811
-0.88467854261 -0.38149821758 0.26738452911
-0.87978947163 -0.3298111558 0.34195592999
-0.82669848204 -0.53948545456 0.1596583575
-0.83036530018 -0.49641561508 0.25203883648
-0.87721544504 -0.44645905495 0.17655225098
-0.78394562006 -0.51901310682 0.34069231153
-0.7587466836 -0.48546400666 0.43429297209
-0.81688660383 -0.43960231543 0.37264406681
-0.88196289539 -0.15120218694 -0.44609418511
-0.88903522491 -0.3960711062 -0.22945313156
-0.84751862288 -0.42729580402 -0.31482681632
-0.94744634628 -0.27830180526 -0.1573536694
-0.95757269859 -0.20136675239 -0.20601992309
-0.92373621464 -0.28971883655 -0.25046521425
-0.71293479204 0.6767604351 0.18271943927
-0.68713349104 0.72159850597 0.08428298682
-0.75223183632 0.65346121788 0.083616420627
-0.7255500555 0.68812501431 0.0059382342733
-0.66420197487 0.74748021364 -0.010165834799
-0.58417785168 0.79171085358 -0.17865909636
-0.67423462868 0.71236425638 -0.19264391065
-0.6360732913 0.76443785429 -0.10516045988
-0.70267057419 0.70603692532 -0.088246837258
-0.75713849068 0.63918536901 -0.13455368578
-0.72345715761 0.51555252075 0.45901033282
-0.69969683886 0.59913486242 0.3891812861
-0.76358669996 0.52770394087 0.37210381031
-0.75042682886 0.58801466227 0.30060625076
-0.67725223303 0.66642087698 0.31179043651
-0.62218892574 0.67310613394 0.39975631237
-0.5800241828 0.74204075336 0.33604374528
[...]
CELL_DATA 4284
SCALARS cell_data_0 double
LOOKUP_TABLE default
6.10227709577e-09
1.61313689758e-09
4.62623809882e-09
3.18380508646e-09
3.59099798828e-09
7.36543690693e-09
1.32834982413e-09
6.09700994054e-09
3.22762735017e-09
2.91390985475e-09
8.36217866211e-09
2.67943899784e-10
3.50863773018e-09
2.73030934595e-09
3.88112482244e-10
3.92717746357e-09
8.20784120481e-09
6.07439516977e-10
1.70081075733e-09
2.15975361633e-09
6.06080921093e-09
2.4480536167e-09
3.12492518896e-09
5.52627045292e-09
6.68870885143e-10
1.13080429419e-08
1.29039002404e-08
1.27122474298e-08
1.59537321186e-08
5.69181902192e-10
8.62167194769e-09
4.42410320358e-09
1.93615743315e-09
7.58257623527e-10
2.19992314961e-09
1.79875987946e-09
4.33819996883e-09
1.72757491916e-09
3.79312146033e-09
8.05278278168e-09
2.82244162068e-09
6.98898552464e-10
2.17438398766e-09
4.76275709211e-09
1.11451043559e-10
3.77332119899e-09
1.51314738727e-09
7.23583414902e-09
4.61230961494e-09
4.44582686373e-09
4.34779161998e-09
1.1188548124e-09
1.10782892018e-09
8.36269394649e-09
5.70842528647e-09
6.63375486898e-09
1.64245690755e-10
4.52010471607e-09
7.44338816307e-09
4.49417271475e-09
1.79791385679e-11
1.61099410961e-10
2.46011758168e-10
1.28269907858e-09
5.98419101365e-09
2.87812286056e-09
3.8381717224e-09
3.24964313942e-09
2.94099845068e-09
1.42168768923e-09
1.78262353266e-09
4.91862766116e-09
2.8849983387e-09
5.70845560721e-09
2.84095647059e-11
5.70810258015e-10
6.88256017683e-10
7.40820771733e-09
2.48431147951e-09
4.08528779281e-09
2.72292899471e-09
6.74875592297e-09
1.76992576339e-09
1.33425328307e-09
1.31801269178e-09
7.63895834618e-09
2.58223611577e-09
8.69077114402e-09
6.0777672553e-09
3.41196416377e-09
6.2469956761e-09
9.2614534565e-10
1.41839413858e-09
4.80048547192e-09
5.33221210526e-10
2.08649477459e-09
5.65571859011e-10
2.7443699321e-09
1.17299172839e-08
1.76894535038e-09
3.68796828705e-09
2.69021861554e-09
3.77083083148e-09
4.37202042938e-09
1.18085205434e-08
4.35125356524e-09
9.01725046169e-09
3.72337518441e-09
9.68442564465e-10
4.21261236155e-09
1.31768122657e-09
1.85799895131e-10
2.98270012776e-09
3.36091575297e-09
2.66849187046e-09
3.17463826242e-10
4.89845259522e-09
4.59945908414e-09
4.31401743865e-09
4.42969060232e-09
9.49864255853e-10
1.28701886754e-09
1.23401556184e-08
7.65721509216e-09
1.81640224482e-09
1.26772039439e-09
9.1622947235e-09
1.0276574426e-08
5.60991029848e-09
2.07726906637e-09
2.20125193841e-09
2.88131479789e-10
2.13933084954e-09
2.07269558729e-09
1.59523778656e-09
1.68668285431e-09
4.59831654705e-09
6.99587710122e-09
2.69877255755e-10
6.32976491397e-09
4.72126300218e-09
7.64946545223e-09
1.55536073649e-09
1.42456363504e-09
1.24442045864e-10
3.51833067366e-09
3.42523838685e-09
4.51108283554e-09
7.9702343513e-11
1.67920679395e-09
2.58750531413e-09
1.09483066817e-09
5.9212234145e-09
6.30590612867e-10
4.70262434096e-09
1.48667877501e-09
1.96927961297e-09
2.95122607227e-09
4.1997023057e-09
2.05168984343e-09
4.72837793249e-09
8.05007948851e-09
1.10412761233e-10
2.97627025136e-10
2.98207317452e-09
3.46584795084e-09
3.13087596862e-09
1.90407858341e-09
1.01722698098e-09
4.85858443393e-10
2.01245746351e-09
5.0442894904e-09
1.18931300712e-10
9.32783473006e-09
8.27265710683e-09
6.03785609857e-09
1.10679107197e-09
2.56883626375e-09
4.20775834776e-09
2.73645320291e-10
4.31326138022e-10
3.78010907212e-09
2.55808102891e-09
1.2921562914e-10
1.49451174362e-09
2.50167271548e-09
3.72697019813e-09
1.52440216159e-09
1.30293810528e-09
3.66657236116e-09
6.308422172e-09
3.65809905289e-11
7.88119896305e-10
7.16304737931e-09
4.67928269896e-10
1.85292237115e-09
2.61581996986e-09
2.5485777945e-09
4.92338086201e-09
4.9420695072e-10
6.89856696007e-09
2.10954425793e-10
2.36132214998e-09
1.53472558476e-09
2.18865447399e-09
1.22780789816e-10
4.58904339109e-09
2.82992618866e-10
1.98899624993e-10
4.28714959595e-10
1.96060428515e-09
4.75082349907e-09
7.63875629953e-10
7.0332896419e-09
8.37094016413e-10
2.15164873052e-09
1.30524594933e-09
1.4909238916e-09
2.80852654186e-09
1.67090494574e-09
3.02183428709e-09
2.35786531867e-09
4.68007680942e-09
6.9468555628e-09
8.94614495551e-09
4.4959577617e-09
6.30262586663e-10
1.10381596098e-09
5.32134615403e-10
1.10740368241e-11
3.11761026676e-09
2.73425730026e-09
6.51294192428e-10
7.51282847942e-09
2.38105994096e-09
4.15038518454e-09
3.05187042595e-09
2.45251954655e-09
5.38750271064e-10
1.30998788876e-09
7.40953408096e-10
6.55741410078e-09
1.47031431591e-09
4.35701657693e-10
7.30352244571e-09
1.39052117952e-09
1.41377932747e-09
1.1823904113e-09
3.52268834787e-10
2.18112180807e-09
4.79106977388e-10
6.25856194196e-09
4.83058396709e-09
5.4405264302e-09
9.20894468269e-09
1.98547038687e-09
7.09288433372e-09
1.3163631383e-09
5.13271415717e-09
1.10150666352e-09
8.64416501601e-09
4.68276834923e-09
6.0319060096e-10
3.73660309189e-09
2.88761118688e-09
2.6535766024e-09
8.31069113811e-09
2.12423840027e-09
2.77089685147e-09
7.38774905974e-09
5.34296706133e-09
4.56186723857e-09
6.73256184423e-09
2.64869290509e-09
4.18170167925e-10
1.34382963929e-09
4.23164115781e-09
5.11091866829e-09
1.3707521048e-09
6.93387019625e-10
1.88344719462e-09
6.89037241934e-11
1.94022135428e-09
2.84908402764e-09
1.24563099985e-09
3.45402190507e-11
1.23417104012e-09
5.45877977501e-10
2.0383279916e-09
3.49722098089e-09
4.58016814267e-09
2.37465461122e-09
2.5547178715e-09
1.68225533624e-09
6.48252920404e-09
4.28645227318e-09
3.49262435114e-09
3.75646852013e-10
3.56667494621e-09
9.65773000363e-10
3.90380611286e-09
1.3137281079e-09
4.57985673148e-09
1.84942086639e-09
3.96798721998e-09
5.90205005608e-10
8.17225086263e-09
5.15711358576e-09
4.888802628e-09
2.53887204573e-09
2.63784667827e-09
2.06762261535e-10
5.37883605372e-10
3.6865662559e-10
7.08476837936e-11
4.13607821161e-09
1.29439153434e-09
2.75560785683e-09
4.70488730511e-10
1.58193214799e-09
1.25351497166e-09
4.02631200928e-09
1.70655720819e-09
1.50270871847e-10
1.63353827691e-09
1.2627613546e-09
6.32229625139e-10
1.66822640715e-09
8.76733770961e-10
3.05164639531e-09
3.39046347367e-09
5.89842167251e-09
3.07672950493e-09
2.27656919527e-09
3.2391348456e-09
5.45080650651e-10
6.49321779021e-09
1.60236266979e-09
6.75114805955e-10
6.87597090183e-10
1.15664022662e-09
1.52605253372e-09
2.66803273063e-09
4.45989432389e-09
5.67071388416e-09
1.18547042565e-09
1.67468755448e-09
1.13957924953e-09
1.96087119575e-09
1.7074497525e-09
1.43502331589e-09
2.75047387931e-09
5.12044454688e-11
8.8158411601e-10
3.01691939527e-09
3.43539021725e-09
1.61889024684e-09
6.55360556533e-09
4.48347585877e-09
2.19641958892e-09
3.72374615843e-09
4.16388022457e-09
1.90515818808e-09
1.16555092447e-09
3.18478026091e-09
5.85304185352e-09
9.26510128371e-10
6.05227928915e-09
4.16446878023e-09
1.6674488357e-09
5.54575002415e-09
5.15205827603e-09
2.60054727526e-09
2.59038596553e-09
2.49563534459e-09
9.28787388176e-10
4.08755518369e-09
1.16102313895e-09
2.25449606647e-09
1.71804314984e-09
1.0049039953e-09
9.36356501013e-11
2.28898348985e-09
1.77081998089e-09
2.35316744864e-09
4.45318421965e-09
4.97119068438e-09
4.23548610695e-10
5.2698714835e-09
3.47055660785e-09
9.57253018482e-09
3.01466716113e-09
6.85454275084e-10
5.46060634636e-09
4.01678697493e-09
1.59428451428e-09
2.47977660131e-09
8.2984641221e-10
3.41931927185e-09
2.89329647682e-09
7.38700862291e-10
4.97905893454e-10
6.19279627631e-09
4.18829674127e-10
7.0907715746e-09
5.00711829289e-09
1.83134936562e-09
5.5154826931e-09
1.0350807178e-09
4.93055122996e-09
4.61766137161e-09
5.86291639177e-09
1.48580874591e-09
5.98350143214e-09
9.035976598e-09
6.17643031984e-09
4.65536277903e-10
6.51034793876e-10
1.24988634805e-09
1.64640025696e-10
6.13986321279e-09
3.42145312724e-09
5.76387597604e-09
4.04095427408e-09
8.1762538113e-10
9.4339844684e-10
4.5618900159e-09
3.40349124892e-09
1.32562722128e-09
2.75682140477e-09
1.11325426817e-09
6.08542595896e-09
9.19697278267e-10
2.661500278e-09
2.55090339641e-09
4.68685860568e-09
2.8821684989e-09
3.7334194303e-09
5.95922306262e-09
2.79177271036e-09
1.59865049471e-09
1.73090491169e-09
4.3228300226e-09
3.39294759675e-09
1.08716761352e-09
5.19288426737e-09
4.87972417725e-09
7.20682389384e-09
3.59608073366e-09
4.87153951685e-09
4.41284856262e-09
3.22325872335e-09
2.8927589835e-10
2.60633804899e-09
2.48632438578e-09
2.54771493446e-11
1.1421187642e-09
1.27544237163e-10
1.92643497446e-09
3.30744017727e-09
2.0134552444e-09
9.94537852386e-09
1.63975180291e-09
7.93296450828e-10
4.53396837088e-09
4.97121660545e-09
2.16060885684e-09
3.35446254434e-09
7.20110014076e-09
6.36087245899e-09
1.01920465124e-08
3.4489991076e-09
2.79387893014e-09
2.28054407897e-09
1.76916321168e-09
3.99966011645e-09
9.35167866254e-09
5.54697819897e-09
3.86928453198e-09
2.15315948368e-09
1.95263326686e-10
8.02139955396e-09
7.07449291527e-09
1.37464428249e-09
2.86002648111e-09
1.64362719178e-09
5.34976222348e-09
1.41810283284e-09
3.18568842118e-09
9.38864726217e-09
3.95498112616e-09
3.03970962741e-09
1.55289089776e-09
3.41245757881e-09
1.00185814025e-10
1.86696502106e-09
2.32975584998e-10
6.06670560358e-09
1.5534414416e-09
1.12543813968e-09
6.43071770041e-09
1.27743921936e-09
1.05076766255e-09
1.94964121728e-10
7.78363465567e-09
2.82233326284e-09
2.97508067526e-09
3.89118575279e-11
1.72845988651e-09
1.57138885216e-09
4.65945711598e-10
4.49285294374e-10
5.34389625521e-09
7.43058415729e-09
1.02325890959e-08
7.12972605218e-09
1.63251617444e-09
5.61322080109e-11
1.17153227152e-09
4.43707324793e-09
3.52769778332e-09
6.16566732623e-09
5.17187038497e-10
3.84031607642e-09
4.56091547683e-10
2.76623794679e-09
5.98682074416e-09
3.19372097542e-09
6.63961337891e-10
1.46535079097e-09
5.22279944757e-09
3.09111599095e-09
3.49017723122e-10
5.04742511103e-09
3.36686549367e-09
3.15561723338e-09
1.78751551005e-09
3.20878074236e-09
1.20691635297e-09
5.52680282177e-09
4.79501069142e-09
6.6101087775e-09
4.61199491485e-10
1.93433620246e-09
4.53196209869e-09
1.45971179488e-09
2.14961157434e-09
2.55595068452e-09
9.47938963598e-10
4.51302672459e-09
4.80753110404e-09
7.52978327368e-09
7.63777395785e-09
3.51219206272e-10
2.94574579364e-09
4.66020321348e-09
8.96426298966e-11
5.81345403199e-10
1.14345741786e-10
1.36115890009e-09
1.56087532972e-09
3.25808746451e-10
8.11545042799e-10
1.08931869647e-08
3.73225907748e-09
7.17954688181e-09
3.80389451351e-09
7.84785178873e-09
2.80115543741e-09
1.48772932403e-10
7.76522262328e-09
9.95429926666e-10
2.97771740108e-09
7.94381684493e-10
1.42050923404e-09
1.73285982915e-09
7.06613935831e-10
6.92031835566e-09
2.49769949857e-09
2.10817159624e-09
1.46402162213e-09
5.80482340042e-09
1.57773624008e-09
3.12755683577e-10
3.30051335914e-09
1.42270482655e-09
5.54094005721e-09
1.37843796781e-09
7.36020543542e-10
2.22017499147e-09
2.77091025153e-09
5.3825774334e-10
1.73808345353e-09
2.65198667722e-09
2.51784104629e-09
4.12096689136e-10
2.11830735916e-09
1.41791026673e-09
2.70881145708e-09
7.39931836555e-10
3.67984432168e-09
6.64644531308e-09
4.60528586434e-10
4.75756820997e-10
1.67690186359e-09
5.86256197407e-09
1.77291049721e-09
1.37269371469e-09
2.61553675172e-09
2.2545560203e-10
3.3560343817e-10
1.13310543269e-09
1.94169430629e-09
5.89124015681e-10
1.34889236959e-09
6.51254506155e-09
2.10429382648e-10
8.47740628206e-09
1.19918163583e-08
1.75960071911e-09
1.08269542723e-09
2.79593959836e-09
2.5254134515e-09
1.92997048787e-09
7.43612633303e-10
9.11974009338e-10
8.32314697119e-10
1.36577345096e-09
1.49116508457e-09
1.81388439385e-09
7.78554088336e-10
2.94730369825e-09
3.11005524578e-09
3.17466386156e-09
9.33439974847e-10
3.02578083023e-09
1.25106054816e-09
1.4416362785e-09
1.25668990028e-09
3.25791478523e-10
3.26998545385e-10
4.94357785466e-10
1.62535291972e-09
3.92374375315e-09
1.16720921346e-09
2.65735271541e-09
6.17893119762e-10
2.5463329598e-09
8.26674443483e-09
1.69305286275e-09
5.57083225453e-09
6.37132624808e-10
6.91979732499e-10
5.66312844829e-09
3.81797972615e-09
4.24808749511e-10
6.73275395618e-10
1.50475085718e-09
3.96329713009e-09
1.56906857475e-09
6.64232811147e-09
6.07908852238e-09
1.95189690687e-09
2.90473372097e-09
8.34023995889e-10
1.40170732408e-09
1.5460592623e-09
6.65865061853e-10
1.80949182644e-09
5.65500289249e-09
2.15990723e-09
3.67587579401e-09
3.74290831792e-09
2.10819396367e-10
8.49075351211e-10
2.00456091866e-09
1.14072217404e-09
1.24222036569e-10
1.51227524998e-09
1.01358135019e-09
7.65888176192e-10
2.57589852825e-09
1.27510639345e-10
3.00468341432e-09
3.04277604636e-09
1.55140208402e-08
1.16504524071e-09
2.8440056174e-09
2.00832829359e-09
3.56149638571e-09
2.03266704029e-09
1.08778985896e-09
6.553581447e-09
2.96372651065e-09
3.02465158444e-09
1.36339349503e-09
2.69741275236e-09
1.51522133639e-09
2.49733025946e-09
5.90041816268e-09
1.66951935391e-10
5.98045165189e-10
1.73948300737e-09
4.40638574829e-09
1.29160388935e-08
3.24600408585e-09
1.64165575485e-09
1.19451342293e-09
1.25972383302e-09
1.11691571768e-09
6.16982949345e-10
3.87719054399e-10
2.04064415602e-09
7.18472560726e-10
6.97315777417e-09
4.31451821194e-09
4.86301479593e-09
5.11687140167e-09
7.28712506796e-10
2.76412386202e-09
1.09216811442e-08
2.76184495155e-09
4.48763515514e-09
4.91325591033e-09
7.34349967924e-10
8.00203233232e-10
9.27052540413e-10
4.00815543528e-09
2.2199621456e-09
1.81678351406e-09
1.79974066153e-09
2.36337265596e-09
6.54246439798e-11
5.22333784576e-09
1.77040408401e-09
3.22766239319e-09
5.12542933869e-09
4.33228976666e-09
2.63907414356e-09
3.05077922251e-10
6.37609754987e-09
6.01876626851e-09
6.33718319431e-09
1.11663320097e-09
1.68031282137e-09
3.30192896416e-09
1.03054415897e-08
3.39988525683e-09
1.09455862471e-09
2.20320745492e-09
5.6827540293e-09
4.41229943769e-09
3.59589657209e-09
1.11663655154e-09
3.44986864747e-09
1.13909239494e-09
2.46632807126e-09
1.52837493739e-09
1.92583997224e-09
1.30083039527e-09
5.17025302035e-09
5.12239758621e-09
3.38548379043e-09
1.32126702132e-09
3.84392553804e-09
5.1589616363e-09
3.8774155233e-09
2.04725516454e-09
2.25957030028e-09
5.60073450727e-09
1.17856095335e-09
6.22473806472e-09
5.54365054999e-11
4.09600201614e-11
1.48306808108e-09
1.69529223788e-10
1.47671797426e-09
3.83085579977e-09
1.21523966404e-09
3.84559225127e-09
4.60500851086e-09
1.3350544627e-09
2.36917749585e-09
1.43546216975e-09
5.99373333973e-10
2.42747240136e-09
2.80361731701e-09
8.87566449195e-11
4.05042029694e-09
3.78881663293e-10
8.05524546841e-10
1.07458901852e-09
7.91748604845e-09
5.52175216726e-09
3.93621247878e-09
2.63345931082e-09
2.55826633924e-09
1.60001298318e-09
1.82333137676e-09
2.1246644036e-09
2.13501218099e-09
1.64903741746e-09
2.2137312766e-09
7.46899931351e-09
7.7250075455e-11
1.58214040575e-09
2.22042380173e-09
3.95837893092e-09
1.04131970662e-09
7.44242754317e-09
2.45416448785e-09
5.72878969471e-09
1.52356320893e-09
1.68521493567e-09
3.88227944739e-09
9.96729860987e-13
1.48977471311e-09
4.10030546154e-09
3.35174518489e-09
3.25921688589e-10
1.39252831908e-09
1.42039371794e-09
3.03122042357e-09
1.69792767646e-09
4.8944697549e-10
5.63007450303e-09
4.67801302168e-09
7.10001726831e-09
1.32242328221e-08
4.20285726065e-09
2.00524046738e-10
6.54895371744e-09
1.72576781799e-09
3.62581933116e-09
1.96602366087e-09
2.95886035501e-09
1.82866132702e-10
1.04643405141e-09
4.53564901453e-09
7.8492930616e-10
6.46815931805e-09
2.90327728135e-09
2.53782184729e-09
2.8258932681e-09
3.03742076596e-09
2.90964193498e-09
2.07276157947e-09
1.45289458326e-09
2.97429943282e-09
2.35561471705e-09
1.58092711711e-09
2.91249149502e-10
1.45135838691e-09
6.53870895727e-10
2.25156234505e-09
3.60859474796e-10
2.37032806284e-09
7.10899015616e-10
7.54724744234e-09
6.71829076516e-09
1.87971369937e-09
8.40007863048e-09
8.11114281989e-10
2.97214924118e-09
2.59348821084e-09
9.6342750072e-10
6.59479012451e-09
3.05791982033e-09
5.14557081856e-10
1.50374480396e-09
2.53406397353e-09
7.36993110214e-10
2.58916225102e-09
1.44369886332e-09
2.75867478143e-09
7.32918312803e-09
6.24897687088e-10
1.74184377859e-09
1.23956337389e-09
2.63237658595e-09
1.12545383284e-09
2.97186134031e-09
4.29931334983e-09
1.99882056718e-09
2.27477722047e-09
2.67989805237e-09
8.20699035976e-10
3.92690793967e-10
1.63442415491e-09
6.31234291323e-10
5.31901998943e-09
3.29008811335e-09
2.65620076347e-09
3.33732573032e-09
7.07406288094e-10
9.23755564853e-09
5.22917381053e-09
2.97612181288e-09
2.34874691808e-09
2.03364844792e-11
1.28548990741e-09
1.14364116208e-09
1.66859889639e-09
1.61402208199e-09
2.31930620451e-09
2.55553811664e-09
2.25819707381e-09
3.66091069373e-10
2.24548633375e-09
5.55658995778e-10
1.5057576479e-09
1.13262436183e-09
4.5287186824e-09
6.4380763093e-11
2.42113238876e-09
6.59116482686e-09
1.72334420911e-09
4.85206187942e-09
6.74485321313e-10
2.89086017984e-09
8.42900688796e-10
2.54307957958e-09
1.73823697467e-09
7.66651108993e-10
6.87971388394e-09
1.95702631618e-10
3.52333675497e-10
1.91500612022e-09
2.59434164378e-09
1.57784282931e-09
1.8990592417e-12
2.35735577289e-09
4.54075615961e-09
7.05654816931e-10
7.5026735002e-10
2.77238588997e-09
2.10325508939e-09
6.69702858732e-09
2.57759718456e-09
6.12117473968e-09
1.78130289854e-09
1.32775382415e-10
9.85437212789e-09
1.60521567367e-09
5.33844842362e-09
6.70284014276e-09
9.44588673713e-10
2.45932282546e-09
5.38177044608e-10
7.07270279901e-10
2.11706133515e-09
5.50775394696e-09
7.37001495105e-09
1.95464592064e-10
6.37361617635e-09
6.21857420894e-09
4.16144780531e-11
3.10984347678e-09
5.00017264834e-09
9.03844329432e-10
3.78345482731e-10
4.58347568597e-09
4.87464644886e-09
1.1809076366e-09
6.58245352695e-10
5.47457736871e-09
5.80526184408e-09
1.72302520461e-09
3.75325906032e-09
5.74145337744e-09
1.35330463935e-09
2.49150661348e-09
1.12119350677e-09
3.19359569137e-09
1.52919020515e-09
2.023016339e-10
1.02739785694e-09
4.06257998382e-09
6.23229778121e-10
1.09081462283e-09
4.38989740745e-10
4.26187520148e-10
2.46295104623e-09
3.52253120883e-09
1.89306939788e-09
1.1842227637e-08
3.28414725823e-09
2.57534925845e-09
7.71446194097e-10
1.36524460903e-09
9.54403467818e-11
1.29777951177e-09
3.36950796819e-09
5.79291994793e-09
6.75047697445e-09
1.91676515371e-09
2.86102071577e-09
1.00212174214e-09
1.5490318754e-09
2.09947443439e-09
3.21613765774e-09
5.12617422232e-10
3.15060871086e-09
1.02857941414e-09
1.99612047389e-09
2.70522072108e-10
2.6385528962e-09
2.41661321604e-09
2.88619645484e-09
3.34160693927e-09
1.36970271792e-09
8.48412557164e-10
4.25833420782e-09
3.35295182012e-11
3.29921166045e-09
1.25125238084e-09
3.74510802954e-09
1.34022656168e-09
5.95464085705e-10
2.17317911893e-09
1.24438431519e-10
3.13000442797e-10
2.56821779125e-09
3.98441916338e-09
1.90345504806e-09
3.49483878354e-11
3.09126238506e-09
1.85554616122e-09
3.06724182948e-09
6.82721001716e-10
3.26343329601e-09
3.08547411502e-09
3.96563133993e-10
2.15610123171e-09
1.1048410275e-09
2.39592402113e-09
1.40616074873e-09
2.04215689807e-09
3.02800017744e-09
2.96909684226e-09
2.65915565811e-09
1.10560280574e-10
1.29649279107e-09
2.05764178523e-09
1.36805984533e-09
4.44733923776e-09
2.8408569139e-09
7.61098755247e-10
1.73163962821e-09
1.26517259012e-09
1.8512136792e-09
1.51997016152e-09
3.82476946571e-10
2.49051920272e-09
3.79696133437e-09
3.28502770185e-09
3.67039549126e-09
2.19464428034e-10
1.01576891561e-09
2.2422947142e-09
9.66092817804e-10
2.12486295001e-09
2.4890615092e-09
7.12941113068e-10
1.64453911903e-10
5.04183765497e-10
2.10062504662e-09
5.54573145205e-10
5.40776133632e-09
3.45853051029e-09
1.35456993007e-09
4.15853787289e-09
4.98972235376e-10
1.33825283362e-09
9.37597292933e-10
1.49121778245e-09
1.32378784905e-09
6.75432382483e-10
6.91575437795e-09
3.82917856023e-10
1.58629412374e-10
1.13900367825e-09
1.03754373632e-09
6.41212263006e-10
3.79402161405e-09
2.06232062119e-09
2.76267940963e-09
1.37129239006e-09
1.0088070004e-09
1.83920348976e-09
3.42825909964e-10
5.02481693259e-09
1.25795315133e-09
8.34383058189e-10
3.25996897875e-10
1.89685972853e-09
3.07831562127e-10
2.76117527913e-09
1.57269100327e-09
7.77470921052e-10
4.70049889557e-11
1.14428668971e-09
9.00386960584e-10
1.0258353723e-09
2.87233278091e-09
1.68164149244e-09
1.22648942535e-09
1.04779844004e-09
3.16681539137e-09
2.41267241352e-09
2.68281310319e-09
1.38042217394e-09
1.64245990431e-09