# vtk DataFile Version 3.0
File Name: Molecule/sphere_dip/sphere_dip_0-s5.vtk
ASCII
DATASET UNSTRUCTURED_GRID
FIELD FieldData 1
TIME 1 1 double
0.0
POINTS 1443 double
0.26286555606 0.951056516295 -0.162459848116
0.26286555606 0.951056516295 0.162459848116
0.525731112119 0.850650808352 0.0
0.0 0.961938357784 0.273266528913
0.259891913008 0.862668480416 0.433888564553
0.0 0.850650808352 0.525731112119
0.688190960236 -0.587785252292 -0.425325404176
0.5 -0.809016994375 -0.309016994375
0.425325404176 -0.688190960236 -0.587785252292
0.850650808352 0.525731112119 0.0
0.707106781187 0.707106781187 0.0
0.702046444776 0.69378047756 0.16062203564
0.519258489728 0.840177885327 0.15643446504
0.5 0.809016994375 0.309016994375
-0.26286555606 0.951056516295 0.162459848116
-0.386187385588 0.891006524188 0.238676930319
-0.259891913008 0.862668480416 0.433888564553
-0.5 0.809016994375 0.309016994375
-0.26286555606 0.951056516295 -0.162459848116
-0.519258489728 0.840177885327 -0.15643446504
-0.525731112119 0.850650808352 0.0
-0.399607051702 0.912982492932 0.0823235800317
-0.519258489728 0.840177885327 0.15643446504
-0.606825149272 0.758652300163 0.237086325351
-0.620239582613 0.78020437071 0.08114185162
-0.702046444776 0.69378047756 0.16062203564
-0.620239582613 0.78020437071 -0.08114185162
-0.711281734962 0.702907030488 0.0
-0.702046444776 0.69378047756 -0.16062203564
-0.606825149272 0.758652300163 -0.237086325351
-0.5 0.809016994375 -0.309016994375
-0.78384304242 0.615642020874 -0.0810862934433
-0.78384304242 0.615642020874 0.0810862934433
-0.468429850867 0.757935420048 0.453990499739
-0.601500955008 0.707106781186 0.37174803446
-0.564254211766 0.646577791798 0.51337544123
-0.425325404176 0.688190960236 0.587785252292
-0.51337544123 0.564254211766 0.646577791798
0.961938357784 -0.273266528913 0.0
0.966392597402 -0.220117027473 0.132792476828
0.924304600611 -0.358228793487 0.131655371352
0.990438881957 -0.137952242128 0.0
1.0 0.0 0.0
0.987688340595 -0.0822424652791 0.133071104141
-0.782888506207 0.519553709322 -0.342271135182
-0.778605872826 -0.0768840702267 0.622785464303
-0.850650808352 0.0 0.525731112119
-0.809016994375 -0.309016994375 0.5
-0.69378047756 -0.16062203564 -0.702046444776
-0.809016994375 -0.309016994375 -0.5
-0.850650808352 0.0 -0.525731112119
-0.69378047756 0.16062203564 -0.702046444776
-0.809016994375 0.309016994375 -0.5
-0.131200378813 0.864929335863 0.484441642061
-0.0810862934433 0.78384304242 0.615642020874
-0.213022865649 0.792649229259 0.571251659136
-0.16062203564 0.702046444776 0.69378047756
-0.346153014789 0.783451698363 0.516121620051
-0.296004592578 0.702309846744 0.647411893882
0.0810862934433 0.78384304242 0.615642020874
0.0 0.711281734962 0.702907030488
0.16062203564 0.702046444776 0.69378047756
-0.08114185162 0.620239582613 0.78020437071
0.08114185162 0.620239582613 0.78020437071
0.0 0.525731112119 0.850650808352
-0.237086325351 0.606825149272 0.758652300163
-0.15643446504 0.519258489728 0.840177885327
0.237086325351 0.606825149272 0.758652300163
0.15643446504 0.519258489728 0.840177885327
0.525731112119 0.0 0.850650808352
0.484441642061 -0.131200378813 0.864929335863
0.615642020874 -0.0810862934433 0.78384304242
0.453990499739 -0.468429850867 0.757935420048
0.51337544123 -0.564254211766 0.646577791798
0.587785252292 -0.425325404176 0.688190960236
0.5 -0.809016994375 0.309016994375
0.468429850867 -0.757935420048 0.453990499739
0.259891913008 -0.862668480416 0.433888564553
0.891006524188 0.238676930319 0.386187385588
0.809016994375 0.309016994375 0.5
0.840177885327 0.15643446504 0.519258489728
0.809016994375 -0.309016994375 0.5
0.840177885327 -0.15643446504 0.519258489728
0.758652300163 -0.237086325351 0.606825149272
0.850650808352 0.0 0.525731112119
0.78020437071 -0.08114185162 0.620239582613
0.78020437071 0.08114185162 0.620239582613
0.69378047756 0.16062203564 0.702046444776
0.702907030488 0.0 0.711281734962
0.758652300163 0.237086325351 0.606825149272
0.615642020874 0.0810862934433 0.78384304242
0.37174803446 0.601500955008 0.707106781186
0.309016994375 0.5 0.809016994375
0.453990499739 0.468429850867 0.757935420048
0.296004592578 0.702309846744 0.647411893882
0.425325404176 0.688190960236 0.587785252292
0.707106781186 0.37174803446 0.601500955008
0.647411893882 0.296004592578 0.702309846744
0.571251659136 0.213022865649 0.792649229259
0.987688340595 -0.0822424652791 -0.133071104141
0.987688340595 0.0822424652791 -0.133071104141
0.615642020874 -0.0810862934433 -0.78384304242
0.615642020874 0.0810862934433 -0.78384304242
0.702907030488 0.0 -0.711281734962
0.990438881957 0.137952242128 0.0
0.453990499739 0.468429850867 -0.757935420048
0.309016994375 0.5 -0.809016994375
0.37174803446 0.601500955008 -0.707106781186
0.571251659136 0.213022865649 -0.792649229259
0.516121620051 0.346153014789 -0.783451698363
0.647411893882 0.296004592578 -0.702309846744
0.69378047756 0.16062203564 -0.702046444776
0.525731112119 0.0 -0.850650808352
0.484441642061 0.131200378813 -0.864929335863
0.587785252292 0.425325404176 -0.688190960236
0.375038567478 0.383613732685 -0.843911474622
0.433888564553 0.259891913008 -0.862668480416
-0.891006524188 0.238676930319 -0.386187385588
-0.237086325351 0.606825149272 -0.758652300163
-0.37174803446 0.601500955008 -0.707106781186
-0.296004592578 0.702309846744 -0.647411893882
-0.309016994375 0.5 -0.809016994375
-0.453990499739 0.468429850867 -0.757935420048
-0.51337544123 0.564254211766 -0.646577791798
-0.587785252292 0.425325404176 -0.688190960236
-0.383613732685 -0.843911474622 -0.375038567478
-0.264082750659 -0.916244175191 -0.301258879093
-0.386187385588 -0.891006524188 -0.238676930319
-0.259891913008 -0.862668480416 -0.433888564553
-0.26286555606 -0.951056516295 -0.162459848116
-0.131655371352 -0.924304600611 -0.358228793487
-0.132792476828 -0.966392597402 -0.220117027473
0.0 -0.961938357784 -0.273266528913
0.0 -0.850650808352 -0.525731112119
-0.133071104141 -0.987688340595 -0.0822424652791
0.0 -0.990438881957 -0.137952242128
-0.468429850867 -0.757935420048 0.453990499739
-0.425325404176 -0.688190960236 0.587785252292
-0.564254211766 -0.646577791798 0.51337544123
-0.601500955008 -0.707106781186 0.37174803446
-0.688190960236 -0.587785252292 0.425325404176
-0.51337544123 -0.564254211766 0.646577791798
-0.646577791798 -0.51337544123 0.564254211766
-0.587785252292 -0.425325404176 0.688190960236
-0.37174803446 -0.601500955008 0.707106781186
-0.453990499739 -0.468429850867 0.757935420048
-0.309016994375 -0.5 0.809016994375
-0.757935420048 -0.453990499739 0.468429850867
-0.707106781186 -0.37174803446 0.601500955008
-0.218508012224 -0.790569415042 0.572061402817
-0.809016994375 0.309016994375 0.5
-0.891006524188 0.238676930319 0.386187385588
-0.951056516295 0.162459848116 0.26286555606
-0.963861263467 0.0 0.266404701135
-0.951056516295 -0.162459848116 0.26286555606
-0.987688340595 0.0822424652791 0.133071104141
-0.987688340595 -0.0822424652791 0.133071104141
-0.891006524188 -0.238676930319 0.386187385588
-0.425325404176 -0.688190960236 -0.587785252292
-0.5 -0.809016994375 -0.309016994375
0.132792476828 -0.966392597402 -0.220117027473
0.133071104141 -0.987688340595 -0.0822424652791
0.0 -1.0 0.0
0.519258489728 -0.840177885327 -0.15643446504
0.386187385588 -0.891006524188 -0.238676930319
0.525731112119 -0.850650808352 0.0
0.399607051702 -0.912982492932 0.0823235800317
0.399607051702 -0.912982492932 -0.0823235800317
0.266404701135 -0.963861263467 0.0
0.26286555606 -0.951056516295 0.162459848116
0.519258489728 -0.840177885327 0.15643446504
0.386187385588 -0.891006524188 0.238676930319
0.133071104141 -0.987688340595 0.0822424652791
0.135045378369 -0.925614793411 0.353553390593
0.69378047756 -0.16062203564 -0.702046444776
0.647411893882 -0.296004592578 -0.702309846744
0.571251659136 -0.213022865649 -0.792649229259
0.587785252292 -0.425325404176 -0.688190960236
0.516121620051 -0.346153014789 -0.783451698363
0.809016994375 -0.309016994375 -0.5
0.862668480416 -0.433888564553 -0.259891913008
0.884964962567 -0.465657615668 0.0
0.850650808352 -0.525731112119 0.0
-0.386187385588 0.891006524188 -0.238676930319
-0.264082750659 0.916244175191 -0.301258879093
-0.383613732685 0.843911474622 -0.375038567478
-0.744726981819 0.656281825525 0.121144079657
-0.850650808352 0.525731112119 0.0
-0.819207405919 0.572055577341 0.0406404050256
-0.399769073957 0.646839949314 0.64944804833
-0.268029432135 0.656289842252 0.705297005853
-0.37174803446 0.601500955008 0.707106781186
-0.341435044712 0.552453507295 0.7604059656
-0.309016994375 0.5 0.809016994375
-0.584715705185 0.678976728777 0.44395736945
-0.646839949314 0.64944804833 0.399769073957
-0.628312822406 0.619241580744 0.470917043521
-0.688190960236 0.587785252292 0.425325404176
-0.669612004259 0.552418100796 0.496441341615
-0.607477992708 0.581951963245 0.540649979978
-0.646577791798 0.51337544123 0.564254211766
-0.587785252292 0.425325404176 0.688190960236
-0.552418100796 0.496441341615 0.669612004259
-0.725299045042 0.522498564715 0.448259461843
-0.70447119302 0.48520827912 0.517970331272
-0.757935420048 0.453990499739 0.468429850867
-0.707106781186 0.37174803446 0.601500955008
-0.785898871151 0.382683432365 0.485712214091
-0.64944804833 0.399769073957 0.646839949314
-0.48520827912 0.517970331272 0.70447119302
-0.453990499739 0.468429850867 0.757935420048
-0.522498564715 0.448259461843 0.725299045042
-0.702309846744 0.647411893882 0.296004592578
-0.65349721508 0.678913060654 0.334691568397
-0.703982525982 0.672319410094 0.22890000857
-0.697036981561 0.619185610019 0.361591795649
-0.749785606186 0.634579268498 0.187431845611
-0.749435075215 0.610925895015 0.255179581546
-0.792649229259 0.571251659136 0.213022865649
-0.790112141663 0.545109018939 0.280319391174
-0.745338478923 0.583691442484 0.322141043346
-0.783451698363 0.516121620051 0.346153014789
-0.830358590005 0.504209442104 0.237228688186
-0.825175098744 0.47622570818 0.303801137721
-0.737712162077 0.553371785446 0.386730439706
-0.790170103914 0.59489533778 0.147413513518
[...]
CELL_DATA 2882
SCALARS cell_data_0 double
LOOKUP_TABLE default
7.7087167907e-06
1.07022105619e-05
4.59389226417e-07
2.3968171302e-06
2.09652419602e-05
1.83554216296e-05
7.21759303564e-06
9.2572438693e-06
4.60637186574e-06
4.75849081083e-06
8.46385669461e-06
5.44341046905e-06
1.08917164903e-05
3.79804189689e-06
5.53393507915e-06
1.69916922187e-06
2.91294854682e-07
6.22297297076e-07
3.09528364597e-06
1.08412284463e-06
2.90097875674e-06
3.8757269938e-07
8.7560980101e-07
1.0942703462e-06
3.8120607691e-06
9.36775010947e-07
5.14704708758e-07
7.5738116165e-07
1.79867565959e-06
2.10328708002e-06
1.81105277782e-06
9.24447445415e-07
1.46521133092e-06
2.76127118298e-06
4.36375193405e-07
8.55834305908e-08
1.96064356638e-06
1.19077453023e-05
7.41234322951e-06
4.63684133877e-06
1.63710125843e-05
1.87287080325e-05
2.08879233115e-05
1.28784181267e-05
1.39772290829e-05
3.25953285605e-05
2.40323633396e-05
1.78356182158e-05
2.5894632597e-05
3.36856821706e-05
1.58632300533e-05
1.76431549723e-05
1.67341973369e-05
3.4890295435e-05
1.66575678327e-05
2.22984788039e-05
1.93713412676e-05
3.24226402179e-05
1.44713448263e-05
1.80567539271e-05
1.02892346593e-05
1.75345662002e-05
1.01830087537e-05
1.43412434115e-05
1.04662157998e-06
3.56751585141e-06
2.86579198558e-07
1.25066277362e-06
1.96220793205e-06
9.41168181478e-07
1.64549625901e-06
2.84307556575e-06
9.92279989168e-07
2.12722148024e-06
1.78489315052e-06
1.83730184592e-06
4.06385576041e-06
4.5203281521e-06
6.82147765982e-06
2.1643259669e-06
1.65804468989e-05
2.01266115527e-05
2.82550463185e-06
1.05650828283e-06
1.33256715487e-06
3.07272365442e-06
2.2276242313e-06
2.55584916157e-06
4.59663846282e-06
5.04631273716e-06
2.50741290309e-07
4.66914010481e-06
7.349635549e-06
7.13376153175e-06
2.41659397991e-07
2.35252104154e-07
6.96158281985e-06
2.18618399553e-06
4.31142406823e-06
7.13738056195e-06
4.22794051539e-06
2.85121578616e-06
4.60242346701e-06
5.40233777978e-06
5.976123742e-06
2.62647724117e-06
3.36223087425e-06
2.5607175277e-06
5.28651535534e-06
2.81215503035e-06
9.916416148e-06
1.48919233839e-05
1.49220775291e-05
9.90872150023e-06
9.45650051478e-06
7.34332642434e-06
1.44189831142e-05
1.72247651382e-05
3.13030108987e-06
4.27097327242e-06
1.975470913e-07
3.1338258651e-06
2.11447159565e-06
6.81722664736e-07
1.60377804201e-06
5.57567446561e-06
6.79066210021e-06
3.80700684943e-06
1.87563192464e-06
1.07393078155e-06
1.75780017666e-06
6.91276275646e-07
2.72853426504e-06
1.11683831776e-06
5.04701380055e-06
5.95453597974e-06
2.3588840434e-06
1.51341692483e-06
3.14747971041e-07
7.31488752749e-08
1.53575380131e-06
1.1738736371e-06
8.14735037122e-07
1.62178989101e-05
4.80780127225e-06
1.94051377468e-06
2.57374026441e-07
3.71334978296e-08
1.13453023027e-06
7.29631034979e-08
2.44270499573e-07
9.18810296558e-07
1.39861200706e-05
1.61751404412e-05
2.05845831096e-05
1.86192051492e-05
5.97080844242e-07
2.07209749998e-05
1.74939253636e-05
1.09498479438e-05
8.12719902238e-06
1.31375646846e-05
1.05047824265e-05
1.93358593171e-05
1.60359434018e-05
3.64968191861e-06
4.04883778372e-06
5.42576019286e-06
5.82417737e-06
6.55799542634e-06
9.39552996997e-06
5.01357632258e-06
1.2159847795e-05
5.03943784331e-06
8.32261912265e-06
6.04478073303e-06
1.25225979359e-05
7.38300299222e-06
2.29695972959e-06
3.40460024209e-06
2.97733661308e-06
4.9733721266e-06
1.09898504078e-05
7.8304215394e-06
5.77592952809e-06
6.91387708337e-06
8.17296463549e-06
2.49719816324e-06
4.60892169517e-06
4.32569853424e-07
2.59479974757e-07
6.13184724713e-07
3.077216975e-07
6.56183145734e-06
9.69036703626e-06
6.0397107644e-06
3.67834177176e-06
2.14313300826e-06
2.47648920938e-06
2.20801246335e-06
2.15518825802e-06
2.87438498492e-06
3.13960754313e-06
6.19893626883e-07
6.55547533624e-07
1.73021198319e-06
7.07154117975e-07
3.43309908375e-06
7.12431641453e-06
2.52436956342e-06
3.2298870183e-06
1.0105895104e-06
4.16223875108e-08
1.23447596393e-06
1.17633378982e-06
2.06015993146e-06
1.28041820562e-06
2.75907552761e-06
4.3256986608e-06
1.50573488837e-06
3.79725526427e-06
2.79420063274e-06
2.25829785963e-06
1.15366552426e-06
6.06810985132e-07
7.86132670204e-08
5.3853424382e-08
7.90365774034e-08
6.52905640344e-08
6.19764724817e-08
8.12183272716e-08
1.21222709579e-07
6.82835621572e-07
8.35541865005e-07
6.63684703144e-09
1.37151908252e-06
3.99090422589e-06
3.90756732783e-06
2.159646733e-06
1.45275504185e-06
5.54853828966e-07
5.30922252692e-07
3.49932708167e-07
2.77239661021e-07
2.70680158807e-06
2.73315152851e-06
2.34694282163e-06
3.80452300262e-07
5.85696502386e-08
2.70436547773e-07
3.35767033271e-07
3.42455527245e-06
2.53399391289e-06
8.21623993161e-08
2.12956772841e-06
1.80630382639e-06
2.22364283822e-06
2.18690233215e-07
1.54716041701e-06
3.17084860709e-06
1.38529370591e-06
1.50473653277e-06
1.33742242134e-06
1.74326608907e-06
2.64608936118e-07
6.23795773242e-08
3.70404242081e-07
1.06753044018e-06
3.90959386057e-06
3.17434046207e-06
3.2173887549e-06
3.0421765818e-06
1.15757549268e-06
1.13571281771e-06
1.24185593204e-06
6.32134882045e-07
2.57439644434e-06
3.26012423249e-06
9.91912269045e-07
1.1057426881e-06
1.12504881004e-06
9.79091164575e-07
9.46028081127e-07
9.85655689834e-07
5.19228284694e-07
2.82563626138e-06
6.96374220491e-06
7.06671632831e-06
5.3320393284e-06
5.34096540454e-06
6.64344184178e-06
7.21122460082e-06
7.18400580314e-06
5.97524656429e-06
6.60512522467e-06
6.88177720809e-06
3.77481556424e-06
3.75769352814e-06
6.20317035286e-06
7.49015058566e-06
3.78374494769e-06
4.27421335646e-06
4.4942349564e-06
4.32657704457e-06
4.48671702878e-06
4.69749167786e-06
4.66741493407e-06
4.52199950267e-06
5.08803096268e-06
4.789791535e-06
4.96854198025e-06
4.91515529522e-06
4.35531799807e-06
4.21684289916e-06
5.72674801248e-06
5.53471583552e-06
5.05615863488e-06
4.26204136917e-06
2.76138805272e-06
3.51926802265e-06
6.75788023578e-06
4.25037649633e-08
9.87344932202e-08
6.59138177427e-08
5.10802544374e-07
9.16561134966e-08
8.70313705679e-07
7.152141942e-07
6.47614319877e-07
1.2752575902e-06
8.0486419946e-07
1.09738325277e-06
3.89600571608e-07
3.32875149606e-07
1.43926560926e-07
1.68772369625e-07
8.2000539242e-08
2.48141187659e-07
1.6578530778e-07
1.99725382698e-07
1.09277297576e-07
2.83111849709e-07
1.76366561052e-07
1.55742707734e-07
2.22474813132e-07
1.83490387152e-07
2.02222992468e-07
1.19172081991e-08
1.28511954898e-07
1.83493276488e-07
2.22695465494e-08
2.3404680596e-07
7.65863192358e-08
2.1077883696e-08
2.54813716983e-07
3.79934032444e-07
8.23265804805e-08
2.6721943098e-08
3.14110196393e-08
1.86216856414e-07
3.46545007401e-07
3.48329274481e-06
4.05451493691e-06
3.66578726767e-06
1.06918403557e-07
3.07203334014e-06
3.55405076541e-06
3.40950307407e-06
9.001497709e-06
1.56176835813e-05
8.54678917428e-06
8.89547905888e-06
3.21525045935e-06
8.1595126797e-06
3.124228464e-06
3.20108935284e-06
7.50329495089e-06
9.68267235743e-06
8.98869964141e-06
3.49678337302e-06
5.46096690232e-06
1.43890206094e-06
2.78835754475e-06
5.07851304465e-07
3.5551092885e-06
4.32416904221e-06
4.71235658256e-06
4.71882851761e-06
4.80722038946e-06
3.20908040852e-06
9.63539621291e-07
3.00140088546e-06
2.9115222607e-06
6.72914566203e-06
8.23984081413e-06
3.70136474153e-06
1.63813247083e-06
3.77682722645e-06
2.65662552799e-06
3.9526322797e-06
4.55675186368e-07
1.3544070359e-05
6.22086005831e-06
8.64402670132e-06
5.91694448233e-06
5.42995849969e-06
5.24365877528e-07
5.11118933986e-09
5.8709458699e-06
2.78717057245e-06
6.01156929307e-06
5.9963141021e-06
2.1257345781e-06
5.0374182345e-06
1.20356858918e-05
1.46358685825e-05
4.71073063333e-06
1.33213996966e-05
2.57055044636e-05
1.41065276778e-05
1.72243390204e-05
1.12822857656e-05
6.68093092377e-06
1.50283519872e-05
6.4007866776e-07
4.89960197737e-06
2.98529075049e-06
5.025409898e-06
9.47882381648e-06
2.48554380803e-06
6.04538714152e-06
9.52077543587e-06
1.10385126154e-05
8.96617270203e-06
7.52547743839e-07
6.08866268698e-06
2.59861173336e-06
7.96978969356e-06
8.10274198788e-06
9.85894684826e-07
1.15642109145e-06
2.07632425279e-05
1.12436253527e-05
9.38285511723e-06
2.20794671175e-05
1.62959251069e-05
1.13998937444e-05
1.19664093021e-06
3.18203903523e-06
9.71058525362e-06
1.31955708198e-05
3.1244381634e-07
5.4306296021e-06
5.1954324567e-06
6.58061737058e-06
1.2341114983e-05
2.47765235633e-05
1.74423192045e-05
1.67242995786e-05
7.02258454051e-06
1.30108224343e-05
1.73922758491e-05
5.3726849235e-06
1.40909283161e-05
2.03458864197e-05
1.22614686097e-05
1.40045446512e-05
5.52691898751e-06
5.74767019879e-06
3.78315175548e-07
1.2462601825e-05
8.80987198813e-06
4.43389739363e-06
5.71900717681e-08
6.38476086742e-06
5.60202049026e-06
8.61594386843e-06
8.73222207651e-06
6.83527203823e-06
5.58006238668e-06
1.2916975288e-06
1.65545735446e-05
7.55271494155e-06
8.97267894864e-06
3.09432072586e-06
4.7138247868e-06
6.39427695391e-06
6.10980935321e-06
7.05281807075e-06
4.88255539459e-06
5.26292274413e-06
4.11201572193e-06
5.42574090889e-06
3.70284566736e-06
4.57349519125e-06
4.77308913597e-06
4.61279153406e-06
5.25607914229e-06
4.92114885206e-06
4.8322007671e-06
3.58835478187e-06
5.89406421175e-06
5.95517556826e-06
6.10020712483e-06
4.91439568691e-06
3.87239882863e-06
3.93547083074e-06
3.384831375e-06
3.56991782488e-06
3.26498090428e-06
2.78481662467e-06
1.61965108707e-06
1.07454989799e-05
1.50479409608e-06
4.39277473404e-06
6.51489522064e-07
7.44679729335e-06
1.24475389672e-07
5.95946037671e-06
4.48664603418e-06
4.02170958493e-06
1.45675672808e-06
2.90679658279e-06
3.47262412021e-06
3.29944277496e-06
3.46484617444e-06
3.09358048483e-06
1.31736522295e-05
8.52820887155e-07
2.20916859147e-06
3.40635928484e-05
3.25231152155e-05
2.35848747367e-05
2.12196394287e-05
2.43499538098e-05
2.66949125381e-05
2.45944275532e-05
2.55900621643e-05
2.15806723785e-05
3.45473597744e-05
1.90303380732e-05
1.85969442114e-05
1.23533912611e-05
2.28410644298e-05
1.22963018421e-05
1.57903533532e-05
1.86306732586e-06
1.02578006866e-06
1.53860611395e-06
2.9839443453e-06
1.53641912563e-06
2.68238913312e-06
3.5737773366e-06
2.26202706596e-06
8.06621893312e-07
1.33529048469e-06
3.29204293356e-07
6.59616653164e-07
6.80017876328e-07
1.31429862545e-06
2.43151535495e-07
3.77020324394e-07
1.19906817944e-07
2.3420968983e-06
1.13894301605e-06
2.27793677274e-06
6.81202731759e-06
5.46866921656e-06
4.18096074484e-06
5.29009760023e-06
3.18991614605e-06
2.9598192229e-06
1.46111525174e-06
3.9823401969e-06
5.64058410105e-06
4.35770091364e-06
4.30004134081e-06
3.37144396169e-06
3.34319928687e-06
2.36128643208e-06
8.30130547493e-07
2.45466249065e-06
3.15228898638e-06
1.95218714168e-06
1.84325004778e-06
1.1842183735e-06
1.46464503289e-06
2.17906850467e-06
5.81115112864e-06
4.21732134688e-06
1.99020926207e-06
5.97716179821e-06
3.4835857163e-07
2.75220530928e-07
1.01759600568e-06
2.09128235231e-07
3.20463329962e-06
3.68567300478e-06
4.04920845158e-06
1.26674001743e-06
5.06624188576e-06
1.20822272305e-06
6.29415019104e-07
1.91543209947e-06
4.46989580101e-06
5.68438012781e-06
3.39069896837e-06
6.49062502263e-07
3.28591054303e-06
4.10321947834e-06
1.11078274821e-05
1.28580955657e-05
1.76166360693e-07
9.90255321193e-06
2.20925872458e-05
3.44454195316e-05
1.97374504963e-05
1.97080193699e-05
2.00372828911e-05
2.23972623564e-05
9.35328346147e-06
1.15268958938e-05
1.29872424595e-05
1.52622244842e-05
1.04551955063e-05
4.4800613007e-06
1.26453660239e-06
3.18438853315e-06
3.65543693666e-06
1.7024711148e-06
1.87922278684e-06
1.51916271494e-06
1.52905527412e-06
1.87139146312e-06
2.56319258876e-06
2.01557845003e-06
1.75212989859e-06
1.3564981814e-06
6.2594293873e-10
3.33582322303e-08
1.17847557464e-06
1.72586937498e-06
1.21561421986e-06
1.0341587308e-08
1.53698085241e-06
1.70487604361e-06
2.94428972173e-06
2.42855017352e-06
2.79274515442e-06
3.09162656747e-07
1.70399383656e-07
5.97540876323e-08
1.40195053265e-06
1.16055189093e-07
5.10984272824e-07
6.48730923261e-07
1.03815215652e-06
1.00160838748e-08
1.89716122167e-07
1.08536213909e-06
6.27414656098e-07
1.54055441977e-06
5.00593143504e-06
4.29475218509e-06
1.30386648523e-06
1.58543379487e-06
4.3536602617e-06
4.28975893194e-06
4.43676103032e-06
4.17509134807e-06
4.46553213178e-06
4.51070304375e-06
4.55372731675e-06
4.48377601454e-06
3.40336593919e-06
3.56691746181e-06
3.67079079227e-06
3.61774323463e-06
3.72063386699e-06
3.76740640063e-06
3.7551570648e-06
3.81017006436e-06
3.71415378419e-06
3.6851245637e-06
3.75684615117e-06
3.59753164348e-06
6.76913197143e-06
5.38193270845e-06
3.77865962305e-06
3.89833704631e-06
4.35885229757e-06
4.37643687297e-06
4.42135579731e-06
4.8274085146e-06
5.16635493863e-06
5.72879713026e-06
4.03351362084e-06
4.50855614268e-06
3.37212493304e-06
3.31119639311e-06
3.23055551287e-06
3.85735791983e-06
6.11182599356e-06
5.79174706332e-06
5.42651164918e-06
3.72745031444e-06
3.61076178693e-06
3.3506248629e-06
3.10907180288e-06
3.45328637375e-06
6.77918719837e-06
6.27267883273e-06
3.22695144314e-06
2.79458021366e-06
2.69559063628e-06
2.78536833761e-06
2.44620173568e-06
2.33573701917e-06
2.16685330973e-06
2.52612599274e-06
3.86829908149e-06
4.1454660439e-06
2.40725031331e-06
2.1263696277e-06
2.048433248e-06
2.16212462376e-06
5.55561826956e-06
6.24784979647e-06
2.39965347358e-06
2.54038695663e-06
2.47421067103e-06
2.80530028803e-06
2.77485820632e-06
2.95636057652e-06
3.08703551555e-06
3.10538365351e-06
3.39518641194e-06
3.53126520613e-06
3.8610597726e-06
3.43132910364e-06
3.46639287603e-06
3.69414609486e-06
3.93353033758e-06
3.90939604872e-06
3.36985385606e-06
3.5664875588e-06
3.91445256568e-06
3.8756368874e-06
2.49577331915e-06
2.58645823396e-06
2.42858707627e-06
2.80855729514e-06
2.56648087845e-06
2.83148998367e-06
2.89283592733e-06
2.9606769986e-06
2.34151186984e-06
2.35646876675e-06
2.15452500155e-06
2.6032702576e-06
3.1622963141e-06
3.53095457287e-06
3.23252460545e-06
3.85063563543e-06
4.86867783048e-06
4.85371854112e-06
5.37003206022e-06
5.21179489143e-06
4.56612108676e-06
4.71396290837e-06
4.44784911053e-06
5.05823612325e-06
3.28928042288e-06
2.17422743604e-06
2.8763809948e-06
1.29747305385e-06
2.28732246739e-07
5.95243127622e-06
2.42389486846e-06
2.11433783298e-06
2.72129144431e-06
9.29558518699e-08
2.60569185655e-06
1.16936958761e-06
1.38835881749e-07
4.76098968508e-06
4.22561258561e-06
1.46223139753e-06
1.02867120637e-05
1.68542080721e-05
4.76892984654e-06
9.2415717839e-06
4.16279754875e-06
1.11946043663e-05
2.83700540606e-06
5.3332782806e-06
2.21823535595e-06
6.07029849079e-07
2.81113622112e-06
2.38260308321e-06
7.78792695455e-07
2.75925491606e-06
1.01718861675e-06
1.97249329621e-06
4.85727449538e-06
4.04960635323e-06
4.58940647904e-06
4.61159483346e-06
4.37596123341e-06
3.46352767046e-06
4.04794644507e-06
4.46142810665e-06
4.19401015563e-06
3.03031056695e-06
3.50257292683e-06
3.71080573747e-06
4.17048522081e-06
2.66256259464e-06
3.77084531125e-06
3.28912270484e-06
2.74014144877e-06
1.66682518479e-06
2.52852930569e-06
3.59155101999e-06
2.94695865039e-06
2.41843333652e-06
2.98171524369e-06
3.5351378638e-06
2.49356235511e-06
1.14300387991e-06
2.38443536887e-06
2.09950566335e-06
1.69474960427e-06
1.77122703798e-07
8.72770607508e-07
2.09437044917e-06
1.98726390198e-06
4.02973818445e-07
1.36725218914e-06
2.21103744639e-07
4.5197361769e-06
3.52737912482e-06
4.579614021e-06
4.51786156613e-06
4.44327784892e-06
7.75719897812e-06
4.01850715999e-06
4.8252080783e-06
6.26163999534e-06
7.97300696538e-06
4.07742389382e-06
4.02731351727e-06
3.20122259258e-06
6.25357466232e-06
3.70456176448e-06
3.98981325746e-06
3.39449422302e-06
6.44976058644e-06
4.32477641212e-06
3.2795709927e-06
3.62453579573e-06
3.59248652243e-06
5.12384730099e-06
9.07917331075e-06
5.69901961987e-06
4.50680509624e-06
5.88168235202e-06
1.142590597e-05
7.42492352461e-06
6.78493955257e-06
4.80422887729e-06
9.97386580448e-06
6.08102306132e-06
6.45591019148e-06
1.66465564449e-05
2.25076062395e-05
1.08995185858e-05
1.22961226925e-05
1.13921732749e-05
1.15995194953e-05
1.11334912386e-05
1.1690129168e-05
6.4965391108e-06
1.19757230701e-05
9.00912991798e-06
7.13174080594e-06
1.11040757267e-05
1.55154363296e-05
8.32386942822e-06
9.23227411579e-06
1.10803984174e-05
1.781574877e-05
8.46605757544e-06
1.07500404851e-05
6.90987786266e-06
1.4723224082e-05
2.67522558272e-06
1.03961726419e-05
8.95126430189e-06
6.35535706637e-06
7.7263273264e-06
4.96799855317e-06
3.00279651926e-06
1.32116473222e-05
6.00478049833e-06
1.05000286764e-05
1.41945481364e-06
2.27147920352e-06
2.11177538444e-06
2.89388527144e-07
4.83408217804e-06
4.21940249736e-06
4.59479925664e-06
4.40511037585e-06
4.42182478685e-06
3.67712450901e-06
3.8231930991e-06
4.18099346245e-06
2.85057376091e-06
1.67736728624e-05
1.2876091484e-05
1.64275024603e-05
2.7359960192e-05
2.45981593163e-05
7.71421465326e-06
1.34179480603e-05
1.267284456e-05
1.51631992207e-05
1.27012523483e-05
8.71781947569e-06
8.09935959216e-06
1.07651975499e-05
1.26395920511e-05
1.20336244267e-05
8.09725304493e-06
1.07956892311e-05
1.2127110942e-05
1.08700207328e-05
8.5335802153e-06
9.88092540027e-06
5.62709497508e-06
1.22047916551e-05
1.26353700296e-05
1.13639467073e-05
1.43963609914e-05
1.60326712294e-05
1.70408556574e-05
1.39409415823e-05
1.1228921516e-05
1.16968474427e-05
8.45859407074e-06
1.53230501921e-05
1.00202243276e-05
1.04490194906e-05
1.48443644939e-05
4.74638028e-06
3.67729776272e-06
6.33145347558e-06
1.88509974422e-05
1.32971501236e-05
1.88061844583e-05
5.42152629704e-06
1.39615118947e-05
1.30190321751e-05
1.78176796509e-05
5.29646789108e-06
3.0905665546e-06
1.38204841053e-05
1.35401784289e-05
6.32031248283e-06
1.35841006194e-05
3.21563887056e-06
8.56990290844e-08
2.86522434345e-06
1.70322395479e-05
1.60474699169e-06
1.47938644665e-05
1.69568678494e-05
1.7048311104e-05
1.38868667391e-05
6.17922577701e-06
6.99163532402e-06
7.84854973238e-06
6.47789834898e-06
5.54363845794e-06
5.89364034096e-06
7.72229711788e-06
5.81661583676e-06
7.89324696109e-07
1.22104900176e-06
4.88362156672e-06
4.99439983022e-06
4.74618854838e-06
9.38392344291e-07
4.56290084669e-06
4.74542107929e-06
4.35582820677e-06
8.5117932851e-07
1.0126275213e-06
4.73872975498e-06
4.55824160155e-06
9.16208704074e-07
4.6309846612e-06
9.75013576195e-07
6.3540769596e-07
1.60692147098e-06
5.34887016006e-06
7.92265665195e-06
6.04069318016e-06
2.07163043833e-06
8.8694102587e-06
8.04314946794e-06
6.88845957872e-06
2.28892175523e-06
2.1101980242e-06
7.80164017514e-06
8.53976289367e-06
2.20516181984e-06
8.22225706799e-06
1.35937678548e-06
1.96020066429e-06
1.72517139947e-06
4.83034043575e-06
1.66058154433e-06
1.10851157679e-06
3.55190214404e-06
5.32046867011e-07
2.20813775632e-06
2.18123981564e-06
2.38327132321e-06
2.08322721676e-06
1.26977866514e-06
2.46157350891e-06
2.87366045494e-06
2.83847922739e-06
1.89591181369e-06
2.67422060793e-06
3.47314826567e-06
3.73669118426e-06
3.10604710635e-06
1.27907927239e-06
2.51530281662e-06
2.37710398066e-06
1.94263601009e-06
1.73158760335e-06
2.05122580339e-06
1.27057016773e-06
6.66050505702e-07
1.72820826964e-06
2.72879956771e-06
1.86220438897e-06
1.4124809045e-06
2.56558701358e-06
3.48042893622e-06
3.69247392708e-06
2.14292125403e-06
1.65570076251e-06
2.35733888483e-06
1.49549079575e-06
2.16396704123e-06
1.73644047667e-06
1.76047428516e-06
9.54362964751e-07
6.42037229439e-08
1.03261736788e-06
2.20126247322e-06
1.16593191254e-06
4.56879629993e-07
1.57132844232e-06
2.90678737619e-06
3.15696027229e-06
1.86548778595e-06
4.76139894499e-07
2.09607497172e-06
1.10421515098e-06
1.62388797571e-06
1.45716610643e-06
1.87325972e-06
9.18539129653e-07
1.79224119315e-07
7.59012080008e-07
1.94814885073e-06
3.36109450072e-07
6.09318083872e-08
1.04506365773e-06
2.31916402714e-06
2.93463411382e-06
3.44136768404e-07
9.61689721615e-07
1.18799051322e-06
1.72790962101e-07
1.43120570103e-06
1.37495948771e-06
1.11802804525e-06
6.63123837101e-07
2.13620723013e-07
8.6269411385e-08
1.95606325826e-06
6.65144947978e-07
2.27857731827e-07
1.72871417112e-06
7.39348233975e-08
1.2076316924e-06
2.23843223395e-07
5.08322080506e-07
1.16111794575e-06
3.86900313212e-08
2.14930056997e-06
4.29931670527e-07
4.22374706948e-07
2.53587297237e-06
1.41299738054e-07
2.29290497813e-06
4.82928278497e-07
2.78653342331e-07
5.60607424523e-07