# vtk DataFile Version 3.0
File Name: Molecule/arg/arg_4.0-4.vtk
ASCII
DATASET UNSTRUCTURED_GRID
FIELD FieldData 1
TIME 1 1 double
0.0
POINTS 712 double
-3.403 0.327 1.604
-3.45 0.103 1.078
-2.981 -0.361 1.858
-3.028 -0.584 1.332
-3.298 -0.003 0.536
-2.876 -0.691 0.79
-2.971 0.024 0.066
-2.549 -0.664 0.32
-2.984 0.046 0.042
-2.471 -0.12 -0.363
-2.484 -0.099 -0.385
-2.2 -0.483 -0.862
-2.216 -0.458 -0.889
-3.25 0.578 -0.258
-2.57 0.022 -0.532
-2.777 0.436 -0.766
-2.39 -0.269 -1.153
-2.617 0.185 -1.409
-3.173 1.207 -0.458
-2.716 0.926 -0.921
-2.55 0.723 -1.58
-2.776 1.74 -0.497
-2.407 1.34 -0.951
-2.211 1.177 -1.613
-2.622 1.932 -0.429
-2.287 1.501 -0.894
-2.142 1.682 -0.83
-1.982 1.439 -1.492
-1.81 1.654 -1.416
-2.655 2.421 0.048
-2.046 2.135 -0.548
-2.075 2.574 -0.12
-1.615 2.438 -0.879
-1.647 2.927 -0.402
-2.495 2.657 0.67
-1.932 2.785 0.438
-1.488 3.163 0.22
-2.925 2.572 1.071
-2.137 2.872 1.156
-2.512 2.798 1.506
-1.863 3.333 1.507
-2.279 3.251 1.894
-3.186 2.284 1.521
-2.739 2.546 1.897
-2.53 2.972 2.328
-3.419 1.801 1.788
-2.888 2.359 1.917
-3.122 1.876 2.185
-2.717 2.558 2.345
-2.979 2.017 2.644
-3.567 1.179 1.827
-3.133 1.725 2.369
-3.262 1.186 2.403
-3.107 1.793 3.017
-3.25 1.192 3.055
-3.408 0.559 1.798
-3.123 0.649 2.378
-3.095 0.593 3.027
-3.105 0.348 2.085
-3.1 0.088 1.867
-2.97 0.105 2.152
-3.02 0.504 2.546
-2.901 0.29 2.606
-2.978 0.383 3.085
-2.865 -0.346 2.113
-2.52 -0.7 2.425
-2.794 0.071 2.575
-2.491 -0.24 2.849
-2.645 0.041 3.387
-2.46 -1.117 2.184
-2.148 -0.9 2.844
-2.09 -1.3 2.613
-2.003 -1.142 3.367
-1.937 -1.6 3.103
-2.268 -1.45 1.888
-1.906 -1.62 2.328
-1.726 -1.965 2.777
-1.967 -1.659 1.57
-1.617 -1.821 2.023
-1.396 -2.195 2.428
-1.592 -1.721 1.268
-1.257 -1.88 1.733
-0.984 -2.263 2.097
-2.026 -1.588 0.931
-1.237 -1.838 0.739
-1.646 -1.713 0.421
-0.96 -2.23 0.303
-1.437 -2.084 -0.068
-2.342 -1.257 0.596
-1.944 -1.402 0.106
-1.784 -1.721 -0.435
-2.487 -0.785 0.321
-2.08 -0.956 -0.154
-1.943 -1.202 -0.738
-2.189 -0.632 -0.224
-2.248 -0.516 -0.225
-2.131 -0.618 -0.861
-2.114 -0.682 -1.181
-1.927 -1.264 -1.052
-2.312 -0.441 -1.376
-2.121 -0.506 -1.916
-2.042 -0.816 -1.214
-1.838 -0.886 -1.79
-1.682 -1.348 -1.746
-1.975 -0.256 -2.322
-1.864 -0.768 -1.888
-1.672 -0.441 -2.421
-1.897 0.192 -2.527
-1.57 0.147 -2.691
-1.996 0.646 -2.441
-1.495 0.306 -2.776
-1.602 0.798 -2.682
-1.198 0.386 -3.152
-1.328 0.981 -3.039
-2.011 1.039 -2.18
-1.619 1.224 -2.399
-1.348 1.496 -2.696
-1.72 1.257 -2.235
-1.479 1.817 -1.75
-1.107 2.057 -2.211
-1.346 2.153 -1.415
-1.642 2.007 -1.116
-1.319 2.584 -1.178
-0.816 3.013 -1.267
-1.111 2.259 -1.642
-0.623 2.675 -1.729
-0.543 2.537 -2.312
0.466 3.148 -0.891
-0.416 2.926 -1.599
0.331 3.005 -1.38
-0.131 2.956 -2.042
0.328 3.005 -1.907
-0.002 3.1 -2.533
0.456 3.148 -2.398
-0.048 3.337 -3.001
0.699 3.415 -2.782
0.833 2.913 -0.61
0.619 2.806 -1.364
0.976 2.577 -1.092
0.892 2.689 -1.891
1.303 2.425 -1.576
1.057 2.557 -0.305
1.192 2.232 -0.796
1.553 2.026 -1.234
0.979 2.767 0.195
1.539 1.918 0.039
1.462 2.128 0.539
0.737 2.845 0.68
1.22 2.206 1.024
0.406 3.093 0.833
0.71 2.572 1.142
0.419 2.789 1.277
0.841 2.425 1.643
0.539 2.651 1.783
1.112 2.426 2.108
0.748 2.699 2.276
0.011 3.456 0.651
0.05 3.076 1.433
-0.284 3.383 1.279
-0.034 3.266 2.099
-0.415 3.616 1.924
-0.504 3.599 0.465
-0.72 3.504 1.122
-0.913 3.754 1.744
-1.038 3.495 0.311
-1.173 3.416 0.991
-1.429 3.653 1.595
-1.554 3.135 0.914
-0.08 3.426 2.677
0.304 2.919 2.221
0.258 3.08 2.801
0.695 2.881 2.933
-0.313 3.4 3.231
0.024 3.055 3.358
0.431 2.852 3.563
-0.687 3.194 3.654
-0.352 2.847 3.783
0.006 2.617 4.044
-1.222 3.175 3.77
-0.58 2.815 3.881
-1.2 2.794 4.016
-1.756 3.136 3.659
-1.82 2.748 3.887
-2.199 3.083 3.341
-2.333 2.687 3.518
-2.473 3.025 2.87
-2.65 2.619 2.973
-0.832 2.373 4.277
-0.242 2.183 4.431
-1.061 1.806 4.483
-0.466 1.628 4.634
-1.434 2.302 4.313
-1.452 1.611 4.604
-1.773 2.038 4.456
-1.892 2.602 3.976
-2.169 2.297 4.166
-2.355 2.652 3.532
-2.568 2.341 3.783
-2.74 2.445 3.06
-2.9 2.162 3.376
-1.464 1.095 4.666
-0.956 1.592 4.533
-0.968 1.074 4.596
-0.48 1.041 4.705
-1.655 0.731 4.634
-0.882 0.784 4.614
-1.066 0.434 4.582
-0.333 0.517 4.869
-0.555 0.096 4.831
-2.14 0.383 4.441
-1.246 0.178 4.538
-1.7 -0.148 4.358
-0.878 -0.357 4.785
-1.429 -0.753 4.566
-2.498 0.133 3.99
-2.035 -0.382 3.936
-1.836 -1.037 4.053
-2.172 -0.468 3.371
-0.383 -0.749 5.065
-0.05 -0.304 5.117
0.164 -1.171 5.088
0.507 -0.734 5.141
0.4 -1.671 4.946
0.615 -0.976 5.092
0.839 -1.451 4.956
1.043 -0.806 5.264
1.279 -1.306 5.122
0.636 -2.087 4.632
1.063 -1.845 4.659
1.514 -1.722 4.808
0.844 -2.371 4.183
1.26 -2.115 4.232
1.723 -2.007 4.359
1.002 -2.493 3.648
1.411 -2.231 3.724
1.881 -2.129 3.824
1.092 -2.439 3.086
1.496 -2.18 3.191
1.971 -2.075 3.263
1.104 -2.215 2.561
1.508 -1.967 2.692
1.983 -1.85 2.738
1.037 -1.846 2.131
1.444 -1.616 2.284
1.916 -1.481 2.307
0.647 -2.269 2.118
0.798 -1.688 1.555
0.487 -2.024 1.545
0.806 -1.676 0.912
0.496 -2.012 0.902
1.061 -1.813 0.337
0.67 -2.236 0.324
0.119 -2.499 2.107
0.068 -2.206 1.536
0.076 -2.194 0.893
0.142 -2.466 0.313
-0.457 -2.497 2.099
-0.39 -2.205 1.53
-0.381 -2.193 0.887
-0.434 -2.464 0.306
-0.808 -2.019 1.528
-0.8 -2.007 0.885
1.48 -1.078 0.031
1.043 -1.422 0.814
1.323 -0.93 0.61
1.205 -1.217 1.373
1.436 -0.812 1.205
1.517 -1.238 1.905
1.797 -0.747 1.701
2.335 -0.746 2.002
1.639 -0.712 -0.547
1.476 -0.549 0.311
1.615 -0.229 -0.195
1.697 -0.118 0.66
1.842 0.216 0.134
1.693 -1.21 -0.838
1.805 -0.426 -1.067
1.853 -0.872 -1.327
2.201 -0.141 -1.444
2.253 -0.62 -1.722
1.568 -1.637 -1.21
1.741 -1.254 -1.66
2.133 -1.029 -2.079
1.279 -1.936 -1.614
1.483 -1.521 -2.022
1.857 -1.315 -2.467
0.866 -2.068 -1.998
1.113 -1.639 -2.366
1.46 -1.442 -2.835
0.381 -2.015 -2.311
0.679 -1.593 -2.646
0.995 -1.392 -3.136
-0.112 -1.786 -2.513
0.238 -1.387 -2.827
0.523 -1.172 -3.329
-0.548 -1.409 -2.576
-0.152 -1.05 -2.884
0.104 -0.811 -3.39
-0.822 -1.287 -2.506
-0.408 -0.948 -2.806
-0.669 -0.831 -2.739
-0.336 -0.591 -3.197
-0.616 -0.466 -3.125
-1.31 -1.347 -2.194
-0.988 -0.705 -2.664
-1.485 -0.767 -2.346
-1.322 -0.31 -2.728
-0.95 -0.071 -3.189
-0.311 -0.212 -3.619
0.128 -0.454 -3.788
-0.16 0.24 -3.931
0.27 -0.03 -4.081
0.101 0.716 -4.098
0.516 0.418 -4.238
-0.411 1.252 -3.909
0.377 1.347 -4.4
0.11 1.626 -4.301
-0.398 1.946 -3.588
0.117 1.987 -4.134
-0.106 2.463 -3.53
-0.202 2.855 -2.684
0.028 3.029 -3.665
0.173 2.486 -3.833
0.9 3.106 -3.671
0.85 2.546 -3.838
1.267 2.733 -3.406
0.819 3.383 -2.845
1.204 2.948 -2.765
1.749 2.404 -3.353
0.902 2.914 -2.485
0.749 2.956 -2.405
1.123 2.627 -2.01
1.688 2.19 -1.733
1.668 2.681 -2.526
1.962 2.454 -2.382
2.133 1.624 -1.992
2.194 2.159 -2.516
2.141 1.301 -1.585
2.428 1.273 -2.257
2.435 0.969 -1.874
2.042 0.907 -1.262
2.342 0.599 -1.57
1.911 1.516 -1.257
1.855 0.911 -0.632
1.743 1.428 -0.628
1.976 0.918 0.014
1.858 1.462 0.018
1.44 1.861 -0.608
1.861 0.778 -0.544
1.751 0.201 -0.446
1.991 0.665 -1.105
1.878 0.074 -1.004
2.497 1.237 -3.182
2.241 1.687 -2.422
1.83 1.363 -3.817
2.29 1.662 -3.078
1.817 1.751 -3.528
2.232 2.14 -3.028
1.863 2.209 -3.379
1.382 0.739 -4.338
1.413 1.57 -3.947
1.095 1.128 -4.316
0.482 0.901 -4.245
0.855 1.524 -4.455
1.103 1.869 -4.167
0.989 2.064 -4.14
1.404 2.01 -3.684
1.315 2.161 -3.664
2.007 0.383 0.735
1.766 -0.192 1.22
2.031 0.236 1.284
1.991 -0.414 1.693
2.267 0.032 1.759
2.675 -0.196 2.083
2.074 0.941 0.928
2.088 0.713 1.449
2.326 0.528 1.931
2.749 0.417 2.295
1.884 1.434 1.198
1.926 1.135 1.68
2.158 0.967 2.172
2.541 0.959 2.592
1.624 1.884 1.117
1.755 1.469 1.75
1.503 1.904 1.671
1.842 1.579 2.299
1.557 2.073 2.21
1.11 2.216 1.58
1.886 1.845 2.759
2.132 1.224 2.493
2.174 1.477 2.929
2.585 1.225 3.051
1.814 2.002 3.263
2.105 1.625 3.407
2.513 1.382 3.555
1.633 2.033 3.763
1.933 1.655 3.881
2.331 1.413 4.055
1.359 1.937 4.21
1.674 1.563 4.305
2.058 1.316 4.502
1.021 1.721 4.561
1.354 1.359 4.638
1.72 1.101 4.853
0.651 1.408 4.781
1.002 1.062 4.847
1.35 0.788 5.074
0.073 1.245 4.841
0.82 0.891 4.947
0.23 0.725 5.008
0.672 0.387 5.179
1.205 0.294 5.301
0.564 -0.173 5.245
1.099 -0.256 5.367
-1.999 2.782 0.776
-1.065 -1.824 1.176
1.419 -0.545 0.696
1.7 -0.166 -0.791
-3.196 2.043 -0.114
-3.592 1.578 -0.026
-3.592 1.985 0.326
-3.196 2.357 0.319
-3.592 2.137 0.843
-3.196 2.469 0.843
-3.592 1.985 1.36
-3.85 1.69 0.843
-3.85 1.435 1.283
-3.592 0.264 0.574
-3.85 0.672 0.843
-3.85 0.927 0.403
-3.592 0.555 0.121
-3.592 1.045 -0.103
-3.85 1.435 0.403
-3.94 1.181 0.843
-3.85 0.927 1.283
-3.592 0.555 1.565
-2.722 -1.154 1.098
-2.722 -1.154 1.636
-2.722 -0.863 2.089
-2.326 -1.497 1.099
-2.482 0.597 -1.975
-2.482 0.047 -1.975
0.763 3.18 -0.086
0.367 3.4 -0.61
0.367 3.512 -0.086
0.367 3.4 0.438
-0.118 3.59 -0.615
-0.118 3.688 -0.086
-0.634 3.59 -0.615
-0.634 3.688 -0.086
-1.119 3.512 -0.086
-1.119 3.4 -0.61
-1.119 3.086 -1.043
-0.667 3.796 3.018
-0.667 3.906 2.497
-1.198 3.918 2.998
-1.198 3.65 3.431
-1.198 3.918 1.996
-1.198 4.012 2.497
-1.729 3.906 2.497
-1.729 3.796 3.018
-1.729 3.482 3.449
-1.729 3.796 1.976
-2.179 3.606 2.497
-2.179 3.474 2.987
-1.895 1.335 4.734
-2.426 1.603 4.572
-2.426 1.073 4.627
-2.426 2.064 4.305
-2.876 2.056 3.843
-2.876 1.697 4.202
-2.876 1.207 4.334
-2.876 0.717 4.202
-2.426 0.566 4.463
-3.176 1.738 3.353
-3.176 1.472 3.813
-3.176 0.942 3.813
-2.876 0.358 3.843
-3.176 0.676 3.353
-3.282 1.207 3.353
0.578 -2.491 4.272
0.08 -2.472 4.525
0.08 -2.776 4.08
0.578 -2.727 3.81
0.08 -2.934 3.566
0.578 -2.808 3.297
0.08 -2.934 3.028
0.578 -2.727 2.784
0.08 -2.776 2.514
0.08 -2.052 4.861
-0.44 -2.052 4.861
-0.44 -2.472 4.525
-0.44 -2.776 4.08
-0.44 -2.934 3.566
-0.44 -2.934 3.028
-0.44 -2.776 2.514
-0.44 -1.551 5.057
-0.938 -1.149 4.956
-0.938 -1.662 4.875
-0.938 -2.124 4.639
-0.938 -2.491 4.272
-0.938 -2.727 3.81
-0.938 -2.808 3.297
-0.938 -2.727 2.784
-0.938 -2.491 2.322
-1.374 -1.149 4.675
-1.374 -1.677 4.571
-1.374 -2.124 4.272
-1.374 -2.423 3.825
-1.374 -2.527 3.297
-1.374 -2.423 2.769
-1.714 -1.289 4.273
-1.714 -1.795 4.042
-1.714 -2.095 3.575
-1.93 -1.406 3.742
1.624 -1.33 -0.389
1.408 -1.719 -0.089
1.408 -2.019 -0.556
[...]
CELL_DATA 1420
SCALARS cell_data_0 double
LOOKUP_TABLE default
1.89888589297e-08
3.29795977609e-09
2.39502649452e-09
1.57504865993e-08
4.70063103615e-08
9.65432980938e-09
3.95048893215e-08
2.08002835335e-08
1.60141910609e-08
8.08299915211e-09
8.33912235639e-08
6.96218791766e-08
1.39853266178e-07
4.14408867328e-08
7.50301316512e-09
5.81956620904e-09
1.03135698695e-08
8.38089285602e-08
5.32612133122e-08
6.65973973595e-08
6.83097368199e-08
1.27541767135e-07
4.14823037041e-08
3.94072544931e-08
2.65268044892e-08
1.22989427135e-08
6.90516720032e-08
7.44680111071e-08
7.83920115869e-08
1.00929663171e-07
7.64080592468e-09
4.39862592029e-08
4.60659178744e-09
1.87638529746e-08
1.8958815164e-08
9.26537631344e-09
2.83430555986e-08
1.78179037698e-08
2.2695538564e-09
2.34477835665e-08
1.23526039111e-08
6.12297690727e-09
2.59701930081e-09
1.17691924928e-08
1.35136909757e-08
4.35600974863e-09
3.59629947428e-09
7.26678216836e-09
3.03753838667e-08
2.28306137023e-09
3.28626990604e-08
3.53737106141e-08
4.32460718468e-09
8.00895112061e-09
1.09167806695e-09
9.70339040736e-09
7.75506994776e-09
1.03690769307e-08
2.22318356252e-08
1.75371282291e-08
3.6178417767e-09
6.41393263219e-09
1.89504070934e-08
6.70068792149e-08
3.51474562917e-08
5.57441121796e-08
2.63357669261e-07
1.61742661528e-07
9.17279648239e-07
8.12016871497e-08
5.53142359218e-08
1.59106657725e-07
2.70333413298e-07
1.28169449932e-07
9.35458167119e-08
3.88017678545e-08
1.33605797322e-07
5.23808351456e-08
1.00279294459e-07
4.64999957598e-08
4.45937852713e-08
3.41022379931e-08
2.31913029117e-09
6.89282372725e-08
1.05720039538e-07
2.90688422533e-08
2.2500639483e-08
2.62796253037e-08
4.22711674852e-08
2.85918947374e-09
6.98447105841e-08
6.35871589231e-08
1.69995483163e-08
1.46973886937e-09
5.02653621309e-08
3.36921496382e-08
1.67960069424e-08
2.96138752844e-08
5.38206469579e-08
5.92935174111e-08
1.72657570915e-08
8.90770819343e-09
9.93166827167e-10
8.09748754541e-08
4.05750110632e-08
5.03935867678e-08
1.17304517075e-08
3.34744418606e-08
6.72123766031e-08
7.63835284083e-08
8.44790696438e-08
3.64957140416e-08
1.5321590001e-07
1.71725073728e-08
9.33863277288e-08
1.37582111406e-07
8.65583234461e-09
8.52798188896e-08
2.68869868495e-08
3.4666686185e-08
1.09067722746e-07
8.24346134055e-08
4.0705120897e-08
7.26898450788e-08
2.06614215233e-08
3.50636728882e-08
2.22357435671e-08
3.94691604041e-08
2.88052864759e-07
1.274261143e-07
3.25008254156e-07
7.12013503795e-09
1.19463091953e-07
4.59979832878e-09
4.28943846074e-08
8.94582189776e-08
1.44069381267e-07
1.64179738237e-06
2.35567586192e-09
3.65904934281e-08
3.15829230055e-07
1.90724136586e-07
6.0702052658e-08
5.19326371251e-08
2.32176780659e-08
8.71183722928e-08
2.14799348977e-08
2.52503440343e-08
5.65278818091e-09
6.78914305507e-09
1.18716704678e-08
9.04490853673e-09
2.45238222925e-09
2.57338797692e-08
1.86220583745e-08
7.84180792402e-08
1.99359212323e-09
1.85736143092e-08
1.58274834934e-08
2.29077220292e-08
5.1343972802e-09
5.88340294733e-09
3.06321524837e-09
9.48202027253e-09
8.32122790989e-09
7.71966369438e-09
8.06926157127e-10
8.22152233128e-09
1.04769803464e-08
1.46665028448e-08
5.27954055032e-09
6.55711539415e-09
3.0321264784e-09
3.16972373778e-08
3.09184620323e-08
3.31388912988e-08
9.12055137243e-10
2.58171969358e-08
1.03685559873e-07
2.22841011788e-07
1.09369361953e-08
1.33854583078e-08
3.14123351204e-08
1.27273244044e-07
2.81898544594e-09
1.52485748006e-08
3.01776251706e-09
2.54591699741e-09
5.97573730814e-10
6.64835693743e-09
5.03844830579e-09
4.33232004655e-09
8.5171999987e-09
1.48379313583e-08
2.79885037991e-08
4.54346175061e-08
7.10914765262e-09
2.37503838457e-08
1.64084949801e-08
4.87482105528e-09
1.17467804004e-09
8.77426340787e-11
3.96223498704e-09
1.11840815684e-09
6.37128898782e-09
4.68471747276e-09
2.50146562738e-09
9.6150018441e-09
1.25907319155e-08
1.60195433068e-08
5.09254934209e-09
2.3628627462e-08
1.08722059032e-09
8.95542697597e-09
1.22638026244e-08
1.56639242634e-09
3.69077192707e-09
5.12197913655e-08
1.08849290131e-07
3.41999242909e-08
4.34441792397e-08
1.15564331491e-07
2.33430687446e-07
2.11897178854e-07
1.36200346825e-07
3.01849210433e-07
1.73511049276e-07
4.90585541811e-07
5.92907066711e-08
1.47416722643e-09
4.17964011891e-08
5.65916581792e-09
2.46067405021e-08
1.43846689304e-09
2.73501434577e-08
4.31663055944e-08
5.6107972563e-09
1.15742650007e-07
1.90042944787e-08
8.16146940467e-08
1.56920585159e-07
2.76508178006e-07
1.24564432343e-07
3.31976506495e-08
1.4272227616e-07
1.56620733718e-07
1.02912431242e-07
1.07565217078e-07
2.55507470986e-07
6.87414613704e-08
2.07201557528e-08
1.02013276634e-06
1.36951590334e-07
4.57396754584e-09
1.08346166985e-07
3.00505646794e-07
1.84669525398e-08
1.50906700462e-08
3.43737082321e-08
3.81567895512e-08
8.51267658924e-08
6.00204847789e-08
1.45437639921e-07
3.6667789365e-08
3.53506319659e-07
6.92097160374e-08
8.71054314402e-08
4.61060014791e-09
3.78117412198e-08
1.46201485804e-08
1.49153887869e-07
6.0926641984e-08
5.14200924255e-08
9.75251195097e-09
3.46897208794e-08
5.05370690857e-08
9.99660573807e-08
2.51084149213e-08
7.26331907792e-08
1.19261528756e-08
8.70246059374e-08
5.94493361883e-08
7.28387713129e-08
6.34278740533e-08
3.82030380734e-07
1.73956990104e-07
5.86514569049e-08
3.86561232788e-08
2.067647087e-08
5.72204122806e-08
7.12315122144e-09
4.52002739679e-08
6.60675079522e-08
8.58847474506e-08
2.57673788422e-09
6.79177644558e-10
2.74864285975e-08
7.84937648894e-08
1.03183232979e-07
1.3161860345e-07
1.44726696156e-08
9.62087352106e-08
7.67115948557e-09
1.26787519993e-07
2.56367579444e-08
8.04567636553e-08
3.71315249082e-08
1.05814440893e-07
3.79299081407e-08
6.54148176482e-08
7.45534765212e-08
7.38058875598e-08
6.09439384976e-08
4.36753651873e-08
1.20167488196e-07
6.19348323265e-08
7.61450584675e-08
2.329493997e-08
1.8981963004e-07
5.88012835815e-09
8.74963340863e-08
2.17520224101e-08
2.82349203087e-07
1.05698125244e-07
1.85954914718e-08
3.52835983333e-08
4.65464407505e-08
3.06845335145e-08
8.26591908169e-09
3.64585959944e-08
2.0196804105e-10
5.39078728488e-08
3.58846544668e-08
5.99028354479e-09
5.88745148942e-09
1.08701090025e-08
8.11956034296e-08
1.10147969908e-07
1.77217294849e-07
4.78542925396e-08
2.63934050201e-07
8.634190011e-08
4.73355908944e-07
4.27201876708e-07
5.90256174606e-07
9.78333818306e-07
2.97476818431e-08
8.31380187122e-07
1.62758165587e-06
3.90704628032e-08
1.45618910393e-07
5.84327729664e-08
5.78856340379e-07
2.77551248191e-07
4.12596085153e-09
3.11566218472e-08
3.99417512607e-08
1.39346189453e-06
7.97516716879e-07
1.32074994003e-06
9.14539239386e-07
6.80549039163e-08
1.65080842724e-07
9.52956946363e-08
8.64790695724e-08
5.55608745459e-08
4.82709684948e-08
4.60969624206e-08
5.1142461067e-08
1.2897756522e-08
1.6154493255e-07
7.06964825793e-08
1.1401597515e-08
2.49151827271e-08
5.73198283347e-08
7.84031900403e-08
1.56497342719e-07
4.59714300527e-08
2.82389685373e-07
1.0236942197e-06
1.87278412316e-07
6.34868327054e-07
6.3729975092e-08
1.11551664991e-06
1.50770507532e-06
6.7674419485e-08
5.51125975885e-07
4.59570457012e-07
9.30166992803e-07
2.58141077396e-07
3.49238150439e-07
1.48000980308e-07
3.92861252614e-08
1.64466069397e-08
2.47953924773e-08
1.59183450723e-08
1.53676543614e-08
8.10287640088e-09
2.19039128012e-11
2.58610217361e-08
9.44058465699e-09
1.87621363626e-08
1.90702939182e-08
3.86652677453e-08
7.76969378052e-08
2.24558343919e-08
1.92132753189e-08
5.22464098887e-09
2.30599517411e-08
1.44940429889e-08
1.05393081525e-07
2.41666892812e-09
4.26785002281e-08
6.60242085531e-08
4.49194466813e-08
1.94466238728e-08
8.29858468994e-09
6.73675276667e-08
6.65258291179e-08
4.74704755718e-08
2.2676365755e-07
7.63070652647e-08
1.3631536516e-07
2.1753582014e-07
1.58013139475e-07
5.99153481981e-08
9.12590679206e-08
1.49850386948e-07
1.74420230249e-08
6.82992297503e-08
4.66504840822e-07
1.43651468614e-07
5.57632857436e-08
1.55524366533e-07
3.6654734183e-07
1.01043380642e-08
6.01574976563e-08
1.04172972475e-08
1.10269515843e-07
2.55772178711e-08
7.10431332662e-09
8.77614517612e-09
3.39751214116e-09
2.58722541015e-08
1.64888899578e-08
1.4847529247e-09
1.38450754822e-08
1.54338975337e-08
6.19525652476e-09
6.85875510597e-09
2.77861054257e-09
3.54292011932e-08
1.20113170219e-08
1.84003335779e-08
3.19838330326e-09
6.2117726207e-08
8.65143119342e-08
5.67775385258e-08
1.5827054048e-08
4.48672817917e-08
5.04009851529e-08
1.67635352325e-08
1.12978196899e-08
6.56887098853e-08
2.34218431639e-08
8.45342914569e-08
1.71493914782e-08
1.55734471086e-08
2.55453534704e-08
3.3618416249e-08
7.81347106827e-09
2.85811147328e-09
1.61608697312e-08
4.75055100012e-09
8.62579043299e-09
1.11367776518e-08
1.11991327525e-08
1.10278290924e-08
1.1168204558e-08
1.89278746518e-08
2.03344486549e-08
1.61534244497e-08
3.14319122406e-08
1.89130854689e-08
3.25587243524e-08
4.51048602978e-07
7.91160587794e-07
3.83741307849e-07
7.59883255987e-07
3.33019424001e-08
3.21061022977e-08
7.47137046164e-08
1.28785094839e-07
2.66305806764e-09
1.21893993737e-08
2.65857362866e-08
5.87114021997e-08
3.50101080943e-08
9.87294191177e-09
2.24735835164e-08
3.00726908948e-08
3.98033007087e-08
3.58885249438e-08
5.71663750215e-08
5.78782444098e-09
8.89051335008e-08
5.79659556955e-08
9.01836391695e-08
1.20306468742e-07
1.28955674677e-08
1.51231616943e-07
1.09705683269e-07
7.39088928253e-07
2.26791856383e-07
9.08274846238e-08
1.80397937012e-07
7.53308027843e-07
1.61948731403e-07
2.82567032164e-07
1.5181148036e-07
9.03825581165e-08
1.39271827643e-07
4.55910056573e-08
8.18622341118e-08
1.31695463539e-07
2.18099880795e-08
1.53377293821e-08
2.80008693888e-08
3.55672020324e-09
5.75269096093e-08
7.76878289983e-09
5.41250747929e-09
3.20697251561e-08
6.0358898961e-09
1.1543567026e-08
9.94548588153e-11
4.01979500338e-09
1.62700723004e-09
1.93090387197e-08
2.03710985076e-09
6.09044156928e-10
3.88842344357e-08
8.02650997315e-09
1.86249171201e-09
4.3909244346e-09
1.87954870895e-10
1.84788850988e-08
1.22320896003e-08
1.13231433997e-08
8.93214293198e-09
2.00162918895e-07
1.58401165954e-07
4.89682916764e-08
2.24347172245e-08
1.90485586201e-08
3.78361217748e-08
2.27774539702e-08
4.21650427275e-08
5.12164666612e-08
2.13343464224e-07
1.02335080844e-07
3.21360367535e-08
3.37391765399e-08
9.31545243342e-08
6.11140612687e-09
8.68866178151e-08
2.37133460933e-08
6.89692795785e-08
9.55181546839e-09
1.0811587919e-08
5.10052287593e-08
4.78473727757e-09
2.05418337073e-08
1.4914365434e-08
2.12576822738e-07
4.14807774082e-07
9.26665511508e-09
1.12698782286e-06
4.30846210296e-07
3.32756986277e-08
2.51970182646e-07
2.78654719084e-07
7.75128966926e-07
2.83719582489e-07
4.16045384627e-07
8.22454715442e-09
3.91577198239e-09
6.98928211392e-08
2.66142409123e-08
7.66719949149e-09
4.15405616707e-08
2.05233598458e-07
1.53980512496e-07
6.13789257468e-08
6.27837984252e-08
3.79872999879e-08
1.54379944539e-07
5.75579305175e-08
3.06203699458e-08
1.342036155e-08
1.16317456283e-08
5.37812850003e-09
2.3831929034e-09
4.04767445323e-09
1.14998420232e-08
1.87944949041e-09
1.58386203457e-09
2.49164066201e-09
4.38957853827e-09
2.98353513998e-09
2.66341150688e-09
4.30995417093e-09
3.49596826047e-10
2.98307471863e-09
1.92821329179e-09
1.50855654438e-09
8.97685505904e-10
3.09321538106e-11
1.56873497162e-09
1.63169144336e-09
5.76584383939e-10
1.23449820424e-08
2.71351007675e-10
8.15867904494e-09
6.35528527443e-09
3.31961204344e-09
1.02801913131e-09
3.04848631905e-09
7.39109459537e-09
8.50396530096e-10
1.44742219113e-09
3.8555754248e-09
8.21365781291e-09
1.54521389807e-10
5.96713748094e-09
2.52784296926e-08
1.80233943072e-08
2.22167125593e-08
1.48511180263e-08
1.10570203698e-08
1.11118488715e-08
4.06106649451e-09
1.15492495439e-08
2.63381703945e-08
1.65275227772e-09
2.28786906901e-08
2.250225146e-09
6.5337341104e-09
1.05266532159e-08
1.2511224063e-08
2.1598717709e-09
1.40142816738e-08
2.32112920099e-08
4.28816892578e-10
2.08105789784e-08
1.3856275757e-08
4.10901555503e-08
3.72557520514e-08
3.53832167124e-08
1.85475801891e-09
5.09918370218e-08
1.4520536694e-08
8.02201584852e-08
2.28006886714e-09
4.17813758521e-08
4.19436070719e-08
5.47346660334e-08
8.06567446063e-09
1.71386774606e-08
4.84129053081e-08
7.71703613532e-08
1.66111359514e-08
1.26161028564e-07
7.08354656335e-08
5.34991594198e-08
1.03605425503e-07
4.05111205941e-08
7.20960345487e-08
2.96390879374e-08
6.23255544537e-08
1.66457158829e-08
1.82017061013e-07
9.139910986e-08
1.06668196826e-08
3.22002887137e-08
7.50075245656e-08
7.9071632055e-09
2.24232215936e-08
2.05131993652e-08
6.76907688089e-09
2.52584904455e-10
1.81097528759e-09
4.84565797594e-09
3.72827284607e-10
2.77031271242e-09
6.01304504317e-09
4.26379751843e-09
1.00241917685e-08
1.52066476404e-08
1.46479421008e-08
1.37566391785e-08
4.22977318281e-09
1.23094661335e-09
5.82740188821e-09
7.17957804053e-09
4.42865094428e-09
2.49633254088e-09
4.36272150681e-08
2.08925796387e-08
3.61237097726e-08
4.67263600515e-08
7.91186098548e-08
1.35944200195e-07
2.51284095325e-08
2.99107339035e-08
1.21861770405e-08
3.52169090176e-08
4.03641329544e-08
2.26991549009e-08
8.45385092303e-08
4.14113429231e-10
1.98011362921e-09
5.03127850489e-09
3.18604815928e-09
1.03622170838e-09
3.43524073271e-10
2.41159829033e-09
4.09041319451e-10
1.76087016305e-10
5.00598399289e-10
2.71660342932e-10
6.9335613962e-10
1.91726690169e-09
1.07931368905e-08
1.50475425006e-09
1.78028042904e-08
3.10544193557e-09
7.95181346399e-09
3.27766352101e-09
4.87253862925e-09
6.27859280061e-09
1.12444279496e-09
4.77738607916e-10
6.73598346961e-09
6.61316075308e-09
1.31671693546e-10
1.53678337123e-08
4.59280419328e-09
1.26511201287e-08
4.09218660594e-09
2.9112857481e-09
2.46894575581e-09
1.10675393675e-08
1.42244721739e-08
2.11129595426e-09
1.87583697502e-08
2.4437180472e-08
7.4115361783e-09
4.01623020428e-09
1.10515306462e-09
5.20720529674e-09
6.51084558587e-09
4.84599778662e-09
8.64865382396e-09
9.42883596258e-09
1.31134192271e-08
1.79209108713e-08
1.06080507927e-08
1.49152888021e-09
4.4145620011e-09
1.25425932932e-09
1.31988962906e-09
2.04902052919e-09
1.23070007874e-08
7.42763424405e-09
4.55107665097e-09
2.03282291344e-09
6.3530842663e-09
1.37787083989e-09
1.58566328184e-08
4.59461051595e-09
2.41981771053e-09
1.80550605855e-09
2.53204259841e-09
4.69430794399e-09
7.36341831595e-09
1.74804548692e-08
1.99583407793e-08
1.04448424139e-09
4.17965082079e-09
1.93033262817e-09
5.64245933876e-09
3.02864693425e-09
2.96551286188e-09
1.47155953498e-08
8.54497649036e-09
5.56301723964e-09
8.10676823768e-09
3.0438221214e-10
1.70612986558e-08
2.4624786604e-09
3.35510784288e-09
5.07322529912e-09
7.29043937645e-10
7.94265286869e-09
1.06519021985e-09
1.1803893975e-08
1.53769268906e-09
2.84867292821e-09
1.76082591722e-08
1.79781719391e-07
4.27224563107e-08
3.67148983173e-08
4.47021802899e-07
2.18738215501e-07
1.20722269713e-07
1.90092624399e-07
6.20928548947e-08
1.41813970094e-07
1.85105649921e-08
2.62861459265e-07
4.71749403215e-07
3.61626096683e-07
7.45850263177e-07
6.61685417431e-07
2.58468490315e-07
1.92703213505e-07
5.49012640308e-09
3.22675844924e-08
1.43986702786e-08
8.34072683147e-08
6.95912864724e-08
1.15302588295e-07
1.81401042021e-07
2.96581663222e-08
1.75385349297e-07
8.89211996885e-08
5.67594063485e-08
5.50149432633e-09
3.10790520396e-08
3.09439384799e-10
1.31169931547e-08
1.4205199508e-08
4.93975746063e-11
1.68494841084e-08
3.66465861988e-09
2.30601642271e-08
1.94620621951e-08
1.37513809031e-08
1.0822386673e-08
7.05625737795e-09
2.18604227297e-09
1.73888256768e-08
6.8380814021e-08
9.93667651819e-09
1.78715373916e-08
3.06022857683e-08
2.74599355714e-08
9.4233786012e-08
4.89902145419e-08
2.1517339429e-07
3.8005434611e-07
9.54764287172e-08
1.62533252339e-08
4.33159367576e-08
7.49673509276e-09
4.07888275602e-08
1.34094352229e-08
2.10385892076e-08
1.52076392989e-08
7.44137392976e-08
1.80916487464e-07
3.44121278513e-07
1.53109245249e-07
1.6361384048e-07
2.34614302141e-08
2.85969109672e-07
2.9097968178e-07
2.72237954454e-07
4.07934679227e-07
1.81819486252e-07
2.99136137277e-07
5.65816771708e-08
1.21940937229e-07
1.04784098915e-08
6.71575334774e-08
3.30560956018e-09
2.17021742003e-08
1.09576648238e-08
3.48069461408e-08
1.06398769114e-07
1.57942340913e-08
4.26483722359e-08
2.46389962466e-08
1.11994528232e-07
1.47467146026e-07
2.53549567399e-07
1.12897483316e-07
3.58678099752e-08
8.43059105928e-10
2.11545073145e-08
5.37569734171e-09
1.0678862134e-08
1.73319953672e-09
2.04522682976e-09
5.39995810838e-09
3.0502842071e-09
2.31468279712e-09
1.87864850742e-08
2.27352384996e-10
9.33568218363e-10
2.69346712055e-09
5.13351484008e-09
2.76531297547e-09
2.79826434683e-10
2.74891881844e-08
5.79778780353e-09
1.91988852182e-09
2.2235173001e-09
2.75434817245e-09
1.47450509532e-09
7.63205214312e-10
1.02966905986e-09
1.11208463835e-09
7.54135251004e-09
3.9265928377e-09
1.24382103768e-08
2.06743565627e-09
4.30890531891e-09
4.15350719408e-10
4.51540399812e-09
2.15543788762e-10
7.61101422329e-10
8.92649525473e-09
2.7316122874e-09
4.73021860392e-09
2.75735022633e-09
3.71938738368e-10
4.09061264569e-09
1.81603212257e-09
1.82142262229e-08
7.53941719959e-09
6.19635408791e-09
1.52452211355e-08
6.45140407587e-09
1.15627549342e-08
1.33372761688e-08
3.7445500601e-08
8.91760820626e-09
1.39024386838e-08
1.08549183424e-08
3.31270494824e-08
1.95675979314e-09
1.50376636031e-08
6.33206226676e-09
7.29396317628e-09
1.11255627392e-08
7.74752438875e-09
1.69115376178e-08
1.24971495213e-08
2.13164384744e-08
4.44891944134e-08
4.26027161257e-08
2.13511735714e-08
6.48532686558e-09
5.97046494186e-08
1.13190790127e-07
1.69986399175e-07
2.34199155651e-07
2.61613631215e-07
2.02984073657e-08
5.25230711897e-08
3.74637265543e-08
3.22753146892e-08
4.25943825135e-08
1.93640579622e-08
7.62566153449e-08
1.59131259764e-08
2.09114469539e-09
2.19135144907e-08
2.92910787406e-09
3.365369653e-08
2.95782481426e-08
1.91077175908e-08
2.61431507639e-08
3.32032723598e-09
3.67297517902e-08
1.13888974935e-07
1.0320381402e-07
8.3342377678e-08
7.97633798642e-08
1.77804067054e-07
1.6065996903e-07
1.91380557252e-07
4.41961197273e-07
4.56111715954e-08
1.87482843411e-08
4.7258552967e-08
5.06610205537e-08
1.5049517061e-07
1.002124031e-08
1.63818664303e-08
7.62309755835e-08
1.52543477375e-07
1.69326748395e-08
9.41037310439e-09
6.76212717068e-08
5.98154384639e-09
5.12507199826e-08
3.65836731366e-07
3.98487633156e-08
7.74277988146e-08
2.35761200595e-08
4.24097708417e-08
1.31247269083e-07
3.27188669446e-07
7.62288020314e-08
4.33923857837e-09
2.94532426159e-08
2.82619142152e-08
8.04679542473e-09
2.89194296851e-09
3.04881460787e-08
2.76253959029e-08
2.57164719145e-08
1.20721287675e-08
1.63737787093e-08
1.17853539014e-08
1.20764057294e-08
1.08623498383e-08
6.17938858052e-07
5.55457481466e-07
6.62638808757e-07
2.51396092064e-07
1.98573480891e-07
1.46047095633e-07
6.07447051085e-08
1.29844963656e-08
1.445045166e-08
1.07932694404e-08
2.68510254043e-08
3.73426726811e-08
2.97257108053e-08
1.37175277985e-07
2.8823753814e-07
3.12379920101e-07
2.13410678307e-07
3.2249388689e-07
6.38624762775e-07
5.06200010681e-08
1.42540145076e-07
8.61089857179e-07
1.48030135997e-07
3.22235396848e-09
1.32688625801e-07
3.45563641807e-07
5.17790103039e-08
8.31688451351e-09
4.02386670199e-09
5.45069781758e-08
6.68601416803e-09
2.83195765833e-09
1.72821984464e-08
6.24882656587e-08
1.82004867132e-09
3.09806555203e-07
3.81251640043e-07
1.6881735747e-08
1.35084253122e-08
4.47900515308e-08
4.47132483302e-08
2.58810259026e-08
1.19330264843e-08
2.83606031146e-08
6.59282779459e-09
9.65420718572e-09
1.05752986918e-08
1.00007185635e-08
3.41482415355e-08
1.03544199564e-07
8.72439717364e-08
4.37119176073e-09
5.91177138442e-09
9.53193731138e-09
4.707998401e-08
6.11116664515e-09
3.96616063388e-08
1.14328955373e-08
1.77180895496e-08
7.09265898659e-09
3.7532202211e-08
8.78131324685e-09
4.08579964727e-08
1.79179853215e-07
1.5115255104e-07
1.36392424579e-07
1.71856963088e-07
3.916990138e-07
1.57823910717e-07
8.57863750767e-08
2.07166224529e-08
1.20808846071e-08
1.29439093638e-08
6.82401770016e-09
2.88051706767e-08
1.19211317114e-07
2.40035726595e-07
1.43265315278e-07
2.89786851408e-08
2.42359530347e-08
6.43415370022e-08
1.27181040532e-08
2.81217694004e-09