# vtk DataFile Version 3.0
File Name: Molecule/arg/arg_0.5-5.vtk
ASCII
DATASET UNSTRUCTURED_GRID
FIELD FieldData 1
TIME 1 1 double
0.0
POINTS 164 double
-3.403 0.327 1.604
-2.971 0.024 0.066
-2.981 -0.361 1.858
-2.549 -0.664 0.32
-2.984 0.046 0.042
-2.2 -0.483 -0.862
-2.216 -0.458 -0.889
-2.776 1.74 -0.497
-2.39 -0.269 -1.153
-2.211 1.177 -1.613
-2.622 1.932 -0.429
-1.982 1.439 -1.492
-1.81 1.654 -1.416
-2.495 2.657 0.67
-1.615 2.438 -0.879
-1.488 3.163 0.22
-3.186 2.284 1.521
-1.863 3.333 1.507
-2.53 2.972 2.328
-3.419 1.801 1.788
-2.717 2.558 2.345
-2.979 2.017 2.644
-3.408 0.559 1.798
-3.107 1.793 3.017
-3.095 0.593 3.027
-3.105 0.348 2.085
-3.1 0.088 1.867
-2.97 0.105 2.152
-2.978 0.383 3.085
-2.865 -0.346 2.113
-2.52 -0.7 2.425
-2.645 0.041 3.387
-1.592 -1.721 1.268
-2.003 -1.142 3.367
-0.984 -2.263 2.097
-2.487 -0.785 0.321
-0.96 -2.23 0.303
-1.943 -1.202 -0.738
-2.131 -0.618 -0.861
-2.114 -0.682 -1.181
-1.927 -1.264 -1.052
-2.312 -0.441 -1.376
-2.121 -0.506 -1.916
-1.682 -1.348 -1.746
-1.897 0.192 -2.527
-1.864 -0.768 -1.888
-1.57 0.147 -2.691
-2.011 1.039 -2.18
-1.198 0.386 -3.152
-1.348 1.496 -2.696
-1.72 1.257 -2.235
-1.479 1.817 -1.75
-1.107 2.057 -2.211
-1.319 2.584 -1.178
-0.816 3.013 -1.267
-0.543 2.537 -2.312
0.466 3.148 -0.891
-0.048 3.337 -3.001
0.699 3.415 -2.782
1.057 2.557 -0.305
0.892 2.689 -1.891
1.553 2.026 -1.234
0.737 2.845 0.68
1.539 1.918 0.039
1.22 2.206 1.024
0.406 3.093 0.833
1.112 2.426 2.108
0.748 2.699 2.276
-0.034 3.266 2.099
-0.687 3.194 3.654
0.006 2.617 4.044
-1.995 3.111 3.523
-0.58 2.815 3.881
-2.096 2.719 3.73
-1.061 1.806 4.483
-0.466 1.628 4.634
-2.128 2.66 3.763
-1.452 1.611 4.604
-2.373 2.347 3.982
-1.464 1.095 4.666
-0.48 1.041 4.705
-1.655 0.731 4.634
-0.333 0.517 4.869
-0.555 0.096 4.831
-0.878 -0.357 4.785
0.164 -1.171 5.088
0.507 -0.734 5.141
0.93 -2.454 3.923
1.043 -0.806 5.264
1.809 -2.089 4.099
1.037 -1.846 2.131
1.061 -1.813 0.337
1.48 -1.078 0.031
1.916 -1.481 2.307
2.335 -0.746 2.002
1.639 -0.712 -0.547
1.697 -0.118 0.66
1.842 0.216 0.134
1.085 -2.024 -1.812
2.201 -0.141 -1.444
1.67 -1.4 -2.657
-0.548 -1.409 -2.576
0.104 -0.811 -3.39
-0.822 -1.287 -2.506
-0.336 -0.591 -3.197
-0.616 -0.466 -3.125
-0.988 -0.705 -2.664
0.101 0.716 -4.098
0.516 0.418 -4.238
-0.398 1.946 -3.588
0.377 1.347 -4.4
0.117 1.987 -4.134
0.028 3.029 -3.665
0.9 3.106 -3.671
0.989 2.064 -4.14
0.819 3.383 -2.845
1.749 2.404 -3.353
1.668 2.681 -2.526
1.123 2.627 -2.01
2.133 1.624 -1.992
2.194 2.159 -2.516
2.042 0.907 -1.262
2.428 1.273 -2.257
2.342 0.599 -1.57
1.976 0.918 0.014
1.83 1.363 -3.817
1.863 2.209 -3.379
1.103 1.869 -4.167
1.884 1.434 1.198
2.541 0.959 2.592
1.842 1.579 2.299
0.651 1.408 4.781
0.82 0.891 4.947
1.35 0.788 5.074
-3.94 1.181 0.843
-1.891 3.826 2.497
-2.589 1.578 4.495
-1.092 -1.939 4.665
0.786 -2.653 -0.834
3.668 -0.309 3.703
2.756 0.481 5.071
2.756 -1.099 5.071
2.093 -0.513 -4.015
-0.027 -2.3585 3.01
-1.038 -2.101 3.381
-0.081 -2.1965 4.294
1.2465 1.4935 3.54
0.924 2.098 3.1715
0.3285 2.0125 4.4125
1.54425 1.53625 2.9195
1.383 1.8385 2.73525
1.08525 1.79575 3.35575
1.8625 -1.785 3.203
2.7385 -1.199 3.901
2.792 -0.895 3.005
0.62625 2.05525 3.792
0.706875 1.904125 3.884125
1.004625 1.946875 3.263625
1.9455 0.8735 3.833
2.6485 0.72 3.8315
2.053 0.6345 5.0725
1.1535 1.96825 2.953375
0.9643125 2.0224375 3.2175625
1.1938125 1.8926875 2.9994375

CELLS 324 1296
3 0 1 2
3 2 1 3
3 1 4 5
3 5 4 6
3 4 7 8
3 8 7 9
3 7 10 11
3 11 10 12
3 10 13 14
3 14 13 15
3 13 16 17
3 17 16 18
3 16 19 20
3 20 19 21
3 19 22 23
3 23 22 24
3 22 0 25
3 25 0 26
3 25 27 24
3 24 27 28
3 27 26 29
3 29 26 2
3 29 30 28
3 28 30 31
3 30 32 33
3 33 32 34
3 32 35 36
3 36 35 37
3 35 3 38
3 38 3 5
3 38 39 37
3 37 39 40
3 39 6 41
3 41 6 8
3 41 42 40
3 40 42 43
3 42 44 45
3 45 44 46
3 44 47 48
3 48 47 49
3 47 9 50
3 50 9 11
3 50 51 49
3 49 51 52
3 51 12 53
3 53 12 14
3 53 54 52
3 52 54 55
3 54 56 57
3 57 56 58
3 56 59 60
3 60 59 61
3 59 62 63
3 63 62 64
3 62 65 66
3 66 65 67
3 65 15 68
3 68 15 17
3 68 69 67
3 67 69 70
3 69 71 72
3 72 71 73
3 71 18 73
3 73 18 20
3 72 74 70
3 70 74 75
3 74 76 77
3 77 76 78
3 76 21 78
3 78 21 23
3 77 79 75
3 75 79 80
3 79 81 82
3 82 81 83
3 81 31 84
3 84 31 33
3 84 85 83
3 83 85 86
3 85 87 88
3 88 87 89
3 87 90 89
3 90 34 91
3 91 34 36
3 91 92 93
3 93 92 94
3 92 95 96
3 96 95 97
3 95 98 99
3 99 98 100
3 98 101 100
3 100 101 102
3 101 103 104
3 104 103 105
3 103 43 106
3 106 43 45
3 106 46 105
3 105 46 48
3 104 107 102
3 102 107 108
3 107 109 110
3 110 109 111
3 109 55 112
3 112 55 57
3 112 113 111
3 111 113 114
3 113 115 116
3 116 115 117
3 115 58 118
3 118 58 60
3 118 119 117
3 117 119 120
3 119 121 122
3 122 121 123
3 121 61 124
3 124 61 63
3 124 97 123
3 123 97 99
3 122 125 120
3 120 125 126
3 125 108 127
3 127 108 110
3 127 114 126
3 126 114 116
3 96 128 94
3 94 128 129
3 128 64 130
3 130 64 66
3 131 80 132
3 132 80 82
3 132 86 133
3 133 86 88
3 26 0 2
3 5 3 1
3 8 6 4
3 11 9 7
3 14 12 10
3 17 15 13
3 20 18 16
3 23 21 19
3 25 24 22
3 29 28 27
3 33 31 30
3 36 34 32
3 38 37 35
3 41 40 39
3 45 43 42
3 48 46 44
3 50 49 47
3 53 52 51
3 57 55 54
3 60 58 56
3 63 61 59
3 66 64 62
3 68 67 65
3 72 70 69
3 77 75 74
3 82 80 79
3 84 83 81
3 88 86 85
3 91 93 90
3 96 94 92
3 99 97 95
3 104 102 101
3 106 105 103
3 110 108 107
3 112 111 109
3 116 114 113
3 118 117 115
3 122 120 119
3 124 123 121
3 127 126 125
3 130 129 128
3 132 133 131
3 0 22 134
3 0 134 4
3 0 4 1
3 4 134 7
3 7 134 13
3 7 13 10
3 13 134 16
3 16 134 19
3 19 134 22
3 3 35 2
3 2 35 32
3 2 32 30
3 2 30 29
3 6 39 38
3 6 38 5
3 9 47 42
3 9 42 8
3 8 42 41
3 42 47 44
3 12 51 11
3 11 51 50
3 15 65 56
3 15 56 54
3 15 54 53
3 15 53 14
3 56 65 62
3 56 62 59
3 71 69 135
3 71 135 18
3 18 135 17
3 17 135 68
3 68 135 69
3 76 74 73
3 76 73 20
3 76 20 21
3 73 74 72
3 24 28 136
3 24 136 23
3 23 136 78
3 78 136 77
3 77 136 79
3 79 136 81
3 81 136 31
3 31 136 28
3 26 27 25
3 33 137 84
3 84 137 85
3 37 40 36
3 36 40 43
3 36 43 138
3 36 138 91
3 91 138 92
3 92 138 98
3 92 98 95
3 98 138 101
3 101 138 43
3 101 43 103
3 46 106 45
3 49 52 109
3 49 109 48
3 48 109 107
3 48 107 105
3 105 107 104
3 109 52 55
3 58 115 113
3 58 113 57
3 57 113 112
3 61 121 119
3 61 119 118
3 61 118 60
3 64 128 63
3 63 128 124
3 124 128 97
3 97 128 96
3 67 70 66
3 131 75 80
3 83 86 82
3 82 86 132
3 139 140 141
3 139 94 129
3 140 88 141
3 141 88 89
3 102 108 142
3 102 142 100
3 100 142 99
3 99 142 123
3 123 142 122
3 122 142 125
3 125 142 108
3 111 114 110
3 110 114 127
3 117 120 116
3 116 120 126
3 87 143 90
3 90 143 34
3 34 143 144
3 143 145 144
3 143 87 145
3 144 145 137
3 34 144 33
3 144 137 33
3 137 145 85
3 85 145 87
3 146 131 129
3 70 147 66
3 146 148 131
3 131 148 75
3 148 70 75
3 130 149 129
3 149 146 129
3 66 150 130
3 130 150 149
3 150 151 149
3 149 151 146
3 93 152 90
3 90 152 89
3 89 153 141
3 141 153 139
3 139 153 154
3 153 152 154
3 153 89 152
3 154 152 93
3 139 154 94
3 154 93 94
3 148 155 70
3 70 155 147
3 151 156 146
3 146 156 148
3 148 156 155
3 156 157 155
3 156 151 157
3 133 158 131
3 131 158 129
3 129 159 139
3 139 159 140
3 140 159 160
3 159 158 160
3 159 129 158
3 160 158 133
3 140 160 88
3 160 133 88
3 147 161 66
3 161 150 66
3 147 162 161
3 162 163 161
3 162 157 163
3 161 163 150
3 150 163 151
3 163 157 151
3 157 162 155
3 155 162 147

CELL_TYPES 324
5
5
5
5
5
5
5
5
5
5
5
5
5
5
5
5
5
5
5
5
5
5
5
5
5
5
5
5
5
5
5
5
5
5
5
5
5
5
5
5
5
5
5
5
5
5
5
5
5
5
5
5
5
5
5
5
5
5
5
5
5
5
5
5
5
5
5
5
5
5
5
5
5
5
5
5
5
5
5
5
5
5
5
5
5
5
5
5
5
5
5
5
5
5
5
5
5
5
5
5
5
5
5
5
5
5
5
5
5
5
5
5
5
5
5
5
5
5
5
5
5
5
5
5
5
5
5
5
5
5
5
5
5
5
5
5
5
5
5
5
5
5
5
5
5
5
5
5
5
5
5
5
5
5
5
5
5
5
5
5
5
5
5
5
5
5
5
5
5
5
5
5
5
5
5
5
5
5
5
5
5
5
5
5
5
5
5
5
5
5
5
5
5
5
5
5
5
5
5
5
5
5
5
5
5
5
5
5
5
5
5
5
5
5
5
5
5
5
5
5
5
5
5
5
5
5
5
5
5
5
5
5
5
5
5
5
5
5
5
5
5
5
5
5
5
5
5
5
5
5
5
5
5
5
5
5
5
5
5
5
5
5
5
5
5
5
5
5
5
5
5
5
5
5
5
5
5
5
5
5
5
5
5
5
5
5
5
5
5
5
5
5
5
5
5
5
5
5
5
5
5
5
5
5
5
5
5
5
5
5
5
5
5
5
5
5
5
5
5
5
5
5
5
5

CELL_DATA 324
SCALARS cell_data_0 double
LOOKUP_TABLE default
1.14778203605e-07
5.19685061237e-08
2.79721126821e-07
2.2457101702e-07
3.68690669146e-07
9.14360624369e-07
3.51235015544e-07
6.03325056294e-07
2.16241986267e-07
2.24932563869e-07
9.37577541482e-08
1.54368953308e-07
9.88817825237e-09
4.27390465634e-09
3.69751928544e-08
4.12137170957e-08
1.20417123209e-08
3.70730382602e-08
9.02377969634e-08
1.10391242741e-07
6.69245293763e-08
2.37729472188e-08
3.72102993738e-08
1.20211178669e-07
6.28009626185e-06
1.80853198834e-05
2.96836241094e-07
5.02431384645e-07
1.86757512143e-07
3.08984366405e-07
6.30399267369e-08
8.37333478394e-08
1.51812681023e-07
1.07772496949e-07
4.53920745203e-07
8.25608356711e-07
3.57228014608e-07
5.20064338089e-07
8.45139019869e-07
4.97340942003e-07
7.60644783739e-07
1.52938272094e-08
2.88390243183e-07
1.05276320502e-07
4.33683025161e-09
1.14767202241e-07
3.75979391307e-07
1.62810118423e-06
1.26594941474e-06
1.04395526376e-05
2.89910779868e-07
2.26104021517e-06
4.90259028304e-07
8.25076873005e-08
2.37057205817e-08
1.07250087352e-07
9.92055075187e-07
2.83724856152e-07
9.58739649368e-07
6.64432507499e-07
6.20358180013e-08
1.05974788812e-07
1.35950779875e-08
1.41922073514e-07
2.13665660552e-07
2.67156013568e-07
7.04198207449e-10
4.98030600943e-08
4.43040234326e-08
6.36554015683e-08
1.59040253146e-07
3.52883620572e-08
3.81394704198e-08
2.75910875888e-07
2.82146035512e-06
1.48809073694e-06
6.3278386574e-07
9.43375909659e-08
4.31953964085e-06
2.15806982424e-05
4.64501317904e-06
1.14149385895e-05
3.30381343297e-06
1.03844662129e-06
1.00157066507e-06
1.39341894526e-06
2.49773799147e-07
4.30562001706e-06
4.05391293243e-06
5.19005751263e-06
1.27880452928e-06
1.30756354893e-07
1.73550221897e-07
2.91657198483e-07
4.86647521974e-07
3.10022536437e-08
4.70414254098e-07
7.20113495556e-07
8.21088170048e-07
1.34312396777e-05
2.50176334371e-06
2.51256171523e-06
2.92548862191e-06
1.04851848247e-05
7.70097171853e-06
1.15454393178e-05
3.61683584515e-06
6.06066633159e-07
1.14071508929e-06
9.90488714224e-06
1.84453764326e-06
6.9023876578e-07
1.90175768832e-06
1.05095740236e-06
2.62877518508e-07
1.30752900602e-06
4.01420666308e-06
5.41380887707e-06
4.2116950014e-06
1.79186932762e-05
1.25600049191e-05
3.05813549815e-07
7.88058525775e-07
4.78459739314e-07
8.52010305087e-07
4.52316887937e-07
1.53995213471e-06
3.89107744137e-07
1.60501080132e-07
5.08884664787e-07
3.9273992942e-07
6.74206635949e-08
2.60960942636e-07
2.3191378304e-07
1.72572056624e-07
5.13683926837e-07
5.77082008791e-07
1.00474334678e-07
9.91233032113e-08
1.41221006896e-07
8.60526961634e-08
5.87387794663e-06
2.76036900551e-06
3.53517320124e-07
8.08799151372e-08
2.43151292529e-07
3.67572142001e-07
4.06725368979e-07
8.9628866566e-07
9.47637195681e-06
4.96586544646e-06
1.18914235461e-06
2.52974830432e-07
5.01321987264e-07
9.24593193143e-08
1.4529959901e-08
3.26629744005e-09
3.75433594531e-07
1.73239381215e-07
3.9019807674e-06
9.41757340895e-07
3.5685877804e-06
2.64743403514e-07
1.45591749809e-07
1.0951348128e-05
4.88454158739e-06
1.12944150883e-05
4.4499413578e-06
4.3610970026e-06
2.37727559484e-07
7.1532626925e-06
1.60525537306e-06
2.60879828883e-07
8.65314978153e-08
4.05706646979e-08
7.81277943217e-08
2.76193700002e-07
6.32744840031e-07
1.35192017443e-08
7.50512831534e-09
1.41318747529e-07
1.79264115687e-08
6.29519464979e-08
4.22482748219e-08
6.69103414998e-07
2.25761630993e-08
1.24008200673e-07
2.87285655072e-09
8.51865327554e-07
1.80813679779e-06
4.90424349688e-07
2.87140895233e-07
3.30370401083e-07
6.47106862066e-07
1.19494946604e-06
4.44179908417e-06
2.15777419022e-07
2.85805781594e-08
1.64124168937e-07
4.3978292539e-07
1.26872953585e-07
8.96975166329e-08
2.19929940571e-07
2.41261779343e-07
6.36095473537e-07
4.21405638798e-08
6.83542001387e-08
1.46897731864e-07
1.34362046151e-07
1.39265884203e-08
1.80659309205e-07
2.08188347065e-07
8.78037577541e-08
1.14307084384e-08
8.97687516075e-08
2.60201197059e-07
5.37999572996e-07
5.97357017308e-08
3.51055595428e-05
1.85118825297e-06
6.29633333249e-07
7.22612654238e-07
9.79023791496e-07
5.98210685006e-06
7.9568860883e-09
1.20342398279e-06
3.34015808816e-06
9.29445096656e-07
1.15269193493e-06
3.54736802727e-07
8.34616174152e-07
1.80646525113e-06
6.58072252984e-07
5.38124955455e-06
6.52124649573e-07
1.13164766542e-07
2.2276160005e-06
2.93334135012e-06
2.30190583457e-05
3.03472066372e-07
5.11513712611e-07
2.86002648433e-06
1.85651098729e-06
3.34669127991e-07
2.46652015463e-07
1.74135363217e-07
5.55262379161e-07
1.06059217692e-06
2.93676343604e-07
1.69224683288e-07
1.76767243307e-07
7.59442440258e-06
1.11155570057e-05
1.69777208524e-06
2.74169137846e-05
4.39773725199e-06
3.31578787383e-06
1.57442782777e-06
4.88289111101e-07
7.05031514713e-06
9.0344319194e-06
4.25949393723e-06
1.40549650719e-05
1.45460875184e-06
9.50771261499e-06
4.09277160651e-06
6.90132232706e-05
2.7174059172e-06
4.92389608353e-06
8.4599532782e-06
2.64742680416e-06
8.27482446264e-06
3.05915171168e-05
2.31297491297e-05
3.84815401249e-06
4.34073179543e-05
8.44458713118e-06
1.89464403844e-06
1.30545961176e-06
4.59927306964e-07
9.20080449833e-07
1.71889838175e-06
5.09485278648e-06
2.10766256348e-08
9.14060521358e-07
5.65789085802e-05
2.76577746208e-05
1.86599009446e-06
1.7633034893e-05
6.47972302111e-05
2.12541776644e-05
5.92313179942e-07
2.0795956382e-05
3.82737429237e-06
3.55856397371e-06
2.78744569455e-06
1.55987546083e-07
1.1087135482e-06
9.1114829406e-06
5.43730383322e-05
6.06616253178e-06
4.20327789709e-06
4.55174558019e-06
6.90336309413e-05
4.95960198725e-06
2.508346641e-05
0.00031974712318
0.000144775369086
5.99399060263e-05
0.000128103227565
6.85514611111e-05
9.24995487613e-06
7.53080402877e-07
1.85379002337e-06
2.06016497283e-05
1.89275505251e-05
1.13660457209e-05
2.17114255199e-07
1.31076135002e-05
3.5469231706e-06
7.12307155334e-05
3.20252335382e-05
2.61072932126e-05
2.22065735054e-05

