# vtk DataFile Version 3.0
File Name: Molecule/arg/arg_0.5-4.vtk
ASCII
DATASET UNSTRUCTURED_GRID
FIELD FieldData 1
TIME 1 1 double
0.0
POINTS 158 double
-3.403 0.327 1.604
-2.971 0.024 0.066
-2.981 -0.361 1.858
-2.549 -0.664 0.32
-2.984 0.046 0.042
-2.2 -0.483 -0.862
-2.216 -0.458 -0.889
-2.776 1.74 -0.497
-2.39 -0.269 -1.153
-2.211 1.177 -1.613
-2.622 1.932 -0.429
-1.982 1.439 -1.492
-1.81 1.654 -1.416
-2.495 2.657 0.67
-1.615 2.438 -0.879
-1.488 3.163 0.22
-3.186 2.284 1.521
-1.863 3.333 1.507
-2.53 2.972 2.328
-3.419 1.801 1.788
-2.717 2.558 2.345
-2.979 2.017 2.644
-3.408 0.559 1.798
-3.107 1.793 3.017
-3.095 0.593 3.027
-3.105 0.348 2.085
-3.1 0.088 1.867
-2.97 0.105 2.152
-2.978 0.383 3.085
-2.865 -0.346 2.113
-2.52 -0.7 2.425
-2.645 0.041 3.387
-1.592 -1.721 1.268
-2.003 -1.142 3.367
-0.984 -2.263 2.097
-2.487 -0.785 0.321
-0.96 -2.23 0.303
-1.943 -1.202 -0.738
-2.131 -0.618 -0.861
-2.114 -0.682 -1.181
-1.927 -1.264 -1.052
-2.312 -0.441 -1.376
-2.121 -0.506 -1.916
-1.682 -1.348 -1.746
-1.897 0.192 -2.527
-1.864 -0.768 -1.888
-1.57 0.147 -2.691
-2.011 1.039 -2.18
-1.198 0.386 -3.152
-1.348 1.496 -2.696
-1.72 1.257 -2.235
-1.479 1.817 -1.75
-1.107 2.057 -2.211
-1.319 2.584 -1.178
-0.816 3.013 -1.267
-0.543 2.537 -2.312
0.466 3.148 -0.891
-0.048 3.337 -3.001
0.699 3.415 -2.782
1.057 2.557 -0.305
0.892 2.689 -1.891
1.553 2.026 -1.234
0.737 2.845 0.68
1.539 1.918 0.039
1.22 2.206 1.024
0.406 3.093 0.833
1.112 2.426 2.108
0.748 2.699 2.276
-0.034 3.266 2.099
-0.687 3.194 3.654
0.006 2.617 4.044
-1.995 3.111 3.523
-0.58 2.815 3.881
-2.096 2.719 3.73
-1.061 1.806 4.483
-0.466 1.628 4.634
-2.128 2.66 3.763
-1.452 1.611 4.604
-2.373 2.347 3.982
-1.464 1.095 4.666
-0.48 1.041 4.705
-1.655 0.731 4.634
-0.333 0.517 4.869
-0.555 0.096 4.831
-0.878 -0.357 4.785
0.164 -1.171 5.088
0.507 -0.734 5.141
0.93 -2.454 3.923
1.043 -0.806 5.264
1.809 -2.089 4.099
1.037 -1.846 2.131
1.061 -1.813 0.337
1.48 -1.078 0.031
1.916 -1.481 2.307
2.335 -0.746 2.002
1.639 -0.712 -0.547
1.697 -0.118 0.66
1.842 0.216 0.134
1.085 -2.024 -1.812
2.201 -0.141 -1.444
1.67 -1.4 -2.657
-0.548 -1.409 -2.576
0.104 -0.811 -3.39
-0.822 -1.287 -2.506
-0.336 -0.591 -3.197
-0.616 -0.466 -3.125
-0.988 -0.705 -2.664
0.101 0.716 -4.098
0.516 0.418 -4.238
-0.398 1.946 -3.588
0.377 1.347 -4.4
0.117 1.987 -4.134
0.028 3.029 -3.665
0.9 3.106 -3.671
0.989 2.064 -4.14
0.819 3.383 -2.845
1.749 2.404 -3.353
1.668 2.681 -2.526
1.123 2.627 -2.01
2.133 1.624 -1.992
2.194 2.159 -2.516
2.042 0.907 -1.262
2.428 1.273 -2.257
2.342 0.599 -1.57
1.976 0.918 0.014
1.83 1.363 -3.817
1.863 2.209 -3.379
1.103 1.869 -4.167
1.884 1.434 1.198
2.541 0.959 2.592
1.842 1.579 2.299
0.651 1.408 4.781
1.35 0.788 5.074
0.82 0.891 4.947
-3.94 1.181 0.843
-1.891 3.826 2.497
-2.589 1.578 4.495
-1.092 -1.939 4.665
0.786 -2.653 -0.834
3.668 -0.309 3.703
2.756 0.481 5.071
2.756 -1.099 5.071
2.093 -0.513 -4.015
-0.027 -2.3585 3.01
-1.038 -2.101 3.381
-0.081 -2.1965 4.294
1.2465 1.4935 3.54
0.924 2.098 3.1715
0.3285 2.0125 4.4125
1.54425 1.53625 2.9195
1.383 1.8385 2.73525
1.08525 1.79575 3.35575
1.8625 -1.785 3.203
2.7385 -1.199 3.901
2.792 -0.895 3.005
0.62625 2.05525 3.792
1.004625 1.946875 3.263625
0.706875 1.904125 3.884125

CELLS 312 1248
3 0 1 2
3 2 1 3
3 1 4 5
3 5 4 6
3 4 7 8
3 8 7 9
3 7 10 11
3 11 10 12
3 10 13 14
3 14 13 15
3 13 16 17
3 17 16 18
3 16 19 20
3 20 19 21
3 19 22 23
3 23 22 24
3 22 0 25
3 25 0 26
3 25 27 24
3 24 27 28
3 27 26 29
3 29 26 2
3 29 30 28
3 28 30 31
3 30 32 33
3 33 32 34
3 32 35 36
3 36 35 37
3 35 3 38
3 38 3 5
3 38 39 37
3 37 39 40
3 39 6 41
3 41 6 8
3 41 42 40
3 40 42 43
3 42 44 45
3 45 44 46
3 44 47 48
3 48 47 49
3 47 9 50
3 50 9 11
3 50 51 49
3 49 51 52
3 51 12 53
3 53 12 14
3 53 54 52
3 52 54 55
3 54 56 57
3 57 56 58
3 56 59 60
3 60 59 61
3 59 62 63
3 63 62 64
3 62 65 66
3 66 65 67
3 65 15 68
3 68 15 17
3 68 69 67
3 67 69 70
3 69 71 72
3 72 71 73
3 71 18 73
3 73 18 20
3 72 74 70
3 70 74 75
3 74 76 77
3 77 76 78
3 76 21 78
3 78 21 23
3 77 79 75
3 75 79 80
3 79 81 82
3 82 81 83
3 81 31 84
3 84 31 33
3 84 85 83
3 83 85 86
3 85 87 88
3 88 87 89
3 87 90 89
3 90 34 91
3 91 34 36
3 91 92 93
3 93 92 94
3 92 95 96
3 96 95 97
3 95 98 99
3 99 98 100
3 98 101 100
3 100 101 102
3 101 103 104
3 104 103 105
3 103 43 106
3 106 43 45
3 106 46 105
3 105 46 48
3 104 107 102
3 102 107 108
3 107 109 110
3 110 109 111
3 109 55 112
3 112 55 57
3 112 113 111
3 111 113 114
3 113 115 116
3 116 115 117
3 115 58 118
3 118 58 60
3 118 119 117
3 117 119 120
3 119 121 122
3 122 121 123
3 121 61 124
3 124 61 63
3 124 97 123
3 123 97 99
3 122 125 120
3 120 125 126
3 125 108 127
3 127 108 110
3 127 114 126
3 126 114 116
3 96 128 94
3 94 128 129
3 128 64 130
3 130 64 66
3 129 131 132
3 131 80 133
3 133 80 82
3 133 86 132
3 132 86 88
3 26 0 2
3 5 3 1
3 8 6 4
3 11 9 7
3 14 12 10
3 17 15 13
3 20 18 16
3 23 21 19
3 25 24 22
3 29 28 27
3 33 31 30
3 36 34 32
3 38 37 35
3 41 40 39
3 45 43 42
3 48 46 44
3 50 49 47
3 53 52 51
3 57 55 54
3 60 58 56
3 63 61 59
3 66 64 62
3 68 67 65
3 72 70 69
3 77 75 74
3 82 80 79
3 84 83 81
3 88 86 85
3 91 93 90
3 96 94 92
3 99 97 95
3 104 102 101
3 106 105 103
3 110 108 107
3 112 111 109
3 116 114 113
3 118 117 115
3 122 120 119
3 124 123 121
3 127 126 125
3 130 129 128
3 133 132 131
3 0 22 134
3 0 134 4
3 0 4 1
3 4 134 7
3 7 134 13
3 7 13 10
3 13 134 16
3 16 134 19
3 19 134 22
3 3 35 2
3 2 35 32
3 2 32 30
3 2 30 29
3 6 39 38
3 6 38 5
3 9 47 42
3 9 42 8
3 8 42 41
3 42 47 44
3 12 51 11
3 11 51 50
3 15 65 56
3 15 56 54
3 15 54 53
3 15 53 14
3 56 65 62
3 56 62 59
3 71 69 135
3 71 135 18
3 18 135 17
3 17 135 68
3 68 135 69
3 76 74 73
3 76 73 20
3 76 20 21
3 73 74 72
3 24 28 136
3 24 136 23
3 23 136 78
3 78 136 77
3 77 136 79
3 79 136 81
3 81 136 31
3 31 136 28
3 26 27 25
3 33 137 84
3 84 137 85
3 37 40 36
3 36 40 43
3 36 43 138
3 36 138 91
3 91 138 92
3 92 138 98
3 92 98 95
3 98 138 101
3 101 138 43
3 101 43 103
3 46 106 45
3 49 52 109
3 49 109 48
3 48 109 107
3 48 107 105
3 105 107 104
3 109 52 55
3 58 115 113
3 58 113 57
3 57 113 112
3 61 121 119
3 61 119 118
3 61 118 60
3 64 128 63
3 63 128 124
3 124 128 97
3 97 128 96
3 67 70 66
3 131 75 80
3 83 86 82
3 82 86 133
3 139 140 141
3 139 94 129
3 139 129 140
3 140 129 132
3 140 132 88
3 140 88 141
3 141 88 89
3 102 108 142
3 102 142 100
3 100 142 99
3 99 142 123
3 123 142 122
3 122 142 125
3 125 142 108
3 111 114 110
3 110 114 127
3 117 120 116
3 116 120 126
3 87 143 90
3 90 143 34
3 34 143 144
3 143 145 144
3 143 87 145
3 144 145 137
3 34 144 33
3 144 137 33
3 137 145 85
3 85 145 87
3 146 131 129
3 70 147 66
3 146 148 131
3 131 148 75
3 148 70 75
3 130 149 129
3 149 146 129
3 147 150 66
3 66 150 130
3 130 150 149
3 150 151 149
3 149 151 146
3 93 152 90
3 90 152 89
3 89 153 141
3 141 153 139
3 139 153 154
3 153 152 154
3 153 89 152
3 154 152 93
3 139 154 94
3 154 93 94
3 148 155 70
3 70 155 147
3 147 156 150
3 150 156 151
3 151 157 146
3 146 157 148
3 148 157 155
3 157 156 155
3 157 151 156
3 155 156 147

CELL_TYPES 312
5
5
5
5
5
5
5
5
5
5
5
5
5
5
5
5
5
5
5
5
5
5
5
5
5
5
5
5
5
5
5
5
5
5
5
5
5
5
5
5
5
5
5
5
5
5
5
5
5
5
5
5
5
5
5
5
5
5
5
5
5
5
5
5
5
5
5
5
5
5
5
5
5
5
5
5
5
5
5
5
5
5
5
5
5
5
5
5
5
5
5
5
5
5
5
5
5
5
5
5
5
5
5
5
5
5
5
5
5
5
5
5
5
5
5
5
5
5
5
5
5
5
5
5
5
5
5
5
5
5
5
5
5
5
5
5
5
5
5
5
5
5
5
5
5
5
5
5
5
5
5
5
5
5
5
5
5
5
5
5
5
5
5
5
5
5
5
5
5
5
5
5
5
5
5
5
5
5
5
5
5
5
5
5
5
5
5
5
5
5
5
5
5
5
5
5
5
5
5
5
5
5
5
5
5
5
5
5
5
5
5
5
5
5
5
5
5
5
5
5
5
5
5
5
5
5
5
5
5
5
5
5
5
5
5
5
5
5
5
5
5
5
5
5
5
5
5
5
5
5
5
5
5
5
5
5
5
5
5
5
5
5
5
5
5
5
5
5
5
5
5
5
5
5
5
5
5
5
5
5
5
5
5
5
5
5
5
5
5
5
5
5
5
5
5
5
5
5
5
5
5
5
5
5
5
5
5
5
5
5
5
5

CELL_DATA 312
SCALARS cell_data_0 double
LOOKUP_TABLE default
1.25567445635e-07
4.80867424599e-08
2.7704694561e-07
2.23291063414e-07
3.74729093069e-07
9.23383313321e-07
3.38620366318e-07
6.08520997351e-07
2.13324221949e-07
2.38998364427e-07
8.31964087156e-08
1.42961251402e-07
1.36233069894e-08
2.26165401071e-09
4.34100959536e-08
1.84139146984e-08
1.34632863959e-08
3.0844191673e-08
7.22920783334e-08
9.46990692977e-08
7.01482446952e-08
2.58775474125e-08
3.21400107589e-08
1.43300204095e-07
6.41618807489e-06
1.80946744329e-05
2.85742679347e-07
5.24602231066e-07
1.9200931176e-07
3.03825937324e-07
5.58934510778e-08
8.23172926769e-08
1.53093414324e-07
1.1129825838e-07
4.7634433167e-07
8.18578948634e-07
3.57785235997e-07
5.1788851545e-07
8.53356966376e-07
4.88301976461e-07
7.65710101526e-07
1.32918848962e-08
2.98252223676e-07
1.00619557925e-07
7.11995062483e-10
1.08802666545e-07
3.74135612485e-07
1.60954842033e-06
1.25159563207e-06
1.04483194933e-05
1.41064367305e-07
2.18961872471e-06
2.51295466078e-07
5.29950697096e-07
3.48494587721e-07
8.18521742408e-07
1.12449274789e-06
3.21733458515e-07
9.09490599827e-07
1.25932274265e-06
8.34275301803e-08
9.3172553322e-08
4.13507131788e-09
1.59157321946e-07
2.39752520561e-07
4.24455810387e-07
2.89663748875e-08
5.15629371895e-08
3.95931891806e-08
6.16871704817e-08
2.25228643923e-07
5.799020047e-08
3.66130000879e-09
1.891288898e-07
2.86395984633e-06
1.55616240456e-06
5.48810342436e-07
4.86882281833e-08
1.00867762364e-05
2.63495602156e-05
4.58222354301e-06
1.17043871436e-05
2.80323058989e-06
2.98325166153e-06
4.16511790913e-06
6.64928071501e-07
9.47872586138e-07
3.30815180982e-06
4.02769365235e-06
5.24648655932e-06
1.34742778085e-06
1.30182452153e-07
1.73281307396e-07
2.92809124921e-07
4.8958917655e-07
3.66877686813e-08
4.73223809321e-07
7.08481698708e-07
8.24015583079e-07
1.34494538082e-05
2.50223670434e-06
2.52000422417e-06
2.91148093361e-06
1.05032468022e-05
7.6943968952e-06
1.1552273779e-05
3.65090471096e-06
5.67896570517e-07
1.11867525053e-06
9.75777431705e-06
1.8593910842e-06
6.71696445996e-07
1.93805183359e-06
3.53921394756e-07
1.20628703406e-07
1.04388868e-06
3.92665388332e-06
5.51842650573e-06
4.14857143043e-06
1.78941557806e-05
1.25665241666e-05
3.09433783119e-07
7.82057609403e-07
2.35606300178e-06
1.32627721095e-05
8.74637714621e-07
2.60009117671e-06
8.40972603908e-05
2.88412023251e-07
3.88350145942e-07
9.23839966772e-07
7.99497097818e-07
6.49593393981e-08
2.46824156932e-07
2.30647297718e-07
1.70730937074e-07
5.25980267221e-07
5.76782994591e-07
9.60919398861e-08
1.07829617054e-07
1.43062188149e-07
7.39328837698e-08
5.86982008248e-06
2.87913562556e-06
3.80169081454e-07
8.27482550068e-08
2.4360071356e-07
3.68181841937e-07
4.07045170413e-07
9.11857026749e-07
9.49654102625e-06
4.97795798091e-06
1.20129000775e-06
2.66950550587e-07
6.68051343009e-07
1.08410902658e-07
7.88382584198e-09
1.80360331636e-08
3.59337637588e-07
1.91465500961e-07
4.75248421496e-06
3.63378247996e-06
2.76016315722e-06
2.62631768793e-07
1.45347920211e-07
1.09589217553e-05
4.90341519825e-06
1.13095989613e-05
4.46128290725e-06
4.40535857477e-06
7.89244585452e-08
7.12537112822e-06
1.52583199013e-06
2.58054540123e-08
9.72442330366e-08
5.1065596044e-08
7.68608841184e-08
2.67614967233e-07
6.41846787103e-07
1.38701419717e-08
2.92792135961e-09
1.50992992045e-07
4.37483063977e-09
6.55100822731e-08
5.42931194247e-08
6.21069288635e-07
2.09476201744e-08
1.24215486188e-07
2.64214088859e-09
8.52346421263e-07
1.80310802757e-06
4.87285461574e-07
2.92575037754e-07
3.25944871763e-07
6.53356494883e-07
8.61399101531e-07
4.43113891069e-06
2.21644328469e-07
2.32862219631e-08
2.34541786573e-07
7.65635159349e-07
1.50439276837e-07
1.00365274016e-07
2.23584778149e-07
2.3156997271e-07
6.99533928687e-07
4.18451700857e-08
6.31044353896e-08
1.40214459571e-07
2.28641229333e-07
2.08253311783e-08
1.70830219898e-07
1.99146227898e-07
8.5710405817e-08
1.84509966915e-08
1.15139959383e-07
2.63267452514e-07
5.58902427295e-07
7.00964800057e-08
3.52364248446e-05
1.67676851429e-06
6.35214970736e-07
7.47385789552e-07
9.33859741618e-07
5.91515824524e-06
1.94631456528e-07
1.96452768786e-06
2.93995138689e-06
9.10306352655e-07
1.20379644339e-06
3.57191655135e-07
8.29678852313e-07
1.82029826519e-06
6.48131608857e-07
5.4130879216e-06
6.50832769729e-07
1.18983634801e-07
2.25345586726e-06
2.93408882208e-06
2.30542130238e-05
2.74015596417e-07
2.81030828921e-07
2.76944401661e-06
1.86554453819e-06
4.1460199332e-07
1.32033201759e-06
7.0314322873e-07
9.00200722364e-07
4.16397106021e-07
5.20630818164e-07
1.99134533552e-07
2.27817610857e-07
3.07474641295e-08
1.72719339836e-05
9.93475389029e-05
0.000134438372182
9.85751997756e-06
1.65847012429e-06
4.14190692761e-05
4.42786208663e-06
3.38289381921e-06
1.27146147247e-06
7.25216429086e-07
6.85375722265e-06
8.9872871872e-06
4.34248907608e-06
1.40003796485e-05
1.46066801362e-06
9.54449728e-06
4.0838118438e-06
7.06025015148e-05
2.8086853734e-06
5.02607880741e-06
8.78402847452e-06
2.3728804257e-06
8.34466222356e-06
3.06565958987e-05
2.33037849483e-05
3.14396083615e-06
4.26083871842e-05
2.3535035314e-05
5.99388629803e-06
4.74680165601e-06
6.57560235217e-07
1.72364447689e-06
6.06103486398e-06
6.59256014613e-06
2.59719541632e-05
5.93331287718e-07
3.1981583431e-06
4.8226635138e-05
3.11761959655e-05
2.01746269178e-06
1.81634802793e-05
7.0425907627e-05
1.38355461348e-05
2.18733501059e-06
2.04063695353e-05
7.26395707656e-07
5.46372957823e-06
2.45383018919e-06
1.61802374588e-06
1.56359502502e-06
1.78770922595e-05
0.00015421840866
7.18896849996e-05
5.75824863625e-05
8.24890641368e-06
7.4447071275e-06
1.16538086907e-05
0.000126572667456
6.23477361747e-05

