# vtk DataFile Version 3.0
File Name: Molecule/arg/arg_1.0-2.vtk
ASCII
DATASET UNSTRUCTURED_GRID
FIELD FieldData 1
TIME 1 1 double
0.0
POINTS 2978 double
-3.403 0.327 1.604
-3.295 0.25125 1.2195
-3.2975 0.155 1.6675
-3.1895 0.07925 1.283
-3.187 0.1755 0.835
-3.192 -0.017 1.731
-3.0815 0.0035 0.8985
-3.084 -0.09275 1.3465
-2.976 -0.1685 0.962
-3.079 0.09975 0.4505
-2.9735 -0.07225 0.514
-2.971 0.024 0.066
-3.0865 -0.189 1.7945
-2.9785 -0.26475 1.41
-2.981 -0.361 1.858
-2.873 -0.43675 1.4735
-2.8705 -0.3405 1.0255
-2.765 -0.5125 1.089
-2.868 -0.24425 0.5775
-2.7625 -0.41625 0.641
-2.76 -0.32 0.193
-2.8655 -0.148 0.1295
-2.657 -0.58825 0.7045
-2.6545 -0.492 0.2565
-2.549 -0.664 0.32
-2.97425 0.0295 0.06
-2.77825 -0.10275 -0.166
-2.7815 -0.09725 -0.172
-2.9775 0.035 0.054
-2.5855 -0.2295 -0.398
-2.78475 -0.09175 -0.178
-2.58875 -0.224 -0.404
-2.592 -0.2185 -0.41
-2.98075 0.0405 0.048
-2.788 -0.08625 -0.184
-2.984 0.046 0.042
-2.39275 -0.35625 -0.63
-2.396 -0.35075 -0.636
-2.2 -0.483 -0.862
-2.204 -0.47675 -0.86875
-2.4 -0.3445 -0.64275
-2.208 -0.4705 -0.8755
-2.596 -0.21225 -0.41675
-2.404 -0.33825 -0.6495
-2.6 -0.206 -0.4235
-2.792 -0.08 -0.19075
-2.212 -0.46425 -0.88225
-2.408 -0.332 -0.65625
-2.216 -0.458 -0.889
-2.932 0.4695 -0.09275
-2.8355 -0.03275 -0.25675
-2.7835 0.39075 -0.3915
-2.88 0.893 -0.2275
-2.687 -0.1115 -0.5555
-2.7315 0.81425 -0.52625
-2.635 0.312 -0.69025
-2.583 0.7355 -0.825
-2.828 1.3165 -0.36225
-2.6795 1.23775 -0.661
-2.776 1.74 -0.497
-2.5385 -0.19025 -0.85425
-2.4865 0.23325 -0.989
-2.39 -0.269 -1.153
-2.34525 0.0925 -1.268
-2.44175 0.59475 -1.104
-2.3005 0.454 -1.383
-2.53825 1.097 -0.94
-2.397 0.95625 -1.219
-2.4935 1.4585 -1.055
-2.63475 1.59925 -0.776
-2.25575 0.8155 -1.498
-2.35225 1.31775 -1.334
-2.211 1.177 -1.613
-2.7375 1.788 -0.48
-2.5775 1.66475 -0.74575
-2.539 1.71275 -0.72875
-2.699 1.836 -0.463
-2.379 1.5895 -0.9945
-2.5005 1.76075 -0.71175
-2.3405 1.6375 -0.9775
-2.302 1.6855 -0.9605
-2.6605 1.884 -0.446
-2.462 1.80875 -0.69475
-2.622 1.932 -0.429
-2.1805 1.51425 -1.24325
-2.142 1.56225 -1.22625
-1.982 1.439 -1.492
-1.939 1.49275 -1.473
-2.099 1.616 -1.20725
-1.896 1.5465 -1.454
-2.259 1.73925 -0.9415
-2.056 1.66975 -1.18825
-2.216 1.793 -0.9225
-2.419 1.8625 -0.67575
-1.853 1.60025 -1.435
-2.013 1.7235 -1.16925
-1.81 1.654 -1.416
-2.59025 2.11325 -0.15425
-2.37025 2.0585 -0.5415
-2.3385 2.23975 -0.26675
-2.5585 2.2945 0.1205
-2.1185 2.185 -0.654
-2.30675 2.421 0.008
-2.08675 2.36625 -0.37925
-2.055 2.5475 -0.1045
-2.52675 2.47575 0.39525
-2.275 2.60225 0.28275
-2.495 2.657 0.67
-1.86675 2.3115 -0.7665
-1.835 2.49275 -0.49175
-1.615 2.438 -0.879
-1.58325 2.61925 -0.60425
-1.80325 2.674 -0.217
-1.5515 2.8005 -0.3295
-2.02325 2.72875 0.17025
-1.7715 2.85525 0.05775
-1.9915 2.91 0.445
-2.24325 2.7835 0.5575
-1.51975 2.98175 -0.05475
-1.73975 3.0365 0.3325
-1.488 3.163 0.22
-2.66775 2.56375 0.88275
-2.337 2.826 0.87925
-2.50975 2.73275 1.092
-2.8405 2.4705 1.0955
-2.179 2.995 1.0885
-2.6825 2.6395 1.30475
-2.35175 2.90175 1.30125
-2.5245 2.8085 1.514
-3.01325 2.37725 1.30825
-2.85525 2.54625 1.5175
-3.186 2.284 1.521
-2.021 3.164 1.29775
-2.19375 3.07075 1.5105
-1.863 3.333 1.507
-2.02975 3.24275 1.71225
-2.3605 2.9805 1.71575
-2.1965 3.1525 1.9175
-2.69125 2.71825 1.71925
-2.52725 2.89025 1.921
-2.858 2.628 1.9245
-3.022 2.456 1.72275
-2.36325 3.06225 2.12275
-2.694 2.8 2.12625
-2.53 2.972 2.328
-3.24425 2.16325 1.58775
-3.06875 2.3525 1.727
-3.127 2.23175 1.79375
-3.3025 2.0425 1.6545
-2.9515 2.421 1.933
-3.18525 2.111 1.8605
-3.00975 2.30025 1.99975
-3.068 2.1795 2.0665
-3.36075 1.92175 1.72125
-3.2435 1.99025 1.92725
-3.419 1.801 1.788
-2.83425 2.4895 2.139
-2.8925 2.36875 2.20575
-2.717 2.558 2.345
-2.7825 2.42275 2.41975
-2.958 2.2335 2.2805
-2.848 2.2875 2.4945
-3.1335 2.04425 2.14125
-3.0235 2.09825 2.35525
-3.199 1.909 2.216
-3.309 1.855 2.002
-2.9135 2.15225 2.56925
-3.089 1.963 2.43
-2.979 2.017 2.644
-3.41625 1.4905 1.7905
-3.341 1.799 2.09525
-3.33825 1.4885 2.09775
-3.4135 1.18 1.793
-3.263 1.797 2.4025
-3.3355 1.178 2.10025
-3.26025 1.4865 2.405
-3.2575 1.176 2.4075
-3.41075 0.8695 1.7955
-3.33275 0.8675 2.10275
-3.408 0.559 1.798
-3.185 1.795 2.70975
-3.18225 1.4845 2.71225
-3.107 1.793 3.017
-3.104 1.493 3.0195
-3.17925 1.1845 2.71475
-3.101 1.193 3.022
-3.2545 0.876 2.41
-3.17625 0.8845 2.71725
-3.2515 0.576 2.4125
-3.32975 0.5675 2.10525
-3.098 0.893 3.0245
-3.17325 0.5845 2.71975
-3.095 0.593 3.027
-3.40675 0.501 1.7495
-3.33225 0.50625 1.86975
-3.331 0.44825 1.82125
-3.4055 0.443 1.701
-3.2565 0.4535 1.9415
-3.32975 0.39025 1.77275
-3.25525 0.3955 1.893
-3.254 0.3375 1.8445
-3.40425 0.385 1.6525
-3.3285 0.33225 1.72425
-3.18075 0.40075 2.01325
-3.1795 0.34275 1.96475
-3.105 0.348 2.085
-3.10375 0.283 2.0305
-3.17825 0.27775 1.91025
-3.1025 0.218 1.976
-3.25275 0.2725 1.79
-3.177 0.21275 1.85575
-3.2515 0.2075 1.7355
-3.32725 0.26725 1.66975
-3.10125 0.153 1.9215
-3.17575 0.14775 1.80125
-3.1 0.088 1.867
-3.07125 0.28725 2.10175
-3.1025 0.40925 2.3205
-3.06875 0.3485 2.33725
-3.0375 0.2265 2.1185
-3.1 0.4705 2.556
-3.035 0.28775 2.354
-3.06625 0.40975 2.57275
-3.0325 0.349 2.5895
-3.00375 0.16575 2.13525
-3.00125 0.227 2.37075
-2.97 0.105 2.152
-3.0975 0.53175 2.7915
-3.06375 0.471 2.80825
-3.06575 0.5405 3.0415
-3.0345 0.4185 2.82275
-3.0365 0.488 3.056
-3.00325 0.2965 2.604
-3.00525 0.366 2.83725
-2.974 0.244 2.6185
-2.972 0.1745 2.38525
-3.00725 0.4355 3.0705
-2.976 0.3135 2.85175
-2.978 0.383 3.085
-3.0025 0.10075 2.08075
-2.94375 -0.00775 2.14225
-2.97625 -0.012 2.071
-3.035 0.0965 2.0095
-2.9175 -0.1205 2.1325
-3.00875 -0.01625 1.99975
-2.95 -0.12475 2.06125
-2.9825 -0.129 1.99
-3.0675 0.09225 1.93825
-3.04125 -0.0205 1.9285
-2.89125 -0.23325 2.12275
-2.92375 -0.2375 2.0515
-2.865 -0.346 2.113
-2.894 -0.34975 2.04925
-2.95275 -0.24125 1.98775
-2.923 -0.3535 1.9855
-3.0115 -0.13275 1.92625
-2.98175 -0.245 1.924
-3.0405 -0.1365 1.8625
-3.07025 -0.02425 1.86475
-2.952 -0.35725 1.92175
-3.01075 -0.24875 1.86025
-2.77875 -0.4345 2.191
-2.89325 -0.16375 2.356
-2.807 -0.25225 2.434
-2.6925 -0.523 2.269
-2.9215 0.0185 2.599
-2.72075 -0.34075 2.512
-2.83525 -0.07 2.677
-2.749 -0.1585 2.755
-2.60625 -0.6115 2.347
-2.6345 -0.42925 2.59
-2.52 -0.7 2.425
-2.94975 0.20075 2.842
-2.8635 0.11225 2.92
-2.89475 0.2975 3.1605
-2.78025 0.02675 2.9955
-2.8115 0.212 3.236
-2.66575 -0.244 2.8305
-2.697 -0.05875 3.071
-2.5825 -0.3295 2.906
-2.55125 -0.51475 2.6655
-2.72825 0.1265 3.3115
-2.61375 -0.14425 3.1465
-2.645 0.041 3.387
-2.288 -0.95525 2.13575
-2.39075 -0.8105 2.6605
-2.15875 -1.06575 2.37125
-2.056 -1.2105 1.8465
-2.2615 -0.921 2.896
-1.92675 -1.321 2.082
-2.0295 -1.17625 2.60675
-1.7975 -1.4315 2.3175
-1.824 -1.46575 1.55725
-1.69475 -1.57625 1.79275
-1.592 -1.721 1.268
-2.13225 -1.0315 3.1315
-1.90025 -1.28675 2.84225
-2.003 -1.142 3.367
-1.74825 -1.42225 3.0495
-1.6455 -1.567 2.52475
-1.4935 -1.7025 2.732
-1.54275 -1.71175 2.0
-1.39075 -1.84725 2.20725
-1.288 -1.992 1.6825
-1.44 -1.8565 1.47525
-1.23875 -1.98275 2.4145
-1.136 -2.1275 1.88975
-0.984 -2.263 2.097
-1.81575 -1.487 1.03125
-1.434 -1.84825 1.02675
-1.65775 -1.61425 0.79
-2.0395 -1.253 0.7945
-1.276 -1.9755 0.7855
-1.8815 -1.38025 0.55325
-1.49975 -1.7415 0.54875
-1.7235 -1.5075 0.312
-2.26325 -1.019 0.55775
-2.10525 -1.14625 0.3165
-2.487 -0.785 0.321
-1.118 -2.10275 0.54425
-1.34175 -1.86875 0.3075
-0.96 -2.23 0.303
-1.20575 -1.973 0.04275
-1.5875 -1.61175 0.04725
-1.4515 -1.716 -0.2175
-1.96925 -1.2505 0.05175
-1.83325 -1.35475 -0.213
-2.215 -0.9935 -0.2085
-2.351 -0.88925 0.05625
-1.69725 -1.459 -0.47775
-2.079 -1.09775 -0.47325
-1.943 -1.202 -0.738
-2.5025 -0.75475 0.32075
-2.398 -0.74325 0.0255
-2.4135 -0.713 0.02525
-2.518 -0.7245 0.3205
-2.309 -0.7015 -0.27
-2.429 -0.68275 0.025
-2.3245 -0.67125 -0.27025
-2.34 -0.641 -0.2705
-2.5335 -0.69425 0.32025
-2.4445 -0.6525 0.02475
-2.22 -0.65975 -0.5655
-2.2355 -0.6295 -0.56575
-2.131 -0.618 -0.861
-2.14825 -0.58425 -0.86125
-2.25275 -0.59575 -0.566
-2.1655 -0.5505 -0.8615
-2.35725 -0.60725 -0.27075
-2.27 -0.562 -0.56625
-2.3745 -0.5735 -0.271
-2.46175 -0.61875 0.0245
-2.18275 -0.51675 -0.86175
-2.28725 -0.52825 -0.5665
-2.12675 -0.634 -0.941
-2.084 -0.764 -0.83025
-2.07975 -0.78 -0.91025
-2.1225 -0.65 -1.021
-2.037 -0.91 -0.7995
-2.0755 -0.796 -0.99025
-2.03275 -0.926 -0.8795
-2.0285 -0.942 -0.9595
-2.11825 -0.666 -1.101
-2.07125 -0.812 -1.07025
-2.114 -0.682 -1.181
-1.99 -1.056 -0.76875
-1.98575 -1.072 -0.84875
-1.939 -1.2175 -0.8165
-1.98175 -1.0875 -0.92725
-1.935 -1.233 -0.895
-2.0245 -0.9575 -1.038
-1.97775 -1.103 -1.00575
-2.0205 -0.973 -1.1165
-2.06725 -0.8275 -1.14875
-1.931 -1.2485 -0.9735
-1.97375 -1.1185 -1.08425
-1.927 -1.264 -1.052
-2.1395 -0.626 -1.108
-2.1635 -0.62175 -1.22975
-2.189 -0.56575 -1.15675
-2.165 -0.57 -1.035
-2.213 -0.5615 -1.2785
-2.2145 -0.50975 -1.08375
-2.2385 -0.5055 -1.2055
-2.264 -0.4495 -1.1325
-2.1905 -0.514 -0.962
-2.24 -0.45375 -1.01075
-2.2625 -0.50125 -1.32725
-2.288 -0.44525 -1.25425
-2.312 -0.441 -1.376
-2.3315 -0.398 -1.32025
-2.3075 -0.40225 -1.1985
-2.351 -0.355 -1.2645
-2.2835 -0.4065 -1.07675
-2.327 -0.35925 -1.14275
-2.303 -0.3635 -1.021
-2.2595 -0.41075 -0.955
-2.3705 -0.312 -1.20875
-2.3465 -0.31625 -1.087
-2.26425 -0.45725 -1.511
-2.21575 -0.64675 -1.295
-2.168 -0.663 -1.43
-2.2165 -0.4735 -1.646
-2.1195 -0.8525 -1.214
-2.12025 -0.67925 -1.565
-2.07175 -0.86875 -1.349
-2.024 -0.885 -1.484
-2.16875 -0.48975 -1.781
-2.0725 -0.6955 -1.7
-2.121 -0.506 -1.916
-2.02325 -1.05825 -1.133
-1.9755 -1.0745 -1.268
-1.86575 -1.285 -1.2255
-1.91425 -1.0955 -1.4415
-1.8045 -1.306 -1.399
-1.96275 -0.906 -1.6575
-1.853 -1.1165 -1.615
-1.9015 -0.927 -1.831
-2.01125 -0.7165 -1.8735
-1.74325 -1.327 -1.5725
-1.79175 -1.1375 -1.7885
-1.682 -1.348 -1.746
-2.065 -0.3315 -2.06875
-2.05675 -0.5715 -1.909
-2.00075 -0.397 -2.06175
-2.009 -0.157 -2.2215
-1.9925 -0.637 -1.902
-1.94475 -0.2225 -2.2145
-1.9365 -0.4625 -2.05475
-1.8805 -0.288 -2.2075
-1.953 0.0175 -2.37425
-1.88875 -0.048 -2.36725
-1.897 0.192 -2.527
[...]
CELL_DATA 5952
SCALARS cell_data_0 double
LOOKUP_TABLE default
2.96499867716e-09
1.01627263558e-08
1.87697711458e-09
5.4694391732e-09
7.35293942392e-10
7.62309200561e-10
1.02810284633e-09
1.04749141763e-08
5.79028127473e-09
2.73703313969e-09
8.99905897119e-09
1.66114308448e-09
5.55471730196e-09
9.86521693784e-09
1.56221121417e-09
6.76695334548e-09
1.39705876337e-08
3.94220792576e-09
1.37338378527e-09
8.57111100924e-09
1.44447016111e-09
2.37322719943e-09
5.75315674765e-09
1.07478229531e-09
1.66757264966e-09
5.87555483843e-09
4.89191226883e-09
3.34430302436e-09
4.85032987907e-09
1.15687875244e-09
1.66718513964e-09
5.22510892139e-09
4.55688257695e-09
8.05449904757e-09
3.3545726963e-09
9.91607066502e-09
9.9630627099e-10
7.80433899276e-09
2.54471135256e-09
1.18512994161e-08
3.42272594379e-09
1.59742087926e-09
5.72970505712e-09
4.77696124729e-10
9.31999654304e-09
1.03520745667e-08
5.32203504577e-09
9.91688572352e-09
9.58158555619e-09
6.74087521502e-09
3.36166151943e-09
2.34411621686e-10
7.68264588723e-10
4.99821002904e-10
1.78216958547e-08
4.48720695608e-09
1.11498070258e-09
1.44877689867e-08
1.67638714336e-08
1.88266505786e-08
1.82258995779e-09
2.56844866972e-08
2.31005094484e-08
2.5375236525e-08
3.55955203691e-09
1.18772275456e-08
8.47765450163e-09
1.04479187641e-08
9.45184782698e-09
7.16036898277e-10
5.44655741801e-09
2.35358502711e-08
1.78439849051e-08
8.84571189615e-09
2.67149137588e-08
8.41825868511e-09
1.29999659227e-08
4.54171928661e-08
5.19991367747e-09
3.90757317471e-08
4.87168278888e-08
1.49049170679e-08
1.23084264999e-08
8.61031734617e-08
1.02637659717e-08
1.79964526383e-08
3.13883334714e-08
1.50036459443e-08
6.81478461913e-09
2.24762082922e-08
2.07971786359e-08
2.48188736999e-08
9.91511096106e-09
6.32866161777e-08
3.39847883482e-08
7.90337787899e-08
1.11095169208e-09
1.42033123371e-09
7.63023276455e-10
1.55201252294e-09
2.37219880375e-11
1.74568878488e-09
7.60866856648e-10
1.59451636511e-10
6.81982902382e-11
5.68836744378e-10
1.4967176777e-09
2.47492368463e-09
2.31129419431e-09
3.41833669773e-09
2.83577592962e-09
1.15002359496e-08
1.16243271416e-08
1.14307240879e-08
4.1749052393e-09
1.0034538886e-08
1.88897934024e-09
2.54627425048e-09
2.39182154212e-09
1.06044047281e-08
8.72073049362e-10
7.97614814918e-10
2.96505901268e-09
3.50854648159e-09
9.72480585991e-09
1.33333581558e-08
4.72018947558e-09
9.05743405043e-09
2.06930799878e-09
2.21366197856e-09
1.51178710939e-09
1.19840649305e-09
1.06873550615e-09
1.30139825689e-09
2.23342854871e-10
2.57806677573e-09
2.39147505927e-09
7.60984033428e-10
4.2937154052e-09
8.13784608971e-10
2.04766126063e-09
2.47454258917e-09
2.29172804679e-10
3.71176383555e-09
5.36192229478e-09
9.31219322636e-10
1.62205020539e-09
2.6015986632e-09
7.89638995493e-10
1.35947814074e-09
2.56016739478e-09
1.1827074254e-09
1.49024302587e-09
1.664592333e-09
2.69433915053e-09
3.23930872823e-09
2.78331087688e-09
2.72742715103e-09
3.73672004404e-09
8.26836554972e-09
3.40817820314e-09
2.25737525585e-09
1.1447543951e-09
6.49336796907e-10
2.44131295647e-09
1.08994927712e-09
8.27187767149e-10
1.28492050143e-09
6.90663157663e-10
2.29711381552e-09
3.63784553538e-09
1.66708429919e-09
1.14389376819e-09
4.40754361807e-10
5.96465124604e-10
2.59162356428e-09
4.14995486128e-09
1.61691152334e-09
8.92462477463e-10
3.09081860443e-09
8.68278413633e-11
5.54264930418e-10
2.82949568723e-09
1.87865407423e-09
4.92817803891e-10
4.52991698317e-09
3.55055098161e-09
2.63634139094e-09
2.05241090001e-09
1.67943507669e-09
1.76488347495e-09
1.03787837664e-10
2.80052226759e-11
1.34373828643e-10
8.53674550512e-11
1.39779789811e-10
9.62593896553e-11
2.95228865756e-10
2.75166399676e-10
1.97642235225e-10
7.75532196733e-11
2.56295679729e-10
3.9787136541e-10
6.22457161505e-10
6.35445263762e-11
1.93192486873e-10
8.71818799458e-10
4.10092327994e-11
6.21721302681e-10
2.57215876319e-10
3.34361016686e-10
9.92776268859e-11
1.45617410725e-11
1.66361945843e-10
8.08288451178e-10
5.6957257167e-10
2.08518835946e-10
9.11754800295e-11
7.95958726967e-10
6.36341535003e-10
3.56714295397e-10
5.81855561822e-10
1.03888726684e-10
4.46116574781e-11
1.85020907728e-09
2.70461173029e-09
2.5717801057e-09
9.4049287198e-10
1.14849318674e-09
4.58049784474e-10
1.05435901343e-09
4.53452989616e-09
4.3547731633e-09
1.33694913341e-09
4.88493291765e-09
8.70306357413e-10
1.67283772624e-09
5.38848710933e-09
8.9896552357e-10
1.29135382657e-09
2.94683074338e-09
1.28932905409e-09
1.38397475517e-09
2.8169849348e-09
2.39994115089e-10
2.76131981829e-11
3.53164589122e-09
2.52642804618e-10
2.96463634727e-10
5.5728469935e-09
9.34720966528e-10
2.36984342697e-09
1.42013221698e-09
3.25692576153e-09
2.26657335616e-09
4.16474153044e-09
3.30609617944e-10
5.3712473346e-10
9.59317413734e-10
1.50621564357e-09
2.81182260818e-11
2.84544548833e-10
6.49929981505e-11
3.80069773983e-10
4.63806559271e-10
2.69592524134e-10
7.1157800697e-10
1.1240458394e-10
1.34733187035e-09
5.16245958488e-11
3.59757235898e-10
1.11988865406e-09
3.22366330635e-10
5.36745018726e-10
1.39953714844e-10
2.11238132259e-10
5.55686036274e-11
1.58074957175e-10
5.58280286745e-10
1.99117146878e-10
1.62046033622e-10
4.07717508903e-10
7.68678169814e-10
7.94911706458e-10
2.14986083961e-10
2.86640930976e-10
2.51527848353e-10
3.4454790105e-11
1.74317271026e-09
1.45647217965e-09
5.0932522369e-10
1.54153301327e-09
1.78104779221e-09
2.00685367411e-10
6.38164163183e-10
1.18681164597e-09
1.10574923808e-09
2.13184792627e-09
6.5706027059e-10
3.41475988006e-10
1.61910454235e-09
4.06688593037e-10
9.44818971726e-11
3.94085952262e-09
4.53044899872e-10
1.17331754286e-09
1.05315367342e-09
3.80204064483e-09
4.29115347938e-11
1.46147581878e-09
8.02148719522e-10
1.2352665826e-09
1.98967882604e-10
8.29425646333e-10
8.04126167399e-10
2.15345572921e-10
1.97307770864e-09
1.97460561986e-09
9.31270319434e-10
1.58892125096e-09
1.04978818357e-09
6.73037309172e-10
3.12437420867e-10
1.90131109511e-09
2.74220840418e-10
1.64680497116e-10
2.24028237975e-10
5.55446794931e-11
2.57632540617e-10
2.30634517885e-10
1.75364984606e-10
1.8928337311e-10
1.79387517107e-09
3.17647958559e-10
6.39419506259e-10
2.05232052126e-09
7.58399011129e-10
3.86297272224e-10
3.69906482851e-11
2.16940506641e-10
7.16789787229e-10
2.61926196491e-10
4.83754120047e-10
2.69163920756e-10
5.55715408151e-11
1.02094349362e-10
2.89259126768e-10
4.58579974742e-10
4.86438695604e-10
9.19532919037e-11
1.31675134688e-09
7.11630523072e-10
7.58581022835e-10
7.93118818602e-10
1.36535585181e-09
4.73096346733e-11
1.4156752617e-09
5.8846322364e-10
2.05701925859e-09
1.58658245994e-09
2.22611208132e-09
5.80647778794e-10
1.07028223006e-09
2.20774312395e-09
4.69407998867e-10
2.34459662695e-10
2.16539202234e-09
9.68175301885e-10
2.2874019837e-09
3.06089197674e-09
2.11229719985e-09
2.10489655302e-09
2.71363531142e-09
2.55294308014e-09
3.28050114698e-09
2.78635097251e-09
1.8761744241e-09
3.47591981247e-10
4.65825395027e-09
4.34069376366e-09
2.73418235526e-09
4.1656982199e-09
3.47501736182e-09
2.33223016709e-09
7.23899749268e-09
3.51579225858e-08
4.10682548278e-08
5.99950351704e-08
4.88315613767e-08
3.24143852223e-08
9.02117535447e-08
1.06920136416e-07
3.88099605103e-08
4.45974922223e-08
4.2314347911e-08
6.64385652148e-08
9.71300265806e-08
3.22874620954e-07
2.2542197473e-07
1.15697622074e-07
1.85999579124e-07
5.38847243806e-07
2.5431845278e-07
3.17179140874e-08
1.59442718226e-07
5.63031019416e-08
2.72754641117e-08
1.55333764468e-07
1.48317898088e-07
3.116644116e-08
4.30544530523e-08
4.5805583985e-08
2.46618258723e-07
1.94197560824e-09
5.10447216023e-08
1.09128711704e-08
2.91131527171e-09
8.21216417008e-09
6.96068456233e-09
6.73919940423e-09
9.14968994847e-09
1.24500110314e-09
3.48751158235e-09
2.19788779609e-08
1.36815188934e-08
1.4154774169e-08
2.66999157127e-08
8.70558497526e-09
9.17321665429e-09
2.97134111025e-08
2.26945546168e-09
1.6697395481e-08
5.3904686197e-08
1.18706229484e-08
7.32892103105e-10
1.92088053225e-08
6.46440758986e-09
6.43010532707e-09
2.08055783177e-08
8.14854072414e-11
5.28735178405e-09
1.8343083557e-08
1.53648988428e-08
1.93044857652e-08
3.59489997712e-09
2.15483243686e-08
1.69856503761e-08
1.45533975785e-08
7.11218278339e-10
3.80151720298e-09
1.96839113616e-09
2.01009248051e-09
2.6369412967e-09
2.1699911264e-09
9.90495484505e-10
4.55344430764e-13
1.27595273414e-09
2.13972681087e-09
1.37385460594e-09
9.0929908508e-10
3.58804962225e-10
2.34241061809e-09
9.39864065065e-10
4.8801357702e-09
8.60657314894e-09
4.76589111248e-09
1.67420815357e-09
9.66077076585e-09
2.50334012205e-09
2.44710486098e-09
2.04282503004e-09
6.48053434253e-09
1.20643700063e-09
2.02869326992e-09
4.83476961564e-09
4.08119958538e-09
9.23093588386e-09
9.30987958981e-09
6.76935893696e-09
1.81558648852e-08
8.64361224385e-09
2.2710084615e-09
5.70014267379e-10
8.10775942556e-09
2.51369343933e-09
1.75633255663e-10
6.06817898688e-10
1.92388994685e-09
1.89294929177e-09
2.35609960202e-09
9.23475795304e-10
1.41032036114e-09
7.39308399535e-09
1.85942442773e-10
1.52374087879e-09
9.12843518667e-09
5.00941221602e-09
1.55263483562e-09
5.3429982383e-10
4.34481629824e-09
1.07103869496e-09
2.70983615479e-10
7.31894565981e-10
1.40932786859e-09
2.04426473858e-10
1.28874708206e-09
4.04024061623e-11
1.2361348819e-09
4.66079844165e-09
1.54863467853e-09
4.89933825327e-10
6.78740312422e-09
2.65715038599e-09
2.33665324686e-09
2.31076544761e-09
6.7403052867e-09
1.57943894207e-10
2.45356823241e-10
7.17077335107e-10
8.69563560471e-10
6.87685059601e-10
1.28673095971e-09
1.99669895597e-09
6.22716860603e-10
2.92820827481e-09
6.07606324758e-10
8.8586211919e-10
2.91456826806e-09
3.95070846857e-09
1.23836641484e-09
3.76514670348e-10
3.62046830465e-09
1.84725340003e-10
8.09439478313e-10
1.2691720612e-09
9.63641587762e-10
3.21749820366e-11
2.21255672797e-10
6.82390842522e-09
6.9069709981e-09
4.46109490654e-09
1.2827211586e-09
8.5265169404e-09
2.08155848279e-09
1.13874774208e-09
5.1565559737e-09
3.07274147428e-09
4.38926598868e-09
4.91242810718e-09
1.80429712973e-09
9.00887011e-10
1.41859864762e-09
4.72225952679e-09
7.78909588288e-09
2.43902377989e-09
7.5199541037e-10
4.53689767942e-09
3.56147447318e-09
8.960133077e-10
7.46088365542e-09
2.53872985858e-09
2.69859768749e-09
7.30466517595e-10
5.63829641874e-09
9.77203958714e-10
1.28374661404e-09
4.63241094552e-09
2.07307287083e-09
1.13333984939e-09
3.76487506897e-09
3.53268740606e-09
1.00488474474e-08
4.04320273348e-09
5.13102018478e-09
9.61990446869e-09
1.07742717472e-08
1.46933001204e-08
3.33241013275e-09
9.00041472874e-09
2.96932009463e-10
1.74128551696e-09
5.20051083238e-10
1.13027888561e-09
5.77476149036e-09
1.32364750105e-08
5.25034784417e-09
5.39668442512e-09
7.77824911746e-09
3.66771264322e-10
1.4009587776e-09
1.97572262085e-10
2.71597793254e-09
4.69949433351e-09
1.92089974402e-09
3.06040891542e-09
9.33511065319e-09
5.8454199887e-10
4.06165554062e-09
6.29399157751e-09
4.92063660564e-09
1.71092204538e-09
9.92441203428e-09
7.1000271799e-09
4.27524736748e-09
8.2066206821e-09
6.95083808261e-09
5.6703652252e-09
3.9686349921e-10
3.38271692899e-09
2.76168165911e-08
7.51024381165e-09
1.46439253993e-08
1.88455706399e-08
2.65062583947e-09
1.50118521576e-09
1.55492173094e-08
7.95573479658e-09
1.73749938663e-08
3.45294837069e-09
3.63904010896e-10
9.19151463551e-09
2.29397292931e-08
1.00179578561e-10
2.30088195288e-08
4.66044074655e-09
4.67934830559e-09
3.9945450683e-09
4.20774485762e-09
3.44663082341e-09
8.2724875126e-10
3.06009576838e-08
2.2588421693e-09
7.21306742115e-10
2.70608990098e-08
1.07692763982e-08
2.53180812415e-08
1.86579087318e-09
3.4443398047e-08
2.51065649853e-08
4.88429794352e-09
1.63843509979e-08
8.34627759369e-10
1.62147536282e-08
4.52898665873e-09
1.5365796613e-11
1.84200704347e-09
6.79435957584e-10
3.42802329327e-10
1.77111285818e-08
1.61332028457e-09
1.55920937897e-08
4.3791262935e-09
1.61428654621e-09
8.75063608914e-10
6.1822356685e-10
2.04875265744e-09
1.52634657414e-09
1.89235419496e-09
4.19812549768e-09
1.60247174593e-10
8.3888049406e-11
3.93436144212e-09
2.1894586505e-09
7.88894157876e-10
3.62450654375e-09
5.40663365587e-09
3.29478391654e-09
5.1847040108e-09
3.06723318294e-10
3.52844788943e-10
6.3678855241e-09
7.84610368344e-09
1.25748068313e-08
8.95322609273e-10
9.25832531547e-10
5.75954727372e-09
1.9937664049e-09
5.1302551569e-10
1.19348553575e-09
2.30439394418e-09
4.64935521978e-09
1.84961111856e-09
6.52382513806e-10
1.5293798103e-09
1.60838543992e-09
8.60225591697e-09
1.31585614732e-09
2.1543668736e-10
2.5725926279e-09
1.65293088303e-09
3.62574032381e-10
6.56909309111e-09
1.10177606992e-10
1.4765896523e-09
2.88397360435e-09
2.9527718074e-09
6.28601773481e-10
2.59044431459e-09
5.24958148169e-09
7.8608257799e-09
8.66038622464e-09
4.31452198986e-10
8.92302815015e-09
4.94746865058e-10
1.13706756367e-09
7.75170751927e-09
3.00812345179e-09
7.64712947142e-11
7.95238772268e-09
2.39333997634e-09
1.48399938868e-09
3.40050272434e-09
2.46388074438e-09
9.43082801544e-09
3.57689178121e-09
2.05635485659e-09
4.94780483729e-11
2.56885786888e-09
8.27535681681e-10
3.40389068035e-09
4.40529084939e-09
2.46754205119e-09
5.82953169439e-10
3.61661765002e-09
8.43651736473e-10
3.60831158925e-09
1.19206715618e-09
2.82972026819e-09
2.66856035196e-09
2.30155667986e-09
8.24185341068e-09
8.72269993439e-09
5.38915453469e-09
3.72493850715e-09
6.44022311791e-09
3.05790337271e-09
5.19242730189e-09
3.12390542711e-09
3.17173560667e-09
2.61868300224e-09
2.14273581779e-09
3.841063112e-09
2.00270870587e-09
3.16366377502e-10
6.28862039395e-10
1.0163242024e-09
3.91611952201e-09
3.92222926099e-09
1.14319050781e-09
8.42022802318e-09
2.35634492273e-09
1.39779598245e-08
1.07650797846e-08
9.51155849645e-09
1.01424236828e-08
1.44898922544e-08
1.0332243269e-08
4.54050002904e-09
2.676013025e-09
6.70784762082e-09
4.15255906974e-09
7.02577669119e-09
1.10580240508e-09
5.28492573948e-10
1.42427046736e-08
1.6869214227e-09
6.97316107235e-10
5.8228711178e-09
1.1271994061e-08
1.29977804671e-08
7.84983742734e-10
8.32187224502e-09
8.03139099745e-11
1.70783435726e-10
1.71411892658e-10
1.44799242773e-08
5.25781223479e-09
5.12599619991e-10
1.57019438525e-08
6.68576155719e-09
7.60519524955e-09
2.20725817029e-08
1.47175000138e-09
1.92707374041e-08
2.35223332774e-08
6.36386010555e-09
1.5619275265e-09
1.56222182451e-08
7.32358688845e-10
5.03675333187e-09
7.33771770444e-10
1.02460957844e-08
6.92248764482e-10
2.69645643471e-09
5.71006023232e-09
3.94181402108e-09
1.28772491582e-08
6.89159247515e-09
5.10642558163e-09
2.61353279078e-09
9.2867399003e-09
1.05697602476e-08
1.48578939359e-08
1.27618995839e-08
7.09822100112e-09
2.89467032281e-09
2.98059055978e-09
1.352959894e-08
1.69193134401e-08
1.17140581366e-08
2.27682019646e-08
5.93346167861e-09
3.82817850675e-08
3.44578933982e-08
2.72288618718e-08
5.73576809849e-08
1.40766289109e-07
1.33664482438e-07
6.72883114838e-08
1.77222838838e-08
1.91342835265e-08
1.43941335022e-07
7.52748263596e-10
1.30759857206e-07
7.20299459205e-10
1.29637995134e-08
3.30371974235e-08
2.15096692184e-08
3.92170382369e-07
3.12477342258e-08
1.2001272773e-07
4.8070695156e-08
1.30631137015e-08
4.35712200146e-10
3.47166021008e-09
6.07748239214e-09
3.44656599468e-09
8.50696188316e-09
8.95571561234e-09
6.34442194352e-09
4.06661184013e-09
1.27232215701e-09
1.03038574437e-08
1.19333442995e-09
9.0288440658e-09
1.93860307727e-08
2.89903621919e-09
3.93576385893e-08
3.96227378481e-08
1.86842197715e-08
1.50970372778e-08
9.69813181778e-09
5.95242859488e-09
1.6678330937e-09
4.47843640849e-09
1.61704801606e-08
1.69414418169e-09
6.68890420126e-09
5.40368123924e-09
1.16045623242e-08
1.37943704214e-08
8.26049030187e-09
1.67275812741e-08
1.99596155063e-08
2.26400181284e-09
2.72751198916e-09
2.22129313776e-09
1.41125296454e-09
9.05222793765e-10
3.16150685233e-10
6.2998960161e-11
5.81534529213e-10
3.44105940082e-09
1.50617119205e-09
3.36064217911e-09
7.47487046711e-10
5.94622386385e-10
2.10728434293e-10
1.2786683356e-10
7.88841314158e-10
3.4782881075e-09
3.72787265437e-10
1.01490492456e-09
1.51616512127e-09
1.22127247553e-09
3.09162035612e-10
3.35482124908e-10
1.0914070257e-09
8.04929540604e-10
1.50651029792e-10
3.18509221762e-10
1.2105974988e-10
7.84765341152e-10
2.50454094653e-10
1.87643002426e-10
1.07218258238e-09
1.5071816742e-09
1.27304455282e-09
4.22881513897e-10
1.01349396025e-09
4.01690744539e-09
2.12170265021e-09
1.36266967053e-09
1.25673015778e-09
1.74183899179e-09
8.36297717581e-10
2.80901494779e-10
1.24426386728e-09
5.82270865555e-10
1.57845041673e-11
7.97123480258e-10
5.63036151197e-09
2.45634189883e-09
6.39565435401e-09
1.99076573623e-10
1.11983625934e-09
2.20909470833e-10
4.88700040304e-10
3.68830701754e-10
6.96871998054e-09
1.49099892486e-09
7.99153734988e-10
1.15892843461e-09
1.37727980398e-09
1.51185377661e-09
3.97977674846e-09
1.90417124603e-10
7.68747928642e-09
6.05755767752e-09
1.27026855703e-09
4.89699931414e-09
3.46872601828e-09
8.0205518372e-09
6.32203160642e-10
3.20782162665e-09
6.6277801447e-09
3.95682033206e-09
4.3810421254e-09
5.02398525219e-09
1.52479741332e-09
6.94118192348e-09
5.81136860888e-09
3.95967629318e-09
6.43581683118e-09
1.63518480774e-08
9.28741064166e-09
3.71215073011e-09
1.88890736e-08
1.47893495401e-09
3.55652958222e-11
1.15514766984e-08
6.91939584819e-09
2.59873184775e-09
7.11588572127e-09
1.18498313717e-08
1.61479533703e-08
2.76221746016e-09
7.66931475938e-09
1.24157980976e-08
1.83517854213e-08
6.19662552439e-09
4.79817116059e-09
2.57421429161e-09
5.04357415909e-09
5.91106502442e-09
4.87757358188e-10
3.21046209342e-09
1.17799257048e-09
1.53528105014e-09
4.2637512775e-09
7.83603468891e-09
1.06188279994e-09
4.72484776115e-09
6.43187189328e-09
1.15178735032e-10
9.60004478428e-09
2.48261653063e-09
1.60458825493e-08
2.50188846347e-09
5.04744292571e-08
3.21365476175e-10
7.34800465493e-09
4.56939250297e-09
2.90600242382e-08
5.38238297408e-09
2.72566715995e-09
1.11214803667e-08
1.1051778952e-08
7.26106061459e-08
3.16129773071e-09
1.5759931882e-09
1.8012557785e-08
6.56066911489e-10
3.6560987645e-09
1.34028369737e-09
1.40171658532e-10
1.59857370419e-09
5.19365802955e-10
3.22602382501e-10
1.15068070311e-09
2.7082564273e-09
2.75317920147e-10
6.52231621516e-09
2.11384016672e-09
3.09424516807e-09
6.95604217169e-10
1.59670671215e-09
1.54915336439e-09
2.3199572204e-09
1.3932856329e-09
1.95193395281e-09
2.98556031032e-09
8.20895326803e-10
7.94767537597e-10
5.35804683871e-09
8.0055205037e-11
1.02686895786e-09
2.88801850857e-09
5.42869322503e-09
5.91913457524e-09
5.27069218002e-10
6.01643796379e-09
5.65963827899e-09
4.69571941968e-09
3.14286176939e-09
4.63896437358e-09
1.76715334972e-11
6.44592617645e-09
1.71919746057e-09
4.47238099977e-10
2.29623367176e-09
5.96189921747e-09
5.64791935227e-10
6.23111875878e-10
3.58166842079e-09
3.07576718672e-10
4.34070307385e-09
4.62474973442e-09
9.94528945501e-10
6.05976771763e-09
3.32164276884e-09
1.45897605048e-09
1.01796320986e-10
4.54009464373e-09
1.12614604588e-09
7.79704043215e-10
2.19578101236e-09
1.26059247099e-09
2.28115721283e-10
2.16959822834e-09
1.2009236382e-09
1.43461082679e-09
1.47706887755e-09
2.69578336146e-09
2.51039148996e-09
2.53454615866e-10
1.28991345193e-09
6.44670068572e-10
2.35410537559e-09
7.57389192621e-10
9.89992192384e-11
6.8026862828e-10
1.07696877814e-10
3.25687324332e-10
2.07331344645e-09
4.98253871769e-11
1.80214464298e-09
1.09740225574e-09
1.35062727253e-09
2.36786503182e-09
5.88852362048e-10
3.064509966e-09
1.29642540319e-10
1.24203469984e-10
1.08769562335e-09
1.37998569221e-09
9.26422190494e-10
7.67698514493e-11
1.30645478802e-09
1.02775961807e-09
1.81375767387e-10
9.23054237812e-10
8.96413306929e-10
1.05219758464e-09
7.84025911189e-12
1.63900128531e-09
9.04595244913e-10
5.52637461917e-10
1.72080775124e-09
2.58419481011e-09
2.63453382357e-10
1.4521721341e-09
9.84910514648e-10
9.7210117194e-10
1.77584331283e-09
2.0961708827e-09
2.52332072802e-09
5.41934793604e-10
3.79944610806e-09
2.61737433281e-10
1.39462621853e-09
2.25709570649e-09
3.9539170031e-10
1.71765272899e-09
5.03314941566e-11
7.66565395035e-10
1.71277627543e-09
1.2596400068e-09
5.14766508276e-10
1.22169311532e-10
4.67704881898e-09
1.24281561781e-09
1.21684063396e-09
3.9350466517e-09
5.09206141046e-09