# vtk DataFile Version 3.0
File Name: Molecule/arg/arg_0.5-2.vtk
ASCII
DATASET UNSTRUCTURED_GRID
FIELD FieldData 1
TIME 1 1 double
0.0
POINTS 2258 double
-3.403 0.327 1.604
-3.295 0.25125 1.2195
-3.2975 0.155 1.6675
-3.1895 0.07925 1.283
-3.187 0.1755 0.835
-3.192 -0.017 1.731
-3.0815 0.0035 0.8985
-3.084 -0.09275 1.3465
-2.976 -0.1685 0.962
-3.079 0.09975 0.4505
-2.9735 -0.07225 0.514
-2.971 0.024 0.066
-3.0865 -0.189 1.7945
-2.9785 -0.26475 1.41
-2.981 -0.361 1.858
-2.873 -0.43675 1.4735
-2.8705 -0.3405 1.0255
-2.765 -0.5125 1.089
-2.868 -0.24425 0.5775
-2.7625 -0.41625 0.641
-2.76 -0.32 0.193
-2.8655 -0.148 0.1295
-2.657 -0.58825 0.7045
-2.6545 -0.492 0.2565
-2.549 -0.664 0.32
-2.97425 0.0295 0.06
-2.77825 -0.10275 -0.166
-2.7815 -0.09725 -0.172
-2.9775 0.035 0.054
-2.5855 -0.2295 -0.398
-2.78475 -0.09175 -0.178
-2.58875 -0.224 -0.404
-2.592 -0.2185 -0.41
-2.98075 0.0405 0.048
-2.788 -0.08625 -0.184
-2.984 0.046 0.042
-2.39275 -0.35625 -0.63
-2.396 -0.35075 -0.636
-2.2 -0.483 -0.862
-2.204 -0.47675 -0.86875
-2.4 -0.3445 -0.64275
-2.208 -0.4705 -0.8755
-2.596 -0.21225 -0.41675
-2.404 -0.33825 -0.6495
-2.6 -0.206 -0.4235
-2.792 -0.08 -0.19075
-2.212 -0.46425 -0.88225
-2.408 -0.332 -0.65625
-2.216 -0.458 -0.889
-2.932 0.4695 -0.09275
-2.8355 -0.03275 -0.25675
-2.7835 0.39075 -0.3915
-2.88 0.893 -0.2275
-2.687 -0.1115 -0.5555
-2.7315 0.81425 -0.52625
-2.635 0.312 -0.69025
-2.583 0.7355 -0.825
-2.828 1.3165 -0.36225
-2.6795 1.23775 -0.661
-2.776 1.74 -0.497
-2.5385 -0.19025 -0.85425
-2.4865 0.23325 -0.989
-2.39 -0.269 -1.153
-2.34525 0.0925 -1.268
-2.44175 0.59475 -1.104
-2.3005 0.454 -1.383
-2.53825 1.097 -0.94
-2.397 0.95625 -1.219
-2.4935 1.4585 -1.055
-2.63475 1.59925 -0.776
-2.25575 0.8155 -1.498
-2.35225 1.31775 -1.334
-2.211 1.177 -1.613
-2.7375 1.788 -0.48
-2.5775 1.66475 -0.74575
-2.539 1.71275 -0.72875
-2.699 1.836 -0.463
-2.379 1.5895 -0.9945
-2.5005 1.76075 -0.71175
-2.3405 1.6375 -0.9775
-2.302 1.6855 -0.9605
-2.6605 1.884 -0.446
-2.462 1.80875 -0.69475
-2.622 1.932 -0.429
-2.1805 1.51425 -1.24325
-2.142 1.56225 -1.22625
-1.982 1.439 -1.492
-1.939 1.49275 -1.473
-2.099 1.616 -1.20725
-1.896 1.5465 -1.454
-2.259 1.73925 -0.9415
-2.056 1.66975 -1.18825
-2.216 1.793 -0.9225
-2.419 1.8625 -0.67575
-1.853 1.60025 -1.435
-2.013 1.7235 -1.16925
-1.81 1.654 -1.416
-2.59025 2.11325 -0.15425
-2.37025 2.0585 -0.5415
-2.3385 2.23975 -0.26675
-2.5585 2.2945 0.1205
-2.1185 2.185 -0.654
-2.30675 2.421 0.008
-2.08675 2.36625 -0.37925
-2.055 2.5475 -0.1045
-2.52675 2.47575 0.39525
-2.275 2.60225 0.28275
-2.495 2.657 0.67
-1.86675 2.3115 -0.7665
-1.835 2.49275 -0.49175
-1.615 2.438 -0.879
-1.58325 2.61925 -0.60425
-1.80325 2.674 -0.217
-1.5515 2.8005 -0.3295
-2.02325 2.72875 0.17025
-1.7715 2.85525 0.05775
-1.9915 2.91 0.445
-2.24325 2.7835 0.5575
-1.51975 2.98175 -0.05475
-1.73975 3.0365 0.3325
-1.488 3.163 0.22
-2.66775 2.56375 0.88275
-2.337 2.826 0.87925
-2.50975 2.73275 1.092
-2.8405 2.4705 1.0955
-2.179 2.995 1.0885
-2.6825 2.6395 1.30475
-2.35175 2.90175 1.30125
-2.5245 2.8085 1.514
-3.01325 2.37725 1.30825
-2.85525 2.54625 1.5175
-3.186 2.284 1.521
-2.021 3.164 1.29775
-2.19375 3.07075 1.5105
-1.863 3.333 1.507
-2.02975 3.24275 1.71225
-2.3605 2.9805 1.71575
-2.1965 3.1525 1.9175
-2.69125 2.71825 1.71925
-2.52725 2.89025 1.921
-2.858 2.628 1.9245
-3.022 2.456 1.72275
-2.36325 3.06225 2.12275
-2.694 2.8 2.12625
-2.53 2.972 2.328
-3.24425 2.16325 1.58775
-3.06875 2.3525 1.727
-3.127 2.23175 1.79375
-3.3025 2.0425 1.6545
-2.9515 2.421 1.933
-3.18525 2.111 1.8605
-3.00975 2.30025 1.99975
-3.068 2.1795 2.0665
-3.36075 1.92175 1.72125
-3.2435 1.99025 1.92725
-3.419 1.801 1.788
-2.83425 2.4895 2.139
-2.8925 2.36875 2.20575
-2.717 2.558 2.345
-2.7825 2.42275 2.41975
-2.958 2.2335 2.2805
-2.848 2.2875 2.4945
-3.1335 2.04425 2.14125
-3.0235 2.09825 2.35525
-3.199 1.909 2.216
-3.309 1.855 2.002
-2.9135 2.15225 2.56925
-3.089 1.963 2.43
-2.979 2.017 2.644
-3.41625 1.4905 1.7905
-3.341 1.799 2.09525
-3.33825 1.4885 2.09775
-3.4135 1.18 1.793
-3.263 1.797 2.4025
-3.3355 1.178 2.10025
-3.26025 1.4865 2.405
-3.2575 1.176 2.4075
-3.41075 0.8695 1.7955
-3.33275 0.8675 2.10275
-3.408 0.559 1.798
-3.185 1.795 2.70975
-3.18225 1.4845 2.71225
-3.107 1.793 3.017
-3.104 1.493 3.0195
-3.17925 1.1845 2.71475
-3.101 1.193 3.022
-3.2545 0.876 2.41
-3.17625 0.8845 2.71725
-3.2515 0.576 2.4125
-3.32975 0.5675 2.10525
-3.098 0.893 3.0245
-3.17325 0.5845 2.71975
-3.095 0.593 3.027
-3.40675 0.501 1.7495
-3.33225 0.50625 1.86975
-3.331 0.44825 1.82125
-3.4055 0.443 1.701
-3.2565 0.4535 1.9415
-3.32975 0.39025 1.77275
-3.25525 0.3955 1.893
-3.254 0.3375 1.8445
-3.40425 0.385 1.6525
-3.3285 0.33225 1.72425
-3.18075 0.40075 2.01325
-3.1795 0.34275 1.96475
-3.105 0.348 2.085
-3.10375 0.283 2.0305
-3.17825 0.27775 1.91025
-3.1025 0.218 1.976
-3.25275 0.2725 1.79
-3.177 0.21275 1.85575
-3.2515 0.2075 1.7355
-3.32725 0.26725 1.66975
-3.10125 0.153 1.9215
-3.17575 0.14775 1.80125
-3.1 0.088 1.867
-3.07125 0.28725 2.10175
-3.1025 0.40925 2.3205
-3.06875 0.3485 2.33725
-3.0375 0.2265 2.1185
-3.1 0.4705 2.556
-3.035 0.28775 2.354
-3.06625 0.40975 2.57275
-3.0325 0.349 2.5895
-3.00375 0.16575 2.13525
-3.00125 0.227 2.37075
-2.97 0.105 2.152
-3.0975 0.53175 2.7915
-3.06375 0.471 2.80825
-3.06575 0.5405 3.0415
-3.0345 0.4185 2.82275
-3.0365 0.488 3.056
-3.00325 0.2965 2.604
-3.00525 0.366 2.83725
-2.974 0.244 2.6185
-2.972 0.1745 2.38525
-3.00725 0.4355 3.0705
-2.976 0.3135 2.85175
-2.978 0.383 3.085
-3.0025 0.10075 2.08075
-2.94375 -0.00775 2.14225
-2.97625 -0.012 2.071
-3.035 0.0965 2.0095
-2.9175 -0.1205 2.1325
-3.00875 -0.01625 1.99975
-2.95 -0.12475 2.06125
-2.9825 -0.129 1.99
-3.0675 0.09225 1.93825
-3.04125 -0.0205 1.9285
-2.89125 -0.23325 2.12275
-2.92375 -0.2375 2.0515
-2.865 -0.346 2.113
-2.894 -0.34975 2.04925
-2.95275 -0.24125 1.98775
-2.923 -0.3535 1.9855
-3.0115 -0.13275 1.92625
-2.98175 -0.245 1.924
-3.0405 -0.1365 1.8625
-3.07025 -0.02425 1.86475
-2.952 -0.35725 1.92175
-3.01075 -0.24875 1.86025
-2.77875 -0.4345 2.191
-2.89325 -0.16375 2.356
-2.807 -0.25225 2.434
-2.6925 -0.523 2.269
-2.9215 0.0185 2.599
-2.72075 -0.34075 2.512
-2.83525 -0.07 2.677
-2.749 -0.1585 2.755
-2.60625 -0.6115 2.347
-2.6345 -0.42925 2.59
-2.52 -0.7 2.425
-2.94975 0.20075 2.842
-2.8635 0.11225 2.92
-2.89475 0.2975 3.1605
-2.78025 0.02675 2.9955
-2.8115 0.212 3.236
-2.66575 -0.244 2.8305
-2.697 -0.05875 3.071
-2.5825 -0.3295 2.906
-2.55125 -0.51475 2.6655
-2.72825 0.1265 3.3115
-2.61375 -0.14425 3.1465
-2.645 0.041 3.387
-2.288 -0.95525 2.13575
-2.39075 -0.8105 2.6605
-2.15875 -1.06575 2.37125
-2.056 -1.2105 1.8465
-2.2615 -0.921 2.896
-1.92675 -1.321 2.082
-2.0295 -1.17625 2.60675
-1.7975 -1.4315 2.3175
-1.824 -1.46575 1.55725
-1.69475 -1.57625 1.79275
-1.592 -1.721 1.268
-2.13225 -1.0315 3.1315
-1.90025 -1.28675 2.84225
-2.003 -1.142 3.367
-1.74825 -1.42225 3.0495
-1.6455 -1.567 2.52475
-1.4935 -1.7025 2.732
-1.54275 -1.71175 2.0
-1.39075 -1.84725 2.20725
-1.288 -1.992 1.6825
-1.44 -1.8565 1.47525
-1.23875 -1.98275 2.4145
-1.136 -2.1275 1.88975
-0.984 -2.263 2.097
-1.81575 -1.487 1.03125
-1.434 -1.84825 1.02675
-1.65775 -1.61425 0.79
-2.0395 -1.253 0.7945
-1.276 -1.9755 0.7855
-1.8815 -1.38025 0.55325
-1.49975 -1.7415 0.54875
-1.7235 -1.5075 0.312
-2.26325 -1.019 0.55775
-2.10525 -1.14625 0.3165
-2.487 -0.785 0.321
-1.118 -2.10275 0.54425
-1.34175 -1.86875 0.3075
-0.96 -2.23 0.303
-1.20575 -1.973 0.04275
-1.5875 -1.61175 0.04725
-1.4515 -1.716 -0.2175
-1.96925 -1.2505 0.05175
-1.83325 -1.35475 -0.213
-2.215 -0.9935 -0.2085
-2.351 -0.88925 0.05625
-1.69725 -1.459 -0.47775
-2.079 -1.09775 -0.47325
-1.943 -1.202 -0.738
-2.5025 -0.75475 0.32075
-2.398 -0.74325 0.0255
-2.4135 -0.713 0.02525
-2.518 -0.7245 0.3205
-2.309 -0.7015 -0.27
-2.429 -0.68275 0.025
-2.3245 -0.67125 -0.27025
-2.34 -0.641 -0.2705
-2.5335 -0.69425 0.32025
-2.4445 -0.6525 0.02475
-2.22 -0.65975 -0.5655
-2.2355 -0.6295 -0.56575
-2.131 -0.618 -0.861
-2.14825 -0.58425 -0.86125
-2.25275 -0.59575 -0.566
-2.1655 -0.5505 -0.8615
-2.35725 -0.60725 -0.27075
-2.27 -0.562 -0.56625
-2.3745 -0.5735 -0.271
-2.46175 -0.61875 0.0245
-2.18275 -0.51675 -0.86175
-2.28725 -0.52825 -0.5665
-2.12675 -0.634 -0.941
-2.084 -0.764 -0.83025
-2.07975 -0.78 -0.91025
-2.1225 -0.65 -1.021
-2.037 -0.91 -0.7995
-2.0755 -0.796 -0.99025
-2.03275 -0.926 -0.8795
-2.0285 -0.942 -0.9595
-2.11825 -0.666 -1.101
-2.07125 -0.812 -1.07025
-2.114 -0.682 -1.181
-1.99 -1.056 -0.76875
-1.98575 -1.072 -0.84875
-1.939 -1.2175 -0.8165
-1.98175 -1.0875 -0.92725
-1.935 -1.233 -0.895
-2.0245 -0.9575 -1.038
-1.97775 -1.103 -1.00575
-2.0205 -0.973 -1.1165
-2.06725 -0.8275 -1.14875
-1.931 -1.2485 -0.9735
-1.97375 -1.1185 -1.08425
-1.927 -1.264 -1.052
-2.1395 -0.626 -1.108
-2.1635 -0.62175 -1.22975
-2.189 -0.56575 -1.15675
-2.165 -0.57 -1.035
-2.213 -0.5615 -1.2785
-2.2145 -0.50975 -1.08375
-2.2385 -0.5055 -1.2055
-2.264 -0.4495 -1.1325
-2.1905 -0.514 -0.962
-2.24 -0.45375 -1.01075
-2.2625 -0.50125 -1.32725
-2.288 -0.44525 -1.25425
-2.312 -0.441 -1.376
-2.3315 -0.398 -1.32025
-2.3075 -0.40225 -1.1985
-2.351 -0.355 -1.2645
-2.2835 -0.4065 -1.07675
-2.327 -0.35925 -1.14275
-2.303 -0.3635 -1.021
-2.2595 -0.41075 -0.955
-2.3705 -0.312 -1.20875
-2.3465 -0.31625 -1.087
-2.26425 -0.45725 -1.511
-2.21575 -0.64675 -1.295
-2.168 -0.663 -1.43
-2.2165 -0.4735 -1.646
-2.1195 -0.8525 -1.214
-2.12025 -0.67925 -1.565
-2.07175 -0.86875 -1.349
-2.024 -0.885 -1.484
-2.16875 -0.48975 -1.781
-2.0725 -0.6955 -1.7
-2.121 -0.506 -1.916
-2.02325 -1.05825 -1.133
-1.9755 -1.0745 -1.268
-1.86575 -1.285 -1.2255
-1.91425 -1.0955 -1.4415
-1.8045 -1.306 -1.399
-1.96275 -0.906 -1.6575
-1.853 -1.1165 -1.615
-1.9015 -0.927 -1.831
-2.01125 -0.7165 -1.8735
-1.74325 -1.327 -1.5725
-1.79175 -1.1375 -1.7885
-1.682 -1.348 -1.746
-2.065 -0.3315 -2.06875
-2.05675 -0.5715 -1.909
-2.00075 -0.397 -2.06175
-2.009 -0.157 -2.2215
-1.9925 -0.637 -1.902
-1.94475 -0.2225 -2.2145
-1.9365 -0.4625 -2.05475
-1.8805 -0.288 -2.2075
-1.953 0.0175 -2.37425
-1.88875 -0.048 -2.36725
-1.897 0.192 -2.527
[...]
CELL_DATA 4512
SCALARS cell_data_0 double
LOOKUP_TABLE default
2.67208081884e-09
8.71075716607e-09
1.24116766408e-09
5.34187407875e-09
5.86652994209e-10
1.8434057137e-10
2.101649559e-09
8.96940659276e-09
7.55857101137e-09
1.2068482737e-10
8.53690852215e-09
5.99326120199e-10
4.94520883192e-09
5.75113465644e-09
4.71829534625e-09
8.34020316307e-10
3.98573940879e-09
4.63460088486e-09
1.64901628368e-09
4.48678374346e-09
8.62363402407e-10
9.08809950514e-10
3.03076197762e-09
9.180356676e-10
3.45050963234e-09
3.15062076191e-09
5.38398788408e-09
1.27098498733e-09
7.10806157845e-10
2.50117630057e-09
1.76275777155e-09
1.27939066008e-09
5.03385804176e-09
6.23462382551e-09
1.4157236059e-09
1.01773913992e-08
2.71410630808e-09
8.55067971534e-09
2.62599029059e-09
1.18987940619e-08
3.44887858757e-09
2.43276373293e-09
5.71891804341e-09
6.46667444772e-10
9.86159973276e-09
9.89805498442e-09
6.08243671839e-09
9.62416023241e-09
1.03742867856e-08
7.4982187584e-09
3.45984629892e-09
1.54226516338e-09
1.43280399655e-09
7.01505664264e-11
1.66289537338e-08
4.74125299286e-09
1.08900576688e-09
1.40346394175e-08
1.56357930038e-08
1.78935048491e-08
1.26400553458e-09
2.57666631716e-08
2.16157276807e-08
2.46783601466e-08
1.13048737661e-08
1.43062420485e-08
1.13178907921e-08
1.1924117532e-08
3.75444204814e-09
2.63917995115e-09
6.15241498641e-09
2.39794180996e-08
1.77519506707e-08
4.56565422637e-09
2.50412469106e-08
7.10070465222e-09
1.81554989063e-08
4.51369207326e-08
3.58316575227e-09
3.81669644219e-08
5.09284321117e-08
1.07919363448e-08
1.47135979926e-08
7.85757142859e-08
1.26587031299e-08
2.16623969408e-08
3.06461750429e-08
1.25983910643e-08
4.98384150951e-09
1.70111973647e-08
1.75130068004e-08
2.61796832156e-08
9.81658316253e-09
6.31164208677e-08
3.31893770369e-08
7.67158644414e-08
2.40483735304e-09
2.80348152524e-09
3.54723723618e-09
1.71515125881e-09
1.64584764053e-09
1.86602763356e-09
6.14247697216e-10
1.328960476e-10
2.08412029425e-09
1.53165238045e-09
2.23612491463e-09
1.84870356663e-09
3.07555681065e-09
4.20245603978e-09
3.16696338909e-09
1.07175583898e-08
9.82380317358e-09
9.74718462642e-09
5.30962498459e-09
1.00691860659e-08
3.13968724898e-09
3.5654516271e-09
3.77992255684e-09
9.35575659056e-09
1.79284453275e-09
2.1154200764e-09
3.16228219573e-09
1.97475536697e-09
8.75062727755e-09
1.15699244786e-08
5.68007271334e-09
1.004802344e-08
7.59085087422e-10
3.15195279389e-09
1.62930443011e-09
1.597359901e-09
4.08755315892e-09
9.86985645876e-10
1.89449765363e-09
1.76576848397e-11
2.79728573245e-09
5.52822441323e-10
4.41704732424e-10
1.07270883089e-10
1.14453644564e-09
4.0780403637e-09
2.36812172557e-11
1.52936192932e-09
4.25821681437e-09
3.44896131371e-10
8.96747640064e-10
2.42235125887e-09
2.68444346817e-09
2.4543963384e-09
3.12330192485e-10
1.65493386677e-09
3.8778729934e-09
6.51028724852e-10
2.89452771678e-09
3.51103066384e-09
2.13649303368e-09
3.73929225453e-09
4.02219158184e-09
8.98368954122e-09
2.46787628815e-09
1.2898600813e-09
1.84691459333e-09
6.58333061738e-10
1.15787121965e-09
9.57869075502e-10
1.80589814819e-10
9.98917101295e-10
1.08320445052e-09
7.57172336747e-10
1.74219923956e-09
2.97246357489e-11
5.65385746808e-10
9.7369031569e-10
1.02814804716e-09
2.28752627119e-09
4.5543030825e-09
1.46896142056e-09
3.4936277184e-10
7.57656417534e-10
2.82608346269e-12
7.87137214284e-10
2.80321032393e-09
1.14870241813e-09
7.46399405985e-10
2.95073497615e-09
2.19937290532e-09
3.15811296582e-09
2.29967617056e-09
2.7954240256e-09
1.08270050487e-09
1.85499919593e-10
3.60558052773e-10
8.19269837727e-10
2.17603361479e-10
1.28505837481e-10
3.24407380319e-10
3.02462828429e-10
3.48000680548e-10
4.29882710393e-10
1.3476532324e-09
6.75225171791e-10
2.08025678663e-09
6.13149540636e-10
1.95294460253e-10
1.52660278228e-10
1.22166053341e-10
5.3595811885e-11
5.61982463157e-10
2.3328355192e-10
1.62060226398e-10
2.77013948339e-10
7.27960228616e-10
2.05815040528e-10
1.00179303418e-09
7.99139722978e-11
5.52749307704e-10
2.04605021356e-10
3.06694780486e-11
3.18206751634e-10
2.49065532425e-09
2.68941315477e-09
2.91096813491e-09
3.26020815751e-11
5.41641481257e-09
3.98867284543e-09
2.4720154657e-09
1.918525615e-10
1.36774119137e-09
5.00317140956e-10
1.01324007066e-09
2.46133874551e-09
3.40044118969e-09
1.90471338057e-09
4.37909800277e-09
1.90027515837e-10
1.19855650205e-09
4.45452945063e-09
1.27518366685e-10
1.17924139312e-11
5.59726925697e-10
5.10427901077e-10
4.3427011187e-10
6.76858455898e-10
3.69161727643e-10
5.70342927148e-10
3.27340896942e-09
1.27775126983e-09
3.37958996445e-10
4.40318308209e-09
9.03303216913e-10
2.3230917287e-09
1.7606168807e-09
4.46072517623e-09
2.64496884772e-09
3.6011491228e-09
3.82823269475e-10
5.39057188512e-10
7.41528736259e-10
1.29385876505e-09
9.8769586307e-11
2.50269579535e-10
6.65208010611e-11
4.07806162284e-10
3.28740098652e-10
3.89295520676e-10
6.27732921647e-10
1.19423413657e-10
1.29708558958e-09
1.15448709865e-10
3.70132776654e-10
9.69541335027e-10
3.59398946552e-10
6.31439853898e-10
3.50151902994e-11
1.14340582622e-10
1.36387165018e-10
2.96490763104e-11
2.99252134717e-10
2.70045871385e-10
5.06678802137e-11
5.1754829576e-10
7.04915780697e-10
5.32435123454e-10
2.1666029128e-10
5.75714777896e-10
1.37286572123e-10
1.54984267113e-10
1.52421743304e-09
1.11246903278e-09
6.09242908445e-10
2.04336439935e-09
1.57873915644e-09
1.56766269847e-11
1.15857030257e-09
8.41791145453e-11
1.41583871344e-09
1.57027964599e-09
1.31153753348e-09
2.25221859838e-09
2.64847431922e-09
2.11752333974e-09
2.35395645605e-09
1.75297205134e-09
2.67701837105e-09
1.28286032617e-09
9.70125454102e-10
1.98869712527e-09
1.43246100147e-10
8.36251409671e-10
4.40304791204e-10
1.37917541702e-09
2.14913579694e-09
9.75482299835e-10
1.75580049882e-09
1.56095542407e-09
2.21777716017e-09
1.67206282652e-09
5.40212180337e-10
2.18526724016e-09
1.75644588446e-09
3.14199122365e-10
4.11327950726e-10
1.56490581462e-09
4.50560432831e-10
3.95959878121e-10
2.78935638494e-11
4.58375742479e-10
7.3879295885e-11
4.79132481484e-10
3.90270299685e-10
2.33425178911e-11
1.86409387695e-09
5.14072558169e-10
1.90936695597e-10
1.68040900414e-09
5.99790488422e-10
1.03223514431e-10
3.42650926783e-10
2.96661048381e-10
5.66533718146e-10
6.53228856181e-10
4.98157248211e-10
5.87942511946e-10
5.47908233412e-10
9.06379725753e-10
1.87410234416e-10
6.49735076388e-10
2.60572911238e-10
3.83545779568e-10
9.37713777544e-10
1.22821336143e-09
1.47439694291e-10
6.14712816253e-10
8.18090139618e-10
1.18982512967e-10
1.36582710468e-10
3.87072886254e-10
1.93621048234e-09
2.3078518888e-10
8.1912719505e-10
2.75342601349e-09
9.71359301293e-10
1.28206179619e-09
1.04606846995e-11
1.59872652683e-10
1.70552223782e-09
1.64306348301e-09
4.68488989745e-09
3.31047401382e-09
1.81747854944e-09
4.87073055246e-09
2.32743076389e-09
2.78162858626e-09
2.00880867074e-09
4.09694910041e-09
3.23476258909e-09
1.2991508304e-09
4.16628101677e-09
4.70478427169e-09
5.87358667623e-09
6.14714101628e-09
2.24699820926e-09
3.67667602026e-09
1.92719397029e-08
3.78812818331e-08
8.99790863453e-09
5.67063748046e-08
3.56445943874e-08
3.23721653536e-08
9.30587910837e-08
9.9261903566e-08
1.23237508975e-08
2.18768126386e-08
8.32890764349e-09
7.01090369581e-08
7.96476267023e-08
3.25987500495e-07
1.98599192776e-07
4.77500463603e-08
2.26640040442e-07
5.30052201101e-07
2.03785095425e-07
2.81792134678e-07
1.59828360927e-07
9.64477566751e-09
1.41961031418e-08
1.70330871598e-07
1.55498972147e-07
7.21722795095e-09
2.03612586707e-08
4.78661183838e-08
4.48547012064e-07
1.15823915402e-08
3.8503070467e-08
3.77846850966e-08
1.15993299183e-09
6.8208310438e-09
3.42116214746e-09
2.50577168232e-09
7.67908788803e-10
1.04322371678e-09
8.06945805388e-10
6.44933673588e-09
8.86350392285e-10
1.45943517903e-09
9.79706948451e-09
1.42148084216e-09
2.93006148166e-09
1.66351531735e-08
5.93309666494e-10
1.19874899567e-09
1.25392210051e-08
3.11935870792e-09
2.16399581524e-09
5.94846557773e-09
8.6277960532e-09
4.56816703097e-09
2.36099845875e-08
4.37306914575e-09
5.66002793969e-09
1.93836262605e-08
1.26199884098e-08
1.06971453266e-08
9.80569486494e-09
1.59503872714e-08
1.32219031335e-08
7.81857339234e-09
8.83006342083e-10
3.75294038876e-09
3.28310401999e-09
2.06356051044e-10
2.8231476413e-09
1.84656272497e-09
1.22531592593e-09
1.64221669323e-10
1.74234075977e-09
1.76476086893e-09
2.77625427005e-09
9.20502718378e-10
7.76215960628e-10
1.40514833324e-09
1.00143074711e-09
5.52034213598e-09
9.19945983863e-09
6.35561807053e-09
1.23528115859e-09
7.6182172554e-09
4.21888298212e-09
2.86139430287e-09
9.57820470094e-10
6.52871094259e-09
1.63273828559e-09
2.27053750274e-09
5.3996014839e-09
3.77469178829e-09
9.81153422989e-09
8.45120873343e-09
8.71173221921e-09
1.57997278613e-08
8.14720348214e-09
2.20277047852e-09
5.13712138561e-10
7.89455895986e-09
3.35387273804e-09
1.34030019759e-10
1.12904568754e-09
1.10474290817e-09
9.61939277115e-10
2.50808778658e-09
3.7173273532e-10
8.01754285678e-10
6.6177952701e-09
1.05979387997e-10
1.14409935296e-09
8.4181751489e-09
6.28867614539e-09
1.12875758147e-09
3.20190987499e-10
4.76025669691e-09
2.60194691327e-10
4.27172298398e-10
7.8908015835e-10
1.67449166178e-09
2.94292626883e-10
1.8636329918e-09
2.93772141817e-09
3.43850461542e-10
3.98035710296e-09
2.32371639559e-09
4.11754600973e-10
7.0232480429e-09
4.05523889888e-09
7.57034162657e-10
2.99781749091e-09
5.43481925011e-09
8.38648713561e-11
8.78365422201e-10
6.07332807443e-11
8.96404519764e-10
1.21630732177e-09
6.13524761945e-10
2.65584715487e-09
8.40199258385e-11
2.92125713318e-09
6.78898314396e-10
1.10662660312e-10
2.21833737881e-09
3.84854612462e-09
1.71540420348e-09
8.84203337884e-10
3.65425823095e-09
3.71641632103e-11
8.89425248214e-10
1.59287124311e-09
7.94380864289e-10
8.98958847963e-10
6.25669624023e-10
5.39465525408e-09
6.43374202894e-09
4.8550604751e-09
1.05745053914e-09
7.6600040984e-09
2.61850200157e-09
3.57730421034e-09
9.50748513063e-09
8.42675812848e-10
4.05668597262e-09
6.52150099278e-09
2.32906101692e-09
5.95246417466e-10
2.79580690872e-09
1.202458319e-09
7.78520932318e-09
5.51318374369e-10
8.89445777949e-10
3.72878165467e-09
3.67661111712e-09
3.28488623925e-09
3.97260393054e-09
4.48926736385e-09
5.79684899743e-09
1.20203246658e-09
7.86309457855e-09
2.23222956462e-09
1.69454473591e-09
5.25996413502e-09
4.13732881106e-09
1.93025575242e-09
4.50263505455e-09
4.49057663517e-09
9.68803654806e-09
6.09691777451e-09
7.00440692038e-09
8.72716062776e-09
1.57342681297e-08
1.090549893e-08
4.19438378851e-09
1.06387611782e-08
1.34351850707e-09
1.34765197318e-09
2.88432071015e-09
3.24599889243e-09
4.39574397399e-09
8.30319481983e-09
1.51539583346e-09
5.20253349021e-09
5.01087464761e-09
3.84147736427e-10
1.64655012178e-09
3.22267157721e-09
1.78729223859e-09
5.55967355165e-09
2.14519875107e-09
3.35572825928e-10
9.33535662041e-09
7.70789300975e-10
3.39533475099e-09
9.14414191641e-09
4.3192875635e-09
6.6964901298e-10
9.48551848703e-09
7.87519280972e-09
3.47949502052e-09
6.56848552902e-09
9.01478778517e-09
5.23166476628e-09
3.25802908349e-09
4.22804684595e-09
2.63560262921e-08
7.97688628545e-09
1.270551621e-08
1.93129929207e-08
3.84056856628e-09
1.37321908161e-09
1.66828573626e-08
7.36112752899e-09
1.53415228949e-08
3.03830291854e-09
3.89539480751e-10
9.18822245915e-09
2.23711366967e-08
7.24270004271e-10
2.33976968848e-08
4.59161026266e-09
4.53793581932e-09
3.78390528995e-09
1.96655412929e-09
1.69286198122e-09
4.850679251e-10
2.99464467528e-08
1.31276251269e-09
2.46557978106e-09
2.78433085917e-08
9.57564807776e-09
2.61791600112e-08
7.65379139678e-09
3.65905002968e-08
2.09788083375e-08
6.65910026756e-09
1.79476115835e-08
1.23306142305e-10
1.6042442212e-08
4.70016533908e-09
4.3780273081e-10
4.85172539417e-09
2.59348042892e-09
5.7426367705e-10
1.65849523215e-08
5.14359196804e-10
1.6075835509e-08
5.01008826483e-09
2.34479273833e-09
2.12545442362e-09
2.03393977356e-10
2.40568100494e-09
1.66227491569e-09
7.65897523426e-10
1.21022346708e-10
1.52098556956e-09
1.29232870126e-10
1.78041493688e-09
2.14609413368e-09
1.04344073018e-09
1.56494318005e-09
2.8950746212e-09
3.23560485439e-09
5.63023645512e-09
4.87965496063e-10
8.9219190489e-10
5.92342827412e-09
7.66933232711e-09
3.72753482378e-09
2.19447515887e-09
4.09760544853e-09
2.67093679655e-09
6.29617638518e-10
5.97377869878e-10
4.98827255654e-10
2.65826652308e-10
3.68398515184e-09
1.51397231804e-09
1.94805788763e-09
1.17535313882e-09
3.78301004118e-09
8.56949749765e-09
5.51654410603e-10
2.07308391141e-11
1.20882857988e-09
2.85166158376e-09
2.081981881e-09
8.38276616897e-09
1.09433441825e-09
2.42939506115e-09
3.19131837398e-09
2.45882961681e-09
4.80359798671e-10
2.62630950213e-09
2.76641002288e-09
7.45185125061e-09
9.14442914826e-09
1.83230083749e-09
7.47087943454e-09
1.42403794447e-09
8.96472633134e-10
9.80862588686e-09
3.13252645011e-09
1.97042752508e-09
7.63921835269e-09
1.03783288981e-09
1.49526791933e-09
3.9185418625e-09
4.0858940505e-09
9.50046039864e-09
3.51749039699e-09
4.08314813809e-09
3.86742355283e-09
1.84985394187e-09
2.11823765128e-09
3.21921895584e-09
3.73670438814e-09
3.41776253499e-09
3.35182573203e-10
3.14821436224e-09
1.55800333703e-09
2.85861507751e-09
1.72801099289e-09
3.40404399608e-09
2.18989606713e-09
3.4584566274e-09
7.02136209654e-09
9.29571420223e-09
5.03149630185e-09
3.65391011667e-09
7.62923127974e-09
2.3821427149e-09
7.26236016793e-09
3.77545384046e-09
5.92477209263e-09
6.33123087431e-09
2.99883245681e-10
4.30269134186e-09
7.62742144638e-10
1.09187729554e-09
2.43203319444e-09
1.35853085451e-09
3.47241901173e-09
5.1322617705e-09
6.11586341293e-09
7.6048143971e-09
3.63029205861e-09
1.41601269119e-08
1.41040566635e-08
7.13955594736e-09
6.89571027126e-09
1.38050223984e-08
3.41523217817e-09
2.4469389507e-09
1.01741071777e-08
7.32955335014e-09
4.7879437907e-10
1.26302413385e-09
1.92586221938e-08
2.27930950767e-08
1.34435653965e-08
1.69133468639e-08
2.47196344184e-08
3.03500538258e-08
2.23700263026e-08
2.93049523258e-08
1.39292156792e-08
5.35625813833e-09
2.7590038455e-09
9.98768487907e-10
1.96577010633e-08
3.06359174982e-08
1.8482349164e-08
2.80177112298e-09
8.77037265171e-09
8.69368702717e-10
4.01829368495e-08
1.09236472956e-07
4.76451427821e-08
1.20040298527e-07
1.44536135563e-08
1.72168540612e-07
3.24980994618e-08
1.16401737209e-07
6.42055924004e-09
1.18924862275e-07
2.67724374641e-09
1.94219466375e-08
3.22242526369e-09
2.27322644267e-08
1.48251273445e-08
2.1842316327e-08
5.75473601566e-07
6.3347748634e-08
9.28564991826e-08
1.42893176587e-08
1.95471612634e-09
7.88399317329e-09
3.59079172079e-09
8.66615167041e-09
2.69393628835e-09
5.99001960042e-10
5.1953113334e-09
1.67504755374e-08
1.86306541326e-09
2.22067623655e-09
4.25433749574e-09
1.49973866589e-09
1.63948185356e-08
1.03839526523e-09
1.23811373177e-10
3.10553193636e-09
1.30033773162e-09
1.90305154736e-08
1.22310367795e-08
1.15472565321e-08
2.30835266252e-09
8.25988848777e-10
9.15657542537e-09
1.19115887e-08
4.11302369226e-09
4.88475998013e-09
5.37008197179e-09
1.12719941189e-08
6.96794528434e-09
7.67146920656e-09
7.42245528502e-09
2.98365771956e-08
1.70099173436e-10
1.00495417772e-09
1.50178706089e-09
2.40448846841e-09
1.55922584357e-09
2.57915725313e-10
3.74773868624e-10
2.75138137885e-09
1.12255152268e-09
1.42500341742e-10
2.15946141647e-09
3.62524591494e-10
3.53220115905e-10
1.34509756596e-09
2.50511255771e-09
1.59603533246e-09
4.70143474518e-09
1.33574423521e-09
4.22412969983e-09
3.03458596991e-09
2.98978717112e-09
1.18176865189e-09
4.31062449563e-09
4.10202323109e-09
4.47268255217e-10
4.41870728852e-10
5.18868908051e-09
2.53297365625e-09
2.28435106223e-11
2.49782274907e-09
1.40242237423e-09
3.64136958774e-09
1.83074445273e-09
3.72960351137e-09
1.72240380117e-09
3.06279635622e-09
3.5193946611e-09
2.148359321e-11
7.07756211377e-09
4.17010247558e-09
4.34312374948e-09
6.64802532081e-09
2.06154746545e-10
3.79107087067e-09
1.76588535056e-10
6.42052590767e-09
1.96318037817e-09
8.54810861486e-09
3.03162716931e-08
5.02047461763e-10
2.85561901607e-10
5.357719208e-09
7.83731801148e-10
4.25052379857e-09
3.66037889371e-09
2.69674004465e-09
6.91764979231e-10
4.9471474787e-09
1.35926179298e-09
1.04493190895e-09
2.39499991353e-09
1.3169599856e-09
1.84101577488e-09
2.26479107175e-09
4.61110547434e-09
1.90639003951e-09
2.68080896297e-09
2.38763769388e-09
1.45467186576e-09
3.71608115366e-09
2.03282399527e-09
4.0820074613e-09
2.69691945777e-09
2.07290480987e-09
6.27642614355e-09
7.22378200618e-10
5.68474885135e-09
3.07863776265e-09
2.26445000045e-09
7.90097039026e-09
6.01560893214e-10
4.0294832496e-09
4.40070105883e-09
6.38786802065e-09
1.47997501973e-09
2.97513328843e-10
9.97259023542e-09
1.80816480004e-09
2.79026409247e-09
7.48698325229e-09
1.13043630406e-08
1.22974400651e-08
1.84484071173e-09
8.52772915655e-09
1.10257961764e-08
1.33540735566e-08
6.19148637165e-09
1.80775293284e-09
1.13275225378e-08
6.23809507781e-10
8.06009767791e-10
5.78966042938e-09
6.6813871163e-09
3.14746511183e-09
5.36265701736e-09
1.23783613185e-09
1.15885382723e-09
1.76572001058e-10
5.34189023076e-10
4.27987300366e-10
3.28227563333e-09
3.24623909042e-09
4.77664865943e-10
1.67781274636e-08
4.38880453081e-09
7.30538461533e-09
6.81441366052e-09
5.21648958724e-09
8.04282507643e-09
1.94521393e-08
2.52605249174e-09
2.12010468865e-09
9.95730951697e-09
3.31147712393e-09
4.30093146738e-09
3.8960597618e-08
6.08252192137e-09
7.79086205284e-08
2.1921544323e-09
8.26805660021e-10
2.03168563275e-09
8.00428915385e-10
1.28270159153e-09
2.31226116666e-10
1.7663835035e-09
2.41505020615e-09
2.64667304901e-09
2.81697150282e-10
1.80224880329e-09
1.30111637457e-09
1.08158771167e-09
1.39521652112e-09
1.14125669543e-09
2.69672994656e-09
2.96267342131e-09
1.16998493832e-09
2.13737335281e-09
3.4848201093e-09
3.16418664806e-10
3.79358696805e-10
4.68765933623e-09
1.8123908294e-10
2.93667202699e-10
5.12290705115e-09
3.26011288531e-09
4.28155224465e-09
8.57788219407e-10
5.43551680527e-09
4.46723454185e-09
3.77031397985e-09
2.65034625227e-09
4.71413010059e-09
1.54635940873e-09
3.61461096388e-09
1.02198039893e-09
2.74117892566e-11
1.04726574585e-09
4.61718750327e-09
9.35251199915e-10
3.78282290578e-10
2.6781606017e-09
9.27929130668e-10
3.60069537475e-09
4.69548865082e-09
2.07623934815e-09
4.63169121926e-09
3.45497353635e-09
5.70515287202e-10
5.30650942951e-10
5.77307062407e-09
1.99212664527e-10
3.5172215945e-10
8.47561074899e-10
1.18438325015e-09
1.67215842131e-09
2.76589998944e-09
1.28823673932e-09
1.79217674805e-09
6.73649020126e-10
1.46688320615e-09
3.00273299494e-09
3.18652375776e-10
4.3352406765e-10
7.46466562107e-10
4.12456786767e-10
3.94434170631e-11
1.33473122037e-09
1.09984348775e-10
4.31505099081e-09
8.99241264422e-11
2.73265097285e-09
1.01704909699e-09
1.55867539643e-09
2.18594150029e-10
1.02927990099e-08
1.07352206813e-08
6.61944692718e-09
2.790136455e-09
3.34122148939e-08
2.50846900812e-08
1.42654686874e-08
2.94719021468e-08
7.46866827071e-10
3.25337035194e-09
2.23122710872e-09
2.25539342902e-08
1.43988860661e-09
1.68804469963e-09
1.0634992175e-09
1.25816866782e-09
1.77251191935e-08
7.78138082908e-09
1.05905918552e-10
2.46565826726e-09
1.4016602135e-09
3.01961084953e-09
3.55935410309e-10
1.51992191833e-09
1.35254463145e-09
1.1713512018e-09
1.63579360543e-09
1.98631072027e-09
2.33799137891e-09
7.82588443642e-10
3.70679155201e-09
2.35573304414e-10
1.21146157643e-09
2.06057113265e-09
6.68707417294e-10
1.1888613827e-09
1.47054653545e-09
6.53843200311e-10
1.28944739449e-09
5.64463214233e-10
4.79406664622e-10
5.36971182812e-10
3.5647408418e-09
6.49637866774e-10
6.09425091217e-10
3.83667438358e-09
4.52135864647e-09
3.53912283371e-09
2.60702902382e-10
3.81636870766e-09
3.85859919097e-09
1.67380221118e-09
3.96173387396e-09
6.36766673799e-09
1.12514144028e-09
4.3147699218e-09
1.35786996619e-09
2.42012815632e-09
1.60143847584e-09
6.03340251608e-09
1.41966967634e-09
5.53161331529e-11
2.67372934269e-09
6.2202357661e-10
4.38584590057e-09
4.94395736696e-09
1.07798734269e-09
2.82388138058e-09
1.75476779633e-09
4.0370329715e-10
1.5350412335e-09
1.6137865535e-09
5.19930306009e-10
4.54698731996e-10
3.21739425685e-10
7.12186543225e-10
1.84953390657e-11
9.37264325248e-10