# vtk DataFile Version 3.0
File Name: Molecule/arg/arg_4.0-1.vtk
ASCII
DATASET UNSTRUCTURED_GRID
FIELD FieldData 1
TIME 1 1 double
0.0
POINTS 671 double
-3.403 0.327 1.604
-3.45 0.103 1.078
-2.981 -0.361 1.858
-3.028 -0.584 1.332
-3.298 -0.003 0.536
-2.876 -0.691 0.79
-2.971 0.024 0.066
-2.549 -0.664 0.32
-2.984 0.046 0.042
-2.471 -0.12 -0.363
-2.484 -0.099 -0.385
-2.2 -0.483 -0.862
-2.216 -0.458 -0.889
-3.25 0.578 -0.258
-2.57 0.022 -0.532
-2.777 0.436 -0.766
-2.39 -0.269 -1.153
-2.617 0.185 -1.409
-3.173 1.207 -0.458
-2.716 0.926 -0.921
-2.55 0.723 -1.58
-2.776 1.74 -0.497
-2.407 1.34 -0.951
-2.211 1.177 -1.613
-2.622 1.932 -0.429
-2.287 1.501 -0.894
-2.142 1.682 -0.83
-1.982 1.439 -1.492
-1.81 1.654 -1.416
-2.655 2.421 0.048
-2.046 2.135 -0.548
-2.075 2.574 -0.12
-1.615 2.438 -0.879
-1.647 2.927 -0.402
-2.495 2.657 0.67
-1.932 2.785 0.438
-1.488 3.163 0.22
-2.925 2.572 1.071
-2.137 2.872 1.156
-2.512 2.798 1.506
-1.863 3.333 1.507
-2.279 3.251 1.894
-3.186 2.284 1.521
-2.739 2.546 1.897
-2.53 2.972 2.328
-3.419 1.801 1.788
-2.888 2.359 1.917
-3.122 1.876 2.185
-2.717 2.558 2.345
-2.979 2.017 2.644
-3.567 1.179 1.827
-3.133 1.725 2.369
-3.262 1.186 2.403
-3.107 1.793 3.017
-3.25 1.192 3.055
-3.408 0.559 1.798
-3.123 0.649 2.378
-3.095 0.593 3.027
-3.105 0.348 2.085
-3.1 0.088 1.867
-2.97 0.105 2.152
-3.02 0.504 2.546
-2.901 0.29 2.606
-2.978 0.383 3.085
-2.865 -0.346 2.113
-2.52 -0.7 2.425
-2.794 0.071 2.575
-2.491 -0.24 2.849
-2.645 0.041 3.387
-2.46 -1.117 2.184
-2.148 -0.9 2.844
-2.09 -1.3 2.613
-2.003 -1.142 3.367
-1.937 -1.6 3.103
-2.268 -1.45 1.888
-1.906 -1.62 2.328
-1.726 -1.965 2.777
-1.967 -1.659 1.57
-1.617 -1.821 2.023
-1.396 -2.195 2.428
-1.592 -1.721 1.268
-1.257 -1.88 1.733
-0.984 -2.263 2.097
-2.026 -1.588 0.931
-1.237 -1.838 0.739
-1.646 -1.713 0.421
-0.96 -2.23 0.303
-1.437 -2.084 -0.068
-2.342 -1.257 0.596
-1.944 -1.402 0.106
-1.784 -1.721 -0.435
-2.487 -0.785 0.321
-2.08 -0.956 -0.154
-1.943 -1.202 -0.738
-2.189 -0.632 -0.224
-2.248 -0.516 -0.225
-2.131 -0.618 -0.861
-2.114 -0.682 -1.181
-1.927 -1.264 -1.052
-2.312 -0.441 -1.376
-2.121 -0.506 -1.916
-2.042 -0.816 -1.214
-1.838 -0.886 -1.79
-1.682 -1.348 -1.746
-1.975 -0.256 -2.322
-1.864 -0.768 -1.888
-1.672 -0.441 -2.421
-1.897 0.192 -2.527
-1.57 0.147 -2.691
-1.996 0.646 -2.441
-1.495 0.306 -2.776
-1.602 0.798 -2.682
-1.198 0.386 -3.152
-1.328 0.981 -3.039
-2.011 1.039 -2.18
-1.619 1.224 -2.399
-1.348 1.496 -2.696
-1.72 1.257 -2.235
-1.479 1.817 -1.75
-1.107 2.057 -2.211
-1.346 2.153 -1.415
-1.642 2.007 -1.116
-1.319 2.584 -1.178
-0.816 3.013 -1.267
-1.111 2.259 -1.642
-0.623 2.675 -1.729
-0.543 2.537 -2.312
0.466 3.148 -0.891
-0.416 2.926 -1.599
0.331 3.005 -1.38
-0.131 2.956 -2.042
0.328 3.005 -1.907
-0.002 3.1 -2.533
0.456 3.148 -2.398
-0.048 3.337 -3.001
0.699 3.415 -2.782
0.833 2.913 -0.61
0.619 2.806 -1.364
0.976 2.577 -1.092
0.892 2.689 -1.891
1.303 2.425 -1.576
1.057 2.557 -0.305
1.192 2.232 -0.796
1.553 2.026 -1.234
0.979 2.767 0.195
1.539 1.918 0.039
1.462 2.128 0.539
0.737 2.845 0.68
1.22 2.206 1.024
0.406 3.093 0.833
0.71 2.572 1.142
0.419 2.789 1.277
0.841 2.425 1.643
0.539 2.651 1.783
1.112 2.426 2.108
0.748 2.699 2.276
0.011 3.456 0.651
0.05 3.076 1.433
-0.284 3.383 1.279
-0.034 3.266 2.099
-0.415 3.616 1.924
-0.504 3.599 0.465
-0.72 3.504 1.122
-0.913 3.754 1.744
-1.038 3.495 0.311
-1.173 3.416 0.991
-1.429 3.653 1.595
-1.554 3.135 0.914
-0.08 3.426 2.677
0.304 2.919 2.221
0.258 3.08 2.801
0.695 2.881 2.933
-0.313 3.4 3.231
0.024 3.055 3.358
0.431 2.852 3.563
-0.687 3.194 3.654
-0.352 2.847 3.783
0.006 2.617 4.044
-1.222 3.175 3.77
-0.58 2.815 3.881
-1.2 2.794 4.016
-1.756 3.136 3.659
-1.82 2.748 3.887
-2.199 3.083 3.341
-2.333 2.687 3.518
-2.473 3.025 2.87
-2.65 2.619 2.973
-0.832 2.373 4.277
-0.242 2.183 4.431
-1.061 1.806 4.483
-0.466 1.628 4.634
-1.434 2.302 4.313
-1.452 1.611 4.604
-1.773 2.038 4.456
-1.892 2.602 3.976
-2.169 2.297 4.166
-2.355 2.652 3.532
-2.568 2.341 3.783
-2.74 2.445 3.06
-2.9 2.162 3.376
-1.464 1.095 4.666
-0.956 1.592 4.533
-0.968 1.074 4.596
-0.48 1.041 4.705
-1.655 0.731 4.634
-0.882 0.784 4.614
-1.066 0.434 4.582
-0.333 0.517 4.869
-0.555 0.096 4.831
-2.14 0.383 4.441
-1.246 0.178 4.538
-1.7 -0.148 4.358
-0.878 -0.357 4.785
-1.429 -0.753 4.566
-2.498 0.133 3.99
-2.035 -0.382 3.936
-1.836 -1.037 4.053
-2.172 -0.468 3.371
-0.383 -0.749 5.065
-0.05 -0.304 5.117
0.164 -1.171 5.088
0.507 -0.734 5.141
0.4 -1.671 4.946
0.615 -0.976 5.092
0.839 -1.451 4.956
1.043 -0.806 5.264
1.279 -1.306 5.122
0.636 -2.087 4.632
1.063 -1.845 4.659
1.514 -1.722 4.808
0.844 -2.371 4.183
1.26 -2.115 4.232
1.723 -2.007 4.359
1.002 -2.493 3.648
1.411 -2.231 3.724
1.881 -2.129 3.824
1.092 -2.439 3.086
1.496 -2.18 3.191
1.971 -2.075 3.263
1.104 -2.215 2.561
1.508 -1.967 2.692
1.983 -1.85 2.738
1.037 -1.846 2.131
1.444 -1.616 2.284
1.916 -1.481 2.307
0.647 -2.269 2.118
0.798 -1.688 1.555
0.487 -2.024 1.545
0.806 -1.676 0.912
0.496 -2.012 0.902
1.061 -1.813 0.337
0.67 -2.236 0.324
0.119 -2.499 2.107
0.068 -2.206 1.536
0.076 -2.194 0.893
0.142 -2.466 0.313
-0.457 -2.497 2.099
-0.39 -2.205 1.53
-0.381 -2.193 0.887
-0.434 -2.464 0.306
-0.808 -2.019 1.528
-0.8 -2.007 0.885
1.48 -1.078 0.031
1.043 -1.422 0.814
1.323 -0.93 0.61
1.205 -1.217 1.373
1.436 -0.812 1.205
1.517 -1.238 1.905
1.797 -0.747 1.701
2.335 -0.746 2.002
1.639 -0.712 -0.547
1.476 -0.549 0.311
1.615 -0.229 -0.195
1.697 -0.118 0.66
1.842 0.216 0.134
1.693 -1.21 -0.838
1.805 -0.426 -1.067
1.853 -0.872 -1.327
2.201 -0.141 -1.444
2.253 -0.62 -1.722
1.568 -1.637 -1.21
1.741 -1.254 -1.66
2.133 -1.029 -2.079
1.279 -1.936 -1.614
1.483 -1.521 -2.022
1.857 -1.315 -2.467
0.866 -2.068 -1.998
1.113 -1.639 -2.366
1.46 -1.442 -2.835
0.381 -2.015 -2.311
0.679 -1.593 -2.646
0.995 -1.392 -3.136
-0.112 -1.786 -2.513
0.238 -1.387 -2.827
0.523 -1.172 -3.329
-0.548 -1.409 -2.576
-0.152 -1.05 -2.884
0.104 -0.811 -3.39
-0.822 -1.287 -2.506
-0.408 -0.948 -2.806
-0.669 -0.831 -2.739
-0.336 -0.591 -3.197
-0.616 -0.466 -3.125
-1.31 -1.347 -2.194
-0.988 -0.705 -2.664
-1.485 -0.767 -2.346
-1.322 -0.31 -2.728
-0.95 -0.071 -3.189
-0.311 -0.212 -3.619
0.128 -0.454 -3.788
-0.16 0.24 -3.931
0.27 -0.03 -4.081
0.101 0.716 -4.098
0.516 0.418 -4.238
-0.411 1.252 -3.909
0.377 1.347 -4.4
0.11 1.626 -4.301
-0.398 1.946 -3.588
0.117 1.987 -4.134
-0.106 2.463 -3.53
-0.202 2.855 -2.684
0.028 3.029 -3.665
0.173 2.486 -3.833
0.9 3.106 -3.671
0.85 2.546 -3.838
0.989 2.064 -4.14
1.267 2.733 -3.406
0.819 3.383 -2.845
1.204 2.948 -2.765
1.749 2.404 -3.353
0.902 2.914 -2.485
0.749 2.956 -2.405
1.123 2.627 -2.01
1.688 2.19 -1.733
1.668 2.681 -2.526
1.962 2.454 -2.382
2.133 1.624 -1.992
2.194 2.159 -2.516
2.141 1.301 -1.585
2.428 1.273 -2.257
2.435 0.969 -1.874
2.042 0.907 -1.262
2.342 0.599 -1.57
1.911 1.516 -1.257
1.855 0.911 -0.632
1.743 1.428 -0.628
1.976 0.918 0.014
1.858 1.462 0.018
1.44 1.861 -0.608
1.861 0.778 -0.544
1.751 0.201 -0.446
1.991 0.665 -1.105
1.878 0.074 -1.004
2.497 1.237 -3.182
2.241 1.687 -2.422
2.29 1.662 -3.078
2.232 2.14 -3.028
1.83 1.363 -3.817
1.817 1.751 -3.528
1.863 2.209 -3.379
1.382 0.739 -4.338
1.413 1.57 -3.947
1.095 1.128 -4.316
1.103 1.869 -4.167
0.855 1.524 -4.455
0.482 0.901 -4.245
1.404 2.01 -3.684
1.315 2.161 -3.664
2.007 0.383 0.735
1.766 -0.192 1.22
2.031 0.236 1.284
1.991 -0.414 1.693
2.267 0.032 1.759
2.675 -0.196 2.083
2.074 0.941 0.928
2.088 0.713 1.449
2.326 0.528 1.931
2.749 0.417 2.295
1.884 1.434 1.198
1.926 1.135 1.68
2.158 0.967 2.172
2.541 0.959 2.592
1.624 1.884 1.117
1.755 1.469 1.75
1.503 1.904 1.671
1.842 1.579 2.299
1.557 2.073 2.21
1.11 2.216 1.58
1.886 1.845 2.759
2.132 1.224 2.493
2.174 1.477 2.929
2.585 1.225 3.051
1.814 2.002 3.263
2.105 1.625 3.407
2.513 1.382 3.555
1.633 2.033 3.763
1.933 1.655 3.881
2.331 1.413 4.055
1.359 1.937 4.21
1.674 1.563 4.305
2.058 1.316 4.502
1.021 1.721 4.561
1.354 1.359 4.638
1.72 1.101 4.853
0.651 1.408 4.781
1.002 1.062 4.847
1.35 0.788 5.074
0.073 1.245 4.841
0.82 0.891 4.947
0.23 0.725 5.008
0.672 0.387 5.179
1.205 0.294 5.301
0.564 -0.173 5.245
1.099 -0.256 5.367
-1.999 2.782 0.776
-1.065 -1.824 1.176
1.419 -0.545 0.696
1.7 -0.166 -0.791
-3.196 2.043 -0.114
-3.592 1.578 -0.026
-3.592 1.985 0.326
-3.196 2.357 0.319
-3.592 2.137 0.843
-3.196 2.469 0.843
-3.592 1.985 1.36
-3.85 1.69 0.843
-3.85 1.435 1.283
-3.592 0.264 0.574
-3.85 0.672 0.843
-3.85 0.927 0.403
-3.592 0.555 0.121
-3.592 1.045 -0.103
-3.85 1.435 0.403
-3.94 1.181 0.843
-3.85 0.927 1.283
-3.592 0.555 1.565
-2.722 -1.154 1.098
-2.722 -1.154 1.636
-2.722 -0.863 2.089
-2.326 -1.497 1.099
-2.482 0.597 -1.975
-2.482 0.047 -1.975
0.763 3.18 -0.086
0.367 3.4 -0.61
0.367 3.512 -0.086
0.367 3.4 0.438
-0.118 3.59 -0.615
-0.118 3.688 -0.086
-0.634 3.59 -0.615
-0.634 3.688 -0.086
-1.119 3.512 -0.086
-1.119 3.4 -0.61
-1.119 3.086 -1.043
-0.667 3.796 3.018
-0.667 3.906 2.497
-1.198 3.918 2.998
-1.198 3.65 3.431
-1.198 3.918 1.996
-1.198 4.012 2.497
-1.729 3.906 2.497
-1.729 3.796 3.018
-1.729 3.482 3.449
-1.729 3.796 1.976
-2.179 3.606 2.497
-2.179 3.474 2.987
-1.895 1.335 4.734
-2.426 1.603 4.572
-2.426 1.073 4.627
-2.426 2.064 4.305
-2.876 2.056 3.843
-2.876 1.697 4.202
-2.876 1.207 4.334
-2.876 0.717 4.202
-2.426 0.566 4.463
-3.176 1.738 3.353
-3.176 1.472 3.813
-3.176 0.942 3.813
-2.876 0.358 3.843
-3.176 0.676 3.353
-3.282 1.207 3.353
0.578 -2.491 4.272
0.08 -2.472 4.525
0.08 -2.776 4.08
0.578 -2.727 3.81
0.08 -2.934 3.566
0.578 -2.808 3.297
0.08 -2.934 3.028
0.578 -2.727 2.784
0.08 -2.776 2.514
0.08 -2.052 4.861
-0.44 -2.052 4.861
-0.44 -2.472 4.525
-0.44 -2.776 4.08
-0.44 -2.934 3.566
-0.44 -2.934 3.028
-0.44 -2.776 2.514
-0.44 -1.551 5.057
-0.938 -1.149 4.956
-0.938 -1.662 4.875
-0.938 -2.124 4.639
-0.938 -2.491 4.272
-0.938 -2.727 3.81
-0.938 -2.808 3.297
-0.938 -2.727 2.784
-0.938 -2.491 2.322
-1.374 -1.149 4.675
-1.374 -1.677 4.571
-1.374 -2.124 4.272
-1.374 -2.423 3.825
-1.374 -2.527 3.297
-1.374 -2.423 2.769
-1.714 -1.289 4.273
-1.714 -1.795 4.042
-1.714 -2.095 3.575
-1.93 -1.406 3.742
1.624 -1.33 -0.389
1.408 -1.719 -0.089
1.408 -2.019 -0.556
[...]
CELL_DATA 1338
SCALARS cell_data_0 double
LOOKUP_TABLE default
1.8407021104e-08
2.29314236261e-09
5.50242781129e-09
1.28462185134e-08
4.41984209368e-08
9.94949313718e-09
3.90664494221e-08
1.95650135704e-08
1.66894105575e-08
7.2509933766e-09
8.65638631763e-08
7.13686736963e-08
1.42824162041e-07
3.67915803524e-08
5.86022393698e-09
7.9886860901e-09
1.37017066735e-09
7.40719973125e-08
4.05978315513e-08
6.77503860939e-08
6.78710281543e-08
1.25696928125e-07
3.62240443361e-08
3.38330958596e-08
1.95568776933e-08
1.30076824892e-08
6.47673703848e-08
7.45329549365e-08
8.27795885869e-08
1.03499727086e-07
6.5057912675e-09
4.53848403734e-08
1.95356167899e-09
1.55673119176e-08
1.70177865784e-08
1.59872392788e-08
2.41463775372e-08
1.89601506653e-08
2.8060130354e-10
2.48136973563e-08
1.33536706536e-08
4.86358054252e-09
6.47200253334e-09
9.42268537631e-09
1.23780613601e-08
6.15328004551e-09
2.5718099242e-09
1.04023745715e-08
2.81964462821e-08
3.42328370847e-09
3.38781440397e-08
3.84537187554e-08
3.61064837573e-09
8.46555703514e-09
2.37132379459e-09
1.04409988735e-08
7.57112992329e-09
1.14918616895e-08
2.07239672161e-08
1.75622564593e-08
4.08749485902e-09
7.21643406195e-09
2.22706790904e-08
6.6009124276e-08
3.52601116443e-08
5.46312076494e-08
2.69897578578e-07
1.600082151e-07
9.14119957454e-07
8.49375567372e-08
5.53152770429e-08
1.61870205411e-07
2.68493628168e-07
1.3027828716e-07
9.27094473068e-08
3.87044930653e-08
1.32960939431e-07
5.13174017885e-08
9.79769054526e-08
4.50034525375e-08
4.59372129701e-08
3.56416148925e-08
1.7475215978e-09
6.53358127237e-08
1.07362518603e-07
3.54871044151e-08
2.3407308414e-08
2.84291706237e-08
3.8747869667e-08
5.1860412143e-09
6.5245199789e-08
6.85061114952e-08
1.58475780132e-08
4.8498837205e-09
4.73425476249e-08
3.3790027369e-08
1.73543515782e-08
2.7346653352e-08
5.31419442075e-08
5.57551839774e-08
2.01780580037e-08
8.48795710558e-09
3.44586602955e-09
8.26573545058e-08
4.04186562445e-08
4.94311766528e-08
1.09709244552e-08
3.43592501503e-08
6.52373809089e-08
8.09303810373e-08
8.67020754583e-08
4.33370711192e-08
1.51817743721e-07
1.4627066697e-08
1.01890311275e-07
1.43314145422e-07
6.38757678285e-09
8.25278354441e-08
2.37766470967e-08
3.32265366967e-08
1.40172908845e-07
6.05696766758e-08
3.04839426024e-08
7.44717410932e-08
2.83156952174e-08
2.13383753956e-08
2.61198253715e-08
6.96690098958e-08
3.16368725583e-07
2.08254922677e-07
3.10941148014e-07
1.29399211669e-08
1.39451325678e-07
2.48847375689e-08
7.51500702653e-08
9.93947526009e-08
1.77756721775e-07
1.72767159033e-06
1.05365157509e-08
5.59631990697e-08
3.02270445739e-07
1.75583982549e-07
7.27327168718e-08
6.25231212292e-08
2.2666997878e-08
1.12256507652e-07
2.21448246531e-08
2.72690302058e-08
6.54798375088e-09
5.59641994551e-09
1.22218186432e-08
7.66604539807e-09
5.12345524313e-09
2.66731480952e-08
1.78498218698e-08
7.91839860577e-08
1.48203404879e-09
1.75451740759e-08
1.66546621779e-08
2.35418660464e-08
4.47873877464e-09
6.89743250358e-09
9.40414317937e-09
9.52103559639e-09
4.92129916403e-09
3.32850833816e-09
3.50050907816e-09
1.24964175983e-09
1.10798611971e-08
1.43590724337e-08
1.09026310753e-08
1.1436109624e-08
2.45459405042e-09
3.35316297256e-08
2.95248974904e-08
3.70048785473e-08
9.2811826091e-10
2.50187962554e-08
1.04502190185e-07
2.22027259856e-07
7.661632415e-09
1.37191970107e-08
3.13489693063e-08
1.27889327684e-07
2.83138172392e-09
1.49235231189e-08
1.63679597012e-09
2.63647575218e-09
6.17341300354e-10
6.25753158342e-09
4.28112468556e-09
5.40217944147e-09
9.41882465129e-09
1.25509124604e-08
2.69925836308e-08
4.61592581907e-08
6.37458087549e-09
2.36862209249e-08
1.54302600303e-08
6.77596920855e-09
2.41571541657e-10
2.54744407643e-10
3.69352880318e-09
5.78243530744e-10
5.30784397198e-09
3.90933880095e-09
1.9681741655e-10
1.15973347546e-08
1.2178689236e-08
1.51444158771e-08
6.06208779822e-09
2.38866789768e-08
3.90606659826e-09
7.89218592303e-09
1.72044535521e-08
1.46630516964e-09
1.07778822906e-08
5.1828249469e-08
1.07098640523e-07
3.57281315084e-08
3.42521920039e-08
1.14473063226e-07
2.33322666578e-07
2.10756956106e-07
1.29752907162e-07
3.02793511418e-07
1.69820056093e-07
4.90945169967e-07
5.92620901421e-08
1.84591337831e-09
4.23929905619e-08
5.79504484571e-09
2.32363500205e-08
1.55218874203e-09
2.76862369865e-08
4.36366718107e-08
4.46258655868e-09
1.14866926342e-07
1.95179565999e-08
7.95783807796e-08
1.60007173056e-07
2.78922126467e-07
1.23464437462e-07
3.60040672359e-08
1.46446497381e-07
1.53017650615e-07
1.04658742565e-07
1.06462627728e-07
2.5742962776e-07
6.80433448269e-08
2.01020275128e-08
1.02226739896e-06
1.36003757796e-07
2.85624314507e-09
1.07978546636e-07
2.98497311331e-07
1.91435511238e-08
1.66615129247e-08
3.5382512067e-08
3.72916153682e-08
8.65676687782e-08
6.37613015964e-08
1.41213177862e-07
3.61525400469e-08
3.51131236306e-07
7.1374937671e-08
8.60211260326e-08
4.84773989199e-09
3.51651939847e-08
1.36689645984e-08
1.49454155248e-07
6.5071079232e-08
5.00969487914e-08
9.99119322204e-09
3.52875133463e-08
5.33658218669e-08
1.02606269679e-07
3.2230572989e-08
6.65931183201e-08
1.87905033946e-08
8.82762287183e-08
6.92995056768e-08
7.23937577076e-08
5.90181208597e-08
3.75631179813e-07
1.79182100973e-07
4.72366008347e-08
4.59454984154e-08
2.03772448527e-08
5.47690941448e-08
7.98390860137e-09
4.10939016656e-08
6.46729816776e-08
8.7990219901e-08
1.39865208761e-09
3.65889563676e-09
2.73125015546e-08
8.08853866852e-08
1.01268134652e-07
1.32280171584e-07
1.14911690485e-08
9.89808114276e-08
7.19446774378e-09
1.28045840211e-07
2.46657910168e-08
8.07150216224e-08
3.66603141916e-08
1.03977246645e-07
3.84472416863e-08
6.48073539667e-08
7.30487608692e-08
7.31037662129e-08
6.19428389662e-08
4.39629904061e-08
1.20526988348e-07
6.45061438643e-08
7.58988019067e-08
2.16609340437e-08
1.91293957494e-07
4.05631951074e-09
8.95198290097e-08
1.95357773857e-08
2.79856245771e-07
1.02857772679e-07
1.41832673887e-08
3.98865824903e-08
4.3752858365e-08
3.2891845552e-08
1.71668250673e-08
3.53077238437e-08
2.27068175349e-09
5.08140182053e-08
3.10139335667e-08
1.0067399708e-08
1.25944493715e-08
1.0709335502e-08
8.28356668058e-08
9.8600764405e-08
1.59904269112e-07
9.02413258871e-08
3.30212096518e-07
6.6964121603e-08
2.29097340092e-07
6.39991981554e-07
3.05884891787e-07
1.1075724217e-07
6.41517922467e-07
6.01147462558e-07
1.69378039266e-06
1.70913722344e-06
1.93865113735e-06
2.49963910348e-06
4.01154161602e-07
5.45096972407e-07
3.03528553399e-07
1.44129822886e-08
3.56583605946e-08
4.62999448118e-08
1.35224324022e-06
7.55789904125e-07
1.45480794234e-06
1.23398542711e-06
3.53838746461e-08
1.6961894765e-07
8.71562161453e-08
8.91884674765e-08
6.07136349449e-08
5.09161946387e-08
4.5382815246e-08
4.8445345321e-08
2.11080294198e-08
1.66278734655e-07
7.00848973317e-08
1.4996794207e-08
2.56744110399e-08
5.68463211163e-08
7.61986077226e-08
1.49399225073e-07
4.93477700805e-08
2.86250985081e-07
1.09159092902e-06
1.31412529276e-07
1.73640701029e-06
2.78727505079e-07
2.64006326768e-07
6.31748880396e-07
7.62713373156e-08
1.31511205132e-06
1.71007738638e-06
8.76948939186e-07
2.87715284444e-06
8.2477685104e-07
5.12543980622e-08
6.21883025145e-07
1.04580372388e-07
5.12350555693e-07
1.44759603401e-07
1.58388390888e-07
4.36775115256e-08
2.18116476807e-07
1.76972182544e-08
2.96233931045e-08
2.00433902845e-08
1.80889351818e-08
9.949489032e-09
1.14010185889e-09
3.30803388683e-08
2.2327703446e-08
1.90054943108e-08
1.98294213167e-08
4.08930545092e-08
7.39509164423e-08
2.00507987564e-08
1.94748881667e-08
5.29054617342e-09
1.71525110333e-08
1.29003503914e-08
1.08133190237e-07
4.70122065026e-10
4.60896593305e-08
6.10095732882e-08
3.5920602314e-08
1.70765979945e-08
6.76144932689e-09
5.79281614591e-08
6.85401624565e-08
4.51280980068e-08
2.28757576709e-07
7.37482389879e-08
1.36731860619e-07
2.15060814512e-07
1.62425302253e-07
6.07444223329e-08
8.79342130502e-08
1.48857054933e-07
1.73797459921e-08
7.2752365169e-08
4.68900520181e-07
1.40545421266e-07
5.57460756532e-08
1.59692558268e-07
3.6126381738e-07
1.2253119757e-08
5.87513633291e-08
9.69116174883e-09
1.1584202693e-07
2.11965190908e-08
6.60833423987e-09
8.59433421829e-09
3.75158902506e-09
2.69895449737e-08
1.68731992919e-08
2.46270214838e-09
1.15395146564e-08
1.71968097127e-08
5.51209613297e-09
9.18442009543e-09
1.35058906389e-09
3.571048644e-08
1.28978541543e-08
1.79954746316e-08
1.36372497261e-09
6.02329267105e-08
8.7911795029e-08
5.71818533778e-08
1.51114697418e-08
4.29874661795e-08
4.54292125314e-08
1.56026941105e-08
1.14424829458e-08
6.61388487302e-08
2.0801233308e-08
8.99061533898e-08
2.59570215567e-08
1.7150882987e-08
2.64992737779e-08
3.36435145597e-08
8.77524354337e-10
3.6277643332e-09
1.51934381138e-08
5.06953037092e-09
8.28727296656e-09
1.20104033807e-08
1.49087814133e-08
7.99241052756e-09
9.25703525722e-09
1.79401798799e-08
2.20684827859e-08
1.69857852079e-08
3.20104965415e-08
2.0488474143e-08
3.12061753287e-08
4.49418798484e-07
7.83355678355e-07
3.81514888738e-07
7.57475354576e-07
2.99487903161e-08
2.85252580986e-08
8.51481810337e-08
1.26876359709e-07
3.16385333945e-09
1.5136603557e-08
2.87957164731e-08
5.52078992441e-08
3.24575056806e-08
6.36199245804e-09
2.18553890789e-08
3.11836881233e-08
3.94868630869e-08
3.7389579139e-08
5.73640875914e-08
6.33256026468e-09
8.42489981341e-08
6.18834795663e-08
9.36187325874e-08
1.20759516805e-07
6.37026183113e-09
3.066540985e-07
1.43714413427e-07
7.61668552371e-07
2.61738627436e-07
5.81911614406e-08
1.81119549325e-07
7.25887712811e-07
1.64704707644e-07
3.13355186054e-07
1.44894944751e-07
1.00613523253e-07
1.3907706173e-07
4.58634959175e-08
7.81358181165e-08
1.28782034355e-07
2.20597575444e-08
1.70152860157e-08
2.82718540611e-08
7.62234821553e-10
5.9614413273e-08
1.05143552129e-08
4.04265408372e-09
3.69111056209e-08
9.70121066123e-09
1.21954733116e-08
3.59087649916e-10
3.17880024125e-09
4.8230905992e-10
1.92999677126e-08
3.23862526169e-10
2.0373872187e-09
3.89487819859e-08
7.32836163714e-09
2.52041854727e-09
4.61562068066e-09
7.65189841813e-10
1.85284509728e-08
1.32583485336e-08
7.56828253666e-09
1.46881938764e-08
1.99394014925e-07
1.63906495459e-07
6.14914844344e-08
2.54369335814e-08
2.13746936949e-08
3.73685091817e-08
2.43089364575e-08
4.25123191573e-08
4.99786157297e-08
2.17212487723e-07
1.07062802864e-07
3.82461640892e-08
3.25873264068e-08
9.24853903737e-08
7.9407654437e-09
8.86795634153e-08
2.6034017521e-08
6.95230006336e-08
1.030152746e-08
1.21596319037e-08
4.976354331e-08
4.45596576428e-09
2.47322180134e-08
1.73422743576e-08
2.9915889146e-08
5.25730408218e-07
8.01485644076e-07
6.73713831066e-07
1.33032588896e-06
2.54678262158e-06
7.48433807066e-07
7.52265830707e-08
1.14146073649e-07
1.75557675455e-07
2.91448804267e-07
2.1079823267e-07
1.48470595167e-07
4.53871967504e-08
6.74533807916e-08
2.64458524114e-08
5.26398011573e-09
4.26617411084e-08
4.11492728782e-07
9.88816869836e-08
7.31403544611e-07
1.57454918725e-07
6.3283707769e-08
3.72322358412e-08
1.63331772876e-07
6.25010801805e-08
3.46435781692e-08
1.26432575137e-08
1.00155536742e-08
8.57858657579e-09
2.86955527394e-09
4.12196737908e-09
8.90260922513e-09
1.51754605707e-09
9.16690866558e-10
3.40086587397e-10
3.04963130477e-09
5.31050070225e-09
6.21314403897e-10
2.1922300018e-09
2.91323406303e-12
2.91674860754e-09
2.3405377886e-09
2.92544401266e-09
2.25811601493e-09
1.01342903463e-09
2.68604925246e-09
2.16051102283e-09
1.80871928285e-09
1.73764938697e-08
5.09739512988e-10
6.08651868916e-09
5.66898867975e-09
2.94698166787e-09
2.14558694171e-09
1.47512302002e-09
9.00159590776e-09
1.27042320151e-09
2.85087814135e-10
9.24954389153e-10
8.71626159581e-09
3.4689153293e-09
3.89012072673e-09
2.54807382919e-08
1.61047615507e-08
2.26886499901e-08
2.16012918222e-08
7.16477238039e-09
1.3753975773e-08
3.53650686304e-10
1.18509587538e-08
2.35738171481e-08
2.59755651237e-09
1.99197605108e-08
2.84340188927e-10
6.47966727427e-09
1.02462217302e-08
1.29067648317e-08
1.68575698133e-09
1.34019943899e-08
3.03404764585e-08
2.00656900787e-09
2.00027444887e-08
1.42110677551e-08
4.3200551726e-08
3.67944612199e-08
3.78603249159e-08
9.91674460433e-09
4.94497001051e-08
1.64990626686e-08
8.09822623538e-08
1.36090135406e-09
4.22212631845e-08
4.26616918009e-08
5.54071981552e-08
6.99943033761e-09
1.65699050293e-08
4.83605067094e-08
7.74191253139e-08
1.64906311159e-08
1.21677351895e-07
6.68471677949e-08
5.83680245812e-08
1.00687327784e-07
3.86265943997e-08
7.29207808793e-08
3.31671820961e-08
5.92238953215e-08
1.65871262229e-08
1.83702933375e-07
8.81995407861e-08
5.05060744552e-09
2.9693067706e-08
9.14863775741e-08
6.85054850314e-09
2.33187316093e-08
2.67401216654e-08
5.51030432408e-09
1.77649912045e-09
6.57849787633e-11
4.06738345181e-09
2.69443187174e-09
4.16881903786e-10
5.61887948385e-09
3.53557433234e-09
1.09499665189e-08
1.27832724546e-08
1.78401392237e-08
1.64515289025e-08
5.19118079002e-09
1.42838170935e-09
6.10597499576e-09
9.09755555559e-09
6.59298763686e-09
2.74476416371e-09
4.30612148252e-08
2.24604470113e-08
4.05363140184e-08
4.31116474354e-08
8.16432281971e-08
1.29452004127e-07
2.81962313535e-08
2.88408434805e-08
1.56197564948e-08
3.30611107541e-08
3.97591509488e-08
2.98786340481e-08
8.58979452185e-08
2.08597333918e-09
6.97049651547e-09
5.92233271805e-09
1.59122377116e-10
3.29743830532e-09
5.35376724024e-11
3.12491863675e-10
3.90065385798e-10
1.0279025231e-09
1.7188818887e-09
3.73436287686e-10
3.5395800419e-10
2.5957004938e-09
1.0125398543e-08
1.90665866939e-09
1.84140264914e-08
2.85036875137e-09
8.8920624604e-09
2.76341641736e-09
6.3770243307e-09
4.15911893555e-09
2.47911509787e-10
3.19096606962e-10
9.90574059567e-09
7.78801555669e-09
7.28408257626e-10
1.50669425912e-08
4.22493309105e-09
1.18042191671e-08
2.69905642237e-09
2.20067784853e-09
8.83457537759e-10
8.16508083662e-09
1.22791785817e-08
1.0879895903e-09
1.93968987354e-08
2.49477493455e-08
6.99886475679e-09
1.97371552219e-09
1.70748585605e-09
4.9218511598e-09
6.21262711026e-09
4.39021871678e-09
8.9982958668e-09
8.84835968524e-09
1.43646335922e-08
1.94017390308e-08
9.77634402502e-09
2.90246461954e-09
4.79732300316e-09
1.30815747172e-09
2.42027761527e-09
1.69209996024e-09
1.28619477334e-08
7.84926051348e-09
3.67237735305e-09
3.47472133363e-09
5.66399484149e-09
7.66697561768e-10
1.55848867435e-08
5.24333315257e-09
3.53404829208e-09
2.30799575999e-09
2.87595584357e-09
4.89726680092e-09
6.88844032647e-09
1.77967208187e-08
1.88473863814e-08
9.10787927281e-10
2.27160380025e-09
4.34606920899e-09
5.53848193329e-09
4.62072558383e-09
1.3689130623e-09
1.46869933771e-08
9.24246887623e-09
4.73049911231e-09
1.04639256094e-08
8.21926911554e-10
1.73971977553e-08
3.47676029479e-09
2.78766820237e-09
4.47215453512e-09
2.00598457505e-09
7.98868485393e-09
1.31589376407e-10
1.36575396103e-08
7.65401721002e-10
3.15777088875e-09
1.82534668519e-08
1.79166860343e-07
4.28954266904e-08
3.90332706413e-08
4.50740681034e-07
2.14501423216e-07
1.20068402889e-07
1.91305972652e-07
6.08326242844e-08
1.42812408718e-07
1.96932438889e-08
2.62683578015e-07
4.71178339736e-07
3.58378888725e-07
7.40669175988e-07
6.60745075444e-07
2.56362353342e-07
1.92871105346e-07
4.85217037568e-09
3.16724026452e-08
1.43999722972e-08
8.19308226602e-08
6.83148475688e-08
1.15047400066e-07
1.81690594725e-07
2.73103471909e-08
1.76886430106e-07
8.98367212195e-08
5.75811201027e-08
5.74351313604e-09
3.16559483779e-08
9.24335302832e-10
1.12969041802e-08
1.47178841154e-08
1.674329225e-09
1.65378066065e-08
4.28784551599e-09
2.44120796207e-08
2.15077956464e-08
1.53867607044e-08
1.27610055033e-08
7.96911395619e-09
3.74824182821e-09
1.6296421209e-08
6.85020499915e-08
9.54721406264e-09
1.59467257163e-08
2.97850820904e-08
2.54661160461e-08
9.38254730278e-08
4.90449301034e-08
2.11685166204e-07
3.77476196329e-07
9.52151630538e-08
1.47781182576e-08
4.41107994197e-08
9.6803452963e-09
4.0769103995e-08
1.07971397358e-08
2.06099936141e-08
1.50627105176e-08
7.32373490048e-08
1.77171375362e-07
3.43986254243e-07
1.57118677865e-07
1.59815904477e-07
2.39931831122e-08
2.84650350418e-07
2.96076244015e-07
2.67762661411e-07
4.09942729679e-07
1.83241086197e-07
3.01697799507e-07
5.71251927497e-08
1.21052396434e-07
9.61042800714e-09
6.62144937144e-08
4.43041308215e-09
2.09430150993e-08
1.162425165e-08
3.38296651295e-08
1.0513058296e-07
1.6122817916e-08
4.12569965809e-08
2.34736076575e-08
1.13662709465e-07
1.45889063439e-07
2.50710424668e-07
1.10836580127e-07
3.46570480284e-08
4.1788956145e-09
2.43492806236e-08
6.80661161634e-09
1.02173849166e-08
2.88401090187e-09
4.07695266509e-09
4.16129633403e-09
4.5077742068e-09
8.83483480262e-11
2.00176451028e-08
1.10563572264e-09
1.45901587005e-09
4.16532607732e-10
3.75258089995e-09
1.25776025771e-09
6.63826941753e-11
2.75296087806e-08
6.77648741506e-09
1.28544487918e-09
3.29548920443e-09
5.86565854548e-09
3.46715043218e-11
1.4477925776e-09
5.27905056972e-10
5.76605306189e-10
1.06049613569e-08
1.96159217884e-11
9.41687980129e-09
2.32628788873e-09
3.07070143521e-09
6.51930971115e-10
1.73143722855e-09
1.8335440252e-09
1.76609806177e-09
7.93255913843e-09
5.74358141131e-10
1.29197671508e-09
3.53885528918e-09
2.45756073641e-09
4.99580437391e-09
4.02068247152e-09
1.5820161061e-08
6.76352625882e-09
6.28401042976e-09
1.42229581964e-08
6.79020901357e-09
1.23165969548e-08
1.81495420652e-08
3.74167165847e-08
1.03655613594e-08
7.66119896532e-09
1.49621617144e-08
3.43958322539e-08
2.08761919801e-09
1.53787865258e-08
7.52496607256e-09
8.83740335238e-09
8.63985553443e-09
1.01440641373e-08
1.89382747875e-08
1.15936796756e-08
2.13451323645e-08
4.44083265091e-08
3.97888364454e-08
2.2119213612e-08
7.60015604868e-09
5.78291430479e-08
1.09620307441e-07
1.72908746925e-07
2.28062176518e-07
2.58612023885e-07
1.84805149517e-08
5.40917338815e-08
3.35859822175e-08
3.66065650742e-08
3.8326479731e-08
2.2225451887e-08
7.3321323592e-08
1.56702334708e-08
1.36775340974e-09
2.2187569967e-08
3.19446741689e-09
3.1821491045e-08
3.17839271336e-08
2.03783046401e-08
2.71553393819e-08
2.40171163176e-09
3.13943623232e-08
1.06780541877e-07
1.08648486334e-07
7.62380625478e-08
7.90078488422e-08
2.2385321856e-07
5.18561339865e-08
1.14493044296e-07
2.79442215757e-07
1.07933879393e-07
1.50895017941e-08
5.16848241806e-08
8.18331972349e-08
1.28701341311e-07
1.17686307524e-08
2.00940288082e-09
6.9662650976e-08
1.51995605508e-07
6.75217066041e-09
1.11878277569e-08
4.28118779017e-08
2.74492478916e-09
1.55742612083e-07
1.02565858755e-06
4.44649624385e-08
6.99207110879e-08
1.45034188212e-08
8.71538334429e-08
1.60816942422e-07
3.93250318234e-07
6.33779397374e-08
9.99003835127e-09
2.84751051248e-08
2.76897715242e-08
7.32736889577e-09
7.39710287121e-10
3.03189134347e-08
2.66769960843e-08
2.97139449599e-08
1.26187773967e-08
1.45475652859e-08
1.12347770521e-08
3.57271032883e-09
7.80018676461e-09
6.24200066526e-07
5.52739946905e-07
6.5805170328e-07
2.50645726399e-07
1.95904302238e-07
1.49720101543e-07
5.90974935924e-08
1.4455380443e-08
1.08686522129e-08
6.81200942456e-09
3.04684000233e-08
3.88742329387e-08
1.91673064525e-08
1.34132346037e-07
2.74325169105e-07
3.07868138157e-07
2.06502882169e-07
3.06483537361e-07
6.4001046361e-07
4.76015106124e-08
1.3663905225e-07
8.62865438621e-07
1.49505202081e-07
2.64363365891e-09
1.36180770348e-07
3.40979023266e-07
5.17324410862e-08
8.42179009314e-09
2.39044866593e-09
5.37789972019e-08
9.05012872053e-09
2.52839102968e-09
1.60286919172e-08
6.31157734522e-08
1.03629644542e-09
3.14465438999e-07
3.784789956e-07
1.71955443064e-08
1.40035201546e-08
4.46478912479e-08
4.67635983765e-08
2.82512360329e-08
9.71819214388e-09
3.14381861776e-08
4.84587748138e-09
1.29098054125e-08
1.2413815401e-08
1.13481991873e-08
3.25193376122e-08
1.03827277528e-07
8.67384330502e-08
5.1699742721e-09
4.43230877828e-09
9.43128956779e-09
4.79384316478e-08
2.46714972598e-09
4.21384851453e-08
1.10423881409e-08
1.80773856661e-08
6.20779420438e-09
3.55721051396e-08
1.02182510541e-08
4.11784386228e-08
1.78920098066e-07
1.47541644161e-07
1.36964522087e-07
1.75665426447e-07
3.90899668014e-07
1.57194460745e-07
8.4232835538e-08
2.08706390265e-08
1.26941393775e-08
1.31565417413e-08
4.89293212742e-09
2.74690315938e-08