# vtk DataFile Version 3.0
File Name: Molecule/arg/arg_0.5-3.vtk
ASCII
DATASET UNSTRUCTURED_GRID
FIELD FieldData 1
TIME 1 1 double
0.0
POINTS 152 double
-3.403 0.327 1.604
-2.971 0.024 0.066
-2.981 -0.361 1.858
-2.549 -0.664 0.32
-2.984 0.046 0.042
-2.2 -0.483 -0.862
-2.216 -0.458 -0.889
-2.776 1.74 -0.497
-2.39 -0.269 -1.153
-2.211 1.177 -1.613
-2.622 1.932 -0.429
-1.982 1.439 -1.492
-1.81 1.654 -1.416
-2.495 2.657 0.67
-1.615 2.438 -0.879
-1.488 3.163 0.22
-3.186 2.284 1.521
-1.863 3.333 1.507
-2.53 2.972 2.328
-3.419 1.801 1.788
-2.717 2.558 2.345
-2.979 2.017 2.644
-3.408 0.559 1.798
-3.107 1.793 3.017
-3.095 0.593 3.027
-3.105 0.348 2.085
-3.1 0.088 1.867
-2.97 0.105 2.152
-2.978 0.383 3.085
-2.865 -0.346 2.113
-2.52 -0.7 2.425
-2.645 0.041 3.387
-1.592 -1.721 1.268
-2.003 -1.142 3.367
-0.984 -2.263 2.097
-2.487 -0.785 0.321
-0.96 -2.23 0.303
-1.943 -1.202 -0.738
-2.131 -0.618 -0.861
-2.114 -0.682 -1.181
-1.927 -1.264 -1.052
-2.312 -0.441 -1.376
-2.121 -0.506 -1.916
-1.682 -1.348 -1.746
-1.897 0.192 -2.527
-1.864 -0.768 -1.888
-1.57 0.147 -2.691
-2.011 1.039 -2.18
-1.198 0.386 -3.152
-1.348 1.496 -2.696
-1.72 1.257 -2.235
-1.479 1.817 -1.75
-1.107 2.057 -2.211
-1.319 2.584 -1.178
-0.816 3.013 -1.267
-0.543 2.537 -2.312
0.466 3.148 -0.891
-0.048 3.337 -3.001
0.699 3.415 -2.782
1.057 2.557 -0.305
0.892 2.689 -1.891
1.553 2.026 -1.234
0.737 2.845 0.68
1.539 1.918 0.039
1.22 2.206 1.024
0.406 3.093 0.833
1.112 2.426 2.108
0.748 2.699 2.276
-0.034 3.266 2.099
-0.687 3.194 3.654
0.006 2.617 4.044
-1.995 3.111 3.523
-0.58 2.815 3.881
-2.096 2.719 3.73
-1.061 1.806 4.483
-0.466 1.628 4.634
-2.128 2.66 3.763
-1.452 1.611 4.604
-2.373 2.347 3.982
-1.464 1.095 4.666
-0.48 1.041 4.705
-1.655 0.731 4.634
-0.333 0.517 4.869
-0.555 0.096 4.831
-0.878 -0.357 4.785
0.164 -1.171 5.088
0.507 -0.734 5.141
0.93 -2.454 3.923
1.043 -0.806 5.264
1.809 -2.089 4.099
1.037 -1.846 2.131
1.916 -1.481 2.307
1.061 -1.813 0.337
1.48 -1.078 0.031
2.335 -0.746 2.002
1.639 -0.712 -0.547
1.697 -0.118 0.66
1.842 0.216 0.134
1.085 -2.024 -1.812
2.201 -0.141 -1.444
1.67 -1.4 -2.657
-0.548 -1.409 -2.576
0.104 -0.811 -3.39
-0.822 -1.287 -2.506
-0.336 -0.591 -3.197
-0.616 -0.466 -3.125
-0.988 -0.705 -2.664
0.101 0.716 -4.098
0.516 0.418 -4.238
-0.398 1.946 -3.588
0.377 1.347 -4.4
0.117 1.987 -4.134
0.028 3.029 -3.665
0.9 3.106 -3.671
0.989 2.064 -4.14
0.819 3.383 -2.845
1.749 2.404 -3.353
1.668 2.681 -2.526
1.123 2.627 -2.01
2.133 1.624 -1.992
2.194 2.159 -2.516
2.042 0.907 -1.262
2.428 1.273 -2.257
2.342 0.599 -1.57
1.976 0.918 0.014
1.83 1.363 -3.817
1.863 2.209 -3.379
1.103 1.869 -4.167
1.884 1.434 1.198
2.541 0.959 2.592
1.842 1.579 2.299
0.651 1.408 4.781
1.35 0.788 5.074
0.82 0.891 4.947
-3.94 1.181 0.843
-1.891 3.826 2.497
-2.589 1.578 4.495
-1.092 -1.939 4.665
0.786 -2.653 -0.834
3.668 -0.309 3.703
2.756 0.481 5.071
2.756 -1.099 5.071
2.093 -0.513 -4.015
-0.027 -2.3585 3.01
-1.038 -2.101 3.381
-0.081 -2.1965 4.294
1.2465 1.4935 3.54
0.924 2.098 3.1715
0.3285 2.0125 4.4125
1.54425 1.53625 2.9195
1.383 1.8385 2.73525
1.08525 1.79575 3.35575

CELLS 300 1200
3 0 1 2
3 2 1 3
3 1 4 5
3 5 4 6
3 4 7 8
3 8 7 9
3 7 10 11
3 11 10 12
3 10 13 14
3 14 13 15
3 13 16 17
3 17 16 18
3 16 19 20
3 20 19 21
3 19 22 23
3 23 22 24
3 22 0 25
3 25 0 26
3 25 27 24
3 24 27 28
3 27 26 29
3 29 26 2
3 29 30 28
3 28 30 31
3 30 32 33
3 33 32 34
3 32 35 36
3 36 35 37
3 35 3 38
3 38 3 5
3 38 39 37
3 37 39 40
3 39 6 41
3 41 6 8
3 41 42 40
3 40 42 43
3 42 44 45
3 45 44 46
3 44 47 48
3 48 47 49
3 47 9 50
3 50 9 11
3 50 51 49
3 49 51 52
3 51 12 53
3 53 12 14
3 53 54 52
3 52 54 55
3 54 56 57
3 57 56 58
3 56 59 60
3 60 59 61
3 59 62 63
3 63 62 64
3 62 65 66
3 66 65 67
3 65 15 68
3 68 15 17
3 68 69 67
3 67 69 70
3 69 71 72
3 72 71 73
3 71 18 73
3 73 18 20
3 72 74 70
3 70 74 75
3 74 76 77
3 77 76 78
3 76 21 78
3 78 21 23
3 77 79 75
3 75 79 80
3 79 81 82
3 82 81 83
3 81 31 84
3 84 31 33
3 84 85 83
3 83 85 86
3 85 87 88
3 88 87 89
3 87 90 89
3 89 90 91
3 90 34 92
3 92 34 36
3 92 93 91
3 91 93 94
3 93 95 96
3 96 95 97
3 95 98 99
3 99 98 100
3 98 101 100
3 100 101 102
3 101 103 104
3 104 103 105
3 103 43 106
3 106 43 45
3 106 46 105
3 105 46 48
3 104 107 102
3 102 107 108
3 107 109 110
3 110 109 111
3 109 55 112
3 112 55 57
3 112 113 111
3 111 113 114
3 113 115 116
3 116 115 117
3 115 58 118
3 118 58 60
3 118 119 117
3 117 119 120
3 119 121 122
3 122 121 123
3 121 61 124
3 124 61 63
3 124 97 123
3 123 97 99
3 122 125 120
3 120 125 126
3 125 108 127
3 127 108 110
3 127 114 126
3 126 114 116
3 96 128 94
3 94 128 129
3 128 64 130
3 130 64 66
3 129 131 132
3 131 80 133
3 133 80 82
3 133 86 132
3 132 86 88
3 26 0 2
3 5 3 1
3 8 6 4
3 11 9 7
3 14 12 10
3 17 15 13
3 20 18 16
3 23 21 19
3 25 24 22
3 29 28 27
3 33 31 30
3 36 34 32
3 38 37 35
3 41 40 39
3 45 43 42
3 48 46 44
3 50 49 47
3 53 52 51
3 57 55 54
3 60 58 56
3 63 61 59
3 66 64 62
3 68 67 65
3 72 70 69
3 77 75 74
3 82 80 79
3 84 83 81
3 88 86 85
3 92 91 90
3 96 94 93
3 99 97 95
3 104 102 101
3 106 105 103
3 110 108 107
3 112 111 109
3 116 114 113
3 118 117 115
3 122 120 119
3 124 123 121
3 127 126 125
3 130 129 128
3 133 132 131
3 0 22 134
3 0 134 4
3 0 4 1
3 4 134 7
3 7 134 13
3 7 13 10
3 13 134 16
3 16 134 19
3 19 134 22
3 3 35 2
3 2 35 32
3 2 32 30
3 2 30 29
3 6 39 38
3 6 38 5
3 9 47 42
3 9 42 8
3 8 42 41
3 42 47 44
3 12 51 11
3 11 51 50
3 15 65 56
3 15 56 54
3 15 54 53
3 15 53 14
3 56 65 62
3 56 62 59
3 71 69 135
3 71 135 18
3 18 135 17
3 17 135 68
3 68 135 69
3 76 74 73
3 76 73 20
3 76 20 21
3 73 74 72
3 24 28 136
3 24 136 23
3 23 136 78
3 78 136 77
3 77 136 79
3 79 136 81
3 81 136 31
3 31 136 28
3 26 27 25
3 33 137 84
3 84 137 85
3 37 40 36
3 36 40 43
3 36 43 138
3 36 138 92
3 92 138 93
3 93 138 98
3 93 98 95
3 98 138 101
3 101 138 43
3 101 43 103
3 46 106 45
3 49 52 109
3 49 109 48
3 48 109 107
3 48 107 105
3 105 107 104
3 109 52 55
3 58 115 113
3 58 113 57
3 57 113 112
3 61 121 119
3 61 119 118
3 61 118 60
3 64 128 63
3 63 128 124
3 124 128 97
3 97 128 96
3 67 70 66
3 131 75 80
3 83 86 82
3 82 86 133
3 139 140 141
3 139 141 89
3 139 89 91
3 139 91 94
3 139 94 129
3 139 129 140
3 140 129 132
3 140 132 88
3 140 88 141
3 141 88 89
3 102 108 142
3 102 142 100
3 100 142 99
3 99 142 123
3 123 142 122
3 122 142 125
3 125 142 108
3 111 114 110
3 110 114 127
3 117 120 116
3 116 120 126
3 87 143 90
3 90 143 34
3 34 143 144
3 143 145 144
3 143 87 145
3 144 145 137
3 34 144 33
3 144 137 33
3 137 145 85
3 85 145 87
3 146 131 129
3 70 147 66
3 147 70 148
3 146 148 131
3 131 148 75
3 148 70 75
3 130 149 129
3 149 146 129
3 147 150 66
3 66 150 130
3 130 150 149
3 150 151 149
3 150 147 151
3 149 151 146
3 146 151 148
3 148 151 147

CELL_TYPES 300
5
5
5
5
5
5
5
5
5
5
5
5
5
5
5
5
5
5
5
5
5
5
5
5
5
5
5
5
5
5
5
5
5
5
5
5
5
5
5
5
5
5
5
5
5
5
5
5
5
5
5
5
5
5
5
5
5
5
5
5
5
5
5
5
5
5
5
5
5
5
5
5
5
5
5
5
5
5
5
5
5
5
5
5
5
5
5
5
5
5
5
5
5
5
5
5
5
5
5
5
5
5
5
5
5
5
5
5
5
5
5
5
5
5
5
5
5
5
5
5
5
5
5
5
5
5
5
5
5
5
5
5
5
5
5
5
5
5
5
5
5
5
5
5
5
5
5
5
5
5
5
5
5
5
5
5
5
5
5
5
5
5
5
5
5
5
5
5
5
5
5
5
5
5
5
5
5
5
5
5
5
5
5
5
5
5
5
5
5
5
5
5
5
5
5
5
5
5
5
5
5
5
5
5
5
5
5
5
5
5
5
5
5
5
5
5
5
5
5
5
5
5
5
5
5
5
5
5
5
5
5
5
5
5
5
5
5
5
5
5
5
5
5
5
5
5
5
5
5
5
5
5
5
5
5
5
5
5
5
5
5
5
5
5
5
5
5
5
5
5
5
5
5
5
5
5
5
5
5
5
5
5
5
5
5
5
5
5
5
5
5
5
5
5
5
5
5
5
5
5

CELL_DATA 300
SCALARS cell_data_0 double
LOOKUP_TABLE default
1.31658034009e-07
4.4487008276e-08
2.79714483967e-07
2.25910771053e-07
3.76196026941e-07
9.15732398057e-07
3.42550932614e-07
6.09742283655e-07
2.11404375469e-07
2.26349742927e-07
9.03434838178e-08
1.24310266605e-07
5.56843183022e-09
1.96348072935e-09
3.86497353177e-08
5.33080677103e-08
1.22646026692e-08
3.67047728075e-08
9.24461205471e-08
1.0788117906e-07
7.00395847929e-08
2.59716815574e-08
4.96957773348e-08
1.73764756192e-07
6.32119076299e-06
1.84809163922e-05
2.24967056339e-07
4.7988255649e-07
1.83755015936e-07
3.23314977548e-07
6.79547552735e-08
7.97217011528e-08
1.50250078039e-07
1.05162017176e-07
4.73315447834e-07
8.55792820079e-07
3.47320758985e-07
5.22399779514e-07
8.56187527458e-07
4.86015907588e-07
7.65828925988e-07
1.47043979194e-08
2.90436852398e-07
9.85624206065e-08
5.11458151892e-09
1.10106423663e-07
3.74313126003e-07
1.61090066863e-06
1.32149175297e-06
1.03780431192e-05
1.27267666976e-07
2.17373585247e-06
2.4637609745e-07
6.38713367288e-07
5.64606086225e-07
1.27440546221e-06
1.118510027e-06
4.01563990817e-07
9.27231369324e-07
2.40520218047e-06
1.52458608237e-07
5.07403373348e-08
3.96156927339e-08
1.668381942e-07
8.58798470972e-08
1.73360261571e-07
1.05725437199e-07
8.48910456146e-08
5.49009308307e-09
6.84989849501e-08
3.51225434535e-07
1.88334896193e-07
1.81177506521e-08
2.43759884113e-07
2.96062780701e-06
1.60884043903e-06
4.48960533339e-07
1.59207762664e-07
1.50747166869e-05
3.23688432822e-05
6.27440106843e-06
5.24878713314e-05
1.20372322111e-05
5.50359189009e-06
4.21749116108e-07
6.23917835599e-06
3.95645008727e-07
8.65110333272e-07
2.66598524475e-06
3.92367090054e-06
5.38354079638e-06
1.37001324544e-06
1.40138750892e-07
1.95197957507e-07
3.13891807292e-07
5.23522502827e-07
3.23347479576e-08
4.7656907405e-07
7.15673923589e-07
8.23793663372e-07
1.34542551932e-05
2.48141229141e-06
2.50713735019e-06
2.89478279077e-06
1.04941581683e-05
7.71056983186e-06
1.15260525163e-05
3.66134830486e-06
5.86493318147e-07
1.14803864896e-06
9.82442295555e-06
1.87229492367e-06
6.78608744662e-07
1.93944652654e-06
3.64004991788e-07
3.74170513326e-07
1.06886081074e-06
3.83852703393e-06
5.44986537457e-06
4.18066013602e-06
1.7875962129e-05
1.25616280499e-05
3.44153396491e-07
7.96159166032e-07
2.57198659086e-06
1.25190714531e-05
8.92341052887e-07
3.78561294127e-06
8.02088376581e-05
1.930601587e-07
4.54560402182e-08
8.57629108751e-07
1.12773890038e-06
6.94358876013e-08
2.40524509443e-07
2.35176671365e-07
1.58521987994e-07
5.07311795922e-07
5.76484254815e-07
1.01097524086e-07
9.44289743585e-08
1.45754797797e-07
8.85901718129e-08
6.00240428034e-06
2.7713485817e-06
3.47794730267e-07
8.48388910764e-08
2.47885723842e-07
3.70120667111e-07
4.07250791371e-07
9.11960337053e-07
9.50150023412e-06
5.02878158204e-06
1.15981148306e-06
6.2317966982e-07
9.3065302261e-07
1.39108963474e-07
2.27866258982e-07
2.108933859e-07
2.82406977463e-07
2.28360299988e-07
3.43029061885e-06
3.91572899826e-06
2.39989993773e-06
2.64535722949e-07
1.71125445894e-07
1.09508348649e-05
4.90985916969e-06
1.12924763681e-05
4.50239423608e-06
4.37982627206e-06
8.86784079903e-08
7.1104643783e-06
2.3088416455e-06
1.61706581726e-07
8.70561938879e-08
5.0184530454e-08
7.83800354917e-08
2.74622596755e-07
6.42592587827e-07
1.3836843247e-08
6.05402556767e-11
1.43833605257e-07
2.25422245772e-09
5.95628978503e-08
1.37098570691e-08
5.77895590371e-07
2.07634137075e-08
1.26925800658e-07
1.57477480856e-09
8.60608440907e-07
1.80218945533e-06
4.90076545201e-07
2.8185203304e-07
3.26966185846e-07
6.52655909511e-07
7.30087785739e-07
4.45153502468e-06
2.20913697394e-07
1.90416734116e-08
2.05633738636e-07
7.15929879937e-07
1.43221869308e-07
8.07880236497e-08
2.48273100707e-07
1.85730984316e-07
8.02121889654e-07
5.38721912609e-08
5.96997074465e-08
1.18059345432e-07
1.78078928888e-07
2.87089561532e-08
1.57773304154e-07
2.2809979253e-07
6.26583558282e-08
9.85972443067e-08
7.99355167684e-09
1.12415781074e-09
5.70552609253e-07
5.98176462472e-08
3.58440905084e-05
1.53096221197e-06
6.53222275637e-07
6.97323847574e-07
1.76819117676e-06
7.02994083944e-06
1.5305921192e-07
3.86261730308e-06
2.09794063141e-06
6.97375465344e-07
1.47952276465e-06
3.58324339504e-07
8.66624243568e-07
1.81560009151e-06
6.76425646399e-07
5.4220214886e-06
6.61881336109e-07
1.18524953807e-07
2.25120693276e-06
2.9301643839e-06
2.30800215579e-05
3.07492545381e-07
3.36845449064e-07
2.79776897031e-06
1.86873701951e-06
4.56773130162e-08
1.28459620003e-06
5.60425426323e-07
6.84364898742e-07
8.49987061023e-07
8.52992688797e-07
3.0935125416e-07
6.09317264088e-07
9.68196300084e-06
0.000113008726693
0.000167047455973
5.8580588403e-06
1.44991596983e-05
0.0001007495134
0.000134741501516
8.51975895131e-06
4.30123353292e-07
7.76052644321e-05
4.46678963881e-06
3.37481039135e-06
1.10353826173e-06
8.15143676478e-07
6.82988276026e-06
9.02867987786e-06
4.36719964635e-06
1.39960261422e-05
1.4717884757e-06
9.53552320239e-06
4.10625109061e-06
8.7677480843e-05
2.17529912372e-06
4.92856633212e-06
1.04823312386e-05
3.67467030586e-06
9.23352916464e-06
3.15595152041e-05
2.43092019482e-05
1.90545234769e-06
3.8234549481e-05
2.99262910182e-05
5.73074804322e-06
8.38834609558e-05
1.28668797725e-05
6.00443585085e-07
2.11786696302e-06
5.9299761928e-06
9.98670676098e-06
2.98792713307e-05
1.41531243414e-06
8.54819583831e-06
5.05472444014e-05
0.000151603059319
4.10216479472e-05
0.000118185212562
0.000228451131789

