# vtk DataFile Version 3.0
File Name: Molecule/arg/arg_0.5-1.vtk
ASCII
DATASET UNSTRUCTURED_GRID
FIELD FieldData 1
TIME 1 1 double
0.0
POINTS 566 double
-3.403 0.327 1.604
-3.187 0.1755 0.835
-3.192 -0.017 1.731
-2.976 -0.1685 0.962
-2.971 0.024 0.066
-2.981 -0.361 1.858
-2.765 -0.5125 1.089
-2.76 -0.32 0.193
-2.549 -0.664 0.32
-2.9775 0.035 0.054
-2.5855 -0.2295 -0.398
-2.592 -0.2185 -0.41
-2.984 0.046 0.042
-2.2 -0.483 -0.862
-2.208 -0.4705 -0.8755
-2.6 -0.206 -0.4235
-2.216 -0.458 -0.889
-2.88 0.893 -0.2275
-2.687 -0.1115 -0.5555
-2.583 0.7355 -0.825
-2.776 1.74 -0.497
-2.39 -0.269 -1.153
-2.3005 0.454 -1.383
-2.4935 1.4585 -1.055
-2.211 1.177 -1.613
-2.699 1.836 -0.463
-2.379 1.5895 -0.9945
-2.302 1.6855 -0.9605
-2.622 1.932 -0.429
-1.982 1.439 -1.492
-1.896 1.5465 -1.454
-2.216 1.793 -0.9225
-1.81 1.654 -1.416
-2.5585 2.2945 0.1205
-2.1185 2.185 -0.654
-2.055 2.5475 -0.1045
-2.495 2.657 0.67
-1.615 2.438 -0.879
-1.5515 2.8005 -0.3295
-1.9915 2.91 0.445
-1.488 3.163 0.22
-2.8405 2.4705 1.0955
-2.179 2.995 1.0885
-2.5245 2.8085 1.514
-3.186 2.284 1.521
-1.863 3.333 1.507
-2.1965 3.1525 1.9175
-2.858 2.628 1.9245
-2.53 2.972 2.328
-3.3025 2.0425 1.6545
-2.9515 2.421 1.933
-3.068 2.1795 2.0665
-3.419 1.801 1.788
-2.717 2.558 2.345
-2.848 2.2875 2.4945
-3.199 1.909 2.216
-2.979 2.017 2.644
-3.4135 1.18 1.793
-3.263 1.797 2.4025
-3.2575 1.176 2.4075
-3.408 0.559 1.798
-3.107 1.793 3.017
-3.101 1.193 3.022
-3.2515 0.576 2.4125
-3.095 0.593 3.027
-3.4055 0.443 1.701
-3.2565 0.4535 1.9415
-3.254 0.3375 1.8445
-3.105 0.348 2.085
-3.1025 0.218 1.976
-3.2515 0.2075 1.7355
-3.1 0.088 1.867
-3.0375 0.2265 2.1185
-3.1 0.4705 2.556
-3.0325 0.349 2.5895
-2.97 0.105 2.152
-3.0365 0.488 3.056
-2.974 0.244 2.6185
-2.978 0.383 3.085
-3.035 0.0965 2.0095
-2.9175 -0.1205 2.1325
-2.9825 -0.129 1.99
-2.865 -0.346 2.113
-2.923 -0.3535 1.9855
-3.0405 -0.1365 1.8625
-2.6925 -0.523 2.269
-2.9215 0.0185 2.599
-2.749 -0.1585 2.755
-2.52 -0.7 2.425
-2.8115 0.212 3.236
-2.5825 -0.3295 2.906
-2.645 0.041 3.387
-2.056 -1.2105 1.8465
-2.2615 -0.921 2.896
-1.7975 -1.4315 2.3175
-1.592 -1.721 1.268
-2.003 -1.142 3.367
-1.4935 -1.7025 2.732
-1.288 -1.992 1.6825
-0.984 -2.263 2.097
-2.0395 -1.253 0.7945
-1.276 -1.9755 0.7855
-1.7235 -1.5075 0.312
-2.487 -0.785 0.321
-0.96 -2.23 0.303
-1.4515 -1.716 -0.2175
-2.215 -0.9935 -0.2085
-1.943 -1.202 -0.738
-2.518 -0.7245 0.3205
-2.309 -0.7015 -0.27
-2.34 -0.641 -0.2705
-2.131 -0.618 -0.861
-2.1655 -0.5505 -0.8615
-2.3745 -0.5735 -0.271
-2.1225 -0.65 -1.021
-2.037 -0.91 -0.7995
-2.0285 -0.942 -0.9595
-2.114 -0.682 -1.181
-1.935 -1.233 -0.895
-2.0205 -0.973 -1.1165
-1.927 -1.264 -1.052
-2.165 -0.57 -1.035
-2.213 -0.5615 -1.2785
-2.264 -0.4495 -1.1325
-2.312 -0.441 -1.376
-2.351 -0.355 -1.2645
-2.303 -0.3635 -1.021
-2.2165 -0.4735 -1.646
-2.1195 -0.8525 -1.214
-2.024 -0.885 -1.484
-2.121 -0.506 -1.916
-1.8045 -1.306 -1.399
-1.9015 -0.927 -1.831
-1.682 -1.348 -1.746
-2.009 -0.157 -2.2215
-1.9925 -0.637 -1.902
-1.8805 -0.288 -2.2075
-1.897 0.192 -2.527
-1.864 -0.768 -1.888
-1.717 -0.3105 -2.2895
-1.7335 0.1695 -2.609
-1.57 0.147 -2.691
-1.954 0.6155 -2.3535
-1.5475 0.289 -2.8395
-1.6045 0.7125 -2.666
-2.011 1.039 -2.18
-1.198 0.386 -3.152
-1.273 0.941 -2.924
-1.6795 1.2675 -2.438
-1.348 1.496 -2.696
-2.111 1.108 -1.8965
-1.8655 1.148 -2.2075
-1.9655 1.217 -1.924
-1.72 1.257 -2.235
-1.851 1.348 -1.8635
-2.0965 1.308 -1.5525
-1.5995 1.537 -1.9925
-1.534 1.3765 -2.4655
-1.4135 1.6565 -2.223
-1.479 1.817 -1.75
-1.2275 1.7765 -2.4535
-1.293 1.937 -1.9805
-1.107 2.057 -2.211
-1.6445 1.7355 -1.583
-1.399 2.2005 -1.464
-1.5645 2.119 -1.297
-1.319 2.584 -1.178
-1.467 2.511 -1.0285
-1.7125 2.046 -1.1475
-1.0675 2.7985 -1.2225
-1.213 2.3205 -1.6945
-0.9615 2.535 -1.739
-0.816 3.013 -1.267
-0.825 2.297 -2.2615
-0.6795 2.775 -1.7895
-0.543 2.537 -2.312
-0.175 3.0805 -1.079
-0.432 3.175 -2.134
0.209 3.2425 -1.946
0.466 3.148 -0.891
-0.048 3.337 -3.001
0.3255 3.376 -2.8915
0.5825 3.2815 -1.8365
0.699 3.415 -2.782
0.7615 2.8525 -0.598
0.679 2.9185 -1.391
0.9745 2.623 -1.098
1.057 2.557 -0.305
0.892 2.689 -1.891
1.2225 2.3575 -1.5625
1.305 2.2915 -0.7695
1.553 2.026 -1.234
0.897 2.701 0.1875
1.298 2.2375 -0.133
1.138 2.3815 0.3595
0.737 2.845 0.68
1.539 1.918 0.039
1.3795 2.062 0.5315
0.9785 2.5255 0.852
1.22 2.206 1.024
0.5715 2.969 0.7565
0.9245 2.6355 1.394
0.759 2.7595 1.4705
0.406 3.093 0.833
1.112 2.426 2.108
0.93 2.5625 2.192
0.577 2.896 1.5545
0.748 2.699 2.276
-0.541 3.128 0.5265
0.186 3.1795 1.466
-0.761 3.2145 1.1595
-0.034 3.266 2.099
-0.9485 3.2995 1.803
-1.6755 3.248 0.8635
-0.3605 3.23 2.8765
0.357 2.9825 2.1875
0.0305 2.9465 2.965
-0.687 3.194 3.654
0.377 2.658 3.16
-0.3405 2.9055 3.849
0.006 2.617 4.044
-1.341 3.1525 3.5885
-0.6335 3.0045 3.7675
-1.2875 2.963 3.702
-1.995 3.111 3.523
-0.58 2.815 3.881
-1.338 2.767 3.8055
-2.0455 2.915 3.6265
-2.096 2.719 3.73
-2.2625 3.0415 2.9255
-2.313 2.8455 3.029
-2.4065 2.6385 3.0375
-2.6235 2.765 2.3365
-0.8205 2.3105 4.182
-0.287 2.716 3.9625
-0.5275 2.2115 4.2635
-1.061 1.806 4.483
-0.23 2.1225 4.339
-0.7635 1.717 4.5585
-0.466 1.628 4.634
-1.5945 2.233 4.123
-1.2565 1.7085 4.5435
-1.79 2.1355 4.1835
-2.128 2.66 3.763
-1.452 1.611 4.604
-1.9125 1.979 4.293
-2.2505 2.5035 3.8725
-2.373 2.347 3.982
-2.5535 2.3385 3.2035
-2.676 2.182 3.313
-2.74 2.07 3.4995
-3.043 1.905 2.8305
-1.458 1.353 4.635
-0.959 1.6195 4.619
-0.965 1.3615 4.65
-1.464 1.095 4.666
-0.473 1.3345 4.6695
-0.972 1.068 4.6855
-0.48 1.041 4.705
-1.5595 0.913 4.65
-0.8985 0.806 4.7675
-0.994 0.624 4.7515
-1.655 0.731 4.634
-0.333 0.517 4.869
-0.444 0.3065 4.85
-1.105 0.4135 4.7325
-0.555 0.096 4.831
-2.15 0.386 4.0105
-1.2665 0.187 4.7095
-1.7615 -0.158 4.086
-0.878 -0.357 4.785
-1.4405 -0.7495 4.076
-2.324 -0.5505 3.377
-0.357 -0.764 4.9365
-0.7165 -0.1305 4.808
-0.1955 -0.5375 4.9595
0.164 -1.171 5.088
-0.024 -0.319 4.986
0.3355 -0.9525 5.1145
0.507 -0.734 5.141
0.547 -1.8125 4.5055
0.6035 -0.9885 5.176
0.9865 -1.63 4.5935
0.93 -2.454 3.923
1.043 -0.806 5.264
1.426 -1.4475 4.6815
1.3695 -2.2715 4.011
1.809 -2.089 4.099
0.9835 -2.15 3.027
1.423 -1.9675 3.115
1.037 -1.846 2.131
1.8625 -1.785 3.203
1.4765 -1.6635 2.219
1.916 -1.481 2.307
0.0265 -2.0545 2.114
1.049 -1.8295 1.234
0.0385 -2.038 1.217
1.061 -1.813 0.337
0.0505 -2.0215 0.32
-0.972 -2.2465 1.2
1.2705 -1.4455 0.184
1.4885 -1.647 1.322
1.698 -1.2795 1.169
1.48 -1.078 0.031
2.1255 -1.1135 2.1545
1.9075 -0.912 1.0165
2.335 -0.746 2.002
1.5595 -0.895 -0.258
1.5885 -0.598 0.3455
1.668 -0.415 0.0565
1.639 -0.712 -0.547
1.697 -0.118 0.66
1.7695 0.049 0.397
1.7405 -0.248 -0.2065
1.842 0.216 0.134
1.362 -1.368 -1.1795
1.92 -0.4265 -0.9955
1.643 -1.0825 -1.628
1.085 -2.024 -1.812
2.201 -0.141 -1.444
1.9355 -0.7705 -2.0505
1.3775 -1.712 -2.2345
1.67 -1.4 -2.657
0.2685 -1.7165 -2.194
0.561 -1.4045 -2.6165
-0.548 -1.409 -2.576
0.887 -1.1055 -3.0235
-0.222 -1.11 -2.983
0.104 -0.811 -3.39
-0.685 -1.348 -2.541
-0.442 -1.0 -2.8865
-0.579 -0.939 -2.8515
-0.822 -1.287 -2.506
-0.336 -0.591 -3.197
-0.476 -0.5285 -3.161
-0.719 -0.8765 -2.8155
-0.616 -0.466 -3.125
-1.252 -1.3175 -2.126
-0.905 -0.996 -2.585
-1.335 -1.0265 -2.205
-0.988 -0.705 -2.664
-1.426 -0.7365 -2.276
-1.773 -1.058 -1.817
-1.279 -0.279 -2.6775
-0.802 -0.5855 -2.8945
-1.093 -0.1595 -2.908
-0.907 -0.04 -3.1385
-1.384 0.2665 -2.9215
-0.1175 0.0625 -3.6475
-0.116 -0.701 -3.2935
0.1025 -0.0475 -3.744
0.101 0.716 -4.098
0.31 -0.1965 -3.814
0.3085 0.567 -4.168
0.516 0.418 -4.238
-0.1485 1.331 -3.843
0.239 1.0315 -4.249
-0.0105 1.6465 -3.994
-0.398 1.946 -3.588
0.377 1.347 -4.4
0.247 1.667 -4.267
-0.1405 1.9665 -3.861
0.117 1.987 -4.134
-0.4705 2.2415 -2.95
-0.185 2.4875 -3.6265
-0.2575 2.783 -2.9885
0.028 3.029 -3.665
-0.01 3.183 -3.333
-0.2955 2.937 -2.6565
0.464 3.0675 -3.668
0.0725 2.508 -3.8995
0.5085 2.5465 -3.9025
0.9 3.106 -3.671
0.553 2.0255 -4.137
0.9445 2.585 -3.9055
0.989 2.064 -4.14
0.8595 3.2445 -3.258
1.3245 2.755 -3.512
1.284 2.8935 -3.099
0.819 3.383 -2.845
1.749 2.404 -3.353
1.7085 2.5425 -2.9395
1.2435 3.032 -2.6855
1.668 2.681 -2.526
0.759 3.399 -2.8135
0.971 3.005 -2.4275
0.911 3.021 -2.396
1.123 2.627 -2.01
1.0075 2.658 -1.9505
0.7955 3.052 -2.3365
1.628 2.1255 -2.001
1.3955 2.654 -2.268
1.9005 2.1525 -2.259
2.133 1.624 -1.992
1.931 2.42 -2.521
2.1635 1.8915 -2.254
2.194 2.159 -2.516
2.0875 1.2655 -1.627
2.2805 1.4485 -2.1245
2.235 1.09 -1.7595
2.042 0.907 -1.262
2.428 1.273 -2.257
2.385 0.936 -1.9135
2.192 0.753 -1.416
2.342 0.599 -1.57
1.7975 1.4665 -1.248
2.009 0.9125 -0.624
1.7645 1.472 -0.61
1.976 0.918 0.014
1.7575 1.418 0.0265
1.546 1.972 -0.5975
1.909 0.567 0.074
2.159 0.7585 -0.778
2.092 0.4075 -0.718
2.2715 0.229 -1.507
2.0215 0.0375 -0.655
2.129 1.318 -3.037
2.311 1.716 -2.3865
2.012 1.761 -3.1665
1.83 1.363 -3.817
2.0285 2.184 -2.9475
1.8465 1.786 -3.598
1.863 2.209 -3.379
1.173 0.8905 -4.0275
1.4665 1.616 -3.992
0.8095 1.1435 -4.2025
1.103 1.869 -4.167
0.74 1.608 -4.2835
0.4465 0.8825 -4.319
1.046 1.9665 -4.1535
1.483 2.039 -3.773
1.426 2.1365 -3.7595
1.806 2.3065 -3.366
1.369 2.234 -3.7465
1.7905 0.658 0.929
2.016 -0.432 1.331
2.1095 0.344 1.6
1.884 1.434 1.198
2.438 0.1065 2.297
2.2125 1.1965 1.895
2.541 0.959 2.592
1.552 1.82 1.111
1.863 1.5065 1.7485
1.531 1.8925 1.6615
1.842 1.579 2.299
1.477 2.0025 2.2035
1.166 2.316 1.566
1.2465 1.4935 3.54
2.1915 1.269 2.4455
1.596 1.1835 3.6865
0.651 1.408 4.781
1.9455 0.8735 3.833
1.0005 1.098 4.9275
1.35 0.788 5.074
0.0855 1.2245 4.743
0.7355 1.1495 4.864
0.17 0.966 4.826
0.82 0.891 4.947
0.2435 0.704 4.908
-0.4065 0.779 4.787
0.6635 0.0785 5.044
1.085 0.8395 5.0105
0.9285 0.027 5.1075
1.1965 -0.009 5.169
0.775 -0.77 5.2025
-3.6715 0.754 1.2235
-3.674 0.87 1.3205
-3.94 1.181 0.843
-3.1935 0.1865 0.823
-3.462 0.6135 0.4425
-3.358 1.4605 0.173
-2.6355 2.1985 0.0865
-3.2175 1.919 0.7565
-3.563 1.7325 1.182
-3.6795 1.491 1.3155
-2.734 -0.573 1.0895
-2.2865 -1.041 1.563
-2.7505 -0.5305 2.1415
-2.1735 -0.538 -0.875
-2.166 0.3355 -1.7645
-2.066 0.2665 -2.048
-2.2555 -0.3875 -1.5345
-1.7305 1.628 -1.621
-0.511 3.1555 -0.3355
[...]
CELL_DATA 1128
SCALARS cell_data_0 double
LOOKUP_TABLE default
1.83708931499e-08
5.36098176172e-08
3.28817371695e-08
2.97584314652e-08
9.00722042196e-09
2.53026076949e-08
1.56377009517e-08
5.55115374067e-09
7.80163052025e-08
8.90325042659e-08
3.23608595858e-08
1.23094974235e-07
1.21103218125e-07
9.64574565796e-08
1.09047875913e-07
1.654114528e-07
1.47798529584e-08
1.18169380186e-07
1.85982070149e-07
2.26086089902e-07
6.50951140762e-07
4.43384679192e-07
1.43849345529e-07
6.78824202716e-07
2.48872690913e-08
1.42786381555e-08
2.41981852658e-08
5.26749018502e-08
5.44832031712e-08
5.35498710322e-08
2.30111370541e-08
5.07932855446e-08
1.92230667074e-09
1.752679618e-08
1.73028608717e-08
4.3770933413e-10
5.57507014064e-09
1.08959779878e-08
2.302723504e-08
5.71824590446e-08
1.10839644599e-08
1.89394651336e-09
8.5359120271e-09
8.56109195946e-09
2.69774373897e-08
1.36933319059e-08
1.45265322131e-08
6.69957299713e-11
3.01899508449e-09
3.3426335031e-09
3.33374715789e-09
1.94798590489e-09
3.50911680005e-09
2.48132130342e-09
6.26250669224e-09
9.87946578036e-09
4.24775407063e-09
1.34315874626e-08
2.21311259169e-08
1.7458714445e-09
5.91594656435e-09
5.60228284159e-09
3.57076345285e-09
1.03292165838e-08
3.37299336584e-09
2.35639004221e-09
2.43755534199e-09
8.88282659577e-09
5.21701807542e-09
1.28616677022e-09
3.50424577283e-10
1.67984246126e-09
9.48168332807e-09
7.23672833092e-09
1.43899655519e-09
1.83443906251e-08
1.37415679829e-08
8.42091697806e-09
1.96471834764e-09
7.63294044448e-09
7.43366073345e-09
6.92782557722e-10
3.49456181386e-09
3.38241380333e-09
3.20519187811e-09
2.60365785065e-09
6.32062833378e-10
4.70718008952e-09
1.21119001153e-08
2.03142638119e-10
1.18265644928e-08
1.32763380405e-08
5.12841654198e-08
3.60423477257e-08
4.17589862194e-08
1.38467514286e-08
2.68154924466e-07
3.0257604037e-08
2.53019963319e-07
3.81544327809e-07
2.93689710336e-06
8.55425257775e-07
1.00380244541e-06
3.34485603319e-06
3.53820392978e-08
5.98651862439e-08
3.64577895037e-08
9.78778917056e-08
1.77885685093e-07
8.76488606437e-08
1.09956744349e-07
1.02162936752e-07
8.45169268875e-09
2.14130795302e-08
1.87231855533e-08
2.05497412714e-08
3.93035498878e-08
4.18171154385e-08
2.62869341741e-08
6.54949890073e-08
3.29673137125e-08
1.50350101115e-08
2.27677458103e-09
3.50429153961e-08
2.17129867903e-08
1.09443016874e-08
2.89708714022e-09
2.07490052433e-08
1.47199766984e-08
1.86950314394e-09
1.40586044472e-08
5.72445014356e-09
9.18363219801e-09
1.77913666454e-08
2.11289087612e-08
1.26350572895e-08
2.19333927139e-08
2.40618943114e-08
3.33855807685e-09
9.26960689967e-09
2.51672086949e-08
1.61417305746e-08
7.49034537211e-09
2.93393243192e-08
9.63213876371e-08
2.68343517655e-08
3.64575409714e-08
3.03353123873e-08
3.56934848622e-08
7.93584740495e-08
3.56282259649e-08
1.68037715847e-08
5.21462533208e-10
1.83534158145e-07
1.38763638826e-08
1.00794874196e-07
7.06951422148e-08
1.52660828986e-07
8.33980360112e-09
3.52161673989e-08
8.85320758883e-08
1.01635045756e-09
9.18875849527e-08
1.34885365847e-08
1.30239583951e-08
1.48631418282e-08
6.29440310922e-09
3.44221409784e-08
2.46650679466e-08
3.66016703414e-08
1.52241857501e-08
7.59719169363e-09
8.09023185646e-10
1.08590818634e-08
2.78603561328e-08
1.42172569109e-08
6.80683604945e-09
3.16358598182e-08
1.41147963843e-08
1.17660761534e-08
2.23897328768e-08
6.99723368565e-10
4.80205193926e-08
1.36303501322e-08
2.98650726066e-09
1.44820426344e-08
6.5025886752e-08
7.72832168064e-08
1.86161820491e-08
1.05510838061e-07
1.23635083292e-07
5.01383927589e-07
1.09586709842e-07
8.12323336391e-07
1.01659712025e-09
8.13867130924e-07
2.66838989711e-08
9.98628945727e-07
8.256700996e-07
2.95485637938e-06
1.61168667097e-08
1.94531117882e-08
8.14882221901e-09
7.6073473582e-08
5.88036771589e-08
1.35748206187e-07
7.61014862666e-09
1.67389393904e-07
1.24297798746e-08
2.69558283766e-08
2.18694011582e-08
1.43143026839e-08
2.55172239392e-08
8.06062895379e-08
4.94093714112e-08
2.17533120001e-08
4.87931921788e-08
2.35035297488e-07
1.01207337176e-07
2.16275044763e-07
9.63583169132e-07
5.93591599505e-08
2.1816646888e-07
2.6730389099e-07
1.91967345539e-08
7.15922752995e-09
4.23513533987e-08
2.60950584061e-09
5.65795928284e-08
3.51055052094e-08
4.21671994237e-08
1.04460924298e-07
1.99526719924e-07
4.15499853179e-07
6.63027937108e-08
5.07414142265e-07
6.9770230206e-08
9.36261656042e-07
3.71473142065e-07
1.04977544139e-06
1.3939042153e-08
3.54046326072e-08
3.83133388702e-09
4.9228096616e-08
4.4497748044e-08
7.08363004226e-09
2.46537515323e-08
2.3565811756e-08
1.02456648469e-08
2.72875357556e-08
1.33018009831e-08
8.40942141728e-09
1.33548607299e-08
1.58281218832e-08
7.87469232929e-09
1.12789360554e-09
2.57615483751e-07
3.78522823437e-07
3.07373980507e-08
1.31174639665e-07
6.80987750006e-07
3.33481671528e-07
1.00686953353e-07
2.55600203527e-07
2.11722241646e-08
3.37140014227e-08
2.75198927245e-08
2.33277727365e-09
1.07505844625e-08
1.91976731584e-08
2.78358768907e-08
1.26721497022e-08
9.83663365327e-09
3.62962875926e-08
1.17515721124e-08
1.51712261622e-08
8.08392426667e-09
1.03709432065e-08
3.47797147427e-09
1.26690468509e-08
4.47623975484e-08
7.95711610758e-08
8.13017069806e-09
9.86162577222e-08
1.09539593495e-07
2.98864287071e-08
1.48787172868e-08
2.02688638892e-08
4.00995604554e-10
9.17880573813e-09
5.83602494027e-09
1.44826961972e-08
1.0799930447e-09
7.04639738153e-09
1.41043017511e-09
1.72617395891e-09
7.9599518288e-08
1.68020445269e-07
5.31540433659e-08
3.09178546664e-07
6.42345746576e-07
6.62965655779e-07
1.28220165121e-08
1.84549758974e-06
9.97511950961e-09
3.12163326272e-08
1.07653393185e-07
4.0959333971e-08
2.99068821504e-08
7.24036101107e-08
2.51423085766e-08
3.63003564199e-09
5.21926753732e-07
7.25991727997e-07
1.68830763546e-06
2.33312832264e-07
5.16500085508e-07
1.24264315072e-06
1.94712961063e-06
3.16461884613e-07
5.74918394567e-06
3.23124773682e-06
2.14883596132e-07
1.83258107251e-06
1.14886112421e-05
1.05294890314e-06
3.69876524814e-07
1.99407172676e-06
2.02485282053e-06
3.28956643211e-07
4.60727239367e-06
1.98953016737e-06
2.68134906316e-06
2.69489197724e-07
4.36545967795e-08
2.97819961274e-06
6.67371072792e-07
8.30490468361e-07
4.04503562849e-07
1.14358494294e-07
3.14435892108e-07
8.21410779796e-08
1.21086343084e-07
7.47658633891e-08
2.04778937924e-07
2.69340159935e-08
6.51574629491e-08
2.22991899143e-07
3.26248923887e-08
1.12508378789e-08
6.49181123605e-08
3.37143227123e-09
2.0347053706e-08
1.10588083806e-07
3.00593165189e-07
7.72303369576e-08
2.93724352443e-07
4.8891058535e-08
1.59176724939e-08
7.09877584374e-08
2.16623338248e-07
2.07132292881e-07
1.3251262793e-07
1.43612773382e-07
5.08624144827e-07
1.05266374922e-06
7.069165077e-08
7.58122518066e-07
1.92158868191e-09
3.77470977396e-08
7.06914885666e-09
1.58553875557e-08
6.91059369961e-09
1.62458952233e-09
3.85258335726e-09
1.26087784846e-09
8.65496177211e-09
9.12657977878e-10
1.72542293529e-08
1.78135759825e-08
9.54407057023e-09
3.75474397225e-08
4.76784630386e-08
2.44221888031e-08
1.02538029352e-08
3.92574018921e-08
1.4476002593e-09
2.40216384651e-08
4.15686580633e-08
4.77622214953e-08
9.57359704708e-09
4.30918092885e-08
7.5488273531e-08
8.34664903478e-08
1.27348454218e-07
2.66374579229e-09
7.97653460593e-08
1.00682918988e-07
4.67849512215e-08
3.28273726938e-08
8.56455308741e-07
1.13717336197e-06
4.09029612858e-07
1.57407771666e-06
2.52520807746e-07
8.29013734666e-07
9.14619749405e-07
1.30636501085e-06
4.61790949339e-07
3.08996155076e-07
8.96023566404e-08
2.03357584671e-06
4.23080658374e-07
2.13183277316e-07
9.87708957198e-07
3.21909444933e-06
8.11976889935e-08
4.30725118694e-06
2.51384600471e-06
1.6739972712e-06
1.55434066518e-06
1.42542906192e-06
5.5363675068e-07
4.18774013653e-06
4.98919120079e-07
3.50460332012e-07
2.43138745201e-10
5.35950234297e-07
2.81351361425e-06
7.92443070205e-07
2.17649447393e-07
4.13714884257e-06
1.0903042333e-07
1.27385590806e-07
3.27748102376e-07
7.06050023173e-08
1.58624131683e-08
6.68985329206e-08
1.81973077079e-07
2.59952530952e-07
1.31403144866e-07
3.77263428894e-07
1.27387162813e-06
5.80145383152e-07
3.3519275742e-07
1.85857323815e-06
1.36177286371e-06
2.14131190403e-06
3.61952145816e-08
5.43334319237e-08
1.65742480233e-08
2.22468297678e-08
4.62643648238e-08
3.76705570957e-08
1.72756314248e-07
8.83699378476e-09
1.79696312798e-07
2.05645694477e-07
2.42600061786e-07
6.44141141164e-08
1.86088877622e-08
1.8980907005e-08
2.54694311578e-08
2.34647424675e-08
2.23172850132e-08
4.27129660483e-08
5.91394398822e-08
1.48049140977e-08
9.4551401444e-08
3.21257894098e-08
7.04089961909e-08
1.53377373799e-08
3.59969926901e-07
5.84266864356e-07
1.1127567258e-06
5.96361528957e-07
4.62232496891e-06
4.94818826697e-06
1.62123780552e-06
4.57204406765e-06
8.05159868664e-07
1.34292899273e-06
1.65992830834e-06
1.37150406955e-06
5.25210442456e-06
6.2845804013e-06
1.90132785676e-06
6.65576605005e-06
9.55183531137e-08
9.00671464012e-08
2.78152099301e-07
1.0183522549e-07
3.64365951767e-09
6.07782499443e-08
1.74929002036e-07
4.26146854635e-07
1.36440431534e-07
1.67533214332e-07
2.97489297023e-08
2.78381921817e-07
2.76215025561e-07
1.59097523206e-07
3.92624711732e-07
4.12708892244e-07
1.34040631904e-07
2.47254470425e-07
2.21465263669e-07
1.03058771644e-06
8.09552121535e-07
7.63720957212e-07
3.6202388028e-07
1.75299455675e-06
3.59932018674e-05
9.60353802009e-06
1.32751435993e-05
4.96911396083e-07
1.49886502782e-05
5.22089930239e-06
3.66327816047e-06
4.85889879279e-06
6.15138005973e-08
8.2912381624e-09
5.66016234481e-08
2.78385866618e-08
1.01524098137e-08
2.46156856041e-09
3.53959196341e-08
9.15463352068e-09
4.45524606864e-08
7.14520334048e-09
3.13847393047e-08
2.97659343114e-08
2.11724791526e-07
3.82534051425e-08
6.77624172402e-08
7.27849632959e-08
3.97107589058e-09
3.64603240336e-09
1.5598430701e-08
1.94961830418e-08
1.07955529086e-07
9.22391170974e-10
3.55387112805e-08
6.52404552344e-08
6.68582811647e-08
7.4317220642e-08
9.14962195175e-08
6.58018910798e-08
4.36649356129e-08
1.45301704593e-07
1.23578663368e-07
4.30434540677e-08
9.42705173926e-09
4.92909681115e-08
6.90415131282e-08
9.90689280685e-09
5.15867428483e-08
1.45324569918e-08
3.22512130164e-08
8.97980272099e-09
1.88865410279e-09
6.70662038904e-09
1.89868150953e-08
8.50995235894e-09
1.39977537512e-08
1.1811223134e-08
1.11686771145e-09
9.92493734911e-09
2.6568131804e-09
6.57612237195e-09
3.01420076337e-08
2.14731857124e-08
2.76055110484e-09
8.78044679421e-09
1.12713025541e-08
3.58946237276e-09
1.16119041299e-06
1.94370135317e-07
2.03634592941e-07
2.46159341025e-07
3.73997706076e-07
7.23430961981e-08
8.69942008986e-07
2.32049103397e-08
6.33093841199e-09
4.76165799469e-08
6.02858473804e-08
4.48100148194e-08
1.04603798258e-08
3.03053950846e-08
7.2840804529e-09
6.29381986334e-09
4.10918261821e-08
1.43851315659e-08
1.55332597092e-08
1.43694871675e-08
5.30284771975e-08
2.75525534925e-08
1.81741387459e-08
4.76153093377e-08
2.00394489945e-08
4.9604529545e-08
1.09953449525e-07
5.80313343697e-08
3.13103128634e-08
1.58615767803e-08
1.98194910445e-08
1.58891686403e-08
2.77005286219e-06
1.93622341811e-06
6.74648741601e-07
2.43677929325e-07
9.42487718318e-08
3.05850131809e-07
3.55129288511e-08
6.35543613445e-08
3.88409936115e-08
2.95647830486e-08
1.06680919658e-07
4.76352689527e-09
1.15939462289e-06
1.30785974614e-07
3.78522722378e-08
7.21873320943e-08
6.69221531937e-08
1.49353576678e-08
2.03173346842e-08
4.78505802652e-08
9.56046676896e-08
1.6217211184e-07
9.90497349727e-08
2.192151718e-08
2.85145919477e-08
1.96822031622e-08
9.4174479534e-08
4.06998247687e-08
5.86664740748e-09
1.37107107343e-08
3.52666334478e-09
7.35591650032e-09
2.18742344473e-08
7.36215759068e-09
2.18456771846e-08
1.03231928329e-08
1.65767369499e-08
9.07612384892e-09
1.85252808983e-08
2.08058519966e-08
5.89751526155e-07
5.16049999487e-07
2.83451340644e-07
1.98656784398e-07
6.3352285179e-08
6.65230660472e-08
2.20160733849e-07
2.38500167264e-07
7.21077334867e-09
1.44047265872e-07
3.20432900644e-08
1.57851906818e-07
3.7137387297e-08
1.01091319238e-09
1.59932113174e-08
5.91746269925e-08
1.92462246799e-09
1.07672068916e-08
1.76946200019e-08
1.05141694325e-09
1.76554466189e-07
1.72490970116e-07
2.40452085287e-07
3.85177322508e-07
1.37491835229e-06
2.18013816819e-07
2.4011825638e-07
1.08584795155e-07
1.59160165174e-07
7.8423107988e-07
2.5133759122e-07
1.29774209538e-06
3.13117712139e-07
5.05799282176e-08
2.57052185201e-07
6.18341243521e-08
1.87439112925e-07
2.17494799762e-08
2.66506598511e-07
1.22846367374e-07
7.24012459304e-08
3.77578809284e-08
3.71927394124e-08
7.60443022734e-08
1.28522851481e-06
4.0220789092e-08
3.86970612996e-07
2.25815604143e-07
1.30604703502e-06
1.83852512733e-07
9.29042470889e-08
1.58464475955e-07
2.45082553447e-08
6.92264584762e-08
1.32778873307e-07
5.51401469559e-08
1.33490264314e-08
3.45956924568e-09
6.04954447958e-09
1.00671755875e-08
3.81175032975e-08
3.43540531849e-08
1.69407001072e-08
6.71502454997e-08
2.87210254772e-08
3.76570173745e-08
4.91077185814e-08
7.56293294054e-08
9.00076139554e-08
1.39931715331e-07
1.14972214689e-08
1.90510558473e-07
1.48810375704e-09
6.16391741814e-08
8.97093213715e-08
2.42414026875e-08
1.30476694774e-08
2.01284035737e-08
1.5464645716e-08
4.71843354943e-09
1.56042020878e-08
2.27285860453e-08
5.33728377904e-08
4.79344643893e-09
5.19861896155e-10
2.19968872689e-09
2.27935047379e-08
1.34076872695e-08
1.97558212369e-08
1.00322849537e-08
2.29826730921e-09
9.55821821605e-09
8.19885786305e-09
1.14223465063e-08
3.04558521733e-08
2.10398703811e-08
3.87786155166e-08
4.76365060342e-08
4.69839833201e-09
4.70360742564e-08
8.94341068806e-08
1.4061963645e-07
2.29881236389e-08
9.8072216279e-08
2.44981599644e-08
1.94898137698e-09
3.24708210619e-08
6.57724024088e-09
1.22806240716e-08
1.17921422051e-08
1.03720556146e-08
2.35306889082e-09
3.52722176475e-09
2.64731339347e-09
1.96636529182e-09
4.04405150115e-09
3.08011308072e-07
4.6037442388e-07
8.61868201277e-08
4.05740563108e-07
4.89357065839e-07
5.62524468178e-07
1.11267515215e-06
2.7150982176e-07
6.41992094434e-08
4.01266653092e-08
8.7466842932e-08
2.40927963147e-09
1.93177742596e-07
2.16275119785e-07
7.85870497892e-08
1.58360104357e-08
4.93916106165e-08
6.06182683206e-09
1.24163118002e-08
2.29125773288e-08
3.13744907045e-09
1.68195697278e-08
1.54881407105e-09
1.34476974658e-08
1.15075140222e-07
1.23319450092e-07
4.3735754039e-08
6.67529602015e-08
1.87222959846e-07
1.98383934681e-07
3.72108111295e-07
1.13395802794e-07
6.53486661316e-08
6.57466995475e-09
1.1860233309e-07
3.25436627955e-09
8.92419296315e-09
7.77848355571e-09
4.22512650213e-09
1.77062804654e-08
3.49255152803e-08
7.54581987932e-08
1.63145731693e-07
5.43361991285e-08
4.75185628221e-08
2.02071361065e-08
2.68581022047e-08
5.07402221271e-08
1.63641545633e-08
5.53446828246e-08
3.81291374344e-10
6.08478725293e-10
6.57609753206e-09
2.38038121623e-08
5.42680750549e-09
8.80524921509e-09
1.22180472008e-08
1.76301671574e-08
1.92125987844e-08
4.37776054661e-08
1.0156112569e-07
9.22307919529e-08
3.10730250631e-08
4.03039839875e-08
1.71424335441e-08
1.84287307318e-07
2.51070256161e-08
1.25214033854e-07
1.11621542993e-08
5.40960687203e-09
1.70942651579e-08
5.19224064986e-10
1.45331729929e-08
1.59395894505e-08
2.86435656994e-08
4.06629048319e-09
4.17065501667e-09
6.542712876e-09
8.33950744412e-09
1.15376558512e-08
2.91253859472e-08
6.99757148151e-08
3.05020406824e-08
1.44637422017e-07
3.71118158054e-08
3.25706953283e-08
5.7621567425e-09
1.01200620291e-08
3.15389265226e-08
6.61517112319e-08
1.01789023341e-08
3.63239664386e-08
1.41153188462e-09
4.82585539687e-08
5.30082161712e-08
3.96340501705e-08
1.65901884624e-10
1.17480469554e-08
9.02271474038e-09
7.5991632789e-09
1.00038750205e-08
2.2839139251e-08
2.17355991527e-09
1.64762492922e-08
2.38698175819e-09
5.02996815269e-09
1.66191335436e-08
2.46625553298e-08
8.64079151409e-08
1.98349860419e-08
9.13771156779e-08
1.40959747105e-08
7.33405369616e-08
3.29854303516e-08
3.73646032492e-08
3.43210924864e-09
8.95359267516e-10
1.55929249066e-09
3.84154656078e-09
4.69409560626e-09
1.85726990939e-06
2.44643997412e-05
2.08650093016e-06
1.92907425327e-05
2.16969848112e-07
1.22620663556e-05
3.37471377792e-05
7.98437859624e-06
8.93919701996e-06
1.34067523046e-06
5.12782006019e-06
9.02402656579e-07
3.38556129761e-06
5.34156385364e-07
5.45346882549e-07
9.36644142174e-07
1.04998722377e-08
8.2288184387e-08
6.94462566905e-07
1.45021982141e-07
1.90777436217e-06
4.92793608125e-06
1.08022160184e-06
2.27569814877e-05
2.96598933926e-08
9.40135112806e-08
2.43078431752e-08
4.65400611013e-08
1.95680698703e-08
9.21361984328e-08
7.96117135601e-09
4.08002435277e-07
4.09461725445e-07
1.3609582544e-06
7.40402333265e-07
1.62700868536e-06
7.55969091307e-07
1.60272083565e-06
8.61471397706e-07
1.32207202424e-07
1.67629456458e-08
1.00700159563e-07
1.3717714697e-07
4.70744923473e-07
1.58507437532e-07
2.9875533647e-07
8.71870924606e-07
7.41434899397e-07
2.23234653738e-08
9.40587149112e-08
1.74176191717e-07
7.70975775061e-08
7.24856156829e-08
1.94521036932e-07
1.19312108136e-07
6.74912764362e-08
2.46079095544e-07
7.88790582598e-07
1.52329796934e-06
2.28993437433e-07
4.70544120329e-08
1.33212525456e-08
1.26542737256e-07
2.11229295591e-08
2.41480766331e-08
2.25291542817e-08
5.45389407937e-09
2.27004255413e-08
2.32362616385e-07
1.54062970361e-07
1.26605782005e-07
3.51042373349e-07
3.10547101923e-08
3.78333870884e-07
3.4956923367e-07
1.90013849446e-07
8.1179958082e-08
6.66190723031e-07
1.05252178755e-07
8.08500314037e-07
3.50772148739e-08
1.67919622143e-07
2.4190325807e-07
4.89437139873e-08
2.49881852008e-08
1.25394398958e-08
2.44185092098e-08
2.15738416558e-08
4.3729620768e-07
5.5056075551e-08
6.82570112769e-08
3.466027905e-07
1.9530784729e-06
2.07756494058e-06
2.9574752098e-09
5.29843114002e-06
1.74160465138e-05
0.000286054172581
0.000148523560624
8.48246065518e-05
4.17405783252e-05
9.96360421529e-05
0.000143196085177
2.50613938165e-06
1.49451232138e-07
7.69611819429e-08
5.89001771246e-08
1.02850929532e-07
1.12286292437e-07
1.56569037778e-08
3.28358211349e-07
1.25698785609e-07
1.848510724e-07
2.15697916878e-08
1.70902672412e-07
2.92127824562e-07
1.37858628888e-07
7.44845138335e-09
5.31955271756e-08
5.5131544735e-08
1.3573730366e-08
7.01136091974e-09
2.25573107601e-08
5.04512182531e-08
1.05120514331e-08
4.60897870247e-08
1.83018530967e-08
3.16144318511e-09
2.53280225293e-08
2.21190683285e-08
1.06473945658e-07
1.86696269227e-07
6.62670460225e-07
1.40081259959e-06
1.63601340164e-06
8.42977261854e-07
1.3249888242e-05
7.38753159479e-05
8.8260256518e-05
1.6774350753e-05
0.000323558461955
0.00021584141932
0.000202109102874
1.9050896204e-05
3.55710383875e-07
1.05405460009e-06
1.9809486599e-06
8.58520071654e-07
3.18250900362e-07
2.04569452944e-07
7.0389740408e-08
6.16981728773e-08
2.28650708512e-09
6.80703489671e-09
1.97454707399e-08
4.03172668981e-09
1.51111900209e-08
6.8576439267e-08
2.16496502694e-08
3.01906128516e-08
3.31350263824e-06
2.17048466835e-07
4.90435801016e-07
9.06045872342e-07
1.00303293914e-06
3.4852764474e-05
2.66899859623e-06
7.53221761928e-06
6.15426479095e-06
1.64727913077e-05
1.08379075138e-05
4.20832166362e-06
1.28544441801e-06
1.46369851586e-07
4.39693487791e-08
3.55600968172e-07
3.39179457597e-08
1.00289814193e-06
7.412190847e-07
3.47501624317e-06
2.8356578483e-06
0.000164101399101
0.000109462245987
0.00010479664753
6.53027241288e-05
0.000147240378229
8.33172531251e-05
1.02886352132e-05
1.15941964442e-06
1.02293014747e-06
1.6269853311e-06
5.32678016367e-07
2.20122897367e-06
1.29130755609e-06
2.34610864911e-07
7.79415610995e-07
4.25936137794e-06
2.49623243072e-06
6.2478709055e-07
2.0298361599e-06
4.39880433622e-07
1.20077583022e-06
1.31624059038e-06
6.26976964164e-07
1.58596862401e-06
3.05412031443e-07
2.84046540079e-07
4.20610072617e-07
3.00071753867e-07
2.13642573043e-06
1.94587841346e-06
5.38734940114e-06
3.28729300849e-06
4.50866119815e-06
1.9565497909e-06
3.98553867516e-06
5.36566776355e-06
1.18687885224e-06
6.60003629888e-07
3.71067496906e-06
3.12469415179e-06
2.00087981532e-06
1.56247044962e-06
1.97150236161e-06
2.8605575582e-07
3.35475127073e-07
9.64867531491e-08
1.03806241607e-06
1.2634285101e-06