# vtk DataFile Version 3.0
File Name: Molecule/arg/arg_5.0-6.vtk
ASCII
DATASET UNSTRUCTURED_GRID
FIELD FieldData 1
TIME 1 1 double
0.0
POINTS 899 double
-3.403 0.327 1.604
-3.45 0.103 1.078
-3.138 0.005 1.702
-3.183 -0.208 1.2
-2.981 -0.361 1.858
-3.028 -0.584 1.332
-3.298 -0.003 0.536
-3.038 -0.309 0.683
-2.876 -0.691 0.79
-2.971 0.024 0.066
-2.725 -0.284 0.235
-2.549 -0.664 0.32
-2.984 0.046 0.042
-2.617 -0.045 -0.207
-2.63 -0.024 -0.229
-2.351 -0.22 -0.527
-2.365 -0.198 -0.55
-2.2 -0.483 -0.862
-2.216 -0.458 -0.889
-3.25 0.578 -0.258
-2.686 0.062 -0.328
-2.904 0.498 -0.574
-2.48 -0.047 -0.742
-2.684 0.361 -0.973
-2.39 -0.269 -1.153
-2.617 0.185 -1.409
-3.173 1.207 -0.458
-2.84 1.014 -0.738
-2.625 0.846 -1.127
-2.55 0.723 -1.58
-2.776 1.74 -0.497
-2.515 1.451 -0.77
-2.319 1.256 -1.157
-2.211 1.177 -1.613
-2.622 1.932 -0.429
-2.434 1.563 -0.734
-2.291 1.743 -0.67
-2.16 1.459 -1.077
-2.01 1.647 -1.011
-1.982 1.439 -1.492
-1.81 1.654 -1.416
-2.666 2.281 -0.134
-2.046 2.135 -0.548
-2.085 2.448 -0.283
-1.615 2.438 -0.879
-1.659 2.787 -0.585
-2.622 2.533 0.247
-2.045 2.674 0.059
-1.614 3.039 -0.203
-2.495 2.657 0.67
-1.932 2.785 0.438
-1.488 3.163 0.22
-2.925 2.572 1.071
-2.251 2.77 1.005
-2.634 2.694 1.361
-2.033 3.002 1.293
-2.411 2.928 1.645
-1.863 3.333 1.507
-2.279 3.251 1.894
-3.186 2.284 1.521
-2.865 2.437 1.761
-2.64 2.674 2.039
-2.53 2.972 2.328
-3.419 1.801 1.788
-2.888 2.359 1.917
-3.122 1.876 2.185
-2.717 2.558 2.345
-2.979 2.017 2.644
-3.567 1.179 1.827
-3.202 1.735 2.161
-3.333 1.184 2.196
-3.094 1.732 2.585
-3.223 1.188 2.619
-3.107 1.793 3.017
-3.25 1.192 3.055
-3.408 0.559 1.798
-3.191 0.635 2.17
-3.084 0.647 2.593
-3.095 0.593 3.027
-3.105 0.348 2.085
-3.1 0.088 1.867
-2.97 0.105 2.152
-3.02 0.504 2.546
-2.901 0.29 2.606
-2.978 0.383 3.085
-2.865 -0.346 2.113
-2.52 -0.7 2.425
-2.789 -0.06 2.411
-2.48 -0.378 2.69
-2.828 0.19 2.745
-2.523 -0.123 3.02
-2.645 0.041 3.387
-2.46 -1.117 2.184
-2.148 -0.9 2.844
-2.09 -1.3 2.613
-2.003 -1.142 3.367
-1.937 -1.6 3.103
-2.268 -1.45 1.888
-1.906 -1.62 2.328
-1.726 -1.965 2.777
-1.967 -1.659 1.57
-1.617 -1.821 2.023
-1.396 -2.195 2.428
-1.592 -1.721 1.268
-1.257 -1.88 1.733
-0.984 -2.263 2.097
-2.026 -1.588 0.931
-1.351 -1.766 0.91
-1.757 -1.641 0.594
-1.133 -1.941 0.578
-1.555 -1.812 0.25
-0.96 -2.23 0.303
-1.437 -2.084 -0.068
-2.342 -1.257 0.596
-2.053 -1.332 0.28
-1.861 -1.491 -0.075
-1.784 -1.721 -0.435
-2.487 -0.785 0.321
-2.189 -0.889 0.022
-2.002 -1.032 -0.342
-1.943 -1.202 -0.738
-2.264 -0.668 -0.026
-2.322 -0.554 -0.027
-2.141 -0.611 -0.433
-2.203 -0.492 -0.433
-2.131 -0.618 -0.861
-2.114 -0.682 -1.181
-1.927 -1.264 -1.052
-2.312 -0.441 -1.376
-2.121 -0.506 -1.916
-2.042 -0.816 -1.214
-1.838 -0.886 -1.79
-1.682 -1.348 -1.746
-1.975 -0.256 -2.322
-1.864 -0.768 -1.888
-1.672 -0.441 -2.421
-1.897 0.192 -2.527
-1.57 0.147 -2.691
-1.996 0.646 -2.441
-1.495 0.306 -2.776
-1.602 0.798 -2.682
-1.198 0.386 -3.152
-1.328 0.981 -3.039
-2.011 1.039 -2.18
-1.619 1.224 -2.399
-1.348 1.496 -2.696
-1.72 1.257 -2.235
-1.479 1.817 -1.75
-1.107 2.057 -2.211
-1.346 2.153 -1.415
-1.642 2.007 -1.116
-1.319 2.584 -1.178
-0.816 3.013 -1.267
-1.111 2.259 -1.642
-0.623 2.675 -1.729
-0.543 2.537 -2.312
0.466 3.148 -0.891
-0.416 2.926 -1.599
0.331 3.005 -1.38
-0.131 2.956 -2.042
0.328 3.005 -1.907
-0.002 3.1 -2.533
0.456 3.148 -2.398
-0.048 3.337 -3.001
0.699 3.415 -2.782
0.833 2.913 -0.61
0.619 2.806 -1.364
0.976 2.577 -1.092
0.892 2.689 -1.891
1.303 2.425 -1.576
1.057 2.557 -0.305
1.192 2.232 -0.796
1.553 2.026 -1.234
0.979 2.767 0.195
1.24 2.204 -0.113
1.167 2.404 0.362
1.539 1.918 0.039
1.462 2.128 0.539
0.737 2.845 0.68
0.936 2.478 0.823
1.22 2.206 1.024
0.406 3.093 0.833
0.71 2.572 1.142
0.419 2.789 1.277
0.841 2.425 1.643
0.539 2.651 1.783
1.112 2.426 2.108
0.748 2.699 2.276
0.011 3.456 0.651
0.142 3.058 1.218
-0.201 3.373 1.06
-0.01 3.117 1.656
-0.348 3.428 1.5
-0.034 3.266 2.099
-0.415 3.616 1.924
-0.504 3.599 0.465
-0.648 3.497 0.898
-0.789 3.55 1.341
-0.913 3.754 1.744
-1.038 3.495 0.311
-1.112 3.406 0.765
-1.247 3.461 1.209
-1.429 3.653 1.595
-1.502 3.118 0.685
-1.632 3.177 1.131
-0.05 3.403 2.531
0.304 2.919 2.221
0.288 3.057 2.654
0.729 2.855 2.766
-0.175 3.437 2.964
0.162 3.091 3.09
0.587 2.894 3.259
-0.395 3.364 3.353
-0.059 3.019 3.48
0.337 2.812 3.701
-0.687 3.194 3.654
-0.352 2.847 3.783
0.006 2.617 4.044
-1.13 3.18 3.766
-0.58 2.815 3.881
-1.094 2.799 4.011
-1.584 3.151 3.721
-1.62 2.766 3.959
-1.995 3.111 3.523
-2.096 2.719 3.73
-2.312 3.063 3.198
-2.464 2.664 3.352
-2.498 3.015 2.783
-2.679 2.608 2.871
-0.832 2.373 4.277
-0.242 2.183 4.431
-1.061 1.806 4.483
-0.466 1.628 4.634
-1.364 2.231 4.354
-1.452 1.611 4.604
-1.713 1.977 4.492
-1.735 2.528 4.103
-2.033 2.233 4.276
-2.128 2.66 3.763
-2.373 2.347 3.982
-2.496 2.611 3.374
-2.69 2.305 3.646
-2.791 2.388 2.985
-2.945 2.113 3.311
-1.464 1.095 4.666
-0.956 1.592 4.533
-0.968 1.074 4.596
-0.48 1.041 4.705
-1.655 0.731 4.634
-1.079 0.886 4.596
-1.26 0.541 4.565
-0.689 0.687 4.666
-0.881 0.322 4.633
-0.333 0.517 4.869
-0.555 0.096 4.831
-2.027 0.463 4.516
-1.383 0.368 4.531
-1.728 0.119 4.423
-1.114 -0.009 4.584
-1.476 -0.27 4.469
-0.878 -0.357 4.785
-1.3 -0.661 4.651
-2.342 0.241 4.242
-2.019 -0.087 4.169
-1.783 -0.487 4.202
-1.658 -0.914 4.34
-2.557 0.093 3.848
-2.219 -0.224 3.803
-1.993 -0.631 3.818
-1.903 -1.082 3.892
-2.301 -0.273 3.375
-2.078 -0.682 3.368
-0.557 -0.612 4.999
-0.228 -0.165 5.05
-0.202 -0.89 5.102
0.134 -0.447 5.155
0.164 -1.171 5.088
0.507 -0.734 5.141
0.37 -1.612 4.973
0.615 -0.976 5.092
0.811 -1.395 4.983
1.043 -0.806 5.264
1.249 -1.247 5.15
0.578 -1.993 4.725
1.008 -1.757 4.747
1.457 -1.629 4.901
0.77 -2.282 4.364
1.191 -2.031 4.405
1.649 -1.918 4.541
0.93 -2.454 3.923
1.343 -2.194 3.985
1.809 -2.089 4.099
1.044 -2.494 3.437
1.451 -2.232 3.524
1.923 -2.129 3.613
1.103 -2.399 2.949
1.506 -2.141 3.061
1.981 -2.034 3.126
1.1 -2.176 2.501
1.504 -1.93 2.635
1.979 -1.811 2.678
1.037 -1.846 2.131
1.444 -1.616 2.284
1.916 -1.481 2.307
0.647 -2.269 2.118
0.836 -1.714 1.711
0.512 -2.064 1.7
0.77 -1.662 1.233
0.47 -1.987 1.224
0.848 -1.697 0.757
0.525 -2.047 0.746
1.061 -1.813 0.337
0.67 -2.236 0.324
0.119 -2.499 2.107
0.075 -2.255 1.691
0.064 -2.164 1.215
0.088 -2.237 0.737
0.142 -2.466 0.313
-0.457 -2.497 2.099
-0.401 -2.253 1.685
-0.378 -2.162 1.209
-0.389 -2.235 0.73
-0.434 -2.464 0.306
-0.837 -2.059 1.682
-0.782 -1.983 1.207
-0.825 -2.042 0.728
1.12 -1.273 1.146
1.358 -0.854 0.972
1.315 -1.197 1.595
1.553 -0.779 1.421
1.592 -1.27 1.999
1.893 -0.741 1.779
2.335 -0.746 2.002
1.48 -1.078 0.031
1.639 -0.712 -0.547
1.476 -0.549 0.311
1.615 -0.229 -0.195
1.697 -0.118 0.66
1.842 0.216 0.134
-0.171 -1.746 -2.529
-0.548 -1.409 -2.576
0.186 -1.352 -2.841
-0.152 -1.05 -2.884
-0.822 -1.287 -2.506
-0.408 -0.948 -2.806
-0.669 -0.831 -2.739
-0.336 -0.591 -3.197
-0.616 -0.466 -3.125
-1.485 -0.767 -2.346
-0.988 -0.705 -2.664
-1.322 -0.31 -2.728
-0.95 -0.071 -3.189
-0.311 -0.212 -3.619
0.104 -0.811 -3.39
0.128 -0.454 -3.788
-0.16 0.24 -3.931
0.27 -0.03 -4.081
0.101 0.716 -4.098
0.516 0.418 -4.238
-0.411 1.252 -3.909
0.377 1.347 -4.4
0.11 1.626 -4.301
-0.398 1.946 -3.588
0.117 1.987 -4.134
-0.712 2.237 -2.975
-0.106 2.463 -3.53
-0.314 2.656 -3.124
0.028 3.029 -3.665
-0.135 3.18 -3.347
-0.202 2.855 -2.684
0.173 2.486 -3.833
0.85 2.546 -3.838
0.989 2.064 -4.14
1.267 2.733 -3.406
0.819 3.383 -2.845
1.204 2.948 -2.765
1.749 2.404 -3.353
1.668 2.681 -2.526
0.902 2.914 -2.485
0.749 2.956 -2.405
1.123 2.627 -2.01
1.688 2.19 -1.733
1.962 2.454 -2.382
2.133 1.624 -1.992
2.194 2.159 -2.516
2.141 1.301 -1.585
2.428 1.273 -2.257
2.435 0.969 -1.874
2.042 0.907 -1.262
2.342 0.599 -1.57
1.911 1.516 -1.257
1.884 0.909 -0.851
1.768 1.444 -0.847
1.861 0.913 -0.411
1.75 1.425 -0.407
1.976 0.918 0.014
1.858 1.462 0.018
1.454 1.892 -0.826
1.449 1.855 -0.388
1.867 0.812 -0.4
1.753 0.215 -0.299
1.896 0.717 -0.83
1.788 0.151 -0.734
2.06 0.644 -1.234
1.942 0.027 -1.129
2.201 -0.141 -1.444
2.566 1.229 -2.871
2.241 1.687 -2.422
2.339 1.656 -2.857
2.27 2.135 -2.856
2.341 1.264 -3.459
2.179 1.681 -3.275
2.146 2.154 -3.181
1.83 1.363 -3.817
1.817 1.751 -3.528
1.863 2.209 -3.379
1.605 0.935 -4.222
1.413 1.57 -3.947
1.254 1.267 -4.234
1.103 1.869 -4.167
0.979 1.632 -4.39
1.11 0.579 -4.381
0.902 1.014 -4.346
0.705 1.435 -4.478
0.482 0.901 -4.245
1.404 2.01 -3.684
1.315 2.161 -3.664
2.007 0.383 0.735
1.733 -0.159 1.085
2.004 0.279 1.15
1.861 -0.287 1.473
2.124 0.139 1.536
2.068 -0.489 1.788
2.355 -0.024 1.857
2.675 -0.196 2.083
2.074 0.941 0.928
2.063 0.767 1.319
2.181 0.613 1.7
2.417 0.492 2.036
2.749 0.417 2.295
1.884 1.434 1.198
1.897 1.199 1.555
2.02 1.032 1.93
2.241 0.95 2.287
2.541 0.959 2.592
1.624 1.884 1.117
1.755 1.469 1.75
1.503 1.904 1.671
1.842 1.579 2.299
1.557 2.073 2.21
1.11 2.216 1.58
1.886 1.845 2.759
2.132 1.224 2.493
2.174 1.477 2.929
2.585 1.225 3.051
1.814 2.002 3.263
2.105 1.625 3.407
2.513 1.382 3.555
1.633 2.033 3.763
1.933 1.655 3.881
2.331 1.413 4.055
1.359 1.937 4.21
1.674 1.563 4.305
2.058 1.316 4.502
1.021 1.721 4.561
1.354 1.359 4.638
1.72 1.101 4.853
0.651 1.408 4.781
1.002 1.062 4.847
1.35 0.788 5.074
0.073 1.245 4.841
0.82 0.891 4.947
0.23 0.725 5.008
0.672 0.387 5.179
1.205 0.294 5.301
0.564 -0.173 5.245
1.099 -0.256 5.367
-1.834 2.927 0.971
1.032 -1.487 0.709
1.396 -0.602 0.696
1.333 -0.958 0.489
1.678 -0.195 -0.741
1.805 -0.426 -1.067
0.9 3.106 -3.671
-2.913 1.955 -0.341
-3.327 1.641 -0.268
-3.327 2.032 -0.008
-2.913 2.297 -0.026
-3.327 2.292 0.383
-2.913 2.519 0.384
-3.327 2.384 0.843
-3.656 1.544 0.048
-3.656 1.916 0.37
-3.656 2.055 0.843
-3.656 1.916 1.316
-3.867 1.641 0.843
-3.867 1.411 1.241
-3.656 0.342 1.089
-3.656 0.609 1.504
-3.867 0.951 1.241
-3.867 0.721 0.843
-3.656 0.342 0.597
-3.867 0.951 0.445
-3.656 0.609 0.182
-3.656 1.057 -0.022
-3.867 1.411 0.445
-3.94 1.181 0.843
-2.457 -1.44 1.367
-2.786 -1.076 1.613
-2.786 -1.076 1.121
-2.457 -1.348 0.907
-2.786 -0.809 2.028
-2.215 0.2 -2.35
-2.215 -0.241 -2.149
-2.52 0.083 -1.912
-2.52 0.561 -1.912
0.827 3.098 -0.086
0.498 3.335 -0.546
[...]
CELL_DATA 1794
SCALARS cell_data_0 double
LOOKUP_TABLE default
1.9057657953e-06
3.60789392249e-06
1.85134331571e-06
1.95579409686e-06
4.12191737663e-06
4.03957450907e-06
3.70759784846e-06
2.60614400132e-06
2.17252084121e-06
1.30671391093e-06
2.00018668707e-06
4.4752747187e-07
2.15703407664e-08
5.48530999621e-08
7.63864156931e-08
8.54676924368e-08
4.83991122547e-08
1.13618087143e-07
3.85787873921e-06
5.67456662978e-06
3.92920644742e-06
4.42451754749e-06
1.07082715778e-06
1.23323758992e-06
1.00207977244e-05
8.1505070656e-06
6.50631814508e-06
6.47539295486e-06
4.37807330511e-06
4.88299820994e-06
7.31960799009e-06
5.97018630501e-06
8.7488812959e-06
5.67752470441e-06
4.20330983722e-06
8.22909831805e-07
6.61469053291e-07
5.42614516851e-07
3.26789656233e-07
3.93940256478e-07
1.02662296465e-07
5.98916294942e-07
7.63218371658e-06
7.00453616853e-06
2.00670183408e-06
2.04940936579e-06
7.9070250333e-06
4.36721287704e-06
4.19420705514e-06
7.13459003702e-06
6.62671251958e-06
6.71896692973e-06
7.43042019186e-06
7.29665534734e-06
2.7331583924e-05
2.24184784463e-05
2.24942393383e-05
2.20269766544e-05
2.4527102028e-05
7.818137585e-06
1.95073990661e-05
5.73760158849e-06
8.99775970856e-06
1.40294612412e-05
9.46335091128e-06
1.07102951477e-05
3.23629593235e-06
6.79143286422e-06
5.24129975702e-06
4.86559342127e-06
7.97170330874e-06
5.59881264782e-06
4.3559264796e-06
1.88334505399e-06
2.28047940318e-06
2.72396830658e-06
3.92528688874e-06
2.14133353312e-06
1.71399250684e-06
1.46894597286e-06
1.79104100072e-06
3.1524166038e-06
4.83738164688e-07
2.56136422415e-08
4.53653935532e-07
4.46585076863e-07
9.31280310911e-07
8.87706073629e-07
7.06563271775e-07
1.69953748911e-07
6.67056745063e-07
4.96145107176e-08
1.2303064745e-07
9.49342929168e-08
2.21952369527e-07
1.61874000252e-07
6.32103200128e-07
1.78535592097e-06
3.78089864803e-06
3.27258740384e-06
7.40941314765e-07
1.33801494217e-06
2.01932400045e-06
1.81966844894e-06
7.45445161392e-07
1.20527064033e-06
1.44344866454e-06
1.16701990306e-06
8.85469846823e-07
1.14922070167e-06
1.07229246626e-06
7.68312716799e-08
8.38653176284e-07
8.16102374107e-07
1.21137674308e-06
1.14410591887e-06
1.22795528751e-06
1.05409347513e-06
6.24328771208e-07
7.80611675326e-07
9.47642732016e-07
1.01529682114e-06
1.01418586594e-06
8.02461148908e-07
1.26133360353e-07
3.46590588317e-07
7.84914387862e-07
9.40013912201e-07
6.74393327401e-07
3.70180578285e-07
1.23661911714e-07
3.01169779049e-07
3.13091355264e-07
3.85470579671e-07
3.51376047731e-07
4.4608354404e-07
3.62163511653e-07
1.26937427554e-06
6.24811724639e-07
5.8453524029e-07
1.1492031148e-06
1.44014924229e-06
1.01274658876e-06
2.53455853411e-07
8.37528210836e-07
1.17050449409e-06
9.51123472668e-07
1.27791622771e-06
1.26716942754e-06
1.36295018509e-06
1.41342502904e-06
2.53726156708e-06
1.92471113729e-06
2.50596123477e-06
2.45990922961e-06
3.22695071758e-06
1.99983901951e-06
2.70011834391e-06
5.39515538658e-06
5.27085510571e-06
2.5807075852e-06
2.39569793531e-06
2.41811035972e-06
1.8645397992e-06
4.63395971871e-06
5.54653765828e-06
5.8348641078e-06
6.59820548376e-06
6.97775288653e-06
3.26714431579e-06
4.56627536286e-06
8.3224853588e-07
2.41804644169e-06
1.57156089403e-06
4.51304761758e-06
8.51478555589e-06
1.23334419954e-06
1.40965751115e-06
1.87307785506e-06
5.03835575679e-06
3.28967520178e-06
3.90981585389e-06
4.04391828153e-06
5.21823728491e-06
2.48830926074e-06
2.12681954009e-06
2.15682186848e-06
2.23205377732e-06
1.92230847177e-06
1.80481671665e-06
2.04511102412e-06
1.90543061323e-06
1.59578768555e-06
1.3964768931e-06
1.48073639657e-06
1.07472373437e-06
1.3029052908e-06
1.72696443281e-06
9.76936957976e-07
5.7257675643e-07
3.57994677925e-07
4.10113240697e-07
4.76299367287e-07
4.50841729379e-07
6.3485723576e-07
5.01157731777e-07
5.19314076464e-07
4.31542540087e-07
3.18005993517e-07
2.65362249235e-07
5.48978965937e-07
4.73976579152e-07
4.16075444957e-07
2.9619275602e-07
2.56317935075e-07
1.16812617495e-07
4.92811974103e-07
2.50623735227e-07
2.97395929863e-07
1.69022116591e-07
1.8689203424e-07
1.10756031711e-06
5.79262529664e-07
4.94287910039e-07
1.23943237294e-06
1.57420473223e-06
9.20132493984e-08
2.43053977761e-07
4.71476909587e-07
3.55592027513e-07
1.25092855826e-06
2.47918339352e-06
1.92674082535e-06
6.6871975908e-06
2.26186587425e-06
7.28738202016e-07
4.49500485356e-06
3.27789548567e-06
2.65400936773e-07
9.85701733342e-08
3.2559518739e-08
1.02415680919e-07
3.02577610253e-08
4.01427481386e-08
9.20860115059e-08
1.2512435907e-07
5.3395723057e-09
2.29224959364e-08
1.34982604704e-06
2.74306267035e-06
1.77193981065e-06
2.82998476161e-06
2.95907706819e-06
1.79710021674e-06
1.11362053816e-06
4.2673860763e-06
7.53164325263e-06
1.10490716837e-05
1.92314274083e-05
1.79920116873e-05
2.73344831837e-05
2.00247962825e-05
2.26619782612e-05
1.56896407249e-05
9.32406630686e-06
6.5940545802e-06
2.77034869853e-06
4.50682140744e-06
4.39276216398e-06
1.93806912342e-06
2.01401636017e-06
2.00491073285e-06
2.15297917486e-06
9.10187258941e-07
8.78177673859e-07
5.99735383151e-07
2.87532630177e-07
2.16274995427e-07
1.26660152224e-07
3.57921685156e-07
8.7914287084e-07
9.73563451952e-07
1.15659465253e-06
1.95816623147e-06
7.91657595147e-07
4.12140131602e-06
3.56864337973e-06
7.41603331966e-06
5.35635994251e-06
4.60477205687e-06
5.10890494667e-06
3.12681531246e-06
4.37326227361e-06
1.33323259369e-06
3.58964469902e-06
9.69370896358e-07
6.3289421472e-07
6.35020301886e-07
4.99658247362e-07
1.39819431835e-06
2.48351129244e-06
1.94877266844e-06
2.32030010232e-06
1.13681961832e-06
1.99380336101e-06
2.14255543941e-06
3.8774748332e-06
3.65275178025e-06
2.85136885525e-06
2.2583493943e-06
3.03457702912e-06
2.63805448617e-06
2.59873046975e-06
3.19854627398e-06
1.22840773579e-06
1.6207494309e-07
1.23077020716e-06
2.59490518537e-07
1.32426662285e-06
5.53411575819e-07
5.25328521562e-07
1.72726129859e-06
1.77871224168e-06
1.94783389109e-06
2.0063000411e-06
2.99571203864e-06
1.86273816889e-06
5.68019736134e-07
1.13507773726e-06
2.15801077933e-06
7.92584731185e-07
1.09894943715e-06
1.4001484207e-06
1.719643002e-06
1.17118053919e-06
9.38229938852e-07
1.08545928077e-06
8.08783885561e-07
4.54413895623e-07
1.55219910503e-07
6.658323913e-07
4.02111402175e-07
2.13066955302e-06
2.05162849857e-06
2.62820470456e-06
1.64523289045e-06
4.11591248807e-07
1.93963114815e-07
2.66669523443e-07
8.16571373525e-08
8.80367359693e-07
1.09839579799e-06
1.31480269002e-06
1.2698811866e-06
3.01711335303e-07
3.25867647129e-07
1.26286382601e-06
5.07529297702e-07
6.42849862819e-08
7.25436188745e-06
2.07448522362e-06
1.38390685095e-05
1.77523673037e-06
2.99372486675e-06
3.6154911595e-06
2.3804330994e-05
2.96997515811e-05
3.26671349024e-05
2.09839252744e-05
1.07738999943e-05
2.10054600788e-05
2.42589694431e-05
3.27626004802e-05
5.61499884346e-05
3.66116865417e-05
2.99592270901e-05
1.13040343366e-06
1.03411151105e-05
1.07259033709e-05
5.9317744316e-06
7.2920364034e-06
8.58363375252e-06
2.67588919064e-06
6.87453789001e-07
4.06636114207e-06
4.88466864825e-06
2.04958365281e-07
1.6774749023e-06
1.13480634767e-08
1.82544539857e-06
2.04600720414e-06
1.5339128225e-05
5.35322440897e-06
3.34130250877e-07
1.49238544354e-06
1.4727553908e-06
4.05244048599e-06
9.13799803544e-06
8.52798947223e-06
1.42961180656e-05
1.38989532231e-05
6.08469311323e-06
7.17131209282e-06
1.13803796367e-05
8.76933302888e-06
1.19944190497e-05
8.82512607282e-06
8.46736349114e-06
5.6969968194e-06
1.39044647401e-05
3.20399925444e-06
1.92529387003e-05
1.9298076612e-05
2.86970595901e-05
4.31518711134e-06
5.48546443362e-06
3.71571992247e-06
6.73532577883e-06
6.9781630307e-06
5.76072849651e-06
7.59453689401e-06
9.45059135833e-06
3.64998524585e-06
1.01529154305e-05
1.05831259811e-05
3.54132242514e-06
2.97834326295e-06
2.04852776534e-06
7.67215363523e-06
1.84650657522e-06
2.1945669384e-06
4.52824954244e-07
2.26783583997e-06
2.2158931168e-06
1.11239050963e-06
9.01693850626e-07
5.61322308873e-07
1.0444536989e-06
9.9918106486e-07
8.4385824092e-07
2.49701827958e-07
3.99698533074e-07
3.42497336784e-07
1.50526236716e-07
5.63697381037e-07
1.44383896023e-06
1.18099949577e-07
2.76032495809e-07
2.81122534651e-06
2.76801359602e-06
1.03211679641e-06
1.81963010134e-07
1.78529142639e-06
2.26708558406e-06
1.22732550096e-06
1.17226536871e-06
2.35685287264e-06
2.68676305198e-06
6.01744605272e-07
3.47918898708e-07
3.98010507192e-06
3.5540683141e-06
9.4466617141e-06
4.02882803859e-06
1.69104094514e-06
2.01337000687e-06
7.68264680947e-06
2.46454128132e-06
8.18203164274e-07
4.12384485805e-06
6.15300974192e-06
4.59797718042e-06
4.59942852382e-06
4.89660480987e-06
5.78670677275e-06
7.44790369462e-06
7.49013171902e-06
2.75209826253e-06
4.25542176353e-06
2.14410281795e-06
2.28980651317e-06
8.81479315483e-07
2.01125828853e-06
5.18191029442e-07
8.86378737029e-08
4.61035756497e-07
4.51015198931e-08
5.30692298962e-07
4.70749733639e-08
4.07534939485e-07
5.04374438151e-07
6.07105222398e-07
4.53920436899e-07
7.33092838465e-07
9.04292034697e-07
1.47861019797e-06
7.83175702577e-07
1.28064925721e-06
9.06401375858e-07
7.32618583259e-07
2.07608568407e-06
1.75763025756e-06
7.34389916538e-07
1.80106642423e-06
1.19511824405e-06
1.81419819351e-06
1.31679632218e-06
8.22860731759e-07
4.33244010451e-07
2.5776579418e-06
4.18405737777e-06
1.32773669368e-06
2.63406546608e-07
2.75210665824e-06
2.53821861746e-06
1.62108147372e-06
1.93292831967e-06
2.28086365315e-06
1.58990471296e-06
1.24745549133e-06
1.4928129332e-06
1.4645698774e-06
8.33824315189e-07
6.5401663157e-07
8.47463018751e-07
7.01620791358e-07
4.48348537976e-07
4.47318610976e-07
4.63041355329e-07
6.91335985124e-07
4.50357623666e-06
1.36960162386e-06
2.08521460602e-08
2.55021800949e-07
4.65137397231e-06
2.07585580402e-06
8.66214545245e-08
1.77617185585e-07
4.59562710732e-07
1.30383098159e-06
3.05153626355e-07
2.12391335635e-07
1.60759913165e-07
7.58111833594e-07
1.11839604002e-07
8.5773274388e-07
1.02329715339e-06
6.72998807098e-07
7.55615487448e-07
3.37040859884e-08
1.4005643275e-06
6.67709467075e-07
3.58677983049e-07
6.87322289928e-07
2.12758651815e-07
1.52933146772e-06
8.25409976308e-07
9.99102619494e-07
1.55584637153e-06
3.68269340406e-07
7.03099987293e-07
2.37063627464e-06
1.64031285774e-06
2.50595071055e-06
7.4186005935e-07
1.14395693541e-07
6.82794112654e-06
1.3175877171e-05
1.24842951112e-05
3.13702626173e-06
6.78366476476e-06
4.54964173901e-06
3.44805040076e-06
3.83192032754e-06
2.02744803363e-06
9.89449003398e-07
1.73902362411e-06
1.90239286602e-06
2.47675791044e-06
7.31584595813e-07
3.03849936426e-07
2.91951751909e-07
6.43203941688e-07
1.30625122472e-07
1.05759353013e-07
3.68065508567e-07
7.93052052308e-07
2.25577332751e-08
1.4170747024e-07
4.91503829521e-07
2.64852707236e-06
3.4664813984e-06
7.24316587326e-07
2.76517621426e-06
1.73415284092e-05
1.91573883803e-05
1.2400994463e-05
1.95852241016e-05
2.33549554053e-07
1.96178505903e-07
1.47958892987e-07
7.63152454329e-07
8.02045874427e-07
3.81606213539e-07
2.23727094143e-07
6.43874613059e-08
1.32454895176e-07
6.40832251339e-08
1.11064577724e-07
3.39381118585e-07
3.0585886755e-07
7.30687653918e-07
7.3643296335e-07
4.08446485178e-06
2.25532526618e-06
2.1757169557e-06
9.11718935175e-06
5.36757715284e-06
6.14525453106e-06
5.51509485857e-06
2.88828654678e-06
2.43779171426e-06
8.37643176717e-06
5.87883398842e-06
1.14349229223e-05
3.35986979256e-07
8.36190337953e-07
3.65120315581e-07
2.08309225089e-06
1.23911222476e-06
2.20016912627e-06
1.20044711684e-06
3.05254989082e-06
2.31093355081e-06
1.35897651108e-06
1.40034571193e-06
1.31729054615e-06
1.32715625236e-06
1.21997713327e-06
8.21038149983e-07
5.80626503952e-07
8.07551185805e-07
4.09544452813e-07
7.93643964275e-07
3.21133281124e-08
3.03064282405e-08
1.13397524482e-06
1.01870136611e-06
7.31133210757e-07
1.42031075818e-06
1.64246809754e-06
1.51984752073e-06
8.488729975e-07
5.29884480572e-07
4.24175806888e-07
2.61660838582e-07
3.17599986655e-07
1.64607993553e-06
1.56375460484e-06
3.98430768141e-06
4.26438669088e-06
3.2931838663e-05
1.26004450529e-05
2.07397343597e-05
1.60963077772e-06
2.32009321039e-07
2.17566836509e-07
1.1887591401e-05
1.50798591425e-05
3.63280964295e-05
1.6342934313e-05
2.12274829622e-05
3.89870893947e-06
4.83889652611e-07
3.00137013305e-07
8.73495182903e-07
9.43854099841e-07
3.6443133583e-06
2.68244177382e-06
5.12685463479e-07
3.7271763121e-07
2.00912173946e-06
4.06921683678e-06
1.84085753712e-06
2.67406550991e-06
6.57265544794e-06
4.7075063893e-06
1.72503313536e-06
6.10214656184e-07
1.46023607447e-06
2.45790874094e-06
6.80447614264e-06
4.16971997398e-06
2.77439730478e-06
8.94737262405e-06
1.23739161498e-05
4.93894447701e-06
1.87705917791e-05
1.00848338634e-05
1.09498136981e-05
2.73700304549e-06
1.02470367948e-06
2.29222133259e-07
1.65466111591e-07
8.72955054103e-07
6.70233177327e-07
1.36110504642e-06
4.20794979127e-07
8.02281563809e-06
5.11944647467e-06
8.1303590669e-06
1.28489499335e-06
8.1380084686e-07
1.08816138309e-06
1.39167134016e-06
2.14603590387e-06
7.12458828679e-07
6.46158435342e-07
1.60096361662e-06
1.54324241889e-06
1.62886769301e-07
1.18771519559e-07
2.19894223204e-07
3.17134777878e-08
4.1372665762e-07
6.00860934413e-07
6.59633526174e-07
6.21411455387e-07
1.09089497454e-06
1.14116938808e-06
2.11298130045e-06
1.93893847774e-06
2.48141878801e-06
1.44830010986e-06
2.38267432116e-06
1.46634350429e-06
1.66483815008e-06
6.4594433199e-07
5.44178194215e-07
6.12490095436e-07
5.90789849734e-07
6.12437686752e-07
9.49896833476e-07
5.17274214267e-07
5.13277536369e-07
4.64735214191e-07
4.26879941621e-07
4.03804840101e-07
4.49444764931e-07
3.33341577795e-06
2.14030389407e-06
5.99272488427e-06
4.51412835617e-06
4.04090027235e-06
3.26696072774e-06
2.34983883775e-06
2.15800617083e-05
2.0162620679e-05
2.23444624841e-05
1.43110416954e-06
3.60935977561e-07
2.42298684568e-06
1.21784123743e-06
1.93957236991e-06
8.2368285837e-08
1.24302927579e-07
3.46572759947e-06
4.21089965805e-06
7.08972062068e-07
9.68043643864e-06
3.74062091244e-06
4.13857604926e-06
3.08859982627e-06
3.26911203633e-06
4.20034762761e-06
2.26093133116e-06
1.30160667497e-06
1.60913177276e-06
9.7175715876e-07
3.9779673282e-06
6.72449919428e-08
1.40122358099e-08
8.17173851836e-08
1.15155707263e-07
1.49394730896e-07
9.14127328952e-08
2.0874614453e-07
1.32640796581e-07
2.6915505488e-08
1.10701747094e-07
1.36421740883e-07
8.87753858067e-07
4.11273397662e-07
8.34886281591e-07
3.46285694953e-07
9.4780524893e-07
1.64970522448e-07
6.21893769104e-07
1.62078716571e-07
4.03394366471e-07
9.66966446115e-08
6.27906807123e-07
2.07408266821e-07
3.03800490122e-08
1.10906538782e-06
1.28406951014e-06
2.12082567839e-06
1.13124333974e-06
1.08768800064e-06
7.91075409283e-07
5.41672048084e-07
7.75026976424e-07
1.94234305866e-06
1.46229365466e-06
1.03807924649e-06
6.70791280053e-07
5.65976734912e-07
2.89136245291e-06
2.56251483278e-06
5.42784603026e-07
1.15978372957e-06
5.51895594524e-06
9.42812692206e-07
8.84198543491e-07
8.28310883586e-07
1.00105293432e-06
8.93502635182e-07
7.64866988264e-07
8.15650221424e-07
7.33882172639e-07
7.28242777692e-07
6.94247395606e-07
1.13005422154e-06
9.65291980217e-07
9.03195531367e-07
7.95949518225e-07
4.72256609413e-07
1.93107596308e-06
2.42186389543e-08
5.947296831e-07
6.2893949819e-07
7.39381501448e-07
9.83765923014e-07
7.27263358557e-07
4.92446914796e-07
5.1054316564e-07
1.20498289376e-06
1.25377204445e-06
2.16214516925e-06
1.59647986538e-06
1.96966105476e-06
2.10308874542e-06
1.51523820087e-06
1.28909693814e-06
1.03885531072e-06
4.4336976251e-06
1.23821688051e-06
9.21685379234e-07
4.9575343847e-06
1.37494492152e-06
2.23378061129e-06
8.34829573598e-07
4.78717364054e-07
2.46750575359e-06
8.20242073555e-08
2.10194751565e-07
1.38521042632e-07
2.62223556986e-07
1.77195457356e-07
1.55007775543e-10
3.42743951553e-08
6.88787560436e-08
1.82240480755e-07
5.95646421424e-08
3.95935101044e-08
1.75528850063e-07
3.06271659691e-07
2.07076184579e-07
2.15938314416e-07
8.3431518839e-06
6.8722860462e-08
1.11080565917e-05
2.34115235966e-05
6.24949094664e-06
1.68354977866e-05
2.08518939219e-05
4.34388241568e-06
6.13703452934e-06
1.2549172661e-07
1.64123831689e-07
1.79273165592e-07
1.8758049832e-07
2.86088128175e-08
1.15326102269e-07
9.94571775922e-07
7.95703904836e-07
6.49333112318e-07
1.42314329763e-07
7.86500443404e-08
3.2652868052e-07
4.62941958583e-07
2.03421268582e-07
1.54185668464e-07
9.02048313419e-08
8.57553670836e-06
1.72368417641e-05
3.22076563792e-07
2.39636500673e-06
1.8365559594e-06
2.83840472296e-06
3.56025447306e-07
5.87949765341e-07
1.72075164886e-06
1.25902255125e-06
2.97511240075e-06
1.13908924445e-06
6.82872570072e-06
1.45779980614e-06
4.32635005356e-06
7.60376355263e-07
7.36957084606e-06
1.0048579661e-05
3.52739080877e-06
4.30059105231e-06
2.0454064154e-06
7.08146371406e-06
4.24994663467e-06
1.38418462372e-05
9.23679163263e-06
8.97756029035e-06
1.59318981371e-05
7.57495465759e-06
6.54684454355e-06
1.35412958461e-05
9.78088630334e-06
1.2336864008e-05
7.23914399416e-06
2.38813564096e-06
2.14488991419e-06
2.00010411692e-07
6.40511555212e-08
2.41640035716e-09
1.27377464041e-06
4.62741747746e-07
3.3408165501e-06
5.0089860944e-06
6.85870127102e-06
1.02760783651e-05
1.76898003301e-05
9.28041014521e-06
2.45006246502e-06
2.26787391924e-06
1.53140080603e-06
2.00290952295e-06
6.73566335353e-06
4.45625956171e-06
9.35443629402e-06
1.31546648745e-05
1.32053865263e-05
1.36479357919e-05
7.69316316503e-06
8.76282253197e-06
1.15128041408e-05
1.52028482062e-05
1.38536218556e-05
7.4363425032e-06
3.64640774271e-06
1.28832562783e-06
1.14406256748e-07
1.37616160392e-07
5.485756909e-07
7.34848166383e-08
1.54808143341e-06
5.83872808439e-07
2.12533116549e-07
2.74054154017e-07
6.84521002879e-07
1.64303503633e-06
1.27036681864e-06
1.74439382327e-06
6.63461218909e-07
2.33252953187e-07
6.78705261273e-07
8.20294710706e-07
1.19905691495e-07
2.64616980854e-07
3.38712105317e-07
2.18250651756e-07
4.03630788168e-07
1.15269235915e-07
1.32529283201e-07
2.64276845373e-07
2.17027394741e-07
6.37247397318e-07
5.38982440736e-07
9.40399173706e-07
7.64778465575e-07
6.00926227946e-07
4.07015763829e-07
4.57273207786e-07
2.4043979713e-07
1.20640445899e-06
7.83821866787e-07
1.52692125712e-06
1.20156165033e-06
9.35779307502e-07
1.19089300439e-06
3.19341153339e-07
3.32901140246e-07
1.21228088623e-07
3.95802801674e-08
2.10114373069e-08
2.74691166401e-07
7.88647442796e-08
3.4370126501e-07
5.56939224946e-07
1.89548650943e-06
1.80867351093e-06
1.47099413411e-06
6.50344807722e-07
3.87264526544e-07
4.29391360949e-08
2.26618758214e-07
9.80431339229e-08
1.60949766694e-07
2.8356843468e-07
9.10343040215e-07
3.01493934805e-07
2.17002614372e-07
1.42471286145e-07
4.62505908535e-07
2.5355968811e-07
4.05457072416e-07
1.70256700125e-06
8.63791075357e-07
1.21114762492e-06
5.69397108162e-07
6.26372493238e-07
2.54593694828e-07
1.13264918295e-06
1.81393781248e-06
2.29105203241e-06
3.04137752211e-07
3.25887196722e-07
3.83059986158e-07
5.00811647562e-07
1.12745139694e-06
1.25318354517e-06
1.30443419851e-06
1.72548509873e-06
2.55792761478e-06
2.50691155962e-06
2.32270101171e-06
1.76004444135e-06
3.56579645669e-06
3.05045909096e-06
2.0601581683e-06
4.56591936312e-07
4.08164959163e-07
1.53855700944e-06
1.37577680897e-06
1.01991139756e-06
1.3704787306e-06
6.70648127857e-07
4.76627998694e-07
2.33204389718e-06
3.23326199381e-06
4.10489780262e-06
1.43926578879e-06
4.01923700946e-06
7.51654289006e-06
1.62199357155e-06
4.64844601076e-06
2.49803453868e-06
2.50348498885e-07
5.45659209786e-07
1.97568911659e-06
6.38680737891e-07
7.99113886692e-07
3.93009084344e-07
5.72529936857e-08
8.01013196654e-07
6.42658988246e-07
3.71008241653e-08
1.09357264149e-07
5.16078522866e-07
1.72784373139e-07
8.65065036033e-07
6.95306371647e-07
3.269208448e-07
1.48390354048e-07
4.29473808694e-07
7.53082998353e-07
7.01611817526e-07
6.96321859413e-07
3.06952922851e-07
1.73924479273e-07
2.54988143299e-07
3.50739000058e-07
6.79617290572e-07
7.69692577876e-07
1.28386709295e-06
1.23368040289e-06
8.07531380518e-07
6.89000012372e-07
1.88734269324e-07
5.18986679723e-07
8.26315166824e-07
1.35635447673e-06
1.0502559691e-06
2.1548541515e-06
2.29836169035e-06
3.11287005021e-06
1.444040232e-06