# vtk DataFile Version 3.0
File Name: Molecule/sphere_test/sphere_test_0-s2.vtk
ASCII
DATASET UNSTRUCTURED_GRID
FIELD FieldData 1
TIME 1 1 double
0.0
POINTS 162 double
0.850650808352 -0.525731112119 0.0
0.829833901363 -0.417374053247 -0.25
0.925325404176 -0.26286555606 0.0
0.904508497187 -0.154508497188 -0.25
0.809016994375 -0.309016994375 -0.5
1.0 0.0 0.0
0.809016994375 0.0 -0.5
0.904508497187 0.154508497188 -0.25
0.809016994375 0.309016994375 -0.5
0.667374053247 -0.154508497188 -0.675325404176
0.667374053247 0.154508497188 -0.675325404176
0.525731112119 0.0 -0.850650808352
0.925325404176 0.26286555606 0.0
0.829833901363 0.417374053247 -0.25
0.850650808352 0.525731112119 0.0
0.675325404176 0.667374053247 -0.154508497188
0.654508497187 0.559016994375 -0.404508497188
0.5 0.809016994375 -0.309016994375
0.559016994375 0.404508497188 -0.654508497187
0.404508497188 0.654508497187 -0.559016994375
0.309016994375 0.5 -0.809016994375
0.417374053247 0.25 -0.829833901363
0.25 0.829833901363 -0.417374053247
0.154508497188 0.675325404176 -0.667374053247
0.0 0.850650808352 -0.525731112119
0.675325404176 0.667374053247 0.154508497188
0.5 0.809016994375 0.0
0.5 0.809016994375 0.309016994375
0.25 0.904508497187 -0.154508497188
0.25 0.904508497187 0.154508497188
0.0 1.0 0.0
0.0 0.925325404176 -0.26286555606
0.25 0.829833901363 0.417374053247
0.0 0.925325404176 0.26286555606
0.0 0.850650808352 0.525731112119
-0.25 0.829833901363 0.417374053247
-0.25 0.904508497187 0.154508497188
-0.5 0.809016994375 0.309016994375
-0.25 0.904508497187 -0.154508497188
-0.5 0.809016994375 0.0
-0.5 0.809016994375 -0.309016994375
-0.25 0.829833901363 -0.417374053247
-0.675325404176 0.667374053247 0.154508497188
-0.675325404176 0.667374053247 -0.154508497188
-0.850650808352 0.525731112119 0.0
-0.154508497188 0.675325404176 0.667374053247
-0.404508497188 0.654508497187 0.559016994375
-0.309016994375 0.5 0.809016994375
-0.654508497187 0.559016994375 0.404508497188
-0.559016994375 0.404508497188 0.654508497187
-0.809016994375 0.309016994375 0.5
-0.829833901363 0.417374053247 0.25
-0.417374053247 0.25 0.829833901363
-0.667374053247 0.154508497188 0.675325404176
-0.525731112119 0.0 0.850650808352
0.154508497188 0.675325404176 0.667374053247
0.0 0.5 0.809016994375
0.309016994375 0.5 0.809016994375
-0.154508497188 0.25 0.904508497187
0.154508497188 0.25 0.904508497187
0.0 0.0 1.0
-0.26286555606 0.0 0.925325404176
0.417374053247 0.25 0.829833901363
0.26286555606 0.0 0.925325404176
0.525731112119 0.0 0.850650808352
-0.417374053247 -0.25 0.829833901363
-0.154508497188 -0.25 0.904508497187
-0.309016994375 -0.5 0.809016994375
0.0 -0.5 0.809016994375
0.154508497188 -0.25 0.904508497187
0.309016994375 -0.5 0.809016994375
-0.154508497188 -0.675325404176 0.667374053247
0.154508497188 -0.675325404176 0.667374053247
0.0 -0.850650808352 0.525731112119
0.417374053247 -0.25 0.829833901363
0.667374053247 -0.154508497188 0.675325404176
0.559016994375 -0.404508497188 0.654508497187
0.809016994375 -0.309016994375 0.5
0.404508497188 -0.654508497187 0.559016994375
0.654508497187 -0.559016994375 0.404508497188
0.5 -0.809016994375 0.309016994375
0.25 -0.829833901363 0.417374053247
0.829833901363 -0.417374053247 0.25
0.675325404176 -0.667374053247 0.154508497188
0.417374053247 -0.25 -0.829833901363
0.26286555606 0.0 -0.925325404176
0.154508497188 -0.25 -0.904508497187
0.309016994375 -0.5 -0.809016994375
0.0 0.0 -1.0
0.0 -0.5 -0.809016994375
-0.154508497188 -0.25 -0.904508497187
-0.309016994375 -0.5 -0.809016994375
0.154508497188 -0.675325404176 -0.667374053247
-0.154508497188 -0.675325404176 -0.667374053247
0.0 -0.850650808352 -0.525731112119
-0.26286555606 0.0 -0.925325404176
-0.417374053247 -0.25 -0.829833901363
-0.525731112119 0.0 -0.850650808352
0.904508497187 -0.154508497188 0.25
0.904508497187 0.154508497188 0.25
0.809016994375 0.0 0.5
0.809016994375 0.309016994375 0.5
0.829833901363 0.417374053247 0.25
0.667374053247 0.154508497188 0.675325404176
0.654508497187 0.559016994375 0.404508497188
0.404508497188 0.654508497187 0.559016994375
0.559016994375 0.404508497188 0.654508497187
-0.667374053247 -0.154508497188 -0.675325404176
-0.667374053247 0.154508497188 -0.675325404176
-0.809016994375 0.0 -0.5
-0.809016994375 -0.309016994375 -0.5
-0.809016994375 0.309016994375 -0.5
-0.904508497187 -0.154508497188 -0.25
-0.904508497187 0.154508497188 -0.25
-1.0 0.0 0.0
-0.829833901363 -0.417374053247 -0.25
-0.925325404176 -0.26286555606 0.0
-0.850650808352 -0.525731112119 0.0
-0.829833901363 0.417374053247 -0.25
-0.925325404176 0.26286555606 0.0
-0.154508497188 0.675325404176 -0.667374053247
-0.404508497188 0.654508497187 -0.559016994375
-0.309016994375 0.5 -0.809016994375
-0.559016994375 0.404508497188 -0.654508497187
-0.654508497187 0.559016994375 -0.404508497188
-0.417374053247 0.25 -0.829833901363
-0.675325404176 -0.667374053247 -0.154508497188
-0.675325404176 -0.667374053247 0.154508497188
-0.5 -0.809016994375 0.0
-0.5 -0.809016994375 -0.309016994375
-0.5 -0.809016994375 0.309016994375
-0.25 -0.904508497187 -0.154508497188
-0.25 -0.904508497187 0.154508497188
0.0 -1.0 0.0
-0.25 -0.829833901363 -0.417374053247
0.0 -0.925325404176 -0.26286555606
-0.25 -0.829833901363 0.417374053247
0.0 -0.925325404176 0.26286555606
-0.829833901363 -0.417374053247 0.25
-0.654508497187 -0.559016994375 0.404508497188
-0.809016994375 -0.309016994375 0.5
-0.404508497188 -0.654508497187 0.559016994375
-0.559016994375 -0.404508497188 0.654508497187
-0.667374053247 -0.154508497188 0.675325404176
-0.809016994375 0.0 0.5
-0.904508497187 0.154508497188 0.25
-0.904508497187 -0.154508497188 0.25
-0.559016994375 -0.404508497188 -0.654508497187
-0.404508497188 -0.654508497187 -0.559016994375
-0.654508497187 -0.559016994375 -0.404508497188
0.25 -0.829833901363 -0.417374053247
0.25 -0.904508497187 -0.154508497188
0.5 -0.809016994375 -0.309016994375
0.5 -0.809016994375 0.0
0.25 -0.904508497187 0.154508497188
0.675325404176 -0.667374053247 -0.154508497188
0.559016994375 -0.404508497188 -0.654508497187
0.654508497187 -0.559016994375 -0.404508497188
0.404508497188 -0.654508497187 -0.559016994375
0.154508497188 0.25 -0.904508497187
-0.154508497188 0.25 -0.904508497187
0.0 0.5 -0.809016994375

CELLS 320 1280
3 0 1 2
3 1 3 2
3 1 4 3
3 2 3 5
3 4 6 3
3 6 7 3
3 6 8 7
3 3 7 5
3 4 9 6
3 9 10 6
3 9 11 10
3 6 10 8
3 5 7 12
3 7 13 12
3 7 8 13
3 12 13 14
3 14 13 15
3 13 16 15
3 13 8 16
3 15 16 17
3 8 18 16
3 18 19 16
3 18 20 19
3 16 19 17
3 8 10 18
3 10 21 18
3 10 11 21
3 18 21 20
3 17 19 22
3 19 23 22
3 19 20 23
3 22 23 24
3 14 15 25
3 15 26 25
3 15 17 26
3 25 26 27
3 17 28 26
3 28 29 26
3 28 30 29
3 26 29 27
3 17 22 28
3 22 31 28
3 22 24 31
3 28 31 30
3 27 29 32
3 29 33 32
3 29 30 33
3 32 33 34
3 34 33 35
3 33 36 35
3 33 30 36
3 35 36 37
3 30 38 36
3 38 39 36
3 38 40 39
3 36 39 37
3 30 31 38
3 31 41 38
3 31 24 41
3 38 41 40
3 37 39 42
3 39 43 42
3 39 40 43
3 42 43 44
3 34 35 45
3 35 46 45
3 35 37 46
3 45 46 47
3 37 48 46
3 48 49 46
3 48 50 49
3 46 49 47
3 37 42 48
3 42 51 48
3 42 44 51
3 48 51 50
3 47 49 52
3 49 53 52
3 49 50 53
3 52 53 54
3 34 45 55
3 45 56 55
3 45 47 56
3 55 56 57
3 47 58 56
3 58 59 56
3 58 60 59
3 56 59 57
3 47 52 58
3 52 61 58
3 52 54 61
3 58 61 60
3 57 59 62
3 59 63 62
3 59 60 63
3 62 63 64
3 54 65 61
3 65 66 61
3 65 67 66
3 61 66 60
3 67 68 66
3 68 69 66
3 68 70 69
3 66 69 60
3 67 71 68
3 71 72 68
3 71 73 72
3 68 72 70
3 60 69 63
3 69 74 63
3 69 70 74
3 63 74 64
3 64 74 75
3 74 76 75
3 74 70 76
3 75 76 77
3 70 78 76
3 78 79 76
3 78 80 79
3 76 79 77
3 70 72 78
3 72 81 78
3 72 73 81
3 78 81 80
3 77 79 82
3 79 83 82
3 79 80 83
3 82 83 0
3 11 84 85
3 84 86 85
3 84 87 86
3 85 86 88
3 87 89 86
3 89 90 86
3 89 91 90
3 86 90 88
3 87 92 89
3 92 93 89
3 92 94 93
3 89 93 91
3 88 90 95
3 90 96 95
3 90 91 96
3 95 96 97
3 0 2 82
3 2 98 82
3 2 5 98
3 82 98 77
3 5 99 98
3 99 100 98
3 99 101 100
3 98 100 77
3 5 12 99
3 12 102 99
3 12 14 102
3 99 102 101
3 77 100 75
3 100 103 75
3 100 101 103
3 75 103 64
3 14 25 102
3 25 104 102
3 25 27 104
3 102 104 101
3 27 105 104
3 105 106 104
3 105 57 106
3 104 106 101
3 27 32 105
3 32 55 105
3 32 34 55
3 105 55 57
3 101 106 103
3 106 62 103
3 106 57 62
3 103 62 64
3 97 107 108
3 107 109 108
3 107 110 109
3 108 109 111
3 110 112 109
3 112 113 109
3 112 114 113
3 109 113 111
3 110 115 112
3 115 116 112
3 115 117 116
3 112 116 114
3 111 113 118
3 113 119 118
3 113 114 119
3 118 119 44
3 24 120 41
3 120 121 41
3 120 122 121
3 41 121 40
3 122 123 121
3 123 124 121
3 123 111 124
3 121 124 40
3 122 125 123
3 125 108 123
3 125 97 108
3 123 108 111
3 40 124 43
3 124 118 43
3 124 111 118
3 43 118 44
3 117 126 127
3 126 128 127
3 126 129 128
3 127 128 130
3 129 131 128
3 131 132 128
3 131 133 132
3 128 132 130
3 129 134 131
3 134 135 131
3 134 94 135
3 131 135 133
3 130 132 136
3 132 137 136
3 132 133 137
3 136 137 73
3 117 127 138
3 127 139 138
3 127 130 139
3 138 139 140
3 130 141 139
3 141 142 139
3 141 67 142
3 139 142 140
3 130 136 141
3 136 71 141
3 136 73 71
3 141 71 67
3 140 142 143
3 142 65 143
3 142 67 65
3 143 65 54
3 54 53 143
3 53 144 143
3 53 50 144
3 143 144 140
3 50 145 144
3 145 146 144
3 145 114 146
3 144 146 140
3 50 51 145
3 51 119 145
3 51 44 119
3 145 119 114
3 140 146 138
3 146 116 138
3 146 114 116
3 138 116 117
3 97 96 107
3 96 147 107
3 96 91 147
3 107 147 110
3 91 148 147
3 148 149 147
3 148 129 149
3 147 149 110
3 91 93 148
3 93 134 148
3 93 94 134
3 148 134 129
3 110 149 115
3 149 126 115
3 149 129 126
3 115 126 117
3 94 150 135
3 150 151 135
3 150 152 151
3 135 151 133
3 152 153 151
3 153 154 151
3 153 80 154
3 151 154 133
3 152 155 153
3 155 83 153
3 155 0 83
3 153 83 80
3 133 154 137
3 154 81 137
3 154 80 81
3 137 81 73
3 11 9 84
3 9 156 84
3 9 4 156
3 84 156 87
3 4 157 156
3 157 158 156
3 157 152 158
3 156 158 87
3 4 1 157
3 1 155 157
3 1 0 155
3 157 155 152
3 87 158 92
3 158 150 92
3 158 152 150
3 92 150 94
3 11 85 21
3 85 159 21
3 85 88 159
3 21 159 20
3 88 160 159
3 160 161 159
3 160 122 161
3 159 161 20
3 88 95 160
3 95 125 160
3 95 97 125
3 160 125 122
3 20 161 23
3 161 120 23
3 161 122 120
3 23 120 24

CELL_TYPES 320
5
5
5
5
5
5
5
5
5
5
5
5
5
5
5
5
5
5
5
5
5
5
5
5
5
5
5
5
5
5
5
5
5
5
5
5
5
5
5
5
5
5
5
5
5
5
5
5
5
5
5
5
5
5
5
5
5
5
5
5
5
5
5
5
5
5
5
5
5
5
5
5
5
5
5
5
5
5
5
5
5
5
5
5
5
5
5
5
5
5
5
5
5
5
5
5
5
5
5
5
5
5
5
5
5
5
5
5
5
5
5
5
5
5
5
5
5
5
5
5
5
5
5
5
5
5
5
5
5
5
5
5
5
5
5
5
5
5
5
5
5
5
5
5
5
5
5
5
5
5
5
5
5
5
5
5
5
5
5
5
5
5
5
5
5
5
5
5
5
5
5
5
5
5
5
5
5
5
5
5
5
5
5
5
5
5
5
5
5
5
5
5
5
5
5
5
5
5
5
5
5
5
5
5
5
5
5
5
5
5
5
5
5
5
5
5
5
5
5
5
5
5
5
5
5
5
5
5
5
5
5
5
5
5
5
5
5
5
5
5
5
5
5
5
5
5
5
5
5
5
5
5
5
5
5
5
5
5
5
5
5
5
5
5
5
5
5
5
5
5
5
5
5
5
5
5
5
5
5
5
5
5
5
5
5
5
5
5
5
5
5
5
5
5
5
5
5
5
5
5
5
5
5
5
5
5
5
5
5
5
5
5
5
5
5
5
5
5
5
5

CELL_DATA 320
SCALARS cell_data_0 double
LOOKUP_TABLE default
3.0447388251e-07
1.18818695847e-06
3.53183714244e-06
4.04510598442e-07
2.04816327749e-05
3.60301367988e-05
3.9028590321e-05
1.05169017541e-05
4.0133649317e-05
5.08192548114e-05
2.62223980671e-05
2.70296608146e-05
2.79428669771e-05
3.66320366603e-05
1.57574714477e-05
1.5715457058e-05
3.96853546789e-06
4.63929246404e-05
4.21580411548e-05
4.05064635237e-05
8.00988410227e-05
0.000129401727024
5.46883733497e-05
8.1628832695e-05
2.88895819627e-05
5.83430057113e-05
3.04407103971e-05
4.46516632306e-05
7.13251591929e-05
0.000105514935497
4.07694028395e-05
6.8524133243e-05
7.16413055254e-05
0.000212864361706
8.40964187125e-05
0.000179156892536
0.000226232101732
0.000420718274732
0.000196195535638
0.000204319545937
0.000133301859906
0.000219636702664
9.8578779931e-05
0.000117518326744
0.000151359903859
0.000215537559897
8.86593214401e-05
7.16973412524e-05
3.34001798907e-05
0.000157999382206
9.33474572587e-05
0.000103283432299
0.000111645509453
0.000210331648931
5.80167762619e-05
0.000139917653347
4.99192236562e-05
0.000195425579041
0.000161102898238
0.000105351711923
4.12575918789e-05
8.02160519727e-05
5.15639420232e-05
2.38397237154e-05
1.56821299318e-05
1.91231216699e-05
1.22506360595e-05
1.40866099291e-05
1.38806636111e-05
2.21103833901e-05
1.75005414031e-05
1.78845555744e-05
3.26069093553e-05
6.40651162532e-05
2.14036997694e-05
2.92257350724e-05
2.22785495185e-05
1.9602572536e-05
8.75904376823e-06
2.13640375573e-05
1.0675845769e-05
2.08818613192e-05
2.21330308146e-05
1.90647225382e-05
3.18775831075e-05
5.15990512383e-05
5.31869733905e-05
3.04738703158e-05
2.71929002379e-05
4.2238634861e-05
2.45531725433e-05
4.11200020898e-05
2.47574125144e-05
3.14881271491e-05
3.0945282653e-05
1.4795226986e-05
2.28615699439e-05
2.68992207331e-05
2.05384349862e-05
2.56042029393e-05
2.18326902602e-05
1.90697573511e-05
2.43123541305e-05
2.12610462438e-05
1.54713917142e-05
9.31149793273e-06
7.79613774059e-06
1.30676603186e-05
1.99864059625e-05
2.2236228082e-05
2.28775201059e-05
1.53939116413e-05
1.23841899318e-05
1.25587538914e-05
1.56785380538e-05
8.63181293949e-06
1.48226346547e-05
9.7439390257e-06
9.175958869e-06
8.24422390599e-06
1.1853049031e-05
6.42590915092e-06
5.13902583345e-06
6.69401462022e-06
4.98886321179e-06
4.24723311445e-06
4.84451946256e-06
5.57641654338e-07
1.86223131369e-05
2.38210234122e-05
2.33602586601e-05
1.07612249991e-05
3.92666409353e-05
4.59950785123e-05
3.75234600589e-05
1.7256246703e-05
4.66966904616e-05
7.33873438206e-05
4.00048941624e-05
4.84711587478e-05
8.35161266534e-06
6.61301363543e-06
8.1383131434e-06
1.05742539732e-06
1.54743786904e-06
3.19259585821e-06
2.93504747787e-06
3.57334435032e-06
4.62811169422e-06
6.08010774148e-06
6.84340135118e-06
6.38901638929e-06
6.82439393844e-06
3.89957877194e-06
7.11842333227e-06
4.13949896629e-06
7.38026549866e-06
1.12408937843e-05
1.03845638413e-05
1.25387580752e-05
5.54257337185e-05
4.85522937374e-05
4.76660975289e-05
4.50352231888e-06
7.00189446564e-06
1.27309611511e-05
1.68715285029e-05
1.02324125802e-05
3.13885363307e-05
2.62566697492e-05
3.35966709932e-05
1.59513708531e-05
1.34998881911e-05
1.80389499829e-05
1.59411822486e-05
1.41894281862e-05
2.28357213497e-06
3.02323028117e-06
6.52372291093e-06
6.87839569204e-06
4.72003824101e-06
3.81460001007e-07
2.04769776185e-06
5.67712586669e-06
1.08467880717e-06
2.11844790768e-06
2.12942951115e-06
8.2918223321e-07
2.87289071546e-06
2.17239357839e-06
7.52654698493e-07
2.29399379923e-06
9.15519260812e-05
9.4351035247e-05
8.3518119839e-06
8.35521934418e-05
1.15118077068e-05
4.7981878105e-06
6.83384217418e-06
1.39031046292e-06
9.36577799771e-06
5.50644992512e-06
3.84805813603e-06
7.78180745327e-06
1.01954608742e-05
1.12246551392e-05
3.16829985135e-06
9.51406162691e-06
8.32017702015e-07
2.64181481661e-07
1.23025488131e-06
1.40372939133e-06
4.75479288174e-07
2.70936313036e-06
2.02483349228e-06
3.24819382334e-06
6.12255367443e-06
7.39683604903e-06
1.04024453261e-05
2.58020834169e-06
4.3083854592e-06
2.19455850673e-06
4.72613682509e-07
3.01918475467e-06
2.28146318882e-07
5.44726299558e-06
1.97417279069e-06
3.16824703965e-07
7.43636923907e-06
1.1587497637e-05
1.2284182257e-05
1.82570214332e-06
4.34871823882e-08
1.1369612516e-05
9.18791108718e-06
1.79835968705e-05
8.99793634691e-06
2.62996164083e-05
2.59039811536e-05
2.21451643329e-05
1.94320061867e-05
1.26541509036e-05
1.02063624384e-05
9.85216463864e-06
8.00266468837e-06
7.43975298564e-06
6.95780630826e-08
8.31582197405e-06
4.08233944583e-06
6.94073860821e-06
4.84963168648e-06
1.69822465719e-06
3.51031138034e-06
3.02118898489e-06
1.35267176524e-06
1.49729154975e-06
1.5597729791e-06
1.05208496611e-06
1.3986282491e-06
4.84995547191e-06
1.81148489188e-06
3.28804318379e-07
2.20613525152e-06
4.20884958928e-06
2.00639052324e-05
2.71604269053e-05
2.90287074103e-05
7.6612689466e-06
1.91115691862e-06
8.56379384805e-07
1.81495245988e-06
1.39748823022e-06
4.89432220889e-06
2.44367636066e-06
9.10155686827e-08
2.49224018185e-06
6.3090796539e-07
8.2021022095e-07
1.84206596122e-06
5.17073621462e-10
1.1972056312e-07
9.31397030824e-07
4.81618987191e-07
5.57024384059e-07
2.86084458906e-06
3.56695200785e-06
4.80950662695e-06
4.63499218602e-06
3.17079906279e-05
2.75820146299e-05
1.53175962635e-05
1.48880777225e-05
1.78029224507e-06
4.71740416048e-08
5.09600669814e-08
3.83564450823e-06
3.54416801282e-06
1.56351154598e-06
1.59954398208e-07
7.99422211672e-08
1.75664438014e-05
1.24745756776e-05
7.83106033703e-07
1.45403555017e-05
2.68481352874e-05
2.28956196946e-05
4.83508113617e-06
1.70207695797e-05
1.26724605446e-06
4.18294637718e-08
3.77232224744e-06
8.84371341313e-07
1.36620950146e-06
2.19913438841e-06
3.08370796087e-06
6.10774732318e-06
1.38903777439e-05
1.41943771888e-05
4.72155925377e-06
1.78194934347e-05

