# vtk DataFile Version 3.0
File Name: Molecule/sphere_dip/sphere_dip_0-s3.vtk
ASCII
DATASET UNSTRUCTURED_GRID
FIELD FieldData 1
TIME 1 1 double
0.0
POINTS 114 double
0.5 0.809016994375 0.309016994375
0.309016994375 0.5 0.809016994375
0.809016994375 0.309016994375 0.5
0.0 0.850650808352 0.525731112119
-0.525731112119 0.0 -0.850650808352
-0.809016994375 -0.309016994375 -0.5
-0.809016994375 0.309016994375 -0.5
-1.0 0.0 0.0
-0.850650808352 -0.525731112119 0.0
-0.850650808352 0.525731112119 0.0
0.0 0.850650808352 -0.525731112119
-0.309016994375 0.5 -0.809016994375
-0.5 0.809016994375 -0.309016994375
-0.5 -0.809016994375 -0.309016994375
-0.5 -0.809016994375 0.309016994375
0.0 -1.0 0.0
0.0 -0.850650808352 -0.525731112119
0.0 -0.850650808352 0.525731112119
-0.809016994375 -0.309016994375 0.5
-0.309016994375 -0.5 0.809016994375
-0.525731112119 0.0 0.850650808352
-0.809016994375 0.309016994375 0.5
-0.309016994375 -0.5 -0.809016994375
0.5 -0.809016994375 -0.309016994375
0.5 -0.809016994375 0.309016994375
0.0 0.961938357784 0.273266528913
-0.259891913008 0.862668480416 0.433888564553
-0.26286555606 0.951056516295 0.162459848116
0.0 1.0 0.0
-0.5 0.809016994375 0.309016994375
-0.26286555606 0.951056516295 -0.162459848116
-0.525731112119 0.850650808352 0.0
-0.702046444776 0.69378047756 0.16062203564
-0.702046444776 0.69378047756 -0.16062203564
-0.16062203564 0.702046444776 0.69378047756
-0.425325404176 0.688190960236 0.587785252292
-0.309016994375 0.5 0.809016994375
-0.688190960236 0.587785252292 0.425325404176
-0.587785252292 0.425325404176 0.688190960236
-0.862668480416 0.433888564553 0.259891913008
0.525731112119 0.0 0.850650808352
0.433888564553 -0.259891913008 0.862668480416
0.69378047756 -0.16062203564 0.702046444776
0.587785252292 -0.425325404176 0.688190960236
0.309016994375 -0.5 0.809016994375
0.809016994375 -0.309016994375 0.5
0.425325404176 -0.688190960236 0.587785252292
0.688190960236 -0.587785252292 0.425325404176
0.862668480416 -0.433888564553 0.259891913008
0.702046444776 -0.69378047756 0.16062203564
0.961938357784 -0.273266528913 0.0
0.951056516295 -0.162459848116 0.26286555606
1.0 0.0 0.0
0.951056516295 0.162459848116 0.26286555606
0.850650808352 0.0 0.525731112119
0.850650808352 0.525731112119 0.0
0.69378047756 0.16062203564 0.702046444776
0.809016994375 -0.309016994375 -0.5
0.850650808352 0.0 -0.525731112119
0.951056516295 -0.162459848116 -0.26286555606
0.951056516295 0.162459848116 -0.26286555606
0.809016994375 0.309016994375 -0.5
0.69378047756 -0.16062203564 -0.702046444776
0.69378047756 0.16062203564 -0.702046444776
0.525731112119 0.0 -0.850650808352
0.961938357784 0.273266528913 0.0
0.862668480416 0.433888564553 -0.259891913008
0.702046444776 0.69378047756 -0.16062203564
0.688190960236 0.587785252292 -0.425325404176
0.5 0.809016994375 -0.309016994375
0.587785252292 0.425325404176 -0.688190960236
0.425325404176 0.688190960236 -0.587785252292
0.309016994375 0.5 -0.809016994375
0.433888564553 0.259891913008 -0.862668480416
0.702046444776 0.69378047756 0.16062203564
0.525731112119 0.850650808352 0.0
0.26286555606 0.951056516295 -0.162459848116
0.26286555606 0.951056516295 0.162459848116
-0.162459848116 0.26286555606 0.951056516295
0.0 0.525731112119 0.850650808352
0.162459848116 0.26286555606 0.951056516295
0.0 0.0 1.0
-0.433888564553 0.259891913008 0.862668480416
-0.273266528913 0.0 0.961938357784
0.433888564553 0.259891913008 0.862668480416
0.273266528913 0.0 0.961938357784
-0.433888564553 -0.259891913008 0.862668480416
-0.162459848116 -0.26286555606 0.951056516295
0.0 -0.525731112119 0.850650808352
0.162459848116 -0.26286555606 0.951056516295
0.433888564553 -0.259891913008 -0.862668480416
0.273266528913 0.0 -0.961938357784
0.162459848116 -0.26286555606 -0.951056516295
0.309016994375 -0.5 -0.809016994375
0.0 0.0 -1.0
0.0 -0.525731112119 -0.850650808352
-0.162459848116 -0.26286555606 -0.951056516295
-0.273266528913 0.0 -0.961938357784
-0.433888564553 -0.259891913008 -0.862668480416
-0.433888564553 0.259891913008 -0.862668480416
0.587785252292 -0.425325404176 -0.688190960236
0.688190960236 -0.587785252292 -0.425325404176
0.425325404176 -0.688190960236 -0.587785252292
0.862668480416 -0.433888564553 -0.259891913008
0.702046444776 -0.69378047756 -0.16062203564
0.850650808352 -0.525731112119 0.0
0.162459848116 0.26286555606 -0.951056516295
-0.162459848116 0.26286555606 -0.951056516295
0.0 0.525731112119 -0.850650808352
0.990438881957 -0.137952242128 0.0
0.917539630891 -0.301683612961 -0.259052163504
0.915043421233 -0.403355348617 0.0
0.78384304242 -0.615642020874 0.0810862934433
0.622785464303 -0.778605872826 -0.0768840702267

CELLS 224 896
3 0 1 2
3 0 3 1
3 4 5 6
3 5 7 6
3 5 8 7
3 6 7 9
3 10 11 12
3 11 6 12
3 8 13 14
3 13 15 14
3 13 16 15
3 14 15 17
3 8 14 18
3 14 19 18
3 14 17 19
3 20 21 18
3 21 7 18
3 18 7 8
3 22 13 5
3 22 16 13
3 5 13 8
3 16 23 15
3 23 24 15
3 15 24 17
3 0 25 3
3 3 25 26
3 25 27 26
3 25 28 27
3 26 27 29
3 28 30 27
3 30 31 27
3 30 12 31
3 27 31 29
3 12 30 10
3 10 30 28
3 29 31 32
3 31 33 32
3 31 12 33
3 32 33 9
3 3 26 34
3 26 35 34
3 26 29 35
3 34 35 36
3 29 37 35
3 37 38 35
3 37 21 38
3 35 38 36
3 29 32 37
3 32 39 37
3 32 9 39
3 37 39 21
3 38 21 20
3 3 34 1
3 40 41 42
3 41 43 42
3 41 44 43
3 42 43 45
3 44 46 43
3 46 47 43
3 46 24 47
3 43 47 45
3 24 46 17
3 17 46 44
3 45 47 48
3 47 49 48
3 47 24 49
3 50 51 48
3 48 51 45
3 52 53 51
3 53 54 51
3 53 2 54
3 51 54 45
3 2 53 55
3 45 54 42
3 54 56 42
3 54 2 56
3 42 56 40
3 1 56 2
3 9 33 6
3 6 33 12
3 21 39 7
3 39 9 7
3 57 58 59
3 58 60 59
3 58 61 60
3 59 60 52
3 57 62 58
3 62 63 58
3 62 64 63
3 58 63 61
3 52 60 65
3 60 66 65
3 60 61 66
3 65 66 55
3 55 66 67
3 66 68 67
3 66 61 68
3 67 68 69
3 61 70 68
3 70 71 68
3 70 72 71
3 68 71 69
3 61 63 70
3 63 73 70
3 63 64 73
3 70 73 72
3 69 71 10
3 71 72 10
3 55 67 74
3 67 75 74
3 67 69 75
3 74 75 0
3 69 76 75
3 76 77 75
3 76 28 77
3 75 77 0
3 28 76 10
3 10 76 69
3 36 78 79
3 78 80 79
3 78 81 80
3 79 80 1
3 36 82 78
3 82 83 78
3 82 20 83
3 78 83 81
3 1 80 84
3 80 85 84
3 80 81 85
3 84 85 40
3 20 86 83
3 86 87 83
3 86 19 87
3 83 87 81
3 19 88 87
3 88 89 87
3 88 44 89
3 87 89 81
3 44 88 17
3 17 88 19
3 64 90 91
3 90 92 91
3 90 93 92
3 91 92 94
3 93 95 92
3 95 96 92
3 95 22 96
3 92 96 94
3 22 95 16
3 16 95 93
3 94 96 97
3 96 98 97
3 96 22 98
3 97 98 4
3 55 74 2
3 74 0 2
3 11 99 6
3 99 4 6
3 19 86 18
3 18 86 20
3 4 98 5
3 98 22 5
3 64 62 90
3 62 100 90
3 62 57 100
3 90 100 93
3 57 101 100
3 101 102 100
3 101 23 102
3 100 102 93
3 57 103 101
3 103 104 101
3 103 105 104
3 101 104 23
3 93 102 16
3 102 23 16
3 64 91 73
3 91 106 73
3 91 94 106
3 73 106 72
3 94 107 106
3 107 108 106
3 107 11 108
3 106 108 72
3 94 97 107
3 97 99 107
3 97 4 99
3 107 99 11
3 72 108 10
3 108 11 10
3 52 109 59
3 109 110 59
3 109 50 110
3 59 110 57
3 57 110 103
3 110 111 103
3 110 50 111
3 103 111 105
3 0 77 25
3 25 77 28
3 20 82 38
3 38 82 36
3 36 79 34
3 34 79 1
3 81 89 41
3 41 89 44
3 40 85 41
3 41 85 81
3 49 112 48
3 48 112 105
3 105 111 48
3 111 50 48
3 50 109 51
3 109 52 51
3 52 65 53
3 53 65 55
3 1 84 56
3 56 84 40
3 105 112 104
3 112 113 104
3 112 49 113
3 104 113 23
3 23 113 24
3 113 49 24

CELL_TYPES 224
5
5
5
5
5
5
5
5
5
5
5
5
5
5
5
5
5
5
5
5
5
5
5
5
5
5
5
5
5
5
5
5
5
5
5
5
5
5
5
5
5
5
5
5
5
5
5
5
5
5
5
5
5
5
5
5
5
5
5
5
5
5
5
5
5
5
5
5
5
5
5
5
5
5
5
5
5
5
5
5
5
5
5
5
5
5
5
5
5
5
5
5
5
5
5
5
5
5
5
5
5
5
5
5
5
5
5
5
5
5
5
5
5
5
5
5
5
5
5
5
5
5
5
5
5
5
5
5
5
5
5
5
5
5
5
5
5
5
5
5
5
5
5
5
5
5
5
5
5
5
5
5
5
5
5
5
5
5
5
5
5
5
5
5
5
5
5
5
5
5
5
5
5
5
5
5
5
5
5
5
5
5
5
5
5
5
5
5
5
5
5
5
5
5
5
5
5
5
5
5
5
5
5
5
5
5
5
5
5
5
5
5
5
5
5
5
5
5
5
5
5
5
5
5

CELL_DATA 224
SCALARS cell_data_0 double
LOOKUP_TABLE default
6.28937484423e-05
9.64643598523e-06
4.90452239758e-05
1.41133156074e-05
1.80858373235e-05
3.34234827118e-05
8.20211705487e-05
0.000116336549612
4.37843842467e-05
2.29899773081e-05
2.7487835634e-07
1.32026221031e-05
0.000112996421075
1.2902342036e-05
3.59064744139e-05
4.85580637264e-05
0.000178964779778
0.000106077479548
6.92107876766e-05
4.75508101799e-05
1.37823209689e-07
7.83530317014e-05
7.54550137061e-05
1.53092389017e-05
5.74715879919e-05
4.96602118627e-05
3.05111369109e-05
1.72493535059e-05
4.50966264707e-05
1.74102486493e-05
1.32826297814e-05
4.08222712816e-05
3.07681106672e-05
6.06771920067e-05
2.19964769557e-05
2.18857750655e-05
2.18940910757e-06
2.59419645668e-05
9.31780716729e-07
2.47713155618e-05
3.78704397804e-07
3.24712089831e-05
1.6589768111e-05
1.17590513062e-05
1.33128687023e-05
6.08951478274e-06
1.96999752005e-05
1.57813300876e-05
8.51432863125e-07
3.38768903272e-06
1.65045561655e-05
1.71846801541e-05
2.35705980326e-05
1.70704878932e-05
1.98323323228e-05
2.52165828281e-05
6.42968622239e-06
1.76559268055e-05
8.25559458334e-06
3.39958914494e-06
8.94422812486e-06
9.85393840525e-06
2.84131396006e-05
3.47963385684e-06
1.66093474986e-06
8.37549076029e-07
1.98911442546e-05
5.20414924658e-06
2.4973400038e-05
5.2617813781e-05
2.80029773925e-05
2.75924928477e-05
7.85672476956e-06
1.369951115e-05
6.21599492001e-06
3.81996123644e-06
6.74489634389e-06
4.1338836818e-05
8.44539268125e-06
5.34286073335e-05
4.89135668818e-05
1.27433544158e-05
5.07147225548e-06
2.47876666056e-06
3.06743989762e-06
2.79866896591e-06
8.84662324056e-06
1.02704365874e-05
1.94643826201e-05
4.1166921895e-06
9.21992060128e-06
2.77867708139e-05
1.71788292631e-05
2.46287616226e-05
4.58713548013e-05
4.39512889663e-05
1.23878559029e-05
1.85245204033e-05
1.02685942403e-05
1.36091629144e-05
1.95323528091e-05
5.93878603373e-06
8.4933799601e-06
2.15788509241e-05
2.62222460142e-05
2.44009044715e-05
1.00777917587e-05
2.63567829184e-05
8.39222151172e-05
0.000135585356927
5.16069312241e-05
9.29477888765e-05
9.21735756226e-05
0.00026832667414
0.000205447011131
0.000157302283484
0.000103822814312
8.03360397508e-05
1.23097237804e-05
2.1870035116e-05
8.33230683204e-05
1.62312438821e-05
8.09651546174e-06
1.80542170667e-05
1.47909845111e-05
6.85898299318e-05
1.4636303602e-05
2.24067041676e-05
6.82198418056e-05
1.13231060049e-06
1.69624380819e-05
2.0644880278e-05
1.47708528779e-05
6.93129545391e-05
1.66564307646e-05
3.38105357747e-06
5.45258562956e-06
7.95524967946e-05
6.07293916539e-07
2.58835417093e-06
1.30861750446e-05
8.82060816163e-06
3.05687849219e-05
6.02987415953e-05
2.00355618245e-05
2.96716458467e-07
9.94403526183e-07
7.98332900237e-05
4.8187864645e-06
2.07719166643e-06
6.51821176035e-05
1.88785203779e-05
1.49647053307e-05
2.88764714926e-05
7.46069641067e-05
8.45610289543e-05
1.77291703934e-05
3.40034764369e-05
2.6670319305e-05
3.71944010502e-05
3.11153065792e-05
3.70705760399e-05
2.3970443112e-05
1.60443077898e-05
1.11206920135e-05
2.04315202452e-05
4.34904433173e-06
7.97147222828e-06
2.58163655004e-05
2.06323215384e-05
9.1694120279e-07
1.73536758409e-06
1.75489699153e-05
2.64816091456e-05
3.05948968388e-05
3.05089135357e-05
2.90010971333e-05
1.46898090919e-05
4.98726446313e-05
2.83164421644e-05
7.32541752309e-05
2.21460637739e-06
1.11988340415e-06
1.30308301072e-05
6.59046394644e-05
3.36594453038e-05
3.58201172175e-05
1.11176918928e-05
2.10386057184e-05
1.60901876354e-06
7.62362493297e-07
2.90163835874e-07
4.05186270535e-06
6.26135512918e-07
5.86845041405e-07
2.96326677488e-07
4.19502939175e-06
9.37655318031e-06
0.000103638423158
0.000107221947005
7.35107791402e-06
1.13140605539e-06
3.22119229965e-06
1.17838952115e-05
7.06259375062e-05
2.97022747735e-05
3.29943432747e-05
6.92150303244e-05
1.53994425991e-06
1.01591405441e-05
9.96179280144e-06
4.40321598197e-06
9.7233886265e-06
5.29989649424e-06
1.78512553767e-05
1.47252113209e-05
1.45633217237e-05
7.09000181707e-06
9.77836122879e-06
1.98728086586e-07
1.33953307131e-06
1.13093158523e-05
1.94822782313e-05
1.71590905319e-06

