# vtk DataFile Version 3.0
File Name: Molecule/methanol/methanol_1.0-1.vtk
ASCII
DATASET UNSTRUCTURED_GRID
FIELD FieldData 1
TIME 1 1 double
0.0
POINTS 48 double
0.90986967087 -1.1061940193 -0.9180753231
1.397985816 -0.016154550016 -0.92812162638
1.0990599394 -1.2176758051 -0.27217143774
1.6121382713 0.0081755435094 -0.3211992383
0.027021799237 -1.6838239431 -0.17958061397
-0.13217391074 -1.5075496435 -0.93484199047
-1.1667314768 -1.0977222919 -0.70999538898
-1.2173631191 -1.227047205 -0.038263905793
-1.7295097113 -0.00059036875609 -0.014073516242
-1.631510973 0.0019471746637 -0.68463039398
-1.1643447876 1.0892132521 -0.72699123621
-1.2075726986 1.2294784784 -0.058084856719
-0.053200416267 1.5119613409 -0.82394689322
0.030582502484 1.6855762005 -0.16475252807
0.91650748253 1.0979002714 -0.9129357934
1.0956311226 1.2285319567 -0.2600402534
1.9053539038 0.00085806054994 0.67423844337
1.579770565 1.0594102144 0.65840351582
1.5726406574 0.5050124526 1.5987442732
1.5744359493 -0.57790333033 1.5530844927
1.5780671835 -1.0593959093 0.72700244188
0.5801756978 1.4500859976 1.718121767
0.56844556332 0.54999321699 2.3729310036
0.59249389172 -0.55411958694 2.3620619774
0.57417595387 -1.4585775137 1.7147428989
0.57168591022 -1.8035430908 0.65996313095
0.57155263424 1.8033746481 0.66031682491
-0.54295021296 1.4602048397 1.7033399343
-0.54129290581 0.56108611822 2.3627603054
-0.53591859341 -0.55715245008 2.369833231
-0.54128599167 -1.4606018066 1.7050827742
-0.54205596447 -1.802184701 0.64527648687
-0.54199397564 1.8026254177 0.64294064045
-1.5411058664 1.0562956333 0.67664188147
-1.5358612537 0.50524502993 1.5975977182
-1.5373132229 -0.57842183113 1.5512849092
-1.5405868292 -1.0542138815 0.74944537878
-1.8628200293 -0.0003222238156 0.69559568167
0.97869426012 -0.48283186555 -1.6769453287
-0.10581115633 -0.77557951212 -2.0548663139
0.98721235991 0.0037698196247 -1.78787148
0.88884055614 0.62832981348 -1.7061207294
-0.12274469435 0.31250166893 -2.2374677658
-0.12082726508 1.1452325583 -1.7555184364
-1.144587636 -0.61370563507 -1.7009688616
-1.148348093 0.61074250937 -1.6986818314
1.2684301138 0.31150481105 -1.300245285
1.2726320028 -0.30612650514 -1.2961390018

CELLS 92 368
3 0 1 2
3 3 2 1
3 2 4 0
3 0 4 5
3 5 4 6
3 7 6 4
3 7 8 6
3 6 8 9
3 9 8 10
3 11 10 8
3 10 11 12
3 13 12 11
3 12 13 14
3 15 14 13
3 1 14 3
3 15 3 14
3 16 17 18
3 16 18 19
3 16 19 20
3 18 17 21
3 18 21 22
3 18 22 23
3 19 18 23
3 19 23 24
3 20 19 24
3 20 24 25
3 17 26 21
3 21 26 27
3 21 27 28
3 22 21 28
3 22 28 29
3 23 22 29
3 24 23 29
3 24 29 30
3 24 30 25
3 31 25 30
3 26 32 27
3 27 32 33
3 27 33 34
3 28 27 34
3 28 34 29
3 35 29 34
3 30 29 35
3 30 35 36
3 31 30 36
3 34 33 37
3 35 34 37
3 36 35 37
3 36 37 8
3 36 8 7
3 36 7 31
3 31 7 4
3 31 4 25
3 25 4 2
3 25 2 20
3 20 2 3
3 20 3 16
3 16 3 17
3 17 3 15
3 17 15 26
3 26 15 13
3 26 13 32
3 32 13 11
3 32 11 33
3 33 11 8
3 33 8 37
3 38 39 40
3 41 42 43
3 42 39 44
3 42 44 45
3 43 42 45
3 43 45 10
3 43 10 12
3 43 12 14
3 43 14 41
3 38 0 39
3 39 0 5
3 39 5 44
3 44 5 6
3 44 6 9
3 44 9 45
3 45 9 10
3 41 40 42
3 42 40 39
3 1 46 14
3 14 46 41
3 41 46 40
3 46 47 40
3 46 1 47
3 40 47 38
3 38 47 0
3 47 1 0

CELL_TYPES 92
5
5
5
5
5
5
5
5
5
5
5
5
5
5
5
5
5
5
5
5
5
5
5
5
5
5
5
5
5
5
5
5
5
5
5
5
5
5
5
5
5
5
5
5
5
5
5
5
5
5
5
5
5
5
5
5
5
5
5
5
5
5
5
5
5
5
5
5
5
5
5
5
5
5
5
5
5
5
5
5
5
5
5
5
5
5
5
5
5
5
5
5

CELL_DATA 92
SCALARS cell_data_0 double
LOOKUP_TABLE default
6.38097027931e-06
9.903059942e-06
4.56247685507e-08
7.99945611185e-08
4.21956357963e-07
6.52686457069e-07
8.26022104108e-07
3.00558285877e-07
8.15967828184e-07
3.88610129892e-07
4.65569365997e-07
5.84417383908e-07
1.77388196173e-07
2.71591373841e-07
1.46897020839e-05
2.42433195341e-06
1.05667636123e-07
3.02071267419e-08
2.5417252812e-07
1.8283883094e-08
8.28258654243e-08
1.29706942659e-07
2.22131309525e-07
1.13317893636e-07
8.13461080619e-08
4.0106439187e-07
3.00512458717e-08
5.32879124692e-09
5.59210872748e-08
5.76521067546e-08
5.70338937617e-09
1.22319665009e-07
9.8024956726e-09
1.28401932392e-07
8.85472384925e-08
7.5937444048e-10
8.06195288483e-09
8.93751216208e-08
1.01191424434e-07
5.33973661453e-08
4.56874750964e-08
1.25161057785e-07
3.24859066925e-08
7.46527503316e-08
3.55393079383e-08
9.16541750404e-08
1.74241148623e-08
5.91646224168e-08
9.75632625766e-08
5.42493821808e-07
1.13462643842e-07
4.18955749887e-07
6.07074437954e-08
1.4504342263e-07
6.05978051797e-07
2.65169316945e-06
5.46688211265e-08
3.10356775403e-07
3.62037843727e-07
5.31645024548e-08
1.74872537012e-07
2.26027720845e-08
3.1899177132e-07
2.46822668646e-08
6.03705541194e-07
1.63762522616e-07
2.17615710882e-06
3.32436887772e-06
4.16615135463e-06
2.06828022673e-06
3.06086969649e-06
2.29456384429e-06
2.35476840017e-06
2.31433050045e-07
4.6657685732e-06
1.18666595094e-05
1.29194316509e-06
8.54977043714e-07
2.91707952912e-06
7.6462216157e-07
3.38507931041e-06
4.73792584521e-07
6.78320223229e-06
1.05343884886e-05
6.38911218408e-06
4.29195237121e-06
7.57078853546e-06
1.92570635821e-05
5.87795557023e-06
5.14488536168e-06
2.39116116918e-06
3.7517490463e-06

