# vtk DataFile Version 3.0
File Name: Molecule/methanol/methanol_0.5-5.vtk
ASCII
DATASET UNSTRUCTURED_GRID
FIELD FieldData 1
TIME 1 1 double
0.0
POINTS 43 double
1.4048653841 -0.0094988327473 -0.9255117178
1.6071100235 0.010665874928 -0.34998586774
1.2072479725 -0.74440735579 -0.92247343063
0.62615543604 -1.2995713949 -1.0086413622
0.81825059652 -1.421120286 -0.24969691038
-0.91750919819 -1.2789494991 -0.73138904572
-0.94838237762 -1.4316720963 -0.047917172313
-1.7345532179 -0.0031204386614 0.017838606611
-1.6403675079 0.00017547141761 -0.7771704793
-0.9366363883 1.2862459421 -0.7177272439
-0.94957011938 1.4225766659 -0.073625743389
-0.12308526039 1.5327084064 -0.88334357738
0.82191771269 1.4259867668 -0.27991780639
1.2206662893 0.71041750908 -1.0121378899
1.9049377441 -0.010507705621 0.67530834675
1.3824810982 1.3025571108 0.68414980173
1.3781144619 0.43827462196 1.8905476332
1.3703190088 -1.0246335268 1.4830081463
0.11307288706 1.3438854218 1.9758653641
-0.055571824312 0.033882252872 2.5357472897
-0.054750204086 -1.2962243557 2.0233695507
0.094384022057 -1.8822265863 0.76139861345
-0.060558058321 1.8855918646 0.66375184059
-1.3420735598 0.45379644632 1.8447380066
-1.3417598009 -1.0197036266 1.4713945389
-0.88517040014 -1.0208292007 -1.5815179348
-0.89320844412 0.4198859036 -1.989159584
1.0941905975 0.76143312454 -1.2480424643
1.1029776335 0.29788485169 -1.6081920862
0.65395128727 0.97552895546 -1.6333926916
0.91028058529 -0.64819097519 -1.6741416454
0.64026039839 0.44150641561 -1.9946906567
0.76061689854 -0.16461889446 -1.9811798334
1.2177397013 -0.37884786725 -1.3901445866
1.2633122206 0.17201143503 -1.3667871952
1.0337197781 -0.16356781125 -1.7354573011
-0.12406498194 -0.3128220439 -2.2377827168
0.057753294706 -0.94309508801 -1.9306405783
0.6429515481 1.2880996466 -1.0669337511
1.3485478163 0.080397345126 -1.1851195097
-0.1210346967 1.1421120167 -1.7620033026
-0.11348659545 0.48075899482 -2.1923165321
-1.0173587799 0.99111616611 -1.4868764877

CELLS 82 328
3 0 1 2
3 3 4 5
3 6 5 4
3 6 7 5
3 5 7 8
3 8 7 9
3 10 9 7
3 9 10 11
3 12 1 13
3 14 15 16
3 14 16 17
3 16 15 18
3 16 18 19
3 17 16 19
3 17 19 20
3 17 20 21
3 15 22 18
3 19 18 23
3 19 23 24
3 20 19 24
3 21 20 24
3 21 24 6
3 21 6 4
3 21 4 17
3 17 4 14
3 14 4 1
3 14 1 15
3 15 1 12
3 15 12 22
3 10 22 11
3 22 10 23
3 22 23 18
3 23 10 7
3 23 7 24
3 24 7 6
3 25 3 5
3 25 5 8
3 25 8 26
3 3 2 4
3 4 2 1
3 27 28 29
3 30 2 3
3 31 28 32
3 30 33 2
3 2 33 0
3 28 34 35
3 34 33 35
3 35 33 30
3 36 25 26
3 31 32 36
3 32 37 36
3 32 30 37
3 36 37 25
3 25 37 3
3 3 37 30
3 30 32 35
3 35 32 28
3 0 13 1
3 12 13 38
3 0 39 13
3 27 13 34
3 39 34 13
3 13 27 38
3 28 27 34
3 34 39 33
3 39 0 33
3 38 11 12
3 12 11 22
3 29 31 40
3 41 40 31
3 41 26 40
3 29 40 38
3 9 42 8
3 8 42 26
3 26 42 40
3 42 11 40
3 42 9 11
3 40 11 38
3 26 41 36
3 36 41 31
3 31 29 28
3 27 29 38

CELL_TYPES 82
5
5
5
5
5
5
5
5
5
5
5
5
5
5
5
5
5
5
5
5
5
5
5
5
5
5
5
5
5
5
5
5
5
5
5
5
5
5
5
5
5
5
5
5
5
5
5
5
5
5
5
5
5
5
5
5
5
5
5
5
5
5
5
5
5
5
5
5
5
5
5
5
5
5
5
5
5
5
5
5
5
5

CELL_DATA 82
SCALARS cell_data_0 double
LOOKUP_TABLE default
1.57265330441e-06
4.33248801905e-06
1.13373021469e-06
1.71644759722e-06
1.08822714584e-07
1.19103416705e-06
2.37321524121e-06
1.27538049883e-06
3.03188998139e-06
2.74624899625e-07
9.16717312161e-07
6.53467608295e-07
2.47505663835e-07
5.66108509525e-07
5.72075761922e-07
4.05825253474e-07
1.64243673922e-07
7.51015154764e-07
6.0246650943e-07
1.15166950781e-07
1.94615982273e-07
2.59133058022e-07
8.78352576169e-07
6.71636066778e-07
1.88742563197e-06
9.34638563176e-07
9.09223789694e-07
9.30724849756e-07
2.15597170383e-07
1.2813187831e-06
1.01434915701e-06
2.05989649295e-07
3.72104897496e-06
4.92306404861e-07
1.89290169558e-06
2.01489042666e-06
4.08173731726e-06
1.06710265678e-05
4.86855229304e-08
1.07073365165e-06
2.30579330837e-06
5.43494063019e-06
4.72062887581e-06
1.34734195162e-06
7.93752446138e-06
8.23997654583e-07
7.75154205653e-06
3.20550535664e-06
1.20091195891e-06
1.86710625691e-06
1.99402299536e-06
2.38600294234e-06
1.69716272138e-06
3.14392982619e-07
1.72497518404e-06
6.26895152446e-07
1.55684805522e-06
1.7343918748e-06
2.51348877424e-07
2.28097185039e-06
7.98780647457e-07
2.51294668205e-06
3.32226620567e-07
1.18939881704e-06
5.15852067681e-07
1.06871327622e-06
1.77836866767e-07
3.74477505729e-07
7.49117720811e-07
9.60123426229e-07
8.00739073833e-07
1.01296800415e-07
3.71158881512e-07
2.13030605271e-07
1.50596017547e-06
2.67094055713e-06
8.01724959143e-07
1.63811966629e-07
1.07440925614e-06
7.27364769091e-07
4.17023209427e-07
1.22644790267e-06

