# vtk DataFile Version 3.0
File Name: Molecule/methanol/methanol_8.0-1.vtk
ASCII
DATASET UNSTRUCTURED_GRID
FIELD FieldData 1
TIME 1 1 double
0.0
POINTS 379 double
1.403 0.0 -0.933
1.569 -0.375 -0.355
1.365 -0.341 -0.929
1.445 -0.731 -0.342
1.252 -0.666 -0.918
1.245 -1.05 -0.322
1.07 -0.957 -0.9
0.98 -1.317 -0.296
0.828 -1.2 -0.876
0.662 -1.518 -0.264
0.538 -1.382 -0.847
0.308 -1.642 -0.229
0.216 -1.496 -0.815
-0.065 -1.684 -0.192
-0.124 -1.534 -0.781
-0.438 -1.642 -0.155
-0.464 -1.496 -0.747
-0.793 -1.518 -0.119
-0.787 -1.382 -0.715
-1.11 -1.317 -0.088
-1.076 -1.2 -0.686
-1.376 -1.05 -0.061
-1.318 -0.957 -0.662
-1.576 -0.731 -0.042
-1.5 -0.666 -0.644
-1.7 -0.375 -0.029
-1.613 -0.341 -0.633
-1.742 0.0 -0.025
-1.651 0.0 -0.629
-1.7 0.375 -0.029
-1.613 0.341 -0.633
-1.576 0.731 -0.042
-1.5 0.666 -0.644
-1.376 1.05 -0.061
-1.318 0.957 -0.662
-1.11 1.317 -0.088
-1.076 1.2 -0.686
-0.793 1.518 -0.119
-0.787 1.382 -0.715
-0.438 1.642 -0.155
-0.464 1.496 -0.747
-0.065 1.684 -0.192
-0.124 1.534 -0.781
0.308 1.642 -0.229
0.216 1.496 -0.815
0.662 1.518 -0.264
0.538 1.382 -0.847
0.98 1.317 -0.296
0.828 1.2 -0.876
1.245 1.05 -0.322
1.07 0.957 -0.9
1.445 0.731 -0.342
1.252 0.666 -0.918
1.569 0.375 -0.355
1.365 0.341 -0.929
1.907 0.0 0.656
1.87 0.368 0.656
1.87 0.184 0.974
1.87 -0.184 0.974
1.87 -0.368 0.656
1.87 -0.184 0.337
1.87 0.184 0.337
1.763 0.626 1.017
1.763 0.361 1.281
1.763 -0.0 1.378
1.763 -0.361 1.281
1.763 -0.626 1.017
1.763 -0.722 0.656
1.763 -0.626 0.294
1.763 -0.361 0.03
1.763 -0.0 -0.067
1.763 0.361 0.03
1.763 0.626 0.294
1.763 0.722 0.656
1.588 0.985 1.014
1.588 0.803 1.33
1.588 0.524 1.564
1.588 0.182 1.688
1.588 -0.182 1.688
1.588 -0.524 1.564
1.588 -0.803 1.33
1.588 -0.985 1.014
1.588 -1.049 0.656
1.588 -0.985 0.297
1.588 -0.803 -0.018
1.588 0.803 -0.018
1.588 0.985 0.297
1.588 1.049 0.656
1.354 1.285 1.016
1.354 1.14 1.349
1.354 0.911 1.631
1.354 0.614 1.841
1.354 0.272 1.962
1.354 -0.091 1.987
1.354 -0.447 1.913
1.354 -0.77 1.746
1.354 -1.035 1.498
1.354 -1.224 1.187
1.354 -1.322 0.837
1.354 -1.322 0.474
1.354 -1.224 0.124
1.354 1.14 -0.038
1.354 1.285 0.296
1.354 1.335 0.656
1.068 1.527 1.018
1.068 1.402 1.36
1.068 1.202 1.664
1.068 0.937 1.914
1.068 0.622 2.097
1.068 0.273 2.201
1.068 -0.091 2.222
1.068 -0.45 2.159
1.068 -0.785 2.015
1.068 -1.077 1.797
1.068 -1.311 1.518
1.068 -1.475 1.192
1.068 -1.559 0.838
1.068 -1.559 0.473
1.068 -1.475 0.119
1.068 1.402 -0.049
1.068 1.527 0.294
1.068 1.569 0.656
0.741 1.706 1.018
0.741 1.593 1.365
0.741 1.411 1.681
0.741 1.167 1.952
0.741 0.872 2.166
0.741 0.539 2.314
0.741 0.182 2.39
0.741 -0.182 2.39
0.741 -0.539 2.314
0.741 -0.872 2.166
0.741 -1.167 1.952
0.741 -1.411 1.681
0.741 -1.593 1.365
0.741 -1.706 1.018
0.741 -1.744 0.656
0.741 -1.706 0.293
0.741 -1.593 -0.054
0.741 1.593 -0.054
0.741 1.706 0.293
0.741 1.744 0.656
0.387 1.816 1.017
0.387 1.71 1.364
0.387 1.539 1.684
0.387 1.309 1.965
0.387 1.028 2.195
0.387 0.708 2.366
0.387 0.361 2.471
0.387 0.0 2.507
0.387 -0.361 2.471
0.387 -0.708 2.366
0.387 -1.028 2.195
0.387 -1.309 1.965
0.387 -1.539 1.684
0.387 -1.71 1.364
0.387 -1.816 1.017
0.387 -1.851 0.656
0.387 -1.816 0.294
0.387 -1.71 -0.053
0.387 1.71 -0.053
0.387 1.816 0.294
0.387 1.851 0.656
0.019 1.853 1.013
0.019 1.752 1.357
0.019 1.588 1.676
0.019 1.366 1.958
0.019 1.095 2.193
0.019 0.784 2.373
0.019 0.445 2.49
0.019 0.09 2.541
0.019 -0.269 2.524
0.019 -0.617 2.439
0.019 -0.944 2.29
0.019 -1.236 2.082
0.019 -1.484 1.822
0.019 -1.678 1.521
0.019 -1.811 1.187
0.019 -1.879 0.835
0.019 -1.879 0.476
0.019 -1.811 0.124
0.019 1.853 0.298
0.019 1.888 0.656
-0.349 1.851 0.656
-0.349 1.816 1.017
-0.349 1.71 1.364
-0.349 1.539 1.684
-0.349 1.309 1.965
-0.349 1.028 2.195
-0.349 0.708 2.366
-0.349 0.361 2.471
-0.349 0.0 2.507
-0.349 -0.361 2.471
-0.349 -0.708 2.366
-0.349 -1.028 2.195
-0.349 -1.309 1.965
-0.349 -1.539 1.684
-0.349 -1.71 1.364
-0.349 -1.816 1.017
-0.349 -1.851 0.656
-0.349 -1.816 0.294
-0.349 1.816 0.294
-0.703 1.744 0.656
-0.703 1.706 1.018
-0.703 1.593 1.365
-0.703 1.411 1.681
-0.703 1.167 1.952
-0.703 0.872 2.166
-0.703 0.539 2.314
-0.703 0.182 2.39
-0.703 -0.182 2.39
-0.703 -0.539 2.314
-0.703 -0.872 2.166
-0.703 -1.167 1.952
-0.703 -1.411 1.681
-0.703 -1.593 1.365
-0.703 -1.706 1.018
-0.703 -1.744 0.656
-0.703 -1.706 0.293
-0.703 1.706 0.293
-1.03 1.569 0.656
-1.03 1.527 1.018
-1.03 1.402 1.36
-1.03 1.202 1.664
-1.03 0.937 1.914
-1.03 0.622 2.097
-1.03 0.273 2.201
-1.03 -0.091 2.222
-1.03 -0.45 2.159
-1.03 -0.785 2.015
-1.03 -1.077 1.797
-1.03 -1.311 1.518
-1.03 -1.475 1.192
-1.03 -1.559 0.838
-1.03 -1.559 0.473
-1.03 -1.475 0.119
-1.03 1.527 0.294
-1.316 1.335 0.656
-1.316 1.285 1.016
-1.316 1.14 1.349
-1.316 0.911 1.631
-1.316 0.614 1.841
-1.316 0.272 1.962
-1.316 -0.091 1.987
-1.316 -0.447 1.913
-1.316 -0.77 1.746
-1.316 -1.035 1.498
-1.316 -1.224 1.187
-1.316 -1.322 0.837
-1.316 -1.322 0.474
-1.316 -1.224 0.124
-1.316 1.285 0.296
-1.55 1.049 0.656
-1.55 0.985 1.014
-1.55 0.803 1.33
-1.55 0.524 1.564
-1.55 0.182 1.688
-1.55 -0.182 1.688
-1.55 -0.524 1.564
-1.55 -0.803 1.33
-1.55 -0.985 1.014
-1.55 -1.049 0.656
-1.55 -0.985 0.297
-1.55 0.985 0.297
-1.725 0.722 0.656
-1.725 0.626 1.017
-1.725 0.361 1.281
-1.725 -0.0 1.378
-1.725 -0.361 1.281
-1.725 -0.626 1.017
-1.725 -0.722 0.656
-1.725 -0.626 0.294
-1.725 0.626 0.294
-1.832 0.368 0.656
-1.832 0.184 0.974
-1.832 -0.184 0.974
-1.832 -0.368 0.656
-1.832 -0.184 0.337
-1.832 0.184 0.337
-1.868 -0.0 0.656
1.611 0.0 -0.359
1.239 -0.357 -1.355
1.029 -0.613 -1.549
1.029 -0.279 -1.716
1.239 -0.0 -1.451
1.029 0.094 -1.751
1.239 0.357 -1.355
1.029 0.454 -1.648
1.029 0.752 -1.423
1.029 -0.865 -1.273
0.752 -1.212 -1.093
0.752 -1.063 -1.42
0.752 -0.827 -1.692
0.752 -0.525 -1.886
0.752 -0.18 -1.988
0.752 0.18 -1.988
0.752 0.525 -1.886
0.752 0.827 -1.692
0.752 1.063 -1.42
1.029 0.949 -1.105
0.752 1.212 -1.093
0.425 -1.334 -1.266
0.425 -1.161 -1.581
0.425 -0.915 -1.843
0.425 -0.611 -2.036
0.425 -0.269 -2.147
0.425 0.09 -2.17
0.425 0.444 -2.102
0.425 0.769 -1.949
0.425 1.046 -1.72
0.425 1.258 -1.429
0.425 1.39 -1.094
0.065 -1.48 -1.102
0.065 -1.349 -1.445
0.065 -1.141 -1.748
0.065 -0.866 -1.991
0.065 -0.54 -2.162
0.065 -0.184 -2.25
0.065 0.184 -2.25
0.065 0.54 -2.162
0.065 0.866 -1.991
0.065 1.141 -1.748
0.065 1.349 -1.445
0.065 1.48 -1.102
-0.305 -1.48 -1.102
-0.305 -1.349 -1.445
-0.305 -1.141 -1.748
-0.305 -0.866 -1.991
-0.305 -0.54 -2.162
-0.305 -0.184 -2.25
-0.305 0.184 -2.25
-0.305 0.54 -2.162
-0.305 0.866 -1.991
-0.305 1.141 -1.748
-0.305 1.349 -1.445
-0.305 1.48 -1.102
-0.664 -1.424 -0.917
-0.664 -1.334 -1.266
-0.664 -1.161 -1.581
-0.664 -0.915 -1.843
-0.664 -0.611 -2.036
-0.664 -0.269 -2.147
-0.664 0.09 -2.17
-0.664 0.444 -2.102
-0.664 0.769 -1.949
-0.664 1.046 -1.72
-0.664 1.258 -1.429
-0.664 1.39 -1.094
-0.992 -1.212 -1.093
-0.992 -1.063 -1.42
-0.992 -0.827 -1.692
-0.992 -0.525 -1.886
-0.992 -0.18 -1.988
-0.992 0.18 -1.988
-0.992 0.525 -1.886
-0.992 0.827 -1.692
-0.992 1.063 -1.42
-0.992 1.212 -1.093
-1.269 -1.001 -0.924
-1.269 -0.865 -1.273
-1.269 -0.613 -1.549
-1.269 -0.279 -1.716
-1.269 0.094 -1.751
-1.269 0.454 -1.648
-1.269 0.752 -1.423
-1.269 0.949 -1.105
-1.479 -0.618 -1.094
-1.479 -0.357 -1.355
-1.479 -0.0 -1.451
-1.479 0.357 -1.355
-1.479 0.618 -1.094
-1.61 -0.184 -1.055
-1.61 0.184 -1.055
1.507 0.0 -0.646
1.488 0.1705 -0.644
1.384 0.1705 -0.931
1.2455 -0.5115 -1.1365
1.134 -0.611 -1.314
1.1405 -0.7655 -1.0955

CELLS 754 3016
3 0 1 2
3 1 3 2
3 2 3 4
3 3 5 4
3 4 5 6
3 5 7 6
3 6 7 8
3 7 9 8
3 8 9 10
3 9 11 10
3 10 11 12
3 11 13 12
3 12 13 14
3 13 15 14
3 14 15 16
3 15 17 16
3 16 17 18
3 17 19 18
3 18 19 20
3 19 21 20
3 20 21 22
3 21 23 22
3 22 23 24
3 23 25 24
3 24 25 26
3 25 27 26
3 26 27 28
3 27 29 28
3 28 29 30
3 29 31 30
3 30 31 32
3 31 33 32
3 32 33 34
3 33 35 34
3 34 35 36
3 35 37 36
3 36 37 38
3 37 39 38
3 38 39 40
3 39 41 40
3 40 41 42
3 41 43 42
3 42 43 44
3 43 45 44
3 44 45 46
3 45 47 46
3 46 47 48
3 47 49 48
3 48 49 50
3 49 51 50
3 50 51 52
3 51 53 52
3 52 53 54
3 55 56 57
3 55 57 58
3 55 58 59
3 55 59 60
3 55 60 61
3 55 61 56
3 57 56 62
3 57 62 63
3 57 63 64
3 58 57 64
3 58 64 65
3 58 65 66
3 59 58 66
3 59 66 67
3 59 67 68
3 60 59 68
3 60 68 69
3 60 69 70
3 61 60 70
3 61 70 71
3 61 71 72
3 56 61 72
3 56 72 73
3 56 73 62
3 62 73 74
3 62 74 75
3 63 62 75
3 63 75 76
3 63 76 77
3 64 63 77
3 64 77 78
3 65 64 78
3 65 78 79
3 65 79 80
3 66 65 80
3 66 80 81
3 67 66 81
3 67 81 82
3 67 82 83
3 68 67 83
3 68 83 84
3 69 68 84
3 72 71 85
3 72 85 86
3 73 72 86
3 73 86 87
3 73 87 74
3 74 87 88
3 74 88 89
3 75 74 89
3 75 89 90
3 76 75 90
3 76 90 91
3 77 76 91
3 77 91 92
3 77 92 93
3 78 77 93
3 78 93 94
3 79 78 94
3 79 94 95
3 80 79 95
3 80 95 96
3 80 96 97
3 81 80 97
3 81 97 98
3 82 81 98
3 82 98 99
3 83 82 99
3 83 99 100
3 84 83 100
3 86 85 101
3 86 101 102
3 87 86 102
3 87 102 103
3 87 103 88
3 88 103 104
3 88 104 105
3 89 88 105
3 89 105 106
3 90 89 106
3 90 106 107
3 91 90 107
3 91 107 108
3 92 91 108
3 92 108 109
3 93 92 109
3 93 109 110
3 93 110 111
3 94 93 111
3 94 111 112
3 95 94 112
3 95 112 113
3 96 95 113
3 96 113 114
3 97 96 114
3 97 114 115
3 98 97 115
3 98 115 116
3 98 116 117
3 99 98 117
3 99 117 118
3 100 99 118
3 102 101 119
3 102 119 120
3 103 102 120
3 103 120 121
3 103 121 104
3 104 121 122
3 104 122 123
3 105 104 123
3 105 123 124
3 106 105 124
3 106 124 125
3 107 106 125
3 107 125 126
3 108 107 126
3 108 126 127
3 109 108 127
3 109 127 128
3 110 109 128
3 110 128 129
3 111 110 129
3 111 129 130
3 112 111 130
3 112 130 131
3 112 131 132
3 113 112 132
3 113 132 133
3 114 113 133
3 114 133 134
3 115 114 134
3 115 134 135
3 116 115 135
3 116 135 136
3 117 116 136
3 117 136 137
3 118 117 137
3 118 137 138
3 120 119 139
3 120 139 140
3 121 120 140
3 121 140 141
3 121 141 122
3 122 141 142
3 122 142 143
3 123 122 143
3 123 143 144
3 124 123 144
3 124 144 145
3 125 124 145
3 125 145 146
3 126 125 146
3 126 146 147
3 127 126 147
3 127 147 148
3 128 127 148
3 128 148 149
3 129 128 149
3 129 149 150
3 130 129 150
3 130 150 151
3 131 130 151
3 131 151 152
3 132 131 152
3 132 152 153
3 133 132 153
3 133 153 154
3 134 133 154
3 134 154 155
3 135 134 155
3 135 155 156
3 136 135 156
3 136 156 157
3 136 157 158
3 137 136 158
3 137 158 159
3 138 137 159
3 140 139 160
3 140 160 161
3 141 140 161
3 141 161 162
3 141 162 142
3 142 162 163
3 142 163 164
3 143 142 164
3 143 164 165
3 144 143 165
3 144 165 166
3 145 144 166
3 145 166 167
3 146 145 167
3 146 167 168
3 147 146 168
3 147 168 169
3 148 147 169
3 148 169 170
3 149 148 170
3 149 170 171
3 150 149 171
3 150 171 172
3 151 150 172
3 151 172 173
3 152 151 173
3 152 173 174
3 153 152 174
3 153 174 175
3 154 153 175
3 154 175 176
3 155 154 176
3 155 176 177
3 156 155 177
3 156 177 178
3 157 156 178
3 157 178 179
3 158 157 179
3 158 179 180
3 159 158 180
3 162 161 181
3 162 181 182
3 162 182 163
3 163 182 183
3 163 183 184
3 164 163 184
3 164 184 185
3 165 164 185
3 165 185 186
3 166 165 186
3 166 186 187
3 167 166 187
3 167 187 188
3 168 167 188
3 168 188 189
3 169 168 189
3 169 189 190
3 170 169 190
3 170 190 191
3 171 170 191
3 171 191 192
3 172 171 192
3 172 192 193
3 173 172 193
3 173 193 194
3 174 173 194
3 174 194 195
3 175 174 195
3 175 195 196
3 176 175 196
3 176 196 197
3 177 176 197
3 177 197 198
3 178 177 198
3 178 198 199
3 179 178 199
3 179 199 200
3 180 179 200
3 183 181 201
3 182 181 183
3 184 183 202
3 184 202 203
3 185 184 203
3 185 203 204
3 186 185 204
3 186 204 205
3 187 186 205
3 187 205 206
3 188 187 206
3 188 206 207
3 189 188 207
3 189 207 208
3 190 189 208
3 190 208 209
3 191 190 209
3 191 209 210
3 192 191 210
3 192 210 211
3 193 192 211
3 193 211 212
3 194 193 212
3 194 212 213
3 195 194 213
3 195 213 214
3 196 195 214
3 196 214 215
3 197 196 215
3 197 215 216
3 198 197 216
3 198 216 217
3 199 198 217
3 200 199 217
3 200 217 218
3 202 201 219
3 183 201 202
3 203 202 220
3 203 220 221
3 204 203 221
3 204 221 222
3 205 204 222
3 205 222 223
3 206 205 223
3 206 223 224
3 207 206 224
3 207 224 225
3 208 207 225
3 208 225 226
3 209 208 226
3 209 226 227
3 210 209 227
3 210 227 228
3 211 210 228
3 211 228 229
3 212 211 229
3 213 212 229
3 213 229 230
3 214 213 230
3 214 230 231
3 215 214 231
3 215 231 232
3 216 215 232
3 216 232 233
3 217 216 233
3 217 233 234
3 218 217 234
3 218 234 235
3 220 219 236
3 202 219 220
3 221 220 237
3 221 237 238
3 222 221 238
3 222 238 239
3 223 222 239
3 223 239 240
3 224 223 240
3 224 240 241
3 225 224 241
3 225 241 242
3 226 225 242
3 226 242 243
3 227 226 243
3 228 227 243
3 228 243 244
3 229 228 244
3 229 244 245
3 230 229 245
3 230 245 246
3 231 230 246
3 231 246 247
3 232 231 247
3 232 247 248
3 233 232 248
3 233 248 249
3 234 233 249
3 235 234 249
3 235 249 250
3 237 236 251
3 220 236 237
3 238 237 252
3 238 252 253
3 239 238 253
3 239 253 254
3 240 239 254
3 240 254 255
3 241 240 255
3 241 255 256
3 242 241 256
3 243 242 256
3 243 256 257
3 244 243 257
3 244 257 258
3 245 244 258
3 245 258 259
3 246 245 259
3 247 246 259
3 247 259 260
3 248 247 260
3 248 260 261
3 249 248 261
3 249 261 262
3 250 249 262
3 252 251 263
3 237 251 252
3 253 252 264
3 253 264 265
3 254 253 265
3 254 265 266
3 255 254 266
3 256 255 266
3 256 266 267
3 257 256 267
3 257 267 268
3 258 257 268
3 259 258 268
3 259 268 269
3 260 259 269
3 260 269 270
3 261 260 270
3 262 261 270
3 262 270 271
3 264 263 272
3 252 263 264
3 265 264 273
3 265 273 274
3 266 265 274
3 267 266 274
3 267 274 275
3 268 267 275
3 269 268 275
3 269 275 276
3 270 269 276
3 271 270 276
3 271 276 277
3 273 272 278
3 264 272 273
3 274 273 279
3 275 274 279
3 276 275 279
3 277 276 279
3 278 277 279
3 273 278 279
3 278 272 29
3 278 29 27
3 278 27 277
3 277 27 25
3 277 25 271
3 271 25 23
3 271 23 262
3 262 23 21
3 262 21 250
3 250 21 19
3 250 19 235
3 235 19 17
3 235 17 218
3 218 17 15
3 218 15 200
3 200 15 180
3 180 15 13
3 180 13 11
3 180 11 159
3 159 11 9
3 159 9 138
3 138 9 7
3 138 7 118
3 118 7 100
3 100 7 5
3 100 5 84
3 84 5 3
3 84 3 1
3 84 1 69
3 69 1 70
3 70 1 280
3 70 280 53
3 70 53 71
3 71 53 85
3 85 53 51
3 85 51 49
3 85 49 101
3 101 49 119
3 119 49 47
3 119 47 139
3 139 47 45
3 139 45 160
3 160 45 43
3 160 43 41
3 160 41 181
3 160 181 161
3 181 41 201
3 201 41 39
3 201 39 219
3 219 39 37
3 219 37 236
3 236 37 35
3 236 35 251
3 251 35 33
3 251 33 263
3 263 33 31
3 263 31 272
3 272 31 29
3 281 282 283
3 284 281 283
3 284 283 285
3 286 284 285
3 286 285 287
3 286 287 288
3 289 290 291
3 289 291 292
3 282 289 292
3 282 292 293
3 283 282 293
3 283 293 294
3 285 283 294
3 285 294 295
3 287 285 295
3 287 295 296
3 287 296 297
3 288 287 297
3 288 297 298
3 299 288 298
3 299 298 300
3 291 290 301
3 291 301 302
3 292 291 302
3 292 302 303
3 293 292 303
3 293 303 304
3 293 304 305
3 294 293 305
3 294 305 306
3 295 294 306
3 295 306 307
3 296 295 307
3 296 307 308
3 297 296 308
3 297 308 309
3 298 297 309
3 298 309 310
3 300 298 310
3 300 310 311
3 301 312 313
3 302 301 313
3 302 313 314
3 303 302 314
3 303 314 315
3 304 303 315
3 304 315 316
3 305 304 316
3 305 316 317
3 306 305 317
3 306 317 318
3 307 306 318
3 307 318 319
3 308 307 319
3 308 319 320
3 309 308 320
3 309 320 321
3 310 309 321
3 310 321 322
3 311 310 322
3 311 322 323
3 312 324 325
3 313 312 325
3 313 325 326
3 314 313 326
3 314 326 327
3 315 314 327
3 315 327 328
3 316 315 328
3 316 328 329
3 317 316 329
3 317 329 330
3 318 317 330
3 318 330 331
3 319 318 331
3 319 331 332
3 320 319 332
3 320 332 333
3 321 320 333
3 321 333 334
3 322 321 334
3 322 334 335
3 323 322 335
3 324 336 337
3 325 324 337
3 325 337 338
3 326 325 338
3 326 338 339
3 327 326 339
3 327 339 340
3 328 327 340
3 328 340 341
3 329 328 341
3 329 341 342
3 330 329 342
3 330 342 343
3 331 330 343
3 331 343 344
3 332 331 344
3 332 344 345
3 333 332 345
3 333 345 346
3 334 333 346
3 334 346 347
3 335 334 347
3 337 336 348
3 337 348 349
3 338 337 349
3 338 349 350
3 339 338 350
3 339 350 351
3 340 339 351
3 341 340 351
3 341 351 352
3 342 341 352
3 342 352 353
3 343 342 353
3 343 353 354
3 344 343 354
3 344 354 355
3 345 344 355
3 345 355 356
3 346 345 356
3 346 356 357
3 347 346 357
3 348 358 359
3 349 348 359
3 350 349 359
3 350 359 360
3 351 350 360
3 351 360 361
3 352 351 361
3 352 361 362
3 353 352 362
3 353 362 363
3 354 353 363
3 355 354 363
3 355 363 364
3 356 355 364
3 356 364 365
3 357 356 365
3 359 358 366
3 360 359 366
3 360 366 367
3 361 360 367
3 361 367 368
3 362 361 368
3 362 368 369
3 363 362 369
3 364 363 369
3 364 369 370
3 365 364 370
3 367 366 371
3 368 367 371
3 368 371 372
3 369 368 372
3 370 369 372
3 370 372 30
3 370 30 32
3 370 32 34
3 370 34 365
3 365 34 36
3 365 36 357
3 357 36 38
3 357 38 347
3 347 38 40
3 347 40 335
3 335 40 42
3 335 42 323
3 323 42 44
3 323 44 311
3 311 44 46
3 311 46 300
3 300 46 48
3 300 48 299
3 299 48 50
3 299 50 52
3 299 52 288
3 288 52 286
3 286 52 54
3 286 0 284
3 284 0 281
3 281 0 2
3 289 6 290
3 290 6 8
3 290 8 10
3 290 10 301
3 301 10 12
3 301 12 312
3 312 12 14
3 312 14 324
3 324 14 16
3 324 16 336
3 336 16 18
3 336 18 348
3 348 18 20
3 348 20 358
3 358 20 22
3 358 22 24
3 358 24 366
3 366 24 26
3 366 26 371
3 371 26 28
3 371 28 372
3 372 28 30
3 0 373 1
3 1 373 280
3 280 374 53
3 53 374 54
3 54 374 375
3 374 373 375
3 374 280 373
3 375 373 0
3 54 375 286
3 286 375 0
3 4 376 2
3 2 376 281
3 281 376 377
3 376 378 377
3 376 4 378
3 377 378 289
3 281 377 282
3 377 289 282
3 289 378 6
3 378 4 6

CELL_TYPES 754
5
5
5
5
5
5
5
5
5
5
5
5
5
5
5
5
5
5
5
5
5
5
5
5
5
5
5
5
5
5
5
5
5
5
5
5
5
5
5
5
5
5
5
5
5
5
5
5
5
5
5
5
5
5
5
5
5
5
5
5
5
5
5
5
5
5
5
5
5
5
5
5
5
5
5
5
5
5
5
5
5
5
5
5
5
5
5
5
5
5
5
5
5
5
5
5
5
5
5
5
5
5
5
5
5
5
5
5
5
5
5
5
5
5
5
5
5
5
5
5
5
5
5
5
5
5
5
5
5
5
5
5
5
5
5
5
5
5
5
5
5
5
5
5
5
5
5
5
5
5
5
5
5
5
5
5
5
5
5
5
5
5
5
5
5
5
5
5
5
5
5
5
5
5
5
5
5
5
5
5
5
5
5
5
5
5
5
5
5
5
5
5
5
5
5
5
5
5
5
5
5
5
5
5
5
5
5
5
5
5
5
5
5
5
5
5
5
5
5
5
5
5
5
5
5
5
5
5
5
5
5
5
5
5
5
5
5
5
5
5
5
5
5
5
5
5
5
5
5
5
5
5
5
5
5
5
5
5
5
5
5
5
5
5
5
5
5
5
5
5
5
5
5
5
5
5
5
5
5
5
5
5
5
5
5
5
5
5
5
5
5
5
5
5
5
5
5
5
5
5
5
5
5
5
5
5
5
5
5
5
5
5
5
5
5
5
5
5
5
5
5
5
5
5
5
5
5
5
5
5
5
5
5
5
5
5
5
5
5
5
5
5
5
5
5
5
5
5
5
5
5
5
5
5
5
5
5
5
5
5
5
5
5
5
5
5
5
5
5
5
5
5
5
5
5
5
5
5
5
5
5
5
5
5
5
5
5
5
5
5
5
5
5
5
5
5
5
5
5
5
5
5
5
5
5
5
5
5
5
5
5
5
5
5
5
5
5
5
5
5
5
5
5
5
5
5
5
5
5
5
5
5
5
5
5
5
5
5
5
5
5
5
5
5
5
5
5
5
5
5
5
5
5
5
5
5
5
5
5
5
5
5
5
5
5
5
5
5
5
5
5
5
5
5
5
5
5
5
5
5
5
5
5
5
5
5
5
5
5
5
5
5
5
5
5
5
5
5
5
5
5
5
5
5
5
5
5
5
5
5
5
5
5
5
5
5
5
5
5
5
5
5
5
5
5
5
5
5
5
5
5
5
5
5
5
5
5
5
5
5
5
5
5
5
5
5
5
5
5
5
5
5
5
5
5
5
5
5
5
5
5
5
5
5
5
5
5
5
5
5
5
5
5
5
5
5
5
5
5
5
5
5
5
5
5
5
5
5
5
5
5
5
5
5
5
5
5
5
5
5
5
5
5
5
5
5
5
5
5
5
5
5
5
5
5
5
5
5
5
5
5
5
5
5
5
5
5
5
5
5
5
5
5
5
5
5
5
5
5
5
5
5
5
5
5
5
5
5
5
5
5
5
5
5
5
5
5
5
5
5
5
5
5
5
5
5
5
5
5
5
5
5
5
5
5
5
5
5
5
5
5
5
5
5
5
5
5
5
5
5
5
5
5
5
5
5
5
5
5
5
5
5
5
5
5
5
5
5
5
5
5
5
5
5
5
5
5
5
5
5
5
5
5
5
5
5
5
5
5
5
5
5
5
5
5
5
5
5
5
5
5
5
5
5
5
5
5
5
5
5
5
5
5
5

CELL_DATA 754
SCALARS cell_data_0 double
LOOKUP_TABLE default
5.11129537573e-07
3.44947036097e-07
1.99778447879e-07
1.33889383197e-07
1.67246161398e-07
2.14510587155e-08
6.26751787815e-08
1.46183275514e-08
4.68198132656e-09
1.86141765371e-08
4.00157198443e-08
1.50075944274e-08
5.94377973902e-08
4.88465483183e-09
7.25703721934e-08
2.62623703497e-09
7.75987597201e-08
4.80854241187e-09
7.9689009693e-08
1.15611301431e-08
8.36851097537e-08
1.94303179161e-08
8.40503428659e-08
2.45723719114e-08
8.32399059455e-08
2.79470675664e-08
8.29540927834e-08
3.19079769541e-08
8.31604516546e-08
3.46088873417e-08
7.450378342e-08
3.88588910058e-08
7.30911722367e-08
4.41331989705e-08
6.4839012006e-08
4.81642379624e-08
5.80075528915e-08
5.15586752431e-08
4.68255634109e-08
5.63626746701e-08
3.18352952894e-08
5.59468545367e-08
7.97359547562e-09
5.31712572674e-08
1.75200989222e-08
4.43421781664e-08
3.90242372446e-08
1.97603888119e-08
2.65658972388e-08
2.28998106504e-08
1.69780126037e-07
4.90963707198e-08
5.6926906326e-07
7.57296418459e-10
4.963626474e-11
4.44325748576e-10
3.75926795807e-10
1.31581311431e-09
2.30528577029e-10
4.78539600291e-10
2.78675132709e-10
1.98298450399e-10
5.20650519089e-10
7.65301398817e-11
6.82915694071e-11
4.75826358211e-10
9.25009627875e-10
1.98578947885e-10
1.98072753735e-09
3.28723984827e-10
6.93803635902e-09
1.38362655656e-09
2.76205293848e-09
8.5155856642e-11
1.7374652034e-09
2.45281196704e-10
5.33602921379e-10
1.13392030767e-10
1.58040218001e-10
1.31104986088e-10
1.00446839171e-10
9.53959182113e-11
1.36021602207e-10
2.46500092646e-10
1.93760024838e-10
6.36285642436e-11
8.25232694002e-11
2.31709994552e-10
7.1196840644e-11
1.45452011845e-10
5.13599482091e-10
4.62101201353e-10
3.16345169166e-09
7.69834696283e-12
1.01283337213e-08
4.88995341884e-09
5.56625462138e-10
1.57224804408e-09
4.30902751413e-10
3.72677141457e-10
2.11948227637e-11
9.70377221396e-11
5.85781478359e-11
1.77493632857e-10
7.07634488363e-11
9.9085112367e-11
8.36196156976e-11
7.74477243169e-11
2.38885241197e-10
2.12796076324e-10
1.90220924411e-10
2.52272446332e-10
5.33117784541e-11
5.11425273335e-11
7.14006926834e-11
4.16823355967e-11
4.07402123873e-10
3.77112896091e-11
2.2752047244e-10
3.52799017208e-10
1.92306069986e-09
5.9377700204e-10
6.21836307722e-09
1.17420789344e-09
3.99407113737e-10
1.47881862717e-10
6.00352214661e-10
6.44658436172e-11
6.12471247789e-11
1.59410157844e-10
8.03834730665e-11
5.96099831085e-11
1.33995518494e-10
9.31647256309e-11
7.46380427203e-11
9.24555599696e-11
3.35584889324e-12
3.77253704033e-11
2.82879803071e-11
5.46619128994e-11
9.8703184147e-11
7.38880715268e-11
1.20002494213e-10
9.38203246686e-11
1.59277502316e-10
7.97941802376e-11
6.62964791171e-12
1.59576724279e-10
3.45879961112e-11
1.55774806681e-10
1.53771952164e-10
2.5825232994e-10
1.20777502469e-09
5.46908775007e-10
5.48479283413e-10
1.31821394509e-10
1.20208234607e-09
1.07057398539e-10
2.32100486694e-10
3.2945783933e-10
1.0689472815e-10
3.58253045706e-11
4.10444921888e-12
1.38031126997e-11
4.66494745996e-11
7.31764099113e-11
3.48105166766e-12
3.27454584264e-11
7.8620731444e-11
2.83290219757e-11
1.45375645223e-12
6.86987527356e-11
2.10071155754e-10
8.69242918479e-11
1.13591601438e-10
3.36080347481e-11
7.60304778537e-11
3.55053507386e-11
2.59759628444e-11
1.30133400059e-10
1.00410265197e-10
8.33441704618e-11
3.03899178717e-11
1.66750578543e-10
2.77566912152e-11
2.33633543949e-10
2.20948514704e-11
4.25186131906e-10
4.32423352729e-10
8.91628350229e-10
2.92146894303e-10
9.80446661025e-10
7.16858641506e-10
7.62422306572e-10
3.1958415168e-10
2.86816597826e-10
1.33090240228e-10
8.53153348182e-11
2.03494360702e-11
8.32262834217e-11
2.88349213011e-11
1.27853498489e-11
3.62773825736e-11
5.91298366373e-11
4.02424281323e-11
5.14443317391e-11
7.50249365349e-11
6.31701740962e-11
2.97464237591e-11
1.06798396355e-10
1.39087059294e-10
7.10460215142e-11
1.35721692859e-11
3.93763899951e-11
6.37217103287e-12
6.60121882243e-11
6.64268776207e-12
5.56521792259e-14
2.42514916707e-11
5.20124753631e-11
5.46902836471e-12
1.12231681335e-10
1.67828700322e-12
2.57932184469e-10
2.8378270024e-11
4.59749919804e-10
1.86435296799e-10
2.1293772074e-09
5.42620139353e-10
4.35152449713e-09
2.83965453901e-09
7.82203227295e-10
1.21498293272e-09
1.7296444993e-10
4.70586970863e-10
1.55539236534e-10
2.89143919649e-10
6.54299463011e-11
1.71304037284e-10
3.4445472839e-11
1.06157682905e-10
1.43815796955e-10
1.3576122494e-10
1.05930057751e-10
1.53047528111e-10
6.81260851934e-11
4.45581846031e-11
9.46913768758e-13
6.91703504706e-11
9.2474101762e-11
1.2095267588e-10
7.5218037526e-12
6.48820303685e-12
1.14810287646e-10
9.55207184321e-11
3.40643013978e-11
1.14525244929e-10
1.57513191941e-11
6.03282359064e-11
8.56153374032e-11
2.72108932739e-11
7.49164313287e-11
1.57058672256e-10
2.13482200837e-10
2.36904116052e-10
2.42548424876e-10
6.44252515093e-10
7.46706340335e-10
1.01064148353e-09
7.39927721502e-10
2.0372633873e-09
2.28906799389e-10
6.99917363502e-10
1.29529048743e-09
1.19769554668e-10
4.64141274179e-10
4.31321749692e-11
3.42173917421e-10
6.53701340153e-11
2.25326696048e-10
5.17891558405e-11
1.1842911295e-10
3.54924881509e-11
1.19630969732e-10
3.26215332477e-11
7.0106754134e-11
1.06848052847e-11
5.41596566065e-11
1.02506921736e-10
9.94516877485e-11
5.99289354203e-11
2.64057475454e-11
8.92847009345e-12
3.25032258746e-11
6.18136418021e-11
2.83524085392e-11
1.80095880029e-11
7.04910168196e-11
5.10561401763e-11
6.49452506731e-11
1.10729935883e-10
1.84299930133e-11
3.12564925641e-10
1.08879138286e-10
6.23797922397e-10
1.50770168941e-10
1.35720421215e-09
5.65477730606e-11
7.50410669979e-10
3.28367170736e-10
1.70254197216e-09
1.55554083817e-10
6.3239436868e-10
9.13602862356e-12
3.15635224277e-10
4.26872273005e-11
2.59581288114e-10
4.82238469079e-11
2.05124115415e-10
5.0228486056e-11
7.52598110837e-11
8.84010001081e-12
8.58540686765e-11
3.42216663707e-11
4.53158904204e-13
1.37318381284e-10
6.59176832591e-11
7.42427936508e-11
2.45355083649e-12
4.83420194397e-12
3.5773670167e-11
9.50508876202e-11
9.59724191558e-11
4.53575560948e-11
2.00916847303e-10
4.69978168015e-13
3.72541582468e-10
7.44234997338e-11
5.88472520395e-10
1.86610144945e-10
1.44987605282e-09
1.16503217194e-09
1.32762676331e-09
7.52620436306e-10
1.83519225829e-10
1.96389848558e-09
2.93029183125e-10
6.55951446742e-10
6.98379304327e-11
4.4037523446e-10
3.50625964877e-11
2.34898528431e-10
2.29560785427e-11
1.31259242192e-10
4.89276775603e-11
1.05160978271e-10
1.26067562444e-10
1.31057396615e-11
4.24697725815e-11
2.98470906305e-11
1.17195725369e-10
6.76494806722e-11
1.14521635013e-10
9.22827754922e-11
8.56923859518e-11
3.59253910547e-11
1.38549793548e-10
5.02507214415e-11
6.77512917775e-12
3.48121581927e-10
6.39429784683e-11
4.90614593255e-10
1.80603085248e-10
1.54967221541e-09
3.30781832546e-10
3.26544074638e-09
1.27527915831e-09
1.44485779173e-10
2.16266420913e-09
3.7655079591e-10
6.92844283946e-10
8.88942141272e-11
3.85880442027e-10
2.57454651385e-11
2.03604005234e-10
1.22412455704e-10
1.07315182332e-10
1.73485109425e-10
7.90563908261e-12
1.4573683473e-10
6.84527424359e-11
3.75320156619e-11
1.0182345634e-10
9.57828003604e-11
1.31510744227e-10
1.10602974833e-10
1.54880168218e-11
2.24685379285e-10
6.4590611945e-11
4.4971064018e-10
2.20967642521e-10
8.98090165285e-10
5.1247958875e-10
2.02457092722e-09
4.89651905402e-09
4.70752925724e-09
1.84552378105e-09
7.32956050968e-11
2.2665217742e-09
4.223029503e-10
7.24351410091e-10
7.4877533609e-11
3.60732763722e-10
8.94216508912e-11
1.71283819721e-10
1.61336131326e-10
3.00685089473e-11
8.96666896299e-12
3.12372818915e-10
1.35116175898e-10
2.3388498833e-10
2.04737149469e-10
3.20371341751e-10
5.08905051975e-10
1.86021684052e-11
4.0848035149e-10
1.38697058883e-10
1.18393475831e-09
4.78116392101e-10
2.7331373805e-09
2.1065503482e-09
2.69388408326e-09
3.92458049849e-10
2.14668625755e-09
6.7406496231e-10
6.66059644938e-10
1.83834048803e-11
2.93515851717e-10
2.23741008204e-11
6.74991267761e-10
1.76595846367e-10
6.92422492255e-10
5.09067670452e-10
3.67772389865e-10
4.22640789444e-11
4.83456831669e-10
5.66108347139e-10
1.17475062295e-09
3.44465747565e-09
2.95788149737e-09
3.74467608337e-09
6.35115556367e-10
2.37300548704e-09
4.74993572157e-10
5.13028280962e-10
6.86449116675e-11
1.545509666e-09
8.03115265495e-10
5.15775030952e-10
3.38437543892e-10
1.14327378459e-09
4.0357872592e-09
9.57475284425e-10
4.15160959852e-09
1.29754924077e-09
1.94385109846e-09
8.69145703422e-10
6.41278752695e-10
2.53337568827e-09
9.90828483236e-10
7.64747111852e-10
5.12665137141e-09
2.73553202682e-08
4.24532735722e-09
2.69866084393e-08
5.22611842725e-09
2.25966403419e-08
6.39590115811e-09
2.58821491557e-08
3.32868496381e-09
1.10068538207e-08
2.33798412457e-09
1.05156580955e-08
1.40580940726e-08
2.71760845677e-08
1.33831473861e-08
1.02960814208e-08
1.77627388037e-08
1.10386353667e-08
1.54394823686e-09
1.28037243487e-09
2.46480214165e-09
2.01261326891e-09
3.21192085644e-09
1.0423795119e-08
1.28891499003e-09
8.54780050994e-09
5.11956182121e-09
2.62554277196e-08
1.27140281156e-09
1.11371104413e-08
8.621095086e-09
2.24225726324e-08
1.94604249055e-09
5.93257944135e-09
1.09989120504e-08
3.27634496726e-09
6.04560553478e-09
1.75085980665e-09
4.21756510203e-09
2.79581830987e-09
1.42287606248e-09
2.70703553813e-09
1.49323519427e-09
5.52663148359e-09
1.93998096906e-08
2.03021539495e-09
3.12547299452e-11
2.38830298459e-08
6.71459200121e-10
2.5949962885e-08
6.00854623995e-10
2.5679665043e-08
9.01511433401e-10
2.54360931382e-08
1.23822756415e-09
2.43764430001e-08
2.10854228781e-09
2.30880935509e-08
3.49875661848e-07
3.50927750623e-07
7.65837476137e-07
5.765145001e-07
6.91971815731e-08
5.20854300735e-07
1.24697956233e-07
4.07208496211e-08
1.22184786235e-07
1.72887463136e-07
1.4225872771e-07
4.36357998393e-07
1.24599133515e-07
6.01816913246e-07
4.85225166622e-07
2.40605863617e-07
3.6034805794e-07
4.05278988003e-07
1.2737564057e-07
1.52806392558e-07
5.94539249673e-08
1.151712998e-08
3.9497813113e-08
3.27959870811e-08
9.08905158537e-08
2.75992112504e-08
1.52521829734e-07
1.12794343217e-07
1.97193796091e-08
1.66804684717e-07
8.40247606875e-08
1.80941581889e-07
1.37793427486e-07
1.23748224037e-07
1.09850842789e-07
6.12272640857e-08
6.38341595121e-08
3.10245034934e-08
3.65586525864e-08
1.29850479311e-08
1.28588325487e-08
2.34373015644e-09
1.63276971987e-08
2.26926947276e-09
2.33220242383e-08
4.15014524255e-09
3.89402279898e-08
6.51406149404e-09
5.19353705941e-08
2.4787449779e-08
5.11485691708e-08
3.34762671215e-08
4.07158769178e-08
3.18408633325e-08
2.95702604567e-08
2.70103502986e-08
1.80641911014e-08
1.79920850643e-08
1.09791358263e-08
1.19666576625e-08
5.60604664529e-09
3.55415676971e-10
1.22607908044e-10
2.6715488208e-09
2.56485183474e-09
5.0556150934e-09
5.44996521677e-10
8.46666815837e-09
1.53104086108e-09
1.16041133408e-08
3.97813567664e-09
1.47490559733e-08
8.36725431185e-09
1.66783582642e-08
1.23828003548e-08
1.53773653354e-08
1.27470282124e-08
1.15098753095e-08
9.56690216901e-09
8.73501786317e-09
7.53551835232e-09
5.1485477448e-09
4.24933954538e-09
2.10620771476e-10
1.91230575461e-09
1.89814652688e-09
3.40057539259e-09
2.6950510073e-09
2.06261348093e-09
3.8424489337e-09
1.44814419585e-09
4.40296816808e-09
2.80766504548e-10