# vtk DataFile Version 3.0
File Name: Molecule/methanol/methanol_0.5-2.vtk
ASCII
DATASET UNSTRUCTURED_GRID
FIELD FieldData 1
TIME 1 1 double
0.0
POINTS 32 double
1.3908051252 0.022186391056 -0.93726611137
1.6041201353 0.026079010218 -0.32687661052
1.2039846182 -0.7456048131 -0.92695146799
0.60148924589 -1.307964325 -1.0194051266
0.81355792284 -1.4083790779 -0.21990209818
-0.9091899395 -1.2628054619 -0.75328749418
-0.9451020956 -1.432819128 -0.0074832737446
-1.7180823088 -0.0059926742688 0.052310332656
-1.636371851 -0.0047921510413 -0.82108527422
-0.93774229288 1.2507492304 -0.79366481304
-0.92010730505 1.4057831764 -0.055574201047
0.83122694492 1.411614418 -0.22866909206
0.63254332542 1.2714071274 -0.95853418112
1.9010614157 -0.02084235847 0.69331771135
1.3822196722 1.2965199947 0.71383070946
1.3745248318 0.44120556116 1.8944423199
1.3594251871 -1.030477047 1.4916810989
0.12686239183 1.3383084536 1.9779670238
-0.050845053047 0.027213782072 2.5303008556
-0.049475856125 -1.3013951778 2.0171310902
0.0903339535 -1.8806335926 0.78349030018
-0.05799375847 1.8777009249 0.70836782455
-1.3438162804 0.47077775002 1.8143618107
-1.3393621445 -1.0206185579 1.471031189
0.57892405987 0.40834510326 -2.0264070034
-0.84248393774 -0.98364508152 -1.6285820007
-0.87077713013 0.47955232859 -1.9605823755
1.0876168013 0.3012124598 -1.6244269609
0.8631786108 -0.63264125586 -1.7146695852
1.2812519073 0.15252237022 -1.3418345451
1.0421403646 -0.14241087437 -1.7316229343
1.2210752964 -0.37210121751 -1.3873735666

CELLS 60 240
3 0 1 2
3 3 4 5
3 6 5 4
3 6 7 5
3 5 7 8
3 8 7 9
3 10 9 7
3 11 12 10
3 9 10 12
3 12 11 0
3 1 0 11
3 13 14 15
3 13 15 16
3 15 14 17
3 15 17 18
3 16 15 18
3 16 18 19
3 16 19 20
3 14 21 17
3 18 17 22
3 18 22 23
3 19 18 23
3 20 19 23
3 20 23 6
3 20 6 4
3 20 4 16
3 16 4 13
3 13 4 1
3 13 1 14
3 14 1 11
3 14 11 21
3 21 11 10
3 21 10 22
3 21 22 17
3 22 10 7
3 22 7 23
3 23 7 6
3 24 25 26
3 24 26 12
3 25 3 5
3 25 5 8
3 25 8 26
3 26 8 9
3 26 9 12
3 3 2 4
3 4 2 1
3 12 27 24
3 28 2 3
3 24 28 25
3 28 3 25
3 0 29 12
3 29 27 12
3 27 30 24
3 24 30 28
3 28 31 2
3 2 31 0
3 27 29 30
3 29 31 30
3 29 0 31
3 30 31 28

CELL_TYPES 60
5
5
5
5
5
5
5
5
5
5
5
5
5
5
5
5
5
5
5
5
5
5
5
5
5
5
5
5
5
5
5
5
5
5
5
5
5
5
5
5
5
5
5
5
5
5
5
5
5
5
5
5
5
5
5
5
5
5
5
5

CELL_DATA 60
SCALARS cell_data_0 double
LOOKUP_TABLE default
2.43828686661e-06
4.87127695965e-06
2.60593527971e-06
2.64177997232e-06
6.90061123645e-06
2.8776596108e-06
1.48555558688e-06
3.3331065721e-07
1.09472677663e-06
1.12227013827e-05
1.17902941552e-05
8.4977109241e-07
1.05179017781e-06
4.48485587387e-07
4.67902368544e-07
7.80589847952e-07
5.76985709121e-07
3.53682692984e-07
4.44321195056e-07
6.69074551991e-07
7.08325355912e-07
3.53689657801e-08
2.29846319698e-07
2.19989872852e-07
6.47875531602e-07
6.90398123457e-07
1.4880921667e-06
2.62646155322e-06
2.50691388027e-07
3.15573565524e-06
4.57318739584e-07
4.38993299617e-07
8.34644371174e-07
2.5587205141e-07
2.97429714564e-06
3.69975332012e-07
8.97705484331e-07
2.24982014302e-05
5.55869947193e-06
9.34008959003e-06
7.82860461604e-06
1.24166436695e-05
1.38154762722e-06
7.8729945008e-06
4.18105339424e-08
1.48411552214e-06
1.07833884964e-05
6.03832202285e-06
3.76561917293e-05
1.4006644097e-05
2.43983090557e-05
2.81205325444e-06
2.45059907072e-06
6.14028950081e-06
6.2083161338e-07
9.47820217051e-06
3.69868622343e-06
5.44057513972e-06
6.23975213587e-06
1.18028555697e-06

