# vtk DataFile Version 3.0
File Name: Molecule/methanol/methanol_12.0-2.vtk
ASCII
DATASET UNSTRUCTURED_GRID
FIELD FieldData 1
TIME 1 1 double
0.0
POINTS 646 double
1.611 0.0 -0.359
1.582 -0.31 -0.356
1.475 0.0 -0.634
1.448 -0.29 -0.632
1.403 0.0 -0.933
1.377 -0.282 -0.93
1.498 -0.608 -0.348
1.369 -0.57 -0.624
1.3 -0.554 -0.923
1.36 -0.887 -0.334
1.24 -0.83 -0.611
1.173 -1.135 -0.315
1.066 -1.062 -0.594
1.174 -0.808 -0.91
1.004 -1.034 -0.893
0.945 -1.344 -0.292
0.852 -1.258 -0.572
0.796 -1.224 -0.872
0.682 -1.508 -0.266
0.605 -1.411 -0.548
0.557 -1.374 -0.849
0.393 -1.62 -0.238
0.335 -1.517 -0.521
0.294 -1.476 -0.822
0.089 -1.677 -0.207
0.051 -1.57 -0.493
0.017 -1.528 -0.795
-0.22 -1.677 -0.176
-0.239 -1.57 -0.464
-0.265 -1.528 -0.767
-0.524 -1.62 -0.146
-0.523 -1.517 -0.435
-0.542 -1.476 -0.739
-0.813 -1.508 -0.117
-0.793 -1.411 -0.408
-0.805 -1.374 -0.713
-1.075 -1.344 -0.091
-1.039 -1.258 -0.384
-1.044 -1.224 -0.689
-1.304 -1.135 -0.069
-1.253 -1.062 -0.363
-1.252 -1.034 -0.668
-1.49 -0.887 -0.05
-1.428 -0.83 -0.345
-1.422 -0.808 -0.651
-1.628 -0.608 -0.036
-1.557 -0.57 -0.332
-1.548 -0.554 -0.639
-1.713 -0.31 -0.028
-1.636 -0.29 -0.324
-1.625 -0.282 -0.631
-1.742 0.0 -0.025
-1.663 0.0 -0.322
-1.651 0.0 -0.629
-1.713 0.31 -0.028
-1.636 0.29 -0.324
-1.628 0.608 -0.036
-1.557 0.57 -0.332
-1.625 0.282 -0.631
-1.548 0.554 -0.639
-1.49 0.887 -0.05
-1.428 0.83 -0.345
-1.422 0.808 -0.651
-1.304 1.135 -0.069
-1.253 1.062 -0.363
-1.252 1.034 -0.668
-1.075 1.344 -0.091
-1.039 1.258 -0.384
-1.044 1.224 -0.689
-0.813 1.508 -0.117
-0.793 1.411 -0.408
-0.805 1.374 -0.713
-0.524 1.62 -0.146
-0.523 1.517 -0.435
-0.542 1.476 -0.739
-0.22 1.677 -0.176
-0.239 1.57 -0.464
-0.265 1.528 -0.767
0.089 1.677 -0.207
0.051 1.57 -0.493
0.017 1.528 -0.795
0.393 1.62 -0.238
0.335 1.517 -0.521
0.294 1.476 -0.822
0.682 1.508 -0.266
0.605 1.411 -0.548
0.557 1.374 -0.849
0.945 1.344 -0.292
0.852 1.258 -0.572
0.796 1.224 -0.872
1.173 1.135 -0.315
1.066 1.062 -0.594
1.004 1.034 -0.893
1.36 0.887 -0.334
1.24 0.83 -0.611
1.174 0.808 -0.91
1.498 0.608 -0.348
1.369 0.57 -0.624
1.3 0.554 -0.923
1.582 0.31 -0.356
1.448 0.29 -0.632
1.377 0.282 -0.93
1.907 0.0 0.656
1.883 0.295 0.656
1.883 0.148 0.911
1.883 -0.148 0.911
1.883 -0.295 0.656
1.883 -0.148 0.4
1.883 0.148 0.4
1.814 0.505 0.947
1.814 0.292 1.161
1.814 -0.0 1.239
1.814 -0.292 1.161
1.814 -0.505 0.947
1.814 -0.583 0.656
1.814 -0.505 0.364
1.814 -0.292 0.15
1.814 -0.0 0.072
1.814 0.292 0.15
1.814 0.505 0.364
1.814 0.583 0.656
1.701 0.805 0.949
1.701 0.656 1.206
1.701 0.428 1.398
1.701 0.149 1.499
1.701 -0.149 1.499
1.701 -0.428 1.398
1.701 -0.656 1.206
1.701 -0.805 0.949
1.701 -0.857 0.656
1.701 -0.805 0.363
1.701 -0.656 0.105
1.701 -0.428 -0.087
1.701 -0.149 -0.188
1.701 0.149 -0.188
1.701 0.428 -0.087
1.701 0.656 0.105
1.701 0.805 0.363
1.701 0.857 0.656
1.546 1.072 0.943
1.546 0.961 1.21
1.546 0.784 1.44
1.546 0.555 1.616
1.546 0.287 1.727
1.546 0.0 1.765
1.546 -0.287 1.727
1.546 -0.555 1.616
1.546 -0.784 1.44
1.546 -0.961 1.21
1.546 -1.072 0.943
1.546 -1.109 0.656
1.546 -1.072 0.368
1.546 -0.961 0.101
1.546 -0.784 -0.129
1.546 0.784 -0.129
1.546 0.961 0.101
1.546 1.072 0.368
1.546 1.109 0.656
1.354 1.301 0.953
1.354 1.202 1.235
1.354 1.043 1.488
1.354 0.832 1.699
1.354 0.579 1.858
1.354 0.297 1.957
1.354 0.0 1.99
1.354 -0.297 1.957
1.354 -0.579 1.858
1.354 -0.832 1.699
1.354 -1.043 1.488
1.354 -1.202 1.235
1.354 -1.301 0.953
1.354 -1.335 0.656
1.354 -1.301 0.359
1.354 -1.202 0.077
1.354 -1.043 -0.177
1.354 1.043 -0.177
1.354 1.202 0.077
1.354 1.301 0.359
1.354 1.335 0.656
1.128 1.499 0.945
1.128 1.418 1.223
1.128 1.285 1.481
1.128 1.105 1.709
1.128 0.886 1.899
1.128 0.634 2.045
1.128 0.36 2.14
1.128 0.073 2.181
1.128 -0.217 2.167
1.128 -0.499 2.099
1.128 -0.764 1.978
1.128 -1.0 1.81
1.128 -1.2 1.6
1.128 -1.357 1.355
1.128 -1.465 1.086
1.128 -1.52 0.801
1.128 -1.52 0.51
1.128 -1.465 0.225
1.128 -1.357 -0.044
1.128 1.285 -0.17
1.128 1.418 0.088
1.128 1.499 0.367
1.128 1.527 0.656
0.876 1.656 0.948
0.876 1.58 1.231
0.876 1.456 1.496
0.876 1.288 1.737
0.876 1.081 1.944
0.876 0.841 2.112
0.876 0.575 2.236
0.876 0.292 2.312
0.876 0.0 2.337
0.876 -0.292 2.312
0.876 -0.575 2.236
0.876 -0.841 2.112
0.876 -1.081 1.944
0.876 -1.288 1.737
0.876 -1.456 1.496
0.876 -1.58 1.231
0.876 -1.656 0.948
0.876 -1.682 0.656
0.876 -1.656 0.364
0.876 -1.58 0.08
0.876 1.58 0.08
0.876 1.656 0.364
0.876 1.682 0.656
0.602 1.771 0.951
0.602 1.698 1.238
0.602 1.579 1.51
0.602 1.417 1.758
0.602 1.216 1.976
0.602 0.982 2.158
0.602 0.721 2.3
0.602 0.441 2.396
0.602 0.148 2.445
0.602 -0.148 2.445
0.602 -0.441 2.396
0.602 -0.721 2.3
0.602 -0.982 2.158
0.602 -1.216 1.976
0.602 -1.417 1.758
0.602 -1.579 1.51
0.602 -1.698 1.238
0.602 -1.771 0.951
0.602 -1.795 0.656
0.602 -1.771 0.36
0.602 -1.698 0.073
0.602 1.698 0.073
0.602 1.771 0.36
0.602 1.795 0.656
0.314 1.841 0.947
0.314 1.773 1.232
0.314 1.661 1.502
0.314 1.508 1.751
0.314 1.318 1.974
0.314 1.096 2.164
0.314 0.846 2.317
0.314 0.576 2.429
0.314 0.292 2.497
0.314 -0.0 2.52
0.314 -0.292 2.497
0.314 -0.576 2.429
0.314 -0.846 2.317
0.314 -1.096 2.164
0.314 -1.318 1.974
0.314 -1.508 1.751
0.314 -1.661 1.502
0.314 -1.773 1.232
0.314 -1.841 0.947
0.314 -1.864 0.656
0.314 -1.841 0.364
0.314 -1.773 0.08
0.314 1.773 0.08
0.314 1.841 0.364
0.314 1.864 0.656
0.019 1.865 0.944
0.019 1.8 1.225
0.019 1.692 1.493
0.019 1.544 1.742
0.019 1.36 1.964
0.019 1.144 2.157
0.019 0.902 2.314
0.019 0.638 2.432
0.019 0.359 2.509
0.019 0.072 2.542
0.019 -0.216 2.531
0.019 -0.5 2.476
0.019 -0.772 2.378
0.019 -1.026 2.24
0.019 -1.256 2.065
0.019 -1.456 1.857
0.019 -1.622 1.62
0.019 -1.751 1.361
0.019 -1.838 1.086
0.019 -1.882 0.8
0.019 -1.882 0.511
0.019 -1.838 0.226
0.019 -1.751 -0.05
0.019 1.8 0.086
0.019 1.865 0.367
0.019 1.888 0.656
-0.276 1.864 0.656
-0.276 1.841 0.947
-0.276 1.773 1.232
-0.276 1.661 1.502
-0.276 1.508 1.751
-0.276 1.318 1.974
-0.276 1.096 2.164
-0.276 0.846 2.317
-0.276 0.576 2.429
-0.276 0.292 2.497
-0.276 -0.0 2.52
-0.276 -0.292 2.497
-0.276 -0.576 2.429
-0.276 -0.846 2.317
-0.276 -1.096 2.164
-0.276 -1.318 1.974
-0.276 -1.508 1.751
-0.276 -1.661 1.502
-0.276 -1.773 1.232
-0.276 -1.841 0.947
-0.276 -1.864 0.656
-0.276 -1.841 0.364
-0.276 -1.773 0.08
-0.276 1.773 0.08
-0.276 1.841 0.364
-0.564 1.795 0.656
-0.564 1.771 0.951
-0.564 1.698 1.238
-0.564 1.579 1.51
-0.564 1.417 1.758
-0.564 1.216 1.976
-0.564 0.982 2.158
-0.564 0.721 2.3
-0.564 0.441 2.396
-0.564 0.148 2.445
-0.564 -0.148 2.445
-0.564 -0.441 2.396
-0.564 -0.721 2.3
-0.564 -0.982 2.158
-0.564 -1.216 1.976
-0.564 -1.417 1.758
-0.564 -1.579 1.51
-0.564 -1.698 1.238
-0.564 -1.771 0.951
-0.564 -1.795 0.656
-0.564 -1.771 0.36
-0.564 -1.698 0.073
-0.564 1.698 0.073
-0.564 1.771 0.36
-0.838 1.682 0.656
-0.838 1.656 0.948
-0.838 1.58 1.231
-0.838 1.456 1.496
-0.838 1.288 1.737
-0.838 1.081 1.944
-0.838 0.841 2.112
-0.838 0.575 2.236
-0.838 0.292 2.312
-0.838 0.0 2.337
-0.838 -0.292 2.312
-0.838 -0.575 2.236
-0.838 -0.841 2.112
-0.838 -1.081 1.944
-0.838 -1.288 1.737
-0.838 -1.456 1.496
-0.838 -1.58 1.231
-0.838 -1.656 0.948
-0.838 -1.682 0.656
-0.838 -1.656 0.364
-0.838 -1.58 0.08
-0.838 1.58 0.08
-0.838 1.656 0.364
-1.09 1.527 0.656
-1.09 1.499 0.945
-1.09 1.418 1.223
-1.09 1.285 1.481
-1.09 1.105 1.709
-1.09 0.886 1.899
-1.09 0.634 2.045
-1.09 0.36 2.14
-1.09 0.073 2.181
-1.09 -0.217 2.167
-1.09 -0.499 2.099
-1.09 -0.764 1.978
-1.09 -1.0 1.81
-1.09 -1.2 1.6
-1.09 -1.357 1.355
-1.09 -1.465 1.086
-1.09 -1.52 0.801
-1.09 -1.52 0.51
-1.09 -1.465 0.225
-1.09 1.418 0.088
-1.09 1.499 0.367
-1.316 1.335 0.656
-1.316 1.301 0.953
-1.316 1.202 1.235
-1.316 1.043 1.488
-1.316 0.832 1.699
-1.316 0.579 1.858
-1.316 0.297 1.957
-1.316 0.0 1.99
-1.316 -0.297 1.957
-1.316 -0.579 1.858
-1.316 -0.832 1.699
-1.316 -1.043 1.488
-1.316 -1.202 1.235
-1.316 -1.301 0.953
-1.316 -1.335 0.656
-1.316 -1.301 0.359
-1.316 -1.202 0.077
-1.316 1.202 0.077
-1.316 1.301 0.359
-1.508 1.109 0.656
-1.508 1.072 0.943
-1.508 0.961 1.21
-1.508 0.784 1.44
-1.508 0.555 1.616
-1.508 0.287 1.727
-1.508 0.0 1.765
-1.508 -0.287 1.727
-1.508 -0.555 1.616
-1.508 -0.784 1.44
-1.508 -0.961 1.21
-1.508 -1.072 0.943
-1.508 -1.109 0.656
-1.508 -1.072 0.368
-1.508 -0.961 0.101
-1.508 0.961 0.101
-1.508 1.072 0.368
-1.663 0.857 0.656
-1.663 0.805 0.949
-1.663 0.656 1.206
-1.663 0.428 1.398
-1.663 0.149 1.499
-1.663 -0.149 1.499
-1.663 -0.428 1.398
-1.663 -0.656 1.206
-1.663 -0.805 0.949
-1.663 -0.857 0.656
-1.663 -0.805 0.363
-1.663 0.805 0.363
-1.776 0.583 0.656
-1.776 0.505 0.947
-1.776 0.292 1.161
-1.776 -0.0 1.239
-1.776 -0.292 1.161
-1.776 -0.505 0.947
-1.776 -0.583 0.656
-1.776 -0.505 0.364
-1.776 0.505 0.364
-1.845 0.295 0.656
-1.845 0.148 0.911
-1.845 -0.148 0.911
-1.845 -0.295 0.656
-1.845 -0.148 0.4
-1.776 -0.292 0.15
-1.776 0.292 0.15
-1.845 0.148 0.4
-1.868 -0.0 0.656
1.298 0.294 -1.246
1.157 0.426 -1.476
1.157 0.653 -1.285
1.157 0.148 -1.577
0.966 0.499 -1.701
0.966 0.741 -1.53
0.966 0.927 -1.301
0.966 -0.626 -1.624
0.966 -0.842 -1.422
0.733 -0.876 -1.666
0.733 -0.638 -1.843
0.966 -0.363 -1.76
0.733 -0.366 -1.96
0.966 -0.074 -1.82
0.733 -0.074 -2.011
0.733 0.222 -1.994
0.966 0.221 -1.8
0.733 0.506 -1.909
0.733 0.762 -1.761
0.733 0.978 -1.558
0.733 1.141 -1.31
0.733 -1.199 -1.174
0.468 -1.387 -1.032
0.468 -1.296 -1.314
0.733 -1.066 -1.439
0.468 -1.147 -1.571
0.468 -0.949 -1.791
0.468 -0.709 -1.965
0.468 -0.438 -2.086
0.468 -0.148 -2.148
0.468 0.148 -2.148
0.468 0.438 -2.086
0.468 0.709 -1.965
0.468 0.949 -1.791
0.468 1.147 -1.571
0.468 1.296 -1.314
0.733 1.242 -1.032
0.468 1.387 -1.032
0.18 -1.477 -1.031
0.18 -1.391 -1.313
0.18 -1.252 -1.574
0.18 -1.065 -1.802
0.18 -0.836 -1.989
0.18 -0.576 -2.128
0.18 -0.294 -2.214
0.18 0.0 -2.243
0.18 0.294 -2.214
0.18 0.576 -2.128
0.18 0.836 -1.989
0.18 1.065 -1.802
0.18 1.252 -1.574
0.18 1.391 -1.313
0.18 1.477 -1.031
-0.12 -1.473 -1.17
-0.12 -1.364 -1.441
-0.12 -1.207 -1.686
-0.12 -1.005 -1.897
-0.12 -0.767 -2.067
-0.12 -0.502 -2.188
-0.12 -0.218 -2.257
-0.12 0.073 -2.27
-0.12 0.362 -2.229
-0.12 0.638 -2.133
-0.12 0.89 -1.988
[...]
CELL_DATA 1288
SCALARS cell_data_0 double
LOOKUP_TABLE default
3.4212716828e-07
2.22004815148e-06
9.85747361487e-08
2.62580243323e-07
2.32964348195e-06
1.56107487476e-06
2.24677999609e-06
2.42896978846e-07
3.59367163068e-08
1.46840465011e-08
1.36358390011e-07
1.9151963937e-08
1.58049120646e-07
4.10319934088e-08
3.23692835307e-08
1.56097307282e-07
1.33423672952e-07
1.61216369278e-07
1.9274062183e-08
3.8729945494e-11
4.60081075591e-09
7.55401577798e-09
8.32265371786e-09
2.18025614425e-09
6.26859799902e-09
1.88418746078e-09
2.74618534471e-09
6.38778786013e-09
8.37819856736e-09
1.80969212676e-09
1.42036286356e-09
1.11746744589e-08
9.68880300681e-09
1.50880449118e-09
3.99687413873e-09
1.42869696555e-08
9.76717660947e-09
3.83179252262e-10
2.09636857137e-09
1.78218928379e-08
1.1602222726e-08
2.24025339429e-09
4.56589303548e-11
2.06222503404e-08
1.17612189938e-08
1.13065611447e-09
3.17869835444e-09
2.30232106408e-08
1.35279572255e-08
2.83740369374e-09
4.44309966071e-09
2.542345629e-08
1.2748901561e-08
2.76396207187e-09
2.90002361626e-09
2.37667884201e-08
8.73383723473e-09
7.96998924544e-10
8.1716524513e-09
2.41222500679e-08
9.82831472589e-09
1.24998474076e-09
1.41454197205e-08
2.51042538638e-08
4.48971778881e-09
4.49255622943e-09
7.80907474972e-09
2.32343982259e-08
2.20015529124e-08
6.98676638638e-09
2.07319802351e-07
3.37221565493e-07
1.5753677747e-07
1.52513452591e-07
3.29740829534e-07
1.22535237588e-07
1.36219717682e-07
7.16658854807e-09
2.85736712087e-08
1.18550306511e-08
2.76655357801e-10
4.55404218372e-09
2.92592300243e-08
1.25789358695e-08
3.51788515485e-09
5.67051460304e-09
2.84618061413e-08
1.30224220705e-08
3.57650362969e-09
3.23113350222e-09
2.75631557981e-08
1.36883061423e-08
3.74783939997e-09
1.79575057791e-09
2.54403598287e-08
1.40935952779e-08
4.30438143492e-09
8.39020205866e-10
2.34992698008e-08
1.42029194904e-08
4.49388557007e-09
1.22716028724e-09
2.1024594338e-08
1.37678887336e-08
5.11999867741e-09
2.80362543813e-09
1.7410457076e-08
1.28459514246e-08
5.49745979884e-09
4.92487404715e-09
1.31764382539e-08
1.21102495706e-08
6.11884406352e-09
8.35652239739e-09
6.43716616652e-09
1.03645071461e-08
7.33695725688e-09
1.71364027663e-08
9.33398182075e-10
1.00491406435e-08
5.78938494943e-09
4.40812447091e-08
1.18524780018e-09
1.48862641685e-08
1.51739237182e-08
9.08441497232e-08
2.2615007688e-08
1.89331102558e-08
2.68423206344e-08
1.9871004513e-07
6.03258908384e-08
2.27420148179e-08
2.24782887143e-07
1.20965451542e-06
2.09476265728e-10
1.68873441135e-10
2.97144784489e-10
9.60846925972e-11
3.1101162409e-11
5.39781009719e-11
3.06531681952e-10
1.58237045077e-10
4.24424700785e-11
7.82529792202e-10
4.81202634074e-10
4.30314603055e-10
4.32901364455e-10
4.70346000718e-09
8.94855235926e-09
5.70620605686e-09
8.28871949145e-09
1.59083991706e-10
4.28236495484e-09
9.47972470777e-09
1.0380099333e-08
5.31921453717e-09
5.37215030385e-09
9.21276661235e-10
8.36142134379e-11
2.24780313276e-09
1.24868394463e-09
1.68981514194e-09
6.45557942819e-10
4.43247580614e-10
8.48737936474e-10
1.49275870515e-09
2.01131830382e-09
2.55362998644e-09
7.61526013849e-10
2.28675982663e-11
5.00744729274e-09
5.89288012684e-09
1.06463195901e-08
1.46996966611e-08
1.99962139761e-08
1.85907792023e-08
2.65806938193e-08
1.8048662189e-08
1.7355269392e-09
1.22366534642e-08
1.93000426101e-08
2.27515271139e-08
2.10970484028e-08
1.85855238077e-08
1.22361115374e-08
8.65944417403e-09
4.26220806192e-09
3.53168439173e-10
2.62464475374e-09
4.29829118069e-09
3.79802365985e-09
4.23154062511e-09
3.04226930158e-09
2.73684584367e-09
1.73123326904e-09
6.79543760404e-10
4.42704207318e-12
1.41864174285e-09
1.91401255836e-09
3.07883710721e-09
3.67011142408e-09
4.50201438675e-09
4.44117640935e-09
4.51400461023e-09
3.00637105957e-09
2.40397048638e-09
1.49443174431e-09
1.80059234492e-09
4.65497391747e-09
9.86700456178e-09
1.36909860519e-08
2.38253782007e-08
1.67483152547e-08
2.2113876558e-08
2.30921575347e-08
1.54362388703e-08
1.26483047899e-08
6.49156343466e-09
3.82187472697e-09
5.89498131804e-10
2.26182693769e-09
5.36438927035e-09
7.05427656428e-09
6.22488212127e-09
6.59400206338e-09
5.57244475703e-09
5.52501688645e-09
4.11507770339e-09
3.76634558454e-09
2.2595070892e-09
1.77059829846e-09
4.97387342843e-11
6.80464142914e-10
2.10358169355e-09
2.74846343871e-09
4.00382110289e-09
4.50779672898e-09
5.45436563606e-09
5.68976662583e-09
6.52767996506e-09
6.2204443928e-09
6.77528281552e-09
5.07376445646e-09
5.34513180701e-09
1.84107852431e-09
2.15336801456e-09
1.60857207166e-10
3.42438017727e-09
4.73453809328e-09
1.12765413684e-08
7.38524422828e-09
6.75150225906e-09
1.31073246279e-08
7.77401205195e-09
4.87729112813e-09
9.80661782707e-10
8.93211569386e-10
3.47281850768e-09
5.62808775022e-09
8.73103780607e-09
9.17013133776e-09
9.01289651779e-09
8.73978415578e-09
8.15032796524e-09
7.45115301244e-09
6.45706793715e-09
5.75462075685e-09
4.5712015666e-09
3.82936065192e-09
2.19936282886e-09
1.48269025402e-09
4.83446304453e-10
4.35340316941e-10
1.40550190044e-09
2.55730554035e-09
3.22921425013e-09
4.5458630817e-09
5.07981075693e-09
6.34725925839e-09
6.70928688196e-09
7.61895229112e-09
8.0863409358e-09
8.88067025269e-09
8.81990414721e-09
8.62888181288e-09
7.88748366849e-09
7.31478582019e-09
5.24395237919e-09
4.25477213337e-09
1.33816762037e-09
8.34392364097e-10
2.13916242374e-09
7.02436809791e-10
2.11162386822e-09
3.94831176454e-09
3.39379944551e-11
1.66222612643e-09
4.56522871009e-09
5.69402404872e-09
7.39870390727e-09
8.68080711762e-09
1.12053842682e-08
1.18031929777e-08
1.08876190918e-08
1.0792763107e-08
9.76648937498e-09
9.28050503868e-09
8.24766545583e-09
7.44068455344e-09
6.39416664203e-09
5.62878919976e-09
4.48325163991e-09
3.62983554958e-09
2.46662170551e-09
1.70143227142e-09
5.65435173257e-10
2.37074034357e-10
1.4950620235e-09
2.28616300743e-09
3.4064073135e-09
4.23650610983e-09
5.34648396507e-09
6.29323043811e-09
7.41526437055e-09
7.72125367493e-09
8.92681077608e-09
9.06160905986e-09
1.01854979403e-08
1.00279130132e-08
1.0788961033e-08
1.01390194151e-08
1.03181522935e-08
8.95188362657e-09
8.12623320439e-09
5.83312920659e-09
3.87344610186e-09
1.5855829902e-09
8.21715359957e-10
5.90645383114e-10
6.58961338289e-09
9.04745123219e-09
9.38527816427e-09
1.12802304144e-08
1.1962660578e-08
1.44864094098e-08
1.44685765187e-08
1.36051502994e-08
1.30081972543e-08
1.19737759742e-08
1.11924346056e-08
1.00711617479e-08
9.2015251856e-09
8.03823195428e-09
7.00856348163e-09
5.90967387202e-09
4.9528322126e-09
3.9429608258e-09
2.93532114901e-09
1.90422785508e-09
8.86692928114e-10
1.18257432837e-10
1.13221826483e-09
2.07668828897e-09
3.11378897924e-09
4.1158619547e-09
5.18106455031e-09
6.04691451833e-09
7.16175478472e-09
7.92603678601e-09
9.15022471883e-09
9.67770584343e-09
1.0893236084e-08
1.12201256059e-08
1.24078581371e-08
1.21460991156e-08
1.32436205689e-08
1.19318460921e-08
1.23091347946e-08
9.61739968007e-09
8.7911106644e-09
3.85491045531e-09
1.8415616993e-09
8.36409657626e-10
1.73559642936e-10
1.02573769604e-08
1.25655742374e-08
1.34515423904e-08
1.4864398543e-08
1.51983177343e-08
1.70104134959e-08
1.64788664367e-08
1.57726996598e-08
1.45611249074e-08
1.39689275964e-08
1.25746815645e-08
1.1771669652e-08
1.04051619012e-08
9.59452925583e-09
8.2851416657e-09
7.33699302187e-09
6.0724758843e-09
5.06321464155e-09
4.03677998459e-09
3.02657318383e-09
2.00088983883e-09
9.00273411853e-10
9.67331192654e-11
1.16577113837e-09
2.11484625258e-09
3.24759763046e-09
4.14176612749e-09
5.24420188955e-09
6.11261565592e-09
7.37430519033e-09
8.24924679605e-09
9.37913289209e-09
1.02346005085e-08
1.12462193378e-08
1.21381196281e-08
1.29026893647e-08
1.36025492204e-08
1.39897828409e-08
1.43743878937e-08
1.36549383609e-08
1.33208638911e-08
1.06583332563e-08
8.85989776242e-09
1.31349259093e-09
1.80495226127e-09
4.60628805522e-09
1.71159761447e-09
1.19187089922e-08
1.41834821391e-08
1.6081047959e-08
1.67991006785e-08
1.70612850753e-08
1.85039129631e-08
1.77605266316e-08
1.72420449172e-08
1.58813188699e-08
1.52593108164e-08
1.38807096383e-08
1.29857312801e-08
1.14741061558e-08
1.05702114644e-08
9.12964944586e-09
8.27055497567e-09
6.95528292555e-09
6.1388807972e-09
4.72676667022e-09
3.88042515458e-09
2.56894812477e-09
1.782710119e-09
5.87154669964e-10
2.73801938916e-10
1.42009562728e-09
2.3666535372e-09
3.54204669471e-09
4.38836971046e-09
5.56485588117e-09
6.49735106079e-09
7.68298341771e-09
8.57851908565e-09
9.68725001678e-09
1.05492610369e-08
1.16718388929e-08
1.25635027835e-08
1.36257840068e-08
1.416540155e-08
1.48581172478e-08
1.49513402117e-08
1.49190144753e-08
1.42316774859e-08
1.23150260929e-08
9.70072580684e-09
3.88999559993e-09
2.45103405816e-09
1.89643052956e-08
1.50101890239e-08
5.53489985979e-09
1.16030163599e-08
1.40478990579e-08
1.72327930484e-08
1.82643713735e-08
1.8691771536e-08
1.18826574412e-08
5.83951536435e-09
1.14536373508e-08
5.52389873147e-09
1.03706172021e-08
4.8655959176e-09
9.09464676297e-09
4.14713705162e-09
7.56341886651e-09
3.30784988107e-09
5.99587457177e-09
2.50379900639e-09
4.5350777195e-09
1.82877045726e-09
3.06822340821e-09
1.03762764106e-09
1.59801641311e-09
4.13024627249e-10
3.89388388326e-10
1.99494328496e-10
1.0589599214e-09
1.0913165943e-09
2.4542997756e-09
1.70425634589e-09
3.8022545635e-09
2.40840352808e-09
5.27691158384e-09
3.18746689147e-09
6.68050961815e-09
3.87850779873e-09
8.04024369389e-09
4.59288222756e-09
9.44403628047e-09
5.25489779457e-09
1.04269292739e-08
5.6323246298e-09
1.06270663013e-08
5.54987195284e-09
9.1071678324e-09
4.33384784572e-09
3.86456515574e-09
5.86904752119e-10
1.14109842797e-08
1.03404607875e-08
5.2583005858e-09
7.5925367541e-10
6.2747405397e-09
4.81389133742e-09
1.16245096781e-08
6.02062928476e-10
6.35441223824e-10
3.91411633513e-10
3.30521470249e-10
1.70649365428e-10
1.26690434402e-10
8.11262242016e-11
5.02073840667e-11
3.86294585124e-11
2.3901510538e-11
1.86804295325e-11
6.30053210663e-11
1.25727981271e-12
6.07620004762e-11
4.67415207681e-11
9.31313401875e-11
8.97864695633e-11
4.04499781997e-11
5.63885288909e-11
1.20216663532e-10
4.35939642018e-11
1.63721613775e-10
4.10738945259e-12
8.9105428228e-11
6.71594939781e-12
1.15898389036e-10
2.38136438258e-11
5.26922875204e-11
7.07778737833e-11
3.03243391689e-11
4.42277306987e-11
4.2392544972e-11
6.52769539581e-12
1.09402483034e-10
3.37234977643e-11
3.03984694642e-10
2.54043007468e-10
5.61253129168e-10
4.91946218261e-10
4.9966690767e-10
1.12090021233e-09
1.11025307566e-09
2.3034972851e-09
2.38759985237e-09
1.17590360935e-09
1.05869257568e-09
5.23009473582e-10
7.26022383536e-10
6.74630951473e-10
4.23579790626e-10
3.8035638164e-10
1.67875187306e-10
1.6513979682e-10
7.83641571415e-11
5.29387295216e-11
4.04548411939e-11
5.50047884424e-13
2.04087765952e-11
3.57812306572e-11
3.52152167827e-11
1.69116076463e-11
2.15576729822e-12
1.15266572683e-10
6.42977300141e-11
9.1043654131e-11
1.52510091411e-11
3.01530226301e-11
6.27321757719e-12
1.65538875462e-11
1.53447864299e-11
7.88812477247e-11
4.89714382681e-11
3.61549747164e-11
1.29364148111e-11
4.71887048054e-11
2.40315139111e-12
2.45692808148e-11
6.7647329953e-11
8.04560183218e-11
1.47435857276e-10
2.93506023952e-10
3.83408967096e-10
6.16602882262e-10
7.14623154297e-10
6.91897443389e-10
1.40285929589e-09
1.54169020536e-09
2.94512457921e-09
2.82331175645e-09
1.64180484085e-09
1.30645136934e-09
6.92857017374e-10
8.4205633803e-10
7.60292454529e-10
4.73735467526e-10
3.89220302757e-10
2.26388694037e-10
1.66421545408e-10
1.37871570297e-10
5.8193422816e-11
7.83566990473e-11
7.11993971278e-12
8.87866115019e-11
8.85345153288e-12
1.01428724658e-10
4.74798159008e-11
4.19564321483e-11
7.18262978051e-11
6.50330179824e-11
7.31805992172e-11
2.31997516358e-11
1.14710379494e-10
9.8843610581e-12
9.65691583997e-11
7.5499700753e-11
9.05154908273e-11
4.9048850623e-11
1.60033613037e-10
1.59507519949e-11
1.57574510317e-10
6.43117011782e-12
1.74701583404e-10
1.84845022061e-10
3.02720916272e-10
3.87754036845e-10
4.62918522137e-10
8.18167197976e-10
1.02011824102e-09
1.65289395533e-09
2.87512028536e-09
3.441017327e-09
2.06888931493e-09
1.49711331422e-09
7.38684418311e-10
9.72293577891e-10
8.7863657361e-10
5.04303191324e-10
4.5898980456e-10
2.19073650047e-10
1.85895887877e-10
1.76779563409e-10
6.92398020381e-11
1.87573869708e-10
2.40278196113e-11
1.352026154e-10
9.50776422782e-11
5.60816997334e-11
4.5453434617e-11
6.55600463343e-11
9.88096542822e-11
4.42883126026e-11
1.70039748966e-10
8.53851554503e-12
1.72742608639e-10
3.31578860394e-11
1.68850940093e-10
3.90656042322e-11
1.16856473949e-11
1.68607091653e-10
1.61261834158e-10
1.84598681113e-10
3.66325452626e-10
3.31570371597e-10
7.41594400749e-10
7.24041686119e-10
1.26371321207e-09
1.84142393183e-09
3.30342338595e-09
3.96236640196e-09
2.81783800992e-09
1.71868726235e-09
8.57438057453e-10
1.11247474325e-09
8.57754633056e-10
5.00381513651e-10
3.80392941889e-10
2.83535128985e-10
2.21711261327e-10
1.88342816358e-10
9.7171227188e-11
1.39181383338e-10
2.48920290977e-11
2.49577899743e-10
7.70175663339e-11
1.44315605833e-10
8.39163114029e-11
3.6818958839e-11
1.78870417244e-10
1.61801207748e-11
1.35964547611e-10
1.10206006671e-10
2.38634179071e-10
2.49679945179e-10
2.98764756869e-10
4.22209462378e-10
5.06481420012e-10
8.19705175772e-10
1.085814808e-09
1.0245632926e-09
1.97178224276e-09
3.35016612946e-09
4.02130747532e-09
4.20878645224e-09
3.60239425615e-09
1.78728105145e-09
1.07025964101e-09
1.23373696035e-09
1.11911529317e-09
5.46373317834e-10
5.78377315711e-10
1.95126990712e-10
1.75944158052e-10
2.23961709498e-10
1.12534860958e-10
1.37278071277e-10
2.44191376948e-10
1.91699169084e-10
2.76923534806e-10
1.56907085415e-10
1.43797379044e-10
2.46393231231e-10
2.29986176018e-10
2.23486625757e-10
4.61301708612e-10
5.12052458382e-10
1.01503838228e-09
1.09760151215e-09
1.1646890125e-09
1.96243160804e-09
4.76141756063e-09
4.83892417455e-09
1.99431437993e-09
1.10730743865e-09
1.20684690246e-09
1.07694496879e-09
5.76660468221e-10
5.72963980815e-10
3.2473499635e-10
4.22415059658e-10
5.48020365989e-10
4.84700670792e-10
4.47355708978e-10
3.38673855865e-10
3.22690869655e-10
4.80385383401e-10
4.30861106427e-10
1.07173192342e-09
1.18088991209e-09
1.29673217811e-09
2.84867437426e-09
6.32685286169e-09
1.43897546917e-09
5.46444347986e-09
1.32572247454e-09
3.38780211222e-09
3.61591136388e-09
6.15817356214e-10
3.20874001052e-09
2.61781657687e-09
3.94503084871e-08
2.00863166855e-08
2.55000266667e-08
6.59815337752e-08
6.25923316104e-09
7.96899159315e-09
1.36690102671e-08
1.516190008e-08
8.08933985854e-10
3.15871509817e-09
3.37652526429e-08
4.74859466106e-08
1.5645236068e-08
3.46448795977e-09
1.4936026897e-08
5.59157832193e-08
1.43997027247e-08
1.53257076147e-08
1.4766415791e-08
1.28921307269e-08
1.91153144895e-08
1.32879904877e-08
3.47859008906e-10
2.59062332785e-10
4.70660566314e-10
1.14852980761e-09
6.77080440095e-09
7.76388416916e-09
1.40108234747e-09
3.68360824014e-09
2.45371024043e-09
4.9200099775e-09
4.96580546414e-09
1.93015564224e-09
4.50967471814e-09
1.38277816303e-10
6.23532711887e-09
5.59976372478e-09
5.56948596635e-09
4.05469437618e-09
4.48175169696e-09
1.25023878473e-10
5.11715129584e-09
2.76780977978e-09
3.92154788704e-10
7.14310242292e-10
1.2226823357e-09
1.35714315353e-08
2.15984760275e-07
1.74564999707e-07
1.13631487881e-07
5.74939553458e-09
1.10670212787e-08
1.35738241916e-08
9.50820948657e-09
1.7824037735e-08
3.95392175413e-09
5.57102443748e-09
3.67998703437e-10
5.71821063866e-10
1.42294800035e-09
2.38484298135e-09
3.90289804696e-09
2.15650399924e-09
4.6527529123e-09
4.38280875738e-10
3.12981142718e-09
2.01800207873e-09
5.17904015625e-10
4.88602278018e-09
6.04821308935e-10
3.17024205922e-09
4.71927765603e-09
2.14379470924e-09
3.11305098272e-09
3.70141808804e-10
4.0169615689e-10
9.66064898081e-10
9.23481486587e-10
5.33252511059e-10
1.12693164219e-10
7.59923008275e-08
2.04671230634e-07
1.42595214796e-07
5.09898501587e-08
3.48278074186e-08
2.44837849674e-08
2.9806931629e-06
2.94730193768e-06
8.99790611813e-07
1.00417145054e-06
3.52920362193e-07
2.33729370164e-07
1.76230758336e-07
4.82652073816e-09
1.03516882444e-06
2.99668754749e-07
5.12390075113e-07
3.77288651701e-07
9.39742538954e-07
1.36818531285e-07
9.57005504175e-08
5.22544134665e-07
9.23063409029e-07
3.64658023555e-08
3.34824099102e-07
6.97847527926e-08
8.19182422145e-09
4.17211152492e-09
1.00118834689e-07
1.40270816684e-07
3.18413932757e-07
6.77396979218e-07
6.33439215223e-07
8.93419978928e-07
6.77362704227e-07
6.32097205301e-07
6.64220609378e-07
6.41340537503e-07
9.80913460254e-07
6.55196384307e-07
6.21439020607e-07
2.84780329621e-07
2.95656474494e-07
8.43539905686e-08
1.00868550104e-07
4.14227030017e-08
8.77098942742e-09
1.00383626192e-07
3.66650679798e-08
1.04532130703e-07
2.89471919764e-08
9.51670491173e-08
3.93763960627e-08
2.43071221226e-08
6.6038838264e-08
1.26017583762e-07
2.74877909912e-07
3.24656575043e-07
3.49698510281e-07
3.56554050297e-07
4.83527882592e-07
6.07569784354e-07
8.50078441269e-07
8.89143214057e-07
1.05095588396e-06
8.56162704184e-07
7.65860369387e-07
6.02828496807e-07
4.71487508528e-07
3.63557034892e-07
2.25925466646e-07
1.64290268774e-07
4.86273877006e-08
2.53905620811e-08
2.52819791259e-07
2.462093682e-07
2.20157999206e-07
1.99525417506e-07
1.59509657094e-07
1.22461057534e-07
6.4159643536e-08
1.0573383053e-08
7.00530898017e-08
1.25671814615e-07
2.27872960286e-07
2.6468459985e-07
3.77657982276e-07
3.78326241596e-07
4.7974027528e-07
4.24877555127e-07
6.05382458602e-07
6.1411218094e-07
7.3583192686e-07
6.1150170044e-07
5.78553818936e-07
4.82216821386e-07
3.95202195322e-07
3.25623902468e-07
2.26779791549e-07
1.92890302736e-07
1.01298889634e-07
1.00242076489e-07
2.01930206351e-07
2.2479509068e-07
1.89380075717e-07
1.8507607778e-07
1.34151209012e-07
1.12826181438e-07
5.23093474792e-08
1.44345643742e-08
4.69864844624e-08
9.75658297026e-08
1.45914482662e-07
2.02867658834e-07
2.2488840865e-07
2.81290359589e-07
2.59214633979e-07
2.98722803252e-07
3.22230786176e-07
4.51315105338e-07
4.66682077247e-07
4.95803870815e-07
4.13274708258e-07
4.17816276393e-07
3.27250817503e-07
3.05894670043e-07
2.3949381044e-07
2.1029454831e-07
1.79612788048e-07
1.48312451528e-07
1.40055221338e-07
1.13558566781e-07
1.38889684894e-07
1.03806397576e-07
9.93265943202e-08
5.92236157778e-08
3.37683027465e-08
2.66075024431e-09
4.16698252676e-08
6.74091635003e-08
1.13324692187e-07
1.17070040636e-07
1.6165554111e-07
1.31784340549e-07
1.63007352032e-07
1.59180755869e-07
2.69915495536e-07
2.94295108044e-07
3.48562979071e-07
2.91257011878e-07
3.11428463072e-07
2.56679021459e-07
2.58672116104e-07
2.21345110078e-07
2.13156029779e-07
1.99821499706e-07
1.87101340602e-07
4.43034638104e-09
4.7893727915e-08
3.44554782196e-08
5.6196201375e-08
3.04351826119e-08
3.30155723065e-08
6.40407126027e-09
2.03092592889e-09
3.34444553003e-08
3.12410731558e-08
6.02215052158e-08
3.03796145162e-08
5.03708229374e-08
5.20124852209e-08
1.24983324724e-07
1.51620421538e-07
1.98875320928e-07
1.89812513064e-07
2.16844505211e-07
1.93839052841e-07
2.03602702911e-07
1.87448242132e-07
1.94574929496e-07
2.0195440657e-07
2.09013386614e-07
4.50203979496e-08
4.6792314224e-08
1.11169250554e-08
1.26697794623e-08
1.5143970744e-09
7.592484082e-09
2.78323746271e-09
2.82470918891e-08
1.17931499322e-08
1.12844144117e-09
1.56999489429e-08
4.05578396372e-08
8.01815239434e-08
1.10923094938e-07
1.16469492845e-07
1.38745617848e-07
1.31229892111e-07
1.50145241721e-07
1.45983469341e-07
1.65417016728e-07
1.70744910901e-07
1.93613238266e-07
7.05352892981e-08
1.82213943366e-08
5.13977624547e-09
1.94911926056e-08
2.39711450886e-08
2.90845256622e-08
2.32367758254e-09
2.08366493902e-08
7.16050558338e-08
8.00664385696e-08
9.27001180263e-08
7.9126786932e-08
8.93363052616e-08
5.67966315976e-08
9.0578379486e-08
1.03380893665e-07
1.59834308632e-07
4.20335514827e-07
1.3368649317e-06
2.43889014883e-07
2.72533063366e-07
1.01740027246e-05
4.73506709757e-06
3.36501714169e-06
3.34544472728e-06
4.73068978431e-06
8.83146817978e-06
6.9137921315e-06
4.03046982396e-08
4.57471109339e-08
1.29578000026e-07
6.50824929942e-08
1.58497363014e-07
8.05437185065e-08
1.61212569602e-07
7.16356235734e-08