# vtk DataFile Version 3.0
File Name: Molecule/methanol/methanol_1.0-6.vtk
ASCII
DATASET UNSTRUCTURED_GRID
FIELD FieldData 1
TIME 1 1 double
0.0
POINTS 69 double
1.0955553055 -1.2280957699 -0.25916299224
0.016540244222 -1.679736495 -0.18576191366
0.91247868538 -1.1227629185 -0.88651615381
-0.12083455175 -1.5032895803 -0.94142872095
-1.1651206017 -1.0958977938 -0.71265137196
-1.2175383568 -1.2289223671 -0.03506064415
-1.7298318148 -0.00087565695867 -0.019702035934
-1.6391501427 -0.00024666520767 -0.7740278244
-1.1645817757 1.0885516405 -0.72112822533
-1.2069630623 1.2284700871 -0.061051439494
-0.12734141946 1.5168684721 -0.91867035627
0.027510112152 1.6841832399 -0.17316129804
1.0853278637 1.2363696098 -0.26020535827
0.91319215298 1.1234728098 -0.88038116693
1.9056156874 0.00031990360003 0.67656475306
1.5796159506 1.0587542057 0.64942419529
1.5741080046 0.50541871786 1.5979315042
1.5738492012 -0.57919836044 1.5532975197
1.5780208111 -1.0598573685 0.72874873877
0.58018243313 1.4501444101 1.7181038857
0.56850266457 0.55005782843 2.3730237484
0.59059464931 -0.55135452747 2.3635675907
0.5796200037 -1.4502398968 1.7188392878
0.57155430317 -1.8037773371 0.66056156158
0.57140535116 1.8035904169 0.65988010168
-0.54301482439 1.4604768753 1.7031911612
-0.53056561947 0.56967204809 2.3673057556
-0.53592264652 -0.55683273077 2.3699603081
-0.54105681181 -1.4606659412 1.7052475214
-0.54200464487 -1.8023717403 0.64525020123
-0.54198294878 1.8028174639 0.64237707853
-1.5411095619 1.0561776161 0.67664980888
-1.535490036 0.50541180372 1.5980428457
-1.537307024 -0.57840675116 1.5513042212
-1.5405967236 -1.0541495085 0.74962168932
-1.8628698587 -0.00036889844341 0.69526219368
1.6694005728 -0.011059048586 -0.23044791818
1.3554797173 0.62851274014 -0.57885169983
-0.14581018686 0.28670755029 -2.2405731678
-0.12697137892 -0.76553934813 -2.0668694973
-1.1434898376 -0.61397385597 -1.7001972198
-1.1471489668 0.61176973581 -1.7003760338
-0.14792345464 1.1618219614 -1.7309225798
0.51685649157 -0.67822891474 -1.9534238577
0.36858445406 0.16291967034 -2.1760776043
1.2700113058 0.33508321643 -1.2890719175
1.121602416 0.12921389937 -1.6293901205
0.90381383896 0.62504190207 -1.6942142248
1.2710322142 -0.0031429370865 -1.385006547
1.1279038191 -0.18919400871 -1.6115505695
1.2771933079 -0.33388701081 -1.2772949934
0.89391696453 -0.022536406294 -1.8860658407
1.3874263763 -0.16300836205 -0.99810731411
1.3407764435 0.065059512854 -1.200951457
1.0081059933 -0.4781562984 -1.6610883474
1.4645588398 0.010398558341 -0.66894072294
1.3063489199 -0.61020851135 -0.76623177528
1.3618764877 0.23221492767 -1.0898571014
1.2761445045 0.59877532721 -0.93377280235
1.1201754808 0.76772910357 -1.2105311155
1.0108160973 -0.82679611444 -1.3588426113
1.1349874735 -0.81066185236 -1.1037018299
0.5065331459 -1.0857615471 -1.6252872944
0.35871431231 0.51999372244 -2.0978267193
0.3621108532 0.93380820751 -1.8547878265
-0.12107100338 0.76848888397 -2.0659937859
0.49552404881 1.252816081 -1.3738926649
0.89300537109 0.96259880066 -1.3662273884
0.88450974226 0.32341572642 -1.8489243984

CELLS 134 536
3 0 1 2
3 2 1 3
3 3 1 4
3 5 4 1
3 5 6 4
3 4 6 7
3 7 6 8
3 9 8 6
3 8 9 10
3 11 10 9
3 12 13 11
3 10 11 13
3 14 15 16
3 14 16 17
3 14 17 18
3 16 15 19
3 16 19 20
3 16 20 21
3 17 16 21
3 17 21 22
3 18 17 22
3 18 22 23
3 15 24 19
3 19 24 25
3 19 25 26
3 20 19 26
3 20 26 27
3 21 20 27
3 22 21 27
3 22 27 28
3 22 28 23
3 29 23 28
3 24 30 25
3 25 30 31
3 25 31 32
3 26 25 32
3 26 32 27
3 33 27 32
3 28 27 33
3 28 33 34
3 29 28 34
3 32 31 35
3 33 32 35
3 34 33 35
3 34 35 6
3 34 6 5
3 34 5 29
3 29 5 1
3 29 1 23
3 23 1 0
3 23 0 18
3 18 0 36
3 18 36 14
3 14 36 15
3 12 15 37
3 15 12 24
3 24 12 11
3 24 11 30
3 30 11 9
3 30 9 31
3 31 9 6
3 31 6 35
3 38 39 40
3 38 40 41
3 42 41 8
3 42 8 10
3 39 3 40
3 40 3 4
3 40 4 7
3 40 7 41
3 41 7 8
3 43 39 44
3 45 46 47
3 45 48 46
3 48 49 46
3 48 50 49
3 46 49 51
3 52 50 53
3 51 49 54
3 49 50 54
3 55 36 56
3 36 37 15
3 12 37 13
3 53 57 52
3 58 37 55
3 58 13 37
3 55 37 36
3 58 55 57
3 59 58 45
3 57 45 58
3 58 59 13
3 59 45 47
3 48 45 53
3 57 53 45
3 2 56 0
3 0 56 36
3 54 50 60
3 2 61 56
3 52 56 50
3 61 50 56
3 56 52 55
3 55 52 57
3 48 53 50
3 54 43 51
3 60 62 54
3 43 54 62
3 60 2 62
3 43 62 39
3 39 62 3
3 62 2 3
3 2 60 61
3 61 60 50
3 47 63 64
3 63 65 64
3 63 38 65
3 64 65 42
3 42 65 41
3 65 38 41
3 13 66 10
3 10 66 42
3 42 66 64
3 66 67 64
3 66 13 67
3 64 67 47
3 47 68 63
3 68 44 63
3 68 51 44
3 63 44 38
3 51 68 46
3 46 68 47
3 47 67 59
3 59 67 13
3 38 44 39
3 43 44 51

CELL_TYPES 134
5
5
5
5
5
5
5
5
5
5
5
5
5
5
5
5
5
5
5
5
5
5
5
5
5
5
5
5
5
5
5
5
5
5
5
5
5
5
5
5
5
5
5
5
5
5
5
5
5
5
5
5
5
5
5
5
5
5
5
5
5
5
5
5
5
5
5
5
5
5
5
5
5
5
5
5
5
5
5
5
5
5
5
5
5
5
5
5
5
5
5
5
5
5
5
5
5
5
5
5
5
5
5
5
5
5
5
5
5
5
5
5
5
5
5
5
5
5
5
5
5
5
5
5
5
5
5
5
5
5
5
5
5
5

CELL_DATA 134
SCALARS cell_data_0 double
LOOKUP_TABLE default
1.85468694402e-07
4.10450133955e-07
5.29880736508e-07
5.95668709588e-07
1.06190387748e-06
1.18391445587e-06
1.56820652783e-07
1.74757094765e-07
6.55367082723e-07
1.03553106604e-06
2.33491535898e-07
6.20189335658e-07
4.48332813453e-08
5.28007884887e-08
1.128457461e-07
1.29136192331e-07
1.16409762481e-07
1.48794295983e-07
1.84332209786e-07
1.44307761081e-08
1.50959465314e-08
1.07545258185e-07
2.07005463981e-08
5.35174864769e-08
6.70331603858e-08
3.23732973475e-08
3.71625952934e-09
7.94524663529e-08
3.54098540367e-08
6.24605125586e-08
1.24330854986e-08
2.34205253978e-08
1.02438100018e-08
9.21723361738e-08
9.8762548553e-08
3.67671931111e-08
5.63309532174e-08
1.37565333048e-07
2.48098533119e-08
8.01358605142e-08
3.00351429501e-08
1.10626178189e-07
1.6726016331e-08
6.66832895998e-08
1.8825699522e-07
3.297077498e-07
3.48456222983e-08
3.23851916328e-07
1.77285618652e-08
1.41228480982e-07
1.25033245427e-07
8.86382577284e-07
7.80846313774e-08
1.02850769425e-07
2.58352673062e-07
1.4876351365e-07
1.80362985758e-07
2.2928369198e-08
3.30837913776e-07
4.25503589886e-08
3.7440127932e-07
2.20556364372e-07
2.40946092286e-07
3.38947765008e-06
2.22677747458e-06
1.20224878772e-06
3.64681336052e-06
6.89238737152e-07
1.13154571055e-06
3.37028224301e-07
7.25711412032e-07
2.85613710888e-07
4.07379296553e-06
7.88477591744e-07
4.21262034529e-07
6.13257930633e-07
8.64777864537e-07
1.2583812043e-06
3.74946781933e-07
1.05636047728e-06
1.533678336e-07
2.84182498662e-08
6.16643718432e-07
7.32180026605e-08
1.76054335162e-06
3.90334129744e-07
4.67512119653e-07
1.58711710188e-06
1.00048216319e-06
1.28389195822e-06
2.69456407662e-07
1.66111067227e-06
7.16545410932e-07
9.65479450264e-07
1.78118922488e-07
1.49949642045e-07
1.86155694167e-06
7.66560426966e-07
1.26162949572e-07
1.32731276671e-07
5.8485777499e-07
6.0885050988e-07
3.64160138027e-07
2.32488303909e-06
8.89993011652e-08
1.3522729307e-07
7.58998017662e-07
6.83013692034e-08
4.94510396538e-08
5.69881883373e-07
2.80576792915e-07
1.45099678369e-07
4.65111666843e-07
7.16002230213e-08
1.41067194127e-07
1.71632330418e-07
1.04234300212e-07
1.17503597495e-07
5.02844857991e-07
5.30565593157e-07
3.73486975879e-08
7.46059305865e-08
1.76933295673e-07
3.20444672871e-07
5.64698369798e-07
6.18966041567e-07
3.0873712997e-07
3.03812261697e-09
4.45627381802e-07
4.38352398963e-07
3.83211054661e-07
3.07559114305e-07
1.23729512854e-07
1.02368903897e-06

