# vtk DataFile Version 3.0
File Name: Molecule/methanol/methanol_6.25-1.vtk
ASCII
DATASET UNSTRUCTURED_GRID
FIELD FieldData 1
TIME 1 1 double
0.0
POINTS 299 double
1.554 -0.436 -0.353
1.386 -0.842 -0.336
1.351 -0.397 -0.928
1.198 -0.767 -0.912
1.12 -1.191 -0.31
0.956 -1.085 -0.888
0.773 -1.459 -0.275
0.639 -1.329 -0.857
0.368 -1.627 -0.235
0.271 -1.482 -0.82
-0.065 -1.684 -0.192
-0.124 -1.534 -0.781
-0.499 -1.627 -0.149
-0.519 -1.482 -0.741
-0.903 -1.459 -0.108
-0.887 -1.329 -0.705
-1.251 -1.191 -0.074
-1.204 -1.085 -0.673
-1.517 -0.842 -0.047
-1.446 -0.767 -0.649
-1.684 -0.436 -0.031
-1.599 -0.397 -0.634
-1.742 0.0 -0.025
-1.651 0.0 -0.629
-1.684 0.436 -0.031
-1.599 0.397 -0.634
-1.517 0.842 -0.047
-1.446 0.767 -0.649
-1.251 1.191 -0.074
-1.204 1.085 -0.673
-0.903 1.459 -0.108
-0.887 1.329 -0.705
-0.499 1.627 -0.149
-0.519 1.482 -0.741
-0.065 1.684 -0.192
-0.124 1.534 -0.781
0.368 1.627 -0.235
0.271 1.482 -0.82
0.773 1.459 -0.275
0.639 1.329 -0.857
1.12 1.191 -0.31
0.956 1.085 -0.888
1.386 0.842 -0.336
1.198 0.767 -0.912
1.554 0.436 -0.353
1.351 0.397 -0.928
1.611 0.0 -0.359
1.907 0.0 0.656
1.859 0.42 0.656
1.859 0.21 1.019
1.859 -0.21 1.019
1.859 -0.42 0.656
1.859 -0.21 0.292
1.859 0.21 0.292
1.72 0.709 1.065
1.72 0.409 1.365
1.72 -0.0 1.475
1.72 -0.409 1.365
1.72 -0.709 1.065
1.72 -0.819 0.656
1.72 -0.709 0.246
1.72 -0.409 -0.054
1.72 -0.0 -0.163
1.72 0.409 -0.054
1.72 0.709 0.246
1.72 0.819 0.656
1.495 1.106 1.058
1.495 0.902 1.412
1.495 0.588 1.675
1.495 0.204 1.815
1.495 -0.204 1.815
1.495 -0.588 1.675
1.495 -0.902 1.412
1.495 -1.106 1.058
1.495 -1.177 0.656
1.495 -1.106 0.253
1.495 -0.902 -0.101
1.495 0.902 -0.101
1.495 1.106 0.253
1.495 1.177 0.656
1.196 1.416 1.071
1.196 1.241 1.453
1.196 0.966 1.771
1.196 0.613 1.998
1.196 0.21 2.116
1.196 -0.21 2.116
1.196 -0.613 1.998
1.196 -0.966 1.771
1.196 -1.241 1.453
1.196 -1.416 1.071
1.196 -1.476 0.656
1.196 -1.416 0.24
1.196 1.416 0.24
1.196 1.476 0.656
0.838 1.651 1.063
0.838 1.506 1.446
0.838 1.273 1.783
0.838 0.966 2.055
0.838 0.603 2.246
0.838 0.205 2.344
0.838 -0.205 2.344
0.838 -0.603 2.246
0.838 -0.966 2.055
0.838 -1.273 1.783
0.838 -1.506 1.446
0.838 -1.651 1.063
0.838 -1.701 0.656
0.838 -1.651 0.249
0.838 1.651 0.249
0.838 1.701 0.656
0.439 1.794 1.065
0.439 1.658 1.454
0.439 1.439 1.803
0.439 1.147 2.094
0.439 0.798 2.314
0.439 0.409 2.45
0.439 0.0 2.496
0.439 -0.409 2.45
0.439 -0.798 2.314
0.439 -1.147 2.094
0.439 -1.439 1.803
0.439 -1.658 1.454
0.439 -1.794 1.065
0.439 -1.84 0.656
0.439 -1.794 0.246
0.439 1.794 0.246
0.439 1.84 0.656
0.019 1.843 1.061
0.019 1.713 1.448
0.019 1.503 1.798
0.019 1.222 2.094
0.019 0.884 2.323
0.019 0.505 2.474
0.019 0.102 2.54
0.019 -0.305 2.518
0.019 -0.699 2.409
0.019 -1.059 2.218
0.019 -1.37 1.954
0.019 -1.617 1.629
0.019 -1.789 1.258
0.019 -1.876 0.86
0.019 -1.876 0.452
0.019 -1.789 0.053
0.019 1.843 0.25
0.019 1.888 0.656
-0.401 1.84 0.656
-0.401 1.794 1.065
-0.401 1.658 1.454
-0.401 1.439 1.803
-0.401 1.147 2.094
-0.401 0.798 2.314
-0.401 0.409 2.45
-0.401 0.0 2.496
-0.401 -0.409 2.45
-0.401 -0.798 2.314
-0.401 -1.147 2.094
-0.401 -1.439 1.803
-0.401 -1.658 1.454
-0.401 -1.794 1.065
-0.401 -1.84 0.656
-0.401 -1.794 0.246
-0.401 1.794 0.246
-0.8 1.701 0.656
-0.8 1.651 1.063
-0.8 1.506 1.446
-0.8 1.273 1.783
-0.8 0.966 2.055
-0.8 0.603 2.246
-0.8 0.205 2.344
-0.8 -0.205 2.344
-0.8 -0.603 2.246
-0.8 -0.966 2.055
-0.8 -1.273 1.783
-0.8 -1.506 1.446
-0.8 -1.651 1.063
-0.8 -1.701 0.656
-0.8 -1.651 0.249
-0.8 1.651 0.249
-1.158 1.476 0.656
-1.158 1.416 1.071
-1.158 1.241 1.453
-1.158 0.966 1.771
-1.158 0.613 1.998
-1.158 0.21 2.116
-1.158 -0.21 2.116
-1.158 -0.613 1.998
-1.158 -0.966 1.771
-1.158 -1.241 1.453
-1.158 -1.416 1.071
-1.158 -1.476 0.656
-1.158 -1.416 0.24
-1.158 1.416 0.24
-1.457 1.177 0.656
-1.457 1.106 1.058
-1.457 0.902 1.412
-1.457 0.588 1.675
-1.457 0.204 1.815
-1.457 -0.204 1.815
-1.457 -0.588 1.675
-1.457 -0.902 1.412
-1.457 -1.106 1.058
-1.457 -1.177 0.656
-1.457 -1.106 0.253
-1.457 1.106 0.253
-1.682 0.819 0.656
-1.682 0.709 1.065
-1.682 0.409 1.365
-1.682 -0.0 1.475
-1.682 -0.409 1.365
-1.682 -0.709 1.065
-1.682 -0.819 0.656
-1.682 -0.709 0.246
-1.682 0.709 0.246
-1.821 0.42 0.656
-1.821 0.21 1.019
-1.821 -0.21 1.019
-1.821 -0.42 0.656
-1.821 -0.21 0.292
-1.821 0.21 0.292
-1.868 -0.0 0.656
1.21 -0.665 -1.121
0.966 -1.003 -1.153
0.966 -0.768 -1.505
1.21 -0.384 -1.402
0.966 -0.415 -1.74
1.21 -0.0 -1.505
0.966 0.0 -1.823
0.966 0.415 -1.74
1.21 0.384 -1.402
0.966 0.768 -1.505
1.21 0.665 -1.121
0.966 1.003 -1.153
0.648 -1.264 -1.148
0.648 -1.075 -1.519
0.648 -0.781 -1.813
0.648 -0.411 -2.001
0.648 0.0 -2.067
0.648 0.411 -2.001
0.648 0.781 -1.813
0.648 1.075 -1.519
0.648 1.264 -1.148
0.278 -1.36 -1.328
0.278 -1.15 -1.673
0.278 -0.855 -1.949
0.278 -0.497 -2.134
0.278 -0.101 -2.216
0.278 0.302 -2.189
0.278 0.682 -2.054
0.278 1.012 -1.821
0.278 1.267 -1.508
0.278 1.428 -1.137
-0.12 -1.483 -1.134
-0.12 -1.329 -1.505
-0.12 -1.085 -1.823
-0.12 -0.768 -2.067
-0.12 -0.397 -2.22
-0.12 -0.0 -2.272
-0.12 0.397 -2.22
-0.12 0.767 -2.067
-0.12 1.085 -1.823
-0.12 1.329 -1.505
-0.12 1.483 -1.134
-0.517 -1.36 -1.328
-0.517 -1.15 -1.673
-0.517 -0.855 -1.949
-0.517 -0.497 -2.134
-0.517 -0.101 -2.216
-0.517 0.302 -2.189
-0.517 0.682 -2.054
-0.517 1.012 -1.821
-0.517 1.267 -1.508
-0.517 1.428 -1.137
-0.887 -1.264 -1.148
-0.887 -1.075 -1.519
-0.887 -0.781 -1.813
-0.887 -0.411 -2.001
-0.887 0.0 -2.067
-0.887 0.411 -2.001
-0.887 0.781 -1.813
-0.887 1.075 -1.519
-0.887 1.264 -1.148
-1.205 -1.003 -1.153
-1.205 -0.768 -1.505
-1.205 -0.415 -1.74
-1.205 0.0 -1.823
-1.205 0.415 -1.74
-1.205 0.768 -1.505
-1.205 1.003 -1.153
-1.449 -0.665 -1.121
-1.449 -0.384 -1.402
-1.449 -0.0 -1.505
-1.449 0.384 -1.402
-1.449 0.665 -1.121
-1.602 -0.199 -1.081
-1.602 0.199 -1.081
1.403 0.0 -0.933
1.5825 -0.218 -0.356
1.507 0.0 -0.646
1.4785 -0.218 -0.643

CELLS 594 2376
3 0 1 2
3 2 1 3
3 1 4 3
3 3 4 5
3 4 6 5
3 5 6 7
3 6 8 7
3 7 8 9
3 8 10 9
3 9 10 11
3 10 12 11
3 11 12 13
3 12 14 13
3 13 14 15
3 14 16 15
3 15 16 17
3 16 18 17
3 17 18 19
3 18 20 19
3 19 20 21
3 20 22 21
3 21 22 23
3 22 24 23
3 23 24 25
3 24 26 25
3 25 26 27
3 26 28 27
3 27 28 29
3 28 30 29
3 29 30 31
3 30 32 31
3 31 32 33
3 32 34 33
3 33 34 35
3 34 36 35
3 35 36 37
3 36 38 37
3 37 38 39
3 38 40 39
3 39 40 41
3 40 42 41
3 41 42 43
3 42 44 43
3 43 44 45
3 44 46 45
3 47 48 49
3 47 49 50
3 47 50 51
3 47 51 52
3 47 52 53
3 47 53 48
3 49 48 54
3 49 54 55
3 49 55 56
3 50 49 56
3 50 56 57
3 50 57 58
3 51 50 58
3 51 58 59
3 51 59 60
3 52 51 60
3 52 60 61
3 52 61 62
3 53 52 62
3 53 62 63
3 53 63 64
3 48 53 64
3 48 64 65
3 48 65 54
3 54 65 66
3 54 66 67
3 55 54 67
3 55 67 68
3 55 68 69
3 56 55 69
3 56 69 70
3 57 56 70
3 57 70 71
3 57 71 72
3 58 57 72
3 58 72 73
3 59 58 73
3 59 73 74
3 59 74 75
3 60 59 75
3 60 75 76
3 61 60 76
3 64 63 77
3 64 77 78
3 65 64 78
3 65 78 79
3 65 79 66
3 66 79 80
3 66 80 81
3 67 66 81
3 67 81 82
3 68 67 82
3 68 82 83
3 69 68 83
3 69 83 84
3 69 84 85
3 70 69 85
3 70 85 86
3 71 70 86
3 71 86 87
3 72 71 87
3 72 87 88
3 73 72 88
3 73 88 89
3 74 73 89
3 74 89 90
3 74 90 91
3 75 74 91
3 79 78 92
3 79 92 93
3 79 93 80
3 80 93 94
3 80 94 95
3 81 80 95
3 81 95 96
3 82 81 96
3 82 96 97
3 83 82 97
3 83 97 98
3 84 83 98
3 84 98 99
3 84 99 100
3 85 84 100
3 85 100 101
3 86 85 101
3 86 101 102
3 87 86 102
3 87 102 103
3 88 87 103
3 88 103 104
3 89 88 104
3 89 104 105
3 90 89 105
3 90 105 106
3 90 106 107
3 91 90 107
3 93 92 108
3 93 108 109
3 93 109 94
3 94 109 110
3 94 110 111
3 95 94 111
3 95 111 112
3 96 95 112
3 96 112 113
3 97 96 113
3 97 113 114
3 98 97 114
3 98 114 115
3 99 98 115
3 99 115 116
3 100 99 116
3 100 116 117
3 101 100 117
3 101 117 118
3 102 101 118
3 102 118 119
3 103 102 119
3 103 119 120
3 104 103 120
3 104 120 121
3 105 104 121
3 105 121 122
3 106 105 122
3 106 122 123
3 106 123 124
3 107 106 124
3 109 108 125
3 109 125 126
3 109 126 110
3 110 126 127
3 110 127 128
3 111 110 128
3 111 128 129
3 112 111 129
3 112 129 130
3 113 112 130
3 113 130 131
3 114 113 131
3 114 131 132
3 115 114 132
3 115 132 133
3 116 115 133
3 116 133 134
3 117 116 134
3 117 134 135
3 118 117 135
3 118 135 136
3 119 118 136
3 119 136 137
3 120 119 137
3 120 137 138
3 121 120 138
3 121 138 139
3 122 121 139
3 122 139 140
3 123 122 140
3 123 140 141
3 124 123 141
3 124 141 142
3 126 125 143
3 126 143 144
3 126 144 127
3 127 144 145
3 127 145 146
3 128 127 146
3 128 146 147
3 129 128 147
3 129 147 148
3 130 129 148
3 130 148 149
3 131 130 149
3 131 149 150
3 132 131 150
3 132 150 151
3 133 132 151
3 133 151 152
3 134 133 152
3 134 152 153
3 135 134 153
3 135 153 154
3 136 135 154
3 136 154 155
3 137 136 155
3 137 155 156
3 138 137 156
3 138 156 157
3 139 138 157
3 139 157 158
3 140 139 158
3 140 158 159
3 141 140 159
3 141 159 160
3 142 141 160
3 145 143 161
3 144 143 145
3 146 145 162
3 146 162 163
3 147 146 163
3 147 163 164
3 148 147 164
3 148 164 165
3 149 148 165
3 149 165 166
3 150 149 166
3 150 166 167
3 151 150 167
3 151 167 168
3 152 151 168
3 152 168 169
3 153 152 169
3 153 169 170
3 154 153 170
3 154 170 171
3 155 154 171
3 155 171 172
3 156 155 172
3 156 172 173
3 157 156 173
3 157 173 174
3 158 157 174
3 158 174 175
3 159 158 175
3 160 159 175
3 160 175 176
3 162 161 177
3 145 161 162
3 163 162 178
3 163 178 179
3 164 163 179
3 164 179 180
3 165 164 180
3 165 180 181
3 166 165 181
3 166 181 182
3 167 166 182
3 167 182 183
3 168 167 183
3 168 183 184
3 169 168 184
3 170 169 184
3 170 184 185
3 171 170 185
3 171 185 186
3 172 171 186
3 172 186 187
3 173 172 187
3 173 187 188
3 174 173 188
3 174 188 189
3 175 174 189
3 176 175 189
3 176 189 190
3 178 177 191
3 162 177 178
3 179 178 192
3 179 192 193
3 180 179 193
3 180 193 194
3 181 180 194
3 181 194 195
3 182 181 195
3 182 195 196
3 183 182 196
3 183 196 197
3 184 183 197
3 185 184 197
3 185 197 198
3 186 185 198
3 186 198 199
3 187 186 199
3 187 199 200
3 188 187 200
3 188 200 201
3 189 188 201
3 190 189 201
3 190 201 202
3 192 191 203
3 178 191 192
3 193 192 204
3 193 204 205
3 194 193 205
3 194 205 206
3 195 194 206
3 196 195 206
3 196 206 207
3 197 196 207
3 197 207 208
3 198 197 208
3 199 198 208
3 199 208 209
3 200 199 209
3 200 209 210
3 201 200 210
3 202 201 210
3 202 210 211
3 204 203 212
3 192 203 204
3 205 204 213
3 205 213 214
3 206 205 214
3 207 206 214
3 207 214 215
3 208 207 215
3 209 208 215
3 209 215 216
3 210 209 216
3 211 210 216
3 211 216 217
3 213 212 218
3 204 212 213
3 214 213 219
3 215 214 219
3 216 215 219
3 217 216 219
3 218 217 219
3 213 218 219
3 218 212 24
3 218 24 22
3 218 22 217
3 217 22 20
3 217 20 211
3 211 20 18
3 211 18 202
3 202 18 16
3 202 16 190
3 190 16 14
3 190 14 176
3 176 14 12
3 176 12 160
3 160 12 10
3 160 10 142
3 142 10 8
3 142 8 124
3 124 8 107
3 107 8 6
3 107 6 91
3 91 6 4
3 91 4 75
3 75 4 76
3 76 4 1
3 76 1 0
3 76 0 61
3 61 0 62
3 62 46 44
3 62 44 63
3 63 44 77
3 77 44 42
3 77 42 40
3 77 40 78
3 78 40 92
3 92 40 38
3 92 38 108
3 108 38 36
3 108 36 125
3 125 36 143
3 143 36 34
3 143 34 161
3 161 34 32
3 161 32 177
3 177 32 30
3 177 30 191
3 191 30 28
3 191 28 203
3 203 28 26
3 203 26 212
3 212 26 24
3 220 221 222
3 223 220 222
3 223 222 224
3 225 223 224
3 225 224 226
3 225 226 227
3 228 225 227
3 228 227 229
3 230 228 229
3 230 229 231
3 221 232 233
3 222 221 233
3 222 233 234
3 224 222 234
3 224 234 235
3 226 224 235
3 226 235 236
3 226 236 237
3 227 226 237
3 227 237 238
3 229 227 238
3 229 238 239
3 231 229 239
3 231 239 240
3 233 232 241
3 233 241 242
3 234 233 242
3 234 242 243
3 234 243 244
3 235 234 244
3 235 244 245
3 236 235 245
3 236 245 246
3 237 236 246
3 237 246 247
3 238 237 247
3 238 247 248
3 239 238 248
3 239 248 249
3 240 239 249
3 240 249 250
3 241 251 252
3 242 241 252
3 242 252 253
3 243 242 253
3 243 253 254
3 244 243 254
3 244 254 255
3 245 244 255
3 245 255 256
3 246 245 256
3 246 256 257
3 247 246 257
3 247 257 258
3 248 247 258
3 248 258 259
3 249 248 259
3 249 259 260
3 250 249 260
3 250 260 261
3 252 251 262
3 252 262 263
3 253 252 263
3 253 263 264
3 254 253 264
3 254 264 265
3 255 254 265
3 255 265 266
3 256 255 266
3 256 266 267
3 257 256 267
3 257 267 268
3 258 257 268
3 258 268 269
3 259 258 269
3 259 269 270
3 260 259 270
3 260 270 271
3 261 260 271
3 262 272 273
3 263 262 273
3 263 273 274
3 264 263 274
3 265 264 274
3 265 274 275
3 266 265 275
3 266 275 276
3 267 266 276
3 267 276 277
3 268 267 277
3 268 277 278
3 269 268 278
3 269 278 279
3 270 269 279
3 270 279 280
3 271 270 280
3 273 272 281
3 273 281 282
3 274 273 282
3 274 282 283
3 275 274 283
3 275 283 284
3 276 275 284
3 277 276 284
3 277 284 285
3 278 277 285
3 278 285 286
3 279 278 286
3 279 286 287
3 280 279 287
3 282 281 288
3 282 288 289
3 283 282 289
3 283 289 290
3 284 283 290
3 285 284 290
3 285 290 291
3 286 285 291
3 286 291 292
3 287 286 292
3 289 288 293
3 290 289 293
3 290 293 294
3 291 290 294
3 292 291 294
3 292 294 25
3 292 25 27
3 292 27 287
3 287 27 29
3 287 29 280
3 280 29 31
3 280 31 271
3 271 31 33
3 271 33 35
3 271 35 261
3 261 35 37
3 261 37 250
3 250 37 39
3 250 39 240
3 240 39 41
3 240 41 231
3 231 41 43
3 231 43 230
3 230 43 45
3 230 45 228
3 228 45 295
3 228 295 225
3 225 295 223
3 223 295 2
3 223 2 220
3 220 2 3
3 220 3 221
3 221 3 5
3 221 5 232
3 232 5 7
3 232 7 9
3 232 9 241
3 241 9 251
3 251 9 11
3 251 11 13
3 251 13 262
3 262 13 272
3 272 13 15
3 272 15 17
3 272 17 281
3 281 17 19
3 281 19 288
3 288 19 21
3 288 21 293
3 293 21 23
3 293 23 294
3 294 23 25
3 46 296 297
3 296 298 297
3 296 0 298
3 297 298 295
3 295 298 2
3 298 0 2
3 46 297 45
3 45 297 295
3 0 296 62
3 62 296 46

CELL_TYPES 594
5
5
5
5
5
5
5
5
5
5
5
5
5
5
5
5
5
5
5
5
5
5
5
5
5
5
5
5
5
5
5
5
5
5
5
5
5
5
5
5
5
5
5
5
5
5
5
5
5
5
5
5
5
5
5
5
5
5
5
5
5
5
5
5
5
5
5
5
5
5
5
5
5
5
5
5
5
5
5
5
5
5
5
5
5
5
5
5
5
5
5
5
5
5
5
5
5
5
5
5
5
5
5
5
5
5
5
5
5
5
5
5
5
5
5
5
5
5
5
5
5
5
5
5
5
5
5
5
5
5
5
5
5
5
5
5
5
5
5
5
5
5
5
5
5
5
5
5
5
5
5
5
5
5
5
5
5
5
5
5
5
5
5
5
5
5
5
5
5
5
5
5
5
5
5
5
5
5
5
5
5
5
5
5
5
5
5
5
5
5
5
5
5
5
5
5
5
5
5
5
5
5
5
5
5
5
5
5
5
5
5
5
5
5
5
5
5
5
5
5
5
5
5
5
5
5
5
5
5
5
5
5
5
5
5
5
5
5
5
5
5
5
5
5
5
5
5
5
5
5
5
5
5
5
5
5
5
5
5
5
5
5
5
5
5
5
5
5
5
5
5
5
5
5
5
5
5
5
5
5
5
5
5
5
5
5
5
5
5
5
5
5
5
5
5
5
5
5
5
5
5
5
5
5
5
5
5
5
5
5
5
5
5
5
5
5
5
5
5
5
5
5
5
5
5
5
5
5
5
5
5
5
5
5
5
5
5
5
5
5
5
5
5
5
5
5
5
5
5
5
5
5
5
5
5
5
5
5
5
5
5
5
5
5
5
5
5
5
5
5
5
5
5
5
5
5
5
5
5
5
5
5
5
5
5
5
5
5
5
5
5
5
5
5
5
5
5
5
5
5
5
5
5
5
5
5
5
5
5
5
5
5
5
5
5
5
5
5
5
5
5
5
5
5
5
5
5
5
5
5
5
5
5
5
5
5
5
5
5
5
5
5
5
5
5
5
5
5
5
5
5
5
5
5
5
5
5
5
5
5
5
5
5
5
5
5
5
5
5
5
5
5
5
5
5
5
5
5
5
5
5
5
5
5
5
5
5
5
5
5
5
5
5
5
5
5
5
5
5
5
5
5
5
5
5
5
5
5
5
5
5
5
5
5
5
5
5
5
5
5
5
5
5
5
5
5
5
5
5
5
5
5
5
5
5
5
5
5
5
5
5
5
5
5
5
5
5
5
5
5
5
5
5
5
5
5
5
5
5
5
5
5
5
5
5
5
5
5
5
5
5
5
5
5
5
5
5
5
5
5
5
5
5
5
5
5
5
5
5
5
5
5
5
5

CELL_DATA 594
SCALARS cell_data_0 double
LOOKUP_TABLE default
2.23596159597e-09
2.12411853036e-09
1.91052299981e-10
4.11426811113e-10
9.40614122227e-11
1.27889729026e-10
1.28473168097e-10
5.44108417319e-10
4.59688609199e-10
2.56897204049e-10
3.58394377001e-10
3.7752919633e-10
4.4358166032e-10
7.03254124117e-10
4.44372823289e-11
2.30160125275e-10
1.25929420986e-10
2.90977117341e-10
9.28874313714e-11
1.07498048206e-10
1.29041759418e-10
2.56408373792e-10
1.47161874684e-10
1.61922243791e-10
4.63015238511e-12
1.85803533751e-10
3.4131204128e-11
2.87876025083e-10
9.40732073734e-11
5.58702052059e-10
2.47526897399e-10
4.98966762805e-10
6.84080231168e-11
2.55437967545e-10
1.43216266517e-10
1.07759631493e-10
3.24224315991e-11
2.98188103671e-10
7.04872289523e-10
9.91861102123e-10
2.24112072163e-09
1.31487635945e-09
3.07915387373e-10
2.13296756947e-09
2.95789045891e-09
8.75834069926e-12
1.09015249671e-10
2.7244411109e-10
9.54386113101e-11
6.90627248956e-11
1.41403988997e-11
8.77807009354e-11
3.06617724767e-11
4.019820356e-11
2.74419115084e-11
1.01122201654e-10
1.43647405684e-10
1.34687446612e-10
4.31273624001e-10
9.56469811912e-12
8.71270489843e-11
7.39438617669e-10
3.87939402121e-10
3.9518843422e-10
1.43623711837e-10
5.3238864622e-11
1.8560829672e-10
1.19576905484e-10
3.78668355085e-11
1.45996962707e-11
3.2584399238e-11
4.85097273642e-11
3.90408164738e-11
1.69873848207e-11
4.99573729575e-11
7.53899896167e-11
4.73053458324e-11
1.19287736304e-10
1.6256449129e-11
3.31537718851e-10
6.26355417284e-10
9.34975008938e-10
9.80789369516e-10
1.81492890963e-09
3.40870226795e-10
3.38940785128e-10
7.71056165024e-10
1.68444718633e-11
6.28400735975e-11
6.89482057526e-11
5.19517561122e-11
2.98922263561e-11
4.99965703565e-12
3.70537705183e-11
2.31805690318e-11
4.53630358163e-12
1.08305135323e-11
7.26428077786e-11
9.95681607326e-11
2.47824062216e-11
2.30851743376e-11
1.90847434744e-12
3.11955986568e-11
3.32417668472e-11
1.65641136394e-11
4.33135085461e-11
1.33173303435e-10
3.95598896324e-10
1.86611520872e-10
1.08188921308e-09
1.2667908531e-09
1.01193627693e-09
1.49145630842e-09
6.6290268696e-11
8.97880807567e-11
4.24980798369e-11
8.38733013028e-12
2.06015074899e-11
1.99832996284e-11
5.46494458411e-12
3.91854410339e-12
1.39339458787e-11
4.79244949725e-11
2.75099099478e-11
1.84868396507e-11
6.31293645351e-11
3.6871875735e-11
3.77809391847e-11
1.54249491464e-11
6.32973362142e-11
5.12411539361e-11
8.72188024233e-12
5.64699620811e-11
3.53904373438e-11
1.66654498105e-10
1.18485285724e-10
5.4949224147e-11
2.09635261422e-10
1.44460344728e-10
2.92842469981e-11
1.21927821331e-10
5.808914412e-11
1.19281552165e-11
3.7106567424e-12
1.67212846603e-11
8.49827707529e-12
1.53273081666e-11
2.03310903501e-11
1.29152318654e-11
1.30370505769e-12
1.93233263812e-11
5.04460249925e-11
3.96978196324e-11
2.07393223095e-11
3.64583431896e-11
1.16737706178e-11
5.40598117487e-12
7.80529150119e-12
1.78935342916e-11
1.1307087281e-11
3.15234913851e-12
3.31414555634e-12
1.66401122578e-11
4.25986962879e-11
5.2339982621e-11
6.4861680171e-11
2.16705400399e-11
3.56201299449e-11
6.98764471475e-11
1.21602419021e-11
2.18539607183e-11
1.48603546399e-11
1.11366666178e-11
1.02517464741e-12
2.3123361694e-11
8.92525389508e-12
1.47774391354e-11
2.23093400508e-11
1.0771373854e-11
1.10621805872e-12
8.65286153965e-12
3.46730177616e-12
6.87862935444e-11
8.82667853262e-13
5.93591222313e-12
3.87989718308e-11
4.091693032e-13
5.23484300878e-12
4.07347838553e-11
2.78236188863e-11
3.18229667368e-11
7.76688890486e-12
3.52071284827e-12
2.44711883373e-13
2.10382703884e-11
2.16812939959e-12
1.68008639823e-11
2.06994611373e-11
5.98677685735e-13
3.58732317609e-13
6.14589226024e-11
1.24605664631e-10
1.38939779212e-10
2.14035801659e-11
7.18738736646e-12
7.35323475413e-12
2.5512405764e-11
1.47652472523e-11
6.34987162684e-12
4.38814085857e-12
2.1673006e-11
2.22172445645e-11
5.14470354459e-12
1.8446259265e-11
2.42918159816e-11
3.38881599523e-12
4.13603661715e-11
1.44982182284e-11
3.2357908604e-11
3.80719865855e-11
4.06691764142e-11
5.02490711874e-11
4.49674344767e-11
2.14890845042e-11
2.0207512476e-11
3.13528705095e-11
6.66119926889e-12
7.07189058206e-12
5.69957794731e-12
8.28216893334e-12
2.34820979552e-12
9.11178446564e-12
3.87821098291e-12
1.79743452488e-11
2.75845684514e-11
1.30747595147e-10
1.70472880345e-10
8.27659191384e-11
2.05304018258e-11
2.59456356086e-11
3.45560058105e-12
4.90697371961e-12
3.63368309717e-12
1.32531379905e-11
2.03274530589e-12
1.26188159287e-11
1.27303166009e-11
6.63476918019e-12
6.46022273034e-12
2.72852571638e-11
1.92511307469e-11
4.3567810894e-11
1.02529063411e-11
1.20070164287e-11
1.49167547988e-12
2.91830764962e-11
3.0087401784e-11
3.25890698199e-11
9.25954557924e-12
9.11239419417e-13
1.20940185454e-11
9.95524558228e-12
2.72061569763e-12
7.45506809267e-12
9.49714400856e-12
2.26383206236e-11
1.52625695359e-11
7.10144653035e-11
1.3417692139e-10
1.2882180583e-10
3.90392012107e-11
6.99886955564e-12
1.44114187141e-12
5.44898063225e-12
7.46107659851e-12
3.10774330273e-12
1.21058865741e-11
3.96519515304e-13
9.32593486968e-13
1.00486581326e-11
8.58003581647e-12
2.24021214543e-11
2.54057386234e-12
5.52373951995e-12
5.33703068211e-13
1.28464446945e-11
5.08360387987e-12
3.50530665275e-12
4.50340142627e-12
1.66843467431e-11
5.37113526734e-12
2.31893564787e-12
1.09334280451e-11
5.0051068953e-11
6.1318129599e-11
5.64764253058e-11
1.7998575178e-10
1.95600367217e-10
4.90362680807e-11
1.11652803617e-11
6.4757945593e-13
1.12511480935e-12
7.92439640451e-12
2.88211653019e-13
6.60749455719e-12
7.33526225639e-12
5.99536165865e-12
4.37512738149e-12
8.63316348041e-12
6.44253203166e-12
4.0606722521e-12
5.13142080875e-12
1.99061672508e-12
4.89986541348e-12
3.55973477484e-13
2.69440117391e-12
1.73810791379e-11
6.49060803586e-11
6.52116434589e-11
6.59253083456e-11
2.47905342465e-10
2.22665810384e-10
5.08820805566e-11
1.16574991409e-11
1.62996630056e-12
3.32278252966e-12
7.84625521621e-13
9.01222567277e-13
1.39785427602e-12
1.01859916051e-12
2.3620108959e-12
6.36511434187e-12
7.29872627498e-13
1.53656866657e-12
2.42621859508e-12
2.20459497162e-11
6.25655457853e-11
4.53194659541e-11
7.45318450131e-11
2.28610846899e-10
2.95142138402e-10
6.12926985406e-11
1.105031135e-11
5.89780518464e-12
1.4634968942e-11
8.57938083865e-12
7.53574744602e-12
1.40483333555e-11
3.02259454669e-11
6.80766719612e-11
1.45533125802e-11
1.51348597328e-10
3.58532169196e-10
4.59482517901e-10
1.25062926903e-10
2.68008610018e-11
4.43030457077e-11
8.84929441855e-11
1.22879903081e-10
1.43644121427e-10
1.3263428441e-10
1.33047371734e-10
1.54465177982e-10
1.30452942638e-10
9.68763960436e-12
1.27331664104e-10
2.86201159641e-10
1.076442268e-10
1.36864576921e-10
8.1709392614e-11
1.74498140927e-10
2.02662815933e-10
1.67810664826e-10
1.49779473923e-10
1.13366496812e-10
1.71472882263e-10
4.54068896074e-11
5.21776892589e-12
4.56482818194e-11
2.70552790883e-11
8.68999008037e-11
8.9691806055e-11
1.83913027646e-11
2.09218298421e-10
2.51138754696e-10
1.17934852435e-10
1.82807427169e-09
3.39498030141e-09
2.67872068723e-09
1.22457275111e-09
6.20816227815e-10
4.16407347461e-10
1.1672157525e-09
7.54115726986e-10
1.28760076048e-10
1.04098102554e-10
6.3829540768e-11
7.50171640286e-11
3.52296052618e-11
1.72635002943e-11
1.1012734763e-11
5.15132809112e-11
8.21163575756e-11
2.83356020726e-11
4.62467103684e-11
6.95887666855e-11
1.86095492089e-11
7.33773072666e-11
4.46396137262e-11
1.67906506636e-11
6.64437850456e-11
3.45852314017e-11
7.01052511471e-09
8.54243697752e-09
9.07629738819e-09
6.67335515522e-09
8.10944627526e-09
5.29142704483e-10
8.29029171661e-09
8.91157087089e-09
1.65191488571e-09
6.68626292426e-09
5.60900137443e-10
7.43970521247e-09
3.42509723916e-09
2.58723076705e-09
5.74195686429e-09
1.58333643781e-09
1.24430794697e-09
7.06666934418e-10
2.27496095994e-09
7.03721830433e-11
4.89415101364e-10
5.72554966376e-10
6.21891341713e-10
2.17252685014e-11
4.64291233242e-10
3.82094322502e-10
1.50901973315e-09
3.11536570274e-10
3.81370680726e-10
5.1032105297e-10
2.7722018687e-10
4.76467775584e-10
3.12867236182e-10
1.31006380428e-09
3.53510688863e-10
5.49934254078e-10
6.91830459098e-11
3.9058187497e-11
1.58599502484e-11
2.46054239737e-12
2.24733746405e-10
4.13000668359e-11
2.45561875758e-10
4.07849450267e-13
1.45144346157e-10
1.28613021506e-11
4.64800024956e-11
3.88982626011e-11
2.8918558414e-11
1.00645226724e-11
6.65517327562e-11
5.93550730217e-11
1.82757384089e-10
3.03696750312e-11
6.04399063103e-11
4.30804615533e-11
3.67551943829e-11
4.35013935594e-11
3.04306342223e-10
1.98194175525e-12
3.26467328865e-10
9.59751978005e-11
9.89606571674e-11
9.53811827129e-11
1.75546135724e-10
9.20015114054e-11
4.26969406175e-11
9.44150818106e-12
2.91182399854e-11
5.66164222395e-11
1.73268198985e-10
6.66003807483e-11
9.81511852673e-11
1.00832550537e-10
1.07524570383e-10
2.77028577999e-11
7.88542894438e-11
4.74167150503e-10
7.85837959642e-11
2.04570401814e-10
2.39777116643e-10
1.89970001055e-10
2.78838780206e-10
6.13803463411e-11
9.46696325145e-11
1.04142692566e-10
6.98765422377e-11
5.92011575036e-11
1.07637897331e-10
2.06377079739e-10
2.64151002648e-11
8.44247384815e-11
1.02462359119e-10
2.29240183233e-10
3.54953078005e-10
5.52585532988e-10
3.80977165405e-10
3.78949611457e-11
5.84069226513e-11
2.58236674029e-10
2.68680321678e-10
4.89270693704e-10
2.37335488796e-10
3.0366005157e-11
3.1596611295e-11
3.23465563562e-10
2.53394887162e-10
1.3406755615e-10
1.34192846231e-10
5.64597744735e-11
8.90424481059e-11
4.04020977576e-11
2.45634943812e-11
1.61322855957e-10
2.71268849498e-10
9.67940673715e-11
6.25939983998e-11
2.22579964722e-11
3.29386585231e-12
4.48461719242e-11
2.18331261801e-10
2.42498649082e-10
2.2365528423e-09
1.97673439085e-09
1.9122773012e-09
2.92322453832e-09
1.56782246827e-10
1.69205542351e-10
3.83904792039e-10
2.04775911641e-10
6.14531046461e-10
2.65190367696e-10
3.05543327268e-10
2.56692834755e-11
1.67299960861e-10
2.5960666573e-10
5.70724820335e-11
6.04661416751e-11
3.06174000376e-11
2.11893646871e-10
8.06909058851e-11
1.51544444367e-09
4.9690935657e-09
4.39337105158e-09
3.31397053891e-09
1.06363950045e-08
1.04796072208e-08
2.17016139525e-09
7.98712009497e-09
2.04804933161e-09
2.2607346844e-10
1.48967581419e-10
1.13008462812e-09
8.55737042975e-10
1.86372112219e-11
2.15492552644e-10
4.68146543243e-10
4.91420047738e-10
5.07469612351e-11
4.420503992e-11
2.83937437511e-10
4.36015411507e-10
4.48363898091e-10
7.21494623384e-11
2.40170536319e-10
2.68424876764e-12
9.43715673378e-11
1.57345286656e-10
1.63480504864e-10
1.61464686226e-10
2.28540067927e-09
2.40325243816e-09
2.43297901545e-09
6.58109465422e-09
3.44481266503e-09
1.32324327869e-08
1.01829397593e-08
8.40727730369e-09
1.33878800688e-08
1.30904873041e-08
4.82226266467e-09
2.81368989726e-09

