# vtk DataFile Version 3.0
File Name: Molecule/methanol/methanol_1.0-0.vtk
ASCII
DATASET UNSTRUCTURED_GRID
FIELD FieldData 1
TIME 1 1 double
0.0
POINTS 45 double
0.93843632936 -1.0733107328 -0.91924726963
1.3801317215 -0.00021533187828 -0.96578466892
1.1288486719 -1.1884995699 -0.27537477016
1.6116460562 0.0064111454412 -0.32849028707
-0.049469046295 -1.6867233515 -0.16310738027
-0.13752168417 -1.5058112144 -0.83446359634
-1.2360671759 -1.2009016275 -0.057246483862
-1.2042469978 -1.0631331205 -0.70396739244
-1.7324932814 -0.0052251145244 -0.010401519947
-1.6320941448 0.0062621552497 -0.67914354801
-1.1919394732 1.0711148977 -0.71487820148
-1.2461475134 1.2008347511 -0.039343867451
-0.12620377541 1.5153851509 -0.81324982643
-0.059041831642 1.6924688816 -0.13699114323
1.114389658 1.2017043829 -0.27127113938
0.94213926792 1.0671845675 -0.92368537188
1.9054327011 0.00075463415124 0.67513912916
1.5457166433 1.1069275141 0.66022759676
1.5398198366 0.55176520348 1.6258869171
1.5437003374 -0.56111216545 1.6151179075
1.5460416079 -1.1060787439 0.66153687239
0.60611498356 1.4442112446 1.7133864164
0.59412479401 0.54840379953 2.364679575
0.61776727438 -0.549870193 2.3560800552
0.60127979517 -1.4515502453 1.7103335857
0.60537695885 -1.7938443422 0.64344608784
0.5979719758 1.7945414782 0.65897971392
-0.56879800558 1.4536341429 1.6996742487
-0.56717061996 0.55764043331 2.3558969498
-0.55180668831 -0.55728411674 2.3647785187
-0.57955271006 -1.4470756054 1.7047792673
-0.56017059088 -1.79401052 0.66359436512
-0.57113170624 1.792544961 0.64689141512
-1.5071897507 1.1029328108 0.68696063757
-1.5057666302 0.56044405699 1.6151195765
-1.5023179054 -0.55263757706 1.6252576113
-1.5063451529 -1.1045742035 0.67965936661
-1.8617966175 0.00044752738904 0.69875836372
0.95281493664 -0.52522987127 -1.6967182159
-0.10799189657 -0.78894048929 -2.0425343513
-0.12010971457 0.26161444187 -2.246445179
0.95329231024 0.54015934467 -1.6907986403
-0.12198011577 1.1735131741 -1.7222428322
-1.197178483 -0.54779559374 -1.681517005
-1.201661706 0.54435688257 -1.6794340611

CELLS 86 344
3 0 1 2
3 3 2 1
3 2 4 0
3 0 4 5
3 4 6 5
3 5 6 7
3 6 8 7
3 7 8 9
3 9 8 10
3 11 10 8
3 10 11 12
3 13 12 11
3 13 14 12
3 12 14 15
3 1 15 3
3 14 3 15
3 16 17 18
3 16 18 19
3 16 19 20
3 18 17 21
3 18 21 22
3 18 22 23
3 19 18 23
3 19 23 24
3 20 19 24
3 20 24 25
3 17 26 21
3 21 26 27
3 21 27 28
3 22 21 28
3 22 28 29
3 23 22 29
3 24 23 29
3 24 29 30
3 24 30 31
3 25 24 31
3 26 32 27
3 27 32 33
3 27 33 34
3 28 27 34
3 28 34 35
3 29 28 35
3 30 29 35
3 30 35 36
3 31 30 36
3 34 33 37
3 35 34 37
3 36 35 37
3 36 37 8
3 36 8 6
3 36 6 31
3 31 6 4
3 31 4 25
3 25 4 2
3 25 2 20
3 20 2 3
3 20 3 16
3 16 3 17
3 17 3 14
3 17 14 26
3 26 14 13
3 26 13 32
3 32 13 11
3 32 11 33
3 33 11 8
3 33 8 37
3 38 39 40
3 41 38 40
3 41 40 42
3 40 39 43
3 40 43 44
3 42 40 44
3 42 44 10
3 42 10 12
3 42 12 15
3 42 15 41
3 41 15 1
3 41 1 38
3 38 1 0
3 38 0 39
3 39 0 5
3 39 5 43
3 43 5 7
3 43 7 9
3 43 9 44
3 44 9 10

CELL_TYPES 86
5
5
5
5
5
5
5
5
5
5
5
5
5
5
5
5
5
5
5
5
5
5
5
5
5
5
5
5
5
5
5
5
5
5
5
5
5
5
5
5
5
5
5
5
5
5
5
5
5
5
5
5
5
5
5
5
5
5
5
5
5
5
5
5
5
5
5
5
5
5
5
5
5
5
5
5
5
5
5
5
5
5
5
5
5
5

CELL_DATA 86
SCALARS cell_data_0 double
LOOKUP_TABLE default
9.52688984249e-06
2.61781577539e-05
2.97205580027e-08
1.43697306701e-07
1.01474087061e-06
1.29079786331e-06
3.80415334154e-07
4.54053979596e-07
8.98971387636e-07
3.32500937619e-07
9.11161563016e-08
9.9459969995e-07
6.81413497699e-07
1.20062521409e-06
1.12848989214e-05
5.85500702214e-06
6.77414075018e-07
3.8241009728e-08
9.70971216762e-07
1.2570223788e-07
2.08933698e-08
6.80870894512e-08
4.89557383821e-07
1.94984461386e-07
3.02445498019e-07
9.38637937667e-07
1.14530029849e-07
1.24709350363e-07
4.72775356978e-08
3.25861998543e-08
3.36813005133e-08
1.25580379462e-07
4.64228514978e-08
1.58433720936e-07
2.38667516203e-07
2.51168978022e-08
4.61193650268e-08
7.60561954898e-08
8.44907789319e-08
9.53232777575e-08
1.48551115633e-07
5.2506085315e-08
1.14649750471e-07
5.92428762933e-08
3.5515278937e-08
7.74759950198e-08
2.16480094106e-08
7.40552414735e-08
5.23410560939e-08
4.86758687321e-07
2.41786410381e-07
7.33617777827e-07
1.64399266468e-07
1.8149519665e-07
8.86000930425e-07
5.85788432001e-06
1.08403336744e-06
1.90636187796e-06
1.727669664e-06
3.89887189618e-07
2.21430442394e-07
7.48542524823e-09
2.31315594156e-07
2.0558652371e-08
5.09169283291e-07
1.08931689562e-07
4.91201990055e-06
2.04633170132e-05
4.85131317249e-06
7.14152351101e-06
3.98771916214e-07
6.5073615246e-06
2.31445845362e-06
2.13124015543e-07
1.90541904305e-06
2.81186250955e-07
3.68366758925e-05
0.000161196817083
3.80167760782e-05
1.03462597772e-07
3.49317568508e-06
4.59677204043e-06
5.36276854883e-06
1.42928611506e-06
2.87832215368e-06
1.81227483034e-06

