# vtk DataFile Version 3.0
File Name: Molecule/methanol/methanol_12.5-0.vtk
ASCII
DATASET UNSTRUCTURED_GRID
FIELD FieldData 1
TIME 1 1 double
0.0
POINTS 614 double
1.6061651707 0.0074303932488 -0.36983633041
1.5814694166 -0.30324241519 -0.35950046778
1.4739779234 -0.00069873395842 -0.63676202297
1.4476101398 -0.29078432918 -0.63283020258
1.3918766975 7.6521129813e-05 -0.96257615089
1.382969141 -0.28212937713 -0.91411840916
1.5007747412 -0.59866243601 -0.34925410151
1.3688557148 -0.57025814056 -0.62431800365
1.3008272648 -0.55455315113 -0.92031610012
1.3619941473 -0.87376904488 -0.34603691101
1.2388970852 -0.83003056049 -0.61361670494
1.1724052429 -0.81064760685 -0.90940648317
1.0690721273 -1.061724782 -0.58847814798
1.1695952415 -1.1406604052 -0.31163674593
1.0014415979 -1.0359237194 -0.89443773031
0.85616719723 -1.258675456 -0.56344377995
0.94631749392 -1.3504657745 -0.27536153793
0.7916945219 -1.2298880816 -0.86344903708
0.68668532372 -1.5117534399 -0.24932034314
0.60531073809 -1.411963582 -0.54507493973
0.54883563519 -1.3853056431 -0.82173269987
0.39907100797 -1.6218162775 -0.22670406103
0.33512559533 -1.5176651478 -0.51904338598
0.28962188959 -1.4842669964 -0.79361486435
0.10541217029 -1.6693212986 -0.22506245971
0.050943858922 -1.5690830946 -0.49643018842
0.018284074962 -1.523334384 -0.81216412783
-0.23765686154 -1.5749074221 -0.44703704119
-0.21520079672 -1.6787232161 -0.17184783518
-0.27011352777 -1.5272347927 -0.76761776209
-0.50994545221 -1.6197491884 -0.15943861008
-0.52338474989 -1.5161384344 -0.43799933791
-0.54879450798 -1.4742226601 -0.73565453291
-0.79135000706 -1.4125438929 -0.40554961562
-0.80008894205 -1.5109636784 -0.12764005363
-0.81446111202 -1.3697162867 -0.70707130432
-1.0700806379 -1.3487651348 -0.086964197457
-1.0394921303 -1.2578310966 -0.38357964158
-1.0522778034 -1.2229827642 -0.65984290838
-1.3008300066 -1.1289428473 -0.096484430134
-1.2519985437 -1.0611857176 -0.36995860934
-1.2527389526 -1.0304291248 -0.67755055428
-1.4290796518 -0.83122605085 -0.336689502
-1.4837384224 -0.88368016481 -0.080086745322
-1.4255560637 -0.81029736996 -0.62473797798
-1.5579218864 -0.57413947582 -0.31963610649
-1.6324675083 -0.61352068186 -0.0027569457889
-1.5462361574 -0.55683970451 -0.64279896021
-1.7044153214 -0.31883597374 -0.058760002255
-1.6347310543 -0.28976386786 -0.33124798536
-1.6226222515 -0.27865886688 -0.64717280865
-1.6676369905 -0.00024185702205 -0.29643934965
-1.7485569715 -0.0019614126068 0.01177447103
-1.6512187719 -0.00011421158706 -0.62842452526
-1.7082102299 0.29534518719 -0.060498103499
-1.6346991062 0.28937715292 -0.3316860497
-1.6217344999 0.28334075212 -0.6477393508
-1.5612339973 0.57211107016 -0.30759313703
-1.6344878674 0.60909605026 -0.0025532878935
-1.5472383499 0.55414658785 -0.64294034243
-1.4904338121 0.86893618107 -0.085142493248
-1.426774621 0.82885450125 -0.35326224566
-1.4168355465 0.80993306637 -0.66781121492
-1.2542883158 1.0640633106 -0.35203629732
-1.3113418818 1.1183972359 -0.087475642562
-1.2499763966 1.0353468657 -0.67078435421
-1.0854327679 1.3271483183 -0.11378008127
-1.0384225845 1.2569894791 -0.38920864463
-1.0378167629 1.226744771 -0.69485974312
-0.793577075 1.4147100449 -0.39379543066
-0.81405985355 1.5055847168 -0.12207871675
-0.80370682478 1.3796026707 -0.69303333759
-0.52310377359 1.6171222925 -0.15680111945
-0.52368283272 1.5160243511 -0.43811389804
-0.5416533947 1.4764900208 -0.73729848862
-0.24048894644 1.571780324 -0.45682746172
-0.2138504982 1.6800955534 -0.16777214408
-0.26632776856 1.5313491821 -0.75316017866
0.087115414441 1.6792351007 -0.19936488569
0.051086291671 1.5704346895 -0.49168467522
0.017200650647 1.5310302973 -0.78247344494
0.3896767199 1.6246575117 -0.22501063347
0.33627948165 1.5174347162 -0.51877701283
0.29536956549 1.4802970886 -0.80429381132
0.6785595417 1.5151488781 -0.24947702885
0.60651159286 1.4114763737 -0.54479527473
0.55947142839 1.379745245 -0.826407969
0.93916028738 1.3560488224 -0.27149409056
0.85387086868 1.2584044933 -0.56799966097
0.80106163025 1.2302888632 -0.84511685371
1.1624028683 1.1364927292 -0.33113440871
1.0644803047 1.0618246794 -0.59753644466
0.99828380346 1.0286301374 -0.91488850117
1.2454557419 0.83242291212 -0.59584933519
1.3625516891 0.88241630793 -0.33491948247
1.1719074249 0.80554789305 -0.91845428944
1.4974761009 0.60828626156 -0.34876963496
1.3689031601 0.56942141056 -0.62496101856
1.2983080149 0.54621005058 -0.9339491725
1.4549953938 0.29074564576 -0.61448299885
1.5850465298 0.31061151624 -0.34872734547
1.3851089478 0.28122469783 -0.9094029665
1.9069999456 1.73105974e-12 0.65587443113
1.8820619583 0.30039453506 0.65586936474
1.8820710182 0.15079709888 0.91554445028
1.8820707798 -0.15018075705 0.91590297222
1.8820794821 -0.30029192567 0.65625727177
1.8820903301 -0.15081103146 0.39554125071
1.8821003437 0.15045034885 0.39540964365
1.8160307407 0.49920079112 0.94380098581
1.8111827374 0.29573899508 1.1678224802
1.8160891533 0.00037565029925 1.232203722
1.811185956 -0.29595428705 1.1676857471
1.8160487413 -0.49896073341 0.94411355257
1.8111246824 -0.59095239639 0.65580409765
1.816065073 -0.49937716126 0.36771628261
1.8111053705 -0.29572036862 0.1424433291
1.8162162304 -0.00031898764428 0.07969391346
1.8111213446 0.29585248232 0.14264751971
1.8160691261 0.49895292521 0.3670001626
1.8111534119 0.59087741375 0.655849576
1.7026478052 0.8014934063 0.94873893261
1.702624321 0.65386193991 1.2033791542
1.6957994699 0.43280053139 1.405975461
1.7026132345 0.1477869153 1.4959756136
1.7026127577 -0.14746509492 1.4960296154
1.6957969666 -0.43262514472 1.4060870409
1.7026308775 -0.65368247032 1.2035808563
1.7026594877 -0.80152291059 0.9486079216
1.6959069967 -0.86590194702 0.65607899427
1.7026510239 -0.80160695314 0.3635482192
1.7026640177 -0.65395921469 0.10801199824
1.6915441751 -0.437456429 -0.1044375971
1.7078174353 -0.14902056754 -0.17037522793
1.708496809 0.14905427396 -0.16857238114
1.6917155981 0.43817418814 -0.10244096816
1.7026557922 0.65356504917 0.1074660942
1.7026619911 0.80145835876 0.36323013902
1.6959501505 0.86583560705 0.6559728384
1.5477160215 1.0689448118 0.94491124153
1.548017025 0.95649528503 1.2117606401
1.5463112593 0.78120660782 1.4420615435
1.5387192965 0.56248372793 1.6224383116
1.547832489 0.29475873709 1.7221441269
1.5468782187 0.0011388735147 1.7637791634
1.5478109121 -0.29422390461 1.7223098278
1.5387157202 -0.5638974309 1.6216584444
1.5463356972 -0.78184735775 1.441437006
1.5479929447 -0.95672959089 1.2116439342
1.5476922989 -1.0689482689 0.94527828693
1.5389654636 -1.1177582741 0.65635955334
1.5476989746 -1.069212079 0.3667948842
1.5480164289 -0.95672094822 0.09937479347
1.547172904 -0.78059387207 -0.13021212816
1.5476125479 0.78102350235 -0.12853972614
1.5480748415 0.95656466484 0.099364094436
1.5477305651 1.0688682795 0.36584484577
1.5391744375 1.1173038483 0.65585023165
1.3542869091 1.3004580736 0.95375692844
1.3548107147 1.2012565136 1.2345275879
1.3553533554 1.0429296494 1.4858268499
1.3555905819 0.83329856396 1.6958560944
1.3560302258 0.58152669668 1.8545168638
1.353295207 0.2957906425 1.9579507113
1.3469213247 -0.0057089203037 1.9968969822
1.3533023596 -0.294921875 1.9581059217
1.3537306786 -0.57440119982 1.8603506088
1.3561487198 -0.82567799091 1.7013180256
1.3544949293 -1.0425744057 1.4877221584
1.3563495874 -1.2031066418 1.2265785933
1.353428483 -1.3031504154 0.94453978539
1.3439949751 -1.344312191 0.65507620573
1.3534218073 -1.3030737638 0.36695900559
1.3564608097 -1.203602314 0.087962031364
1.3628747463 -1.0463241339 -0.15197500587
1.3600314856 1.0456653833 -0.15968343616
1.3548954725 1.2019498348 0.079395696521
1.3543353081 1.3004581928 0.35845994949
1.3453977108 1.3425233364 0.65602618456
1.1290839911 1.497910738 0.94613963366
1.1303272247 1.4152823687 1.2248922586
1.1304242611 1.2813922167 1.4830583334
1.129517436 1.1011272669 1.7112210989
1.1279454231 0.88210618496 1.9016097784
1.1260904074 0.63117772341 2.0476546288
1.1182203293 0.3625857234 2.1464011669
1.1275365353 0.080936908722 2.1806516647
1.1303771734 -0.20825526118 2.1662406921
1.1318849325 -0.49202477932 2.0982336998
1.1282507181 -0.76395410299 1.9778001308
1.1299109459 -1.0053498745 1.8032579422
1.1202219725 -1.2086006403 1.5976961851
1.1276019812 -1.3573846817 1.3547788858
1.1285620928 -1.4644860029 1.0861350298
1.1282274723 -1.519824028 0.80099838972
1.1282155514 -1.51983881 0.51007598639
1.128634572 -1.4644606113 0.22500438988
1.1320090294 -1.3509557247 -0.049277350307
1.1480571032 1.2762439251 -0.14903308451
1.1324107647 1.4139842987 0.086983308196
1.1291087866 1.4977941513 0.36536106467
1.1183106899 1.5330344439 0.65590006113
0.87663310766 1.6554385424 0.94887906313
0.87748646736 1.5786157846 1.2322987318
0.87786722183 1.4538881779 1.4975290298
0.8779720068 1.2855255604 1.7382121086
0.87773036957 1.0779806376 1.9452240467
0.87712079287 0.83752506971 2.1131973267
0.87600314617 0.57121312618 2.2372870445
0.87485510111 0.28827482462 2.3131446838
0.87534284592 -0.0035160928965 2.3372831345
0.87479782104 -0.29529285431 2.3119771481
0.87376815081 -0.57827419043 2.235940218
0.86502885818 -0.84094381332 2.1181163788
0.87485986948 -1.0743544102 1.9498825073
0.87497752905 -1.2815586329 1.7447196245
0.87747269869 -1.4495732784 1.5046858788
0.87897861004 -1.5747681856 1.2393128872
0.8802344799 -1.652233243 0.9554528594
0.8764475584 -1.6817748547 0.65702742338
0.87999230623 -1.6525800228 0.35776048899
0.88193339109 -1.5675890446 0.05561895296
0.87831234932 1.5732432604 0.063352286816
0.87663292885 1.6549855471 0.36049872637
0.86552011967 1.6863782406 0.65557020903
0.60221105814 1.7707730532 0.95146089792
0.60263025761 1.6974246502 1.238806963
0.60274422169 1.5783560276 1.510533452
0.60286420584 1.4162273407 1.758436203
0.60286122561 1.2152733803 1.9762221575
0.6027995348 0.9812656641 2.1581213474
0.60277223587 0.72056812048 2.2998838425
0.60261899233 0.44043320417 2.3959105015
0.60256463289 0.14783830941 2.4448111057
0.60252225399 -0.14833012223 2.4447813034
0.60238540173 -0.44096374512 2.3958611488
[...]
CELL_DATA 1224
SCALARS cell_data_0 double
LOOKUP_TABLE default
1.72747164865e-08
3.11709251594e-09
1.39867079573e-07
5.21909700968e-08
2.48884009455e-08
3.9222538919e-08
1.894587485e-07
9.6786733712e-08
1.33144938991e-08
2.57366678928e-08
1.08302304601e-07
8.58530267954e-08
3.6461200486e-09
3.62928944312e-09
4.18068569684e-08
4.2347311323e-08
5.01576320284e-09
8.33120133213e-09
1.31849858481e-08
1.9927257976e-08
5.15091795984e-09
4.18241105182e-09
3.09435516829e-09
6.4920368988e-09
6.0474024398e-09
8.75791103451e-09
4.1430459493e-10
6.8400125389e-10
5.28656908031e-09
7.58654273131e-09
1.07959433383e-09
6.65055236072e-10
1.02435848574e-08
1.24970677064e-08
5.73053492638e-09
1.04915522691e-08
6.2923982983e-10
1.2083524096e-08
1.85346226366e-09
3.47167543988e-09
4.29726524006e-09
9.18325843235e-10
4.56474324884e-09
2.97332042962e-09
3.39185592774e-10
1.29901350274e-08
6.31766615748e-09
2.55091878298e-09
1.39677438804e-09
7.61160968635e-09
6.45994166483e-09
2.97124824581e-09
5.81818832185e-09
4.94519826857e-09
2.21611601721e-09
8.8380814961e-09
9.50429105648e-09
6.22338491974e-09
8.29233262563e-09
5.74993373462e-09
3.38457121621e-09
6.72097243861e-09
8.18837941495e-09
2.10054289799e-09
2.53397043644e-09
5.06115622061e-09
2.29108679874e-09
8.21032926976e-09
3.82167322873e-09
6.48343002912e-09
8.12544023735e-09
3.36050446079e-09
1.45981517265e-09
3.58313353825e-09
1.79914483662e-09
6.89792012016e-09
4.76094244384e-09
5.4504816226e-09
8.55308423349e-09
2.19190478184e-09
1.49749928854e-09
3.86828991878e-09
4.73126831641e-10
6.69247927369e-09
9.19454541699e-09
3.29962523673e-09
1.02512462865e-08
1.02084291618e-09
1.21790034919e-10
2.32752938568e-09
1.61855675658e-09
5.2858111448e-09
1.15165608071e-08
2.62601742514e-09
9.97102496973e-09
4.85256306872e-10
2.08355869507e-09
9.65706222081e-11
1.70524772727e-09
3.38075568743e-09
1.37690134117e-08
1.85371703012e-09
1.10862953825e-08
1.9970096094e-09
1.29250786036e-08
1.90819526395e-09
9.65140752439e-09
3.84684590156e-09
1.31761687815e-08
4.70508315091e-09
8.11831688531e-09
5.7902093816e-09
1.1947281087e-08
8.71302452243e-09
6.01948395185e-09
8.46017207322e-09
7.530777689e-09
5.28500715211e-09
1.22763504564e-09
8.47925301981e-09
9.64251123636e-10
5.88241373351e-09
5.1341009241e-08
5.99447773456e-08
3.33599553841e-09
5.79719047202e-09
2.72198831797e-08
3.94489799421e-08
1.45078890888e-08
2.49510641345e-08
1.58244778378e-07
1.68748685781e-07
1.04044529937e-09
1.72579918562e-08
3.76070641711e-08
2.90777273259e-07
6.57224489856e-11
3.20346406025e-11
9.92739464817e-11
1.36247582992e-10
1.03115621797e-10
5.50512421629e-11
2.03980525664e-10
1.64726257073e-10
9.79747178018e-11
2.05013318965e-10
6.60033065497e-11
1.27248301025e-10
1.3077932785e-10
1.24879805702e-10
2.42166935966e-10
7.35825246354e-11
1.17529923946e-10
3.65000658474e-10
6.27067360041e-11
2.48159691137e-10
4.16587531202e-11
1.09067834034e-10
2.98303878523e-10
1.77070205415e-10
2.29152440185e-10
5.2713344665e-11
6.94252085036e-12
1.70796852688e-10
8.64228510354e-11
1.2083054739e-10
6.52007209793e-11
1.08167028947e-10
2.63251993738e-11
6.6713419632e-11
1.51249514908e-10
1.26897095883e-10
1.820720352e-10
8.830529591e-11
2.23663951154e-10
4.46359710907e-11
3.31337193432e-10
3.15442551536e-10
6.88307937933e-11
1.19072829575e-09
9.56559994323e-11
1.31090565266e-09
3.12397610633e-10
8.62786289651e-10
1.43805987347e-10
4.90102549382e-10
9.74764237178e-11
3.10658990921e-10
5.59215167518e-11
3.03998357867e-11
9.3797296273e-11
6.03238695135e-12
1.39434631372e-10
9.8228333671e-12
1.14430970675e-11
1.89520714441e-10
4.45467671054e-11
1.28004156998e-10
4.22910857021e-11
6.6201041131e-11
1.38256129463e-10
2.28658172949e-11
1.32157594541e-11
5.91951011164e-11
9.63535407464e-11
3.68037848896e-11
1.50986893149e-10
5.4162467928e-11
1.91319305279e-10
5.02519054058e-11
9.67966412787e-11
1.93923971699e-10
4.00930751577e-10
2.78769279656e-10
3.05284447406e-10
1.37324918793e-09
3.67052928775e-10
3.84683999037e-10
3.2241380645e-10
2.23316110779e-10
2.31665950212e-10
5.55812864275e-11
2.7227317831e-11
4.90601902541e-11
2.9607134588e-11
1.24204390348e-10
2.85173501558e-11
1.16637978896e-10
8.2851881428e-11
1.9076336156e-11
4.11339715141e-11
2.69069331204e-11
1.8288100604e-12
4.24036378637e-11
6.25382341161e-13
1.60262412687e-11
6.42952041856e-11
1.41306331511e-11
4.20951280003e-11
8.36441826971e-11
4.92863739329e-11
7.90778888475e-11
2.06601900215e-11
3.31854353104e-11
1.53954543068e-10
5.17984940592e-11
1.18003497748e-10
8.83125240998e-11
1.22762303438e-10
3.94142861832e-10
3.80199919025e-10
2.66646725481e-10
6.11145182057e-10
2.63952849721e-10
6.95476548326e-10
9.5254512227e-10
2.21758821049e-10
2.60910219327e-10
1.11597291159e-10
1.06584197995e-10
6.68797874701e-11
2.70207615955e-13
3.04423662956e-11
6.1822564422e-11
3.31567135664e-11
2.21008167099e-12
4.66033639918e-11
3.82497326728e-11
1.98666700442e-11
3.52404278255e-11
5.54207459791e-11
6.05239778174e-11
1.15802697771e-10
1.47484791238e-11
5.36993250074e-11
4.47345509161e-11
3.74957236304e-11
9.4236116522e-11
1.67050539855e-11
7.87556083817e-11
8.78577750166e-11
1.57261492417e-11
7.30389763261e-11
2.88655438146e-11
4.21034688317e-11
9.09316022569e-11
4.17663815156e-12
9.814558416e-11
4.82203013388e-11
1.27474374865e-10
6.42028665469e-11
2.17735879117e-10
5.41726070251e-11
4.11351768125e-10
4.63643280583e-10
8.0277844562e-10
4.4330575077e-10
5.51481018677e-10
7.86900118371e-11
2.76525344838e-10
9.13672491166e-11
1.35792656705e-10
7.73094236656e-11
2.92226609841e-11
1.02031659356e-10
9.09299265024e-11
2.86141065626e-11
3.30261354502e-11
2.18004825549e-12
3.8346375273e-11
1.30045053429e-11
1.25352017216e-11
7.00508496217e-13
9.59494618762e-12
8.61402153477e-12
6.2126315294e-11
5.54553369683e-11
9.7917110255e-12
4.07818533332e-12
5.25019867214e-11
2.96698763377e-11
5.2709025008e-11
1.3941005644e-11
9.43682545349e-11
6.24539409511e-11
2.04438327939e-11
4.88917405887e-11
9.158272802e-12
4.31689037612e-11
1.08429808886e-11
3.563876939e-11
4.08566454204e-11
1.59501352001e-11
9.41438175522e-12
1.19333642434e-10
4.50215189762e-11
1.97713392908e-10
8.91219327479e-11
4.33164539905e-10
2.18521503066e-11
9.05888851263e-10
1.41115171164e-10
3.57932035806e-10
2.29769243864e-10
1.12454506063e-10
1.43395159731e-10
5.66530213049e-11
1.01844532127e-10
8.06105607883e-11
1.36976220167e-11
6.28369132143e-11
5.3995745032e-11
7.27102035765e-11
1.74080391954e-10
8.95011874552e-11
3.74079884267e-11
8.22456728735e-11
7.88166841947e-11
6.19306511526e-11
2.71753017937e-12
4.44900739525e-11
3.02913362731e-13
8.03664851832e-13
4.04877860938e-11
3.7160649048e-11
5.07095820795e-11
3.69472949879e-11
7.22470263585e-12
1.6765044309e-11
3.79090549202e-12
3.2847937929e-11
3.41379043011e-11
1.96502846188e-11
9.21183045967e-12
2.47359497348e-11
2.14971349105e-11
7.57348594011e-12
8.23951095602e-12
4.61922754233e-11
8.18090062684e-11
7.53126810723e-11
1.70572331363e-10
7.27758166041e-11
7.61520783241e-10
1.89309325711e-10
1.30455582051e-09
7.2676423526e-10
3.19847640381e-10
3.93031910348e-10
7.78898203813e-11
1.68898342813e-10
3.8155382568e-11
1.02312437471e-10
5.30284423717e-11
9.10463821258e-11
1.7865625433e-11
4.80955001669e-11
2.01187884968e-11
1.42959290223e-11
2.63758217849e-11
1.99622959835e-11
7.49960414908e-11
4.27591611251e-11
7.35020137247e-11
7.86008946618e-11
6.24795819486e-11
2.77273401551e-11
7.17207299551e-11
9.75167458759e-11
2.33685849174e-11
9.02955851291e-11
2.25589152666e-11
8.1579747221e-11
1.0134681362e-11
1.48787083944e-11
5.58747175697e-11
3.4291037038e-11
2.15589402245e-12
2.04798240563e-11
2.62669120975e-12
2.41049730994e-11
2.59841972826e-11
8.48201895077e-11
9.75046461791e-11
5.94416225398e-12
3.03483031129e-11
1.29086413251e-10
3.17740858104e-11
2.6461692495e-10
1.14661341571e-10
7.84675799272e-10
1.27933686445e-10
1.66254692494e-09
1.21935747494e-09
1.72764480453e-10
6.23898913829e-10
6.89113063528e-11
2.07995441939e-10
5.1825993921e-11
1.58925087359e-10
6.66962174212e-11
1.2305284665e-12
1.34728773836e-10
8.6903407106e-11
8.76886783035e-12
5.8084301188e-11
4.33101109865e-11
2.06379508046e-11
2.7442985496e-11
2.46974775855e-11
2.33751237937e-11
5.33647583993e-11
3.11860847298e-11
9.79550348767e-11
3.46263074192e-11
3.54740421225e-12
8.42773320308e-11
1.77229141114e-10
4.35891500192e-11
1.21386894517e-10
7.99882387009e-11
4.74460763568e-12
4.61867233659e-11
6.07731546325e-12
3.53302154076e-11
1.77878149987e-11
1.15296516832e-11
1.51529329205e-11
4.74394535122e-11
3.86920967434e-11
1.50463015971e-11
1.82359096078e-10
1.16763595166e-11
1.51194935265e-11
8.98561167714e-11
1.16283999076e-10
1.1278255451e-10
2.43556068125e-10
1.63501395154e-10
4.79563247628e-10
4.08569308719e-10
7.41456157141e-10
1.49951137264e-09
1.36525345092e-10
7.86917788843e-10
8.12729952765e-11
2.52818167198e-10
4.65691497051e-10
2.48894442117e-11
2.93027671648e-10
3.91156649309e-13
9.43841018873e-11
4.84131798569e-11
1.18331585593e-10
9.08751252094e-11
1.4975009401e-10
5.78289065472e-11
7.8490966915e-11
9.56898499169e-11
1.11033001707e-10
1.64773604312e-11
4.76797932061e-11
7.02353219865e-13
4.13333774405e-12
2.17300982603e-11
1.53180878173e-10
7.08006891442e-11
7.90691991017e-11
6.26109943794e-11
9.83536654378e-11
5.2038842967e-11
1.23189758017e-10
1.79276822585e-10
7.07100482087e-11
4.2952862724e-11
1.94791623854e-11
6.64863329623e-13
5.93705500698e-12
3.40956544793e-11
1.57392445782e-11
1.39122669636e-11
1.28091783162e-10
6.06564955114e-11
2.07878589282e-11
1.60053179687e-10
5.081020878e-11
2.27663007793e-10
8.19150308582e-11
4.69756745688e-10
1.28013442509e-10
1.10894666646e-09
3.98437072119e-10
1.3357974154e-09
3.96678656315e-10
4.0672955683e-10
3.77243267027e-11
5.17096178441e-10
4.74830348646e-11
3.41645300392e-10
2.42547506636e-11
1.62830182908e-10
4.08639042983e-11
9.82365842016e-11
4.51478270605e-11
1.31616368983e-10
2.86865334793e-11
5.31535477094e-11
8.92427340679e-12
3.19416290517e-11
5.57283694334e-12
4.37038749844e-11
2.15315515731e-11
9.17251856344e-11
7.48009864989e-11
9.39109014326e-12
5.30958331405e-11
6.27405257788e-11
2.07985330941e-11
7.12754480052e-12
8.32876513805e-12
1.04449204167e-11
4.34579783316e-12
4.59029600934e-11
1.12102665715e-11
3.76834820432e-11
2.67611070689e-11
7.43288436501e-11
3.23226449844e-11
1.1043936579e-10
7.92724404785e-11
1.44199955659e-10
3.21992329938e-11
2.97193342546e-10
6.9892687272e-11
5.11646417472e-10
5.39099186593e-10
8.02199557646e-10
1.21971258688e-09
1.71883220298e-09
1.61174068546e-09
3.57117517393e-10
6.7781042958e-10
1.02651411331e-10
6.13950065498e-10
6.60977686952e-11
3.84194203731e-10
1.91557908665e-11
2.03541480256e-10
4.31903993462e-12
6.18291097219e-11
7.15715314187e-12
8.06190480909e-11
2.32812117972e-11
5.53069919034e-11
1.41710248639e-11
1.14919538788e-11
1.07580101827e-11
1.3055792126e-11
1.91314921481e-10
9.40448113219e-11
3.09998322448e-12
1.86712866651e-11
1.23012345805e-10
5.79948250675e-12
7.40756325344e-11
4.06503656395e-12
5.05522112216e-11
2.1943989777e-11
6.54913655381e-11
3.69516070628e-11
4.36110751391e-11
3.98289522766e-11
8.72215015513e-12
8.4404454319e-11
5.1573892185e-11
2.14549101063e-10
1.16853250552e-11
3.65201795664e-10
5.83722436299e-11
6.60668959941e-10
8.43249550054e-10
8.45910837233e-10
1.82623629578e-09
1.45520676882e-09
1.45920222437e-09
1.47356951549e-10
9.76528050001e-10
3.86985567437e-11
7.10726242583e-10
1.0551057221e-10
3.73207126268e-10
5.25390040833e-11
2.33708033465e-10
2.40930525281e-12
7.65828105669e-11
1.04705571194e-11
1.04132061592e-10
4.39071842089e-11
3.26355711648e-11
5.67846740605e-12
4.82808305852e-11
1.05836672877e-10
9.22138780608e-11
6.4385280912e-11
2.56442055846e-11
5.5087840159e-12
4.62276753786e-12
5.78274799517e-11
9.38480208526e-11
4.66038916813e-11
6.30392313282e-11
3.24044958284e-11
5.26000857565e-12
3.91811232703e-11
1.25855581171e-11
6.4165420823e-11
1.41684183465e-12
1.26269365562e-11
1.4971413511e-10
1.75313603071e-11
2.78524304309e-10
2.36385617663e-11
6.36460044459e-10
3.04286654661e-10
1.34231428191e-09
6.26757137575e-10
1.82731086198e-09
7.73721427437e-11
9.31351927057e-10
6.15045932248e-12
7.33904529037e-10
1.89935156119e-10
3.65795277504e-10
8.6634233494e-11
2.2380998147e-10
2.70505197712e-11
1.15707967657e-10
1.57910338091e-11
5.05407566167e-11
2.39501447424e-11
6.05577542623e-11
7.02110042527e-11
6.22016881404e-11
3.08563898749e-12
7.20818776545e-11
8.73514282099e-12
1.10884635944e-10
1.28521871261e-11
4.94673909041e-11
6.19713391171e-11
6.14707882581e-11
1.28325342645e-10
7.95282560054e-11
1.29863581964e-10
1.21568817065e-11
1.41818336237e-10
4.73264279619e-12
2.2575286921e-10
2.25476772894e-11
4.42395102854e-10
1.27825800228e-10
8.52236367373e-10
2.03718168722e-10
1.62915992343e-09
1.98252395936e-09
1.29421145813e-10
1.01831498935e-09
1.16936698856e-10
8.5967102405e-10
1.54614602409e-10
4.23246534899e-10
4.94492919376e-11
2.20953970071e-10
1.00500092445e-11
1.30905303791e-10
4.43861915703e-11
6.0747908292e-11
7.28341795668e-11
1.14904734012e-11
1.06775773524e-10
4.08399207654e-11
4.4626521204e-11
9.93779038323e-11
8.0664922973e-11
7.18422449814e-11
8.88151388795e-11
2.5478562741e-11
1.31631873093e-10
5.4406096874e-11
2.31986042289e-10
5.18465502261e-11
2.84569093882e-10
1.90676461983e-10
5.08165897328e-10
1.21425593066e-09
1.07697245737e-09
2.78361604227e-09
1.33595460054e-09
1.5815929427e-09
1.64676162329e-10
1.16443357393e-09
2.01804140228e-10
9.03968962747e-10
2.01383394111e-10
3.71460669412e-10
4.2663656124e-11
1.84908496047e-10
8.76211902187e-12
7.98135831597e-11
3.12235694154e-12
1.74917325074e-10
1.14436864391e-12
2.26498494521e-10
1.03572785519e-10
1.9888562943e-10
1.65844148472e-10
1.07921796557e-10
4.37767334731e-12
1.42315871774e-10
8.41549821632e-11
2.5470828027e-10
2.50106001233e-10
6.19506641475e-10
1.50347801836e-09
1.11999409873e-09
3.46106105414e-09
2.16657452645e-10
1.29122217905e-09
1.5609515087e-10
1.01003952806e-09
2.6990813852e-10
3.44643158937e-10
3.96377389763e-11
1.89159590674e-10
2.59116565521e-11
3.83498369586e-10
1.35392188e-10
3.5817066696e-10
2.42917936762e-10
1.78208527136e-10
7.27841323864e-11
2.48821917139e-10
3.38275779161e-10
5.50555705872e-10
1.48612513546e-09
8.49737417075e-10
1.7435529471e-09
3.03618914928e-10
9.9950601794e-10
1.97950420579e-10
3.18414000251e-10
9.74645052126e-11
7.10835540142e-10
3.7147860865e-10
3.05257922474e-10
2.3558320284e-10
4.80864095285e-10
1.58420709093e-09
5.69699396931e-10
3.18312358023e-09
9.93323758154e-11
1.39709113349e-09
4.12453503122e-10
7.54842940015e-10
3.81134865308e-10
3.30178324352e-10
1.12379183447e-09
4.6692249122e-11
4.19301069206e-10
4.52516807882e-09
4.86782040795e-09
4.64318803808e-09
4.37687267504e-09
3.1823820521e-09
7.98316519e-09
5.89349966853e-09
5.90315793294e-09
2.58030275147e-09
4.33937679022e-09
1.37011123881e-09
2.47694132457e-09
6.04896020669e-09
2.7895334922e-11
3.99091243325e-09
2.28166796665e-09
4.86076532951e-09
3.44103902494e-09
5.69397236006e-09
8.84336058989e-10
2.54895685346e-09
3.75718807037e-09
4.13195698617e-09
3.6139704209e-09
2.52532936555e-09
3.26114249129e-09
8.09116232099e-10
2.11441372778e-09
1.09768287293e-09
5.51043303668e-10
1.11009692744e-09
8.47744624122e-10
3.95389523863e-10
6.28402835346e-10
6.43228636359e-10
3.16143560093e-10
1.75620386132e-09
3.20709123995e-11
2.23159042521e-09
4.04602985084e-10
8.59538478573e-10
5.2990192533e-10
9.59089798058e-10
5.5137543853e-10
9.29894769942e-10
9.60976952567e-10
3.57211782112e-10
8.15515686504e-10
1.55822907448e-09
9.44646166492e-10
1.2784755205e-09
2.57032818867e-09
8.48108734333e-10
4.07430745434e-09
5.76661397401e-10
5.35116678006e-09
6.27346911108e-10
5.32416940244e-09
3.87007341073e-10
6.02084975978e-09
8.47486399187e-10
4.00058021984e-10
4.46112740092e-09
4.60932398775e-10
3.61801570225e-09
8.54716973366e-10
5.68795728558e-09
2.62371489875e-09
1.01751800653e-08
3.86530929007e-09
4.78148480674e-09
3.54791982457e-09
3.96094325828e-09
1.59280009977e-07
1.55700801449e-08
5.988254383e-08
3.8762837841e-08
1.75492463094e-07
3.43465214165e-08
1.52985660831e-09
1.24029319994e-07
5.10547156378e-08
1.66165944705e-07
2.16242639272e-07
7.88754320977e-08
2.83421649269e-07
2.70854936771e-07
3.20263794167e-08
1.83008193073e-07
2.75671571501e-07
6.42376133936e-08
4.8641734091e-08
1.27878325456e-08
5.07335278194e-08
5.32458441005e-08
6.08973958009e-08
1.2366750538e-07
2.31405659269e-08
1.96111217058e-07
9.40734778488e-08
2.06569917581e-07
1.70418316365e-07
8.44341928086e-08
1.4395468275e-07
1.53408197347e-07
6.82891166386e-08
8.6578900865e-08
3.28029808653e-08
1.05745825248e-08
6.89840738512e-09
1.68612247681e-08
1.55864043224e-08
3.76396244519e-08
1.75027423169e-08
6.54033384465e-08
4.08484719504e-08
8.04390512125e-09
7.85798694153e-08
2.4436735449e-08
9.38821687713e-08
5.37464222181e-08
8.60299966884e-08
6.46350271448e-08
5.28608377959e-08
4.5722351929e-08
3.60269566349e-08
3.74829320142e-08
2.12141887456e-08
2.46691801477e-08
1.04752843686e-08
1.26134754214e-08
4.72396928609e-09
2.47151951242e-09
2.17055549038e-09
5.01987432011e-09
3.039579309e-09
7.94796167492e-09
3.27919923405e-09
1.22828239695e-08
3.05710634929e-09
1.81611451767e-08
1.69351438678e-09
2.86277979057e-08
7.89434184091e-09
3.37217389699e-08
1.66865757295e-08
3.34626406004e-08
2.26414418937e-08
2.76874667726e-08
2.25859139837e-08
2.06897833128e-08
1.92877526233e-08
1.3217237267e-08
1.38137308169e-08
7.66938686469e-09
8.86574781394e-09
4.50319128582e-09
5.25942366441e-09
2.17536110235e-09
1.72913043797e-09
3.05691195213e-09
9.35914066713e-10
4.61272142463e-09
1.03344132262e-09
5.94337266922e-09
4.31321647824e-10
8.79524946785e-09
1.07438141766e-09
1.14350205221e-08
2.75926081749e-09
1.33208132238e-08
5.76657265882e-09
1.43762984591e-08
8.38710338504e-09
1.31886522724e-08
9.60112718209e-09
1.05803676226e-08
8.81904690174e-09
7.78263419138e-09
7.22143450561e-09
5.4275932313e-09
5.45463819692e-09
3.59002715137e-09
3.54356369009e-09
2.61676931736e-09
2.28451280027e-09
6.21373079077e-10
9.56631594311e-11
1.58358187258e-10
5.87482157084e-10
2.91799454448e-10
1.57636053849e-09
3.66448321998e-10
1.789315494e-09
5.05758835686e-09
3.24624965214e-09
4.23577137973e-11
4.7376830364e-09
1.97853583199e-09
5.36232966172e-09
2.79139854848e-09
5.73524675755e-09
3.81165068025e-09
5.80407773077e-09
4.43978187957e-09
5.17088243236e-09
4.56883963177e-09
4.14361224229e-09
3.79680738772e-09
3.00597885905e-09
2.88429526798e-09
2.36692370627e-09
2.0613275238e-09
1.89421391687e-09
1.64454329757e-09
2.45815481535e-09
6.28947356287e-10
1.44899397816e-09
1.06229828297e-09
8.14517333827e-10
8.85021959086e-10
1.05248864966e-09
3.98608666077e-10
1.78994387018e-09
3.38885977931e-10
1.88871742114e-09
1.80934325135e-10
1.89421366348e-09
4.82399049516e-10
2.19437877578e-09
1.21797171075e-09
2.23929544773e-09
1.25352643362e-09
2.12038828183e-09
1.18155580927e-09
1.52566778625e-09
1.16122389803e-09
1.0095231525e-09
6.35308634302e-10
1.04452591469e-09
6.31330185147e-10
8.09215224921e-10
1.30843647309e-09
9.74553210013e-10
2.19681280574e-10
9.3305360202e-12
2.28730945851e-10
1.24990396152e-11
7.84678116787e-10
1.00210324429e-10
1.26351799567e-09
2.61772599855e-11
1.64419821823e-09
4.33441420367e-11
1.28983806005e-09
3.65073422987e-10
1.35293560989e-09
3.11250333248e-10
5.17969952045e-10
3.75792355402e-10
3.3140669626e-10
1.88625031781e-10
4.19676076247e-10
2.60731487885e-10
3.57807081214e-11
1.28245558456e-10
3.74552907491e-10
1.50786490831e-10
2.41948673092e-10
1.09268282558e-10
1.30168078089e-10
9.07289608792e-10
2.87379136246e-10
8.46971810733e-10
2.44193912847e-10
6.61942091657e-10
2.32178723193e-10
1.64402131373e-10
8.3912976996e-10
2.84792352665e-10
3.62616344358e-10
2.30317607279e-10
1.48734024548e-11
2.26870387359e-11
7.16882068288e-10
9.74614508645e-10
2.19543868235e-10
4.57909506619e-10
2.47442595387e-10
2.69847284384e-10
7.77560863411e-10
2.39248354225e-10
5.33033043601e-10
1.02563305739e-09
1.75870146945e-09
3.36005323179e-09
2.2876147837e-10
1.90317272884e-10
2.49896432052e-10
1.14461438912e-10
1.80838332809e-09
9.26102814056e-10
2.08378951087e-09
9.87075480636e-10
1.15069149462e-09
1.04898233567e-09