# vtk DataFile Version 3.0
File Name: Molecule/methanol/methanol_6.25-2.vtk
ASCII
DATASET UNSTRUCTURED_GRID
FIELD FieldData 1
TIME 1 1 double
0.0
POINTS 302 double
1.554 -0.436 -0.353
1.386 -0.842 -0.336
1.351 -0.397 -0.928
1.198 -0.767 -0.912
1.12 -1.191 -0.31
0.956 -1.085 -0.888
0.773 -1.459 -0.275
0.639 -1.329 -0.857
0.368 -1.627 -0.235
0.271 -1.482 -0.82
-0.065 -1.684 -0.192
-0.124 -1.534 -0.781
-0.499 -1.627 -0.149
-0.519 -1.482 -0.741
-0.903 -1.459 -0.108
-0.887 -1.329 -0.705
-1.251 -1.191 -0.074
-1.204 -1.085 -0.673
-1.517 -0.842 -0.047
-1.446 -0.767 -0.649
-1.684 -0.436 -0.031
-1.599 -0.397 -0.634
-1.742 0.0 -0.025
-1.651 0.0 -0.629
-1.684 0.436 -0.031
-1.599 0.397 -0.634
-1.517 0.842 -0.047
-1.446 0.767 -0.649
-1.251 1.191 -0.074
-1.204 1.085 -0.673
-0.903 1.459 -0.108
-0.887 1.329 -0.705
-0.499 1.627 -0.149
-0.519 1.482 -0.741
-0.065 1.684 -0.192
-0.124 1.534 -0.781
0.368 1.627 -0.235
0.271 1.482 -0.82
0.773 1.459 -0.275
0.639 1.329 -0.857
1.12 1.191 -0.31
0.956 1.085 -0.888
1.386 0.842 -0.336
1.198 0.767 -0.912
1.554 0.436 -0.353
1.351 0.397 -0.928
1.907 0.0 0.656
1.859 0.42 0.656
1.859 0.21 1.019
1.859 -0.21 1.019
1.859 -0.42 0.656
1.859 -0.21 0.292
1.859 0.21 0.292
1.72 0.709 1.065
1.72 0.409 1.365
1.72 -0.0 1.475
1.72 -0.409 1.365
1.72 -0.709 1.065
1.72 -0.819 0.656
1.72 -0.709 0.246
1.72 -0.409 -0.054
1.72 -0.0 -0.163
1.72 0.409 -0.054
1.72 0.709 0.246
1.72 0.819 0.656
1.495 1.106 1.058
1.495 0.902 1.412
1.495 0.588 1.675
1.495 0.204 1.815
1.495 -0.204 1.815
1.495 -0.588 1.675
1.495 -0.902 1.412
1.495 -1.106 1.058
1.495 -1.177 0.656
1.495 -1.106 0.253
1.495 -0.902 -0.101
1.495 0.902 -0.101
1.495 1.106 0.253
1.495 1.177 0.656
1.196 1.416 1.071
1.196 1.241 1.453
1.196 0.966 1.771
1.196 0.613 1.998
1.196 0.21 2.116
1.196 -0.21 2.116
1.196 -0.613 1.998
1.196 -0.966 1.771
1.196 -1.241 1.453
1.196 -1.416 1.071
1.196 -1.476 0.656
1.196 -1.416 0.24
1.196 1.416 0.24
1.196 1.476 0.656
0.838 1.651 1.063
0.838 1.506 1.446
0.838 1.273 1.783
0.838 0.966 2.055
0.838 0.603 2.246
0.838 0.205 2.344
0.838 -0.205 2.344
0.838 -0.603 2.246
0.838 -0.966 2.055
0.838 -1.273 1.783
0.838 -1.506 1.446
0.838 -1.651 1.063
0.838 -1.701 0.656
0.838 -1.651 0.249
0.838 1.651 0.249
0.838 1.701 0.656
0.439 1.794 1.065
0.439 1.658 1.454
0.439 1.439 1.803
0.439 1.147 2.094
0.439 0.798 2.314
0.439 0.409 2.45
0.439 0.0 2.496
0.439 -0.409 2.45
0.439 -0.798 2.314
0.439 -1.147 2.094
0.439 -1.439 1.803
0.439 -1.658 1.454
0.439 -1.794 1.065
0.439 -1.84 0.656
0.439 -1.794 0.246
0.439 1.794 0.246
0.439 1.84 0.656
0.019 1.843 1.061
0.019 1.713 1.448
0.019 1.503 1.798
0.019 1.222 2.094
0.019 0.884 2.323
0.019 0.505 2.474
0.019 0.102 2.54
0.019 -0.305 2.518
0.019 -0.699 2.409
0.019 -1.059 2.218
0.019 -1.37 1.954
0.019 -1.617 1.629
0.019 -1.789 1.258
0.019 -1.876 0.86
0.019 -1.876 0.452
0.019 -1.789 0.053
0.019 1.843 0.25
0.019 1.888 0.656
-0.401 1.84 0.656
-0.401 1.794 1.065
-0.401 1.658 1.454
-0.401 1.439 1.803
-0.401 1.147 2.094
-0.401 0.798 2.314
-0.401 0.409 2.45
-0.401 0.0 2.496
-0.401 -0.409 2.45
-0.401 -0.798 2.314
-0.401 -1.147 2.094
-0.401 -1.439 1.803
-0.401 -1.658 1.454
-0.401 -1.794 1.065
-0.401 -1.84 0.656
-0.401 -1.794 0.246
-0.401 1.794 0.246
-0.8 1.701 0.656
-0.8 1.651 1.063
-0.8 1.506 1.446
-0.8 1.273 1.783
-0.8 0.966 2.055
-0.8 0.603 2.246
-0.8 0.205 2.344
-0.8 -0.205 2.344
-0.8 -0.603 2.246
-0.8 -0.966 2.055
-0.8 -1.273 1.783
-0.8 -1.506 1.446
-0.8 -1.651 1.063
-0.8 -1.701 0.656
-0.8 -1.651 0.249
-0.8 1.651 0.249
-1.158 1.476 0.656
-1.158 1.416 1.071
-1.158 1.241 1.453
-1.158 0.966 1.771
-1.158 0.613 1.998
-1.158 0.21 2.116
-1.158 -0.21 2.116
-1.158 -0.613 1.998
-1.158 -0.966 1.771
-1.158 -1.241 1.453
-1.158 -1.416 1.071
-1.158 -1.476 0.656
-1.158 -1.416 0.24
-1.158 1.416 0.24
-1.457 1.177 0.656
-1.457 1.106 1.058
-1.457 0.902 1.412
-1.457 0.588 1.675
-1.457 0.204 1.815
-1.457 -0.204 1.815
-1.457 -0.588 1.675
-1.457 -0.902 1.412
-1.457 -1.106 1.058
-1.457 -1.177 0.656
-1.457 -1.106 0.253
-1.457 1.106 0.253
-1.682 0.819 0.656
-1.682 0.709 1.065
-1.682 0.409 1.365
-1.682 -0.0 1.475
-1.682 -0.409 1.365
-1.682 -0.709 1.065
-1.682 -0.819 0.656
-1.682 -0.709 0.246
-1.682 0.709 0.246
-1.821 0.42 0.656
-1.821 0.21 1.019
-1.821 -0.21 1.019
-1.821 -0.42 0.656
-1.821 -0.21 0.292
-1.821 0.21 0.292
-1.868 -0.0 0.656
1.611 0.0 -0.359
1.21 -0.665 -1.121
0.966 -1.003 -1.153
0.966 -0.768 -1.505
1.21 -0.384 -1.402
0.966 -0.415 -1.74
1.21 -0.0 -1.505
0.966 0.0 -1.823
0.966 0.415 -1.74
1.21 0.384 -1.402
0.966 0.768 -1.505
1.21 0.665 -1.121
0.966 1.003 -1.153
0.648 -1.264 -1.148
0.648 -1.075 -1.519
0.648 -0.781 -1.813
0.648 -0.411 -2.001
0.648 0.0 -2.067
0.648 0.411 -2.001
0.648 0.781 -1.813
0.648 1.075 -1.519
0.648 1.264 -1.148
0.278 -1.36 -1.328
0.278 -1.15 -1.673
0.278 -0.855 -1.949
0.278 -0.497 -2.134
0.278 -0.101 -2.216
0.278 0.302 -2.189
0.278 0.682 -2.054
0.278 1.012 -1.821
0.278 1.267 -1.508
0.278 1.428 -1.137
-0.12 -1.483 -1.134
-0.12 -1.329 -1.505
-0.12 -1.085 -1.823
-0.12 -0.768 -2.067
-0.12 -0.397 -2.22
-0.12 -0.0 -2.272
-0.12 0.397 -2.22
-0.12 0.767 -2.067
-0.12 1.085 -1.823
-0.12 1.329 -1.505
-0.12 1.483 -1.134
-0.517 -1.36 -1.328
-0.517 -1.15 -1.673
-0.517 -0.855 -1.949
-0.517 -0.497 -2.134
-0.517 -0.101 -2.216
-0.517 0.302 -2.189
-0.517 0.682 -2.054
-0.517 1.012 -1.821
-0.517 1.267 -1.508
-0.517 1.428 -1.137
-0.887 -1.264 -1.148
-0.887 -1.075 -1.519
-0.887 -0.781 -1.813
-0.887 -0.411 -2.001
-0.887 0.0 -2.067
-0.887 0.411 -2.001
-0.887 0.781 -1.813
-0.887 1.075 -1.519
-0.887 1.264 -1.148
-1.205 -1.003 -1.153
-1.205 -0.768 -1.505
-1.205 -0.415 -1.74
-1.205 0.0 -1.823
-1.205 0.415 -1.74
-1.205 0.768 -1.505
-1.205 1.003 -1.153
-1.449 -0.665 -1.121
-1.449 -0.384 -1.402
-1.449 -0.0 -1.505
-1.449 0.384 -1.402
-1.449 0.665 -1.121
-1.602 -0.199 -1.081
-1.602 0.199 -1.081
1.403 0.0 -0.933
1.5825 -0.218 -0.356
1.4785 -0.218 -0.643
1.507 0.0 -0.646
1.481 0.1985 -0.6435
1.559 0.0 -0.5025
1.429 0.1985 -0.787

CELLS 600 2400
3 0 1 2
3 2 1 3
3 1 4 3
3 3 4 5
3 4 6 5
3 5 6 7
3 6 8 7
3 7 8 9
3 8 10 9
3 9 10 11
3 10 12 11
3 11 12 13
3 12 14 13
3 13 14 15
3 14 16 15
3 15 16 17
3 16 18 17
3 17 18 19
3 18 20 19
3 19 20 21
3 20 22 21
3 21 22 23
3 22 24 23
3 23 24 25
3 24 26 25
3 25 26 27
3 26 28 27
3 27 28 29
3 28 30 29
3 29 30 31
3 30 32 31
3 31 32 33
3 32 34 33
3 33 34 35
3 34 36 35
3 35 36 37
3 36 38 37
3 37 38 39
3 38 40 39
3 39 40 41
3 40 42 41
3 41 42 43
3 42 44 43
3 43 44 45
3 46 47 48
3 46 48 49
3 46 49 50
3 46 50 51
3 46 51 52
3 46 52 47
3 48 47 53
3 48 53 54
3 48 54 55
3 49 48 55
3 49 55 56
3 49 56 57
3 50 49 57
3 50 57 58
3 50 58 59
3 51 50 59
3 51 59 60
3 51 60 61
3 52 51 61
3 52 61 62
3 52 62 63
3 47 52 63
3 47 63 64
3 47 64 53
3 53 64 65
3 53 65 66
3 54 53 66
3 54 66 67
3 54 67 68
3 55 54 68
3 55 68 69
3 56 55 69
3 56 69 70
3 56 70 71
3 57 56 71
3 57 71 72
3 58 57 72
3 58 72 73
3 58 73 74
3 59 58 74
3 59 74 75
3 60 59 75
3 63 62 76
3 63 76 77
3 64 63 77
3 64 77 78
3 64 78 65
3 65 78 79
3 65 79 80
3 66 65 80
3 66 80 81
3 67 66 81
3 67 81 82
3 68 67 82
3 68 82 83
3 68 83 84
3 69 68 84
3 69 84 85
3 70 69 85
3 70 85 86
3 71 70 86
3 71 86 87
3 72 71 87
3 72 87 88
3 73 72 88
3 73 88 89
3 73 89 90
3 74 73 90
3 78 77 91
3 78 91 92
3 78 92 79
3 79 92 93
3 79 93 94
3 80 79 94
3 80 94 95
3 81 80 95
3 81 95 96
3 82 81 96
3 82 96 97
3 83 82 97
3 83 97 98
3 83 98 99
3 84 83 99
3 84 99 100
3 85 84 100
3 85 100 101
3 86 85 101
3 86 101 102
3 87 86 102
3 87 102 103
3 88 87 103
3 88 103 104
3 89 88 104
3 89 104 105
3 89 105 106
3 90 89 106
3 92 91 107
3 92 107 108
3 92 108 93
3 93 108 109
3 93 109 110
3 94 93 110
3 94 110 111
3 95 94 111
3 95 111 112
3 96 95 112
3 96 112 113
3 97 96 113
3 97 113 114
3 98 97 114
3 98 114 115
3 99 98 115
3 99 115 116
3 100 99 116
3 100 116 117
3 101 100 117
3 101 117 118
3 102 101 118
3 102 118 119
3 103 102 119
3 103 119 120
3 104 103 120
3 104 120 121
3 105 104 121
3 105 121 122
3 105 122 123
3 106 105 123
3 108 107 124
3 108 124 125
3 108 125 109
3 109 125 126
3 109 126 127
3 110 109 127
3 110 127 128
3 111 110 128
3 111 128 129
3 112 111 129
3 112 129 130
3 113 112 130
3 113 130 131
3 114 113 131
3 114 131 132
3 115 114 132
3 115 132 133
3 116 115 133
3 116 133 134
3 117 116 134
3 117 134 135
3 118 117 135
3 118 135 136
3 119 118 136
3 119 136 137
3 120 119 137
3 120 137 138
3 121 120 138
3 121 138 139
3 122 121 139
3 122 139 140
3 123 122 140
3 123 140 141
3 125 124 142
3 125 142 143
3 125 143 126
3 126 143 144
3 126 144 145
3 127 126 145
3 127 145 146
3 128 127 146
3 128 146 147
3 129 128 147
3 129 147 148
3 130 129 148
3 130 148 149
3 131 130 149
3 131 149 150
3 132 131 150
3 132 150 151
3 133 132 151
3 133 151 152
3 134 133 152
3 134 152 153
3 135 134 153
3 135 153 154
3 136 135 154
3 136 154 155
3 137 136 155
3 137 155 156
3 138 137 156
3 138 156 157
3 139 138 157
3 139 157 158
3 140 139 158
3 140 158 159
3 141 140 159
3 144 142 160
3 143 142 144
3 145 144 161
3 145 161 162
3 146 145 162
3 146 162 163
3 147 146 163
3 147 163 164
3 148 147 164
3 148 164 165
3 149 148 165
3 149 165 166
3 150 149 166
3 150 166 167
3 151 150 167
3 151 167 168
3 152 151 168
3 152 168 169
3 153 152 169
3 153 169 170
3 154 153 170
3 154 170 171
3 155 154 171
3 155 171 172
3 156 155 172
3 156 172 173
3 157 156 173
3 157 173 174
3 158 157 174
3 159 158 174
3 159 174 175
3 161 160 176
3 144 160 161
3 162 161 177
3 162 177 178
3 163 162 178
3 163 178 179
3 164 163 179
3 164 179 180
3 165 164 180
3 165 180 181
3 166 165 181
3 166 181 182
3 167 166 182
3 167 182 183
3 168 167 183
3 169 168 183
3 169 183 184
3 170 169 184
3 170 184 185
3 171 170 185
3 171 185 186
3 172 171 186
3 172 186 187
3 173 172 187
3 173 187 188
3 174 173 188
3 175 174 188
3 175 188 189
3 177 176 190
3 161 176 177
3 178 177 191
3 178 191 192
3 179 178 192
3 179 192 193
3 180 179 193
3 180 193 194
3 181 180 194
3 181 194 195
3 182 181 195
3 182 195 196
3 183 182 196
3 184 183 196
3 184 196 197
3 185 184 197
3 185 197 198
3 186 185 198
3 186 198 199
3 187 186 199
3 187 199 200
3 188 187 200
3 189 188 200
3 189 200 201
3 191 190 202
3 177 190 191
3 192 191 203
3 192 203 204
3 193 192 204
3 193 204 205
3 194 193 205
3 195 194 205
3 195 205 206
3 196 195 206
3 196 206 207
3 197 196 207
3 198 197 207
3 198 207 208
3 199 198 208
3 199 208 209
3 200 199 209
3 201 200 209
3 201 209 210
3 203 202 211
3 191 202 203
3 204 203 212
3 204 212 213
3 205 204 213
3 206 205 213
3 206 213 214
3 207 206 214
3 208 207 214
3 208 214 215
3 209 208 215
3 210 209 215
3 210 215 216
3 212 211 217
3 203 211 212
3 213 212 218
3 214 213 218
3 215 214 218
3 216 215 218
3 217 216 218
3 212 217 218
3 217 211 24
3 217 24 22
3 217 22 216
3 216 22 20
3 216 20 210
3 210 20 18
3 210 18 201
3 201 18 16
3 201 16 189
3 189 16 14
3 189 14 175
3 175 14 12
3 175 12 159
3 159 12 10
3 159 10 141
3 141 10 8
3 141 8 123
3 123 8 106
3 106 8 6
3 106 6 90
3 90 6 4
3 90 4 74
3 74 4 75
3 75 4 1
3 75 1 0
3 75 0 60
3 60 0 61
3 61 219 44
3 61 44 62
3 62 44 76
3 76 44 42
3 76 42 40
3 76 40 77
3 77 40 91
3 91 40 38
3 91 38 107
3 107 38 36
3 107 36 124
3 124 36 142
3 142 36 34
3 142 34 160
3 160 34 32
3 160 32 176
3 176 32 30
3 176 30 190
3 190 30 28
3 190 28 202
3 202 28 26
3 202 26 211
3 211 26 24
3 220 221 222
3 223 220 222
3 223 222 224
3 225 223 224
3 225 224 226
3 225 226 227
3 228 225 227
3 228 227 229
3 230 228 229
3 230 229 231
3 221 232 233
3 222 221 233
3 222 233 234
3 224 222 234
3 224 234 235
3 226 224 235
3 226 235 236
3 226 236 237
3 227 226 237
3 227 237 238
3 229 227 238
3 229 238 239
3 231 229 239
3 231 239 240
3 233 232 241
3 233 241 242
3 234 233 242
3 234 242 243
3 234 243 244
3 235 234 244
3 235 244 245
3 236 235 245
3 236 245 246
3 237 236 246
3 237 246 247
3 238 237 247
3 238 247 248
3 239 238 248
3 239 248 249
3 240 239 249
3 240 249 250
3 241 251 252
3 242 241 252
3 242 252 253
3 243 242 253
3 243 253 254
3 244 243 254
3 244 254 255
3 245 244 255
3 245 255 256
3 246 245 256
3 246 256 257
3 247 246 257
3 247 257 258
3 248 247 258
3 248 258 259
3 249 248 259
3 249 259 260
3 250 249 260
3 250 260 261
3 252 251 262
3 252 262 263
3 253 252 263
3 253 263 264
3 254 253 264
3 254 264 265
3 255 254 265
3 255 265 266
3 256 255 266
3 256 266 267
3 257 256 267
3 257 267 268
3 258 257 268
3 258 268 269
3 259 258 269
3 259 269 270
3 260 259 270
3 260 270 271
3 261 260 271
3 262 272 273
3 263 262 273
3 263 273 274
3 264 263 274
3 265 264 274
3 265 274 275
3 266 265 275
3 266 275 276
3 267 266 276
3 267 276 277
3 268 267 277
3 268 277 278
3 269 268 278
3 269 278 279
3 270 269 279
3 270 279 280
3 271 270 280
3 273 272 281
3 273 281 282
3 274 273 282
3 274 282 283
3 275 274 283
3 275 283 284
3 276 275 284
3 277 276 284
3 277 284 285
3 278 277 285
3 278 285 286
3 279 278 286
3 279 286 287
3 280 279 287
3 282 281 288
3 282 288 289
3 283 282 289
3 283 289 290
3 284 283 290
3 285 284 290
3 285 290 291
3 286 285 291
3 286 291 292
3 287 286 292
3 289 288 293
3 290 289 293
3 290 293 294
3 291 290 294
3 292 291 294
3 292 294 25
3 292 25 27
3 292 27 287
3 287 27 29
3 287 29 280
3 280 29 31
3 280 31 271
3 271 31 33
3 271 33 35
3 271 35 261
3 261 35 37
3 261 37 250
3 250 37 39
3 250 39 240
3 240 39 41
3 240 41 231
3 231 41 43
3 231 43 230
3 230 43 45
3 230 45 228
3 228 45 295
3 228 295 225
3 225 295 223
3 223 295 2
3 223 2 220
3 220 2 3
3 220 3 221
3 221 3 5
3 221 5 232
3 232 5 7
3 232 7 9
3 232 9 241
3 241 9 251
3 251 9 11
3 251 11 13
3 251 13 262
3 262 13 272
3 272 13 15
3 272 15 17
3 272 17 281
3 281 17 19
3 281 19 288
3 288 19 21
3 288 21 293
3 293 21 23
3 293 23 294
3 294 23 25
3 296 297 298
3 296 0 297
3 298 297 295
3 295 297 2
3 297 0 2
3 0 296 61
3 61 296 219
3 219 299 44
3 44 299 45
3 298 300 296
3 219 300 296
3 219 300 299
3 300 301 299
3 300 298 301
3 299 301 45
3 45 301 295
3 301 298 295

CELL_TYPES 600
5
5
5
5
5
5
5
5
5
5
5
5
5
5
5
5
5
5
5
5
5
5
5
5
5
5
5
5
5
5
5
5
5
5
5
5
5
5
5
5
5
5
5
5
5
5
5
5
5
5
5
5
5
5
5
5
5
5
5
5
5
5
5
5
5
5
5
5
5
5
5
5
5
5
5
5
5
5
5
5
5
5
5
5
5
5
5
5
5
5
5
5
5
5
5
5
5
5
5
5
5
5
5
5
5
5
5
5
5
5
5
5
5
5
5
5
5
5
5
5
5
5
5
5
5
5
5
5
5
5
5
5
5
5
5
5
5
5
5
5
5
5
5
5
5
5
5
5
5
5
5
5
5
5
5
5
5
5
5
5
5
5
5
5
5
5
5
5
5
5
5
5
5
5
5
5
5
5
5
5
5
5
5
5
5
5
5
5
5
5
5
5
5
5
5
5
5
5
5
5
5
5
5
5
5
5
5
5
5
5
5
5
5
5
5
5
5
5
5
5
5
5
5
5
5
5
5
5
5
5
5
5
5
5
5
5
5
5
5
5
5
5
5
5
5
5
5
5
5
5
5
5
5
5
5
5
5
5
5
5
5
5
5
5
5
5
5
5
5
5
5
5
5
5
5
5
5
5
5
5
5
5
5
5
5
5
5
5
5
5
5
5
5
5
5
5
5
5
5
5
5
5
5
5
5
5
5
5
5
5
5
5
5
5
5
5
5
5
5
5
5
5
5
5
5
5
5
5
5
5
5
5
5
5
5
5
5
5
5
5
5
5
5
5
5
5
5
5
5
5
5
5
5
5
5
5
5
5
5
5
5
5
5
5
5
5
5
5
5
5
5
5
5
5
5
5
5
5
5
5
5
5
5
5
5
5
5
5
5
5
5
5
5
5
5
5
5
5
5
5
5
5
5
5
5
5
5
5
5
5
5
5
5
5
5
5
5
5
5
5
5
5
5
5
5
5
5
5
5
5
5
5
5
5
5
5
5
5
5
5
5
5
5
5
5
5
5
5
5
5
5
5
5
5
5
5
5
5
5
5
5
5
5
5
5
5
5
5
5
5
5
5
5
5
5
5
5
5
5
5
5
5
5
5
5
5
5
5
5
5
5
5
5
5
5
5
5
5
5
5
5
5
5
5
5
5
5
5
5
5
5
5
5
5
5
5
5
5
5
5
5
5
5
5
5
5
5
5
5
5
5
5
5
5
5
5
5
5
5
5
5
5
5
5
5
5
5
5
5
5
5
5
5
5
5
5
5
5
5
5
5
5
5
5
5
5
5
5
5
5
5
5
5
5
5
5
5
5
5
5
5
5
5
5
5
5
5
5
5
5
5
5
5
5
5
5
5
5
5
5

CELL_DATA 600
SCALARS cell_data_0 double
LOOKUP_TABLE default
3.08229923884e-09
2.31873508597e-09
2.24884578396e-10
4.18678385111e-10
1.04940019782e-10
1.61809537616e-10
2.22562391355e-10
4.92610983937e-10
3.81705754035e-10
1.48625583119e-10
3.63035546579e-10
3.97562687769e-10
4.37784965367e-10
7.22749178556e-10
2.98659708783e-11
2.72168194492e-10
9.61360491463e-11
1.23542502532e-10
8.88348236542e-11
1.19078567031e-10
2.34371050037e-10
1.70295512688e-10
1.39943339505e-10
1.41498682426e-10
3.57340097822e-11
2.78897431711e-10
5.30505652682e-12
3.01567002207e-10
1.41437441408e-10
4.01978380893e-10
2.79956659889e-10
5.45524273332e-10
2.2235254763e-10
2.28277933851e-10
1.44999291738e-10
1.16342360315e-10
2.1320529181e-11
1.72841313182e-10
5.71463737147e-10
1.96174600941e-09
2.93811145157e-09
5.37334028538e-09
7.11779978761e-09
6.84638783205e-09
7.27628656012e-12
2.89406589691e-11
4.97753831295e-10
3.80359106833e-10
5.9732588786e-11
1.17673018243e-10
4.41899298677e-11
1.29650520656e-10
1.76818547476e-10
7.94981151176e-11
4.76066750236e-10
6.95329009538e-10
7.67804844829e-10
1.18706242465e-09
1.53906012688e-09
2.62394559635e-10
6.62669180372e-11
1.44477300532e-10
5.54317691673e-11
4.59336725378e-12
3.00981336811e-12
1.35305912014e-10
1.09081127359e-10
7.60169052081e-11
1.19911697145e-12
2.8874048664e-11
1.73867883107e-11
2.01061414786e-11
3.04649093328e-11
1.60598726267e-11
1.58299750327e-11
3.7598590113e-10
3.7645517965e-10
5.69996529995e-10
8.4244899913e-10
1.08355070464e-09
3.75273809076e-09
3.52615512706e-09
1.84894252747e-09
2.16961443149e-09
2.08556402144e-10
4.95914907782e-11
7.5478515325e-12
3.18519304126e-11
4.14841748112e-11
5.06874246547e-12
3.59143755499e-13
2.94947525621e-11
4.24844044986e-11
4.22960482646e-11
1.44431229396e-11
7.10424315472e-12
1.17553644306e-11
2.78599504071e-11
5.44814116913e-11
5.52972125159e-11
6.89687534757e-11
1.25584070439e-12
1.3240080858e-11
1.20611055323e-10
3.7556433344e-10
2.70568758061e-10
1.07561774802e-09
1.16766081188e-09
1.46455090889e-09
4.94582668994e-11
8.58785842035e-11
2.61056739588e-10
3.12491489665e-11
1.00309956033e-11
1.1020562988e-11
3.01103769583e-11
1.56720145756e-11
1.03007357121e-11
1.19394437951e-11
7.01220852148e-12
7.666768078e-12
5.6675342994e-12
2.52663627837e-11
4.78827717167e-11
6.85324552676e-11
2.25586737631e-11
7.75043438079e-13
3.00748330139e-11
1.4898506088e-11
4.72833725818e-11
5.99920614903e-11
1.52671897049e-10
1.59302526584e-10
6.7622742198e-11
1.51425795726e-10
1.33179550634e-10
6.74575869887e-12
6.88516025456e-11
1.26526988373e-10
2.43860512899e-11
3.22873619901e-11
1.02800888106e-11
3.84393170545e-12
5.41443623012e-12
3.52408809999e-11
2.16383634758e-11
9.05697958802e-13
2.88362581091e-11
8.40322798521e-12
2.45999929741e-11
2.82018961162e-11
2.72811957624e-11
1.61171024906e-12
2.005067023e-11
6.20098963469e-12
1.31062607251e-11
1.51002062134e-11
2.18499693371e-11
5.4531177916e-11
1.60497667753e-12
1.66703984996e-11
3.80162672598e-11
6.39548395388e-11
1.25276401385e-11
3.80494593446e-11
7.77138600193e-11
1.78808334177e-11
1.57853148591e-11
4.8089411731e-11
6.99211433718e-11
2.33603142283e-11
3.00262608484e-11
2.13014400602e-11
5.70753903319e-13
7.7734038223e-12
2.3894555549e-11
1.27346734219e-11
6.57007915037e-12
7.29733987398e-12
7.07932079044e-12
2.04775407156e-11
1.38376588857e-11
6.0686353477e-12
8.15445342927e-12
1.45216919636e-11
1.63038671785e-11
1.66366047618e-11
1.3089699652e-11
7.81882161321e-12
1.87858949691e-11
3.11711246583e-11
9.16308463772e-12
9.28579442059e-12
9.27422309564e-12
2.44755381302e-12
1.04150270323e-12
1.76172632291e-12
5.87740190314e-11
1.3443069338e-10
1.81386075235e-10
3.33368100765e-11
1.36947979263e-11
1.67374519285e-11
7.45111208374e-12
7.20594414457e-12
9.12424104317e-12
7.44188735637e-12
2.28867294305e-12
2.7690048398e-11
5.74403772778e-11
2.33942421148e-11
7.26779651034e-12
4.85126293542e-11
3.67378017616e-11
3.88602468916e-11
9.93548995841e-12
1.84089955382e-11
8.87164268862e-12
2.2260625907e-11
2.04516823197e-11
1.13816305247e-11
1.73530628372e-11
2.53681836182e-12
4.09059943817e-11
1.52691268752e-11
2.21653343782e-11
1.66806284185e-11
6.36858971015e-12
4.2952563655e-12
3.19983482244e-12
2.15266541424e-11
2.68320531349e-11
1.31862806657e-10
2.09573024407e-10
1.25090464965e-10
4.2068604369e-11
6.9919687665e-12
4.2240916289e-11
3.0840364349e-12
5.2679330385e-13
2.4032591158e-12
2.4730775154e-12
8.05824204941e-13
2.73130587182e-11
4.444991275e-11
2.23938720438e-11
2.53484902249e-11
1.68389178831e-11
1.49754336587e-11
2.12527912616e-11
5.20405429966e-12
9.6249480929e-12
4.70653150907e-12
9.95925085807e-12
2.89383117677e-12
1.97252516595e-11
3.37578139953e-12
1.30960683736e-12
1.58010473459e-11
1.05844350238e-11
4.96068834178e-13
7.52013007134e-12
2.49200302573e-11
3.84846798798e-11
4.04262033398e-11
9.84532403475e-11
1.07610038861e-10
2.57930250111e-11
4.82128244688e-11
2.41430859149e-12
8.91565640673e-12
1.56769570993e-11
5.38401176475e-13
2.51779400008e-12
1.5611660719e-12
8.67017601504e-12
2.58557104e-11
1.08503087749e-12
2.09803326968e-11
1.13599266389e-12
1.22814823437e-11
8.13275545705e-13
3.30847273076e-12
7.0505999e-12
7.60916740163e-14
2.20604179676e-12
1.4971063772e-11
7.69607088446e-12
2.8628289138e-12
1.36760966956e-12
3.43633519009e-11
5.41041766105e-11
1.94694491678e-11
1.56837823825e-10
1.06373738489e-10
1.91920235909e-11
3.72797761386e-11
4.62924644669e-12
4.0438086263e-12
2.49806961746e-12
5.18152713061e-12
3.44185648315e-12
7.63291799028e-12
1.04484988163e-12
1.55094365329e-11
2.14631876165e-11
2.94517003577e-12
9.11040093618e-12
2.17104955766e-12
5.45156714911e-12
7.12725816179e-12
3.98550587391e-12
6.02143385e-12
6.81774453571e-12
4.69096086993e-11
3.27677602311e-11
6.88220488333e-11
2.09259897596e-10
1.82172646264e-10
5.51651544208e-11
4.12219731003e-11
3.41737737713e-12
2.43068211152e-12
6.38044447055e-12
6.46409034921e-12
4.48539527268e-12
2.19652100154e-12
1.16574787553e-11
2.20542354769e-12
3.3088127232e-12
3.04140690883e-12
1.41446970841e-11
1.37606730966e-11
4.63865078863e-11
3.07019029519e-11
8.68138279833e-11
3.04506687476e-10
2.51602893647e-10
9.61473397698e-11
1.09811399292e-11
1.21919724501e-11
6.91725816488e-13
2.9432832414e-12
2.65631701304e-11
2.49567307664e-11
1.83094234425e-11
7.03988630173e-11
6.62183615274e-11
1.30184071479e-10
3.96420362521e-10
3.36110946667e-10
1.65840873422e-10
4.17575713603e-11
4.64731392963e-09
1.17544476369e-11
2.2342120843e-10
2.29902704797e-10
2.41249341111e-10
2.39940526314e-10
6.82644335443e-09
6.97226825904e-09
2.49383206119e-09
1.08829035725e-09
1.79829383856e-09
2.23365112317e-10
1.91114758811e-10
7.60323291522e-11
7.80884988132e-11
4.36867612228e-11
8.74680080307e-11
8.65790852845e-12
4.90146349048e-11
5.83316453919e-11
3.24400334616e-11
7.70600905084e-11
3.60657025271e-11
6.51235319176e-11
6.20176838255e-11
2.44179877513e-11
6.67513578156e-11
2.91766558679e-11
3.34205078347e-11
7.12320799455e-11
2.1967619525e-13
1.2358116751e-10
2.25805094445e-09
2.6475064014e-09
2.25889854372e-09
8.9396176886e-10
2.99819254867e-11
5.42517931285e-11
2.66557007377e-10
4.891916183e-10
2.48251666386e-10
3.50324285154e-10
2.87869001409e-10
2.86645138984e-11
1.7404942843e-12
3.19884895429e-11
8.17035545414e-12
2.10786949332e-11
4.59074159344e-12
4.6227551589e-11
8.60153531165e-12
6.49712464951e-11
9.01270895017e-11
1.73977290718e-10
6.45670922879e-11
1.02094527561e-10
5.12537342757e-11
7.02417013165e-11
6.60977800249e-09
7.95976045567e-09
1.0062751723e-08
3.77142335214e-09
5.58286746732e-09
1.98017030706e-09
1.01585657981e-08
9.33049867084e-09
1.61894847127e-09
6.43104433689e-09
4.24581334152e-10
7.04046520435e-09
3.08706934902e-09
3.84025070605e-09
4.21258620303e-09
4.20587968953e-10
1.04316388886e-09
6.79505179577e-10
2.90780122773e-09
8.39989339344e-10
9.85703879135e-10
5.87816320177e-10
6.39637463086e-10
4.5681405107e-11
4.78348425454e-10
3.90467193325e-10
1.43577281005e-09
2.81204471975e-10
3.76444674908e-10
5.14886197511e-10
2.42052204206e-10
4.09076574654e-10
2.78945002826e-10
1.18738142918e-09
3.29435442288e-10
4.86002009482e-10
6.5527504575e-11
3.94886834389e-11
1.34926926734e-11
1.32768382568e-11
2.42999878438e-10
4.37491307906e-13
2.65998610114e-10
3.47735192075e-11
1.74133217935e-10
5.17658689377e-11
6.54254709593e-11
3.48986167131e-11
2.73091341679e-11
8.82816209505e-12
8.52366772706e-11
8.51477215472e-11
1.59918335315e-10
1.11677442467e-12
7.74598667821e-11
4.80393734364e-11
2.64631285863e-11
2.40833753258e-11
2.73209854928e-10
5.78045475967e-11
3.28551016452e-10
1.46061748101e-11
1.02306194618e-10
8.52173898777e-11
1.31382966923e-10
3.66913556029e-11
1.14824472462e-11
3.4573193295e-11
5.94645426516e-11
4.96315776732e-11
1.04024999312e-10
4.08880809955e-11
5.83185202747e-11
1.65958795071e-10
1.47325741697e-10
2.22832920917e-11
5.83604171145e-11
3.4204152514e-10
1.15183510322e-10
1.86785652424e-10
2.56024369796e-10
2.82301573103e-10
2.49104302221e-10
2.54025678111e-11
1.90931396777e-10
1.27471077163e-10
1.17131284093e-10
4.14812872196e-11
2.31779512537e-11
1.49651540819e-10
5.42554925014e-11
1.08057048142e-10
7.97142374599e-11
1.50966420331e-10
3.2783684435e-10
4.29821747269e-10
3.00746323745e-10
1.7709475004e-11
1.2617187178e-10
1.7101509264e-10
2.60183368343e-10
4.60560493607e-10
3.47623301963e-10
7.98450365891e-11
5.0690002026e-11
2.88088952594e-10
2.27207825486e-10
1.78975237728e-10
3.8696592573e-11
2.54157169774e-11
1.08873340935e-10
7.25646961868e-11
1.30817474587e-10
2.94345191507e-10
1.89848120357e-10
6.48913441681e-11
1.21368919529e-10
4.24136813139e-11
7.27731548254e-11
1.21569385916e-10
1.47546032451e-10
2.6259179524e-10
3.04762609997e-09
2.6722525097e-09
2.62224914916e-09
4.00458952238e-09
3.39486738856e-10
2.81333131827e-10
4.35688938525e-10
2.49927896606e-10
5.25392233903e-10
1.61155108062e-10
2.01349630476e-10
1.6634485756e-11
1.53912239445e-10
2.47240626647e-10
7.82563925232e-11
3.67825740976e-11
3.49042815233e-11
5.04756608471e-10
2.533100662e-10
2.47240875725e-09
6.56057497151e-09
6.2534230203e-09
3.19249964836e-09
1.04464729326e-08
1.20757861896e-08
3.68179417294e-09
8.34802019973e-09
2.11353580747e-09
3.00155629398e-10
2.2663470546e-11
1.22694650547e-09
9.09447673076e-10
3.168873858e-11
1.91457484154e-10
4.24768201487e-10
4.69364451434e-10
2.40377759223e-11
1.54903378101e-10
3.85056498693e-10
4.03457195894e-10
4.46807299728e-10
1.80211576193e-11
2.90408331162e-10
2.59275640008e-11
6.72207377872e-12
1.43345774885e-10
2.24084279416e-10
7.99318636513e-11
3.09324018277e-09
3.22744728705e-09
2.06868072757e-09
1.15183156634e-08
1.14689955334e-08
9.79507339962e-09
7.03512562488e-09
9.21242398933e-09
5.79592382617e-09
5.93095391551e-09
3.5388083813e-09
5.15709242989e-09
7.01183228139e-09
4.05555924615e-10
5.12323480516e-09
7.3963131433e-09
6.54644369212e-09
9.91106848931e-09
1.86144440929e-08

