# vtk DataFile Version 3.0
File Name: Molecule/methanol/methanol_6.25-3.vtk
ASCII
DATASET UNSTRUCTURED_GRID
FIELD FieldData 1
TIME 1 1 double
0.0
POINTS 305 double
1.554 -0.436 -0.353
1.386 -0.842 -0.336
1.351 -0.397 -0.928
1.198 -0.767 -0.912
1.12 -1.191 -0.31
0.956 -1.085 -0.888
0.773 -1.459 -0.275
0.639 -1.329 -0.857
0.368 -1.627 -0.235
0.271 -1.482 -0.82
-0.065 -1.684 -0.192
-0.124 -1.534 -0.781
-0.499 -1.627 -0.149
-0.519 -1.482 -0.741
-0.903 -1.459 -0.108
-0.887 -1.329 -0.705
-1.251 -1.191 -0.074
-1.204 -1.085 -0.673
-1.517 -0.842 -0.047
-1.446 -0.767 -0.649
-1.684 -0.436 -0.031
-1.599 -0.397 -0.634
-1.742 0.0 -0.025
-1.651 0.0 -0.629
-1.684 0.436 -0.031
-1.599 0.397 -0.634
-1.517 0.842 -0.047
-1.446 0.767 -0.649
-1.251 1.191 -0.074
-1.204 1.085 -0.673
-0.903 1.459 -0.108
-0.887 1.329 -0.705
-0.499 1.627 -0.149
-0.519 1.482 -0.741
-0.065 1.684 -0.192
-0.124 1.534 -0.781
0.368 1.627 -0.235
0.271 1.482 -0.82
0.773 1.459 -0.275
0.639 1.329 -0.857
1.12 1.191 -0.31
0.956 1.085 -0.888
1.386 0.842 -0.336
1.198 0.767 -0.912
1.554 0.436 -0.353
1.351 0.397 -0.928
1.907 0.0 0.656
1.859 0.42 0.656
1.859 0.21 1.019
1.859 -0.21 1.019
1.859 -0.42 0.656
1.859 -0.21 0.292
1.859 0.21 0.292
1.72 0.709 1.065
1.72 0.409 1.365
1.72 -0.0 1.475
1.72 -0.409 1.365
1.72 -0.709 1.065
1.72 -0.819 0.656
1.72 -0.709 0.246
1.72 -0.409 -0.054
1.72 -0.0 -0.163
1.72 0.409 -0.054
1.72 0.709 0.246
1.72 0.819 0.656
1.495 1.106 1.058
1.495 0.902 1.412
1.495 0.588 1.675
1.495 0.204 1.815
1.495 -0.204 1.815
1.495 -0.588 1.675
1.495 -0.902 1.412
1.495 -1.106 1.058
1.495 -1.177 0.656
1.495 -1.106 0.253
1.495 -0.902 -0.101
1.495 0.902 -0.101
1.495 1.106 0.253
1.495 1.177 0.656
1.196 1.416 1.071
1.196 1.241 1.453
1.196 0.966 1.771
1.196 0.613 1.998
1.196 0.21 2.116
1.196 -0.21 2.116
1.196 -0.613 1.998
1.196 -0.966 1.771
1.196 -1.241 1.453
1.196 -1.416 1.071
1.196 -1.476 0.656
1.196 -1.416 0.24
1.196 1.416 0.24
1.196 1.476 0.656
0.838 1.651 1.063
0.838 1.506 1.446
0.838 1.273 1.783
0.838 0.966 2.055
0.838 0.603 2.246
0.838 0.205 2.344
0.838 -0.205 2.344
0.838 -0.603 2.246
0.838 -0.966 2.055
0.838 -1.273 1.783
0.838 -1.506 1.446
0.838 -1.651 1.063
0.838 -1.701 0.656
0.838 -1.651 0.249
0.838 1.651 0.249
0.838 1.701 0.656
0.439 1.794 1.065
0.439 1.658 1.454
0.439 1.439 1.803
0.439 1.147 2.094
0.439 0.798 2.314
0.439 0.409 2.45
0.439 0.0 2.496
0.439 -0.409 2.45
0.439 -0.798 2.314
0.439 -1.147 2.094
0.439 -1.439 1.803
0.439 -1.658 1.454
0.439 -1.794 1.065
0.439 -1.84 0.656
0.439 -1.794 0.246
0.439 1.794 0.246
0.439 1.84 0.656
0.019 1.843 1.061
0.019 1.713 1.448
0.019 1.503 1.798
0.019 1.222 2.094
0.019 0.884 2.323
0.019 0.505 2.474
0.019 0.102 2.54
0.019 -0.305 2.518
0.019 -0.699 2.409
0.019 -1.059 2.218
0.019 -1.37 1.954
0.019 -1.617 1.629
0.019 -1.789 1.258
0.019 -1.876 0.86
0.019 -1.876 0.452
0.019 -1.789 0.053
0.019 1.843 0.25
0.019 1.888 0.656
-0.401 1.84 0.656
-0.401 1.794 1.065
-0.401 1.658 1.454
-0.401 1.439 1.803
-0.401 1.147 2.094
-0.401 0.798 2.314
-0.401 0.409 2.45
-0.401 0.0 2.496
-0.401 -0.409 2.45
-0.401 -0.798 2.314
-0.401 -1.147 2.094
-0.401 -1.439 1.803
-0.401 -1.658 1.454
-0.401 -1.794 1.065
-0.401 -1.84 0.656
-0.401 -1.794 0.246
-0.401 1.794 0.246
-0.8 1.701 0.656
-0.8 1.651 1.063
-0.8 1.506 1.446
-0.8 1.273 1.783
-0.8 0.966 2.055
-0.8 0.603 2.246
-0.8 0.205 2.344
-0.8 -0.205 2.344
-0.8 -0.603 2.246
-0.8 -0.966 2.055
-0.8 -1.273 1.783
-0.8 -1.506 1.446
-0.8 -1.651 1.063
-0.8 -1.701 0.656
-0.8 -1.651 0.249
-0.8 1.651 0.249
-1.158 1.476 0.656
-1.158 1.416 1.071
-1.158 1.241 1.453
-1.158 0.966 1.771
-1.158 0.613 1.998
-1.158 0.21 2.116
-1.158 -0.21 2.116
-1.158 -0.613 1.998
-1.158 -0.966 1.771
-1.158 -1.241 1.453
-1.158 -1.416 1.071
-1.158 -1.476 0.656
-1.158 -1.416 0.24
-1.158 1.416 0.24
-1.457 1.177 0.656
-1.457 1.106 1.058
-1.457 0.902 1.412
-1.457 0.588 1.675
-1.457 0.204 1.815
-1.457 -0.204 1.815
-1.457 -0.588 1.675
-1.457 -0.902 1.412
-1.457 -1.106 1.058
-1.457 -1.177 0.656
-1.457 -1.106 0.253
-1.457 1.106 0.253
-1.682 0.819 0.656
-1.682 0.709 1.065
-1.682 0.409 1.365
-1.682 -0.0 1.475
-1.682 -0.409 1.365
-1.682 -0.709 1.065
-1.682 -0.819 0.656
-1.682 -0.709 0.246
-1.682 0.709 0.246
-1.821 0.42 0.656
-1.821 0.21 1.019
-1.821 -0.21 1.019
-1.821 -0.42 0.656
-1.821 -0.21 0.292
-1.821 0.21 0.292
-1.868 -0.0 0.656
1.611 0.0 -0.359
1.21 -0.665 -1.121
0.966 -1.003 -1.153
0.966 -0.768 -1.505
1.21 -0.384 -1.402
0.966 -0.415 -1.74
1.21 -0.0 -1.505
0.966 0.0 -1.823
0.966 0.415 -1.74
1.21 0.384 -1.402
0.966 0.768 -1.505
1.21 0.665 -1.121
0.966 1.003 -1.153
0.648 -1.264 -1.148
0.648 -1.075 -1.519
0.648 -0.781 -1.813
0.648 -0.411 -2.001
0.648 0.0 -2.067
0.648 0.411 -2.001
0.648 0.781 -1.813
0.648 1.075 -1.519
0.648 1.264 -1.148
0.278 -1.36 -1.328
0.278 -1.15 -1.673
0.278 -0.855 -1.949
0.278 -0.497 -2.134
0.278 -0.101 -2.216
0.278 0.302 -2.189
0.278 0.682 -2.054
0.278 1.012 -1.821
0.278 1.267 -1.508
0.278 1.428 -1.137
-0.12 -1.483 -1.134
-0.12 -1.329 -1.505
-0.12 -1.085 -1.823
-0.12 -0.768 -2.067
-0.12 -0.397 -2.22
-0.12 -0.0 -2.272
-0.12 0.397 -2.22
-0.12 0.767 -2.067
-0.12 1.085 -1.823
-0.12 1.329 -1.505
-0.12 1.483 -1.134
-0.517 -1.36 -1.328
-0.517 -1.15 -1.673
-0.517 -0.855 -1.949
-0.517 -0.497 -2.134
-0.517 -0.101 -2.216
-0.517 0.302 -2.189
-0.517 0.682 -2.054
-0.517 1.012 -1.821
-0.517 1.267 -1.508
-0.517 1.428 -1.137
-0.887 -1.264 -1.148
-0.887 -1.075 -1.519
-0.887 -0.781 -1.813
-0.887 -0.411 -2.001
-0.887 0.0 -2.067
-0.887 0.411 -2.001
-0.887 0.781 -1.813
-0.887 1.075 -1.519
-0.887 1.264 -1.148
-1.205 -1.003 -1.153
-1.205 -0.768 -1.505
-1.205 -0.415 -1.74
-1.205 0.0 -1.823
-1.205 0.415 -1.74
-1.205 0.768 -1.505
-1.205 1.003 -1.153
-1.449 -0.665 -1.121
-1.449 -0.384 -1.402
-1.449 -0.0 -1.505
-1.449 0.384 -1.402
-1.449 0.665 -1.121
-1.602 -0.199 -1.081
-1.602 0.199 -1.081
1.403 0.0 -0.933
1.5825 -0.218 -0.356
1.4785 -0.218 -0.643
1.507 0.0 -0.646
1.481 0.1985 -0.6435
1.559 0.0 -0.5025
1.429 0.1985 -0.787
1.455 0.0 -0.7895
1.468 0.09925 -0.7165
1.416 0.09925 -0.86

CELLS 606 2424
3 0 1 2
3 2 1 3
3 1 4 3
3 3 4 5
3 4 6 5
3 5 6 7
3 6 8 7
3 7 8 9
3 8 10 9
3 9 10 11
3 10 12 11
3 11 12 13
3 12 14 13
3 13 14 15
3 14 16 15
3 15 16 17
3 16 18 17
3 17 18 19
3 18 20 19
3 19 20 21
3 20 22 21
3 21 22 23
3 22 24 23
3 23 24 25
3 24 26 25
3 25 26 27
3 26 28 27
3 27 28 29
3 28 30 29
3 29 30 31
3 30 32 31
3 31 32 33
3 32 34 33
3 33 34 35
3 34 36 35
3 35 36 37
3 36 38 37
3 37 38 39
3 38 40 39
3 39 40 41
3 40 42 41
3 41 42 43
3 42 44 43
3 43 44 45
3 46 47 48
3 46 48 49
3 46 49 50
3 46 50 51
3 46 51 52
3 46 52 47
3 48 47 53
3 48 53 54
3 48 54 55
3 49 48 55
3 49 55 56
3 49 56 57
3 50 49 57
3 50 57 58
3 50 58 59
3 51 50 59
3 51 59 60
3 51 60 61
3 52 51 61
3 52 61 62
3 52 62 63
3 47 52 63
3 47 63 64
3 47 64 53
3 53 64 65
3 53 65 66
3 54 53 66
3 54 66 67
3 54 67 68
3 55 54 68
3 55 68 69
3 56 55 69
3 56 69 70
3 56 70 71
3 57 56 71
3 57 71 72
3 58 57 72
3 58 72 73
3 58 73 74
3 59 58 74
3 59 74 75
3 60 59 75
3 63 62 76
3 63 76 77
3 64 63 77
3 64 77 78
3 64 78 65
3 65 78 79
3 65 79 80
3 66 65 80
3 66 80 81
3 67 66 81
3 67 81 82
3 68 67 82
3 68 82 83
3 68 83 84
3 69 68 84
3 69 84 85
3 70 69 85
3 70 85 86
3 71 70 86
3 71 86 87
3 72 71 87
3 72 87 88
3 73 72 88
3 73 88 89
3 73 89 90
3 74 73 90
3 78 77 91
3 78 91 92
3 78 92 79
3 79 92 93
3 79 93 94
3 80 79 94
3 80 94 95
3 81 80 95
3 81 95 96
3 82 81 96
3 82 96 97
3 83 82 97
3 83 97 98
3 83 98 99
3 84 83 99
3 84 99 100
3 85 84 100
3 85 100 101
3 86 85 101
3 86 101 102
3 87 86 102
3 87 102 103
3 88 87 103
3 88 103 104
3 89 88 104
3 89 104 105
3 89 105 106
3 90 89 106
3 92 91 107
3 92 107 108
3 92 108 93
3 93 108 109
3 93 109 110
3 94 93 110
3 94 110 111
3 95 94 111
3 95 111 112
3 96 95 112
3 96 112 113
3 97 96 113
3 97 113 114
3 98 97 114
3 98 114 115
3 99 98 115
3 99 115 116
3 100 99 116
3 100 116 117
3 101 100 117
3 101 117 118
3 102 101 118
3 102 118 119
3 103 102 119
3 103 119 120
3 104 103 120
3 104 120 121
3 105 104 121
3 105 121 122
3 105 122 123
3 106 105 123
3 108 107 124
3 108 124 125
3 108 125 109
3 109 125 126
3 109 126 127
3 110 109 127
3 110 127 128
3 111 110 128
3 111 128 129
3 112 111 129
3 112 129 130
3 113 112 130
3 113 130 131
3 114 113 131
3 114 131 132
3 115 114 132
3 115 132 133
3 116 115 133
3 116 133 134
3 117 116 134
3 117 134 135
3 118 117 135
3 118 135 136
3 119 118 136
3 119 136 137
3 120 119 137
3 120 137 138
3 121 120 138
3 121 138 139
3 122 121 139
3 122 139 140
3 123 122 140
3 123 140 141
3 125 124 142
3 125 142 143
3 125 143 126
3 126 143 144
3 126 144 145
3 127 126 145
3 127 145 146
3 128 127 146
3 128 146 147
3 129 128 147
3 129 147 148
3 130 129 148
3 130 148 149
3 131 130 149
3 131 149 150
3 132 131 150
3 132 150 151
3 133 132 151
3 133 151 152
3 134 133 152
3 134 152 153
3 135 134 153
3 135 153 154
3 136 135 154
3 136 154 155
3 137 136 155
3 137 155 156
3 138 137 156
3 138 156 157
3 139 138 157
3 139 157 158
3 140 139 158
3 140 158 159
3 141 140 159
3 144 142 160
3 143 142 144
3 145 144 161
3 145 161 162
3 146 145 162
3 146 162 163
3 147 146 163
3 147 163 164
3 148 147 164
3 148 164 165
3 149 148 165
3 149 165 166
3 150 149 166
3 150 166 167
3 151 150 167
3 151 167 168
3 152 151 168
3 152 168 169
3 153 152 169
3 153 169 170
3 154 153 170
3 154 170 171
3 155 154 171
3 155 171 172
3 156 155 172
3 156 172 173
3 157 156 173
3 157 173 174
3 158 157 174
3 159 158 174
3 159 174 175
3 161 160 176
3 144 160 161
3 162 161 177
3 162 177 178
3 163 162 178
3 163 178 179
3 164 163 179
3 164 179 180
3 165 164 180
3 165 180 181
3 166 165 181
3 166 181 182
3 167 166 182
3 167 182 183
3 168 167 183
3 169 168 183
3 169 183 184
3 170 169 184
3 170 184 185
3 171 170 185
3 171 185 186
3 172 171 186
3 172 186 187
3 173 172 187
3 173 187 188
3 174 173 188
3 175 174 188
3 175 188 189
3 177 176 190
3 161 176 177
3 178 177 191
3 178 191 192
3 179 178 192
3 179 192 193
3 180 179 193
3 180 193 194
3 181 180 194
3 181 194 195
3 182 181 195
3 182 195 196
3 183 182 196
3 184 183 196
3 184 196 197
3 185 184 197
3 185 197 198
3 186 185 198
3 186 198 199
3 187 186 199
3 187 199 200
3 188 187 200
3 189 188 200
3 189 200 201
3 191 190 202
3 177 190 191
3 192 191 203
3 192 203 204
3 193 192 204
3 193 204 205
3 194 193 205
3 195 194 205
3 195 205 206
3 196 195 206
3 196 206 207
3 197 196 207
3 198 197 207
3 198 207 208
3 199 198 208
3 199 208 209
3 200 199 209
3 201 200 209
3 201 209 210
3 203 202 211
3 191 202 203
3 204 203 212
3 204 212 213
3 205 204 213
3 206 205 213
3 206 213 214
3 207 206 214
3 208 207 214
3 208 214 215
3 209 208 215
3 210 209 215
3 210 215 216
3 212 211 217
3 203 211 212
3 213 212 218
3 214 213 218
3 215 214 218
3 216 215 218
3 217 216 218
3 212 217 218
3 217 211 24
3 217 24 22
3 217 22 216
3 216 22 20
3 216 20 210
3 210 20 18
3 210 18 201
3 201 18 16
3 201 16 189
3 189 16 14
3 189 14 175
3 175 14 12
3 175 12 159
3 159 12 10
3 159 10 141
3 141 10 8
3 141 8 123
3 123 8 106
3 106 8 6
3 106 6 90
3 90 6 4
3 90 4 74
3 74 4 75
3 75 4 1
3 75 1 0
3 75 0 60
3 60 0 61
3 61 219 44
3 61 44 62
3 62 44 76
3 76 44 42
3 76 42 40
3 76 40 77
3 77 40 91
3 91 40 38
3 91 38 107
3 107 38 36
3 107 36 124
3 124 36 142
3 142 36 34
3 142 34 160
3 160 34 32
3 160 32 176
3 176 32 30
3 176 30 190
3 190 30 28
3 190 28 202
3 202 28 26
3 202 26 211
3 211 26 24
3 220 221 222
3 223 220 222
3 223 222 224
3 225 223 224
3 225 224 226
3 225 226 227
3 228 225 227
3 228 227 229
3 230 228 229
3 230 229 231
3 221 232 233
3 222 221 233
3 222 233 234
3 224 222 234
3 224 234 235
3 226 224 235
3 226 235 236
3 226 236 237
3 227 226 237
3 227 237 238
3 229 227 238
3 229 238 239
3 231 229 239
3 231 239 240
3 233 232 241
3 233 241 242
3 234 233 242
3 234 242 243
3 234 243 244
3 235 234 244
3 235 244 245
3 236 235 245
3 236 245 246
3 237 236 246
3 237 246 247
3 238 237 247
3 238 247 248
3 239 238 248
3 239 248 249
3 240 239 249
3 240 249 250
3 241 251 252
3 242 241 252
3 242 252 253
3 243 242 253
3 243 253 254
3 244 243 254
3 244 254 255
3 245 244 255
3 245 255 256
3 246 245 256
3 246 256 257
3 247 246 257
3 247 257 258
3 248 247 258
3 248 258 259
3 249 248 259
3 249 259 260
3 250 249 260
3 250 260 261
3 252 251 262
3 252 262 263
3 253 252 263
3 253 263 264
3 254 253 264
3 254 264 265
3 255 254 265
3 255 265 266
3 256 255 266
3 256 266 267
3 257 256 267
3 257 267 268
3 258 257 268
3 258 268 269
3 259 258 269
3 259 269 270
3 260 259 270
3 260 270 271
3 261 260 271
3 262 272 273
3 263 262 273
3 263 273 274
3 264 263 274
3 265 264 274
3 265 274 275
3 266 265 275
3 266 275 276
3 267 266 276
3 267 276 277
3 268 267 277
3 268 277 278
3 269 268 278
3 269 278 279
3 270 269 279
3 270 279 280
3 271 270 280
3 273 272 281
3 273 281 282
3 274 273 282
3 274 282 283
3 275 274 283
3 275 283 284
3 276 275 284
3 277 276 284
3 277 284 285
3 278 277 285
3 278 285 286
3 279 278 286
3 279 286 287
3 280 279 287
3 282 281 288
3 282 288 289
3 283 282 289
3 283 289 290
3 284 283 290
3 285 284 290
3 285 290 291
3 286 285 291
3 286 291 292
3 287 286 292
3 289 288 293
3 290 289 293
3 290 293 294
3 291 290 294
3 292 291 294
3 292 294 25
3 292 25 27
3 292 27 287
3 287 27 29
3 287 29 280
3 280 29 31
3 280 31 271
3 271 31 33
3 271 33 35
3 271 35 261
3 261 35 37
3 261 37 250
3 250 37 39
3 250 39 240
3 240 39 41
3 240 41 231
3 231 41 43
3 231 43 230
3 230 43 45
3 230 45 228
3 228 45 295
3 228 295 225
3 225 295 223
3 223 295 2
3 223 2 220
3 220 2 3
3 220 3 221
3 221 3 5
3 221 5 232
3 232 5 7
3 232 7 9
3 232 9 241
3 241 9 251
3 251 9 11
3 251 11 13
3 251 13 262
3 262 13 272
3 272 13 15
3 272 15 17
3 272 17 281
3 281 17 19
3 281 19 288
3 288 19 21
3 288 21 293
3 293 21 23
3 293 23 294
3 294 23 25
3 296 297 298
3 296 0 297
3 295 297 2
3 297 0 2
3 0 296 61
3 61 296 219
3 219 299 44
3 44 299 45
3 298 300 296
3 219 300 296
3 219 300 299
3 300 301 299
3 299 301 45
3 295 302 297
3 298 302 297
3 298 303 300
3 300 303 301
3 301 304 45
3 45 304 295
3 301 303 304
3 303 302 304
3 303 298 302
3 304 302 295

CELL_TYPES 606
5
5
5
5
5
5
5
5
5
5
5
5
5
5
5
5
5
5
5
5
5
5
5
5
5
5
5
5
5
5
5
5
5
5
5
5
5
5
5
5
5
5
5
5
5
5
5
5
5
5
5
5
5
5
5
5
5
5
5
5
5
5
5
5
5
5
5
5
5
5
5
5
5
5
5
5
5
5
5
5
5
5
5
5
5
5
5
5
5
5
5
5
5
5
5
5
5
5
5
5
5
5
5
5
5
5
5
5
5
5
5
5
5
5
5
5
5
5
5
5
5
5
5
5
5
5
5
5
5
5
5
5
5
5
5
5
5
5
5
5
5
5
5
5
5
5
5
5
5
5
5
5
5
5
5
5
5
5
5
5
5
5
5
5
5
5
5
5
5
5
5
5
5
5
5
5
5
5
5
5
5
5
5
5
5
5
5
5
5
5
5
5
5
5
5
5
5
5
5
5
5
5
5
5
5
5
5
5
5
5
5
5
5
5
5
5
5
5
5
5
5
5
5
5
5
5
5
5
5
5
5
5
5
5
5
5
5
5
5
5
5
5
5
5
5
5
5
5
5
5
5
5
5
5
5
5
5
5
5
5
5
5
5
5
5
5
5
5
5
5
5
5
5
5
5
5
5
5
5
5
5
5
5
5
5
5
5
5
5
5
5
5
5
5
5
5
5
5
5
5
5
5
5
5
5
5
5
5
5
5
5
5
5
5
5
5
5
5
5
5
5
5
5
5
5
5
5
5
5
5
5
5
5
5
5
5
5
5
5
5
5
5
5
5
5
5
5
5
5
5
5
5
5
5
5
5
5
5
5
5
5
5
5
5
5
5
5
5
5
5
5
5
5
5
5
5
5
5
5
5
5
5
5
5
5
5
5
5
5
5
5
5
5
5
5
5
5
5
5
5
5
5
5
5
5
5
5
5
5
5
5
5
5
5
5
5
5
5
5
5
5
5
5
5
5
5
5
5
5
5
5
5
5
5
5
5
5
5
5
5
5
5
5
5
5
5
5
5
5
5
5
5
5
5
5
5
5
5
5
5
5
5
5
5
5
5
5
5
5
5
5
5
5
5
5
5
5
5
5
5
5
5
5
5
5
5
5
5
5
5
5
5
5
5
5
5
5
5
5
5
5
5
5
5
5
5
5
5
5
5
5
5
5
5
5
5
5
5
5
5
5
5
5
5
5
5
5
5
5
5
5
5
5
5
5
5
5
5
5
5
5
5
5
5
5
5
5
5
5
5
5
5
5
5
5
5
5
5
5
5
5
5
5
5
5
5
5
5
5
5
5
5
5
5
5
5
5
5
5
5
5
5
5
5
5
5
5
5
5
5
5
5
5
5
5
5
5
5
5
5
5
5
5
5
5
5

CELL_DATA 606
SCALARS cell_data_0 double
LOOKUP_TABLE default
3.64868940707e-09
2.62828328744e-09
1.85192752681e-10
2.78977845585e-10
2.84460953293e-10
3.69620942328e-10
3.17730161776e-10
6.97122923552e-10
5.49684237745e-10
4.53589760198e-10
2.201101375e-10
5.93336116856e-10
4.94774887339e-10
7.35930385926e-10
5.64305251214e-11
2.4083148439e-10
1.77173689659e-10
3.31037398255e-10
3.06982672845e-10
2.08347439697e-10
2.18831379515e-10
2.28082073176e-10
2.78830446227e-10
2.60373368583e-10
4.33140919406e-11
3.13020631304e-10
7.27523245107e-11
4.74457541527e-10
6.14027300392e-11
7.14996982702e-10
3.99111771139e-10
6.91274619308e-10
1.84185740224e-10
3.94488116431e-10
2.41596032669e-10
3.05036876235e-10
1.03488452058e-10
9.48002641491e-11
7.18538919537e-10
2.60073618102e-09
3.78537069707e-09
2.77039267598e-09
5.19389204104e-09
5.22504800044e-09
8.97827100424e-11
2.62322919072e-10
6.96124716991e-10
4.80628597338e-10
1.3789127368e-10
1.48035627715e-10
2.31716224304e-11
4.72010438926e-11
7.86633275813e-11
7.72462585295e-11
4.73564585777e-10
5.10493005879e-10
6.73845148887e-10
2.15445618542e-09
2.10560768575e-09
4.47125775152e-10
5.31229587401e-13
1.5409994861e-10
1.34294296591e-10
6.31399155081e-11
2.0415019517e-11
9.39832459181e-11
6.9812315501e-11
7.35864281269e-11
5.33663521294e-11
8.68534022709e-11
1.51196789888e-10
1.36163799595e-10
9.11474772464e-11
2.29758659655e-11
3.37173524597e-11
2.97364935646e-10
4.01556725336e-10
6.26906193221e-10
6.06866941701e-10
1.23659348712e-09
4.84088971816e-09
4.37087664088e-09
2.41003410022e-09
2.51581297302e-09
3.1488032348e-11
4.76089337518e-11
9.73658812288e-12
4.71575489593e-11
7.76360068416e-11
3.94508529824e-11
1.20722079532e-11
4.31848900126e-11
4.32375582617e-11
5.43741378511e-11
5.73693400484e-11
9.55527340552e-11
5.48057679973e-11
2.19108821437e-11
3.57301079282e-11
5.83265531407e-11
8.18926890626e-11
6.79425842454e-11
8.03924989724e-11
1.84611807994e-10
4.71561199838e-10
2.9633867021e-10
1.05150968527e-09
1.24065750362e-09
1.65037531603e-09
1.83078027938e-10
1.58590367367e-10
1.90266644578e-10
4.67157151351e-11
1.0168041378e-11
3.06830619398e-11
4.69793125083e-11
6.6160838416e-11
5.44513590997e-11
1.03895649271e-11
5.09389848194e-12
5.69231823755e-11
7.57638607537e-11
3.15360257363e-11
2.85067127851e-11
4.98054096994e-11
4.42230179373e-11
4.42483100454e-11
6.00832779566e-11
6.26286339424e-11
1.41259104418e-11
9.20611427763e-11
1.85937745629e-10
1.69075904057e-10
4.46894652299e-11
1.8051244927e-10
1.02983097168e-10
2.67190348149e-11
8.85944330628e-11
1.26080629194e-10
7.62841104016e-11
4.59326048577e-11
1.8319651778e-11
4.26641823926e-12
1.75493792302e-11
2.53969982433e-11
2.43034922162e-11
2.54348776594e-11
2.76166839448e-11
4.57363719094e-11
1.20110351682e-11
2.14512632457e-11
5.10634322324e-11
1.89816030837e-11
2.32842452404e-11
5.62880649133e-11
4.02447968572e-11
1.7007216215e-11
3.86902216709e-11
5.12952556058e-11
1.2493441889e-12
2.11207681969e-11
6.65759068982e-11
8.81316488428e-11
2.3091121101e-11
2.09046432282e-11
4.2459180104e-11
1.14130316182e-12
4.92096420276e-12
3.2913636918e-11
5.00475313833e-11
3.82002033244e-11
2.427256178e-11
2.42534456175e-11
3.74565824258e-11
6.53182823164e-11
1.97181798283e-11
2.86131213927e-12
5.82289662323e-12
2.37791393814e-11
1.09796058779e-10
4.32375256983e-11
3.04909465754e-11
2.41623675547e-11
2.67006691347e-11
4.18623267093e-11
2.73233127217e-11
3.84578129365e-11
3.44715538156e-11
2.9772915524e-11
1.40782714544e-11
1.69261860736e-11
2.68267787218e-11
3.1618599666e-11
2.1482960069e-11
1.42670664321e-11
1.17803475818e-11
1.00819004341e-11
6.11243233377e-11
1.05623720604e-10
1.19360129485e-10
2.03269881122e-11
1.00992582253e-11
1.99769144363e-11
2.87786532953e-12
2.09521578256e-11
1.3518813742e-11
4.06606502034e-11
2.79338601348e-11
2.48228717266e-11
4.75063235522e-12
1.16157405343e-11
8.74169018812e-12
5.44917548355e-11
1.24604085179e-10
1.03218170512e-10
7.39956091489e-11
1.59349824126e-11
1.25299298023e-11
1.01181954583e-11
3.51353222181e-11
1.28696977044e-11
2.96757828429e-12
2.47285257849e-12
1.73976293209e-11
1.41321420245e-11
2.10074281405e-11
3.35918370826e-11
2.69347464419e-11
1.33206926125e-11
8.23296825905e-12
4.78739979005e-12
3.7593969391e-11
1.14874953679e-10
1.47195746527e-10
8.76426668032e-11
3.37072832577e-11
6.67323524691e-12
4.13794514122e-11
1.13567346532e-13
6.52443870971e-12
2.57022769293e-11
1.85364583565e-11
8.79388079801e-12
7.84869746589e-12
2.87195532813e-11
2.56871182999e-11
3.07514926389e-11
1.71168590754e-11
3.49577544111e-11
2.58265807543e-11
1.4676916376e-11
3.75008581523e-11
1.24009504833e-11
6.513244294e-13
1.23198200332e-12
9.01682614537e-12
9.54709571476e-12
1.784795907e-11
3.28516187983e-11
1.9771624218e-11
9.69696258488e-12
1.59160003148e-13
1.33579537703e-11
2.82502388156e-11
3.96760463674e-11
1.16397130911e-10
1.34829865644e-10
3.22976790777e-11
4.71388712303e-11
9.92823972323e-12
1.12520385256e-11
6.684915898e-12
1.6624094149e-11
3.02401555851e-11
1.93793680135e-11
9.18430887532e-12
1.79569443e-11
1.03842040745e-11
2.38204786264e-11
5.68434904197e-12
3.61528260238e-11
2.92050837453e-11
1.38435165904e-11
7.05242375598e-12
3.8876834839e-12
2.08849991023e-11
2.86060548067e-11
1.62796714805e-11
9.5816553028e-12
3.83065499377e-12
3.2646729029e-11
5.80195278766e-11
1.36342358995e-11
1.14202375169e-10
1.10876539919e-10
2.70686692582e-11
2.53071660615e-11
9.96553286139e-12
9.3651191064e-12
2.05840117109e-11
6.97998625945e-13
2.45565146282e-11
3.30151948605e-11
3.02708490556e-11
4.1338970317e-11
4.00304299513e-11
7.4282654336e-12
1.24057411432e-11
9.37792931934e-12
1.35930934366e-11
1.90936866835e-11
1.25022910441e-11
1.30720736469e-11
4.00957319978e-12
4.49965679952e-11
5.15050854211e-11
4.88485167017e-11
1.74196775062e-10
1.27139826566e-10
5.7427902257e-11
6.5943150491e-11
1.52096893896e-11
9.08907404249e-12
1.24063591909e-12
3.2875310374e-12
7.40358880445e-12
1.528788542e-11
1.14802020039e-11
1.69168355771e-12
1.49840132059e-11
1.12460504528e-11
1.55061725558e-12
2.64200860901e-12
4.62606818636e-11
4.7217871047e-11
5.12579647655e-11
3.06589570786e-10
2.56456046297e-10
4.8972761925e-11
5.65719182129e-11
3.07928438578e-12
9.0694704671e-12
4.32353122375e-12
1.33807772165e-12
2.1064059e-12
1.82195829494e-11
8.52961596219e-11
5.6440122375e-11
1.04552080892e-10
4.0815836703e-10
4.00047692033e-10
2.2478714843e-10
1.63132470864e-11
1.50183583349e-09
5.41256905183e-14
1.13459841022e-10
1.89095798261e-11
4.11279257318e-11
4.78863009977e-12
2.09587486952e-09
1.97742689783e-09
7.52212814558e-10
2.23062527235e-10
5.11530021678e-10
2.51462894961e-10
2.13762402654e-10
1.18023158276e-10
1.63041493376e-10
1.49295584372e-10
1.07836777428e-10
9.91686820726e-12
3.08703960653e-11
3.27965895687e-11
6.66035855016e-11
4.89712380928e-11
3.6496132734e-11
5.4890691353e-11
7.93709803743e-11
3.67614668027e-11
1.24073831649e-10
1.54462361229e-11
6.95781427326e-11
7.76714246877e-11
8.91401974025e-11
1.43224525343e-10
6.24406786499e-11
7.99469393541e-10
7.47823425682e-10
1.22881870708e-09
8.50239226763e-12
6.13434469429e-11
2.03946989913e-10
5.59944670702e-10
4.51908312855e-10
5.95156372505e-10
4.78058348332e-10
3.53202586606e-11
7.51986895604e-12
3.04754933501e-11
3.07893065291e-12
2.16291732449e-11
1.16984957356e-11
1.83553639708e-11
2.42766502508e-11
7.18646579583e-11
5.3406422602e-11
9.8660955406e-11
5.32363633643e-11
1.19532780104e-10
5.68281963331e-11
4.15201749929e-11
6.96601287302e-09
8.50183408496e-09
1.16024047127e-08
4.96261243979e-10
2.70824194029e-09
2.99063443674e-09
1.07462818884e-08
9.11088790327e-09
4.10990310162e-09
4.28066682874e-09
1.63017933407e-10
7.12313688394e-09
3.34776467376e-09
5.36480645061e-09
2.60576917049e-09
1.0866219201e-09
1.40619560467e-09
3.37687882991e-10
2.91511945657e-09
7.37942791543e-10
9.53951234112e-10
5.23865927091e-10
6.12914234793e-10
1.68010008069e-10
4.99625528344e-10
4.3385304604e-10
1.24950408336e-09
2.15540235064e-10
2.99531821634e-10
2.74463266701e-10
2.67087053164e-10
2.07778153366e-10
2.46859214263e-10
1.07080291246e-09
3.5095142421e-10
4.84159071799e-10
1.33485885022e-10
1.08818392571e-10
5.44668137782e-11
1.24915206425e-10
1.77767193264e-10
1.0367252506e-10
3.64635215397e-10
1.41812337747e-10
2.51360588378e-10
1.37955520548e-10
1.36892092663e-10
1.282040471e-10
1.02362921073e-10
8.53628313157e-11
1.33971597365e-10
1.49715796899e-10
2.69355428419e-10
1.26102885329e-10
1.30781004256e-10
1.76374745773e-10
7.91428931693e-11
1.56737706639e-10
2.60422699703e-10
1.38741375373e-10
1.91057076806e-10
1.67124130937e-10
2.7433279032e-11
2.3174809287e-10
1.03720720725e-11
8.639149952e-11
9.50733234938e-11
1.41833256275e-10
8.82991811215e-11
9.51411059256e-11
2.92732360378e-12
1.6837190009e-10
1.39284414826e-11
1.26625120266e-10
3.00373003344e-10
6.53080826316e-11
6.1958538921e-11
4.46920602372e-10
1.93153106719e-10
9.47989501442e-11
3.59552535104e-10
3.30015408099e-10
3.65724648723e-10
3.81387189307e-11
1.34239464496e-10
2.23360723976e-10
1.8189217038e-10
1.0066253676e-10
4.38715591929e-11
2.43364881283e-10
7.43405576474e-11
1.43371388212e-10
5.71694943049e-11
2.50613729077e-10
2.86660643596e-10
5.01856023253e-10
1.86896004755e-10
6.37351886288e-12
3.0002409777e-11
2.52078124408e-10
3.79594556171e-10
5.86024697672e-10
2.35707741611e-10
7.0963005748e-11
1.0151865838e-10
1.37147968947e-10
1.86316663872e-10
5.90676578812e-11
6.2516664473e-11
1.78882350887e-10
1.09936618728e-11
2.00717471802e-10
1.6981489683e-11
6.2402337197e-11
4.72274799871e-10
1.58426027896e-10
6.7990685333e-11
2.0439382455e-11
1.1743241931e-10
7.58175292771e-11
2.06294057228e-10
1.40053875668e-10
1.46053295858e-09
1.33206516917e-09
1.26075408788e-09
2.03316524269e-09
4.24384208444e-10
3.43126759056e-10
5.25703403549e-10
4.52142826929e-10
8.49185741952e-10
4.02090569048e-10
3.67292579078e-10
1.76271426609e-10
2.71297980157e-10
4.32327580757e-10
1.85971198106e-10
3.32692674643e-11
3.92644068499e-11
6.01873789302e-10
3.17376952248e-10
1.56991911303e-09
4.37142959797e-09
4.12785750457e-09
5.02357669634e-09
9.98630662627e-09
1.30888221831e-08
5.54580732922e-09
8.60682550376e-09
2.78621491712e-09
5.01650142968e-10
2.80715248375e-10
1.38914153667e-09
1.04602466749e-09
1.28829525834e-10
2.95111371298e-10
5.94867461564e-10
6.64368755469e-10
2.68972866635e-10
3.02232134049e-10
5.06884750475e-10
5.12834484267e-10
4.47265021184e-10
4.27971725391e-12
1.49175279631e-10
1.84328072704e-10
1.06095074599e-10
1.11437965914e-10
4.2683948637e-12
6.53968877706e-11
1.53086781412e-09
1.73905508444e-09
3.53614972292e-08
3.53043179528e-08
3.64516060201e-08
4.85682474963e-08
4.34927473506e-09
2.88132349944e-09
1.38491405828e-08
1.00661306531e-08
4.1981267147e-09
2.02145681649e-09
4.34303119154e-09
3.16940874802e-10
1.13256846407e-09
2.39084374374e-08
2.97240016182e-08
1.50504526141e-08
1.44417017998e-08
5.27041669429e-09
8.38517624888e-09
2.20376647344e-08
1.80173549366e-08
1.0034726749e-08
3.20500675899e-10

