# vtk DataFile Version 3.0
File Name: Molecule/methanol/methanol_2.0-4.vtk
ASCII
DATASET UNSTRUCTURED_GRID
FIELD FieldData 1
TIME 1 1 double
0.0
POINTS 111 double
1.4182850122 -0.00064047344495 -0.88991934061
1.6078914404 0.0021661904175 -0.36811882257
1.4131593704 -0.31800758839 -0.73753964901
0.80973726511 -1.2084457874 -0.8821040988
1.2539150715 -0.67432945967 -0.88253748417
0.97397178411 -1.3261018991 -0.27472063899
1.4675050974 -0.68748563528 -0.33266443014
0.24430139363 -1.4633367062 -0.86971724033
0.34278813004 -1.6429309845 -0.19159647822
-0.48014342785 -1.6415013075 -0.10238243639
-0.48395180702 -1.4814776182 -0.76421386003
-1.0679222345 -1.221596837 -0.63226205111
-1.1007740498 -1.3314480782 0.0090126767755
-1.6010129452 -0.67675173283 -0.019399337471
-1.5183655024 -0.61029869318 -0.65595078468
-1.7365493774 -0.00080687808804 -0.053742844611
-1.6256681681 -0.00066829985008 -0.69717782736
-1.516150713 0.6031935811 -0.66992688179
-1.5988507271 0.68139833212 -0.013394095004
-1.0650891066 1.2072618008 -0.68697935343
-1.0916519165 1.3390516043 -0.034565359354
-0.4835832417 1.6420192719 -0.093299157917
-0.49026888609 1.4747030735 -0.7799294591
0.32778316736 1.6504256725 -0.15876203775
0.26044228673 1.4741308689 -0.84604591131
0.97033017874 1.3445518017 -0.21910016239
0.83242100477 1.1987251043 -0.86015480757
1.2607885599 0.66659933329 -0.86925518513
1.4807026386 0.68757760525 -0.27220895886
1.4135065079 0.31615763903 -0.73302435875
1.9058036804 -0.006646218244 0.67073136568
1.7461638451 0.7588956356 0.66501635313
1.741707325 0.37652146816 1.326261282
1.7426314354 -0.395265311 1.3151408434
1.7446606159 -0.7623796463 0.658400774
1.7534182072 -0.39153081179 0.063694506884
1.8025021553 0.29910820723 0.11871073395
1.3802722692 1.0716744661 1.4031282663
1.3607778549 0.57790511847 1.8478034735
1.3767732382 -0.2009305805 1.9507594109
1.3639487028 -0.91543543339 1.6090271473
1.3774828911 -1.2529102564 1.0373390913
1.3899862766 -1.2352821827 0.26806533337
1.3665721416 1.3196101189 0.62890273333
0.73685961962 1.5609520674 1.4342194796
0.73782390356 1.0469025373 2.0506737232
0.74076652527 0.3330295682 2.366600275
0.70848989487 -0.33517307043 2.3797461987
0.72263026237 -1.0435174704 2.0601422787
0.72710520029 -1.5589054823 1.4491478205
0.72817081213 -1.7480125427 0.64291357994
0.71057552099 1.7550116777 0.63169586658
0.084243096411 1.7754760981 1.2883063555
0.087207019329 1.3567352295 1.9648109674
0.08710052073 0.6936621666 2.4086880684
0.080958917737 0.026107419282 2.5411565304
-0.043733350933 -0.73930615187 2.3904640675
-0.047691013664 -1.308837533 2.0110805035
-0.048978060484 -1.7535635233 1.3440943956
-0.052930202335 -1.8825383186 0.53947907686
-0.043129410595 1.884498477 0.58278340101
-0.69154238701 1.7469277382 0.65645426512
-0.6877065897 1.565267086 1.4366964102
-0.68703496456 1.0519610643 2.0537211895
-0.69116121531 0.33544412255 2.3708958626
-0.67069232464 -0.33333873749 2.3801822662
-0.69734209776 -1.0400950909 2.0560593605
-0.70277267694 -1.5519838333 1.4489264488
-0.69608938694 -1.7441433668 0.66711741686
-1.3337495327 1.3138875961 0.66151309013
-1.341584444 1.0724960566 1.4035588503
-1.3227754831 0.57775527239 1.8476675749
-1.3378279209 -0.2007509023 1.9517008066
-1.3258477449 -0.91554105282 1.6089818478
-1.3346385956 -1.2617146969 1.0256565809
-1.7007914782 0.76516580582 0.69394934177
-1.7024209499 0.37762984633 1.3286166191
-1.7045269012 -0.39530816674 1.3149309158
-1.7004787922 -0.77781426907 0.64854264259
-1.8677246571 -0.00049961882178 0.65457457304
0.65133726597 -0.92390280962 -1.688451767
-0.12743218243 -1.1694456339 -1.7294373512
-0.12050657719 -0.49314266443 -2.1875395775
0.62239229679 -0.2042004019 -2.0663979053
-0.12160608172 0.17445850372 -2.2612736225
0.60116529465 0.54112786055 -1.9671115875
-0.12687376142 0.89226347208 -1.9851052761
-0.11069606245 1.3424339294 -1.4831233025
0.60673385859 0.87493979931 -1.762308836
-0.90001809597 -1.2185842991 -1.194501996
-0.87088900805 -0.80604088306 -1.8047053814
-0.89121353626 -0.18630379438 -2.0479969978
-0.87261623144 0.58083480597 -1.9401962757
-0.89313727617 1.093095541 -1.4864215851
-1.4440933466 -0.39690816402 -1.4031825066
-1.4416042566 0.37766462564 -1.4157991409
0.64674383402 1.1354762316 -1.4284629822
1.0231904984 0.73795813322 -1.4475744963
0.89374381304 -0.34425842762 -1.8325636387
0.99449151754 0.16620884836 -1.7768418789
1.187698245 0.36818659306 -1.443592906
1.136330843 -0.038181982934 -1.6184681654
1.2855929136 0.46202760935 -1.1584916115
1.3476265669 0.20605191588 -1.1389189959
1.2804707289 0.0059545971453 -1.365661025
1.3484579325 -0.20363160968 -1.1380445957
1.2161955833 -0.36686223745 -1.4000225067
1.2869875431 -0.46680009365 -1.1525496244
0.91344350576 0.49925434589 -1.7546525002
1.093061924 -0.33951693773 -1.6117858887
1.0093694925 -0.14842694998 -1.7638591528

CELLS 218 872
3 0 1 2
3 3 4 5
3 6 5 4
3 7 3 8
3 5 8 3
3 9 10 8
3 7 8 10
3 10 9 11
3 12 11 9
3 12 13 11
3 11 13 14
3 13 15 14
3 16 14 15
3 16 15 17
3 18 17 15
3 17 18 19
3 20 19 18
3 20 21 19
3 22 19 21
3 21 23 22
3 22 23 24
3 23 25 24
3 24 25 26
3 26 25 27
3 28 27 25
3 27 28 29
3 30 31 32
3 30 32 33
3 30 33 34
3 30 34 35
3 30 35 36
3 30 36 31
3 32 31 37
3 32 37 38
3 32 38 39
3 33 32 39
3 33 39 40
3 33 40 41
3 34 33 41
3 34 41 42
3 35 34 42
3 31 43 37
3 37 43 44
3 37 44 45
3 38 37 45
3 38 45 46
3 39 38 46
3 39 46 47
3 40 39 48
3 47 48 39
3 40 48 49
3 41 40 49
3 41 49 50
3 42 41 50
3 43 51 44
3 44 51 52
3 44 52 53
3 45 44 53
3 45 53 54
3 46 45 54
3 46 54 55
3 47 46 55
3 47 55 56
3 48 47 56
3 48 56 57
3 49 48 57
3 49 57 58
3 50 49 58
3 50 58 59
3 51 60 52
3 52 60 61
3 52 61 62
3 53 52 62
3 53 62 63
3 54 53 63
3 54 63 64
3 55 54 64
3 55 64 65
3 56 55 65
3 56 65 66
3 57 56 66
3 57 66 67
3 58 57 67
3 58 67 68
3 59 58 68
3 62 61 69
3 62 69 70
3 63 62 70
3 63 70 71
3 64 63 71
3 64 71 72
3 65 64 72
3 65 72 66
3 73 66 72
3 67 66 73
3 67 73 74
3 68 67 74
3 70 69 75
3 70 75 76
3 71 70 76
3 72 71 76
3 72 76 77
3 73 72 77
3 74 73 77
3 74 77 78
3 76 75 79
3 77 76 79
3 78 77 79
3 78 79 13
3 15 13 79
3 78 13 12
3 78 12 74
3 74 12 68
3 68 12 9
3 68 9 59
3 59 9 8
3 59 8 50
3 50 8 5
3 50 5 42
3 42 5 6
3 42 6 35
3 35 6 1
3 35 1 36
3 36 1 28
3 36 28 31
3 31 28 43
3 43 28 25
3 43 25 51
3 51 25 23
3 51 23 60
3 60 23 21
3 60 21 61
3 61 21 20
3 61 20 69
3 69 20 18
3 69 18 75
3 75 18 79
3 15 79 18
3 80 81 82
3 83 80 82
3 83 82 84
3 85 83 84
3 85 84 86
3 86 87 88
3 81 89 90
3 82 81 90
3 82 90 91
3 84 82 91
3 84 91 92
3 86 84 92
3 86 92 93
3 87 86 93
3 90 89 94
3 91 90 94
3 91 94 95
3 92 91 95
3 93 92 95
3 93 95 17
3 93 17 19
3 93 19 22
3 93 22 87
3 87 22 24
3 87 24 96
3 96 24 26
3 96 26 97
3 80 4 3
3 80 3 7
3 80 7 81
3 81 7 10
3 81 10 89
3 89 10 11
3 89 11 14
3 89 14 94
3 94 14 16
3 94 16 95
3 95 16 17
3 83 98 80
3 99 100 101
3 99 83 85
3 0 29 1
3 1 29 28
3 27 97 26
3 100 102 103
3 102 29 103
3 102 27 29
3 103 29 0
3 100 103 104
3 104 103 105
3 4 2 6
3 6 2 1
3 106 105 107
3 105 2 107
3 105 0 2
3 107 2 4
3 106 107 80
3 107 4 80
3 0 105 103
3 104 105 106
3 100 108 97
3 108 88 97
3 108 85 88
3 97 88 96
3 96 88 87
3 88 85 86
3 98 109 80
3 80 109 106
3 98 110 109
3 110 101 109
3 110 99 101
3 109 101 106
3 106 101 104
3 104 101 100
3 99 110 83
3 110 98 83
3 85 108 99
3 99 108 100
3 100 97 102
3 102 97 27

CELL_TYPES 218
5
5
5
5
5
5
5
5
5
5
5
5
5
5
5
5
5
5
5
5
5
5
5
5
5
5
5
5
5
5
5
5
5
5
5
5
5
5
5
5
5
5
5
5
5
5
5
5
5
5
5
5
5
5
5
5
5
5
5
5
5
5
5
5
5
5
5
5
5
5
5
5
5
5
5
5
5
5
5
5
5
5
5
5
5
5
5
5
5
5
5
5
5
5
5
5
5
5
5
5
5
5
5
5
5
5
5
5
5
5
5
5
5
5
5
5
5
5
5
5
5
5
5
5
5
5
5
5
5
5
5
5
5
5
5
5
5
5
5
5
5
5
5
5
5
5
5
5
5
5
5
5
5
5
5
5
5
5
5
5
5
5
5
5
5
5
5
5
5
5
5
5
5
5
5
5
5
5
5
5
5
5
5
5
5
5
5
5
5
5
5
5
5
5
5
5
5
5
5
5
5
5
5
5
5
5
5
5
5
5
5
5
5
5
5
5
5
5

CELL_DATA 218
SCALARS cell_data_0 double
LOOKUP_TABLE default
2.8495286261e-07
2.06001347173e-07
8.2033538388e-07
1.3084055732e-08
2.93195467233e-08
2.90919896384e-07
5.31362353258e-09
7.63324668762e-08
2.29003781184e-07
5.61057266777e-07
7.45810588873e-08
1.86917215564e-09
1.39576149827e-08
1.2162540469e-07
1.70331656877e-08
2.13126212671e-07
4.83345383778e-07
1.74293848028e-07
8.61225917148e-08
2.85809299753e-07
4.5257250248e-07
4.0605272537e-08
1.37718954383e-07
8.42412324045e-09
7.2509453225e-07
1.8399358721e-07
1.49119741451e-08
6.07532644749e-09
3.99790424859e-08
3.87107876757e-09
7.00828667219e-08
6.44808699486e-08
2.54021184799e-08
1.38811039166e-08
5.1991803073e-09
7.5475331228e-09
6.05847480857e-08
1.30399675083e-08
7.26883315315e-08
4.51552248252e-08
1.12086381801e-07
7.91504429709e-08
1.27476496873e-08
5.06475062091e-08
1.030632525e-08
2.48597428739e-09
3.19154930726e-08
8.17042117293e-09
2.44992768867e-08
2.22689801094e-08
5.73147126969e-09
2.78975212328e-08
1.75979390827e-08
1.13670576062e-07
7.49837900166e-08
1.16037207231e-08
1.54106013099e-08
7.1902978465e-09
2.19396285455e-08
1.64892709054e-09
1.75986072716e-08
2.39825101265e-08
1.37535239304e-08
1.16580721313e-08
2.03598735473e-08
4.55191113637e-09
3.17205253911e-08
1.39818079394e-08
9.53352768614e-09
2.02801173214e-08
8.94940496683e-09
1.40865604073e-08
2.49197638975e-08
3.61494058871e-09
6.63382114082e-09
1.58690506458e-08
1.50896168549e-09
5.43796815555e-09
1.83438816918e-08
5.74910293563e-09
3.12319393125e-08
4.13818509257e-09
1.7848100542e-08
5.49379189195e-09
2.25349066519e-09
3.15406920468e-08
1.54665740155e-08
1.08524176194e-08
8.26305144021e-09
4.39115166206e-09
1.20294813259e-08
1.59860179799e-08
1.0200854318e-08
1.47104339407e-08
1.47229427264e-08
2.80960478105e-09
3.56223674774e-09
3.44462412329e-08
1.03514171075e-08
6.42047427524e-10
2.23503008199e-09
1.55779683011e-08
3.99376842579e-10
7.46101653001e-10
2.42577714349e-08
4.19740956534e-08
1.13615392104e-08
4.72204720101e-08
7.54407536243e-09
1.27112709796e-07
1.68842757267e-07
1.85050595699e-08
1.51613526767e-08
1.29807769044e-07
8.25182377476e-09
1.26699214604e-07
3.49091566748e-08
9.43960021324e-08
1.21758581187e-07
3.72819005305e-07
6.25734716457e-08
5.24154846692e-07
6.40510533002e-08
4.05250370824e-07
1.08544599665e-07
8.51820279749e-08
3.35010411335e-07
8.6609005502e-08
8.29837687805e-08
4.0966599324e-08
1.42236422794e-07
1.99974844607e-08
1.23899484758e-07
4.82606065508e-09
1.9313934371e-07
1.93866958404e-08
6.13842653256e-09
1.64172298107e-07
4.85115002607e-07
1.43042991482e-06
8.1638120508e-07
1.24993722865e-06
7.47483847193e-07
2.80746857327e-07
2.0543082965e-07
4.68195529831e-08
3.03304077449e-08
4.33904118472e-07
2.40549226081e-07
4.75620909562e-08
2.42847341956e-08
2.83818127513e-08
2.17509223935e-07
3.2986413519e-07
6.08560091513e-07
5.2777659026e-07
5.74778535051e-07
1.0703854044e-06
9.95974456406e-07
4.13950552822e-07
4.70211280387e-08
7.15208223715e-08
2.31769695181e-07
1.02199049841e-07
2.08732011229e-07
3.12988259689e-06
4.43208805517e-07
9.00553136259e-07
3.66156624331e-07
2.81789913916e-07
7.9798686537e-07
1.89919622129e-08
1.39942750496e-06
3.38722125899e-07
1.30793870418e-07
4.68044855531e-07
5.53637395302e-07
1.17403780038e-06
1.83069002604e-06
3.89372755391e-07
8.02489029048e-09
2.49893389237e-06
6.79776101928e-07
6.14391779847e-07
1.13562249611e-06
4.76173210257e-07
3.20246482513e-08
6.11598185934e-07
1.21617664575e-07
5.9393672353e-07
1.25756841294e-06
1.36266724687e-06
1.4682632952e-06
2.83852029308e-08
7.91821970033e-07
3.34633547594e-06
2.06831119931e-06
5.67377790832e-08
8.74553094161e-08
4.16680009604e-07
3.47042513998e-07
2.21814485721e-07
3.00444998411e-07
3.33562242637e-07
3.15208209403e-07
8.37443820969e-07
1.79517731415e-07
3.26262943161e-07
5.89242114798e-07
4.79595952865e-07
2.46660408906e-07
1.2637227142e-06
7.63662019064e-07
5.20749057572e-08
6.85110308237e-08
5.81496918504e-07
1.14466096908e-06
1.24829616201e-06

