# vtk DataFile Version 3.0
File Name: Molecule/methanol/methanol_0.5-3.vtk
ASCII
DATASET UNSTRUCTURED_GRID
FIELD FieldData 1
TIME 1 1 double
0.0
POINTS 35 double
1.3920172453 0.02427281253 -0.93650323153
1.6105109453 0.011260047555 -0.33485263586
1.2074177265 -0.74399781227 -0.92148900032
0.6253709197 -1.3002198935 -1.0084249973
0.8178473711 -1.4207675457 -0.25004661083
-0.91853916645 -1.2789703608 -0.73128002882
-0.94885522127 -1.4307620525 -0.049645777792
-1.7305802107 -0.0031923498027 0.017795747146
-1.642157197 -0.0016615521163 -0.7771922946
-0.93968331814 1.2710777521 -0.74933809042
-0.93372750282 1.4171689749 -0.077550008893
0.81260949373 1.4150779247 -0.27028244734
0.62950247526 1.2743780613 -1.0957818031
1.9037637711 -0.010564639233 0.67620813847
1.3813804388 1.3028446436 0.68384116888
1.3781149387 0.43822017312 1.8905557394
1.3703070879 -1.0246734619 1.4828850031
0.11360220611 1.3433973789 1.9760904312
-0.055450189859 0.033906176686 2.5355951786
-0.054759897292 -1.2962218523 2.0233652592
0.094471074641 -1.8822555542 0.76117187738
-0.059345498681 1.8818773031 0.68272405863
-1.3421542645 0.45527112484 1.8449776173
-1.3415999413 -1.0196959972 1.4713269472
0.6265141964 0.44835934043 -2.0010068417
-0.88216757774 0.45215952396 -1.9819482565
-0.88798522949 -1.0191892385 -1.5852464437
1.0992993116 0.28633752465 -1.6169579029
0.90986740589 -0.64607685804 -1.6755458117
1.281159997 0.15514501929 -1.3430681229
0.75823068619 -0.1659629494 -1.9830435514
1.2194846869 -0.37807703018 -1.3885781765
1.0364477634 -0.16288229823 -1.7338285446
-0.12419412285 -0.31184220314 -2.2392642498
0.05827582255 -0.94312703609 -1.9297825098

CELLS 66 264
3 0 1 2
3 3 4 5
3 6 5 4
3 6 7 5
3 5 7 8
3 8 7 9
3 10 9 7
3 10 11 9
3 12 9 11
3 12 11 0
3 1 0 11
3 13 14 15
3 13 15 16
3 15 14 17
3 15 17 18
3 16 15 18
3 16 18 19
3 16 19 20
3 14 21 17
3 18 17 22
3 18 22 23
3 19 18 23
3 20 19 23
3 20 23 6
3 20 6 4
3 20 4 16
3 16 4 13
3 13 4 1
3 13 1 14
3 14 1 11
3 14 11 21
3 21 11 10
3 21 10 22
3 21 22 17
3 22 10 7
3 22 7 23
3 23 7 6
3 24 25 12
3 26 3 5
3 26 5 8
3 26 8 25
3 25 8 9
3 25 9 12
3 3 2 4
3 4 2 1
3 12 27 24
3 28 2 3
3 0 29 12
3 29 27 12
3 24 27 30
3 28 31 2
3 2 31 0
3 27 29 32
3 29 31 32
3 29 0 31
3 32 31 28
3 24 33 25
3 33 26 25
3 24 30 33
3 30 34 33
3 30 28 34
3 33 34 26
3 26 34 3
3 3 34 28
3 28 30 32
3 32 30 27

CELL_TYPES 66
5
5
5
5
5
5
5
5
5
5
5
5
5
5
5
5
5
5
5
5
5
5
5
5
5
5
5
5
5
5
5
5
5
5
5
5
5
5
5
5
5
5
5
5
5
5
5
5
5
5
5
5
5
5
5
5
5
5
5
5
5
5
5
5
5
5

CELL_DATA 66
SCALARS cell_data_0 double
LOOKUP_TABLE default
1.81450252763e-06
3.96799561519e-06
1.02244950182e-06
1.27005255306e-06
8.79548153341e-07
7.94196502915e-10
2.38049037114e-06
3.30335053533e-07
2.61024688086e-07
1.38549508088e-05
1.2033772494e-05
8.24170250325e-07
1.01349763176e-06
5.06458044344e-07
4.35603880493e-07
7.90818228995e-07
5.77481187698e-07
3.20716577111e-07
4.39528728473e-07
7.06305164737e-07
6.29620145332e-07
4.60745178385e-08
1.81555896848e-07
2.56046838192e-07
9.45291531758e-07
6.42503646881e-07
1.35336213812e-06
2.55203085995e-06
3.17382764863e-07
3.34942691916e-06
4.14020738834e-07
6.47027431713e-07
8.98132287334e-07
2.19715252189e-07
3.7280802702e-06
4.69660718073e-07
1.86041421291e-06
6.66210772203e-06
1.98208610304e-06
2.1268586684e-06
6.12093730107e-06
1.76340367367e-06
8.66412791054e-06
6.30869939935e-08
1.50885161253e-06
7.70153801984e-06
4.93579130126e-06
2.18964556984e-05
5.9845712962e-07
3.94845642198e-06
8.19483523032e-08
8.2925875779e-06
6.12180254698e-07
1.73662046963e-06
5.55468968344e-06
1.67829707379e-08
3.48131586902e-06
1.88336924905e-06
1.37306515321e-06
1.95275316876e-06
2.39795656422e-06
1.54323400685e-06
5.00387602641e-07
1.73253768347e-06
9.45683975723e-07
1.81604718038e-06

