# vtk DataFile Version 3.0
File Name: Molecule/methanol/methanol_2.0-1.vtk
ASCII
DATASET UNSTRUCTURED_GRID
FIELD FieldData 1
TIME 1 1 double
0.0
POINTS 99 double
1.2675575018 -0.61370450258 -0.92981028557
1.4033648968 -0.0045884130523 -0.93047732115
1.4646019936 -0.67325717211 -0.35781648755
1.6077971458 0.0058477874845 -0.36647099257
0.81642574072 -1.2069377899 -0.87570077181
0.96216017008 -1.3355518579 -0.28041803837
0.34785699844 -1.6373875141 -0.21281935275
0.24552763999 -1.4657857418 -0.86240196228
-0.49396178126 -1.4828642607 -0.75529652834
-0.48251113296 -1.6371581554 -0.12205108255
-1.0934042931 -1.3346928358 -0.046752702445
-1.0687305927 -1.2087682486 -0.67215180397
-1.6003106833 -0.66944104433 -0.05128883943
-1.5163332224 -0.60785448551 -0.6639778018
-1.6465183496 -8.7095540948e-06 -0.64389002323
-1.7428481579 0.0022218378726 -0.015271677636
-1.5209157467 0.60387355089 -0.65728551149
-1.6040050983 0.66948139668 -0.029349755496
-1.0621846914 1.2092263699 -0.68936038017
-1.089106679 1.3370181322 -0.066525265574
-0.48494133353 1.6375206709 -0.11520175636
-0.50021904707 1.4800385237 -0.76173323393
0.34059333801 1.6424710751 -0.18913473189
0.25798353553 1.4783306122 -0.83630919456
0.96666765213 1.3388142586 -0.25205814838
0.82164078951 1.2035199404 -0.87238681316
1.4773349762 0.67741400003 -0.30521762371
1.2792778015 0.61170095205 -0.91228181124
1.9063918591 -0.003745856462 0.66343814135
1.7430843115 0.76726108789 0.66074645519
1.740760088 0.38189816475 1.327324152
1.7412387133 -0.39200288057 1.321113348
1.7420972586 -0.76904010773 0.65626198053
1.7472627163 -0.39148437977 0.027047600597
1.8007861376 0.30669814348 0.1136855036
1.3806358576 1.0694905519 1.4064954519
1.3704767227 0.57876986265 1.8383625746
1.3833612204 -0.18875795603 1.9458540678
1.3707332611 -0.90659713745 1.6072627306
1.3796001673 -1.2491489649 1.0444362164
1.3859648705 -1.2398996353 0.26325130463
1.3730607033 1.313752532 0.64032655954
0.7305996418 1.5639431477 1.4355806112
0.73115622997 1.0503032207 2.0519151688
0.73278218508 0.32824701071 2.3712193966
0.71558451653 -0.32913672924 2.378298521
0.7226973772 -1.0488817692 2.0568945408
0.72506302595 -1.5632107258 1.4430147409
0.72595101595 -1.7495683432 0.64819914103
0.71615850925 1.7532148361 0.6418094635
0.090937316418 1.7747658491 1.29162395
0.092712156475 1.3525339365 1.9697264433
0.092716537416 0.68499267101 2.4125103951
0.090722665191 0.033820342273 2.5406322479
-0.051636163145 -0.74352824688 2.3887298107
-0.052030257881 -1.3004704714 2.0190763474
-0.05429186672 -1.7497940063 1.3560435772
-0.056746076792 -1.8831797838 0.55451399088
-0.0507055372 1.88517344 0.61427026987
-0.68912237883 1.7486081123 0.65572506189
-0.68641638756 1.5665547848 1.4364333153
-0.68611854315 1.0531563759 2.0535492897
-0.68841308355 0.32945588231 2.373619318
-0.68511748314 -0.33239397407 2.3738799095
-0.69199812412 -1.0475002527 2.0541205406
-0.6946734786 -1.559445858 1.4427286386
-0.69106507301 -1.7473874092 0.66089123487
-1.3382325172 1.3107397556 0.65741997957
-1.3425755501 1.0699890852 1.4061020613
-1.332606554 0.57968562841 1.8371824026
-1.3411513567 -0.20026981831 1.9486333132
-1.3340406418 -0.91226631403 1.6020538807
-1.3388212919 -1.254372716 1.0372354984
-1.7011303902 0.77026081085 0.67604148388
-1.7020537853 0.38301476836 1.3281185627
-1.7030541897 -0.39203575253 1.3213067055
-1.701102376 -0.77702468634 0.64861750603
-1.8676407337 -0.00031421234598 0.6582877636
1.1990966797 0.3943168819 -1.4110239744
0.63970524073 0.58630543947 -1.9348809719
0.64817476273 1.0841259956 -1.5044306517
0.64965772629 -0.92721241713 -1.6881875992
-0.12511406839 -1.1558274031 -1.7450847626
-0.12042004615 -0.48385071754 -2.1920390129
0.63132947683 -0.20138660073 -2.0596036911
-0.12065245211 0.16789487004 -2.2622497082
-0.12019326538 0.89884704351 -1.9806662798
-0.12022398412 1.3396532536 -1.4880514145
-0.8952075839 -1.2389425039 -1.1724699736
-0.87850767374 -0.80420702696 -1.801063776
-0.88946378231 -0.194598943 -2.0493993759
-0.87914794683 0.58626520634 -1.9345225096
-0.89073640108 1.0894720554 -1.4940028191
-1.4467648268 -0.39061111212 -1.4021763802
-1.4457314014 0.38104718924 -1.4083023071
1.2071242332 -0.38822957873 -1.4034893513
0.92125415802 -0.32203790545 -1.817099452
1.2677509785 -6.6119013354e-05 -1.3853858709
1.0160536766 0.15269853175 -1.7577332258

CELLS 194 776
3 0 1 2
3 3 2 1
3 0 2 4
3 5 4 2
3 5 6 4
3 7 4 6
3 7 6 8
3 9 8 6
3 10 11 9
3 8 9 11
3 10 12 11
3 11 12 13
3 13 12 14
3 15 14 12
3 14 15 16
3 17 16 15
3 16 17 18
3 19 18 17
3 19 20 18
3 21 18 20
3 20 22 21
3 21 22 23
3 22 24 23
3 23 24 25
3 24 26 25
3 25 26 27
3 26 3 27
3 27 3 1
3 28 29 30
3 28 30 31
3 28 31 32
3 28 32 33
3 28 33 34
3 28 34 29
3 30 29 35
3 30 35 36
3 30 36 37
3 31 30 37
3 31 37 38
3 31 38 39
3 32 31 39
3 32 39 40
3 33 32 40
3 29 41 35
3 35 41 42
3 35 42 43
3 36 35 43
3 36 43 44
3 37 36 44
3 37 44 45
3 38 37 46
3 45 46 37
3 38 46 47
3 39 38 47
3 39 47 48
3 40 39 48
3 41 49 42
3 42 49 50
3 42 50 51
3 43 42 51
3 43 51 52
3 44 43 52
3 44 52 53
3 45 44 53
3 45 53 54
3 46 45 54
3 46 54 55
3 47 46 55
3 47 55 56
3 48 47 56
3 48 56 57
3 49 58 50
3 50 58 59
3 50 59 60
3 51 50 60
3 51 60 61
3 52 51 61
3 52 61 62
3 53 52 62
3 53 62 63
3 54 53 63
3 54 63 64
3 55 54 64
3 55 64 65
3 56 55 65
3 56 65 66
3 57 56 66
3 60 59 67
3 60 67 68
3 61 60 68
3 61 68 69
3 62 61 69
3 62 69 70
3 63 62 70
3 63 70 64
3 71 64 70
3 65 64 71
3 65 71 72
3 66 65 72
3 68 67 73
3 68 73 74
3 69 68 74
3 70 69 74
3 70 74 75
3 71 70 75
3 72 71 75
3 72 75 76
3 74 73 77
3 75 74 77
3 76 75 77
3 76 77 12
3 15 12 77
3 76 12 10
3 76 10 72
3 72 10 66
3 66 10 9
3 66 9 57
3 57 9 6
3 57 6 48
3 48 6 5
3 48 5 40
3 40 5 2
3 40 2 33
3 33 2 3
3 33 3 34
3 34 3 26
3 34 26 29
3 29 26 41
3 41 26 24
3 41 24 49
3 49 24 22
3 49 22 58
3 58 22 20
3 58 20 59
3 59 20 19
3 59 19 67
3 67 19 17
3 67 17 73
3 73 17 77
3 15 77 17
3 78 79 80
3 81 82 83
3 84 81 83
3 84 83 85
3 79 84 85
3 79 85 86
3 80 79 86
3 80 86 87
3 82 88 89
3 83 82 89
3 83 89 90
3 85 83 90
3 85 90 91
3 86 85 91
3 86 91 92
3 87 86 92
3 89 88 93
3 90 89 93
3 90 93 94
3 91 90 94
3 92 91 94
3 92 94 16
3 92 16 18
3 92 18 21
3 92 21 87
3 87 21 23
3 87 23 80
3 80 23 25
3 80 25 27
3 80 27 78
3 78 27 1
3 95 1 0
3 95 0 81
3 81 0 4
3 81 4 7
3 81 7 82
3 82 7 8
3 82 8 88
3 88 8 11
3 88 11 13
3 88 13 93
3 93 13 14
3 93 14 94
3 94 14 16
3 84 96 81
3 81 96 95
3 78 97 98
3 97 96 98
3 97 95 96
3 98 96 84
3 78 98 79
3 98 84 79
3 95 97 1
3 1 97 78

CELL_TYPES 194
5
5
5
5
5
5
5
5
5
5
5
5
5
5
5
5
5
5
5
5
5
5
5
5
5
5
5
5
5
5
5
5
5
5
5
5
5
5
5
5
5
5
5
5
5
5
5
5
5
5
5
5
5
5
5
5
5
5
5
5
5
5
5
5
5
5
5
5
5
5
5
5
5
5
5
5
5
5
5
5
5
5
5
5
5
5
5
5
5
5
5
5
5
5
5
5
5
5
5
5
5
5
5
5
5
5
5
5
5
5
5
5
5
5
5
5
5
5
5
5
5
5
5
5
5
5
5
5
5
5
5
5
5
5
5
5
5
5
5
5
5
5
5
5
5
5
5
5
5
5
5
5
5
5
5
5
5
5
5
5
5
5
5
5
5
5
5
5
5
5
5
5
5
5
5
5
5
5
5
5
5
5
5
5
5
5
5
5
5
5
5
5
5
5

CELL_DATA 194
SCALARS cell_data_0 double
LOOKUP_TABLE default
2.23928519006e-06
3.42052050996e-06
2.25275999564e-07
6.86213366453e-07
5.60644759678e-08
2.86964938858e-09
8.0665010738e-08
1.84283918891e-07
2.69438154178e-07
1.16709989812e-07
6.19486276052e-07
1.26280698079e-07
2.6624387588e-07
3.58223470756e-07
1.851014301e-07
8.11139404934e-08
1.96866101362e-07
5.08156659583e-07
1.79900271044e-07
1.33820872147e-07
2.24403396351e-07
3.32866388545e-07
7.89901072096e-08
1.68194478968e-07
2.77867004264e-07
7.09329167744e-07
4.62236390341e-07
9.26133107443e-07
7.77735296411e-08
3.44794175695e-08
1.02307891664e-07
1.02607186376e-07
2.97567969673e-07
9.48162055136e-08
1.96741184357e-08
3.66850517778e-08
1.77671494698e-08
3.08359535255e-08
6.34053869005e-08
5.63539752621e-09
7.35163666941e-08
1.6436425282e-08
2.40220093705e-07
3.64804414545e-08
7.59958925171e-09
3.14153004932e-08
6.67210571689e-09
2.50195956361e-08
4.29795422427e-08
1.22449406255e-08
4.2363161119e-08
2.63813247431e-08
8.81999394143e-09
7.62383071242e-09
2.23944867687e-09
5.90188379043e-08
2.99537666449e-08
5.87305611061e-09
9.82915848989e-09
1.40705151315e-08
2.10141524595e-08
3.40209317691e-10
2.3648555668e-08
2.98925439928e-08
1.62602405024e-08
1.47638408476e-08
1.93986079092e-08
2.21192355316e-10
2.61718566088e-08
1.29731143618e-08
3.69428740857e-09
2.27457575676e-08
4.17735324126e-09
1.52988656641e-08
3.1249053586e-08
1.80455867366e-09
5.50244777322e-09
1.59794794663e-08
7.19700582576e-11
8.92933635144e-09
2.22050976186e-08
9.96458047818e-09
3.28262264013e-08
5.70040105901e-09
1.9561396005e-08
5.38212383125e-09
2.39692348315e-09
3.2672831979e-08
1.60272062824e-08
1.0127544019e-08
7.80170339029e-09
1.79246880052e-11
1.51375791496e-08
2.21108253815e-08
8.43969485865e-09
1.73780429971e-08
1.71051342648e-08
9.79388482219e-10
3.54493947594e-09
3.7373335254e-08
1.11020401829e-08
6.75981485701e-10
1.11251350365e-09
1.56938081293e-08
2.15509614718e-09
3.15050797483e-10
2.64097971548e-08
4.6393619548e-08
1.16990268952e-08
4.97713584726e-08
1.69305192054e-08
1.02590749049e-07
2.11726593528e-07
3.77498571934e-08
2.49218316541e-08
1.40903347849e-07
2.72733343733e-08
1.34464004706e-07
4.17658038987e-08
7.08173730692e-08
4.86681392702e-08
3.28296984862e-07
2.63892346815e-07
1.31779151736e-06
2.91895534129e-07
8.43534564051e-07
7.82451246096e-08
5.93511701185e-08
7.25063725495e-08
3.83878298867e-08
8.06309057446e-08
5.19998229722e-08
1.68728555607e-07
3.44019738763e-08
1.39040631401e-07
7.6814366893e-10
2.24445030558e-07
1.77015835822e-08
1.2074160839e-08
1.50287432796e-07
3.43448106658e-06
3.09778118085e-07
1.45055114503e-06
8.95649362571e-07
1.67663533142e-06
6.85369424614e-07
4.215190177e-07
1.93065557887e-08
1.09220612736e-07
8.26523449e-08
5.19995015676e-09
4.64637190743e-07
2.39229545098e-07
2.19716848949e-07
3.39799789659e-08
3.09577749059e-07
2.55834673667e-07
4.50048045167e-07
6.69069101109e-07
5.4353758924e-07
7.94348600562e-07
1.0638374593e-06
1.03149321614e-06
5.35295957471e-07
2.20407566294e-07
2.9914557972e-07
1.52396106037e-07
1.02541498014e-07
1.83075341401e-06
1.75685936801e-06
1.21355246677e-05
9.34707292015e-06
1.99132362117e-06
3.17742278147e-06
4.09222052055e-07
7.47207784502e-07
6.49767452487e-07
3.18368103272e-07
8.74283805652e-07
1.39624064056e-07
1.43761090824e-06
3.92205905626e-07
2.48846264851e-07
4.74027274615e-07
6.00819073385e-07
1.50442400989e-07
2.52299015678e-06
4.90997199546e-06
2.16545268645e-07
8.89502341627e-07
1.42828285889e-06
2.01642949218e-06
1.01313738464e-06
2.75677730345e-06

