# vtk DataFile Version 3.0
File Name: Molecule/methanol/methanol_4.0-0.vtk
ASCII
DATASET UNSTRUCTURED_GRID
FIELD FieldData 1
TIME 1 1 double
0.0
POINTS 181 double
1.6129721403 0.0047780899331 -0.35217773914
1.5119717121 -0.57052719593 -0.34879988432
1.423668623 8.52230296e-05 -0.88288480043
1.3225806952 -0.53669714928 -0.88630008698
1.2235606909 -1.0859128237 -0.30082508922
1.0506712198 -1.0051174164 -0.85429245234
0.76730751991 -1.4437280893 -0.3254660368
0.63443666697 -1.3408520222 -0.83241301775
0.14049744606 -1.5215972662 -0.77773290873
0.22732000053 -1.6554332972 -0.23141649365
-0.35031664371 -1.6424627304 -0.23400039971
-0.39329195023 -1.5156828165 -0.73421669006
-0.88517934084 -1.3373018503 -0.68330311775
-0.8957285285 -1.4662040472 -0.08251978457
-1.3447008133 -1.0878866911 -0.061355832964
-1.2945338488 -0.98674994707 -0.66097468138
-1.6389597654 -0.58417159319 -0.017047805712
-1.5601285696 -0.52290809155 -0.63663709164
-1.7437961102 -0.0039123021998 -0.0049059279263
-1.651471138 0.0046321908012 -0.62680947781
-1.6426581144 0.5742931366 -0.016790119931
-1.5568763018 0.53074336052 -0.63687169552
-1.3538117409 1.0820087194 -0.041106946766
-1.2892524004 0.9929817915 -0.65796351433
-0.90387541056 1.4630401134 -0.081395715475
-0.87832701206 1.3376588821 -0.69142097235
-0.368021667 1.6413532495 -0.22736732662
-0.37893274426 1.5182418823 -0.73463857174
0.14157228172 1.5212943554 -0.77816069126
0.22510683537 1.6557433605 -0.23213449121
0.76999413967 1.4526826143 -0.2985855937
0.6434828639 1.3370558023 -0.83203029633
1.0576169491 1.0008231401 -0.85123950243
1.2238739729 1.0821766853 -0.30917775631
1.5075132847 0.57412660122 -0.35870346427
1.3132474422 0.53176057339 -0.91267132759
1.9070010185 -4.4854323278e-07 0.6559240818
1.8282063007 0.53744375706 0.65595221519
1.8281873465 0.26899141073 1.1206371784
1.8281843662 -0.26843875647 1.1210399866
1.8282064199 -0.537579 0.65583831072
1.8253141642 -0.27324053645 0.17530982196
1.8252242804 0.27172985673 0.17590102553
1.6102496386 0.87823826075 1.1649193764
1.6012974977 0.51244831085 1.5467112064
1.6107552052 -0.0052013653331 1.6698240042
1.6029520035 -0.50952124596 1.5459157228
1.6085218191 -0.88131678104 1.1658067703
1.6024378538 -1.0268274546 0.65583145618
1.6086424589 -0.88120818138 0.14602175355
1.6089642048 0.87793123722 0.14001266658
1.6015154123 1.0273252726 0.65541952848
1.2577008009 1.3262190819 1.1732655764
1.2575149536 1.0487722158 1.6189332008
1.2453020811 0.64258742332 1.9382938147
1.2558101416 0.13982106745 2.0740878582
1.2590641975 -0.38227170706 2.0261342525
1.254458189 -0.86057579517 1.7939946651
1.2483876944 -1.2215673923 1.4036538601
1.2562916279 -1.4009109735 0.91708815098
1.2583153248 -1.3971588612 0.38138267398
1.2569322586 1.3281800747 0.14056418836
1.246560812 1.4318826199 0.65599387884
0.80463898182 1.631406188 1.1875830889
0.80556619167 1.3860422373 1.6664786339
0.80524224043 1.0053261518 2.0461349487
0.80410498381 0.5270318985 2.288516283
0.80317807198 -0.0035201606806 2.3726840019
0.80129939318 -0.53377383947 2.2876265049
0.7928108573 -1.0083520412 2.050775528
0.80290400982 -1.3828494549 1.6727772951
0.80674982071 -1.6286780834 1.193846941
0.80380660295 -1.7165596485 0.6565810442
0.8066431284 -1.6305609941 0.12382860482
0.803640306 1.63458848 0.13731317222
0.79205441475 1.7206025124 0.65642797947
0.28940346837 1.7923331261 1.1825774908
0.28669133782 1.573097229 1.6641540527
0.2873685658 1.2244685888 2.0666294098
0.28785291314 0.77709174156 2.3544297218
0.28808426857 0.26639157534 2.5048818588
0.2879691124 -0.2664167285 2.5048825741
0.292460531 -0.78266096115 2.3509435654
0.29171317816 -1.2297399044 2.0602560043
0.29149374366 -1.5763667822 1.6563588381
0.28968501091 -1.7949199677 1.1705714464
0.28092595935 -1.8684325218 0.64418786764
0.29716607928 -1.7945671082 0.15297938883
0.29799312353 1.7944843769 0.15476050973
0.27530431747 1.8684110641 0.65857458115
-0.24715073407 1.7939571142 1.1790809631
-0.25266060233 1.5708363056 1.6666873693
-0.25396081805 1.2202882767 2.0691523552
-0.25480246544 0.77157890797 2.3557920456
-0.25523227453 0.26002657413 2.5045335293
-0.26474174857 -0.26656910777 2.5018424988
-0.25470241904 -0.77162742615 2.3559477329
-0.25386559963 -1.2200958729 2.0694549084
-0.25219586492 -1.5704497099 1.6671882868
-0.25091525912 -1.7922120094 1.1829482317
-0.24291007221 -1.8682801723 0.6657345891
-0.25287768245 -1.7951037884 0.15297877789
-0.24172511697 1.8686922789 0.64756584167
-0.25729364157 1.7941536903 0.14948350191
-0.75579088926 1.7205491066 0.64043420553
-0.76605802774 1.6320836544 1.1864795685
-0.76746505499 1.3861967325 1.6663563251
-0.76804125309 1.005001545 2.0459091663
-0.76696521044 0.52646285295 2.2882516384
-0.7654055357 -0.0042160586454 2.3726251125
-0.76307928562 -0.53418332338 2.2877259254
-0.75526618958 -1.0092686415 2.049751997
-0.76642984152 -1.381968379 1.6720095873
-0.76973426342 -1.6277273893 1.1939589977
-0.76602488756 -1.7170563936 0.64519828558
-1.2138909101 1.4290561676 0.63178104162
-1.2196786404 1.3265910149 1.1720818281
-1.2196958065 1.048735857 1.6187125444
-1.2078410387 0.64227849245 1.9379900694
-1.2173951864 0.13972939551 2.0744762421
-1.2210867405 -0.38211268187 2.0261135101
-1.2159953117 -0.86087119579 1.7942563295
-1.2102438211 -1.2217154503 1.4037911892
-1.218544364 -1.4006983042 0.91701209545
-1.216512084 -1.4024003744 0.39297252893
-1.5675942898 1.0239692926 0.63430845737
-1.5724275112 0.87824249268 1.1638063192
-1.5629520416 0.51281815767 1.5471587181
-1.572846055 -0.0049949814565 1.6696323156
-1.5652890205 -0.50924301147 1.5455772877
-1.5702232122 -0.88171774149 1.1659377813
-1.5675868988 -1.0236157179 0.6264308095
-1.7923328876 0.53413057327 0.6377786994
-1.7898080349 0.26966390014 1.1211189032
-1.789648056 -0.26889789104 1.1220618486
-1.7924004793 -0.53323823214 0.63974153996
-1.8675165176 -0.00026508083101 0.6618578434
1.3106576204 -0.2626555562 -1.2131637335
1.0523811579 -0.84643691778 -1.244134903
1.0500173569 -0.49786892533 -1.5964391232
1.0571074486 -0.00049963046331 -1.7226489782
1.3092417717 0.26096332073 -1.2157762051
1.0503127575 0.49836999178 -1.5958768129
1.0513186455 0.8470004797 -1.2451326847
0.64679944515 -1.2195928097 -1.2596333027
0.6500955224 -0.93468588591 -1.6796989441
0.64783328772 -0.50491291285 -1.966386199
0.64010453224 -0.00049957237206 -2.0712826252
0.64766460657 0.50472146273 -1.966707468
0.64970439672 0.93575668335 -1.6794345379
0.64651483297 1.2188138962 -1.260845542
0.14854553342 -1.4173023701 -1.2600648403
0.15700224042 -1.1587996483 -1.7044895887
0.14669747651 -0.75700217485 -2.0453484058
0.14666546881 -0.26337203383 -2.225892067
0.14666630328 0.26234573126 -2.2258961201
0.15025185049 0.76067143679 -2.0421485901
0.15043088794 1.1634784937 -1.7001404762
0.15810775757 1.4220589399 -1.246866703
-0.38685342669 -1.4266024828 -1.241130352
-0.38448262215 -1.1599698067 -1.7067154646
-0.38922482729 -0.75339704752 -2.0464558601
-0.39064031839 -0.25777634978 -2.2256262302
-0.39909806848 0.2627017498 -2.2228887081
-0.38919848204 0.75263762474 -2.0466859341
-0.38811588287 1.1560992002 -1.7101209164
-0.38346615434 1.4228569269 -1.2504221201
-0.88860583305 -1.2278689146 -1.2437164783
-0.88921159506 -0.93618768454 -1.6786071062
-0.88761687279 -0.50437903404 -1.9659461975
-0.87922626734 0.00045212771511 -2.0715522766
-0.88767236471 0.50416594744 -1.9661105871
-0.88991981745 0.9350797534 -1.6788178682
-0.88859736919 1.2274485826 -1.2446163893
-1.3007408381 -0.85083270073 -1.2251573801
-1.2917636633 -0.49848306179 -1.5944385529
-1.2968922853 -0.00031433696859 -1.7227838039
-1.2914761305 0.49848341942 -1.5946673155
-1.3013845682 0.85109764338 -1.2244266272
-1.5625396967 -0.26675665379 -1.1896253824
-1.5622566938 0.26667097211 -1.1897671223

CELLS 358 1432
3 0 1 2
3 2 1 3
3 1 4 3
3 3 4 5
3 4 6 5
3 5 6 7
3 7 6 8
3 9 8 6
3 9 10 8
3 8 10 11
3 11 10 12
3 13 12 10
3 13 14 12
3 12 14 15
3 14 16 15
3 15 16 17
3 16 18 17
3 17 18 19
3 18 20 19
3 19 20 21
3 20 22 21
3 21 22 23
3 22 24 23
3 23 24 25
3 24 26 25
3 25 26 27
3 27 26 28
3 29 28 26
3 29 30 28
3 28 30 31
3 31 30 32
3 33 32 30
3 33 34 32
3 32 34 35
3 35 34 2
3 0 2 34
3 36 37 38
3 36 38 39
3 36 39 40
3 36 40 41
3 36 41 42
3 36 42 37
3 38 37 43
3 38 43 44
3 38 44 45
3 39 38 45
3 39 45 46
3 39 46 47
3 40 39 47
3 40 47 48
3 40 48 49
3 41 40 49
3 37 42 50
3 37 50 51
3 37 51 43
3 43 51 52
3 43 52 53
3 44 43 53
3 44 53 54
3 44 54 55
3 45 44 55
3 45 55 56
3 46 45 56
3 46 56 57
3 47 46 57
3 47 57 58
3 47 58 59
3 48 47 59
3 48 59 60
3 49 48 60
3 51 50 61
3 51 61 62
3 51 62 52
3 52 62 63
3 52 63 64
3 53 52 64
3 53 64 65
3 54 53 65
3 54 65 66
3 55 54 66
3 55 66 67
3 56 55 67
3 56 67 68
3 57 56 68
3 57 68 69
3 57 69 70
3 58 57 70
3 58 70 71
3 59 58 71
3 59 71 72
3 60 59 72
3 60 72 73
3 62 61 74
3 62 74 75
3 62 75 63
3 63 75 76
3 63 76 77
3 64 63 77
3 64 77 78
3 65 64 78
3 65 78 79
3 66 65 79
3 66 79 80
3 67 66 80
3 67 80 81
3 68 67 81
3 68 81 82
3 69 68 82
3 69 82 83
3 70 69 83
3 70 83 84
3 71 70 84
3 71 84 85
3 72 71 85
3 72 85 86
3 72 86 87
3 73 72 87
3 75 74 88
3 75 88 89
3 75 89 76
3 76 89 90
3 76 90 77
3 91 77 90
3 77 91 78
3 92 78 91
3 78 92 79
3 93 79 92
3 79 93 80
3 94 80 93
3 80 94 81
3 95 81 94
3 81 95 96
3 82 81 96
3 82 96 97
3 83 82 97
3 83 97 98
3 84 83 98
3 84 98 99
3 85 84 99
3 85 99 100
3 86 85 100
3 86 100 101
3 87 86 101
3 89 88 102
3 103 102 88
3 89 102 90
3 90 102 104
3 90 104 105
3 91 90 105
3 91 105 106
3 92 91 106
3 92 106 107
3 93 92 107
3 93 107 108
3 94 93 108
3 94 108 109
3 95 94 109
3 95 109 110
3 96 95 110
3 96 110 111
3 97 96 111
3 97 111 112
3 98 97 112
3 98 112 113
3 99 98 113
3 99 113 114
3 100 99 114
3 101 100 114
3 102 103 104
3 105 104 115
3 105 115 116
3 106 105 116
3 106 116 117
3 107 106 117
3 107 117 118
3 108 107 118
3 108 118 119
3 109 108 119
3 109 119 120
3 110 109 120
3 110 120 121
3 111 110 121
3 112 111 121
3 112 121 122
3 113 112 122
3 113 122 123
3 114 113 123
3 114 123 124
3 116 115 125
3 116 125 126
3 117 116 126
3 117 126 127
3 118 117 127
3 119 118 127
3 119 127 128
3 120 119 128
3 120 128 129
3 121 120 129
3 121 129 130
3 122 121 130
3 123 122 130
3 123 130 131
3 124 123 131
3 126 125 132
3 126 132 133
3 127 126 133
3 128 127 133
3 128 133 134
3 129 128 134
3 130 129 134
3 130 134 135
3 131 130 135
3 133 132 136
3 134 133 136
3 135 134 136
3 135 136 18
3 135 18 16
3 135 16 131
3 131 16 14
3 131 14 124
3 124 14 13
3 124 13 114
3 114 13 101
3 101 13 10
3 101 10 9
3 101 9 87
3 87 9 73
3 73 9 6
3 73 6 4
3 73 4 60
3 60 4 49
3 49 4 1
3 49 1 41
3 41 1 0
3 41 0 42
3 42 0 34
3 42 34 50
3 50 34 33
3 50 33 61
3 61 33 30
3 61 30 74
3 74 30 29
3 74 29 88
3 88 29 103
3 103 29 26
3 103 26 24
3 103 24 104
3 104 24 115
3 115 24 22
3 115 22 125
3 125 22 20
3 125 20 132
3 132 20 18
3 132 18 136
3 137 138 139
3 137 139 140
3 141 137 140
3 141 140 142
3 141 142 143
3 138 144 145
3 139 138 145
3 139 145 146
3 140 139 146
3 140 146 147
3 140 147 148
3 142 140 148
3 142 148 149
3 143 142 149
3 143 149 150
3 144 151 152
3 145 144 152
3 145 152 153
3 146 145 153
3 146 153 154
3 147 146 154
3 147 154 155
3 148 147 155
3 148 155 156
3 149 148 156
3 149 156 157
3 150 149 157
3 150 157 158
3 151 159 160
3 152 151 160
3 153 152 160
3 153 160 161
3 153 161 154
3 162 154 161
3 154 162 155
3 163 155 162
3 155 163 164
3 156 155 164
3 156 164 165
3 157 156 165
3 157 165 166
3 158 157 166
3 160 159 167
3 160 167 168
3 161 160 168
3 161 168 169
3 162 161 169
3 162 169 170
3 163 162 170
3 163 170 171
3 164 163 171
3 164 171 172
3 165 164 172
3 165 172 173
3 166 165 173
3 168 167 174
3 168 174 175
3 169 168 175
3 169 175 176
3 170 169 176
3 171 170 176
3 171 176 177
3 172 171 177
3 172 177 178
3 173 172 178
3 175 174 179
3 176 175 179
3 176 179 180
3 177 176 180
3 178 177 180
3 178 180 21
3 178 21 23
3 178 23 173
3 173 23 25
3 173 25 166
3 166 25 27
3 166 27 28
3 166 28 158
3 158 28 31
3 158 31 150
3 150 31 32
3 150 32 143
3 143 32 35
3 143 35 141
3 141 35 2
3 141 2 137
3 137 2 3
3 137 3 138
3 138 3 5
3 138 5 144
3 144 5 7
3 144 7 151
3 151 7 8
3 151 8 159
3 159 8 11
3 159 11 12
3 159 12 167
3 167 12 15
3 167 15 174
3 174 15 17
3 174 17 179
3 179 17 19
3 179 19 180
3 180 19 21

CELL_TYPES 358
5
5
5
5
5
5
5
5
5
5
5
5
5
5
5
5
5
5
5
5
5
5
5
5
5
5
5
5
5
5
5
5
5
5
5
5
5
5
5
5
5
5
5
5
5
5
5
5
5
5
5
5
5
5
5
5
5
5
5
5
5
5
5
5
5
5
5
5
5
5
5
5
5
5
5
5
5
5
5
5
5
5
5
5
5
5
5
5
5
5
5
5
5
5
5
5
5
5
5
5
5
5
5
5
5
5
5
5
5
5
5
5
5
5
5
5
5
5
5
5
5
5
5
5
5
5
5
5
5
5
5
5
5
5
5
5
5
5
5
5
5
5
5
5
5
5
5
5
5
5
5
5
5
5
5
5
5
5
5
5
5
5
5
5
5
5
5
5
5
5
5
5
5
5
5
5
5
5
5
5
5
5
5
5
5
5
5
5
5
5
5
5
5
5
5
5
5
5
5
5
5
5
5
5
5
5
5
5
5
5
5
5
5
5
5
5
5
5
5
5
5
5
5
5
5
5
5
5
5
5
5
5
5
5
5
5
5
5
5
5
5
5
5
5
5
5
5
5
5
5
5
5
5
5
5
5
5
5
5
5
5
5
5
5
5
5
5
5
5
5
5
5
5
5
5
5
5
5
5
5
5
5
5
5
5
5
5
5
5
5
5
5
5
5
5
5
5
5
5
5
5
5
5
5
5
5
5
5
5
5
5
5
5
5
5
5
5
5
5
5
5
5
5
5
5
5
5
5
5
5
5
5
5
5
5
5
5
5
5
5
5
5
5
5
5
5
5
5
5
5
5
5
5
5
5
5
5
5

CELL_DATA 358
SCALARS cell_data_0 double
LOOKUP_TABLE default
6.82733266211e-07
4.36243959463e-07
3.83415510133e-07
5.38077345289e-07
4.50805957755e-08
1.05109203435e-07
9.51064277481e-08
1.14200063364e-07
3.9319252964e-08
4.98704574896e-08
8.71879556703e-08
8.90502450164e-08
3.51031992008e-08
1.19579503113e-07
6.26431866091e-08
1.26711828494e-07
7.82410967718e-08
1.18868215255e-07
9.26426166441e-08
1.14556413938e-07
1.10829412847e-07
9.28618323749e-08
1.27221092373e-07
6.69163727804e-08
6.68439427631e-08
2.52892585924e-09
2.75037505329e-08
3.92075759863e-08
1.16583869863e-07
7.00771724173e-08
1.11570836742e-08
5.05897149149e-08
3.92364967597e-08
2.21011540875e-07
1.20482558348e-06
6.32405056181e-07
1.29563950284e-09
5.42474922158e-10
1.39624619115e-09
6.66816930939e-10
8.13007399109e-09
3.75918179329e-10
1.0545026831e-09
1.12307002173e-09
7.40220668088e-10
3.70905801484e-10
4.06988108942e-10
1.59829851524e-09
2.5126272636e-09
2.03477663449e-09
3.93129873041e-10
7.58669997475e-09
2.58693686422e-09
9.17653297658e-10
1.12236014509e-09
4.26284796523e-11
9.32645325985e-10
4.37331987114e-10
4.00612898372e-10
5.39153437447e-10
7.32273657801e-10
7.81461044665e-10
1.11910107899e-09
5.40596994832e-10
2.0774854759e-10
3.13260310141e-11
1.80569162343e-09
3.26449752634e-09
3.9250298017e-10
2.68349292789e-09
2.40947123874e-10
1.37727445836e-09
1.24273109176e-09
2.56136794352e-10
1.1123065035e-10
1.15404898778e-10
1.2313121091e-10
2.16519704463e-10
2.54701172002e-10
2.59925750564e-10
2.9514092741e-10
9.96912485098e-11
5.80052024182e-10
2.67399359422e-10
2.74083670362e-10
3.15985289132e-10
1.85673660698e-10
1.83628142066e-10
8.13484843897e-10
7.80407904259e-10
2.40456491833e-09
1.4309677752e-09
2.15378820804e-09
1.70239550675e-09
1.98214607718e-09
3.18952559577e-10
4.5385021468e-10
3.38860709125e-11
5.84792014349e-11
3.28986393479e-10
7.13781619325e-10
2.86974912642e-10
5.02545201896e-10
2.71997118377e-10
5.8188135331e-10
3.28048683216e-11
7.55331452253e-10
1.26342987352e-10
3.5083062508e-10
8.02809424444e-11
3.65072694065e-11
2.8737196186e-10
2.10719964157e-10
1.47361118673e-10
2.83600165307e-09
5.58017662645e-12
8.87156519924e-09
3.68748816662e-09
2.8371947522e-10
1.83134069203e-09
1.83939062805e-10
1.5886992833e-09
1.29229115344e-09
6.02905835265e-10
6.32280704106e-10
4.13991590944e-10
3.89859952455e-10
1.8037621047e-10
2.07174843716e-11
2.52775352353e-10
6.06058694416e-11
7.31583210307e-11
3.87274091199e-10
1.14701410435e-10
3.47571004992e-10
2.18478145738e-10
7.63031114488e-10
1.58587432879e-10
1.78510719759e-09
3.15932912209e-10
4.93598602221e-09
1.72898745768e-10
1.18884312674e-08
2.57578240029e-09
2.9056780084e-09
3.2591197402e-09
6.25603003571e-09
7.00990186401e-10
1.76270876821e-09
4.53027256437e-10
9.80972294084e-10
3.8995696794e-10
3.89300946568e-10
2.71700360521e-10
6.53260252356e-10
3.21986608918e-10
4.68823624361e-10
1.81260273107e-10
5.13719633987e-10
3.70028118191e-10
2.4951650158e-11
2.66744733429e-10
4.92621545308e-10
1.88919813444e-11
1.94974459671e-09
3.3995673467e-10
3.16896617075e-09
8.5542658395e-09
1.09592304689e-10
3.35114905531e-09
5.50100076606e-10
2.92724246348e-09
1.17169285061e-10
7.40593922795e-10
4.43152374544e-10
2.57141336883e-10
4.62603378279e-10
1.3580381818e-11
4.86421817213e-10
3.92944783719e-10
8.09505892175e-10
8.49601256342e-10
2.16608987994e-10
2.23800689119e-10
2.24876713591e-10
2.66007204269e-09
1.8923882815e-09
2.66661154672e-09
2.10462476939e-09
4.74150083831e-10
2.99452165696e-09
9.40496135158e-12
4.605158519e-10
1.31276774622e-10
1.63333475348e-09
2.65382777525e-10
1.08288588349e-09
4.93496926774e-10
1.32927580937e-09
3.59222196186e-09
7.51376132136e-10
2.72959874223e-09
2.07951444787e-09
2.44564710936e-09
1.20641432071e-11
2.57791732474e-09
7.21023635723e-10
5.88229571579e-09
2.63504181152e-09
2.17302193757e-09
9.63668918412e-11
3.11458278815e-09
1.96177651674e-09
1.37533863537e-09
2.02805567321e-09
3.70313140424e-08
1.19198074288e-07
3.50241288336e-08
1.29574867386e-07
7.16191496036e-09
5.70011742341e-08
6.3655371206e-08
1.48374499014e-08
4.88145904359e-08
1.99465673045e-08
1.562738743e-08
2.82951814392e-08
3.65255461043e-08
2.34323135365e-08
9.19604144005e-09
2.43574758523e-08
2.44635594453e-08
4.07080811243e-11
2.4519682252e-08
2.06860859862e-09
1.1053898069e-08
1.30927090021e-08
1.46647172985e-08
9.81793310039e-09
1.23786675464e-08
7.85414026958e-09
3.32792038748e-08
4.68347566142e-09
7.70911291158e-09
2.01160706314e-08
4.46177721374e-08
8.92156820503e-08
2.0535433795e-08
1.19346906245e-07
1.94282671442e-08
1.20984190194e-07
2.5606079888e-08
1.19869074358e-07
3.75885402991e-08
2.19049787102e-06
1.85396572431e-08
1.14196155635e-06
4.12468176889e-08
2.24192546841e-06
2.37648202019e-07
7.22667701337e-07
1.13720887016e-06
1.0002711498e-06
3.1661925131e-06
3.17228940594e-06
2.77795996228e-06
1.14013845707e-06
1.01690632171e-06
2.13886716719e-07
6.50627798479e-08
5.3269421661e-08
1.50145722897e-07
3.2208844698e-10
2.17381982598e-07
8.36509779201e-08
2.41460995664e-07
1.77785002836e-07
2.21427700181e-07
1.93801506577e-07
1.53948018078e-07
1.57464311801e-07
6.75346047576e-08
1.2222945674e-08
9.94421844393e-09
4.24013698604e-09
6.35961783467e-08
8.41243266576e-08
6.7527027281e-08
5.5921292467e-08
5.56584789063e-08
8.95463813041e-08
8.0756304549e-08
6.41926635343e-08
5.99030805841e-08
3.33780397486e-08
2.19887134745e-08
8.97044059757e-09
1.73943791636e-09
8.77602701886e-09
7.6546377648e-09
8.17305667807e-09
1.02787684981e-08
8.33019325945e-09
1.17256598688e-08
1.48651903178e-09
8.2983798972e-09
3.27273072237e-09
1.9422396914e-09
1.94265842704e-09
1.67028220317e-08
4.52484754334e-09
6.31563580439e-09
1.22747982467e-09
8.69251218986e-10
7.00548419707e-09
9.81192602687e-10
5.88012932693e-09
5.24925660842e-09
1.46686239191e-08
2.19705358474e-08
1.22252436766e-08
1.00087474621e-08
1.43955901232e-08
2.01447766117e-08
5.85554984659e-09
3.92299073438e-08
7.26348430841e-09
4.69521949914e-08
2.94168954075e-09
2.47438146091e-08
2.63648095461e-08
2.16089541207e-08
4.32775029645e-08
3.14169085706e-08
1.16000391066e-07
9.19772116288e-08
3.3303714987e-07
1.4577663175e-07
3.52193545296e-07
2.95207721555e-07
4.27333500091e-07
2.57536566121e-06
3.07101404121e-07
1.40988454966e-07
1.0501535113e-07
3.68148267522e-08
4.45232007016e-08
2.25738180855e-08
2.89431204719e-08
2.31628682886e-08
2.28817555055e-08
4.82232069677e-08
1.82829546805e-08
3.71743322181e-08
5.36044025474e-09
4.11218491254e-08
2.65610310937e-08
4.26375813308e-08

