# vtk DataFile Version 3.0
File Name: Molecule/methanol/methanol_9.0-1.vtk
ASCII
DATASET UNSTRUCTURED_GRID
FIELD FieldData 1
TIME 1 1 double
0.0
POINTS 432 double
1.611 0.0 -0.359
1.569 -0.375 -0.355
1.403 0.0 -0.933
1.445 -0.731 -0.342
1.245 -1.05 -0.322
1.252 -0.666 -0.918
0.98 -1.317 -0.296
1.07 -0.957 -0.9
0.828 -1.2 -0.876
0.662 -1.518 -0.264
0.538 -1.382 -0.847
0.308 -1.642 -0.229
0.216 -1.496 -0.815
-0.065 -1.684 -0.192
-0.124 -1.534 -0.781
-0.438 -1.642 -0.155
-0.464 -1.496 -0.747
-0.793 -1.518 -0.119
-0.787 -1.382 -0.715
-1.11 -1.317 -0.088
-1.076 -1.2 -0.686
-1.376 -1.05 -0.061
-1.318 -0.957 -0.662
-1.576 -0.731 -0.042
-1.5 -0.666 -0.644
-1.7 -0.375 -0.029
-1.613 -0.341 -0.633
-1.742 0.0 -0.025
-1.651 0.0 -0.629
-1.7 0.375 -0.029
-1.613 0.341 -0.633
-1.576 0.731 -0.042
-1.5 0.666 -0.644
-1.376 1.05 -0.061
-1.318 0.957 -0.662
-1.11 1.317 -0.088
-1.076 1.2 -0.686
-0.793 1.518 -0.119
-0.787 1.382 -0.715
-0.438 1.642 -0.155
-0.464 1.496 -0.747
-0.065 1.684 -0.192
-0.124 1.534 -0.781
0.308 1.642 -0.229
0.216 1.496 -0.815
0.662 1.518 -0.264
0.538 1.382 -0.847
0.98 1.317 -0.296
0.828 1.2 -0.876
1.245 1.05 -0.322
1.07 0.957 -0.9
1.445 0.731 -0.342
1.252 0.666 -0.918
1.569 0.375 -0.355
1.365 0.341 -0.929
1.907 0.0 0.656
1.874 0.347 0.656
1.874 0.173 0.956
1.874 -0.173 0.956
1.874 -0.347 0.656
1.874 -0.173 0.355
1.874 0.173 0.355
1.779 0.59 0.997
1.779 0.341 1.246
1.779 -0.0 1.337
1.779 -0.341 1.246
1.779 -0.59 0.997
1.779 -0.682 0.656
1.779 -0.59 0.315
1.779 -0.341 0.065
1.779 -0.0 -0.026
1.779 0.341 0.065
1.779 0.59 0.315
1.779 0.682 0.656
1.624 0.934 0.995
1.624 0.761 1.294
1.624 0.497 1.516
1.624 0.173 1.634
1.624 -0.173 1.634
1.624 -0.497 1.516
1.624 -0.761 1.294
1.624 -0.934 0.995
1.624 -0.994 0.656
1.624 -0.934 0.316
1.624 -0.761 0.017
1.624 0.761 0.017
1.624 0.934 0.316
1.624 0.994 0.656
1.414 1.224 0.999
1.414 1.086 1.316
1.414 0.868 1.585
1.414 0.585 1.785
1.414 0.259 1.901
1.414 -0.087 1.924
1.414 -0.426 1.854
1.414 -0.733 1.694
1.414 -0.986 1.458
1.414 -1.166 1.162
1.414 -1.26 0.829
1.414 -1.26 0.482
1.414 -1.166 0.149
1.414 -0.986 -0.147
1.414 1.086 -0.005
1.414 1.224 0.313
1.414 1.272 0.656
1.156 1.466 1.003
1.156 1.346 1.332
1.156 1.154 1.624
1.156 0.899 1.864
1.156 0.597 2.039
1.156 0.262 2.139
1.156 -0.088 2.159
1.156 -0.432 2.099
1.156 -0.753 1.96
1.156 -1.034 1.751
1.156 -1.258 1.483
1.156 -1.415 1.171
1.156 -1.496 0.83
1.156 -1.496 0.481
1.156 -1.415 0.14
1.156 1.346 -0.02
1.156 1.466 0.308
1.156 1.506 0.656
0.86 1.655 0.996
0.86 1.553 1.322
0.86 1.387 1.621
0.86 1.164 1.88
0.86 0.894 2.089
0.86 0.587 2.24
0.86 0.256 2.326
0.86 -0.086 2.343
0.86 -0.424 2.291
0.86 -0.744 2.173
0.86 -1.034 1.992
0.86 -1.282 1.756
0.86 -1.477 1.476
0.86 -1.612 1.161
0.86 -1.681 0.827
0.86 -1.681 0.485
0.86 -1.612 0.15
0.86 1.553 -0.011
0.86 1.655 0.315
0.86 1.69 0.656
0.536 1.783 0.999
0.536 1.685 1.33
0.536 1.527 1.637
0.536 1.314 1.908
0.536 1.053 2.134
0.536 0.754 2.307
0.536 0.428 2.42
0.536 0.086 2.469
0.536 -0.258 2.453
0.536 -0.594 2.371
0.536 -0.908 2.228
0.536 -1.189 2.028
0.536 -1.427 1.778
0.536 -1.614 1.487
0.536 -1.742 1.167
0.536 -1.807 0.828
0.536 -1.807 0.483
0.536 -1.742 0.144
0.536 1.685 -0.019
0.536 1.783 0.312
0.536 1.815 0.656
0.193 1.847 1.001
0.193 1.753 1.335
0.193 1.598 1.645
0.193 1.389 1.922
0.193 1.133 2.155
0.193 0.838 2.338
0.193 0.514 2.463
0.193 0.173 2.527
0.193 -0.173 2.527
0.193 -0.514 2.463
0.193 -0.838 2.338
0.193 -1.133 2.155
0.193 -1.389 1.922
0.193 -1.598 1.645
0.193 -1.753 1.335
0.193 -1.847 1.001
0.193 -1.879 0.656
0.193 -1.847 0.31
0.193 -1.753 -0.023
0.193 1.753 -0.023
0.193 1.847 0.31
0.193 1.879 0.656
-0.155 1.847 1.001
-0.155 1.753 1.335
-0.155 1.598 1.645
-0.155 1.389 1.922
-0.155 1.133 2.155
-0.155 0.838 2.338
-0.155 0.514 2.463
-0.155 0.173 2.527
-0.155 -0.173 2.527
-0.155 -0.514 2.463
-0.155 -0.838 2.338
-0.155 -1.133 2.155
-0.155 -1.389 1.922
-0.155 -1.598 1.645
-0.155 -1.753 1.335
-0.155 -1.847 1.001
-0.155 -1.879 0.656
-0.155 -1.847 0.31
-0.155 1.847 0.31
-0.155 1.879 0.656
-0.498 1.815 0.656
-0.498 1.783 0.999
-0.498 1.685 1.33
-0.498 1.527 1.637
-0.498 1.314 1.908
-0.498 1.053 2.134
-0.498 0.754 2.307
-0.498 0.428 2.42
-0.498 0.086 2.469
-0.498 -0.258 2.453
-0.498 -0.594 2.371
-0.498 -0.908 2.228
-0.498 -1.189 2.028
-0.498 -1.427 1.778
-0.498 -1.614 1.487
-0.498 -1.742 1.167
-0.498 -1.807 0.828
-0.498 -1.807 0.483
-0.498 -1.742 0.144
-0.498 1.783 0.312
-0.822 1.69 0.656
-0.822 1.655 0.996
-0.822 1.553 1.322
-0.822 1.387 1.621
-0.822 1.164 1.88
-0.822 0.894 2.089
-0.822 0.587 2.24
-0.822 0.256 2.326
-0.822 -0.086 2.343
-0.822 -0.424 2.291
-0.822 -0.744 2.173
-0.822 -1.034 1.992
-0.822 -1.282 1.756
-0.822 -1.477 1.476
-0.822 -1.612 1.161
-0.822 -1.681 0.827
-0.822 -1.681 0.485
-0.822 -1.612 0.15
-0.822 1.655 0.315
-1.118 1.506 0.656
-1.118 1.466 1.003
-1.118 1.346 1.332
-1.118 1.154 1.624
-1.118 0.899 1.864
-1.118 0.597 2.039
-1.118 0.262 2.139
-1.118 -0.088 2.159
-1.118 -0.432 2.099
-1.118 -0.753 1.96
-1.118 -1.034 1.751
-1.118 -1.258 1.483
-1.118 -1.415 1.171
-1.118 -1.496 0.83
-1.118 -1.496 0.481
-1.118 -1.415 0.14
-1.118 1.466 0.308
-1.376 1.272 0.656
-1.376 1.224 0.999
-1.376 1.086 1.316
-1.376 0.868 1.585
-1.376 0.585 1.785
-1.376 0.259 1.901
-1.376 -0.087 1.924
-1.376 -0.426 1.854
-1.376 -0.733 1.694
-1.376 -0.986 1.458
-1.376 -1.166 1.162
-1.376 -1.26 0.829
-1.376 -1.26 0.482
-1.376 -1.166 0.149
-1.376 1.224 0.313
-1.586 0.994 0.656
-1.586 0.934 0.995
-1.586 0.761 1.294
-1.586 0.497 1.516
-1.586 0.173 1.634
-1.586 -0.173 1.634
-1.586 -0.497 1.516
-1.586 -0.761 1.294
-1.586 -0.934 0.995
-1.586 -0.994 0.656
-1.586 -0.934 0.316
-1.586 0.934 0.316
-1.741 0.682 0.656
-1.741 0.59 0.997
-1.741 0.341 1.246
-1.741 -0.0 1.337
-1.741 -0.341 1.246
-1.741 -0.59 0.997
-1.741 -0.682 0.656
-1.741 -0.59 0.315
-1.741 0.59 0.315
-1.836 0.347 0.656
-1.836 0.173 0.956
-1.836 -0.173 0.956
-1.836 -0.347 0.656
-1.836 -0.173 0.355
-1.836 0.173 0.355
-1.868 -0.0 0.656
1.263 0.333 -1.314
1.08 0.427 -1.594
1.08 0.707 -1.382
1.08 -0.262 -1.658
1.08 -0.577 -1.501
0.837 -0.6 -1.777
0.837 -0.267 -1.907
1.08 0.088 -1.69
0.837 0.09 -1.934
0.837 0.438 -1.854
0.837 0.748 -1.675
0.837 0.992 -1.413
1.08 0.892 -1.083
0.837 1.147 -1.091
0.837 -1.081 -1.258
0.546 -1.286 -1.246
0.546 -1.119 -1.55
0.837 -0.88 -1.553
0.546 -0.882 -1.803
0.546 -0.589 -1.989
0.546 -0.259 -2.096
0.546 0.087 -2.117
0.546 0.427 -2.052
0.546 0.741 -1.905
0.546 1.008 -1.684
0.546 1.212 -1.403
0.546 1.34 -1.081
0.222 -1.406 -1.249
0.222 -1.25 -1.56
0.222 -1.027 -1.826
0.222 -0.748 -2.033
0.222 -0.429 -2.171
0.222 -0.087 -2.231
0.222 0.26 -2.211
0.222 0.593 -2.111
0.222 0.894 -1.938
0.222 1.146 -1.699
0.222 1.337 -1.409
0.222 1.456 -1.082
-0.12 -1.497 -1.079
-0.12 -1.383 -1.403
-0.12 -1.2 -1.694
-0.12 -0.957 -1.937
-0.12 -0.666 -2.12
-0.12 -0.342 -2.234
-0.12 0.0 -2.272
-0.12 0.342 -2.234
-0.12 0.666 -2.12
-0.12 0.957 -1.937
-0.12 1.2 -1.694
-0.12 1.383 -1.403
-0.12 1.497 -1.079
-0.461 -1.406 -1.249
-0.461 -1.25 -1.56
-0.461 -1.027 -1.826
-0.461 -0.748 -2.033
-0.461 -0.429 -2.171
-0.461 -0.087 -2.231
-0.461 0.26 -2.211
-0.461 0.593 -2.111
-0.461 0.894 -1.938
-0.461 1.146 -1.699
-0.461 1.337 -1.409
-0.461 1.456 -1.082
-0.786 -1.372 -0.911
-0.786 -1.286 -1.246
-0.786 -1.119 -1.55
-0.786 -0.882 -1.803
-0.786 -0.589 -1.989
-0.786 -0.259 -2.096
-0.786 0.087 -2.117
-0.786 0.427 -2.052
-0.786 0.741 -1.905
-0.786 1.008 -1.684
-0.786 1.212 -1.403
-0.786 1.34 -1.081
-1.077 -1.187 -0.916
-1.077 -1.081 -1.258
-1.077 -0.88 -1.553
-1.077 -0.6 -1.777
-1.077 -0.267 -1.907
-1.077 0.09 -1.934
-1.077 0.438 -1.854
-1.077 0.748 -1.675
-1.077 0.992 -1.413
-1.077 1.147 -1.091
-1.32 -0.941 -0.913
-1.32 -0.814 -1.241
-1.32 -0.577 -1.501
-1.32 -0.262 -1.658
-1.32 0.088 -1.69
-1.32 0.427 -1.594
-1.32 0.707 -1.382
-1.32 0.892 -1.083
-1.503 -0.577 -1.07
-1.503 -0.333 -1.314
-1.503 -0.0 -1.403
-1.503 0.333 -1.314
-1.503 0.577 -1.07
-1.616 -0.171 -1.033
-1.616 0.171 -1.033
1.467 -0.358 -0.642
1.365 -0.341 -0.929
1.507 -0.553 -0.3485
1.405 -0.536 -0.6355
1.161 -0.8115 -0.909
1.263 -0.333 -1.314
1.1715 -0.455 -1.4075
1.263 -0.0 -1.403
1.263 -0.1665 -1.3585
1.1715 0.044 -1.5465
1.263 0.1665 -1.3585
1.1715 0.2105 -1.502
1.08 -0.814 -1.241
0.9585 -0.9475 -1.2495
0.9585 -0.847 -1.397
0.837 -0.9805 -1.4055
1.08 -0.6955 -1.371
0.9585 -0.7285 -1.527
1.333 0.1665 -1.1235
1.333 0.0 -1.168
1.333 -0.1665 -1.1235
1.2575 -0.4995 -1.116
1.1715 -0.5735 -1.2775
1.166 -0.74 -1.0795
1.075 -0.8855 -1.0705
0.9535 -1.019 -1.079

CELLS 860 3440
3 0 1 2
3 3 4 5
3 4 6 7
3 7 6 8
3 6 9 8
3 8 9 10
3 9 11 10
3 10 11 12
3 11 13 12
3 12 13 14
3 13 15 14
3 14 15 16
3 15 17 16
3 16 17 18
3 17 19 18
3 18 19 20
3 19 21 20
3 20 21 22
3 21 23 22
3 22 23 24
3 23 25 24
3 24 25 26
3 25 27 26
3 26 27 28
3 27 29 28
3 28 29 30
3 29 31 30
3 30 31 32
3 31 33 32
3 32 33 34
3 33 35 34
3 34 35 36
3 35 37 36
3 36 37 38
3 37 39 38
3 38 39 40
3 39 41 40
3 40 41 42
3 41 43 42
3 42 43 44
3 43 45 44
3 44 45 46
3 45 47 46
3 46 47 48
3 47 49 48
3 48 49 50
3 49 51 50
3 50 51 52
3 51 53 52
3 52 53 54
3 53 0 54
3 54 0 2
3 55 56 57
3 55 57 58
3 55 58 59
3 55 59 60
3 55 60 61
3 55 61 56
3 57 56 62
3 57 62 63
3 57 63 64
3 58 57 64
3 58 64 65
3 58 65 66
3 59 58 66
3 59 66 67
3 59 67 68
3 60 59 68
3 60 68 69
3 60 69 70
3 61 60 70
3 61 70 71
3 61 71 72
3 56 61 72
3 56 72 73
3 56 73 62
3 62 73 74
3 62 74 75
3 63 62 75
3 63 75 76
3 63 76 77
3 64 63 77
3 64 77 78
3 65 64 78
3 65 78 79
3 65 79 80
3 66 65 80
3 66 80 81
3 67 66 81
3 67 81 82
3 67 82 83
3 68 67 83
3 68 83 84
3 69 68 84
3 72 71 85
3 72 85 86
3 73 72 86
3 73 86 87
3 73 87 74
3 74 87 88
3 74 88 89
3 75 74 89
3 75 89 90
3 76 75 90
3 76 90 91
3 77 76 91
3 77 91 92
3 77 92 93
3 78 77 93
3 78 93 94
3 79 78 94
3 79 94 95
3 80 79 95
3 80 95 96
3 80 96 97
3 81 80 97
3 81 97 98
3 82 81 98
3 82 98 99
3 83 82 99
3 83 99 100
3 84 83 100
3 84 100 101
3 86 85 102
3 86 102 103
3 87 86 103
3 87 103 104
3 87 104 88
3 88 104 105
3 88 105 106
3 89 88 106
3 89 106 107
3 90 89 107
3 90 107 108
3 91 90 108
3 91 108 109
3 92 91 109
3 92 109 110
3 93 92 110
3 93 110 111
[...]
CELL_DATA 860
SCALARS cell_data_0 double
LOOKUP_TABLE default
1.61552956177e-06
2.10262902617e-07
1.05386449616e-07
1.02348643122e-07
2.99002514051e-07
2.4383605571e-07
5.25572798848e-07
1.21490042468e-07
6.97487584332e-07
9.15143562489e-09
8.27136280778e-07
1.17645321064e-07
8.99789430948e-07
2.22193559814e-07
9.43745914878e-07
2.97133408375e-07
9.70607532892e-07
3.62350650975e-07
9.79376596902e-07
4.1020868271e-07
9.89124301102e-07
4.49861806539e-07
9.75960588218e-07
4.8636760373e-07
9.53478098817e-07
5.08630479055e-07
9.26538343317e-07
5.28998897984e-07
8.74720968389e-07
5.42881093129e-07
8.12463510524e-07
5.51951598515e-07
7.18395104305e-07
5.525143547e-07
6.05131841007e-07
5.43864368077e-07
4.59606723702e-07
5.14136150503e-07
2.77810670801e-07
4.49578395951e-07
7.04040917081e-08
3.34754320494e-07
9.19552454401e-08
1.44790868216e-07
3.25178659526e-08
7.7004489609e-08
1.14174020307e-06
2.89811821441e-07
4.03505411648e-06
3.4514931033e-07
7.48530759251e-07
4.35583277679e-07
3.32017378419e-09
7.69635682769e-10
4.39804585493e-09
9.914072866e-10
1.30584334377e-08
1.45457383511e-08
2.22216182479e-09
8.02547901663e-10
1.69880891494e-09
2.44107525247e-10
3.39644685831e-10
8.6033796413e-09
1.32730048163e-08
2.47936362886e-08
6.03108365014e-08
4.16603339642e-08
3.37636797547e-08
1.60633888771e-08
3.54102741218e-08
5.11246625855e-08
4.72546612073e-08
3.4661526237e-08
1.63744820482e-08
1.18076516585e-09
6.43890193453e-09
9.57680585441e-09
4.69454035702e-09
4.19947579221e-09
4.7989867174e-10
3.82016963301e-09
5.93665604775e-09
5.71234894893e-09
7.6962906618e-09
7.53306162042e-09
3.89172776889e-09
5.59848480073e-09
2.46888813832e-08
2.48737116877e-08
3.70456373844e-08
7.99434334626e-08
3.78818787169e-08
2.48385044631e-08
5.32365325387e-08
3.56915968277e-08
2.57294329275e-08
7.24544922515e-09
7.90307532376e-09
1.65995912344e-08
1.9007147236e-08
1.55476205688e-08
1.45300035444e-08
9.1318519389e-09
7.35490272023e-09
9.30028704553e-10
9.17463457894e-10
5.62631308088e-09
8.83607293728e-09
1.1762480498e-08
1.38066868895e-08
1.60394169556e-08
1.41864477851e-08
1.60639291286e-08
1.42712912054e-08
6.21705201261e-09
3.48176594763e-09
9.48046749657e-09
2.17137131086e-08
4.03778575213e-08
2.86002048751e-08
5.04584139575e-09
1.27078262943e-08
2.95855471557e-08
1.7689907015e-08
1.09767080121e-08
5.38938384976e-09
1.8750585827e-08
2.77067057161e-08
2.89903512608e-08
2.49058924676e-08
2.34065419733e-08
1.87516311043e-08
1.6311644974e-08
1.13306102696e-08
8.79805040472e-09
3.12062411088e-09
3.49366965155e-10
5.48675324824e-09
8.110456242e-09
1.28430035154e-08
1.52681616593e-08
1.91987961525e-08
2.08334729857e-08
2.38730894009e-08
2.32660064693e-08
2.51580166215e-08
2.039495435e-08
1.99492737971e-08
1.10264408628e-08
1.17075641763e-08
6.00322888556e-09
9.40156984796e-09
1.06043751941e-08
1.62621595398e-08
3.49027585954e-09
3.02791233277e-09
4.60639663395e-09
2.00696661246e-08
3.11204623437e-08
3.86905560818e-08
3.70169005588e-08
3.42090062245e-08
3.06542656112e-08
2.70947878815e-08
2.34024393255e-08
1.94570088786e-08
1.55016292746e-08
1.08330983669e-08
7.87719045186e-09
2.915726233e-09
3.1752652367e-10
5.31054487125e-09
7.67391885122e-09
1.23141358953e-08
1.54027157304e-08
1.8857611419e-08
2.22929776297e-08
2.4975349312e-08
2.80443609243e-08
2.96180600768e-08
3.08233699681e-08
3.13051357817e-08
2.77295634339e-08
2.56222421479e-08
2.00704341332e-08
1.82115555368e-08
8.79104723985e-09
4.35145266891e-09
1.90644083855e-09
2.99454452777e-10
2.10282501481e-08
2.20180663301e-08
2.07187274706e-08
3.34566776854e-08
4.14079011065e-08
4.74743160618e-08
4.5554295258e-08
4.059757619e-08
3.76780473801e-08
3.32089768005e-08
2.93705006198e-08
2.51372554835e-08
2.14017293306e-08
1.68556727081e-08
1.30158330528e-08
9.19805326082e-09
5.58751453628e-09
1.78254851812e-09
2.10651380015e-09
5.8567969715e-09
9.65681990608e-09
1.32886114969e-08
1.70646997027e-08
2.04126070515e-08
2.40621110562e-08
2.69463163501e-08
3.05717428471e-08
3.25213812787e-08
3.56696550169e-08
3.53458560979e-08
3.72866726717e-08
3.22603468106e-08
3.07172186887e-08
2.20752340537e-08
1.67645829468e-08
2.12153773905e-09
5.08725557844e-09
3.12825746911e-09
1.46458961239e-10
3.95045241055e-08
3.92615535977e-08
3.43967851589e-08
4.67241897454e-08
5.25007466356e-08
5.7899229632e-08
5.41941814723e-08
4.87818477325e-08
4.41148102421e-08
3.95176410641e-08
3.4945595635e-08
3.04156916781e-08
2.54739264353e-08
2.15472352368e-08
1.70202829111e-08
1.33826442276e-08
8.65058220183e-09
4.89480720482e-09
3.59240266904e-10
3.03018065984e-09
7.47271275989e-09
1.07649683318e-08
1.53934947839e-08
1.86211342063e-08
2.32828434489e-08
2.60710972753e-08
3.07305420167e-08
3.30503256476e-08
3.71747197954e-08
3.86400804513e-08
4.1813147835e-08
4.11149413733e-08
4.07491378185e-08
3.55777170091e-08
2.42654036318e-08
1.32807608925e-08
1.65732976135e-08
2.64370713068e-08
4.47571667949e-08
1.345543087e-08
3.63007292733e-09
5.47391303562e-08
5.3577401706e-08
4.92514180319e-08
6.01333591492e-08
6.30021556634e-08
6.62906228271e-08
6.04966019673e-08
5.522716558e-08
4.91569281529e-08
4.49853405557e-08
3.85969846092e-08
3.46154985133e-08
2.87358052573e-08
2.51389770484e-08
1.87482792343e-08
1.53444663525e-08
9.5564868584e-09
6.81583461282e-09
1.03001499032e-09
1.77803614615e-09
7.60738320692e-09
1.00789191649e-08
1.63198397808e-08
1.85989674574e-08
2.48125085718e-08
2.67922439582e-08
3.29590435555e-08
3.46607878221e-08
4.01894806704e-08
4.10961360318e-08
4.52059365528e-08
4.50812803984e-08
4.36233004626e-08
4.0575937677e-08
2.90636392523e-08
1.76025715986e-08
6.38719928899e-09
1.39744846805e-08
3.56478601291e-09
1.60984971129e-08
4.10024582087e-08
4.1735984439e-08
4.87882496243e-08
7.10923825796e-08
6.03672629915e-08
4.68806519542e-08
5.20060378256e-08
4.01717453164e-08
4.29170084103e-08
3.32202894828e-08
3.38105833996e-08
2.55303953264e-08
2.54175386549e-08
1.88328235545e-08
1.66931980646e-08
1.12540803331e-08
8.47751684941e-09
5.35146760289e-09
1.42712747291e-09
8.00835806089e-10
6.22879445902e-09
7.16726164066e-09
1.37446924798e-08
1.34147324896e-08
2.12428009503e-08
1.95361353491e-08
2.85025491398e-08
2.55452720976e-08
3.50086336361e-08
3.09152291768e-08
3.98909083425e-08
3.44506852308e-08
3.88005863373e-08
3.19468394686e-08
2.69627748386e-08
1.66360614951e-08
7.8994971553e-09
8.07826844178e-09
4.94098617193e-09
6.02526770586e-09
2.07344808188e-08
3.953674308e-08
3.79627614299e-08
3.72259334276e-08
3.44870993298e-08
3.30697991794e-08
2.91403927788e-08
2.72154948047e-08
2.30503042789e-08
2.10750149128e-08
1.71352619016e-08
1.49029215397e-08
1.13946029091e-08
9.42843247932e-09
6.60960644613e-09
3.95134968476e-09
1.09819173516e-09
1.69586055086e-09
3.91083928873e-09
6.90842851511e-09
9.05477385906e-09
1.22420146083e-08
1.41080762697e-08
1.7558932126e-08
1.91541990074e-08
2.2673997575e-08
2.39344008163e-08
2.6424891729e-08
2.70316550763e-08
2.69740854121e-08
2.60316129846e-08
1.87600277594e-08
1.27915035434e-08
1.64528606086e-08
3.19810121978e-08
1.76311379102e-08
2.97729319198e-09
2.24047784025e-08
3.00484101681e-08
3.89472305213e-08
3.98003520427e-08
3.52038796879e-08
3.53133558801e-08
2.93984293076e-08
2.81233987765e-08
2.26461534904e-08
2.0727473666e-08
1.61206716624e-08
1.31592295865e-08
9.93750727232e-09
6.20355233708e-09
3.33596345082e-09
1.50430909885e-09
3.15438727421e-09
6.53590463377e-09
9.952527254e-09
1.23440298532e-08
1.65851541424e-08
1.81668242132e-08
2.27571841872e-08
2.34060572028e-08
2.74725094574e-08
2.69946398533e-08
2.82580026927e-08
2.57008315814e-08
1.74343753316e-08
1.00109615139e-08
2.77008877318e-08
4.90856498423e-08
2.89345526111e-08
3.2846326717e-09
2.3694994238e-08
3.09677186969e-08
4.09203941324e-08
4.02405702467e-08
3.66514595087e-08
3.48462905304e-08
2.92870418433e-08
2.63613217562e-08
2.10749806953e-08
1.70469831136e-08
1.26452990997e-08
7.74637775037e-09
4.68615765612e-09
1.25816510348e-09
3.71502850092e-09
8.44542029294e-09
1.21986520181e-08
1.59382705363e-08
2.01231227606e-08
2.25531414976e-08
2.64841177437e-08
2.74225487955e-08
2.77665653769e-08
2.5637274584e-08
1.40428199033e-08
5.67123808948e-09
3.59760465166e-08
6.51025464672e-08
3.7925141323e-08
1.94981664281e-09
2.31676619738e-08
3.22197607528e-08
3.9890453096e-08
3.90203984122e-08
3.46019074083e-08
3.22095839569e-08
2.56577154031e-08
2.08325704593e-08
1.54724605066e-08
8.18924109768e-09
4.77643860146e-09
1.32100484847e-09
6.71795410911e-09
1.11561430063e-08
1.73861899198e-08
1.98792050309e-08
2.48051332731e-08
2.61929419423e-08
2.63202611637e-08
1.98221281813e-08
8.46644135343e-09
1.45277710608e-08
4.88628266175e-08
4.31298922732e-08
1.19160120408e-08
2.23582241657e-08
3.12198659936e-08
3.82214981748e-08
3.82016465818e-08
2.94985527477e-08
2.37754371244e-08
1.66245916191e-08
8.17642694802e-09
2.64189082304e-10
6.98427406825e-09
1.63816569022e-08
1.89141943965e-08
2.30576924786e-08
2.08762985198e-08
1.49165458541e-08
1.12682121694e-08
2.81304643217e-08
2.92696865837e-08
1.85454079294e-08
2.26811905125e-08
3.04829623257e-08
3.42216651459e-08
2.3090029113e-08
1.28066675326e-08
7.0400375983e-10
9.1479485315e-09
1.4527460434e-08
1.26927786194e-08
8.25350545925e-09
2.52890677377e-08
2.8530306949e-08
1.45972478832e-08
1.98294790943e-08
2.84661661161e-08
6.45278177718e-06
6.06412981574e-06
5.85891573896e-06
6.06471626542e-06
6.49294479653e-06
6.69510248931e-06
3.30004944238e-07
1.0144122672e-06
3.43375400909e-07
1.14604880949e-06
4.78809208482e-07
1.04504155004e-06
4.08016549756e-07
1.06082289091e-06
2.0240077278e-07
5.36582787453e-07
1.60327497948e-07
5.37694916455e-07
1.71786106434e-07
1.88938406498e-07
6.6032164959e-07
5.33696176177e-07
2.49569745059e-07
1.92470752023e-07
3.18572662561e-09
2.680067133e-07
9.26399375156e-08
3.66813371495e-07
8.03776742201e-08
1.26291791012e-07
3.17443529885e-09
6.10960100151e-08
1.27826245155e-08
7.94650546336e-09
2.97985910752e-08
8.41297845924e-09
3.73342413284e-06
2.89803504951e-06
2.19521150592e-06
1.51464306727e-06
1.91822825849e-06
2.49334782998e-06
3.46982323519e-06
6.22869517465e-07
7.67460317669e-07
6.111108859e-08
3.69766307818e-08
2.21091446035e-09
4.64666819851e-08
2.63100095751e-08
1.56870557756e-07
4.39549773174e-08
2.23256920616e-07
1.80420219226e-07
9.62677287707e-07
3.32270776125e-07
1.04616618487e-06
3.33948159144e-07
2.96804127077e-07
9.38730510631e-07
2.88192855943e-07
9.49773526479e-07
2.81685434536e-07
9.37751984446e-07
2.80202570956e-07
9.09411641891e-07
2.33994933594e-06
2.1332207389e-06
1.30942751496e-06
3.30254363651e-06
1.84423536663e-06
1.56288380524e-06
2.49951722583e-06
1.07126274973e-06
1.231462387e-06
2.81431947588e-07
2.30569442297e-07
1.20137879043e-08
4.15759737233e-07
4.63023196146e-07
5.38985911298e-08
5.91251768926e-08
9.72078770049e-08
3.94329872414e-08
3.80746560749e-07
6.45601898428e-07
1.00520535421e-06
1.2158090151e-06
1.12990043648e-06
4.33268158827e-07
5.24220802901e-07
1.71723145445e-07
4.11552757424e-07
1.08466913328e-07
1.03213540148e-07
5.86060092831e-09
3.07125328448e-07
3.01356050492e-08
1.92195806526e-07
9.39284955025e-09
5.2836761503e-08
7.19417851988e-08
1.20402564171e-07
2.80166727899e-07
4.02420492572e-07
5.55228434674e-07
7.16644833901e-07
7.41698519697e-07
1.02720417023e-06
1.08559597459e-06
1.16656947789e-06
9.43695505592e-07
6.76754434902e-07
5.53287160861e-07
2.81059600742e-07
2.45654466389e-07
3.1185412271e-07
2.86889697326e-07
2.72013120635e-07
2.1379132683e-07
1.82075079223e-07
1.06983135238e-07
4.78928835631e-08
5.21984517339e-08
1.29758329066e-07
2.60679922145e-07
3.17910012813e-07
4.60710264433e-07
4.67212531667e-07
5.8821453221e-07
5.03300793669e-07
7.26654014668e-07
7.61046072608e-07
9.14855716826e-07
7.27742918174e-07
6.26507208765e-07
4.89760088071e-07
3.75209061968e-07
3.01826778647e-07
2.66193924123e-07
2.39272538709e-07
2.53606134053e-07
1.95275469446e-07
1.75710942181e-07
9.87416262941e-08
5.20522177729e-08
3.08469045304e-08
9.76607528326e-08
1.66475867302e-07
2.41233040613e-07
2.68988226289e-07
3.39791917432e-07
3.00123910715e-07
3.37855794961e-07
3.47387785907e-07
5.35754446617e-07
5.63204303027e-07
5.8831783692e-07
4.618444972e-07
4.37854464157e-07
3.69675728516e-07
3.22845539941e-07
9.16517637143e-08
1.6142509691e-07
1.25345809456e-07
1.39618636093e-07
8.94559903609e-08
6.45322200674e-08
1.53669451462e-08
3.23266356105e-08
6.88777442417e-08
1.28758822183e-07
1.32237280124e-07
1.87285865883e-07
1.38144644121e-07
1.70133452383e-07
1.62086105439e-07
2.9582375769e-07
3.34991861276e-07
4.01931365731e-07
3.50378748899e-07
3.70816382835e-07
3.3447247915e-07
3.48033562131e-07
5.33196108197e-09
9.6669991606e-09
4.5565577319e-08
3.0607644696e-08
3.98085110398e-08
1.46772515193e-08
1.08324639675e-09
1.01467217237e-08
3.58968548648e-08
1.3820571857e-08
4.33673609732e-08
3.6832742416e-08
3.29460600292e-08
1.2436489923e-07
1.68276085046e-07
2.36564750921e-07
2.47020988392e-07
2.81913088032e-07
2.84314311628e-07
3.05917495359e-07
9.08840404127e-08
7.22864054352e-08
2.21677575092e-08
6.47016305207e-09
4.25718117951e-10
3.21114262296e-08
1.88747967997e-08
1.0773880988e-08
4.16563281411e-09
3.80059176781e-08
8.41836967611e-08
1.22166309015e-07
1.44937624872e-07
1.91674211911e-07
2.01926568158e-07
2.48195619406e-07
8.17164795255e-08
6.15344500912e-09
7.24856848396e-09
2.12942171279e-08
3.02264286317e-08
8.62419978506e-10
7.68453192699e-07
7.37069345273e-07
6.69709866309e-07
5.88566061536e-06
2.85649973654e-06
6.45446052006e-07
6.54326203113e-07
2.97304024933e-07
3.74775839157e-07
9.83115445205e-06
1.02966663299e-05
5.32090136848e-06
4.65650995915e-06
6.39074939264e-07
2.73626558145e-07
5.75100777963e-07
2.0300882523e-07
4.79025465559e-07
4.36099994741e-07
1.06277473647e-07
3.44320842371e-07
7.32787226928e-08
2.46061835651e-07
4.24542489211e-08
1.38623655026e-07
2.35459464741e-08
4.98830189127e-08
1.85777960879e-08
8.27480159642e-09
3.54084720853e-08
8.81997364979e-08
5.71550852427e-07
2.09551464706e-06
2.92773567587e-06
1.47870069552e-07
6.17413137408e-08
1.29437165139e-08
1.7726364824e-07
3.16777514846e-07
1.91694282651e-07
2.80382311098e-07
5.00082448334e-07
3.73408404107e-07
1.82024573819e-07
9.92288475238e-08
2.43695576043e-07
2.79579056772e-07
1.42603555305e-07
3.22976301426e-07
3.75976736317e-07
6.55328056221e-07
8.5379807941e-07
3.87745552836e-07
1.03400293667e-06
5.23022385512e-08
3.3420380466e-07
7.29895353999e-07
4.51054275911e-06
4.70359269761e-06
4.62082233797e-06
2.30779288499e-07
2.88350156761e-07
2.13626206002e-06
6.73857755011e-06
7.15259020658e-06
2.62253461127e-06
6.05501736551e-06
1.23924044501e-06
6.90684524091e-07
4.41328902448e-06
2.71852580176e-06
1.89792427178e-06
4.17524675793e-06
1.74748487913e-06
1.97931245137e-06
2.13736874417e-06
1.45345772857e-06
2.99519652069e-06
2.79588124011e-06
2.37231509082e-07
1.59701709183e-09
1.00940227779e-08
3.87676092775e-08
2.29426799339e-07
8.81454432689e-10
2.81909646173e-07
6.69621970756e-08
5.19657820086e-07
1.3914559798e-07
1.9631794045e-07
1.04943370842e-07
2.3594149104e-06
2.35856548661e-06
5.32664220954e-07
4.38256973355e-07
1.21520322193e-06
2.82827344912e-06
2.3959193787e-06
1.54279073259e-07
1.4565794976e-06
7.16800420528e-07
2.91388486926e-06
2.3024671632e-06
8.23205657143e-07
1.97366081026e-06
7.74205989876e-07
1.04821923833e-07
1.66833164879e-07
4.9500503974e-07
4.44340952946e-07
1.00095014503e-06
3.35045178713e-07
5.7952445701e-07
2.57031691147e-07
2.12131362124e-06
2.07499657392e-06
1.98243999742e-06
2.62235563833e-07
6.16264890377e-09
3.66321403593e-09
1.46264257265e-08
2.74100165539e-08
1.82701976025e-08

