# vtk DataFile Version 3.0
File Name: Molecule/methanol/methanol_12.5-3.vtk
ASCII
DATASET UNSTRUCTURED_GRID
FIELD FieldData 1
TIME 1 1 double
0.0
POINTS 645 double
1.6042746305 0.015077282675 -0.37387689948
1.5720918179 -0.3305606246 -0.36749792099
1.4819580317 -0.01207768172 -0.61535394192
1.4435201883 -0.31748008728 -0.62900912762
1.4237091541 -0.026699837297 -0.80231648684
1.479152441 -0.64008414745 -0.35720339417
1.3557255268 -0.59693586826 -0.62187302113
1.3795064688 -0.3077288568 -0.90636974573
1.2956703901 -0.59031099081 -0.88688129187
1.3868550062 -0.83105289936 -0.34591972828
1.2759597301 -0.76993650198 -0.61418569088
1.2051873207 -0.75457382202 -0.91336524487
1.0969830751 -1.0244129896 -0.60183274746
1.1926585436 -1.1070936918 -0.32580628991
1.0205819607 -0.99719613791 -0.92819464207
0.87007302046 -1.2496702671 -0.56069546938
0.96005612612 -1.340682745 -0.27662461996
0.80946040154 -1.2157951593 -0.86973083019
0.67928057909 -1.5125566721 -0.25506296754
0.59696447849 -1.4163587093 -0.54596990347
0.54289960861 -1.3861026764 -0.82851982117
0.38208961487 -1.6254910231 -0.2266535908
0.30310681462 -1.5263366699 -0.51289951801
0.24384950101 -1.4925750494 -0.80148047209
0.16551978886 -1.6654773951 -0.22423011065
0.0064032096416 -1.573735714 -0.48964887857
-0.03038080968 -1.5274156332 -0.80524271727
-0.19576074183 -1.5767086744 -0.4528144002
-0.15530699492 -1.6767201424 -0.19952833652
-0.22438326478 -1.5294764042 -0.77182632685
-0.48031300306 -1.6265040636 -0.17211398482
-0.48159694672 -1.5238140821 -0.45448663831
-0.51907229424 -1.4849081039 -0.72469800711
-0.80012989044 -1.5057846308 -0.14549736679
-0.78134191036 -1.414919734 -0.41989344358
-0.79529321194 -1.373025775 -0.73694825172
-1.0544230938 -1.2498745918 -0.37024328113
-1.0908358097 -1.3386186361 -0.069699458778
-1.058976531 -1.2196118832 -0.65938323736
-1.3365916014 -1.0893591642 -0.087734751403
-1.2820769548 -1.0239542723 -0.37787538767
-1.2790765762 -0.99570953846 -0.69227212667
-1.4530181885 -0.79006832838 -0.32879558206
-1.5188945532 -0.82320356369 -0.080846205354
-1.4515843391 -0.76704800129 -0.61929678917
-1.5416433811 -0.61085361242 -0.32959711552
-1.6177527905 -0.64935100079 -0.0072127897292
-1.5302773714 -0.59530806541 -0.64356637001
-1.6993635893 -0.33703890443 -0.066940039396
-1.6296033859 -0.30819195509 -0.34130126238
-1.615331769 -0.30936831236 -0.65622097254
-1.6652663946 0.00041604123544 -0.30900046229
-1.7488566637 -0.0010200368706 0.012377513573
-1.6491519213 -0.00069557543611 -0.63954931498
-1.6988101006 0.33615010977 -0.069207906723
-1.6275465488 0.31562909484 -0.34534484148
-1.6137925386 0.30802223086 -0.66897082329
-1.5482937098 0.6016715169 -0.31211262941
-1.619194746 0.65113908052 0.0019612312317
-1.5261918306 0.60236001015 -0.65086382627
-1.5157067776 0.83270633221 -0.07273735106
-1.454434514 0.77476644516 -0.36945238709
-1.3851574659 0.85736852884 -0.67801469564
-1.2839747667 1.0284928083 -0.35544100404
-1.3418022394 1.0934712887 -0.058894548565
-1.2659920454 1.0201638937 -0.65590131283
-1.0918759108 1.3299520016 -0.09382327646
-1.0523682833 1.2434242964 -0.39985442162
-1.0569617748 1.2072308064 -0.71670895815
-0.79236155748 1.4142962694 -0.39984107018
-0.78636789322 1.5106390715 -0.15065596998
-0.79602247477 1.3765031099 -0.71984875202
-0.49147537351 1.5232532024 -0.44372904301
-0.46722248197 1.6286796331 -0.17597234249
-0.50318402052 1.4812959433 -0.76307427883
-0.1941409409 1.5795576572 -0.4456242919
-0.16659672558 1.6813887358 -0.18024934828
-0.22391049564 1.5373716354 -0.74142974615
0.039664346725 1.6766628027 -0.21439495683
0.00055833160877 1.567736268 -0.50943118334
-0.036226779222 1.5267198086 -0.80872094631
0.3029191494 1.529096961 -0.50397741795
0.36040040851 1.6347885132 -0.21887534857
0.2599799037 1.4884153605 -0.80596107244
0.66761755943 1.5180432796 -0.25481277704
0.59751784801 1.4161090851 -0.5459421277
0.55617243052 1.3771140575 -0.83832299709
0.95380628109 1.3438709974 -0.27763715386
0.86729562283 1.2469389439 -0.57179504633
0.82717227936 1.2113425732 -0.8451705575
1.2022167444 1.0970175266 -0.32598167658
1.0921442509 1.0240474939 -0.61345160007
1.0213690996 0.99249631166 -0.93668812513
1.273950696 0.78672939539 -0.59354931116
1.3948423862 0.84106498957 -0.31740739942
1.2076942921 0.75531697273 -0.9066541791
1.4800314903 0.64261591434 -0.35272037983
1.3480602503 0.60292053223 -0.64239138365
1.2896057367 0.58576667309 -0.91014385223
1.4484474659 0.31502887607 -0.61763930321
1.580111146 0.32909139991 -0.35006046295
1.3802338839 0.32911652327 -0.88895642757
1.9070000648 3.1750460039e-07 0.65588116646
1.8779842854 0.32454320788 0.65587061644
1.8779820204 0.16220137477 0.93654668331
1.8779858351 -0.1615755707 0.93689870834
1.8779911995 -0.32447627187 0.65624785423
1.8780058622 -0.16219097376 0.37455365062
1.8780198097 0.16184620559 0.37437450886
1.8013218641 0.53864228725 0.96642154455
1.7956504822 0.31841135025 1.2078354359
1.8012613058 0.00048052833881 1.2768735886
1.7956527472 -0.3186968565 1.2076852322
1.8013402224 -0.53838008642 0.96676015854
1.795702219 -0.63779997826 0.65577971935
1.8013572693 -0.53880649805 0.34501892328
1.7956273556 -0.31827560067 0.10263673216
1.8074249029 -0.0095047326759 0.055341266096
1.7969899178 0.317396909 0.10652277619
1.8013105392 0.53860521317 0.34454807639
1.7957061529 0.63784533739 0.65586137772
1.682115674 0.83746165037 0.95695990324
1.6804870367 0.68700820208 1.2264236212
1.6729037762 0.46337783337 1.4382730722
1.6789370775 0.16148845851 1.5370503664
1.6794266701 -0.15346762538 1.5385301113
1.6714906693 -0.45054528117 1.4489588737
1.6787221432 -0.68500351906 1.2341302633
1.6791223288 -0.84215003252 0.9619294405
1.6646313667 -0.92512691021 0.65652728081
1.6788167953 -0.84296959639 0.34937530756
1.6790845394 -0.68532335758 0.078571453691
1.6651176214 -0.46098968387 -0.14598599076
1.6805282831 -0.16358202696 -0.21581111848
1.7291253805 0.10520643741 -0.13731759787
1.6682087183 0.46381759644 -0.13608442247
1.6798491478 0.68889051676 0.085695788264
1.6822679043 0.8373029232 0.35475000739
1.6782203913 0.90096366405 0.65595203638
1.5687460899 1.0335934162 0.95614278316
1.577423811 0.94227522612 1.1486999989
1.5733059645 0.76692980528 1.4033107758
1.5648335218 0.54052299261 1.5896451473
1.5736176968 0.34915834665 1.6660882235
1.5770674944 0.042049355805 1.7201755047
1.573715806 -0.28257212043 1.6872802973
1.5626337528 -0.56657290459 1.5779306889
1.5736225843 -0.72158020735 1.4445873499
1.5763237476 -0.91672390699 1.201267004
1.5718958378 -1.0428743362 0.90376263857
1.5010322332 -1.1695984602 0.65730625391
1.5723109245 -1.0423308611 0.40749800205
1.5757129192 -0.91760641336 0.10869725794
1.5733141899 -0.71793526411 -0.13778565824
1.5710505247 0.77069562674 -0.095385745168
1.5765880346 0.93989032507 0.15554529428
1.5703265667 1.0304144621 0.35262811184
1.5670810938 1.0767490864 0.65527147055
1.3800371885 1.2686028481 0.97537559271
1.3784558773 1.1663399935 1.2494790554
1.3818825483 1.0521255732 1.4274814129
1.3807351589 0.84736913443 1.6508302689
1.3799073696 0.58568149805 1.8255354166
1.3808959723 0.28048527241 1.9318084717
1.3805990219 -0.043710891157 1.9623059034
1.3699798584 -0.33366844058 1.9297969341
1.3820210695 -0.5297819972 1.8484325409
1.379067421 -0.79176032543 1.6978604794
1.3814647198 -1.0202096701 1.4720146656
1.3829398155 -1.188172102 1.1936006546
1.3770136833 -1.2900009155 0.89100027084
1.3622238636 -1.3226152658 0.6011223793
1.3764102459 -1.2874684334 0.40483784676
1.3830749989 -1.1876664162 0.11727781594
1.3897835016 -1.0210789442 -0.14085793495
1.3851578236 1.0474352837 -0.12254486233
1.3796436787 1.1631224155 0.059136942029
1.3802847862 1.2690366507 0.33862450719
1.3723039627 1.3146798611 0.65615642071
1.1413805485 1.4823511839 0.97732490301
1.1348934174 1.395103693 1.2631973028
1.1452461481 1.2900893688 1.4453061819
1.142059803 1.1108285189 1.6880367994
1.1417113543 0.87018746138 1.8975474834
1.141066432 0.58911496401 2.0542626381
1.1289213896 0.31448173523 2.1479525566
1.1428724527 0.10003071278 2.1678056717
1.1453274488 -0.20121911168 2.156829834
1.1395070553 -0.51443696022 2.0842769146
1.1435582638 -0.80720692873 1.9384067059
1.1411652565 -1.0438966751 1.7568708658
1.1323586702 -1.1896594763 1.6056030989
1.1406434774 -1.3471362591 1.3552296162
1.1416192055 -1.4622364044 1.0591675043
1.139675498 -1.5132453442 0.76266175508
1.1353315115 -1.5165941715 0.55197548866
1.1407060623 -1.4621379375 0.24904991686
1.1469271183 -1.3392493725 -0.048984162509
1.1453982592 1.2946988344 -0.13183920085
1.1385061741 1.3893649578 0.044101178646
1.1412162781 1.4829506874 0.33606526256
1.1313587427 1.5240309238 0.65616774559
0.86988282204 1.654278636 0.97598969936
0.86935847998 1.5640364885 1.2837508917
0.864990592 1.4340232611 1.5439436436
0.87299472094 1.3077249527 1.7136982679
0.87105715275 1.0980187654 1.9324233532
0.87040448189 0.83787435293 2.1169114113
0.86860150099 0.5459753871 2.2498693466
0.86652320623 0.23853375018 2.3254368305
0.87477511168 -0.051708798856 2.3363006115
0.86383229494 -0.26233407855 2.3223187923
0.85673034191 -0.55438995361 2.25304389
0.86811232567 -0.83628237247 2.1190490723
0.86899006367 -1.0965880156 1.9348173141
0.86395895481 -1.3048014641 1.7224235535
0.87222027779 -1.4257366657 1.5519168377
0.87262660265 -1.5618907213 1.284386754
0.87329787016 -1.651802659 0.97953683138
0.86775249243 -1.685565114 0.65655612946
0.87305861712 -1.6519721746 0.33296656609
0.87779259682 -1.5557103157 0.018292369321
0.87313246727 1.5603603125 0.022478230298
0.86983776093 1.6540760994 0.33478116989
0.85843783617 1.6893060207 0.65586286783
0.57244712114 1.7756607533 0.97859346867
0.57218754292 1.6913986206 1.2856529951
0.56455463171 1.5654256344 1.5557030439
0.5743342638 1.4451184273 1.7341175079
0.57395398617 1.2426789999 1.9630162716
0.57367628813 0.99180060625 2.1627750397
0.5736219883 0.70670449734 2.315359354
0.57684767246 0.4034280479 2.4130313396
0.57540011406 0.11170388758 2.455624342
0.56872344017 -0.10498394817 2.4577445984
[...]
CELL_DATA 1286
SCALARS cell_data_0 double
LOOKUP_TABLE default
1.74949848603e-08
8.91134254966e-09
5.8004991809e-08
8.90997539129e-09
2.86782174139e-08
1.48932098379e-07
1.0821411776e-07
2.30299509087e-09
8.51180130824e-09
2.29466377021e-08
7.6304101227e-09
7.46909208948e-09
1.40970648534e-09
6.61763631986e-08
6.93497022845e-08
5.08667122315e-09
8.31749283438e-09
1.18483369143e-08
2.52116324655e-09
5.34492294903e-09
3.53758378544e-09
4.55028912989e-09
9.80756491592e-09
6.31184554484e-09
1.00140617464e-08
2.12916902074e-10
8.34294412029e-10
3.01846899807e-09
1.16954379277e-08
7.05983368794e-10
2.81210019749e-09
1.51990916006e-09
2.74789595667e-09
4.42194940402e-09
2.74666607433e-09
1.43448094766e-09
8.25799058538e-09
2.85627481522e-09
1.7154068911e-09
1.17172852556e-08
1.30536048209e-08
5.35303357792e-09
4.26136300581e-09
1.27237600171e-08
1.042141799e-08
5.13494900234e-09
1.03134396045e-08
2.11329163037e-09
1.13175712597e-08
6.47578192306e-09
4.23070506808e-09
4.32667761033e-09
7.49734920441e-09
1.52364512877e-09
1.01259997409e-08
8.01464378076e-09
2.65284657706e-09
4.14989601832e-09
1.2619654366e-09
4.11608665171e-09
7.47452621152e-09
1.03661695761e-09
1.20227417001e-08
2.94201972174e-09
4.46005637653e-09
1.76157217362e-09
9.30297106709e-09
4.36539416662e-09
7.92400187591e-09
9.51142509509e-09
3.71459616221e-09
8.93288662591e-10
2.81959135892e-09
3.59368693498e-10
8.16126790336e-09
1.80627852192e-09
6.96067817951e-09
1.42816371966e-09
3.0814750961e-09
3.79367228148e-09
4.40710427887e-09
9.46422174111e-10
1.51134383144e-08
1.33391970381e-08
6.41735263022e-09
1.41959422806e-08
1.54683502259e-09
1.8542428149e-09
1.89939163724e-09
2.89129294124e-10
4.81261585951e-09
3.041671191e-09
2.64425470238e-09
1.01799687614e-08
1.61641815653e-09
1.66415702879e-09
1.0152694781e-09
1.76215316603e-09
2.81287649202e-09
4.77312417244e-09
2.88006382843e-09
3.29909740068e-09
1.59394059734e-10
5.81062749968e-09
4.42907154576e-09
7.70941097802e-10
3.85343880504e-10
1.51044764304e-08
5.69017967444e-09
1.0693927269e-08
7.63280118778e-09
1.41584673926e-08
1.09398814597e-08
7.54958231464e-09
1.08741743061e-08
9.28477709568e-09
8.51046401496e-09
1.22826110842e-09
1.35535191536e-08
2.56520476441e-09
7.52305892489e-09
6.69529180014e-08
7.20425246623e-08
1.16958837082e-09
4.40950804012e-09
1.40352952476e-08
1.64455660307e-08
2.29706256975e-08
2.94531422942e-08
1.15391957792e-07
1.3350704605e-07
1.70930985724e-09
2.44534201544e-08
1.7533483668e-10
3.21384191225e-11
7.6536153548e-11
3.25770960526e-11
6.62736540182e-11
1.35212074739e-10
3.8156202049e-10
6.39675130584e-11
3.07006295821e-10
1.61942771291e-10
2.06318639571e-10
2.15382532609e-10
3.72701898594e-10
1.47009198282e-10
2.58361338479e-10
1.26025107595e-10
2.02651240411e-10
1.08200248895e-10
3.42396197796e-10
3.42982966383e-10
2.09757415579e-10
3.78774106829e-10
1.68068064716e-10
4.05203816891e-11
5.76728567253e-11
6.69566052079e-11
6.67882280949e-11
2.20695052556e-10
2.71525677033e-11
4.73705912093e-11
1.33234722698e-10
5.80890351152e-11
2.48706645031e-10
1.30287252561e-10
2.42843502019e-11
7.1370128882e-11
1.669442717e-10
1.43561504287e-10
4.61272886197e-11
1.90323979043e-10
1.22999737014e-10
1.30939954143e-10
2.42372153231e-10
8.99581693337e-10
8.79343952356e-11
1.2220800156e-09
2.3717374354e-10
9.54066886632e-10
3.59408101037e-10
3.78071165863e-10
2.78210694884e-10
1.2911400415e-10
1.15875948541e-10
3.5362677912e-11
7.89775585542e-11
2.56388739825e-10
8.15664989922e-12
1.32213154265e-10
2.47873342331e-11
7.34094279488e-11
1.81611543935e-10
5.10842450323e-11
1.37257051323e-10
6.03060005462e-11
1.99038604561e-10
2.2243700205e-11
4.50960792101e-11
1.58970138499e-10
1.45712386351e-11
2.45197336227e-10
9.54026025658e-11
1.53279198853e-10
6.52305513745e-12
7.48580727731e-11
1.18470526532e-10
1.11010866399e-11
3.68348965936e-10
2.65702117698e-11
2.0272309475e-10
5.62937472849e-10
4.35083356477e-10
7.685150554e-11
1.76707146594e-10
1.9762795347e-10
1.2848758008e-11
5.21887118055e-11
1.07126879762e-10
1.41805783446e-10
6.85964836841e-12
1.08592355943e-10
6.83860162301e-11
2.65835059175e-10
1.60828740233e-11
7.00578289172e-11
5.85087295337e-11
4.73715461458e-11
2.64700803749e-11
3.95930173401e-10
2.67970883752e-10
2.09443010311e-10
1.10406472305e-10
1.88956710419e-10
2.38579817738e-10
2.50917446088e-13
1.06455077959e-10
3.31055793862e-11
1.27757922491e-10
3.42725159814e-11
2.2051801267e-10
9.56187182119e-12
6.77313648173e-11
3.79673579003e-11
2.09988371736e-10
1.48635682364e-10
3.78316410454e-10
4.67149785307e-10
6.56121438849e-10
3.06663004727e-11
9.2519326201e-10
4.63079808862e-10
3.29899449234e-10
4.14216893142e-10
1.41518003461e-10
1.97743558947e-10
4.33462416465e-12
1.74804052399e-11
1.99957671076e-11
1.28795724116e-10
7.84059851233e-11
6.40284554645e-11
3.16792027017e-11
4.71811741803e-11
3.51794794896e-11
4.74324036799e-11
1.06586768845e-12
3.75162056227e-11
9.63313123488e-11
9.27885181129e-11
1.32838740843e-10
1.31404156404e-10
1.74780158351e-11
1.99417557033e-11
1.85550176575e-10
8.10337473458e-11
1.64982565464e-11
1.38675917683e-10
1.46605994033e-10
2.89011101325e-11
9.71190732973e-11
8.15478497041e-11
3.62374311507e-11
1.40331142469e-10
2.51215915878e-11
2.53214554955e-10
7.80596759886e-11
1.19276697018e-10
5.4249579704e-11
5.96416155324e-10
5.04610215088e-10
9.33444821231e-10
5.55129700943e-10
7.79162258547e-10
1.70749825742e-10
4.01641067962e-10
1.05652479331e-10
2.31519012682e-10
6.82679163279e-11
4.85116499202e-11
2.76490505626e-11
3.36990773415e-11
1.01573043193e-11
6.29522234e-12
1.05035151172e-10
4.72594678749e-11
1.07758781638e-11
8.61441126211e-11
6.13899857171e-11
1.80991302715e-11
2.32112191634e-11
2.10470894984e-11
1.19136511469e-10
1.16398781838e-10
3.05627183961e-10
4.31904200999e-11
2.80478894899e-10
1.98861957395e-10
6.79527394261e-11
1.16717931936e-11
3.23774200133e-11
1.6651951795e-10
1.22273799599e-10
6.81077641299e-11
1.33809370738e-11
6.68338602772e-11
6.43745048324e-11
6.67623938445e-11
7.12181983295e-11
1.46451800167e-11
7.57069970819e-11
8.71159391859e-11
9.85134275734e-11
7.31364304307e-11
6.2429871383e-10
2.192133121e-10
1.24396962631e-09
3.05627676365e-10
4.58103633831e-10
3.28602638574e-10
1.66838811533e-10
1.48861493957e-10
6.7749885046e-11
6.97844672496e-11
2.89613780248e-11
3.55019291345e-11
7.0420385422e-11
8.11527432793e-12
1.01276467364e-10
1.63452840702e-10
9.29668169939e-12
2.0815460975e-12
1.21731639975e-10
1.13803406866e-10
7.12719860659e-12
5.36039928816e-11
1.98833939306e-11
5.09201205516e-11
2.98350889585e-10
1.66900587937e-10
1.1103285727e-10
7.99040694194e-11
6.89932834221e-11
2.46787093529e-12
5.7673213102e-12
7.62582894935e-11
8.35633314402e-12
2.35476758012e-11
1.52672372631e-12
2.04594631502e-11
6.19127159934e-11
7.69318338211e-11
1.17107872652e-10
9.86595329795e-11
9.86763409006e-11
1.19314918079e-10
3.8574212519e-11
2.96950527102e-10
1.68642923229e-10
1.09821810629e-09
4.03630132485e-10
1.93556740926e-09
1.09259558998e-09
4.10083221761e-10
5.80080520919e-10
1.10598939207e-10
2.33621856559e-10
8.97392954388e-11
1.84532856412e-10
2.15145456458e-11
4.70714253109e-11
1.84712544164e-11
1.41863479752e-10
1.24931934887e-10
1.53097664077e-10
4.60716419623e-11
1.23369766105e-10
3.41506469893e-11
1.65610079984e-10
5.68399205109e-11
9.57227758185e-11
8.86521490644e-11
6.03636097282e-11
7.03585127512e-11
3.55316454306e-10
3.11323980933e-10
9.40620773282e-11
2.66181394489e-11
8.99368281609e-11
1.06118346448e-10
1.78050118877e-10
1.34943601312e-11
1.31757153625e-10
8.70039326787e-11
9.56131839495e-11
8.65306624496e-11
9.55257381062e-11
1.61383413227e-10
7.29319274638e-11
1.36787233301e-12
9.65402921125e-11
1.84841699795e-11
2.31697788265e-10
9.2987025732e-11
2.59675124695e-10
2.5367125435e-10
7.54427267531e-10
2.16819558244e-10
1.65919212227e-09
1.67085927278e-09
1.84718517724e-10
9.605680555e-10
1.13068516525e-10
2.84448053381e-10
1.93978089369e-11
6.90273787621e-11
1.81822482258e-10
6.32229803482e-11
1.08391591614e-10
4.44655905846e-11
4.18832538544e-12
3.87253009671e-11
7.69251601863e-11
6.19166675548e-11
2.11539615165e-11
1.74331538027e-10
3.12497652151e-11
1.22386974697e-10
1.18523548788e-10
5.45177065317e-11
2.30222221498e-10
7.8885293306e-11
2.68207451455e-11
6.24701817244e-11
1.64412006962e-10
1.30100507163e-10
8.58243649095e-11
1.82178431951e-10
1.35709701756e-10
2.42343852662e-10
1.23126182729e-10
1.49910143371e-10
1.92040860185e-10
2.66743246087e-10
2.34178640869e-10
2.16590636107e-10
1.47081967894e-10
2.0806484863e-10
5.88522307023e-11
1.86072880198e-10
1.08698090108e-10
2.18342421866e-10
5.14219370677e-11
1.163355409e-10
5.78315075759e-11
4.94708472044e-10
2.58793509041e-10
1.38624012253e-09
2.30062875758e-09
2.82001630224e-10
9.99598824002e-10
3.2270669066e-11
2.97762514741e-10
3.59283722771e-10
9.08760669669e-11
7.88003209478e-11
2.38228521439e-10
9.88639572487e-11
1.02430919641e-10
4.50378758326e-11
5.22834325295e-11
6.51471616114e-11
3.21807700305e-12
1.74757097295e-11
7.5804704882e-12
5.4849732889e-12
2.95319262396e-11
1.80860572532e-10
1.60765322513e-10
3.09406693059e-10
2.62138050378e-10
2.49560055533e-10
1.08717500572e-10
1.35624115347e-10
1.16920598645e-10
1.53224824396e-10
9.51764140486e-11
2.33518545702e-10
3.73900126065e-11
2.48785068867e-10
7.56497250572e-11
3.35054709394e-10
2.46644568186e-11
4.45239635872e-11
8.15411537284e-11
9.79788451795e-11
1.71768471595e-11
6.44005057983e-11
4.21161652893e-11
5.61858277875e-11
1.76357653715e-10
1.96045649164e-11
1.62813109045e-10
7.59780658723e-11
7.72046598158e-11
4.39993044786e-12
7.44231576328e-10
1.70086706069e-10
1.32856531864e-09
1.24164627696e-10
4.70190395252e-10
3.97876192906e-11
7.49769866253e-10
8.25590734243e-11
4.22478985441e-10
4.24128061273e-11
1.04943065629e-11
1.32120280585e-10
6.60422136574e-11
1.25485575809e-10
8.55075766265e-11
4.87638293553e-11
1.29669338758e-10
1.59599515005e-11
6.08821733383e-11
2.55286096434e-11
3.58740624789e-11
1.11424011833e-10
1.57218576191e-10
1.02517839995e-10
1.9586695906e-10
1.83290020675e-10
3.7313233249e-13
1.05977085925e-10
7.71377871369e-11
3.07256142517e-11
2.83176362488e-11
3.58298534332e-11
1.68357910707e-11
2.94077743964e-11
8.89200596741e-11
1.95519994793e-10
4.23881403155e-11
1.34683570431e-10
1.54560760312e-10
7.7224569677e-11
1.1853707688e-10
1.10471206572e-10
2.06770904902e-10
2.77265593366e-10
3.27883257724e-10
2.51917961628e-10
1.03360708687e-09
9.29732732864e-10
2.05464445501e-09
2.61649753247e-09
4.22159568137e-10
8.80890505159e-10
1.29950485848e-10
9.10138815456e-10
1.5765078738e-10
3.84349180222e-10
9.00298993538e-11
3.22711560483e-10
8.75532274921e-11
5.21176186466e-11
8.85650752694e-11
3.23592134048e-11
3.29761675202e-11
6.66235350736e-11
1.68191023559e-11
4.86525437667e-11
3.50181348608e-11
5.35147651869e-11
3.20038443819e-11
6.83110092972e-11
1.10714170617e-11
2.2015703596e-12
8.10301752298e-11
2.61583967197e-11
1.92213994577e-10
3.22129337089e-11
4.60567292205e-11
4.91854999242e-11
2.05363487746e-11
5.45844661024e-11
4.55682433367e-11
1.14816083433e-10
3.99597672996e-11
2.83656554215e-11
3.12801071903e-11
2.21527619343e-10
3.57217957417e-11
4.26657236402e-10
1.13585194057e-10
8.08181926755e-10
1.11405529184e-09
1.34711332033e-09
2.58365808579e-09
1.86006162845e-09
2.3575853218e-09
4.381371242e-10
1.01989700429e-09
9.25207860569e-11
1.02805489092e-09
1.37184644542e-10
4.51121384479e-10
4.21448640993e-11
2.05508476705e-10
9.51789218747e-11
5.31778443899e-11
4.45482568102e-12
1.08089016304e-10
3.27906463667e-12
4.15963099729e-11
1.86838389622e-11
3.61820595465e-11
9.09388678778e-11
5.87214798977e-11
1.54877224932e-10
2.61498522072e-11
3.44654891536e-11
1.24912148826e-10
1.20467683166e-11
1.01669691714e-10
5.0311097415e-11
6.69290876658e-11
6.90959808504e-13
7.29154096321e-12
7.69282350787e-11
3.81392613274e-11
9.52342894184e-12
6.93252683847e-11
1.13461255107e-10
1.03984136605e-10
1.54769308597e-10
3.24136886593e-10
2.47189362138e-10
2.31077191779e-10
7.62453454917e-10
1.46487492789e-09
1.84920050226e-09
9.90675907144e-10
6.56010367971e-10
1.19963025131e-09
6.95336675115e-11
1.04099989893e-09
2.01018564331e-10
4.43304554911e-10
5.37214557485e-11
6.86875697389e-11
4.70742856839e-12
1.52032232971e-10
3.76677045771e-11
7.68746534302e-11
7.45258235479e-11
6.03559136694e-11
9.31633368077e-11
3.4913022578e-11
2.58572248743e-11
4.97861994584e-11
2.20360792568e-11
1.04155453089e-10
4.97769588479e-11
1.62002165503e-10
1.64286600023e-10
6.66435752471e-11
1.08388813913e-10
3.01049137612e-11
4.82334738365e-11
2.66919339147e-11
1.97761056896e-10
1.86207047962e-11
3.30794298591e-10
4.14064199629e-11
5.04036078018e-10
1.2651317256e-10
2.64868337772e-10
5.80159005047e-10
1.70639328161e-09
4.07016012418e-10
1.22576167419e-10
1.2964302005e-09
8.82438419923e-11
9.74620870748e-10
1.24569683153e-10
4.13515128024e-10
1.75931423385e-10
1.24225002639e-10
7.97691413715e-12
1.0789767883e-10
9.01791087235e-12
3.60425687516e-11
8.58217723624e-11
2.52664447246e-11
1.15331768594e-10
2.02450789546e-11
1.51837781468e-10
1.13437444214e-10
1.59124173916e-12
1.99787161426e-11
1.13629954802e-10
6.26756570623e-11
1.6376723655e-10
3.32172127428e-11
2.36367792084e-10
1.23985774863e-10
3.70055101154e-10
1.41437969383e-10
2.15079655152e-10
2.87524035386e-10
4.44181525522e-10
2.96288084795e-09
2.66298662553e-09
6.01871510373e-10
1.17124080505e-10
1.48706118288e-09
2.5967772424e-10
5.05001429039e-10
1.9430016881e-10
3.69215091077e-11
1.81308911694e-10
1.18181481912e-10
3.83383049569e-11
6.12616550294e-11
1.53701323973e-11
2.65793569089e-11
3.59992963411e-11
4.35088500662e-11
1.31635552378e-11
7.31237422273e-11
6.11249257313e-11
1.20608746052e-11
3.99876431787e-11
5.13161946026e-11
1.26311025801e-10
1.14594521566e-10
3.40444650701e-10
3.04060212471e-10
8.36961727463e-10
1.09497416966e-09
3.34768931864e-09
2.37412001821e-10
1.04614704634e-09
3.00243542287e-11
1.12467829373e-09
3.46561696129e-10
4.57759522154e-10
7.59744207238e-11
1.65543138185e-10
5.60632210902e-11
3.90459708385e-10
1.26349863334e-10
3.57351355012e-10
2.31284323256e-10
1.27571200156e-10
9.91753100832e-11
1.9831020107e-10
3.60149623013e-10
6.05895839261e-10
1.79691603164e-09
1.29011473086e-09
2.14312205392e-09
4.08777769995e-10
1.28733415686e-09
2.63480771883e-10
4.19865859875e-10
1.33448354753e-10
9.29574269948e-10
4.80103591565e-10
3.8061224629e-10
2.00645642361e-10
6.58985573299e-10
2.22285934595e-09
9.76959913333e-10
3.80846166063e-09
6.41400116861e-10
1.95164229265e-09
6.59494785522e-10
1.0322671022e-09
4.50572831479e-10
4.207789208e-10
1.6301216202e-09
3.78165670198e-10
5.39556171562e-10
5.67302486338e-09
4.43943229553e-09
5.73685191567e-09
3.66158246621e-09
2.49070942673e-09
7.48105052432e-09
6.27752111326e-09
4.25141661304e-09
1.05234256129e-09
3.98808579209e-09
2.19992593745e-09
4.28716655232e-09
6.78090913627e-09
1.82686458482e-09
3.92779708666e-09
3.16609038668e-09
4.85671421234e-09
4.30686804043e-09
8.01577950305e-09
4.50744648053e-10
5.78067807264e-10
3.35319347148e-09
2.69580700904e-09
3.28566497624e-09
1.94337947692e-09
3.20428336604e-09
2.66987128198e-10
2.11418957159e-09
1.62588162724e-09
6.53537077399e-10
1.59362072e-09
8.18557191248e-10
4.84164564701e-10
1.06810533034e-09
1.2268863964e-09
1.6298248106e-09
2.43825831946e-09
4.60342572779e-10
2.42710528579e-09
9.80175769032e-10
7.30106933015e-10
7.17218279714e-10
2.96577159409e-10
3.13665610283e-10
7.44131254534e-10
8.46712022738e-10
9.8577852264e-10
2.13661566767e-09
5.6620367197e-10
3.47788682799e-10
1.48016773198e-09
2.14382109247e-09
1.24993601422e-09
3.23548964816e-09
4.28319867347e-10
2.39099107843e-09
3.83668656169e-10
3.77638294406e-09
3.26241688387e-10
4.49445550194e-09
1.91159234474e-11
1.11005365328e-11
1.26391092035e-09
3.39733307608e-10
6.55185179104e-09
1.48679266646e-10
5.9170579573e-09
2.60615087025e-09
6.4923457097e-09
3.28131820582e-09
5.98371483987e-09
2.63428257317e-09
3.79660349321e-09
2.48849391121e-08
2.52304288365e-08
4.48093961481e-08
4.4293072913e-08
1.1690332187e-08
6.628717742e-08
3.43174090601e-08
2.5396008981e-08
6.86525294907e-08
5.03109554127e-08
5.15322898388e-08
4.84666575199e-08
4.52228880917e-08
1.26481386064e-08
1.12434261139e-09
1.01478671898e-08
1.71277608282e-08
4.04997917002e-08
2.76118672862e-08
8.67891616151e-08
5.43749343786e-08
6.22099575472e-09
3.02569799249e-08
5.44251079164e-08
2.93420041293e-08
8.82270204458e-08
7.28292920255e-08
5.58479224253e-08
5.75782397845e-08
4.44189281055e-08
4.24298380155e-08
1.27488037016e-08
6.15808456917e-09
2.88945048445e-09
1.70426623317e-08
4.93661803203e-09
1.0749499997e-09
1.65863733725e-09
2.19589250762e-09
4.38363787632e-10
6.77105690377e-09
6.20847432628e-09
1.44869250267e-09
4.26271599217e-09
4.19747114908e-09
5.07083649213e-09
8.60949961209e-09
8.82299065278e-10
1.03084694709e-08
2.78725455103e-09
1.06247982851e-08
6.70917992799e-09
7.13637085217e-09
8.66866658333e-09
5.41291509631e-09
6.70455178574e-09
3.16086652113e-09
3.40343898755e-09
1.3592045371e-08
9.43607332862e-09
1.49179540836e-09
2.71484672259e-09
9.67704931114e-10
4.05245668629e-10
5.64265634016e-09
1.45291300515e-09
8.59192493417e-09
6.71658876306e-11
7.63536897206e-09
3.22869133815e-10
7.59729025542e-09
1.76154064366e-09
1.78739927479e-08
4.32241681033e-09
2.21474906567e-08
1.00403829155e-08
2.20531726713e-08
1.27786522058e-08
1.83110072347e-08
8.66784920366e-09
1.16340023484e-08
1.44427229423e-08
1.32649711889e-08
1.27641324889e-08
8.50428786429e-09
7.63420932138e-09
5.26633541935e-09
2.93962557034e-09
3.98518321376e-09
5.23729211606e-09
1.50107753524e-09
3.52512822359e-09
3.14160915952e-09
1.49809338535e-09
1.52391575272e-09
2.75470574017e-09
3.59136341916e-10
1.31727457982e-09
4.72297808539e-09
3.85407267161e-09
1.55150620485e-10
7.52457893721e-09
2.99915678972e-09
8.38674296322e-09
4.77485318249e-09
6.08923026865e-09
5.80716786369e-09
7.73275254606e-09
2.2276210165e-09
7.52606758224e-09
6.62563667029e-09
6.51433589729e-09
5.75563081937e-09
4.78835181057e-09
5.41271164395e-09
3.41182022751e-09
2.44519647373e-09
1.42666407135e-09
8.99644945178e-10
7.57403283968e-10
1.59182395967e-09
1.47385760304e-09
1.79790171273e-09
3.85400902053e-10
3.46502127791e-10
4.48798334067e-10
1.63095649954e-09
1.79971862087e-09
1.09380695859e-09
2.29331711324e-10
7.77458585501e-10
5.57255403455e-10
1.44675343164e-09
4.58341170001e-11
3.62539735545e-09
3.49676530283e-10
1.30728414235e-09
2.20081430844e-10
1.12988350446e-09
4.18270910144e-10
9.26827999408e-10
1.8209848518e-09
2.43264950773e-09
4.19934223416e-11
2.05626870733e-09
3.9920271522e-09
7.43947914313e-10
2.38687329061e-09
2.05059751842e-09
6.29529702226e-10
3.2189549461e-09
5.79318321302e-10
1.11846147473e-09
2.83401843708e-09
2.02019222e-09
1.26404013837e-09
2.95881228265e-09
9.66849529624e-10
3.29117582534e-09
6.7422649211e-10
3.2194492058e-09
3.05210601247e-10
6.65055313874e-10
2.63654289458e-09
1.09626924031e-09
8.2350547885e-10
1.89231800059e-09
1.74086450052e-09
1.59444770035e-09
3.62793335986e-09
1.21908859381e-09
3.58910041455e-09
2.84452178337e-10
2.37648743954e-09
1.85468417466e-09
3.44797836957e-09
2.00226082933e-09
2.42876418363e-10
1.54420842611e-09
2.69099372878e-11
9.97911656099e-10
2.21440148178e-09
3.2996828514e-09
8.40214140217e-10
2.01221053144e-09
1.85794993121e-09
3.63563777246e-10
1.44780600611e-09
3.60617310329e-09
1.95366656065e-09
2.17229939679e-09
1.36568828072e-09
1.59971507281e-09
9.47194197717e-10
2.26173254686e-09
4.42703363494e-09
1.10443655647e-09
3.27724039782e-09
8.58542968109e-11
4.52123987659e-09
1.31742978376e-09
1.25833668951e-09
4.75670215704e-10
2.21817739818e-09
1.32676431139e-09
1.60841321681e-10
3.07295103401e-09
8.80048753903e-10
2.72962336313e-09
1.52413429423e-09
3.03852826245e-09
1.44427069902e-09
8.95344065891e-11
1.18586510156e-09
5.65741559884e-10
6.32096923468e-10
1.62751678762e-09
1.52601755125e-09
3.54252227302e-09
3.18794028225e-09
3.26040612709e-09
1.32419999407e-09
1.56377949546e-09
2.96887610153e-10
1.48066920296e-10
5.38702974067e-09
3.58344886975e-09
5.14667170926e-09
2.3909342753e-09
3.86029935623e-09
1.46546943818e-10
2.39911127435e-10
1.97049910666e-09
4.03654689826e-09