# vtk DataFile Version 3.0
File Name: Molecule/methanol/methanol_5.0-0.vtk
ASCII
DATASET UNSTRUCTURED_GRID
FIELD FieldData 1
TIME 1 1 double
0.0
POINTS 240 double
1.6131242514 0.0013011090923 -0.35366258025
1.5153114796 -0.46468755603 -0.42291510105
1.3960969448 -0.0010349630611 -0.94770824909
1.3424230814 -0.4429499805 -0.91588389874
1.1884461641 -0.84167444706 -0.83439391851
1.3416198492 -0.89770299196 -0.35859826207
1.0273383856 -1.2510681152 -0.35742539167
0.89399176836 -1.1666001081 -0.83612287045
0.63359153271 -1.5212184191 -0.28932628036
0.51912820339 -1.3978182077 -0.83154052496
0.097608976066 -1.5237345695 -0.78894889355
0.18357664347 -1.6754119396 -0.17385311425
-0.30725312233 -1.6633571386 -0.18416599929
-0.33484205604 -1.5303323269 -0.72694170475
-0.76399302483 -1.5231448412 -0.15785701573
-0.76850169897 -1.4024722576 -0.6777356267
-1.1606963873 -1.2733235359 -0.092038437724
-1.1290997267 -1.1594848633 -0.66970586777
-1.464430213 -0.91555207968 -0.089590847492
-1.4159736633 -0.83253121376 -0.62053316832
-1.6645873785 -0.47550928593 -0.08187559247
-1.5894485712 -0.43252959847 -0.63376200199
-1.6571595669 -0.00058416818501 -0.60790526867
-1.7387936115 -0.0014483920531 -0.042052086443
-1.6668391228 0.46525266767 -0.081140294671
-1.5887202024 0.43435192108 -0.63410627842
-1.4171636105 0.8386053443 -0.60759210587
-1.4726895094 0.90718221664 -0.071277230978
-1.1641427279 1.2578752041 -0.13201548159
-1.125087142 1.1600959301 -0.67905801535
-0.7606690526 1.4040683508 -0.69251400232
-0.76604866982 1.5270382166 -0.1334002018
-0.31436806917 1.6561697721 -0.2046521157
-0.33841452003 1.5250304937 -0.74219155312
0.10009254515 1.5332444906 -0.75719797611
0.16437767446 1.6669994593 -0.21852847934
0.62557697296 1.5314929485 -0.27138206363
0.5230011344 1.4044958353 -0.80767977238
1.028975606 1.2730046511 -0.30861476064
0.8960904479 1.1656023264 -0.83239018917
1.3470789194 0.90873587132 -0.33151137829
1.1785669327 0.84545499086 -0.8488073945
1.512458086 0.47738355398 -0.42737674713
1.3439587355 0.44090420008 -0.91637992859
1.9070003033 -1.321830041e-07 0.65591418743
1.8504799604 0.45756581426 0.65593862534
1.850486517 0.2290777415 1.0516626835
1.8504753113 -0.2284271419 1.0520845652
1.8504773378 -0.45761045814 0.65597873926
1.8503525257 -0.2285118252 0.25730910897
1.8503861427 0.22854886949 0.25698763132
1.6929414272 0.75371944904 1.0927203894
1.6855051517 0.44155499339 1.4221709967
1.6934307814 -0.0053717512637 1.5263559818
1.6866688728 -0.43817073107 1.4227129221
1.6916162968 -0.75685584545 1.093441844
1.6863504648 -0.88339716196 0.65595799685
1.6944220066 -0.75704318285 0.23292630911
1.6832036972 -0.45722049475 -0.10642920434
1.6884803772 0.4452919662 -0.10302645713
1.6914819479 0.75596833229 0.21572463214
1.6855248213 0.8844627142 0.65576583147
1.4343656301 1.1633303165 1.1094065905
1.4342520237 0.92124062777 1.4990624189
1.4247976542 0.56804138422 1.7794536352
1.4318779707 0.11734684557 1.9017868042
1.4357933998 -0.34717845917 1.8532845974
1.4321064949 -0.75802534819 1.6504303217
1.4258793592 -1.0684479475 1.3207963705
1.4325580597 -1.2291976213 0.88663822412
1.4325793982 -1.2293007374 0.42599838972
1.4322291613 -1.064784646 -7.5809191912e-05
1.4316929579 1.1621611118 0.18571166694
1.4249259233 1.2587398291 0.65447229147
1.0927526951 1.482019186 1.1146683693
1.0936139822 1.2797480822 1.5320808887
1.0928875208 0.96545952559 1.8709728718
1.0904980898 0.56543713808 2.1031925678
1.0819550753 0.12376853079 2.2102286816
1.0917913914 -0.33592665195 2.1713352203
1.0916558504 -0.77499556541 2.0015950203
1.0953210592 -1.1411122084 1.7051174641
1.0920553207 -1.4024621248 1.3220345974
1.0889766216 -1.5380642414 0.88057094812
1.0813894272 -1.5421280861 0.4219314158
1.090131402 -1.4061441422 0.00089395046234
1.0916688442 1.4809519053 0.18601155281
1.0811110735 1.5587027073 0.65413576365
0.69014853239 1.7035591602 1.1134964228
0.69175153971 1.5248297453 1.540002346
0.69246822596 1.2429994345 1.9059979916
0.69206696749 0.87543785572 2.1854064465
0.69115144014 0.44844952226 2.3605687618
0.6887152791 -0.0090535180643 2.4191007614
0.68740874529 -0.46538248658 2.3573844433
0.67668890953 -0.88721132278 2.1853542328
0.68611186743 -1.2467547655 1.9061542749
0.68763899803 -1.5270240307 1.5398907661
0.68866062164 -1.7044228315 1.1131229401
0.68870162964 -1.7646961212 0.65575355291
0.6843367219 -1.7034442425 0.18427307904
0.69723528624 1.7023881674 0.20737668872
0.6771645546 1.7679082155 0.65599602461
0.24792443216 1.814601779 1.1222190857
0.24521994591 1.6432462931 1.5555237532
0.2457485944 1.3679323196 1.9357738495
0.24619658291 1.0063548088 2.2363700867
0.24655100703 0.58148908615 2.4370820522
0.24681015313 0.12030168623 2.5257649422
0.24704647064 -0.34894648194 2.4963083267
0.24659454823 -0.79621136189 2.3517727852
0.2470549196 -1.1926996708 2.099984169
0.2474821955 -1.5152264833 1.7578781843
0.24771240354 -1.7416228056 1.3456509113
0.24780365825 -1.8588452339 0.89035665989
0.2532209754 -1.8581943512 0.42129734159
0.25751137733 1.8135168552 0.19237436354
0.23540116847 1.874561429 0.65543276072
-0.20583866537 1.8159251213 1.1186180115
-0.21053701639 1.6414692402 1.5581640005
-0.21130523086 1.3647614717 1.9385766983
-0.21195593476 1.0022888184 2.2383844852
-0.2125993073 0.57676893473 2.4380066395
-0.21320684254 0.11518372595 2.5253949165
-0.21377082169 -0.35407552123 2.4945263863
-0.21487477422 -0.80156081915 2.3483743668
-0.21514810622 -1.1972765923 2.095092535
-0.21510252357 -1.5185170174 1.7518057823
-0.2152081728 -1.7432887554 1.3386964798
-0.22395710647 -1.8567607403 0.88906782866
-0.21255254745 -1.8573243618 0.40177854896
-0.20501750708 1.8163621426 0.1973311156
-0.21022419631 1.8738772869 0.65622901917
-0.64020580053 1.7675364017 0.65566885471
-0.65147250891 1.7039293051 1.1133400202
-0.65358066559 1.5249700546 1.5399167538
-0.65448182821 1.2430523634 1.905944705
-0.65431946516 0.87540829182 2.1853060722
-0.6539452672 0.44825130701 2.3602998257
-0.6517111659 -0.0094093959779 2.4186980724
-0.64953285456 -0.46572038531 2.3572146893
-0.63922637701 -0.88754552603 2.1849329472
-0.64804404974 -1.2469114065 1.9060356617
-0.64974951744 -1.5269939899 1.5398503542
-0.65147930384 -1.7040888071 1.1131293774
-0.65187335014 -1.7642672062 0.65526407957
-0.64235442877 -1.7088474035 0.2077254355
-0.65162527561 1.7047762871 0.20256175101
-1.0429651737 1.5586354733 0.65557944775
-1.0547142029 1.4820649624 1.1146124601
-1.0557203293 1.2796467543 1.5320847034
-1.0555440187 0.9649065733 1.870808959
-1.0532302856 0.56494861841 2.1028242111
-1.0439829826 0.12321797013 2.2102856636
-1.0530905724 -0.33603203297 2.1718418598
-1.0525724888 -0.77518045902 2.0023500919
-1.0574227571 -1.1409024 1.7052401304
-1.0544481277 -1.4021203518 1.322096467
-1.0511722565 -1.5378619432 0.88048273325
-1.0453279018 -1.5379619598 0.39637765288
-1.0576528311 1.4812524319 0.20433315635
-1.3861395121 1.2596555948 0.65568953753
-1.3963007927 1.1634145975 1.1093759537
-1.3964234591 0.92111599445 1.4989031553
-1.3871946335 0.56776529551 1.7791391611
-1.3926821947 0.11751256883 1.9031014442
-1.3977392912 -0.34682202339 1.8534542322
-1.3943816423 -0.75789576769 1.6501430273
-1.3878388405 -1.0686527491 1.3205376863
-1.3972405195 -1.2240226269 0.89468115568
-1.3969566822 -1.2256654501 0.4140650034
-1.3986296654 1.1632131338 0.21404282749
-1.6469614506 0.8855214119 0.65595012903
-1.6553146839 0.75320315361 1.092189908
-1.6471168995 0.44184112549 1.4227737188
-1.6555742025 -0.0054819779471 1.5260822773
-1.6489078999 -0.43823513389 1.4221557379
-1.6533713341 -0.75688886642 1.0939173698
-1.6486228704 -0.88303363323 0.65589290857
-1.6573113203 -0.75405102968 0.24309700727
-1.6577923298 0.75018143654 0.23437614739
-1.8123191595 0.45815876126 0.65632194281
-1.8122363091 0.22924055159 1.0524984598
-1.8122632504 -0.22876551747 1.0526756048
-1.8123430014 -0.45806077123 0.65663218498
-1.8134920597 -0.23138648272 0.26832213998
-1.8136650324 0.23070831597 0.26854982972
-1.8679664135 -5.1522138165e-06 0.65689575672
1.109593153 -0.78768420219 -1.1998735666
0.77954918146 -1.1461907625 -1.2174553871
0.78710502386 -0.88015532494 -1.6087398529
1.1310127974 -0.45650872588 -1.5032198429
0.78359407187 -0.47439208627 -1.8846960068
1.1202725172 -0.00077003316255 -1.6411141157
0.77642029524 0.0049271564931 -1.9832265377
0.78337681293 0.47356846929 -1.8851311207
1.1313693523 0.45691940188 -1.5020821095
0.78521609306 0.87534207106 -1.6151542664
1.1095229387 0.78813761473 -1.1992627382
0.7732104063 1.146938324 -1.223377943
0.36012479663 -1.2890502214 -1.4208097458
0.35422325134 -0.98452204466 -1.8151205778
0.34568434954 -0.58314967155 -2.0780022144
0.35375380516 -0.1239861846 -2.1919469833
0.35575249791 0.35472869873 -2.1524651051
0.35666722059 0.7956186533 -1.9597308636
0.35660248995 1.1504225731 -1.6349322796
0.34701400995 1.3810716867 -1.2153594494
-0.12476290762 -1.3978390694 -1.3720464706
-0.11975166202 -1.1303211451 -1.7745643854
-0.12038260698 -0.77123707533 -2.06422925
-0.12034457922 -0.3442658186 -2.2333781719
-0.11995763332 0.11528015137 -2.2678911686
-0.11984474212 0.56359124184 -2.1648211479
-0.11975587159 0.96065151691 -1.9336024523
-0.11968390644 1.272531867 -1.5945676565
-0.11989863962 1.4736710787 -1.1736950874
-0.59339118004 -1.4259607792 -1.0127687454
-0.59494882822 -1.2779601812 -1.4404644966
-0.59258264303 -0.98358547688 -1.8159381151
-0.58444297314 -0.58316749334 -2.0780625343
-0.59310436249 -0.12396177649 -2.191829443
-0.59495317936 0.35479789972 -2.1523866653
-0.59559625387 0.79578661919 -1.959659338
-0.59554290771 1.1506111622 -1.6347346306
-0.58739691973 1.3857586384 -1.2053252459
-1.0187489986 -1.1565710306 -1.1983470917
-1.0256330967 -0.88031476736 -1.6085288525
-1.0213142633 -0.47457012534 -1.885569334
-1.0162932873 0.0047178026289 -1.9829002619
-1.0224298239 0.47356593609 -1.8850662708
-1.0242578983 0.87497621775 -1.6155196428
-1.0185910463 1.1519731283 -1.2072528601
-1.3683133125 -0.78348839283 -1.170042038
-1.358576417 -0.45656037331 -1.5206305981
-1.3630998135 -0.00040199107025 -1.6374320984
-1.3581717014 0.45626673102 -1.5216040611
-1.3684315681 0.78421866894 -1.1697353125
-1.5808213949 -0.24034269154 -1.144687295
-1.5808502436 0.24020013213 -1.1446912289

CELLS 476 1904
3 0 1 2
3 2 1 3
3 3 1 4
3 5 4 1
3 5 6 4
3 4 6 7
3 6 8 7
3 7 8 9
3 9 8 10
3 11 10 8
3 11 12 10
3 10 12 13
3 12 14 13
3 13 14 15
3 14 16 15
3 15 16 17
3 16 18 17
3 17 18 19
3 18 20 19
3 19 20 21
3 21 20 22
3 23 22 20
3 23 24 22
3 22 24 25
3 25 24 26
3 27 26 24
3 27 28 26
3 26 28 29
3 29 28 30
3 31 30 28
3 31 32 30
3 30 32 33
3 33 32 34
3 35 34 32
3 35 36 34
3 34 36 37
3 36 38 37
3 37 38 39
3 38 40 39
3 39 40 41
3 40 42 41
3 41 42 43
3 0 2 42
3 43 42 2
3 44 45 46
3 44 46 47
3 44 47 48
3 44 48 49
3 44 49 50
3 44 50 45
3 46 45 51
3 46 51 52
3 46 52 53
3 47 46 53
3 47 53 54
3 47 54 55
3 48 47 55
3 48 55 56
3 48 56 57
3 49 48 57
3 49 57 58
3 50 59 60
3 45 50 60
3 45 60 61
3 45 61 51
3 51 61 62
3 51 62 63
3 52 51 63
3 52 63 64
3 52 64 65
3 53 52 65
3 53 65 66
3 54 53 66
3 54 66 67
3 55 54 67
3 55 67 68
3 55 68 69
3 56 55 69
3 56 69 70
3 57 56 70
3 57 70 71
3 61 60 72
3 61 72 73
3 61 73 62
3 62 73 74
3 62 74 75
3 63 62 75
3 63 75 76
3 64 63 76
3 64 76 77
3 65 64 77
3 65 77 78
3 65 78 79
3 66 65 79
3 66 79 80
3 67 66 80
3 67 80 81
3 68 67 81
3 68 81 82
3 69 68 82
3 69 82 83
3 69 83 70
3 84 70 83
3 70 84 85
3 71 70 85
3 73 72 86
3 73 86 87
3 73 87 74
3 74 87 88
3 74 88 89
3 75 74 89
3 75 89 90
3 76 75 90
3 76 90 91
3 77 76 91
3 77 91 92
3 78 77 92
3 78 92 93
3 79 78 93
3 79 93 94
3 80 79 94
3 80 94 95
3 80 95 96
3 81 80 96
3 81 96 97
3 82 81 97
3 82 97 98
3 83 82 98
3 83 98 99
3 84 83 99
3 84 99 100
3 85 84 100
3 87 86 101
3 87 101 102
3 87 102 88
3 88 102 103
3 88 103 104
3 89 88 104
3 89 104 105
3 90 89 105
3 90 105 106
3 91 90 106
3 91 106 107
3 92 91 107
3 92 107 108
3 93 92 108
3 93 108 109
3 94 93 109
3 94 109 110
3 95 94 110
3 95 110 111
3 96 95 111
3 96 111 112
3 97 96 112
3 97 112 113
3 98 97 113
3 98 113 114
3 99 98 114
3 99 114 115
3 100 99 115
3 102 101 116
3 102 116 117
3 102 117 103
3 103 117 118
3 103 118 104
3 119 104 118
3 104 119 105
3 120 105 119
3 105 120 106
3 121 106 120
3 106 121 107
3 122 107 121
3 107 122 108
3 123 108 122
3 108 123 109
3 124 109 123
3 109 124 110
3 125 110 124
3 110 125 111
3 126 111 125
3 111 126 112
3 127 112 126
3 112 127 113
3 128 113 127
3 113 128 114
3 129 114 128
3 130 115 129
3 114 129 115
3 117 116 131
3 117 131 132
3 117 132 118
3 118 132 133
3 118 133 134
3 119 118 134
3 119 134 135
3 120 119 135
3 120 135 136
3 121 120 136
3 121 136 137
3 122 121 137
3 122 137 138
3 123 122 138
3 123 138 139
3 124 123 139
3 124 139 140
3 125 124 140
3 125 140 141
3 126 125 141
3 126 141 142
3 127 126 142
3 127 142 143
3 128 127 143
3 128 143 144
3 129 128 144
3 129 144 145
3 130 129 145
3 130 145 146
3 133 131 147
3 132 131 133
3 134 133 148
3 134 148 149
3 135 134 149
3 135 149 150
3 136 135 150
3 136 150 151
3 137 136 151
3 137 151 152
3 138 137 152
3 138 152 153
3 139 138 153
3 139 153 154
3 140 139 154
3 140 154 155
3 141 140 155
3 142 141 155
3 142 155 156
3 143 142 156
3 143 156 157
3 144 143 157
3 144 157 158
3 145 144 158
3 145 158 159
3 146 145 159
3 148 147 160
3 133 147 148
3 149 148 161
3 149 161 162
3 150 149 162
3 150 162 163
3 151 150 163
3 151 163 164
3 152 151 164
3 152 164 165
3 153 152 165
3 154 153 165
3 154 165 166
3 155 154 166
3 155 166 167
3 156 155 167
3 156 167 168
3 157 156 168
3 157 168 169
3 158 157 169
3 158 169 170
3 159 158 170
3 161 160 171
3 148 160 161
3 162 161 172
3 162 172 173
3 163 162 173
3 163 173 174
3 164 163 174
3 165 164 174
3 165 174 175
3 166 165 175
3 166 175 176
3 167 166 176
3 167 176 177
3 168 167 177
3 169 168 177
3 169 177 178
3 170 169 178
3 170 178 179
3 172 171 180
3 161 171 172
3 173 172 181
3 173 181 182
3 174 173 182
3 175 174 182
3 175 182 183
3 176 175 183
3 177 176 183
3 177 183 184
3 178 177 184
3 179 178 184
3 179 184 185
3 181 180 186
3 172 180 181
3 182 181 187
3 183 182 187
3 184 183 187
3 185 184 187
3 186 185 187
3 181 186 187
3 186 180 24
3 186 24 23
3 186 23 185
3 185 23 20
3 185 20 179
3 179 20 18
3 179 18 170
3 170 18 16
3 170 16 159
3 159 16 14
3 159 14 146
3 146 14 12
3 146 12 130
3 130 12 11
3 130 11 115
3 115 11 100
3 100 11 8
3 100 8 85
3 85 8 6
3 85 6 71
3 71 6 5
3 71 5 58
3 71 58 57
3 58 5 1
3 58 1 0
3 58 0 49
3 49 0 50
3 50 0 59
3 59 0 42
3 59 42 40
3 59 40 60
3 60 40 72
3 72 40 38
3 72 38 86
3 86 38 36
3 86 36 101
3 101 36 116
3 116 36 35
3 116 35 131
3 131 35 32
3 131 32 147
3 147 32 31
3 147 31 160
3 160 31 28
3 160 28 171
3 171 28 27
3 171 27 180
3 180 27 24
3 188 189 190
3 191 188 190
3 191 190 192
3 193 191 192
3 193 192 194
3 193 194 195
3 196 193 195
3 196 195 197
3 198 196 197
3 198 197 199
3 190 189 200
3 190 200 201
3 192 190 201
3 192 201 202
3 192 202 203
3 194 192 203
3 194 203 204
3 195 194 204
3 195 204 205
3 197 195 205
3 197 205 206
3 199 197 206
3 199 206 207
3 200 208 209
3 201 200 209
3 201 209 210
3 202 201 210
3 202 210 211
3 203 202 211
3 203 211 212
3 204 203 212
3 204 212 213
3 205 204 213
3 205 213 214
3 206 205 214
3 206 214 215
3 207 206 215
3 207 215 216
3 208 217 218
3 209 208 218
3 209 218 219
3 210 209 219
3 210 219 220
3 211 210 220
3 211 220 221
3 212 211 221
3 212 221 222
3 213 212 222
3 213 222 223
3 214 213 223
3 214 223 224
3 215 214 224
3 215 224 225
3 216 215 225
3 218 217 226
3 218 226 227
3 219 218 227
3 219 227 228
3 220 219 228
3 221 220 228
3 221 228 229
3 222 221 229
3 222 229 230
3 223 222 230
3 223 230 231
3 224 223 231
3 224 231 232
3 225 224 232
3 227 226 233
3 227 233 234
3 228 227 234
3 228 234 235
3 229 228 235
3 230 229 235
3 230 235 236
3 231 230 236
3 231 236 237
3 232 231 237
3 234 233 238
3 235 234 238
3 235 238 239
3 236 235 239
3 237 236 239
3 237 239 25
3 237 25 26
3 237 26 29
3 237 29 232
3 232 29 30
3 232 30 225
3 225 30 33
3 225 33 216
3 216 33 34
3 216 34 207
3 207 34 37
3 207 37 199
3 199 37 39
3 41 198 39
3 199 39 198
3 198 41 43
3 198 43 196
3 196 43 2
3 196 2 193
3 193 2 191
3 191 2 3
3 191 3 188
3 188 3 4
3 188 4 7
3 188 7 189
3 189 7 9
3 189 9 200
3 200 9 10
3 200 10 208
3 208 10 13
3 208 13 217
3 217 13 15
3 217 15 226
3 226 15 17
3 226 17 233
3 233 17 19
3 233 19 21
3 233 21 238
3 238 21 22
3 238 22 239
3 239 22 25

CELL_TYPES 476
5
5
5
5
5
5
5
5
5
5
5
5
5
5
5
5
5
5
5
5
5
5
5
5
5
5
5
5
5
5
5
5
5
5
5
5
5
5
5
5
5
5
5
5
5
5
5
5
5
5
5
5
5
5
5
5
5
5
5
5
5
5
5
5
5
5
5
5
5
5
5
5
5
5
5
5
5
5
5
5
5
5
5
5
5
5
5
5
5
5
5
5
5
5
5
5
5
5
5
5
5
5
5
5
5
5
5
5
5
5
5
5
5
5
5
5
5
5
5
5
5
5
5
5
5
5
5
5
5
5
5
5
5
5
5
5
5
5
5
5
5
5
5
5
5
5
5
5
5
5
5
5
5
5
5
5
5
5
5
5
5
5
5
5
5
5
5
5
5
5
5
5
5
5
5
5
5
5
5
5
5
5
5
5
5
5
5
5
5
5
5
5
5
5
5
5
5
5
5
5
5
5
5
5
5
5
5
5
5
5
5
5
5
5
5
5
5
5
5
5
5
5
5
5
5
5
5
5
5
5
5
5
5
5
5
5
5
5
5
5
5
5
5
5
5
5
5
5
5
5
5
5
5
5
5
5
5
5
5
5
5
5
5
5
5
5
5
5
5
5
5
5
5
5
5
5
5
5
5
5
5
5
5
5
5
5
5
5
5
5
5
5
5
5
5
5
5
5
5
5
5
5
5
5
5
5
5
5
5
5
5
5
5
5
5
5
5
5
5
5
5
5
5
5
5
5
5
5
5
5
5
5
5
5
5
5
5
5
5
5
5
5
5
5
5
5
5
5
5
5
5
5
5
5
5
5
5
5
5
5
5
5
5
5
5
5
5
5
5
5
5
5
5
5
5
5
5
5
5
5
5
5
5
5
5
5
5
5
5
5
5
5
5
5
5
5
5
5
5
5
5
5
5
5
5
5
5
5
5
5
5
5
5
5
5
5
5
5
5
5
5
5
5
5
5
5
5
5
5
5
5
5
5
5
5
5
5
5
5
5
5
5
5
5
5
5
5
5
5
5
5
5
5
5
5
5
5
5
5
5
5
5
5
5
5
5
5
5
5
5
5
5
5
5
5
5

CELL_DATA 476
SCALARS cell_data_0 double
LOOKUP_TABLE default
1.24738689071e-06
1.18314168973e-06
5.32833465536e-07
7.54603253279e-08
9.32706750304e-08
1.73796766212e-07
1.17733349348e-08
1.78262269428e-09
9.31398987108e-08
1.00292910846e-07
2.3253542264e-08
6.48352680758e-08
9.72810713623e-09
6.97135263372e-08
1.97259802341e-08
9.12157747039e-08
1.6101810777e-08
6.35543198152e-08
2.08026354381e-08
5.79175493258e-08
5.07784549075e-08
4.97686099958e-08
4.88037504836e-08
6.01675493501e-08
2.30156637528e-08
3.18624423976e-08
5.25926734516e-08
4.59218722612e-08
1.64551794213e-08
1.27391823799e-08
7.44963299457e-08
1.58834235579e-08
1.44861185318e-08
1.64391891563e-08
8.6259524325e-08
3.20453428525e-08
6.58263053634e-08
5.94265759939e-08
2.99560183838e-08
7.50640092884e-08
5.08748088398e-08
5.69647972709e-07
1.29028882684e-06
2.00882690048e-06
1.55350895908e-09
1.6807732465e-09
2.01957057307e-09
1.44998423855e-09
9.49078379279e-09
1.53845720487e-09
4.4987737512e-10
3.93408996298e-10
5.55980798197e-10
5.54206780806e-11
3.37710792077e-10
7.63020220607e-10
1.02696223046e-09
5.88216576144e-10
1.37512831263e-09
3.09530044791e-09
1.0206652019e-08
8.38057640345e-09
6.73204536009e-09
1.57756246208e-09
1.42729863403e-09
1.19693168786e-10
4.227996107e-10
3.05831157725e-10
5.20182762992e-10
1.99666780146e-10
3.89729095826e-10
2.77334555237e-10
6.02186928568e-10
2.19581008142e-10
5.96634832886e-10
4.17988867846e-10
8.65145723989e-11
1.75046249741e-10
2.71149337625e-09
5.96272597991e-09
5.97277978339e-09
2.52456185549e-09
2.8367306322e-09
1.09677009119e-09
2.32853970557e-10
1.32142104054e-11
3.81959460386e-11
1.87462474029e-10
1.35019083564e-10
6.482061047e-11
4.98643087008e-13
1.46563258169e-10
2.77435966388e-11
1.27435404388e-10
3.31064348829e-10
1.69472882299e-10
3.81854941941e-10
3.04168277797e-11
1.40611344706e-10
5.31352374175e-10
6.45219157499e-10
3.36261827628e-10
1.72910457386e-09
4.3624667538e-09
5.99287923021e-09
4.41197661048e-10
5.8745139451e-10
1.03947581471e-09
2.80490846773e-10
5.15587286879e-11
7.19824857162e-13
4.31070937069e-11
1.40128636675e-10
1.89711381918e-10
1.4055395922e-10
1.36704773033e-10
8.35759558418e-11
1.053844072e-10
9.12145553056e-11
2.66862330403e-10
1.37343345271e-10
2.75375068694e-10
1.05534405493e-10
3.56392005611e-10
1.12099041715e-10
3.42843489705e-10
7.38870619669e-12
4.53781349614e-10
2.10218046244e-10
1.81302052806e-09
1.75836537977e-09
7.58399063411e-10
1.22739967482e-09
6.78060700905e-10
1.0074309611e-09
1.58610315645e-10
4.15676922238e-10
1.09469742259e-10
2.72374242388e-10
1.44662604902e-10
1.50693380849e-10
1.25522134013e-10
1.89946298366e-10
1.91632350081e-10
2.15346643063e-10
4.7793824094e-11
7.08983192094e-10
2.95854140784e-10
4.54891694723e-10
2.7357041401e-11
3.5387791349e-10
6.02762854435e-11
1.46391765194e-10
3.44309695703e-11
1.63609454926e-12
3.775316783e-10
4.23494844611e-10
6.43014718495e-10
9.16729779053e-10
9.9572864009e-10
3.35490506415e-09
5.37168710339e-10
1.45955950769e-09
5.54773859459e-11
8.21876917037e-10
9.38062320567e-10
4.94361730145e-10
4.88556063481e-10
2.06211967569e-10
2.37033961399e-10
1.44911203882e-10
9.12665070806e-11
6.49750630589e-11
1.74003470516e-11
3.65091726256e-10
1.49673187832e-10
2.68159054055e-10
2.43438256448e-11
8.17307752953e-11
3.88764858952e-11
1.13474315473e-10
1.2796263994e-10
1.17733575073e-10
2.90406811316e-10
6.66199552413e-11
6.15895912959e-10
7.85295860705e-10
6.11983223132e-10
5.31678006526e-09
3.20020668744e-10
1.8637714458e-09
3.40238962756e-09
2.14436721089e-10
1.25334745502e-09
3.29664231163e-11
6.10651265366e-10
5.63631422399e-11
3.90096081393e-10
5.0981081442e-11
2.24569582261e-10
3.69535929655e-11
2.21490132649e-10
3.3168087202e-11
1.59649789574e-10
1.27205986539e-10
1.99132032288e-10
2.70775391637e-10
3.84309625017e-11
9.30829882189e-11
2.7450310413e-11
1.01864476939e-10
1.14680646381e-10
2.96757114188e-10
5.62311625995e-11
2.06714017701e-09
1.25378866707e-09
2.51564982607e-09
3.44708929597e-09
2.3068395223e-10
3.77552806637e-09
6.80730314527e-10
1.30213803521e-09
1.38614090849e-10
6.84262779045e-10
9.82229093612e-11
2.57461273337e-10
5.14183270546e-11
2.34177188803e-10
3.0671080427e-10
4.92171105168e-11
2.10168518582e-10
2.97316572381e-11
3.09178308387e-10
2.95658524009e-10
6.03800301847e-11
1.95756477616e-10
2.36725143571e-10
3.27555437884e-10
1.78348987737e-11
1.25191536435e-09
3.59049883843e-10
2.94488788665e-09
5.95839060676e-10
5.53379635004e-09
6.70609799476e-11
4.32135415284e-09
7.39218650667e-10
1.39315722278e-09
3.54733367943e-11
5.03595201051e-10
1.57639959235e-10
3.34458709946e-10
3.85279091778e-10
1.77056748462e-11
9.96487517054e-11
4.09512492162e-10
2.21724007225e-10
3.12179808712e-10
4.35497964974e-10
4.75941929114e-11
6.27834268648e-10
3.41514119871e-10
1.72497157566e-09
1.67996843374e-09
5.12145690839e-09
7.70315377322e-09
7.79009029304e-10
4.48711332412e-09
9.00905484359e-10
1.31458017537e-09
3.08711025859e-11
4.94939345221e-10
1.91547020128e-11
1.27027280481e-09
5.1116530392e-10
7.81478416468e-10
6.67849157497e-10
8.97128418371e-10
1.75210009738e-09
4.20963256899e-10
2.81956925218e-09
4.11995255264e-10
5.87831411492e-09
9.20464033601e-09
1.82239199148e-09
4.29140386684e-09
8.34854178482e-10
1.07390669339e-09
3.37387448126e-10
2.74410997851e-09
1.29684455259e-09
1.14127345569e-09
8.20343168657e-10
2.20627426894e-09
8.20141933381e-09
4.88316148999e-09
1.00010741209e-08
2.31316941431e-09
3.65000857904e-09
1.60364630107e-09
1.67635218454e-09
7.27346213077e-09
3.77065516266e-09
2.47061836768e-09
8.47687327336e-09
3.65239569109e-08
5.15329511126e-09
3.72652691525e-08
1.00236038434e-08
3.11231185616e-08
3.47735654849e-08
6.15448371274e-08
2.09342912089e-08
6.05362769113e-08
5.71839582859e-09
2.37151413512e-08
3.43262764623e-08
3.75195957041e-08
2.26024348909e-08
1.77467314408e-08
2.5608700957e-08
2.072443859e-08
1.40039488676e-08
2.0913439241e-08
2.32591225997e-08
5.02156026527e-08
5.8513112295e-09
8.46768121245e-09
1.3119521205e-07
3.72218831547e-08
5.51283414427e-09
3.12370109642e-08
1.34232863412e-07
1.20428380198e-08
5.6018040603e-08
5.4699383186e-09
1.37688634203e-08
4.58712783569e-09
9.46845727203e-09
3.03685913021e-09
7.33745229908e-09
9.28905885265e-09
5.71900209381e-09
2.19255413263e-08
3.79653198904e-09
2.8813275118e-08
1.96755641503e-09
2.96092230932e-08
8.03482321594e-10
3.12069390057e-08
3.03800782201e-09
3.20879884312e-08
1.83071070084e-07
1.32187550396e-06
1.78674167512e-06
9.88604762832e-07
3.10849826025e-06
3.07087489174e-06
2.42969365382e-06
1.82552707557e-06
1.34898690158e-06
1.65352582474e-07
7.60342969583e-09
1.24694152634e-07
5.49360328152e-08
2.3642015065e-07
1.57886553516e-07
3.08135233008e-08
3.26883309943e-07
3.4606228551e-07
1.42047892925e-07
1.8880322582e-07
9.24842657901e-08
1.24505965985e-07
6.62477687557e-08
3.00444747556e-08
1.86828091336e-08
5.92667830285e-08
1.33887074922e-08
8.7898516203e-08
2.45669038445e-08
1.26471673565e-07
8.40762240599e-08
1.20758237448e-07
1.02440668032e-07
8.63199984438e-08
8.93488031131e-08
3.78179480666e-08
3.60072020614e-08
1.03226468937e-08
1.51345814589e-08
4.64494299979e-09
1.13268498991e-08
5.86576975488e-09
1.44841529528e-08
3.85236038642e-09
1.69018370489e-08
2.15845370729e-09
1.69278758282e-08
2.30308544564e-09
1.29743936187e-08
1.83176518866e-09
1.10788752917e-08
4.04228538337e-09
9.08835309892e-09
6.34664261911e-09
7.8541991995e-09
2.43852791398e-09
4.50341011899e-09
5.47870420607e-10
2.29997744865e-09
6.69876338098e-09
7.00201459667e-09
4.01539364115e-09
5.87432126801e-09
4.90172416738e-09
3.63224666979e-09
1.34431569879e-09
9.01582109993e-10
1.97018791868e-09
1.36402087253e-08
4.04494940632e-09
1.15383096595e-08
2.99728682744e-09
6.8397954675e-09
1.65297306847e-09
3.36339369701e-09
8.77951735226e-09
3.61015493562e-09
1.35661586605e-08
1.81900113378e-08
5.32796157017e-09
5.47057394686e-09
7.44809439107e-09
1.71820405532e-08
5.54677999578e-09
2.35333437599e-08
2.52085210063e-08
7.61725920324e-09
3.45629086789e-08
5.92162088507e-09
2.76997970942e-08
5.9592493456e-09
2.07130552608e-08
3.2167328165e-09
2.00647492908e-08
2.93857489406e-08
2.82698914353e-09
1.90973244512e-07
2.0533145683e-07
2.44813128289e-07
6.43510480684e-07
8.19406507042e-07
2.74708202931e-07
7.15840413124e-07
8.30596524753e-07
5.3781297647e-07
2.77891901419e-07
1.47414501308e-08
2.83144815536e-07
3.61169276817e-09
1.02173406125e-07
2.22027280456e-08
5.49224404079e-08
2.52416256632e-08
3.29639610859e-09
9.2049445211e-09
2.97252417066e-09
3.07794762151e-08
1.22952272248e-08
2.25655861545e-08
2.179204925e-08
4.85856840964e-09
2.98620443986e-08
1.48318495907e-08
3.05485796672e-08

