# vtk DataFile Version 3.0
File Name: Molecule/sphere_excent/sphere_excent_0-s2.vtk
ASCII
DATASET UNSTRUCTURED_GRID
FIELD FieldData 1
TIME 1 1 double
0.0
POINTS 54 double
0.85065081 -0.52573111 0.0
0.80901699 -0.30901699 -0.5
1.0 0.0 0.0
0.80901699 0.30901699 -0.5
0.52573111 0.0 -0.85065081
0.85065081 0.52573111 0.0
0.5 0.80901699 -0.30901699
0.30901699 0.5 -0.80901699
0.0 0.85065081 -0.52573111
0.5 0.80901699 0.30901699
0.0 1.0 0.0
0.0 0.85065081 0.52573111
-0.5 0.80901699 0.30901699
-0.5 0.80901699 -0.30901699
-0.85065081 0.52573111 0.0
-0.30901699 0.5 0.80901699
-0.80901699 0.30901699 0.5
0.30901699 -0.5 0.80901699
0.5 -0.80901699 0.30901699
0.80901699 -0.30901699 0.5
0.0 -0.85065081 0.52573111
0.30901699 -0.5 -0.80901699
0.0 0.0 -1.0
-0.30901699 -0.5 -0.80901699
0.0 -0.85065081 -0.52573111
-0.52573111 0.0 -0.85065081
0.80901699 0.30901699 0.5
0.52573111 0.0 0.85065081
0.30901699 0.5 0.80901699
-0.80901699 -0.30901699 -0.5
-0.80901699 0.30901699 -0.5
-1.0 0.0 0.0
-0.85065081 -0.52573111 0.0
-0.30901699 0.5 -0.80901699
-0.5 -0.80901699 -0.30901699
-0.5 -0.80901699 0.30901699
0.0 -1.0 0.0
-0.80901699 -0.30901699 0.5
-0.30901699 -0.5 0.80901699
-0.52573111 0.0 0.85065081
0.5 -0.80901699 -0.30901699
-0.43388856 0.25989191 0.86266848
0.0 0.52573111 0.85065081
-0.16245985 0.26286556 0.95105652
0.16245985 0.26286556 0.95105652
0.0 0.0 1.0
-0.27326653 0.0 0.96193836
0.43388856 0.25989191 0.86266848
0.27326653 0.0 0.96193836
-0.43388856 -0.25989191 0.86266848
-0.16245985 -0.26286556 0.95105652
0.0 -0.52573111 0.85065081
0.16245985 -0.26286556 0.95105652
0.43388856 -0.25989191 0.86266848

CELLS 104 416
3 0 1 2
3 1 3 2
3 1 4 3
3 2 3 5
3 5 3 6
3 3 7 6
3 3 4 7
3 6 7 8
3 5 6 9
3 6 10 9
3 6 8 10
3 9 10 11
3 11 10 12
3 10 13 12
3 10 8 13
3 12 13 14
3 11 12 15
3 12 16 15
3 12 14 16
3 17 18 19
3 17 20 18
3 19 18 0
3 4 21 22
3 21 23 22
3 21 24 23
3 22 23 25
3 0 2 19
3 2 26 19
3 2 5 26
3 19 26 27
3 5 9 26
3 9 28 26
3 9 11 28
3 25 29 30
3 29 31 30
3 29 32 31
3 30 31 14
3 8 33 13
3 33 30 13
3 33 25 30
3 13 30 14
3 32 34 35
3 34 36 35
3 34 24 36
3 35 36 20
3 32 35 37
3 35 38 37
3 35 20 38
3 39 16 37
3 16 31 37
3 16 14 31
3 37 31 32
3 25 23 29
3 23 34 29
3 23 24 34
3 29 34 32
3 24 40 36
3 40 18 36
3 40 0 18
3 36 18 20
3 4 1 21
3 1 40 21
3 1 0 40
3 21 40 24
3 4 22 7
3 22 33 7
3 22 25 33
3 7 33 8
3 39 41 16
3 16 41 15
3 15 42 11
3 11 42 28
3 15 43 42
3 43 44 42
3 43 45 44
3 42 44 28
3 15 41 43
3 41 46 43
3 41 39 46
3 43 46 45
3 28 44 47
3 44 48 47
3 44 45 48
3 47 48 27
3 39 49 46
3 49 50 46
3 49 38 50
3 46 50 45
3 38 51 50
3 51 52 50
3 51 17 52
3 50 52 45
3 17 51 20
3 20 51 38
3 45 52 48
3 52 53 48
3 52 17 53
3 48 53 27
3 27 53 19
3 53 17 19
3 28 47 26
3 26 47 27
3 38 49 37
3 37 49 39

CELL_TYPES 104
5
5
5
5
5
5
5
5
5
5
5
5
5
5
5
5
5
5
5
5
5
5
5
5
5
5
5
5
5
5
5
5
5
5
5
5
5
5
5
5
5
5
5
5
5
5
5
5
5
5
5
5
5
5
5
5
5
5
5
5
5
5
5
5
5
5
5
5
5
5
5
5
5
5
5
5
5
5
5
5
5
5
5
5
5
5
5
5
5
5
5
5
5
5
5
5
5
5
5
5
5
5
5
5

CELL_DATA 104
SCALARS cell_data_0 double
LOOKUP_TABLE default
3.95574066333e-07
5.09037675325e-07
1.75773265528e-07
2.88390771512e-07
3.84972921521e-08
2.32070257988e-07
6.01307937854e-08
8.23433343487e-08
2.05914512496e-06
6.73039962936e-07
7.27206601117e-07
3.23212258392e-06
9.85029835279e-07
2.03227225944e-06
1.11794916382e-07
6.05116719572e-07
1.82131256096e-05
8.8093203122e-06
3.68242869176e-06
1.66235281496e-06
1.13358193536e-06
1.07734751824e-06
4.52890347016e-08
1.4129687083e-08
6.38190763559e-08
3.49857221711e-08
4.04250049938e-06
3.05220754469e-07
4.29750511294e-06
1.21245545791e-05
9.95393219627e-07
8.80953673562e-06
9.95741510239e-06
3.97868295685e-08
5.09028759978e-07
9.85341360437e-08
9.85315736595e-08
3.00881598297e-07
1.71013928864e-09
1.82171741398e-07
3.52419755766e-07
2.05915306185e-06
6.7304220287e-07
7.27206176874e-07
3.23209836817e-06
9.95370140902e-07
8.80965076435e-06
9.957473235e-06
2.42170743361e-06
3.85385551986e-06
1.14457144583e-06
1.14455537168e-06
1.24710542501e-07
1.70895153654e-09
1.62153288607e-07
1.31934303586e-07
2.60674312318e-07
6.73055923946e-07
1.12483188279e-06
1.10800211666e-06
1.24711076826e-07
2.32067053282e-07
1.31931083217e-07
1.62152556037e-07
4.52890791326e-08
3.40334721419e-08
3.4985610403e-08
6.38192059915e-08
7.9373455686e-06
2.33837643029e-07
6.46422925527e-06
6.07571399236e-07
4.95058209015e-06
6.92673825245e-08
1.55201794817e-06
5.77700517015e-06
5.20256800681e-06
7.38122793527e-07
3.47164223295e-06
1.36987826539e-06
5.20249031049e-06
1.93401579434e-06
1.3699011579e-06
3.47161089223e-06
3.50134804653e-06
7.38126494139e-07
6.16041750788e-06
1.69472860656e-06
4.95056325784e-06
3.06736543414e-06
5.77700220795e-06
1.55199841714e-06
6.46422891533e-06
6.0756708956e-07
1.23351456016e-07
1.93397352456e-06
3.30612946083e-06
1.10152733739e-06
7.93788001646e-06
5.29549093696e-06
6.26345778582e-06
9.93097420398e-07
6.26353516762e-06
9.93096030273e-07

