# vtk DataFile Version 3.0
File Name: Molecule/sphere_dip_C5/sphere_dip_C5_0-s4.vtk
ASCII
DATASET UNSTRUCTURED_GRID
FIELD FieldData 1
TIME 1 1 double
0.0
POINTS 53 double
0.850650808352 -0.525731112119 0.0
0.809016994375 -0.309016994375 -0.5
1.0 0.0 0.0
0.809016994375 0.309016994375 -0.5
0.525731112119 0.0 -0.850650808352
0.850650808352 0.525731112119 0.0
0.0 0.850650808352 0.525731112119
-0.5 0.809016994375 0.309016994375
-0.309016994375 0.5 0.809016994375
-0.809016994375 0.309016994375 0.5
-0.525731112119 0.0 0.850650808352
0.309016994375 0.5 0.809016994375
0.0 0.0 1.0
0.525731112119 0.0 0.850650808352
-0.309016994375 -0.5 0.809016994375
0.309016994375 -0.5 0.809016994375
0.0 -0.850650808352 0.525731112119
0.809016994375 -0.309016994375 0.5
0.5 -0.809016994375 0.309016994375
0.309016994375 -0.5 -0.809016994375
0.0 0.0 -1.0
-0.309016994375 -0.5 -0.809016994375
0.0 -0.850650808352 -0.525731112119
-0.525731112119 0.0 -0.850650808352
0.809016994375 0.309016994375 0.5
0.5 0.809016994375 0.309016994375
-0.809016994375 -0.309016994375 -0.5
-0.809016994375 0.309016994375 -0.5
-1.0 0.0 0.0
-0.850650808352 -0.525731112119 0.0
-0.850650808352 0.525731112119 0.0
0.0 0.850650808352 -0.525731112119
-0.309016994375 0.5 -0.809016994375
-0.5 0.809016994375 -0.309016994375
-0.5 -0.809016994375 -0.309016994375
-0.5 -0.809016994375 0.309016994375
0.0 -1.0 0.0
-0.809016994375 -0.309016994375 0.5
0.5 -0.809016994375 -0.309016994375
0.309016994375 0.5 -0.809016994375
0.0 1.0 0.0
-0.25 0.904508497187 0.154508497188
-0.25 0.904508497187 -0.154508497188
-0.5 0.809016994375 0.0
-0.675325404176 0.667374053247 0.154508497188
-0.675325404176 0.667374053247 -0.154508497188
0.5 0.809016994375 -0.309016994375
0.5 0.809016994375 0.0
0.25 0.904508497187 -0.154508497188
0.25 0.904508497187 0.154508497188
0.654508497187 0.559016994375 -0.404508497188
0.559016994375 0.404508497188 -0.654508497187
0.404508497188 0.654508497187 -0.559016994375

CELLS 102 408
3 0 1 2
3 1 3 2
3 1 4 3
3 2 3 5
3 6 7 8
3 7 9 8
3 8 9 10
3 6 8 11
3 8 12 11
3 8 10 12
3 11 12 13
3 10 14 12
3 14 15 12
3 14 16 15
3 12 15 13
3 13 15 17
3 15 18 17
3 15 16 18
3 17 18 0
3 4 19 20
3 19 21 20
3 19 22 21
3 20 21 23
3 0 2 17
3 2 24 17
3 2 5 24
3 17 24 13
3 5 25 24
3 25 11 24
3 25 6 11
3 24 11 13
3 23 26 27
3 26 28 27
3 26 29 28
3 27 28 30
3 31 32 33
3 32 27 33
3 32 23 27
3 29 34 35
3 34 36 35
3 34 22 36
3 35 36 16
3 29 35 37
3 35 14 37
3 35 16 14
3 37 14 10
3 10 9 37
3 9 28 37
3 9 30 28
3 37 28 29
3 23 21 26
3 21 34 26
3 21 22 34
3 26 34 29
3 22 38 36
3 38 18 36
3 38 0 18
3 36 18 16
3 4 1 19
3 1 38 19
3 1 0 38
3 19 38 22
3 4 20 39
3 20 32 39
3 20 23 32
3 39 32 31
3 40 41 6
3 6 41 7
3 40 42 41
3 42 43 41
3 42 33 43
3 41 43 7
3 33 42 31
3 31 42 40
3 7 43 44
3 43 45 44
3 43 33 45
3 44 45 30
3 7 44 9
3 44 30 9
3 30 45 27
3 27 45 33
3 46 47 5
3 5 47 25
3 46 48 47
3 48 49 47
3 48 40 49
3 47 49 25
3 40 48 31
3 31 48 46
3 25 49 6
3 49 40 6
3 3 50 5
3 5 50 46
3 3 51 50
3 51 52 50
3 51 39 52
3 50 52 46
3 39 51 4
3 4 51 3
3 46 52 31
3 52 39 31

CELL_TYPES 102
5
5
5
5
5
5
5
5
5
5
5
5
5
5
5
5
5
5
5
5
5
5
5
5
5
5
5
5
5
5
5
5
5
5
5
5
5
5
5
5
5
5
5
5
5
5
5
5
5
5
5
5
5
5
5
5
5
5
5
5
5
5
5
5
5
5
5
5
5
5
5
5
5
5
5
5
5
5
5
5
5
5
5
5
5
5
5
5
5
5
5
5
5
5
5
5
5
5
5
5
5
5

CELL_DATA 102
SCALARS cell_data_0 double
LOOKUP_TABLE default
0.0013198678777
0.00161452283538
0.00108548511887
0.000665092772266
0.000159566884641
0.000193263070798
0.000211942058416
0.000218406470208
0.000441140638523
0.000363057473609
0.000357062930012
0.000347744002591
0.000432885863979
0.000192870234584
0.000363610121444
0.000220860276113
0.000180307657948
0.000133810593731
5.39195371347e-05
7.62717414327e-05
4.55208822494e-05
2.32510846583e-05
8.50966354558e-05
0.000272430864281
2.58838821665e-06
0.00026173980707
0.000180818960825
9.40094481893e-05
0.000168735945994
0.000129372655241
0.000220637509428
6.96938692715e-05
2.69521777922e-05
0.00018599598776
6.80987562425e-05
2.88602341165e-05
1.38487054171e-05
9.59343233803e-05
0.000190277621678
8.51350671907e-06
2.57440934025e-05
7.45746639212e-05
6.01537803391e-05
0.000144450000037
0.000118997999113
0.000178578939217
0.000146250547708
8.18254714185e-05
5.47529081932e-06
0.000123577466507
6.67589134009e-05
6.26445490795e-05
5.44317532392e-05
0.000234996631031
5.88943462541e-06
1.95275846182e-05
0.000169206405395
6.68112376475e-05
0.000763670544629
0.000880918672398
0.00102641116837
5.17920007919e-05
0.000121585104698
0.000124014382002
0.000111307444147
0.00010967605135
2.08138958363e-05
4.56236636594e-05
4.91165939274e-06
3.27525812825e-06
1.08706580632e-06
1.14098322562e-05
5.99102017619e-06
2.36988922652e-05
8.46788753676e-06
5.68910989566e-06
2.07980671439e-06
5.62492220452e-06
4.51954160008e-05
1.27772498703e-05
1.80810803905e-05
8.0743676605e-06
0.000190567127183
9.41819915758e-05
5.3162734218e-05
1.28908900938e-06
9.34223950534e-06
1.02097307869e-05
2.27026473963e-05
9.89562637183e-05
1.45464465965e-05
1.35408390393e-05
0.000195570567527
0.000189955704584
5.27373020665e-05
1.62258438208e-06
1.98153769795e-05
5.15612627927e-05
5.11924649859e-05
0.000112089856469
9.69846604458e-05
4.27161483452e-05

