# vtk DataFile Version 3.0
File Name: Molecule/sphere_dip_C5/sphere_dip_C5_0-s5.vtk
ASCII
DATASET UNSTRUCTURED_GRID
FIELD FieldData 1
TIME 1 1 double
0.0
POINTS 58 double
0.0 0.850650808352 0.525731112119
-0.5 0.809016994375 0.309016994375
-0.309016994375 0.5 0.809016994375
-0.809016994375 0.309016994375 0.5
-0.525731112119 0.0 0.850650808352
0.309016994375 0.5 0.809016994375
0.0 0.0 1.0
0.525731112119 0.0 0.850650808352
-0.309016994375 -0.5 0.809016994375
0.309016994375 -0.5 0.809016994375
0.0 -0.850650808352 0.525731112119
0.809016994375 -0.309016994375 0.5
0.5 -0.809016994375 0.309016994375
0.850650808352 -0.525731112119 0.0
0.525731112119 0.0 -0.850650808352
0.309016994375 -0.5 -0.809016994375
0.0 0.0 -1.0
-0.309016994375 -0.5 -0.809016994375
0.0 -0.850650808352 -0.525731112119
-0.525731112119 0.0 -0.850650808352
1.0 0.0 0.0
0.809016994375 0.309016994375 0.5
0.850650808352 0.525731112119 0.0
0.5 0.809016994375 0.309016994375
-0.809016994375 -0.309016994375 -0.5
-0.809016994375 0.309016994375 -0.5
-1.0 0.0 0.0
-0.850650808352 -0.525731112119 0.0
-0.850650808352 0.525731112119 0.0
0.0 0.850650808352 -0.525731112119
-0.309016994375 0.5 -0.809016994375
-0.5 0.809016994375 -0.309016994375
-0.5 -0.809016994375 -0.309016994375
-0.5 -0.809016994375 0.309016994375
0.0 -1.0 0.0
-0.809016994375 -0.309016994375 0.5
0.5 -0.809016994375 -0.309016994375
0.809016994375 -0.309016994375 -0.5
0.309016994375 0.5 -0.809016994375
0.0 1.0 0.0
-0.25 0.904508497187 0.154508497188
-0.25 0.904508497187 -0.154508497188
-0.5 0.809016994375 0.0
-0.675325404176 0.667374053247 0.154508497188
-0.675325404176 0.667374053247 -0.154508497188
0.5 0.809016994375 -0.309016994375
0.5 0.809016994375 0.0
0.25 0.904508497187 -0.154508497188
0.25 0.904508497187 0.154508497188
0.809016994375 0.309016994375 -0.5
0.654508497187 0.559016994375 -0.404508497188
0.559016994375 0.404508497188 -0.654508497187
0.404508497188 0.654508497187 -0.559016994375
0.829833901363 -0.417374053247 -0.25
0.925325404176 -0.26286555606 0.0
0.904508497187 -0.154508497188 -0.25
0.809016994375 0.0 -0.5
0.904508497187 0.154508497188 -0.25

CELLS 112 448
3 0 1 2
3 1 3 2
3 2 3 4
3 0 2 5
3 2 6 5
3 2 4 6
3 5 6 7
3 4 8 6
3 8 9 6
3 8 10 9
3 6 9 7
3 7 9 11
3 9 12 11
3 9 10 12
3 11 12 13
3 14 15 16
3 15 17 16
3 15 18 17
3 16 17 19
3 20 21 11
3 20 22 21
3 11 21 7
3 22 23 21
3 23 5 21
3 23 0 5
3 21 5 7
3 19 24 25
3 24 26 25
3 24 27 26
3 25 26 28
3 29 30 31
3 30 25 31
3 30 19 25
3 27 32 33
3 32 34 33
3 32 18 34
3 33 34 10
3 27 33 35
3 33 8 35
3 33 10 8
3 35 8 4
3 4 3 35
3 3 26 35
3 3 28 26
3 35 26 27
3 19 17 24
3 17 32 24
3 17 18 32
3 24 32 27
3 18 36 34
3 36 12 34
3 36 13 12
3 34 12 10
3 14 37 15
3 37 36 15
3 15 36 18
3 14 16 38
3 16 30 38
3 16 19 30
3 38 30 29
3 39 40 0
3 0 40 1
3 39 41 40
3 41 42 40
3 41 31 42
3 40 42 1
3 31 41 29
3 29 41 39
3 1 42 43
3 42 44 43
3 42 31 44
3 43 44 28
3 1 43 3
3 43 28 3
3 28 44 25
3 25 44 31
3 45 46 22
3 22 46 23
3 45 47 46
3 47 48 46
3 47 39 48
3 46 48 23
3 39 47 29
3 29 47 45
3 23 48 0
3 48 39 0
3 49 50 22
3 22 50 45
3 49 51 50
3 51 52 50
3 51 38 52
3 50 52 45
3 38 51 14
3 14 51 49
3 45 52 29
3 52 38 29
3 13 53 54
3 53 55 54
3 53 37 55
3 54 55 20
3 37 56 55
3 56 57 55
3 56 49 57
3 55 57 20
3 49 56 14
3 14 56 37
3 20 57 22
3 57 49 22
3 13 54 11
3 54 20 11
3 37 53 36
3 53 13 36

CELL_TYPES 112
5
5
5
5
5
5
5
5
5
5
5
5
5
5
5
5
5
5
5
5
5
5
5
5
5
5
5
5
5
5
5
5
5
5
5
5
5
5
5
5
5
5
5
5
5
5
5
5
5
5
5
5
5
5
5
5
5
5
5
5
5
5
5
5
5
5
5
5
5
5
5
5
5
5
5
5
5
5
5
5
5
5
5
5
5
5
5
5
5
5
5
5
5
5
5
5
5
5
5
5
5
5
5
5
5
5
5
5
5
5
5
5

CELL_DATA 112
SCALARS cell_data_0 double
LOOKUP_TABLE default
0.000105694338601
0.000149984821121
0.000121988627718
0.000158734539922
0.000433959838216
0.000372058435092
0.000364610102467
0.00039149920921
0.000436673785812
0.000192433979036
0.000380153095231
0.000147693460985
0.000153333588511
0.000100196395141
1.88854932442e-05
0.000199551387547
1.59479168915e-05
7.20572484547e-05
0.000678022598369
9.31587887192e-05
8.06191079354e-05
8.30989651201e-05
3.01776692647e-05
0.000168010757687
0.000115293866642
0.000141688832846
0.000776164069586
0.000112819523597
0.000123993160227
0.000231690121007
0.000200863952716
4.13180417601e-05
0.000721799926067
8.87717545896e-06
5.3396048986e-05
4.18134528791e-05
4.08633232013e-05
2.55798284414e-05
0.00018461394905
0.000127608075324
0.000165781294583
6.72723476683e-05
3.31273450528e-05
0.000150939603652
6.52852977019e-05
0.000751739482996
3.79596050556e-05
6.0732221824e-05
6.58641255635e-05
6.24019888917e-05
2.22636041326e-05
3.02668971677e-05
2.39551430245e-05
0.000246898157372
5.50004140206e-05
7.70510566696e-05
0.000190579343443
1.18431595795e-05
0.000687924517655
0.000183773381898
2.01497337097e-05
3.08165437425e-05
2.15692956477e-06
4.1920538226e-06
6.01764595197e-06
1.41308501583e-05
0.000105183277426
8.45304446543e-05
1.28597277027e-05
7.007960443e-06
4.9634696876e-06
3.31604846613e-05
3.95706292695e-05
3.17906925498e-05
9.71112108538e-05
1.95968989529e-05
6.34565158674e-05
4.41963564341e-05
2.46106329118e-06
8.61019809905e-06
7.08624947229e-06
1.75806530179e-05
8.82703139817e-05
9.43374021765e-05
3.60175775533e-05
2.69339352073e-05
7.01102669168e-05
6.88254191662e-05
5.13999437564e-08
1.14285473191e-06
1.22266387674e-06
6.38442734063e-07
9.51730303514e-05
9.02129897995e-05
8.0045451239e-05
8.56828744416e-05
1.2694765468e-05
1.80278670104e-06
1.04258825785e-05
1.25962376176e-06
1.19733642648e-05
1.87266258183e-06
5.41120408803e-09
1.01380176051e-06
9.11329213615e-05
0.000126417514159
7.28663010438e-05
6.92884725687e-05
3.54811256079e-06
1.62819412835e-05
2.36860403971e-05
2.82225321884e-05

