# vtk DataFile Version 3.0
File Name: Molecule/methanol/methanol_5.0-1.vtk
ASCII
DATASET UNSTRUCTURED_GRID
FIELD FieldData 1
TIME 1 1 double
0.0
POINTS 245 double
1.6135028601 0.0018731143791 -0.35253319144
1.5016610622 -0.49175664783 -0.43404912949
1.3959950209 -0.0016489095287 -0.94724333286
1.333899498 -0.46935993433 -0.91635125875
1.1699248552 -0.87748122215 -0.82154178619
1.3119020462 -0.9351528883 -0.36228320003
1.0746625662 -1.2069232464 -0.36796149611
0.93594503403 -1.1251521111 -0.84645587206
0.55857747793 -1.3848837614 -0.82149368525
0.6790677309 -1.5071338415 -0.26977798343
0.19510427117 -1.6674990654 -0.20271915197
0.10510247946 -1.5180222988 -0.80256962776
-0.3212043941 -1.6615935564 -0.1821821928
-0.34870141745 -1.5283428431 -0.72594594955
-0.80674219131 -1.5023252964 -0.15422141552
-0.80658620596 -1.3821042776 -0.68036288023
-1.206050396 -1.2293804884 -0.094374276698
-1.1717685461 -1.1206607819 -0.66664737463
-1.3955923319 -0.87540173531 -0.59714001417
-1.4431649446 -0.95696431398 -0.061597302556
-1.654872179 -0.505384624 -0.084051907063
-1.5817055702 -0.45971438289 -0.63336646557
-1.6563346386 -0.00038573227357 -0.61083042622
-1.7375972271 -0.0015293405158 -0.048078723252
-1.585059762 0.46187791228 -0.62040835619
-1.6628242731 0.49890929461 -0.050675816834
-1.4397403002 0.94137704372 -0.1123919934
-1.3935261965 0.86955404282 -0.62191289663
-1.1719372272 1.1219918728 -0.66326367855
-1.2102993727 1.2244971991 -0.098933435977
-0.7969327569 1.38573277 -0.69211012125
-0.80705308914 1.5065346956 -0.13250160217
-0.32995665073 1.6533712149 -0.20488595963
-0.35127872229 1.5218626261 -0.74563115835
0.11310043931 1.5296093225 -0.76508229971
0.1781899333 1.6638537645 -0.22458255291
0.66707992554 1.5105983019 -0.27881222963
0.56029856205 1.3852748871 -0.81592875719
1.0733528137 1.2315182686 -0.31651338935
0.93674302101 1.1257047653 -0.84574657679
1.3188196421 0.94779425859 -0.33310183883
1.1509346962 0.87871485949 -0.85920149088
1.4986253977 0.50650423765 -0.43690645695
1.334821701 0.4625621438 -0.92067223787
1.9070005417 -5.3558892432e-08 0.65591800213
1.8443608284 0.48175817728 0.65594267845
1.8443444967 0.24112896621 1.0719189644
1.8443396091 -0.24045716226 1.0723129511
1.8443610668 -0.48177626729 0.65596348047
1.844162941 -0.24079085886 0.23676739633
1.8441978693 0.24089720845 0.23641960323
1.6701689959 0.79055058956 1.1145260334
1.6618852615 0.46295544505 1.4608618021
1.6706805229 -0.0052354172803 1.5690685511
1.6632623672 -0.4593949616 1.46111691
1.6686794758 -0.79383844137 1.1154459715
1.6629337072 -0.92789763212 0.65593832731
1.6716736555 -0.79391920567 0.21133065224
1.6627367735 -0.47690913081 -0.13691326976
1.6693495512 0.46648597717 -0.12835909426
1.6687377691 0.79321277142 0.19536750019
1.6619592905 0.92919296026 0.65591108799
1.3961499929 1.2004520893 1.1268402338
1.3968330622 0.9495100975 1.5264699459
1.3873612881 0.59102189541 1.8142403364
1.3941581249 0.12183832377 1.9422818422
1.3982491493 -0.36164844036 1.8919378519
1.3903832436 -0.78933608532 1.6839774847
1.3849554062 -1.1033300161 1.3480175734
1.3954075575 -1.2694795132 0.89330500364
1.3956342936 -1.2694203854 0.41985562444
1.3927869797 -1.1008611917 -0.020715776831
1.3925703764 1.2015380859 0.17290005088
1.388369441 1.299593091 0.65512788296
1.1306180954 1.4483134747 1.1319108009
1.1322315931 1.2341301441 1.5497405529
1.1324356794 0.98999303579 1.8122370243
1.1282920837 0.58549892902 2.0649497509
1.1218752861 0.13029234111 2.1798970699
1.1308300495 -0.34582930803 2.1402084827
1.1322197914 -0.7957675457 1.9542587996
1.0229642391 -1.1690768003 1.7451374531
1.1269180775 -1.3616945744 1.3459700346
1.1270858049 -1.5093281269 0.8865070343
1.1272156239 -1.5089629889 0.42463254929
1.1296294928 -1.3638677597 -0.019543658942
1.1288149357 1.4479795694 0.17323260009
1.1228892803 1.5280294418 0.65514665842
0.72316718102 1.6843682528 1.1361409426
0.71852040291 1.4977782965 1.5666639805
0.72007781267 1.2861037254 1.8452590704
0.72282594442 0.92087954283 2.1456699371
0.722217381 0.47778701782 2.3405578136
0.72486823797 -0.0080211833119 2.4059972763
0.72011756897 -0.48462367058 2.3392651081
0.71690058708 -0.928414464 2.1434950829
0.69983190298 -1.2874490023 1.8548926115
0.71905565262 -1.495325923 1.5698314905
0.72273361683 -1.6850920916 1.1348907948
0.72274690866 -1.7510745525 0.65589410067
0.71957433224 -1.6854095459 0.17137931287
0.72207725048 1.6852948666 0.17738163471
0.71060049534 1.7544858456 0.65530991554
0.26007759571 1.8095511198 1.1342853308
0.25688183308 1.6291956902 1.577976346
0.25890570879 1.3381745815 1.9648290873
0.25651392341 0.9567784071 2.264539957
0.25145941973 0.50717633963 2.4580783844
0.25680527091 0.056382223964 2.5263254642
0.25802966952 -0.29366892576 2.5047838688
0.26389068365 -0.75019162893 2.3702712059
0.26422569156 -1.1647684574 2.120285511
0.26270270348 -1.4992209673 1.774941206
0.26456660032 -1.7351269722 1.357431531
0.25926879048 -1.856946826 0.896925807
0.26471683383 -1.8560502529 0.41435158253
0.26639470458 1.8108010292 0.19382768869
0.24596761167 1.872415185 0.65764498711
-0.21800598502 1.8109105825 1.1308174133
-0.22329123318 1.6271960735 1.5805557966
-0.21967747808 1.3453561068 1.9560136795
-0.22061814368 0.96886783838 2.255795002
-0.22126206756 0.52874159813 2.4507353306
-0.21549670398 0.059201125056 2.5262687206
-0.22375744581 -0.28920665383 2.5053737164
-0.22634713352 -0.73849099874 2.3753988743
-0.22653351724 -1.1528327465 2.1298413277
-0.22424723208 -1.4891444445 1.7880954742
-0.22600799799 -1.729368329 1.3710030317
-0.22658061981 -1.8550914526 0.9042095542
-0.22526326776 -1.8554310799 0.39823958278
-0.21703337133 1.811668992 0.18755638599
-0.22243528068 1.8718395233 0.65653473139
-0.67431753874 1.7539080381 0.65569633245
-0.68598175049 1.6840816736 1.136297226
-0.68263065815 1.496984005 1.5657138824
-0.69881504774 1.2784274817 1.8433951139
-0.6906529665 0.92536330223 2.139995575
-0.68547028303 0.4785400331 2.3399274349
-0.68678891659 -0.0076994821429 2.4063227177
-0.68255370855 -0.48515272141 2.3390936852
-0.67243802547 -0.92346221209 2.1493122578
-0.66689348221 -1.279263854 1.8589179516
-0.68002104759 -1.4956495762 1.5709354877
-0.68603903055 -1.6844434738 1.1353663206
-0.68634754419 -1.75048244 0.65572834015
-0.67589491606 -1.6906887293 0.19319406152
-0.68566828966 1.6857969761 0.18509110808
-1.0827503204 1.5295013189 0.65544760227
-1.0903863907 1.4502134323 1.1308652163
-1.0929344893 1.2349185944 1.549800992
-1.0929473639 0.98922175169 1.8152737617
-1.0895513296 0.58504647017 2.0655245781
-1.0836968422 0.12737590075 2.1795220375
-1.0904521942 -0.34441864491 2.1416273117
-1.0924807787 -0.7934589982 1.9567326307
-0.98313176632 -1.1697309017 1.746213913
-1.087654233 -1.3627192974 1.3459408283
-1.0880311728 -1.5100568533 0.88611328602
-1.0900810957 -1.5066795349 0.4058393538
-1.0948599577 1.4495100975 0.19653758407
-1.3479124308 1.3019883633 0.65641403198
-1.3564732075 1.202519536 1.1269402504
-1.3572483063 0.95138806105 1.5272433758
-1.3480733633 0.59048396349 1.8159501553
-1.3535466194 0.12220267951 1.9451746941
-1.3589501381 -0.36022862792 1.8936064243
-1.35171628 -0.78891068697 1.6853721142
-1.3453220129 -1.1048976183 1.3479901552
-1.3577693701 -1.2655605078 0.90483516455
-1.3588415384 -1.2674295902 0.41512909532
-1.357888341 1.2043902874 0.20521146059
-1.6243878603 0.92857378721 0.65618139505
-1.6333158016 0.78870552778 1.1133863926
-1.6245033741 0.46223682165 1.4601025581
-1.6335963011 -0.005525236018 1.56739676
-1.6261614561 -0.45910251141 1.45943892
-1.631076932 -0.79286324978 1.1152820587
-1.6260917187 -0.92604261637 0.6561858058
-1.636536479 -0.78814774752 0.23311184347
-1.6345537901 0.79049402475 0.21958981454
-1.8062262535 0.48224115372 0.65652060509
-1.8061192036 0.24121147394 1.0726696253
-1.8061485291 -0.24073332548 1.0728260279
-1.8062794209 -0.48200252652 0.65689408779
-1.8079760075 -0.24317924678 0.25376421213
-1.8087220192 0.24097818136 0.25689429045
-1.8679333925 -9.133041749e-05 0.65762031078
1.1073851585 -0.81460958719 -1.1510653496
0.78156375885 -1.1468324661 -1.2140015364
0.78718143702 -0.88141602278 -1.607440114
1.1285336018 -0.49943435192 -1.4794225693
0.77668786049 -0.48712354898 -1.884211421
1.1321883202 0.43636444211 -1.5129473209
0.77809166908 0.48619535565 -1.8838312626
0.78510385752 0.87557071447 -1.6149348021
1.1105856895 0.78214091063 -1.2098391056
0.77444154024 1.146645546 -1.2224661112
0.35898187757 -1.2897949219 -1.4197858572
0.35407403111 -0.98466998339 -1.8151333332
0.35125935078 -0.58008015156 -2.0775122643
0.76672542095 -0.18376000226 -1.9730967283
0.74949336052 -0.00062970723957 -1.9975802898
0.34902974963 -0.11619346589 -2.1941795349
0.35573145747 0.35736241937 -2.1518604755
0.35791912675 0.79603850842 -1.9588779211
0.35759103298 1.1493115425 -1.635720253
0.34871006012 1.3806489706 -1.2152858973
-0.12517033517 -1.4127570391 -1.3392424583
-0.1197682023 -1.1457022429 -1.7582758665
-0.11978859454 -0.77232420444 -2.0643086433
-0.12022969127 -0.32283428311 -2.2380948067
-0.12001311034 0.15784063935 -2.2641255856
-0.12005157024 0.61251544952 -2.1433122158
-0.11965231597 0.9137968421 -1.9682401419
-0.11943820864 1.2482868433 -1.628995657
-0.11972303689 1.4679130316 -1.1929841042
-0.59542870522 -1.4259370565 -1.0112318993
-0.59453654289 -1.2786186934 -1.4398350716
-0.59240442514 -0.9840208292 -1.8156963587
-0.58447796106 -0.58301913738 -2.0781037807
-0.593090415 -0.12281896919 -2.1919488907
-0.59473073483 0.35643708706 -2.1520633698
-0.59679871798 0.79589283466 -1.9590916634
-0.59638702869 1.1496089697 -1.6354740858
-0.58905780315 1.3849939108 -1.2058722973
-1.0193458796 -1.1580997705 -1.1941025257
-1.0254169703 -0.88151413202 -1.6074339151
-1.0220264196 -0.47489184141 -1.8849467039
-1.0163758993 0.0034264181741 -1.9828336239
-1.0217707157 0.4732029736 -1.8857021332
-1.0244390965 0.87442022562 -1.6158605814
-1.0198358297 1.1522026062 -1.2053365707
-1.3676521778 -0.8113078475 -1.1184723377
-1.3583184481 -0.49930679798 -1.4939249754
-1.363224864 -0.03948327899 -1.6373304129
-1.3587856293 0.43458628654 -1.5329551697
-1.3684982061 0.77796834707 -1.1820720434
-1.5813319683 -0.24216811359 -1.1426246166
-1.5812851191 0.23946711421 -1.1437000036
1.1473466158 -0.038674712181 -1.602081418
1.0121748447 -0.1863528192 -1.7544825077
0.99957370758 -0.0048048556782 -1.7831739187
1.0147078037 0.18039649725 -1.7542682886
0.79076963663 0.19222204387 -1.9568275213

CELLS 486 1944
3 0 1 2
3 2 1 3
3 3 1 4
3 5 4 1
3 5 6 4
3 4 6 7
3 7 6 8
3 9 8 6
3 9 10 8
3 8 10 11
3 10 12 11
3 11 12 13
3 12 14 13
3 13 14 15
3 14 16 15
3 15 16 17
3 17 16 18
3 19 18 16
3 19 20 18
3 18 20 21
3 21 20 22
3 23 22 20
3 24 22 25
3 23 25 22
3 25 26 24
3 24 26 27
3 27 26 28
3 29 28 26
3 28 29 30
3 31 30 29
3 31 32 30
3 30 32 33
3 33 32 34
3 35 34 32
3 35 36 34
3 34 36 37
3 36 38 37
3 37 38 39
3 38 40 39
3 39 40 41
3 40 42 41
3 41 42 43
3 0 2 42
3 43 42 2
3 44 45 46
3 44 46 47
3 44 47 48
3 44 48 49
3 44 49 50
3 44 50 45
3 46 45 51
3 46 51 52
3 46 52 53
3 47 46 53
3 47 53 54
3 47 54 55
3 48 47 55
3 48 55 56
3 48 56 57
3 49 48 57
3 49 57 58
3 50 59 60
3 45 50 60
3 45 60 61
3 45 61 51
3 51 61 62
3 51 62 63
3 52 51 63
3 52 63 64
3 52 64 65
3 53 52 65
3 53 65 66
3 54 53 66
3 54 66 67
3 55 54 67
3 55 67 68
3 55 68 69
3 56 55 69
3 56 69 70
3 57 56 70
3 57 70 71
3 61 60 72
3 61 72 73
3 61 73 62
3 62 73 74
3 62 74 75
3 63 62 75
3 63 75 76
3 64 63 76
3 64 76 77
3 65 64 77
3 65 77 78
3 65 78 79
3 66 65 79
3 66 79 80
3 67 66 80
3 67 80 81
3 68 67 81
3 68 81 82
3 69 68 82
3 69 82 83
3 84 70 83
3 69 83 70
3 70 84 85
3 71 70 85
3 73 72 86
3 73 86 87
3 73 87 74
3 74 87 88
3 74 88 89
3 75 74 89
3 75 89 90
3 76 75 90
3 76 90 91
3 77 76 91
3 77 91 92
3 78 77 92
3 78 92 93
3 79 78 93
3 79 93 94
3 80 79 94
3 80 94 95
3 80 95 81
3 96 81 95
3 81 96 97
3 82 81 97
3 82 97 98
3 83 82 98
3 83 98 99
3 84 83 99
3 84 99 100
3 85 84 100
3 87 86 101
3 87 101 102
3 87 102 88
3 88 102 103
3 88 103 104
3 89 88 104
3 90 89 105
3 104 105 89
3 90 105 91
3 106 91 105
3 91 106 92
3 107 92 106
3 92 107 108
3 93 92 108
3 93 108 109
3 94 93 109
3 94 109 110
3 95 94 110
3 95 110 111
3 96 95 111
3 96 111 112
3 97 96 112
3 97 112 113
3 98 97 113
3 98 113 114
3 99 98 114
3 99 114 115
3 100 99 115
3 102 101 116
3 102 116 117
3 102 117 103
3 103 117 118
3 103 118 104
3 119 104 118
3 105 104 120
3 119 120 104
3 106 105 121
3 120 121 105
3 106 121 122
3 107 106 122
3 107 122 123
3 108 107 123
3 124 109 123
3 108 123 109
3 109 124 125
3 110 109 125
3 110 125 126
3 111 110 126
3 111 126 127
3 112 111 127
3 112 127 128
3 113 112 128
3 114 113 129
3 128 129 113
3 130 115 129
3 114 129 115
3 117 116 131
3 117 131 132
3 117 132 118
3 118 132 133
3 118 133 134
3 119 118 134
3 119 134 135
3 120 119 135
3 120 135 136
3 121 120 137
3 136 137 120
3 122 121 138
3 137 138 121
3 123 122 138
3 123 138 139
3 124 123 139
3 124 139 140
3 125 124 140
3 125 140 141
3 126 125 141
3 126 141 142
3 127 126 142
3 127 142 143
3 128 127 143
3 128 143 144
3 129 128 144
3 129 144 145
3 130 129 145
3 130 145 146
3 133 131 147
3 132 131 133
3 134 133 148
3 134 148 149
3 135 134 149
3 135 149 150
3 136 135 150
3 136 150 151
3 137 136 151
3 137 151 152
3 138 137 152
3 138 152 153
3 139 138 153
3 139 153 154
3 140 139 154
3 140 154 155
3 141 140 155
3 142 141 156
3 155 156 141
3 143 142 156
3 143 156 157
3 144 143 157
3 144 157 158
3 145 144 158
3 145 158 159
3 146 145 159
3 148 147 160
3 133 147 148
3 149 148 161
3 149 161 162
3 150 149 162
3 150 162 163
3 151 150 163
3 151 163 164
3 152 151 164
3 152 164 165
3 153 152 165
3 154 153 165
3 154 165 166
3 155 154 166
3 155 166 167
3 156 155 167
3 156 167 168
3 157 156 168
3 157 168 169
3 158 157 169
3 159 158 170
3 169 170 158
3 161 160 171
3 148 160 161
3 162 161 172
3 162 172 173
3 163 162 173
3 163 173 174
3 164 163 174
3 165 164 174
3 165 174 175
3 166 165 175
3 166 175 176
3 167 166 176
3 167 176 177
3 168 167 177
3 169 168 177
3 169 177 178
3 170 169 178
3 170 178 179
3 172 171 180
3 161 171 172
3 173 172 181
3 173 181 182
3 174 173 182
3 175 174 182
3 175 182 183
3 176 175 183
3 177 176 183
3 177 183 184
3 178 177 184
3 179 178 184
3 179 184 185
3 181 180 186
3 172 180 181
3 182 181 187
3 183 182 187
3 184 183 187
3 185 184 187
3 186 185 187
3 181 186 187
3 186 180 25
3 186 25 23
3 186 23 185
3 185 23 20
3 185 20 179
3 179 20 19
3 179 19 170
3 170 19 16
3 170 16 159
3 159 16 14
3 159 14 146
3 146 14 12
3 146 12 130
3 130 12 10
3 130 10 115
3 115 10 100
3 100 10 9
3 100 9 85
3 85 9 6
3 85 6 71
3 71 6 5
3 71 5 58
3 71 58 57
3 58 5 1
3 58 1 0
3 58 0 49
3 49 0 50
3 50 0 59
3 59 0 42
3 59 42 40
3 59 40 60
3 60 40 72
3 72 40 38
3 72 38 86
3 86 38 36
3 86 36 101
3 116 101 35
3 36 35 101
3 116 35 131
3 131 35 32
3 131 32 147
3 147 32 31
3 147 31 160
3 160 31 29
3 160 29 171
3 171 29 26
3 171 26 180
3 180 26 25
3 188 189 190
3 191 188 190
3 191 190 192
3 193 194 195
3 196 193 195
3 196 195 197
3 190 189 198
3 190 198 199
3 192 190 199
3 192 199 200
3 192 200 201
3 202 203 204
3 194 204 205
3 195 194 205
3 195 205 206
3 197 195 206
3 197 206 207
3 198 208 209
3 199 198 209
3 199 209 210
3 200 199 210
3 200 210 211
3 203 200 211
3 203 211 212
3 204 203 212
3 204 212 213
3 205 204 213
3 205 213 214
3 206 205 214
3 206 214 215
3 207 206 215
3 207 215 216
3 208 217 218
3 209 208 218
3 209 218 219
3 210 209 219
3 210 219 220
3 211 210 220
3 211 220 221
3 212 211 221
3 212 221 222
3 213 212 222
3 213 222 223
3 214 213 223
3 214 223 224
3 215 214 224
3 215 224 225
3 216 215 225
3 218 217 226
3 218 226 227
3 219 218 227
3 219 227 228
3 220 219 228
3 221 220 228
3 221 228 229
3 222 221 229
3 222 229 230
3 223 222 230
3 223 230 231
3 224 223 231
3 224 231 232
3 225 224 232
3 227 226 233
3 227 233 234
3 228 227 234
3 228 234 235
3 229 228 235
3 230 229 235
3 230 235 236
3 231 230 236
3 231 236 237
3 232 231 237
3 234 233 238
3 235 234 238
3 235 238 239
3 236 235 239
3 237 236 239
3 237 239 24
3 237 24 27
3 237 27 28
3 237 28 232
3 232 28 30
3 232 30 225
3 225 30 33
3 225 33 216
3 216 33 34
3 216 34 207
3 207 34 37
3 207 37 197
3 197 37 39
3 41 196 39
3 197 39 196
3 196 41 43
3 196 43 193
3 193 43 2
3 193 2 240
3 240 2 191
3 191 2 3
3 191 3 188
3 188 3 4
3 188 4 7
3 188 7 189
3 189 7 8
3 189 8 198
3 198 8 11
3 198 11 208
3 208 11 13
3 208 13 217
3 217 13 15
3 217 15 226
3 226 15 17
3 226 17 233
3 233 17 18
3 233 18 21
3 233 21 238
3 238 21 22
3 238 22 239
3 239 22 24
3 192 241 191
3 191 241 240
3 240 241 242
3 241 201 242
3 241 192 201
3 242 201 202
3 240 242 243
3 242 244 243
3 242 202 244
3 243 244 194
3 240 243 193
3 193 243 194
3 202 201 203
3 203 201 200
3 194 244 204
3 244 202 204

CELL_TYPES 486
5
5
5
5
5
5
5
5
5
5
5
5
5
5
5
5
5
5
5
5
5
5
5
5
5
5
5
5
5
5
5
5
5
5
5
5
5
5
5
5
5
5
5
5
5
5
5
5
5
5
5
5
5
5
5
5
5
5
5
5
5
5
5
5
5
5
5
5
5
5
5
5
5
5
5
5
5
5
5
5
5
5
5
5
5
5
5
5
5
5
5
5
5
5
5
5
5
5
5
5
5
5
5
5
5
5
5
5
5
5
5
5
5
5
5
5
5
5
5
5
5
5
5
5
5
5
5
5
5
5
5
5
5
5
5
5
5
5
5
5
5
5
5
5
5
5
5
5
5
5
5
5
5
5
5
5
5
5
5
5
5
5
5
5
5
5
5
5
5
5
5
5
5
5
5
5
5
5
5
5
5
5
5
5
5
5
5
5
5
5
5
5
5
5
5
5
5
5
5
5
5
5
5
5
5
5
5
5
5
5
5
5
5
5
5
5
5
5
5
5
5
5
5
5
5
5
5
5
5
5
5
5
5
5
5
5
5
5
5
5
5
5
5
5
5
5
5
5
5
5
5
5
5
5
5
5
5
5
5
5
5
5
5
5
5
5
5
5
5
5
5
5
5
5
5
5
5
5
5
5
5
5
5
5
5
5
5
5
5
5
5
5
5
5
5
5
5
5
5
5
5
5
5
5
5
5
5
5
5
5
5
5
5
5
5
5
5
5
5
5
5
5
5
5
5
5
5
5
5
5
5
5
5
5
5
5
5
5
5
5
5
5
5
5
5
5
5
5
5
5
5
5
5
5
5
5
5
5
5
5
5
5
5
5
5
5
5
5
5
5
5
5
5
5
5
5
5
5
5
5
5
5
5
5
5
5
5
5
5
5
5
5
5
5
5
5
5
5
5
5
5
5
5
5
5
5
5
5
5
5
5
5
5
5
5
5
5
5
5
5
5
5
5
5
5
5
5
5
5
5
5
5
5
5
5
5
5
5
5
5
5
5
5
5
5
5
5
5
5
5
5
5
5
5
5
5
5
5
5
5
5
5
5
5
5
5
5
5
5
5
5
5
5
5
5
5
5
5
5
5
5
5
5
5
5
5

CELL_DATA 486
SCALARS cell_data_0 double
LOOKUP_TABLE default
1.25106540706e-06
1.11112541625e-06
5.74631797018e-07
4.9642725342e-08
3.21922607244e-08
7.65389225484e-08
3.09249139489e-08
6.94897673523e-08
3.14286182068e-08
6.54920508637e-08
2.88569723929e-08
6.83340006818e-08
1.1998200417e-08
7.86298139813e-08
1.97974440707e-08
7.79336772492e-08
4.05348971193e-08
4.08233156178e-08
2.81630487464e-08
6.30181923911e-08
5.47287582735e-08
5.51762625234e-08
8.43716961418e-08
6.84607226136e-08
3.86752787938e-08
3.10733400739e-08
2.60808929131e-08
2.72235853577e-09
4.87966266374e-08
2.32672951123e-08
8.32060315207e-08
1.35018139222e-08
1.87799672392e-08
2.01099923234e-08
1.00000569733e-07
4.50829420731e-08
6.76327438397e-08
7.01308098581e-08
7.07101386703e-09
3.30772306796e-08
3.00597792138e-08
5.13260192135e-07
1.31399890377e-06
1.93593337193e-06
1.42528847566e-09
1.4596950363e-09
1.62868909736e-09
1.54369374942e-09
9.18671312256e-09
1.45495150407e-09
7.10119311633e-10
4.43676526433e-10
6.04467880872e-10
9.63568168499e-11
4.76572073517e-10
9.0006656254e-10
1.07843110776e-09
4.56327529819e-10
9.71968949335e-10
3.283585437e-09
9.38538233635e-09
6.89547751096e-09
7.46124178855e-09
1.11084461406e-09
1.4693704089e-09
1.49816163166e-10
5.87768989167e-10
2.26716119711e-10
4.54873536932e-12
6.95162961633e-10
3.36296782266e-10
1.89343957241e-11
5.06652230161e-10
1.5593712279e-10
6.76864863603e-10
2.18278476853e-10
3.81081049245e-10
6.26736976237e-10
2.19186986511e-09
4.94274267004e-09
4.60404636475e-09
2.2173350013e-09
2.71781045983e-09
7.12197017713e-10
9.81971882154e-11
4.25229063629e-10
1.19188873876e-10
6.36507463367e-10
1.6970544717e-11
3.49027476742e-10
2.86799914438e-10
3.51548011162e-10
2.5584546927e-10
1.50981107033e-10
6.11972222855e-10
2.80259073169e-10
3.71204433313e-10
6.76377812702e-10
4.14149956811e-10
1.14304035277e-10
4.19623575352e-10
1.24834772382e-09
3.00886481318e-10
2.63850464919e-09
4.59803072471e-09
6.68368944188e-10
2.95898534652e-11
5.48236731657e-10
4.61519550503e-11
2.17044447811e-10
8.1248755812e-10
2.82897093095e-10
1.51278596789e-11
8.68291836052e-11
5.70519547614e-10
5.26670513244e-10
3.55922448442e-10
3.9815041051e-10
5.34788820634e-10
2.61021384548e-10
6.63419865774e-10
3.47097657973e-10
6.12697644015e-11
6.97246690651e-11
4.81983270619e-10
4.86520778002e-10
2.21942919413e-10
5.50943801034e-10
2.07595907433e-10
2.11104674719e-09
1.75595278793e-09
1.18562071636e-09
1.77549761094e-09
8.8996929329e-10
1.23851688688e-09
2.73428030149e-10
3.90986814836e-10
9.07785431845e-11
1.92860155887e-10
9.01354181313e-11
3.26028117429e-10
9.99941981152e-11
1.07001116513e-10
4.76601333849e-11
2.72499765068e-10
8.72245099691e-10
7.97956496517e-10
2.604724642e-10
4.02399260098e-10
1.18095632683e-10
4.12753626847e-10
8.0807684543e-11
1.11559795385e-10
1.00904838791e-10
1.87616777432e-10
1.52385759056e-10
5.98626034802e-10
1.1241878659e-09
7.85069419634e-10
1.1628277837e-09
3.59740728164e-09
5.35099449202e-10
1.61482154311e-09
7.56476016449e-11
1.00873334364e-09
1.13860750612e-09
6.49467784764e-11
3.70444979926e-10
8.1644394777e-11
2.30210250463e-10
9.36100453154e-11
1.15435268106e-10
1.60296560429e-10
4.02166589041e-10
4.02283573678e-10
3.06796380505e-10
4.21254109976e-10
2.2826646738e-10
3.69219596292e-12
2.00133927977e-10
1.35816219025e-10
4.83934903923e-10
2.81415571439e-11
7.69009323549e-10
2.2864280278e-09
2.15272867264e-09
8.56273957984e-10
3.37156526087e-10
5.73970054656e-09
2.52732952739e-10
2.14821987039e-09
3.88289994333e-09
4.20284048376e-10
1.12102062327e-09
1.06831519695e-10
6.88533983357e-10
6.21012861665e-10
2.61950447177e-10
2.19477654432e-10
1.96226204824e-10
1.62712978412e-10
2.34084513716e-10
4.37770071016e-11
4.03549266575e-10
2.86868431484e-10
3.76489189087e-10
2.25667120998e-10
2.20123218741e-10
9.69598992001e-12
2.76251927584e-10
6.46980044532e-11
3.54358069553e-10
1.69437124185e-10
1.16493426108e-10
2.6411177159e-09
1.69196281962e-09
3.2453529657e-09
4.31498072575e-09
2.9139975372e-10
4.43302550677e-09
5.69591526695e-10
1.39279117093e-09
8.82576021352e-11
2.86946969693e-10
3.65560905245e-12
4.81250978089e-10
1.75728760912e-11
4.28136287972e-10
1.36031380034e-10
1.79088835122e-10
4.92324975446e-12
5.17936371886e-11
2.29747164073e-10
5.39949324101e-10
3.28758254939e-10
4.7612993189e-10
8.96739957795e-11
4.79869176699e-10
4.40892205446e-11
1.43875311072e-09
2.23228327127e-10
2.80414962357e-09
1.66929281685e-09
6.82124845318e-09
2.44222437452e-10
3.2042486626e-09
9.16187577593e-10
9.56679679561e-10
2.89659449584e-10
3.4585959981e-10
1.12667480451e-11
3.0076936686e-10
1.92182704919e-10
1.96234612441e-10
7.85644397441e-11
2.30425447492e-10
9.18462538034e-11
2.42748840532e-10
8.01057595862e-11
1.0841776025e-10
3.89302368903e-10
4.93169696596e-10
1.24316512778e-09
3.77523641234e-09
2.39901621168e-09
6.63846025424e-09
9.38591305908e-10
4.96241736644e-09
9.75936878021e-10
1.45520804441e-09
1.61651783275e-11
3.30875841986e-10
7.61975046799e-11
1.22430339193e-09
4.99727818424e-10
8.10729384545e-10
6.66474770614e-10
1.0476952232e-09
1.89335563845e-09
5.03397926998e-10
3.17999716084e-09
2.76857036006e-10
7.08556606877e-09
1.14794791533e-08
2.11913756584e-09
4.76920939175e-09
1.00062588827e-09
1.24646897636e-09
3.6768298096e-10
3.30264338511e-09
1.59304981259e-09
1.30217378259e-09
8.65648255591e-10
2.81584124907e-09
9.99342563199e-09
6.39852484494e-09
1.30914516793e-08
2.78641467791e-09
3.89468947112e-09
1.92069734467e-09
2.0309082614e-09
9.19320703663e-09
4.85415799527e-09
3.02723521288e-09
6.17216357203e-09
3.47787683996e-08
5.8150284965e-09
3.95899907906e-08
1.07621542029e-08
2.95457327665e-08
3.14993007797e-08
4.69953517158e-08
1.44497458367e-08
6.78335380379e-08
3.67157480243e-09
2.33881117476e-08
3.62245512101e-08
4.42923367518e-08
2.87936894788e-08
2.40627669543e-08
2.28686502937e-08
1.78020512768e-08
6.88098112087e-09
9.55075088263e-09
8.31836454781e-09
4.59267432788e-08
6.69536611027e-09
1.59920038021e-08
1.04633280398e-07
3.53655688176e-08
4.98339298401e-09
2.69847365553e-08
1.1059080985e-07
1.90368854458e-08
5.69999371458e-08
3.64399960071e-09
5.7974424927e-09
1.74880517411e-09
6.76567718617e-09
3.66459955018e-09
2.49123612558e-08
3.23842819458e-08
5.88340532918e-09
2.17848635134e-08
5.58018148727e-09
2.93501995224e-08
1.08993788153e-09
2.67027774724e-08
1.57309757721e-10
2.09830879582e-08
4.13601819064e-09
3.05862316882e-08
1.31481548872e-07
1.12784633949e-06
1.33681189578e-06
1.81195665357e-06
1.54651812136e-06
1.89676255351e-07
6.56605904773e-09
1.35491712626e-07
1.55835382568e-07
3.85008560186e-07
2.98840073594e-07
3.69487841375e-07
2.88522711407e-07
2.86337321834e-07
7.91325634962e-08
1.02017349539e-07
6.69620570625e-08
3.01426979803e-08
1.21216815135e-08
4.96069393781e-08
1.13486505272e-08
6.28190732497e-08
1.23921358778e-08
8.6777152971e-08
5.43094289963e-08
8.290871906e-08
6.40662576519e-08
5.54420078446e-08
7.51173643545e-08
3.99704783067e-08
4.06592648257e-08
1.08125882307e-08
1.34051200506e-08
2.13424647778e-09
1.3309737946e-08
3.41624268783e-09
2.06428272193e-08
5.74110974252e-09
2.60742188333e-08
1.59964348892e-08
2.62722138489e-08
1.89166089699e-08
1.46284698718e-08
1.69824449142e-09
9.55044544345e-09
6.64585364847e-09
9.58900693498e-09
6.78007941303e-09
6.2651421269e-09
7.49281708687e-10
5.55797510754e-09
4.90556185592e-10
6.88931278977e-10
1.30150567323e-09
3.23297364966e-09
1.62404351298e-09
6.2489725848e-09
6.48523460265e-10
2.92338559388e-09
6.19938254023e-10
1.40029715585e-09
2.96441690911e-09
8.02105246399e-09
4.13869410719e-09
1.26472366378e-08
3.68150504207e-09
8.02523056381e-09
3.85624361334e-09
4.21163855292e-09
9.11187161912e-09
4.87647328661e-09
1.41023454433e-08
1.30458748411e-08
9.24204710049e-09
4.29696764739e-09
6.74717600011e-09
1.79580903363e-08
3.39320275652e-09
2.55138190061e-08
1.05406020769e-08
3.150970574e-09
3.55924278236e-08
7.69077071611e-09
3.13452491059e-08
6.28925121059e-09
2.45192995648e-08
2.48466929899e-09
2.4349713285e-08
2.08406717572e-08
1.39219362304e-08
1.32669719028e-07
1.6497225526e-07
2.74014677353e-07
6.3113871155e-07
8.63573110035e-07
4.83062336852e-08
3.19701140839e-07
1.00708384914e-06
4.38466787085e-07
2.48495006493e-07
2.5551090079e-08
1.74521747463e-07
1.93322045693e-08
9.62606904313e-08
3.29198505658e-08
5.50019755743e-08
2.09989146424e-08
5.82194440341e-09
1.31998919194e-08
7.27790870927e-09
3.36540134909e-08
1.24918178817e-08
9.91013206744e-09
2.75028805234e-08
5.6831350607e-09
3.2473006948e-08
1.7119966021e-08
3.48160561349e-08
4.15794838069e-07
3.88340616695e-08
2.58752642125e-07
2.0776397747e-07
1.10704915987e-07
1.17483635577e-07
2.75722314708e-07
9.36653139656e-08
1.02281614015e-07
4.83181816715e-08
9.46458993051e-07
6.38155886348e-08
1.38914694783e-07
2.98837768525e-07
3.15114505535e-07
4.50462877677e-08

