# vtk DataFile Version 3.0
File Name: Molecule/methanol/methanol_9.0-0.vtk
ASCII
DATASET UNSTRUCTURED_GRID
FIELD FieldData 1
TIME 1 1 double
0.0
POINTS 410 double
1.611 0.0 -0.359
1.569 -0.375 -0.355
1.403 0.0 -0.933
1.365 -0.341 -0.929
1.445 -0.731 -0.342
1.252 -0.666 -0.918
1.245 -1.05 -0.322
1.07 -0.957 -0.9
0.98 -1.317 -0.296
0.828 -1.2 -0.876
0.662 -1.518 -0.264
0.538 -1.382 -0.847
0.308 -1.642 -0.229
0.216 -1.496 -0.815
-0.065 -1.684 -0.192
-0.124 -1.534 -0.781
-0.438 -1.642 -0.155
-0.464 -1.496 -0.747
-0.793 -1.518 -0.119
-0.787 -1.382 -0.715
-1.11 -1.317 -0.088
-1.076 -1.2 -0.686
-1.376 -1.05 -0.061
-1.318 -0.957 -0.662
-1.576 -0.731 -0.042
-1.5 -0.666 -0.644
-1.7 -0.375 -0.029
-1.613 -0.341 -0.633
-1.742 0.0 -0.025
-1.651 0.0 -0.629
-1.7 0.375 -0.029
-1.613 0.341 -0.633
-1.576 0.731 -0.042
-1.5 0.666 -0.644
-1.376 1.05 -0.061
-1.318 0.957 -0.662
-1.11 1.317 -0.088
-1.076 1.2 -0.686
-0.793 1.518 -0.119
-0.787 1.382 -0.715
-0.438 1.642 -0.155
-0.464 1.496 -0.747
-0.065 1.684 -0.192
-0.124 1.534 -0.781
0.308 1.642 -0.229
0.216 1.496 -0.815
0.662 1.518 -0.264
0.538 1.382 -0.847
0.98 1.317 -0.296
0.828 1.2 -0.876
1.245 1.05 -0.322
1.07 0.957 -0.9
1.445 0.731 -0.342
1.252 0.666 -0.918
1.569 0.375 -0.355
1.365 0.341 -0.929
1.907 0.0 0.656
1.874 0.347 0.656
1.874 0.173 0.956
1.874 -0.173 0.956
1.874 -0.347 0.656
1.874 -0.173 0.355
1.874 0.173 0.355
1.779 0.59 0.997
1.779 0.341 1.246
1.779 -0.0 1.337
1.779 -0.341 1.246
1.779 -0.59 0.997
1.779 -0.682 0.656
1.779 -0.59 0.315
1.779 -0.341 0.065
1.779 -0.0 -0.026
1.779 0.341 0.065
1.779 0.59 0.315
1.779 0.682 0.656
1.624 0.934 0.995
1.624 0.761 1.294
1.624 0.497 1.516
1.624 0.173 1.634
1.624 -0.173 1.634
1.624 -0.497 1.516
1.624 -0.761 1.294
1.624 -0.934 0.995
1.624 -0.994 0.656
1.624 -0.934 0.316
1.624 -0.761 0.017
1.624 0.761 0.017
1.624 0.934 0.316
1.624 0.994 0.656
1.414 1.224 0.999
1.414 1.086 1.316
1.414 0.868 1.585
1.414 0.585 1.785
1.414 0.259 1.901
1.414 -0.087 1.924
1.414 -0.426 1.854
1.414 -0.733 1.694
1.414 -0.986 1.458
1.414 -1.166 1.162
1.414 -1.26 0.829
1.414 -1.26 0.482
1.414 -1.166 0.149
1.414 -0.986 -0.147
1.414 1.086 -0.005
1.414 1.224 0.313
1.414 1.272 0.656
1.156 1.466 1.003
1.156 1.346 1.332
1.156 1.154 1.624
1.156 0.899 1.864
1.156 0.597 2.039
1.156 0.262 2.139
1.156 -0.088 2.159
1.156 -0.432 2.099
1.156 -0.753 1.96
1.156 -1.034 1.751
1.156 -1.258 1.483
1.156 -1.415 1.171
1.156 -1.496 0.83
1.156 -1.496 0.481
1.156 -1.415 0.14
1.156 1.346 -0.02
1.156 1.466 0.308
1.156 1.506 0.656
0.86 1.655 0.996
0.86 1.553 1.322
0.86 1.387 1.621
0.86 1.164 1.88
0.86 0.894 2.089
0.86 0.587 2.24
0.86 0.256 2.326
0.86 -0.086 2.343
0.86 -0.424 2.291
0.86 -0.744 2.173
0.86 -1.034 1.992
0.86 -1.282 1.756
0.86 -1.477 1.476
0.86 -1.612 1.161
0.86 -1.681 0.827
0.86 -1.681 0.485
0.86 -1.612 0.15
0.86 1.553 -0.011
0.86 1.655 0.315
0.86 1.69 0.656
0.536 1.783 0.999
0.536 1.685 1.33
0.536 1.527 1.637
0.536 1.314 1.908
0.536 1.053 2.134
0.536 0.754 2.307
0.536 0.428 2.42
0.536 0.086 2.469
0.536 -0.258 2.453
0.536 -0.594 2.371
0.536 -0.908 2.228
0.536 -1.189 2.028
0.536 -1.427 1.778
0.536 -1.614 1.487
0.536 -1.742 1.167
0.536 -1.807 0.828
0.536 -1.807 0.483
0.536 -1.742 0.144
0.536 1.685 -0.019
0.536 1.783 0.312
0.536 1.815 0.656
0.193 1.847 1.001
0.193 1.753 1.335
0.193 1.598 1.645
0.193 1.389 1.922
0.193 1.133 2.155
0.193 0.838 2.338
0.193 0.514 2.463
0.193 0.173 2.527
0.193 -0.173 2.527
0.193 -0.514 2.463
0.193 -0.838 2.338
0.193 -1.133 2.155
0.193 -1.389 1.922
0.193 -1.598 1.645
0.193 -1.753 1.335
0.193 -1.847 1.001
0.193 -1.879 0.656
0.193 -1.847 0.31
0.193 -1.753 -0.023
0.193 1.753 -0.023
0.193 1.847 0.31
0.193 1.879 0.656
-0.155 1.847 1.001
-0.155 1.753 1.335
-0.155 1.598 1.645
-0.155 1.389 1.922
-0.155 1.133 2.155
-0.155 0.838 2.338
-0.155 0.514 2.463
-0.155 0.173 2.527
-0.155 -0.173 2.527
-0.155 -0.514 2.463
-0.155 -0.838 2.338
-0.155 -1.133 2.155
-0.155 -1.389 1.922
-0.155 -1.598 1.645
-0.155 -1.753 1.335
-0.155 -1.847 1.001
-0.155 -1.879 0.656
-0.155 -1.847 0.31
-0.155 1.847 0.31
-0.155 1.879 0.656
-0.498 1.815 0.656
-0.498 1.783 0.999
-0.498 1.685 1.33
-0.498 1.527 1.637
-0.498 1.314 1.908
-0.498 1.053 2.134
-0.498 0.754 2.307
-0.498 0.428 2.42
-0.498 0.086 2.469
-0.498 -0.258 2.453
-0.498 -0.594 2.371
-0.498 -0.908 2.228
-0.498 -1.189 2.028
-0.498 -1.427 1.778
-0.498 -1.614 1.487
-0.498 -1.742 1.167
-0.498 -1.807 0.828
-0.498 -1.807 0.483
-0.498 -1.742 0.144
-0.498 1.783 0.312
-0.822 1.69 0.656
-0.822 1.655 0.996
-0.822 1.553 1.322
-0.822 1.387 1.621
-0.822 1.164 1.88
-0.822 0.894 2.089
-0.822 0.587 2.24
-0.822 0.256 2.326
-0.822 -0.086 2.343
-0.822 -0.424 2.291
-0.822 -0.744 2.173
-0.822 -1.034 1.992
-0.822 -1.282 1.756
-0.822 -1.477 1.476
-0.822 -1.612 1.161
-0.822 -1.681 0.827
-0.822 -1.681 0.485
-0.822 -1.612 0.15
-0.822 1.655 0.315
-1.118 1.506 0.656
-1.118 1.466 1.003
-1.118 1.346 1.332
-1.118 1.154 1.624
-1.118 0.899 1.864
-1.118 0.597 2.039
-1.118 0.262 2.139
-1.118 -0.088 2.159
-1.118 -0.432 2.099
-1.118 -0.753 1.96
-1.118 -1.034 1.751
-1.118 -1.258 1.483
-1.118 -1.415 1.171
-1.118 -1.496 0.83
-1.118 -1.496 0.481
-1.118 -1.415 0.14
-1.118 1.466 0.308
-1.376 1.272 0.656
-1.376 1.224 0.999
-1.376 1.086 1.316
-1.376 0.868 1.585
-1.376 0.585 1.785
-1.376 0.259 1.901
-1.376 -0.087 1.924
-1.376 -0.426 1.854
-1.376 -0.733 1.694
-1.376 -0.986 1.458
-1.376 -1.166 1.162
-1.376 -1.26 0.829
-1.376 -1.26 0.482
-1.376 -1.166 0.149
-1.376 1.224 0.313
-1.586 0.994 0.656
-1.586 0.934 0.995
-1.586 0.761 1.294
-1.586 0.497 1.516
-1.586 0.173 1.634
-1.586 -0.173 1.634
-1.586 -0.497 1.516
-1.586 -0.761 1.294
-1.586 -0.934 0.995
-1.586 -0.994 0.656
-1.586 -0.934 0.316
-1.586 0.934 0.316
-1.741 0.682 0.656
-1.741 0.59 0.997
-1.741 0.341 1.246
-1.741 -0.0 1.337
-1.741 -0.341 1.246
-1.741 -0.59 0.997
-1.741 -0.682 0.656
-1.741 -0.59 0.315
-1.741 0.59 0.315
-1.836 0.347 0.656
-1.836 0.173 0.956
-1.836 -0.173 0.956
-1.836 -0.347 0.656
-1.836 -0.173 0.355
-1.836 0.173 0.355
-1.868 -0.0 0.656
1.263 -0.333 -1.314
1.08 -0.577 -1.501
1.08 -0.262 -1.658
1.263 -0.0 -1.403
1.08 0.088 -1.69
1.263 0.333 -1.314
1.08 0.427 -1.594
1.08 0.707 -1.382
1.08 -0.814 -1.241
0.837 -1.081 -1.258
0.837 -0.88 -1.553
0.837 -0.6 -1.777
0.837 -0.267 -1.907
0.837 0.09 -1.934
0.837 0.438 -1.854
0.837 0.748 -1.675
0.837 0.992 -1.413
1.08 0.892 -1.083
0.837 1.147 -1.091
0.546 -1.286 -1.246
0.546 -1.119 -1.55
0.546 -0.882 -1.803
0.546 -0.589 -1.989
0.546 -0.259 -2.096
0.546 0.087 -2.117
0.546 0.427 -2.052
0.546 0.741 -1.905
0.546 1.008 -1.684
0.546 1.212 -1.403
0.546 1.34 -1.081
0.222 -1.406 -1.249
0.222 -1.25 -1.56
0.222 -1.027 -1.826
0.222 -0.748 -2.033
0.222 -0.429 -2.171
0.222 -0.087 -2.231
0.222 0.26 -2.211
0.222 0.593 -2.111
0.222 0.894 -1.938
0.222 1.146 -1.699
0.222 1.337 -1.409
0.222 1.456 -1.082
-0.12 -1.497 -1.079
-0.12 -1.383 -1.403
-0.12 -1.2 -1.694
-0.12 -0.957 -1.937
-0.12 -0.666 -2.12
-0.12 -0.342 -2.234
-0.12 0.0 -2.272
-0.12 0.342 -2.234
-0.12 0.666 -2.12
-0.12 0.957 -1.937
-0.12 1.2 -1.694
-0.12 1.383 -1.403
-0.12 1.497 -1.079
-0.461 -1.406 -1.249
-0.461 -1.25 -1.56
-0.461 -1.027 -1.826
-0.461 -0.748 -2.033
-0.461 -0.429 -2.171
-0.461 -0.087 -2.231
-0.461 0.26 -2.211
-0.461 0.593 -2.111
-0.461 0.894 -1.938
-0.461 1.146 -1.699
-0.461 1.337 -1.409
-0.461 1.456 -1.082
-0.786 -1.372 -0.911
-0.786 -1.286 -1.246
-0.786 -1.119 -1.55
-0.786 -0.882 -1.803
-0.786 -0.589 -1.989
-0.786 -0.259 -2.096
-0.786 0.087 -2.117
-0.786 0.427 -2.052
-0.786 0.741 -1.905
-0.786 1.008 -1.684
-0.786 1.212 -1.403
-0.786 1.34 -1.081
-1.077 -1.187 -0.916
-1.077 -1.081 -1.258
-1.077 -0.88 -1.553
-1.077 -0.6 -1.777
-1.077 -0.267 -1.907
-1.077 0.09 -1.934
-1.077 0.438 -1.854
-1.077 0.748 -1.675
-1.077 0.992 -1.413
-1.077 1.147 -1.091
-1.32 -0.941 -0.913
-1.32 -0.814 -1.241
-1.32 -0.577 -1.501
-1.32 -0.262 -1.658
-1.32 0.088 -1.69
-1.32 0.427 -1.594
-1.32 0.707 -1.382
-1.32 0.892 -1.083
-1.503 -0.577 -1.07
-1.503 -0.333 -1.314
-1.503 -0.0 -1.403
-1.503 0.333 -1.314
-1.503 0.577 -1.07
-1.616 -0.171 -1.033
-1.616 0.171 -1.033

CELLS 816 3264
3 0 1 2
3 2 1 3
3 1 4 3
3 3 4 5
3 4 6 5
3 5 6 7
3 6 8 7
3 7 8 9
3 8 10 9
3 9 10 11
3 10 12 11
3 11 12 13
3 12 14 13
3 13 14 15
3 14 16 15
3 15 16 17
3 16 18 17
3 17 18 19
3 18 20 19
3 19 20 21
3 20 22 21
3 21 22 23
3 22 24 23
3 23 24 25
3 24 26 25
3 25 26 27
3 26 28 27
3 27 28 29
3 28 30 29
3 29 30 31
3 30 32 31
3 31 32 33
3 32 34 33
3 33 34 35
3 34 36 35
3 35 36 37
3 36 38 37
3 37 38 39
3 38 40 39
3 39 40 41
3 40 42 41
3 41 42 43
3 42 44 43
3 43 44 45
3 44 46 45
3 45 46 47
3 46 48 47
3 47 48 49
3 48 50 49
3 49 50 51
3 50 52 51
3 51 52 53
3 52 54 53
3 53 54 55
3 54 0 55
3 55 0 2
3 56 57 58
3 56 58 59
3 56 59 60
3 56 60 61
3 56 61 62
3 56 62 57
3 58 57 63
3 58 63 64
3 58 64 65
3 59 58 65
3 59 65 66
3 59 66 67
3 60 59 67
3 60 67 68
3 60 68 69
3 61 60 69
3 61 69 70
3 61 70 71
3 62 61 71
3 62 71 72
3 62 72 73
3 57 62 73
3 57 73 74
3 57 74 63
3 63 74 75
3 63 75 76
3 64 63 76
3 64 76 77
3 64 77 78
3 65 64 78
3 65 78 79
3 66 65 79
3 66 79 80
3 66 80 81
3 67 66 81
3 67 81 82
3 68 67 82
3 68 82 83
3 68 83 84
3 69 68 84
3 69 84 85
3 70 69 85
3 73 72 86
3 73 86 87
3 74 73 87
3 74 87 88
3 74 88 75
3 75 88 89
3 75 89 90
3 76 75 90
3 76 90 91
3 77 76 91
3 77 91 92
3 78 77 92
3 78 92 93
3 78 93 94
3 79 78 94
3 79 94 95
3 80 79 95
3 80 95 96
3 81 80 96
3 81 96 97
3 81 97 98
3 82 81 98
3 82 98 99
3 83 82 99
3 83 99 100
3 84 83 100
3 84 100 101
3 85 84 101
3 85 101 102
3 87 86 103
3 87 103 104
3 88 87 104
3 88 104 105
3 88 105 89
3 89 105 106
3 89 106 107
3 90 89 107
3 90 107 108
3 91 90 108
3 91 108 109
3 92 91 109
3 92 109 110
3 93 92 110
3 93 110 111
3 94 93 111
3 94 111 112
3 94 112 113
3 95 94 113
3 95 113 114
3 96 95 114
3 96 114 115
3 97 96 115
3 97 115 116
3 98 97 116
3 98 116 117
3 99 98 117
3 99 117 118
3 99 118 119
3 100 99 119
3 100 119 120
3 101 100 120
3 104 103 121
3 104 121 122
3 105 104 122
3 105 122 123
3 105 123 106
3 106 123 124
3 106 124 125
3 107 106 125
3 107 125 126
3 108 107 126
3 108 126 127
3 109 108 127
3 109 127 128
3 110 109 128
3 110 128 129
3 111 110 129
3 111 129 130
[...]
CELL_DATA 816
SCALARS cell_data_0 double
LOOKUP_TABLE default
2.7049871352e-06
1.92810139336e-06
8.44303782695e-06
7.24594788571e-07
3.8491690703e-07
2.67544341161e-07
6.1418577684e-08
5.82584844363e-08
1.24976864803e-08
3.75311610175e-10
1.59849177041e-09
5.24843477406e-09
3.09900030582e-08
1.58879238116e-08
5.40014515181e-08
3.87223030577e-08
8.44797130734e-08
4.20448623977e-08
9.14021806084e-08
4.490861737e-08
1.08597419912e-07
5.02770739218e-08
1.09647067225e-07
5.54125832046e-08
1.16108344839e-07
6.88707526819e-08
1.25690595812e-07
6.791298388e-08
1.20932213919e-07
6.9870451381e-08
1.30467143042e-07
7.77377757614e-08
1.27733481801e-07
7.76549930917e-08
1.26918032811e-07
7.78330667876e-08
1.21734699307e-07
7.26176755793e-08
1.12080973003e-07
6.3618090508e-08
1.0492147908e-07
5.97796832043e-08
9.72896644636e-08
5.30528359564e-08
7.69951019915e-08
4.40041176636e-08
4.69366435766e-08
4.08312877258e-08
1.29230939873e-08
6.3968872039e-08
1.56501431894e-08
2.15092202775e-07
2.80555930086e-07
6.11093692046e-07
1.06600900624e-06
9.91122005414e-07
1.19214273257e-09
8.47494996017e-10
1.53212632642e-09
1.31121986848e-09
3.90438377847e-09
8.66410302853e-10
8.27793030225e-10
1.3183642685e-09
2.566435946e-10
1.38388390802e-09
1.49010296025e-09
2.78084716048e-10
1.57550217243e-09
6.94213197983e-09
2.40322413015e-08
1.51616521175e-08
5.11623662001e-08
1.74843572908e-08
1.1897193173e-08
1.65390914145e-08
1.79076360303e-08
1.02165674553e-08
7.14616470939e-09
7.2615515034e-10
3.03984225081e-09
5.91588121591e-09
3.76630709905e-09
3.93248872238e-09
2.00320741719e-09
1.56304769367e-10
1.38139666032e-09
3.39401867687e-09
4.09522136485e-09
5.69413364269e-09
2.79088468595e-09
1.54643411006e-09
5.06043780287e-09
4.07454482168e-09
2.22745483725e-08
4.721914955e-08
4.12060779762e-08
6.34066143521e-08
2.85006322475e-08
1.75397097989e-08
1.153602069e-08
3.49785488328e-09
2.58404323126e-09
7.94597077285e-09
1.03624217643e-08
8.82672865537e-09
8.90829727701e-09
6.61783819338e-09
5.92491603306e-09
2.46341050205e-09
1.59583061678e-09
5.16461107237e-10
2.85460282916e-09
4.03340570668e-09
6.17789360333e-09
7.14589846435e-09
7.81159534307e-09
9.19722875753e-09
9.69499179495e-09
6.82128438116e-09
5.28572590596e-09
9.16590919693e-10
5.03398585687e-10
1.96939511388e-08
3.59570667865e-08
4.21201954235e-08
1.18592857967e-08
1.57093285537e-08
6.19798768132e-09
1.71143093714e-09
3.61575187595e-09
8.12173673291e-09
1.38154375559e-08
1.52146789955e-08
1.34945359926e-08
1.32635374914e-08
1.13831505045e-08
1.02830428207e-08
7.66784540581e-09
6.44371254583e-09
3.85809846839e-09
2.80652527077e-09
4.67861786751e-10
1.89249165496e-09
4.20791848101e-09
6.19094477446e-09
7.93298084186e-09
9.46285662529e-09
1.11903338268e-08
1.16912924947e-08
1.30658974165e-08
1.2123211321e-08
1.3136510274e-08
9.23434956982e-09
9.45688623866e-09
6.91284888034e-09
2.94032750402e-09
1.34612752884e-09
1.28958988464e-08
1.60946828818e-09
5.21632921185e-09
7.59892994502e-09
1.21371064215e-08
1.45658438803e-08
1.93851831068e-08
1.92476280274e-08
1.8116593438e-08
1.66637815762e-08
1.52400729928e-08
1.34050832648e-08
1.15350171133e-08
9.73433191812e-09
7.64107340045e-09
6.18176532075e-09
3.71840115923e-09
2.28177716987e-09
3.02069949474e-10
2.04709076234e-09
4.24553653402e-09
5.90085616697e-09
7.62701477845e-09
9.5597360898e-09
1.10250886481e-08
1.29809050836e-08
1.40273846645e-08
1.55871927071e-08
1.64479187597e-08
1.66138484556e-08
1.67698381675e-08
1.38597801579e-08
1.31336873969e-08
1.00958635059e-08
7.43611986031e-09
2.26476288726e-09
2.15853356917e-10
1.00011033375e-08
1.46516621629e-08
1.64057881021e-08
1.86990259395e-08
1.97771425569e-08
2.37263130027e-08
2.36931136251e-08
2.15051951611e-08
2.0400134163e-08
1.82575860655e-08
1.65470383982e-08
1.44027228802e-08
1.26132966197e-08
1.0470530923e-08
8.57470674773e-09
6.61965585808e-09
4.76726405667e-09
2.96949626845e-09
9.71951702431e-10
9.06992470543e-10
2.82576603558e-09
4.62701051905e-09
6.64132559047e-09
8.42181629563e-09
1.03076662919e-08
1.19578485995e-08
1.39483274584e-08
1.52922639812e-08
1.72730795157e-08
1.79980708329e-08
2.00244226099e-08
1.92566224167e-08
2.05005822433e-08
1.70268300655e-08
1.64163907295e-08
1.03674694638e-08
7.80631162535e-09
2.3864130899e-09
3.46932409672e-09
1.61681135628e-08
2.11197828971e-08
2.23675783626e-08
2.49801484821e-08
2.51519873333e-08
2.85205520541e-08
2.77978204703e-08
2.59031029251e-08
2.37569386148e-08
2.1575299275e-08
1.94029275911e-08
1.74172329203e-08
1.49993747164e-08
1.30895920915e-08
1.04542527059e-08
8.58915988879e-09
6.39734371621e-09
4.64235565182e-09
2.52155554696e-09
5.25947823588e-10
1.58581837545e-09
3.27339582598e-09
5.48612748513e-09
7.3088388538e-09
9.59767097244e-09
1.11780629297e-08
1.34867476562e-08
1.49901746753e-08
1.73606498577e-08
1.86589433251e-08
2.08614525534e-08
2.15982672805e-08
2.3177405108e-08
2.27727820911e-08
2.25468669141e-08
1.9201467162e-08
1.29488202551e-08
6.70326901808e-09
9.94768779716e-09
1.4428169691e-08
1.64855663552e-08
1.84455257348e-08
2.35997209041e-08
2.80087497004e-08
2.9864846091e-08
2.9685457163e-08
3.2311542114e-08
3.07350071765e-08
2.89540649117e-08
2.65258869376e-08
2.46077822872e-08
2.15164177896e-08
1.9677562476e-08
1.64156417543e-08
1.4711970146e-08
1.17852080701e-08
1.02310741098e-08
6.98304673794e-09
5.51836113346e-09
2.62716903436e-09
1.0626597962e-09
1.6646171946e-09
2.79068977283e-09
5.97331185136e-09
7.16010254785e-09
1.03908016666e-08
1.14500259514e-08
1.47077733149e-08
1.57001162551e-08
1.89723395281e-08
1.9780974935e-08
2.28418696891e-08
2.32429818939e-08
2.52874738939e-08
2.51232992284e-08
2.43419264062e-08
2.2586211803e-08
1.55130353961e-08
9.25136139534e-09
2.78152544355e-09
6.91001767225e-09
2.19298423677e-08
3.03419253582e-08
3.31276452602e-08
3.4141474658e-08
2.10321399147e-08
1.01651234927e-08
2.01048693875e-08
9.32432801617e-09
1.72495096783e-08
7.89216003455e-09
1.42691878911e-08
6.06014062865e-09
1.06855750823e-08
4.41174909758e-09
7.87905298188e-09
3.12672675747e-09
4.62111905118e-09
1.17446992007e-09
1.51147833317e-09
2.87823666486e-11
1.15330657378e-09
1.46546455093e-09
4.1469116295e-09
3.0786175728e-09
7.16539556797e-09
4.47505706621e-09
1.0109311129e-08
6.00479545726e-09
1.30862090269e-08
7.50563956111e-09
1.58480427533e-08
8.82866348597e-09
1.78307397672e-08
9.50187787308e-09
1.73052180419e-08
8.64628191982e-09
1.13495823509e-08
3.01171996346e-09
1.44657267216e-09
3.19455925176e-09
8.2672054814e-09
1.99088756011e-08
1.2359712609e-09
1.39936051614e-09
8.66659474894e-10
5.70631080697e-10
4.10566208203e-10
3.40919477415e-10
1.75512754166e-10
7.37091917717e-11
1.85214469949e-10
1.87698530696e-11
1.53367490845e-10
9.88482677485e-11
1.58535081356e-10
7.89177437474e-11
2.39372007557e-10
1.38463903444e-12
1.02540432116e-10
3.87698262328e-11
1.0032103455e-10
6.31899765332e-12
8.65055936037e-11
3.82036242564e-13
5.10629980656e-11
1.94145553441e-11
3.17048288545e-11
7.27372246318e-11
7.73200643013e-11
3.98588520425e-10
2.74884474806e-10
8.6564783997e-10
9.45867037653e-10
1.90016805342e-09
2.15550440045e-09
1.33871358144e-09
3.87129984658e-09
2.85921139811e-09
7.83037591068e-10
1.58595287464e-09
1.64424159087e-09
7.6392189779e-10
6.01225593786e-10
4.05315488453e-10
2.75987525638e-10
3.60433528161e-10
1.19358900153e-10
2.22647383803e-10
1.09660140488e-10
2.05004274357e-10
6.09942729099e-11
1.95592830611e-10
1.3346145197e-10
3.83888607898e-11
9.55413160549e-11
1.00651904908e-10
2.481586342e-10
1.19952775022e-10
2.56093784009e-10
1.99399775553e-11
3.06431051044e-10
2.05300351661e-10
4.73057110588e-10
5.24623155124e-10
6.52277768826e-10
8.52130669708e-10
1.05152699231e-09
2.17431562718e-09
2.31641800924e-09
2.58126683973e-09
5.01897619665e-09
3.43228791717e-09
1.00796556137e-09
1.94284384674e-09
1.75926929889e-09
9.04384719637e-10
7.01584975188e-10
3.93123874094e-10
2.89158718368e-10
3.16992811159e-10
1.32245984205e-10
2.85642712189e-10
7.55151397813e-11
2.47572760975e-10
1.21251967234e-10
2.76658322818e-10
3.46336324238e-10
3.29760288054e-11
2.2790242822e-10
9.68951443393e-11
2.96906131235e-10
2.22569747097e-10
2.79303220748e-10
3.40613661516e-10
4.71207804159e-10
8.77608096391e-10
1.15817163612e-09
2.42460964846e-09
3.08795308992e-09
4.1208327645e-09
5.52352858546e-09
3.60406712225e-09
1.60568373457e-09
2.0840794155e-09
1.8529289942e-09
8.0336166357e-10
5.87936021463e-10
4.49826418148e-10
2.66306169683e-10
3.63160240754e-10
1.06405992951e-10
2.39538090965e-10
3.31478875041e-10
2.96167828169e-10
4.47931153566e-10
1.4733309012e-10
3.2797535931e-10
2.64731688585e-10
2.61473198197e-10
4.38381986795e-10
7.554078306e-10
7.20496540361e-10
1.43473577591e-09
1.60708859143e-09
2.53401497707e-09
4.90032382836e-09
3.91855886844e-09
1.82930767341e-09
2.06874658532e-09
1.91786506462e-09
6.98409840952e-10
7.35245040853e-10
3.68503514469e-10
3.7135320683e-10
6.00811461406e-10
7.32290700939e-10
5.1296693392e-10
3.86782723983e-10
4.96915958253e-10
7.73049887169e-10
7.35523917218e-10
1.79534359149e-09
1.81535854685e-09
2.52730591847e-09
4.35848855383e-09
4.33544035649e-09
2.41088225134e-09
1.96858676704e-09
2.09582748231e-09
6.94149565373e-10
8.65212453325e-10
1.26611405948e-09
7.8716745926e-10
6.36823859808e-10
2.26413520974e-09
2.09645490168e-09
2.92017890716e-09
3.50906195441e-09
3.70929264941e-09
3.01900886973e-09
1.27210395106e-09
1.24391401407e-09
1.37331452261e-09
2.23649496123e-09
2.84669451999e-09
2.2496988509e-09
2.7116954787e-08
2.1998889467e-08
2.57010705479e-08
2.2047910703e-08
2.69466343879e-08
1.72153843065e-08
2.36447422912e-08
2.27317512898e-08
1.13324073888e-08
3.47592365869e-09
6.89835389649e-09
6.20924517683e-09
5.56729199409e-09
1.20594572497e-08
1.72140337805e-08
9.65620943646e-09
1.97633502321e-08
1.80191793127e-08
8.09423369352e-09
5.52575087433e-09
1.55525780792e-08
2.92016817206e-08
1.83392633317e-08
1.82876169295e-08
5.98380960128e-09
6.59942041658e-09
7.15416371967e-09
5.49697261085e-09
1.18447023765e-09
7.28456266761e-09
3.87200805953e-06
5.83688937699e-06
4.53195063993e-06
3.16819308109e-06
2.94107740773e-08
3.13696943339e-08
3.14592911912e-08
1.77229343275e-08
1.41259219366e-08
6.85268489791e-09
1.49613397348e-09
1.32622711165e-09
2.14589160646e-09
5.06422732654e-10
1.62660875548e-09
3.23825867558e-09
2.72974171503e-09
1.00249311749e-08
3.5621290014e-09
1.50568943756e-08
2.66519592291e-08
3.1334166575e-08
2.99704585298e-08
2.04028028311e-08
1.93046260249e-08
2.40071288128e-08
1.95610081621e-08
2.3444006468e-08
1.79795913623e-08
2.30213113076e-08
1.6105557538e-08
6.65728692279e-06
4.74842715345e-06
5.60684897423e-06
8.23870207352e-06
4.92666145218e-06
2.28034435955e-06
1.19283658402e-05
1.82463944732e-05
4.5135014315e-06
7.32744651467e-06
3.46455832627e-06
6.015715974e-07
1.27909817413e-06
1.49994800472e-06
2.5227674676e-06
1.05152024193e-06
1.14789192735e-06
1.32984160661e-07
1.90721447243e-07
4.09516814538e-08
1.04217409999e-07
5.30902363449e-07
3.01421472983e-07
9.14731228931e-07
4.69942152738e-07
7.4346133875e-07
3.20800472275e-07
1.3493758533e-08
4.31651252234e-08
1.20174321831e-08
3.6039158512e-07
6.83643974335e-08
2.30197044169e-07
6.78903176718e-09
1.1170354117e-07
1.99078798552e-07
2.08693036093e-07
2.1491176405e-08
1.17903825747e-08
1.56571753791e-08
2.05993586932e-08
2.87390787692e-08
3.01836993737e-08
4.19155354172e-08
4.50206228953e-08
5.64780818445e-08
6.27189829178e-08
6.63264724114e-08
6.63243089745e-08
6.28443712913e-08
5.53432410598e-08
5.07848234691e-08
3.67428040251e-08
3.49046596182e-08
2.33519899666e-08
2.18545672027e-08
1.53280757731e-08
1.1756619219e-08
8.99186818388e-09
2.58899768718e-09
3.46211775999e-09
6.64158947025e-09
9.34652822993e-09
1.06309435021e-08
1.36095915122e-08
1.51817678316e-08
1.91140805999e-08
1.9525883111e-08
2.25135448662e-08
2.20017303132e-08
2.326644816e-08
2.14859557352e-08
2.00214346546e-08
1.86482850539e-08
1.54325409726e-08
1.5925986266e-08
1.06854554622e-08
1.23381064949e-08
5.43473493065e-09
1.1892870002e-08
3.28200925119e-09
3.34304314713e-09
1.25176993444e-08
9.8347172941e-09
3.34778140422e-09
5.08761749568e-09
7.08851291051e-09
6.83002508835e-09
7.92961813888e-09
7.04633703803e-09
8.48567163189e-09
7.41814725766e-09
8.31519008403e-09
6.93001745273e-09
7.73405461534e-09
7.06767999617e-09
7.11745049862e-09
5.61329700824e-09
4.82729902521e-09
4.36611181885e-09
2.55970447126e-09
3.25023471065e-09
2.55546756168e-09
8.47678222049e-10
7.76114760188e-09
6.62753221092e-09
4.73788783536e-09
1.65682980786e-09
1.63790291631e-09
3.39789136226e-10
1.61338195324e-09
4.6682433752e-10
2.11402902862e-09
2.67079613619e-09
4.38773648729e-09
3.7200832986e-09
4.27114764136e-09
2.5452872428e-09
4.80100679926e-09
1.33817912025e-09
4.52458430646e-09
6.47233258438e-10
4.36559733498e-09
5.90350038219e-10
3.1983582786e-09
6.53080853451e-11
4.29590296032e-10
1.19001457596e-08
6.03203126908e-09
8.62140706946e-09
8.02344895982e-10
4.85517603559e-09
2.7982365817e-09
5.03900980315e-09
1.30863703279e-09
3.22569115047e-09
4.97522593828e-10
3.13129877897e-09
5.75348362512e-11
6.67097746845e-11
2.83372857437e-09
1.95585871989e-09
4.50673625523e-09
2.93542774461e-09
3.51494038302e-09
2.17874304275e-09
7.49413143153e-09
1.00963360924e-08
7.84037647737e-09
2.14900036029e-09
3.49437447678e-09
4.81425889296e-09
1.66682436098e-09
2.58151032512e-09
2.04731212818e-09
2.76316171124e-10
4.96597094823e-09
2.26691028243e-10
2.87747865643e-09
5.07373019367e-09
1.55075900529e-09
3.21100889753e-09
1.00246990918e-08
1.0019193416e-08
1.72586379076e-09
5.08717292302e-09
2.9497006405e-09
8.57383365067e-09
1.19355971071e-08
6.05979876908e-09
8.65127099253e-09
1.27575297551e-09
1.65206309188e-09
1.74640370779e-08
1.63502939665e-08
1.1203563064e-09
7.10673649656e-09
6.35253802121e-09
1.72249713532e-08
2.56217361778e-08
9.35442630394e-09
7.04812998001e-09
1.65169260978e-08
2.77987838642e-09
1.54423896795e-08
2.0245408747e-09
5.26695509971e-09
1.85748849857e-09
5.97119044505e-09
6.93065902913e-10
3.44550777152e-09
3.44747958843e-10
2.12631647529e-09
3.89434898068e-09
5.00897918431e-09
8.73503879701e-09
1.21997396394e-08
2.04154908456e-08
1.86594250898e-08
6.64844347053e-08
5.4480943884e-07
1.64098518544e-06
8.99618564318e-07
4.79732375231e-06
1.01080474932e-05
1.03538416711e-05
4.13077527026e-06
5.58106404217e-07
1.99883803864e-05
2.0479609815e-05
9.13711525138e-06
1.12470523054e-05
1.15084906001e-07
1.12257777063e-07
3.60158689944e-08
1.57721471146e-08
2.32678162882e-08
2.26342018925e-09
2.18375753877e-08
1.09641134869e-08
1.41580035584e-08
2.57363275823e-08
1.926535676e-08
1.1461121119e-08
1.23533576175e-08
7.04843128624e-09
1.55794563624e-08
1.25247345931e-08
9.07689386073e-09
5.9994454985e-09
1.94546083393e-08
3.75194917413e-10
6.47430532349e-09
2.95385673443e-10

