# vtk DataFile Version 3.0
File Name: Molecule/methanol/methanol_5.0-4.vtk
ASCII
DATASET UNSTRUCTURED_GRID
FIELD FieldData 1
TIME 1 1 double
0.0
POINTS 262 double
1.3270694017 -0.49423876405 -0.90478473902
1.4553829432 -0.48652470112 -0.49896019697
1.1690964699 -0.87904983759 -0.72954583168
1.3278921843 -0.93504792452 -0.32229846716
1.0696412325 -1.2091288567 -0.37186062336
0.93142616749 -1.1133990288 -0.87714040279
0.55905735493 -1.3849307299 -0.82082974911
0.67953801155 -1.5075694323 -0.26774248481
0.19504328072 -1.6674953699 -0.20280525088
0.10513919592 -1.5180299282 -0.80252164602
-0.32165122032 -1.6609013081 -0.18364851177
-0.34857028723 -1.5283715725 -0.72607368231
-0.80638891459 -1.5023283958 -0.15416947007
-0.80668836832 -1.3820568323 -0.68033283949
-1.2080751657 -1.225779295 -0.10695755482
-1.1628144979 -1.113648653 -0.70743852854
-1.3949756622 -0.8770518899 -0.59576785564
-1.4428356886 -0.95800924301 -0.058769147843
-1.6543277502 -0.4998587966 -0.095455020666
-1.5740220547 -0.45951393247 -0.65977418423
-1.6578139067 -0.0011278094025 -0.60552614927
-1.7378554344 -0.0015464402968 -0.046774283051
-1.5820034742 0.46401229501 -0.62774080038
-1.6581684351 0.49364042282 -0.081734508276
-1.4379121065 0.94200700521 -0.12254133075
-1.3868988752 0.86073082685 -0.65670675039
-1.1743133068 1.1155384779 -0.67305326462
-1.205219388 1.2174839973 -0.13769806921
-0.79793268442 1.3863130808 -0.68903803825
-0.80754780769 1.5062123537 -0.13345247507
-0.32399168611 1.6531151533 -0.21314847469
-0.35521307588 1.5106155872 -0.77753788233
0.11295506358 1.5304801464 -0.76253187656
0.18836160004 1.6653462648 -0.21415056288
0.66995251179 1.5072791576 -0.28589421511
0.55971360207 1.3850164413 -0.8171005249
1.0748552084 1.2304708958 -0.31709685922
0.93668150902 1.1254822016 -0.84683775902
1.3186163902 0.94441723824 -0.33546835184
1.1459459066 0.866723001 -0.88414436579
1.3708769083 0.51587128639 -0.66440701485
1.9070003033 2.2054427973e-07 0.65591949224
1.8443672657 0.48179093003 0.65589594841
1.8443350792 0.24113112688 1.0719429255
1.8443384171 -0.24046863616 1.0723004341
1.8443281651 -0.48160561919 0.65616589785
1.8442817926 -0.24081087112 0.23773913085
1.8442820311 0.24088996649 0.23749542236
1.6701756716 0.7905446887 1.1145144701
1.6618849039 0.46295574307 1.4608622789
1.6706812382 -0.0052364049479 1.5690739155
1.663249135 -0.45937153697 1.4611278772
1.668708086 -0.79348421097 1.1156064272
1.6629525423 -0.92783945799 0.65603560209
1.6685853004 -0.79517757893 0.19835174084
1.6661269665 -0.46570754051 -0.13935786486
1.6648087502 0.46195685863 -0.14684994519
1.6687916517 0.79218113422 0.19382405281
1.6619904041 0.92918556929 0.6556879282
1.3961899281 1.2004342079 1.126747489
1.3968967199 0.9496255517 1.5262496471
1.3874202967 0.59097129107 1.8140860796
1.3941661119 0.1220087558 1.9422117472
1.3986064196 -0.36071583629 1.8914086819
1.3904492855 -0.78942650557 1.6838082075
1.3849335909 -1.1025556326 1.3483911753
1.3974790573 -1.2642419338 0.90380740166
1.3955996037 -1.2695665359 0.4207495153
1.384341836 -1.1122616529 -0.018811423331
1.3917737007 1.202054143 0.17363774776
1.3883346319 1.2996009588 0.6552516222
1.1305708885 1.4483308792 1.1320399046
1.1325653791 1.2340381145 1.5490301847
1.1312966347 0.98968529701 1.8144512177
1.1286261082 0.58503699303 2.064740181
1.1233354807 0.12804743648 2.1784403324
1.130954504 -0.34489166737 2.1398296356
1.1328948736 -0.79307609797 1.9551566839
1.0230169296 -1.1688791513 1.7452868223
1.1270575523 -1.3616011143 1.3460230827
1.1275367737 -1.508980751 0.88659465313
1.1211752892 -1.5111050606 0.41200920939
1.1261291504 -1.3656808138 -0.019852844998
1.1289904118 1.4478111267 0.17282024026
1.1228706837 1.5280418396 0.65515327454
0.72317546606 1.6843655109 1.1361407042
0.71932548285 1.4966927767 1.5672684908
0.72148555517 1.2890033722 1.8423210382
0.72723436356 0.92569738626 2.1407535076
0.72223180532 0.47824919224 2.3404626846
0.72501343489 -0.0080100931227 2.4059467316
0.72013479471 -0.48447316885 2.3393509388
0.7170034647 -0.92835205793 2.143491745
0.69983738661 -1.2874302864 1.8549089432
0.71901082993 -1.4953516722 1.5698412657
0.72274148464 -1.6851016283 1.134871006
0.72267729044 -1.7511062622 0.65561527014
0.71886813641 -1.6856303215 0.17115202546
0.72172194719 1.6852757931 0.17638882995
0.70986622572 1.7549452782 0.65606439114
0.26878741384 1.8102960587 1.1265950203
0.25693193078 1.629468441 1.5774689913
0.25900429487 1.3382134438 1.9647773504
0.25688192248 0.95677524805 2.2645013332
0.2513923645 0.50724112988 2.4581108093
0.26962190866 0.058641217649 2.5241024494
0.25807583332 -0.29336717725 2.5048470497
0.26395070553 -0.75014108419 2.3702666759
0.26431164145 -1.1647809744 2.1202294827
0.2627479732 -1.4992239475 1.7748897076
0.26461407542 -1.7351380587 1.3573772907
0.2745718658 -1.8542189598 0.89698904753
0.2646933496 -1.8560731411 0.41462633014
0.26702448726 1.8108444214 0.19486522675
0.24595139921 1.8724400997 0.65713483095
-0.21706952155 1.8110154867 1.1307590008
-0.22315822542 1.627250433 1.5803954601
-0.22443950176 1.3399980068 1.9618266821
-0.22205843031 0.95969927311 2.2620940208
-0.21407341957 0.52541059256 2.4530277252
-0.21430523694 0.058871038258 2.5264120102
-0.2360060811 -0.29207342863 2.5028791428
-0.22612333298 -0.73867636919 2.3753407001
-0.22647021711 -1.1529012918 2.1298069954
-0.22498683631 -1.4889587164 1.7885452509
-0.22558823228 -1.7301616669 1.3701238632
-0.21997460723 -1.856918335 0.89805716276
-0.23226110637 -1.8533931971 0.38566890359
-0.21694280207 1.8116362095 0.18727123737
-0.22236609459 1.8718489408 0.65647733212
-0.67432999611 1.7538975477 0.65571987629
-0.68589568138 1.6841124296 1.1363060474
-0.6825504303 1.4969052076 1.5659155846
-0.68408441544 1.2883312702 1.8427501917
-0.69077533484 0.92580467463 2.1396653652
-0.68471890688 0.47858038545 2.3401741982
-0.68684017658 -0.0080722430721 2.4063079357
-0.68313902617 -0.48515143991 2.3388345242
-0.67873859406 -0.92947912216 2.1432266235
-0.66260647774 -1.2890100479 1.8518137932
-0.68017429113 -1.4960604906 1.5701104403
-0.68577247858 -1.6845939159 1.1351826191
-0.6862860322 -1.7505161762 0.65526026487
-0.67624938488 -1.6904748678 0.1924957484
-0.68535244465 1.6858887672 0.18500648439
-1.0827811956 1.5294713974 0.65548431873
-1.0903908014 1.4502022266 1.1308640242
-1.0923753977 1.2357474566 1.5493309498
-1.0920606852 0.989551723 1.8158265352
-1.0895315409 0.58508360386 2.065513134
-1.0836914778 0.12737524509 2.1795265675
-1.0904812813 -0.34443330765 2.1416165829
-1.0928317308 -0.79337853193 1.9565172195
-0.98270797729 -1.1700476408 1.746288538
-1.0876889229 -1.3626971245 1.3459016085
-1.0880355835 -1.5100512505 0.88610452414
-1.0898579359 -1.5067574978 0.40479251742
-1.0952564478 1.4488056898 0.19385363162
-1.3480046988 1.3019026518 0.65637165308
-1.3564422131 1.2025681734 1.126945734
-1.3571540117 0.95149558783 1.5273003578
-1.3480610847 0.59050518274 1.8159538507
-1.353552103 0.12220796198 1.9451670647
-1.3589696884 -0.36020985246 1.8935781717
-1.3517420292 -0.78892213106 1.6853119135
-1.3453172445 -1.1049013138 1.3480023146
-1.3577622175 -1.2655673027 0.90484642982
-1.3591121435 -1.2670807838 0.41456437111
-1.3573892117 1.20426929 0.201198861
-1.6244274378 0.92851126194 0.65610438585
-1.6333091259 0.78872174025 1.1133885384
-1.6245032549 0.46223542094 1.4601020813
-1.6335971355 -0.0055225724354 1.5673948526
-1.6261616945 -0.4591037631 1.4594398737
-1.6310763359 -0.7928647995 1.115281105
-1.6260989904 -0.92603397369 0.6561653018
-1.6367038488 -0.78750950098 0.23200753331
-1.6346046925 0.789293468 0.21547693014
-1.806234479 0.48223268986 0.65638309717
-1.8061186075 0.2412135452 1.0726680756
-1.8061466217 -0.24073602259 1.0728303194
-1.8062806129 -0.48200687766 0.65685790777
-1.8078553677 -0.24358004332 0.25323775411
-1.8082416058 0.24247255921 0.2541115582
-1.8679417372 -2.3678514481e-05 0.65741449594
1.6779490709 -0.0072059566155 -0.2292688489
1.4733337164 0.4898057878 -0.44846004248
1.5338662863 0.17772015929 -0.46892884374
1.1154084206 -0.80923205614 -1.1457337141
0.78057408333 -1.1455956697 -1.2175329924
0.77060478926 -0.91545259953 -1.5827646255
1.1104450226 0.78074979782 -1.2126939297
0.77249598503 0.90091311932 -1.6005692482
0.77494180202 1.1479034424 -1.2202631235
0.35852023959 -1.2905308008 -1.4186195135
0.35240754485 -0.98748630285 -1.8135224581
0.35608464479 -0.58315950632 -2.0747022629
0.76111531258 -0.74824792147 -1.7434939146
0.78690141439 -0.47152382135 -1.8834655285
0.76732885838 -0.18446803093 -1.9725773335
0.76000845432 -0.0024718111381 -1.9918071032
0.34993487597 -0.1184477061 -2.1938955784
0.35557481647 0.35693827271 -2.1520328522
0.76978385448 0.47641506791 -1.8932491541
0.35764405131 0.79645049572 -1.9586880207
0.35656586289 1.1496959925 -1.6356834173
0.3486828506 1.3806991577 -1.2152248621
-0.1255530566 -1.4129247665 -1.3386944532
-0.12012986839 -1.145853281 -1.7579811811
-0.11970555782 -0.77235108614 -2.0642454624
-0.12023758143 -0.32277435064 -2.2380511761
-0.12000180781 0.15781496465 -2.2641222477
-0.1197290495 0.61285930872 -2.1432967186
-0.1195519045 0.9137070775 -1.9683650732
-0.11961462349 1.2483013868 -1.6288917065
-0.11973208189 1.4671998024 -1.1946599483
-0.59544122219 -1.4259446859 -1.0112327337
-0.59452623129 -1.2786210775 -1.4398635626
-0.59239119291 -0.98402136564 -1.8157266378
-0.58447307348 -0.58297002316 -2.078138113
-0.59310400486 -0.12280394137 -2.1919443607
-0.59471237659 0.35644903779 -2.1520662308
-0.59678131342 0.7959125638 -1.9590885639
-0.59638416767 1.1496132612 -1.6354753971
-0.58900290728 1.3841515779 -1.2077091932
-1.0187413692 -1.1570268869 -1.1971766949
-1.02539289 -0.88137155771 -1.6076042652
-1.0220235586 -0.47488030791 -1.8849532604
-1.016379118 0.0034250481986 -1.9828313589
-1.0217705965 0.47320482135 -1.8857014179
-1.0244398117 0.87441813946 -1.6158612967
-1.0199609995 1.1518542767 -1.2057932615
-1.3670474291 -0.81156396866 -1.1194424629
-1.358294487 -0.49930033088 -1.4939615726
-1.3632239103 -0.039483442903 -1.6373312473
-1.3587856293 0.43459326029 -1.5329552889
-1.3672755957 0.7766045928 -1.1864290237
-1.5807367563 -0.2419616133 -1.1441609859
-1.5811727047 0.23952965438 -1.1439468861
1.300711751 0.50424158573 -0.9555606246
1.1505846977 0.41913497448 -1.4844429493
1.3620244265 0.0039388728328 -1.1001319885
1.1400946379 -0.051023766398 -1.610188961
1.0079785585 -0.18504425883 -1.7604885101
1.0105119944 -0.46404793859 -1.6657822132
1.002603054 -0.0036594253033 -1.7818676233
1.0168335438 0.17888708413 -1.7529833317
0.79090172052 0.1926074326 -1.9564032555
1.3703666925 0.29518836737 -0.94124352932
1.4416432381 0.31833270192 -0.63392180204
1.0068126917 0.46277073026 -1.6707345247
1.0153236389 0.62192332745 -1.5611587763
0.78796547651 0.72923231125 -1.7357217073
1.480645895 -0.023547615856 -0.61323976517
0.92434251308 -0.73241567612 -1.5882158279
1.1339972019 -0.4989772737 -1.4680707455
1.424728632 0.15930913389 -0.77608168125
1.4092730284 -0.29760062695 -0.75591802597
1.2841622829 -0.29002261162 -1.2821527719
1.2795293331 -0.45838290453 -1.1708627939
1.3630598783 -0.29044649005 -0.96427083015
1.4200253487 -0.032336577773 -0.8098231554

CELLS 520 2080
3 0 1 2
3 3 2 1
3 3 4 2
3 2 4 5
3 5 4 6
3 7 6 4
3 7 8 6
3 6 8 9
3 8 10 9
3 9 10 11
3 10 12 11
3 11 12 13
3 12 14 13
3 13 14 15
3 15 14 16
3 17 16 14
3 17 18 16
3 16 18 19
3 19 18 20
3 21 20 18
3 22 20 23
3 21 23 20
3 23 24 22
3 22 24 25
3 25 24 26
3 27 26 24
3 26 27 28
3 29 28 27
3 29 30 28
3 28 30 31
3 31 30 32
3 33 32 30
3 33 34 32
3 32 34 35
3 34 36 35
3 35 36 37
3 36 38 37
3 37 38 39
3 39 38 40
3 41 42 43
3 41 43 44
3 41 44 45
3 41 45 46
3 41 46 47
3 41 47 42
3 43 42 48
3 43 48 49
3 43 49 50
3 44 43 50
3 44 50 51
3 44 51 52
3 45 44 52
3 45 52 53
3 45 53 54
3 46 45 54
3 46 54 55
3 47 56 57
3 42 47 57
3 42 57 58
3 42 58 48
3 48 58 59
3 48 59 60
3 49 48 60
3 49 60 61
3 49 61 62
3 50 49 62
3 50 62 63
3 51 50 63
3 51 63 64
3 52 51 64
3 52 64 65
3 52 65 66
3 53 52 66
3 53 66 67
3 54 53 67
3 54 67 68
3 58 57 69
3 58 69 70
3 58 70 59
3 59 70 71
3 59 71 72
3 60 59 72
3 60 72 73
3 61 60 73
3 61 73 74
3 62 61 74
3 62 74 75
3 62 75 76
3 63 62 76
3 63 76 77
3 64 63 77
3 64 77 78
3 65 64 78
3 65 78 79
3 66 65 79
3 66 79 80
3 81 67 80
3 66 80 67
3 67 81 82
3 68 67 82
3 70 69 83
3 70 83 84
3 70 84 71
3 71 84 85
3 71 85 86
3 72 71 86
3 72 86 87
3 73 72 87
3 73 87 88
3 74 73 88
3 74 88 89
3 75 74 89
3 75 89 90
3 76 75 90
3 76 90 91
3 77 76 91
3 77 91 92
3 77 92 78
3 93 78 92
3 78 93 94
3 79 78 94
3 79 94 95
3 80 79 95
3 80 95 96
3 81 80 96
3 81 96 97
3 82 81 97
3 84 83 98
3 84 98 99
3 84 99 85
3 85 99 100
3 85 100 101
3 86 85 101
3 101 102 86
3 87 86 102
3 87 102 88
3 103 88 102
3 88 103 89
3 104 89 103
3 89 104 105
3 90 89 105
3 90 105 106
3 91 90 106
3 91 106 107
3 92 91 107
3 92 107 108
3 93 92 108
3 93 108 109
3 94 93 109
3 94 109 110
3 95 94 110
3 95 110 111
3 96 95 111
3 96 111 112
3 97 96 112
3 99 98 113
3 99 113 114
3 99 114 100
3 100 114 115
3 100 115 101
3 116 101 115
3 116 117 101
3 102 101 117
3 117 118 102
3 103 102 118
3 103 118 119
3 104 103 119
3 104 119 120
3 105 104 120
3 121 106 120
3 105 120 106
3 106 121 122
3 107 106 122
3 107 122 123
3 108 107 123
3 108 123 124
3 109 108 124
3 109 124 125
3 110 109 125
3 111 110 126
3 125 126 110
3 127 112 126
3 111 126 112
3 114 113 128
3 114 128 129
3 114 129 115
3 115 129 130
3 115 130 131
3 116 115 131
3 116 131 132
3 133 117 132
3 116 132 117
3 118 117 134
3 133 134 117
3 119 118 135
3 134 135 118
3 120 119 135
3 120 135 136
3 121 120 136
3 121 136 137
3 122 121 137
3 122 137 138
3 123 122 138
3 123 138 139
3 124 123 139
3 124 139 140
3 125 124 140
3 125 140 141
3 126 125 141
3 126 141 142
3 127 126 142
3 127 142 143
3 130 128 144
3 129 128 130
3 131 130 145
3 131 145 146
3 132 131 146
3 132 146 147
3 133 132 147
3 133 147 148
3 134 133 148
3 134 148 149
3 135 134 149
3 135 149 150
3 136 135 150
3 136 150 151
3 137 136 151
3 137 151 152
3 138 137 152
3 139 138 153
3 152 153 138
3 140 139 153
3 140 153 154
3 141 140 154
3 141 154 155
3 142 141 155
3 142 155 156
3 143 142 156
3 145 144 157
3 130 144 145
3 146 145 158
3 146 158 159
3 147 146 159
3 147 159 160
3 148 147 160
3 148 160 161
3 149 148 161
3 149 161 162
3 150 149 162
3 151 150 162
3 151 162 163
3 152 151 163
3 152 163 164
3 153 152 164
3 153 164 165
3 154 153 165
3 154 165 166
3 155 154 166
3 166 167 155
3 156 155 167
3 158 157 168
3 145 157 158
3 159 158 169
3 159 169 170
3 160 159 170
3 160 170 171
3 161 160 171
3 162 161 171
3 162 171 172
3 163 162 172
3 163 172 173
3 164 163 173
3 164 173 174
3 165 164 174
3 166 165 174
3 166 174 175
3 167 166 175
3 167 175 176
3 169 168 177
3 158 168 169
3 170 169 178
3 170 178 179
3 171 170 179
3 172 171 179
3 172 179 180
3 173 172 180
3 174 173 180
3 174 180 181
3 175 174 181
3 176 175 181
3 176 181 182
3 178 177 183
3 169 177 178
3 179 178 184
3 180 179 184
3 181 180 184
3 182 181 184
3 183 182 184
3 178 183 184
3 183 177 23
3 183 23 21
3 183 21 182
3 182 21 18
3 182 18 176
3 176 18 17
3 176 17 167
3 167 17 14
3 167 14 156
3 156 14 12
3 156 12 143
3 143 12 10
3 143 10 127
3 127 10 8
3 127 8 112
3 112 8 97
3 97 8 7
3 97 7 82
3 82 7 4
3 82 4 68
3 68 4 3
3 68 3 54
3 55 54 3
3 55 3 1
3 55 1 185
3 55 185 46
3 46 185 47
3 47 185 56
3 186 56 187
3 56 186 38
3 56 38 57
3 57 38 69
3 69 38 36
3 69 36 83
3 83 36 34
3 83 34 98
3 113 98 33
3 34 33 98
3 113 33 128
3 128 33 30
3 128 30 144
3 144 30 29
3 144 29 157
3 157 29 27
3 157 27 168
3 168 27 24
3 168 24 177
3 177 24 23
3 188 189 190
3 191 192 193
3 190 189 194
3 190 194 195
3 195 196 197
3 198 196 199
3 200 201 202
3 203 202 204
3 192 204 205
3 193 192 205
3 193 205 206
3 194 207 208
3 195 194 208
3 195 208 209
3 196 195 209
3 196 209 210
3 201 196 210
3 201 210 211
3 202 201 211
3 202 211 212
3 204 202 212
3 204 212 213
3 205 204 213
3 205 213 214
3 206 205 214
3 206 214 215
3 207 216 217
3 208 207 217
3 208 217 218
3 209 208 218
3 209 218 219
3 210 209 219
3 210 219 220
3 211 210 220
3 211 220 221
3 212 211 221
3 212 221 222
3 213 212 222
3 213 222 223
3 214 213 223
3 214 223 224
3 215 214 224
3 217 216 225
3 217 225 226
3 218 217 226
3 218 226 227
3 219 218 227
3 220 219 227
3 220 227 228
3 221 220 228
3 221 228 229
3 222 221 229
3 222 229 230
3 223 222 230
3 223 230 231
3 224 223 231
3 226 225 232
3 226 232 233
3 227 226 233
3 227 233 234
3 228 227 234
3 229 228 234
3 229 234 235
3 230 229 235
3 230 235 236
3 231 230 236
3 233 232 237
3 234 233 237
3 234 237 238
3 235 234 238
3 236 235 238
3 236 238 22
3 236 22 25
3 236 25 26
3 236 26 231
3 231 26 28
3 231 28 224
3 224 28 31
3 224 31 215
3 215 31 32
3 215 32 206
3 206 32 35
3 206 35 193
3 193 35 37
3 193 37 191
3 39 191 37
3 191 39 239
3 191 239 240
3 240 241 242
3 188 0 2
3 188 2 5
3 188 5 189
3 189 5 6
3 189 6 194
3 194 6 9
3 194 9 207
3 207 9 11
3 207 11 216
3 216 11 13
3 216 13 225
3 225 13 15
3 225 15 232
3 232 15 16
3 232 16 19
3 232 19 237
3 237 19 20
3 237 20 238
3 238 20 22
3 243 242 244
3 242 243 245
3 200 245 199
3 243 198 199
3 243 199 245
3 242 245 246
3 245 247 246
3 245 200 247
3 246 247 203
3 242 246 240
3 200 199 201
3 201 199 196
3 203 247 202
3 247 200 202
3 186 40 38
3 39 40 239
3 239 40 248
3 40 249 248
3 40 186 249
3 240 250 251
3 250 252 251
3 250 203 252
3 251 252 192
3 240 251 191
3 191 251 192
3 192 252 204
3 252 203 204
3 239 248 240
3 240 248 241
3 203 250 246
3 246 250 240
3 1 253 185
3 190 254 188
3 188 254 255
3 255 254 244
3 254 197 244
3 254 190 197
3 244 197 198
3 198 197 196
3 197 190 195
3 255 244 242
3 243 244 198
3 256 187 253
3 256 249 187
3 253 187 185
3 185 187 56
3 187 249 186
3 249 256 248
3 248 256 241
3 0 257 1
3 1 257 253
3 241 258 242
3 242 258 255
3 255 258 259
3 258 260 259
3 258 241 260
3 259 260 0
3 255 259 188
3 259 0 188
3 241 261 260
3 261 257 260
3 261 253 257
3 260 257 0
3 253 261 256
3 256 261 241

CELL_TYPES 520
5
5
5
5
5
5
5
5
5
5
5
5
5
5
5
5
5
5
5
5
5
5
5
5
5
5
5
5
5
5
5
5
5
5
5
5
5
5
5
5
5
5
5
5
5
5
5
5
5
5
5
5
5
5
5
5
5
5
5
5
5
5
5
5
5
5
5
5
5
5
5
5
5
5
5
5
5
5
5
5
5
5
5
5
5
5
5
5
5
5
5
5
5
5
5
5
5
5
5
5
5
5
5
5
5
5
5
5
5
5
5
5
5
5
5
5
5
5
5
5
5
5
5
5
5
5
5
5
5
5
5
5
5
5
5
5
5
5
5
5
5
5
5
5
5
5
5
5
5
5
5
5
5
5
5
5
5
5
5
5
5
5
5
5
5
5
5
5
5
5
5
5
5
5
5
5
5
5
5
5
5
5
5
5
5
5
5
5
5
5
5
5
5
5
5
5
5
5
5
5
5
5
5
5
5
5
5
5
5
5
5
5
5
5
5
5
5
5
5
5
5
5
5
5
5
5
5
5
5
5
5
5
5
5
5
5
5
5
5
5
5
5
5
5
5
5
5
5
5
5
5
5
5
5
5
5
5
5
5
5
5
5
5
5
5
5
5
5
5
5
5
5
5
5
5
5
5
5
5
5
5
5
5
5
5
5
5
5
5
5
5
5
5
5
5
5
5
5
5
5
5
5
5
5
5
5
5
5
5
5
5
5
5
5
5
5
5
5
5
5
5
5
5
5
5
5
5
5
5
5
5
5
5
5
5
5
5
5
5
5
5
5
5
5
5
5
5
5
5
5
5
5
5
5
5
5
5
5
5
5
5
5
5
5
5
5
5
5
5
5
5
5
5
5
5
5
5
5
5
5
5
5
5
5
5
5
5
5
5
5
5
5
5
5
5
5
5
5
5
5
5
5
5
5
5
5
5
5
5
5
5
5
5
5
5
5
5
5
5
5
5
5
5
5
5
5
5
5
5
5
5
5
5
5
5
5
5
5
5
5
5
5
5
5
5
5
5
5
5
5
5
5
5
5
5
5
5
5
5
5
5
5
5
5
5
5
5
5
5
5
5
5
5
5
5
5
5
5
5
5
5
5
5
5
5
5
5
5
5
5
5
5
5
5
5
5
5
5
5
5
5
5
5
5
5
5
5
5
5
5
5
5
5
5
5
5
5
5
5
5

CELL_DATA 520
SCALARS cell_data_0 double
LOOKUP_TABLE default
3.11026609443e-07
3.63382277179e-08
1.5062098857e-08
3.85422322996e-08
3.26311410616e-08
6.94637722378e-08
2.94580792724e-08
6.5018418157e-08
2.87936448421e-08
6.8507309516e-08
1.17561859384e-08
7.74233491618e-08
1.51405938226e-08
9.42834624646e-08
3.45159038936e-08
3.48275376019e-08
2.34851016447e-08
7.59678944088e-08
4.61635143572e-08
4.45049125935e-08
7.13036904811e-08
5.20044130682e-08
4.3550234836e-08
4.24191090802e-08
2.2467604854e-08
2.60258162519e-09
3.98734251102e-08
1.02692084036e-08
7.86945437066e-08
2.70148686279e-08
2.66922798417e-08
2.50152465424e-08
9.71596023185e-08
4.39314798487e-08
6.90534196977e-08
7.86694104758e-08
4.89318209676e-09
8.42568582868e-09
8.47008689935e-08
8.35733221243e-11
1.0107840147e-10
1.0345829331e-10
1.59125019316e-10
6.88150083503e-10
1.61610924662e-10
7.12998372342e-10
6.16538122863e-10
5.81692359583e-10
6.60114250695e-10
3.13950711458e-10
6.04418512336e-10
1.05432153954e-09
1.59212055217e-12
6.67122407239e-10
1.86263140508e-10
7.90152595869e-10
1.01528640936e-09
2.73007000168e-10
6.76210545363e-10
8.58945529101e-11
1.11736058547e-10
2.76540321189e-11
1.54690680783e-10
5.11679083309e-11
7.30463174632e-10
2.33036515462e-10
9.02394313481e-11
4.77456813867e-10
2.55262320567e-10
3.07868578464e-10
1.79763360996e-10
1.85479444588e-10
9.76868589123e-10
3.68712226454e-10
1.41279421388e-09
1.26979804906e-09
3.53089215384e-10
8.16569925721e-10
8.08498428765e-10
2.75175078493e-11
3.87095234266e-10
6.77217088737e-11
6.19447606208e-10
6.94459103062e-11
4.19091510189e-10
2.34872050225e-10
3.60801154086e-10
3.92192363934e-10
4.59660544814e-12
5.03999567193e-10
2.60287187494e-10
4.78274010926e-10
7.3101492313e-10
2.09804502311e-10
1.05378251142e-10
3.70234871542e-11
8.33695736537e-10
2.27858386855e-10
1.27009632464e-09
1.47366395251e-09
7.90870362891e-10
5.01030964397e-12
4.27703016344e-10
1.11431071538e-10
8.62274597214e-11
9.03168945371e-10
5.45404943295e-10
3.29833973046e-10
1.16353461717e-10
4.56449587728e-10
4.31642708718e-10
3.48789806155e-10
3.97474263595e-10
4.32118093078e-10
2.32172653107e-10
7.04764792037e-10
2.48231870799e-10
9.3473477149e-11
4.63457817473e-11
3.52848515539e-10
5.42275265771e-10
2.19493254494e-10
4.76375551805e-10
2.94766815039e-10
2.10348942364e-09
7.71010261324e-10
1.80846110511e-09
2.02258865708e-09
1.05660071905e-09
1.24633248763e-09
3.81611492702e-10
4.00890498394e-10
9.70895048576e-11
4.16394459087e-10
2.51976299874e-11
4.19010911826e-10
3.12487213402e-10
1.44989266583e-10
6.94990720035e-12
2.09161889257e-10
6.9042063955e-10
9.44369664268e-10
2.10295496208e-10
4.98294191405e-10
2.62670904643e-10
5.78793446139e-10
9.35959972344e-11
2.91863975892e-10
2.27094974017e-11
4.12126233546e-10
4.83965079128e-11
4.99293407351e-10
9.31409067561e-10
1.14795627531e-09
1.04050913947e-09
3.4222039973e-09
2.72761918889e-10
1.46929555072e-09
3.98670706323e-11
1.01054906542e-09
1.01486175432e-09
2.40352338918e-10
3.74320498072e-11
1.6019741399e-10
2.89339011627e-11
4.86215808377e-11
8.1670572955e-11
8.68817288571e-11
3.67630169936e-10
3.87329465768e-10
3.41874883452e-10
4.14528853299e-10
1.89455462086e-10
9.46592414443e-11
2.59091310291e-10
1.66613353314e-10
4.34595704758e-10
1.1433249656e-10
6.99964584891e-10
2.42873887023e-09
2.23395442883e-09
1.07663957694e-09
5.27893442924e-10
6.06423899226e-09
1.10958589077e-10
2.14039961909e-09
3.88589715987e-09
3.04520631918e-10
1.245859464e-09
5.58131998135e-11
2.02376177482e-10
6.2620896667e-10
2.901541629e-10
2.62514844666e-10
2.19989979109e-11
1.28369969839e-10
2.02801512408e-10
1.2131023774e-10
3.67092380575e-10
2.43594753272e-10
3.4824838612e-10
2.39121454123e-10
9.53295939994e-11
1.96423374572e-11
2.66274842785e-10
1.98344839825e-10
4.38876110829e-10
1.69775505435e-10
1.10080564594e-10
2.66123579644e-09
1.50358241427e-09
3.54971749771e-09
4.38271836403e-09
2.40375545679e-10
4.34287817978e-09
6.94678078574e-10
1.39608212022e-09
2.30213089138e-11
2.81945786432e-10
1.17521896685e-11
4.86192471197e-10
4.66608922334e-12
4.48626999227e-10
1.61980248653e-10
2.04840496658e-10
5.92085952463e-11
1.33035620516e-10
2.29334060517e-10
5.94785144148e-10
2.04508775552e-10
3.46614781999e-10
2.18793696766e-10
5.15286816011e-10
4.05820670628e-12
1.4782207743e-09
2.23235709349e-10
2.86837049812e-09
1.47319540725e-09
6.52866625659e-09
1.51208885156e-10
3.29024297e-09
8.78640095642e-10
9.45304849638e-10
2.26820738123e-10
4.14460871865e-10
1.68008340525e-12
3.34947145223e-10
1.70184509364e-10
1.77342300988e-10
1.22600754087e-10
2.24741679015e-10
1.81285735937e-12
1.5981560342e-10
1.22528896065e-10
2.65242876888e-11
3.99443236214e-10
4.81563596318e-10
1.34218497768e-09
2.30717962141e-09
3.6903145842e-09
6.58079858615e-09
1.00436448021e-09
5.02605925741e-09
1.09063537704e-09
1.34199926526e-09
9.7503464545e-11
4.45028038156e-10
5.82222963054e-11
1.15590421746e-09
4.83471013338e-10
7.35857191785e-10
6.63212421472e-10
9.78761453138e-10
1.79142331353e-09
6.15046810097e-10
3.23729782917e-09
1.86593014573e-10
7.15753217678e-09
1.16817851959e-08
1.86149878084e-09
5.03390435358e-09
8.98500391592e-10
1.27942071429e-09
4.45950170352e-10
3.24802006874e-09
1.52238986906e-09
1.26656243793e-09
9.98348093339e-10
2.83349237102e-09
9.66182529084e-09
6.12067594342e-09
1.27434200715e-08
2.84919754858e-09
4.16065021485e-09
1.8250502533e-09
2.16247688248e-09
9.21779903635e-09
4.91150668776e-09
2.91782900239e-09
9.01363449507e-09
3.66191198028e-08
5.53303763624e-09
3.92309912091e-08
1.193388312e-08
2.98013756645e-08
3.09066377835e-08
4.80498942316e-08
1.58863137796e-08
7.12083654598e-08
3.76912065288e-09
2.39776447625e-08
3.42227257427e-08
4.23375334461e-08
2.98575312508e-08
2.53258389305e-08
2.4535796362e-08
1.71502667357e-08
2.81935553719e-09
6.00035523409e-09
4.15661707069e-09
8.42424266253e-10
6.27372511576e-09
2.03311414156e-08
8.39046898995e-09
2.54177367464e-09
1.42937064076e-09
2.53691354517e-09
5.50754936353e-09
1.21430523606e-08
5.88511635397e-09
6.66963899249e-09
3.43563718242e-09
2.15974602826e-09
4.05740167615e-09
3.31412730841e-09
2.30547625667e-08
3.05324608184e-08
6.00784792934e-09
1.99777804327e-08
5.24122024478e-09
2.98597861492e-08
1.46517654465e-09
2.84038084814e-08
7.90870678857e-10
2.39018072493e-08
3.84691289923e-09
3.39270033719e-08
1.79929954115e-07
1.72630097699e-07
5.11992177588e-08
1.67865929354e-07
2.27803482206e-08
2.16103647736e-07
4.35903898196e-07
3.51301347896e-07
1.60210082402e-07
1.57742788897e-07
5.52904146352e-08
2.6950008458e-08
1.21225657959e-08
4.43755951958e-08
3.67651736403e-09
7.16503233191e-08
2.21350978344e-08
9.1285169704e-08
5.7638879359e-08
8.30069260963e-08
7.08561479457e-08
3.9912575379e-08
5.10130100736e-08
3.03056882918e-08
3.1451579002e-08
1.20741871714e-08
1.36142221135e-08
1.13253676147e-09
1.37158301198e-08
6.45830372819e-10
2.01374771226e-08
5.8656083641e-09
2.49965443461e-08
1.42202306874e-08
2.58925578933e-08
1.83551116966e-08
1.68592175395e-08
5.41187082815e-09
1.22835208385e-08
1.46775300367e-08
9.82605987873e-09
6.11207812842e-09
6.24374301422e-09
1.35500823736e-09
6.2738447116e-09
1.0601215279e-10
7.29408394488e-10
1.98750133278e-09
3.18221325268e-09
1.07060652541e-09
5.84895576775e-09
1.4835842805e-09
2.76699626752e-09
2.99045171418e-09
1.40100904564e-09
3.45319331337e-09
7.63297050283e-09
5.96175762419e-09
1.29847096784e-08
3.16699767372e-09
8.18008092024e-09
4.38130999967e-09
4.14153815086e-09
8.32555742021e-09
5.18489505277e-09
1.31529503172e-08
1.30899074602e-08
9.14537538627e-09
5.13246916315e-09
6.95120908183e-09
1.80157269623e-08
2.25200130841e-09
2.52753015329e-08
1.26576069834e-08
4.07203241492e-09
3.47185610125e-08
8.57239642262e-09
2.95001982048e-08
4.27122682103e-09
2.57572521144e-08
3.92000269573e-09
2.50410262937e-08
1.97059579065e-08
2.85729323317e-08
1.42547739389e-07
1.47046219191e-07
2.02114926424e-07
4.38392207592e-07
7.14981215776e-08
3.11512213919e-07
1.23226087865e-07
2.29719446618e-07
2.86584403313e-08
7.91077053851e-08
3.58189247327e-08
5.27597535052e-08
2.15318181695e-08
6.39708857416e-09
1.36129939586e-08
7.23887800675e-09
3.60536874955e-08
1.44150178326e-08
1.14224823202e-08
2.82023012112e-08
5.69732168025e-09
3.30031171195e-08
1.84462981787e-08
3.39820300923e-08
3.04654877581e-07
1.34036106022e-07
6.21209707748e-08
2.01223760896e-07
1.52293410912e-07
1.58150707984e-07
1.19956159842e-07
1.20847553858e-07
2.02071875611e-07
4.60053321829e-07
1.15539076733e-07
2.64006569207e-07
2.30085233887e-07
1.08837709372e-07
5.15256116068e-08
5.57661560347e-08
1.02574781237e-07
1.33064916351e-08
1.24390123223e-08
1.42817793308e-07
1.90219083584e-08
1.31620108387e-07
7.55487506306e-08
4.58366864678e-07
1.97480083254e-07
8.28732744112e-08
1.87373617827e-07
8.41432754651e-08
6.75607482808e-07
8.94512288214e-08
6.56812772168e-08
9.01743955245e-08
8.0938416813e-08
1.85710636992e-07
5.91992110857e-08
1.02365732828e-07
3.01201203459e-08
1.2741446158e-07
3.58618505608e-08
1.72068090744e-08
4.21226520388e-07
1.28826307084e-08
8.2378607864e-09
1.31027692313e-08
6.21376865514e-08
8.07471416533e-09
1.75450817507e-08
2.49604371224e-08
2.57761103095e-07
1.24096991427e-08
7.58548369483e-08
2.07560716834e-07
4.35611218892e-08
2.15981090937e-08
7.90446196492e-08
1.86266847094e-07
3.87102016268e-08
2.20366261742e-07
8.37162101833e-08
3.30307956577e-07
7.28616530687e-08
1.05750083063e-08
4.86772777278e-09
1.00804310779e-08
6.10464272295e-08

