# vtk DataFile Version 3.0
File Name: Molecule/methanol/methanol_3.0-1.vtk
ASCII
DATASET UNSTRUCTURED_GRID
FIELD FieldData 1
TIME 1 1 double
0.0
POINTS 175 double
0.956 -1.085 -0.888
0.576 -1.556 -0.256
0.46 -1.418 -0.839
-0.065 -1.684 -0.192
-0.124 -1.534 -0.781
-0.707 -1.556 -0.128
-0.708 -1.418 -0.723
-1.251 -1.191 -0.074
-1.204 -1.085 -0.673
-1.614 -0.645 -0.038
-1.535 -0.587 -0.64
-1.742 0.0 -0.025
-1.651 0.0 -0.629
-1.614 0.645 -0.038
-1.535 0.587 -0.64
-1.251 1.191 -0.074
-1.204 1.085 -0.673
-0.707 1.556 -0.128
-0.708 1.418 -0.723
-0.065 1.684 -0.192
-0.124 1.534 -0.781
0.576 1.556 -0.256
0.46 1.418 -0.839
1.12 1.191 -0.31
0.956 1.085 -0.888
1.483 0.645 -0.346
1.287 0.587 -0.921
1.611 0.0 -0.359
1.403 0.0 -0.933
1.907 0.0 0.656
1.814 0.583 0.656
1.814 0.292 1.161
1.814 -0.292 1.161
1.814 -0.583 0.656
1.814 -0.292 0.15
1.814 0.292 0.15
1.546 0.933 1.255
1.546 0.461 1.665
1.546 -0.158 1.754
1.546 -0.727 1.494
1.546 -1.065 0.968
1.546 -1.065 0.343
1.546 0.933 0.056
1.546 1.109 0.656
1.128 1.411 1.24
1.128 1.08 1.735
1.128 0.584 2.066
1.128 -0.0 2.183
1.128 -0.584 2.066
1.128 -1.08 1.735
1.128 -1.411 1.24
1.128 -1.527 0.656
1.128 -1.411 0.071
1.128 1.411 0.071
1.128 1.527 0.656
0.602 1.698 1.238
0.602 1.417 1.758
0.602 0.982 2.158
0.602 0.441 2.396
0.602 -0.148 2.445
0.602 -0.721 2.3
0.602 -1.216 1.976
0.602 -1.579 1.51
0.602 -1.771 0.951
0.602 -1.771 0.36
0.602 1.698 0.073
0.602 1.795 0.656
0.019 1.795 1.239
0.019 1.527 1.765
0.019 1.109 2.183
0.019 0.583 2.451
0.019 -0.0 2.543
0.019 -0.583 2.451
0.019 -1.109 2.183
0.019 -1.527 1.765
0.019 -1.795 1.239
0.019 -1.888 0.656
0.019 1.888 0.656
-0.564 1.795 0.656
-0.564 1.698 1.238
-0.564 1.417 1.758
-0.564 0.982 2.158
-0.564 0.441 2.396
-0.564 -0.148 2.445
-0.564 -0.721 2.3
-0.564 -1.216 1.976
-0.564 -1.579 1.51
-0.564 -1.771 0.951
-0.564 -1.771 0.36
-1.09 1.527 0.656
-1.09 1.411 1.24
-1.09 1.08 1.735
-1.09 0.584 2.066
-1.09 -0.0 2.183
-1.09 -0.584 2.066
-1.09 -1.08 1.735
-1.09 -1.411 1.24
-1.09 -1.527 0.656
-1.508 1.109 0.656
-1.508 0.933 1.255
-1.508 0.461 1.665
-1.508 -0.158 1.754
-1.508 -0.727 1.494
-1.508 -1.065 0.968
-1.508 -1.065 0.343
-1.776 0.583 0.656
-1.776 0.292 1.161
-1.776 -0.292 1.161
-1.776 -0.583 0.656
-1.868 -0.0 0.656
1.12 -1.191 -0.31
0.966 0.913 -1.324
0.966 0.451 -1.725
0.468 0.884 -1.846
0.468 1.278 -1.353
0.468 -1.278 -1.353
-0.12 -1.418 -1.325
-0.12 -1.085 -1.823
0.468 -0.884 -1.846
-0.12 -0.587 -2.155
0.468 -0.316 -2.12
-0.12 0.0 -2.272
0.468 0.316 -2.12
-0.12 0.587 -2.155
-0.12 1.085 -1.823
-0.12 1.418 -1.325
-0.707 -1.278 -1.353
-0.707 -0.884 -1.846
-0.707 -0.316 -2.12
-0.707 0.316 -2.12
-0.707 0.884 -1.846
-0.707 1.278 -1.353
-1.205 -1.041 -1.043
-1.205 -0.711 -1.557
-1.205 -0.154 -1.812
-1.205 0.451 -1.725
-1.205 0.913 -1.324
-1.538 -0.294 -1.246
-1.538 0.294 -1.246
1.298 0.294 -1.246
1.483 -0.645 -0.346
1.443 -0.3225 -0.6395
1.345 -0.2935 -0.927
1.385 -0.616 -0.6335
1.287 -0.587 -0.921
1.3015 -0.918 -0.328
1.2035 -0.889 -0.6155
1.1215 -0.836 -0.9045
1.038 -1.138 -0.599
1.68 -0.6785 0.2465
1.333 -1.128 0.0165
1.5145 -0.855 -0.0015
1.6485 -0.4685 -0.098
1.298 -0.294 -1.246
1.132 -0.5025 -1.4015
1.132 -0.224 -1.529
0.966 -0.4325 -1.6845
0.966 -0.711 -1.557
0.966 -0.154 -1.812
1.298 0.0 -1.246
1.132 0.07 -1.529
1.132 0.3725 -1.4855
0.966 0.1485 -1.7685
0.717 -0.9945 -1.455
0.717 -0.5135 -1.8385
0.717 -0.235 -1.966
0.717 0.081 -1.966
0.468 0.0 -2.12
0.717 0.3835 -1.9225
1.3505 0.147 -1.0895
1.3505 -0.147 -1.0895
1.2925 -0.4405 -1.0835
1.1265 -0.649 -1.239
0.961 -0.898 -1.2225
0.712 -1.1815 -1.1205

CELLS 346 1384
3 0 1 2
3 1 3 2
3 2 3 4
3 3 5 4
3 4 5 6
3 5 7 6
3 6 7 8
3 7 9 8
3 8 9 10
3 9 11 10
3 10 11 12
3 11 13 12
3 12 13 14
3 13 15 14
3 14 15 16
3 15 17 16
3 16 17 18
3 17 19 18
3 18 19 20
3 19 21 20
3 20 21 22
3 21 23 22
3 22 23 24
3 23 25 24
3 24 25 26
3 25 27 26
3 26 27 28
3 29 30 31
3 29 31 32
3 29 32 33
3 29 33 34
3 29 34 35
3 29 35 30
3 31 30 36
3 31 36 37
3 31 37 38
3 32 31 38
3 32 38 39
3 32 39 40
3 33 32 40
3 33 40 41
3 30 35 42
3 30 42 43
3 30 43 36
3 36 43 44
3 36 44 45
3 37 36 45
3 37 45 46
3 37 46 47
3 38 37 47
3 38 47 48
3 39 38 48
3 39 48 49
3 39 49 50
3 40 39 50
3 40 50 51
3 41 40 51
3 41 51 52
3 43 42 53
3 43 53 54
3 43 54 44
3 44 54 55
3 44 55 56
3 45 44 56
3 45 56 57
3 46 45 57
3 46 57 58
3 47 46 58
3 47 58 59
3 48 47 59
3 48 59 60
3 48 60 61
3 49 48 61
3 49 61 62
3 50 49 62
3 50 62 63
3 51 50 63
3 51 63 64
3 52 51 64
3 54 53 65
3 54 65 66
3 54 66 55
3 55 66 67
3 55 67 68
3 56 55 68
3 56 68 69
3 57 56 69
3 57 69 70
3 58 57 70
3 58 70 71
3 59 58 71
3 59 71 72
3 60 59 72
3 60 72 73
3 61 60 73
3 61 73 74
3 62 61 74
3 62 74 75
3 63 62 75
3 63 75 76
3 64 63 76
3 66 77 67
3 67 77 78
3 67 78 79
3 68 67 79
3 68 79 80
3 69 68 80
3 69 80 81
3 70 69 81
3 70 81 82
3 71 70 82
3 71 82 83
3 72 71 83
3 72 83 84
3 73 72 84
3 73 84 85
3 74 73 85
3 74 85 86
3 75 74 86
3 75 86 87
3 76 75 87
3 76 87 88
3 79 78 89
3 79 89 90
3 80 79 90
3 80 90 91
3 81 80 91
3 81 91 92
3 82 81 92
3 82 92 93
3 83 82 93
3 83 93 94
3 84 83 94
3 85 84 94
3 85 94 95
3 86 85 95
3 86 95 96
3 87 86 96
3 87 96 97
3 88 87 97
3 90 89 98
3 90 98 99
3 91 90 99
3 91 99 100
3 92 91 100
3 93 92 100
3 93 100 101
3 94 93 101
3 94 101 102
3 95 94 102
3 96 95 102
3 96 102 103
3 97 96 103
3 97 103 104
3 99 98 105
3 99 105 106
3 100 99 106
3 101 100 106
3 101 106 107
3 102 101 107
3 103 102 107
3 103 107 108
3 104 103 108
3 106 105 109
3 107 106 109
3 108 107 109
3 108 109 11
3 108 11 9
3 108 9 104
3 104 9 7
3 104 7 97
3 97 7 5
3 97 5 88
3 88 5 3
3 88 3 76
3 76 3 64
3 64 3 1
3 64 1 52
3 52 1 110
3 34 27 35
3 35 27 25
3 35 25 42
3 42 25 23
3 42 23 53
3 53 23 21
3 53 21 65
3 65 21 19
3 65 19 77
3 65 77 66
3 77 19 78
3 78 19 17
3 78 17 89
3 89 17 15
3 89 15 98
3 98 15 13
3 98 13 105
3 105 13 11
3 105 11 109
3 111 112 113
3 111 113 114
3 115 116 117
3 118 115 117
3 118 117 119
3 120 118 119
3 120 119 121
3 122 121 123
3 113 122 123
3 113 123 124
3 114 113 124
3 114 124 125
3 117 116 126
3 117 126 127
3 119 117 127
3 119 127 128
3 121 119 128
3 121 128 129
3 123 121 129
3 123 129 130
3 124 123 130
3 124 130 131
3 125 124 131
3 126 132 133
3 127 126 133
3 128 127 133
3 128 133 134
3 129 128 134
3 129 134 135
3 130 129 135
3 130 135 136
3 131 130 136
3 133 132 137
3 134 133 137
3 134 137 138
3 135 134 138
3 136 135 138
3 136 138 14
3 136 14 16
3 136 16 131
3 131 16 18
3 131 18 125
3 125 18 20
3 125 20 22
3 125 22 114
3 114 22 24
3 114 24 111
3 111 24 26
3 111 26 139
3 115 2 116
3 116 2 4
3 116 4 6
3 116 6 126
3 126 6 132
3 132 6 8
3 132 8 10
3 132 10 137
3 137 10 12
3 137 12 138
3 138 12 14
3 140 141 27
3 27 141 28
3 28 141 142
3 141 143 142
3 141 140 143
3 142 143 144
3 140 145 143
3 145 146 143
3 145 110 146
3 143 146 144
3 144 146 147
3 146 148 147
3 146 110 148
3 147 148 0
3 0 148 1
3 110 148 1
3 41 149 33
3 34 149 33
3 110 150 52
3 52 150 41
3 41 150 151
3 150 145 151
3 150 110 145
3 151 145 140
3 41 151 149
3 151 152 149
3 151 140 152
3 149 152 34
3 34 152 27
3 152 140 27
3 153 154 155
3 154 156 155
3 154 157 156
3 155 156 158
3 139 159 160
3 159 155 160
3 159 153 155
3 160 155 158
3 139 160 161
3 160 162 161
3 160 158 162
3 161 162 112
3 139 161 111
3 161 112 111
3 157 163 118
3 163 115 118
3 120 164 118
3 157 164 118
3 158 156 165
3 156 164 165
3 156 157 164
3 165 164 120
3 158 165 166
3 165 167 166
3 165 120 167
3 166 167 122
3 112 162 168
3 162 166 168
3 162 158 166
3 168 166 122
3 112 168 113
3 168 122 113
3 122 167 121
3 167 120 121
3 28 169 26
3 139 169 26
3 139 169 159
3 169 170 159
3 169 28 170
3 159 170 153
3 153 170 171
3 170 142 171
3 170 28 142
3 171 142 144
3 153 171 154
3 171 172 154
3 171 144 172
3 154 172 157
3 157 172 173
3 172 147 173
3 172 144 147
3 173 147 0
3 157 173 163
3 173 174 163
3 173 0 174
3 163 174 115
3 115 174 2
3 174 0 2

CELL_TYPES 346
5
5
5
5
5
5
5
5
5
5
5
5
5
5
5
5
5
5
5
5
5
5
5
5
5
5
5
5
5
5
5
5
5
5
5
5
5
5
5
5
5
5
5
5
5
5
5
5
5
5
5
5
5
5
5
5
5
5
5
5
5
5
5
5
5
5
5
5
5
5
5
5
5
5
5
5
5
5
5
5
5
5
5
5
5
5
5
5
5
5
5
5
5
5
5
5
5
5
5
5
5
5
5
5
5
5
5
5
5
5
5
5
5
5
5
5
5
5
5
5
5
5
5
5
5
5
5
5
5
5
5
5
5
5
5
5
5
5
5
5
5
5
5
5
5
5
5
5
5
5
5
5
5
5
5
5
5
5
5
5
5
5
5
5
5
5
5
5
5
5
5
5
5
5
5
5
5
5
5
5
5
5
5
5
5
5
5
5
5
5
5
5
5
5
5
5
5
5
5
5
5
5
5
5
5
5
5
5
5
5
5
5
5
5
5
5
5
5
5
5
5
5
5
5
5
5
5
5
5
5
5
5
5
5
5
5
5
5
5
5
5
5
5
5
5
5
5
5
5
5
5
5
5
5
5
5
5
5
5
5
5
5
5
5
5
5
5
5
5
5
5
5
5
5
5
5
5
5
5
5
5
5
5
5
5
5
5
5
5
5
5
5
5
5
5
5
5
5
5
5
5
5
5
5
5
5
5
5
5
5
5
5
5
5
5
5
5
5
5
5
5
5
5
5
5
5
5
5
5
5
5
5
5
5
5
5
5
5
5
5
5
5
5
5
5
5

CELL_DATA 346
SCALARS cell_data_0 double
LOOKUP_TABLE default
3.81215384446e-06
5.56680717484e-06
1.99010550591e-06
4.2522281193e-06
8.6500846657e-07
3.15123965369e-06
8.8608081255e-08
2.20287477145e-06
7.79302970904e-07
1.27299515211e-06
1.42144223817e-06
2.0756282394e-07
2.01949122379e-06
1.04887325382e-06
2.54923626994e-06
2.31306667488e-06
2.45876308352e-06
1.97882107747e-06
3.89387148391e-07
7.9645370092e-06
8.59711120165e-06
2.87651720446e-05
1.41123729027e-05
1.01431151922e-05
6.47418047432e-07
3.29139149302e-07
1.08746436892e-06
2.73294201051e-08
7.17812627895e-08
1.61617083482e-08
1.04067261673e-07
1.26963429877e-07
5.66155492815e-08
3.70545273164e-08
1.1403666498e-08
1.41514634892e-08
8.2263640391e-08
3.01570922129e-08
1.05874104338e-09
5.77494669039e-09
5.11655534417e-08
8.85015164343e-08
1.33416353042e-08
1.75493976427e-08
6.94823477606e-08
3.75156564128e-08
3.60025134308e-08
5.86411895699e-08
1.12919398325e-07
7.58240083535e-08
7.98168739091e-08
6.77112571494e-08
7.8101994394e-08
7.94113102005e-08
7.66532583284e-08
5.68786547434e-08
3.47357078214e-08
5.29123791222e-08
1.07001653524e-07
1.94420426331e-07
1.65520014846e-07
2.39692142262e-07
1.70889072702e-07
8.34995016044e-08
2.33038928856e-08
5.37434234742e-08
1.00836925632e-07
1.55639833667e-07
1.79626788743e-07
1.53355361647e-07
1.74783988747e-07
1.13779588584e-07
5.59871874761e-08
8.29365660724e-08
9.69049746732e-08
8.31214227906e-08
4.5499418028e-08
6.78359382571e-08
1.60441007424e-07
3.73333797748e-07
4.18434425739e-07
3.31654621331e-07
3.59510102141e-07
2.57078121924e-07
1.777907545e-07
8.60613675176e-08
2.30146935849e-08
6.0583149344e-08
1.12855352103e-07
1.85286800889e-07
2.13731704646e-07
2.56704424938e-07
2.56727878624e-07
2.76958555622e-07
1.90143763887e-07
2.08918339509e-07
1.64441401612e-07
1.75906738131e-07
8.94548128778e-08
3.36106651492e-08
1.69141149e-07
4.61689294284e-07
5.00707397075e-07
4.27870452264e-07
2.85427301677e-07
2.30974882994e-07
1.10707580681e-07
6.77295949255e-08
4.05359245433e-08
7.35245387502e-08
1.68393890118e-07
1.96293329042e-07
2.65499883169e-07
2.5933916922e-07
2.64890918444e-07
2.25017123799e-07
2.54407967396e-07
2.36372860261e-07
2.16041673148e-07
1.15920629638e-07
5.46742188427e-08
2.577479013e-07
5.10910041464e-07
4.35079579568e-07
2.85509057444e-07
2.0760379819e-07
1.04469711769e-07
1.0648343771e-08
5.185890095e-08
1.5101429513e-07
1.84347830676e-07
2.6332597193e-07
2.53669928068e-07
2.16814801973e-07
2.22109475184e-07
2.08432720761e-07
1.92651290324e-07
1.0040169859e-07
9.73409930431e-08
2.84404747368e-07
4.80457200772e-07
3.35322007828e-07
1.68778164922e-07
2.16772768016e-08
6.99897844129e-08
1.63192135792e-07
1.41507761991e-07
1.64694828804e-07
1.44479861072e-07
2.28684690727e-07
1.79683370389e-07
9.15003304548e-08
9.89016088342e-08
2.62731204928e-07
1.8359253746e-07
2.29492225478e-08
8.37468265025e-08
7.82191773173e-08
7.04909103005e-09
2.30183603684e-09
3.37900149384e-08
1.06178442982e-06
1.31087298472e-06
4.55290326905e-06
4.63810981375e-06
7.76267373518e-06
7.98340869111e-06
2.10140387241e-06
9.80073543834e-07
1.95082598789e-06
8.79839694264e-07
4.56906547217e-06
1.03704658425e-06
3.12937207244e-06
1.42932924497e-06
1.83044720794e-06
4.60443675332e-06
1.38838959345e-06
3.14334059354e-06
1.3267300789e-07
1.53438919506e-07
1.86641169362e-07
7.45030357491e-06
7.61879389462e-06
1.65734138972e-05
3.18684717696e-06
3.88046258138e-06
6.67235990526e-07
5.45793014025e-07
5.89782834307e-07
8.0754973766e-07
7.5889766191e-09
3.21104657971e-07
2.57969931953e-07
1.06987438153e-06
7.10217358298e-07
2.74368870273e-06
5.39861312345e-06
6.6586199663e-06
3.30235468205e-06
1.90639149715e-06
1.41937278652e-06
1.70743896943e-06
2.22591059867e-06
4.22844033456e-06
2.07338269172e-06
2.22952517506e-06
3.53002350324e-06
3.67336567584e-06
3.01756952351e-06
1.4935017989e-06
2.2569146129e-06
2.92672800727e-06
2.69500059742e-06
3.20017760283e-06
2.75919913301e-06
3.03605187639e-06
2.51719217152e-06
2.74681334135e-06
2.53538979039e-06
2.67540933834e-06
2.12109348955e-05
2.05905997062e-05
2.0950471162e-05
3.0677461725e-05
1.40565330377e-06
8.67034951825e-07
9.44933051148e-07
2.31916239558e-05
1.1571168794e-05
3.25089780344e-05
4.28387998393e-05
1.32700253606e-05
1.53259378256e-05
4.45706626889e-05
4.33779946047e-05
2.14507480785e-05
1.70716495711e-05
2.32762315626e-06
8.5705035125e-07
1.45975609655e-06
8.71121161303e-07
1.6094496278e-07
1.39186178272e-07
1.01440897993e-06
1.4347198186e-07
1.71395289085e-06
1.15329748397e-06
4.2529384257e-07
5.35530783102e-07
2.76371366333e-07
1.40801099248e-07
5.08913322163e-07
8.10473892779e-07
2.65547169341e-06
1.2088112669e-06
8.05610721477e-06
4.47395699388e-06
1.39299965114e-06
9.28002271761e-07
1.57267582043e-07
4.28203942551e-07
2.11246204522e-07
2.93346047858e-07
3.20432888998e-07
1.84641427339e-08
5.586844512e-07
1.21539007896e-07
9.91029703491e-08
2.59062647496e-08
3.5043596034e-07
1.22834794799e-07
1.45416496654e-06
2.28141063149e-06
2.22781902018e-08
4.13063022191e-09
4.38595073357e-06
5.78781224646e-06
1.19329904494e-05
1.09809516982e-05
3.48693929985e-06
1.93426887453e-06
3.61997259999e-06
1.7543880452e-05
1.36964431492e-05
8.75109297102e-06
1.0336065188e-05
7.65128524282e-06
3.78631409315e-06
3.03204756024e-06
1.08189577935e-06
1.72226785052e-06
8.59202481689e-06
7.50359234619e-06
7.73727044251e-06
6.17569577748e-06
6.42657102036e-06
2.56989112833e-07
3.44483034786e-06
2.4457546294e-06
3.94404981962e-06
1.83564266375e-06
1.96984714413e-07
2.18539642196e-07
3.54927544778e-07
5.79325570831e-08
9.6873089607e-07
7.00130582026e-08
4.89397341728e-07
3.60766723854e-09
9.27003530022e-07
1.23142398495e-07
1.23261978857e-07
1.66075951625e-07
1.03990198913e-06
2.68064887354e-07
1.71326971861e-06
1.440442987e-07
1.30154832048e-06
3.31971792798e-07
5.20179973157e-07
1.26854129559e-06
3.22479333656e-06
3.12943751236e-06
2.93172796113e-06
3.72870289013e-07
2.05028588414e-06
2.77087919199e-06
1.98938911613e-06
1.34238487228e-06
1.75966822364e-06
9.34795900585e-07
2.682303519e-06
7.0990382432e-07
1.17898476141e-06
9.6754893419e-07
5.40402327659e-07
1.67659675121e-07
8.83394301735e-07
2.87402607515e-08
4.62228849014e-08
1.01491613712e-07
1.74620711214e-07
1.95799757975e-07
4.45418486492e-07
5.32751047016e-07

