# vtk DataFile Version 3.0
File Name: Molecule/methanol/methanol_1.0-3.vtk
ASCII
DATASET UNSTRUCTURED_GRID
FIELD FieldData 1
TIME 1 1 double
0.0
POINTS 54 double
1.3990954161 0.003630021587 -0.94180494547
1.6110867262 -0.00073360919487 -0.33529192209
1.2825117111 -0.6084035635 -0.90646797419
1.0924098492 -1.224858284 -0.27307078242
0.028121005744 -1.6859414577 -0.16761255264
0.91583430767 -1.1265358925 -0.86908012629
-0.058619149029 -1.5097949505 -0.82986962795
-1.2054520845 -1.2302498817 -0.058363728225
-1.1754999161 -1.0895351171 -0.70932483673
-1.7288445234 -0.0011299169855 -0.023593440652
-1.6384741068 8.0059515312e-05 -0.7803273201
-1.166072607 1.0891392231 -0.71925342083
-1.2077660561 1.2289916277 -0.057778783143
-0.055327288806 1.5116647482 -0.8212531805
0.029939601198 1.6853909492 -0.16209229827
0.91215950251 1.1261035204 -0.87332671881
1.0941262245 1.2234214544 -0.26933389902
1.2815452814 0.6085074544 -0.91055512428
1.9060227871 -0.0033021676354 0.67188954353
1.5803288221 1.0591775179 0.65776908398
1.5726476908 0.50440174341 1.5989302397
1.5748757124 -0.58416336775 1.5492042303
1.4905531406 -1.1792839766 0.66187518835
0.58039152622 1.4501204491 1.7180674076
0.56845802069 0.55007952452 2.3730480671
0.59084820747 -0.55140143633 2.3634631634
0.57875728607 -1.4517062902 1.7176766396
0.56978869438 -1.8041044474 0.66111934185
0.57183128595 1.803396225 0.66015183926
-0.54287922382 1.4605822563 1.7032192945
-0.53058588505 0.56960719824 2.3672633171
-0.53593105078 -0.5568395853 2.3699526787
-0.54089748859 -1.4615377188 1.7043523788
-0.53951174021 -1.8034499884 0.64470726252
-0.5420498848 1.8027307987 0.64294403791
-1.5411294699 1.0561890602 0.67662107944
-1.5355063677 0.50536328554 1.59801507
-1.5381566286 -0.58231699467 1.5479482412
-1.4518817663 -1.1772571802 0.68333494663
-1.86297822 -0.0023800665513 0.69560754299
-0.14614652097 0.30792111158 -2.2375485897
-0.10935923457 -0.77825468779 -2.0554890633
-1.1429044008 -0.61420565844 -1.7007097006
-1.1476391554 0.61083549261 -1.6996669769
-0.12433849275 1.1435425282 -1.7586065531
0.88905888796 0.96798229218 -1.3580092192
0.99413055182 -0.84295028448 -1.3477056026
1.2141616344 0.3802844882 -1.3969706297
1.2698216438 -0.30863311887 -1.2982541323
1.0153074265 0.002930093091 -1.7693665028
0.90511751175 -0.59769761562 -1.7033914328
0.89468210936 0.60958516598 -1.7119686604
0.50098609924 -0.090830169618 -2.1377403736
0.36225515604 0.51104098558 -2.1003949642

CELLS 104 416
3 0 1 2
3 3 4 5
3 5 4 6
3 4 7 6
3 6 7 8
3 7 9 8
3 8 9 10
3 10 9 11
3 12 11 9
3 11 12 13
3 14 13 12
3 13 14 15
3 16 15 14
3 16 1 17
3 18 19 20
3 18 20 21
3 18 21 22
3 20 19 23
3 20 23 24
3 20 24 25
3 21 20 25
3 21 25 26
3 22 21 26
3 22 26 27
3 19 28 23
3 23 28 29
3 23 29 30
3 24 23 30
3 24 30 31
3 25 24 31
3 26 25 31
3 26 31 32
3 26 32 27
3 33 27 32
3 28 34 29
3 29 34 35
3 29 35 36
3 30 29 36
3 30 36 31
3 37 31 36
3 32 31 37
3 32 37 38
3 33 32 38
3 36 35 39
3 37 36 39
3 38 37 39
3 38 39 9
3 38 9 7
3 38 7 33
3 33 7 4
3 33 4 27
3 27 4 3
3 27 3 22
3 22 3 1
3 22 1 18
3 18 1 19
3 19 1 16
3 19 16 28
3 28 16 14
3 28 14 34
3 34 14 12
3 34 12 35
3 35 12 9
3 35 9 39
3 40 41 42
3 40 42 43
3 44 40 43
3 44 43 11
3 44 11 13
3 44 13 45
3 5 6 46
3 41 6 42
3 42 6 8
3 42 8 10
3 42 10 43
3 43 10 11
3 5 2 3
3 3 2 1
3 47 48 49
3 50 48 46
3 48 2 46
3 48 0 2
3 46 2 5
3 50 46 41
3 41 46 6
3 0 17 1
3 16 17 15
3 15 45 13
3 44 45 51
3 51 45 47
3 45 17 47
3 45 15 17
3 47 17 0
3 48 47 0
3 40 52 41
3 41 52 50
3 51 49 53
3 49 52 53
3 49 50 52
3 53 52 40
3 51 53 44
3 53 40 44
3 50 49 48
3 47 49 51

CELL_TYPES 104
5
5
5
5
5
5
5
5
5
5
5
5
5
5
5
5
5
5
5
5
5
5
5
5
5
5
5
5
5
5
5
5
5
5
5
5
5
5
5
5
5
5
5
5
5
5
5
5
5
5
5
5
5
5
5
5
5
5
5
5
5
5
5
5
5
5
5
5
5
5
5
5
5
5
5
5
5
5
5
5
5
5
5
5
5
5
5
5
5
5
5
5
5
5
5
5
5
5
5
5
5
5
5
5

CELL_DATA 104
SCALARS cell_data_0 double
LOOKUP_TABLE default
2.13795113606e-06
1.5635100694e-07
5.74701442164e-08
4.30174365108e-07
2.19894560274e-07
6.52216814863e-08
2.92268263503e-07
4.09354182487e-07
3.13198641424e-08
1.62362589122e-07
2.97159491929e-07
4.85298396362e-07
1.52697378545e-07
8.73259728518e-07
1.0573419879e-08
3.45607630957e-09
6.07498437798e-09
4.86324895031e-09
1.12702870661e-08
1.90906212913e-09
7.22928234926e-09
2.85652654047e-09
7.02064843054e-09
1.22486246066e-09
5.18501243709e-10
3.22672073427e-09
3.42270504254e-10
1.78224109016e-09
9.68001177817e-09
1.33654630028e-08
4.39675593691e-09
4.45532918619e-09
4.85735853875e-10
3.17494889371e-08
2.76775235348e-08
7.53941297173e-08
6.81973767865e-09
1.02932204803e-08
1.37748891378e-08
7.55588343958e-10
2.26602934703e-08
2.45257642633e-08
3.44300735641e-08
3.36804836578e-08
2.70574152274e-08
2.95312006107e-08
1.11592034934e-07
4.70212922141e-07
1.37044688109e-07
2.71226904954e-07
1.51290473691e-07
1.27171606124e-07
1.30093257189e-07
3.40443894096e-07
5.34081259279e-08
2.44691092438e-08
3.33478144065e-07
1.06711212712e-07
1.07079709706e-07
4.01078869202e-08
3.50194697661e-07
4.91432949716e-08
4.6946812857e-07
1.00715103992e-07
7.75007228513e-08
4.31612613702e-07
1.66474737752e-07
4.29224382935e-07
7.76355768005e-08
1.77424856507e-06
2.41521068326e-06
1.02088201308e-06
8.71453220535e-08
2.22932573624e-07
2.46753736426e-07
1.18416438005e-07
3.78573315314e-07
7.23620149969e-07
1.54719589153e-06
1.86997965049e-06
3.1894189903e-06
1.03832772282e-07
6.47969113613e-07
7.95677928294e-07
6.4887051411e-06
2.03956551124e-06
3.1451018847e-07
1.07608563041e-06
1.79674703829e-06
2.22759407133e-06
7.88374534551e-07
7.01760134322e-07
6.00750870301e-07
7.62952374851e-07
5.75387160742e-07
2.16798639185e-06
4.84925551037e-06
4.68577669951e-06
1.69747188383e-06
3.35085777102e-07
1.53578015441e-06
2.22028995703e-07
2.25897025882e-06
7.96184670588e-08

