# vtk DataFile Version 3.0
File Name: Molecule/methanol/methanol_5.0-0.vtk
ASCII
DATASET UNSTRUCTURED_GRID
FIELD FieldData 1
TIME 1 1 double
0.0
POINTS 240 double
1.611 0.0 -0.359
1.543 -0.475 -0.352
1.403 0.0 -0.933
1.341 -0.432 -0.927
1.345 -0.911 -0.332
1.16 -0.83 -0.909
1.032 -1.273 -0.301
0.876 -1.16 -0.88
0.631 -1.532 -0.261
0.51 -1.396 -0.844
0.173 -1.667 -0.216
0.093 -1.519 -0.802
-0.304 -1.667 -0.168
-0.341 -1.519 -0.759
-0.762 -1.532 -0.123
-0.758 -1.396 -0.718
-1.163 -1.273 -0.083
-1.124 -1.16 -0.681
-1.475 -0.911 -0.051
-1.408 -0.83 -0.653
-1.674 -0.475 -0.032
-1.589 -0.432 -0.635
-1.742 -0.0 -0.025
-1.651 -0.0 -0.629
-1.674 0.475 -0.032
-1.589 0.432 -0.635
-1.475 0.911 -0.051
-1.408 0.83 -0.653
-1.163 1.273 -0.083
-1.124 1.16 -0.681
-0.762 1.532 -0.123
-0.758 1.396 -0.718
-0.304 1.667 -0.168
-0.341 1.519 -0.759
0.173 1.667 -0.216
0.093 1.519 -0.802
0.631 1.532 -0.261
0.51 1.396 -0.844
1.032 1.273 -0.301
0.876 1.16 -0.88
1.345 0.911 -0.332
1.16 0.83 -0.909
1.543 0.475 -0.352
1.341 0.432 -0.927
1.907 0.0 0.656
1.852 0.452 0.656
1.852 0.226 1.047
1.852 -0.226 1.047
1.852 -0.452 0.656
1.852 -0.226 0.264
1.852 0.226 0.264
1.69 0.76 1.094
1.69 0.439 1.415
1.69 -0.0 1.533
1.69 -0.439 1.415
1.69 -0.76 1.094
1.69 -0.877 0.656
1.69 -0.76 0.217
1.69 -0.439 -0.104
1.69 0.439 -0.104
1.69 0.76 0.217
1.69 0.877 0.656
1.432 1.167 1.108
1.432 0.925 1.499
1.432 0.558 1.776
1.432 0.115 1.902
1.432 -0.343 1.859
1.432 -0.754 1.654
1.432 -1.064 1.315
1.432 -1.23 0.886
1.432 -1.23 0.426
1.432 -1.064 -0.003
1.432 1.167 0.203
1.432 1.252 0.656
1.091 1.484 1.113
1.091 1.283 1.531
1.091 0.969 1.87
1.091 0.568 2.102
1.091 0.116 2.205
1.091 -0.346 2.17
1.091 -0.777 2.001
1.091 -1.139 1.712
1.091 -1.4 1.33
1.091 -1.536 0.887
1.091 -1.536 0.424
1.091 -1.4 -0.018
1.091 1.484 0.198
1.091 1.553 0.656
0.688 1.705 1.112
0.688 1.528 1.538
0.688 1.248 1.904
0.688 0.882 2.184
0.688 0.457 2.36
0.688 0.0 2.42
0.688 -0.457 2.36
0.688 -0.882 2.184
0.688 -1.248 1.904
0.688 -1.528 1.538
0.688 -1.705 1.112
0.688 -1.765 0.656
0.688 -1.705 0.199
0.688 1.705 0.199
0.688 1.765 0.656
0.247 1.815 1.122
0.247 1.642 1.558
0.247 1.366 1.938
0.247 1.004 2.238
0.247 0.579 2.438
0.247 0.118 2.526
0.247 -0.351 2.496
0.247 -0.798 2.351
0.247 -1.194 2.099
0.247 -1.516 1.757
0.247 -1.742 1.345
0.247 -1.859 0.89
0.247 -1.859 0.421
0.247 1.815 0.19
0.247 1.874 0.656
-0.209 1.815 1.122
-0.209 1.642 1.558
-0.209 1.366 1.938
-0.209 1.004 2.238
-0.209 0.579 2.438
-0.209 0.118 2.526
-0.209 -0.351 2.496
-0.209 -0.798 2.351
-0.209 -1.194 2.099
-0.209 -1.516 1.757
-0.209 -1.742 1.345
-0.209 -1.859 0.89
-0.209 -1.859 0.421
-0.209 1.815 0.19
-0.209 1.874 0.656
-0.65 1.765 0.656
-0.65 1.705 1.112
-0.65 1.528 1.538
-0.65 1.248 1.904
-0.65 0.882 2.184
-0.65 0.457 2.36
-0.65 0.0 2.42
-0.65 -0.457 2.36
-0.65 -0.882 2.184
-0.65 -1.248 1.904
-0.65 -1.528 1.538
-0.65 -1.705 1.112
-0.65 -1.765 0.656
-0.65 -1.705 0.199
-0.65 1.705 0.199
-1.053 1.553 0.656
-1.053 1.484 1.113
-1.053 1.283 1.531
-1.053 0.969 1.87
-1.053 0.568 2.102
-1.053 0.116 2.205
-1.053 -0.346 2.17
-1.053 -0.777 2.001
-1.053 -1.139 1.712
-1.053 -1.4 1.33
-1.053 -1.536 0.887
-1.053 -1.536 0.424
-1.053 1.484 0.198
-1.394 1.252 0.656
-1.394 1.167 1.108
-1.394 0.925 1.499
-1.394 0.558 1.776
-1.394 0.115 1.902
-1.394 -0.343 1.859
-1.394 -0.754 1.654
-1.394 -1.064 1.315
-1.394 -1.23 0.886
-1.394 -1.23 0.426
-1.394 1.167 0.203
-1.652 0.877 0.656
-1.652 0.76 1.094
-1.652 0.439 1.415
-1.652 -0.0 1.533
-1.652 -0.439 1.415
-1.652 -0.76 1.094
-1.652 -0.877 0.656
-1.652 -0.76 0.217
-1.652 0.76 0.217
-1.814 0.452 0.656
-1.814 0.226 1.047
-1.814 -0.226 1.047
-1.814 -0.452 0.656
-1.814 -0.226 0.264
-1.814 0.226 0.264
-1.868 -0.0 0.656
1.122 -0.781 -1.188
0.783 -1.147 -1.212
0.783 -0.878 -1.615
1.122 -0.451 -1.519
0.783 -0.475 -1.885
1.122 -0.0 -1.639
0.783 0.0 -1.979
0.783 0.475 -1.885
1.122 0.451 -1.519
0.783 0.878 -1.615
1.122 0.781 -1.188
0.783 1.147 -1.212
0.355 -1.284 -1.432
0.355 -0.989 -1.811
0.355 -0.586 -2.074
0.355 -0.121 -2.192
0.355 0.358 -2.152
0.355 0.798 -1.959
0.355 1.152 -1.634
0.355 1.381 -1.211
-0.12 -1.383 -1.403
-0.12 -1.125 -1.781
-0.12 -0.767 -2.067
-0.12 -0.342 -2.234
-0.12 0.115 -2.268
-0.12 0.561 -2.166
-0.12 0.957 -1.937
-0.12 1.268 -1.602
-0.12 1.467 -1.19
-0.594 -1.44 -0.977
-0.594 -1.284 -1.432
-0.594 -0.989 -1.811
-0.594 -0.586 -2.074
-0.594 -0.121 -2.192
-0.594 0.358 -2.152
-0.594 0.798 -1.959
-0.594 1.152 -1.634
-0.594 1.381 -1.211
-1.022 -1.147 -1.212
-1.022 -0.878 -1.615
-1.022 -0.475 -1.885
-1.022 0.0 -1.979
-1.022 0.475 -1.885
-1.022 0.878 -1.615
-1.022 1.147 -1.212
-1.362 -0.781 -1.188
-1.362 -0.451 -1.519
-1.362 -0.0 -1.639
-1.362 0.451 -1.519
-1.362 0.781 -1.188
-1.58 -0.237 -1.148
-1.58 0.237 -1.148

CELLS 476 1904
3 0 1 2
3 2 1 3
3 1 4 3
3 3 4 5
3 4 6 5
3 5 6 7
3 6 8 7
3 7 8 9
3 8 10 9
3 9 10 11
3 10 12 11
3 11 12 13
3 12 14 13
3 13 14 15
3 14 16 15
3 15 16 17
3 16 18 17
3 17 18 19
3 18 20 19
3 19 20 21
3 20 22 21
3 21 22 23
3 22 24 23
3 23 24 25
3 24 26 25
3 25 26 27
3 26 28 27
3 27 28 29
3 28 30 29
3 29 30 31
3 30 32 31
3 31 32 33
3 32 34 33
3 33 34 35
3 34 36 35
3 35 36 37
3 36 38 37
3 37 38 39
3 38 40 39
3 39 40 41
3 40 42 41
3 41 42 43
3 42 0 43
3 43 0 2
3 44 45 46
3 44 46 47
3 44 47 48
3 44 48 49
3 44 49 50
3 44 50 45
3 46 45 51
3 46 51 52
3 46 52 53
3 47 46 53
3 47 53 54
3 47 54 55
3 48 47 55
3 48 55 56
3 48 56 57
3 49 48 57
3 49 57 58
3 50 59 60
3 45 50 60
3 45 60 61
3 45 61 51
3 51 61 62
3 51 62 63
3 52 51 63
3 52 63 64
3 52 64 65
3 53 52 65
3 53 65 66
3 54 53 66
3 54 66 67
3 55 54 67
3 55 67 68
3 55 68 69
3 56 55 69
3 56 69 70
3 57 56 70
3 57 70 71
3 61 60 72
3 61 72 73
3 61 73 62
3 62 73 74
3 62 74 75
3 63 62 75
3 63 75 76
3 64 63 76
3 64 76 77
3 65 64 77
3 65 77 78
3 65 78 79
3 66 65 79
3 66 79 80
3 67 66 80
3 67 80 81
3 68 67 81
3 68 81 82
3 69 68 82
3 69 82 83
3 69 83 84
3 70 69 84
3 70 84 85
3 71 70 85
3 73 72 86
3 73 86 87
3 73 87 74
3 74 87 88
3 74 88 89
3 75 74 89
3 75 89 90
3 76 75 90
3 76 90 91
3 77 76 91
3 77 91 92
3 78 77 92
3 78 92 93
3 79 78 93
3 79 93 94
3 80 79 94
3 80 94 95
3 80 95 96
3 81 80 96
3 81 96 97
3 82 81 97
3 82 97 98
3 83 82 98
3 83 98 99
3 84 83 99
3 84 99 100
3 85 84 100
3 87 86 101
3 87 101 102
3 87 102 88
3 88 102 103
3 88 103 104
3 89 88 104
3 89 104 105
3 90 89 105
3 90 105 106
3 91 90 106
3 91 106 107
3 92 91 107
3 92 107 108
3 93 92 108
3 93 108 109
3 94 93 109
3 94 109 110
3 95 94 110
3 95 110 111
3 96 95 111
3 96 111 112
3 97 96 112
3 97 112 113
3 98 97 113
3 98 113 114
3 99 98 114
3 99 114 115
3 100 99 115
3 102 101 116
3 102 116 117
3 102 117 103
3 103 117 118
3 103 118 119
3 104 103 119
3 104 119 120
3 105 104 120
3 105 120 121
3 106 105 121
3 106 121 122
3 107 106 122
3 107 122 123
3 108 107 123
3 108 123 124
3 109 108 124
3 109 124 125
3 110 109 125
3 110 125 126
3 111 110 126
3 111 126 127
3 112 111 127
3 112 127 128
3 113 112 128
3 113 128 129
3 114 113 129
3 114 129 130
3 115 114 130
3 117 116 131
3 117 131 132
3 117 132 118
3 118 132 133
3 118 133 134
3 119 118 134
3 119 134 135
3 120 119 135
3 120 135 136
3 121 120 136
3 121 136 137
3 122 121 137
3 122 137 138
3 123 122 138
3 123 138 139
3 124 123 139
3 124 139 140
3 125 124 140
3 125 140 141
3 126 125 141
3 126 141 142
3 127 126 142
3 127 142 143
3 128 127 143
3 128 143 144
3 129 128 144
3 129 144 145
3 130 129 145
3 130 145 146
3 133 131 147
3 132 131 133
3 134 133 148
3 134 148 149
3 135 134 149
3 135 149 150
3 136 135 150
3 136 150 151
3 137 136 151
3 137 151 152
3 138 137 152
3 138 152 153
3 139 138 153
3 139 153 154
3 140 139 154
3 140 154 155
3 141 140 155
3 142 141 155
3 142 155 156
3 143 142 156
3 143 156 157
3 144 143 157
3 144 157 158
3 145 144 158
3 145 158 159
3 146 145 159
3 148 147 160
3 133 147 148
3 149 148 161
3 149 161 162
3 150 149 162
3 150 162 163
3 151 150 163
3 151 163 164
3 152 151 164
3 152 164 165
3 153 152 165
3 154 153 165
3 154 165 166
3 155 154 166
3 155 166 167
3 156 155 167
3 156 167 168
3 157 156 168
3 157 168 169
3 158 157 169
3 158 169 170
3 159 158 170
3 161 160 171
3 148 160 161
3 162 161 172
3 162 172 173
3 163 162 173
3 163 173 174
3 164 163 174
3 165 164 174
3 165 174 175
3 166 165 175
3 166 175 176
3 167 166 176
3 167 176 177
3 168 167 177
3 169 168 177
3 169 177 178
3 170 169 178
3 170 178 179
3 172 171 180
3 161 171 172
3 173 172 181
3 173 181 182
3 174 173 182
3 175 174 182
3 175 182 183
3 176 175 183
3 177 176 183
3 177 183 184
3 178 177 184
3 179 178 184
3 179 184 185
3 181 180 186
3 172 180 181
3 182 181 187
3 183 182 187
3 184 183 187
3 185 184 187
3 186 185 187
3 181 186 187
3 186 180 24
3 186 24 22
3 186 22 185
3 185 22 20
3 185 20 179
3 179 20 18
3 179 18 170
3 170 18 16
3 170 16 159
3 159 16 14
3 159 14 146
3 146 14 12
3 146 12 130
3 130 12 10
3 130 10 115
3 115 10 100
3 100 10 8
3 100 8 85
3 85 8 6
3 85 6 71
3 71 6 4
3 71 4 58
3 71 58 57
3 58 4 1
3 58 1 0
3 58 0 49
3 49 0 50
3 50 0 59
3 59 0 42
3 59 42 40
3 59 40 60
3 60 40 72
3 72 40 38
3 72 38 86
3 86 38 36
3 86 36 101
3 101 36 116
3 116 36 34
3 116 34 131
3 131 34 32
3 131 32 147
3 147 32 30
3 147 30 160
3 160 30 28
3 160 28 171
3 171 28 26
3 171 26 180
3 180 26 24
3 188 189 190
3 191 188 190
3 191 190 192
3 193 191 192
3 193 192 194
3 193 194 195
3 196 193 195
3 196 195 197
3 198 196 197
3 198 197 199
3 190 189 200
3 190 200 201
3 192 190 201
3 192 201 202
3 192 202 203
3 194 192 203
3 194 203 204
3 195 194 204
3 195 204 205
3 197 195 205
3 197 205 206
3 199 197 206
3 199 206 207
3 200 208 209
3 201 200 209
3 201 209 210
3 202 201 210
3 202 210 211
3 203 202 211
3 203 211 212
3 204 203 212
3 204 212 213
3 205 204 213
3 205 213 214
3 206 205 214
3 206 214 215
3 207 206 215
3 207 215 216
3 208 217 218
3 209 208 218
3 209 218 219
3 210 209 219
3 210 219 220
3 211 210 220
3 211 220 221
3 212 211 221
3 212 221 222
3 213 212 222
3 213 222 223
3 214 213 223
3 214 223 224
3 215 214 224
3 215 224 225
3 216 215 225
3 218 217 226
3 218 226 227
3 219 218 227
3 219 227 228
3 220 219 228
3 221 220 228
3 221 228 229
3 222 221 229
3 222 229 230
3 223 222 230
3 223 230 231
3 224 223 231
3 224 231 232
3 225 224 232
3 227 226 233
3 227 233 234
3 228 227 234
3 228 234 235
3 229 228 235
3 230 229 235
3 230 235 236
3 231 230 236
3 231 236 237
3 232 231 237
3 234 233 238
3 235 234 238
3 235 238 239
3 236 235 239
3 237 236 239
3 237 239 25
3 237 25 27
3 237 27 29
3 237 29 232
3 232 29 31
3 232 31 225
3 225 31 33
3 225 33 216
3 216 33 35
3 216 35 207
3 207 35 37
3 207 37 199
3 199 37 39
3 199 39 198
3 198 39 41
3 198 41 43
3 198 43 196
3 196 43 2
3 196 2 193
3 193 2 191
3 191 2 3
3 191 3 188
3 188 3 5
3 188 5 7
3 188 7 189
3 189 7 9
3 189 9 200
3 200 9 11
3 200 11 208
3 208 11 13
3 208 13 217
3 217 13 15
3 217 15 226
3 226 15 17
3 226 17 233
3 233 17 19
3 233 19 21
3 233 21 238
3 238 21 23
3 238 23 239
3 239 23 25

CELL_TYPES 476
5
5
5
5
5
5
5
5
5
5
5
5
5
5
5
5
5
5
5
5
5
5
5
5
5
5
5
5
5
5
5
5
5
5
5
5
5
5
5
5
5
5
5
5
5
5
5
5
5
5
5
5
5
5
5
5
5
5
5
5
5
5
5
5
5
5
5
5
5
5
5
5
5
5
5
5
5
5
5
5
5
5
5
5
5
5
5
5
5
5
5
5
5
5
5
5
5
5
5
5
5
5
5
5
5
5
5
5
5
5
5
5
5
5
5
5
5
5
5
5
5
5
5
5
5
5
5
5
5
5
5
5
5
5
5
5
5
5
5
5
5
5
5
5
5
5
5
5
5
5
5
5
5
5
5
5
5
5
5
5
5
5
5
5
5
5
5
5
5
5
5
5
5
5
5
5
5
5
5
5
5
5
5
5
5
5
5
5
5
5
5
5
5
5
5
5
5
5
5
5
5
5
5
5
5
5
5
5
5
5
5
5
5
5
5
5
5
5
5
5
5
5
5
5
5
5
5
5
5
5
5
5
5
5
5
5
5
5
5
5
5
5
5
5
5
5
5
5
5
5
5
5
5
5
5
5
5
5
5
5
5
5
5
5
5
5
5
5
5
5
5
5
5
5
5
5
5
5
5
5
5
5
5
5
5
5
5
5
5
5
5
5
5
5
5
5
5
5
5
5
5
5
5
5
5
5
5
5
5
5
5
5
5
5
5
5
5
5
5
5
5
5
5
5
5
5
5
5
5
5
5
5
5
5
5
5
5
5
5
5
5
5
5
5
5
5
5
5
5
5
5
5
5
5
5
5
5
5
5
5
5
5
5
5
5
5
5
5
5
5
5
5
5
5
5
5
5
5
5
5
5
5
5
5
5
5
5
5
5
5
5
5
5
5
5
5
5
5
5
5
5
5
5
5
5
5
5
5
5
5
5
5
5
5
5
5
5
5
5
5
5
5
5
5
5
5
5
5
5
5
5
5
5
5
5
5
5
5
5
5
5
5
5
5
5
5
5
5
5
5
5
5
5
5
5
5
5
5
5
5
5
5
5
5
5
5
5
5
5
5
5
5
5
5
5
5

CELL_DATA 476
SCALARS cell_data_0 double
LOOKUP_TABLE default
1.53272385197e-06
1.25867220609e-06
4.96484174363e-07
6.44243544712e-07
8.86580209522e-08
1.72213860575e-07
1.70706697319e-08
3.93873904825e-09
3.08371559124e-08
6.24737405782e-08
1.79025101697e-08
8.16909347612e-08
3.71971854435e-09
9.53911543891e-08
1.81664653103e-08
1.00848297428e-07
2.64124643823e-08
9.41645915968e-08
3.32856684458e-08
1.00054094255e-07
4.04326120151e-08
9.289242769e-08
4.94296304438e-08
9.70651811121e-08
5.51701142871e-08
7.77373189871e-08
6.29650449687e-08
7.48915279291e-08
7.25436320108e-08
5.81262831462e-08
8.06490344168e-08
4.00158361896e-08
8.66848467104e-08
1.0125872272e-08
9.23267637021e-08
3.2253832536e-08
8.17086523136e-08
7.91000908519e-08
2.72923526415e-08
2.8053858211e-08
7.56708198727e-08
6.15561701434e-07
3.61017755704e-07
2.07379817717e-06
2.79633566522e-09
2.32823454143e-09
1.96284462021e-09
1.28808862379e-09
1.1790182842e-08
1.70921170647e-09
7.46720749707e-10
1.10085772028e-09
6.92776016878e-10
2.59114754494e-10
4.08586454382e-10
6.49287850469e-10
9.2880511743e-10
1.22662828773e-09
1.63577019367e-09
1.27831189072e-09
1.20814578576e-08
1.04865757921e-08
1.78282194639e-10
2.14570068834e-09
2.2762343033e-10
4.45573057263e-10
5.58548424333e-11
2.76572514542e-10
2.08838310914e-10
2.75683211277e-10
4.81875360852e-10
3.48729424806e-10
6.52708231641e-10
2.8470129474e-10
6.49464167756e-10
4.67967580502e-10
2.19451530729e-10
1.96624283143e-10
3.01120003982e-09
8.37913898082e-09
7.74079031204e-09
5.30214555621e-10
2.40165676532e-09
6.08565067192e-10
3.87663210009e-10
1.45988994775e-10
1.85620766275e-10
1.18074875511e-10
1.79765454407e-10
1.74009142687e-10
1.1882226297e-10
1.6162267925e-10
9.50825275411e-11
2.26637519331e-10
2.99106609951e-10
1.47319573202e-10
3.48527393769e-10
9.48612436651e-12
1.74310493752e-10
4.0809577108e-10
4.774078912e-10
3.43581176384e-10
1.80477230226e-09
4.38277225029e-09
4.13623400697e-09
1.44606460269e-10
1.82961890516e-10
1.00135813321e-09
2.8484978974e-10
5.26497190455e-11
4.27940854456e-11
5.06566351974e-11
1.03430116139e-10
2.23316362799e-10
6.80551851856e-11
1.56242753399e-10
1.42292716956e-10
5.7909666092e-11
3.55657250458e-11
2.65058035655e-10
1.09898999997e-10
2.60832976399e-10
6.94925021566e-12
2.8635781706e-10
2.20419687974e-10
4.56715805307e-10
7.07989492741e-11
1.68816803161e-10
2.1658078372e-10
1.7541484289e-09
1.02548930518e-09
8.49296953063e-10
1.49732928877e-09
8.33644474691e-10
9.58269586029e-10
1.79768247728e-10
2.50667141473e-10
5.87984237426e-11
6.05282157712e-11
2.24184418842e-10
2.32840968089e-10
7.58879173323e-11
3.06271685082e-10
1.8503144803e-10
1.41030045797e-10
3.44128482715e-11
4.6329351765e-10
1.89677996499e-10
2.10713452248e-10
1.23431491866e-10
1.00951443848e-10
1.51210950243e-10
1.69261901627e-10
7.41612553796e-11
1.55852915154e-10
1.92100778932e-12
8.19355527892e-10
1.01469102785e-09
8.46151286177e-10
8.02277864586e-10
3.44954667981e-09
2.692245736e-10
1.4587804558e-09
1.09477861567e-10
4.48097968836e-10
3.46506467252e-11
3.76212651712e-10
2.36152673023e-11
4.51691163912e-11
3.95342923251e-12
6.29326366775e-11
3.74353368125e-11
1.01038447604e-10
6.26415249943e-11
1.18349867515e-11
2.0358371305e-10
1.51521662977e-10
1.83907373295e-10
5.8366635978e-11
2.76181630285e-10
6.38132561599e-12
4.30744345615e-10
1.79025124279e-11
7.45069365953e-10
7.14472238152e-11
1.9990210489e-09
1.77791885282e-10
2.54805249584e-09
5.70116387279e-09
3.07738654005e-10
1.86840805286e-09
3.4917499135e-09
2.72971276033e-10
1.12610107554e-09
1.48600793114e-10
7.80555095283e-10
3.1310507323e-10
2.61741359652e-10
4.63736556337e-11
1.99998758408e-10
1.480535554e-10
1.15639672452e-10
1.2237122599e-10
2.30251667779e-10
1.67857277323e-10
1.74921940186e-10
1.70904806429e-10
2.9281162238e-11
9.51001250153e-11
6.06462400721e-11
9.54332785218e-11
1.82375865786e-10
3.80671972225e-10
6.8306826831e-11
2.01531564783e-09
1.63839851922e-09
2.44212528229e-09
3.7224852727e-09
2.62342330558e-10
3.75917697867e-09
4.47456296778e-10
1.36289329596e-09
1.12161965096e-10
4.89267845141e-10
8.6762303405e-11
3.67145398534e-10
1.39196258338e-10
1.09198947063e-10
1.64594804938e-10
7.30093842135e-12
2.5700508831e-10
7.30684230641e-11
2.70445268297e-10
2.39640844259e-10
1.06140161118e-10
8.74057792257e-11
2.17597846328e-10
3.49804815982e-10
2.11512326279e-11
1.3127513554e-09
3.74335744291e-10
2.42866773291e-09
1.54216121391e-09
5.9346316642e-09
9.87416444353e-11
4.01536004155e-09
7.5983911089e-10
1.49083852764e-09
3.7837638922e-11
6.46643000736e-10
2.7400503275e-10
2.40786570247e-10
3.48186739371e-10
7.9925545803e-11
1.24793550914e-10
3.50166459484e-10
1.93094110249e-10
2.81765733106e-10
4.47794470171e-10
6.07486832374e-11
6.72485766047e-10
3.78996525832e-10
1.90983926415e-09
1.2647865226e-09
4.44066090394e-09
8.46036975145e-09
7.491850365e-10
4.23843286777e-09
8.85582546031e-10
1.34774622966e-09
1.31774446165e-10
4.44719241156e-10
4.62093474152e-11
1.21221788541e-09
4.16205393028e-10
8.17463418064e-10
6.92173989231e-10
8.71354558109e-10
1.7447932969e-09
4.48385713561e-10
2.83726475605e-09
2.52458662423e-10
7.78765753712e-09
1.05851003143e-08
2.060783331e-09
4.08966964188e-09
6.4616624303e-10
1.04174352959e-09
2.4526545698e-10
2.98475615049e-09
1.41252908276e-09
1.22228132109e-09
7.26793837961e-10
2.18418095474e-09
1.09180237454e-08
5.12222900351e-09
1.15538311295e-08
2.56623131573e-09
3.27060902135e-09
1.52482283342e-09
1.64750870583e-09
8.119635498e-09
4.16392898792e-09
2.50463227479e-09
4.42057193632e-09
2.84038978629e-08
2.83501774499e-09
2.83202541111e-08
4.4045076663e-09
2.19522580693e-08
2.67193053621e-08
5.96046648831e-08
2.19544698319e-08
6.07555750573e-08
1.16039828115e-09
1.99232009532e-08
3.41379840319e-08
4.43255812316e-08
2.81317521602e-08
2.62583609676e-08
2.74848117981e-08
1.9424083512e-08
5.92486400888e-09
1.16144506689e-08
1.06519688353e-08
3.38398586036e-08
9.88036753772e-09
5.70811140291e-09
1.58824277459e-07
4.97748393629e-08
3.61292856987e-09
5.07642445518e-09
4.19462093494e-08
5.06337403522e-09
3.20399418715e-08
1.08399474499e-09
7.45020065513e-09
6.56202419047e-09
6.49228804865e-09
3.10558383234e-09
7.51291464986e-09
8.50595916977e-09
6.12434381672e-09
1.83240502823e-08
3.68282842501e-09
2.30909863345e-08
2.67902235725e-09
2.34945699239e-08
1.07218680679e-09
2.36611964905e-08
5.82512577e-10
2.36254156746e-08
2.58617186864e-07
1.35649064504e-06
1.73897551797e-06
9.31553172154e-07
2.98907806936e-06
2.98378660569e-06
2.280825063e-06
1.78286494455e-06
1.45330661426e-06
2.20776884979e-07
8.96778004211e-10
1.0623926006e-07
6.45840509977e-08
2.23609360304e-07
1.51398086977e-07
9.98599943068e-09
3.64674301217e-07
3.84566524624e-07
1.43839060783e-07
1.93047869255e-07
8.333467385e-08
1.19329366238e-07
6.73901682879e-08
2.96389000895e-08
1.52846898991e-08
5.85417715739e-08
1.03689205953e-08
9.39612539933e-08
3.14492051268e-08
1.25117649455e-07
8.41069315938e-08
1.17199090872e-07
9.93757610987e-08
8.44628511112e-08
8.820933265e-08
3.71924997373e-08
3.66367434592e-08
1.24393149466e-08
1.38439941426e-08
7.05634588087e-09
1.12529828776e-08
5.68746459938e-09
1.42592216606e-08
4.35734859805e-09
1.69893563507e-08
1.77579821776e-09
1.7703480956e-08
2.81050425026e-09
1.31116225934e-08
1.97561132672e-09
1.10200376768e-08
3.49924136411e-09
8.27490876367e-09
5.89477755573e-09
4.73125016275e-09
3.15586978749e-09
5.36742637489e-09
6.81851290227e-10
2.36925695382e-09
5.67325866534e-09
6.65009679497e-09
4.58692773279e-09
5.42367807292e-09
3.88625986885e-09
3.99573306637e-09
1.58061042012e-09
1.68597477754e-09
2.12123083816e-09
1.59303156991e-08
3.84617626723e-09
9.69516554634e-09
4.01143697264e-09
7.84216425558e-09
2.27724728646e-09
3.62806811617e-09
6.95408157629e-09
2.80303178384e-09
1.5607367502e-08
1.9475235761e-08
5.65289653165e-09
5.0413783389e-09
8.00695826424e-09
1.87037818844e-08
8.9184351047e-09
2.40386670673e-08
2.81884517283e-08
8.71643206715e-09
3.6588558226e-08
6.04941063655e-09
2.75232178672e-08
2.93918960981e-09
2.16756972301e-08
5.1273957758e-09
1.53205584871e-08
3.55306719238e-08
3.75206608917e-09
1.6923102127e-07
1.02718435317e-08
2.06163487235e-07
5.84493020324e-07
7.6653813387e-07
7.36392235414e-08
5.79066062893e-07
8.23675386067e-07
5.6745280207e-07
2.81760427645e-07
2.14517275808e-08
2.9855812459e-07
1.60149220964e-09
1.05164372551e-07
1.60561709518e-08
6.02227554113e-08
2.73008531448e-08
2.09731400366e-09
8.04789279619e-09
6.58200427096e-09
3.54142897775e-08
1.58038792229e-08
2.67350448985e-08
2.42574904118e-08
8.60566905331e-09
3.0214611633e-08
1.76598062555e-08
3.03749675256e-08

