# vtk DataFile Version 3.0
File Name: Molecule/methanol/methanol_2.0-5.vtk
ASCII
DATASET UNSTRUCTURED_GRID
FIELD FieldData 1
TIME 1 1 double
0.0
POINTS 123 double
1.6202218533 -0.010074582882 -0.32527497411
1.4715497494 -0.67211306095 -0.34018203616
1.4694801569 -0.027137754485 -0.63970685005
1.3174692392 -0.60042077303 -0.82131683826
1.1485247612 -0.899754107 -0.82027363777
0.79683381319 -1.20003438 -0.91944092512
0.96156513691 -1.3312392235 -0.29462370276
0.25582075119 -1.4663844109 -0.86106365919
0.3462317884 -1.6407173872 -0.19748389721
-0.49412199855 -1.4827647209 -0.75401031971
-0.4813413918 -1.6373775005 -0.11815524101
-1.0636863708 -1.2169601917 -0.65932881832
-1.0933207273 -1.3342679739 -0.047145694494
-1.6034725904 -0.67103362083 -0.026150269434
-1.5228105783 -0.60718637705 -0.64880400896
-1.7394205332 -0.00056904088706 -0.038387890905
-1.6377310753 -0.00023382739164 -0.66513031721
-1.5209336281 0.60364639759 -0.65759265423
-1.602268219 0.67316943407 -0.024597536772
-1.0621956587 1.2093014717 -0.68921595812
-1.0892012119 1.3368746042 -0.066745594144
-0.48194816709 1.6379079819 -0.11600584537
-0.49983906746 1.4799000025 -0.76248973608
0.34068360925 1.6420974731 -0.1903757453
0.25845021009 1.4782884121 -0.83512175083
0.9659511447 1.3390440941 -0.25205650926
0.82161158323 1.2038664818 -0.8712503314
1.4719086885 0.68724507093 -0.30471816659
1.2793262005 0.6183500886 -0.90123927593
1.9070012569 3.6437114659e-08 0.65593904257
1.7435297966 0.76631194353 0.65924018621
1.7407858372 0.38232126832 1.3267952204
1.7412656546 -0.39185100794 1.3210577965
1.7422450781 -0.76879709959 0.65625828505
1.7481410503 -0.39055681229 0.031812738627
1.7470486164 0.37459027767 0.011392593384
1.3805929422 1.0695089102 1.4065241814
1.3704248667 0.57978260517 1.837436676
1.3793230057 -0.20046243072 1.9484624863
1.3720898628 -0.91247451305 1.6019858122
1.3796143532 -1.2493773699 1.0437481403
1.3855272532 -1.2407690287 0.26271736622
1.3728904724 1.3141233921 0.64027786255
0.73265689611 1.562561512 1.4357266426
0.73116666079 1.0502041578 2.0519695282
0.73302066326 0.32837685943 2.3710589409
0.7181634903 -0.32817006111 2.3777005672
0.72990232706 -1.0468856096 2.0544984341
0.73302936554 -1.5593746901 1.4427114725
0.73268848658 -1.7456630468 0.64944928885
0.7256731391 1.7493656874 0.64630848169
0.091647483408 1.7194128036 1.4234236479
0.092340566218 1.3478094339 1.9751002789
0.092723466456 0.68480175734 2.4126796722
0.090885683894 0.032824389637 2.5411653519
0.090425863862 -0.74385786057 2.3886227608
0.092596024275 -1.299980998 2.0204942226
0.092420704663 -1.7466307878 1.3659152985
0.08790537715 -1.8834707737 0.68957138062
0.086853057146 1.8847044706 0.62432706356
-0.68305534124 1.7512483597 0.65452635288
-0.68795651197 1.5654700994 1.4367847443
-0.68622177839 1.0530096292 2.0536055565
-0.68836462498 0.32951387763 2.3736550808
-0.67379057407 -0.32947260141 2.3794825077
-0.68572461605 -1.0489923954 2.0563106537
-0.6871355772 -1.5627098083 1.4434102774
-0.68560183048 -1.7499802113 0.66015571356
-1.3381500244 1.3108061552 0.65747213364
-1.3426340818 1.0699619055 1.4060692787
-1.3326714039 0.57975184917 1.8370345831
-1.3407104015 -0.2002543211 1.9490498304
-1.33398211 -0.912117064 1.6020611525
-1.3386348486 -1.2546076775 1.0369275808
-1.7010076046 0.77036774158 0.67628544569
-1.7020196915 0.38305705786 1.3281466961
-1.7030320168 -0.39201182127 1.321369648
-1.700985074 -0.77707481384 0.65139865875
-1.8678073883 -0.00017211820523 0.656057477
1.4521278143 0.31706336141 -0.60166025162
0.64352238178 -0.96339267492 -1.6480898857
-0.11977431923 -1.153311491 -1.7488099337
0.62556052208 -0.66489672661 -1.8992154598
-0.13645742834 0.92255336046 -1.9581853151
-0.11631298065 1.3351985216 -1.4949680567
0.34723353386 0.81154042482 -1.9515017271
-0.89607572556 -1.2479165792 -1.1548491716
-0.87843197584 -0.91068190336 -1.7069246769
-0.15879000723 -0.50096160173 -2.1782445908
-0.89137738943 -0.19997230172 -2.0487623215
-0.13770590723 0.16815988719 -2.2623114586
-0.87769663334 0.58760070801 -1.9337989092
-0.8913782835 1.0896729231 -1.4941587448
-1.4467601776 -0.39156061411 -1.4014914036
-1.4457491636 0.38092845678 -1.4074116945
0.64020657539 1.0968635082 -1.4971272945
1.2240897417 -0.31255120039 -1.3887671232
1.023436904 0.12893921137 -1.7496837378
1.1983809471 0.36783304811 -1.427071929
1.0073952675 0.4644304812 -1.6665136814
0.65703201294 0.59253841639 -1.9204410315
0.63062942028 -0.21647135913 -2.0575246811
0.64762556553 0.12889970839 -2.0602891445
0.90353453159 -0.31068560481 -1.8370033503
1.0119855404 0.72347962856 -1.4765301943
0.9085392952 -0.75674879551 -1.5877655745
0.21258576214 -0.41468891501 -2.1748247147
1.0139461756 -0.94850760698 -1.1062533855
1.3886334896 -0.025998014957 -0.96301287413
1.3774331808 0.30442938209 -0.91695970297
1.0254360437 0.9146361351 -1.1954102516
1.2707140446 0.46623826027 -1.1852202415
1.3373234272 0.22459426522 -1.1569088697
1.286413908 -0.4484307766 -1.166352272
1.1198859215 -0.51424694061 -1.482388854
1.1034287214 -0.35210335255 -1.5921896696
0.91329097748 -0.59504854679 -1.7026666403
1.1229225397 -0.71883392334 -1.2783221006
0.21019731462 -0.069929070771 -2.2334470749
-0.12078890204 -0.16638863087 -2.2630906105
0.20983032882 0.39984512329 -2.1811513901
-0.1203103289 0.61588102579 -2.1423871517
1.2084232569 -0.70786571503 -1.0437220335

CELLS 242 968
3 0 1 2
3 3 1 4
3 5 6 7
3 8 7 6
3 7 8 9
3 10 9 8
3 9 10 11
3 12 11 10
3 12 13 11
3 11 13 14
3 13 15 14
3 16 14 15
3 16 15 17
3 18 17 15
3 17 18 19
3 20 19 18
3 20 21 19
3 22 19 21
3 21 23 22
3 22 23 24
3 23 25 24
3 24 25 26
3 25 27 26
3 26 27 28
3 29 30 31
3 29 31 32
3 29 32 33
3 29 33 34
3 29 34 35
3 29 35 30
3 31 30 36
3 31 36 37
3 31 37 38
3 32 31 38
3 32 38 39
3 32 39 40
3 33 32 40
3 33 40 41
3 34 33 41
3 30 42 36
3 36 42 43
3 36 43 44
3 37 36 44
3 37 44 45
3 38 37 45
3 38 45 46
3 39 38 47
3 46 47 38
3 39 47 48
3 40 39 48
3 40 48 49
3 41 40 49
3 42 50 43
3 43 50 51
3 43 51 52
3 44 43 52
3 44 52 53
3 45 44 53
3 45 53 54
3 46 45 54
3 46 54 55
3 47 46 55
3 47 55 56
3 48 47 56
3 48 56 57
3 49 48 57
3 49 57 58
3 50 59 51
3 51 59 60
3 51 60 61
3 52 51 61
3 52 61 62
3 53 52 62
3 53 62 63
3 54 53 63
3 54 63 64
3 55 54 64
3 55 64 65
3 56 55 65
3 56 65 66
3 57 56 66
3 57 66 67
3 58 57 67
3 61 60 68
3 61 68 69
3 62 61 69
3 62 69 70
3 63 62 70
3 63 70 71
3 64 63 71
3 64 71 65
3 72 65 71
3 66 65 72
3 66 72 73
3 67 66 73
3 69 68 74
3 69 74 75
3 70 69 75
3 71 70 75
3 71 75 76
3 72 71 76
3 73 72 76
3 73 76 77
3 75 74 78
3 76 75 78
3 77 76 78
3 15 13 78
3 77 78 13
3 77 13 12
3 77 12 73
3 73 12 67
3 67 12 10
3 67 10 58
3 58 10 8
3 58 8 49
3 49 8 6
3 49 6 41
3 41 6 1
3 41 1 34
3 34 1 0
3 34 0 35
3 27 35 79
3 35 27 30
3 30 27 42
3 42 27 25
3 42 25 50
3 50 25 23
3 50 23 59
3 59 23 21
3 59 21 60
3 60 21 20
3 60 20 68
3 68 20 18
3 68 18 74
3 74 18 78
3 15 78 18
3 80 81 82
3 83 84 85
3 81 86 87
3 88 81 87
3 88 87 89
3 90 89 91
3 83 91 92
3 84 83 92
3 87 86 93
3 89 87 93
3 89 93 94
3 91 89 94
3 92 91 94
3 92 94 17
3 92 17 19
3 92 19 22
3 92 22 84
3 84 22 24
3 84 24 95
3 95 24 26
3 80 5 7
3 80 7 81
3 81 7 9
3 81 9 86
3 86 9 11
3 86 11 14
3 86 14 93
3 93 14 16
3 93 16 94
3 94 16 17
3 96 97 98
3 98 97 99
3 99 97 100
3 101 102 103
3 102 100 97
3 99 100 104
3 105 80 82
3 103 82 101
3 82 81 106
3 5 80 107
3 97 103 102
3 108 2 3
3 3 2 1
3 0 79 35
3 27 79 28
3 28 79 109
3 79 2 109
3 79 0 2
3 108 109 2
3 28 110 26
3 26 110 95
3 95 110 104
3 110 111 104
3 110 28 111
3 104 111 98
3 98 111 112
3 111 109 112
3 111 28 109
3 112 109 108
3 98 112 96
3 112 108 96
3 95 104 100
3 99 104 98
3 3 113 108
3 108 113 96
3 96 114 115
3 114 116 115
3 114 105 116
3 115 116 103
3 103 116 82
3 82 116 105
3 117 114 113
3 117 105 114
3 113 114 96
3 96 115 97
3 115 103 97
3 5 4 6
3 6 4 1
3 101 106 118
3 106 119 118
3 106 88 119
3 118 119 90
3 100 120 85
3 120 121 85
3 120 90 121
3 85 121 83
3 100 85 95
3 95 85 84
3 90 119 89
3 119 88 89
3 83 121 91
3 121 90 91
3 90 120 118
3 102 120 100
3 101 118 102
3 102 118 120
3 88 106 81
3 82 106 101
3 117 107 105
3 105 107 80
3 5 107 4
3 107 122 4
3 107 117 122
3 4 122 3
3 3 122 113
3 122 117 113

CELL_TYPES 242
5
5
5
5
5
5
5
5
5
5
5
5
5
5
5
5
5
5
5
5
5
5
5
5
5
5
5
5
5
5
5
5
5
5
5
5
5
5
5
5
5
5
5
5
5
5
5
5
5
5
5
5
5
5
5
5
5
5
5
5
5
5
5
5
5
5
5
5
5
5
5
5
5
5
5
5
5
5
5
5
5
5
5
5
5
5
5
5
5
5
5
5
5
5
5
5
5
5
5
5
5
5
5
5
5
5
5
5
5
5
5
5
5
5
5
5
5
5
5
5
5
5
5
5
5
5
5
5
5
5
5
5
5
5
5
5
5
5
5
5
5
5
5
5
5
5
5
5
5
5
5
5
5
5
5
5
5
5
5
5
5
5
5
5
5
5
5
5
5
5
5
5
5
5
5
5
5
5
5
5
5
5
5
5
5
5
5
5
5
5
5
5
5
5
5
5
5
5
5
5
5
5
5
5
5
5
5
5
5
5
5
5
5
5
5
5
5
5
5
5
5
5
5
5
5
5
5
5
5
5
5
5
5
5
5
5
5
5
5
5
5
5

CELL_DATA 242
SCALARS cell_data_0 double
LOOKUP_TABLE default
1.41263229636e-07
1.53931948279e-07
1.87231204532e-07
2.67849191566e-07
3.73620880267e-07
3.4396950754e-07
1.95615295809e-07
1.78686412714e-07
7.16306433246e-08
1.88372515121e-07
7.58361714406e-08
1.3332677565e-07
1.42721559974e-07
8.57587218253e-08
7.13515744775e-08
9.9048823163e-08
2.02569833912e-07
2.20242270064e-07
3.33642665828e-07
1.01508304822e-07
2.49573642212e-07
2.20429871325e-07
1.31170715295e-07
1.16835052932e-07
2.28151917753e-09
2.0620546475e-09
2.78495535843e-10
1.47086424729e-09
2.18015677399e-09
3.44826081623e-09
2.46405543489e-09
2.89871576232e-09
8.09111964621e-10
1.21245038147e-09
4.48211515887e-09
1.0947198811e-09
6.21880251853e-09
3.28123265971e-09
2.40887808998e-09
5.46306668022e-09
1.49069262883e-09
3.72535454859e-09
2.48385428808e-10
4.76458654926e-10
2.0657255233e-09
2.12856451348e-09
1.84865113764e-09
2.41912590615e-09
1.47430391201e-09
1.19580341145e-09
1.1069945261e-09
6.26079234362e-09
7.48314819456e-11
1.01642778076e-10
3.24170287716e-10
1.28976052547e-09
1.89907265639e-09
1.17914601427e-10
2.20595129106e-09
1.65204303507e-09
1.38818348257e-10
9.93489849305e-10
3.39085428084e-09
6.48063710539e-10
2.64673038942e-09
5.8758540115e-10
1.89585169259e-11
2.03282884627e-09
1.08566615229e-08
1.84625559226e-09
3.00926224011e-09
9.73359162962e-10
9.97015157713e-10
5.40500402781e-11
8.33460404993e-11
1.96421747893e-09
2.53952061994e-09
9.19477599482e-10
1.54972199686e-09
6.85658644182e-10
6.49391926443e-09
1.02045864546e-09
4.51432262061e-09
1.63965134939e-08
1.1944073109e-09
6.10521092545e-09
3.81455299266e-09
1.0252387497e-09
1.94648519313e-09
1.69823239623e-09
4.95396652794e-10
5.05576344393e-09
3.88067707754e-09
5.36729799465e-10
1.67711024244e-09
1.1946255089e-08
1.61697714129e-09
2.04124111555e-09
5.24608053006e-10
1.05532733656e-08
6.70706617376e-09
3.34978003353e-09
7.44865056866e-10
1.29568971474e-08
6.7350152919e-09
7.32999920938e-09
5.68693684528e-08
4.23141186135e-08
1.59069753242e-07
1.76394244522e-07
7.66793863876e-08
1.56502713624e-07
1.15363517685e-07
1.63481584938e-07
6.64552268096e-08
6.03358366169e-08
5.05983673186e-08
4.63970190096e-08
1.11028413014e-08
7.31853235963e-10
5.05151145654e-09
1.09956848264e-08
1.23063758386e-08
6.79472304642e-09
5.3477469272e-08
1.87563667436e-08
3.83670832462e-08
2.94971626549e-09
1.52406316631e-07
1.873040554e-08
1.55557050932e-07
2.9459916797e-08
2.10389411354e-07
3.98190393553e-08
5.07275160433e-08
5.01190578598e-08
3.97200926418e-07
9.86639524471e-08
9.96180391168e-08
2.14534660263e-08
6.02753208016e-08
1.02152508454e-07
5.34426112786e-08
4.46943524566e-08
6.98864567884e-08
3.82010664871e-08
1.47932498899e-08
5.11808394804e-09
1.04255479865e-07
1.83104961882e-08
9.00936677524e-08
1.02983125721e-09
3.41405673127e-09
8.17014594364e-08
1.3484944449e-07
4.15635667034e-08
1.16334770333e-09
8.79631769266e-07
9.61380474716e-08
3.06389346272e-08
4.91491064002e-08
3.76558225073e-08
8.44380185727e-08
1.79067889189e-08
2.51442936426e-08
5.83848802522e-09
4.46165929383e-07
3.24001175318e-07
1.08288876221e-06
5.85335802206e-08
8.83069423562e-07
3.56674670676e-08
9.82263141502e-08
3.02400626594e-07
3.26859745937e-07
2.42317804365e-08
4.32619761095e-07
7.88173497066e-07
1.03186962477e-07
5.03831971885e-08
2.59511913384e-07
2.62155830642e-07
2.40310499365e-09
7.36715624659e-08
1.69914722812e-07
2.09720626083e-07
4.73254269698e-08
2.29266239309e-07
1.18693796792e-07
1.93038515995e-08
2.89140560572e-07
2.43068270287e-07
9.52377767398e-08
1.42676212356e-07
1.64927491856e-07
3.22337625723e-07
4.36037546456e-07
2.20544324212e-07
4.00727575162e-07
4.66798716056e-07
4.4851595977e-07
2.84367866392e-07
2.01532623364e-07
4.63852035375e-08
1.5000901323e-07
5.35088029903e-08
7.12986469182e-08
7.12796057442e-08
1.15351497944e-07
1.40153005787e-07
3.6019878042e-07
2.78496003459e-07
2.64051355371e-08
9.48715031459e-08
1.65404500872e-07
1.20695672981e-08
2.44283963749e-08
2.12993132701e-08
1.32724264201e-07
2.61660636788e-08
3.87301836193e-08
4.859866993e-08
1.106302165e-07
4.12137011491e-08
8.44940381479e-08
3.31314797355e-08
4.61579345165e-08
1.02552670985e-08
3.94351331116e-08
6.99175628491e-08
7.3533791977e-08
1.93222540752e-07
9.22198205816e-08
1.95617872675e-07
6.17870383048e-08
2.30301917753e-08
7.44561788176e-08
5.94141448701e-08
8.44614682857e-08
5.54368195677e-08
1.78840336835e-08
2.51408776326e-08

