# vtk DataFile Version 3.0
File Name: Molecule/methanol/methanol_0.5-0.vtk
ASCII
DATASET UNSTRUCTURED_GRID
FIELD FieldData 1
TIME 1 1 double
0.0
POINTS 26 double
1.611 0.0 -0.359
0.773 -1.459 -0.275
1.403 0.0 -0.933
0.639 -1.329 -0.857
-0.903 -1.459 -0.108
-0.887 -1.329 -0.705
-1.742 0.0 -0.025
-1.651 0.0 -0.629
-0.903 1.459 -0.108
-0.887 1.329 -0.705
0.773 1.459 -0.275
0.639 1.329 -0.857
1.907 0.0 0.656
1.354 1.335 0.656
1.354 0.412 1.925
1.354 -1.08 1.44
0.019 1.335 1.99
0.019 -0.0 2.543
0.019 -1.335 1.99
0.019 -1.888 0.656
0.019 1.888 0.656
-1.316 0.412 1.925
-1.316 -1.08 1.44
0.648 0.411 -2.001
-0.887 -1.075 -1.519
-0.887 0.411 -2.001

CELLS 48 192
3 0 1 2
3 2 1 3
3 1 4 3
3 3 4 5
3 4 6 5
3 5 6 7
3 6 8 7
3 7 8 9
3 8 10 9
3 9 10 11
3 10 0 11
3 11 0 2
3 12 13 14
3 12 14 15
3 14 13 16
3 14 16 17
3 15 14 17
3 15 17 18
3 15 18 19
3 13 20 16
3 17 16 21
3 17 21 22
3 18 17 22
3 19 18 22
3 19 22 4
3 19 4 1
3 19 1 15
3 15 1 12
3 12 1 0
3 12 0 13
3 13 0 10
3 13 10 20
3 20 10 8
3 20 8 21
3 20 21 16
3 21 8 6
3 21 6 22
3 22 6 4
3 23 24 25
3 23 25 11
3 23 11 2
3 23 2 3
3 23 3 24
3 24 3 5
3 24 5 7
3 24 7 25
3 25 7 9
3 25 9 11

CELL_TYPES 48
5
5
5
5
5
5
5
5
5
5
5
5
5
5
5
5
5
5
5
5
5
5
5
5
5
5
5
5
5
5
5
5
5
5
5
5
5
5
5
5
5
5
5
5
5
5
5
5

CELL_DATA 48
SCALARS cell_data_0 double
LOOKUP_TABLE default
2.68349200649e-05
4.81537890617e-05
1.83868628824e-06
5.276008819e-07
3.6627631421e-07
8.83653677153e-07
5.3856619123e-07
3.02684235742e-11
1.67392000584e-06
3.32241643536e-08
4.88487042786e-06
4.7534793602e-08
3.0872550456e-07
2.24244529051e-07
9.25538764846e-08
6.27272588524e-08
1.49986818517e-08
2.88009169082e-08
3.19995622293e-07
2.43587774632e-08
1.1491075954e-07
3.82070753034e-08
8.37879679725e-09
1.4256760954e-09
4.07932907158e-07
1.84399009684e-06
1.97074156546e-06
1.72050019986e-06
5.27296264674e-07
4.2819981466e-07
1.6282175534e-06
1.23867455546e-07
5.35244696411e-07
2.20165201132e-06
2.0625439716e-07
5.09518478126e-06
1.11193188274e-07
2.14690022689e-06
3.05069370085e-05
2.97369998372e-05
0.000115849610201
0.000103719323206
5.55985752477e-05
3.28552120449e-06
2.20575888333e-08
3.26067608541e-06
1.12214576292e-06
6.84288473068e-06

