# vtk DataFile Version 3.0
File Name: Molecule/methanol/methanol_5.0-3.vtk
ASCII
DATASET UNSTRUCTURED_GRID
FIELD FieldData 1
TIME 1 1 double
0.0
POINTS 257 double
1.4516659975 -0.48283585906 -0.50902044773
1.3298301697 -0.45979556441 -0.93201589584
1.4677994251 -0.032061133534 -0.64631694555
1.1718947887 -0.87674868107 -0.72840207815
1.3292164803 -0.93392175436 -0.32218703628
1.0688662529 -1.2093129158 -0.37213018537
0.93201482296 -1.1132377386 -0.87662053108
0.55915850401 -1.384814024 -0.8210349679
0.67949980497 -1.5075803995 -0.26776635647
0.19503469765 -1.6674956083 -0.20281198621
0.10515233874 -1.5180196762 -0.80255198479
-0.32165300846 -1.6609011889 -0.18364828825
-0.34856963158 -1.5283710957 -0.72607535124
-0.8063890934 -1.5023282766 -0.15416941047
-0.80668830872 -1.3820568323 -0.68033283949
-1.2080751657 -1.225779295 -0.10695753992
-1.1628144979 -1.113648653 -0.70743858814
-1.394975543 -0.8770518899 -0.59576785564
-1.4428356886 -0.95800924301 -0.058769155294
-1.6543277502 -0.4998588264 -0.095455005765
-1.5740220547 -0.45951393247 -0.65977412462
-1.6578139067 -0.0011278074235 -0.60552614927
-1.7378554344 -0.0015464483295 -0.046774245799
-1.5820034742 0.46401229501 -0.62774080038
-1.6581684351 0.49364042282 -0.081734500825
-1.4379121065 0.94200700521 -0.12254134566
-1.386898756 0.86073076725 -0.65670681
-1.174313426 1.1155384779 -0.67305320501
-1.2052192688 1.2174839973 -0.13769802451
-0.79793274403 1.3863130808 -0.68903803825
-0.8075478673 1.5062123537 -0.13345247507
-0.32399168611 1.6531151533 -0.2131485045
-0.35521307588 1.5106155872 -0.77753794193
0.11295506358 1.5304801464 -0.76253187656
0.18836160004 1.6653462648 -0.21415056288
0.66995251179 1.5072791576 -0.28589421511
0.55971360207 1.3850164413 -0.8171005249
1.0748955011 1.2304311991 -0.31712737679
0.93672603369 1.1254264116 -0.84685474634
1.3184510469 0.9446207881 -0.33544287086
1.1458923817 0.8668897748 -0.88396865129
1.370721221 0.51504743099 -0.66604781151
1.9070001841 2.8450358514e-07 0.65591967106
1.8443715572 0.48179736733 0.65587180853
1.8443477154 0.24113291502 1.0719072819
1.8443517685 -0.24046805501 1.0722630024
1.84433043 -0.48161482811 0.65614461899
1.8441821337 -0.24067179859 0.23716318607
1.8441435099 0.24120663106 0.2369876951
1.6701667309 0.79055160284 1.1145296097
1.6618856192 0.46295520663 1.4608610868
1.6706823111 -0.0052362806164 1.5690717697
1.6632504463 -0.45937132835 1.461125493
1.6687037945 -0.7934872508 1.1156135798
1.6629748344 -0.92781478167 0.65599834919
1.6685861349 -0.79518389702 0.19835273921
1.6648570299 -0.46570971608 -0.14331072569
1.6642538309 0.46280962229 -0.14784470201
1.6687721014 0.79219466448 0.19379934669
1.6620169878 0.92915678024 0.65564715862
1.3961900473 1.2004344463 1.1267473698
1.3968961239 0.94962596893 1.5262504816
1.3874204159 0.59097123146 1.8140859604
1.3941661119 0.12200871855 1.942211628
1.3986064196 -0.36071583629 1.8914086819
1.3904492855 -0.78942650557 1.6838083267
1.3849334717 -1.1025556326 1.3483915329
1.3974819183 -1.2642403841 0.90380322933
1.3955554962 -1.269620657 0.4208368659
1.3843972683 -1.1121624708 -0.018975947052
1.3916987181 1.202152133 0.17373476923
1.3883378506 1.2995980978 0.65526092052
1.1305711269 1.4483305216 1.1320400238
1.1325652599 1.2340381145 1.5490301847
1.1312965155 0.98968529701 1.8144513369
1.1286261082 0.58503699303 2.064740181
1.1233354807 0.12804743648 2.1784403324
1.130954504 -0.34489169717 2.1398296356
1.1328947544 -0.79307609797 1.9551566839
1.0230169296 -1.1688791513 1.7452867031
1.1270575523 -1.3616012335 1.3460229635
1.1275376081 -1.5089795589 0.88659721613
1.1211664677 -1.5111106634 0.41201686859
1.1261553764 -1.3656555414 -0.019900050014
1.1289765835 1.4478199482 0.17281810939
1.1228708029 1.5280417204 0.65515345335
0.72317552567 1.6843653917 1.1361407042
0.71932554245 1.4966927767 1.5672684908
0.72148555517 1.2890033722 1.8423210382
0.72723436356 0.92569738626 2.1407535076
0.72223180532 0.47824919224 2.3404626846
0.72501343489 -0.0080100847408 2.4059467316
0.72013479471 -0.48447319865 2.3393509388
0.7170034647 -0.92835205793 2.143491745
0.69983738661 -1.2874302864 1.8549089432
0.71901082993 -1.4953516722 1.5698412657
0.72274142504 -1.6851016283 1.1348711252
0.72267687321 -1.7511063814 0.65561556816
0.7188680768 -1.6856297255 0.17114922404
0.72172051668 1.6852762699 0.17638888955
0.70986622572 1.7549452782 0.65606439114
0.26878741384 1.8102960587 1.1265949011
0.25693193078 1.629468441 1.5774689913
0.25900429487 1.3382134438 1.9647773504
0.25688192248 0.95677524805 2.2645013332
0.2513923645 0.50724112988 2.4581108093
0.26962190866 0.058641213924 2.5241024494
0.25807583332 -0.29336717725 2.5048470497
0.26395070553 -0.75014108419 2.3702666759
0.26431164145 -1.1647809744 2.1202294827
0.2627479732 -1.4992239475 1.7748897076
0.26461407542 -1.7351381779 1.3573771715
0.2745719254 -1.8542189598 0.89698898792
0.26469314098 -1.8560731411 0.41462624073
0.26702427864 1.8108444214 0.19486521184
0.24595141411 1.8724400997 0.65713483095
-0.21706952155 1.8110153675 1.13075912
-0.22315821052 1.627250433 1.5803954601
-0.22443950176 1.3399980068 1.9618266821
-0.22205843031 0.95969927311 2.2620940208
-0.21407341957 0.52541059256 2.4530277252
-0.21430523694 0.058871038258 2.5264120102
-0.2360060811 -0.29207342863 2.5028791428
-0.22612333298 -0.73867636919 2.3753407001
-0.22647021711 -1.1529012918 2.1298069954
-0.22498683631 -1.4889587164 1.7885452509
-0.22558821738 -1.7301616669 1.370123744
-0.21997459233 -1.856918335 0.89805710316
-0.2322614789 -1.8533931971 0.38566893339
-0.21694280207 1.8116362095 0.18727123737
-0.22236606479 1.8718489408 0.65647733212
-0.67432999611 1.7538975477 0.65571981668
-0.68589568138 1.6841124296 1.1363060474
-0.6825504303 1.4969052076 1.5659155846
-0.68408447504 1.288331151 1.8427503109
-0.69077533484 0.92580467463 2.1396653652
-0.68471890688 0.47858038545 2.3401741982
-0.68684017658 -0.0080722440034 2.4063079357
-0.68313902617 -0.48515143991 2.3388345242
-0.67873859406 -0.92947912216 2.1432266235
-0.66260647774 -1.2890100479 1.8518137932
-0.68017429113 -1.4960604906 1.5701104403
-0.68577247858 -1.6845939159 1.1351826191
-0.6862860322 -1.7505161762 0.65526020527
-0.67624956369 -1.6904747486 0.1924957782
-0.68535244465 1.6858887672 0.18500646949
-1.0827811956 1.5294713974 0.65548431873
-1.0903908014 1.4502022266 1.1308640242
-1.0923753977 1.2357474566 1.5493309498
-1.0920605659 0.9895516634 1.8158265352
-1.0895315409 0.58508354425 2.065513134
-1.0836914778 0.12737523019 2.1795265675
-1.0904812813 -0.34443330765 2.1416165829
-1.0928317308 -0.79337853193 1.9565172195
-0.98270797729 -1.1700476408 1.746288538
-1.0876889229 -1.3626971245 1.3459016085
-1.0880355835 -1.5100511312 0.88610452414
-1.0898580551 -1.5067574978 0.40479248762
-1.0952564478 1.4488056898 0.19385360181
-1.3480046988 1.3019026518 0.65637165308
-1.3564422131 1.2025681734 1.126945734
-1.3571540117 0.95149564743 1.5273002386
-1.3480610847 0.59050518274 1.81595397
-1.3535519838 0.12220796943 1.9451671839
-1.3589696884 -0.36020985246 1.8935781717
-1.3517420292 -0.78892213106 1.6853119135
-1.3453172445 -1.1049013138 1.3480023146
-1.3577622175 -1.2655673027 0.90484642982
-1.3591121435 -1.2670807838 0.41456440091
-1.3573892117 1.20426929 0.2011988461
-1.6244274378 0.92851126194 0.65610438585
-1.6333091259 0.78872174025 1.1133885384
-1.6245032549 0.46223545074 1.4601020813
-1.6335971355 -0.0055225598626 1.5673948526
-1.6261616945 -0.4591037631 1.4594399929
-1.6310763359 -0.7928647995 1.115281105
-1.6260989904 -0.92603397369 0.6561653018
-1.6367038488 -0.78750950098 0.23200751841
-1.6346046925 0.789293468 0.21547691524
-1.806234479 0.48223271966 0.65638315678
-1.8061186075 0.2412135452 1.0726680756
-1.8061466217 -0.24073603749 1.0728303194
-1.8062806129 -0.48200690746 0.65685784817
-1.8078553677 -0.24358004332 0.2532377243
-1.8082416058 0.24247255921 0.254111588
-1.8679417372 -2.3679531296e-05 0.65741455555
1.6307082176 0.0091637913138 -0.29700154066
1.4734025002 0.48982852697 -0.44846642017
1.5269918442 0.17818433046 -0.48830664158
1.112564683 -0.81268852949 -1.1452338696
0.78025925159 -1.1457931995 -1.2174299955
0.7697764039 -0.9154291749 -1.5833913088
1.1104048491 0.78057032824 -1.2129348516
0.7725763917 0.90083462 -1.6005939245
0.77495974302 1.1478778124 -1.2202864885
0.35849922895 -1.2905193567 -1.4186477661
0.35235762596 -0.98751443624 -1.8135201931
0.35515421629 -0.58313477039 -2.0750796795
0.76195400953 -0.74965316057 -1.7420170307
0.7701625824 -0.47826728225 -1.8920558691
0.76749372482 -0.18426193297 -1.9725044966
0.76011759043 -0.0024132663384 -1.9917464256
0.34992945194 -0.11845237017 -2.1938977242
0.3555727303 0.35693776608 -2.1520338058
0.76987040043 0.47636926174 -1.8932224512
0.35764363408 0.79645186663 -1.9586873055
0.35657146573 1.1496938467 -1.6356830597
0.34868371487 1.3806983232 -1.2152260542
-0.12556543946 -1.4129334688 -1.3386620283
-0.12014371157 -1.1458582878 -1.7579672337
-0.11975622922 -0.77234721184 -2.0642483234
-0.12026420981 -0.32277575135 -2.2380516529
-0.12000244856 0.15781593323 -2.2641220093
-0.11972890049 0.61285877228 -2.143296957
-0.11955179274 0.9137070179 -1.9683651924
-0.11961411685 1.2483012676 -1.6288918257
-0.11973191053 1.4671998024 -1.1946598291
-0.59544074535 -1.4259450436 -1.0112321377
-0.59452575445 -1.2786210775 -1.4398645163
-0.59239023924 -0.98402005434 -1.815729022
-0.58447515965 -0.58296561241 -2.0781400204
-0.59310525656 -0.12280281633 -2.1919438839
-0.5947124362 0.35644906759 -2.1520662308
-0.59678131342 0.7959125042 -1.9590885639
-0.59638416767 1.1496132612 -1.6354753971
-0.58900296688 1.3841515779 -1.2077093124
-1.0187413692 -1.1570268869 -1.1971765757
-1.0253930092 -0.8813714385 -1.607604146
-1.0220236778 -0.47488027811 -1.8849532604
-1.016379118 0.0034249753226 -1.9828313589
-1.0217705965 0.47320482135 -1.8857014179
-1.0244398117 0.87441813946 -1.6158612967
-1.0199609995 1.1518542767 -1.2057932615
-1.3670474291 -0.81156396866 -1.1194424629
-1.358294487 -0.49930033088 -1.4939615726
-1.3632239103 -0.039483439177 -1.6373312473
-1.3587856293 0.43459326029 -1.5329552889
-1.3672755957 0.7766045928 -1.1864290237
-1.5807367563 -0.2419616133 -1.1441609859
-1.5811727047 0.23952965438 -1.1439468861
1.3005295992 0.50327813625 -0.95698356628
1.1534440517 0.41947841644 -1.4811521769
1.3628079891 -0.01041241549 -1.0154533386
1.1413071156 -0.048106364906 -1.6101106405
1.1429231167 -0.48883041739 -1.4590722322
1.0067380667 -0.1845330596 -1.7614074945
1.0110504627 -0.46422824264 -1.6647135019
1.0010755062 -0.0030818963423 -1.7826604843
1.0163027048 0.17982032895 -1.7529836893
0.79086601734 0.19258835912 -1.9564535618
1.3721553087 0.29898360372 -0.93448770046
1.4402111769 0.31824430823 -0.6376081109
1.00687325 0.46242210269 -1.6707533598
1.0158170462 0.62143105268 -1.5609973669
0.78794622421 0.72921365499 -1.7357219458
0.92693823576 -0.73367416859 -1.583901763
1.4254641533 0.15391646326 -0.77544343472

CELLS 510 2040
3 0 1 2
3 1 0 3
3 4 3 0
3 4 5 3
3 3 5 6
3 6 5 7
3 8 7 5
3 8 9 7
3 7 9 10
3 9 11 10
3 10 11 12
3 11 13 12
3 12 13 14
3 13 15 14
3 14 15 16
3 16 15 17
3 18 17 15
3 18 19 17
3 17 19 20
3 20 19 21
3 22 21 19
3 23 21 24
3 22 24 21
3 24 25 23
3 23 25 26
3 26 25 27
3 28 27 25
3 27 28 29
3 30 29 28
3 30 31 29
3 29 31 32
3 32 31 33
3 34 33 31
3 34 35 33
3 33 35 36
3 35 37 36
3 36 37 38
3 37 39 38
3 38 39 40
3 40 39 41
3 42 43 44
3 42 44 45
3 42 45 46
3 42 46 47
3 42 47 48
3 42 48 43
3 44 43 49
3 44 49 50
3 44 50 51
3 45 44 51
3 45 51 52
3 45 52 53
3 46 45 53
3 46 53 54
3 46 54 55
3 47 46 55
3 47 55 56
3 48 57 58
3 43 48 58
3 43 58 59
3 43 59 49
3 49 59 60
3 49 60 61
3 50 49 61
3 50 61 62
3 50 62 63
3 51 50 63
3 51 63 64
3 52 51 64
3 52 64 65
3 53 52 65
3 53 65 66
3 53 66 67
3 54 53 67
3 54 67 68
3 55 54 68
3 55 68 69
3 59 58 70
3 59 70 71
3 59 71 60
3 60 71 72
3 60 72 73
3 61 60 73
3 61 73 74
3 62 61 74
3 62 74 75
3 63 62 75
3 63 75 76
3 63 76 77
3 64 63 77
3 64 77 78
3 65 64 78
3 65 78 79
3 66 65 79
3 66 79 80
3 67 66 80
3 67 80 81
3 82 68 81
3 67 81 68
3 68 82 83
3 69 68 83
3 71 70 84
3 71 84 85
3 71 85 72
3 72 85 86
3 72 86 87
3 73 72 87
3 73 87 88
3 74 73 88
3 74 88 89
3 75 74 89
3 75 89 90
3 76 75 90
3 76 90 91
3 77 76 91
3 77 91 92
3 78 77 92
3 78 92 93
3 78 93 79
3 94 79 93
3 79 94 95
3 80 79 95
3 80 95 96
3 81 80 96
3 81 96 97
3 82 81 97
3 82 97 98
3 83 82 98
3 85 84 99
3 85 99 100
3 85 100 86
3 86 100 101
3 86 101 102
3 87 86 102
3 88 87 103
3 102 103 87
3 88 103 89
3 104 89 103
3 89 104 90
3 105 90 104
3 90 105 106
3 91 90 106
3 91 106 107
3 92 91 107
3 92 107 108
3 93 92 108
3 93 108 109
3 94 93 109
3 94 109 110
3 95 94 110
3 95 110 111
3 96 95 111
3 96 111 112
3 97 96 112
3 97 112 113
3 98 97 113
3 100 99 114
3 100 114 115
3 100 115 101
3 101 115 116
3 101 116 102
3 117 102 116
3 103 102 118
3 117 118 102
3 104 103 119
3 118 119 103
3 104 119 120
3 105 104 120
3 105 120 121
3 106 105 121
3 122 107 121
3 106 121 107
3 107 122 123
3 108 107 123
3 108 123 124
3 109 108 124
3 109 124 125
3 110 109 125
3 110 125 126
3 111 110 126
3 112 111 127
3 126 127 111
3 128 113 127
3 112 127 113
3 115 114 129
3 115 129 130
3 115 130 116
3 116 130 131
3 116 131 132
3 117 116 132
3 117 132 133
3 117 133 118
3 134 118 133
3 119 118 135
3 134 135 118
3 120 119 136
3 135 136 119
3 121 120 136
3 121 136 137
3 122 121 137
3 122 137 138
3 123 122 138
3 123 138 139
3 124 123 139
3 124 139 140
3 125 124 140
3 125 140 141
3 126 125 141
3 126 141 142
3 127 126 142
3 127 142 143
3 128 127 143
3 128 143 144
3 131 129 145
3 130 129 131
3 132 131 146
3 132 146 147
3 133 132 147
3 133 147 148
3 134 133 148
3 134 148 149
3 135 134 149
3 135 149 150
3 136 135 150
3 136 150 151
3 137 136 151
3 137 151 152
3 138 137 152
3 138 152 153
3 139 138 153
3 140 139 154
3 153 154 139
3 141 140 154
3 141 154 155
3 142 141 155
3 142 155 156
3 143 142 156
3 143 156 157
3 144 143 157
3 146 145 158
3 131 145 146
3 147 146 159
3 147 159 160
3 148 147 160
3 148 160 161
3 149 148 161
3 149 161 162
3 150 149 162
3 150 162 163
3 151 150 163
3 152 151 163
3 152 163 164
3 153 152 164
3 153 164 165
3 154 153 165
3 154 165 166
3 155 154 166
3 155 166 167
3 156 155 167
3 157 156 168
3 167 168 156
3 159 158 169
3 146 158 159
3 160 159 170
3 160 170 171
3 161 160 171
3 161 171 172
3 162 161 172
3 163 162 172
3 163 172 173
3 164 163 173
3 164 173 174
3 165 164 174
3 165 174 175
3 166 165 175
3 167 166 175
3 167 175 176
3 168 167 176
3 168 176 177
3 170 169 178
3 159 169 170
3 171 170 179
3 171 179 180
3 172 171 180
3 173 172 180
3 173 180 181
3 174 173 181
3 175 174 181
3 175 181 182
3 176 175 182
3 177 176 182
3 177 182 183
3 179 178 184
3 170 178 179
3 180 179 185
3 181 180 185
3 182 181 185
3 183 182 185
3 184 183 185
3 179 184 185
3 184 178 24
3 184 24 22
3 184 22 183
3 183 22 19
3 183 19 177
3 177 19 18
3 177 18 168
3 168 18 15
3 168 15 157
3 157 15 13
3 157 13 144
3 144 13 11
3 144 11 128
3 128 11 9
3 128 9 113
3 113 9 98
3 98 9 8
3 98 8 83
3 83 8 5
3 83 5 69
3 69 5 4
3 69 4 55
3 56 55 4
3 56 4 0
3 56 0 186
3 56 186 47
3 47 186 48
3 48 186 57
3 187 57 188
3 57 187 39
3 57 39 58
3 58 39 70
3 70 39 37
3 70 37 84
3 84 37 35
3 84 35 99
3 114 99 34
3 35 34 99
3 114 34 129
3 129 34 31
3 129 31 145
3 145 31 30
3 145 30 158
3 158 30 28
3 158 28 169
3 169 28 25
3 169 25 178
3 178 25 24
3 189 190 191
3 192 193 194
3 191 190 195
3 191 195 196
3 196 197 198
3 199 197 200
3 201 202 203
3 204 203 205
3 193 205 206
3 194 193 206
3 194 206 207
3 195 208 209
3 196 195 209
3 196 209 210
3 197 196 210
3 197 210 211
3 202 197 211
3 202 211 212
3 203 202 212
3 203 212 213
3 205 203 213
3 205 213 214
3 206 205 214
3 206 214 215
3 207 206 215
3 207 215 216
3 208 217 218
3 209 208 218
3 209 218 219
3 210 209 219
3 210 219 220
3 211 210 220
3 211 220 221
3 212 211 221
3 212 221 222
3 213 212 222
3 213 222 223
3 214 213 223
3 214 223 224
3 215 214 224
3 215 224 225
3 216 215 225
3 218 217 226
3 218 226 227
3 219 218 227
3 219 227 228
3 220 219 228
3 221 220 228
3 221 228 229
3 222 221 229
3 222 229 230
3 223 222 230
3 223 230 231
3 224 223 231
3 224 231 232
3 225 224 232
3 227 226 233
3 227 233 234
3 228 227 234
3 228 234 235
3 229 228 235
3 230 229 235
3 230 235 236
3 231 230 236
3 231 236 237
3 232 231 237
3 234 233 238
3 235 234 238
3 235 238 239
3 236 235 239
3 237 236 239
3 237 239 23
3 237 23 26
3 237 26 27
3 237 27 232
3 232 27 29
3 232 29 225
3 225 29 32
3 225 32 216
3 216 32 33
3 216 33 207
3 207 33 36
3 207 36 194
3 194 36 38
3 40 192 38
3 194 38 192
3 192 40 240
3 192 240 241
3 241 242 243
3 243 242 244
3 244 242 1
3 244 1 189
3 189 1 3
3 189 3 6
3 189 6 190
3 190 6 7
3 190 7 195
3 195 7 10
3 195 10 208
3 208 10 12
3 208 12 217
3 217 12 14
3 217 14 226
3 226 14 16
3 226 16 233
3 233 16 17
3 233 17 20
3 233 20 238
3 238 20 21
3 238 21 239
3 239 21 23
3 245 243 246
3 243 245 247
3 245 200 247
3 245 199 200
3 201 247 200
3 243 247 248
3 247 249 248
3 247 201 249
3 248 249 204
3 243 248 241
3 201 200 202
3 202 200 197
3 204 249 203
3 249 201 203
3 187 41 39
3 40 41 240
3 240 41 250
3 41 251 250
3 41 187 251
3 241 252 253
3 252 254 253
3 252 204 254
3 253 254 193
3 241 253 192
3 192 253 193
3 193 254 205
3 254 204 205
3 240 250 241
3 241 250 242
3 204 252 248
3 248 252 241
3 242 2 1
3 0 2 186
3 191 255 189
3 189 255 244
3 244 255 246
3 255 198 246
3 255 191 198
3 246 198 199
3 199 198 197
3 198 191 196
3 244 246 243
3 245 246 199
3 242 256 2
3 256 188 2
3 256 251 188
3 2 188 186
3 186 188 57
3 188 251 187
3 251 256 250
3 250 256 242

CELL_TYPES 510
5
5
5
5
5
5
5
5
5
5
5
5
5
5
5
5
5
5
5
5
5
5
5
5
5
5
5
5
5
5
5
5
5
5
5
5
5
5
5
5
5
5
5
5
5
5
5
5
5
5
5
5
5
5
5
5
5
5
5
5
5
5
5
5
5
5
5
5
5
5
5
5
5
5
5
5
5
5
5
5
5
5
5
5
5
5
5
5
5
5
5
5
5
5
5
5
5
5
5
5
5
5
5
5
5
5
5
5
5
5
5
5
5
5
5
5
5
5
5
5
5
5
5
5
5
5
5
5
5
5
5
5
5
5
5
5
5
5
5
5
5
5
5
5
5
5
5
5
5
5
5
5
5
5
5
5
5
5
5
5
5
5
5
5
5
5
5
5
5
5
5
5
5
5
5
5
5
5
5
5
5
5
5
5
5
5
5
5
5
5
5
5
5
5
5
5
5
5
5
5
5
5
5
5
5
5
5
5
5
5
5
5
5
5
5
5
5
5
5
5
5
5
5
5
5
5
5
5
5
5
5
5
5
5
5
5
5
5
5
5
5
5
5
5
5
5
5
5
5
5
5
5
5
5
5
5
5
5
5
5
5
5
5
5
5
5
5
5
5
5
5
5
5
5
5
5
5
5
5
5
5
5
5
5
5
5
5
5
5
5
5
5
5
5
5
5
5
5
5
5
5
5
5
5
5
5
5
5
5
5
5
5
5
5
5
5
5
5
5
5
5
5
5
5
5
5
5
5
5
5
5
5
5
5
5
5
5
5
5
5
5
5
5
5
5
5
5
5
5
5
5
5
5
5
5
5
5
5
5
5
5
5
5
5
5
5
5
5
5
5
5
5
5
5
5
5
5
5
5
5
5
5
5
5
5
5
5
5
5
5
5
5
5
5
5
5
5
5
5
5
5
5
5
5
5
5
5
5
5
5
5
5
5
5
5
5
5
5
5
5
5
5
5
5
5
5
5
5
5
5
5
5
5
5
5
5
5
5
5
5
5
5
5
5
5
5
5
5
5
5
5
5
5
5
5
5
5
5
5
5
5
5
5
5
5
5
5
5
5
5
5
5
5
5
5
5
5
5
5
5
5
5
5
5
5
5
5
5
5
5
5
5
5
5
5
5
5
5
5
5
5
5
5
5
5
5
5
5
5
5

CELL_DATA 510
SCALARS cell_data_0 double
LOOKUP_TABLE default
8.7053556557e-08
3.77873392256e-07
5.70917462644e-08
1.61087290488e-08
3.76034360538e-08
3.19730359733e-08
7.00224604344e-08
2.97620782622e-08
6.55266284748e-08
2.8923415259e-08
6.8283523152e-08
1.15920258147e-08
7.75934112951e-08
1.51585389791e-08
9.43383057188e-08
3.41650890981e-08
3.41846597195e-08
2.32525279177e-08
7.58163498154e-08
4.60520312794e-08
4.43431933849e-08
7.11801605657e-08
5.21320086764e-08
4.39082261739e-08
4.26404733041e-08
2.26934042077e-08
2.96477136253e-09
4.01747720749e-08
9.77217314264e-09
7.83303282564e-08
2.63692977732e-08
2.60854017222e-08
2.52517797253e-08
9.72528448792e-08
4.36738636574e-08
6.92105678003e-08
7.87658737327e-08
4.38699798715e-09
9.72141682298e-09
8.63353693695e-08
5.88993332627e-10
3.24485390334e-10
6.19476895791e-10
3.88261551376e-11
6.03549961127e-10
6.2713354621e-11
6.25699411614e-10
5.77071454767e-10
4.08589423303e-10
8.34313318082e-10
2.62562107138e-10
5.78934851469e-10
1.18355436455e-09
2.97000689092e-10
1.07418128683e-09
3.65731989227e-10
5.60059720962e-10
1.59390911904e-10
4.63399985285e-10
1.02094870824e-09
2.87956463766e-11
1.70922022893e-10
1.27279996099e-11
1.28301569147e-10
6.85914901213e-11
7.46398272828e-10
3.09721719138e-10
3.80146877309e-11
4.45082621398e-10
1.63827056552e-10
3.35719140045e-10
2.24985456769e-10
2.53765806174e-10
9.82743953269e-10
1.49234776912e-11
5.86218495609e-10
2.60966752867e-09
6.58600046902e-10
6.30745344856e-10
9.9428886773e-10
1.68627155971e-10
5.02386149904e-10
1.12130141806e-10
5.29144405998e-10
3.56456624192e-11
4.28557041504e-10
2.69271932074e-10
3.35369417459e-10
3.83531146494e-10
7.19658260773e-11
5.21019693232e-10
3.13141340666e-10
5.70077082794e-10
6.77904990219e-10
2.13268500507e-11
2.34299270941e-10
1.57943064452e-10
4.81884423471e-10
4.44456402196e-10
9.67431324562e-10
1.1867036952e-09
8.43086840261e-10
2.35359131852e-10
3.39112403374e-10
3.63651704604e-11
1.96328225909e-10
8.27027581076e-10
3.17271956861e-10
1.6131135021e-10
8.73157630795e-11
4.73746120747e-10
4.60541486635e-10
3.534030877e-10
3.4317511027e-10
3.27086104333e-10
3.4128825774e-10
6.40626469958e-10
4.50266489043e-10
9.85129193591e-11
9.19804547018e-11
4.58349410314e-10
3.75678915806e-10
2.7155102297e-10
5.03913071666e-10
3.49214015384e-10
2.0041023627e-09
5.98031785857e-10
2.0388991094e-09
1.93941461905e-09
9.34831880921e-10
1.27102504987e-09
3.44290017214e-10
2.90193505143e-10
5.06082103919e-12
1.20922495903e-10
2.15904959288e-10
3.01154144927e-10
3.69047986445e-10
2.03328173789e-10
5.31006437587e-12
2.56115595706e-10
7.95385938816e-10
8.56476471285e-10
2.36293649244e-10
4.90215623248e-10
1.45459095619e-10
2.85070228971e-10
1.41519948105e-10
9.57209199895e-11
1.30081931279e-10
3.63251857677e-10
4.17710408497e-11
4.66892465927e-10
9.32287406098e-10
1.1389407333e-09
1.04018148457e-09
3.44687550973e-09
4.04736016192e-10
1.54587844199e-09
6.28761203548e-11
1.20066546183e-09
9.06113092549e-10
4.09508000704e-10
3.96461251008e-10
2.00658131778e-10
4.95309038084e-10
1.90959817527e-10
1.29360183476e-10
1.56235042437e-10
5.10041897814e-10
5.6037955346e-10
3.86857365577e-10
4.20303591576e-10
1.70133248805e-10
9.29353608179e-14
3.19017987682e-10
2.15013266177e-10
4.95140632157e-10
1.69772645908e-11
7.73827072348e-10
2.34406264038e-09
2.44229794097e-09
1.10227090872e-09
5.17691099986e-10
5.92467462915e-09
5.14624733393e-11
2.21531421374e-09
4.03744979448e-09
3.74386459633e-10
1.19318411517e-09
8.21457562173e-11
6.17588214016e-10
1.69606364597e-10
1.93437287496e-10
2.70785577366e-10
4.90187972253e-11
1.76094019338e-10
2.35707510874e-10
4.1889947536e-11
1.7662192158e-10
2.80231280513e-10
4.53073836924e-10
2.30777544615e-10
2.24818667043e-10
1.67763981042e-11
2.6715916796e-10
1.88384472418e-10
4.56004039377e-10
1.85582909869e-10
2.21617569018e-10
2.7756549316e-09
1.45502452189e-09
3.55871009424e-09
4.06294001672e-09
2.48588842444e-10
4.46905790765e-09
6.30561699745e-10
1.38615984642e-09
2.39701732847e-11
2.80336339178e-10
9.34521645293e-12
3.85963166756e-10
1.567802897e-11
4.37065989328e-10
1.44228783437e-10
1.62846160679e-10
4.89613786703e-11
2.48915342168e-12
1.07578448027e-10
5.99686963769e-10
2.39444768577e-10
3.57705603281e-10
2.05386798673e-10
6.34673826483e-10
5.25324550041e-12
1.43637562263e-09
1.43753739376e-10
2.75210858866e-09
1.77446573775e-09
6.67913407385e-09
2.08184134657e-10
3.25189091045e-09
8.6742909308e-10
9.73133393445e-10
2.70461994852e-10
3.57797925411e-10
1.39740071598e-11
3.28035145784e-10
1.61343862569e-10
1.52633268771e-10
1.39075523802e-10
2.50111548168e-10
6.95862767481e-11
2.2205449506e-10
1.04683796219e-10
5.13352385947e-11
3.86496891235e-10
4.65113371683e-10
1.28967743955e-09
3.52405976717e-09
2.2859909419e-09
6.95576782617e-09
9.60076545899e-10
4.95316983183e-09
1.01913819861e-09
1.46010946744e-09
2.14093147856e-11
3.7263544214e-10
2.03962764698e-11
1.13332324535e-09
4.44797024996e-10
8.07212355354e-10
6.81879000335e-10
1.05176797307e-09
1.8289704655e-09
6.05990513062e-10
3.27829171264e-09
1.88158039504e-10
7.16111074452e-09
1.16512435037e-08
1.89136160882e-09
4.8734398581e-09
9.53854302597e-10
1.303652937e-09
4.34101488189e-10
3.19529050969e-09
1.50629424103e-09
1.24490780519e-09
1.05597039028e-09
2.90189935609e-09
9.56383228829e-09
6.06358145739e-09
1.32709402412e-08
3.06234952916e-09
4.0110348166e-09
1.83556249874e-09
2.17334740843e-09
9.34796052948e-09
4.81320356051e-09
2.92559336439e-09
9.04678268802e-09
3.63812894894e-08
5.14231483081e-09
3.90540547828e-08
1.22439602181e-08
3.05006067721e-08
3.11798225698e-08
4.8128972637e-08
1.57402202788e-08
6.98198441278e-08
3.69784756885e-09
2.36650289527e-08
3.4497458223e-08
4.23098686724e-08
2.98270735242e-08
2.5047609256e-08
2.4632434722e-08
1.72011986647e-08
2.71112383777e-09
5.76280226862e-09
3.81393649111e-09
8.20138681928e-11
1.25156489734e-09
2.82810536041e-08
4.59852559308e-08
2.63287036646e-09
1.86138722189e-09
8.70248521901e-10
1.37902365805e-08
1.4391140059e-08
2.04589548303e-09
7.39184782627e-09
3.7386651602e-09
1.85393093448e-09
4.339419418e-09
3.38271090665e-09
2.31215974688e-08
3.05680583602e-08
5.80255073256e-09
2.00218042742e-08
5.63266679114e-09
2.9974596275e-08
1.81735820879e-09
2.82438538223e-08
9.47091656945e-10
2.40121781586e-08
4.33054070817e-09
3.40856408799e-08
1.53940568613e-07
1.69365088595e-07
5.50277869087e-08
1.74288536008e-07
2.81470937423e-08
2.07971571992e-07
4.3502950989e-07
3.55371372909e-07
1.60785622854e-07
1.57802525186e-07
5.50505081009e-08
2.6016290787e-08
1.16724643862e-08
4.15321247889e-08
4.72955498299e-09
6.7482648251e-08
1.68825797172e-08
9.17282154214e-08
5.96574216767e-08
8.09860572237e-08
6.81718639674e-08
3.91529371579e-08
5.03286815513e-08
3.01190180286e-08
3.14753814593e-08
1.22254528391e-08
1.38814505927e-08
9.43806963427e-10
1.40604373778e-08
3.16854904753e-11
2.09029938172e-08
6.89264315072e-09
2.52673607779e-08
1.46295008082e-08
2.59004193207e-08
1.81782298268e-08
1.71645805786e-08
5.94333104498e-09
1.23638208672e-08
1.46691055567e-08
9.75385205303e-09
6.03354829559e-09
6.25165906208e-09
1.25663500009e-09
6.53593712834e-09
3.6087541298e-10
2.80017061907e-10
1.41126568502e-09
3.28454413435e-09
1.12466132594e-09
6.20315273329e-09
1.86320093806e-09
2.67313424524e-09
3.16466699274e-09
1.56506362162e-09
3.42613940513e-09
7.42659466626e-09
5.39977749386e-09
1.28306214989e-08
3.26529936475e-09
8.10057362843e-09
4.09481412506e-09
4.51085986131e-09
8.20147353622e-09
5.07578515952e-09
1.30752388486e-08
1.31979428201e-08
9.25917237432e-09
5.43271730783e-09
6.68606012887e-09
1.79190155739e-08
1.48670834106e-09
2.50362273314e-08
1.25904358068e-08
3.91554353286e-09
3.48623027459e-08
8.90693384032e-09
3.0988936894e-08
4.38505385725e-09
2.56663314069e-08
3.69380228423e-09
2.4988813673e-08
1.99644885465e-08
2.88294821325e-08
1.4641573944e-07
1.41270477927e-07
2.10717648153e-07
4.43524994951e-07
6.4295843938e-08
1.31784467376e-06
1.66716557433e-06
4.1861853183e-07
4.0086139974e-07
1.12659506614e-07
2.0760441437e-07
2.94168531078e-08
7.92840244873e-08
3.51246807661e-08
5.24729032998e-08
2.21009129937e-08
5.94843036789e-09
1.31548457289e-08
7.95132865143e-09
3.52091037574e-08
1.35253151493e-08
1.1434119875e-08
2.82177130135e-08
5.79022244504e-09
3.29574118948e-08
1.80648108275e-08
3.3601394892e-08
3.51689054156e-07
1.82106856396e-07
1.55516976587e-07
2.02889508961e-07
6.24068824659e-08
1.80489121299e-07
1.25536159677e-07
1.05879351285e-07
1.6674931324e-07
6.39282343042e-07
1.12893853861e-07
2.71869810192e-07
2.36315605376e-07
1.03369289872e-07
5.79914313752e-08
4.91700018955e-08
8.08724054207e-08
8.79007594109e-09
1.4484680953e-08
1.47579210275e-07
1.63781497708e-08
1.37006481588e-07
7.45408011405e-08
4.5619364781e-07
1.97406793943e-07
8.17337140387e-08
1.90224231721e-07
4.86671053907e-08
6.94324662945e-07
7.37527048098e-08
8.77245103264e-08
1.47488485997e-06
7.04712110374e-08
4.21223108288e-08
2.57381218798e-07
1.28331804833e-07
9.58970920422e-08
1.82914008023e-08
8.21816436979e-08
2.14241944119e-08
1.35293965051e-08
1.4096248215e-07
6.31102604513e-09
7.22551771022e-07
5.94325837074e-08
3.81319751519e-08
5.96860955855e-09
8.1679737535e-09
1.14810542421e-08
4.41216563451e-08
2.90276215372e-07

