# vtk DataFile Version 3.0
File Name: Molecule/methanol/methanol_4.0-2.vtk
ASCII
DATASET UNSTRUCTURED_GRID
FIELD FieldData 1
TIME 1 1 double
0.0
POINTS 189 double
1.6221599579 7.0231428253e-05 -0.32142198086
1.5339101553 -0.50792056322 -0.34795048833
1.4334011078 -0.0024733417667 -0.85561352968
1.3439663649 -0.48055815697 -0.87772750854
1.2152240276 -1.0956983566 -0.29627391696
1.0459054708 -1.0159455538 -0.84382361174
0.80196756124 -1.4261698723 -0.31522113085
0.67539083958 -1.3011363745 -0.87139606476
0.11469790339 -1.5261926651 -0.77533489466
0.17794415355 -1.6571257114 -0.25279375911
-0.33318388462 -1.5976780653 -0.32253476977
-0.36080253124 -1.5143754482 -0.76183605194
-0.92550909519 -1.3066725731 -0.69973784685
-0.94280225039 -1.4345581532 -0.10093335807
-1.2944515944 -0.99328231812 -0.64304327965
-1.3388442993 -1.0960891247 -0.061598479748
-1.6602944136 -0.52078044415 -0.013960499316
-1.5813698769 -0.46840146184 -0.62410098314
-1.7441059351 -0.0035742823966 -0.0037868134677
-1.6538795233 0.0027987703215 -0.61754590273
-1.6640036106 0.51295304298 -0.017865534872
-1.5754919052 0.47440171242 -0.63023602962
-1.3480645418 1.0879859924 -0.038539212197
-1.2886275053 1.0042351484 -0.63463264704
-0.94617438316 1.436101675 -0.080491565168
-0.92285048962 1.3088926077 -0.69411844015
-0.32880657911 1.6489988565 -0.22493490577
-0.36168673635 1.5174546242 -0.75310444832
0.1144253388 1.526455164 -0.77355629206
0.19835798442 1.6618973017 -0.22159291804
0.81077069044 1.4302871227 -0.29117655754
0.6835899353 1.3159493208 -0.82746136189
1.2080221176 1.0938007832 -0.3217228651
1.0490996838 1.0029878616 -0.85677307844
1.5311757326 0.51296567917 -0.34986543655
1.3355870247 0.47734183073 -0.9022205472
1.9070011377 -4.5895171752e-07 0.65592294931
1.839073658 0.49669787288 0.65590918064
1.8390711546 0.25091588497 1.0837147236
1.8390693665 -0.24702937901 1.085392952
1.8392307758 -0.49708926678 0.65604263544
1.8382798433 -0.24943144619 0.20998290181
1.8381493092 0.24776244164 0.21171747148
1.5922399759 0.92690354586 1.1302981377
1.5850838423 0.52151459455 1.5703302622
1.5900139809 0.033090546727 1.701510787
1.5845366716 -0.55945318937 1.5485702753
1.5892988443 -0.89955604076 1.1927629709
1.5843638182 -1.0530483723 0.72058653831
1.5901608467 -0.90202140808 0.13215053082
1.5888664722 0.92985999584 0.17123450339
1.5811333656 1.0594997406 0.65520679951
1.2681860924 1.3310800791 1.1333016157
1.2667216063 1.0809892416 1.5685429573
1.2660833597 0.59381395578 1.9416851997
1.255281806 0.12797704339 2.0753018856
1.2690460682 -0.35618066788 2.0240089893
1.2644900084 -0.81431221962 1.8151451349
1.2556779385 -1.2384933233 1.3603711128
1.2664163113 -1.3951772451 0.89871507883
1.2727375031 -1.3869459629 0.40123313665
1.2673226595 1.3304524422 0.16941012442
1.2588313818 1.4220234156 0.65501117706
0.86075669527 1.6170675755 1.1399254799
0.73542356491 1.3923140764 1.7079651356
0.86128646135 0.98453587294 2.0280799866
0.85847097635 0.54080814123 2.255613327
0.7355068922 -0.0051733683795 2.4009709358
0.85848802328 -0.54827898741 2.2541892529
0.84433436394 -0.98355513811 2.0366985798
0.73897188902 -1.3928556442 1.7052640915
0.85632479191 -1.6183897257 1.1438019276
0.86039221287 -1.6890687943 0.65271216631
0.87076210976 -1.6112992764 0.16210563481
0.8582303524 1.6216062307 0.18099591136
0.84401333332 1.6935793161 0.65490686893
0.27524250746 1.8036296368 1.1499143839
0.26103025675 1.5479277372 1.7077862024
0.26347899437 1.2225015163 2.0718252659
0.26883471012 0.8076210022 2.3435072899
0.26781195402 0.20649364591 2.5148837566
0.26242184639 -0.27934449911 2.5068147182
0.26894155145 -0.75588971376 2.3671171665
0.27143475413 -1.2792844772 2.0193183422
0.26402971148 -1.5845857859 1.6510692835
0.25349932909 -1.7884048223 1.2112257481
0.27267289162 -1.8686163425 0.71821081638
0.2813988924 -1.7871773243 0.13005386293
0.27818009257 1.8085954189 0.19187182188
0.25287851691 1.8721553087 0.65943038464
-0.23416033387 1.8080198765 1.1335152388
-0.21943669021 1.5506010056 1.7035011053
-0.23045121133 1.2268327475 2.0656139851
-0.23489311337 0.81666910648 2.3382999897
-0.2241576314 0.21453662217 2.5146648884
-0.22937783599 -0.27324450016 2.5064399242
-0.23615883291 -0.74777787924 2.3701407909
-0.2267986238 -1.2718735933 2.0278446674
-0.22141216695 -1.5868777037 1.6489336491
-0.22828930616 -1.7871948481 1.209525466
-0.23343859613 -1.8677887917 0.73554724455
-0.23377193511 -1.7890319824 0.12967731059
-0.23352010548 1.8090269566 0.19115352631
-0.2303583622 1.8706374168 0.65724998713
-0.81188184023 1.6925340891 0.63338536024
-0.82320767641 1.6175367832 1.139526844
-0.69633036852 1.3941812515 1.7063428164
-0.82450318336 0.98355150223 2.0277307034
-0.82005190849 0.53945767879 2.2568981647
-0.69803339243 -0.0026791095734 2.4009838104
-0.82099449635 -0.54946678877 2.253344059
-0.80683624744 -0.98548704386 2.0350935459
-0.69976645708 -1.3938900232 1.7061818838
-0.82040566206 -1.6176068783 1.1415395737
-0.82600277662 -1.6878323555 0.63103270531
-1.224619031 1.420312047 0.62711894512
-1.2292228937 1.332551837 1.1317642927
-1.2284365892 1.08154881 1.5686542988
-1.2267161608 0.59393411875 1.9429190159
-1.2168552876 0.12721419334 2.0756828785
-1.2302858829 -0.35648277402 2.0245916843
-1.2243911028 -0.81484788656 1.817214489
-1.2174711227 -1.2389354706 1.3599666357
-1.2273589373 -1.3960483074 0.89887595177
-1.2278087139 -1.3957794905 0.40757066011
-1.5492407084 1.0518323183 0.63083201647
-1.5537796021 0.92594963312 1.130643487
-1.54707551 0.52108180523 1.5706213713
-1.551766634 0.033024229109 1.7017772198
-1.5466970205 -0.55937445164 1.5483326912
-1.5508537292 -0.89989244938 1.1929116249
-1.5507409573 -1.0476874113 0.69273638725
-1.8055849075 0.49142712355 0.62961310148
-1.8005820513 0.25175663829 1.083748579
-1.8000313044 -0.24739399552 1.0869442225
-1.805057168 -0.48861277103 0.63733655214
-1.8677549362 0.0001472683216 0.65908032656
1.3157650232 -0.23887781799 -1.1893595457
1.0180543661 -0.9016122818 -1.2223496437
1.0248754025 -0.47857257724 -1.6413866282
1.048281312 -0.00037878472358 -1.7289975882
1.3487633467 0.23571686447 -1.1287956238
1.2041842937 0.36910104752 -1.4154897928
0.64547783136 -1.2044306993 -1.3008189201
0.65045511723 -0.92128145695 -1.6930243969
0.64047724009 -0.52599054575 -1.9615288973
1.0096338987 0.47286340594 -1.6603688002
0.63453412056 0.46892672777 -1.9858632088
0.64908546209 0.96917366982 -1.6438652277
1.0058110952 0.92379188538 -1.2147955894
0.64564192295 1.2304372787 -1.2341513634
0.19125273824 -1.421219945 -1.2217234373
0.20420922339 -1.1899548769 -1.6502071619
0.19047416747 -0.71231710911 -2.060126543
0.19248135388 -0.24298967421 -2.2200651169
0.62347435951 -0.021924462169 -2.075561285
0.19219893217 0.24550502002 -2.2197067738
0.19530814886 0.71691656113 -2.0553987026
0.19265057147 1.1959555149 -1.6467807293
0.20283326507 1.4242192507 -1.2122149467
-0.43371725082 -1.4276040792 -1.2084041834
-0.42974582314 -1.1900956631 -1.6534805298
-0.44439759851 -0.71259826422 -2.0561950207
-0.43311867118 -0.24820579588 -2.2181527615
-0.43372964859 0.24015393853 -2.2194972038
-0.43395003676 0.71076095104 -2.0605633259
-0.43332850933 1.1879227161 -1.6547534466
-0.42735376954 1.4257335663 -1.2136406898
-0.88239759207 -1.2096002102 -1.2949033976
-0.88919562101 -0.92239832878 -1.6925520897
-0.88666969538 -0.51140499115 -1.963496685
-0.87970966101 -0.037238523364 -2.0701320171
-0.88739722967 0.44349429011 -1.9902631044
-0.89193379879 0.967407763 -1.6419374943
-0.8822055459 1.2363723516 -1.2280524969
-1.2679046392 -0.90726202726 -1.2000820637
-1.2619261742 -0.47648233175 -1.6434426308
-1.2664136887 -0.0014589906204 -1.7561588287
-1.2610298395 0.47684398293 -1.6443331242
-1.2693663836 0.90816920996 -1.1959819794
-1.5741157532 -0.24590073526 -1.1571968794
-1.5730215311 0.2460244894 -1.1582487822
1.2076880932 0.62384939194 -1.1898186207
0.89599353075 -0.30746936798 -1.844216466
0.88787746429 0.0037335874513 -1.8932821751
0.65341967344 -0.22237713635 -2.045239687
0.89451211691 0.301725775 -1.8468127251
0.6515096426 0.26120865345 -2.0385203362
1.0249701738 0.7237637043 -1.4592134953

CELLS 374 1496
3 0 1 2
3 2 1 3
3 1 4 3
3 3 4 5
3 4 6 5
3 5 6 7
3 7 6 8
3 9 8 6
3 9 10 8
3 8 10 11
3 11 10 12
3 13 12 10
3 14 12 15
3 13 15 12
3 15 16 14
3 14 16 17
3 16 18 17
3 17 18 19
3 18 20 19
3 19 20 21
3 20 22 21
3 21 22 23
3 22 24 23
3 23 24 25
3 24 26 25
3 25 26 27
3 27 26 28
3 29 28 26
3 29 30 28
3 28 30 31
3 30 32 31
3 31 32 33
3 32 34 33
3 33 34 35
3 35 34 2
3 0 2 34
3 36 37 38
3 36 38 39
3 36 39 40
3 36 40 41
3 36 41 42
3 36 42 37
3 38 37 43
3 38 43 44
3 38 44 45
3 39 38 45
3 39 45 46
3 39 46 47
3 40 39 47
3 40 47 48
3 40 48 49
3 41 40 49
3 37 42 50
3 37 50 51
3 37 51 43
3 43 51 52
3 43 52 53
3 44 43 53
3 44 53 54
3 44 54 45
3 55 45 54
3 45 55 56
3 46 45 56
3 46 56 57
3 47 46 57
3 47 57 58
3 47 58 59
3 48 47 59
3 48 59 60
3 49 48 60
3 51 50 61
3 51 61 62
3 51 62 52
3 52 62 63
3 52 63 64
3 53 52 64
3 53 64 65
3 54 53 65
3 54 65 66
3 55 54 66
3 55 66 67
3 56 55 67
3 56 67 68
3 57 56 68
3 57 68 69
3 57 69 70
3 58 57 70
3 58 70 71
3 59 58 71
3 59 71 72
3 60 59 72
3 60 72 73
3 62 61 74
3 62 74 75
3 62 75 63
3 63 75 76
3 63 76 77
3 64 63 77
3 64 77 78
3 65 64 78
3 65 78 79
3 66 65 79
3 66 79 80
3 67 66 80
3 67 80 81
3 68 67 81
3 68 81 82
3 69 68 82
3 69 82 83
3 70 69 83
3 70 83 84
3 71 70 84
3 71 84 85
3 72 71 86
3 85 86 71
3 72 86 87
3 73 72 87
3 75 74 88
3 75 88 89
3 75 89 76
3 76 89 90
3 76 90 91
3 77 76 91
3 91 92 77
3 78 77 92
3 92 93 78
3 79 78 93
3 79 93 94
3 80 79 94
3 94 95 80
3 81 80 95
3 95 96 81
3 82 81 96
3 82 96 97
3 83 82 97
3 97 98 83
3 84 83 98
3 84 98 85
3 99 85 98
3 85 99 100
3 86 85 100
3 86 100 101
3 87 86 101
3 89 88 102
3 89 102 103
3 89 103 90
3 90 103 104
3 90 104 105
3 91 90 105
3 91 105 106
3 92 91 106
3 92 106 107
3 93 92 107
3 93 107 108
3 94 93 108
3 94 108 109
3 95 94 109
3 95 109 110
3 96 95 110
3 96 110 111
3 97 96 111
3 97 111 112
3 98 97 112
3 98 112 113
3 99 98 113
3 99 113 100
3 114 100 113
3 101 100 114
3 103 102 104
3 105 104 115
3 105 115 116
3 106 105 116
3 106 116 117
3 107 106 117
3 107 117 118
3 108 107 118
3 108 118 119
3 109 108 119
3 109 119 120
3 110 109 120
3 110 120 121
3 111 110 121
3 112 111 121
3 112 121 122
3 113 112 122
3 113 122 123
3 114 113 123
3 114 123 124
3 116 115 125
3 116 125 126
3 117 116 126
3 117 126 127
3 118 117 127
3 119 118 128
3 127 128 118
3 120 119 128
3 120 128 129
3 121 120 129
3 121 129 130
3 122 121 130
3 123 122 130
3 123 130 131
3 124 123 131
3 126 125 132
3 126 132 133
3 127 126 133
3 128 127 133
3 128 133 134
3 129 128 134
3 130 129 134
3 130 134 135
3 131 130 135
3 133 132 136
3 134 133 136
3 135 134 136
3 135 136 18
3 135 18 16
3 135 16 131
3 131 16 15
3 131 15 124
3 124 15 13
3 124 13 114
3 114 13 101
3 101 13 10
3 101 10 9
3 101 9 87
3 73 87 6
3 9 6 87
3 73 6 4
3 73 4 60
3 60 4 49
3 49 4 1
3 49 1 41
3 41 1 0
3 41 0 42
3 42 0 34
3 42 34 50
3 50 34 32
3 50 32 61
3 61 32 30
3 61 30 74
3 74 30 29
3 74 29 88
3 88 29 102
3 102 29 26
3 102 26 24
3 102 24 104
3 104 24 115
3 115 24 22
3 115 22 125
3 125 22 20
3 125 20 132
3 132 20 18
3 132 18 136
3 137 138 139
3 137 139 140
3 141 137 142
3 138 143 144
3 139 138 144
3 139 144 145
3 146 147 148
3 149 148 150
3 143 151 152
3 144 143 152
3 144 152 153
3 145 144 153
3 145 153 154
3 155 154 156
3 147 156 157
3 148 147 157
3 148 157 158
3 150 148 158
3 150 158 159
3 151 160 161
3 152 151 161
3 153 152 161
3 153 161 162
3 153 162 163
3 154 153 163
3 154 163 164
3 156 154 164
3 156 164 165
3 157 156 165
3 157 165 166
3 158 157 166
3 158 166 167
3 159 158 167
3 161 160 168
3 161 168 169
3 162 161 169
3 162 169 170
3 163 162 170
3 163 170 171
3 164 163 171
3 164 171 172
3 165 164 172
3 165 172 173
3 166 165 173
3 166 173 174
3 167 166 174
3 169 168 175
3 169 175 176
3 170 169 176
3 170 176 177
3 171 170 177
3 172 171 177
3 172 177 178
3 173 172 178
3 173 178 179
3 174 173 179
3 176 175 180
3 177 176 180
3 177 180 181
3 178 177 181
3 179 178 181
3 179 181 21
3 179 21 23
3 174 179 25
3 23 25 179
3 174 25 167
3 167 25 27
3 167 27 28
3 167 28 159
3 159 28 31
3 159 31 150
3 150 31 33
3 150 33 149
3 149 33 182
3 141 35 2
3 141 2 137
3 137 2 3
3 137 3 138
3 138 3 5
3 143 138 7
3 5 7 138
3 143 7 151
3 151 7 8
3 151 8 160
3 160 8 11
3 160 11 12
3 160 12 168
3 168 12 175
3 14 175 12
3 175 14 17
3 175 17 180
3 180 17 19
3 180 19 181
3 181 19 21
3 145 183 139
3 139 183 140
3 140 183 184
3 183 185 184
3 183 145 185
3 184 185 155
3 140 184 186
3 184 187 186
3 184 155 187
3 186 187 147
3 140 186 146
3 146 186 147
3 155 185 154
3 185 145 154
3 147 187 156
3 187 155 156
3 146 142 140
3 140 142 137
3 141 142 182
3 142 188 182
3 142 146 188
3 182 188 149
3 149 188 148
3 188 146 148
3 141 182 35
3 35 182 33

CELL_TYPES 374
5
5
5
5
5
5
5
5
5
5
5
5
5
5
5
5
5
5
5
5
5
5
5
5
5
5
5
5
5
5
5
5
5
5
5
5
5
5
5
5
5
5
5
5
5
5
5
5
5
5
5
5
5
5
5
5
5
5
5
5
5
5
5
5
5
5
5
5
5
5
5
5
5
5
5
5
5
5
5
5
5
5
5
5
5
5
5
5
5
5
5
5
5
5
5
5
5
5
5
5
5
5
5
5
5
5
5
5
5
5
5
5
5
5
5
5
5
5
5
5
5
5
5
5
5
5
5
5
5
5
5
5
5
5
5
5
5
5
5
5
5
5
5
5
5
5
5
5
5
5
5
5
5
5
5
5
5
5
5
5
5
5
5
5
5
5
5
5
5
5
5
5
5
5
5
5
5
5
5
5
5
5
5
5
5
5
5
5
5
5
5
5
5
5
5
5
5
5
5
5
5
5
5
5
5
5
5
5
5
5
5
5
5
5
5
5
5
5
5
5
5
5
5
5
5
5
5
5
5
5
5
5
5
5
5
5
5
5
5
5
5
5
5
5
5
5
5
5
5
5
5
5
5
5
5
5
5
5
5
5
5
5
5
5
5
5
5
5
5
5
5
5
5
5
5
5
5
5
5
5
5
5
5
5
5
5
5
5
5
5
5
5
5
5
5
5
5
5
5
5
5
5
5
5
5
5
5
5
5
5
5
5
5
5
5
5
5
5
5
5
5
5
5
5
5
5
5
5
5
5
5
5
5
5
5
5
5
5
5
5
5
5
5
5
5
5
5
5
5
5
5
5
5
5
5
5
5
5
5
5
5
5
5
5
5
5
5
5
5
5
5
5
5
5

CELL_DATA 374
SCALARS cell_data_0 double
LOOKUP_TABLE default
4.07010100953e-07
6.19886649698e-08
5.39196767604e-07
6.91449488756e-07
2.88465050954e-08
8.48085692985e-08
1.35276964444e-07
1.42219947086e-07
4.83782496857e-08
1.89795829528e-08
8.39425622241e-08
5.60861026155e-08
6.61883350788e-08
3.39928441608e-08
7.19822830557e-08
1.41327937552e-07
5.96018304816e-08
9.98149158461e-08
7.32600420018e-08
1.17964240296e-07
1.37776396109e-07
6.65556712272e-08
8.44978700115e-08
8.58901892818e-08
1.14061595333e-07
7.34849657386e-09
2.62801449844e-08
3.21873592292e-08
1.69189030628e-07
1.21013170131e-07
7.01676708092e-08
1.01729091349e-07
4.19613042456e-08
2.95433199855e-07
6.77948352739e-07
4.11534713279e-07
7.99037700121e-10
4.79141572038e-11
1.73034149304e-10
5.35295508691e-10
5.248347914e-09
9.08456783805e-11
9.90516838074e-10
1.80626641331e-10
4.23890680427e-12
1.88060340954e-10
1.26006986059e-09
1.64300904857e-09
2.2529846888e-09
2.46052524805e-09
3.71426499172e-10
5.34496918748e-09
2.85913016839e-09
1.21021932911e-09
1.61527743273e-09
5.42455667265e-10
1.47911985461e-09
4.95677440584e-10
3.15351916496e-10
2.0716859563e-10
4.5954577873e-10
1.45926635339e-09
1.01827112801e-09
7.77948064033e-10
2.64115080225e-10
1.27444410524e-10
8.78858249352e-10
1.9440315414e-09
9.48889213917e-11
1.64569504045e-09
8.49142400001e-10
6.50763894334e-10
1.00391383066e-09
6.48462655732e-10
3.86010058927e-10
1.25991334953e-09
5.1796341798e-10
8.5981014522e-10
1.00133736896e-09
5.585476625e-10
1.46413046814e-10
1.19021325299e-09
1.04097521527e-10
4.50719753218e-10
1.1407753697e-09
2.19881667768e-10
2.24491072565e-09
3.97346898678e-10
1.39718224687e-10
1.06172180802e-09
1.59790636575e-09
1.81592030346e-09
1.85607944572e-09
1.21056370654e-09
1.13090347867e-09
1.07339150043e-09
1.15969798661e-09
5.13012743442e-10
9.82295638567e-10
2.75957999839e-10
5.16959122351e-10
2.85337388313e-10
1.08986998542e-09
1.38919083571e-10
1.81734898626e-09
8.10432537601e-10
8.27975040151e-11
4.31347286414e-10
1.52459585179e-09
5.09476248669e-10
9.28058146385e-10
9.31713942707e-10
8.17571378038e-10
3.85423819804e-09
2.68521201601e-09
2.85790506262e-09
1.03337581386e-08
2.93789957066e-09
1.91305437681e-09
2.58936884842e-09
5.97798168081e-10
1.33174001284e-09
1.80872955764e-10
3.96138313861e-10
3.31456252254e-10
2.90813951847e-10
1.11479602625e-09
3.53061042627e-10
2.33468852341e-10
2.5366584416e-10
4.25395391912e-10
1.64020207043e-10
9.84692934325e-10
2.16490208208e-10
7.40624456825e-10
1.84441866412e-10
5.58948913451e-10
2.0260416006e-10
4.44520825916e-10
1.33078269491e-11
3.15380200533e-09
8.54019844174e-10
1.54971067789e-08
6.43714975877e-09
7.4921089527e-10
2.51409820797e-09
6.09285638711e-09
8.54011591443e-10
3.82181998389e-09
1.03480506394e-09
9.95380947144e-10
1.10737675965e-10
7.63819487265e-11
5.92943486642e-10
6.63479598604e-10
3.75751962901e-10
1.32566419686e-09
3.67523611245e-10
2.11015090665e-10
6.38957031612e-10
1.23789268739e-09
5.99857259075e-10
3.21780127515e-10
1.06754136065e-09
2.3651409771e-09
9.16847634481e-10
1.35936312287e-09
1.1207391438e-08
5.9394972008e-10
2.36195174794e-09
4.37595387342e-10
5.12726295943e-09
7.82385541915e-10
5.50697349665e-10
2.78561785617e-10
6.09001866019e-10
7.13476368976e-10
1.82870723982e-10
7.61311048172e-10
9.10336039241e-10
6.91399614804e-10
1.56624306032e-10
6.53052828073e-10
4.85891760737e-10
6.80791891442e-10
2.76584533439e-09
1.61200434955e-09
9.82092092947e-10
5.93468893794e-10
4.30537536115e-10
2.8329020251e-09
8.23033804912e-10
3.87314566049e-10
9.58570730363e-12
6.32876139648e-10
1.16911276714e-10
5.43453930036e-10
1.87092633842e-10
9.80707861694e-10
3.67794355846e-09
1.39364979894e-09
7.46650458758e-10
3.28476726118e-09
2.53944157912e-09
5.81550720877e-10
4.68828356366e-09
1.13556084267e-09
7.38065776124e-09
4.13256006738e-09
2.86189678915e-09
1.95239584426e-10
4.02673316425e-09
1.84409675266e-09
1.68923424077e-09
2.40915848878e-09
3.11093716605e-08
1.01680860144e-07
5.93423189611e-08
1.82158224767e-07
1.30892615644e-09
5.41855368112e-08
5.80512403828e-08
1.07195049313e-08
9.17240143512e-08
2.23097182126e-08
1.43013139379e-08
2.66092100081e-08
2.28577969659e-08
1.78153100238e-08
1.05725258393e-08
2.38778094947e-08
2.87008615753e-08
1.66594270864e-10
9.486751913e-09
1.18766836886e-09
1.18717676308e-08
1.27305506093e-08
1.58916755454e-08
8.52703310917e-09
8.47782149304e-09
3.34064592543e-09
3.30347158575e-08
5.92171230173e-09
5.78276561969e-09
2.48469368341e-08
6.49398945412e-08
9.18910145072e-08
2.14948149677e-08
1.07913503908e-07
1.79795267077e-08
1.4403015506e-07
2.92470553089e-08
9.91946823483e-08
3.23420542736e-08
3.76793646956e-06
3.15015429323e-07
1.79012146848e-08
8.92428579531e-08
1.0498460256e-06
8.0897091421e-07
7.34214141646e-07
1.52397335801e-07
6.18609845031e-08
3.6740356788e-08
1.54508193357e-07
3.39895516547e-08
2.20219910439e-07
2.66075258086e-07
2.58609355451e-07
2.91873962092e-07
1.44340199625e-07
1.21892950848e-07
4.12277035447e-08
1.4526893955e-08
1.34022126028e-08
1.49757093387e-08
1.16875715043e-07
7.47692869033e-08
1.08089049379e-08
9.67065928294e-08
6.07232339263e-08
9.98720761564e-08
7.9755493109e-08
1.07018236296e-07
1.02649308967e-07
5.35228311756e-08
4.0034858518e-08
2.0986861551e-08
2.70111678766e-09
8.99627561559e-09
7.98373006731e-09
8.02215644511e-09
2.44541528703e-09
6.55482726825e-09
2.71721004827e-09
1.15459778728e-08
2.3250353511e-09
4.63438304302e-10
2.85475846978e-09
1.69871472332e-08
1.29988883623e-08
1.42199487299e-09
9.43010530682e-09
9.38509281809e-09
7.29728534838e-09
5.36762709407e-09
1.95979478328e-08
7.79938493713e-09
7.31598669383e-09
1.93190683294e-08
7.88830617747e-09
1.23433284802e-08
1.53063634003e-08
1.07188117885e-08
2.30450871986e-09
9.39744442761e-09
3.62325266383e-08
8.31250473177e-09
8.62831901538e-09
1.6630522281e-08
3.47743340867e-08
1.36737963618e-08
2.0122767716e-08
6.44704295964e-08
3.13680388886e-08
7.19132937133e-08
9.49596369489e-08
2.12966331643e-07
1.37350070501e-08
7.24898002715e-07
6.69111945648e-07
3.13554454584e-06
3.62430869668e-07
1.80708591074e-07
1.72015810239e-07
2.71929942027e-08
5.71601630607e-08
2.48273167247e-08
1.1609400599e-08
1.94379914113e-08
3.60008081944e-09
7.14102640075e-09
8.10349708419e-09
3.05944057992e-08
1.11855713166e-08
2.0443866929e-08
3.23241721187e-08
2.46022691126e-08
1.42523792186e-07
6.29515245522e-08
2.91961873172e-07
1.25922404634e-07
9.95894331354e-08
7.66709600003e-08
3.0142922995e-07
7.22110419546e-08
9.29273758116e-08
9.13051468975e-08
4.32821340574e-07
6.38218670927e-08
8.78714215789e-08
2.3652810619e-08
9.14469120176e-08
8.33494294185e-08
1.08811577655e-06
9.30206007037e-07
4.59473410267e-08
6.51473276055e-07
5.44019726588e-07
1.58483170892e-08
1.5608969969e-07
5.28040067938e-07
3.60456862329e-07
3.44018935454e-07

