# vtk DataFile Version 3.0
File Name: Molecule/methanol/methanol_1.0-5.vtk
ASCII
DATASET UNSTRUCTURED_GRID
FIELD FieldData 1
TIME 1 1 double
0.0
POINTS 62 double
1.3991549015 0.0034373486415 -0.94136095047
1.6113189459 -0.00090757093858 -0.33523049951
1.2833852768 -0.60758841038 -0.90576195717
0.93417793512 -1.1011196375 -0.89460408688
1.0858402252 -1.2256686687 -0.2939684391
0.50670808554 -1.3689086437 -1.0494091511
0.026895765215 -1.6852600574 -0.17150662839
-1.2052214146 -1.2302142382 -0.056894391775
-0.071521833539 -1.5214185715 -0.80249458551
-1.1657258272 -1.0939025879 -0.71599090099
-1.7288620472 -0.0014445876004 -0.023481380194
-1.6385648251 0.00051017163787 -0.77780079842
-1.167203784 1.0887424946 -0.71632033587
-1.2076327801 1.2289303541 -0.057448003441
-0.055514723063 1.5116095543 -0.82020378113
0.030089296401 1.6853712797 -0.16189241409
0.91205209494 1.1265838146 -0.87232065201
1.0940551758 1.2235337496 -0.26910015941
1.2816509008 0.60907459259 -0.90946775675
1.9059923887 -0.0032670171931 0.67193293571
1.5803260803 1.0591722727 0.65779614449
1.5726443529 0.50440239906 1.5989347696
1.5748435259 -0.58412337303 1.5492335558
1.4905519485 -1.1800551414 0.66036999226
0.58039104939 1.4501206875 1.7180662155
0.56845808029 0.55007964373 2.3730483055
0.59084713459 -0.55140662193 2.3634631634
0.57872855663 -1.4517772198 1.7176895142
0.56991714239 -1.8042644262 0.66066974401
0.57183009386 1.8033959866 0.66016304493
-0.54287725687 1.4605821371 1.7032234669
-0.53058576584 0.56960690022 2.3672635555
-0.5359313488 -0.55683934689 2.3699529171
-0.54086440802 -1.4615604877 1.7043216228
-0.53956568241 -1.8035268784 0.64432483912
-0.54204016924 1.8027324677 0.64295947552
-1.5410766602 1.0561672449 0.67666947842
-1.5355086327 0.50536125898 1.5980126858
-1.5381544828 -0.58231931925 1.5479460955
-1.4520807266 -1.1767939329 0.68476063013
-1.8628811836 -0.002402377082 0.69569432735
-0.14499214292 0.31196880341 -2.2403290272
-0.12168231606 -0.75658339262 -2.0721447468
-1.1440101862 -0.60961997509 -1.7032704353
-1.1474347115 0.61093258858 -1.6994745731
-0.12375538051 1.1439484358 -1.7592601776
0.88671851158 0.95910423994 -1.3712940216
-0.13812921941 -1.3251929283 -1.5065327883
1.2158260345 0.37946841121 -1.394382596
1.2686086893 -0.31041443348 -1.2998615503
1.0370243788 -0.0077743446454 -1.7463825941
0.91029989719 -0.59420055151 -1.7032053471
1.018321991 -0.83710205555 -1.337808013
0.64941000938 0.61912673712 -1.9085922241
0.91962301731 0.6177598834 -1.6825455427
0.48646336794 -0.11961218715 -2.1372284889
0.49871450663 -0.96484643221 -1.7582371235
0.33963438869 0.51791936159 -2.1062619686
1.00373137 0.31387659907 -1.7315863371
0.66252791882 0.29988497496 -2.0213196278
0.78619921207 9.0174959041e-05 -1.9767289162
0.4976913929 0.23520503938 -2.1214921474

CELLS 120 480
3 0 1 2
3 3 4 5
3 4 6 5
3 6 7 8
3 8 7 9
3 7 10 9
3 9 10 11
3 11 10 12
3 13 12 10
3 12 13 14
3 15 14 13
3 14 15 16
3 17 16 15
3 17 1 18
3 19 20 21
3 19 21 22
3 19 22 23
3 21 20 24
3 21 24 25
3 21 25 26
3 22 21 26
3 22 26 27
3 23 22 27
3 23 27 28
3 20 29 24
3 24 29 30
3 24 30 31
3 25 24 31
3 25 31 32
3 26 25 32
3 27 26 32
3 27 32 33
3 27 33 28
3 34 28 33
3 29 35 30
3 30 35 36
3 30 36 37
3 31 30 37
3 31 37 32
3 38 32 37
3 33 32 38
3 33 38 39
3 34 33 39
3 37 36 40
3 38 37 40
3 39 38 40
3 39 40 10
3 39 10 7
3 39 7 34
3 34 7 6
3 34 6 28
3 28 6 4
3 28 4 23
3 23 4 1
3 23 1 19
3 19 1 20
3 20 1 17
3 20 17 29
3 29 17 15
3 29 15 35
3 35 15 13
3 35 13 36
3 36 13 10
3 36 10 40
3 41 42 43
3 41 43 44
3 45 41 44
3 45 44 12
3 45 12 14
3 45 14 46
3 8 9 47
3 43 9 11
3 43 11 44
3 44 11 12
3 3 2 4
3 4 2 1
3 48 49 50
3 51 49 52
3 49 2 52
3 49 0 2
3 52 2 3
3 0 18 1
3 17 18 16
3 16 46 14
3 45 46 53
3 54 46 48
3 46 18 48
3 46 16 18
3 48 18 0
3 49 48 0
3 41 55 42
3 42 55 56
3 57 41 45
3 51 50 49
3 8 5 6
3 3 5 52
3 42 47 43
3 43 47 9
3 52 56 51
3 51 56 55
3 42 56 47
3 56 5 47
3 56 52 5
3 47 5 8
3 54 58 53
3 58 59 53
3 59 58 60
3 53 59 57
3 50 60 58
3 60 61 59
3 60 55 61
3 59 61 57
3 55 60 51
3 51 60 50
3 57 61 41
3 61 55 41
3 54 53 46
3 53 57 45
3 50 58 48
3 48 58 54

CELL_TYPES 120
5
5
5
5
5
5
5
5
5
5
5
5
5
5
5
5
5
5
5
5
5
5
5
5
5
5
5
5
5
5
5
5
5
5
5
5
5
5
5
5
5
5
5
5
5
5
5
5
5
5
5
5
5
5
5
5
5
5
5
5
5
5
5
5
5
5
5
5
5
5
5
5
5
5
5
5
5
5
5
5
5
5
5
5
5
5
5
5
5
5
5
5
5
5
5
5
5
5
5
5
5
5
5
5
5
5
5
5
5
5
5
5
5
5
5
5
5
5
5
5

CELL_DATA 120
SCALARS cell_data_0 double
LOOKUP_TABLE default
2.15420471611e-06
2.37734106332e-08
2.27509906433e-07
2.0138069645e-07
4.09709922676e-07
6.6063969944e-08
1.95112868073e-07
4.20436024373e-07
5.65576062578e-08
1.64554331701e-07
3.03855376671e-07
4.95181871689e-07
1.67849658881e-07
8.69720224884e-07
1.05367155788e-08
3.39780719329e-09
6.19794212564e-09
5.16707308764e-09
1.09972379882e-08
2.1758206945e-09
7.31335233293e-09
2.07622569873e-09
8.33975703597e-09
6.19557531256e-09
1.36935159359e-09
3.05633462278e-09
9.17106291659e-11
1.43132449752e-09
9.4968772273e-09
1.40225444782e-08
4.39132430081e-09
8.21780578574e-09
7.85634585526e-10
2.81318853375e-08
2.79971619659e-08
7.64967442776e-08
5.693130808e-09
9.74114055144e-09
1.37980020743e-08
1.71492438453e-09
2.36006855804e-08
1.960478274e-08
3.09570698805e-08
3.83655665821e-08
2.93702921014e-08
3.49268451353e-08
1.01580704536e-07
4.97745823377e-07
1.60167255664e-07
4.04054187043e-07
2.05472252135e-07
1.17944251262e-07
1.45217382714e-07
3.73231468111e-07
5.41692795254e-08
2.44576797239e-08
3.31270195836e-07
1.06424730895e-07
1.07350440052e-07
3.85402011715e-08
3.46281654896e-07
4.54186612549e-08
4.53261664181e-07
9.31819174014e-08
3.40921170831e-07
3.47036118378e-07
2.51298937043e-08
4.07677163925e-07
9.61638222238e-08
1.90514352721e-06
2.77324355425e-07
1.36684688228e-07
2.19845667632e-07
9.77665534416e-08
4.1040220546e-07
7.32573335401e-07
9.56292718702e-07
1.96053158801e-06
2.91990394146e-06
1.94640240007e-07
5.06633725088e-07
2.06420734756e-06
3.2517850213e-07
1.25182923941e-06
1.83475477954e-06
1.97695239288e-06
6.67035651077e-07
7.39285551801e-07
6.09057544034e-07
8.69345880154e-07
4.93359943431e-07
6.17726506251e-07
3.70348750923e-07
2.64774866063e-06
1.44716263919e-07
4.31894650226e-07
1.40592663439e-07
2.2441016842e-07
4.84408951291e-07
5.79574927138e-07
2.52568409331e-07
1.37994216157e-07
8.05773276024e-07
8.62907168663e-08
3.40073959649e-07
4.55264801344e-07
4.88232758369e-08
4.2065374284e-08
2.60481875858e-07
6.65800739908e-08
1.64080317971e-07
2.28200535559e-08
2.78527288684e-07
4.44229788524e-07
1.7130868379e-07
2.52269721596e-07
3.39496302976e-08
1.39422304332e-07
9.6851546231e-08
4.32327961719e-07

