# vtk DataFile Version 3.0
File Name: Molecule/methanol/methanol_5.0-5.vtk
ASCII
DATASET UNSTRUCTURED_GRID
FIELD FieldData 1
TIME 1 1 double
0.0
POINTS 275 double
1.3236365318 -0.5183403492 -0.88844776154
1.4555572271 -0.4849896729 -0.49825638533
1.1777997017 -0.87610304356 -0.71426540613
1.3417700529 -0.91434049606 -0.3165897131
1.0586949587 -1.2053130865 -0.40247106552
0.93423581123 -1.1136168242 -0.87162142992
0.56750541925 -1.3889915943 -0.80295449495
0.68615019321 -1.5042749643 -0.26701968908
0.20020622015 -1.668970108 -0.19407053292
0.10451791435 -1.5200923681 -0.79778558016
-0.32274630666 -1.6596086025 -0.18894968927
-0.34980741143 -1.5330563784 -0.70977765322
-0.80456864834 -1.4998691082 -0.1683473736
-0.81301802397 -1.3835679293 -0.66354763508
-1.2000845671 -1.2282909155 -0.1312212795
-1.1565867662 -1.1133842468 -0.72526150942
-1.4071787596 -0.87591505051 -0.55673569441
-1.4461481571 -0.95334744453 -0.05688226223
-1.6474095583 -0.49734672904 -0.13695655763
-1.5689615011 -0.46099030972 -0.67603945732
-1.6607086658 -0.0020603199955 -0.5958429575
-1.7349454165 -0.0025515621528 -0.062682837248
-1.5808621645 0.46646562219 -0.62958687544
-1.6545971632 0.4858904779 -0.11152011901
-1.4384994507 0.92740434408 -0.16105353832
-1.3930182457 0.84994345903 -0.65857863426
-1.1713668108 1.1171469688 -0.6775599122
-1.1933083534 1.2193498611 -0.17139057815
-0.79821568727 1.3910541534 -0.67608433962
-0.80984890461 1.5020632744 -0.1454359591
-0.32812893391 1.6444331408 -0.24705536664
-0.35481375456 1.5073596239 -0.7879229188
0.11689523607 1.5388615131 -0.73659211397
0.18865782022 1.6663502455 -0.2085993886
0.66668069363 1.5068229437 -0.29238778353
0.56751585007 1.3881704807 -0.79989635944
1.0667004585 1.2383104563 -0.31710100174
0.93905419111 1.135327816 -0.82111656666
1.3254010677 0.93082404137 -0.33978044987
1.1505275965 0.86219072342 -0.87557792664
1.3486893177 0.52370929718 -0.72527587414
1.9070010185 2.5540884963e-05 0.65574991703
1.8429135084 0.48695158958 0.6556622386
1.8428519964 0.24375760555 1.0764354467
1.8428711891 -0.24280276895 1.0768810511
1.8428480625 -0.48657110333 0.65628224611
1.843131423 -0.24320463836 0.23390449584
1.8430294991 0.24308641255 0.23277516663
1.6737122536 0.78359544277 1.112574935
1.6583449841 0.46381735802 1.4668651819
1.6744244099 -0.0092104366049 1.5620568991
1.6610002518 -0.45891401172 1.4660625458
1.6703894138 -0.79006278515 1.1151703596
1.6607099771 -0.93162691593 0.65657019615
1.6699854136 -0.79381155968 0.20195683837
1.6656429768 -0.47050496936 -0.13636121154
1.6646871567 0.46347159147 -0.14583170414
1.6709250212 0.78710627556 0.19360563159
1.6586833 0.93455761671 0.65519195795
1.4066047668 1.1879339218 1.1255249977
1.4071955681 0.93910360336 1.5200881958
1.3902332783 0.59765130281 1.8073965311
1.4025275707 0.12375008315 1.9325833321
1.4102890491 -0.36362475157 1.8768411875
1.3966882229 -0.79030889273 1.6741087437
1.3862441778 -1.0986958742 1.3515622616
1.4081497192 -1.2502348423 0.91102468967
1.4042032957 -1.2606586218 0.42532873154
1.3852136135 -1.1144061089 -0.010532455519
1.3987674713 1.1902163029 0.16485786438
1.3916816711 1.2961410284 0.65376663208
1.1235553026 1.4535214901 1.1310474873
1.1271139383 1.2443611622 1.541292429
1.1246906519 0.98306947947 1.825860858
1.1195503473 0.58135581017 2.072612524
1.1098721027 0.13418830931 2.1862909794
1.1241106987 -0.3320786953 2.1469163895
1.1271468401 -0.78192609549 1.9659469128
1.0331498384 -1.1624947786 1.7424111366
1.116989255 -1.3728965521 1.3378305435
1.1184673309 -1.5164853334 0.87836247683
1.1061707735 -1.5211873055 0.41178673506
1.1138030291 -1.3788473606 -0.0078169498593
1.1204885244 1.4524188042 0.16774135828
1.1072200537 1.5366691351 0.65395492315
0.72272080183 1.6845203638 1.1353459358
0.71669441462 1.5023568869 1.5591734648
0.73620951176 1.2736474276 1.8481997252
0.7293394208 0.92746734619 2.138625145
0.71983546019 0.47734466195 2.341593504
0.72583127022 -0.01494704932 2.4053823948
0.71794772148 -0.490121454 2.3383896351
0.71253687143 -0.93267095089 2.1426274776
0.68263858557 -1.2838919163 1.8675086498
0.71591752768 -1.4999395609 1.5641032457
0.72258770466 -1.685418725 1.133808732
0.72203809023 -1.7513577938 0.65471374989
0.71461939812 -1.6865524054 0.16755200922
0.71975159645 1.6857733727 0.17641280591
0.69608271122 1.7590688467 0.6561011672
0.27668741345 1.8107516766 1.1195437908
0.25468471646 1.6309986115 1.574837923
0.25979280472 1.3382695913 1.9645895958
0.2590803802 0.94639658928 2.2693977356
0.24471972883 0.50059372187 2.460385561
0.27968013287 0.071906164289 2.5216324329
0.25560760498 -0.30272552371 2.5033726692
0.26695641875 -0.75640892982 2.3667280674
0.26655006409 -1.170856595 2.1144943237
0.26409035921 -1.5030363798 1.768840909
0.26809200644 -1.7362720966 1.3525819778
0.28763645887 -1.8519269228 0.89664876461
0.26736062765 -1.8555676937 0.41372337937
0.27376776934 1.8115378618 0.20910170674
0.23415437341 1.8727890253 0.65874809027
-0.21316939592 1.8118879795 1.1281144619
-0.2331365943 1.6292409897 1.5721319914
-0.22731219232 1.3421432972 1.9586070776
-0.22315695882 0.96097952127 2.260831356
-0.20795591176 0.53342294693 2.4510936737
-0.20884037018 0.073422633111 2.5259661674
-0.24868391454 -0.29874360561 2.499818325
-0.22907841206 -0.73527681828 2.3761935234
-0.22890138626 -1.1483930349 2.1326012611
-0.22671894729 -1.4837832451 1.7944066525
-0.22867010534 -1.7268806696 1.3764437437
-0.21825101972 -1.8571937084 0.89700680971
-0.23881430924 -1.8508012295 0.36390584707
-0.2135116905 1.8124108315 0.1906581521
-0.22295166552 1.8717784882 0.65694540739
-0.66445463896 1.7565171719 0.65660202503
-0.68463230133 1.6845126152 1.1357034445
-0.68154096603 1.5023816824 1.5568168163
-0.69821345806 1.2754372358 1.8470667601
-0.69397503138 0.92781949043 2.1367180347
-0.68268769979 0.47793516517 2.3410127163
-0.6864887476 -0.015741184354 2.4064459801
-0.68191719055 -0.49144780636 2.3373544216
-0.67402118444 -0.93421131372 2.1424269676
-0.6456835866 -1.2854847908 1.8635122776
-0.6764588356 -1.500918746 1.5649569035
-0.6853197217 -1.6848242283 1.134819746
-0.68605321646 -1.7505770922 0.65506702662
-0.67003929615 -1.6934655905 0.19823481143
-0.68506461382 1.6865209341 0.19025306404
-1.0662289858 1.5387817621 0.65644937754
-1.0820885897 1.4564659595 1.1293474436
-1.0863150358 1.2462313175 1.5421140194
-1.085735321 0.98262935877 1.8273044825
-1.079767108 0.58126485348 2.0739481449
-1.0690631866 0.13304749131 2.188141346
-1.0822082758 -0.33151564002 2.1496989727
-1.0858390331 -0.78231865168 1.9681417942
-0.99157267809 -1.1643117666 1.7439540625
-1.0767964125 -1.3747088909 1.3375823498
-1.0780601501 -1.5182982683 0.87683576345
-1.0737899542 -1.5145978928 0.37699097395
-1.0904095173 1.4534113407 0.20150847733
-1.3496026993 1.3000930548 0.65833050013
-1.365903616 1.1911700964 1.1260075569
-1.3667697906 0.94171452522 1.5215569735
-1.3501601219 0.59694874287 1.8102412224
-1.360396862 0.12403944135 1.9372650385
-1.369751215 -0.36270430684 1.8802574873
-1.3574800491 -0.78978097439 1.6763858795
-1.3456932306 -1.1021416187 1.3513206244
-1.3676230907 -1.2520883083 0.91223925352
-1.3702591658 -1.2544519901 0.4121234417
-1.368288517 1.1919893026 0.20914824307
-1.6208039522 0.93431979418 0.65799462795
-1.6373277903 0.78098958731 1.1110005379
-1.6211190224 0.46285951138 1.4659473896
-1.6376658678 -0.009577838704 1.55978477
-1.6243642569 -0.45852378011 1.4635280371
-1.6327928305 -0.78932487965 1.1148605347
-1.6242595911 -0.92892920971 0.65895664692
-1.6425523758 -0.77820616961 0.25178337097
-1.6388677359 0.78171998262 0.22470347583
-1.8046481609 0.48762914538 0.65809619427
-1.804543376 0.24365648627 1.0775254965
-1.8046227694 -0.24310715497 1.0775296688
-1.8047990799 -0.48679617047 0.65925902128
-1.8072016239 -0.24920552969 0.25718453526
-1.8079462051 0.24667973816 0.25814804435
-1.8678549528 -5.374882312e-05 0.65939450264
1.6841669083 -0.013803519309 -0.20843231678
1.471015811 0.49357306957 -0.44882038236
1.5392420292 0.1893568933 -0.44900360703
1.1094744205 -0.80988895893 -1.1555273533
0.77942639589 -1.1476210356 -1.2155679464
0.76085567474 -0.94024544954 -1.5630607605
1.08344841 0.83032137156 -1.1894344091
0.76693695784 0.91303771734 -1.5930575132
0.76820522547 1.1531261206 -1.220539093
0.36030176282 -1.2969324589 -1.4064173698
0.35002991557 -0.98640412092 -1.8155562878
0.35748049617 -0.5805337429 -2.0752885342
0.74169510603 -0.74731040001 -1.757922411
0.78812968731 -0.47079133987 -1.8828274012
0.74591451883 -0.20619519055 -1.9809567928
0.74694132805 -0.003437731415 -2.0002427101
0.34481787682 -0.11684115976 -2.1957275867
0.35619324446 0.35609677434 -2.1519534588
0.75882679224 0.4807382226 -1.8998539448
0.35965296626 0.79472219944 -1.9586925507
0.35689714551 1.1481364965 -1.6370816231
0.34345179796 1.381767869 -1.2160389423
-0.13029177487 -1.4215507507 -1.3202248812
-0.12036176771 -1.1509342194 -1.7516764402
-0.119041875 -0.77644765377 -2.0616252422
-0.12030744553 -0.32625132799 -2.2371623516
-0.12011497468 0.15509031713 -2.264282465
-0.1195230484 0.60451447964 -2.1464941502
-0.11927118152 0.92376083136 -1.9592037201
-0.11943218857 1.2549949884 -1.6181157827
-0.11915589869 1.472856164 -1.1809419394
-0.59656518698 -1.4179502726 -1.0303667784
-0.59503865242 -1.2736325264 -1.4471297264
-0.59138131142 -0.97932320833 -1.8199501038
-0.57609623671 -0.58050101995 -2.0816922188
-0.59208387136 -0.12431660295 -2.1919662952
-0.59524047375 0.35472556949 -2.1522388458
-0.59897267818 0.79389148951 -1.9593782425
-0.59825944901 1.1480909586 -1.6361446381
-0.58443629742 1.3865373135 -1.2057282925
-1.0157517195 -1.16431427 -1.1873713732
-1.028121829 -0.88475197554 -1.6009277105
-1.0214641094 -0.47500100732 -1.8852517605
-1.0115101337 0.0062222313136 -1.9861414433
-1.021586895 0.47158411145 -1.8863085508
-1.0268647671 0.87160027027 -1.6159949303
-1.0182467699 1.1556807756 -1.2009941339
-1.3711274862 -0.81105709076 -1.1107201576
-1.3554381132 -0.50156515837 -1.4967088699
-1.3642493486 -0.038755111396 -1.6359231472
-1.3563542366 0.44060847163 -1.5330827236
-1.3713635206 0.7778044939 -1.1758464575
-1.5808898211 -0.24614581466 -1.1420600414
-1.5821249485 0.2418705523 -1.1405016184
1.1370265484 -0.48592370749 -1.4710552692
0.99835127592 -0.46471980214 -1.6794395447
1.1392014027 -0.066535934806 -1.6080912352
0.99404668808 -0.20114973187 -1.7713867426
1.0081242323 0.019528668374 -1.7769594193
0.79419463873 0.21441416442 -1.9499315023
0.99663168192 0.20966392756 -1.7643398046
1.291087985 0.54190993309 -0.94868654013
1.443779707 0.31158718467 -0.63171297312
1.3840508461 0.30749884248 -0.8936060071
1.0007654428 0.45844438672 -1.680382967
0.78882992268 0.71673113108 -1.7431912422
1.0038710833 0.62001413107 -1.5790274143
1.4877307415 -0.030536524951 -0.59181976318
0.93374598026 -0.72580701113 -1.5815938711
1.430763483 0.15698504448 -0.75783669949
1.4115482569 -0.2919805944 -0.75095427036
1.2851107121 -0.26967763901 -1.2885479927
1.2768191099 -0.46718132496 -1.1704666615
1.3586518764 -0.28621056676 -0.97968226671
1.3691110611 -0.040638066828 -1.0895123482
1.4136813879 -0.034582987428 -0.83367413282
1.3767123222 0.17168089747 -1.0253536701
1.2068431377 0.68575847149 -1.0782556534
1.159704566 0.65949177742 -1.267572999
1.2518153191 0.5053371191 -1.1944990158
1.12855196 0.56722593307 -1.4263033867
1.1513278484 0.40608227253 -1.485163331
1.2807774544 0.16813470423 -1.3415262699
1.1201902628 0.27315676212 -1.5997409821
1.277294755 -0.021991565824 -1.3725370169
1.1600165367 0.10290113837 -1.5709197521
1.0968943834 0.11409206688 -1.6641999483
1.3238121271 0.42671245337 -0.98403447866
1.0917919874 0.68706291914 -1.3701015711
1.2975714207 0.3242431283 -1.2321460247

CELLS 546 2184
3 0 1 2
3 3 2 1
3 3 4 2
3 2 4 5
3 5 4 6
3 7 6 4
3 7 8 6
3 6 8 9
3 8 10 9
3 9 10 11
3 10 12 11
3 11 12 13
3 12 14 13
3 13 14 15
3 15 14 16
3 17 16 14
3 17 18 16
3 16 18 19
3 19 18 20
3 21 20 18
3 22 20 23
3 21 23 20
3 23 24 22
3 22 24 25
3 25 24 26
3 27 26 24
3 26 27 28
3 29 28 27
3 29 30 28
3 28 30 31
3 31 30 32
3 33 32 30
3 33 34 32
3 32 34 35
3 34 36 35
3 35 36 37
3 36 38 37
3 37 38 39
3 39 38 40
3 41 42 43
3 41 43 44
3 41 44 45
3 41 45 46
3 41 46 47
3 41 47 42
3 43 42 48
3 43 48 49
3 43 49 50
3 44 43 50
3 44 50 51
3 44 51 52
3 45 44 52
3 45 52 53
3 45 53 54
3 46 45 54
3 46 54 55
3 47 56 57
3 42 47 57
3 42 57 58
3 42 58 48
3 48 58 59
3 48 59 60
3 49 48 60
3 49 60 61
3 49 61 62
3 50 49 62
3 50 62 63
3 51 50 63
3 51 63 64
3 52 51 64
3 52 64 65
3 52 65 66
3 53 52 66
3 53 66 67
3 54 53 67
3 54 67 68
3 58 57 69
3 58 69 70
3 58 70 59
3 59 70 71
3 59 71 72
3 60 59 72
3 60 72 73
3 61 60 73
3 61 73 74
3 62 61 74
3 62 74 75
3 62 75 76
3 63 62 76
3 63 76 77
3 64 63 77
3 64 77 78
3 65 64 78
3 65 78 79
3 66 65 79
3 66 79 80
3 81 67 80
3 66 80 67
3 67 81 82
3 68 67 82
3 70 69 83
3 70 83 84
3 70 84 71
3 71 84 85
3 71 85 86
3 72 71 86
3 72 86 87
3 73 72 87
3 73 87 88
3 74 73 88
3 74 88 89
3 75 74 89
3 75 89 90
3 76 75 90
3 76 90 91
3 77 76 91
3 77 91 92
3 77 92 78
3 93 78 92
3 78 93 94
3 79 78 94
3 79 94 95
3 80 79 95
3 80 95 96
3 81 80 96
3 81 96 97
3 82 81 97
3 84 83 98
3 84 98 99
3 84 99 85
3 85 99 100
3 85 100 101
3 86 85 101
3 87 86 102
3 101 102 86
3 87 102 88
3 103 88 102
3 88 103 89
3 104 89 103
3 89 104 105
3 90 89 105
3 90 105 106
3 91 90 106
3 91 106 107
3 92 91 107
3 92 107 108
3 93 92 108
3 93 108 109
3 94 93 109
3 94 109 110
3 95 94 110
3 95 110 111
3 96 95 111
3 96 111 112
3 97 96 112
3 99 98 113
3 99 113 114
3 99 114 100
3 100 114 115
3 100 115 101
3 116 101 115
3 116 117 101
3 102 101 117
3 103 102 118
3 117 118 102
3 103 118 119
3 104 103 119
3 104 119 120
3 105 104 120
3 121 106 120
3 105 120 106
3 106 121 122
3 107 106 122
3 107 122 123
3 108 107 123
3 108 123 124
3 109 108 124
3 109 124 125
3 110 109 125
3 111 110 126
3 125 126 110
3 127 112 126
3 111 126 112
3 114 113 128
3 114 128 129
3 114 129 115
3 115 129 130
3 115 130 131
3 116 115 131
3 116 131 132
3 116 132 117
3 133 117 132
3 118 117 134
3 133 134 117
3 119 118 135
3 134 135 118
3 120 119 135
3 120 135 136
3 121 120 136
3 121 136 137
3 122 121 137
3 122 137 138
3 123 122 138
3 123 138 139
3 124 123 139
3 124 139 140
3 125 124 140
3 125 140 141
3 126 125 141
3 126 141 142
3 127 126 142
3 127 142 143
3 130 128 144
3 129 128 130
3 131 130 145
3 131 145 146
3 132 131 146
3 132 146 147
3 133 132 147
3 133 147 148
3 134 133 148
3 134 148 149
3 135 134 149
3 135 149 150
3 136 135 150
3 136 150 151
3 137 136 151
3 137 151 152
3 138 137 152
3 139 138 153
3 152 153 138
3 140 139 153
3 140 153 154
3 141 140 154
3 141 154 155
3 142 141 155
3 142 155 156
3 143 142 156
3 145 144 157
3 130 144 145
3 146 145 158
3 146 158 159
3 147 146 159
3 147 159 160
3 148 147 160
3 148 160 161
3 149 148 161
3 149 161 162
3 150 149 162
3 151 150 162
3 151 162 163
3 152 151 163
3 152 163 164
3 153 152 164
3 153 164 165
3 154 153 165
3 154 165 166
3 155 154 166
3 156 155 167
3 166 167 155
3 158 157 168
3 145 157 158
3 159 158 169
3 159 169 170
3 160 159 170
3 160 170 171
3 161 160 171
3 162 161 171
3 162 171 172
3 163 162 172
3 163 172 173
3 164 163 173
3 164 173 174
3 165 164 174
3 166 165 174
3 166 174 175
3 167 166 175
3 167 175 176
3 169 168 177
3 158 168 169
3 170 169 178
3 170 178 179
3 171 170 179
3 172 171 179
3 172 179 180
3 173 172 180
3 174 173 180
3 174 180 181
3 175 174 181
3 176 175 181
3 176 181 182
3 178 177 183
3 169 177 178
3 179 178 184
3 180 179 184
3 181 180 184
3 182 181 184
3 183 182 184
3 178 183 184
3 183 177 23
3 183 23 21
3 183 21 182
3 182 21 18
3 182 18 176
3 176 18 17
3 176 17 167
3 167 17 14
3 167 14 156
3 156 14 12
3 156 12 143
3 143 12 10
3 143 10 127
3 127 10 8
3 127 8 112
3 112 8 97
3 97 8 7
3 97 7 82
3 82 7 4
3 82 4 68
3 68 4 3
3 68 3 54
3 55 54 3
3 55 3 1
3 55 1 185
3 55 185 46
3 46 185 47
3 47 185 56
3 186 56 187
3 56 186 38
3 56 38 57
3 57 38 69
3 69 38 36
3 69 36 83
3 83 36 34
3 83 34 98
3 113 98 33
3 34 33 98
3 113 33 128
3 128 33 30
3 128 30 144
3 144 30 29
3 144 29 157
3 157 29 27
3 157 27 168
3 168 27 24
3 168 24 177
3 177 24 23
3 188 189 190
3 191 192 193
3 190 189 194
3 190 194 195
3 195 196 197
3 198 196 199
3 200 201 202
3 203 202 204
3 192 204 205
3 193 192 205
3 193 205 206
3 194 207 208
3 195 194 208
3 195 208 209
3 196 195 209
3 196 209 210
3 201 196 210
3 201 210 211
3 202 201 211
3 202 211 212
3 204 202 212
3 204 212 213
3 205 204 213
3 205 213 214
3 206 205 214
3 206 214 215
3 207 216 217
3 208 207 217
3 208 217 218
3 209 208 218
3 209 218 219
3 210 209 219
3 210 219 220
3 211 210 220
3 211 220 221
3 212 211 221
3 212 221 222
3 213 212 222
3 213 222 223
3 214 213 223
3 214 223 224
3 215 214 224
3 217 216 225
3 217 225 226
3 218 217 226
3 218 226 227
3 219 218 227
3 220 219 227
3 220 227 228
3 221 220 228
3 221 228 229
3 222 221 229
3 222 229 230
3 223 222 230
3 223 230 231
3 224 223 231
3 226 225 232
3 226 232 233
3 227 226 233
3 227 233 234
3 228 227 234
3 229 228 234
3 229 234 235
3 230 229 235
3 230 235 236
3 231 230 236
3 233 232 237
3 234 233 237
3 234 237 238
3 235 234 238
3 236 235 238
3 236 238 22
3 236 22 25
3 236 25 26
3 236 26 231
3 231 26 28
3 231 28 224
3 224 28 31
3 224 31 215
3 215 31 32
3 215 32 206
3 206 32 35
3 206 35 193
3 193 35 37
3 193 37 191
3 39 191 37
3 188 0 2
3 188 2 5
3 188 5 189
3 189 5 6
3 189 6 194
3 194 6 9
3 194 9 207
3 207 9 11
3 207 11 216
3 216 11 13
3 216 13 225
3 225 13 15
3 225 15 232
3 232 15 16
3 232 16 19
3 232 19 237
3 237 19 20
3 237 20 238
3 238 20 22
3 239 240 241
3 241 242 243
3 243 242 200
3 242 198 199
3 199 200 242
3 243 244 245
3 243 200 244
3 245 244 203
3 200 199 201
3 201 199 196
3 203 244 202
3 244 200 202
3 186 40 38
3 39 40 246
3 40 247 248
3 40 186 247
3 249 250 251
3 249 203 250
3 251 250 192
3 192 250 204
3 250 203 204
3 203 249 245
3 1 252 185
3 190 253 188
3 188 253 239
3 239 253 240
3 253 197 240
3 253 190 197
3 240 197 198
3 198 197 196
3 197 190 195
3 242 241 240
3 242 240 198
3 252 254 187
3 247 187 254
3 252 187 185
3 185 187 56
3 187 247 186
3 247 254 248
3 0 255 1
3 1 255 252
3 241 256 239
3 239 256 257
3 256 258 257
3 256 259 258
3 257 258 0
3 239 257 188
3 257 0 188
3 259 260 258
3 260 255 258
3 260 252 255
3 258 255 0
3 252 260 254
3 254 260 261
3 246 262 39
3 39 262 191
3 191 262 263
3 262 264 263
3 262 246 264
3 263 264 265
3 266 267 268
3 267 269 270
3 267 259 269
3 270 269 241
3 245 271 243
3 270 241 271
3 243 271 241
3 271 268 270
3 271 245 268
3 270 268 267
3 248 272 40
3 40 272 246
3 249 251 266
3 265 266 251
3 266 265 264
3 265 273 263
3 265 251 273
3 263 273 191
3 191 273 192
3 273 251 192
3 246 272 264
3 272 274 264
3 274 272 261
3 264 274 266
3 266 274 267
3 274 261 267
3 248 261 272
3 267 261 259
3 266 268 249
3 249 268 245
3 259 261 260
3 254 261 248
3 241 269 256
3 256 269 259

CELL_TYPES 546
5
5
5
5
5
5
5
5
5
5
5
5
5
5
5
5
5
5
5
5
5
5
5
5
5
5
5
5
5
5
5
5
5
5
5
5
5
5
5
5
5
5
5
5
5
5
5
5
5
5
5
5
5
5
5
5
5
5
5
5
5
5
5
5
5
5
5
5
5
5
5
5
5
5
5
5
5
5
5
5
5
5
5
5
5
5
5
5
5
5
5
5
5
5
5
5
5
5
5
5
5
5
5
5
5
5
5
5
5
5
5
5
5
5
5
5
5
5
5
5
5
5
5
5
5
5
5
5
5
5
5
5
5
5
5
5
5
5
5
5
5
5
5
5
5
5
5
5
5
5
5
5
5
5
5
5
5
5
5
5
5
5
5
5
5
5
5
5
5
5
5
5
5
5
5
5
5
5
5
5
5
5
5
5
5
5
5
5
5
5
5
5
5
5
5
5
5
5
5
5
5
5
5
5
5
5
5
5
5
5
5
5
5
5
5
5
5
5
5
5
5
5
5
5
5
5
5
5
5
5
5
5
5
5
5
5
5
5
5
5
5
5
5
5
5
5
5
5
5
5
5
5
5
5
5
5
5
5
5
5
5
5
5
5
5
5
5
5
5
5
5
5
5
5
5
5
5
5
5
5
5
5
5
5
5
5
5
5
5
5
5
5
5
5
5
5
5
5
5
5
5
5
5
5
5
5
5
5
5
5
5
5
5
5
5
5
5
5
5
5
5
5
5
5
5
5
5
5
5
5
5
5
5
5
5
5
5
5
5
5
5
5
5
5
5
5
5
5
5
5
5
5
5
5
5
5
5
5
5
5
5
5
5
5
5
5
5
5
5
5
5
5
5
5
5
5
5
5
5
5
5
5
5
5
5
5
5
5
5
5
5
5
5
5
5
5
5
5
5
5
5
5
5
5
5
5
5
5
5
5
5
5
5
5
5
5
5
5
5
5
5
5
5
5
5
5
5
5
5
5
5
5
5
5
5
5
5
5
5
5
5
5
5
5
5
5
5
5
5
5
5
5
5
5
5
5
5
5
5
5
5
5
5
5
5
5
5
5
5
5
5
5
5
5
5
5
5
5
5
5
5
5
5
5
5
5
5
5
5
5
5
5
5
5
5
5
5
5
5
5
5
5
5
5
5
5
5
5
5
5
5
5
5
5
5
5
5
5
5
5
5
5
5
5
5
5
5
5
5
5
5
5
5
5
5
5
5
5
5
5
5
5
5
5
5
5

CELL_DATA 546
SCALARS cell_data_0 double
LOOKUP_TABLE default
2.26431418725e-07
3.35445284062e-08
1.63191672572e-08
3.72863964195e-08
2.77364490162e-08
6.07844816836e-08
2.73096828392e-08
6.66552951275e-08
3.25047049854e-08
6.14197212061e-08
1.31003737292e-08
6.63682975553e-08
1.03029352457e-08
9.32190125439e-08
1.573042405e-08
2.50062067956e-08
7.67388766271e-09
6.88786664484e-08
3.28637647912e-08
3.03040236778e-08
5.60222872166e-08
3.98986886957e-08
3.71064176961e-08
3.32611385428e-08
1.90690184539e-08
4.99620221706e-09
2.63548249403e-08
1.79310743653e-09
6.35776053187e-08
2.85814539211e-08
3.22598995113e-08
3.02134163233e-08
8.52289820696e-08
3.99794208612e-08
6.20755678255e-08
6.80114330387e-08
8.1751294343e-09
1.14239609121e-08
1.42292063355e-07
2.40142504707e-10
1.43173259389e-10
3.35494587382e-10
4.2906102035e-10
4.15800439183e-11
1.09144067221e-10
4.84729725468e-10
4.7619416795e-10
2.45704245214e-10
5.92063695075e-10
1.7906361754e-10
5.48928588416e-10
9.24587591837e-10
7.91563415252e-11
8.57482651988e-10
1.15730958574e-10
5.5791906896e-10
1.07032285212e-09
7.39105047931e-10
8.30916542516e-10
1.4515867968e-11
1.21540106981e-10
1.29511661162e-10
1.76742454704e-10
1.5468442785e-10
5.63345056377e-10
1.59195665401e-10
2.96658496867e-11
2.75198744108e-10
6.00571567799e-11
3.99453971559e-10
2.91254877641e-10
2.05283919458e-10
8.69354995983e-10
1.74822614931e-10
1.120677256e-09
1.51830674424e-09
2.37631991893e-10
7.6442753654e-10
7.957960189e-10
1.21958203945e-10
3.36178923074e-10
6.92350153296e-11
4.55920869228e-10
9.81425408032e-11
2.9353832209e-10
1.80282860745e-10
3.7612125465e-10
1.50658689208e-10
7.5663319219e-11
4.62793469475e-10
3.60506345988e-10
3.12913467995e-10
7.91779042367e-10
4.08867202975e-11
1.05740275797e-10
1.98536304696e-10
9.44884912538e-10
2.76328791878e-10
1.48524607582e-09
1.91009481842e-09
5.4233548947e-10
8.42903725832e-11
5.48329335396e-10
2.03373563474e-11
2.10987360947e-10
5.85717936972e-10
3.28737004389e-10
2.01471275441e-10
1.16603881482e-10
4.13601111865e-10
4.08748304245e-10
1.6112336498e-10
4.83752284727e-10
3.34981305778e-10
2.54598148427e-10
5.00946138085e-10
6.46279178684e-11
3.85357278218e-11
1.77199250551e-10
3.0730707296e-10
4.52084809746e-10
1.2568225337e-10
4.30582432417e-10
4.21484306728e-10
1.77636746437e-09
7.33694144413e-10
1.79762827599e-09
2.28657165399e-09
1.14437839706e-09
1.33409859e-09
3.10625946628e-10
3.73436357221e-10
3.98434793912e-11
2.19826482261e-11
3.11730351366e-10
4.03830250287e-10
1.13959828934e-10
2.39740383945e-10
1.33886569165e-10
3.65561027365e-10
5.09277773484e-10
8.19149699407e-10
3.12902025876e-10
4.85338226869e-10
2.60803912346e-10
3.26415763089e-10
1.51552108078e-10
1.20195355213e-11
1.60241003636e-10
1.71127545094e-10
2.21579439585e-10
3.72254851319e-10
7.32993964176e-10
1.22597710639e-09
1.05119383398e-09
2.99732920882e-09
2.59748902798e-10
1.52443344237e-09
2.834765959e-11
1.07670213103e-09
9.95410382633e-10
3.23840501453e-10
1.70329867132e-11
1.55448508565e-10
2.99373964205e-10
2.07588236539e-10
6.26707224375e-11
2.6177820244e-10
3.00030772466e-10
3.32081344329e-10
8.81859837758e-11
4.20339096104e-10
2.062897796e-10
6.31433920336e-11
3.85028534398e-10
6.87243331192e-11
5.25841663725e-10
6.00424307959e-11
8.12718530973e-10
2.35197937695e-09
2.20932540354e-09
1.71552091674e-09
6.60000614288e-10
5.30975967385e-09
3.13128621547e-11
2.08731934721e-09
3.83807622226e-09
3.23839330484e-10
1.13020750081e-09
7.06984182132e-11
6.9634986837e-10
4.58284594162e-10
1.67152293829e-10
2.57376795388e-10
5.32282885925e-11
3.87020442151e-11
2.18457954623e-10
2.73849075652e-10
4.46672085926e-10
1.71928751448e-10
4.16423687609e-10
1.43093215973e-10
1.35956521164e-10
4.12965303761e-11
1.89509049471e-10
1.72816819107e-10
3.17386290969e-10
2.42328237721e-10
8.22839831999e-11
2.6605341701e-09
1.17366685496e-09
3.59152797197e-09
4.34856103548e-09
1.86777279978e-10
4.23568750067e-09
6.33668034576e-10
1.23116833888e-09
1.12697942008e-10
3.17699926783e-10
3.63975294035e-11
3.60707716222e-10
8.31900784339e-11
4.61211825869e-10
1.38405134921e-10
2.36870098343e-10
1.18098801026e-10
1.14207078544e-10
1.10758110962e-10
5.21700637487e-10
3.35246665513e-10
4.466349145e-10
1.54872900811e-10
4.93091665227e-10
1.54360214991e-12
1.39603383224e-09
1.95191174474e-10
3.22350588396e-09
6.57146145164e-10
6.27926097105e-09
2.55407965533e-10
3.47560573788e-09
8.38070236751e-10
1.03464231707e-09
2.08576693468e-10
3.4376658067e-10
1.84271491636e-11
3.42186531183e-10
1.87625030791e-10
1.2989185851e-10
6.95829241635e-11
2.68400731876e-10
5.44855045805e-11
2.46930787931e-10
1.65553370352e-10
5.87183342564e-11
4.99669628979e-10
4.25990477383e-10
1.19980571226e-09
4.01348319511e-09
2.39962898829e-09
7.31565190177e-09
9.77849344689e-10
4.71672675665e-09
9.94625677327e-10
1.3590059642e-09
1.23980998187e-10
3.80678300501e-10
1.12595164721e-10
1.1766352203e-09
5.23895934196e-10
7.26803453699e-10
6.40460304673e-10
1.08745084028e-09
1.79533061986e-09
5.05596597035e-10
3.09230587216e-09
2.02956278738e-10
5.78523713975e-09
1.09724673211e-08
1.96654814975e-09
4.88997025888e-09
1.05033084387e-09
1.35068422587e-09
4.71445854114e-10
3.00947601674e-09
1.42254454045e-09
1.11555807294e-09
1.08133824723e-09
2.7443865837e-09
8.14240007759e-09
5.49189325978e-09
1.2318444969e-08
2.72626954851e-09
4.2783197794e-09
1.87842093258e-09
2.20769936238e-09
8.74073523291e-09
4.57909860244e-09
2.99081891404e-09
1.24322036669e-08
4.03845844179e-08
6.78857658481e-09
4.4119670477e-08
2.0314102408e-08
3.28753017204e-08
2.93036345767e-08
5.14137351201e-08
1.87398730577e-08
6.81037032812e-08
6.07752768357e-09
2.52463852274e-08
3.1217879495e-08
3.73394971468e-08
2.93835798725e-08
2.27038781228e-08
2.36364937307e-08
1.62294332591e-08
3.73307249613e-09
7.27362955252e-09
5.55966231109e-09
6.60050388446e-10
3.64996453321e-09
1.94486729566e-08
1.43433398152e-08
1.48533558248e-09
1.53863179957e-09
1.21409114262e-09
5.24171756405e-09
1.1176840928e-08
7.29089909487e-09
6.43430111517e-09
3.12173766207e-09
2.96068388078e-09
2.95890478019e-09
2.57924982715e-09
2.24657513581e-08
3.04123737795e-08
6.55683948351e-09
1.97409616142e-08
4.07754028492e-09
3.39811115527e-08
1.72031414955e-09
3.06699793377e-08
2.76313183447e-09
3.23847927232e-08
7.32976211889e-09
4.21855406185e-08
1.93780508527e-07
1.37456461676e-07
3.65473188658e-08
1.48660546209e-07
1.0624733268e-08
1.62616110685e-07
3.93327685096e-07
2.91386569426e-07
1.25156564461e-07
1.2674402524e-07
4.97097822423e-08
2.75579286232e-08
1.1968153052e-08
4.4745497539e-08
7.79234273737e-09
7.65546750541e-08
2.82414523927e-08
8.97741727107e-08
5.33824253186e-08
8.72736720224e-08
7.51139174142e-08
4.8044384972e-08
5.83720115853e-08
3.50802238274e-08
3.72266355432e-08
1.07413045438e-08
1.41250981484e-08
3.50724683145e-10
1.33251265097e-08
9.05519958194e-10
1.98920534325e-08
5.30368821917e-09
2.42261167384e-08
1.36637845521e-08
2.47757850582e-08
1.69545279807e-08
1.62172679249e-08
6.58054424504e-09
1.13322033552e-08
1.23601139345e-08
9.15159320994e-09
4.72289235658e-09
7.22913161659e-09
1.81420572514e-09
5.7927790738e-09
1.38782526528e-10
7.41371747734e-10
3.35800115068e-09
3.81800602782e-09
9.9256457813e-10
6.59080300403e-09
3.63258338717e-10
2.66032532993e-09
2.40906342523e-09
1.26561877887e-09
2.16482581173e-09
5.12413492957e-09
6.00946750287e-09
1.39326383076e-08
2.16214917506e-09
7.25776412091e-09
4.03077732373e-09
4.21572951824e-09
1.00724665512e-08
5.32357579723e-09
1.11567850821e-08
1.22775788444e-08
8.80348160891e-09
6.30450753868e-09
6.60111049041e-09
1.71904187416e-08
1.06679377805e-09
1.99084370115e-08
1.290563131e-08
3.70683608175e-09
3.16099810651e-08
1.01419946896e-08
2.61740505632e-08
2.8207769894e-09
2.6339333826e-08
1.82712798408e-09
2.58330963214e-08
1.5074045623e-08
2.59918878743e-08
1.12292418732e-07
1.25287599154e-07
2.57043714021e-07
1.33238976682e-07
2.37063952699e-07
2.84215089265e-08
7.50917256544e-08
3.9223275084e-08
5.15379238607e-08
1.99902082733e-08
6.69199043586e-09
1.42908935497e-08
6.19672398416e-09
3.23239844135e-08
1.22678531534e-08
1.25252645758e-08
2.58722785479e-08
5.26363930428e-09
2.98098033349e-08
1.82745720934e-08
3.10143581197e-08
4.13605059071e-07
1.08196169205e-07
1.28995366978e-07
1.90885754211e-07
5.11327836567e-08
9.09024873263e-08
2.19448578504e-07
2.17733633399e-07
9.39568605115e-08
2.0817186399e-07
2.10661586193e-07
1.14617385137e-07
9.44909286147e-08
1.2937475927e-08
4.28156509896e-08
2.07411529482e-08
1.16842195529e-09
1.50733788506e-07
9.51318412341e-08
1.02535432101e-07
1.46037713998e-07
1.60697504698e-07
6.92350195503e-08
1.02712298801e-07
2.03134605578e-07
9.60980277819e-08
1.28779175877e-07
4.04018129859e-08
1.21987065056e-07
4.10368429834e-08
1.00607113146e-08
2.9086331242e-07
4.58393992848e-08
6.77736287223e-08
3.60775279178e-08
4.65125953603e-08
4.9499283685e-09
1.86154385909e-08
2.47667700512e-08
4.42697747547e-10
2.99921878627e-08
2.25347376896e-07
1.40966106957e-08
1.0309989545e-07
7.38362502353e-08
7.24329266528e-08
1.574150641e-07
9.83015065043e-08
8.66035197697e-08
8.43484487268e-08
6.97088008975e-08
7.04433622839e-08
4.81911499533e-08
3.34760306288e-08
2.17154603954e-08
9.16605876551e-09
4.51938959333e-09
1.21888273794e-09
9.96971690076e-09
1.60110843541e-08
3.29996131627e-08
5.09215234524e-08
8.54087568812e-08
3.35940048967e-09
1.63777470698e-08
3.83165609e-09
7.64504711388e-09
1.39972084124e-08
3.116859467e-08
1.00334475598e-07
6.35350686371e-08
3.45313474633e-08
8.686357622e-08
6.81366848452e-08
8.60180002045e-09
5.65661125572e-09
5.53267672231e-12
1.35417047162e-08
1.86891077209e-07
5.2433684299e-08
1.24284661557e-08
2.72306832571e-09
4.56680598176e-08
2.26287775517e-08
5.54278706493e-08
3.76783583859e-08
4.19702956858e-10
6.13501978529e-09
2.55474468998e-08
1.45125933959e-08
5.10106410402e-08
3.2773768681e-10
1.47551391462e-07
1.47428789813e-08

