# vtk DataFile Version 3.0
File Name: Molecule/methanol/methanol_12.5-0.vtk
ASCII
DATASET UNSTRUCTURED_GRID
FIELD FieldData 1
TIME 1 1 double
0.0
POINTS 614 double
1.611 0.0 -0.359
1.582 -0.31 -0.356
1.475 0.0 -0.634
1.448 -0.29 -0.632
1.403 0.0 -0.933
1.377 -0.282 -0.93
1.498 -0.608 -0.348
1.369 -0.57 -0.624
1.3 -0.554 -0.923
1.36 -0.887 -0.334
1.24 -0.83 -0.611
1.174 -0.808 -0.91
1.173 -1.135 -0.315
1.066 -1.062 -0.594
1.004 -1.034 -0.893
0.945 -1.344 -0.292
0.852 -1.258 -0.572
0.796 -1.224 -0.872
0.682 -1.508 -0.266
0.605 -1.411 -0.548
0.557 -1.374 -0.849
0.393 -1.62 -0.238
0.335 -1.517 -0.521
0.294 -1.476 -0.822
0.089 -1.677 -0.207
0.051 -1.57 -0.493
0.017 -1.528 -0.795
-0.22 -1.677 -0.176
-0.239 -1.57 -0.464
-0.265 -1.528 -0.767
-0.524 -1.62 -0.146
-0.523 -1.517 -0.435
-0.542 -1.476 -0.739
-0.813 -1.508 -0.117
-0.793 -1.411 -0.408
-0.805 -1.374 -0.713
-1.075 -1.344 -0.091
-1.039 -1.258 -0.384
-1.044 -1.224 -0.689
-1.304 -1.135 -0.069
-1.253 -1.062 -0.363
-1.252 -1.034 -0.668
-1.49 -0.887 -0.05
-1.428 -0.83 -0.345
-1.422 -0.808 -0.651
-1.628 -0.608 -0.036
-1.557 -0.57 -0.332
-1.548 -0.554 -0.639
-1.713 -0.31 -0.028
-1.636 -0.29 -0.324
-1.625 -0.282 -0.631
-1.742 0.0 -0.025
-1.663 0.0 -0.322
-1.651 0.0 -0.629
-1.713 0.31 -0.028
-1.636 0.29 -0.324
-1.625 0.282 -0.631
-1.628 0.608 -0.036
-1.557 0.57 -0.332
-1.548 0.554 -0.639
-1.49 0.887 -0.05
-1.428 0.83 -0.345
-1.422 0.808 -0.651
-1.304 1.135 -0.069
-1.253 1.062 -0.363
-1.252 1.034 -0.668
-1.075 1.344 -0.091
-1.039 1.258 -0.384
-1.044 1.224 -0.689
-0.813 1.508 -0.117
-0.793 1.411 -0.408
-0.805 1.374 -0.713
-0.524 1.62 -0.146
-0.523 1.517 -0.435
-0.542 1.476 -0.739
-0.22 1.677 -0.176
-0.239 1.57 -0.464
-0.265 1.528 -0.767
0.089 1.677 -0.207
0.051 1.57 -0.493
0.017 1.528 -0.795
0.393 1.62 -0.238
0.335 1.517 -0.521
0.294 1.476 -0.822
0.682 1.508 -0.266
0.605 1.411 -0.548
0.557 1.374 -0.849
0.945 1.344 -0.292
0.852 1.258 -0.572
0.796 1.224 -0.872
1.173 1.135 -0.315
1.066 1.062 -0.594
1.004 1.034 -0.893
1.36 0.887 -0.334
1.24 0.83 -0.611
1.174 0.808 -0.91
1.498 0.608 -0.348
1.369 0.57 -0.624
1.3 0.554 -0.923
1.582 0.31 -0.356
1.448 0.29 -0.632
1.377 0.282 -0.93
1.907 0.0 0.656
1.883 0.295 0.656
1.883 0.148 0.911
1.883 -0.148 0.911
1.883 -0.295 0.656
1.883 -0.148 0.4
1.883 0.148 0.4
1.814 0.505 0.947
1.814 0.292 1.161
1.814 -0.0 1.239
1.814 -0.292 1.161
1.814 -0.505 0.947
1.814 -0.583 0.656
1.814 -0.505 0.364
1.814 -0.292 0.15
1.814 -0.0 0.072
1.814 0.292 0.15
1.814 0.505 0.364
1.814 0.583 0.656
1.701 0.805 0.949
1.701 0.656 1.206
1.701 0.428 1.398
1.701 0.149 1.499
1.701 -0.149 1.499
1.701 -0.428 1.398
1.701 -0.656 1.206
1.701 -0.805 0.949
1.701 -0.857 0.656
1.701 -0.805 0.363
1.701 -0.656 0.105
1.701 -0.428 -0.087
1.701 -0.149 -0.188
1.701 0.149 -0.188
1.701 0.428 -0.087
1.701 0.656 0.105
1.701 0.805 0.363
1.701 0.857 0.656
1.546 1.072 0.943
1.546 0.961 1.21
1.546 0.784 1.44
1.546 0.555 1.616
1.546 0.287 1.727
1.546 0.0 1.765
1.546 -0.287 1.727
1.546 -0.555 1.616
1.546 -0.784 1.44
1.546 -0.961 1.21
1.546 -1.072 0.943
1.546 -1.109 0.656
1.546 -1.072 0.368
1.546 -0.961 0.101
1.546 -0.784 -0.129
1.546 0.784 -0.129
1.546 0.961 0.101
1.546 1.072 0.368
1.546 1.109 0.656
1.354 1.301 0.953
1.354 1.202 1.235
1.354 1.043 1.488
1.354 0.832 1.699
1.354 0.579 1.858
1.354 0.297 1.957
1.354 0.0 1.99
1.354 -0.297 1.957
1.354 -0.579 1.858
1.354 -0.832 1.699
1.354 -1.043 1.488
1.354 -1.202 1.235
1.354 -1.301 0.953
1.354 -1.335 0.656
1.354 -1.301 0.359
1.354 -1.202 0.077
1.354 -1.043 -0.177
1.354 1.043 -0.177
1.354 1.202 0.077
1.354 1.301 0.359
1.354 1.335 0.656
1.128 1.499 0.945
1.128 1.418 1.223
1.128 1.285 1.481
1.128 1.105 1.709
1.128 0.886 1.899
1.128 0.634 2.045
1.128 0.36 2.14
1.128 0.073 2.181
1.128 -0.217 2.167
1.128 -0.499 2.099
1.128 -0.764 1.978
1.128 -1.0 1.81
1.128 -1.2 1.6
1.128 -1.357 1.355
1.128 -1.465 1.086
1.128 -1.52 0.801
1.128 -1.52 0.51
1.128 -1.465 0.225
1.128 -1.357 -0.044
1.128 1.285 -0.17
1.128 1.418 0.088
1.128 1.499 0.367
1.128 1.527 0.656
0.876 1.656 0.948
0.876 1.58 1.231
0.876 1.456 1.496
0.876 1.288 1.737
0.876 1.081 1.944
0.876 0.841 2.112
0.876 0.575 2.236
0.876 0.292 2.312
0.876 0.0 2.337
0.876 -0.292 2.312
0.876 -0.575 2.236
0.876 -0.841 2.112
0.876 -1.081 1.944
0.876 -1.288 1.737
0.876 -1.456 1.496
0.876 -1.58 1.231
0.876 -1.656 0.948
0.876 -1.682 0.656
0.876 -1.656 0.364
0.876 -1.58 0.08
0.876 1.58 0.08
0.876 1.656 0.364
0.876 1.682 0.656
0.602 1.771 0.951
0.602 1.698 1.238
0.602 1.579 1.51
0.602 1.417 1.758
0.602 1.216 1.976
0.602 0.982 2.158
0.602 0.721 2.3
0.602 0.441 2.396
0.602 0.148 2.445
0.602 -0.148 2.445
0.602 -0.441 2.396
0.602 -0.721 2.3
0.602 -0.982 2.158
0.602 -1.216 1.976
0.602 -1.417 1.758
0.602 -1.579 1.51
0.602 -1.698 1.238
0.602 -1.771 0.951
0.602 -1.795 0.656
0.602 -1.771 0.36
0.602 -1.698 0.073
0.602 1.698 0.073
0.602 1.771 0.36
0.602 1.795 0.656
0.314 1.841 0.947
0.314 1.773 1.232
0.314 1.661 1.502
0.314 1.508 1.751
0.314 1.318 1.974
0.314 1.096 2.164
0.314 0.846 2.317
0.314 0.576 2.429
0.314 0.292 2.497
0.314 -0.0 2.52
0.314 -0.292 2.497
0.314 -0.576 2.429
0.314 -0.846 2.317
0.314 -1.096 2.164
0.314 -1.318 1.974
0.314 -1.508 1.751
0.314 -1.661 1.502
0.314 -1.773 1.232
0.314 -1.841 0.947
0.314 -1.864 0.656
0.314 -1.841 0.364
0.314 -1.773 0.08
0.314 1.773 0.08
0.314 1.841 0.364
0.314 1.864 0.656
0.019 1.865 0.944
0.019 1.8 1.225
0.019 1.692 1.493
0.019 1.544 1.742
0.019 1.36 1.964
0.019 1.144 2.157
0.019 0.902 2.314
0.019 0.638 2.432
0.019 0.359 2.509
0.019 0.072 2.542
0.019 -0.216 2.531
0.019 -0.5 2.476
0.019 -0.772 2.378
0.019 -1.026 2.24
0.019 -1.256 2.065
0.019 -1.456 1.857
0.019 -1.622 1.62
0.019 -1.751 1.361
0.019 -1.838 1.086
0.019 -1.882 0.8
0.019 -1.882 0.511
0.019 -1.838 0.226
0.019 -1.751 -0.05
0.019 1.8 0.086
0.019 1.865 0.367
0.019 1.888 0.656
-0.276 1.864 0.656
-0.276 1.841 0.947
-0.276 1.773 1.232
-0.276 1.661 1.502
-0.276 1.508 1.751
-0.276 1.318 1.974
-0.276 1.096 2.164
-0.276 0.846 2.317
-0.276 0.576 2.429
-0.276 0.292 2.497
-0.276 -0.0 2.52
-0.276 -0.292 2.497
-0.276 -0.576 2.429
-0.276 -0.846 2.317
-0.276 -1.096 2.164
-0.276 -1.318 1.974
-0.276 -1.508 1.751
-0.276 -1.661 1.502
-0.276 -1.773 1.232
-0.276 -1.841 0.947
-0.276 -1.864 0.656
-0.276 -1.841 0.364
-0.276 -1.773 0.08
-0.276 1.773 0.08
-0.276 1.841 0.364
-0.564 1.795 0.656
-0.564 1.771 0.951
-0.564 1.698 1.238
-0.564 1.579 1.51
-0.564 1.417 1.758
-0.564 1.216 1.976
-0.564 0.982 2.158
-0.564 0.721 2.3
-0.564 0.441 2.396
-0.564 0.148 2.445
-0.564 -0.148 2.445
-0.564 -0.441 2.396
-0.564 -0.721 2.3
-0.564 -0.982 2.158
-0.564 -1.216 1.976
-0.564 -1.417 1.758
-0.564 -1.579 1.51
-0.564 -1.698 1.238
-0.564 -1.771 0.951
-0.564 -1.795 0.656
-0.564 -1.771 0.36
-0.564 -1.698 0.073
-0.564 1.698 0.073
-0.564 1.771 0.36
-0.838 1.682 0.656
-0.838 1.656 0.948
-0.838 1.58 1.231
-0.838 1.456 1.496
-0.838 1.288 1.737
-0.838 1.081 1.944
-0.838 0.841 2.112
-0.838 0.575 2.236
-0.838 0.292 2.312
-0.838 0.0 2.337
-0.838 -0.292 2.312
-0.838 -0.575 2.236
-0.838 -0.841 2.112
-0.838 -1.081 1.944
-0.838 -1.288 1.737
-0.838 -1.456 1.496
-0.838 -1.58 1.231
-0.838 -1.656 0.948
-0.838 -1.682 0.656
-0.838 -1.656 0.364
-0.838 -1.58 0.08
-0.838 1.58 0.08
-0.838 1.656 0.364
-1.09 1.527 0.656
-1.09 1.499 0.945
-1.09 1.418 1.223
-1.09 1.285 1.481
-1.09 1.105 1.709
-1.09 0.886 1.899
-1.09 0.634 2.045
-1.09 0.36 2.14
-1.09 0.073 2.181
-1.09 -0.217 2.167
-1.09 -0.499 2.099
-1.09 -0.764 1.978
-1.09 -1.0 1.81
-1.09 -1.2 1.6
-1.09 -1.357 1.355
-1.09 -1.465 1.086
-1.09 -1.52 0.801
-1.09 -1.52 0.51
-1.09 -1.465 0.225
-1.09 1.418 0.088
-1.09 1.499 0.367
-1.316 1.335 0.656
-1.316 1.301 0.953
-1.316 1.202 1.235
-1.316 1.043 1.488
-1.316 0.832 1.699
-1.316 0.579 1.858
-1.316 0.297 1.957
-1.316 0.0 1.99
-1.316 -0.297 1.957
-1.316 -0.579 1.858
-1.316 -0.832 1.699
-1.316 -1.043 1.488
-1.316 -1.202 1.235
-1.316 -1.301 0.953
-1.316 -1.335 0.656
-1.316 -1.301 0.359
-1.316 -1.202 0.077
-1.316 1.202 0.077
-1.316 1.301 0.359
-1.508 1.109 0.656
-1.508 1.072 0.943
-1.508 0.961 1.21
-1.508 0.784 1.44
-1.508 0.555 1.616
-1.508 0.287 1.727
-1.508 0.0 1.765
-1.508 -0.287 1.727
-1.508 -0.555 1.616
-1.508 -0.784 1.44
-1.508 -0.961 1.21
-1.508 -1.072 0.943
-1.508 -1.109 0.656
-1.508 -1.072 0.368
-1.508 -0.961 0.101
-1.508 0.961 0.101
-1.508 1.072 0.368
-1.663 0.857 0.656
-1.663 0.805 0.949
-1.663 0.656 1.206
-1.663 0.428 1.398
-1.663 0.149 1.499
-1.663 -0.149 1.499
-1.663 -0.428 1.398
-1.663 -0.656 1.206
-1.663 -0.805 0.949
-1.663 -0.857 0.656
-1.663 -0.805 0.363
-1.663 0.805 0.363
-1.776 0.583 0.656
-1.776 0.505 0.947
-1.776 0.292 1.161
-1.776 -0.0 1.239
-1.776 -0.292 1.161
-1.776 -0.505 0.947
-1.776 -0.583 0.656
-1.776 -0.505 0.364
-1.776 0.505 0.364
-1.845 0.295 0.656
-1.845 0.148 0.911
-1.845 -0.148 0.911
-1.845 -0.295 0.656
-1.845 -0.148 0.4
-1.776 -0.292 0.15
-1.776 0.292 0.15
-1.845 0.148 0.4
-1.868 -0.0 0.656
1.312 -0.277 -1.217
1.185 -0.487 -1.382
1.185 -0.221 -1.514
1.312 -0.0 -1.292
1.185 0.075 -1.542
1.312 0.277 -1.217
1.185 0.36 -1.461
1.185 0.597 -1.282
1.185 -0.687 -1.163
1.015 -0.87 -1.296
1.015 -0.677 -1.519
1.015 -0.43 -1.678
1.015 -0.147 -1.761
1.015 0.147 -1.761
1.015 0.43 -1.678
1.015 0.677 -1.519
1.015 0.87 -1.296
0.805 -1.151 -1.156
0.805 -1.023 -1.41
0.805 -0.841 -1.628
0.805 -0.612 -1.798
0.805 -0.351 -1.911
0.805 -0.071 -1.96
0.805 0.213 -1.944
0.805 0.485 -1.862
0.805 0.731 -1.72
0.805 0.938 -1.525
0.805 1.095 -1.287
0.565 -1.344 -1.023
0.565 -1.255 -1.296
0.565 -1.112 -1.545
0.565 -0.919 -1.758
0.565 -0.687 -1.927
0.565 -0.425 -2.044
0.565 -0.144 -2.104
0.565 0.144 -2.104
0.565 0.425 -2.044
0.565 0.687 -1.927
0.565 0.919 -1.758
0.565 1.112 -1.545
0.565 1.255 -1.296
0.805 1.192 -1.02
0.565 1.344 -1.023
0.3 -1.448 -1.025
0.3 -1.364 -1.302
0.3 -1.228 -1.557
0.3 -1.044 -1.781
0.3 -0.82 -1.965
0.3 -0.565 -2.101
0.3 -0.288 -2.185
0.3 0.0 -2.214
0.3 0.288 -2.185
0.3 0.565 -2.101
0.3 0.82 -1.965
0.3 1.044 -1.781
0.3 1.228 -1.557
0.3 1.364 -1.302
0.3 1.448 -1.025
0.022 -1.467 -1.168
0.022 -1.359 -1.438
0.022 -1.201 -1.682
0.022 -1.001 -1.892
0.022 -0.764 -2.061
0.022 -0.5 -2.182
[...]
CELL_DATA 1224
SCALARS cell_data_0 double
LOOKUP_TABLE default
1.46636958031e-08
7.45519534255e-09
1.59491919277e-07
1.15020732958e-08
2.12836002153e-08
2.58629076313e-08
1.82163837439e-07
1.27579062659e-07
1.5531994427e-08
2.82153714465e-08
1.10747915255e-07
8.20220499226e-08
4.83618238868e-09
1.34124092955e-08
4.9735902447e-08
5.49299939825e-08
2.44559121466e-09
2.60819743572e-09
1.59443775025e-08
1.98930271604e-08
5.24298933263e-09
3.97482981849e-09
4.03179228809e-09
7.46684860665e-09
5.74355110325e-09
8.18578783907e-09
4.64118810718e-10
1.30550396109e-09
4.86499027967e-09
1.02404491751e-08
5.4042645879e-10
2.12036333578e-09
4.05011613916e-09
1.15859026491e-08
1.6360333424e-09
1.68600555155e-09
2.35198217513e-09
1.21648164807e-08
3.20994456949e-09
2.95200421456e-09
1.19169315678e-09
1.26165207476e-08
4.82620637602e-09
2.95572982996e-09
8.88432106748e-10
1.2714862174e-08
5.92166982714e-09
4.14892474727e-09
8.14128379186e-10
1.26724814972e-08
7.02913794793e-09
4.06820361171e-09
1.76307265175e-09
1.25939677341e-08
7.0821822061e-09
3.9232037063e-09
2.26252093466e-09
1.23767921489e-08
8.6587281263e-09
4.02922286698e-09
4.11976890448e-09
1.19215907761e-08
9.51220166655e-09
1.57082536018e-09
4.37593777815e-09
1.22949043883e-08
1.05061973724e-08
2.64233098078e-09
5.54725265852e-09
1.10595921602e-08
1.09012429856e-08
2.73932083909e-09
5.20652316647e-09
1.10266794578e-08
1.07945340991e-08
1.07433463017e-09
7.10023817591e-09
1.01332349646e-08
1.11334395689e-08
6.55892175844e-10
6.5726650898e-09
9.44953686372e-09
1.1509824741e-08
2.13715296605e-10
7.18263724827e-09
8.41102696017e-09
1.16947317668e-08
8.89478149033e-10
8.32635378442e-09
7.08834173364e-09
1.13920251658e-08
1.78854474996e-10
9.89330972689e-09
5.10682426835e-09
1.09952798193e-08
4.46954163918e-10
1.07549887769e-08
3.5175009079e-09
1.05293878644e-08
1.05959861848e-09
1.19524675593e-08
8.00499958944e-10
1.02973965814e-08
1.91415938071e-09
1.281463957e-08
1.80611321196e-09
9.57221788631e-09
3.71823169108e-09
1.2597948479e-08
4.60295627338e-09
8.28656018817e-09
6.19207306528e-09
1.18956611954e-08
7.79160743897e-09
5.91596923272e-09
8.53133485884e-09
8.15100300695e-09
8.24334591156e-09
1.55330226006e-09
9.45200842688e-09
9.28553154831e-10
2.70007988704e-09
8.86671166774e-09
4.04757259154e-09
6.35900185071e-09
1.03721357821e-08
2.71204296608e-08
3.43099919828e-08
9.58778955221e-09
2.73877310831e-08
3.13385585333e-08
1.32361306362e-07
2.14891703079e-09
1.49115669678e-08
5.24402566317e-08
2.11585746181e-07
6.30921134006e-11
3.74960795416e-11
1.78556764866e-11
6.91972053483e-12
8.42274900662e-13
1.304697562e-11
8.72439275005e-11
1.44523388978e-10
1.5902749496e-10
1.49897810468e-10
3.12481665176e-11
4.52189198877e-11
2.75707513333e-10
1.81433483449e-10
2.65755073697e-10
3.92309560264e-11
2.01325374458e-10
1.6053814635e-11
2.61331779462e-10
2.32880291782e-10
1.0811827264e-10
1.28230907766e-10
1.67936723924e-10
1.22008469292e-10
2.57045462712e-11
1.87269150152e-10
1.69889681583e-10
6.46284180947e-12
8.07395678394e-11
2.53586413081e-10
2.02225505275e-10
1.41387302442e-11
9.581411095e-11
5.65248666863e-11
2.48049187801e-10
1.3560247631e-10
1.27342614455e-10
4.89838063397e-11
1.91094858939e-12
6.01663253552e-11
3.43760257326e-10
2.46978337538e-10
1.76979807277e-10
3.84879695737e-10
2.03266623586e-10
1.48814082872e-09
1.32146953146e-10
1.06172593209e-09
2.29028447116e-10
4.69854922791e-10
1.68174219644e-10
2.56080274356e-11
1.22999836878e-10
1.90355350184e-10
1.56672774759e-10
2.96211708687e-11
1.20818714077e-10
8.80286815841e-11
3.514751272e-11
6.90581141521e-11
1.93076002842e-11
1.47393759865e-10
6.6072940044e-11
9.98422138298e-11
1.72929726975e-10
2.49288877806e-11
4.38013484368e-11
1.13624124416e-10
1.20419943022e-10
5.48737422323e-11
2.16281045431e-10
1.21005128682e-10
1.93084459252e-10
2.66917214142e-11
1.64617649958e-10
1.63696780873e-10
2.81584975774e-10
2.62729317919e-10
2.43188768613e-10
7.36143727355e-10
2.406178269e-10
4.05424516588e-10
1.42982225923e-10
2.24281793396e-10
2.87831366872e-10
4.16316045776e-11
4.67302585257e-11
7.1926979871e-11
2.66299161269e-11
1.22226197371e-11
6.20300200895e-12
1.61479984823e-11
1.4077396202e-11
5.79736005737e-11
2.79130164929e-11
7.2473994596e-11
7.34598512179e-11
4.1889967226e-11
6.91976177262e-11
5.63846355682e-11
2.43537406168e-11
6.63177498481e-11
8.39574363737e-12
1.01561032626e-11
4.30174190278e-11
3.45169125967e-11
1.44906902672e-10
1.55332137916e-11
3.14439927356e-11
2.12151840354e-11
9.70548168603e-11
6.12638898336e-11
2.56497762164e-10
2.69424610282e-10
4.51698541096e-10
4.29242274736e-10
5.43635747978e-10
5.20438759896e-10
7.00100646122e-10
7.84243283822e-10
2.46033691473e-10
2.74764584531e-10
9.09458153937e-11
1.1790731539e-10
1.32921782594e-10
1.9515425244e-11
2.80537971563e-11
6.58485799391e-12
8.71510344288e-11
2.51117465059e-11
6.53395423871e-11
1.57974804524e-10
6.37816047386e-11
1.05083181862e-10
6.85305829975e-11
2.56653501039e-10
3.58917296867e-11
1.26149227668e-11
4.34415276435e-11
6.00942094596e-11
1.90635713197e-11
1.49684385104e-10
1.16402991844e-10
5.06219691505e-11
1.17919275649e-10
6.45624172288e-11
1.21146718702e-10
5.12752968356e-11
1.29543079369e-10
1.84760828546e-10
6.48660134385e-11
1.19831785703e-10
3.16418507158e-12
1.86564577806e-10
1.4536711091e-11
2.06945208776e-10
1.08107649809e-10
4.53347429942e-10
3.03679524342e-10
5.59606444418e-10
6.61131583248e-10
6.14848492566e-10
8.8000860481e-12
3.3310049201e-10
2.13529419811e-11
7.42190520838e-11
5.99240321969e-11
9.61751971597e-11
1.91489511334e-11
3.36468359792e-11
1.60254232223e-11
3.11728736055e-11
8.17682946685e-11
5.19413271474e-11
9.5270336957e-12
9.62274462028e-11
5.52697894665e-11
8.70067385839e-12
1.86946778657e-11
7.33459153114e-11
9.79382527097e-11
1.30308040263e-11
1.16951681994e-11
2.5584545146e-11
3.7229403228e-11
1.68844656047e-11
4.43319477824e-11
1.21261598997e-10
4.8649728073e-11
3.9461083469e-11
3.83006064207e-11
5.05773110809e-11
2.05590982087e-12
1.50477293333e-11
4.63674625936e-11
6.65511157086e-12
8.24113822162e-11
1.6690956663e-13
1.25021022324e-10
5.9879386866e-12
1.7489185806e-10
6.60388826134e-11
4.03311914593e-10
1.21898088351e-11
7.90683982095e-10
2.31379800192e-10
3.53823053357e-10
2.54026880956e-10
1.77937266536e-10
3.67027097968e-11
9.700089987e-11
1.48605113595e-10
1.14258258285e-10
9.87597205274e-12
1.11453896783e-10
2.60499531081e-11
8.64800426383e-11
2.23778917279e-10
7.30073682253e-11
2.1206161751e-10
7.52437151528e-11
6.99599949287e-11
1.36652939418e-11
4.00572584647e-11
8.23241935053e-11
2.90254315179e-11
5.17112094295e-11
4.71163024035e-11
4.26301198903e-11
1.84276641712e-11
2.33267136484e-11
9.59902983712e-12
2.52768242449e-11
5.02668248189e-13
3.73613702836e-11
2.70185918957e-11
3.55268271196e-11
4.77863757645e-11
6.5621629732e-12
8.76266325556e-12
4.7698544113e-11
4.91145899529e-11
3.81349580554e-12
9.16419807662e-11
2.32691796987e-11
1.59395766033e-10
1.03726430003e-10
7.32176810196e-10
2.42220590987e-10
1.23775794534e-09
5.55836424912e-10
2.89608839851e-10
3.88232897469e-10
6.52431017265e-11
1.44460521407e-10
4.06168170627e-11
9.81679365668e-11
2.3234510804e-11
1.05151818004e-12
1.92578921877e-11
2.86545944678e-12
2.74966403374e-11
5.6685005853e-12
1.07069636656e-10
4.24928153116e-11
1.1759488166e-10
1.46559336442e-10
4.26704486253e-10
3.03080636979e-10
2.02578482881e-10
1.74331272123e-10
2.22471339808e-11
2.46124359298e-11
2.99122974151e-11
1.39545493801e-12
3.2845526486e-11
2.46131876622e-12
8.33558118168e-11
8.36396791297e-12
2.4439408835e-11
3.04250713233e-11
4.9410730331e-11
6.32341782992e-11
5.23698175675e-11
5.94385814093e-11
3.16447186338e-11
9.28186512931e-11
3.70226611643e-11
5.55673921449e-11
3.83729691077e-11
1.14243301756e-10
3.06916397128e-11
2.32189623402e-10
7.20848241561e-11
8.25795420816e-10
1.83247966127e-10
1.48733649929e-09
1.02586917267e-09
1.9015527254e-10
6.85449446693e-10
5.16281158129e-11
1.50694411933e-10
3.40600177811e-11
1.49335161697e-10
1.03263763026e-10
1.46141432285e-10
3.25725015132e-11
1.06436945523e-10
3.05269857992e-12
2.47912308116e-11
3.31431056687e-11
7.08125215926e-12
1.96369530881e-11
1.03532288515e-11
8.02467679697e-11
1.99476932858e-11
3.35275681104e-11
8.71367219608e-12
3.59081801528e-11
1.06509522412e-11
3.66568429056e-11
5.89384110404e-11
1.69146881096e-11
3.78226512172e-11
4.11546431647e-11
6.70146554247e-12
1.18644394115e-11
7.37490364354e-11
1.62237454135e-11
1.09159681507e-11
4.42512156687e-11
2.84507578771e-11
3.67859073259e-11
7.77879375991e-12
6.82960505017e-11
4.40260361456e-11
5.40368174306e-11
3.12089347322e-11
1.04555028686e-10
9.12097892028e-11
1.3328187491e-10
2.42444409129e-10
2.06814021939e-10
4.81979698721e-10
3.27887732865e-10
8.97470424106e-10
1.25121436485e-09
2.35626499888e-11
9.06074460401e-10
8.9138667077e-11
2.70725871889e-10
5.19755860416e-10
8.50489546305e-12
3.21406463951e-10
2.95758195778e-11
8.87843494009e-11
1.18130960728e-10
1.11123804419e-10
6.38113551156e-11
7.47704655051e-11
3.01627203036e-11
1.58446485008e-11
2.01801347468e-11
2.91783035105e-11
7.70257662497e-12
1.1312835979e-11
2.14244702243e-11
1.41110845785e-11
3.58593442251e-11
1.40289401547e-11
1.41269170795e-10
3.30131742945e-11
4.55982114598e-11
1.97609969244e-12
4.65046670955e-12
4.40438412905e-11
2.02062411208e-11
4.12449533622e-12
1.91253028834e-11
6.15086484954e-12
3.00620442023e-12
3.27840185624e-11
1.37493816257e-11
2.53003978541e-12
1.6335914495e-11
1.45709162079e-11
6.80328211438e-11
5.04375069701e-11
1.42458779655e-10
2.33090191581e-11
2.8306172129e-10
8.82726699992e-11
5.34876372419e-10
1.752511821e-10
1.06072527309e-09
4.4034925282e-10
1.34718978956e-09
3.03839223479e-10
4.49468465845e-10
5.96724159884e-11
5.25482024599e-10
6.8546341261e-11
3.26953255583e-10
2.14960600091e-11
2.16159212017e-10
6.08340868398e-12
1.01852057859e-10
8.3556047315e-13
8.68784303924e-11
4.7568294769e-11
5.44246503994e-11
5.13947521889e-11
3.63475493413e-11
2.55121424319e-11
6.66984900492e-12
8.11561062772e-12
5.63537141121e-11
5.74406961429e-11
8.73782763502e-11
1.17923403336e-10
2.73424289051e-11
6.6542420448e-13
1.79596003174e-11
4.27308020689e-12
9.37404602334e-12
1.16330152397e-11
5.44062263837e-12
9.49820769334e-12
2.78713254183e-11
5.20193682671e-12
7.28461261453e-11
4.9935379168e-11
9.6962628907e-11
2.52435496989e-11
1.58084299235e-10
7.53349332272e-11
2.87722910691e-10
4.45701079114e-11
5.90060220412e-10
5.18632407149e-10
8.37782963513e-10
1.39675562322e-09
1.81482821905e-09
1.8378516266e-09
3.86897939465e-10
5.85211288578e-10
1.31569971682e-10
6.73344375326e-10
7.85272693275e-11
3.50518030995e-10
5.77332945133e-11
1.93369656588e-10
2.04919512277e-11
1.55020182729e-10
9.37722377559e-11
1.53061809024e-11
1.2096079861e-11
1.70541546164e-11
1.77072795064e-11
2.52660983589e-12
1.21964084538e-13
5.12377546662e-11
4.5915981141e-11
4.68814404023e-11
1.70952404291e-12
3.45555923846e-11
1.09716046184e-10
1.11941094717e-10
2.41025592495e-11
8.33386247137e-12
2.83983170511e-11
3.72568920989e-11
6.33388973164e-11
4.0399145062e-11
4.2570033923e-11
9.40602589273e-11
4.71499903328e-11
1.11369130171e-10
5.14246067756e-11
1.82817749422e-10
1.98401974323e-11
3.53908295849e-10
7.58867751506e-11
5.98973666893e-10
7.79548827338e-10
8.26790895036e-10
2.12476623246e-09
1.77664343495e-09
2.05169296283e-09
2.56876762704e-10
7.45160167095e-10
6.28367475359e-11
6.96007942861e-10
1.03575316056e-10
3.75927634506e-10
2.82171938531e-11
2.27272975943e-10
4.53389040776e-12
9.53412067895e-11
8.03823354046e-12
6.73037576493e-11
1.24072955329e-11
8.18892617625e-11
7.14504184977e-11
5.03868489066e-11
2.96920559774e-11
3.00536309859e-13
3.93606956652e-11
4.04730011039e-11
2.12054124891e-11
4.03095870813e-12
4.47680731223e-11
2.94059231099e-11
3.55520321038e-11
7.25317229807e-11
5.42221074315e-11
9.72202956383e-12
5.04421236502e-11
4.73293712004e-11
4.22878280607e-11
3.33424642638e-11
1.15180732429e-11
1.55771029556e-10
2.11673063416e-11
2.81148924366e-10
1.44255955228e-12
6.00261971293e-10
2.40246952112e-10
1.04370218105e-09
1.08464016839e-09
2.20232774063e-09
2.59144128841e-11
9.25577315085e-10
7.40475836367e-11
7.50511029974e-10
2.21962424306e-10
3.53744400226e-10
1.07199594195e-10
2.1824483344e-10
2.56771407586e-11
1.26707527976e-10
3.24836147047e-11
9.67384188902e-11
3.3105575787e-11
5.0585852721e-12
7.08719917935e-12
4.40784693899e-11
1.47416604115e-11
7.67834123278e-11
4.72186250956e-12
1.26777628272e-10
4.25291100317e-12
5.02905564869e-11
3.74892452154e-11
8.15585192432e-11
9.24160146505e-11
9.14288879043e-11
1.4020717945e-10
1.70257186508e-11
1.09422554615e-10
2.96426211043e-11
2.29837039622e-10
7.03238432411e-11
4.93602588769e-10
1.91585462718e-10
1.06316612901e-09
1.61051108735e-10
2.16281438747e-09
2.89500104314e-09
9.41336134253e-11
1.08765895452e-09
6.59734545665e-11
8.73580640385e-10
1.53510762836e-10
4.17901815226e-10
4.97922679377e-11
2.2106840973e-10
9.31758131233e-12
1.27649619348e-10
1.53011046815e-11
1.05915489467e-10
7.03142190439e-11
3.01025735775e-11
1.10633363495e-10
5.5801025009e-11
5.59396308984e-11
1.08225636711e-10
7.23296183656e-11
3.08396325949e-11
1.19214508645e-10
3.10469890322e-11
1.14065650375e-10
1.59693720515e-11
2.23097753991e-10
2.09867327433e-11
3.19458586498e-10
1.37488054528e-10
5.77056511356e-10
1.31618457756e-09
9.59304189312e-10
3.51840279645e-09
1.94992821853e-09
1.91151822385e-09
3.7814879563e-10
1.1806959879e-09
2.34373400285e-10
8.32289303015e-10
2.41043424929e-10
3.72627995731e-10
6.28322419763e-11
1.94723527963e-10
1.63558271152e-11
7.55544448161e-11
2.5466992563e-11
1.89711057426e-10
2.82298218917e-11
1.57370587796e-10
9.21374298211e-11
2.28430408696e-10
1.55470741375e-10
8.91512065169e-11
1.76372857109e-11
1.53267940981e-10
4.65605989896e-11
2.34818037374e-10
2.4311035064e-10
6.16244403745e-10
1.45229132059e-09
9.97336867413e-10
4.58458870567e-09
3.64368785874e-10
1.32939350375e-09
2.54915539177e-10
9.59212923176e-10
1.76280898178e-10
4.07058949623e-10
8.97609804656e-13
1.7101243092e-10
2.33397802294e-12
3.80849358983e-10
1.00131874924e-10
3.97321749389e-10
3.09196080399e-10
2.04792399803e-10
6.35481206823e-12
2.547307246e-10
2.84428352998e-10
5.89904003834e-10
1.48685507595e-09
7.35445311879e-10
1.90729918641e-09
2.80894145738e-10
1.03774248752e-09
1.22874569016e-10
3.03898765016e-10
5.02905332236e-11
7.83184037575e-10
4.1738008705e-10
2.81068539243e-10
2.19800559839e-10
5.05003956163e-10
1.64463527139e-09
4.34749789015e-10
4.03762831495e-09
8.07407536237e-11
1.36569498841e-09
3.25045178223e-10
7.38295715705e-10
3.38531904091e-10
3.45810836505e-10
9.79339173582e-10
2.13419525894e-10
2.76715142446e-10
5.14798469922e-09
6.71654419838e-09
5.14854687492e-09
2.93484406867e-09
2.14618069535e-09
1.09084995328e-08
7.84219768962e-09
7.28298502474e-09
1.17637678248e-09
3.22381439616e-09
6.51576612019e-10
1.84674091485e-09
7.12662921194e-09
2.81479686418e-10
3.31074459643e-09
1.8442330282e-09
4.15759402929e-09
2.57592414927e-09
5.46299485722e-09
6.81045869658e-10
1.4625514991e-09
3.01028523301e-09
4.75975125114e-09
4.02750278473e-09
3.2231227437e-09
4.04101852406e-09
1.24056186487e-09
2.66832150944e-09
8.80483890308e-10
1.07697907953e-09
4.44679928374e-10
3.9552719637e-10
2.94680895148e-10
5.49913606215e-10
1.76578172004e-09
1.46787938824e-09
3.35848431113e-09
1.5643867432e-11
1.05027040652e-09
5.66067795374e-11
1.3104403035e-09
5.21645056909e-11
1.20866699415e-09
2.67911677442e-10
6.46594209534e-10
8.79462155977e-10
5.83331893118e-10
6.43267868637e-10
1.56848543054e-09
1.08639518172e-09
1.484147764e-09
3.23380750451e-09
8.59038004991e-10
4.87127906535e-09
7.16107948009e-10
5.60096454423e-09
8.18981231567e-10
5.08536259982e-09
6.56506742134e-10
4.50294543556e-09
3.27000400677e-10
2.21094075596e-10
2.81968667902e-09
7.20065663866e-10
2.22587530769e-09
2.71569844712e-10
3.25278428164e-09
1.45723998398e-09
1.38360942062e-08
5.10222381171e-09
5.6403720972e-09
2.06943014469e-09
3.17116833933e-09
1.50131144272e-07
2.82455599567e-08
5.70217506254e-08
5.67682588933e-08
1.5806697837e-07
3.74849357752e-08
4.81017773298e-09
1.32099960789e-07
4.7269570912e-08
1.66041721895e-07
2.14913206991e-07
7.58365499129e-08
2.81463856983e-07
2.66401148395e-07
3.24390284957e-08
1.72650546455e-07
2.67871827338e-07
6.88518202587e-08
4.9763536785e-08
1.44259212881e-08
4.36721328613e-08
5.33966018401e-08
6.0041967825e-08
1.25523650683e-07
2.1723684939e-08
1.98461837649e-07
9.12477526127e-08
2.08977524711e-07
1.63902536001e-07
8.72644329053e-08
1.48450619482e-07
1.61425719865e-07
6.60849798479e-08
8.0999957259e-08
3.29062868404e-08
1.06975565385e-08
9.22445244056e-09
2.00355353055e-08
1.34931637172e-08
3.839689375e-08
1.59355240483e-08
6.16779287491e-08
3.76542919765e-08
5.53234187279e-09
7.17563108854e-08
2.07748217622e-08
8.9935826313e-08
5.10913895238e-08
8.89068825492e-08
6.80907697028e-08
6.22227951486e-08
5.49719777887e-08
3.64854290969e-08
3.75068722262e-08
2.05011837235e-08
2.37628642641e-08
1.00150322504e-08
1.33422601687e-08
6.07771791673e-09
2.41472457885e-09
2.11673261202e-09
4.54465093199e-09
2.98718236721e-09
7.41545792112e-09
3.63079792071e-09
1.20072116684e-08
4.51792800032e-09
2.04101675237e-08
1.95405391123e-10
2.99576405937e-08
8.86316692459e-09
3.51301886107e-08
1.78987352184e-08
3.41793610121e-08
2.33564848436e-08
2.82542641126e-08
2.28474900172e-08
2.05976686066e-08
1.92354089469e-08
1.31214114402e-08
1.37189488288e-08
7.84987613421e-09
8.98974194618e-09
4.50599723484e-09
5.60858718228e-09
2.38300661409e-09
1.33238751203e-09
3.33123426279e-09
1.11040985844e-09
4.89647494473e-09
8.415559465e-10
6.60223593956e-09
3.7419205163e-10
9.36205699275e-09
1.25011140438e-09
1.14412161719e-08
3.07385097154e-09
1.32288176049e-08
5.67433467064e-09
1.41300948315e-08
8.35202942541e-09
1.28586860523e-08
9.2838545264e-09
1.039948138e-08
8.68063878513e-09
7.50742589617e-09
7.07161762025e-09
5.0446537317e-09
5.17178719779e-09
3.19664599311e-09
3.34616833356e-09
2.23244928624e-09
2.42208250288e-09
7.0303658518e-10
1.43398884356e-09
1.20819747643e-10
3.59040417106e-10
5.79556366001e-10
1.38688412264e-09
1.76409601084e-10
1.18199704833e-09
4.93257247547e-09
3.11475648077e-09
1.73828397614e-10
4.25606004774e-09
1.61506128273e-09
5.22291773299e-09
2.7942712359e-09
5.49422347135e-09
3.50503640044e-09
5.36776572413e-09
4.27419142921e-09
5.02907206711e-09
4.27637710199e-09
4.13232903464e-09
3.53394652356e-09
2.88607845742e-09
2.68548090621e-09
2.52644408994e-09
1.8764216305e-09
1.85898809171e-09
1.94726329725e-09
2.53562116878e-09
1.09699201321e-09
1.30742204979e-09
6.86486809436e-10
8.80811001025e-10
9.01787916396e-10
1.13170124464e-09
7.55511115317e-10
1.61401083971e-09
1.53328292033e-10
1.96278837621e-09
2.62690998752e-10
1.94532398089e-09
4.58844058499e-10
2.0858541674e-09
1.10986508376e-09
2.30116862934e-09
1.35926788871e-09
2.11973691859e-09
1.3716553677e-09
1.59592074586e-09
1.05795508722e-09
1.06109866519e-09
8.37327699589e-10
1.21239725973e-09
4.47874599419e-10
3.79190671046e-10
1.10216248919e-09
6.53273168546e-10
9.04105389655e-11
8.75841821664e-11
4.21372750222e-10
3.57540089051e-10
6.23142965743e-10
8.9766854476e-12
1.14840269797e-09
5.17103627585e-11
1.24655500599e-09
3.83978236111e-11
1.25733006277e-09
1.51502524094e-10
1.50027749813e-09
5.358631934e-10
6.22375362475e-10
2.78510918187e-10
5.70305877133e-10
2.06878144537e-10
4.38857497444e-10
2.43837206844e-10
2.37751985805e-10
9.24346837772e-11
1.70705658532e-10
2.59210663582e-10
9.74842119539e-12
2.4913841494e-11
6.03437678235e-12
1.2015011404e-09
3.87917859562e-10
6.38955328167e-10
2.80458779623e-10
7.27294389359e-10
4.24083017412e-10
3.5235633494e-10
6.67214822191e-10
3.82299327503e-10
3.61092287148e-10
2.49627581548e-11
1.46689423418e-10
3.24494390988e-10
4.69171164099e-10
8.26657795299e-10
1.17554290621e-10
1.99044969918e-10
2.9606563664e-10
2.09302009885e-11
6.10280348369e-10
2.13963644624e-10
6.37289708398e-10
7.84115034601e-10
1.9282400454e-09
2.93586610953e-09
2.06202993013e-10
4.1340166977e-10
4.87184847175e-11
4.75753240552e-11
1.81918302335e-09
6.02563350427e-10
2.23178540598e-09
1.05781427433e-09
1.69327628668e-09