# vtk DataFile Version 3.0
File Name: Molecule/methanol/methanol_2.0-3.vtk
ASCII
DATASET UNSTRUCTURED_GRID
FIELD FieldData 1
TIME 1 1 double
0.0
POINTS 109 double
1.6164232492 -0.01385922078 -0.3376019001
1.4636619091 -0.67735379934 -0.35397827625
1.4683248997 -0.024963013828 -0.6426358223
1.2704859972 -0.60263925791 -0.93725669384
0.81526589394 -1.1898181438 -0.90099602938
0.96175634861 -1.3350101709 -0.2837972939
0.25508856773 -1.4663553238 -0.85979181528
0.34531012177 -1.6406140327 -0.19756808877
-0.49442112446 -1.4830676317 -0.7530297637
-0.48132014275 -1.6374197006 -0.11811308563
-1.0636912584 -1.2169402838 -0.65939962864
-1.093942523 -1.3340148926 -0.047553289682
-1.6049875021 -0.6668689847 -0.031464595348
-1.5226182938 -0.60700625181 -0.64954340458
-1.7389816046 -0.00040912511759 -0.041798338294
-1.6426899433 -0.0047187674791 -0.65204119682
-1.5209771395 0.60352814198 -0.65761166811
-1.6022750139 0.67315340042 -0.024577762932
-1.0621978045 1.2092821598 -0.68919628859
-1.0891937017 1.3368782997 -0.066735975444
-0.4819431603 1.6379094124 -0.11600248516
-0.50004708767 1.4800857306 -0.76172232628
0.34094801545 1.6420303583 -0.19081178308
0.25794607401 1.4786355495 -0.83485841751
0.96611088514 1.3389583826 -0.25236946344
0.82181793451 1.2037693262 -0.87016588449
1.470631361 0.6883867383 -0.3045848906
1.2793649435 0.61851245165 -0.90108108521
1.9070011377 6.155750043e-08 0.6559394002
1.7435492277 0.76631945372 0.65916919708
1.7407878637 0.38232278824 1.326791048
1.7412685156 -0.39185026288 1.3210535049
1.7422395945 -0.7688729167 0.65618246794
1.7476357222 -0.39196130633 0.027857836336
1.7470633984 0.37417262793 0.010250410065
1.3805919886 1.0695091486 1.4065243006
1.3704247475 0.57978355885 1.8374365568
1.3793227673 -0.2004622519 1.9484626055
1.3720849752 -0.91247481108 1.6019892693
1.3796100616 -1.2493201494 1.0438330173
1.3857582808 -1.2404807806 0.2628184855
1.3728250265 1.3141479492 0.6403144002
0.73265820742 1.5625609159 1.4357265234
0.73116695881 1.0502038002 2.0519697666
0.73302066326 0.32837682962 2.3710591793
0.71816343069 -0.32817006111 2.3777005672
0.72990202904 -1.0468857288 2.0544986725
0.73304623365 -1.559425354 1.4426543713
0.73330807686 -1.7456870079 0.64934974909
0.72567343712 1.749365449 0.64628702402
0.091647386551 1.7194130421 1.4234235287
0.092340707779 1.3478094339 1.9751002789
0.092723429203 0.68480175734 2.4126796722
0.090885683894 0.032824397087 2.5411653519
0.090425789356 -0.74385756254 2.3886229992
0.092596136034 -1.2999818325 2.0204937458
0.092392385006 -1.746617794 1.3659303188
0.087867811322 -1.8834131956 0.68971645832
0.086849555373 1.8847033978 0.62429964542
-0.68305516243 1.7512484789 0.65452641249
-0.68795657158 1.5654699802 1.4367848635
-0.68622177839 1.0530096292 2.0536055565
-0.68836462498 0.32951384783 2.3736550808
-0.67379057407 -0.32947257161 2.3794825077
-0.68572455645 -1.0489922762 2.0563108921
-0.68713647127 -1.5627087355 1.443410635
-0.68561595678 -1.7499755621 0.66013789177
-1.3381481171 1.3108068705 0.65747660398
-1.3426340818 1.0699619055 1.4060695171
-1.332670331 0.57975280285 1.8370354176
-1.3407100439 -0.20025372505 1.9490503073
-1.333981514 -0.91211569309 1.6020629406
-1.338642478 -1.2546064854 1.0369180441
-1.7010037899 0.77037018538 0.67629009485
-1.7020208836 0.38305556774 1.3281453848
-1.7030338049 -0.3920134604 1.3213669062
-1.7010705471 -0.77702611685 0.65062516928
-1.8678327799 -0.00018022436416 0.65569579601
1.4534938335 0.31979554892 -0.59490770102
0.64236599207 -0.96818387508 -1.6425580978
-0.11993310601 -1.1532331705 -1.7479772568
0.62374174595 -0.66232734919 -1.9013621807
0.61703824997 -0.21708807349 -2.061040163
-0.12323001027 -0.48303028941 -2.1928396225
-0.12074437737 0.16782140732 -2.2627391815
0.62730932236 0.6025609374 -1.932713747
-0.12060461193 0.89912891388 -1.980587244
0.63570731878 1.0881016254 -1.511623621
-0.1211611852 1.3396366835 -1.487806797
-0.89583802223 -1.2478119135 -1.1558550596
-0.87896949053 -0.91081434488 -1.7076998949
-0.89027929306 -0.19931514561 -2.0492081642
-0.87990444899 0.58634716272 -1.9335620403
-0.89087957144 1.0895483494 -1.4938001633
-1.4468346834 -0.39158838987 -1.4014064074
-1.4456697702 0.3808889091 -1.4084217548
1.2105480433 -0.3597740531 -1.4067674875
1.3902186155 -0.025907719508 -0.95866131783
0.92750942707 -0.74962455034 -1.5704048872
1.0216234922 0.13400344551 -1.752135396
1.1981368065 0.3701184094 -1.4266374111
1.0061078072 0.46348804235 -1.6680418253
0.6537720561 0.1357319355 -2.0557632446
0.91038680077 -0.32118993998 -1.8284555674
1.0125592947 0.72461938858 -1.4744238853
1.3782873154 0.30411192775 -0.91532802582
1.0250825882 0.91563999653 -1.1948003769
1.2716685534 0.46499153972 -1.184102416
1.3379281759 0.22545845807 -1.1550706625

CELLS 214 856
3 0 1 2
3 3 1 4
3 5 4 1
3 4 5 6
3 7 6 5
3 6 7 8
3 9 8 7
3 8 9 10
3 11 10 9
3 11 12 10
3 10 12 13
3 12 14 13
3 15 13 14
3 15 14 16
3 17 16 14
3 16 17 18
3 19 18 17
3 19 20 18
3 21 18 20
3 20 22 21
3 21 22 23
3 22 24 23
3 23 24 25
3 24 26 25
3 25 26 27
3 28 29 30
3 28 30 31
3 28 31 32
3 28 32 33
3 28 33 34
3 28 34 29
3 30 29 35
3 30 35 36
3 30 36 37
3 31 30 37
3 31 37 38
3 31 38 39
3 32 31 39
3 32 39 40
3 33 32 40
3 29 41 35
3 35 41 42
3 35 42 43
3 36 35 43
3 36 43 44
3 37 36 44
3 37 44 45
3 38 37 46
3 45 46 37
3 38 46 47
3 39 38 47
3 39 47 48
3 40 39 48
3 41 49 42
3 42 49 50
3 42 50 51
3 43 42 51
3 43 51 52
3 44 43 52
3 44 52 53
3 45 44 53
3 45 53 54
3 46 45 54
3 46 54 55
3 47 46 55
3 47 55 56
3 48 47 56
3 48 56 57
3 49 58 50
3 50 58 59
3 50 59 60
3 51 50 60
3 51 60 61
3 52 51 61
3 52 61 62
3 53 52 62
3 53 62 63
3 54 53 63
3 54 63 64
3 55 54 64
3 55 64 65
3 56 55 65
3 56 65 66
3 57 56 66
3 60 59 67
3 60 67 68
3 61 60 68
3 61 68 69
3 62 61 69
3 62 69 70
3 63 62 70
3 63 70 64
3 71 64 70
3 65 64 71
3 65 71 72
3 66 65 72
3 68 67 73
3 68 73 74
3 69 68 74
3 70 69 74
3 70 74 75
3 71 70 75
3 72 71 75
3 72 75 76
3 74 73 77
3 75 74 77
3 76 75 77
3 14 12 77
3 76 77 12
3 76 12 11
3 76 11 72
3 72 11 66
3 66 11 9
3 66 9 57
3 57 9 7
3 57 7 48
3 48 7 5
3 48 5 40
3 40 5 1
3 40 1 33
3 33 1 0
3 33 0 34
3 26 34 78
3 34 26 29
3 29 26 41
3 41 26 24
3 41 24 49
3 49 24 22
3 49 22 58
3 58 22 20
3 58 20 59
3 59 20 19
3 59 19 67
3 67 19 17
3 67 17 73
3 73 17 77
3 14 77 17
3 79 80 81
3 82 83 84
3 85 84 86
3 87 85 86
3 87 86 88
3 80 89 90
3 83 80 90
3 83 90 91
3 84 83 91
3 84 91 92
3 86 84 92
3 86 92 93
3 88 86 93
3 90 89 94
3 91 90 94
3 91 94 95
3 92 91 95
3 93 92 95
3 93 95 16
3 93 16 18
3 93 18 21
3 93 21 88
3 88 21 23
3 88 23 87
3 87 23 25
3 96 97 3
3 3 4 98
3 79 4 6
3 79 6 80
3 80 6 8
3 80 8 89
3 89 8 10
3 89 10 13
3 89 13 94
3 94 13 15
3 94 15 95
3 95 15 16
3 96 99 100
3 100 99 101
3 99 102 101
3 82 102 103
3 101 102 85
3 101 85 104
3 85 102 84
3 102 82 84
3 96 98 103
3 98 81 103
3 98 79 81
3 103 81 82
3 82 81 83
3 83 81 80
3 79 98 4
3 3 98 96
3 96 103 99
3 99 103 102
3 97 2 3
3 3 2 1
3 0 78 34
3 26 78 27
3 27 78 105
3 78 2 105
3 78 0 2
3 105 2 97
3 27 106 25
3 25 106 87
3 87 106 104
3 106 107 104
3 106 27 107
3 104 107 100
3 100 107 108
3 107 105 108
3 107 27 105
3 108 105 97
3 100 108 96
3 108 97 96
3 87 104 85
3 101 104 100

CELL_TYPES 214
5
5
5
5
5
5
5
5
5
5
5
5
5
5
5
5
5
5
5
5
5
5
5
5
5
5
5
5
5
5
5
5
5
5
5
5
5
5
5
5
5
5
5
5
5
5
5
5
5
5
5
5
5
5
5
5
5
5
5
5
5
5
5
5
5
5
5
5
5
5
5
5
5
5
5
5
5
5
5
5
5
5
5
5
5
5
5
5
5
5
5
5
5
5
5
5
5
5
5
5
5
5
5
5
5
5
5
5
5
5
5
5
5
5
5
5
5
5
5
5
5
5
5
5
5
5
5
5
5
5
5
5
5
5
5
5
5
5
5
5
5
5
5
5
5
5
5
5
5
5
5
5
5
5
5
5
5
5
5
5
5
5
5
5
5
5
5
5
5
5
5
5
5
5
5
5
5
5
5
5
5
5
5
5
5
5
5
5
5
5
5
5
5
5
5
5
5
5
5
5
5
5
5
5
5
5
5
5
5
5
5
5
5
5

CELL_DATA 214
SCALARS cell_data_0 double
LOOKUP_TABLE default
1.3347053157e-07
1.03858382613e-06
9.45262548001e-08
1.96056425048e-07
2.7824334819e-07
3.66441905825e-07
3.37304806002e-07
1.96144629375e-07
1.78832849462e-07
6.84588671084e-08
1.84562460688e-07
7.55268848126e-08
1.33158231495e-07
1.43854461601e-07
8.4537761188e-08
6.98577942299e-08
9.86844959846e-08
2.03381735338e-07
2.18617587493e-07
3.35217363234e-07
1.0290041561e-07
2.50686473401e-07
2.18948756107e-07
1.34272350078e-07
1.19830292924e-07
2.30643160241e-09
2.03006612157e-09
4.28564672308e-10
1.60358756524e-09
1.49175886575e-09
3.31949337317e-09
2.35420695786e-09
2.87139909325e-09
7.6423464331e-10
1.10563332825e-09
4.45522002683e-09
1.30623912691e-09
6.16357374824e-09
3.37534349342e-09
4.17316628158e-09
5.66190173068e-09
1.45093945254e-09
3.78442304044e-09
1.71486432953e-10
4.47309762965e-10
1.98230870596e-09
2.18391746761e-09
2.02184060233e-09
2.53664454019e-09
1.44023723378e-09
8.8562098332e-10
1.42762920346e-09
7.2552790252e-09
9.06832746525e-11
2.47873546486e-10
3.6393660765e-10
1.29046671552e-09
1.98817354672e-09
1.44692380893e-10
2.18658641584e-09
1.60770402494e-09
1.03463749101e-10
1.07445101269e-09
3.23753362242e-09
5.22320351606e-10
2.35092019546e-09
4.1068901832e-10
1.51264966882e-10
2.16402813099e-09
1.121509415e-08
1.61244712715e-09
3.06720177496e-09
9.25641755701e-10
1.00500317162e-09
4.21711313754e-11
7.37245890663e-11
1.88767755253e-09
2.48315482903e-09
1.12719551335e-09
1.64045203778e-09
1.21580958107e-09
6.15880183539e-09
1.17438895629e-09
4.98659115855e-09
1.62912616594e-08
1.27662224343e-09
6.17233108533e-09
3.8317787532e-09
1.07784008128e-09
2.02153962292e-09
1.66285373704e-09
5.99743959201e-10
5.07850981904e-09
4.0773142953e-09
6.90564250771e-10
1.74951802447e-09
1.17776628136e-08
1.72494594825e-09
2.06523048061e-09
4.99024542168e-10
1.04133878346e-08
6.63569702049e-09
3.27539042416e-09
1.03797999046e-09
1.29818998444e-08
6.80990638046e-09
7.41110271013e-09
5.83751920086e-08
4.38801953725e-08
1.61643010714e-07
1.7651761224e-07
7.58588421081e-08
1.56171351946e-07
1.16807475244e-07
1.68070402878e-07
6.63489105743e-08
4.81419768666e-08
4.18106789649e-08
3.90891167171e-08
1.4629164368e-08
6.46874951312e-09
6.47131773147e-09
1.00603484201e-08
1.17028531569e-08
7.26844029528e-09
5.22084636896e-08
1.89459389693e-08
3.83426361332e-08
2.65105624482e-09
1.51574669981e-07
1.87570686218e-08
1.5486774084e-07
2.97018266257e-08
2.10581887355e-07
3.98059134861e-08
5.06013916314e-08
4.91942026617e-08
4.22675928304e-07
1.0361479906e-06
1.05894249771e-06
8.08279364967e-07
3.35786787783e-07
9.94228786004e-08
4.43508065967e-08
7.45227442523e-08
3.21331452655e-09
8.83970140748e-08
4.31873683386e-08
5.66447706778e-08
4.97170927283e-09
7.17493296137e-08
3.23647240179e-08
1.86154350693e-08
1.19470093251e-08
8.58410897702e-08
1.20052298176e-08
9.28548834876e-08
1.32616343863e-09
1.01806828399e-08
8.60021846322e-08
1.40535033114e-07
4.54304085419e-08
2.7944771212e-07
7.83999302482e-08
7.4934192686e-09
8.73024659683e-07
8.72307390773e-08
2.99298269526e-08
4.849488738e-08
3.65544111132e-08
8.18101878595e-08
2.22109661349e-08
3.1014098018e-08
9.42533546162e-10
1.88661844301e-07
4.67917174314e-07
2.65829207856e-07
5.10710643157e-08
4.75792338909e-07
2.84384078113e-08
7.07786865899e-07
3.17316704365e-07
1.94865474509e-06
3.29401704045e-07
8.40952971271e-08
2.29668876494e-07
1.7599190362e-07
7.13543681812e-07
3.34430677334e-07
1.92147904328e-06
4.31993367641e-07
8.33222866757e-07
6.16395874736e-07
3.38138107879e-09
5.02727483098e-08
2.63456993804e-07
2.63466160649e-07
1.38186727116e-08
7.01998172232e-08
3.47774890116e-07
2.07703050651e-07
5.59544490212e-08
2.31907803387e-07
6.75933659515e-08
3.55131724399e-08
2.95713713921e-07
2.87061403398e-07
1.05721775092e-07
1.6815407558e-07
2.59710439203e-07
2.05117535513e-07
2.39003711608e-07
1.62475729095e-07
4.09602643263e-07

