# vtk DataFile Version 3.0
File Name: Molecule/sphere_cent/sphere_cent_0-s38.vtk
ASCII
DATASET UNSTRUCTURED_GRID
FIELD FieldData 1
TIME 1 1 double
0.0
POINTS 2411 double
-0.79325777292 -0.5037752986 -0.34181782603
-0.76549273729 -0.58349633217 -0.27023640275
-0.8260281086 -0.50974076986 -0.23990403116
-0.32946664095 0.9140444994 -0.2365732193
-0.2595333457 0.9509691596 -0.16731332242
-0.2457408309 0.93039101362 -0.27190184593
-0.86160326004 -0.2482291162 -0.44271788001
-0.8316898942 -0.17360168695 -0.52743446827
-0.7952170372 -0.27654778957 -0.53957247734
-0.80692178011 -0.56455737352 -0.17359769344
0.64362996817 0.4950196147 0.58368396759
0.59776389599 0.455052495 0.65999728441
0.68580049276 0.40044111013 0.60763335228
-0.25701805949 0.3653729856 0.89467793703
-0.27389326692 0.27688723803 0.92099320889
-0.18731041253 0.29388132691 0.93730038404
0.1570456773 -0.10232188553 0.98228180408
0.17120702565 0.0088211130351 0.98516786098
0.071674630046 -0.04646293819 0.99634605646
0.51842492819 0.54198747873 0.66141712666
0.52322852612 0.46495056152 0.71417140961
0.62608456612 0.69677633047 -0.34991061687
0.7000617981 0.64402967691 -0.30843472481
0.67031186819 0.62232226133 -0.40427958965
0.45482817292 0.15404069424 -0.8771314621
0.36352846026 0.17059937119 -0.91577464342
0.40051698685 0.23359765112 -0.88602870703
0.30071288347 0.23960311711 -0.92310011387
0.13109661639 0.011807706207 -0.99129575491
0.041322011501 0.019821634516 -0.99865281582
0.093431897461 0.10672626644 -0.98974388838
0.5844347477 0.80693078041 0.085036367178
0.51796174049 0.85451704264 0.038621969521
0.51032871008 0.84984207153 0.13147328794
0.24206058681 0.96290618181 0.11911274493
0.22793351114 0.97348237038 0.017680507153
0.16159941256 0.98449826241 0.067436099052
-0.64323812723 0.18661411107 -0.74246162176
-0.57641971111 0.26410940289 -0.77326393127
-0.57277655602 0.151852265 -0.80552011728
0.43291336298 0.77432882786 0.46149453521
0.38615518808 0.82660222054 0.40919625759
0.33583760262 0.80496579409 0.48895868659
0.08385258913 -0.073115676641 -0.99378222227
0.40108832717 0.85655885935 -0.32442897558
0.42364299297 0.87420940399 -0.23715806007
0.48866766691 0.8277720809 -0.27565285563
0.30442175269 0.0064706089906 -0.95249992609
0.38680937886 0.0084039196372 -0.92208564281
0.35520195961 -0.077494949102 -0.93156802654
0.32493689656 0.26460859179 0.9078784585
0.36262577772 0.16371110082 0.91742497683
0.41542375088 0.22549453378 0.8812340498
-0.13736766577 0.49698886275 -0.85679352283
-0.088720269501 0.41954067349 -0.90339058638
-0.19478526711 0.42008087039 -0.88629537821
-0.045261990279 0.50700414181 -0.86063575745
0.2013541162 0.87329745293 0.44318181276
0.1492998302 0.916000247 0.37236618996
0.096860826015 0.88364577293 0.45801582932
0.051058098674 0.9176492095 0.3940743804
0.93052214384 -0.22511188686 -0.28874099255
0.90039503574 -0.25238034129 -0.35435375571
0.92111027241 -0.15924906731 -0.35523018241
0.10589827597 0.71462750435 0.69143640995
0.021046811715 0.68996852636 0.72353488207
0.096662372351 0.6415618062 0.76089406013
0.34560924768 0.36488944292 0.86453992128
0.38481140137 0.42520555854 0.81920224428
0.29762902856 0.4399881959 0.8471865654
-0.064171895385 0.32851913571 -0.94230490923
0.019953591749 0.38956961036 -0.92076259851
0.23444229364 0.91994053125 0.31418564916
0.26060649753 0.88400226831 0.38797137141
-0.0039289942943 0.10496490449 -0.99446439743
-0.43917304277 -0.87760591507 -0.19217403233
-0.45223498344 -0.8854649663 -0.10662796348
-0.52420091629 -0.8347440958 -0.1685180068
-0.3706689477 -0.91673266888 -0.1481410116
-0.51266294718 -0.59274488688 0.62074911594
-0.47547316551 -0.54186975956 0.69299167395
-0.5647623539 -0.51129186153 0.6475225687
-0.07398661226 0.38970294595 0.91786056757
0.015576995909 0.4178751111 0.90836268663
-0.050820827484 0.49081578851 0.86977171898
0.7089895606 -0.46565574408 -0.529548347
0.64610546827 -0.51120096445 -0.56673967838
0.67901295424 -0.42705851793 -0.59714877605
-0.59056067467 0.54489588737 0.59498339891
-0.57645356655 0.47553470731 0.66415399313
-0.51100832224 0.54693228006 0.66308653355
-0.35501238704 -0.90068596601 -0.25045138597
0.95719224215 -0.030664887279 0.28633514047
0.91824573278 -0.049476835877 0.3928822577
0.93451029062 -0.12006479502 0.3350288868
0.8783480525 -0.032676454633 0.47649484873
0.88649642467 -0.11276367307 0.4487349391
-0.23939570785 0.76805740595 0.59337681532
-0.22102186084 0.71705430746 0.66082686186
-0.15072581172 0.76410490274 0.62712728977
0.43008100986 -0.62097972631 0.65501773357
0.37088036537 -0.69275224209 0.61850404739
0.45418587327 -0.66080647707 0.59728682041
0.11497526616 0.42993319035 0.89550584555
0.053732160479 0.49308884144 0.86831474304
0.14908577502 0.51019251347 0.84704196453
0.90391814709 0.041875552386 0.42525583506
-0.22066016495 0.6122867465 0.75907963514
-0.30026435852 0.63236653805 0.71384805441
-0.31920740008 0.5717484355 0.75563198328
0.25742188096 -0.66376721859 -0.702229321
0.34766221046 -0.62289923429 -0.70078164339
0.32589104772 -0.70040518045 -0.6349337101
0.41728124022 -0.70373165607 -0.57500392199
0.42137035728 -0.7591945529 -0.49601152539
0.33993220329 -0.75974309444 -0.55407625437
0.85845166445 -0.088174052536 -0.50524353981
0.85517472029 -0.17431376874 -0.48815256357
0.81072330475 -0.16755743325 -0.56096822023
-0.72070258856 0.015392250381 0.69307649136
-0.65999537706 -0.046679541469 0.74980962276
-0.64599835873 0.054613221437 0.76135474443
-0.49560135603 0.45812189579 -0.73788446188
-0.58415871859 0.4306076467 -0.68799811602
-0.53008794785 0.52058839798 -0.66931885481
-0.66142445803 0.4228978157 -0.61917227507
-0.60837435722 0.4999293685 -0.61640042067
-0.7065269351 0.12335819006 0.69684350491
-0.51345866919 -0.026040151715 0.85771781206
-0.46399131417 -0.10047806799 0.88011467457
-0.42239204049 -0.012801543809 0.90630209446
-0.45484763384 0.87803387642 0.14881639183
-0.4784206152 0.8466899991 0.23289610445
-0.38824245334 0.89398902655 0.22368143499
-0.54233896732 0.82661682367 0.15020248294
-0.417126894 0.85440194607 0.30983048677
-0.96254611015 0.22279605269 -0.15307076275
-0.95211780071 0.29145812988 -0.092152535915
-0.93526047468 0.30628779531 -0.17697991431
-0.96888101101 0.24226917326 0.049830034375
-0.98140949011 0.18973344564 -0.02117536962
-0.98681163788 0.14944931865 0.061968859285
-0.91916126013 0.37890070677 -0.10689491779
-0.24565245211 -0.96252149343 -0.11484276503
-0.18526004255 -0.98120349646 -0.053601082414
-0.26623788476 -0.96321070194 -0.035692501813
-0.43566030264 -0.89671564102 0.078092373908
-0.38231232762 -0.91128820181 0.15291056037
-0.45629486442 -0.87579911947 0.15709485114
-0.56046283245 0.57335168123 -0.59763258696
-0.63832139969 0.56370198727 -0.52413278818
-0.65578591824 0.61787801981 -0.43356958032
-0.59067898989 0.64576822519 -0.48376944661
-0.20631633699 -0.42073646188 0.88338720798
-0.11595660448 -0.44014340639 0.89040380716
-0.13566881418 -0.35274064541 0.92582339048
-0.91846829653 -0.29476386309 0.26364737749
-0.88776218891 -0.37746292353 0.26324033737
-0.88049942255 -0.33229246736 0.33795544505
-0.8289244771 -0.53400975466 0.16563792527
-0.82789677382 -0.50232899189 0.24909390509
-0.87647151947 -0.4472399652 0.17815870047
-0.77328020334 -0.57522249222 0.2650410831
-0.78326374292 -0.51983863115 0.34100338817
-0.75827294588 -0.48604178429 0.43447089195
-0.81354862452 -0.44204825163 0.37748351693
-0.87978994846 -0.1543648839 -0.44949296117
-0.94734174013 -0.2772308588 -0.16013239324
-0.95759236813 -0.20259828866 -0.20478120446
-0.92400252819 -0.28971678019 -0.24953608215
-0.71240270138 0.68035286665 0.17104385793
-0.6854544282 0.72328311205 0.083595968783
-0.7513563633 0.65436935425 0.085241682827
-0.72480845451 0.68892377615 0.0061804931611
-0.66413956881 0.74754279852 -0.0099163623527
-0.70125442743 0.7083747983 -0.077390797436
-0.72362291813 0.51843082905 0.45552197099
-0.69981241226 0.59927284718 0.38875696063
-0.76124346256 0.52386671305 0.38156080246
-0.74355202913 0.59613519907 0.30195087194
-0.67655706406 0.66180628538 0.32236391306
-0.6222384572 0.67328393459 0.39937373996
-0.58047860861 0.74165678024 0.33611091971
-0.76980698109 0.60036498308 -0.21618920565
-0.81002604961 0.56593638659 -0.15356658399
-0.76292473078 0.63034176826 -0.14262738824
-0.82475101948 0.51821798086 -0.22575229406
0.024406379089 -0.72497183084 0.68835031986
-0.030617417768 -0.78485453129 0.6189095974
0.075580276549 -0.78764343262 0.61146718264
-0.85175287724 -0.50851637125 -0.12571397424
-0.16228815913 -0.84603452682 0.50780916214
-0.07562122494 -0.83747470379 0.54122978449
-0.13880668581 -0.78534471989 0.60327482224
-0.23955911398 -0.75938612223 0.60480797291
-0.17737971246 -0.72102880478 0.66970604658
-0.081250809133 -0.73377925158 0.67428636551
-0.77368348837 0.56454181671 -0.28748893738
-0.85399532318 0.50219339132 -0.13492515683
0.19219297171 -0.97099435329 0.14062260091
0.093138374388 -0.9809218049 0.16813674569
0.10501470417 -0.99128180742 0.079282231629
0.01297258772 -0.99344033003 0.11360562593
0.4856095314 -0.7961986661 -0.36074888706
0.51366740465 -0.81333214045 -0.27315828204
0.42126581073 -0.85797256231 -0.29395601153
0.45854684711 -0.86716282368 -0.19433927536
0.35191547871 -0.91285032034 -0.20697239041
-0.60460269451 -0.63399279118 0.48191645741
-0.59252715111 -0.57678800821 0.56233680248
-0.67396640778 -0.5538816452 0.48886007071
-0.64701449871 -0.49584290385 0.5792105794
-0.35561773181 -0.17370350659 -0.91834837198
-0.43164277077 -0.23076142371 -0.87202054262
-0.44056716561 -0.11912944913 -0.8896753788
-0.49474489689 -0.28611427546 -0.82040697336
-0.5395078063 -0.20744121075 -0.81595730782
-0.27259272337 0.042571302503 0.96116119623
-0.2138043344 -0.031290438026 0.9763751626
-0.17478355765 0.062285821885 0.98263508081
-0.10690192133 -0.018963044509 0.99407237768
-0.51203018427 -0.43865445256 -0.73848468065
-0.44417783618 -0.41884216666 -0.79184007645
-0.4318074286 -0.51448845863 -0.74081712961
-0.68690770864 -0.5293456316 -0.4979249537
-0.69434374571 -0.45116376877 -0.56065291166
[...]
CELL_DATA 4818
SCALARS cell_data_0 double
LOOKUP_TABLE default
9.24609563705e-09
3.55018340554e-09
7.46161171886e-09
4.2244730332e-09
2.01551869932e-09
2.83423776548e-09
1.65882778654e-09
1.57946434487e-09
6.06762734749e-10
2.54807601776e-10
6.85288374971e-10
3.58486507364e-10
3.62742123797e-10
3.78001565062e-09
1.09931727282e-08
4.16863896061e-09
9.88417839432e-10
6.59359896233e-11
1.9648157598e-09
3.60176937448e-09
6.33723024172e-10
2.62977743714e-10
2.10059781632e-09
2.66207090888e-09
3.10369819259e-09
1.22132197869e-09
7.46332213683e-10
3.12882037126e-09
4.31075984723e-09
3.40535704556e-09
4.65614408098e-09
1.91446556491e-10
2.22225617768e-09
5.03701286146e-09
1.27862076355e-09
4.45691130109e-09
2.73905858445e-09
8.72893391837e-09
1.30765480085e-09
2.17450518211e-09
7.86512491459e-10
2.08822690159e-09
4.48850493874e-10
6.35321222144e-10
2.4419105654e-09
3.58846233316e-09
5.95882267059e-09
2.28991022155e-10
1.34147092025e-09
2.41832018103e-10
3.1124865624e-09
2.18611362805e-09
2.62278896219e-09
4.39205780794e-09
2.63942536662e-10
2.25756355179e-10
1.72859854938e-09
5.69991646215e-12
6.8144828354e-12
4.27266291603e-09
1.48872655439e-10
2.40074719805e-09
4.67138750674e-09
5.15057113092e-09
1.32121332638e-09
1.10191131662e-09
3.75186571244e-09
6.51183867695e-09
1.23744324656e-09
1.56991266836e-09
2.08786441828e-09
2.80841093645e-11
1.88086352844e-09
3.56717664726e-09
1.46874867905e-10
4.6402952178e-09
3.85356456758e-09
8.97163011575e-10
3.03452972795e-09
4.33598066757e-09
9.87007196292e-10
1.12145526722e-09
1.34123569323e-09
4.47927975896e-09
8.78345768997e-10
4.25095600637e-10
5.36564424741e-10
3.1472014004e-09
1.40595467105e-09
1.47219206091e-09
1.46315900837e-09
8.18796864098e-09
2.79974423458e-09
3.34568437666e-09
1.02119026022e-09
7.51813249771e-09
2.38237778153e-09
2.09373116035e-09
3.05874759589e-09
5.31078141427e-09
4.93420416114e-09
7.66156420888e-10
5.74951532729e-09
4.57946190699e-09
2.52329996473e-09
2.86986429044e-09
5.00459012931e-09
4.23155145131e-09
1.36737682628e-09
2.17596550551e-09
1.28292102654e-09
7.85112253435e-09
1.01713266933e-09
5.5676012147e-09
9.27652528343e-10
4.13112975137e-09
4.02558632407e-09
4.94295530245e-09
5.96835839652e-10
3.46132828418e-09
1.6010730017e-09
3.13369786625e-09
3.77258852658e-09
1.60015287641e-09
3.53420306398e-09
8.25647337004e-09
3.38821417266e-09
3.06320913827e-10
1.05186119534e-08
1.05248411538e-09
6.26062657162e-10
7.21281941731e-10
5.35652668417e-09
8.66191813468e-10
5.31455541774e-09
1.35726557046e-09
8.32017264157e-10
2.79989521833e-09
2.32222718917e-09
1.71148327186e-09
9.27108242219e-10
1.22842187795e-09
6.19294229361e-09
4.57019048767e-09
2.10867554502e-09
7.89616753514e-10
2.71923562298e-09
2.06824232965e-11
2.81818001916e-09
6.44097527023e-09
1.11900438717e-09
4.8989199018e-09
2.88776639228e-09
2.9456648108e-10
5.04408604159e-09
3.27042617259e-10
2.36834657101e-09
6.23572890676e-10
4.41135006961e-09
1.45359268885e-09
2.74418034754e-09
4.27038913518e-09
5.15942337724e-10
4.03626378128e-09
5.79401224342e-09
1.24487512797e-09
4.86708340225e-09
4.392546411e-09
5.21363320365e-09
6.4770920195e-09
6.55305513992e-09
2.66404050679e-09
7.69908467428e-09
2.55551358838e-09
1.48667769224e-09
2.48310920003e-09
2.98222581895e-09
1.15012458026e-09
8.85674849411e-10
4.66450158603e-09
2.80295712084e-09
8.22351380078e-10
1.02034851541e-10
1.72423292001e-09
7.36649129002e-10
3.74759419251e-10
1.8475976057e-09
1.62510413165e-09
1.36909230483e-09
3.19390314803e-09
1.4399377479e-09
6.35410987678e-10
5.08549266821e-09
2.34561170145e-09
1.51333118054e-09
5.92617855143e-09
2.84095979662e-09
7.09080549614e-09
3.35687244371e-10
4.54194726796e-09
4.20121418158e-09
4.61743367376e-09
8.19986436784e-09
3.51124240202e-09
1.2927942215e-09
3.20125608954e-09
5.78020357202e-09
2.03102225218e-09
7.22372719758e-10
2.71303373448e-09
1.80971876133e-09
3.87071371766e-09
6.07549054301e-10
4.65544320514e-10
4.99593697363e-10
1.56663948689e-09
2.0031494575e-09
2.24008583209e-10
1.52460103172e-09
5.33837584544e-10
9.16176194556e-09
6.73043593074e-09
1.35889802383e-09
3.00272037271e-09
2.12158365987e-09
1.49510559409e-09
5.07529716378e-09
2.8407441556e-09
3.4561626562e-09
4.05367148782e-09
2.419902493e-09
5.97664982734e-09
5.93845877716e-09
4.04295543837e-09
3.43378644323e-09
3.50456346526e-09
2.02898860514e-09
8.54256498162e-10
8.7677214978e-09
9.31465735888e-09
2.84268950298e-09
4.29018064792e-09
2.60700640663e-09
1.72082081786e-09
9.67399645655e-10
7.86239237998e-09
4.64537890632e-10
6.86804791303e-10
2.18394516466e-09
3.80420076509e-09
3.23859257283e-11
1.27236557326e-09
3.90814139984e-09
8.08696265652e-10
1.6217136026e-09
9.04429149861e-10
9.50600405734e-11
1.18507812797e-09
1.0251745569e-09
4.62480286143e-10
1.32099807229e-09
6.65868566282e-09
1.40671363561e-09
3.703889483e-09
1.21723671872e-09
1.52107732424e-09
1.04879882081e-08
6.98151437313e-10
3.45736970949e-09
3.32807411953e-10
9.19701721422e-10
4.55581622516e-09
1.81216443991e-09
6.78542872659e-10
1.97389265089e-09
1.37441687656e-09
2.79509140302e-10
2.37704987594e-10
2.75818987433e-09
1.4458596916e-10
1.09921447108e-09
3.8016424685e-09
7.73354056363e-11
1.04929859757e-09
1.51208700851e-09
1.06953099559e-09
4.44366705854e-09
8.62139366623e-10
2.45490499073e-09
5.06925966886e-09
8.17724992823e-10
2.58502058607e-09
3.01241932248e-09
4.61968388268e-09
2.38185576742e-09
1.17310400684e-09
4.87031168541e-10
3.08528757128e-09
1.87296842172e-10
7.61896796007e-10
1.7193440935e-10
2.33788138321e-09
1.86791472572e-10
8.12495324309e-10
6.5447376464e-10
4.937342535e-09
3.39027935418e-09
3.298354831e-09
2.02007469478e-09
2.00480213076e-09
2.20750032244e-09
3.07922469889e-09
1.33705491203e-09
1.24704871195e-09
3.71811448317e-09
1.1671547405e-09
1.65854240558e-09
3.26227984676e-09
5.0435771316e-09
1.39558476119e-10
3.54540268472e-09
7.38567807084e-10
3.56551667957e-09
4.02684792458e-09
5.49784350063e-10
1.02630589041e-09
1.52274627208e-10
8.2088561927e-10
2.06960087895e-09
6.65982348388e-10
5.34568208218e-09
1.0979491989e-09
4.4708546471e-09
2.83995571988e-09
4.35577165345e-09
2.97351657218e-09
3.25237547465e-09
8.46092058099e-09
1.11439118896e-09
3.09141648911e-09
2.99057532858e-09
1.51247351347e-09
1.69913682664e-09
2.38701145221e-09
1.33196432351e-09
2.58092564153e-09
1.15031650183e-09
3.85652468614e-09
3.83401995901e-10
2.33487584429e-09
4.70726311546e-09
7.72906318916e-09
2.59467621694e-09
2.53069300151e-09
2.67899000212e-09
2.32304964265e-10
1.42461001171e-09
3.25396499284e-09
2.05388992631e-09
9.02836623579e-09
2.25840224507e-09
3.31091934311e-09
6.1965344345e-09
6.6623967913e-11
2.63279622104e-09
2.80070615707e-09
9.451943906e-10
5.08978676659e-10
1.22203372536e-09
3.57648317321e-10
4.14263289999e-10
2.96761799434e-10
2.82142251773e-09
6.38984955697e-11
3.1388094081e-09
3.98752512446e-09
2.93672517475e-09
1.9415798726e-09
1.01436042923e-09
3.72112924772e-09
5.94555428906e-10
6.15836235891e-09
2.7002530784e-09
2.40877185247e-09
2.02600798792e-09
1.99102543621e-09
4.16727049702e-09
1.47277762723e-09
7.84634678863e-10
3.57891291555e-10
2.90900723853e-10
5.21674229559e-10
4.46859409359e-09
6.55020675092e-11
2.07538579646e-09
3.23286088529e-09
3.52685610233e-09
3.88562363074e-10
5.75094297017e-09
3.38001479709e-09
2.16028487267e-09
1.07538488181e-09
2.25788238096e-09
1.9609801681e-09
5.30459201825e-09
3.04666149382e-09
3.95960821454e-09
3.58795231009e-09
4.40267631865e-09
1.54125788854e-09
3.25666118096e-10
2.29897259811e-09
1.40461965822e-09
1.23295169896e-09
8.74992017038e-10
4.37018727232e-09
3.06707654199e-09
2.01210481551e-09
2.7263166236e-09
1.92985401676e-09
8.00620335333e-09
8.22763147766e-09
6.77388279439e-10
8.31599228069e-09
3.89939455283e-09
8.61333862663e-09
1.78332644808e-09
7.85663684036e-09
8.99077654769e-10
2.17366582658e-09
5.36654386142e-09
2.95762648873e-10
7.89654978352e-10
2.25353041419e-10
2.52980232812e-09
4.43261209897e-09
6.4835016947e-09
2.22922098336e-09
1.05093833678e-09
1.37388342583e-09
2.10545994279e-09
3.02051901825e-09
4.55074817136e-09
5.13556755843e-10
2.01138592597e-09
1.4985781616e-10
4.48810292908e-09
2.47786021425e-09
2.35774280199e-09
2.96703007999e-09
1.3253750808e-09
1.70567841538e-09
1.20712532922e-09
5.93747706589e-09
8.80454754126e-10
4.38054914044e-10
1.16457821738e-09
1.23187362963e-09
1.05507806672e-09
4.22559294911e-09
7.64133974779e-10
3.62581969116e-09
5.03841691605e-10
2.8167681764e-09
3.67322432956e-09
3.63239381221e-09
8.06325142509e-10
1.24520574512e-09
4.35404059821e-09
1.10654374337e-09
2.51896909665e-09
2.12135469376e-09
1.71567102724e-09
4.04252564451e-09
1.75358370445e-09
4.58568509567e-09
6.89079045949e-09
4.05179953025e-09
3.56615435956e-09
3.01458359578e-09
2.06652914771e-09
9.32147795428e-10
4.65438699832e-09
4.54119237182e-09
1.74634903695e-10
6.46995995354e-10
6.24022597164e-09
3.94010388914e-09
5.38569357066e-09
1.03546790409e-09
1.01324801105e-09
2.82021146402e-09
6.00030740026e-10
2.41111157479e-09
3.72246202049e-10
1.23516626026e-10
1.03044816671e-09
1.5579108925e-09
8.57893500108e-10
1.56348800645e-09
6.13037707213e-10
6.04454177351e-09
3.75244190819e-09
8.51473377965e-10
3.58206988867e-09
2.68192639371e-09
1.48664971309e-09
5.25644525057e-10
1.54754356646e-09
1.56149027677e-09
2.22882766352e-10
3.048682467e-10
4.16169349315e-09
1.7123654763e-09
2.58275569905e-09
1.9505573618e-09
8.03119500296e-10
2.46947583197e-09
1.68078038508e-09
1.84485873595e-09
7.17963955661e-10
3.81375217853e-09
5.82897024461e-09
9.53702759222e-10
2.7395346324e-09
1.30873653955e-09
3.87251688466e-10
7.77698478131e-10
4.38082175276e-09
4.38624939164e-09
2.98665111534e-09
4.50049310679e-09
4.07616923131e-09
1.74488939881e-09
1.83631073258e-09
9.93619087628e-10
3.71207938302e-09
8.99717874168e-10
1.18280595725e-09
1.60710572188e-09
1.33826464709e-09
2.35620352642e-09
9.87618070479e-10
3.59115203717e-10
3.70187385821e-09
1.10945607635e-09
8.80521616918e-10
1.45534076488e-09
1.1223950913e-09
3.75677134891e-09
3.43704325467e-09
1.59392388251e-09
2.16642359352e-09
1.47556079143e-09
1.95198015364e-09
7.73397203945e-10
7.29456516095e-10
7.07614673675e-10
1.40369183586e-09
2.65383892799e-09
4.57860302926e-10
4.71494855123e-09
9.40501146572e-10
4.6581041014e-09
4.74409181618e-11
2.47020600024e-09
2.40316920171e-10
1.37441792181e-09
4.23439925789e-10
1.69587039461e-09
2.64113520101e-10
2.83769015253e-09
7.63409595203e-10
2.43774782953e-10
3.50647125297e-09
4.19334267879e-09
3.55823236616e-09
3.40163176206e-09
7.4537078659e-09
5.22894931886e-09
3.84637397829e-09
5.33265221e-10
1.3494778749e-09
2.67176627931e-10
4.9279364555e-09
2.18939256295e-09
1.61912581115e-09
4.07625945935e-09
1.30949915837e-09
1.10723985738e-09
7.63829556937e-10
2.85341643018e-09
2.57010062672e-09
1.48264915328e-09
2.73676064226e-10
4.08458313618e-10
4.11283622904e-09
8.38571102949e-10
5.85012036425e-09
3.98485058445e-09
4.22955585786e-10
6.01080883095e-09
2.87406095229e-09
4.78363823068e-09
1.62839499538e-09
4.02383145668e-09
8.52876760953e-10
2.79688079837e-09
2.21493572104e-09
2.13948669465e-09
6.33129536272e-10
5.76972974754e-09
2.21317925654e-09
2.61599871042e-09
7.07415632812e-09
5.17380000725e-09
2.76771826808e-09
7.7429507085e-09
4.40007743718e-10
5.00599601978e-09
8.7269842782e-10
1.19825898348e-10
3.89079035637e-09
3.9872890775e-10
1.89473952328e-09
7.66142866161e-10
1.49163710986e-09
2.57667251454e-09
1.8906123672e-09
1.28854429191e-09
1.45018519765e-09
3.27366073914e-09
1.44559345277e-09
9.12790843128e-10
1.60753024139e-09
7.57971803117e-11
3.16480486231e-09
1.3316178933e-09
1.03186399888e-09
1.60542402546e-09
2.62971140178e-09
3.75269407413e-10
5.39217866007e-09
4.5398490382e-09
9.49501643209e-11
3.76999764726e-09
1.33232586256e-10
2.72444526402e-10
6.81129533492e-09
7.54690229764e-10
4.80390428063e-09
8.61300016233e-10
5.71236225295e-10
8.23017382276e-10
6.42063470722e-10
2.45587721494e-09
9.03547132501e-10
8.51156229045e-10
2.29969269455e-09
1.28367950875e-09
2.78278235145e-09
6.57882149651e-09
2.16714335917e-09
1.06938902925e-09
3.65357481052e-09
8.16572550012e-09
8.82741449509e-09
2.05169232536e-09
8.51476992738e-11
1.34111594258e-09
3.85754527607e-09
9.28363619199e-10
4.98804475497e-10
5.64537895592e-10
7.73519704234e-10
3.12265973912e-09
1.34015123567e-09
3.20578918056e-09
2.4235549185e-10
2.82305377082e-10
1.31835712073e-09
1.78645299198e-09
1.47082556395e-09
2.04060643404e-09
1.68670949804e-09
7.11055485611e-09
7.64732919196e-10
1.64231124418e-09
1.20022331159e-09
1.22725989595e-09
2.7729366165e-09
7.40393420516e-10
6.34412281546e-10
2.09713497094e-10
3.18674381284e-09
5.96344095624e-09
2.99282477605e-09
1.67681575345e-09
9.10094079839e-10
1.50612999915e-09
2.52914149145e-09
7.75514593607e-09
1.46241885565e-09
2.18836349717e-10
3.3190719255e-10
2.50701161249e-09
3.76674067101e-09
7.22533289297e-10
2.19204261627e-09
1.24849346169e-09
5.24603192857e-10
1.55028550612e-09
1.14160999131e-09
8.35258631914e-10
1.52078301757e-09
1.70850746386e-09
5.67167187416e-10
2.51568340549e-09
1.82858208871e-09
2.72367858097e-09
8.17404554442e-10
1.59454099995e-09
1.44501635084e-10
8.78826009962e-10
3.13054962978e-09
4.26501385381e-09
3.07766307007e-09
7.71483288164e-10
3.09527661431e-09
4.44224877415e-09
3.73115555336e-09
1.66571558737e-09
1.15558714781e-09
1.92407281777e-09
1.99136822985e-09
3.17825813937e-09
1.48695824e-09
3.75914572407e-09
4.1106128967e-09
6.36497528991e-10
1.04923969894e-09
3.72158112174e-09
3.08826830742e-09
7.20945171868e-10
1.89405076607e-09
1.19873547319e-09
4.00707962082e-10
3.29123107108e-09
2.72911213623e-09
5.64779941803e-10
4.00019215336e-09
4.42185163304e-09
2.42382988742e-10
2.69519371629e-10
1.4398069159e-09
2.59305226435e-09
9.40933065353e-10
1.36385575573e-09
2.01283805465e-09
4.83978246602e-09
5.1799259077e-09
1.4144439038e-09
2.6053805482e-09
2.55025172499e-09
7.31319537401e-10
1.84494436639e-09
9.41204719121e-10
7.00590525471e-10
3.24504551668e-09
2.60824763091e-09
1.19936829776e-10
3.58702789393e-09
6.54932172998e-11
3.12534609469e-09
1.72517709401e-09
2.71818406521e-09
9.36721269132e-10
3.88659198997e-10
4.61193757205e-09
2.04158269786e-09
2.91668944378e-09
1.98520167814e-09
6.17190099305e-10
7.5567606438e-10
1.95709504738e-09
6.5232719515e-09
3.56518227288e-09
1.73431168855e-09
1.83371283057e-09
2.42774099019e-09
2.98397866248e-09
1.15030997051e-09
1.2123271271e-09
3.15145254667e-09
1.33397762639e-09
2.88951839416e-09
2.56711155636e-09
1.78068261391e-09
1.26684633796e-09
1.05417254994e-09
2.89875949343e-09
2.87858264741e-09
1.67295693265e-09
2.73537083668e-09
6.17682701087e-10
6.86851449766e-10
1.2588331898e-09
2.35481266138e-09
5.42514693381e-10
7.31749736194e-10
8.42092442912e-09
8.30711006906e-09
1.31816802098e-09
1.56530563175e-09
3.5973977996e-09
4.33729167619e-09
2.36740441967e-09
2.97552050139e-09
1.92971105882e-09
3.67839991426e-09
6.79258407731e-10
2.39135746133e-09
3.98773173769e-09
1.31570161847e-10
3.41743473452e-10
1.62740465776e-10
1.2696517167e-09
2.73587104923e-09
2.17141950308e-09
8.93608080823e-10
1.64981188484e-09
1.26004837361e-09
2.28252441746e-09
9.53849508812e-10
1.28769664539e-09
2.95299252703e-09
4.17745738186e-10
7.95895740259e-10
6.72049493095e-10
6.78894314653e-10
2.4584929315e-09
9.17156117891e-10
3.63023935436e-09
8.23255630642e-10
3.47684672533e-09
1.65957506909e-09
2.90515134431e-09
2.04799083735e-09
3.0673148864e-10
3.56708237189e-10
2.78290885516e-09
1.87210707452e-10
1.45494706911e-09
1.23866539137e-09
1.64447609276e-09
1.92775759791e-09
3.31508526696e-09
1.14121681949e-10
4.78966261318e-09
3.28763886548e-10
2.81620760561e-09
6.69484096508e-09
1.63847816334e-09
2.53614883606e-10
1.56136181183e-09
1.47581244508e-09
1.98713382522e-09
8.48216205564e-10
5.75304139446e-09
1.27903353854e-10
2.34353462145e-09
4.65725112788e-09
1.16059874851e-09
3.09709367499e-10
2.57180438958e-09
6.78240540574e-10
2.40519873703e-09
2.06505583547e-10
3.46985968354e-10
2.87823490983e-10
1.46099732694e-09
2.97231560695e-09
1.69594253142e-09
4.20902283656e-09
5.16060968462e-10
6.21153030494e-10
2.18170598553e-09
4.39111389766e-10
2.98505151857e-10
9.16251429326e-10
2.90679576193e-09
1.92292075945e-09
1.64676582414e-09
6.1021939361e-10
9.46657026747e-10
5.2242821839e-10
8.70710627304e-10
1.3845235006e-09
7.45582275495e-10
5.83579048684e-10
3.01425425197e-10
2.49906701416e-09
1.92791172624e-09
1.47152729185e-09
3.9486650187e-10
1.93492816663e-09
9.99684100576e-10
2.61882661849e-09
2.57227020069e-09
6.2932868884e-10
7.93933344776e-10
6.4173093901e-11
2.50471865681e-10
2.76205750252e-09
4.6882055635e-09
2.42860795267e-09
8.80447270509e-10
1.31214430936e-09
2.32701930977e-09
2.37839009663e-10
1.82832533866e-09
1.4971626558e-09
3.55886520155e-10
2.54842761364e-09
2.69133008424e-09
5.29230442064e-10
1.8959291649e-09
1.83249752779e-10
1.04565347609e-10
3.42504790053e-09
2.59407632812e-09
7.26576205758e-10
1.917361846e-09
1.81937395225e-09
8.93279681623e-10
4.11513806056e-09
1.47135873675e-09
1.51098996803e-09
1.38273345407e-09
5.65430627642e-09
3.08708223332e-10
9.50743207323e-10
2.77444529372e-10
5.45668636474e-11
1.38502689317e-10
8.92700076001e-10
1.37932938164e-09
1.59432138927e-09
1.82891905343e-09
2.79525967932e-09
2.32988119551e-09
1.47997826247e-09
4.75716619137e-09
5.10739485345e-09
4.22547278088e-09
1.4418044388e-09
8.34390577526e-10
2.11274722245e-09
7.0464591113e-10
5.44482519039e-11
1.24156302556e-09
2.20671373504e-09
1.91895891739e-09
3.23431696636e-09
1.66363966745e-10
1.83164975564e-09
8.50466910693e-10
1.76673662972e-09
9.25759458594e-10
2.69502171928e-09
3.98367366469e-10
5.67487655952e-10
1.40422704935e-10
3.32694760549e-10
1.57233346544e-10
1.23344226803e-09
2.51789897125e-09
2.01485696926e-09
2.76582240082e-09
1.00520582308e-09
3.39677489431e-10
1.83566271209e-09
4.81945499646e-09
3.79627270796e-10
1.21779615207e-10
1.61094834719e-09
5.04010891026e-10
1.7888748368e-09
1.05858762036e-09
1.58031077946e-09
7.14413452889e-10
4.67770716543e-10
7.24749949724e-10
1.00816900372e-09
2.52277146031e-10
1.60092427928e-09
2.50616577938e-09
5.77746794131e-10
1.2018379869e-09
1.88447559423e-09
1.23031260684e-09
2.62636656651e-09
3.21197495082e-09
3.58469220716e-10
3.83608543853e-09
7.57613594028e-10
5.87432847994e-10
1.51824901292e-09
5.52073276345e-10
1.99129328778e-09
8.47256519612e-09
3.5083994826e-09
9.89024359e-10
2.25794147563e-11
2.33183489653e-09
2.29370014608e-09
2.82501651853e-10
2.24885933026e-09
3.51199201371e-09
2.20913626742e-09
3.05028916108e-09
2.6596958931e-09
6.7156838242e-10
3.4510769428e-09
7.49867161923e-09
1.68036470166e-09
9.58539146854e-10
8.65000155786e-10
1.338607265e-09
1.15141197013e-09
3.5187636392e-09
8.54436070452e-10
2.3154028581e-09
1.33260784476e-09
4.71380045382e-09
5.96806267097e-10
3.46471474179e-10
6.62825285658e-10
2.36424831157e-09
7.69412352489e-10
3.00476880261e-09
3.76729695799e-09
4.37938697227e-09
3.47662237854e-09
5.55985515059e-10
5.08270735329e-10
2.90416783289e-09
6.51044007567e-10
3.80739931352e-09
1.65456559612e-09
6.22153111308e-10
9.49663857305e-10
9.04613314519e-10
2.21163762055e-09
5.88526491655e-10
2.59184730162e-09
1.10872053689e-09
4.22837515353e-09
1.01922600802e-09
1.86534223299e-09
1.04812656218e-09
1.80382543032e-09
1.81696690821e-10
2.93954814305e-09
1.73793502537e-11
6.96987563269e-10
3.57245238396e-09
2.14936687741e-09
1.88133399872e-09
4.16972044488e-10
4.99891198084e-09
1.84083662341e-09
3.79582456733e-09
3.14510457661e-10
2.23122447261e-09
7.38881092297e-10
7.78696710532e-10
1.07288746026e-09
1.37486771202e-09
1.20780314821e-09
3.33798382651e-09
3.76587218058e-10
3.16517272802e-09
9.69689893856e-10
1.47240099008e-09
3.41182742861e-09
3.64336949733e-09
3.81958871404e-09
3.11642495866e-09
6.36021564083e-09
1.16722682535e-09
1.7829286576e-10
6.17990914873e-10
6.97848005654e-10
9.66631662796e-10
3.72716236034e-09
3.52299464992e-09
1.07297837627e-09
4.01058281365e-09
4.31814725888e-10
1.98316986437e-09
1.54662764169e-09
3.6815778062e-10
1.84681919472e-09
2.69817795486e-09
2.13393713332e-09
1.47297467343e-09
7.59230072814e-10
2.36530926406e-10
2.71796015619e-09
3.08052264213e-09
1.50255588491e-09
2.42809140556e-10
1.37183871895e-09