# vtk DataFile Version 3.0
File Name: Molecule/sphere_cent/sphere_cent_0-s41.vtk
ASCII
DATASET UNSTRUCTURED_GRID
FIELD FieldData 1
TIME 1 1 double
0.0
POINTS 3490 double
-0.32020059228 0.91545122862 -0.24367184937
-0.25198188424 0.94920825958 -0.18825154006
-0.24651445448 0.92919713259 -0.27538344264
-0.26007422805 0.36715441942 0.89306354523
-0.27961921692 0.29603612423 0.91328501701
-0.20031674206 0.29519349337 0.93414461613
0.62842899561 0.69612491131 -0.34709301591
0.69849920273 0.64627701044 -0.30726504326
0.66912126541 0.63213449717 -0.39050632715
0.45116353035 0.15785451233 -0.87835365534
0.3633506 0.17773865163 -0.91453224421
0.40156376362 0.23804439604 -0.88436770439
0.32095897198 0.23466014862 -0.91748356819
0.13174922764 0.014581809752 -0.99116677046
0.05119908601 0.026077931747 -0.99832868576
0.098025374115 0.092133879662 -0.99077767134
0.42176476121 0.77734088898 0.46670299768
0.38961744308 0.82401299477 0.41133484244
0.34192323685 0.80235701799 0.48917785287
0.082954652607 -0.05714622885 -0.99481111765
0.41030037403 0.85602492094 -0.31442159414
0.4224395752 0.87493151426 -0.23671978712
0.48052343726 0.83391684294 -0.27134236693
0.30463209748 0.0031369123608 -0.95246219635
0.38524273038 0.0026131644845 -0.92280930281
0.34515365958 -0.070226825774 -0.93564367294
-0.13682624698 0.49916929007 -0.85563749075
-0.049822550267 0.50034862757 -0.86436384916
-0.090411484241 0.43605905771 -0.8950561285
0.93077021837 -0.22117958963 -0.29107663035
0.90079885721 -0.25370290875 -0.35241305828
0.92071032524 -0.16885775328 -0.35136678815
0.10569985956 0.71433287859 0.69177395105
0.021830083802 0.68953126669 0.72391986847
0.094731040299 0.64385789633 0.75924789906
0.34713387489 0.37441390753 0.85982906818
0.38324955106 0.42765676975 0.81865793467
0.30222681165 0.44280490279 0.84414160252
-0.43887132406 -0.87719327211 -0.1947452724
-0.45695960522 -0.88044929504 -0.12636105716
-0.51097255945 -0.84194892645 -0.17324115336
-0.37592712045 -0.91407072544 -0.1520819068
0.70711320639 -0.46474713087 -0.53290718794
0.64686238766 -0.51193523407 -0.56522661448
0.66832852364 -0.44627165794 -0.59510320425
-0.5875480175 0.53729140759 0.60495054722
-0.5780774951 0.48120212555 0.65870559216
-0.52903228998 0.53421628475 0.6593028307
-0.36319544911 -0.90118139982 -0.23646430671
0.37359443307 -0.6997269392 0.6086332798
0.44365188479 -0.66739106178 0.59806954861
0.37530478835 -0.64259576797 0.66789644957
0.11335966736 0.42965045571 0.89585214853
0.13182519376 0.50682878494 0.85188031197
0.05922594294 0.49883043766 0.86448788643
-0.21550306678 0.62648040056 0.74904477596
-0.29027584195 0.62857985497 0.72152638435
-0.25785505772 0.5868652463 0.76749104261
0.40783151984 -0.71087926626 -0.57288485765
0.40061369538 -0.76427030563 -0.5051651597
0.34434610605 -0.75649040937 -0.55599749088
0.857393682 -0.088604107499 -0.50695878267
0.85461699963 -0.17696788907 -0.48817643523
0.81055104733 -0.16832125187 -0.56094223261
-0.5148512125 -0.023816173896 0.85694497824
-0.44914162159 -0.082638680935 0.88962393999
-0.43295058608 -0.016546409577 0.90125077963
-0.45564818382 0.87696474791 0.15254917741
-0.4805470407 0.84538447857 0.23320196569
-0.40276834369 0.8882650733 0.21984946728
-0.52984553576 0.83406847715 0.15148934722
-0.41950914264 0.85392254591 0.30792206526
-0.96247059107 0.23069742322 -0.14282698929
-0.95275717974 0.28826519847 -0.095733396709
-0.93658453226 0.30863034725 -0.1659424752
-0.97017174959 0.23661540449 0.052707199007
-0.98248964548 0.18582648039 -0.01085485518
-0.98662793636 0.14885619283 0.06630884856
-0.92177438736 0.37290844321 -0.10603788495
-0.24404895306 -0.96288597584 -0.11528006196
-0.18736357987 -0.98057669401 -0.057874888182
-0.26438525319 -0.96348184347 -0.042321380228
-0.43793818355 -0.89509040117 0.083777949214
-0.38304364681 -0.91098129749 0.15293958783
-0.45262143016 -0.87773197889 0.15717768669
-0.63389700651 0.57472479343 -0.51723265648
-0.65252095461 0.61856293678 -0.43771240115
-0.59054923058 0.64593935013 -0.48374173045
-0.91197013855 -0.30397596955 0.27534669638
-0.89000397921 -0.37533387542 0.25883120298
-0.88005787134 -0.33555594087 0.33601436019
-0.83010137081 -0.53098231554 0.17022332549
-0.83303296566 -0.49956020713 0.23755341768
-0.87609875202 -0.44765165448 0.1790369153
-0.77925544977 -0.51454144716 0.35774150491
-0.7636706233 -0.48619574308 0.424705863
-0.8107239604 -0.4430475235 0.38265421987
-0.94737571478 -0.27571964264 -0.162636742
-0.95665454865 -0.20678596199 -0.20501033962
-0.92480313778 -0.28920254111 -0.24716746807
-0.66406625509 0.74715512991 -0.027820128947
-0.70081025362 0.70990157127 -0.069921247661
-0.72281050682 0.69076806307 -0.0045226346701
-0.77509576082 0.59428870678 -0.21452949941
-0.80937373638 0.56682687998 -0.15366265178
-0.76545810699 0.62578141689 -0.14995443821
-0.82184433937 0.52495062351 -0.22133238614
-0.16248504817 -0.84490615129 0.50962179899
-0.077049769461 -0.83671736717 0.54215610027
-0.12930487096 -0.79336762428 0.5944455266
-0.036185566336 -0.79135859013 0.60989952087
-0.084499180317 -0.7412763238 0.6657140255
-0.77370363474 0.56715941429 -0.28231033683
-0.84972459078 0.50833284855 -0.13975308836
-0.6852004528 -0.52977526188 -0.49982520938
-0.69391661882 -0.4518674314 -0.56061404943
-0.62976127863 -0.51857978106 -0.57833391428
-0.10479918122 0.88235664368 -0.45872092247
-0.14565035701 0.89800131321 -0.41514226794
-0.072751790285 0.91396045685 -0.39921808243
-0.081576772034 0.94101184607 -0.32825878263
-0.0013545902912 0.92971032858 -0.36825555563
-0.52127373219 -0.58879768848 0.61771541834
-0.58566588163 -0.58750969172 0.5577608943
-0.52584338188 -0.64395695925 0.55560708046
-0.63531035185 -0.44779124856 -0.62912112474
-0.50510692596 0.85847812891 0.088653661311
-0.97609996796 -0.1659438163 -0.14000344276
-0.97286051512 -0.12670816481 -0.19303418696
0.047509860247 -0.24071861804 0.96942061186
-0.018800422549 -0.28858688474 0.95724773407
0.057527828962 -0.31864342093 0.94604921341
0.95334708691 0.12105239183 -0.27646255493
0.9713460207 0.12995159626 -0.19889774919
0.97371470928 0.051836688071 -0.22175641358
0.45736348629 -0.88469308615 0.089732341468
0.40773501992 -0.91187310219 0.047294050455
0.47400978208 -0.88016068935 0.016053998843
0.56510394812 -0.82415747643 -0.03007540293
0.5240008235 -0.84566944838 -0.10094346106
0.57639402151 -0.81055098772 -0.10200865567
-0.7306907177 -0.63167089224 0.25897851586
-0.71202033758 -0.63297992945 0.30376690626
-0.76289474964 -0.58673274517 0.27130448818
0.10769432783 -0.56228727102 -0.81979990005
0.082225367427 -0.48666623235 -0.86970967054
0.1680521965 -0.50430870056 -0.84698921442
0.045340899378 -0.41842782497 -0.90688955784
0.11301706731 -0.40378838778 -0.90784710646
0.1526299268 0.013389439322 0.98795074224
0.089872062206 0.049812786281 0.99468261003
0.094612918794 -0.035372979939 0.99486219883
-0.19543892145 -0.1592592001 -0.96769160032
-0.12216387689 -0.19364690781 -0.97338312864
-0.18695637584 -0.24050107598 -0.95247131586
0.7848149538 -0.31414303184 -0.53422659636
0.72768723965 -0.3073874414 -0.61317932606
0.771035254 -0.24533157051 -0.58763480186
0.81475251913 -0.23474769294 -0.53016251326
-0.7358238101 -0.58484226465 0.34130224586
-0.73558658361 -0.54412788153 0.40325078368
-0.68788594007 -0.6096791029 0.39375388622
-0.68533098698 -0.63983398676 0.34764680266
0.63141614199 -0.70183777809 -0.32965657115
0.57997393608 -0.74334269762 -0.33293905854
0.59033501148 -0.70166003704 -0.39894607663
0.75337225199 -0.60052591562 -0.26757091284
0.71243494749 -0.61579358578 -0.33647179604
0.76016050577 -0.55594569445 -0.33627927303
0.82329940796 -0.022321924567 -0.56715404987
0.82703697681 0.052333906293 -0.55932253599
0.86199605465 -0.0017784880474 -0.50682705641
-0.74470204115 0.25618073344 0.6162660718
-0.78741252422 0.23575751483 0.56954777241
-0.7672958374 0.16930288076 0.61853355169
0.77782928944 0.031889103353 -0.62763506174
0.72498548031 0.083882793784 -0.68362760544
0.77396208048 0.1200338155 -0.62172931433
-0.23159651458 -0.29826802015 -0.92592424154
-0.26515889168 -0.22224493325 -0.93824154139
-0.3419432044 -0.25036922097 -0.9057174325
-0.33853247762 -0.1775457561 -0.92392927408
-0.99606102705 0.05500267446 0.069380573928
-0.9950902462 0.098839461803 -0.0017380596837
0.93384176493 -0.35329696536 -0.054771285504
0.95317351818 -0.30169066787 -0.0068474886939
0.92729872465 -0.3735024333 0.021726887673
0.24064853787 -0.92962127924 -0.27907934785
0.23977954686 -0.90774184465 -0.34425449371
0.31521993876 -0.89870613813 -0.30470716953
0.17212486267 -0.93452763557 -0.3107765913
-0.7169457078 -0.68137270212 0.14695353806
-0.72773677111 -0.680542171 0.084647655487
-0.66909378767 -0.73312616348 0.12165205181
-0.57578462362 -0.78719252348 0.22089970112
-0.63865500689 -0.74392455816 0.19665342569
-0.59757566452 -0.78827726841 0.14662458003
0.45267945528 -0.24014604092 -0.85872071981
0.41567629576 -0.16816148162 -0.89354562759
0.47352027893 -0.16095976532 -0.86579751968
0.30968639255 0.6455886364 0.6977648139
0.33735242486 0.57365208864 0.74640017748
0.37915402651 0.60326462984 0.70164978504
0.39753776789 0.54289031029 0.73974883556
0.63332271576 -0.17827162147 -0.75305277109
0.60547500849 -0.13110044599 -0.78497254848
0.65877586603 -0.10594648868 -0.74483859539
0.5690536499 -0.19186368585 -0.79956793785
0.54594802856 -0.31720340252 -0.77544343472
0.53527778387 -0.24924646318 -0.80706435442
0.60176670551 -0.25018635392 -0.75845676661
0.33993047476 0.49881109595 0.79726207256
-0.51458328962 -0.8203651309 0.2494160831
-0.52827489376 -0.8312625289 0.1729772836
0.12490519136 -0.57840508223 0.80613940954
0.20716585219 -0.56576859951 0.79811477661
0.17398697138 -0.50591629744 0.8448420763
0.25856080651 -0.49939459562 0.82687842846
0.34086710215 -0.50731837749 0.79146933556
0.31191426516 -0.43769904971 0.8432790041
-0.95800381899 0.044051706791 -0.28334385157
-0.94820332527 0.12156835943 -0.29347726703
-0.93049818277 0.075484715402 -0.35822707415
-0.97267389297 0.10094166547 -0.20905163884
-0.9206327796 0.16203607619 -0.35521161556
[...]
CELL_DATA 6976
SCALARS cell_data_0 double
LOOKUP_TABLE default
3.61329833589e-09
5.03091819704e-10
2.16426848004e-09
8.24226979776e-10
2.73798643784e-09
7.9692198541e-10
2.87235649962e-09
4.06752712678e-10
6.42586392799e-10
1.88382511921e-10
2.23776752609e-09
1.33953883649e-09
4.46227262737e-09
1.95655532388e-10
1.19327801107e-09
3.7683122326e-10
3.64419483501e-10
1.2901714595e-09
3.40306072484e-10
3.43641543255e-09
1.05212677625e-09
6.00792193787e-10
8.24179913703e-10
5.45899310751e-09
2.19693802439e-09
9.39019168912e-11
2.89754090391e-09
2.94685163914e-09
1.23337289338e-09
2.28257796881e-09
1.00351060744e-09
6.24683142292e-10
9.46043925005e-10
3.76843669585e-10
2.34025905837e-10
1.99971839732e-09
2.91666296634e-10
2.99237206229e-09
1.72393354408e-10
6.80044289369e-10
4.01893700811e-10
4.41362021506e-09
5.64583022557e-09
1.09499686035e-10
2.97538599551e-11
1.07047070772e-09
3.6109461104e-09
8.12587876362e-10
1.98746951484e-09
4.93621967444e-09
1.54773596754e-09
5.19511410955e-10
1.34773598246e-09
7.58349788661e-10
3.11483964427e-09
7.28132456604e-10
1.94220664874e-09
8.71030458864e-10
3.96677767181e-09
3.44900889084e-09
1.35472815402e-09
3.80214342032e-11
1.51203133201e-09
3.33371388085e-11
1.26711606777e-09
1.32794598135e-09
1.34140247029e-09
1.2111721411e-09
4.89045512165e-10
2.74055270754e-09
1.15009742228e-09
1.28777117125e-09
3.01096789882e-09
2.26573590873e-09
4.90788767543e-09
2.63499896436e-09
1.07312892422e-09
1.23386738338e-09
7.6445547979e-10
4.05489015272e-10
2.60157738086e-09
1.77357466285e-09
2.50018372521e-09
2.78818108343e-09
4.84849087486e-10
3.91319496326e-10
2.82219824864e-09
2.21228534422e-09
3.17087969201e-10
5.08358947779e-10
3.36346453593e-11
9.14358369228e-10
1.16561625719e-09
8.44716559664e-10
2.78041248875e-09
1.92109993263e-10
1.33270554591e-09
2.12751486077e-09
8.25867075194e-12
3.07932642329e-09
2.36112481831e-10
1.59229521345e-09
6.32655272086e-10
7.84833402586e-10
1.47467638854e-10
2.23121666883e-10
4.22998814137e-09
2.27268364858e-09
1.35277136073e-09
2.28300915236e-09
8.0695937842e-10
2.45147309575e-09
8.50991651684e-10
1.65299843774e-09
1.95450088891e-10
2.59830469262e-10
3.30757884975e-09
4.38034802008e-09
3.27078086825e-09
3.20479046804e-09
6.80420925407e-10
2.02390103349e-09
4.57055482409e-09
8.89836405854e-10
1.94817203253e-10
2.35802285308e-09
3.48769301584e-09
1.9509411561e-09
5.15396768326e-10
1.19133561343e-09
5.46093964021e-10
4.67472446154e-09
1.67966455218e-09
1.02275010748e-09
9.09734119727e-10
1.94604920382e-09
5.51311601292e-09
3.11418088158e-09
5.05980582887e-10
5.78509196264e-10
1.9416813345e-09
1.39598371602e-10
9.93852112466e-10
3.02079696477e-10
1.68609404885e-09
1.14520045327e-09
1.30788648324e-09
3.79765201227e-09
2.26363961245e-10
1.79270374142e-09
1.71964950318e-09
2.110699906e-09
1.62656157735e-09
3.39765696372e-09
8.39635484158e-10
6.01959197127e-10
1.35675237428e-09
1.70043750206e-09
7.69517466448e-10
2.35217797675e-09
4.10036159079e-11
1.30555677364e-09
1.21421041542e-09
5.56308203866e-10
7.65982035725e-10
2.42206353207e-09
6.4411513628e-11
3.73786565591e-10
1.88241953999e-09
2.14649995708e-09
5.54639471152e-10
9.08257749234e-10
4.1527436146e-10
8.88924706559e-10
2.61479395973e-10
9.32040152637e-10
3.60561757048e-10
4.00413473135e-10
1.32144907111e-10
1.71256202608e-09
2.71489156298e-10
3.7720999278e-09
1.45933242756e-09
6.596298545e-10
3.58001035001e-11
1.21062603159e-10
1.48793148164e-09
1.94553930649e-09
9.24013845059e-10
1.08513426273e-09
1.04083659109e-09
1.54448378263e-09
1.30712393968e-10
1.31376540892e-09
3.64913823513e-10
2.25432451362e-09
2.43595601733e-11
1.33583013552e-09
5.61851730762e-10
1.80783373574e-10
1.47274687955e-09
1.45827453843e-09
3.32119073953e-09
9.16159450351e-11
6.73606656705e-10
8.3740101221e-10
1.85318285998e-09
1.43079336325e-09
4.52267676779e-10
6.7247215617e-11
3.68109565248e-10
1.39213680789e-09
7.70720158968e-10
1.60845829896e-09
4.2752156719e-09
2.98467795886e-09
4.69954958122e-10
9.21720769206e-10
9.87101808769e-10
6.14026583819e-10
2.20768675951e-09
2.97487372189e-10
6.31600612766e-10
5.07213297866e-10
1.37818196011e-09
1.32722830049e-09
3.12594776482e-11
8.14943289919e-10
1.44152421988e-09
1.47048860703e-10
1.16067054924e-09
7.94122691778e-11
2.31886518799e-09
1.71487495754e-09
1.71866862363e-09
3.26911236208e-09
8.1370526445e-10
2.28253621711e-09
1.14070289706e-10
1.87057258628e-09
5.04004000677e-10
3.27651697064e-09
2.77779481014e-09
6.14608752889e-11
2.4074559423e-10
1.42556258756e-09
1.66946800842e-09
2.47596277505e-10
1.74917691617e-09
3.41271956538e-10
1.15666239071e-09
1.03029154176e-09
1.87555820917e-09
1.23205741217e-09
1.67162582389e-09
6.48944371453e-10
3.54203027246e-09
1.99685232461e-09
7.82043691238e-11
1.24321797242e-09
2.01390773569e-09
1.68807089396e-09
3.79064612996e-09
6.82620132998e-10
1.73954218451e-09
1.58179741362e-09
7.96591290811e-10
5.62029186967e-10
9.63650197917e-10
2.88755920163e-09
2.45131101556e-09
3.26250365368e-09
3.9596037785e-09
4.41106837865e-10
1.0028227439e-09
1.03136134052e-09
1.1159138748e-09
3.56367553293e-10
1.74200007449e-09
3.14377200997e-10
2.05336136323e-09
6.3293718285e-10
1.17956564528e-09
9.19284116833e-10
3.06971381594e-09
4.20385533643e-10
8.10306459476e-11
4.83281267296e-09
3.05123510476e-10
6.43270118548e-10
2.13893762619e-09
1.34579767452e-09
1.09453234313e-09
9.6549718447e-10
1.01356197794e-09
8.25782168429e-11
2.21331065377e-10
3.01398795684e-10
4.38493902454e-10
5.40661993656e-10
2.7459366882e-10
1.16314066361e-09
1.32093409826e-09
2.36390991637e-09
1.03833762799e-09
8.49522157828e-10
3.4270380782e-10
5.32793172296e-10
9.89290033779e-10
3.0396114565e-10
2.92762077035e-09
2.67027890169e-10
6.11509639046e-10
8.92571621563e-10
1.51190368428e-09
8.23987384425e-10
1.09466045129e-09
8.9085832772e-10
6.8463003933e-10
4.09318165579e-09
2.00390801128e-09
8.59314715078e-11
2.68334972093e-09
5.02398558692e-10
1.67786563529e-09
1.46565166877e-09
9.04885263498e-10
1.95073512091e-10
8.26571229854e-10
1.48459122014e-09
3.0955362805e-09
1.38179752104e-10
1.469835887e-09
3.53135569307e-09
1.66420065023e-09
1.13528541049e-09
1.39475614758e-09
2.66875726336e-09
3.16052118561e-09
2.62048498144e-09
4.37721840055e-10
3.29690493711e-10
2.63153013046e-09
7.80823290975e-10
5.98377731114e-10
9.01440383689e-10
5.39643238542e-12
2.47826389257e-09
1.62319779991e-09
2.00189040701e-10
1.73326906344e-09
6.10239972357e-10
3.09227138228e-09
8.26974252658e-10
1.60693283797e-09
1.36858446849e-09
1.6924066852e-09
5.01198476186e-10
1.72983122207e-09
3.48629650274e-09
1.74340235694e-09
3.3131406238e-09
1.53125588997e-09
4.3459171133e-09
4.13690494892e-11
1.17990358966e-10
1.48921625086e-09
6.97347488896e-10
3.40152693645e-09
9.79896771257e-10
2.52341214819e-09
3.48223599408e-09
4.60500966372e-10
6.52974836458e-10
9.3291699697e-10
2.50156169182e-10
1.088173026e-09
8.25322684801e-10
6.52977308383e-10
5.9703632351e-12
7.70149544938e-10
7.57442211478e-10
1.40803894659e-09
6.20724049316e-11
1.44824992614e-10
1.87024919363e-09
1.45618586193e-09
9.66585699643e-10
6.91685923276e-10
1.91671088081e-09
3.30663431724e-10
8.94136213322e-10
1.7818913737e-09
5.52179244665e-10
1.16862663665e-09
6.08729850442e-10
1.59354039296e-09
6.85497479165e-10
2.62404032775e-10
6.43085369014e-10
2.56338205529e-10
1.40951387103e-09
2.21456408717e-09
3.35899935486e-10
2.69781494386e-09
3.18536692573e-10
1.40828641038e-10
2.79635436695e-10
7.70362844841e-10
1.19130565397e-09
4.437382502e-10
7.24161907233e-10
4.15684759847e-10
1.45183767171e-10
8.52045687509e-10
7.01268830752e-10
3.86866113383e-10
6.61062945347e-10
1.86269201228e-09
1.61930347102e-09
2.10259331434e-09
1.3597947695e-09
2.67379720932e-09
1.39008409081e-11
1.31474953743e-10
3.93775067659e-10
2.50928232853e-09
4.58466765576e-09
1.72750229027e-09
3.89529837214e-10
8.49093698319e-10
2.60878835565e-09
1.3386924482e-09
1.47569864373e-10
1.33858635176e-09
1.76928844736e-10
1.05182601011e-09
8.3668918811e-10
7.49842029626e-10
9.93018419314e-11
6.17844182078e-11
1.94098969965e-09
6.18963769504e-10
9.14446649583e-10
1.65134359282e-09
2.05213005805e-09
4.10356470544e-10
7.26221803589e-12
4.31570832627e-10
3.21432552043e-10
7.36207395677e-10
1.73029001624e-09
6.43818964338e-10
1.26320968117e-09
6.21328440976e-10
9.19132816551e-10
2.04991648233e-09
4.08489293096e-10
1.9042904818e-09
1.26031118574e-10
1.33001316317e-09
1.34793302889e-10
1.25469860134e-09
1.20939621726e-09
2.21199972028e-09
1.35927957656e-10
5.87975544822e-10
2.65667663827e-10
3.1046579641e-09
1.40549057553e-09
5.29703225529e-10
2.05178288465e-10
1.22532178785e-10
3.77280955433e-10
1.23534686593e-09
6.57030456696e-10
2.32313139434e-09
2.92726581297e-09
3.00606797544e-09
1.31875728927e-09
1.7992766192e-10
2.49424615707e-09
6.17925056333e-10
5.80801332569e-10
1.03169619925e-09
1.14558472129e-09
2.08173600769e-10
4.98553381891e-10
1.67626271457e-09
1.12877321498e-09
1.44482969022e-09
1.20319601841e-09
2.44358502388e-09
2.51501101783e-09
1.16377129671e-10
1.41841225521e-09
1.69368247488e-09
1.34187996091e-09
6.96545746941e-10
5.69661811495e-10
9.53458959556e-12
2.4527647672e-09
2.75732815613e-09
2.24629826547e-09
1.7026573079e-09
3.36040308856e-10
1.54573564745e-09
3.56322436689e-09
2.78659660573e-09
8.6271753197e-10
1.18269064916e-09
7.46648118966e-10
1.98811084345e-09
8.74983665771e-10
2.91395509442e-09
1.73358744384e-09
8.80639972422e-10
4.95298423874e-11
8.09985338994e-11
5.01061560272e-10
1.37312236371e-09
6.56015138167e-10
3.0476570575e-09
3.92048544817e-09
6.87526961006e-10
2.36204755372e-09
3.42313220967e-10
2.09628604309e-10
9.81410887973e-10
1.85787918528e-09
1.41340363305e-09
3.03542611749e-09
4.78577659452e-10
9.57367357794e-11
1.34062690695e-09
1.059539675e-09
7.61980325164e-10
2.73226116059e-09
1.87913786649e-09
2.7701298392e-09
1.84954588438e-09
9.91395842844e-10
6.49948316792e-10
1.44236988804e-09
1.69735399962e-09
1.38594949892e-09
2.8927804479e-09
1.9533335046e-11
9.97432993235e-11
4.58071711289e-10
1.58301436182e-10
5.3635444876e-10
5.03892363732e-10
3.33099323748e-09
1.47437830955e-09
1.99805855841e-09
9.19896920387e-10
1.77753483659e-10
3.23164401611e-10
4.24556843971e-10
7.76821119281e-10
1.32293966782e-09
4.49645825905e-10
3.46429529667e-10
1.96068032641e-09
6.58578599688e-10
1.28488973491e-10
2.45738262507e-10
6.19592981893e-10
5.96682532959e-10
7.55182236982e-10
1.75990211303e-09
4.99669808169e-10
1.92398161909e-09
1.16407219818e-09
2.82102076678e-10
4.01140575686e-10
1.80862318648e-09
1.08440882317e-09
2.90820747365e-10
2.60010183016e-11
1.30118960831e-09
2.75653004928e-09
1.68419650935e-09
9.24501769814e-10
4.01666323802e-09
5.21608824305e-10
1.03934834174e-09
9.25429949774e-10
1.77385261972e-09
3.02246558067e-09
1.94837482702e-09
6.90577544212e-10
1.70416955962e-09
2.72365415378e-09
1.08131982195e-09
9.33688940206e-10
7.20609460553e-10
2.2834279013e-10
4.81274041998e-10
4.22414874897e-10
1.14767624958e-09
1.27816770636e-10
1.61493348113e-09
6.09343989286e-10
1.27202519226e-09
1.90885293459e-09
1.30956488929e-10
3.14157769539e-10
2.73453279715e-10
2.4169736601e-09
1.92459391658e-09
1.46860266035e-09
1.45768773634e-11
2.32726252792e-09
1.82332144319e-09
1.56924555447e-09
7.07864948211e-10
1.33972149974e-09
1.01514335973e-09
2.53611617326e-09
8.30825527695e-10
6.64478408601e-10
4.59629506992e-10
1.48985311293e-09
4.21509913939e-10
9.07849952116e-10
2.47632805863e-10
1.83680650028e-09
3.21185650481e-10
2.03596714308e-09
1.12158823304e-10
3.80930270251e-10
6.4746201064e-10
7.4207166471e-10
1.00913814906e-09
3.49587831005e-09
1.38461476569e-09
7.26953332489e-10
8.76674830473e-11
7.21088834557e-10
2.54095162165e-09
3.21097267441e-10
9.70943539157e-10
9.82627715442e-10
3.11924460213e-09
3.33629443028e-09
1.25840860901e-09
7.493664727e-10
6.35358184285e-10
9.60976740239e-11
2.10631220339e-09
5.38250883066e-10
2.48928300584e-09
1.46267839297e-09
1.66540704952e-09
1.95646543046e-09
1.79632242058e-09
1.80403760252e-09
5.56689487663e-10
1.47036684213e-09
2.83406164792e-10
9.79910579613e-10
7.47849780429e-10
1.13946067225e-10
1.1346327972e-09
2.65369395844e-09
2.49217601001e-10
1.46130919604e-09
7.47833177698e-11
2.46308712626e-09
2.70264610377e-09
6.93515148869e-10
1.61201858226e-09
2.9875000089e-09
2.5689662776e-09
2.06731412231e-09
1.37012740854e-09
3.63208003635e-09
1.72682313073e-10
6.96655064263e-10
1.29099360066e-09
4.40528556212e-10
5.50447435038e-10
8.25531496601e-11
1.81636299257e-09
3.15340248263e-09
8.80243223123e-10
1.93908763068e-09
2.65753720435e-09
1.74935791151e-09
2.47624557447e-09
6.46987908686e-10
7.61891723417e-10
3.00462559842e-09
5.14328241385e-09
2.30530150896e-09
3.75276403542e-09
5.3893907874e-10
3.39665150068e-09
5.96848702344e-10
6.91487236585e-10
1.00190159572e-09
1.3708965196e-10
3.67425710379e-10
4.01025644449e-10
1.14345413461e-09
8.19740906472e-11
1.83412919066e-09
4.12856146505e-09
5.7075156587e-10
2.85276654953e-09
2.17344442691e-09
4.61362986296e-11
4.90019675827e-10
4.3574695469e-09
9.61509477144e-10
5.86441213258e-10
7.50652340357e-10
5.16224491569e-10
4.93525766092e-09
6.13227340159e-10
1.15451513271e-09
1.65515769371e-09
6.81171944689e-10
3.25809469415e-09
2.8824428853e-10
4.33479422433e-10
3.23594914313e-09
1.35149042407e-09
3.67373417247e-09
6.47219194389e-10
3.27053778463e-10
3.18412596789e-09
1.70651192686e-09
3.98246166218e-11
1.87004006722e-09
2.10636683179e-09
1.49276868665e-09
2.29569886965e-10
7.36491229534e-11
1.40537361181e-09
2.34130172517e-10
2.04441618482e-09
9.96658639147e-10
5.51743717745e-09
2.18251631528e-09
5.08059839206e-09
1.17454773907e-09
2.56947479136e-09
1.00711826344e-09
3.56841190037e-09
4.16862985796e-10
6.77789424478e-10
6.49232618998e-11
1.80579602655e-09
2.75581882272e-09
9.28099107233e-10
3.35560337182e-09
8.82671781641e-10
3.78307516725e-11
1.17235191791e-09
1.36199941166e-09
1.50164291812e-09
7.4927616714e-10
5.58728837017e-10
8.36567865183e-10
5.02573688471e-09
1.98797946749e-09
1.03944653995e-09
4.17154141088e-10
4.21085820686e-10
1.66323749525e-09
8.83012098473e-10
8.11388697014e-11
1.56245407401e-09
1.97633729638e-09
2.13126070967e-09
2.75297044185e-10
1.10061889506e-09
3.88811268613e-11
2.32943535514e-09
6.95092532008e-10
7.61870314782e-10
4.68502920402e-10
4.84335815073e-10
7.49816581522e-11
1.422902568e-09
1.64299763071e-09
5.09988590513e-10
6.28497078825e-10
2.15369984111e-09
8.6672120471e-10
1.26556713884e-10
2.60301319498e-09
6.77946539201e-10
7.61789478517e-10
6.87837420912e-10
8.82402027516e-10
2.63333407896e-10
7.45636613045e-10
5.75630907609e-10
3.33220318994e-10
1.28418100624e-09
6.20134067661e-10
2.0066618194e-11
2.88999033962e-09
4.03704789341e-09
1.53853701734e-09
8.80031038786e-10
6.84356115239e-10
4.63700984232e-10
6.16542539493e-10
3.57075272692e-09
1.10593178167e-09
1.85820778046e-09
1.06862504914e-09
2.30496688068e-09
3.64017905926e-09
1.16289989449e-09
6.80925160197e-09
1.22975510048e-09
1.38584702034e-09
2.62493707964e-09
1.11498948758e-09
1.09369281728e-10
8.30668927811e-10
1.69823452886e-09
9.43596514712e-10
2.60291805429e-10
3.91066252095e-10
1.67556694028e-11
3.55436610761e-09
5.97565890472e-10
1.17090949316e-09
4.01976485215e-09
1.15819225337e-09
2.05368878563e-09
1.43030051932e-09
1.84682313745e-09
4.47744316765e-10
9.75739604897e-10
1.59281702153e-10
8.75241188836e-10
6.9831281282e-10
1.85384123773e-09
2.17262301523e-09
3.12339667312e-09
1.07600793072e-09
4.32421451268e-09
6.77111767313e-10
3.14108292747e-10
3.59203036863e-09
5.38469266687e-10
1.20096488782e-09
4.25462053147e-10
1.5726470979e-09
2.377334422e-09
1.9279076092e-10
3.72487316596e-09
6.99104011488e-10
2.5564445912e-09
1.42327869336e-09
1.43570122673e-09
1.29844879671e-09
9.47916518707e-10
1.9658040379e-09
1.95931478995e-09
4.25021226834e-10
7.79640175183e-10
1.34174876828e-09
5.31534000501e-10
5.41796144186e-10
2.10606243587e-09
1.71302403766e-09
4.00377664325e-10
1.5376741987e-09
1.46156087331e-09
1.86242833496e-09
1.48779873823e-09
4.21383841422e-10
8.76449124105e-10
8.8858938787e-10
6.2458630458e-10
3.59326578586e-11
1.49588341092e-10
1.2658341917e-09
1.96939603035e-10
1.76828836592e-09
2.20132857867e-09
3.55215076334e-10
7.28468192312e-10
1.10377015939e-09
6.41330729417e-10
1.463901144e-09
1.75195861398e-09
7.89304199853e-10
2.37442410863e-09
1.76869859646e-10
4.1622458768e-10
4.20696575669e-10
1.68123727433e-09
1.48369620673e-09
2.75656387626e-09
1.34316778492e-10
1.10325834945e-09
3.88153276407e-10
6.55215161643e-10
1.2750476277e-09
5.25962900388e-10
5.03542193916e-11
1.37540076384e-09
1.04183172034e-09
1.08158155152e-09
4.72187146593e-10
1.50665970657e-09
1.777100397e-10
1.04005735667e-10
2.39281956422e-09
1.12290642371e-09
2.33046321572e-10
2.27857432136e-10
1.27915226298e-09
2.19691741821e-09
6.41859405638e-11
5.03639114803e-10
4.97447549226e-10
9.28617534745e-10
1.39822402155e-09
4.66148427345e-10
3.0743033728e-10
4.86641673386e-10
1.93114346568e-09
1.73584843263e-09
3.04374668802e-09
1.22440813989e-10
5.74210281709e-11
1.98552469439e-10
9.30320577592e-10
8.6534270456e-10
6.32437690403e-10
4.25110065059e-09
1.72508819719e-09
1.64271524884e-09
1.24057205558e-09
1.10049606393e-09
6.24247033664e-10
5.18931334179e-11
1.66797112677e-09
1.64327932535e-09
2.80153318278e-10
1.26307444976e-09
8.8009628902e-10
2.73571895738e-09
1.20724090303e-09
8.55525389295e-10
9.56709403892e-10
3.88858707079e-11
1.58641786679e-09
1.18830912546e-09
8.46711350944e-10
8.21799300715e-10
7.12872805608e-10
7.9956561774e-10
1.64524430363e-09
4.16206164007e-10
3.1536856933e-10
1.76191490211e-09
7.67306846487e-10
7.78919911002e-10
7.43170334534e-10
1.2224029685e-09
3.34923962279e-10
5.66190762949e-10
2.21876893915e-10
5.90996374522e-10
2.65884367542e-09
1.04808020402e-09
1.4139844985e-09
7.89011969822e-10
8.43304864213e-11
2.25566889974e-10
1.40290461873e-09
1.04030871116e-09
1.33221748998e-09
1.16284487498e-09
4.35394469402e-10
9.16454482255e-10
1.6922644161e-09
6.9659714532e-10
1.45278262324e-09
1.04951704473e-09
1.79603795646e-09
1.9740769449e-09
1.41704624626e-09
5.84107980049e-10
5.0038330754e-10
2.58276891824e-09
6.97575962656e-10
1.21822568283e-09
4.17480456164e-09
1.30111911572e-09
6.82152411915e-10
1.49720760459e-09
1.90884678486e-09
8.40756350088e-10
3.04817170333e-10
3.78403287856e-10
5.88606289945e-10
6.31911575961e-10
5.30847512918e-11
1.45561192803e-10
8.88684173629e-10
6.343323232e-11
1.41807430697e-09
2.40302851847e-09
2.06666745446e-09
1.40613493752e-09
9.26122854317e-10
2.99017285417e-09
7.044901923e-10
1.88191342768e-10
2.84937247892e-10
6.79272226901e-10
1.07455186122e-09
1.66303209818e-09
1.13929839128e-09
9.19943512412e-10
3.30116102027e-10
2.63731152865e-10
1.47708827879e-10
1.36085685217e-09
2.38485168279e-10
2.12329969288e-09
1.59480768557e-09
6.40765116629e-11
8.3515081697e-10
2.69729205831e-10
1.36054718956e-10
9.2203554602e-10
3.57357160853e-10
7.8937281981e-10
6.95219162699e-10
3.14421164468e-09
1.38509463358e-09
8.85730947608e-10
1.65662627624e-09
1.85985518471e-09
4.3772839531e-10
3.54027103914e-09
1.94639387742e-09
9.69553686477e-10
4.10700572933e-10
1.5952158885e-09
2.64537125514e-09
4.8692836154e-10
1.42257410478e-09
8.81492834827e-10
8.49860707289e-10
2.25344979248e-10
1.96167486965e-10
5.77536275336e-10
1.45595498829e-09
6.347587122e-10
4.18955766845e-10
1.92565409201e-09
3.89657832192e-09
2.75063942021e-09
1.62447748093e-09
7.7345708224e-10
2.52424670285e-10
1.01901749101e-09
4.99708483959e-10
1.66128665677e-09
1.09133152353e-09
5.08156022385e-11
5.46276433689e-09
1.15104338003e-09
1.53023281286e-09
1.64387572277e-09
5.64723226782e-10
5.95813109656e-10
4.05133385873e-11
4.27056352618e-11
2.53482787484e-11
2.70886614747e-10
4.80367506886e-11
7.3158107243e-10
7.11171170497e-10
7.37220985276e-10
2.72766385315e-09
2.63659651903e-09
7.28563078939e-10
4.38499024869e-10
2.60688705695e-10
1.94344730705e-09
8.08105841443e-11
2.0587220452e-10
9.09608809958e-10
1.85795891823e-09
3.08143496149e-09
1.28092972938e-09
2.35513518967e-10
8.11036430539e-10
1.45392551563e-10
7.33524288571e-10
1.49671210272e-09
3.06905219775e-09
2.38274999107e-09
1.77187310844e-09
7.46330940772e-10
2.90994509601e-09
2.21096403869e-09
1.32105951001e-09