# vtk DataFile Version 3.0
File Name: Molecule/sphere_cent/sphere_cent_0-s30.vtk
ASCII
DATASET UNSTRUCTURED_GRID
FIELD FieldData 1
TIME 1 1 double
0.0
POINTS 945 double
-0.43260258436 0.62706750631 0.64719003439
-0.49094808102 0.51116573811 0.70537304878
-0.33771145344 0.52762919664 0.77943176031
-0.87209075689 0.080246426165 -0.4825476706
-0.91035997868 0.16515831649 -0.37897771597
-0.84475749731 0.23993305862 -0.4780934751
-0.32646965981 0.46981757879 -0.82014268637
-0.40923434496 0.31765666604 -0.85534697771
-0.4748493433 0.4404681921 -0.76173478365
0.92449873686 -0.12925899029 -0.35858863592
0.97061151266 -0.094841696322 -0.22059194744
0.9362424016 -0.23450133204 -0.2607884109
-0.55711734295 0.28136914968 -0.78125333786
-0.18205435574 -0.55014806986 -0.81483674049
-0.099393174052 -0.66443103552 -0.74022781849
-0.26134073734 -0.6554197669 -0.70861279964
-0.40037679672 -0.54065901041 -0.73980534077
-0.4059791863 -0.66456836462 -0.62733864784
0.85614734888 0.50744438171 -0.09239153564
0.88869637251 0.40405336022 -0.21611355245
0.80961406231 0.54356843233 -0.22130034864
-0.98222589493 -0.16301643848 -0.092621989548
-0.94762665033 -0.28779304028 -0.13825286925
-0.963555336 -0.26694881916 0.012883825228
-0.77488052845 -0.50391513109 -0.38116592169
-0.74204498529 -0.61438822746 -0.26799550653
-0.82945108414 -0.49856072664 -0.25171491504
-0.8405649066 0.30658057332 0.44659259915
-0.879386127 0.36961427331 0.30007576942
-0.9161080718 0.22806291282 0.32935294509
-0.68173950911 0.70091772079 -0.20940379798
-0.5800986886 0.79387682676 -0.1821796447
-0.60067456961 0.72990953922 -0.32500937581
-0.79855895042 0.42885735631 0.42232733965
-0.46804371476 0.82299798727 -0.32181784511
-0.73241645098 0.36974060535 0.57161712646
-0.98565983772 0.14157755673 0.090577438474
-0.94145107269 0.29030975699 0.17124862969
-0.96364414692 0.26488310099 0.03309481591
-0.42891994119 -0.76094126701 -0.48681682348
-0.29586473107 -0.76980721951 -0.56553345919
-0.29938539863 -0.8570176363 -0.41936871409
-0.34744685888 0.90184265375 -0.2566640377
-0.31381767988 0.85773265362 -0.40712949634
-0.21338184178 0.93327492476 -0.28870067
-0.24239465594 0.95755201578 -0.15588375926
-0.32977387309 0.76116347313 -0.5583358407
-0.43923094869 0.7747464776 -0.45425134897
-0.047651924193 -0.99872487783 0.01496741455
-0.084034971893 -0.98876690865 -0.11659687757
0.047444485128 -0.99621510506 -0.072528928518
-0.85953193903 -0.28079357743 -0.42701932788
-0.83301180601 -0.17663992941 -0.52422428131
-0.77819776535 -0.29854518175 -0.55237698555
-0.787751019 -0.59630769491 -0.15429066122
-0.6758980751 -0.72352045774 -0.14019586146
-0.69372904301 -0.72013765574 -0.0028848694637
-0.57411819696 -0.8187392354 0.0020005265251
0.49121308327 0.81894904375 0.29670077562
0.46428048611 0.76364070177 0.44865992665
0.59641224146 0.71315175295 0.36837035418
0.55999225378 0.64951646328 0.51435756683
0.41984534264 0.689915061 0.58965581656
0.68253368139 0.59035861492 0.43082001805
0.52342689037 0.56387341022 0.63882255554
0.64995157719 0.51145136356 0.56210780144
0.60311728716 0.42421588302 0.67549717426
0.76286375523 0.43263095617 0.48049923778
0.70368510485 0.36671468616 0.60774970055
-0.56973278522 -0.3006477356 0.76435995102
-0.45381596684 -0.39177939296 0.80029308796
-0.44723203778 -0.25198277831 0.85817807913
-0.32644698024 -0.34202834964 0.88116663694
-0.32529190183 -0.49718910456 0.80431723595
-0.30758205056 -0.19664163888 0.93049770594
0.34077697992 -0.93435788155 0.10353334248
0.20782509446 -0.97132819891 0.1151683256
0.29139855504 -0.95589059591 -0.021264266223
-0.13467757404 -0.91443377733 0.38159587979
0.022465834394 -0.9110827446 0.41160321236
-0.058493789285 -0.85291522741 0.5187279582
-0.04077719897 -0.9641597271 0.26200088859
0.090177536011 -0.81501245499 0.57233339548
-0.15827178955 0.27381259203 0.94861119986
-0.32307294011 0.27831706405 0.9045112133
-0.23484662175 0.16141904891 0.95852768421
-0.38201922178 0.1491625458 0.91202908754
-0.48041158915 0.26600512862 0.83574223518
-0.28327527642 0.043006718159 0.95797771215
0.72006636858 0.63542747498 0.27882143855
0.60966742039 0.7606819272 0.22280959785
0.81584644318 0.28527837992 0.50133681297
0.85863667727 0.36682614684 0.35806047916
0.78083628416 0.50935035944 0.36174610257
-0.40002790093 0.39670789242 0.82618159056
-0.25067082047 0.40049108863 0.88130545616
-0.65208995342 -0.74961847067 0.11199717224
-0.068402804434 0.13149593771 0.98883503675
-0.77473539114 -0.58166319132 0.2478633672
-0.73556673527 -0.65601867437 0.16834239662
-0.68243134022 -0.67190378904 0.28769612312
0.68275493383 0.59516018629 -0.42357653379
0.55478096008 0.65752565861 -0.50977885723
0.59420627356 0.7162219286 -0.3659504354
0.4652672708 0.76847624779 -0.43927153945
0.42095088959 0.69625222683 -0.5813986063
0.50378888845 0.81317746639 -0.29140642285
-0.25130757689 -0.00029383669607 -0.96789598465
-0.37824052572 -0.016404319555 -0.92550927401
-0.33224084973 0.15025955439 -0.93112635612
-0.47511968017 0.17321752012 -0.86260813475
0.51187127829 0.33655151725 0.79038399458
0.63419616222 0.29600718617 0.71418201923
0.58131963015 0.20285761356 0.78741943836
0.28961834311 0.72388523817 -0.6260843277
0.32777878642 0.80389213562 -0.49625766277
0.2003352195 0.80949521065 -0.55138683319
0.22131940722 0.89333575964 -0.39099183679
0.19390888512 -0.13998498023 0.97026836872
0.16601343453 0.01564011164 0.98589783907
0.060533102602 -0.068095594645 0.99550563097
0.15573309362 -0.25893074274 -0.95324069262
0.22941784561 -0.1244392097 -0.96533977985
0.3109703362 -0.25310176611 -0.9160721302
0.35205900669 -0.10038416833 -0.9304920435
0.28620636463 0.015743952245 -0.95803540945
0.37006080151 0.86081528664 -0.34938904643
0.29210984707 0.93035024405 -0.21888671815
0.25371086597 -0.38504910469 -0.88728946447
0.38690930605 -0.38373553753 -0.83848893642
0.44024676085 -0.26555114985 -0.85768526793
0.32113733888 -0.50700634718 -0.79980808496
0.10881290585 0.86921143532 -0.48221871257
-0.054982755333 -0.50202876329 -0.8628231287
-0.15385720134 -0.41092205048 -0.89854770899
-0.34298071265 -0.14908103645 -0.9273788929
-0.28808647394 0.94955575466 0.12382832915
-0.24452644587 0.93079602718 0.2707053721
-0.14148387313 0.97324889898 0.17810437083
0.0065177688375 -0.21199828386 -0.97723507881
0.089872024953 -0.11220786721 -0.98960453272
-0.040840655565 -0.088847264647 -0.99516439438
0.020486820489 0.02007994242 -0.99957817793
0.79338890314 0.330873698 -0.51091742516
0.68732124567 0.40885061026 -0.60036665201
0.73211115599 0.46884477139 -0.49417042732
0.62372541428 0.53381490707 -0.5709682107
0.5669785738 0.43522205949 -0.69897466898
-0.44194921851 -0.89563602209 0.049087002873
-0.48280036449 -0.86201560497 0.15442377329
-0.82779985666 0.44548210502 -0.34062108397
-0.89321649075 0.30874440074 -0.32683199644
-0.88027215004 0.41561833024 -0.22884021699
-0.92859697342 0.31863576174 -0.19007726014
0.13339285553 0.72048413754 0.68051844835
0.08437436074 0.62067294121 0.77951717377
0.21947494149 0.61880809069 0.75428748131
0.17285606265 0.51478070021 0.83967572451
0.29968056083 0.48518833518 0.82143008709
0.999556005 0.0033198045567 0.020725620911
0.98625433445 0.16186703742 0.032586172223
0.98197245598 0.095722526312 0.16302616894
0.95858860016 0.24870145321 0.13854447007
0.9425932765 0.33169808984 0.030581124127
0.90522807837 0.38684299588 0.17579177022
0.62758886814 -0.33906650543 -0.7008125782
0.5187613368 -0.35683888197 -0.77688914537
0.59586882591 -0.24113932252 -0.76581352949
0.57614010572 -0.45778542757 -0.67709988356
-0.16738294065 -0.75494933128 -0.63405507803
0.81603497267 0.42768913507 -0.38718420267
0.74986195564 0.64694082737 -0.13837297261
0.79216021299 0.60925799608 0.0081962570548
0.64924240112 0.75795245171 -0.058554235846
0.62588942051 0.75060504675 -0.21176892519
0.70253556967 0.65482378006 -0.27861177921
0.70395386219 0.28168419003 -0.6513953805
-0.18410402536 -0.84174746275 -0.50690275431
0.95992982388 -0.0057044802234 0.28015962243
0.94348561764 0.12920285761 0.30497762561
0.49853187799 0.46566465497 0.73115664721
0.49626529217 0.57412552834 -0.65123480558
0.072071582079 -0.22907310724 0.97026598454
0.18053457141 -0.29633831978 0.93785536289
0.42191338539 0.24039521813 0.87412297726
0.36400592327 0.3516086638 0.86245882511
0.41469064355 0.43724089861 0.79800421
0.41054466367 0.53131860495 0.74098974466
0.15466091037 0.011244842783 -0.98788964748
0.45640432835 -0.48704212904 -0.74459588528
0.52710294724 0.83797138929 -0.14124724269
0.42246297002 0.48794785142 -0.76381808519
0.36248981953 0.6172170639 -0.69766896963
0.80852305889 -0.54177135229 0.2296025455
0.77918243408 -0.62061840296 0.087810389698
0.84480547905 -0.52179551125 0.11541523784
0.84029519558 -0.54089230299 -0.030559899285
-0.072378322482 0.28721579909 -0.9550369978
0.046389520168 0.4026376009 -0.91414833069
0.099663935602 0.26702564955 -0.95851242542
0.37934857607 0.89872097969 0.2199754715
0.36428871751 0.85448688269 0.37034204602
0.25942671299 0.91373968124 0.31226801872
0.23320402205 0.86823707819 0.43788859248
0.53867727518 -0.019990919158 -0.84225177765
0.40845671296 0.023146487772 -0.91249614954
0.47170218825 0.1289087832 -0.8722833395
0.3439258337 0.14453168213 -0.92780470848
0.41200426221 0.2564535737 -0.87433838844
0.21101802588 0.1459120214 -0.96652507782
0.26855680346 0.27227222919 -0.92398279905
0.088003836572 0.12585780025 -0.98812496662
0.34320774674 0.38737824559 -0.85565829277
0.19661727548 0.39814680815 -0.89596575499
0.27318167686 0.50675368309 -0.81707412004
0.47433555126 0.35902088881 -0.80379873514
0.12843431532 0.51483094692 -0.84754049778
-0.019421622157 0.51234233379 -0.85855484009
-0.035540267825 0.15359997749 -0.98746681213
0.51313960552 0.85828542709 0.0028470857069
0.60469359159 0.79182070494 0.085801109672
0.70184981823 0.69875311852 0.13513582945
0.49999117851 0.85290801525 0.15021121502
0.79124951363 0.59242641926 0.15125909448
0.86201483011 0.49655923247 0.096801556647
0.83633691072 0.49338746071 0.23898167908
0.85804408789 -0.035980813205 0.51230049133
[...]
CELL_DATA 1886
SCALARS cell_data_0 double
LOOKUP_TABLE default
2.52892314505e-08
1.76198372434e-09
1.28145639188e-08
4.79235507726e-09
3.06010077273e-08
2.59847141457e-08
1.2347193431e-08
4.34014010559e-09
2.14720142719e-09
5.94091689787e-10
1.01645244104e-08
3.64682188982e-09
2.99846150163e-09
4.27512925992e-08
1.52459238599e-08
1.28290874044e-08
1.94209434324e-08
8.73734673282e-09
1.34717503809e-08
8.22330645174e-09
2.90798463109e-08
1.07463058495e-08
6.00497276041e-09
2.91696453958e-08
2.62700751957e-08
5.95676547536e-09
5.32418427104e-10
2.10514033889e-08
1.76541105787e-08
2.42601583804e-08
1.03732843616e-08
9.26461567299e-09
5.43394636913e-09
1.7893861369e-08
1.46897230961e-08
1.60652590309e-08
1.09390028135e-08
2.20749637582e-08
3.05437623004e-08
2.33306798137e-08
6.17888318789e-09
1.87409371667e-08
4.10436564318e-09
2.52846741935e-08
1.90489941626e-08
1.4517161565e-08
2.81522599376e-09
1.37328421649e-08
1.91602032044e-08
5.35430804303e-09
9.9776700368e-09
7.37377613409e-09
7.63880920436e-09
2.21630584143e-08
2.864580815e-08
3.28678768533e-09
6.21420179475e-09
2.26806374381e-08
1.71639147727e-08
3.20350562091e-09
1.66583263781e-08
1.15233354039e-08
6.19258164029e-09
1.27342330259e-08
6.01079908344e-09
5.50978333736e-09
4.40888062567e-09
2.8626271814e-09
2.41274888239e-09
1.50956766928e-08
5.2028920113e-08
6.34106630684e-09
7.14335887938e-09
1.17008744763e-08
1.17753514556e-08
2.81337848483e-08
2.25914871829e-08
1.2556831217e-08
8.63943518827e-09
9.07183966877e-09
3.83436325071e-08
1.95066787506e-08
4.17050279904e-09
2.4127135438e-09
7.3292554743e-10
1.67430354658e-08
1.45451796901e-08
1.29516968772e-08
1.14740131682e-08
6.58986622489e-09
1.95796733084e-08
2.53410353125e-08
6.60385649475e-10
2.17122549483e-08
2.7101700802e-09
4.95252705871e-09
1.23136152268e-08
5.2624811115e-09
9.94517576095e-09
9.84685084289e-09
2.90810945494e-08
1.1816721962e-08
1.79638563402e-08
1.02161945286e-08
1.04916956514e-08
2.50780580392e-09
6.31808614905e-09
2.49906290969e-09
2.94183648146e-08
5.19400747202e-09
1.15742474755e-08
1.21425309838e-08
1.17670616839e-09
6.10831588096e-10
1.3344451889e-08
2.83028287937e-09
1.03158590408e-08
5.61801009309e-09
3.1096476254e-08
2.18444120042e-09
7.86079041152e-09
3.33745279746e-09
6.46024669707e-09
2.64865931071e-08
9.6632830781e-09
7.01649996694e-09
5.30744696166e-09
1.17976131937e-08
7.17067127776e-09
5.03221069922e-10
1.01341909211e-08
6.39482407526e-09
3.24298494344e-08
4.9841919159e-09
5.88592441524e-09
1.6505119181e-08
5.76612197086e-09
3.21239989911e-09
4.65815321174e-10
1.53836522442e-09
8.29955354532e-09
4.68234002713e-09
1.68939532219e-08
1.60675308783e-08
9.80428091939e-09
1.58440131266e-08
1.002884871e-08
5.295400734e-09
3.00574371216e-09
7.71923244403e-09
1.86716344339e-08
1.02272816112e-08
1.5306554345e-08
5.46750273118e-10
7.95114698418e-09
9.44247274645e-09
7.60353573621e-09
4.78803691829e-09
6.29147559541e-09
7.70966156238e-09
3.39818996148e-09
1.46120053262e-11
7.33837255703e-09
1.01447717455e-08
6.01920569233e-09
1.49270436807e-08
5.4553834075e-09
2.31612757928e-09
1.00258476444e-08
2.5148501604e-09
1.67564835633e-08
8.16044084372e-10
5.25605016463e-09
1.38151093321e-08
3.27422878057e-09
4.12637009524e-10
9.09328936612e-10
5.93713572724e-09
2.25480914487e-08
1.13230347314e-08
1.43175814232e-08
1.43422021324e-08
2.55834735568e-09
6.77152971507e-09
1.63471165335e-08
6.05988336766e-09
1.92952303467e-08
3.32109276453e-09
1.24485206985e-08
9.0798572189e-10
7.30216521132e-09
1.42205709388e-08
2.36632358946e-09
8.79309088134e-09
4.49645866377e-09
2.89171700188e-10
3.68205954176e-09
8.28451080924e-09
1.08906860009e-08
1.29740802498e-08
5.92797375961e-09
5.07429092979e-09
3.97125497891e-09
6.78082238653e-09
1.95865118026e-08
9.79725650598e-09
6.20031282738e-09
1.00045076677e-08
8.16274038957e-09
8.40685425351e-09
1.15117310138e-09
1.41268641448e-08
2.92319429596e-08
1.62095884453e-08
1.94715722782e-09
2.8667756576e-08
1.45601682995e-09
3.69613434571e-09
2.20046661485e-08
8.09883978984e-09
1.03439680052e-08
7.7824013351e-09
6.75673389397e-09
2.05221195134e-08
2.31776136508e-10
1.17662306263e-08
3.8001463858e-09
6.3269113991e-09
1.2521319714e-08
1.0181615165e-08
8.70174063794e-09
1.19521863331e-08
9.97207860287e-09
9.2868753562e-09
9.56028176137e-09
2.00365546941e-09
6.80187967519e-10
4.10594109734e-09
7.22140088291e-11
7.96721784792e-10
3.15470850508e-08
9.54293310633e-09
2.54034578944e-09
1.47539524892e-08
2.2313671926e-09
1.08356971677e-08
2.48764640458e-10
1.26681013969e-10
5.34342383732e-10
3.69486013234e-10
7.46479816217e-09
6.01265145781e-10
1.07166076113e-08
7.03112160142e-10
4.92566196393e-09
8.68162399625e-09
1.02796473062e-08
7.51247052585e-09
1.17248523853e-08
1.73918532175e-08
4.58209889608e-09
2.47776390775e-09
1.37656293753e-09
2.09139181794e-08
8.47987847024e-09
3.94026168109e-09
1.03308858059e-09
2.92503720111e-08
2.79836219041e-08
6.09634643849e-09
9.70792343072e-09
5.97897027391e-09
2.29216851526e-09
1.22855573683e-08
2.42728706225e-09
8.08912087194e-09
1.54504693364e-08
1.1587795657e-09
9.22779690656e-09
1.3923539759e-08
1.2721467466e-08
8.8025055534e-09
1.02830602931e-08
5.35578004863e-09
6.90487885142e-09
6.82090351759e-09
6.5624815214e-09
2.35482057206e-09
8.13863612037e-09
1.51553804271e-09
7.48210566853e-09
3.1390107869e-10
1.2217007662e-08
1.66001355452e-08
3.87478463265e-09
2.50473637139e-09
7.77658428964e-09
1.57501648728e-08
5.89550864784e-09
3.97246126208e-10
3.27144058383e-09
2.01458910743e-08
2.73972712063e-09
9.08607955204e-09
6.23308947626e-09
5.39284993519e-09
2.58113774721e-08
1.11878979004e-08
1.2881145824e-09
2.7289596117e-08
8.09565055066e-09
4.69354795057e-09
3.8712902681e-10
9.1389700261e-09
4.65448992215e-09
4.59971268361e-09
6.67644461099e-09
8.10951715716e-09
1.61277649801e-08
1.04101413794e-08
1.03296840247e-09
1.25308904081e-09
3.40967473168e-09
1.49065430509e-08
4.60167359557e-09
2.14461960442e-09
2.98111160481e-09
3.04041450148e-10
1.31852377748e-08
6.05335761076e-09
1.63290402223e-08
7.49191879268e-09
1.24436225593e-08
7.8583011127e-09
1.02792861201e-09
1.08645042531e-08
1.48606777304e-08
6.05590402303e-10
1.43385402108e-08
3.39320844369e-09
1.89876666271e-09
1.21594589257e-09
6.43183197044e-09
2.6845073753e-09
1.281244695e-08
9.85217871982e-09
6.28061317708e-09
1.87643871979e-09
5.95562929519e-09
4.36477645404e-09
8.16095085318e-09
6.93340037637e-09
8.87574507035e-10
2.34913995365e-09
8.7541675029e-09
3.22423310981e-09
8.96591573788e-11
1.64842150716e-08
1.0904141704e-08
1.161992118e-08
2.66666252334e-09
5.43089941391e-10
9.88870256775e-09
5.95026503307e-09
9.22122735537e-09
1.15163605284e-10
9.73340879568e-09
2.05624510786e-10
6.6601294865e-09
9.05250581732e-09
5.33433301142e-09
8.7590437696e-09
3.74601479255e-09
8.77641636915e-09
1.37160511435e-08
8.4381472969e-09
1.7845128813e-08
2.91293560073e-08
5.45822337425e-09
5.86455884315e-09
7.88478913769e-09
2.44995833252e-08
8.61957923234e-09
6.2017735017e-09
2.48912051191e-10
9.4853007023e-09
1.46113393581e-08
6.82926634033e-09
2.54524155032e-08
1.41431536288e-08
1.35537758938e-08
1.42429244515e-08
1.12099581903e-08
1.89777900624e-10
7.24723175575e-10
3.52860316032e-09
6.48278680072e-09
1.2653869747e-08
1.00792692141e-08
2.68999443918e-08
2.46451273358e-09
8.97302862545e-09
3.78072688397e-09
4.82374105803e-09
1.49737278926e-08
8.49392587677e-09
8.63225477081e-09
7.847507774e-09
2.40438614917e-09
3.51884659414e-08
1.56849549033e-08
7.33844598989e-09
7.86664931884e-09
8.84825169065e-10
2.1242878714e-09
1.09025654735e-08
2.3323331368e-08
9.98028963021e-09
2.73518029071e-08
4.31839670731e-09
8.61496877277e-09
1.09531477814e-08
8.37425594565e-10
5.95168423714e-09
4.02215101264e-09
1.30437787104e-08
1.68260701378e-08
5.3802049806e-09
7.85284857763e-09
6.99023474063e-09
8.52119268504e-09
1.10985924129e-08
6.71282721248e-10
5.38712647005e-09
2.04368036621e-08
3.09713739818e-09
8.25360014329e-09
1.45670299357e-08
1.92562027008e-09
3.5067001923e-10
3.93739805092e-09
6.35977887667e-09
2.89787423563e-09
8.89079134599e-09
1.74647499122e-09
1.96498805851e-08
3.11616972921e-09
4.7457799675e-09
1.73237030722e-08
6.19378835935e-09
4.80810473227e-09
3.02818271834e-09
2.40617364627e-09
1.45338559867e-08
2.44593286611e-09
2.44104672302e-09
2.71100421702e-09
3.3829745614e-09
3.12826843102e-09
5.44539100572e-09
3.88327609729e-09
3.31794097722e-09
2.72164054834e-09
2.44834894036e-08
1.2194990273e-08
2.50115370254e-08
1.09820771841e-08
2.4616691236e-09
5.48450255211e-09
7.6230745681e-09
3.13012172506e-09
2.3466425739e-08
5.10070671123e-09
8.40837031225e-09
7.58980363223e-09
3.07947811106e-09
7.95631474303e-09
1.17370138242e-08
1.32441949931e-08
8.38887293713e-09
1.26618496954e-09
1.97136087187e-08
2.45098654791e-08
8.63273975285e-09
2.52876615316e-09
3.54145142539e-09
1.3922040253e-11
3.82016348905e-09
7.20811704284e-09
3.96855828272e-09
9.88957152552e-10
9.87304040253e-09
1.89583746543e-08
1.60904325426e-08
1.29734521335e-08
1.09848411214e-09
7.93740761458e-09
8.40759107695e-09
1.63351507058e-09
6.04895275351e-09
1.93127381276e-10
3.99821268092e-09
6.25746242414e-09
1.73513464678e-08
6.50407279839e-09
7.42416886698e-09
1.62967268802e-09
3.35460554188e-10
5.24758123864e-09
5.86446340077e-09
4.8128148806e-09
3.09739668698e-09
5.00853831397e-09
2.59913519742e-08
3.96055859046e-09
7.1405303851e-09
4.8165022502e-09
1.03171553135e-09
8.8992540613e-09
2.18177103655e-09
7.5294012909e-09
2.65371741018e-09
1.79956108173e-08
7.32387768593e-09
2.51183374734e-09
3.86555542155e-09
2.49146420081e-09
8.5224678e-09
1.23492215003e-09
1.02890445731e-08
2.667874131e-09
7.43698545792e-09
8.41421562491e-09
1.26505474086e-08
7.37108782567e-09
1.60267134933e-08
1.90847867446e-08
1.72111995442e-08
7.64365745952e-10
1.4641208873e-08
1.12512422857e-08
1.27239470636e-08
1.63901669999e-08
4.98108464611e-09
8.42845034699e-09
9.26301627312e-09
2.39865623501e-08
1.47215055557e-08
5.69870052976e-09
4.24523650803e-10
4.381307614e-09
6.67579157379e-09
4.65662662047e-09
4.52759026242e-10
3.3731478421e-09
1.43972901148e-08
2.37711233313e-09
1.29536486556e-08
3.22250006147e-09
1.70080951432e-09
1.51035875182e-09
3.57512597919e-09
1.50825416812e-08
1.46480538016e-09
7.21647910503e-10
2.18307329127e-08
1.5707377488e-08
5.85795865339e-09
8.23883626384e-09
2.5417059834e-09
7.86543457681e-10
6.17968579536e-09
2.212894268e-08
9.76031630118e-09
4.21239159126e-09
9.72329205863e-09
1.29973220095e-08
6.67268049663e-09
2.86910854419e-09
6.73919375982e-09
1.28112018338e-08
3.94923841594e-09
5.73166736093e-09
2.64320410189e-09
4.91437748144e-09
1.37747478039e-08
3.0123597226e-09
1.84336001265e-08
4.51986367831e-11
7.46091845831e-09
9.89121175453e-10
3.24491711904e-09
2.6574756553e-09
4.97838850944e-09
1.47873360291e-09
7.55543194193e-10
1.47716343488e-08
7.4139387821e-10
7.05754075127e-09
4.9594541093e-09
1.72349394247e-09
2.50173690835e-08
1.26059177509e-09
7.9674346132e-09
5.64106941821e-09
8.41656779688e-09
7.19486900098e-09
1.63689323172e-09
2.96661109576e-10
9.59619239493e-09
2.99831479565e-10
2.72076252816e-09
1.78447516569e-09
1.28912613457e-08
2.93742775819e-10
5.49250722028e-09
7.87041805207e-09
3.12330484541e-08
1.18628797389e-09
7.66235284899e-09
9.66889342951e-09
2.30701898005e-09
6.92536872483e-09
7.16561419587e-09
1.79495273422e-08
3.83822795312e-09
2.05748400079e-09
6.0672587154e-09
4.97823215006e-09
6.4083707988e-09
8.17664485507e-09
5.28106532064e-09
4.34161162467e-09
8.8022405932e-09
1.02005646875e-08
1.41265513099e-08
8.35603291465e-09
9.71593757167e-09
5.08833542511e-09
1.36236056492e-08
6.97777086335e-09
1.04796526118e-09
7.39329142232e-09
6.54200061646e-09
4.09316488264e-09
9.14107127493e-09
2.5985192256e-10
3.98249519214e-09
1.206918367e-08
1.68711746941e-09
3.4423104779e-08
2.2575343121e-09
9.48136918661e-09
3.46392630038e-09
2.24211750972e-09
5.09106419371e-09
1.99861942936e-08
3.50280823512e-09
1.51118669138e-08
3.56309101632e-09
1.01294127688e-08
9.47947973349e-09
4.16488981386e-10
1.96827829343e-08
3.55668191369e-09
1.52875636016e-09
3.58324331714e-09
5.20026999519e-09
3.78104749523e-09
6.60923697804e-09
1.24265456924e-08
2.13970912531e-09
1.29697292404e-09
1.3157069189e-08
7.26722983298e-09
5.27014317379e-09
1.35715844586e-09
9.60653109475e-09
1.16934158382e-09
1.56479740936e-09
1.02525572797e-09
7.29107364891e-09
5.65684495843e-09
8.75667257388e-09
1.05369242991e-08
5.85285747753e-10
5.58833345198e-10
1.83896255824e-09
5.21138163767e-09
4.24083180055e-11
2.93892120951e-09
9.36132842577e-09
7.32306497079e-09
1.60859308529e-09
1.92286510719e-08
3.48429340701e-09
1.03326539404e-09
8.68737282809e-09
4.61135084559e-09
8.56035959658e-09
4.16434824909e-09
3.27354180167e-09
6.61453966881e-09
1.19271656152e-09
1.01042681304e-08
8.03283701236e-09
1.74231276872e-08
1.53573007743e-08
1.36576305434e-08
8.27356717504e-10
8.01461843268e-09
4.63864847723e-09
1.10246660906e-09
2.30101582779e-09
8.4786607225e-09
9.60126711658e-09
2.92750578113e-09
2.55137452828e-10
2.66734478739e-08
4.93952081453e-09
4.63098038675e-09
3.34593680987e-09
5.11541227549e-09
9.03474106894e-09
1.16956272126e-08
4.27009244614e-09
2.2067887387e-08
1.0208609199e-08
1.41324917168e-09
9.25140965628e-09
3.75586249834e-09
1.67806437532e-09
1.27670053042e-08
8.91329077205e-10
3.13158161459e-10
4.18453285328e-09
7.29563593061e-09
8.26254563332e-09
4.71851314882e-09
6.71950154127e-09
2.56092898532e-09
2.33029956908e-09
1.01297541152e-09
9.98147869448e-09
2.07655187106e-09
2.05306840681e-09
6.30980037959e-09
5.40300449356e-09
4.04660291527e-09
3.99646866874e-09
3.37593163715e-08
1.12073594746e-08
7.33058523474e-09
2.9143232384e-09
7.24178764872e-09
2.66102085582e-08
6.91241745875e-10
4.82353292091e-09
1.30295143689e-08
5.48157767246e-09
3.22912276577e-09
6.28982912866e-09
2.5970347782e-09
1.57284803438e-09
3.9953334289e-09
1.194214345e-08
2.32860133731e-08
2.80186694698e-09
2.67052443956e-09
5.44439688759e-09
2.97474181257e-09
2.37334888393e-09
2.4039658347e-09
1.56616352796e-08
2.70912205411e-09
3.84311004719e-09
4.54153766778e-09
1.09886751794e-08
6.27186464417e-09
6.11064499096e-09
5.63511438493e-09
8.81278740616e-09
2.41197571451e-09
3.09324064139e-09
5.07104607597e-09
3.28367038945e-09
4.68807028371e-09
8.85518546663e-09
1.68609523394e-08
2.25619771788e-08
8.82329881772e-09
5.54851477971e-09
4.74316688339e-11
1.14599005334e-08
8.23308601151e-09
2.14558758838e-09
5.92760908292e-09
2.55081952011e-09
3.10778025936e-08
8.68060550679e-09
4.77325164326e-09
1.18010179873e-08
5.63346836074e-09
1.91512401574e-09
4.59361960214e-09
3.2272982092e-09
1.57914113024e-09
8.47699953595e-09
1.22883508969e-08
2.52819242815e-09
2.21900441568e-09
1.22435633986e-08
2.57760982727e-09
1.91549445487e-08
3.52070417524e-09
4.13793400238e-09
1.55137769721e-08
3.98408245859e-09
1.05697940635e-08
4.02516184332e-09
9.91748014383e-09
8.88298849067e-09
4.8418209231e-09
1.28490552358e-08
2.00982687105e-08
7.77077494777e-09
2.51578736253e-09
1.08390226621e-09
1.3373908962e-08
2.09132767518e-08
4.60250747951e-11
1.27639143887e-08
1.23027770754e-08
1.46551719353e-08
1.35212416947e-09
1.04312965446e-08
1.45995118382e-08
2.88902103088e-08
9.60480237273e-09
1.58516726087e-09
3.45757841248e-09
2.54923991479e-08
7.77497037521e-09
4.18608698854e-09
9.22370003872e-09
7.68033686377e-09
2.17386920877e-09
7.11991265756e-09
1.14715910705e-08
4.00700080925e-09
5.93905685706e-09
3.30026632213e-09
2.67807710041e-09
1.42216865683e-09
1.18688561465e-09
1.35615403465e-08
1.05316916395e-08
1.51524699214e-08
3.56704444422e-09
1.10226212763e-09
5.72353133484e-10
6.97843746647e-10
3.42482442731e-09
1.12725326329e-08
1.84812224247e-10
3.74516566514e-09
3.09849568175e-09
4.13458756524e-09
9.25557805696e-10
4.91727968726e-09
2.41132939858e-09
3.10209590451e-09
6.61588711595e-09
7.69057421744e-09
1.52932870279e-10
4.89402658685e-09
7.83015806828e-11
3.8602258457e-09
3.96369992325e-09
1.91227090991e-08
4.7696077968e-09
2.19674756511e-09
2.03066084049e-09
1.84333574498e-09
2.32115948086e-09
5.29533836297e-09
6.47603503288e-09
7.74645448246e-10
9.9630384887e-09
1.19578982741e-09
2.46222998601e-09
6.36009579979e-09
9.31382760845e-09
1.27430443857e-09
4.87496006169e-09
4.62329241159e-09
3.75245175902e-09
2.11380634618e-10
1.80125314044e-09
2.96483743137e-09
4.00339841657e-09
5.77441146665e-09
6.02735386949e-09
4.84978744177e-10
2.91900582849e-09
8.21715542465e-09
6.36225378394e-11
2.33306012035e-10
8.79065130187e-09
2.34130141685e-09
7.8161735029e-11
9.82369051612e-09
1.0766611477e-08
6.78881542305e-09
7.44936568913e-09
1.97918146028e-10
1.93837342992e-08
1.89544158353e-08
1.42044875972e-09
9.27026441034e-10
5.90313080688e-11
3.85626382416e-09
7.72433259141e-09
1.03689765777e-08
1.28889229781e-08
3.03142351285e-09
3.88607719871e-10
2.25416227967e-09
5.85322395962e-09
1.12003759763e-09
4.28373141976e-09
3.98820150839e-09
6.76350271227e-11
5.97357930591e-09
4.25344476874e-09
1.92546675985e-08
5.28440124799e-09
7.71745608995e-09
3.75397365818e-09
6.53593645339e-09
1.85062906685e-09
6.5606985321e-09
1.43082790659e-09
8.44924807165e-09
5.42143973508e-10
1.62116192932e-08
6.96082778435e-09
4.76008191474e-09
3.85198398363e-10
3.26444008737e-09
2.96061192716e-09
5.74987671263e-09
4.03063386535e-09
1.92220646395e-09
8.83785964421e-09
1.69119524294e-08
6.11505735169e-09
1.2622474942e-08
8.59965394934e-09
1.18606797781e-09
8.02960461783e-09
4.56327503429e-09
5.53197821969e-09
1.9589089091e-09
6.99292097017e-09
4.13440648051e-09
1.91465700713e-09
4.21375690395e-09
2.93476445261e-09
1.66009760746e-09
4.62680256475e-09
9.33922237825e-10
2.07835658351e-09
1.54059976984e-08
1.84661276359e-11
2.6576891139e-09
4.36490281765e-09
5.44968850015e-09
1.25227136985e-09
2.32758714438e-09
5.65698518479e-09
6.0067922948e-09
2.86931145929e-09
9.26874703038e-09
6.31241247551e-10
2.08098341816e-09
1.65240620351e-09
5.07288212789e-09
1.65025100923e-09
3.02861627458e-09
2.7953186394e-09
5.15387738911e-09
1.45616689533e-09
4.1866874733e-09
9.92773872401e-10
5.76009078009e-09
3.02084124805e-10
9.69630020573e-10
6.28959679348e-09
3.14549695506e-08
2.73799746415e-09
1.1913718423e-08
2.25711151732e-09
7.56345484564e-09
4.60852170482e-09
2.08603220021e-08
2.8442548189e-09
4.67006104012e-09
4.70537484822e-09
4.86086397538e-09
5.46712798021e-09
1.09005879465e-08
1.38932454003e-08
5.18818321745e-09
1.07388107356e-09
2.45483216034e-09
5.12764854045e-09
9.83363918706e-09
4.46810671273e-09
9.30384030948e-10
6.85587388646e-09
4.35374812075e-09
2.83852971042e-09
2.26941738513e-09
1.00510609549e-08
4.19460467242e-09
7.12976535866e-09
4.72294046355e-09
1.05789231645e-09
3.34325028635e-09
1.17652120141e-08
1.21270600365e-08
7.90764519379e-10
8.44928418374e-09
5.20980734009e-09
3.33293454226e-09
9.73570735145e-10
3.77749465334e-09
7.00220034681e-09
1.35724039802e-09
4.42403134993e-09
1.20218130226e-08
7.29358516725e-09
3.48837494688e-09
5.15323140651e-09
7.5837073889e-09
3.89250522159e-09
5.79699015743e-09
1.08355433578e-08
1.39121791177e-09
7.53358796302e-09
1.61076984966e-09
3.07884419217e-09
1.80014975065e-09
5.43507854305e-09
2.00265438207e-09
5.04060186179e-09
2.2887679812e-09
6.1877383198e-09
7.39130354561e-09
2.93170642521e-09
2.49294132745e-09
5.64756317726e-09
1.43555853712e-08
2.04737626681e-09
2.65410303777e-09
7.89588945537e-10
2.50912835365e-09
1.17865290007e-09
6.58556007383e-10
5.79885864144e-09
1.43153339721e-09
1.90196058178e-09
2.68951162101e-09
9.88142572222e-10
9.85239240723e-12
8.48932633082e-09
3.31702135634e-10
3.70559069205e-09
1.5961755009e-09
3.30753065799e-09
2.82377156267e-09
5.07610407089e-09
1.60825663495e-09
9.67953004137e-09
5.41186070028e-09
2.44153719987e-09
1.48243198154e-09
4.8768961884e-09
6.96035936323e-09
1.42499154094e-09
7.2691161239e-09
1.0008072214e-08
1.05524303657e-08
3.75267678638e-09
6.32151146011e-09
8.31236826481e-09
6.49685525504e-09
3.20671651298e-09
2.82453069407e-09
2.12569554819e-09
9.35378673022e-10
1.89318787095e-09
3.9014600851e-09
9.28678398808e-09
1.37384403356e-08
1.54926186084e-08
1.38055514266e-08
2.85223007e-09
4.81044035038e-09
5.02776081432e-09
2.17717275484e-09
5.15452452477e-09
9.65131742427e-10
3.96205774188e-09