# vtk DataFile Version 3.0
File Name: Molecule/sphere_excent/sphere_excent_0-s3.vtk
ASCII
DATASET UNSTRUCTURED_GRID
FIELD FieldData 1
TIME 1 1 double
0.0
POINTS 60 double
0.850650808352 0.525731112119 0.0
0.5 0.809016994375 -0.309016994375
0.5 0.809016994375 0.309016994375
0.0 1.0 0.0
0.0 0.850650808352 -0.525731112119
0.0 0.850650808352 0.525731112119
-0.309016994375 0.5 0.809016994375
0.309016994375 0.5 0.809016994375
0.0 0.0 1.0
-0.525731112119 0.0 0.850650808352
0.525731112119 0.0 0.850650808352
-0.309016994375 -0.5 0.809016994375
0.309016994375 -0.5 0.809016994375
0.0 -0.850650808352 0.525731112119
0.809016994375 -0.309016994375 0.5
0.5 -0.809016994375 0.309016994375
0.850650808352 -0.525731112119 0.0
0.525731112119 0.0 -0.850650808352
0.309016994375 -0.5 -0.809016994375
0.0 0.0 -1.0
-0.309016994375 -0.5 -0.809016994375
0.0 -0.850650808352 -0.525731112119
-0.525731112119 0.0 -0.850650808352
1.0 0.0 0.0
0.809016994375 0.309016994375 0.5
-0.809016994375 -0.309016994375 -0.5
-0.809016994375 0.309016994375 -0.5
-1.0 0.0 0.0
-0.850650808352 -0.525731112119 0.0
-0.850650808352 0.525731112119 0.0
-0.309016994375 0.5 -0.809016994375
-0.5 0.809016994375 -0.309016994375
-0.5 -0.809016994375 -0.309016994375
-0.5 -0.809016994375 0.309016994375
0.0 -1.0 0.0
-0.809016994375 -0.309016994375 0.5
-0.809016994375 0.309016994375 0.5
0.5 -0.809016994375 -0.309016994375
0.809016994375 -0.309016994375 -0.5
0.309016994375 0.5 -0.809016994375
-0.26286555606 0.951056516295 0.162459848116
-0.5 0.809016994375 0.309016994375
-0.26286555606 0.951056516295 -0.162459848116
-0.525731112119 0.850650808352 0.0
-0.702046444776 0.69378047756 0.16062203564
-0.702046444776 0.69378047756 -0.16062203564
-0.425325404176 0.688190960236 0.587785252292
-0.688190960236 0.587785252292 0.425325404176
-0.587785252292 0.425325404176 0.688190960236
-0.862668480416 0.433888564553 0.259891913008
0.951056516295 -0.162459848116 -0.26286555606
0.850650808352 0.0 -0.525731112119
0.951056516295 0.162459848116 -0.26286555606
0.809016994375 0.309016994375 -0.5
0.69378047756 -0.16062203564 -0.702046444776
0.69378047756 0.16062203564 -0.702046444776
0.688190960236 0.587785252292 -0.425325404176
0.587785252292 0.425325404176 -0.688190960236
0.425325404176 0.688190960236 -0.587785252292
0.433888564553 0.259891913008 -0.862668480416

CELLS 116 464
3 0 1 2
3 1 3 2
3 1 4 3
3 2 3 5
3 5 6 7
3 6 8 7
3 6 9 8
3 7 8 10
3 9 11 8
3 11 12 8
3 11 13 12
3 8 12 10
3 10 12 14
3 12 15 14
3 12 13 15
3 14 15 16
3 17 18 19
3 18 20 19
3 18 21 20
3 19 20 22
3 16 23 14
3 23 24 14
3 23 0 24
3 14 24 10
3 0 2 24
3 2 7 24
3 2 5 7
3 24 7 10
3 22 25 26
3 25 27 26
3 25 28 27
3 26 27 29
3 4 30 31
3 30 26 31
3 30 22 26
3 28 32 33
3 32 34 33
3 32 21 34
3 33 34 13
3 28 33 35
3 33 11 35
3 33 13 11
3 35 11 9
3 9 36 35
3 36 27 35
3 35 27 28
3 22 20 25
3 20 32 25
3 20 21 32
3 25 32 28
3 21 37 34
3 37 15 34
3 37 16 15
3 34 15 13
3 38 37 18
3 38 16 37
3 18 37 21
3 19 30 39
3 19 22 30
3 39 30 4
3 3 40 5
3 5 40 41
3 3 42 40
3 42 43 40
3 42 31 43
3 40 43 41
3 31 42 4
3 4 42 3
3 41 43 44
3 43 45 44
3 43 31 45
3 44 45 29
3 41 46 5
3 5 46 6
3 41 47 46
3 47 48 46
3 47 36 48
3 46 48 6
3 41 44 47
3 44 49 47
3 44 29 49
3 47 49 36
3 6 48 9
3 48 36 9
3 29 45 26
3 26 45 31
3 36 49 27
3 49 29 27
3 38 50 16
3 16 50 23
3 38 51 50
3 51 52 50
3 51 53 52
3 50 52 23
3 38 54 51
3 54 55 51
3 54 17 55
3 51 55 53
3 23 52 0
3 52 53 0
3 53 56 0
3 0 56 1
3 53 57 56
3 57 58 56
3 57 39 58
3 56 58 1
3 53 55 57
3 55 59 57
3 55 17 59
3 57 59 39
3 1 58 4
3 58 39 4
3 17 54 18
3 54 38 18
3 39 59 19
3 19 59 17

CELL_TYPES 116
5
5
5
5
5
5
5
5
5
5
5
5
5
5
5
5
5
5
5
5
5
5
5
5
5
5
5
5
5
5
5
5
5
5
5
5
5
5
5
5
5
5
5
5
5
5
5
5
5
5
5
5
5
5
5
5
5
5
5
5
5
5
5
5
5
5
5
5
5
5
5
5
5
5
5
5
5
5
5
5
5
5
5
5
5
5
5
5
5
5
5
5
5
5
5
5
5
5
5
5
5
5
5
5
5
5
5
5
5
5
5
5
5
5
5
5

CELL_DATA 116
SCALARS cell_data_0 double
LOOKUP_TABLE default
0.000436060106233
9.83276289079e-06
1.53819265436e-05
2.10722742629e-05
5.90221525579e-05
0.000165179573614
0.000160788695065
0.000138917543068
0.000162667342298
0.000157996555568
5.82300134902e-05
0.000130113464451
5.95377167438e-05
5.06528896227e-05
4.08907966914e-05
4.66945527304e-05
0.00012287226742
1.2210506941e-05
1.72271541849e-05
0.000117177920576
9.30487564534e-05
1.97479008974e-05
0.000445589586343
4.72648636047e-05
0.000307429400549
4.84891827109e-05
4.0067629098e-05
6.05973634979e-05
0.000153399129905
5.06547074684e-05
0.00017097277057
0.000154102382503
3.91496498103e-05
3.46828378205e-05
0.000188013337604
7.35958216294e-05
1.43910215499e-05
8.28310766914e-07
2.11099794831e-05
4.98477838433e-05
4.79851072457e-05
3.97669754768e-05
7.40880991017e-05
5.26509665186e-05
2.13802709931e-05
0.000111672587642
0.000146802667679
1.8030201661e-05
9.09183049517e-06
0.000128118794825
9.59049022889e-06
3.83771812878e-06
9.80612787986e-05
1.97630557657e-05
0.00017233490146
0.000291132679065
2.87150193112e-05
4.44249580458e-05
0.000170385237352
5.86402929293e-05
8.75932038512e-06
1.12464229707e-05
1.90185271962e-06
1.72287606654e-07
3.75479867741e-07
3.34435992925e-06
5.20871393729e-06
3.61440399811e-06
2.85455058139e-06
5.13276316696e-06
5.44974561051e-06
3.51468998491e-05
1.61740639819e-05
2.5508556009e-05
2.80441900052e-06
5.47598704451e-06
7.40392658798e-06
1.59422553152e-05
1.18609968179e-06
3.5537750732e-07
1.83091414867e-05
3.20840767009e-06
4.08903300397e-05
2.99049249475e-05
8.53286380993e-05
1.26079975906e-05
5.8795101423e-06
5.80672862738e-05
0.000123440317711
5.82095470517e-05
3.00486699613e-05
4.42275688005e-07
7.18538591952e-06
3.7070010384e-06
2.64490947351e-05
3.36955822174e-07
2.600123647e-05
6.47828153115e-06
0.000266335024306
0.000284748274619
0.000290427115124
0.000263874946304
6.86621884076e-06
7.10023913346e-08
1.764524781e-06
2.96709677378e-06
5.73965167012e-06
2.5292445705e-08
2.59925785525e-05
1.48953659576e-06
1.2279474032e-05
9.89328932961e-06
6.10892024433e-05
5.87790887634e-05
3.20707970031e-06
5.25548344969e-05

