# vtk DataFile Version 3.0
File Name: Molecule/sphere_dip_sim/sphere_dip_sim_0-s4.vtk
ASCII
DATASET UNSTRUCTURED_GRID
FIELD FieldData 1
TIME 1 1 double
0.0
POINTS 24 double
0.850650808352 -0.525731112119 0.0
0.525731112119 0.0 -0.850650808352
0.850650808352 0.525731112119 0.0
0.0 0.850650808352 -0.525731112119
0.525731112119 0.0 0.850650808352
0.0 -0.850650808352 0.525731112119
0.0 -0.850650808352 -0.525731112119
-0.525731112119 0.0 -0.850650808352
-0.809016994375 -0.309016994375 -0.5
-0.809016994375 0.309016994375 -0.5
-1.0 0.0 0.0
-0.850650808352 -0.525731112119 0.0
-0.850650808352 0.525731112119 0.0
-0.525731112119 0.0 0.850650808352
-0.5 -0.809016994375 -0.309016994375
-0.5 -0.809016994375 0.309016994375
0.0 -1.0 0.0
-0.309016994375 0.5 0.809016994375
0.0 0.850650808352 0.525731112119
0.309016994375 0.5 0.809016994375
0.0 0.0 1.0
0.0 1.0 0.0
-0.5 0.809016994375 0.309016994375
-0.5 0.809016994375 -0.309016994375

CELLS 44 176
3 0 1 2
3 2 1 3
3 4 5 0
3 1 6 7
3 0 2 4
3 1 0 6
3 1 7 3
3 7 8 9
3 8 10 9
3 8 11 10
3 9 10 12
3 7 9 3
3 12 10 13
3 13 10 11
3 7 8 6
3 11 14 15
3 14 16 15
3 14 6 16
3 15 16 5
3 11 15 13
3 15 5 13
3 5 16 0
3 6 16 0
3 6 14 8
3 11 14 8
3 13 17 12
3 18 17 19
3 17 20 19
3 17 13 20
3 19 20 4
3 4 20 5
3 13 20 5
3 18 19 2
3 2 19 4
3 3 21 2
3 2 21 18
3 18 21 22
3 21 23 22
3 21 3 23
3 22 23 12
3 12 23 9
3 3 23 9
3 12 22 17
3 18 22 17

CELL_TYPES 44
5
5
5
5
5
5
5
5
5
5
5
5
5
5
5
5
5
5
5
5
5
5
5
5
5
5
5
5
5
5
5
5
5
5
5
5
5
5
5
5
5
5
5
5

CELL_DATA 44
SCALARS cell_data_0 double
LOOKUP_TABLE default
0.000849606007603
0.000550360017452
0.000140752085265
0.000991631920711
0.000142870437243
0.00059592370949
0.00095668380957
5.58044087819e-05
0.000145807944375
2.92972682191e-05
0.000160389044958
3.29813872928e-05
1.25953239839e-05
5.15776119086e-05
8.32260400268e-05
2.41319052192e-05
3.96067719194e-05
2.99877106948e-05
5.69009836271e-05
7.79745095442e-05
0.000117757441845
2.86516640421e-05
0.000143323535675
5.08568154582e-05
9.55257735553e-07
0.00011255664341
0.000235337205514
1.88309401481e-05
4.10118545025e-05
0.000237640222811
0.000206969771128
0.000242698155416
0.000459441655413
9.14516559704e-05
1.40575144123e-06
0.000437226793743
0.000275740254953
3.8014322273e-06
3.39109206227e-05
3.88459343992e-05
9.34850710417e-05
0.000124098046376
1.9135830013e-05
0.000191045964701

