# vtk DataFile Version 3.0
File Name: Molecule/sphere_dip_sim/sphere_dip_sim_0-s2.vtk
ASCII
DATASET UNSTRUCTURED_GRID
FIELD FieldData 1
TIME 1 1 double
0.0
POINTS 48 double
0.850650808352 -0.525731112119 0.0
0.809016994375 -0.309016994375 -0.5
1.0 0.0 0.0
0.809016994375 0.309016994375 -0.5
0.525731112119 0.0 -0.850650808352
0.850650808352 0.525731112119 0.0
0.5 0.809016994375 -0.309016994375
0.309016994375 0.5 -0.809016994375
0.0 0.850650808352 -0.525731112119
0.5 0.809016994375 0.309016994375
0.0 1.0 0.0
0.0 0.850650808352 0.525731112119
-0.5 0.809016994375 0.309016994375
-0.309016994375 0.5 0.809016994375
-0.809016994375 0.309016994375 0.5
-0.850650808352 0.525731112119 0.0
-0.525731112119 0.0 0.850650808352
0.309016994375 0.5 0.809016994375
0.0 0.0 1.0
0.525731112119 0.0 0.850650808352
-0.309016994375 -0.5 0.809016994375
0.309016994375 -0.5 0.809016994375
0.0 -0.850650808352 0.525731112119
0.309016994375 -0.5 -0.809016994375
0.0 0.0 -1.0
-0.309016994375 -0.5 -0.809016994375
0.0 -0.850650808352 -0.525731112119
-0.525731112119 0.0 -0.850650808352
0.809016994375 -0.309016994375 0.5
0.809016994375 0.309016994375 0.5
-0.809016994375 -0.309016994375 -0.5
-0.809016994375 0.309016994375 -0.5
-1.0 0.0 0.0
-0.850650808352 -0.525731112119 0.0
-0.309016994375 0.5 -0.809016994375
-0.5 0.809016994375 -0.309016994375
-0.5 -0.809016994375 -0.309016994375
-0.5 -0.809016994375 0.309016994375
0.0 -1.0 0.0
-0.809016994375 -0.309016994375 0.5
0.5 -0.809016994375 -0.309016994375
0.5 -0.809016994375 0.309016994375
-0.26286555606 0.951056516295 0.162459848116
-0.26286555606 0.951056516295 -0.162459848116
-0.525731112119 0.850650808352 0.0
0.587785252292 -0.425325404176 0.688190960236
0.425325404176 -0.688190960236 0.587785252292
0.688190960236 -0.587785252292 0.425325404176

CELLS 92 368
3 0 1 2
3 1 3 2
3 1 4 3
3 2 3 5
3 5 3 6
3 3 7 6
3 3 4 7
3 6 7 8
3 5 6 9
3 6 10 9
3 6 8 10
3 9 10 11
3 11 12 13
3 12 14 13
3 12 15 14
3 13 14 16
3 11 13 17
3 13 18 17
3 13 16 18
3 17 18 19
3 16 20 18
3 20 21 18
3 20 22 21
3 18 21 19
3 4 23 24
3 23 25 24
3 23 26 25
3 24 25 27
3 0 2 28
3 2 29 28
3 2 5 29
3 28 29 19
3 5 9 29
3 9 17 29
3 9 11 17
3 29 17 19
3 27 30 31
3 30 32 31
3 30 33 32
3 31 32 15
3 8 34 35
3 34 31 35
3 34 27 31
3 35 31 15
3 33 36 37
3 36 38 37
3 36 26 38
3 37 38 22
3 33 37 39
3 37 20 39
3 37 22 20
3 39 20 16
3 16 14 39
3 14 32 39
3 14 15 32
3 39 32 33
3 27 25 30
3 25 36 30
3 25 26 36
3 30 36 33
3 26 40 38
3 40 41 38
3 40 0 41
3 38 41 22
3 4 1 23
3 1 40 23
3 1 0 40
3 23 40 26
3 4 24 7
3 24 34 7
3 24 27 34
3 7 34 8
3 10 42 11
3 11 42 12
3 10 43 42
3 43 44 42
3 43 35 44
3 42 44 12
3 35 43 8
3 10 43 8
3 12 44 15
3 44 35 15
3 21 45 19
3 19 45 28
3 21 46 45
3 46 47 45
3 46 41 47
3 45 47 28
3 41 46 22
3 21 46 22
3 28 47 0
3 47 41 0

CELL_TYPES 92
5
5
5
5
5
5
5
5
5
5
5
5
5
5
5
5
5
5
5
5
5
5
5
5
5
5
5
5
5
5
5
5
5
5
5
5
5
5
5
5
5
5
5
5
5
5
5
5
5
5
5
5
5
5
5
5
5
5
5
5
5
5
5
5
5
5
5
5
5
5
5
5
5
5
5
5
5
5
5
5
5
5
5
5
5
5
5
5
5
5
5
5

CELL_DATA 92
SCALARS cell_data_0 double
LOOKUP_TABLE default
8.6731720285e-05
7.48795159804e-05
8.15273104854e-06
0.000106458596411
1.15340611177e-05
1.73216268786e-05
1.11935464262e-05
6.80645884882e-06
8.9880327268e-05
0.00068318539954
0.0003616926593
0.000597089900651
0.000123855229591
0.000140591778152
9.24795835863e-05
5.40613159831e-05
1.57505889904e-05
2.17788958139e-05
8.53096897588e-05
3.83871535172e-05
9.11627773738e-05
9.05758084559e-05
7.16188808375e-05
5.71547388354e-05
0.000225396106166
0.000262888798037
8.00230019602e-05
0.000212354803392
0.000209979491731
0.000179890519148
8.46478668497e-05
6.89498810435e-05
7.53813750663e-05
8.66622359379e-05
0.000105392360529
7.703848186e-06
2.27171087136e-05
4.86905222679e-05
4.67466315311e-06
7.2001090554e-05
2.92302339881e-07
9.32770108376e-05
6.82082201681e-05
0.000165462701402
1.88414804015e-06
8.7965040259e-06
1.36729545909e-05
3.80417101773e-06
6.76028436736e-06
3.74039824179e-06
1.14437357553e-06
6.98618728926e-05
5.3250667171e-05
7.56777371558e-06
1.08040530651e-05
4.19859674003e-07
9.26313332574e-05
5.44299292073e-05
3.12210459164e-05
8.59043902824e-06
1.33863647645e-05
2.44157467347e-05
2.21339125001e-05
7.12127364609e-06
6.05827618739e-05
5.38838903874e-05
1.81002815438e-06
3.31635434787e-05
0.000209090073739
0.000273024496384
0.000206358994385
6.06487822611e-05
0.00022253820982
4.28224013719e-05
0.000121958396959
5.36525720892e-07
2.66291628322e-05
2.65102940964e-05
1.74072171183e-05
0.000218411713836
4.56845605319e-05
3.9675039276e-05
2.52907888172e-05
4.84610142976e-05
1.86993391491e-05
1.95262121731e-07
7.83144615836e-06
2.34519912498e-05
1.33992093995e-05
6.08102644739e-06
4.80135809427e-05
1.1538013286e-05

