# vtk DataFile Version 3.0
File Name: Molecule/sphere_cent/sphere_cent_0-s3.vtk
ASCII
DATASET UNSTRUCTURED_GRID
FIELD FieldData 1
TIME 1 1 double
0.0
POINTS 642 double
1.701292634 -1.0514765978 1.9742685254e-05
1.7293097973 -0.97220247984 -0.25284078717
1.8258243799 -0.81607562304 0.00035224322346
1.8479677439 -0.71877068281 -0.26156395674
1.7260130644 -0.87170702219 -0.51059216261
1.9210323095 -0.55617827177 0.00011669692321
1.8334840536 -0.60143119097 -0.52589571476
1.9321362972 -0.44184580445 -0.26753070951
1.9020580053 -0.31567895412 -0.53140586615
1.6891466379 -0.75318068266 -0.76113981009
1.7813196182 -0.47094422579 -0.77782487869
1.6180354357 -0.61803394556 -0.99998784065
1.9798620939 -0.2828053534 2.5693658245e-05
1.9755629301 -0.15665447712 -0.26927399635
1.9999949932 -7.4944541666e-06 4.341283784e-06
1.6845365763 -0.31403443217 -1.0313165188
1.8272531033 -0.16045479476 -0.79710912704
1.7070040703 0.00013209730969 -1.0421154499
1.827132225 0.16110111773 -0.79725968838
1.9265431166 0.00030062097358 -0.53704583645
1.9020525217 0.31571879983 -0.53139925003
1.6846882105 0.31436339021 -1.0309648514
1.7814334631 0.47086331248 -0.77761149406
1.6180266142 0.61803996563 -0.99999803305
1.9755196571 0.15679402649 -0.26949957013
1.5146896839 -0.47023332119 -1.2183755636
1.5606482029 -0.15955069661 -1.2405157089
1.3824775219 -0.31542605162 -1.4103052616
1.4042276144 0.0001314910478 -1.4241428375
1.5607609749 0.16006445885 -1.2403099537
1.3823940754 0.31551763415 -1.4103668928
1.2253178358 -0.15603835881 -1.5728546381
1.2250519991 0.1562717557 -1.5730384588
1.0514782667 9.4327988336e-06 -1.7012915611
1.5146569014 0.47025281191 -1.2184077501
1.9799067974 0.2825101316 -0.00040253857151
1.9321613312 0.44157978892 -0.26780277491
1.9210726023 0.55603891611 -0.00022462024936
1.8334239721 0.60128891468 -0.526278615
1.8480811119 0.7183136344 -0.26202562451
1.7260630131 0.87159049511 -0.51062262058
1.6892752647 0.75280082226 -0.76123726368
1.8259530067 0.81579399109 -0.00036035932135
1.7293176651 0.97218996286 -0.25283801556
1.7013126612 1.0514442921 -5.2026316553e-06
1.5730290413 1.2251087427 -0.15590156615
1.5863422155 1.1420900822 -0.42329671979
1.4104418755 1.3823314905 -0.31545609236
1.5658606291 1.0345389843 -0.69119983912
1.4062058926 1.2928240299 -0.5925719738
1.370636344 1.1755383015 -0.85984623432
1.5120409727 0.90665751696 -0.94424706697
1.2187187672 1.5143620968 -0.47038787603
1.1977293491 1.415217042 -0.75000196695
1.000002265 1.6180297136 -0.61802524328
1.4150882959 0.74987971783 -1.1979594231
1.2897851467 1.0300750732 -1.1293282509
1.1754671335 0.85986125469 -1.3706874847
1.0296230316 1.1292816401 -1.290189147
1.1289900541 1.2901675701 -1.0299688578
0.85982084274 1.3706498146 -1.1755400896
0.90662455559 0.94454884529 -1.5118687153
0.75008070469 1.1979025602 -1.4150283337
0.61802911758 1.0000011921 -1.6180288792
0.94419258833 1.511929512 -0.90689688921
1.2928719521 0.59278482199 -1.4060746431
1.14225173 0.42355379462 -1.5861574411
1.0342071056 0.69188296795 -1.565783143
0.87177503109 0.51068150997 -1.7259523869
0.97220528126 0.25281393528 -1.7293133736
0.75340026617 0.76148861647 -1.6888941526
0.7615223527 1.6888772249 -0.75340586901
0.69159221649 1.5657042265 -1.0345185995
0.51075911522 1.7258944511 -0.87184411287
0.59289097786 1.4059387445 -1.2929722071
0.42388370633 1.5860873461 -1.1422282457
0.31570085883 1.4104462862 -1.3822709322
0.47085139155 1.2186735868 -1.5142571926
0.25309279561 1.7291429043 -0.97243660688
0.15627673268 1.5730527639 -1.2250314951
1.7035958081e-05 1.7013045549 -1.0514575243
1.5732434988 1.2247623205 0.15646843612
1.4246349335 1.4037259817 0.0001382297487
1.4105098248 1.3822203875 0.31564006209
1.2408846617 1.5603653193 -0.15941594541
1.2408556938 1.5603580475 0.1597211957
1.0421983004 1.7069542408 1.8554317649e-05
1.0313107967 1.6844956875 -0.31427747011
1.2187335491 1.5143367052 0.4704310298
1.0313049555 1.6844928265 0.31431162357
1.0000030994 1.6180263758 0.61803293228
0.77758044004 1.7813930511 -0.47107192874
0.79710233212 1.827250123 -0.16052395105
0.53134381771 1.9020770788 -0.3156657517
0.53685557842 1.9265966415 0.0001037606271
0.79706835747 1.8272242546 0.16099798679
0.53139334917 1.9020562172 0.31570667028
0.26942270994 1.975564003 -0.15635208786
0.26948565245 1.9755209684 0.1568146646
-8.1163989307e-06 1.9999949932 -7.1559895787e-07
0.77763068676 1.7814314365 0.47083434463
0.52613663673 1.8334243298 -0.60140901804
0.26195347309 1.8479481936 -0.71867924929
0.26760864258 1.9322706461 -0.44122382998
0.00011360489589 1.9210585356 -0.55608707666
-1.365559001e-06 1.8258780241 -0.81596070528
0.00037632515887 1.9799010754 -0.28254398704
0.76126760244 1.6892830133 0.75275307894
0.52607923746 1.8335092068 0.60120105743
0.51061469316 1.7261205912 0.87148064375
0.26763048768 1.9322195053 0.44143256545
0.26194196939 1.8481131792 0.71826153994
0.00010924765957 1.9210621119 0.55607533455
0.0003741622495 1.9798994064 0.2825602591
0.25286126137 1.7295049429 0.97185248137
9.0643807198e-06 1.8258897066 0.81593292952
9.6087924248e-06 1.701308012 1.0514518023
-0.25279647112 1.7291375399 0.97251975536
-0.26160490513 1.8479515314 0.71879720688
-0.51058995724 1.7259635925 0.87180685997
-0.26762160659 1.932098031 0.44195449352
-0.5259283185 1.8334350586 0.60155272484
-0.5314193368 1.9020525217 0.3156889379
-0.26926919818 1.9755629301 0.15666310489
-0.76114296913 1.6891217232 0.75323402882
-0.77783322334 1.7813105583 0.47096288204
-0.99999266863 1.6180300713 0.61803978682
-0.26931062341 1.9755357504 -0.15694446862
-0.53743708134 1.9264329672 -4.2414470954e-05
-0.53147405386 1.9020285606 -0.31573933363
-0.79748678207 1.8270443678 -0.16097280383
-0.79755043983 1.8270401955 0.16069865227
-1.0422304869 1.706933856 -7.7637851064e-06
-0.7780367136 1.7812907696 -0.47069048882
-1.0313509703 1.6845144033 -0.31404298544
-1.0000020266 1.6180278063 -0.61803078651
-1.03132689 1.6845281124 0.31404137611
-0.26763671637 1.9321721792 -0.44163203239
-0.26168435812 1.8480628729 -0.71848273277
-0.52649480104 1.8333860636 -0.60121709108
-0.51061117649 1.7260655165 -0.87159228325
-0.25281152129 1.729308486 -0.97221535444
-0.76125407219 1.6892733574 -0.75278681517
-1.2183843851 1.5146791935 0.47024390101
-1.2405691147 1.5605983734 0.15962293744
-1.4103131294 1.382465601 0.31544393301
-1.2405338287 1.5606034994 -0.15985412896
-1.4241979122 1.4041708708 -5.1215880376e-05
-1.410374403 1.3823890686 -0.31550431252
-1.2184337378 1.5146459341 -0.47022140026
-1.5728600025 1.2253079414 0.15606278181
-1.5730516911 1.2250345945 -0.15626113117
-1.7012993097 1.0514658689 -4.0919549065e-06
-0.15589158237 1.5730196238 1.2251234055
-0.42327934504 1.5862601995 1.1422106028
-0.31545209885 1.4104361534 1.3823384047
-0.69118207693 1.5657842159 1.0346667767
-0.59257233143 1.4061899185 1.2928415537
-0.85985010862 1.3706245422 1.1755492687
-0.9442474246 1.5120244026 0.90668469667
-0.47038632631 1.218716383 1.514364481
-0.75000333786 1.1977243423 1.4152206182
-0.61802536249 1.0000020266 1.6180298328
-1.1979562044 1.4150924683 0.74987703562
-1.1293298006 1.2897825241 1.030076623
-1.3706870079 1.175473094 0.85985398293
-1.2901896238 1.0296244621 1.1292798519
-1.0299701691 1.1289861202 1.2901699543
-1.1755404472 0.85982054472 1.3706496954
-1.5118690729 0.90662658215 0.94454652071
-1.4150289297 0.75008064508 1.197901845
-1.6180346012 0.61802756786 0.99999284744
-0.90689712763 0.94419193268 1.5119297504
-1.4060487747 1.2929172516 0.59274739027
-1.5861289501 1.1423120499 0.42349809408
-1.5657812357 1.034216404 0.69187325239
-1.7259523869 0.8717790246 0.51067399979
-1.7293108702 0.97221213579 0.25280097127
-1.6888954639 0.75340527296 0.76148033142
-0.75340586901 0.76152223349 1.6888773441
-1.0345185995 0.69159203768 1.5657043457
-0.87184405327 0.51075911522 1.7258945704
-1.2929731607 0.59288978577 1.4059385061
-1.1422287226 0.42388308048 1.5860871077
-1.3822813034 0.3156888783 1.4104388952
-1.5142692327 0.47084525228 1.2186613083
-0.97243660688 0.25309187174 1.7291429043
-1.225035429 0.15626597404 1.5730507374
-1.0514650345 1.1635719602e-05 1.7012997866
0.15610826015 1.573225975 1.2248287201
6.3647457864e-05 1.4246139526 1.4037475586
0.31552115083 1.4105024338 1.3822551966
-0.15942429006 1.2408773899 1.560370326
0.15965799987 1.2408454418 1.560372591
1.0826106518e-05 1.0421934128 1.7069569826
-0.31428033113 1.0313084126 1.6844966412
0.4703617394 1.218732357 1.5143592358
0.31430205703 1.0313030481 1.6844958067
0.61801946163 1.0000008345 1.6180328131
-0.47107219696 0.77758032084 1.7813930511
-0.16052632034 0.79710066319 1.8272505999
-0.31566569209 0.53134387732 1.902077198
0.00010340083099 0.53685510159 1.92659688
0.16099512577 0.79706650972 1.8272253275
0.31570610404 0.53139269352 1.9020564556
-0.15635210276 0.26942312717 1.9755638838
0.1568146795 0.26948580146 1.9755209684
2.6924615213e-06 -1.3326091448e-06 1.9999949932
0.4708327651 0.77762985229 1.781432271
-0.60140889883 0.52613663673 1.8334243298
-0.7186793685 0.26195350289 1.8479481936
-0.44122377038 0.26760885119 1.9322707653
-0.55608975887 0.00011580635328 1.9210577011
-0.81597006321 6.8357912824e-06 1.8258734941
-0.28254157305 0.00038071666495 1.979901433
0.75274127722 0.76125997305 1.6892915964
0.60119962692 0.526078403 1.8335100412
0.87147712708 0.51060920954 1.7261238098
0.44143208861 0.26763096452 1.9322195053
0.7182611227 0.26194196939 1.8481132984
0.55607444048 0.00011775181338 1.9210623503
0.28256583214 0.00038553847116 1.9798984528
0.97186201811 0.25285962224 1.7294995785
0.81592512131 1.3670214685e-06 1.8258934021
1.0514520407 4.1544108171e-06 1.7013078928
-0.97252452374 -0.25280529261 1.7291344404
-0.71880328655 -0.26160249114 1.8479493856
-0.87179881334 -0.51058840752 1.7259681225
-0.6014881134 -0.52590286732 1.8334633112
-0.44196048379 -0.26755231619 1.9321063757
-0.315685004 -0.53141260147 1.9020551443
-0.75322419405 -0.76113384962 1.689130187
-0.47095188498 -0.77782618999 1.7813169956
-0.61802488565 -0.99998372793 1.6180412769
-0.15666101873 -0.26925718784 1.9755642414
[...]
CELL_DATA 1280
SCALARS cell_data_0 double
LOOKUP_TABLE default
2.60856720574e-09
1.76800439106e-09
2.69903603644e-09
1.89280143015e-09
6.22092888322e-10
3.79765108492e-09
1.01047776302e-09
2.84365674295e-09
1.42157462911e-09
1.04674341517e-09
1.37368891681e-09
7.13956294886e-10
8.94178962154e-10
1.38833568428e-09
5.8256014552e-10
2.1703254611e-09
5.12269875682e-09
1.55937388711e-09
3.00493234992e-09
3.56443466849e-09
3.2345247044e-09
3.86904602689e-09
3.73049352245e-09
3.24797477801e-09
4.09745749097e-09
3.01286232901e-09
3.99444635324e-09
4.38061832708e-09
5.87279963962e-09
2.66336156062e-09
3.50459809423e-09
4.13632835596e-09
6.62011196521e-10
1.62632329115e-09
1.3158838017e-10
4.86473785288e-11
2.46587620038e-09
1.96822811235e-11
1.52078129842e-09
2.36280694305e-09
1.5631561567e-09
7.58471019307e-10
2.95911406975e-09
1.04867341155e-09
1.09581382212e-09
7.16491998508e-11
2.60021012717e-09
2.01120725756e-09
6.22317909364e-10
1.36437725462e-09
2.5967330003e-10
9.07846193613e-11
3.22745731525e-09
4.02665245423e-09
3.68116068922e-09
4.30410509652e-09
7.29828435887e-10
2.78078742431e-09
5.36899134957e-10
5.30672765156e-10
1.40273467416e-09
6.14747669523e-10
3.20216855665e-10
4.25471942642e-09
3.27253749027e-09
1.46597699907e-09
2.44109805528e-09
3.49621829743e-10
4.26213593229e-10
1.9509837746e-09
5.67118500878e-11
2.2807215106e-10
1.44126277669e-09
2.21713505762e-09
9.83967025818e-10
1.03526561663e-09
1.53904745544e-09
2.42141325717e-09
2.05247572379e-09
4.61164864668e-09
4.16495713197e-09
1.58995142566e-09
4.19467946028e-10
4.60489646734e-09
2.13395833337e-10
1.808911564e-09
2.6527773278e-09
1.93397140581e-09
1.30521822049e-09
1.09357231552e-09
2.39312034689e-09
4.01570438449e-09
2.81010491294e-09
5.42513036974e-10
1.8091754927e-09
1.32832622119e-09
3.26813794386e-09
1.64396872954e-09
1.74161940412e-09
3.57940665056e-09
1.5016134668e-09
4.64033138704e-10
1.07463707725e-09
7.8364428024e-10
1.20829846123e-09
5.36529624891e-10
2.75729986447e-09
1.94277858675e-09
3.58492345125e-09
5.4575807291e-10
1.31544131043e-09
2.55260574995e-09
3.6700177388e-09
6.65453966782e-10
1.49209750255e-09
2.17585698038e-09
1.51426947478e-09
3.48639120455e-10
4.56364057222e-10
2.03628580588e-09
7.35619507798e-10
8.66735832466e-10
5.99094327257e-10
1.56663844483e-09
2.24759295949e-09
1.3158502395e-09
2.41746822513e-09
1.56956978745e-09
2.59006013672e-09
1.08717868724e-10
1.26357892312e-10
2.35618062929e-09
1.20689519728e-09
3.20060502546e-10
2.87008351139e-10
5.62874916384e-10
8.5338224089e-10
1.28284330095e-09
2.38165698295e-09
3.53103248604e-09
1.09955557793e-09
4.54528321653e-09
3.19102598545e-10
2.87739821729e-09
5.03651072601e-09
5.402710929e-09
5.43092662572e-09
3.5470985228e-09
2.84356614665e-09
4.18751012262e-09
3.70717487071e-09
2.70320089161e-09
1.7420094498e-09
1.26004781772e-09
2.01506211763e-09
3.26468000724e-09
5.64195299295e-09
6.1374126948e-09
4.79994496986e-09
7.9817036333e-09
5.78413734433e-10
1.43313492624e-09
2.4429046866e-09
1.03994668163e-09
1.59532184253e-09
1.97728238282e-09
1.17505906453e-09
9.28525409305e-10
2.54706693284e-09
1.04375658428e-09
1.48874461949e-09
2.76731491188e-09
2.52790258686e-09
2.22314746143e-09
4.16237164944e-09
6.54673001902e-09
5.97663637475e-10
1.46518262145e-09
1.06367164679e-09
3.70441777339e-09
4.60543396047e-10
2.60636906269e-09
1.73847988789e-09
5.40412462433e-10
1.78744889806e-09
7.82927157851e-10
3.5134264382e-09
2.6016538423e-09
1.68097983588e-09
2.17502164871e-09
3.21141409347e-09
2.72918674544e-09
3.31945985977e-09
1.04614354287e-09
1.87306256457e-09
7.8610552499e-10
8.01526294409e-10
8.35017983521e-10
9.46174576869e-10
1.6315271346e-09
2.12328246332e-09
9.28352361661e-10
2.62993367868e-09
3.96442677885e-10
7.4343636148e-11
1.01216188135e-09
1.18251782229e-09
1.88577085375e-09
2.86565541145e-09
5.01180570473e-09
4.68372986748e-09
6.16221769122e-09
7.33147270296e-09
8.93810965971e-09
6.52300964282e-09
6.22271259023e-09
3.42912292879e-09
3.45467397785e-09
2.82538507657e-09
6.09285308899e-09
3.81186670366e-09
2.59194695804e-09
4.91361163502e-09
2.70372450703e-09
4.96751476897e-09
2.78908942124e-09
3.56003503276e-09
2.2840437142e-09
4.20392102583e-10
1.38937236352e-09
2.56014452865e-09
8.69562089829e-10
1.69811279553e-09
4.78075607991e-10
1.28709601422e-09
8.86939154825e-10
1.1100546815e-09
1.14702403065e-09
3.20204386886e-10
1.46657990982e-09
2.58704035382e-09
3.17200392562e-10
4.90247254376e-10
5.92898218571e-10
1.35312215219e-09
5.86610222604e-10
1.23842234459e-10
7.2616216835e-10
9.63603823567e-10
1.04271350015e-09
2.88949257672e-09
1.82780141193e-09
2.48773301995e-10
2.92515494328e-10
1.74474498575e-09
1.66341238017e-09
3.00622066912e-09
1.92692162294e-09
1.93351323324e-09
1.78039466401e-09
1.31276932478e-09
3.12308419587e-09
1.31929303583e-09
4.38334660959e-10
1.72616024264e-09
9.84708519341e-10
1.97873264926e-09
2.98660399724e-09
2.9365208355e-09
3.2380908663e-09
3.87022912436e-09
4.21975438168e-09
2.47068968472e-09
1.80779919863e-10
3.00334812833e-09
1.65394323068e-09
2.38491522673e-09
3.25226324766e-09
3.70373099051e-09
2.4547314425e-09
3.9350337131e-09
1.91090744197e-09
2.46150842259e-09
2.95589065834e-09
3.04844630699e-09
1.54653554507e-09
3.99783580107e-09
1.48939068742e-09
2.8038905811e-09
6.38590028127e-11
3.35307911878e-10
4.71396396293e-10
2.46113651971e-09
2.07561953706e-09
1.54852806551e-09
1.93078388786e-09
9.40090889371e-10
1.27546103995e-09
7.2812343477e-10
9.73649442717e-10
2.87882953535e-10
1.41470873144e-09
4.29917547111e-10
2.07090584385e-09
1.08842069557e-09
1.32556265537e-09
2.73806705759e-09
1.45748943752e-09
1.62648748907e-09
3.98005205864e-10
9.82221381129e-10
9.31498409018e-10
2.48397580691e-09
8.02077996201e-10
9.77719769152e-10
3.08680286435e-10
5.90475552161e-11
3.91903666694e-10
2.31053291521e-10
1.7327713882e-09
3.58581098181e-09
8.1511450033e-10
1.9267743865e-09
9.68082703514e-11
1.9701296791e-09
6.73438480669e-10
3.91137418458e-09
1.57069899075e-09
1.21779902479e-09
8.82486453061e-11
3.30529759613e-09
2.00921503485e-09
3.37642428661e-10
1.18055276187e-10
1.23084493733e-09
2.06610422025e-09
1.48028650867e-09
2.25651383529e-09
3.35659688727e-09
7.68818816475e-09
3.49255167335e-09
5.0684382483e-09
3.37849907235e-09
7.6764918897e-09
2.8394308858e-09
4.86766169852e-10
3.77735058762e-09
2.82316989801e-09
6.70919107214e-09
2.12380917918e-09
3.06697821311e-09
1.78903574238e-09
1.75382059649e-09
5.76741166845e-10
6.91762112762e-10
1.96011698344e-09
1.42783930763e-10
1.46394528901e-09
4.39320272458e-10
2.18239478783e-10
7.04168224532e-10
1.79939345479e-09
3.00428317595e-09
3.29557524928e-09
8.36483277244e-10
8.21463162796e-10
2.32279450991e-09
2.32463722099e-09
1.43507843075e-09
8.0071916496e-12
1.18016758889e-09
3.17769170553e-10
5.27067201042e-10
6.09607561238e-10
1.0856323644e-09
1.11901225875e-09
2.37124652126e-09
1.68771042592e-09
2.8647624111e-09
2.76695462745e-09
1.30989206425e-10
2.7549039946e-11
2.18309887199e-09
2.74406795718e-09
3.71558565367e-09
2.20255085858e-09
1.25434971274e-09
2.40394216974e-09
5.52560031673e-10
1.10473629534e-09
1.48253303617e-09
7.44957814612e-10
5.54424252293e-10
1.64175447696e-09
8.01310048493e-10
2.50114040484e-09
1.94175690136e-09
2.09714137938e-09
4.80074134113e-10
2.11517453822e-10
4.96968094162e-09
2.39380609049e-09
4.85512730112e-09
2.27683315993e-09
4.95330585322e-09
4.80953213959e-09
2.66181456392e-09
1.85611514934e-09
4.84513708508e-09
3.05403661449e-09
3.36079252728e-09
2.57834894052e-09
5.45509904814e-09
5.84917243198e-09
3.40351842914e-09
6.44882266069e-09
8.58928160479e-11
1.36426093735e-09
1.06617151449e-10
5.66670909017e-11
1.2507529078e-09
3.09180444798e-09
2.7596261638e-10
3.92060491326e-09
1.00467876856e-09
2.63071006421e-09
2.45961607342e-09
1.60747338743e-09
1.37134851337e-09
1.38392230207e-09
9.82501859885e-11
1.30724581431e-09
1.77338444127e-09
5.58937563233e-10
2.49196281389e-09
2.55988652159e-09
1.37578045146e-09
1.97743452028e-09
1.77680733158e-09
9.7106838925e-10
2.6745168899e-09
6.83812062749e-10
3.35698870857e-09
3.45359795606e-09
2.41389709379e-09
2.4993530398e-09
3.89665889201e-09
4.05712499484e-09
3.79052885933e-09
3.188474618e-09
4.77827966311e-09
2.93224115782e-09
3.11905834714e-09
3.15913941645e-09
3.04530259972e-09
1.51742025764e-09
3.56698490202e-09
3.0500259238e-09
1.07490790564e-09
3.32349487337e-09
2.12162510099e-09
1.11770502646e-09
3.91644974651e-09
3.26927382452e-09
3.5612262571e-09
3.23231994607e-09
3.22481712991e-09
3.25714049697e-09
3.63019328132e-09
4.72863492576e-09
1.91340126483e-09
2.24583122687e-09
3.52331676361e-09
8.94399069247e-10
6.55755541216e-09
3.1599657775e-09
2.59782780238e-10
1.66492726375e-09
2.77957483362e-09
2.67615533027e-09
1.45556832162e-09
5.25007541216e-10
1.05124579955e-09
2.41913546568e-09
3.01360149616e-10
1.62887915142e-09
1.33591715057e-09
7.0644567745e-10
1.05115445381e-09
3.74400939947e-11
7.60195642237e-10
1.50585103723e-09
1.42456249155e-09
2.89200357124e-09
1.82338439578e-10
2.48901997151e-09
1.4387330096e-09
1.22069729136e-09
9.16494932599e-10
1.05928216475e-09
5.9221359657e-10
2.23245555926e-10
2.57469059534e-11
1.00790825532e-09
2.14909106692e-09
6.57114900192e-10
1.36815745564e-09
9.33116752516e-10
2.18205283475e-09
2.03234420588e-09
2.31534610852e-09
5.29199270361e-09
4.48331553647e-09
2.11485854274e-09
1.31887682636e-09
3.78956915869e-09
1.13831413657e-09
3.06820019183e-09
2.51667420624e-09
1.17349235042e-09
2.49216236569e-09
1.63083286778e-09
2.16053346196e-09
3.51162556414e-09
4.0881734608e-09
9.78440726916e-10
2.66716163704e-09
1.73639418901e-09
2.86585003026e-09
1.39029958222e-09
3.99701323448e-09
3.07879124786e-09
4.07954966105e-09
4.04046897185e-09
3.22264185436e-09
3.74620655119e-09
4.24354820877e-09
2.80129930518e-09
4.95543539186e-09
4.86065446631e-09
3.67302010215e-09
3.10083344397e-09
5.04216200651e-09
4.50382540157e-09
2.32159927895e-09
1.19963277705e-09
3.28594701574e-11
5.70031296027e-10
1.9336320876e-09
3.00102127847e-10
1.25052158227e-09
1.33162892815e-09
8.40517123612e-10
1.71075682493e-10
3.30206742106e-09
2.61587144155e-10
1.00884432835e-09
2.35988062041e-10
1.5093336256e-09
9.83700778766e-10
2.22865519417e-11
1.04991733968e-09
8.49830624825e-10
3.20763044982e-10
9.03694459401e-10
9.85426162668e-10
9.47381973942e-10
7.61321927237e-10
8.37045897813e-10
1.67565575807e-10
4.75868877493e-10
1.69962318069e-09
8.37259584893e-10
9.57337907563e-10
9.34968421189e-10
2.3569558058e-09
2.77959422671e-09
2.09579892573e-09
2.62151263394e-09
3.72903676645e-09
1.50428598892e-09
1.95056850753e-09
8.10289364618e-10
4.73623627845e-09
6.59519080543e-10
1.46895836047e-09
3.31328192382e-09
2.2886630108e-09
1.59377222197e-09
9.52161814126e-10
2.68349561513e-09
1.53661364618e-09
1.78834743871e-09
4.05807269549e-10
3.12837095402e-09
2.09507352933e-09
2.17619682219e-09
2.30982848215e-09
2.47752611926e-09
2.42086076744e-09
4.25444049597e-09
2.75511050175e-09
4.7769140053e-09
3.74078418282e-09
3.1118253233e-09
2.09104953984e-09
3.04370595539e-09
4.12365217896e-09
1.49908079387e-09
1.00901055503e-09
8.11124563444e-10
9.86684428124e-10
1.52320691398e-09
6.1347752526e-11
1.00723241014e-09
5.68719823512e-10
1.17091989042e-09
7.14130811553e-10
1.6791955373e-09
5.61968668192e-10
1.39812352733e-09
7.19331999466e-10
5.96378601522e-10
6.44066438115e-10
2.74347404539e-09
2.62766397089e-09
1.56485845623e-09
6.36914144532e-10
3.77379865294e-09
3.12165233282e-09
1.50894990855e-10
2.56784580602e-09
6.42561993333e-10
1.33380120402e-09
4.58924185022e-10
8.86836160118e-10
1.37308624071e-09
1.49773237517e-09
5.79288113067e-10
3.78099021487e-09
2.18471448235e-09
2.18799518089e-10
3.52672393678e-09
5.51844965532e-10
8.32251710284e-10
4.94497167442e-10
2.41884395631e-09
3.78635960497e-10
8.7355029204e-10
2.30960523266e-09
5.38547679425e-10
3.96775420428e-10
4.04555326512e-10
2.48121862418e-09
1.11340880881e-09
3.060333557e-10
4.75495927886e-09
2.56875420713e-09
4.55012037988e-09
5.01752907855e-09
4.95015053791e-09
3.93516268272e-09
6.72090417713e-09
4.50337460133e-09
5.13273326635e-09
3.36566198578e-09
4.47442880019e-09
6.59997347086e-09
5.77895170652e-09
2.613478982e-09
4.90234706661e-09
4.4210140445e-09
1.40612747128e-09
8.18397506249e-10
1.58621023602e-09
1.2016886531e-09
8.08602732899e-11
2.74730840311e-10
1.23985592888e-09
1.59046124374e-10
2.80267679379e-09
9.54253399122e-10
3.2078978856e-09
5.29731737532e-10
2.63652239214e-10
5.3206223179e-10
5.25572821532e-10
7.17443284106e-10
1.84340733583e-09
6.41967233568e-10
3.03539945892e-10
2.06257594786e-09
2.44221772352e-09
2.98953029597e-09
1.06192085686e-09
3.97485665217e-11
2.28378901275e-10
2.42127536005e-10
1.35494759138e-09
1.62367829796e-09
2.06039444579e-09
1.05648019898e-09
1.36241981599e-09
2.00168779884e-09
2.87648328478e-09
2.52269077228e-09
2.3064860489e-09
2.57442543186e-09
6.30134613015e-11
9.98213987044e-10
5.1208047817e-11
1.13169243741e-10
2.26579437403e-09
1.65619508083e-09
8.13753688494e-10
2.68618109005e-09
2.25824376249e-10
1.33819340516e-09
2.1984274066e-09
3.29227308719e-10
4.86080899701e-09
2.49602197757e-09
4.61438372546e-09
4.08550816144e-09
3.59091333285e-09
3.54921939119e-09
3.60586177171e-09
6.36913919886e-09
3.49019560481e-09
1.62372188777e-09
5.16475324176e-09
2.59862681387e-09
4.35569797482e-09
2.63546695196e-09
4.56741194777e-09
5.53391709866e-09
3.91155686711e-10
4.88837281387e-12
4.64649642117e-10
1.72539440982e-09
6.02578961459e-10
6.71692038463e-10
7.00227317487e-10
4.48537502926e-10
1.82198601324e-09
1.63544337377e-09
3.44276230882e-09
1.18084014328e-09
8.49705036587e-10
1.57451406217e-09
7.36517953593e-11
4.08306183478e-10
1.72172521544e-10
1.14172847184e-09
2.71261973898e-10
6.17202989618e-10
9.95239547801e-11
7.84190796466e-10
1.39646948402e-09
1.59307125337e-09
2.07949423153e-09
9.3205019129e-10
1.48252221902e-09
2.70382044551e-09
1.13278626902e-09
1.70133390433e-09
2.12864852886e-09
2.92936676007e-09
2.50649355442e-09
1.3180974306e-09
4.64055330052e-09
8.16935059724e-10
1.92399818143e-09
2.25939047983e-09
1.26854993324e-09
1.05758630944e-09
2.30741989128e-09
3.2827843222e-10
2.27715423703e-09
3.50735990032e-09
1.36466475133e-09
1.33782034188e-09
3.06191966128e-09
1.30943679724e-09
2.88171506087e-09
2.704017619e-09
2.14819481696e-09
1.34979779177e-09
2.28818663312e-09
4.52356346808e-09
3.12868351572e-09
4.84234148755e-09
1.95349318933e-09
2.41801181039e-09
5.61823667707e-09
1.85458502578e-09
4.2509441774e-09
3.27582265567e-09
4.40131036837e-09
3.72879959875e-09
1.95040431949e-09
1.45205372958e-10
2.06163434873e-09
3.16964589063e-09
1.4058661686e-11
1.5353967127e-10
1.53938618921e-09
2.45063542659e-10
2.32646481962e-09
6.21958189998e-10
1.97543564827e-09
1.16227610263e-09
2.55454327109e-09
1.82469779162e-09
2.20155009743e-10
7.92154871104e-10
1.997318923e-09
5.39442698961e-11
1.18795541917e-09
1.5012238453e-09
2.66629647512e-10
1.36582705548e-09
2.54437102945e-09
6.78741170529e-10
1.66638644454e-10
8.63430592923e-10
1.55545978212e-10
7.25996758637e-10
2.9856779959e-10
1.1138316324e-09
5.86714275179e-10
2.88183411188e-09
4.09225192007e-09
4.59023634478e-10
2.32136855199e-09
1.06500054637e-09
3.16419016309e-10
6.74544572113e-10
2.75400259651e-09
1.20624062231e-09
1.39665776451e-09
2.44550648554e-09
4.77388231333e-10
8.30545040373e-10
1.27421090447e-10
6.14303941385e-10
1.69504943052e-09
1.20274070719e-09
7.45443752216e-09
4.95149919216e-09
3.45183993157e-09
5.4458739826e-09
1.12214550122e-09
2.46882614352e-09
2.23868215329e-09
2.55950000936e-09
1.82329434194e-09
1.96635217977e-09
4.76110542401e-09
3.6202649338e-09
2.91421979773e-09
8.19870968615e-10
2.88429085562e-09
2.5813414462e-09
1.64215252112e-10
6.95764435996e-11
3.80282786161e-09
2.29027863743e-09
2.04208690281e-09
2.80560691255e-09
1.01561489384e-09
2.74353954707e-09
4.05100652833e-09
2.43400790581e-09
3.26809174242e-09
1.49482218192e-09
3.60632574005e-09
4.51006170448e-10
2.29750437923e-09
1.93649920681e-09
2.64371067106e-09
1.82274578701e-09
2.03171208047e-09
3.23348636061e-09
6.03713588025e-10
2.12200384188e-10
1.30618662966e-09
3.38286478939e-10
5.04294183305e-10
7.67261121978e-10
1.74362849659e-09
9.8402507058e-10
1.93687971672e-10
9.73527042905e-10
1.04647499308e-09
8.43069340957e-10
4.6881453337e-09
1.83941470764e-10
2.74310140166e-09
3.13121622304e-10
2.06197040396e-10
4.1774224301e-10
3.18792319801e-10
1.86298076254e-09
1.72957227113e-09
1.48634704858e-09
6.8522217992e-10
1.89884760285e-10
5.59839232739e-10
1.17235407535e-09
1.5497115505e-09
1.64992246699e-09
3.73464424788e-09
1.8935024901e-09
2.23936101916e-09
2.84854574974e-09
2.10324040631e-09
2.71225339399e-09
2.67522525505e-09
2.50963080383e-09
1.17095341928e-09
5.77409882789e-11
2.3483686955e-09
3.2858564551e-09
2.82554692433e-09
6.0879500839e-11
1.94604405091e-09
1.43814626712e-09
2.34485399937e-09
1.56503940844e-09
2.54750750412e-09
2.86300955306e-09
1.01856268993e-09
1.22996635333e-09
6.18790786077e-11
2.45848105619e-10
1.04320789795e-09
2.56946183827e-10
7.35991448045e-10
2.38193897733e-09
2.70412944509e-09
1.2842099077e-09
6.46920005826e-10
1.76105516894e-09
3.59307424203e-09
2.6519356272e-09
2.90689691143e-09
2.46150583188e-09
5.21801568862e-10
1.56308324085e-09
7.52677557333e-10
1.39805872948e-10
1.28747709768e-09
1.4288347343e-09
7.99708434153e-10
7.87979728385e-10
2.06009371789e-09
1.22330672696e-09
1.0606186143e-09
3.51052591717e-09
2.71607944181e-09
2.16071976635e-09
6.33760159876e-10
1.99549736653e-09
1.64311610303e-09
4.98871112149e-10
1.55597961512e-09
1.84019059289e-09
5.84582471153e-10
1.4207242139e-09
6.64260518571e-10
8.29543621061e-10
1.39674446901e-09
3.04673910409e-11
1.90432689945e-10
1.91441373195e-09
4.28468879066e-09
1.51826982854e-09
3.14210887887e-09
3.6088844368e-09
2.01839582497e-09
3.22062677043e-09
2.64861642593e-09
3.60183837853e-09
1.23794125441e-09
4.85132511532e-10
3.16571888517e-09
2.12145971036e-09
4.6129255281e-09
1.36710274042e-09
1.98581336077e-09
2.99268051645e-09
3.35945161786e-09
6.378438579e-10
1.57726586159e-09
2.0060409947e-09
1.5072903298e-09
2.98000538898e-09
2.30919963093e-09
2.4189854331e-09
2.52017859175e-09
2.20304347551e-09
2.11960061192e-09
3.19812174241e-09
3.02616254651e-09
2.69550982186e-09
2.34397319764e-09
1.40027321696e-09
3.19526390881e-09
3.40944802335e-10
1.51279766446e-09
9.01259700195e-10
8.87481350626e-10
2.9949794086e-10
4.12870554514e-11
2.27650903231e-09
2.69269862703e-09
7.0575413841e-10
6.09511233879e-10
1.14917549759e-09
2.49433485095e-10
2.13494613829e-10
1.6747144002e-09
3.33481489353e-09
2.45741907654e-09
1.12469452622e-09
1.03742527047e-09
5.33170321225e-10
1.53737821308e-09
5.87864576633e-11
1.3175736438e-09
1.47311325093e-09
4.55951378267e-10
3.11467063369e-10
6.6300738972e-10
9.79336895748e-10
1.67533612694e-09
9.5968715483e-10
2.5401280724e-09
2.72292389594e-11
4.40135097348e-09
2.5838477821e-09
3.39134218998e-09
3.81126835027e-09
3.76777636965e-09
4.21785317451e-09
3.97998001899e-09
4.13076921156e-09
4.29531824949e-09
2.53877259688e-09
4.57461775795e-09
3.91287400558e-09
4.31971450123e-09
1.74106130474e-09
4.36224346021e-09
5.74257224687e-09
1.25185929236e-09
5.64821226907e-10
2.33251902527e-10
7.44650179772e-10
1.03117089118e-10
1.41798594407e-09
1.2701165915e-09
1.15933859244e-09
1.82331213777e-09
3.66753006842e-09
4.68704681445e-09
5.77112062834e-09
7.77391167104e-10
1.95622709017e-10
2.36363918876e-09
1.39008006739e-09
3.65142318999e-11
3.72990922601e-10
1.57543895364e-09
1.8716005986e-09
9.55128965963e-11
3.04672240582e-09
2.87419872781e-09
1.6244261483e-09
1.60663097953e-09
4.09035903804e-10
1.79178031273e-10
2.04799500116e-09
2.74654060857e-09
2.22141704336e-09
4.15311496871e-09
3.36731831397e-09
2.23649592866e-09
2.12527521167e-09
2.53281383483e-09
2.60840375456e-09
2.24014210392e-09
3.24855780488e-09
1.5985502976e-09
3.03813691457e-10
2.63391617283e-09
2.01805882203e-09
2.06524867324e-09
1.40566601373e-09
2.99895004422e-10
6.92427893701e-10
1.22537833611e-09
1.26920516899e-09
4.308291343e-09
2.72428351684e-09
5.46930385374e-09
5.46918263064e-09
4.19626987598e-09
5.20372701933e-09
4.08255734867e-09
6.60707916069e-09
4.54499912102e-09
2.21952259715e-09
6.12946973196e-09