# vtk DataFile Version 3.0
File Name: Molecule/sphere_cent/sphere_cent_0-s4.vtk
ASCII
DATASET UNSTRUCTURED_GRID
FIELD FieldData 1
TIME 1 1 double
0.0
POINTS 2562 double
1.7012791634 -1.0514986515 4.9198941269e-05
1.7186188698 -1.0155348778 -0.12208579481
1.7651722431 -0.94022971392 0.0004190474865
1.7833817005 -0.89632862806 -0.12709140778
1.729219079 -0.97322899103 -0.25000178814
1.8246662617 -0.81882190704 0.0003000748402
1.7929239273 -0.84796661139 -0.25760608912
1.8413512707 -0.76964199543 -0.1306194663
1.8481200933 -0.71820855141 -0.26195707917
1.7318865061 -0.92581522465 -0.37850695848
1.7928527594 -0.79698640108 -0.38793420792
1.7262448072 -0.87277930975 -0.50818175077
1.8764445782 -0.69194579124 0.00021497387206
1.8907054663 -0.63867205381 -0.13165007532
1.9203425646 -0.55874603987 0.00011385844846
1.7845362425 -0.73907983303 -0.51881837845
1.8455904722 -0.66189068556 -0.3945748508
1.8336001635 -0.6014341712 -0.52552890778
1.8888994455 -0.52292639017 -0.39824712276
1.8949769735 -0.58194798231 -0.26531443
1.9320478439 -0.44216969609 -0.26771345735
1.8730283976 -0.45964926481 -0.52960574627
1.92218256 -0.38013646007 -0.40088143945
1.9020750523 -0.31369522214 -0.53261315823
1.9315195084 -0.50128149986 -0.13390351832
1.7121887207 -0.81571924686 -0.63476735353
1.7668597698 -0.67902171612 -0.64585876465
1.6894702911 -0.7538933754 -0.75980389118
1.7402354479 -0.61380505562 -0.7712444067
1.812081337 -0.53770637512 -0.65362745523
1.7811355591 -0.46929204464 -0.77929282188
1.6582260132 -0.68816804886 -0.88129997253
1.7044175863 -0.54447239637 -0.89358490705
1.6180512905 -0.61803817749 -0.99996715784
1.8472620249 -0.39239692688 -0.6584905386
1.9546363354 -0.42345508933 7.2834503953e-05
1.962182045 -0.3630027473 -0.13441713154
1.9796761274 -0.28434056044 3.2525818824e-05
1.9589947462 -0.29999959469 -0.26895284653
1.9831821918 -0.22071839869 -0.13515269756
1.9756404161 -0.15458312631 -0.2700458467
1.9449846745 -0.23427551985 -0.40263018012
1.9948396683 -0.14350548387 -5.4548190747e-06
1.9939478636 -0.07600133121 -0.13556793332
1.9999989271 -1.7611630028e-05 -5.4105685194e-06
1.6574593782 -0.46822214127 -1.0166507959
1.7384889126 -0.39329141378 -0.90718066692
1.6856449842 -0.31449359655 -1.0294027328
1.7613967657 -0.2377320081 -0.91704124212
1.8099447489 -0.3163420856 -0.78995329142
1.8274353743 -0.15986278653 -0.79681932926
1.7025278807 -0.15794476867 -1.0375030041
1.7729628086 -0.079882033169 -0.922072649
1.708245039 0.00014537887182 -1.0401294231
1.8706828356 -0.23810793459 -0.66621774435
1.7728177309 0.080481559038 -0.92229998112
1.8333865404 0.00031809794018 -0.79918169975
1.8273416758 0.16042669117 -0.79692065716
1.882886529 0.080489821732 -0.66952103376
1.8829319477 -0.07988692075 -0.66946554184
1.9263460636 0.00025764488964 -0.53776174784
1.8706172705 0.23863589764 -0.66621387005
1.9201933146 0.15841761231 -0.53643113375
1.9020602703 0.31375703216 -0.5326294899
1.920191288 -0.15792050958 -0.53658354282
1.7026125193 0.15825471282 -1.03731668
1.7615039349 0.23827691376 -0.91669303179
1.6857596636 0.31481185555 -1.0291181803
1.7384831905 0.39365524054 -0.90703433752
1.8100153208 0.3167642951 -0.78962296247
1.7812197208 0.46924591064 -0.77912771702
1.6576154232 0.46851456165 -1.0162611008
1.7045687437 0.54444789886 -0.89331132174
1.6180411577 0.61803048849 -0.9999884367
1.8472925425 0.39232546091 -0.65844643116
1.9570550919 -0.078266225755 -0.40473204851
1.9570201635 0.078887693584 -0.40478202701
1.9816099405 0.00023802019132 -0.27059358358
1.9756054878 0.15468877554 -0.27023974061
1.9449437857 0.23431517184 -0.40280342102
1.9939254522 0.076200030744 -0.13578213751
1.5697845221 -0.5445562005 -1.1132007837
1.6040761471 -0.39298254251 -1.128051281
1.5140098333 -0.46943148971 -1.2195795774
1.5429090261 -0.3159417212 -1.2327247858
1.6269494295 -0.23744516075 -1.1387056112
1.5605515242 -0.15920394659 -1.2406958342
1.4508080482 -0.39214447141 -1.3195829391
1.4749051332 -0.23760361969 -1.3297291994
1.3811478615 -0.31394436955 -1.4120141268
1.638363719 -0.079550132155 -1.1443036795
1.3985921144 -0.15805396438 -1.4209008217
1.4862372875 -0.079729542136 -1.3359395266
1.4046720266 0.00015298178187 -1.4236887693
1.4862252474 0.080253347754 -1.3359216452
1.5659812689 0.0002697496966 -1.2440643311
1.5606385469 0.15967783332 -1.2405254841
1.3986041546 0.15837030113 -1.4208542109
1.4749879837 0.23803019524 -1.3295615911
1.3810726404 0.31405237317 -1.4120641947
1.6384328604 0.07999766618 -1.1441735029
1.3046526909 -0.2336820811 -1.4977018833
1.3175421953 -0.078069850802 -1.502654314
1.2234984636 -0.15430304408 -1.574521184
1.2299838066 0.0001620563562 -1.5770714283
1.3176527023 0.078605934978 -1.5025312901
1.2232881784 0.15452845395 -1.5746634007
1.1379053593 -0.075242646039 -1.642978549
1.1376041174 0.075535736978 -1.6431740522
1.0514982939 2.4420620321e-05 -1.7012794018
1.3044990301 0.23386606574 -1.4978077412
1.6270298958 0.23786535859 -1.1385031939
1.5428980589 0.3161291182 -1.2326903343
1.6041958332 0.39331150055 -1.1277667284
1.513988018 0.46946451068 -1.2195942402
1.4507418871 0.39220896363 -1.3196364641
1.5697836876 0.54456663132 -1.1131967306
1.9948583841 0.14324857295 -0.00032860753709
1.9831893444 0.22044444084 -0.13549907506
1.979711175 0.28409406543 -0.00034261407563
1.9589668512 0.29980549216 -0.26937100291
1.9622354507 0.362544626 -0.13487416506
1.9320663214 0.44192963839 -0.26797559857
1.9222198725 0.37975209951 -0.40106582642
1.9547021389 0.42315462232 -0.00034913112177
1.9315135479 0.50120991468 -0.13425397873
1.9203975201 0.55855929852 -0.00021548780205
1.8729430437 0.45946779847 -0.53006446362
1.888890624 0.52271908522 -0.39856058359
1.8335511684 0.60129249096 -0.5258616209
1.8455876112 0.66163909435 -0.39501026273
1.8950096369 0.58172059059 -0.26557871699
1.8482078314 0.71781992912 -0.26240319014
1.7845500708 0.73896837234 -0.51892900467
1.7930029631 0.79654544592 -0.38814365864
1.7262996435 0.87264567614 -0.50822597742
1.8907757998 0.63833594322 -0.13226380944
1.8121310472 0.53736770153 -0.65376806259
1.740254879 0.61347252131 -0.77146631479
1.7669295073 0.67863601446 -0.64607286453
1.6895692348 0.75358617306 -0.75988811255
1.6583086252 0.68781858683 -0.88141846657
1.712302804 0.81543302536 -0.6348285079
1.8765574694 0.69164347649 -0.00041354593122
1.8413689137 0.76949954033 -0.13120009005
1.8247848749 0.81855732203 -0.00033072251244
1.7929815054 0.84775924683 -0.25788956881
1.7835612297 0.89588660002 -0.12770971656
1.7292474508 0.97317349911 -0.25002637506
1.732003808 0.92558127642 -0.37854889035
1.7653414011 0.93991464376 -0.00035079749068
1.7185922861 1.01557827 -0.1221043691
1.7013273239 1.0514205694 -1.165068079e-05
1.643124938 1.1377062798 -0.07504927367
1.6561125517 1.1022515297 -0.20576739311
1.5746879578 1.2232946157 -0.15422469378
1.662096858 1.0597165823 -0.33825489879
1.5837085247 1.1865202188 -0.28986474872
1.586081028 1.1421997547 -0.42393374443
1.661126256 1.0101331472 -0.46935203671
1.4979571104 1.3043506145 -0.23372502625
1.5027493238 1.2664023638 -0.37144422531
1.4121755362 1.3809776306 -0.31396520138
1.6505657434 0.955943048 -0.6014855504
1.5802382231 1.0912714005 -0.55853974819
1.5658106804 1.0347911119 -0.6909686923
1.4905916452 1.1674357653 -0.64437878132
1.5002995729 1.2205580473 -0.50924634933
1.4064818621 1.292560339 -0.59252846241
1.4720592499 1.1084709167 -0.7773860693
1.3925161362 1.2371635437 -0.72823143005
1.3694176674 1.1755576134 -0.86181813478
1.4126901627 1.3407683372 -0.45456317067
1.6324571371 0.896489501 -0.72896319628
1.6051176786 0.83245450258 -0.85475736856
1.5430793762 0.9730104804 -0.81984913349
1.5110749006 0.90627074242 -0.94620382786
1.5688557625 0.76380574703 -0.97738188505
1.4445904493 1.0439473391 -0.90735566616
1.3198801279 1.4505125284 -0.39223340154
1.3163071871 1.4080533981 -0.53359043598
1.2198654413 1.5137406588 -0.46955785155
1.3053174019 1.3576757908 -0.672947824
1.2119222879 1.468644619 -0.6118183136
1.196331501 1.4155333042 -0.75168639421
1.2864493132 1.2998111248 -0.80963015556
1.1135203838 1.5695103407 -0.54469132423
1.1003540754 1.5218673944 -0.68783968687
1.0000154972 1.618024826 -0.61802947521
1.5217626095 0.68765342236 -1.1006157398
1.4678058624 0.8312163353 -1.074534297
1.4154343605 0.75159561634 -1.1965049505
1.3564605713 0.89287465811 -1.1673855782
1.4050352573 0.97148913145 -1.0402321815
1.2893100977 1.0305467844 -1.1294468641
1.2997108698 0.80964267254 -1.2865421772
1.2360829115 0.9485372901 -1.253942728
1.1754680872 0.86185920238 -1.3694684505
1.3338654041 1.1066917181 -0.99801409245
1.1063379049 0.99787789583 -1.3342612982
1.1634235382 1.0836883783 -1.2132860422
1.0301684141 1.1294138432 -1.2896409035
1.0832351446 1.2133687735 -1.16375947
1.2129904032 1.1638689041 -1.0835411549
1.1291490793 1.2896336317 -1.0304679871
0.94813418388 1.2539712191 -1.2363635302
0.99770742655 1.334196806 -1.1065694094
0.86179327965 1.3694330454 -1.175557971
1.2536766529 1.236364007 -0.94852221012
1.04385674 0.90760278702 -1.4445000887
0.97127872705 1.0403180122 -1.4051172733
0.90622866154 0.94647812843 -1.5109286308
0.83107095957 1.0745625496 -1.4678678513
0.89276218414 1.1673781872 -1.3565409184
0.75175321102 1.1964696646 -1.4153808355
0.76382488012 0.97766625881 -1.5686687231
0.68787193298 1.1006098986 -1.5216679573
0.61803454161 1.0000252724 -1.618016839
0.80972665548 1.2864938974 -1.2997063398
1.1669193506 1.3567340374 -0.89306783676
1.0397771597 1.4052438736 -0.97167521715
1.0742324591 1.4679310322 -0.8313857317
0.94616770744 1.5109781027 -0.90646982193
0.90738397837 1.4444938898 -1.0440555811
0.97727566957 1.5687747002 -0.76410740614
1.4687825441 0.61184030771 -1.2117443085
1.4082561731 0.53367239237 -1.3160568476
1.3575768471 0.67322063446 -1.3052794933
1.2925980091 0.59271115065 -1.4063700438
1.3407396078 0.45461630821 -1.4126998186
1.2372357845 0.72854632139 -1.3922867775
1.266443491 0.37156763673 -1.5026836395
1.2206009626 0.50943058729 -1.5002020597
1.142308712 0.42420729995 -1.5859292746
1.0911194086 0.55896109343 -1.5801942348
[...]
CELL_DATA 5120
SCALARS cell_data_0 double
LOOKUP_TABLE default
1.10745215249e-11
1.00106503602e-10
1.44229999082e-11
5.73210394837e-11
2.26006624679e-10
2.73364592252e-10
2.96608297172e-10
2.63376300767e-10
2.01899162606e-10
3.72781410696e-11
1.95219164944e-10
1.74966723546e-10
1.10699510629e-10
1.11406710696e-10
1.36838061262e-10
4.53414952856e-11
1.9563087483e-10
2.35880182082e-10
2.07874605479e-10
4.49534807834e-11
9.43041873424e-12
3.65108928977e-10
1.30381405955e-09
1.84503823882e-10
1.29028564816e-10
1.58654352552e-10
7.07392934933e-10
1.24618737813e-09
4.24512934505e-10
8.35643517611e-10
1.38416302001e-09
1.2883785491e-10
3.34910177807e-10
3.82711360785e-10
9.66059159218e-11
1.99526897453e-10
3.01757856706e-10
3.35080374391e-10
6.68793909426e-11
5.06802619151e-11
1.47243644787e-10
8.25368447921e-10
7.09641694062e-10
4.20323251553e-10
5.98040316561e-10
2.49007897682e-10
6.93722232161e-11
5.57510131412e-10
7.79924540319e-10
1.74813875527e-11
2.04685333878e-10
3.93717160871e-11
2.96808332984e-11
2.16790472027e-10
8.93569015191e-10
3.37390457744e-11
5.25101969044e-10
4.49053682245e-10
4.2123665796e-10
6.29844853329e-10
4.33523345438e-10
5.4700891838e-10
7.2020708931e-10
3.30968959709e-10
7.2808043852e-10
2.49806931431e-10
2.23893617431e-10
4.60934420041e-10
4.35072237509e-10
4.79046095663e-10
7.73292518784e-10
1.65144135389e-10
2.17888000272e-10
5.81438429819e-10
7.65750972118e-10
8.29324464252e-10
3.00804624842e-10
3.4300252558e-10
1.09716498251e-09
2.71319725193e-10
2.68636805779e-10
3.59970501523e-10
9.96325062976e-11
9.50606830407e-10
3.3314247029e-11
3.82269037896e-11
2.91518516848e-10
9.01755485722e-10
2.63922154128e-11
2.61609681725e-10
5.02163655728e-10
1.59302831399e-10
8.87657545124e-10
2.97453594734e-10
4.50994819815e-10
1.55045954306e-10
1.17761919945e-10
1.147054668e-11
2.36404301865e-10
2.69086490433e-10
2.43219307014e-10
3.79776944383e-10
6.01530986494e-10
3.86126180993e-11
8.38083089536e-10
1.08184601486e-10
7.77025708773e-10
4.11501979582e-10
2.18296566073e-10
1.33579460044e-10
4.13055590179e-10
2.39011217141e-10
1.10254609787e-10
2.23598135209e-10
1.92075140959e-10
6.01996598221e-11
3.2621728861e-10
2.4133121364e-10
2.01882713441e-10
3.08622255889e-11
3.75175706929e-10
7.11981096657e-10
9.71314664316e-10
8.41971430352e-10
2.31571620507e-10
5.30731047739e-11
9.32295081369e-11
7.16246583314e-10
9.06761696989e-11
2.67327229199e-10
2.4569940318e-11
3.43954714918e-10
4.28944448966e-11
3.56506992646e-11
4.6873166492e-10
3.49688621166e-10
1.88551991434e-10
9.31884744524e-11
1.75278321298e-10
3.98787583896e-10
1.06449315356e-10
4.13258432455e-10
5.68998274253e-10
3.0243401927e-10
2.75930013807e-10
2.47535517888e-10
4.54457162704e-10
3.89743682191e-10
5.20648777866e-11
5.69379855003e-10
1.60573635271e-10
5.85575664693e-10
2.64040221494e-10
9.14756733627e-11
9.2189560838e-11
1.80485437619e-10
8.68786050594e-11
9.47697506853e-11
3.2449597095e-10
8.08072850157e-11
2.02894137192e-10
1.22981442432e-10
3.96405479796e-10
7.01998576905e-10
4.53556848574e-10
1.54177512331e-09
7.60000638554e-10
9.39322515035e-10
1.94045958529e-10
2.53141350678e-10
3.48126114052e-11
3.50239596308e-10
5.10645502867e-10
3.14044164919e-10
1.41810394648e-10
1.01166253346e-11
4.87757689784e-10
5.9488460314e-10
1.86051147809e-10
3.22475727157e-10
3.17232800321e-10
2.63649850386e-10
1.00294848943e-10
3.80130553463e-11
3.50390146375e-11
1.56811778758e-10
2.62574426882e-10
2.39158876281e-10
8.07024332677e-10
9.65844223048e-10
8.94068947917e-11
7.60876481973e-10
3.55153602251e-10
6.3258717022e-11
6.39155115586e-10
1.19610031815e-10
3.33675773381e-10
6.69589456987e-10
1.16990676169e-10
7.08815919656e-11
4.68801582527e-10
5.03719877523e-10
5.38294039397e-10
5.86441501575e-11
2.31083991803e-11
3.38729095763e-10
6.1162207155e-11
1.80981242329e-10
2.50753083787e-10
1.30511522082e-11
6.17949860106e-10
9.70658020462e-11
8.65145626111e-11
5.83354932179e-10
6.69298037349e-10
7.5164206749e-11
4.44962778434e-12
2.36469792294e-10
3.12861387961e-11
1.20716088399e-10
3.62395146965e-11
1.03929728789e-10
5.45206916948e-10
5.21622978788e-10
3.44449057291e-10
6.50698010196e-10
3.59742232526e-10
5.36548119908e-12
1.90061245944e-11
2.74722647228e-10
1.52819078045e-10
8.56291084792e-12
2.36733657036e-10
2.85446068049e-10
5.02164526938e-10
2.55862234008e-10
2.86838908684e-11
5.47189778893e-10
4.74493598146e-10
6.12701958204e-10
3.76822503469e-10
4.02930792198e-10
4.05749044315e-10
1.14622630334e-09
9.68307955041e-11
3.35847055196e-10
2.22716878034e-10
5.0381494282e-10
3.22937203271e-10
1.92328834696e-11
2.02584518451e-11
1.44061067908e-10
7.38365510799e-10
2.03923218296e-11
8.06398198832e-11
2.73723364735e-10
1.04720645222e-10
2.51778216279e-10
1.82539103022e-10
2.79588138987e-11
2.67406669889e-10
5.0598857311e-10
4.33943755711e-10
2.10378467096e-10
1.78445179182e-11
3.73922131985e-11
7.39213427205e-11
5.59994843713e-10
3.03433829003e-10
2.5487563077e-10
3.22293383897e-10
1.00062904418e-09
1.180864956e-10
2.99189990956e-12
3.35845291462e-10
5.72163735262e-10
7.18482528781e-10
2.92345464769e-10
4.18853058202e-10
5.65383441103e-10
3.74299208741e-10
3.6888670892e-10
2.95827675612e-10
5.81071974597e-10
6.2182971709e-10
3.86974293736e-11
7.08021685824e-11
8.23133853428e-10
4.26083304045e-10
7.01234979065e-10
7.39801204643e-10
3.75673345816e-10
3.50288910069e-10
1.27472313895e-11
3.72949035463e-10
2.91546160415e-10
4.40936263696e-10
3.68476592934e-10
3.16770818377e-10
4.8460328793e-10
5.28055095616e-10
7.17299457018e-10
7.65723138303e-11
4.67178540135e-10
5.68935101998e-10
3.2904219648e-10
3.16661792835e-10
2.98053706581e-10
5.08918788831e-10
2.93291205854e-10
9.22106738255e-10
2.25437482893e-10
1.9340766601e-10
1.99738514554e-11
7.78705042503e-10
8.26871270592e-10
4.83496468558e-10
1.69680365497e-10
1.54249923597e-09
3.75348355063e-11
2.13106683598e-11
3.70018048105e-10
4.07754577359e-10
4.50009392536e-10
2.56627796031e-10
6.01459386548e-10
6.59404403695e-10
5.72427648047e-10
4.1567526147e-10
1.37392826703e-10
2.36700899478e-10
3.89591848315e-11
1.71518486403e-11
3.43390021243e-10
3.60806214603e-10
6.36104738189e-10
1.056020446e-11
4.70705391602e-10
4.4655186361e-10
4.15898726548e-10
3.76569192291e-10
1.69614845421e-10
3.42478265967e-10
4.34742625027e-10
1.1270845613e-10
2.76134038578e-10
4.23714616484e-10
2.55567598904e-10
7.64824815927e-13
1.87775424567e-10
3.7228539469e-10
9.17787574728e-10
1.4521207069e-10
7.23782662561e-11
5.51824046933e-11
2.12721374119e-10
7.79097587311e-11
1.08685801807e-09
5.52274200081e-10
9.40700612119e-10
3.7241258289e-10
2.24640706435e-10
5.39331202845e-10
9.69862045912e-11
1.52088420831e-09
6.5508082664e-10
3.30397501096e-11
4.48105690609e-10
1.08067652402e-09
4.44637196475e-10
8.05682803103e-10
5.78562024298e-10
7.39558803276e-10
8.8043400184e-10
1.00594129697e-09
7.0043098396e-10
4.5099525077e-10
3.92461475566e-10
2.21158938204e-10
3.23871997781e-11
1.06127818792e-10
6.83992149341e-10
2.62377381229e-10
2.65618886198e-11
3.3648096766e-10
1.76879923526e-10
2.7093906101e-10
7.826372001e-11
2.78226448114e-10
4.41229331288e-10
8.17967116421e-10
4.4342659368e-10
1.64094877459e-10
2.98772012807e-12
8.81035366561e-11
1.29436562641e-09
6.70894729154e-10
9.58576703816e-11
1.61413624299e-11
3.16374013658e-11
1.13392577843e-09
7.36941248933e-10
3.30262624316e-10
6.20437400415e-10
4.78547244345e-10
3.18007138903e-10
1.15043352102e-10
4.89886640189e-10
4.63855352108e-10
3.17151540222e-10
5.34433545095e-10
1.19638248833e-10
1.05437706678e-10
1.89768575386e-10
2.19643891291e-12
8.61936896712e-11
7.77461681381e-10
2.63185917411e-10
2.62730416641e-10
1.19442142905e-10
3.2030282055e-10
3.44502501736e-10
9.95121157692e-11
3.18351630353e-10
4.58669807406e-11
1.58557152884e-10
2.12281301838e-11
1.69443468125e-10
4.3861780877e-10
6.26044353964e-10
4.40724944747e-11
4.9738176856e-10
9.46893179638e-11
8.98499923547e-11
2.92314309651e-11
2.70629745184e-10
2.22719220095e-10
1.36800094155e-10
4.31407084483e-10
1.67114184156e-10
1.9519041793e-10
5.84172713396e-10
2.2660045078e-10
4.43989205218e-10
7.28684256672e-10
5.69740820709e-10
7.80758530505e-11
8.76355817978e-10
3.1362901105e-11
4.06313707994e-11
8.16330547585e-10
1.15794853958e-10
6.93860996253e-10
2.96766579235e-10
2.96523041878e-10
4.5454321553e-10
1.31951598244e-10
6.85422847901e-11
3.13275756121e-11
5.61028930368e-10
4.91333554954e-10
5.99520166081e-10
1.02722085806e-11
2.95268101634e-10
2.33550024198e-10
4.99487316799e-10
5.24487108187e-10
3.69733972261e-10
6.11172642095e-10
1.0281529249e-09
2.30766171825e-10
1.02033033528e-09
1.81658699208e-10
2.24675685362e-10
2.50444713569e-10
2.48287701188e-11
5.78800022486e-10
6.88201266659e-10
3.68275247331e-10
3.44133133011e-10
4.45916292532e-10
6.9098228907e-10
6.03187259338e-10
5.27815746949e-10
2.81511131725e-10
1.03538889386e-10
1.12047685816e-09
2.26250459041e-10
9.89071728522e-10
8.73836767347e-10
5.85525183293e-10
8.19184491973e-10
1.55633832939e-10
1.10590762511e-10
6.73170632209e-10
3.94120066011e-10
1.4799486019e-12
5.39912407967e-11
1.09386044827e-10
5.88237291483e-10
7.26406966914e-11
1.24171031026e-10
2.68213497294e-10
7.3449250631e-10
1.35016785223e-11
1.5187644134e-09
1.020427272e-09
5.05685954697e-10
5.62779277477e-10
4.00583294082e-10
7.9769581838e-10
4.64977391721e-10
3.28960189479e-10
5.55234600811e-13
5.47364280342e-10
2.30623217827e-10
1.34693626187e-11
7.69485365418e-11
2.72810587621e-10
9.80314382876e-11
4.37781044992e-10
3.69117893954e-10
9.23919356928e-10
7.83533356633e-10
8.05453664104e-11
2.79321172463e-10
5.64892594062e-10
5.93019148721e-11
7.47675702368e-10
6.43342370065e-10
2.58132712773e-10
2.34736583594e-10
2.83917337065e-11
3.00759693326e-10
1.82691396844e-10
1.0646226282e-11
2.13732149423e-10
2.30091630402e-10
1.13357344652e-10
5.70574163139e-12
2.83908423921e-10
8.87830218855e-12
2.34974970806e-10
3.72173068012e-10
5.26285640687e-10
5.15108849879e-12
1.84876291964e-11
4.81927442524e-11
4.07351365096e-10
2.98057956771e-11
2.71771202704e-10
9.64246784252e-10
8.93229207934e-11
6.53645200599e-10
3.99367406218e-10
2.32402009463e-10
3.08124136481e-10
6.53354500587e-10
4.70464541104e-10
1.7174800687e-10
4.90413869008e-10
4.55248943882e-10
6.39255968336e-10
2.21360352362e-10
2.60441632584e-11
2.83637094241e-10
6.53985136277e-11
2.79522614169e-10
7.14904143081e-11
2.51354561882e-10
1.47493871963e-10
2.76268287866e-10
1.73802959025e-10
4.64012711331e-10
1.59542696912e-10
2.49468629826e-10
7.20667715111e-10
5.6282164308e-10
2.2839209555e-10
3.18842770801e-10
1.91719652145e-10
1.52126615694e-10
4.6095548059e-10
1.99232513459e-10
2.35681923907e-10
1.90218803928e-10
1.84898773047e-11
1.91725918207e-10
1.49389780098e-10
2.3967539777e-10
5.15817029962e-10
9.70724808464e-10
2.41017281076e-10
5.01794785087e-10
9.58171414293e-10
5.0163003333e-11
4.85483254471e-10
2.65082233863e-12
9.51936079406e-11
1.13258388973e-10
6.14926613668e-10
2.75705446032e-10
4.43416205801e-10
4.503106732e-10
2.83934645143e-10
2.69760486307e-11
2.14410854798e-11
6.16948685981e-10
1.33479417671e-10
1.79712965057e-11
5.36692951787e-10
7.45327627912e-10
5.13842356095e-11
2.23432235694e-10
1.42871490112e-10
3.53941764403e-10
3.79710927314e-10
4.15901685875e-10
2.35792103624e-10
2.78833743727e-10
1.24798966323e-09
5.04552610871e-10
3.90078383375e-11
5.33839344428e-10
1.84381532097e-10
3.43136924003e-10
1.74351556527e-10
5.24090814776e-10
3.02888691619e-10
4.21353389513e-10
1.29838616415e-10
4.76772362477e-10
5.37760067613e-10
5.8507629415e-10
4.38640019536e-11
7.22661586969e-11
4.23495683522e-10
1.57639559158e-10
3.16962409755e-10
2.3385362649e-10
3.80760063852e-10
4.29813307901e-10
5.08631152689e-11
9.370652423e-12
8.46735914543e-11
1.94901015945e-10
3.06538743241e-10
3.63899431495e-10
8.20658453646e-11
3.85101041109e-11
3.31085604372e-10
1.80432391278e-10
4.89950435275e-10
7.15994479138e-11
3.73949866119e-10
2.0486212381e-10
3.58143097122e-10
6.70094672582e-11
4.64736084673e-11
3.27986435147e-10
1.51148179763e-10
4.30944787331e-11
1.70128917016e-10
6.38550141771e-10
9.62776586231e-11
6.66732985382e-11
9.87638619143e-11
8.11043115225e-12
1.23880131345e-10
2.10363081347e-10
2.97365147261e-12
3.02502869901e-11
4.26139860215e-10
5.94818448771e-11
2.43577916184e-10
5.14855006465e-11
1.36686994058e-10
2.22116618749e-11
7.9223153546e-11
4.73092162164e-11
2.71254366533e-10
2.88219521004e-11
3.641891507e-10
5.06046878301e-11
3.44788770514e-10
1.18694301225e-10
1.17665336871e-10
2.86185894166e-10
3.77062089666e-10
3.56864348501e-10
1.70727381047e-10
2.66161579793e-11
1.97568903529e-10
4.33842994407e-10
2.85770693641e-10
1.24473162672e-09
4.66482658216e-14
6.08737668918e-11
1.14901551945e-10
2.1814659641e-10
6.37222246469e-10
2.9936351136e-10
4.41412989406e-10
3.87271063168e-10
9.94542671363e-11
1.69244836012e-11
8.1372084821e-11
3.58859334913e-10
3.0459885427e-10
8.02542388158e-11
1.95090052428e-10
3.57165248569e-10
1.52079068303e-10
4.68978086777e-10
1.25626401827e-10
8.78090329129e-10
8.58965300847e-11
2.26582726761e-10
2.14065854158e-10
9.34364730447e-11
1.53110030385e-11
1.91948752802e-11
3.98522075889e-10
4.06849067881e-10
4.43576712816e-10
3.80509945787e-10
2.07467944823e-10
1.92648349345e-10
2.31659151469e-10
9.45768863609e-11
1.93855616107e-10
2.43660398658e-10
1.07766562846e-09
4.9814503708e-10
2.03419470771e-10
1.42199001251e-10
1.88892505447e-10
1.01340984082e-11
2.79112843086e-10
1.27712210538e-11
1.69701325753e-10
9.67227271871e-14
3.04260154194e-10
1.43775812838e-10
4.14807432651e-10
7.83032093764e-12
3.06348447572e-10
2.94342239172e-11
2.67855912317e-10
4.90741284395e-10
2.67149827779e-10
1.0362029024e-10
4.4991111797e-11
1.03138811282e-11
2.94326296111e-11
9.42827049963e-11
1.62740542179e-11
2.59724246523e-10
1.14086024317e-12
1.53735938133e-10
1.228139434e-10
1.33426211411e-10
3.23086504723e-10
2.78594116364e-10
5.44923209014e-10
2.66363062626e-11
1.60577547091e-10
1.21658199603e-11
8.43240094441e-12
1.12316397134e-10
9.01284582304e-13
2.19034040253e-10
2.39291387348e-11
4.86112523286e-11
1.09569074029e-10
3.67030200798e-11
7.21389863001e-11
5.94373677982e-11
1.89283195663e-10
8.58014980004e-11
2.01527091653e-10
3.8329837812e-11
7.23580943558e-12
3.57326046744e-10
1.61189436684e-10
1.54294405692e-10
1.3383416146e-10
3.76410782024e-10
6.82356996701e-10
5.06154451718e-10
7.51124098621e-10
2.62306196733e-11
3.03572523574e-10
2.02104695019e-10
7.79731166428e-10
8.02592915616e-10
7.40276279275e-11
7.05442922506e-11
3.26371679474e-10
9.37354068312e-11
2.85701224637e-11
1.09930719435e-10
7.14539296984e-11
3.14498024779e-10
1.65936466935e-10
1.34398524561e-10
3.37733983435e-11
3.89965932793e-10
1.15467232976e-10
4.26518035632e-11
1.98877024508e-10
1.43128934643e-10
6.77775377671e-11
8.08030754778e-11
1.7165201247e-10
9.91943212189e-10
3.62930347979e-10
5.30982505272e-10
2.87075102775e-11
2.47807320468e-10
6.49989375743e-10
1.25698489652e-10
3.82898466472e-10
4.94749310803e-10
2.65080255837e-10
7.25259792428e-10
5.94742627247e-10
4.08302162591e-10
4.18743537898e-10
1.56434818546e-10
1.28813119542e-11
1.63185313773e-10
5.9260185312e-11
1.38046330165e-10
1.42392862964e-10
3.08901564198e-10
1.2906239357e-10
2.7233988928e-10
1.14652424944e-10
1.13426398325e-10
5.53683433441e-12
6.44837169891e-12
7.57264539436e-11
1.81983787703e-10
1.21092784539e-10
4.17410743104e-10
3.70527766759e-10
7.94373597735e-10
2.46578638522e-10
3.76223415839e-10
3.85097613073e-10
2.66749703813e-10
1.10203600966e-09
1.23160031113e-09
1.16948977199e-09
4.23191830833e-10
5.96067127261e-10
7.79262640373e-10
1.27917984999e-10
1.12373605921e-09
2.42375831604e-10
7.5417552292e-10
1.20080854614e-09
6.82922029014e-10
5.25634002021e-11
1.95467982951e-10
3.79660545316e-10
3.25317069967e-10
8.75689795907e-10
1.85521003685e-10
4.93119436079e-10
2.41478467813e-10
5.65926807683e-11
6.6798653612e-10
3.27526495737e-11
4.06207703417e-11
4.70322866593e-10
4.12435085245e-11
2.13505074769e-10
2.43716848064e-10
1.13334350928e-09
8.20249814279e-10
9.37619894603e-10
4.33718464284e-10
1.00610832614e-09
7.18036973913e-10
8.96608209474e-10
1.98640537811e-11
8.20707185729e-10
5.03243161971e-10
2.99263081081e-10
1.34380749186e-09
1.0525442056e-10
2.78833000106e-10
1.58798468985e-10
2.97792434692e-11
1.3790423936e-11
2.07125835624e-10
5.10033810744e-11
5.92241512078e-10
5.1190055351e-11
1.42231134146e-11
5.3956601793e-11
2.23961513624e-10
1.57985521543e-10
3.32267088339e-10
4.33725384185e-10
3.88352243373e-10
8.86499379183e-10
4.18018755819e-11
2.67064939585e-10
1.18398180253e-10
1.45438105978e-10
6.05478883326e-10
5.34915122085e-10
7.58436178042e-10
6.05001535553e-10
2.92161033676e-10
5.16643169953e-11
9.21666930784e-10
1.38709722785e-10
4.02558114565e-11
1.35091711388e-11
1.7274932165e-10
2.94455565551e-10
6.19251635358e-10
2.66889774771e-12
5.26698813044e-10
3.44207761296e-10
1.15390343552e-10
6.63038653744e-11
3.68080362745e-10
5.76217552124e-11
1.14170356239e-09
9.21344508679e-11
7.81178412561e-10
1.4837200265e-10
5.51521580763e-10
6.59349646138e-10
6.46391430141e-10
1.61455689989e-10
4.6571511804e-13
1.26113854954e-10
9.11439951957e-11
3.32765812736e-10
1.8730669356e-10
3.04268134581e-10
3.13420808728e-10
3.81413716695e-10
7.67235764942e-11
1.56595346366e-10
7.95888310423e-11
4.48434131466e-10
1.7043411508e-10
2.59128932413e-10
3.41909721502e-11
1.58878858684e-10
8.928424906e-11
5.48780237974e-11
7.08364416191e-10
2.04090172239e-10
2.14663198336e-10
1.08855652911e-10
1.10553747365e-10
2.49319650533e-10
3.18705588667e-10
6.43306280499e-10
3.36683627031e-10
1.35771583938e-10
6.0303019611e-11
4.24501772751e-10
3.46249889768e-11
1.86197675578e-10
1.26723714999e-10
5.22832624464e-10
9.78124747312e-11
1.11650892734e-09
7.11131644871e-10
3.82662390351e-10
1.93134628961e-10
4.82507243397e-10
4.02368769371e-10
6.70383170714e-10
3.25824331666e-10
7.99837480197e-10
7.07883734172e-10
6.52387035315e-11
8.11990737386e-10
1.53024613318e-10
1.72480819993e-10
4.06896149272e-11
5.07320102798e-10
8.57059071761e-10
1.01227656744e-09
1.82187501468e-11
1.97091503163e-10
3.18861389348e-10
2.61139837291e-10
2.00058591564e-10
1.15322486488e-10
1.219073967e-10
1.10297290284e-10
7.17284093443e-10
4.96109471561e-10
1.84949752014e-10
3.81525018019e-10
3.67961677496e-10
2.82080856785e-11
2.24964134227e-10
7.75076577912e-10
1.96393143011e-10
5.07230966724e-10
1.03394132583e-10
9.05009699593e-10
4.41222672395e-10
6.99245132943e-10
5.93737419696e-11
1.88616606389e-10
2.21206250584e-11
9.80298667168e-10
4.0589827991e-10
1.13145128629e-10
2.4376495688e-10
2.17538402652e-10
1.83004687858e-11
3.44812999153e-10
5.95475987905e-10
1.3841491016e-10
1.10817165669e-10
6.68298120086e-11
2.39940939295e-10
7.64712709155e-11
5.9652017241e-10
9.43934723353e-11
4.41919791296e-10
3.3568474896e-10
3.60428245793e-10
1.60790574068e-10
1.30356482105e-10
1.33410882993e-09
6.01122366597e-11
8.46844131769e-11
1.60251303355e-10
3.97633788342e-10
1.08148776918e-10
9.11492718855e-11
1.51233681373e-10
3.08811863817e-10
2.85473754527e-10
3.12425794576e-10
9.34531300503e-11
2.13115089782e-11
2.62917294294e-10
6.3028729167e-11
2.55526136828e-10
4.23114511964e-10
3.24999255647e-10
6.36863467119e-10
1.74726170285e-10
4.7378634799e-10
3.19387180971e-10
2.3842165117e-10
3.20756871843e-10
4.25355595032e-10
4.21138114087e-10
2.38499419169e-10
1.12366884573e-10
2.8741744823e-10
1.1769632577e-10
2.06814808739e-10
5.16848996266e-11
2.69982448723e-10
3.80736963344e-10
7.21888407313e-10
1.26685115534e-10
7.58341822186e-11
5.52733562067e-10
7.19213819446e-11
2.64646470655e-10
2.83090557654e-10
3.109943148e-10
3.59050944453e-10
1.07412055971e-09
3.62345298625e-10
2.53253927153e-10
1.20625076081e-10
4.50028305855e-10
1.25755533725e-10
3.4158801412e-10
6.75891175172e-11
3.86877841493e-10
6.29439732046e-11
2.73179752758e-10
2.07397170759e-10
5.71070557523e-10
4.37729338144e-11
3.60793595689e-10
4.14897143712e-10
9.69246648193e-11
9.42241081343e-10
3.10351451955e-11
5.28804433726e-10
4.02361059108e-10
5.65633057763e-10
4.95886277034e-11
4.9314906265e-10
6.82644617733e-10
1.0070119916e-09
7.37403363527e-10
5.67473235949e-10
1.28622457043e-09
1.35091674928e-09
3.9891906059e-10
3.09085340035e-10