# vtk DataFile Version 3.0
File Name: Molecule/sphere_cent/sphere_cent_0-s5.vtk
ASCII
DATASET UNSTRUCTURED_GRID
FIELD FieldData 1
TIME 1 1 double
0.0
POINTS 390 double
0.5 0.809016994375 -0.309016994375
0.425325404176 0.688190960236 -0.587785252292
0.259891913008 0.862668480416 -0.433888564553
0.16062203564 0.702046444776 -0.69378047756
0.0 0.850650808352 -0.525731112119
0.0 0.961938357784 -0.273266528913
-0.259891913008 0.862668480416 -0.433888564553
-0.26286555606 0.951056516295 -0.162459848116
-0.5 0.809016994375 -0.309016994375
0.309016994375 -0.5 -0.809016994375
0.16062203564 -0.702046444776 -0.69378047756
0.0 -0.525731112119 -0.850650808352
-0.16062203564 -0.702046444776 -0.69378047756
-0.309016994375 -0.5 -0.809016994375
-0.809016994375 -0.309016994375 -0.5
-0.862668480416 -0.433888564553 -0.259891913008
-0.951056516295 -0.162459848116 -0.26286555606
-0.961938357784 -0.273266528913 0.0
-0.850650808352 -0.525731112119 0.0
-0.809016994375 0.309016994375 -0.5
-0.951056516295 0.162459848116 -0.26286555606
-0.862668480416 0.433888564553 -0.259891913008
-0.16062203564 0.702046444776 -0.69378047756
-0.425325404176 0.688190960236 -0.587785252292
-0.309016994375 0.5 -0.809016994375
-0.702046444776 -0.69378047756 -0.16062203564
-0.702046444776 -0.69378047756 0.16062203564
-0.525731112119 -0.850650808352 0.0
-0.5 -0.809016994375 -0.309016994375
-0.5 -0.809016994375 0.309016994375
-0.26286555606 -0.951056516295 -0.162459848116
-0.26286555606 -0.951056516295 0.162459848116
-0.259891913008 -0.862668480416 -0.433888564553
0.0 -0.961938357784 -0.273266528913
0.0 -1.0 0.0
-0.862668480416 -0.433888564553 0.259891913008
-0.688190960236 -0.587785252292 0.425325404176
-0.809016994375 -0.309016994375 0.5
-0.809016994375 0.309016994375 0.5
-0.951056516295 0.162459848116 0.26286555606
-0.850650808352 0.0 0.525731112119
-0.951056516295 -0.162459848116 0.26286555606
-1.0 0.0 0.0
-0.862668480416 0.433888564553 0.259891913008
-0.961938357784 0.273266528913 0.0
-0.425325404176 -0.688190960236 -0.587785252292
-0.688190960236 -0.587785252292 -0.425325404176
0.425325404176 -0.688190960236 -0.587785252292
0.0 0.525731112119 -0.850650808352
0.0 0.850650808352 0.525731112119
-0.259891913008 0.862668480416 0.433888564553
-0.16062203564 0.702046444776 0.69378047756
-0.425325404176 0.688190960236 0.587785252292
-0.5 0.809016994375 0.309016994375
-0.309016994375 0.5 0.809016994375
-0.587785252292 0.425325404176 0.688190960236
-0.433888564553 0.259891913008 0.862668480416
-0.69378047756 0.16062203564 0.702046444776
-0.433888564553 -0.259891913008 0.862668480416
-0.309016994375 -0.5 0.809016994375
-0.162459848116 -0.26286555606 0.951056516295
-0.273266528913 0.0 0.961938357784
0.0 0.0 1.0
0.0 -0.525731112119 0.850650808352
0.162459848116 -0.26286555606 0.951056516295
0.309016994375 -0.5 0.809016994375
-0.16062203564 -0.702046444776 0.69378047756
0.16062203564 -0.702046444776 0.69378047756
0.273266528913 0.0 0.961938357784
0.433888564553 -0.259891913008 0.862668480416
0.525731112119 0.0 0.850650808352
0.69378047756 -0.16062203564 0.702046444776
0.587785252292 -0.425325404176 0.688190960236
0.809016994375 -0.309016994375 0.5
0.259891913008 -0.862668480416 0.433888564553
0.425325404176 -0.688190960236 0.587785252292
0.688190960236 -0.587785252292 0.425325404176
0.862668480416 -0.433888564553 0.259891913008
0.702046444776 -0.69378047756 0.16062203564
0.850650808352 -0.525731112119 0.0
-0.601500955008 0.707106781186 0.37174803446
-0.518332565981 0.56541318032 0.641591214532
-0.688190960236 0.587785252292 0.425325404176
-0.757935420048 0.453990499739 0.468429850867
-0.702046444776 0.69378047756 0.16062203564
0.5 -0.809016994375 -0.309016994375
0.386187385588 -0.891006524188 -0.238676930319
0.259891913008 -0.862668480416 -0.433888564553
0.133071104141 -0.987688340595 -0.0822424652791
0.396525177464 -0.914857743445 0.0761780342124
0.26286555606 -0.951056516295 0.162459848116
0.26286555606 -0.951056516295 -0.162459848116
0.5 -0.809016994375 0.309016994375
0.525731112119 -0.850650808352 0.0
0.809016994375 -0.309016994375 -0.5
0.891006524188 -0.238676930319 -0.386187385588
0.862668480416 -0.433888564553 -0.259891913008
0.925614793411 -0.353553390593 -0.135045378369
0.951056516295 -0.162459848116 -0.26286555606
0.850650808352 0.525731112119 0.0
0.790569415042 0.572061402817 -0.218508012224
0.702046444776 0.69378047756 -0.16062203564
0.601500955008 0.707106781186 -0.37174803446
0.688190960236 0.587785252292 -0.425325404176
0.519258489728 0.840177885327 -0.15643446504
0.707106781187 0.707106781187 0.0
0.525731112119 0.850650808352 0.0
0.702046444776 0.69378047756 0.16062203564
0.519258489728 0.840177885327 0.15643446504
0.5 0.809016994375 0.309016994375
0.386187385588 0.891006524188 -0.238676930319
0.399607051702 0.912982492932 -0.0823235800317
0.26286555606 0.951056516295 -0.162459848116
0.266404701135 0.963861263467 0.0
0.399607051702 0.912982492932 0.0823235800317
0.26286555606 0.951056516295 0.162459848116
0.133071104141 0.987688340595 -0.0822424652791
0.133071104141 0.987688340595 0.0822424652791
0.0 1.0 0.0
0.386187385588 0.891006524188 0.238676930319
0.132792476828 0.966392597402 -0.220117027473
0.0 0.990438881957 -0.137952242128
0.259891913008 0.862668480416 0.433888564553
0.135045378369 0.925614793411 0.353553390593
0.0 0.961938357784 0.273266528913
-0.133071104141 0.987688340595 0.0822424652791
-0.135045378369 0.925614793411 0.353553390593
-0.26286555606 0.951056516295 0.162459848116
0.0 0.707106781187 0.707106781187
0.16062203564 0.702046444776 0.69378047756
0.15643446504 0.519258489728 0.840177885327
0.0 0.525731112119 0.850650808352
0.309016994375 0.5 0.809016994375
0.0823235800317 0.399607051702 0.912982492932
0.238676930319 0.386187385588 0.891006524188
0.162459848116 0.26286555606 0.951056516295
0.433888564553 0.259891913008 0.862668480416
0.353553390593 0.135045378369 0.925614793411
0.238676930319 -0.386187385588 -0.891006524188
0.433888564553 -0.259891913008 -0.862668480416
0.353553390593 -0.135045378369 -0.925614793411
0.162459848116 -0.26286555606 -0.951056516295
0.525731112119 0.0 -0.850650808352
0.0822424652791 -0.133071104141 -0.987688340595
0.273266528913 0.0 -0.961938357784
0.0 0.0 -1.0
-0.162459848116 -0.26286555606 -0.951056516295
0.0 -0.266404701135 -0.963861263467
-0.238676930319 -0.386187385588 -0.891006524188
-0.0822424652791 -0.133071104141 -0.987688340595
-0.273266528913 0.0 -0.961938357784
-0.353553390593 -0.135045378369 -0.925614793411
-0.525731112119 0.0 -0.850650808352
-0.433888564553 -0.259891913008 -0.862668480416
0.601500955008 0.707106781186 0.37174803446
0.790569415042 0.572061402817 0.218508012224
0.688190960236 0.587785252292 0.425325404176
0.468429850867 0.757935420048 0.453990499739
0.564254211766 0.646577791798 0.51337544123
0.425325404176 0.688190960236 0.587785252292
0.51337544123 0.564254211766 0.646577791798
0.646577791798 0.51337544123 0.564254211766
0.587785252292 0.425325404176 0.688190960236
0.37174803446 0.601500955008 0.707106781186
0.453990499739 0.468429850867 0.757935420048
0.809016994375 0.309016994375 0.5
0.218508012224 0.790569415042 0.572061402817
0.572061402817 0.218508012224 0.790569415042
-0.840177885327 -0.15643446504 -0.519258489728
-0.69378047756 -0.16062203564 -0.702046444776
-0.707106781187 0.0 -0.707106781187
-0.850650808352 0.0 -0.525731112119
-0.69378047756 0.16062203564 -0.702046444776
-0.840177885327 0.15643446504 -0.519258489728
-0.453990499739 0.468429850867 -0.757935420048
-0.707106781186 0.37174803446 -0.601500955008
-0.688190960236 0.587785252292 -0.425325404176
-0.572061402817 0.218508012224 -0.790569415042
-0.587785252292 0.425325404176 -0.688190960236
-0.433888564553 0.259891913008 -0.862668480416
-0.453990499739 -0.468429850867 -0.757935420048
-0.572061402817 -0.218508012224 -0.790569415042
-0.587785252292 -0.425325404176 -0.688190960236
-0.707106781186 -0.37174803446 -0.601500955008
0.707106781186 -0.37174803446 -0.601500955008
0.572061402817 -0.218508012224 -0.790569415042
0.69378047756 -0.16062203564 -0.702046444776
0.587785252292 -0.425325404176 -0.688190960236
0.453990499739 -0.468429850867 -0.757935420048
0.757935420048 -0.453990499739 -0.468429850867
0.646577791798 -0.51337544123 -0.564254211766
0.688190960236 -0.587785252292 -0.425325404176
0.790569415042 -0.572061402817 -0.218508012224
-0.0822424652791 0.133071104141 -0.987688340595
0.162459848116 0.26286555606 -0.951056516295
-0.238676930319 0.386187385588 -0.891006524188
-0.353553390593 0.135045378369 -0.925614793411
-0.162459848116 0.26286555606 -0.951056516295
-0.37174803446 -0.601500955008 0.707106781186
-0.453990499739 -0.468429850867 0.757935420048
0.961938357784 -0.273266528913 0.0
0.862668480416 0.433888564553 0.259891913008
0.69378047756 0.16062203564 0.702046444776
-0.518332565981 -0.56541318032 0.641591214532
-0.646577791798 -0.51337544123 0.564254211766
-0.587785252292 -0.425325404176 0.688190960236
-0.564254211766 -0.646577791798 0.51337544123
-0.425325404176 -0.688190960236 0.587785252292
0.702046444776 -0.69378047756 -0.16062203564
0.850650808352 0.0 -0.525731112119
0.912982492932 0.0823235800317 -0.399607051702
0.912982492932 -0.0823235800317 -0.399607051702
0.963861263467 0.0 -0.266404701135
0.951056516295 0.162459848116 -0.26286555606
0.840177885327 0.15643446504 -0.519258489728
0.891006524188 0.238676930319 -0.386187385588
0.809016994375 0.309016994375 -0.5
0.987688340595 -0.0822424652791 -0.133071104141
0.987688340595 0.0822424652791 -0.133071104141
1.0 0.0 0.0
0.69378047756 0.16062203564 -0.702046444776
0.707106781187 0.0 -0.707106781187
0.587785252292 0.425325404176 -0.688190960236
0.51337544123 0.564254211766 -0.646577791798
0.646577791798 0.51337544123 -0.564254211766
0.564254211766 0.646577791798 -0.51337544123
0.453990499739 0.468429850867 -0.757935420048
0.37174803446 0.601500955008 -0.707106781186
0.309016994375 0.5 -0.809016994375
0.433888564553 0.259891913008 -0.862668480416
0.572061402817 0.218508012224 -0.790569415042
0.707106781186 0.37174803446 -0.601500955008
[...]
CELL_DATA 776
SCALARS cell_data_0 double
LOOKUP_TABLE default
3.91923147288e-08
1.50503235908e-07
3.56950134756e-08
6.98882915787e-08
1.91870251425e-07
7.69616307201e-08
1.1336327182e-07
1.68749503711e-07
1.0205480777e-07
1.13295110933e-07
1.12125481847e-07
2.56605963893e-08
2.31325222521e-07
9.08607451062e-08
3.12074891618e-07
1.8823802902e-07
1.9595897607e-07
2.68822998071e-07
8.54611499664e-08
1.92392565978e-07
3.22129937884e-07
5.69290181322e-07
9.09441066059e-08
2.12768480542e-07
2.38423268786e-07
2.87195605436e-07
1.79523055626e-07
3.94025843259e-08
3.86126749985e-07
5.41341427764e-07
4.05810713757e-07
2.31669335338e-07
2.53180317071e-07
2.25811304237e-07
1.69424716081e-08
1.92018611097e-07
5.234800801e-08
1.24415980505e-07
1.69967925217e-07
1.85683203152e-07
2.45839009996e-07
2.76291281998e-07
2.34234005523e-07
9.19216578392e-08
2.85886335472e-07
3.81544482686e-07
2.48092600559e-07
1.03733446501e-07
2.83946802607e-07
3.24661131e-07
2.31641329678e-07
3.45338160363e-07
5.38515513983e-07
3.44421799968e-07
3.77141542519e-07
3.88140469231e-07
5.89496539163e-07
7.60361410367e-07
5.42173071226e-07
4.79871381586e-07
3.2261886592e-07
4.80408507384e-07
3.23770108844e-07
3.17763877122e-07
5.0925473286e-07
2.91871466674e-07
4.4337377297e-07
3.42036366129e-07
4.49183972272e-07
1.82140190324e-07
5.24039087873e-07
2.13324821775e-07
4.26210714648e-07
2.75742558553e-07
1.11570515737e-08
3.90312079918e-08
4.36279279201e-08
8.89342653244e-09
5.02773955523e-08
1.0881974453e-07
3.80876128184e-08
5.9502565482e-08
9.77673807116e-08
7.08153156957e-08
1.31191823603e-07
9.27466704665e-08
1.18177032508e-07
2.18155223885e-08
5.14421165729e-08
1.6618877851e-07
1.54810504909e-07
4.66494986109e-08
4.97997204309e-08
1.86725198467e-07
1.71121672734e-07
3.29941276297e-09
2.7576586514e-09
9.23716252985e-09
9.30339637127e-08
3.20380892153e-08
5.00998781633e-08
1.73083750787e-08
1.40883949009e-08
4.19127007387e-08
6.32841206619e-09
8.30223869779e-08
3.9374044229e-08
3.25515220207e-08
3.70422349174e-08
9.36726841122e-08
4.90504548834e-08
2.28855758477e-08
1.20163094527e-07
3.95560851088e-08
9.21834788828e-08
1.03057960228e-07
9.82846039318e-08
7.10981278394e-08
1.0385170997e-07
9.35022646098e-08
9.84518081137e-08
6.42209587301e-08
9.26811835195e-08
1.24196296703e-07
1.05903070796e-07
4.79806109322e-08
1.1324116667e-07
1.07946834731e-07
4.8265579596e-08
1.04050808253e-07
9.59132090461e-10
4.83406873869e-08
1.12829326292e-07
5.39321145976e-08
1.18672905834e-07
8.91267059311e-08
3.64609953402e-09
3.39311813539e-08
2.41101728542e-09
2.33329804839e-08
1.6368188774e-09
3.05283777715e-08
1.66687751183e-08
2.96024615125e-08
2.35289012001e-08
4.35205417533e-09
2.73967170339e-08
5.57678961032e-08
3.54158609484e-08
2.21236465779e-08
4.38944558184e-08
2.64384059502e-08
2.98272443439e-08
1.81686028366e-08
3.04461028271e-08
9.96031433938e-08
5.81165939689e-08
1.23535301294e-07
1.25625249628e-07
4.79717989738e-09
2.39045151429e-08
4.00819226759e-08
4.82598902348e-11
3.38803338957e-08
3.58961317309e-08
6.16306243728e-09
2.29603996503e-08
4.30627426844e-08
1.44873702978e-08
6.49776172334e-08
6.39475075693e-08
5.36823314875e-09
3.58115302312e-08
7.34141620553e-08
1.24713047991e-09
3.80270339327e-08
1.25619874821e-07
4.67817951901e-08
1.39834945378e-07
1.33452982186e-07
2.9434164174e-08
2.65869014086e-08
2.01249682086e-08
5.35634752278e-08
4.59258039899e-08
2.00411114414e-08
4.6068512509e-08
7.4609844102e-08
5.45914712276e-09
1.74711951139e-08
1.29496511298e-08
4.08419297133e-09
1.04076178362e-07
1.9370601721e-08
6.96480312232e-08
7.68496177064e-08
4.64819467822e-08
1.06140379976e-08
5.68715131661e-08
8.12771866465e-08
8.34509753682e-08
2.84913638644e-08
1.0470001688e-07
7.66840429692e-08
1.14354371485e-07
3.78668493751e-08
7.10926197418e-08
2.07893830825e-08
6.2662739746e-09
1.11480070583e-08
6.87301397745e-08
3.51100590436e-08
2.63215101604e-08
5.16238396343e-08
6.30909754137e-08
2.85414073651e-08
9.02055559374e-09
1.74506596007e-08
8.85253553305e-08
2.10544760047e-08
8.30416993045e-09
5.07590721742e-09
6.61895398652e-08
1.74637589903e-09
4.49026888007e-09
7.09645775607e-08
4.91558543885e-08
8.14421790857e-08
1.65357843756e-07
2.35515895311e-08
9.37525729541e-08
6.94002644597e-08
1.04126726924e-08
1.09970533703e-09
1.03674266313e-07
6.52162378674e-08
1.4272583472e-08
7.06528001053e-08
4.55159280249e-08
6.34139707699e-08
1.95452803866e-08
9.11806801985e-09
7.83434790402e-08
6.83356455515e-08
6.71757731448e-09
4.25446916059e-08
1.17020787057e-07
1.43015980657e-07
9.38056136213e-08
4.79617103126e-09
7.29383172007e-08
5.23535450513e-08
2.74637253245e-08
8.1932640399e-08
5.26480121827e-08
9.45150327331e-08
9.84505433544e-08
2.13241211187e-07
8.36554602561e-08
1.74205300756e-07
5.60697674789e-08
1.66285052544e-08
7.33549007608e-08
1.23756272962e-08
1.25023676745e-07
1.01435591128e-07
6.88370635819e-10
1.2255957181e-07
9.20728833268e-08
3.41994250423e-08
9.42738765762e-09
1.26353113108e-07
1.22060552218e-07
2.67123056784e-08
5.69597912543e-08
4.68732454013e-08
6.72144640602e-08
1.28525026346e-07
7.19163744283e-08
4.07240184516e-08
8.9872391367e-08
1.82048044671e-08
1.18965303857e-08
1.0429560001e-08
1.54158895436e-08
1.10270370796e-08
1.95661874381e-08
5.4865453657e-08
6.80611060322e-08
9.84837061251e-08
1.54470094997e-08
6.36451493273e-08
1.54037968318e-08
2.4919032318e-08
4.39715701627e-08
3.08023282329e-08
6.33619693151e-08
9.86307906936e-09
2.30755556073e-08
1.64935892018e-08
6.01470068898e-08
5.46224616191e-08
8.55847051158e-08
9.35893192613e-08
8.58236310012e-09
4.80122937873e-08
7.47563085588e-09
1.31676781338e-08
6.06317428823e-08
1.03865477961e-07
1.29997884058e-07
2.04987493636e-08
2.25465594953e-08
2.89462952965e-08
7.96315595331e-08
2.15541498619e-08
7.19777213941e-08
3.08037298811e-09
8.28995338023e-08
8.34295450168e-08
7.41627938019e-08
1.68496664861e-07
9.26818146465e-08
8.72624849209e-08
4.13594585434e-08
1.3909620989e-07
1.20231885249e-07
6.53266843178e-08
5.27224747754e-08
8.71306584056e-10
1.88814069297e-07
4.14979162129e-08
1.75045746029e-08
1.05341163762e-07
1.00701286734e-07
2.88196006259e-08
1.92667068905e-08
5.45551216688e-08
2.37705829394e-08
6.49411949549e-08
9.75451530518e-09
4.38550738305e-08
5.11941270787e-08
7.92719134081e-08
6.29748408876e-08
4.61994302912e-08
3.0714363729e-08
1.48788218312e-08
5.22282164216e-08
3.28467992224e-08
1.31344122663e-08
1.70254131277e-08
3.63388074358e-08
2.19355725605e-08
2.06301169641e-08
3.31393763687e-08
3.84596140431e-08
4.89536258599e-08
7.6956903864e-08
3.23860058623e-08
8.64866620467e-08
2.86128545932e-08
6.8634116128e-08
6.22309626781e-08
1.00733500416e-08
1.44547498177e-08
4.46891788775e-08
2.74395832637e-08
3.26161049934e-08
5.13535133083e-08
4.86316343369e-08
4.34955285597e-08
3.51034981766e-08
3.38945656389e-08
6.18635975875e-08
2.36108446513e-08
8.25645456267e-08
4.31380442778e-08
8.62765403788e-08
6.87988936146e-08
2.74154936911e-08
1.52782763714e-08
2.60651957467e-08
4.62177799973e-08
5.90743492236e-08
2.19083792564e-08
4.77014498703e-08
1.56669116236e-08
8.76513803006e-09
3.59637625328e-08
8.37815978261e-09
4.25246512343e-08
6.99000715778e-09
2.17602601682e-08
3.29303499909e-08
4.20369522944e-08
1.80084419707e-08
3.85701661329e-08
5.73566984186e-08
3.38462430077e-08
1.05454519188e-08
4.18431903072e-08
8.53313655708e-09
3.34799758471e-08
4.68471939184e-08
1.94405922268e-08
1.64256847083e-08
1.37519828636e-07
4.22784443657e-08
7.99974169167e-09
3.82138369548e-08
3.69830338827e-08
3.26422144441e-08
1.11228110689e-07
1.28890983393e-07
8.9294758599e-08
9.1080846353e-09
3.94886716932e-08
5.27384601713e-08
1.99005216633e-08
3.58570998136e-08
2.00634056866e-08
4.80966115402e-08
2.0426731294e-08
3.92747831795e-08
2.01324205779e-08
1.36963788783e-08
4.69371360392e-08
7.80092004721e-08
2.00736216838e-08
6.17034414108e-08
6.27549144428e-08
1.12876470661e-07
8.49575038638e-08
3.52585962279e-09
1.60346763088e-08
6.07671342132e-08
1.34231213537e-08
3.77898068473e-08
6.52409744538e-08
2.9024173797e-08
2.74682431069e-08
7.86457235372e-09
6.478380847e-09
7.29365861774e-09
5.09079886961e-08
2.91597567177e-09
4.63298071586e-09
1.12359962343e-08
1.09471666976e-07
1.85614562956e-07
1.68496424163e-07
1.95398125959e-07
1.25299200218e-07
1.03874544386e-07
1.91507195213e-07
1.83451041322e-08
5.04690358424e-08
1.8870048712e-09
3.51267389086e-08
5.51258287799e-08
1.46725013257e-07
1.44697194624e-07
1.07610384326e-07
3.44625944838e-08
1.99572252287e-08
7.50109694316e-09
1.58060694953e-08
3.19519217832e-09
5.72545989583e-08
4.39186312593e-09
4.40163149973e-08
2.94968463365e-08
5.67204853123e-08
1.17886912785e-07
1.49953659207e-07
6.32675390492e-08
3.18654279365e-09
8.61494930734e-08
1.34080391811e-07
8.22986467658e-08
1.27388028001e-08
1.40431633895e-08
6.59847905767e-08
1.07244117413e-07
9.73247374193e-08
1.15585131145e-07
6.2624039361e-08
2.51129726849e-08
7.2865045569e-08
6.93345007918e-08
3.90583057796e-09
5.31290398941e-08
6.67294166664e-08
4.4319225018e-08
1.23146611317e-08
4.9045351691e-08
7.95154236467e-08
4.50279397781e-08
8.44389242064e-09
9.40163584302e-08
4.57720672243e-08
2.50546728612e-08
3.40319835355e-08
5.11274369156e-08
2.38253615528e-09
4.09899574723e-08
1.10275613767e-07
1.44631503923e-08
4.47827760529e-08
4.52487710414e-08
1.89244707877e-08
2.27508087689e-08
5.62127647772e-08
5.52449073398e-08
3.5519373566e-08
6.37287556652e-08
8.69282456805e-08
2.91591730514e-08
3.76315928118e-09
2.74678452342e-08
2.07933818228e-08
8.50770294346e-08
2.83947204422e-08
1.50222575751e-08
2.23209696335e-08
5.25972947656e-09
5.16323025089e-10
5.30451154896e-09
7.95470764799e-09
3.38070180756e-08
3.20071887149e-08
7.89146469139e-10
1.75859611253e-08
1.60577439398e-08
1.04723224391e-08
8.88925476387e-08
8.23881401518e-08
1.57404617014e-08
1.5258820781e-08
1.50498355005e-08
2.48557974903e-08
1.08559860303e-08
1.1703731919e-08
5.15226787211e-09
1.76710146963e-08
1.37257315976e-08
2.71722670559e-08
4.20282151484e-08
1.73838726631e-09
9.07317139618e-09
2.3043010501e-08
1.49065747579e-08
3.5533920508e-08
8.89075773113e-08
2.58528842739e-08
2.83446603572e-08
1.09739427832e-09
4.90850351325e-08
6.04634645629e-08
2.93504563853e-08
5.69676937653e-09
2.32759052654e-08
1.62829352935e-08
2.62346308136e-08
2.39387727058e-08
5.91840475109e-08
2.47053074093e-08
7.36102296013e-10
5.47441698046e-09
7.31074646943e-09
3.5059691023e-08
2.59574188976e-08
4.14784316008e-09
2.14997528105e-08
1.71291669578e-08
5.3775429763e-08
3.80432735073e-08
1.07359023097e-07
2.89529579536e-09
2.71271516535e-08
5.51222573998e-08
3.29802286635e-08
2.99301364293e-09
1.11960555236e-09
1.95185504512e-08
5.18113918771e-08
2.77316157221e-08
1.28856218597e-08
8.16873084099e-08
4.03889159927e-08
3.00396521185e-08
9.10786311721e-10
2.80575446008e-08
1.27721050698e-08
2.89422442437e-08
4.55529242489e-08
3.21068424577e-08
1.95662802824e-08
8.09673647552e-10
6.60171827875e-08
3.22089220938e-08
6.76921241336e-08
1.12514087625e-08
4.53032206772e-08
1.45026299817e-08
4.46644607882e-08
2.46392049244e-08
2.80012073668e-08
2.76447997985e-08
2.14792856564e-08
4.61154211804e-08
1.24103533677e-08
7.75082894955e-09
3.37587912333e-08
7.48382629007e-08
2.62583651122e-08
7.21233635543e-09
3.02334533714e-08
5.63438735664e-08
7.68528359113e-09
4.71222746138e-08
5.64332215097e-08
1.96986233396e-08
2.61834083621e-08
3.12035318594e-08
2.26835088859e-08
1.46524412444e-08
4.48101412067e-08
1.73760698726e-08
4.29070369922e-08
7.63085829763e-08
4.71415460707e-07
1.03296797573e-07
3.39644242156e-08
2.39498769315e-08
2.2464436967e-08
4.91253526013e-08
1.26963229957e-07
3.1359943428e-07
6.41074315515e-08
3.869129101e-08
1.11763922882e-07
1.08662180652e-07
5.20988538624e-08
9.61028221055e-09
1.70033485145e-08
2.95415048141e-08
2.3705774254e-09
3.69225570613e-08
1.92925218978e-08
1.99985914199e-08
3.62727316491e-08
3.8081107055e-08
7.88636452945e-09
4.36923521714e-08
7.63469310261e-08
8.31965790304e-09
4.55038662577e-09
5.56924334228e-08
1.3306168947e-08
1.99480593218e-08
2.41697901807e-08
7.20670809073e-09
5.19722651815e-07
5.38832734547e-08
3.81404664723e-08
3.88859295067e-08
1.45220081259e-07
3.57521716422e-07
6.10091107804e-08
1.62358015659e-09
1.21046018989e-09
5.71312023633e-08
1.88992606799e-08
1.19948183009e-07
8.47322322493e-08
4.33995193484e-08
2.34576322708e-08
1.83928356832e-08
9.98471588738e-09
4.20990954714e-08
3.53868347622e-08
1.03893279574e-07
8.28072594147e-08
4.62447704005e-08
1.87216104119e-08
2.38356783229e-08
1.40068448754e-08
4.69313269119e-08
1.19387073762e-08
4.24284400229e-09
9.69746050356e-09
5.71433145338e-08
6.36072649615e-08
2.1578434594e-08
5.05169088646e-09
6.97610049885e-08
1.92698802641e-08
6.43557469345e-08
6.18629142468e-08
1.96126886743e-08
2.59853800388e-08
1.73903134595e-08
4.45407511236e-08
3.54937373098e-08
7.55571307247e-08
1.12964069601e-08
4.11794443792e-08
6.0737425475e-08
4.20992774418e-08
4.32640162812e-08
4.40578105771e-08
1.60719926591e-08
1.32518474358e-08
1.81966131924e-08
3.84811390618e-08
9.11587013731e-09
7.52599972634e-09
3.87665632163e-08
7.11284667053e-08
1.82537464596e-08
1.09343495881e-07
1.9707659898e-07
1.89010082242e-08
7.81044659412e-08
6.20701962925e-08
2.17132446358e-08
6.06510252787e-08
2.80485569784e-08
6.2066208291e-08
1.33478509259e-08
2.22322517413e-08
8.96499643808e-08
1.06024724117e-07
1.82797265206e-08
5.57225203191e-08
4.4597490348e-08
6.22494016388e-08
6.51974204371e-08
1.73148594702e-10
1.08239931788e-07
1.02270644062e-07
1.76584242679e-08
1.69724551444e-08
3.24721069683e-08
4.95912466207e-08
7.14770885005e-08
5.79355047724e-08
3.17042580299e-08
2.74714474373e-08
1.80730018423e-08
2.68490377007e-09
5.14129005282e-08
3.05384654675e-08
5.05869942223e-08
6.94767204108e-08
4.81307997944e-08
4.34424063092e-08
7.29145255066e-08
6.03212970206e-08
2.78516224747e-08
3.15003519113e-08
3.31618451984e-08
6.24104234867e-08
8.74380413627e-08
6.09658003746e-08
3.78692720832e-08
6.82560855661e-08
4.24736844143e-08
5.86258243728e-08
5.15133745347e-08
2.9132266996e-08
7.15858221349e-08
5.34440134735e-08
7.77557701378e-09

