# vtk DataFile Version 3.0
File Name: Molecule/sphere_cent/sphere_cent_0-s3.vtk
ASCII
DATASET UNSTRUCTURED_GRID
FIELD FieldData 1
TIME 1 1 double
0.0
POINTS 150 double
0.809016994375 -0.309016994375 -0.5
0.951056516295 -0.162459848116 -0.26286555606
0.850650808352 -0.525731112119 0.0
0.850650808352 0.0 -0.525731112119
0.951056516295 0.162459848116 -0.26286555606
0.809016994375 0.309016994375 -0.5
1.0 0.0 0.0
0.525731112119 0.0 -0.850650808352
0.850650808352 0.525731112119 0.0
0.688190960236 0.587785252292 -0.425325404176
0.5 0.809016994375 -0.309016994375
0.587785252292 0.425325404176 -0.688190960236
0.425325404176 0.688190960236 -0.587785252292
0.309016994375 0.5 -0.809016994375
0.259891913008 0.862668480416 -0.433888564553
0.16062203564 0.702046444776 -0.69378047756
0.0 0.850650808352 -0.525731112119
0.525731112119 0.850650808352 0.0
0.5 0.809016994375 0.309016994375
0.26286555606 0.951056516295 -0.162459848116
0.26286555606 0.951056516295 0.162459848116
0.0 1.0 0.0
0.0 0.961938357784 -0.273266528913
0.0 0.850650808352 0.525731112119
-0.26286555606 0.951056516295 0.162459848116
-0.26286555606 0.951056516295 -0.162459848116
-0.525731112119 0.850650808352 0.0
-0.5 0.809016994375 -0.309016994375
-0.5 0.809016994375 0.309016994375
-0.259891913008 0.862668480416 -0.433888564553
-0.702046444776 0.69378047756 0.16062203564
-0.702046444776 0.69378047756 -0.16062203564
-0.850650808352 0.525731112119 0.0
-0.862668480416 0.433888564553 0.259891913008
-0.688190960236 0.587785252292 0.425325404176
0.0 0.525731112119 0.850650808352
0.309016994375 0.5 0.809016994375
-0.309016994375 0.5 0.809016994375
-0.162459848116 0.26286555606 0.951056516295
0.162459848116 0.26286555606 0.951056516295
0.0 0.0 1.0
0.525731112119 0.0 0.850650808352
0.309016994375 -0.5 -0.809016994375
0.162459848116 -0.26286555606 -0.951056516295
0.0 0.0 -1.0
0.0 -0.525731112119 -0.850650808352
-0.162459848116 -0.26286555606 -0.951056516295
-0.309016994375 -0.5 -0.809016994375
0.16062203564 -0.702046444776 -0.69378047756
-0.16062203564 -0.702046444776 -0.69378047756
0.0 -0.850650808352 -0.525731112119
-0.525731112119 0.0 -0.850650808352
0.688190960236 0.587785252292 0.425325404176
0.425325404176 0.688190960236 0.587785252292
0.587785252292 0.425325404176 0.688190960236
0.809016994375 0.309016994375 0.5
-0.809016994375 -0.309016994375 -0.5
-0.850650808352 0.0 -0.525731112119
-0.809016994375 0.309016994375 -0.5
-0.951056516295 -0.162459848116 -0.26286555606
-0.951056516295 0.162459848116 -0.26286555606
-1.0 0.0 0.0
-0.862668480416 -0.433888564553 -0.259891913008
-0.961938357784 -0.273266528913 0.0
-0.850650808352 -0.525731112119 0.0
-0.862668480416 0.433888564553 -0.259891913008
-0.961938357784 0.273266528913 0.0
-0.16062203564 0.702046444776 -0.69378047756
-0.425325404176 0.688190960236 -0.587785252292
-0.309016994375 0.5 -0.809016994375
-0.587785252292 0.425325404176 -0.688190960236
-0.688190960236 0.587785252292 -0.425325404176
-0.702046444776 -0.69378047756 -0.16062203564
-0.702046444776 -0.69378047756 0.16062203564
-0.525731112119 -0.850650808352 0.0
-0.5 -0.809016994375 -0.309016994375
-0.5 -0.809016994375 0.309016994375
-0.26286555606 -0.951056516295 -0.162459848116
-0.26286555606 -0.951056516295 0.162459848116
0.0 -1.0 0.0
-0.259891913008 -0.862668480416 -0.433888564553
0.0 -0.961938357784 -0.273266528913
-0.862668480416 -0.433888564553 0.259891913008
-0.688190960236 -0.587785252292 0.425325404176
-0.809016994375 -0.309016994375 0.5
-0.809016994375 0.309016994375 0.5
-0.951056516295 0.162459848116 0.26286555606
-0.850650808352 0.0 0.525731112119
-0.951056516295 -0.162459848116 0.26286555606
-0.587785252292 -0.425325404176 -0.688190960236
-0.425325404176 -0.688190960236 -0.587785252292
-0.688190960236 -0.587785252292 -0.425325404176
0.259891913008 -0.862668480416 -0.433888564553
0.26286555606 -0.951056516295 -0.162459848116
0.587785252292 -0.425325404176 -0.688190960236
0.688190960236 -0.587785252292 -0.425325404176
0.425325404176 -0.688190960236 -0.587785252292
0.5 -0.809016994375 -0.309016994375
0.162459848116 0.26286555606 -0.951056516295
-0.162459848116 0.26286555606 -0.951056516295
0.0 0.525731112119 -0.850650808352
-0.259891913008 0.862668480416 0.433888564553
-0.16062203564 0.702046444776 0.69378047756
-0.425325404176 0.688190960236 0.587785252292
-0.587785252292 0.425325404176 0.688190960236
-0.433888564553 0.259891913008 0.862668480416
-0.69378047756 0.16062203564 0.702046444776
-0.525731112119 0.0 0.850650808352
-0.433888564553 -0.259891913008 0.862668480416
-0.273266528913 0.0 0.961938357784
-0.162459848116 -0.26286555606 0.951056516295
-0.309016994375 -0.5 0.809016994375
0.0 -0.525731112119 0.850650808352
0.162459848116 -0.26286555606 0.951056516295
0.309016994375 -0.5 0.809016994375
-0.16062203564 -0.702046444776 0.69378047756
0.16062203564 -0.702046444776 0.69378047756
0.0 -0.850650808352 0.525731112119
0.273266528913 0.0 0.961938357784
0.433888564553 -0.259891913008 0.862668480416
0.69378047756 -0.16062203564 0.702046444776
0.587785252292 -0.425325404176 0.688190960236
0.809016994375 -0.309016994375 0.5
0.425325404176 -0.688190960236 0.587785252292
0.688190960236 -0.587785252292 0.425325404176
0.5 -0.809016994375 0.309016994375
0.259891913008 -0.862668480416 0.433888564553
0.862668480416 -0.433888564553 0.259891913008
0.702046444776 -0.69378047756 0.16062203564
0.961938357784 -0.273266528913 0.0
0.951056516295 -0.162459848116 0.26286555606
0.951056516295 0.162459848116 0.26286555606
0.850650808352 0.0 0.525731112119
0.961938357784 0.273266528913 0.0
0.862668480416 0.433888564553 0.259891913008
0.69378047756 0.16062203564 0.702046444776
-0.259891913008 -0.862668480416 0.433888564553
-0.425325404176 -0.688190960236 0.587785252292
-0.587785252292 -0.425325404176 0.688190960236
-0.69378047756 -0.16062203564 0.702046444776
0.702046444776 -0.69378047756 -0.16062203564
0.525731112119 -0.850650808352 0.0
0.26286555606 -0.951056516295 0.162459848116
0.0 -0.961938357784 0.273266528913
-0.601500955008 0.707106781186 0.37174803446
-0.518332565981 0.56541318032 0.641591214532
-0.757935420048 0.453990499739 0.468429850867
0.386187385588 -0.891006524188 -0.238676930319
0.133071104141 -0.987688340595 -0.0822424652791
0.396525177464 -0.914857743445 0.0761780342124

CELLS 296 1184
3 0 1 2
3 0 3 1
3 3 4 1
3 3 5 4
3 1 4 6
3 5 3 7
3 7 3 0
3 4 5 8
3 5 9 8
3 8 9 10
3 5 11 9
3 11 12 9
3 11 13 12
3 9 12 10
3 13 11 7
3 7 11 5
3 10 12 14
3 12 15 14
3 12 13 15
3 14 15 16
3 10 17 8
3 8 17 18
3 10 19 17
3 19 20 17
3 19 21 20
3 17 20 18
3 10 14 19
3 14 22 19
3 14 16 22
3 19 22 21
3 18 20 23
3 20 21 23
3 21 24 23
3 21 25 24
3 25 26 24
3 25 27 26
3 24 26 28
3 21 22 25
3 22 29 25
3 22 16 29
3 25 29 27
3 28 26 30
3 26 31 30
3 26 27 31
3 30 31 32
3 30 33 34
3 30 32 33
3 23 35 36
3 37 38 35
3 38 39 35
3 38 40 39
3 35 39 36
3 36 39 41
3 42 43 7
3 7 43 44
3 42 45 43
3 45 46 43
3 45 47 46
3 43 46 44
3 42 48 45
3 48 49 45
3 48 50 49
3 45 49 47
3 44 46 51
3 46 47 51
3 18 52 8
3 18 53 52
3 53 54 52
3 53 36 54
3 52 54 55
3 36 53 23
3 23 53 18
3 54 36 41
3 56 57 51
3 51 57 58
3 56 59 57
3 59 60 57
3 59 61 60
3 57 60 58
3 56 62 59
3 62 63 59
3 62 64 63
3 59 63 61
3 58 60 65
3 60 66 65
3 60 61 66
3 65 66 32
3 16 67 29
3 67 68 29
3 67 69 68
3 29 68 27
3 69 70 68
3 70 71 68
3 70 58 71
3 68 71 27
3 58 70 51
3 51 70 69
3 27 71 31
3 71 65 31
3 71 58 65
3 31 65 32
3 64 72 73
3 72 74 73
3 72 75 74
3 73 74 76
3 75 77 74
3 77 78 74
3 77 79 78
3 74 78 76
3 75 80 77
3 80 81 77
3 80 50 81
3 77 81 79
3 64 73 82
3 73 83 82
3 73 76 83
3 82 83 84
3 85 86 87
3 86 88 87
3 86 61 88
3 87 88 84
3 85 33 86
3 33 66 86
3 33 32 66
3 86 66 61
3 84 88 82
3 88 63 82
3 88 61 63
3 82 63 64
3 47 89 51
3 51 89 56
3 47 90 89
3 90 91 89
3 90 75 91
3 89 91 56
3 47 49 90
3 49 80 90
3 49 50 80
3 90 80 75
3 56 91 62
3 91 72 62
3 91 75 72
3 62 72 64
3 50 92 81
3 92 93 81
3 0 94 7
3 7 94 42
3 0 95 94
3 95 96 94
3 95 97 96
3 94 96 42
3 2 95 0
3 42 96 48
3 96 92 48
3 96 97 92
3 48 92 50
3 44 98 7
3 7 98 13
3 44 99 98
3 99 100 98
3 99 69 100
3 98 100 13
3 69 99 51
3 51 99 44
3 13 100 15
3 100 67 15
3 100 69 67
3 15 67 16
3 23 101 102
3 101 103 102
3 101 28 103
3 102 103 37
3 37 104 105
3 104 106 105
3 104 85 106
3 105 106 107
3 107 108 109
3 108 110 109
3 108 111 110
3 109 110 40
3 111 112 110
3 112 113 110
3 112 114 113
3 110 113 40
3 111 115 112
3 115 116 112
3 115 117 116
3 112 116 114
3 40 113 118
3 113 119 118
3 113 114 119
3 118 119 41
3 41 119 120
3 119 121 120
3 119 114 121
3 120 121 122
3 114 123 121
3 123 124 121
3 123 125 124
3 121 124 122
3 114 116 123
3 116 126 123
3 116 117 126
3 123 126 125
3 122 124 127
3 124 128 127
3 124 125 128
3 127 128 2
3 2 129 127
3 129 130 127
3 129 6 130
3 127 130 122
3 6 131 130
3 131 132 130
3 131 55 132
3 130 132 122
3 6 133 131
3 133 134 131
3 133 8 134
3 131 134 55
3 122 132 120
3 132 135 120
3 132 55 135
3 120 135 41
3 76 136 137
3 136 115 137
3 136 117 115
3 137 115 111
3 84 138 139
3 138 108 139
3 138 111 108
3 139 108 107
3 97 140 141
3 140 128 141
3 140 2 128
3 141 128 125
3 79 142 143
3 142 126 143
3 142 125 126
3 143 126 117
3 6 129 1
3 1 129 2
3 8 133 4
3 4 133 6
3 28 101 24
3 24 101 23
3 28 144 103
3 144 145 103
3 144 34 145
3 103 145 37
3 34 146 145
3 146 104 145
3 146 85 104
3 145 104 37
3 34 144 30
3 30 144 28
3 85 146 33
3 33 146 34
3 23 102 35
3 35 102 37
3 107 109 38
3 38 109 40
3 37 105 38
3 38 105 107
3 40 118 39
3 39 118 41
3 55 134 52
3 52 134 8
3 41 135 54
3 54 135 55
3 117 136 78
3 78 136 76
3 79 143 78
3 78 143 117
3 111 138 83
3 83 138 84
3 76 137 83
3 83 137 111
3 107 106 87
3 87 106 85
3 84 139 87
3 87 139 107
3 97 147 92
3 92 147 93
3 93 148 81
3 81 148 79
3 79 148 142
3 148 149 142
3 148 93 149
3 142 149 125
3 125 149 141
3 149 147 141
3 149 93 147
3 141 147 97
3 2 140 95
3 95 140 97

CELL_TYPES 296
5
5
5
5
5
5
5
5
5
5
5
5
5
5
5
5
5
5
5
5
5
5
5
5
5
5
5
5
5
5
5
5
5
5
5
5
5
5
5
5
5
5
5
5
5
5
5
5
5
5
5
5
5
5
5
5
5
5
5
5
5
5
5
5
5
5
5
5
5
5
5
5
5
5
5
5
5
5
5
5
5
5
5
5
5
5
5
5
5
5
5
5
5
5
5
5
5
5
5
5
5
5
5
5
5
5
5
5
5
5
5
5
5
5
5
5
5
5
5
5
5
5
5
5
5
5
5
5
5
5
5
5
5
5
5
5
5
5
5
5
5
5
5
5
5
5
5
5
5
5
5
5
5
5
5
5
5
5
5
5
5
5
5
5
5
5
5
5
5
5
5
5
5
5
5
5
5
5
5
5
5
5
5
5
5
5
5
5
5
5
5
5
5
5
5
5
5
5
5
5
5
5
5
5
5
5
5
5
5
5
5
5
5
5
5
5
5
5
5
5
5
5
5
5
5
5
5
5
5
5
5
5
5
5
5
5
5
5
5
5
5
5
5
5
5
5
5
5
5
5
5
5
5
5
5
5
5
5
5
5
5
5
5
5
5
5
5
5
5
5
5
5
5
5
5
5
5
5
5
5
5
5
5
5
5
5
5
5
5
5
5
5
5
5
5
5

CELL_DATA 296
SCALARS cell_data_0 double
LOOKUP_TABLE default
1.90671628158e-06
4.06702771413e-07
3.68999447451e-07
5.19339519664e-07
5.30775894889e-07
6.35585117533e-07
7.27267671984e-07
7.4665062114e-07
1.01727458366e-06
1.04662791756e-06
2.07305860933e-07
1.33602335445e-08
2.39513620539e-07
1.2157398603e-07
6.44358966966e-07
6.27282509137e-07
1.63471207263e-07
7.21690124918e-08
1.69894746086e-07
3.31523249501e-07
9.82532381635e-07
7.98526958477e-07
7.65384274401e-07
6.62896507581e-07
1.1849651541e-06
3.26371758344e-07
6.67849484448e-07
6.12436429739e-07
3.51664588269e-07
9.90861532747e-07
1.59211092655e-06
1.22768396625e-06
1.40922519481e-06
4.32992224329e-07
5.40516200724e-08
6.21166091861e-08
5.23412152831e-09
3.26802466764e-07
6.32163787778e-08
4.65385950064e-07
1.94519481927e-07
1.88147392102e-07
2.4324572296e-07
2.3073635316e-07
1.97523188601e-07
1.18916279272e-08
2.19561364919e-07
1.06558903996e-06
2.6621145516e-08
2.26474648348e-07
4.35765287402e-08
8.55606870364e-07
1.11206833164e-06
7.72370856735e-07
7.85460754688e-07
7.23744219105e-09
2.36633335757e-07
1.73757442676e-08
1.38589112752e-07
5.33476922366e-08
1.07126725513e-07
1.28209051675e-07
1.97582091814e-07
1.94046002686e-06
1.95481114719e-06
8.34335644796e-07
4.02350395547e-07
5.5907309297e-08
9.09416344655e-07
2.42748082075e-08
7.60682018253e-07
1.66899221793e-06
1.08865664405e-06
1.96521683487e-06
2.0283280052e-06
2.13338833695e-08
1.70361587868e-07
1.05128733577e-07
4.00056004431e-08
3.70257207753e-08
2.1718895539e-08
1.71697344275e-07
1.11298209368e-07
1.47815398626e-07
6.59555567659e-08
3.36386269661e-08
1.61687519769e-07
4.69437698331e-07
6.26183878468e-08
3.85057845034e-07
1.9202869474e-07
3.7113563044e-07
6.86230026811e-09
1.69297108772e-07
1.26076350825e-07
2.03145283591e-06
1.36093816424e-06
2.89745287704e-07
2.83900868072e-07
3.30823000834e-07
1.86725199947e-07
1.17195198176e-07
7.9809507646e-08
1.42200682591e-08
1.18559567626e-07
2.17077343042e-08
4.3044212587e-09
6.48639082832e-08
3.46515869168e-09
2.29018015464e-07
1.6192510135e-07
6.11508359657e-08
1.53483620352e-07
1.58533808419e-07
4.31173971367e-08
9.55541797079e-08
2.63804799543e-08
2.35330931205e-07
1.26438690618e-07
3.56546365078e-08
1.39895181268e-07
5.55557512202e-09
2.98171034924e-08
5.1422039629e-08
4.0336915895e-08
1.03110190683e-07
7.71651543677e-08
1.59174285387e-07
2.13902228593e-07
1.93635817801e-06
1.9361636524e-06
1.64791899408e-08
1.61189202608e-07
1.38649293594e-07
5.68958563723e-08
1.85111137562e-07
1.99889872694e-07
2.22619112794e-07
1.09817047936e-07
5.08856300879e-08
8.01119918787e-08
3.50880401699e-08
1.00374088502e-07
2.97515118673e-08
1.51206625381e-07
1.0796660676e-06
9.67193341123e-07
1.35077383754e-07
4.27113057137e-07
1.88828444783e-07
7.29784860346e-08
2.39251750916e-06
1.05240080534e-07
6.25164198126e-08
4.61115786852e-07
2.5868567473e-08
7.10051736445e-07
7.36743910364e-07
1.87132326213e-07
2.18695977478e-07
3.41256037144e-07
1.16780907772e-08
1.35138222962e-06
1.94226132697e-06
1.9511458993e-09
7.93026063918e-08
3.5907734012e-07
3.58218580738e-07
3.72537208319e-07
2.4203476442e-08
4.91582958592e-08
7.80171728505e-08
3.58359991512e-07
1.72921014628e-07
1.56191330984e-08
5.70509491182e-07
4.05950952375e-07
1.22411778066e-08
1.69925171088e-08
7.9451638435e-08
2.77711901226e-07
2.10417049637e-07
5.3223206108e-08
4.7718499228e-08
9.69799781259e-08
2.21526211587e-07
1.32354292604e-07
1.32709659549e-08
1.43762129486e-07
3.89153339521e-08
2.10138730435e-07
1.17325871059e-07
1.29665711883e-07
7.15261708041e-08
1.65336870516e-07
1.0857783538e-07
2.7184473268e-08
1.05750578708e-07
1.32454330484e-07
1.05491726638e-07
5.28396489602e-08
7.30941958657e-08
2.1369595623e-07
6.10288559781e-08
1.00444290197e-08
1.69309109603e-07
3.48117337407e-08
6.44440435688e-08
3.12638886706e-08
1.49445429511e-07
1.62294061443e-07
3.95668483541e-08
1.69650587062e-07
1.72419844911e-09
4.07728900593e-08
2.79355382447e-08
1.45287458528e-07
2.32017286306e-07
4.87898209994e-07
2.79139500811e-08
1.22152650999e-07
6.45134946256e-08
8.86197799464e-09
5.04587635544e-08
1.61659022943e-07
8.23597558257e-08
2.55520642532e-07
7.63298278229e-08
5.45013186588e-08
7.80341444598e-08
2.52205731716e-07
3.66016390814e-07
2.86084535813e-07
1.60062635751e-07
6.98216470815e-09
6.73416537108e-08
4.29047072532e-08
6.03384573581e-08
5.06858773239e-08
3.44358902169e-07
3.52610400587e-07
1.35741397282e-07
4.30326199189e-07
3.57073298208e-07
2.63093779135e-07
8.80874691893e-08
3.64278897115e-08
5.58735643429e-08
5.19759592157e-08
1.80132533685e-07
4.44061035092e-08
2.62795812009e-08
1.61278318293e-08
2.03535033695e-07
1.76393604334e-07
1.51349506013e-07
1.16800812025e-07
1.21223440619e-07
2.38595577313e-07
1.8824310726e-07
1.49327473819e-07
1.98974000191e-07
4.58518526953e-07
1.6339116003e-09
1.34620515371e-07
2.80432767533e-07
5.75000283121e-08
2.99712144449e-07
2.93027688712e-07
2.07073269306e-08
1.00855000801e-07
2.01151658148e-07
1.85695219534e-07
9.68996108058e-08
1.05009326321e-06
2.94035672365e-09
1.1390224431e-07
1.0626658611e-06
2.00650799753e-07
3.53229337238e-08
1.34019603314e-08
2.33368494103e-07
3.30903786838e-07
1.07117246438e-07
8.52352228393e-08
1.53668864694e-07
6.34488593268e-08
2.76944140216e-08
6.75135886602e-08
7.91327159455e-08
9.46952972478e-08
2.18819427715e-08
7.55130874751e-08
2.52102207463e-07
3.95208301998e-07
2.66786930809e-07

