# vtk DataFile Version 3.0
File Name: Molecule/sphere_dip_12/sphere_dip_12_0-s4.vtk
ASCII
DATASET UNSTRUCTURED_GRID
FIELD FieldData 1
TIME 1 1 double
0.0
POINTS 137 double
0.809016994375 -0.309016994375 -0.5
0.809016994375 0.309016994375 -0.5
1.0 0.0 0.0
0.850650808352 0.525731112119 0.0
0.5 0.809016994375 -0.309016994375
0.309016994375 0.5 -0.809016994375
0.0 0.850650808352 -0.525731112119
0.5 0.809016994375 0.309016994375
0.0 1.0 0.0
-0.525731112119 0.0 -0.850650808352
-0.809016994375 -0.309016994375 -0.5
-0.809016994375 0.309016994375 -0.5
-1.0 0.0 0.0
-0.850650808352 -0.525731112119 0.0
-0.850650808352 0.525731112119 0.0
-0.309016994375 0.5 -0.809016994375
-0.5 0.809016994375 -0.309016994375
-0.5 -0.809016994375 -0.309016994375
-0.5 -0.809016994375 0.309016994375
0.0 -1.0 0.0
0.0 -0.850650808352 0.525731112119
-0.809016994375 -0.309016994375 0.5
-0.309016994375 -0.5 0.809016994375
-0.525731112119 0.0 0.850650808352
-0.809016994375 0.309016994375 0.5
0.5 -0.809016994375 0.309016994375
0.961938357784 -0.273266528913 0.0
0.850650808352 -0.525731112119 0.0
0.433888564553 -0.259891913008 0.862668480416
0.587785252292 -0.425325404176 0.688190960236
0.69378047756 -0.16062203564 0.702046444776
0.309016994375 -0.5 0.809016994375
0.425325404176 -0.688190960236 0.587785252292
0.688190960236 -0.587785252292 0.425325404176
0.809016994375 -0.309016994375 0.5
0.862668480416 -0.433888564553 0.259891913008
0.702046444776 -0.69378047756 0.16062203564
0.951056516295 -0.162459848116 0.26286555606
0.5 -0.809016994375 -0.309016994375
0.162459848116 0.26286555606 -0.951056516295
0.0 0.525731112119 -0.850650808352
0.26286555606 0.951056516295 0.162459848116
0.259891913008 0.862668480416 0.433888564553
0.0 0.961938357784 0.273266528913
0.0 0.850650808352 0.525731112119
-0.259891913008 0.862668480416 0.433888564553
-0.26286555606 0.951056516295 0.162459848116
-0.5 0.809016994375 0.309016994375
-0.26286555606 0.951056516295 -0.162459848116
-0.525731112119 0.850650808352 0.0
-0.433888564553 0.259891913008 0.862668480416
-0.162459848116 0.26286555606 0.951056516295
0.162459848116 0.26286555606 0.951056516295
0.0 0.525731112119 0.850650808352
0.0 0.0 1.0
0.309016994375 0.5 0.809016994375
-0.309016994375 0.5 0.809016994375
-0.273266528913 0.0 0.961938357784
0.433888564553 0.259891913008 0.862668480416
0.273266528913 0.0 0.961938357784
0.525731112119 0.0 0.850650808352
-0.433888564553 -0.259891913008 0.862668480416
-0.162459848116 -0.26286555606 0.951056516295
0.0 -0.525731112119 0.850650808352
0.162459848116 -0.26286555606 0.951056516295
0.525731112119 0.0 -0.850650808352
0.433888564553 -0.259891913008 -0.862668480416
0.273266528913 0.0 -0.961938357784
0.162459848116 -0.26286555606 -0.951056516295
0.309016994375 -0.5 -0.809016994375
0.0 -0.525731112119 -0.850650808352
-0.309016994375 -0.5 -0.809016994375
-0.162459848116 -0.26286555606 -0.951056516295
-0.433888564553 -0.259891913008 -0.862668480416
0.375038567478 -0.383613732685 0.843911474622
0.224799542734 -0.134651124684 0.965056599484
0.484441642061 -0.131200378813 0.864929335863
0.69378047756 0.16062203564 0.702046444776
0.69378047756 0.16062203564 -0.702046444776
0.961938357784 0.273266528913 0.0
0.587785252292 0.425325404176 -0.688190960236
0.433888564553 0.259891913008 -0.862668480416
-0.688190960236 0.587785252292 0.425325404176
-0.425325404176 0.688190960236 0.587785252292
-0.587785252292 0.425325404176 0.688190960236
0.809016994375 0.309016994375 0.5
0.862668480416 0.433888564553 0.259891913008
0.587785252292 0.425325404176 0.688190960236
-0.433888564553 0.259891913008 -0.862668480416
-0.26286555606 -0.951056516295 -0.162459848116
-0.259891913008 -0.862668480416 -0.433888564553
0.0 -0.961938357784 -0.273266528913
0.0 -0.850650808352 -0.525731112119
-0.425325404176 -0.688190960236 -0.587785252292
-0.16062203564 -0.702046444776 -0.69378047756
0.259891913008 -0.862668480416 -0.433888564553
0.26286555606 -0.951056516295 -0.162459848116
0.688190960236 -0.587785252292 -0.425325404176
0.587785252292 -0.425325404176 -0.688190960236
0.425325404176 -0.688190960236 -0.587785252292
0.16062203564 -0.702046444776 -0.69378047756
0.758652300163 -0.237086325351 0.606825149272
0.987688340595 -0.0822424652791 0.133071104141
0.891006524188 -0.238676930319 0.386187385588
0.987688340595 0.0822424652791 0.133071104141
0.963861263467 0.0 0.266404701135
0.951056516295 0.162459848116 0.26286555606
0.912982492932 0.0823235800317 0.399607051702
0.912982492932 -0.0823235800317 0.399607051702
0.850650808352 0.0 0.525731112119
0.891006524188 0.238676930319 0.386187385588
0.840177885327 0.15643446504 0.519258489728
0.840177885327 -0.15643446504 0.519258489728
0.925614793411 0.353553390593 0.135045378369
0.78020437071 -0.08114185162 0.620239582613
0.78020437071 0.08114185162 0.620239582613
0.702907030488 0.0 0.711281734962
0.758652300163 0.237086325351 0.606825149272
0.519553709322 0.342271135182 0.782888506207
0.0 0.0 -1.0
-0.0822424652791 0.133071104141 -0.987688340595
0.0822424652791 0.133071104141 -0.987688340595
0.0 0.266404701135 -0.963861263467
-0.162459848116 0.26286555606 -0.951056516295
-0.238676930319 0.386187385588 -0.891006524188
-0.353553390593 0.135045378369 -0.925614793411
-0.16062203564 0.702046444776 0.69378047756
-0.15643446504 0.519258489728 0.840177885327
0.0 0.707106781187 0.707106781187
0.0822424652791 -0.133071104141 -0.987688340595
0.0 -0.266404701135 -0.963861263467
-0.0822424652791 -0.133071104141 -0.987688340595
-0.137952242128 0.0 -0.990438881957
-0.220117027473 -0.132792476828 -0.966392597402
-0.273266528913 0.0 -0.961938357784
-0.403355348617 0.0 -0.915043421233
-0.220117027473 0.132792476828 -0.966392597402

CELLS 270 1080
3 0 1 2
3 3 1 4
3 4 5 6
3 3 4 7
3 4 6 8
3 9 10 11
3 10 12 11
3 10 13 12
3 11 12 14
3 6 15 16
3 15 11 16
3 16 11 14
3 13 17 18
3 18 19 20
3 13 18 21
3 18 22 21
3 18 20 22
3 23 24 21
3 24 12 21
3 24 14 12
3 21 12 13
3 10 17 13
3 19 25 20
3 2 26 0
3 0 26 27
3 28 29 30
3 31 32 29
3 32 33 29
3 32 25 33
3 29 33 34
3 25 32 20
3 20 32 31
3 34 33 35
3 33 36 35
3 33 25 36
3 35 36 27
3 27 26 35
3 26 37 35
3 27 36 38
3 38 36 25
3 39 40 5
3 5 40 6
3 40 15 6
3 8 41 4
3 4 41 7
3 7 41 42
3 41 43 42
3 41 8 43
3 42 43 44
3 44 43 45
3 43 46 45
3 43 8 46
3 45 46 47
3 8 48 46
3 48 49 46
3 48 16 49
3 46 49 47
3 16 48 6
3 6 48 8
3 47 49 14
3 49 16 14
3 23 50 24
3 51 52 53
3 51 54 52
3 53 52 55
3 56 50 51
3 50 57 51
3 50 23 57
3 51 57 54
3 55 52 58
3 52 59 58
3 52 54 59
3 58 59 60
3 23 61 57
3 61 62 57
3 61 22 62
3 57 62 54
3 22 63 62
3 63 64 62
3 63 31 64
3 62 64 54
3 31 63 20
3 20 63 22
3 65 66 67
3 66 68 67
3 66 69 68
3 69 70 68
3 70 71 72
3 72 71 73
3 7 42 55
3 42 44 55
3 22 61 21
3 21 61 23
3 9 73 10
3 73 71 10
3 0 66 65
3 31 74 64
3 74 75 64
3 74 28 75
3 64 75 54
3 54 75 59
3 75 76 59
3 75 28 76
3 59 76 60
3 60 76 30
3 76 28 30
3 28 74 29
3 74 31 29
3 77 58 60
3 65 67 39
3 65 78 0
3 0 78 1
3 3 79 1
3 1 79 2
3 1 80 4
3 80 5 4
3 1 78 80
3 78 81 80
3 78 65 81
3 80 81 5
3 47 82 83
3 82 84 83
3 82 24 84
3 83 84 56
3 24 82 14
3 14 82 47
3 85 86 7
3 7 86 3
3 55 87 7
3 7 87 85
3 15 88 11
3 88 9 11
3 17 89 18
3 89 19 18
3 17 90 89
3 90 91 89
3 90 92 91
3 89 91 19
3 71 93 10
3 93 17 10
3 71 94 93
3 94 90 93
3 94 92 90
3 93 90 17
3 92 95 91
3 95 96 91
3 95 38 96
3 91 96 19
3 19 96 25
3 25 96 38
3 0 97 98
3 97 99 98
3 97 38 99
3 98 99 69
3 38 97 27
3 27 97 0
3 69 99 100
3 99 95 100
3 99 38 95
3 100 95 92
3 34 101 29
3 29 101 30
3 2 102 26
3 26 102 37
3 37 103 35
3 35 103 34
3 2 104 102
3 104 105 102
3 104 106 105
3 102 105 37
3 106 107 105
3 107 108 105
3 107 109 108
3 105 108 37
3 106 110 107
3 110 111 107
3 110 85 111
3 107 111 109
3 37 108 103
3 108 112 103
3 108 109 112
3 103 112 34
3 85 110 86
3 110 113 86
3 110 106 113
3 86 113 3
3 3 113 79
3 113 104 79
3 113 106 104
3 79 104 2
3 34 112 101
3 112 114 101
3 112 109 114
3 101 114 30
3 109 115 114
3 115 116 114
3 115 77 116
3 114 116 30
3 109 111 115
3 111 117 115
3 111 85 117
3 115 117 77
3 30 116 60
3 116 77 60
3 55 118 87
3 118 117 87
3 118 77 117
3 87 117 85
3 5 81 39
3 39 81 65
3 119 120 121
3 120 122 121
3 120 123 122
3 121 122 39
3 39 122 40
3 40 122 123
3 123 124 40
3 124 15 40
3 15 124 88
3 124 125 88
3 124 123 125
3 88 125 9
3 56 126 45
3 45 126 44
3 47 83 45
3 45 83 56
3 56 84 50
3 50 84 24
3 56 127 126
3 127 128 126
3 127 53 128
3 126 128 44
3 44 128 55
3 128 53 55
3 53 127 51
3 51 127 56
3 68 129 67
3 67 129 119
3 72 130 70
3 70 130 68
3 68 130 129
3 130 131 129
3 130 72 131
3 129 131 119
3 92 94 70
3 70 94 71
3 69 100 70
3 70 100 92
3 119 131 132
3 131 133 132
3 131 72 133
3 132 133 134
3 134 133 73
3 73 133 72
3 9 135 73
3 73 135 134
3 0 98 66
3 66 98 69
3 77 118 58
3 58 118 55
3 119 121 67
3 67 121 39
3 119 132 120
3 132 136 120
3 132 134 136
3 120 136 123
3 123 136 125
3 136 135 125
3 136 134 135
3 125 135 9

CELL_TYPES 270
5
5
5
5
5
5
5
5
5
5
5
5
5
5
5
5
5
5
5
5
5
5
5
5
5
5
5
5
5
5
5
5
5
5
5
5
5
5
5
5
5
5
5
5
5
5
5
5
5
5
5
5
5
5
5
5
5
5
5
5
5
5
5
5
5
5
5
5
5
5
5
5
5
5
5
5
5
5
5
5
5
5
5
5
5
5
5
5
5
5
5
5
5
5
5
5
5
5
5
5
5
5
5
5
5
5
5
5
5
5
5
5
5
5
5
5
5
5
5
5
5
5
5
5
5
5
5
5
5
5
5
5
5
5
5
5
5
5
5
5
5
5
5
5
5
5
5
5
5
5
5
5
5
5
5
5
5
5
5
5
5
5
5
5
5
5
5
5
5
5
5
5
5
5
5
5
5
5
5
5
5
5
5
5
5
5
5
5
5
5
5
5
5
5
5
5
5
5
5
5
5
5
5
5
5
5
5
5
5
5
5
5
5
5
5
5
5
5
5
5
5
5
5
5
5
5
5
5
5
5
5
5
5
5
5
5
5
5
5
5
5
5
5
5
5
5
5
5
5
5
5
5
5
5
5
5
5
5
5
5
5
5
5
5
5
5
5
5
5
5

CELL_DATA 270
SCALARS cell_data_0 double
LOOKUP_TABLE default
0.000137770209103
0.000169718594055
5.19045205741e-05
0.000338679502913
0.000167726675426
0.000276555608885
0.000161651183273
7.31449181363e-06
0.000250354163647
0.000232330664062
0.000297541336289
0.000217844907214
7.00347745524e-05
0.000989095190751
0.000518740015101
0.000345684484522
5.5212454669e-05
0.000799730787201
0.000461547326829
0.000456410390571
0.000433268078195
4.59372475941e-05
0.00109284841376
2.42185919111e-05
7.75445040013e-06
2.21065059332e-05
1.71372995816e-05
8.56122488292e-06
1.92628891197e-05
4.62307581932e-06
7.27081843786e-05
3.35003262321e-06
3.65868325001e-06
4.28057448202e-06
2.25196072089e-05
2.56081658009e-05
2.31589848917e-05
2.09728326715e-05
1.81699445469e-05
1.58322004583e-05
0.000249679965978
0.000199126204575
0.000205706720459
0.000321013900593
0.000389955724241
9.42292121553e-05
0.000152581380273
0.000107409962595
0.000112626879091
0.000108698608032
0.00010801425276
7.14763150023e-05
4.43223728109e-05
7.10922506305e-05
0.000108100515675
5.93755493538e-05
5.02915744339e-05
1.72394714957e-06
2.16457549516e-05
0.000262202311405
0.000232938926539
0.000232841062905
0.000537866085053
0.000208854715192
0.000386811365101
7.84301679747e-05
0.000302600846282
0.000296856712326
0.000158975812437
0.000281967382247
0.000386928742027
0.000172109157814
0.000121264443872
0.000371380697455
0.00050703515935
0.000214330505335
0.000248452468335
0.00028209783897
0.000286069361392
4.85762994631e-05
4.57441095658e-05
0.000171623619393
0.000178047503436
0.000211325333717
0.000281909969191
0.000202788142444
0.000202492993599
0.000190665235298
0.000156506647918
8.11715902073e-05
0.000104572134541
0.000302676239916
0.000588759799405
0.000140650111321
0.000169938206746
0.000241576492167
1.53972460328e-05
2.480925323e-05
2.09765864266e-05
3.49271490251e-05
1.1082634627e-05
3.7372784724e-06
2.08449260838e-05
1.97076712812e-05
6.86968711557e-06
1.21210279765e-05
1.21295971412e-05
1.02821764653e-05
6.51992854924e-05
0.000296423627403
0.000166370622778
0.00011002757876
2.30419194887e-05
2.51649281248e-05
1.55751570943e-05
5.60309622697e-05
6.12633150731e-05
7.69037132884e-05
0.000101465327145
8.02761930057e-05
1.91560723606e-05
1.66128451912e-05
2.69265863903e-05
4.32366606029e-06
0.000269602903122
0.000212410556975
5.72629217329e-05
6.08171963214e-05
9.7611273494e-05
6.98087903675e-05
0.000186138062831
0.000177166117922
1.79240134642e-05
0.000547205967179
6.39038593241e-06
4.96490757258e-06
1.61092000721e-05
0.000232619327346
0.000157889158278
5.84692435198e-05
4.71330048652e-05
1.00713404838e-05
2.91842917864e-05
5.30114732379e-06
1.06213076512e-05
2.78773631255e-05
1.17279294529e-05
0.000208686222869
0.000548064739117
7.29611688037e-06
4.61500267904e-05
5.81166480156e-05
3.60100731077e-05
9.22966428566e-05
8.18456124177e-06
1.4566478511e-05
7.63193707601e-05
3.54795392755e-05
9.78940178648e-06
2.6194484475e-05
2.845665222e-06
4.89966429358e-06
1.17365756024e-06
8.96134594096e-06
1.1083611024e-05
2.15186065457e-06
1.27573832844e-06
1.32153366004e-07
1.3042896191e-05
5.50145191069e-06
1.31963994602e-05
3.37643510109e-07
1.31882536004e-05
6.18844563825e-06
1.28181132602e-05
6.07543473442e-07
1.26592742847e-06
1.29701942643e-05
6.21622467411e-06
8.2384053841e-07
1.32084030452e-05
9.85560050153e-07
1.21539122706e-05
1.42327503869e-05
2.43930569776e-05
1.61515975282e-05
3.91679807654e-06
3.0003691744e-06
2.57153928904e-05
1.77836551785e-06
3.13841386817e-07
4.80828449403e-07
1.02876989125e-05
1.34767572803e-06
1.21146106307e-05
7.53138185427e-05
8.52012389618e-05
6.85441342372e-05
1.30123707816e-05
6.24496406355e-05
5.97806322153e-05
6.9382097251e-05
0.000127472113321
0.000148508562013
0.000147781743534
0.000341231533462
0.000309694957615
0.0001414803777
0.000162256966872
0.000221054475353
8.39196078795e-05
3.88525742756e-05
6.54938708673e-05
6.37117029188e-05
0.000150945135807
0.000140471029927
0.000113665815239
7.35270371731e-05
4.57540887778e-05
7.35779526951e-05
0.000106811793214
7.3608680857e-05
1.45314766978e-05
5.73618813159e-05
3.43082235172e-05
1.83152354176e-05
1.17483665393e-05
4.35411543102e-05
2.84652660416e-06
0.000117690331534
0.000182298654123
0.000153809261099
0.000296520530621
0.000401736143165
9.75610121934e-05
2.50699635401e-05
0.000147128042407
0.000165131161819
0.000103897477122
0.000109484972689
5.43197332191e-05
1.78935605619e-06
4.90572924862e-05
7.81221471469e-05
5.4999424657e-05
9.23024038595e-05
0.000101415641306
6.85281729421e-05
6.53176901745e-05
7.69118243749e-06
4.47363505965e-05
3.82178060561e-05
6.58712422315e-05
8.11027401527e-05
3.23098951742e-05
5.91977026511e-05
9.20429347864e-05
0.000129492290782
0.000180184084412
0.000176332480863
0.000168980993171
0.000160338746632
6.83816001022e-05
1.69204397484e-05
3.86233375715e-05
4.79268802643e-05
6.13096907452e-05
3.80609924723e-05
3.10237991624e-05
3.59226436679e-05

