# vtk DataFile Version 3.0
File Name: Molecule/sphere_dip_12/sphere_dip_12_0-s3.vtk
ASCII
DATASET UNSTRUCTURED_GRID
FIELD FieldData 1
TIME 1 1 double
0.0
POINTS 85 double
0.809016994375 -0.309016994375 -0.5
0.809016994375 0.309016994375 -0.5
1.0 0.0 0.0
0.525731112119 0.0 -0.850650808352
0.850650808352 0.525731112119 0.0
0.5 0.809016994375 -0.309016994375
0.309016994375 0.5 -0.809016994375
0.0 0.850650808352 -0.525731112119
0.5 0.809016994375 0.309016994375
0.0 1.0 0.0
-0.5 0.809016994375 0.309016994375
-0.809016994375 0.309016994375 0.5
-0.309016994375 0.5 0.809016994375
-0.850650808352 0.525731112119 0.0
0.809016994375 0.309016994375 0.5
0.309016994375 0.5 0.809016994375
-0.525731112119 0.0 -0.850650808352
-0.809016994375 -0.309016994375 -0.5
-0.809016994375 0.309016994375 -0.5
-1.0 0.0 0.0
-0.850650808352 -0.525731112119 0.0
-0.309016994375 0.5 -0.809016994375
-0.5 0.809016994375 -0.309016994375
-0.5 -0.809016994375 -0.309016994375
-0.5 -0.809016994375 0.309016994375
0.0 -1.0 0.0
0.0 -0.850650808352 -0.525731112119
0.0 -0.850650808352 0.525731112119
-0.809016994375 -0.309016994375 0.5
-0.309016994375 -0.5 0.809016994375
-0.525731112119 0.0 0.850650808352
-0.309016994375 -0.5 -0.809016994375
0.5 -0.809016994375 -0.309016994375
0.5 -0.809016994375 0.309016994375
0.309016994375 -0.5 -0.809016994375
0.850650808352 -0.525731112119 0.0
0.961938357784 -0.273266528913 0.0
0.433888564553 -0.259891913008 0.862668480416
0.587785252292 -0.425325404176 0.688190960236
0.69378047756 -0.16062203564 0.702046444776
0.809016994375 -0.309016994375 0.5
0.309016994375 -0.5 0.809016994375
0.425325404176 -0.688190960236 0.587785252292
0.688190960236 -0.587785252292 0.425325404176
0.862668480416 -0.433888564553 0.259891913008
0.702046444776 -0.69378047756 0.16062203564
0.951056516295 -0.162459848116 0.26286555606
0.951056516295 0.162459848116 0.26286555606
0.850650808352 0.0 0.525731112119
0.69378047756 0.16062203564 0.702046444776
0.525731112119 0.0 0.850650808352
0.162459848116 0.26286555606 -0.951056516295
0.0 0.0 -1.0
-0.162459848116 0.26286555606 -0.951056516295
0.0 0.525731112119 -0.850650808352
0.26286555606 0.951056516295 0.162459848116
0.259891913008 0.862668480416 0.433888564553
0.0 0.961938357784 0.273266528913
0.0 0.850650808352 0.525731112119
-0.259891913008 0.862668480416 0.433888564553
-0.26286555606 0.951056516295 0.162459848116
-0.26286555606 0.951056516295 -0.162459848116
-0.525731112119 0.850650808352 0.0
-0.433888564553 0.259891913008 0.862668480416
0.0 0.525731112119 0.850650808352
-0.162459848116 0.26286555606 0.951056516295
0.162459848116 0.26286555606 0.951056516295
0.0 0.0 1.0
-0.273266528913 0.0 0.961938357784
0.433888564553 0.259891913008 0.862668480416
0.273266528913 0.0 0.961938357784
-0.433888564553 -0.259891913008 0.862668480416
-0.162459848116 -0.26286555606 0.951056516295
0.0 -0.525731112119 0.850650808352
0.162459848116 -0.26286555606 0.951056516295
0.433888564553 -0.259891913008 -0.862668480416
0.273266528913 0.0 -0.961938357784
0.162459848116 -0.26286555606 -0.951056516295
0.0 -0.525731112119 -0.850650808352
-0.162459848116 -0.26286555606 -0.951056516295
-0.273266528913 0.0 -0.961938357784
-0.433888564553 -0.259891913008 -0.862668480416
0.375038567478 -0.383613732685 0.843911474622
0.224799542734 -0.134651124684 0.965056599484
0.484441642061 -0.131200378813 0.864929335863

CELLS 166 664
3 0 1 2
3 0 3 1
3 2 1 4
3 4 1 5
3 1 6 5
3 1 3 6
3 5 6 7
3 4 5 8
3 5 7 9
3 10 11 12
3 10 13 11
3 4 8 14
3 8 15 14
3 16 17 18
3 17 19 18
3 17 20 19
3 18 19 13
3 7 21 22
3 21 18 22
3 21 16 18
3 22 18 13
3 20 23 24
3 23 25 24
3 23 26 25
3 24 25 27
3 20 24 28
3 24 29 28
3 24 27 29
3 30 11 28
3 11 19 28
3 11 13 19
3 28 19 20
3 31 23 17
3 31 26 23
3 17 23 20
3 26 32 25
3 32 33 25
3 25 33 27
3 0 32 34
3 0 35 32
3 34 32 26
3 2 36 0
3 0 36 35
3 37 38 39
3 39 38 40
3 41 42 38
3 42 43 38
3 42 33 43
3 38 43 40
3 33 42 27
3 27 42 41
3 40 43 44
3 43 45 44
3 43 33 45
3 44 45 35
3 35 36 44
3 36 46 44
3 36 2 46
3 44 46 40
3 2 47 46
3 47 48 46
3 47 14 48
3 46 48 40
3 14 47 4
3 4 47 2
3 40 48 39
3 48 49 39
3 48 14 49
3 39 49 50
3 15 49 14
3 35 45 32
3 32 45 33
3 3 51 6
3 52 53 51
3 53 54 51
3 53 21 54
3 51 54 6
3 21 53 16
3 6 54 7
3 54 21 7
3 9 55 5
3 5 55 8
3 8 55 56
3 55 57 56
3 55 9 57
3 56 57 58
3 58 57 59
3 57 60 59
3 57 9 60
3 59 60 10
3 9 61 60
3 61 62 60
3 61 22 62
3 60 62 10
3 22 61 7
3 7 61 9
3 10 62 13
3 62 22 13
3 58 59 12
3 59 10 12
3 30 63 11
3 11 63 12
3 12 64 58
3 58 64 15
3 12 65 64
3 65 66 64
3 65 67 66
3 64 66 15
3 12 63 65
3 63 68 65
3 63 30 68
3 65 68 67
3 15 66 69
3 66 70 69
3 66 67 70
3 69 70 50
3 30 71 68
3 71 72 68
3 71 29 72
3 68 72 67
3 29 73 72
3 73 74 72
3 73 41 74
3 72 74 67
3 41 73 27
3 27 73 29
3 3 75 76
3 75 77 76
3 75 34 77
3 76 77 52
3 34 78 77
3 78 79 77
3 78 31 79
3 77 79 52
3 31 78 26
3 26 78 34
3 52 79 80
3 79 81 80
3 79 31 81
3 80 81 16
3 8 56 15
3 56 58 15
3 29 71 28
3 28 71 30
3 16 81 17
3 81 31 17
3 34 75 0
3 0 75 3
3 41 82 74
3 82 83 74
3 82 37 83
3 74 83 67
3 67 83 70
3 83 84 70
3 83 37 84
3 70 84 50
3 50 84 39
3 84 37 39
3 37 82 38
3 82 41 38
3 15 69 49
3 49 69 50
3 3 76 51
3 51 76 52
3 52 80 53
3 53 80 16

CELL_TYPES 166
5
5
5
5
5
5
5
5
5
5
5
5
5
5
5
5
5
5
5
5
5
5
5
5
5
5
5
5
5
5
5
5
5
5
5
5
5
5
5
5
5
5
5
5
5
5
5
5
5
5
5
5
5
5
5
5
5
5
5
5
5
5
5
5
5
5
5
5
5
5
5
5
5
5
5
5
5
5
5
5
5
5
5
5
5
5
5
5
5
5
5
5
5
5
5
5
5
5
5
5
5
5
5
5
5
5
5
5
5
5
5
5
5
5
5
5
5
5
5
5
5
5
5
5
5
5
5
5
5
5
5
5
5
5
5
5
5
5
5
5
5
5
5
5
5
5
5
5
5
5
5
5
5
5
5
5
5
5
5
5
5
5
5
5
5
5

CELL_DATA 166
SCALARS cell_data_0 double
LOOKUP_TABLE default
0.000119523670334
0.000276487301027
5.4934411889e-05
5.51056383612e-05
1.84565842351e-06
0.000292647986858
1.61605691962e-05
0.000106676679356
1.7599915605e-05
0.000359578562737
2.87298143346e-05
0.000101714849623
0.000101619088743
9.40008621644e-05
0.000113913943273
6.04939787849e-05
0.000218386612512
0.000209895789924
0.000118832489862
0.000187631015576
0.000167933051086
4.08983468092e-05
5.96688708858e-05
0.000379503790584
0.000108930848812
3.58535545452e-06
4.56448888507e-05
4.69359020242e-05
6.99184170842e-06
1.11261069846e-05
2.3770324268e-05
1.13177497188e-05
9.67522811107e-05
0.000417611009195
6.08622766399e-05
0.000355343904521
3.09473111244e-05
9.44669494355e-05
0.00030684089263
1.70299998876e-05
6.23953881601e-05
2.54079302672e-06
2.65122859694e-06
2.20816784777e-05
8.00664397505e-06
7.07689729961e-07
1.01238525506e-05
7.2415897838e-07
5.26932463182e-06
3.5007912229e-05
4.56922997407e-05
2.10422744991e-06
6.57813720204e-06
1.05730886019e-05
1.11908530406e-05
6.09110831339e-06
2.12808313985e-05
2.17685284873e-05
2.15064531645e-05
0.000295748772672
0.000958497693004
0.000864269778239
0.00043178329267
0.000432152862197
0.000384254070003
0.000292904119547
0.000658061675624
0.00070367189768
0.000148317422257
0.000381612130312
2.61863774914e-05
3.25801723832e-05
0.000266941589298
0.000332729648346
0.000226895394611
0.000128615860276
0.000132638119742
0.000340215791638
0.000139400941301
0.000158197979718
5.95665602959e-05
7.12198229873e-05
2.61749306981e-05
1.37879561825e-06
1.96650753277e-05
2.30370044864e-05
1.92514064027e-05
1.95427383807e-06
2.27010928777e-05
6.6676632206e-06
2.44887066448e-05
1.8859316141e-05
8.80141323527e-06
2.75013795647e-05
4.01253659211e-05
2.51180202189e-06
3.46488541662e-05
1.42814185748e-05
0.00019546343505
0.000147178809812
5.43477491489e-06
0.00016858012354
0.000287219953736
8.20128419196e-05
0.0001509412601
5.64679525364e-05
5.1888794114e-05
5.5341627938e-05
9.45354257217e-05
2.40158556629e-06
3.99236549843e-06
5.32362667054e-05
2.49056995159e-05
2.22787116705e-05
4.06693415767e-05
1.50530744874e-05
3.11057145532e-06
1.39295626084e-06
6.60006893281e-06
5.30734345326e-05
1.01667824208e-05
3.07241646747e-06
1.94273834051e-05
6.79689675644e-05
6.35538477467e-05
2.11433479347e-05
6.47740919997e-05
5.59649383555e-06
6.51185691041e-05
0.00024281707258
8.40793420936e-05
8.41315221022e-06
2.08010324829e-05
0.000300473467244
0.000205722749735
2.47465214244e-05
0.000242836329641
5.51232491889e-06
2.38031765055e-05
2.71577338094e-06
4.49043203618e-05
3.67225228415e-05
2.54636872796e-05
1.22478781419e-05
5.89006488743e-05
5.72160453929e-05
0.000153146290501
0.000127260944037
9.86202011635e-06
6.59324679527e-07
1.03371404734e-05
2.52624400489e-05
2.48061924402e-05
5.87868624056e-07
9.77524355213e-06
5.50797660785e-06
7.3965366392e-06
9.60741288653e-06
8.83456492416e-06
2.28829421362e-06
0.000191039520175
0.000170383507305
0.000149771427808
0.000268972858172
0.000303816153149
0.000182305568617

