# vtk DataFile Version 3.0
File Name: Molecule/sphere_dip_12/sphere_dip_12_0-s2.vtk
ASCII
DATASET UNSTRUCTURED_GRID
FIELD FieldData 1
TIME 1 1 double
0.0
POINTS 57 double
0.809016994375 -0.309016994375 -0.5
0.809016994375 0.309016994375 -0.5
1.0 0.0 0.0
0.525731112119 0.0 -0.850650808352
0.850650808352 0.525731112119 0.0
0.5 0.809016994375 -0.309016994375
0.309016994375 0.5 -0.809016994375
0.0 0.850650808352 -0.525731112119
0.5 0.809016994375 0.309016994375
0.0 1.0 0.0
0.0 0.850650808352 0.525731112119
-0.5 0.809016994375 0.309016994375
-0.5 0.809016994375 -0.309016994375
-0.850650808352 0.525731112119 0.0
-0.309016994375 0.5 0.809016994375
-0.809016994375 0.309016994375 0.5
-0.525731112119 0.0 0.850650808352
0.309016994375 0.5 0.809016994375
0.0 0.0 1.0
0.525731112119 0.0 0.850650808352
-0.309016994375 -0.5 0.809016994375
0.309016994375 -0.5 0.809016994375
0.0 -0.850650808352 0.525731112119
0.309016994375 -0.5 -0.809016994375
0.0 0.0 -1.0
-0.309016994375 -0.5 -0.809016994375
0.0 -0.850650808352 -0.525731112119
-0.525731112119 0.0 -0.850650808352
0.809016994375 0.309016994375 0.5
-0.809016994375 -0.309016994375 -0.5
-0.809016994375 0.309016994375 -0.5
-1.0 0.0 0.0
-0.850650808352 -0.525731112119 0.0
-0.309016994375 0.5 -0.809016994375
-0.5 -0.809016994375 -0.309016994375
-0.5 -0.809016994375 0.309016994375
0.0 -1.0 0.0
-0.809016994375 -0.309016994375 0.5
0.5 -0.809016994375 -0.309016994375
0.5 -0.809016994375 0.309016994375
0.850650808352 -0.525731112119 0.0
0.961938357784 -0.273266528913 0.0
0.433888564553 -0.259891913008 0.862668480416
0.69378047756 -0.16062203564 0.702046444776
0.587785252292 -0.425325404176 0.688190960236
0.809016994375 -0.309016994375 0.5
0.425325404176 -0.688190960236 0.587785252292
0.688190960236 -0.587785252292 0.425325404176
0.862668480416 -0.433888564553 0.259891913008
0.702046444776 -0.69378047756 0.16062203564
0.951056516295 -0.162459848116 0.26286555606
0.951056516295 0.162459848116 0.26286555606
0.850650808352 0.0 0.525731112119
0.69378047756 0.16062203564 0.702046444776
0.162459848116 0.26286555606 -0.951056516295
-0.162459848116 0.26286555606 -0.951056516295
0.0 0.525731112119 -0.850650808352

CELLS 110 440
3 0 1 2
3 0 3 1
3 2 1 4
3 4 1 5
3 1 6 5
3 1 3 6
3 5 6 7
3 4 5 8
3 5 9 8
3 5 7 9
3 8 9 10
3 10 9 11
3 9 12 11
3 9 7 12
3 11 12 13
3 10 11 14
3 11 15 14
3 11 13 15
3 14 15 16
3 10 14 17
3 14 18 17
3 14 16 18
3 17 18 19
3 16 20 18
3 20 21 18
3 20 22 21
3 3 23 24
3 23 25 24
3 23 26 25
3 24 25 27
3 4 8 28
3 8 17 28
3 8 10 17
3 27 29 30
3 29 31 30
3 29 32 31
3 30 31 13
3 7 33 12
3 33 30 12
3 33 27 30
3 12 30 13
3 32 34 35
3 34 36 35
3 34 26 36
3 35 36 22
3 32 35 37
3 35 20 37
3 35 22 20
3 37 20 16
3 16 15 37
3 15 31 37
3 15 13 31
3 37 31 32
3 27 25 29
3 25 34 29
3 25 26 34
3 29 34 32
3 26 38 36
3 38 39 36
3 36 39 22
3 3 0 23
3 0 38 23
3 0 40 38
3 23 38 26
3 2 41 0
3 0 41 40
3 21 42 18
3 18 42 19
3 19 42 43
3 42 44 43
3 42 21 44
3 43 44 45
3 21 46 44
3 46 47 44
3 46 39 47
3 44 47 45
3 39 46 22
3 22 46 21
3 45 47 48
3 47 49 48
3 47 39 49
3 48 49 40
3 40 41 48
3 41 50 48
3 41 2 50
3 48 50 45
3 2 51 50
3 51 52 50
3 51 28 52
3 50 52 45
3 28 51 4
3 4 51 2
3 45 52 43
3 52 53 43
3 52 28 53
3 43 53 19
3 19 53 17
3 17 53 28
3 40 49 38
3 38 49 39
3 24 54 3
3 3 54 6
3 24 55 54
3 55 56 54
3 55 33 56
3 54 56 6
3 33 55 27
3 27 55 24
3 6 56 7
3 56 33 7

CELL_TYPES 110
5
5
5
5
5
5
5
5
5
5
5
5
5
5
5
5
5
5
5
5
5
5
5
5
5
5
5
5
5
5
5
5
5
5
5
5
5
5
5
5
5
5
5
5
5
5
5
5
5
5
5
5
5
5
5
5
5
5
5
5
5
5
5
5
5
5
5
5
5
5
5
5
5
5
5
5
5
5
5
5
5
5
5
5
5
5
5
5
5
5
5
5
5
5
5
5
5
5
5
5
5
5
5
5
5
5
5
5
5
5

CELL_DATA 110
SCALARS cell_data_0 double
LOOKUP_TABLE default
7.02248222123e-05
0.000221192598663
1.1219787085e-05
4.34406922884e-05
0.000269476314548
0.000433927385153
0.000230456875284
3.73112149933e-05
0.000540963760527
0.000198914610732
0.000683465760099
0.000688848883748
0.000709371621002
0.000301068527832
0.00012540300558
0.000202955080337
0.00010214161137
7.51476016878e-05
2.38410341535e-05
0.000426529269464
0.00209056581117
0.00111706823256
0.00156409459306
0.00167860416085
0.00208929655003
0.000408541711004
0.000788550815097
0.00092409197429
0.000221535250124
0.000905127154824
5.89303189804e-05
0.000466511070513
0.000552133706731
0.000179579353544
0.000180287162137
0.000223524966551
2.72131658912e-05
0.000226873759023
0.000253562228519
0.000333762952332
6.75825997819e-06
7.52750982889e-06
6.21846979334e-06
0.000250157596272
9.21877217378e-05
2.61150893112e-05
0.000384876273007
0.000455978554179
0.000235686836398
2.27106106276e-05
1.68021900794e-05
1.24723653887e-06
6.46642875605e-06
0.000142604147553
9.75874429071e-05
5.35210043769e-06
0.000185090517111
0.00023129145416
4.44575891245e-05
6.14267517628e-05
0.000327753826699
0.000206708325449
6.20082802123e-05
6.71587454109e-05
9.88631049449e-06
1.02492660802e-05
0.000608727614965
0.000501183186379
1.70758418855e-05
1.48484024905e-05
6.52859490104e-07
0.000106176821076
4.9051483896e-06
5.76994447528e-06
3.19870920089e-06
0.000124670631367
3.46907501829e-05
4.65288967816e-05
0.000110027863799
8.36240261275e-07
3.34223686617e-06
8.95657451554e-08
1.24367768155e-05
1.16935348476e-05
1.41922751198e-05
0.000109549071943
1.01400699624e-06
1.30007516777e-06
1.40047823327e-06
0.000130557326585
3.94609835407e-07
3.51612938104e-06
0.000112417691609
1.99174863776e-06
3.01437992184e-06
1.01098470817e-05
0.00010081076355
0.000143188514612
1.4758322298e-05
9.9938559295e-06
0.0004751617846
0.000292638420873
0.000242674394672
2.62468358534e-05
9.07389698815e-05
7.41257100186e-05
0.000239946073095
0.000458164292516
0.000140037002928
0.000145980504814

