# vtk DataFile Version 3.0
File Name: Molecule/methanol/methanol_6.0-0.vtk
ASCII
DATASET UNSTRUCTURED_GRID
FIELD FieldData 1
TIME 1 1 double
0.0
POINTS 286 double
1.611 0.0 -0.359
1.554 -0.436 -0.353
1.403 0.0 -0.933
1.351 -0.397 -0.928
1.386 -0.842 -0.336
1.198 -0.767 -0.912
1.12 -1.191 -0.31
0.956 -1.085 -0.888
0.773 -1.459 -0.275
0.639 -1.329 -0.857
0.368 -1.627 -0.235
0.271 -1.482 -0.82
-0.065 -1.684 -0.192
-0.124 -1.534 -0.781
-0.499 -1.627 -0.149
-0.519 -1.482 -0.741
-0.903 -1.459 -0.108
-0.887 -1.329 -0.705
-1.251 -1.191 -0.074
-1.204 -1.085 -0.673
-1.517 -0.842 -0.047
-1.446 -0.767 -0.649
-1.684 -0.436 -0.031
-1.599 -0.397 -0.634
-1.742 0.0 -0.025
-1.651 0.0 -0.629
-1.684 0.436 -0.031
-1.599 0.397 -0.634
-1.517 0.842 -0.047
-1.446 0.767 -0.649
-1.251 1.191 -0.074
-1.204 1.085 -0.673
-0.903 1.459 -0.108
-0.887 1.329 -0.705
-0.499 1.627 -0.149
-0.519 1.482 -0.741
-0.065 1.684 -0.192
-0.124 1.534 -0.781
0.368 1.627 -0.235
0.271 1.482 -0.82
0.773 1.459 -0.275
0.639 1.329 -0.857
1.12 1.191 -0.31
0.956 1.085 -0.888
1.386 0.842 -0.336
1.198 0.767 -0.912
1.554 0.436 -0.353
1.351 0.397 -0.928
1.907 0.0 0.656
1.859 0.42 0.656
1.859 0.21 1.019
1.859 -0.21 1.019
1.859 -0.42 0.656
1.859 -0.21 0.292
1.859 0.21 0.292
1.72 0.709 1.065
1.72 0.409 1.365
1.72 -0.0 1.475
1.72 -0.409 1.365
1.72 -0.709 1.065
1.72 -0.819 0.656
1.72 -0.709 0.246
1.72 -0.409 -0.054
1.72 -0.0 -0.163
1.72 0.409 -0.054
1.72 0.709 0.246
1.72 0.819 0.656
1.495 1.106 1.058
1.495 0.902 1.412
1.495 0.588 1.675
1.495 0.204 1.815
1.495 -0.204 1.815
1.495 -0.588 1.675
1.495 -0.902 1.412
1.495 -1.106 1.058
1.495 -1.177 0.656
1.495 -1.106 0.253
1.495 -0.902 -0.101
1.495 0.902 -0.101
1.495 1.106 0.253
1.495 1.177 0.656
1.196 1.416 1.071
1.196 1.241 1.453
1.196 0.966 1.771
1.196 0.613 1.998
1.196 0.21 2.116
1.196 -0.21 2.116
1.196 -0.613 1.998
1.196 -0.966 1.771
1.196 -1.241 1.453
1.196 -1.416 1.071
1.196 -1.476 0.656
1.196 -1.416 0.24
1.196 1.416 0.24
1.196 1.476 0.656
0.838 1.651 1.063
0.838 1.506 1.446
0.838 1.273 1.783
0.838 0.966 2.055
0.838 0.603 2.246
0.838 0.205 2.344
0.838 -0.205 2.344
0.838 -0.603 2.246
0.838 -0.966 2.055
0.838 -1.273 1.783
0.838 -1.506 1.446
0.838 -1.651 1.063
0.838 -1.701 0.656
0.838 -1.651 0.249
0.838 1.651 0.249
0.838 1.701 0.656
0.439 1.794 1.065
0.439 1.658 1.454
0.439 1.439 1.803
0.439 1.147 2.094
0.439 0.798 2.314
0.439 0.409 2.45
0.439 0.0 2.496
0.439 -0.409 2.45
0.439 -0.798 2.314
0.439 -1.147 2.094
0.439 -1.439 1.803
0.439 -1.658 1.454
0.439 -1.794 1.065
0.439 -1.84 0.656
0.439 -1.794 0.246
0.439 1.794 0.246
0.439 1.84 0.656
0.019 1.843 1.061
0.019 1.713 1.448
0.019 1.503 1.798
0.019 1.222 2.094
0.019 0.884 2.323
0.019 0.505 2.474
0.019 0.102 2.54
0.019 -0.305 2.518
0.019 -0.699 2.409
0.019 -1.059 2.218
0.019 -1.37 1.954
0.019 -1.617 1.629
0.019 -1.789 1.258
0.019 -1.876 0.86
0.019 -1.876 0.452
0.019 -1.789 0.053
0.019 1.843 0.25
0.019 1.888 0.656
-0.401 1.84 0.656
-0.401 1.794 1.065
-0.401 1.658 1.454
-0.401 1.439 1.803
-0.401 1.147 2.094
-0.401 0.798 2.314
-0.401 0.409 2.45
-0.401 0.0 2.496
-0.401 -0.409 2.45
-0.401 -0.798 2.314
-0.401 -1.147 2.094
-0.401 -1.439 1.803
-0.401 -1.658 1.454
-0.401 -1.794 1.065
-0.401 -1.84 0.656
-0.401 -1.794 0.246
-0.401 1.794 0.246
-0.8 1.701 0.656
-0.8 1.651 1.063
-0.8 1.506 1.446
-0.8 1.273 1.783
-0.8 0.966 2.055
-0.8 0.603 2.246
-0.8 0.205 2.344
-0.8 -0.205 2.344
-0.8 -0.603 2.246
-0.8 -0.966 2.055
-0.8 -1.273 1.783
-0.8 -1.506 1.446
-0.8 -1.651 1.063
-0.8 -1.701 0.656
-0.8 -1.651 0.249
-0.8 1.651 0.249
-1.158 1.476 0.656
-1.158 1.416 1.071
-1.158 1.241 1.453
-1.158 0.966 1.771
-1.158 0.613 1.998
-1.158 0.21 2.116
-1.158 -0.21 2.116
-1.158 -0.613 1.998
-1.158 -0.966 1.771
-1.158 -1.241 1.453
-1.158 -1.416 1.071
-1.158 -1.476 0.656
-1.158 -1.416 0.24
-1.158 1.416 0.24
-1.457 1.177 0.656
-1.457 1.106 1.058
-1.457 0.902 1.412
-1.457 0.588 1.675
-1.457 0.204 1.815
-1.457 -0.204 1.815
-1.457 -0.588 1.675
-1.457 -0.902 1.412
-1.457 -1.106 1.058
-1.457 -1.177 0.656
-1.457 -1.106 0.253
-1.457 1.106 0.253
-1.682 0.819 0.656
-1.682 0.709 1.065
-1.682 0.409 1.365
-1.682 -0.0 1.475
-1.682 -0.409 1.365
-1.682 -0.709 1.065
-1.682 -0.819 0.656
-1.682 -0.709 0.246
-1.682 0.709 0.246
-1.821 0.42 0.656
-1.821 0.21 1.019
-1.821 -0.21 1.019
-1.821 -0.42 0.656
-1.821 -0.21 0.292
-1.821 0.21 0.292
-1.868 -0.0 0.656
1.172 -0.719 -1.152
0.886 -0.986 -1.348
0.886 -0.699 -1.663
1.172 -0.415 -1.456
0.886 -0.317 -1.853
1.172 -0.0 -1.567
0.886 0.107 -1.892
1.172 0.415 -1.456
0.886 0.517 -1.776
0.886 0.857 -1.519
1.172 0.719 -1.152
0.886 1.082 -1.156
0.518 -1.328 -1.169
0.518 -1.13 -1.558
0.518 -0.821 -1.867
0.518 -0.431 -2.065
0.518 0.0 -2.133
0.518 0.431 -2.065
0.518 0.821 -1.867
0.518 1.13 -1.558
0.518 1.328 -1.169
0.099 -1.458 -1.165
0.099 -1.278 -1.559
0.099 -0.995 -1.885
0.099 -0.631 -2.119
0.099 -0.216 -2.241
0.099 0.216 -2.241
0.099 0.631 -2.119
0.099 0.995 -1.885
0.099 1.278 -1.559
0.099 1.458 -1.165
-0.338 -1.458 -1.165
-0.338 -1.278 -1.559
-0.338 -0.995 -1.885
-0.338 -0.631 -2.119
-0.338 -0.216 -2.241
-0.338 0.216 -2.241
-0.338 0.631 -2.119
-0.338 0.995 -1.885
-0.338 1.278 -1.559
-0.338 1.458 -1.165
-0.757 -1.328 -1.169
-0.757 -1.13 -1.558
-0.757 -0.821 -1.867
-0.757 -0.431 -2.065
-0.757 0.0 -2.133
-0.757 0.431 -2.065
-0.757 0.821 -1.867
-0.757 1.13 -1.558
-0.757 1.328 -1.169
-1.125 -1.14 -0.95
-1.125 -0.986 -1.348
-1.125 -0.699 -1.663
-1.125 -0.317 -1.853
-1.125 0.107 -1.892
-1.125 0.517 -1.776
-1.125 0.857 -1.519
-1.125 1.082 -1.156
-1.411 -0.719 -1.152
-1.411 -0.415 -1.456
-1.411 -0.0 -1.567
-1.411 0.415 -1.456
-1.411 0.719 -1.152
-1.593 -0.216 -1.112
-1.593 0.216 -1.112

CELLS 568 2272
3 0 1 2
3 2 1 3
3 1 4 3
3 3 4 5
3 4 6 5
3 5 6 7
3 6 8 7
3 7 8 9
3 8 10 9
3 9 10 11
3 10 12 11
3 11 12 13
3 12 14 13
3 13 14 15
3 14 16 15
3 15 16 17
3 16 18 17
3 17 18 19
3 18 20 19
3 19 20 21
3 20 22 21
3 21 22 23
3 22 24 23
3 23 24 25
3 24 26 25
3 25 26 27
3 26 28 27
3 27 28 29
3 28 30 29
3 29 30 31
3 30 32 31
3 31 32 33
3 32 34 33
3 33 34 35
3 34 36 35
3 35 36 37
3 36 38 37
3 37 38 39
3 38 40 39
3 39 40 41
3 40 42 41
3 41 42 43
3 42 44 43
3 43 44 45
3 44 46 45
3 45 46 47
3 46 0 47
3 47 0 2
3 48 49 50
3 48 50 51
3 48 51 52
3 48 52 53
3 48 53 54
3 48 54 49
3 50 49 55
3 50 55 56
3 50 56 57
3 51 50 57
3 51 57 58
3 51 58 59
3 52 51 59
3 52 59 60
3 52 60 61
3 53 52 61
3 53 61 62
3 53 62 63
3 54 53 63
3 54 63 64
3 54 64 65
3 49 54 65
3 49 65 66
3 49 66 55
3 55 66 67
3 55 67 68
3 56 55 68
3 56 68 69
3 56 69 70
3 57 56 70
3 57 70 71
3 58 57 71
3 58 71 72
3 58 72 73
3 59 58 73
3 59 73 74
3 60 59 74
3 60 74 75
3 60 75 76
3 61 60 76
3 61 76 77
3 62 61 77
3 65 64 78
3 65 78 79
3 66 65 79
3 66 79 80
3 66 80 67
3 67 80 81
3 67 81 82
3 68 67 82
3 68 82 83
3 69 68 83
3 69 83 84
3 70 69 84
3 70 84 85
3 70 85 86
3 71 70 86
3 71 86 87
3 72 71 87
3 72 87 88
3 73 72 88
3 73 88 89
3 74 73 89
3 74 89 90
3 75 74 90
3 75 90 91
3 75 91 92
3 76 75 92
3 80 79 93
3 80 93 94
3 80 94 81
3 81 94 95
3 81 95 96
3 82 81 96
3 82 96 97
3 83 82 97
3 83 97 98
3 84 83 98
3 84 98 99
3 85 84 99
3 85 99 100
3 85 100 101
3 86 85 101
3 86 101 102
3 87 86 102
3 87 102 103
3 88 87 103
3 88 103 104
3 89 88 104
3 89 104 105
3 90 89 105
3 90 105 106
3 91 90 106
3 91 106 107
3 91 107 108
3 92 91 108
3 94 93 109
3 94 109 110
3 94 110 95
3 95 110 111
3 95 111 112
3 96 95 112
3 96 112 113
3 97 96 113
3 97 113 114
3 98 97 114
3 98 114 115
3 99 98 115
3 99 115 116
3 100 99 116
3 100 116 117
3 101 100 117
3 101 117 118
3 102 101 118
3 102 118 119
3 103 102 119
3 103 119 120
3 104 103 120
3 104 120 121
3 105 104 121
3 105 121 122
3 106 105 122
3 106 122 123
3 107 106 123
3 107 123 124
3 107 124 125
3 108 107 125
3 110 109 126
3 110 126 127
3 110 127 111
3 111 127 128
3 111 128 129
3 112 111 129
3 112 129 130
3 113 112 130
3 113 130 131
3 114 113 131
3 114 131 132
3 115 114 132
3 115 132 133
3 116 115 133
3 116 133 134
3 117 116 134
3 117 134 135
3 118 117 135
3 118 135 136
3 119 118 136
3 119 136 137
3 120 119 137
3 120 137 138
3 121 120 138
3 121 138 139
3 122 121 139
3 122 139 140
3 123 122 140
3 123 140 141
3 124 123 141
3 124 141 142
3 125 124 142
3 125 142 143
3 127 126 144
3 127 144 145
3 127 145 128
3 128 145 146
3 128 146 147
3 129 128 147
3 129 147 148
3 130 129 148
3 130 148 149
3 131 130 149
3 131 149 150
3 132 131 150
3 132 150 151
3 133 132 151
3 133 151 152
3 134 133 152
3 134 152 153
3 135 134 153
3 135 153 154
3 136 135 154
3 136 154 155
3 137 136 155
3 137 155 156
3 138 137 156
3 138 156 157
3 139 138 157
3 139 157 158
3 140 139 158
3 140 158 159
3 141 140 159
3 141 159 160
3 142 141 160
3 142 160 161
3 143 142 161
3 146 144 162
3 145 144 146
3 147 146 163
3 147 163 164
3 148 147 164
3 148 164 165
3 149 148 165
3 149 165 166
3 150 149 166
3 150 166 167
3 151 150 167
3 151 167 168
3 152 151 168
3 152 168 169
3 153 152 169
3 153 169 170
3 154 153 170
3 154 170 171
3 155 154 171
3 155 171 172
3 156 155 172
3 156 172 173
3 157 156 173
3 157 173 174
3 158 157 174
3 158 174 175
3 159 158 175
3 159 175 176
3 160 159 176
3 161 160 176
3 161 176 177
3 163 162 178
3 146 162 163
3 164 163 179
3 164 179 180
3 165 164 180
3 165 180 181
3 166 165 181
3 166 181 182
3 167 166 182
3 167 182 183
3 168 167 183
3 168 183 184
3 169 168 184
3 169 184 185
3 170 169 185
3 171 170 185
3 171 185 186
3 172 171 186
3 172 186 187
3 173 172 187
3 173 187 188
3 174 173 188
3 174 188 189
3 175 174 189
3 175 189 190
3 176 175 190
3 177 176 190
3 177 190 191
3 179 178 192
3 163 178 179
3 180 179 193
3 180 193 194
3 181 180 194
3 181 194 195
3 182 181 195
3 182 195 196
3 183 182 196
3 183 196 197
3 184 183 197
3 184 197 198
3 185 184 198
3 186 185 198
3 186 198 199
3 187 186 199
3 187 199 200
3 188 187 200
3 188 200 201
3 189 188 201
3 189 201 202
3 190 189 202
3 191 190 202
3 191 202 203
3 193 192 204
3 179 192 193
3 194 193 205
3 194 205 206
3 195 194 206
3 195 206 207
3 196 195 207
3 197 196 207
3 197 207 208
3 198 197 208
3 198 208 209
3 199 198 209
3 200 199 209
3 200 209 210
3 201 200 210
3 201 210 211
3 202 201 211
3 203 202 211
3 203 211 212
3 205 204 213
3 193 204 205
3 206 205 214
3 206 214 215
3 207 206 215
3 208 207 215
3 208 215 216
3 209 208 216
3 210 209 216
3 210 216 217
3 211 210 217
3 212 211 217
3 212 217 218
3 214 213 219
3 205 213 214
3 215 214 220
3 216 215 220
3 217 216 220
3 218 217 220
3 219 218 220
3 214 219 220
3 219 213 26
3 219 26 24
3 219 24 218
3 218 24 22
3 218 22 212
3 212 22 20
3 212 20 203
3 203 20 18
3 203 18 191
3 191 18 16
3 191 16 177
3 177 16 14
3 177 14 161
3 161 14 12
3 161 12 143
3 143 12 10
3 143 10 125
3 125 10 108
3 108 10 8
3 108 8 92
3 92 8 6
3 92 6 76
3 76 6 77
3 77 6 4
3 77 4 1
3 77 1 62
3 62 1 63
3 63 1 0
3 63 0 46
3 63 46 64
3 64 46 78
3 78 46 44
3 78 44 42
3 78 42 79
3 79 42 93
3 93 42 40
3 93 40 109
3 109 40 38
3 109 38 126
3 126 38 144
3 144 38 36
3 144 36 162
3 162 36 34
3 162 34 178
3 178 34 32
3 178 32 192
3 192 32 30
3 192 30 204
3 204 30 28
3 204 28 213
3 213 28 26
3 221 222 223
3 224 221 223
3 224 223 225
3 226 224 225
3 226 225 227
3 228 226 227
3 228 227 229
3 228 229 230
3 231 228 230
3 231 230 232
3 222 233 234
3 223 222 234
3 223 234 235
3 223 235 236
3 225 223 236
3 225 236 237
3 227 225 237
3 227 237 238
3 229 227 238
3 229 238 239
3 230 229 239
3 230 239 240
3 232 230 240
3 232 240 241
3 233 242 243
3 234 233 243
3 234 243 244
3 235 234 244
3 235 244 245
3 236 235 245
3 236 245 246
3 237 236 246
3 237 246 247
3 238 237 247
3 238 247 248
3 239 238 248
3 239 248 249
3 240 239 249
3 240 249 250
3 241 240 250
3 241 250 251
3 242 252 253
3 243 242 253
3 243 253 254
3 244 243 254
3 244 254 255
3 245 244 255
3 246 245 255
3 246 255 256
3 246 256 257
3 247 246 257
3 247 257 258
3 248 247 258
3 248 258 259
3 249 248 259
3 249 259 260
3 250 249 260
3 250 260 261
3 251 250 261
3 253 252 262
3 253 262 263
3 254 253 263
3 254 263 264
3 255 254 264
3 255 264 265
3 256 255 265
3 256 265 266
3 257 256 266
3 257 266 267
3 258 257 267
3 258 267 268
3 259 258 268
3 259 268 269
3 260 259 269
3 260 269 270
3 261 260 270
3 262 271 272
3 263 262 272
3 263 272 273
3 264 263 273
3 265 264 273
3 265 273 274
3 266 265 274
3 266 274 275
3 267 266 275
3 267 275 276
3 268 267 276
3 268 276 277
3 269 268 277
3 269 277 278
3 270 269 278
3 272 271 279
3 273 272 279
3 273 279 280
3 274 273 280
3 274 280 281
3 275 274 281
3 275 281 282
3 276 275 282
3 277 276 282
3 277 282 283
3 278 277 283
3 280 279 284
3 281 280 284
3 281 284 285
3 282 281 285
3 283 282 285
3 283 285 27
3 283 27 29
3 283 29 31
3 283 31 278
3 278 31 33
3 278 33 270
3 270 33 35
3 270 35 261
3 261 35 37
3 261 37 251
3 251 37 39
3 251 39 241
3 241 39 41
3 241 41 232
3 232 41 43
3 232 43 231
3 231 43 45
3 231 45 47
3 231 47 228
3 228 47 2
3 228 2 226
3 226 2 224
3 224 2 3
3 224 3 221
3 221 3 5
3 221 5 7
3 221 7 222
3 222 7 233
3 233 7 9
3 233 9 11
3 233 11 242
3 242 11 13
3 242 13 252
3 252 13 15
3 252 15 262
3 262 15 17
3 262 17 271
3 271 17 19
3 271 19 21
3 271 21 279
3 279 21 23
3 279 23 284
3 284 23 25
3 284 25 285
3 285 25 27

CELL_TYPES 568
5
5
5
5
5
5
5
5
5
5
5
5
5
5
5
5
5
5
5
5
5
5
5
5
5
5
5
5
5
5
5
5
5
5
5
5
5
5
5
5
5
5
5
5
5
5
5
5
5
5
5
5
5
5
5
5
5
5
5
5
5
5
5
5
5
5
5
5
5
5
5
5
5
5
5
5
5
5
5
5
5
5
5
5
5
5
5
5
5
5
5
5
5
5
5
5
5
5
5
5
5
5
5
5
5
5
5
5
5
5
5
5
5
5
5
5
5
5
5
5
5
5
5
5
5
5
5
5
5
5
5
5
5
5
5
5
5
5
5
5
5
5
5
5
5
5
5
5
5
5
5
5
5
5
5
5
5
5
5
5
5
5
5
5
5
5
5
5
5
5
5
5
5
5
5
5
5
5
5
5
5
5
5
5
5
5
5
5
5
5
5
5
5
5
5
5
5
5
5
5
5
5
5
5
5
5
5
5
5
5
5
5
5
5
5
5
5
5
5
5
5
5
5
5
5
5
5
5
5
5
5
5
5
5
5
5
5
5
5
5
5
5
5
5
5
5
5
5
5
5
5
5
5
5
5
5
5
5
5
5
5
5
5
5
5
5
5
5
5
5
5
5
5
5
5
5
5
5
5
5
5
5
5
5
5
5
5
5
5
5
5
5
5
5
5
5
5
5
5
5
5
5
5
5
5
5
5
5
5
5
5
5
5
5
5
5
5
5
5
5
5
5
5
5
5
5
5
5
5
5
5
5
5
5
5
5
5
5
5
5
5
5
5
5
5
5
5
5
5
5
5
5
5
5
5
5
5
5
5
5
5
5
5
5
5
5
5
5
5
5
5
5
5
5
5
5
5
5
5
5
5
5
5
5
5
5
5
5
5
5
5
5
5
5
5
5
5
5
5
5
5
5
5
5
5
5
5
5
5
5
5
5
5
5
5
5
5
5
5
5
5
5
5
5
5
5
5
5
5
5
5
5
5
5
5
5
5
5
5
5
5
5
5
5
5
5
5
5
5
5
5
5
5
5
5
5
5
5
5
5
5
5
5
5
5
5
5
5
5
5
5
5
5
5
5
5
5
5
5
5
5
5
5
5
5
5
5
5
5
5
5
5
5
5
5
5
5
5
5
5
5
5
5
5
5
5
5
5
5
5
5
5
5
5
5
5
5
5
5
5
5
5
5
5
5
5
5
5
5
5
5
5
5
5
5
5
5
5
5
5
5
5
5
5
5
5
5
5
5
5
5
5
5
5
5
5
5
5
5
5
5
5
5
5
5
5
5
5

CELL_DATA 568
SCALARS cell_data_0 double
LOOKUP_TABLE default
3.13562838373e-08
1.18538572071e-08
1.42581889513e-09
8.8530733255e-09
1.34911135447e-10
2.45652958942e-09
5.17746867731e-10
3.49872461433e-10
3.46386456787e-11
1.58880050299e-10
2.67943501471e-10
2.39941696882e-10
2.30717170495e-10
3.8513446783e-11
1.00558397752e-10
8.62991178712e-11
1.12120068432e-10
2.26072256989e-10
4.95550129545e-10
3.77594295187e-10
3.46889599222e-10
6.12207658073e-11
2.60494815267e-10
2.11323291646e-10
2.16103127191e-10
7.79830813826e-11
3.08426001418e-10
2.00098083006e-10
4.14364569754e-10
2.06477532038e-10
7.45099682569e-11
2.44574636278e-11
9.08573718119e-11
6.04678875009e-11
1.37127291804e-11
6.99262843826e-11
2.14290591191e-10
5.58460686265e-11
5.04646935735e-12
6.15820503537e-11
5.61681098422e-11
1.26537360531e-10
9.94066568627e-10
1.55097334788e-09
8.75369369401e-10
3.22318236851e-09
2.76616474823e-08
3.5186396536e-08
4.23572922574e-10
1.3327161306e-10
6.64276160655e-10
4.40531532155e-10
1.7903391011e-09
2.45490827128e-10
3.10640209607e-11
4.03298980974e-11
1.51054625041e-11
2.55755678146e-10
2.61858143602e-10
1.7942896211e-10
5.0131495783e-10
4.71910058365e-12
2.41972783791e-09
1.79894656908e-09
7.31794047699e-09
3.0521617936e-09
4.41519608164e-09
1.61950602846e-09
6.63221174937e-10
1.00314806644e-09
1.10332384434e-11
1.33450521234e-10
1.22005384555e-11
4.07146572333e-12
6.03785490619e-11
2.84015433314e-11
1.09354831184e-12
8.83858340441e-11
1.56455803464e-11
1.00356146323e-10
1.23859946141e-10
1.11388366942e-10
4.08540897291e-13
7.53281205331e-11
5.61945508347e-10
9.57849517507e-10
6.94818589215e-10
4.24798139314e-09
4.76687731892e-09
1.0228806416e-08
1.01108536107e-10
1.77492845753e-10
7.43046502139e-11
4.40410866281e-11
1.03881224502e-11
4.79450111208e-12
1.34532537635e-11
5.35128196825e-12
2.48368711689e-12
1.41544859754e-11
1.02125851142e-11
3.65566220908e-11
9.00848133586e-12
6.35744353152e-12
3.70847043332e-11
1.60895202991e-11
2.20247399624e-12
1.2923649492e-12
7.0443357676e-12
3.03256915998e-11
6.73416265089e-12
1.57881638005e-10
5.03613675483e-10
2.00183379599e-10
2.34068719214e-11
1.2161005194e-09
3.85542333062e-11
5.27260090215e-11
1.04648433849e-11
1.10311938e-11
1.51404270188e-11
2.74086922986e-12
6.37610790252e-13
2.63950333968e-12
4.99307988188e-12
3.46329949795e-12
5.94889477938e-12
1.96173366012e-11
1.13049795112e-11
2.41056553013e-12
1.27456520956e-11
3.5771464528e-12
1.80800005997e-12
2.88464809813e-12
1.40155217932e-11
4.19533291546e-11
4.31561454917e-12
7.04052079816e-11
5.57684358061e-11
1.57388663193e-10
2.88480753021e-11
1.53464599063e-10
2.50936308192e-10
2.44755811241e-10
1.16325226602e-10
2.43802572101e-11
2.71623111854e-11
1.0434550444e-11
1.84908144983e-11
7.08003579006e-12
3.87761537768e-12
9.29042671808e-13
5.0299879683e-12
6.09869088665e-12
4.80672445597e-12
1.14491797293e-12
1.5124444063e-12
1.6865419802e-12
5.75365744247e-12
8.65804673278e-12
4.27118243404e-12
9.00439755227e-12
7.02791568452e-12
2.69647435305e-12
1.439231229e-11
1.45204626555e-11
2.73681271062e-11
1.3876758641e-11
3.33242924652e-11
2.33084036395e-11
4.72464318869e-11
5.86596020737e-13
2.90317896024e-11
1.49507165359e-11
6.81253092581e-11
4.37808036206e-11
9.54245149558e-12
2.82791533901e-11
1.30384579089e-11
1.39739195425e-11
3.84959194896e-12
8.15183290468e-12
4.48928644953e-12
4.10223697722e-12
4.82671715022e-13
1.87638224795e-12
2.42788760632e-12
9.38607708885e-14
2.79609613054e-12
6.67676624937e-14
2.78155750907e-12
1.61664900759e-12
4.64214770646e-13
1.91075245155e-12
1.03586314833e-13
8.20091266418e-12
3.12580410633e-12
5.19554830756e-12
7.05719918369e-12
1.15069034454e-11
1.88548367198e-11
2.38713552362e-12
1.14980666525e-11
4.08904024851e-12
2.66017436823e-12
7.92408296362e-11
1.39533807446e-10
1.77067343663e-10
1.79497261219e-11
4.41634895541e-12
1.07215085753e-11
6.2537533767e-12
2.08280236823e-12
1.66357831938e-11
1.91394606351e-11
5.52818191625e-12
8.96872108391e-12
4.30215133931e-12
7.64006720304e-12
1.01210662712e-12
4.13631768063e-13
2.50454705552e-12
7.52431624301e-13
6.66977959446e-13
2.41373459945e-12
2.13894711727e-12
4.49457070904e-12
1.58943865173e-12
5.96405862922e-13
4.03685526841e-12
7.60150946082e-12
2.81251933012e-12
7.81250989217e-12
3.39758116533e-12
1.41994759163e-11
7.28610208286e-13
1.11998292503e-11
7.13005968167e-12
2.12298738487e-11
4.67210916554e-11
1.7764252229e-10
2.50206328029e-10
4.37353737423e-12
7.70144097569e-12
3.20273342618e-11
1.01948225879e-11
1.08478051949e-11
3.47772203415e-12
1.15213058058e-11
8.35903699675e-13
7.82470185503e-12
8.33944127756e-14
2.68500359706e-12
1.4411448351e-12
6.68996177544e-13
1.07499130784e-12
2.57313521617e-12
8.34749218967e-13
1.04374396976e-12
8.15402174464e-13
2.17081734278e-13
6.5048305323e-13
3.37865318355e-12
1.73130236843e-12
8.20945454771e-12
8.38821747607e-13
1.16636560017e-11
2.64807683136e-13
8.79149610527e-12
1.38630390241e-11
3.10550004707e-11
1.54746870092e-11
6.78957359119e-11
7.12458148887e-11
2.59127133338e-11
4.36903586013e-11
5.76785285029e-12
3.82472468165e-13
3.53175870175e-12
8.40127683489e-12
3.83946184678e-15
4.13504659358e-12
2.18694670357e-12
5.93738774867e-12
2.68414976119e-12
1.87729050602e-12
4.83797199384e-12
5.16443592672e-12
4.87099984045e-12
1.34481825887e-12
5.53988448832e-12
2.23432694845e-12
6.23996548209e-12
8.65360185489e-13
8.46696724281e-12
4.34991898486e-12
2.2711567333e-13
5.19786784849e-12
4.9872635825e-11
4.50919602447e-11
1.24422721936e-10
1.02961962887e-10
3.80820606498e-11
5.17513701365e-11
6.89323068244e-12
5.83593070737e-12
3.33822223811e-12
5.34254120216e-12
1.45624315563e-12
5.04677177427e-12
2.72947574881e-12
1.84033752675e-12
2.08793656888e-13
1.80988577316e-12
3.15952036683e-12
1.11515115647e-12
5.127880075e-12
1.58979941185e-12
5.91609457149e-12
3.57558763379e-12
6.14064880861e-12
9.23046777654e-12
5.98389336584e-11
2.12930849338e-11
1.66859292028e-10
1.45445150047e-10
2.10818764344e-11
5.468418151e-11
4.29779823843e-12
8.17881705904e-12
3.29339842234e-12
1.20308219512e-12
1.81901899313e-12
2.06017872721e-12
1.791031967e-12
2.9491292112e-12
1.22145573204e-12
9.79901833859e-13
3.39919326346e-12
8.90279128962e-12
4.85936242377e-12
6.04139781953e-11
3.92046090725e-12
2.34863399004e-10
2.17643851224e-10
5.78948967413e-12
6.12237961434e-11
1.29673664725e-11
1.19703342525e-11
4.19990377301e-12
1.41850325519e-11
4.17245036379e-12
1.22167630466e-11
1.20472512864e-11
6.35989860889e-11
1.45093536899e-11
2.81357956816e-10
2.83795965026e-10
1.40657809855e-11
8.8001606209e-11
3.15576050819e-11
8.76642884324e-11
1.35608750726e-11
1.95784771624e-10
7.68633555145e-12
2.38832447698e-10
9.55539922202e-12
2.63206142863e-10
1.44391814005e-11
2.69002601084e-10
1.27226791554e-11
2.29853330964e-10
4.45693747964e-11
2.11507782403e-10
3.58579022929e-11
1.69085883173e-10
1.0211510358e-10
2.24585941461e-10
3.40238851933e-11
7.9270719269e-12
7.28169755437e-11
5.6754950009e-11
1.39654637577e-11
1.0039628919e-11
9.60321763455e-11
1.27934171769e-10
1.79547741152e-09
1.92390212307e-09
7.13574824419e-10
5.58276115869e-09
1.63903458137e-08
1.19207627045e-08
9.35110126576e-09
8.77813214154e-09
4.53157711352e-10
1.40273111825e-09
9.55157099352e-11
3.79841158967e-10
1.09482987577e-10
1.501830911e-10
6.88342830057e-11
1.28809703851e-10
7.17059524905e-12
1.19794137148e-11
2.72750550914e-11
8.64549337541e-11
1.86195819065e-11
6.42538723478e-11
1.55138973416e-10
5.42824259817e-11
1.69427240689e-10
5.76326417573e-11
1.81828179621e-10
3.42126716277e-11
2.13691904946e-10
1.69857136718e-11
8.0029557284e-09
9.37859569446e-09
3.36333913392e-09
3.33708049778e-09
2.15221111432e-09
2.13385735954e-10
1.89483375792e-09
3.80672166437e-10
9.23506257199e-09
1.22029526503e-08
1.24693121896e-08
5.194441833e-09
6.61431732831e-09
3.95354367547e-09
2.47091908453e-09
1.51665038553e-08
7.39065464134e-09
1.3692546483e-10
7.6149542363e-09
1.69154452154e-09
5.30572568632e-09
2.92408627859e-10
6.76754835541e-10
6.63938411554e-10
2.67743218539e-10
1.6250180026e-10
1.16873984322e-10
6.50274924346e-11
1.73224322886e-10
1.12716012883e-09
7.18070880021e-10
2.41504563178e-09
5.88672308965e-10
1.4795371113e-09
2.16532045982e-10
6.71314570218e-10
2.08184306307e-10
2.09660946087e-10
8.08562711549e-11
2.84991470229e-11
2.41348407695e-10
1.61868403296e-11
5.842855789e-11
2.19952704015e-10
6.61917494915e-11
5.52012358906e-10
1.91570062231e-10
8.47559571086e-10
2.7084532307e-11
1.11979934364e-10
5.43498858322e-10
3.86319165871e-11
4.7071051083e-10
1.95424396045e-11
5.19940038072e-10
2.32965658504e-10
5.89567579764e-10
1.91443109803e-10
2.58220495039e-11
1.51203470478e-11
1.29190513124e-11
1.96527727347e-10
2.67740836643e-10
2.83428126967e-10
2.8847505104e-10
6.93293413123e-10
3.53028198029e-11
6.65186232485e-10
4.2028758538e-10
6.31912489077e-10
1.34126292866e-10
3.90106860718e-10
1.71852511552e-10
3.34681774293e-10
7.46360941749e-11
5.30766851991e-11
2.67391190063e-10
1.82812748494e-10
2.22254235056e-10
3.88853844686e-11
3.67904534636e-10
1.80052684196e-10
3.17551500507e-10
1.13769013962e-10
1.18852594791e-10
2.64235234209e-10
2.96006679574e-10
3.0310363727e-11
1.36743175835e-10
1.7770387652e-10
9.37447603632e-11
5.73575039156e-11
7.47740621015e-11
1.85450851318e-10
3.77342754176e-10
3.38790990327e-10
3.46193051168e-11
1.7278584626e-10
6.3622855869e-11
2.48640872187e-10
4.19329021601e-10
1.31484096617e-10
1.41229582088e-11
1.64001079373e-10
2.94117830711e-10
1.1685358522e-10
1.79804800098e-11
1.67631914131e-10
2.02005750641e-10
2.24685006776e-10
1.21682271297e-10
2.34112228886e-11
2.55175204383e-11
1.07968304594e-10
2.19276596324e-11
8.66305029929e-11
9.44410281328e-11
1.93223319102e-10
2.05475557363e-11
1.59915631198e-10
2.89252912057e-10
3.08254571759e-10
5.87586318339e-09
6.4057729401e-09
8.42970816683e-09
6.26794491296e-09
7.39064703339e-09
1.27286555064e-09
1.17914009961e-08
1.51462731887e-08
6.86988510951e-09
4.83580689289e-09
3.82759139027e-10
1.872434516e-08
1.69788178361e-08
1.85683687901e-10
7.67066784688e-11
2.32796033174e-10
3.6485368398e-11
1.17085228384e-10
7.01032918379e-11
6.72038742464e-11
3.67747688999e-11
2.48444131712e-10
4.4960337236e-11
4.1766041254e-12
1.48352076371e-11
8.7743997119e-11
3.49888247278e-10
1.89814348416e-10
1.59680521301e-11
2.38064353184e-10

