# vtk DataFile Version 3.0
File Name: Molecule/methanol/methanol_5.0-0.vtk
ASCII
DATASET UNSTRUCTURED_GRID
FIELD FieldData 1
TIME 1 1 double
0.0
POINTS 240 double
1.611 0.0 -0.359
1.543 -0.475 -0.352
1.403 0.0 -0.933
1.341 -0.432 -0.927
1.345 -0.911 -0.332
1.16 -0.83 -0.909
1.032 -1.273 -0.301
0.876 -1.16 -0.88
0.631 -1.532 -0.261
0.51 -1.396 -0.844
0.173 -1.667 -0.216
0.093 -1.519 -0.802
-0.304 -1.667 -0.168
-0.341 -1.519 -0.759
-0.762 -1.532 -0.123
-0.758 -1.396 -0.718
-1.163 -1.273 -0.083
-1.124 -1.16 -0.681
-1.475 -0.911 -0.051
-1.408 -0.83 -0.653
-1.674 -0.475 -0.032
-1.589 -0.432 -0.635
-1.742 -0.0 -0.025
-1.651 -0.0 -0.629
-1.674 0.475 -0.032
-1.589 0.432 -0.635
-1.475 0.911 -0.051
-1.408 0.83 -0.653
-1.163 1.273 -0.083
-1.124 1.16 -0.681
-0.762 1.532 -0.123
-0.758 1.396 -0.718
-0.304 1.667 -0.168
-0.341 1.519 -0.759
0.173 1.667 -0.216
0.093 1.519 -0.802
0.631 1.532 -0.261
0.51 1.396 -0.844
1.032 1.273 -0.301
0.876 1.16 -0.88
1.345 0.911 -0.332
1.16 0.83 -0.909
1.543 0.475 -0.352
1.341 0.432 -0.927
1.907 0.0 0.656
1.852 0.452 0.656
1.852 0.226 1.047
1.852 -0.226 1.047
1.852 -0.452 0.656
1.852 -0.226 0.264
1.852 0.226 0.264
1.69 0.76 1.094
1.69 0.439 1.415
1.69 -0.0 1.533
1.69 -0.439 1.415
1.69 -0.76 1.094
1.69 -0.877 0.656
1.69 -0.76 0.217
1.69 -0.439 -0.104
1.69 0.439 -0.104
1.69 0.76 0.217
1.69 0.877 0.656
1.432 1.167 1.108
1.432 0.925 1.499
1.432 0.558 1.776
1.432 0.115 1.902
1.432 -0.343 1.859
1.432 -0.754 1.654
1.432 -1.064 1.315
1.432 -1.23 0.886
1.432 -1.23 0.426
1.432 -1.064 -0.003
1.432 1.167 0.203
1.432 1.252 0.656
1.091 1.484 1.113
1.091 1.283 1.531
1.091 0.969 1.87
1.091 0.568 2.102
1.091 0.116 2.205
1.091 -0.346 2.17
1.091 -0.777 2.001
1.091 -1.139 1.712
1.091 -1.4 1.33
1.091 -1.536 0.887
1.091 -1.536 0.424
1.091 -1.4 -0.018
1.091 1.484 0.198
1.091 1.553 0.656
0.688 1.705 1.112
0.688 1.528 1.538
0.688 1.248 1.904
0.688 0.882 2.184
0.688 0.457 2.36
0.688 0.0 2.42
0.688 -0.457 2.36
0.688 -0.882 2.184
0.688 -1.248 1.904
0.688 -1.528 1.538
0.688 -1.705 1.112
0.688 -1.765 0.656
0.688 -1.705 0.199
0.688 1.705 0.199
0.688 1.765 0.656
0.247 1.815 1.122
0.247 1.642 1.558
0.247 1.366 1.938
0.247 1.004 2.238
0.247 0.579 2.438
0.247 0.118 2.526
0.247 -0.351 2.496
0.247 -0.798 2.351
0.247 -1.194 2.099
0.247 -1.516 1.757
0.247 -1.742 1.345
0.247 -1.859 0.89
0.247 -1.859 0.421
0.247 1.815 0.19
0.247 1.874 0.656
-0.209 1.815 1.122
-0.209 1.642 1.558
-0.209 1.366 1.938
-0.209 1.004 2.238
-0.209 0.579 2.438
-0.209 0.118 2.526
-0.209 -0.351 2.496
-0.209 -0.798 2.351
-0.209 -1.194 2.099
-0.209 -1.516 1.757
-0.209 -1.742 1.345
-0.209 -1.859 0.89
-0.209 -1.859 0.421
-0.209 1.815 0.19
-0.209 1.874 0.656
-0.65 1.765 0.656
-0.65 1.705 1.112
-0.65 1.528 1.538
-0.65 1.248 1.904
-0.65 0.882 2.184
-0.65 0.457 2.36
-0.65 0.0 2.42
-0.65 -0.457 2.36
-0.65 -0.882 2.184
-0.65 -1.248 1.904
-0.65 -1.528 1.538
-0.65 -1.705 1.112
-0.65 -1.765 0.656
-0.65 -1.705 0.199
-0.65 1.705 0.199
-1.053 1.553 0.656
-1.053 1.484 1.113
-1.053 1.283 1.531
-1.053 0.969 1.87
-1.053 0.568 2.102
-1.053 0.116 2.205
-1.053 -0.346 2.17
-1.053 -0.777 2.001
-1.053 -1.139 1.712
-1.053 -1.4 1.33
-1.053 -1.536 0.887
-1.053 -1.536 0.424
-1.053 1.484 0.198
-1.394 1.252 0.656
-1.394 1.167 1.108
-1.394 0.925 1.499
-1.394 0.558 1.776
-1.394 0.115 1.902
-1.394 -0.343 1.859
-1.394 -0.754 1.654
-1.394 -1.064 1.315
-1.394 -1.23 0.886
-1.394 -1.23 0.426
-1.394 1.167 0.203
-1.652 0.877 0.656
-1.652 0.76 1.094
-1.652 0.439 1.415
-1.652 -0.0 1.533
-1.652 -0.439 1.415
-1.652 -0.76 1.094
-1.652 -0.877 0.656
-1.652 -0.76 0.217
-1.652 0.76 0.217
-1.814 0.452 0.656
-1.814 0.226 1.047
-1.814 -0.226 1.047
-1.814 -0.452 0.656
-1.814 -0.226 0.264
-1.814 0.226 0.264
-1.868 -0.0 0.656
1.122 -0.781 -1.188
0.783 -1.147 -1.212
0.783 -0.878 -1.615
1.122 -0.451 -1.519
0.783 -0.475 -1.885
1.122 -0.0 -1.639
0.783 0.0 -1.979
0.783 0.475 -1.885
1.122 0.451 -1.519
0.783 0.878 -1.615
1.122 0.781 -1.188
0.783 1.147 -1.212
0.355 -1.284 -1.432
0.355 -0.989 -1.811
0.355 -0.586 -2.074
0.355 -0.121 -2.192
0.355 0.358 -2.152
0.355 0.798 -1.959
0.355 1.152 -1.634
0.355 1.381 -1.211
-0.12 -1.383 -1.403
-0.12 -1.125 -1.781
-0.12 -0.767 -2.067
-0.12 -0.342 -2.234
-0.12 0.115 -2.268
-0.12 0.561 -2.166
-0.12 0.957 -1.937
-0.12 1.268 -1.602
-0.12 1.467 -1.19
-0.594 -1.44 -0.977
-0.594 -1.284 -1.432
-0.594 -0.989 -1.811
-0.594 -0.586 -2.074
-0.594 -0.121 -2.192
-0.594 0.358 -2.152
-0.594 0.798 -1.959
-0.594 1.152 -1.634
-0.594 1.381 -1.211
-1.022 -1.147 -1.212
-1.022 -0.878 -1.615
-1.022 -0.475 -1.885
-1.022 0.0 -1.979
-1.022 0.475 -1.885
-1.022 0.878 -1.615
-1.022 1.147 -1.212
-1.362 -0.781 -1.188
-1.362 -0.451 -1.519
-1.362 -0.0 -1.639
-1.362 0.451 -1.519
-1.362 0.781 -1.188
-1.58 -0.237 -1.148
-1.58 0.237 -1.148

CELLS 476 1904
3 0 1 2
3 2 1 3
3 1 4 3
3 3 4 5
3 4 6 5
3 5 6 7
3 6 8 7
3 7 8 9
3 8 10 9
3 9 10 11
3 10 12 11
3 11 12 13
3 12 14 13
3 13 14 15
3 14 16 15
3 15 16 17
3 16 18 17
3 17 18 19
3 18 20 19
3 19 20 21
3 20 22 21
3 21 22 23
3 22 24 23
3 23 24 25
3 24 26 25
3 25 26 27
3 26 28 27
3 27 28 29
3 28 30 29
3 29 30 31
3 30 32 31
3 31 32 33
3 32 34 33
3 33 34 35
3 34 36 35
3 35 36 37
3 36 38 37
3 37 38 39
3 38 40 39
3 39 40 41
3 40 42 41
3 41 42 43
3 42 0 43
3 43 0 2
3 44 45 46
3 44 46 47
3 44 47 48
3 44 48 49
3 44 49 50
3 44 50 45
3 46 45 51
3 46 51 52
3 46 52 53
3 47 46 53
3 47 53 54
3 47 54 55
3 48 47 55
3 48 55 56
3 48 56 57
3 49 48 57
3 49 57 58
3 50 59 60
3 45 50 60
3 45 60 61
3 45 61 51
3 51 61 62
3 51 62 63
3 52 51 63
3 52 63 64
3 52 64 65
3 53 52 65
3 53 65 66
3 54 53 66
3 54 66 67
3 55 54 67
3 55 67 68
3 55 68 69
3 56 55 69
3 56 69 70
3 57 56 70
3 57 70 71
3 61 60 72
3 61 72 73
3 61 73 62
3 62 73 74
3 62 74 75
3 63 62 75
3 63 75 76
3 64 63 76
3 64 76 77
3 65 64 77
3 65 77 78
3 65 78 79
3 66 65 79
3 66 79 80
3 67 66 80
3 67 80 81
3 68 67 81
3 68 81 82
3 69 68 82
3 69 82 83
3 69 83 84
3 70 69 84
3 70 84 85
3 71 70 85
3 73 72 86
3 73 86 87
3 73 87 74
3 74 87 88
3 74 88 89
3 75 74 89
3 75 89 90
3 76 75 90
3 76 90 91
3 77 76 91
3 77 91 92
3 78 77 92
3 78 92 93
3 79 78 93
3 79 93 94
3 80 79 94
3 80 94 95
3 80 95 96
3 81 80 96
3 81 96 97
3 82 81 97
3 82 97 98
3 83 82 98
3 83 98 99
3 84 83 99
3 84 99 100
3 85 84 100
3 87 86 101
3 87 101 102
3 87 102 88
3 88 102 103
3 88 103 104
3 89 88 104
3 89 104 105
3 90 89 105
3 90 105 106
3 91 90 106
3 91 106 107
3 92 91 107
3 92 107 108
3 93 92 108
3 93 108 109
3 94 93 109
3 94 109 110
3 95 94 110
3 95 110 111
3 96 95 111
3 96 111 112
3 97 96 112
3 97 112 113
3 98 97 113
3 98 113 114
3 99 98 114
3 99 114 115
3 100 99 115
3 102 101 116
3 102 116 117
3 102 117 103
3 103 117 118
3 103 118 119
3 104 103 119
3 104 119 120
3 105 104 120
3 105 120 121
3 106 105 121
3 106 121 122
3 107 106 122
3 107 122 123
3 108 107 123
3 108 123 124
3 109 108 124
3 109 124 125
3 110 109 125
3 110 125 126
3 111 110 126
3 111 126 127
3 112 111 127
3 112 127 128
3 113 112 128
3 113 128 129
3 114 113 129
3 114 129 130
3 115 114 130
3 117 116 131
3 117 131 132
3 117 132 118
3 118 132 133
3 118 133 134
3 119 118 134
3 119 134 135
3 120 119 135
3 120 135 136
3 121 120 136
3 121 136 137
3 122 121 137
3 122 137 138
3 123 122 138
3 123 138 139
3 124 123 139
3 124 139 140
3 125 124 140
3 125 140 141
3 126 125 141
3 126 141 142
3 127 126 142
3 127 142 143
3 128 127 143
3 128 143 144
3 129 128 144
3 129 144 145
3 130 129 145
3 130 145 146
3 133 131 147
3 132 131 133
3 134 133 148
3 134 148 149
3 135 134 149
3 135 149 150
3 136 135 150
3 136 150 151
3 137 136 151
3 137 151 152
3 138 137 152
3 138 152 153
3 139 138 153
3 139 153 154
3 140 139 154
3 140 154 155
3 141 140 155
3 142 141 155
3 142 155 156
3 143 142 156
3 143 156 157
3 144 143 157
3 144 157 158
3 145 144 158
3 145 158 159
3 146 145 159
3 148 147 160
3 133 147 148
3 149 148 161
3 149 161 162
3 150 149 162
3 150 162 163
3 151 150 163
3 151 163 164
3 152 151 164
3 152 164 165
3 153 152 165
3 154 153 165
3 154 165 166
3 155 154 166
3 155 166 167
3 156 155 167
3 156 167 168
3 157 156 168
3 157 168 169
3 158 157 169
3 158 169 170
3 159 158 170
3 161 160 171
3 148 160 161
3 162 161 172
3 162 172 173
3 163 162 173
3 163 173 174
3 164 163 174
3 165 164 174
3 165 174 175
3 166 165 175
3 166 175 176
3 167 166 176
3 167 176 177
3 168 167 177
3 169 168 177
3 169 177 178
3 170 169 178
3 170 178 179
3 172 171 180
3 161 171 172
3 173 172 181
3 173 181 182
3 174 173 182
3 175 174 182
3 175 182 183
3 176 175 183
3 177 176 183
3 177 183 184
3 178 177 184
3 179 178 184
3 179 184 185
3 181 180 186
3 172 180 181
3 182 181 187
3 183 182 187
3 184 183 187
3 185 184 187
3 186 185 187
3 181 186 187
3 186 180 24
3 186 24 22
3 186 22 185
3 185 22 20
3 185 20 179
3 179 20 18
3 179 18 170
3 170 18 16
3 170 16 159
3 159 16 14
3 159 14 146
3 146 14 12
3 146 12 130
3 130 12 10
3 130 10 115
3 115 10 100
3 100 10 8
3 100 8 85
3 85 8 6
3 85 6 71
3 71 6 4
3 71 4 58
3 71 58 57
3 58 4 1
3 58 1 0
3 58 0 49
3 49 0 50
3 50 0 59
3 59 0 42
3 59 42 40
3 59 40 60
3 60 40 72
3 72 40 38
3 72 38 86
3 86 38 36
3 86 36 101
3 101 36 116
3 116 36 34
3 116 34 131
3 131 34 32
3 131 32 147
3 147 32 30
3 147 30 160
3 160 30 28
3 160 28 171
3 171 28 26
3 171 26 180
3 180 26 24
3 188 189 190
3 191 188 190
3 191 190 192
3 193 191 192
3 193 192 194
3 193 194 195
3 196 193 195
3 196 195 197
3 198 196 197
3 198 197 199
3 190 189 200
3 190 200 201
3 192 190 201
3 192 201 202
3 192 202 203
3 194 192 203
3 194 203 204
3 195 194 204
3 195 204 205
3 197 195 205
3 197 205 206
3 199 197 206
3 199 206 207
3 200 208 209
3 201 200 209
3 201 209 210
3 202 201 210
3 202 210 211
3 203 202 211
3 203 211 212
3 204 203 212
3 204 212 213
3 205 204 213
3 205 213 214
3 206 205 214
3 206 214 215
3 207 206 215
3 207 215 216
3 208 217 218
3 209 208 218
3 209 218 219
3 210 209 219
3 210 219 220
3 211 210 220
3 211 220 221
3 212 211 221
3 212 221 222
3 213 212 222
3 213 222 223
3 214 213 223
3 214 223 224
3 215 214 224
3 215 224 225
3 216 215 225
3 218 217 226
3 218 226 227
3 219 218 227
3 219 227 228
3 220 219 228
3 221 220 228
3 221 228 229
3 222 221 229
3 222 229 230
3 223 222 230
3 223 230 231
3 224 223 231
3 224 231 232
3 225 224 232
3 227 226 233
3 227 233 234
3 228 227 234
3 228 234 235
3 229 228 235
3 230 229 235
3 230 235 236
3 231 230 236
3 231 236 237
3 232 231 237
3 234 233 238
3 235 234 238
3 235 238 239
3 236 235 239
3 237 236 239
3 237 239 25
3 237 25 27
3 237 27 29
3 237 29 232
3 232 29 31
3 232 31 225
3 225 31 33
3 225 33 216
3 216 33 35
3 216 35 207
3 207 35 37
3 207 37 199
3 199 37 39
3 199 39 198
3 198 39 41
3 198 41 43
3 198 43 196
3 196 43 2
3 196 2 193
3 193 2 191
3 191 2 3
3 191 3 188
3 188 3 5
3 188 5 7
3 188 7 189
3 189 7 9
3 189 9 200
3 200 9 11
3 200 11 208
3 208 11 13
3 208 13 217
3 217 13 15
3 217 15 226
3 226 15 17
3 226 17 233
3 233 17 19
3 233 19 21
3 233 21 238
3 238 21 23
3 238 23 239
3 239 23 25

CELL_TYPES 476
5
5
5
5
5
5
5
5
5
5
5
5
5
5
5
5
5
5
5
5
5
5
5
5
5
5
5
5
5
5
5
5
5
5
5
5
5
5
5
5
5
5
5
5
5
5
5
5
5
5
5
5
5
5
5
5
5
5
5
5
5
5
5
5
5
5
5
5
5
5
5
5
5
5
5
5
5
5
5
5
5
5
5
5
5
5
5
5
5
5
5
5
5
5
5
5
5
5
5
5
5
5
5
5
5
5
5
5
5
5
5
5
5
5
5
5
5
5
5
5
5
5
5
5
5
5
5
5
5
5
5
5
5
5
5
5
5
5
5
5
5
5
5
5
5
5
5
5
5
5
5
5
5
5
5
5
5
5
5
5
5
5
5
5
5
5
5
5
5
5
5
5
5
5
5
5
5
5
5
5
5
5
5
5
5
5
5
5
5
5
5
5
5
5
5
5
5
5
5
5
5
5
5
5
5
5
5
5
5
5
5
5
5
5
5
5
5
5
5
5
5
5
5
5
5
5
5
5
5
5
5
5
5
5
5
5
5
5
5
5
5
5
5
5
5
5
5
5
5
5
5
5
5
5
5
5
5
5
5
5
5
5
5
5
5
5
5
5
5
5
5
5
5
5
5
5
5
5
5
5
5
5
5
5
5
5
5
5
5
5
5
5
5
5
5
5
5
5
5
5
5
5
5
5
5
5
5
5
5
5
5
5
5
5
5
5
5
5
5
5
5
5
5
5
5
5
5
5
5
5
5
5
5
5
5
5
5
5
5
5
5
5
5
5
5
5
5
5
5
5
5
5
5
5
5
5
5
5
5
5
5
5
5
5
5
5
5
5
5
5
5
5
5
5
5
5
5
5
5
5
5
5
5
5
5
5
5
5
5
5
5
5
5
5
5
5
5
5
5
5
5
5
5
5
5
5
5
5
5
5
5
5
5
5
5
5
5
5
5
5
5
5
5
5
5
5
5
5
5
5
5
5
5
5
5
5
5
5
5
5
5
5
5
5
5
5
5
5
5
5
5
5
5
5
5
5
5
5
5
5
5
5
5
5
5
5
5
5
5
5
5
5
5
5
5
5

CELL_DATA 476
SCALARS cell_data_0 double
LOOKUP_TABLE default
3.40972593701e-08
2.78736383204e-08
1.54059593533e-08
3.08347798708e-09
1.97192249767e-09
1.99968605097e-09
3.67668826799e-10
9.28403556748e-11
1.69461183064e-10
3.99504863277e-10
1.54727780256e-10
1.08587845933e-11
1.03290487365e-10
8.18837636661e-11
7.39005321179e-11
7.89934487586e-11
1.54242921431e-10
3.4774343406e-10
5.90139693296e-10
3.26298571496e-10
4.00148821713e-10
4.29016193429e-10
1.05924214839e-10
2.03494139514e-10
3.84567749201e-10
1.49198322765e-10
4.60611877185e-10
1.89273691427e-10
1.09414613622e-10
1.2898793499e-10
3.09866183755e-11
8.92548743315e-11
1.09253843231e-10
5.18353195458e-11
2.85493243496e-11
1.01508662465e-10
8.53217545458e-11
1.28467242311e-10
1.05884789774e-09
2.13248033279e-09
1.57367716504e-09
5.85833810394e-09
3.11264132796e-08
5.21460637811e-08
7.96474319599e-10
4.46729672418e-10
5.33423698106e-10
1.83284270801e-10
1.07796769451e-09
2.74381986748e-10
8.57331627741e-11
9.41811028635e-11
1.61642353149e-10
4.01273472285e-10
2.61935450379e-11
4.30861806614e-10
8.71022319823e-10
1.43061936295e-09
6.63274452611e-09
1.15252145792e-08
1.53314857038e-08
6.01266286624e-10
1.7553184575e-09
1.13514268827e-11
3.52196895305e-10
7.08718857624e-11
4.35019556069e-12
1.21683450835e-10
5.63202096118e-11
6.31617834878e-11
5.40518335596e-11
2.71438563337e-11
1.31393162198e-10
6.68356024462e-11
4.25388986198e-10
3.88517268619e-10
7.86369068105e-10
1.01330851541e-09
2.28554005898e-09
5.81013399959e-09
7.9292243046e-09
9.05684314831e-11
2.35900383143e-10
7.19290447595e-11
2.29738935631e-11
8.94661689203e-12
2.32402880389e-11
7.27661220516e-12
2.24394931782e-11
1.63641520427e-11
2.36376380293e-11
2.5446961944e-13
6.13609043546e-12
8.22490883202e-12
1.21018546884e-11
7.51913816831e-11
3.12859279423e-11
1.17628816319e-10
1.90881475603e-11
4.78417767638e-10
3.16741393593e-10
4.53699466867e-10
1.07420874787e-10
3.55202779507e-10
5.06128893725e-10
1.82793649288e-10
1.51082070715e-11
5.97250110063e-12
1.87773793047e-11
1.47476796548e-11
1.17820722204e-11
7.621332222e-12
1.62870563314e-11
1.12595412498e-11
7.91512864955e-12
7.85682188376e-12
6.38754798318e-12
9.36058859406e-12
1.03036978626e-11
1.2363657761e-11
1.27721354633e-11
1.61413985846e-12
1.55611216272e-11
6.32029806524e-11
4.00830350272e-11
1.21987363215e-10
7.18851951765e-11
1.30897372833e-10
1.49074564074e-10
8.30545285351e-11
2.00735385571e-10
2.29114170273e-10
3.18320244871e-12
6.59522448104e-12
1.95310971908e-11
1.02365607571e-11
8.73017680723e-12
8.94323962317e-12
2.00563251806e-12
1.56391175522e-13
2.96148556121e-12
6.52338454602e-12
1.5725569782e-12
6.56402085526e-12
3.30446124911e-12
7.77036558812e-12
9.93669258416e-13
2.99796004384e-12
1.12766624966e-12
5.89823158691e-12
7.01762415856e-12
2.78037456433e-11
1.25393173419e-11
3.73065283917e-11
7.6551337307e-12
8.40052683326e-11
3.96805688797e-11
3.13287228416e-12
3.80479048747e-11
8.61227521832e-12
3.13467521028e-11
1.6845561473e-11
4.61451710526e-13
7.01728848271e-12
2.62347683941e-12
8.68462973851e-12
6.22494468984e-12
1.5112113221e-12
3.11032798535e-12
3.84943836309e-12
6.61790854434e-12
4.7473457893e-12
5.34605911789e-12
2.28397209453e-12
3.30912802065e-12
6.25263210889e-12
4.24077495577e-13
7.8604912658e-13
1.18463041927e-11
1.78027676457e-12
3.44608912047e-12
2.21369377619e-11
1.2122736697e-11
2.20071539736e-11
2.2957959368e-11
3.7391728081e-11
1.27472665184e-10
1.08282459946e-10
9.12031472924e-12
3.46194600212e-12
4.17253032788e-12
6.01275173075e-13
1.12336013106e-12
1.13452324165e-11
1.262807463e-11
1.61400976802e-12
4.95276708444e-12
6.09174810995e-12
3.64586396803e-12
3.05635355856e-12
1.8324921934e-12
1.74217732023e-12
6.34975993292e-12
2.33047084585e-12
3.80043620674e-12
3.77085205455e-12
8.06840364507e-12
7.79144836539e-12
1.89816612098e-11
1.52173120334e-11
2.52338406616e-11
3.29902361736e-11
4.38673395005e-15
1.90680457103e-11
1.61838642809e-11
2.3254265803e-11
8.59576041847e-11
7.20482043489e-12
1.35429290075e-11
2.6471904575e-11
3.01412470148e-12
3.94216307262e-12
3.72948901785e-12
8.06369808448e-12
2.05044290519e-12
1.27842700445e-12
5.41883819968e-12
8.03026241871e-12
2.47957454376e-12
3.03216740514e-12
2.22345332342e-12
1.82107164002e-12
2.81805069456e-12
2.8216379837e-12
5.16062981275e-12
5.60967671767e-13
2.65945323108e-11
8.98076641877e-12
1.73800911444e-11
1.88031441716e-11
7.09317940848e-11
8.19877347135e-11
1.54296015293e-10
1.11434434904e-10
2.1055588924e-11
3.27877671904e-11
4.93052675023e-12
1.89920886415e-12
2.97211961217e-12
7.09802663865e-12
6.27585323931e-13
3.27017347256e-12
2.20595905621e-12
1.35327463064e-12
5.53013623431e-12
1.2772782593e-12
9.23900226206e-13
4.33112400511e-12
5.62919681664e-12
1.19782722377e-12
9.4277749522e-12
1.28501224838e-11
4.35016393956e-11
3.59937090667e-11
1.22377838556e-10
1.80476517585e-10
1.16711447695e-11
3.68520639539e-11
5.01439409075e-12
3.73995845752e-12
2.37792936757e-12
7.85892256674e-13
2.50330474144e-12
9.52747803301e-13
2.10936795958e-12
2.8949141781e-12
4.14249968468e-12
3.10941321049e-12
2.01938478481e-12
1.03288808185e-11
8.47460462879e-11
4.82484304339e-11
2.32240646556e-10
2.71616498029e-10
3.39096726487e-11
5.27188201967e-11
1.97170496375e-11
6.85256677452e-12
2.93274786249e-12
6.25644332462e-12
1.811752421e-12
9.54941528156e-12
5.05167541649e-12
7.99924327426e-11
5.53318677145e-11
4.18812800316e-10
3.47029116445e-10
5.68464292734e-11
7.97434967022e-11
3.49093180307e-11
7.80536971466e-11
1.57042169213e-11
2.33939958368e-10
2.20251935331e-11
1.95675731042e-10
2.34522204173e-11
2.6242663026e-10
4.91192002015e-11
2.39289092729e-10
2.04623143779e-11
3.50381850021e-10
2.03102287921e-10
4.33433929328e-10
1.55788860498e-10
2.84919326626e-10
9.33049678432e-11
3.33916314969e-10
9.52011044377e-11
1.66930461003e-10
1.16950851368e-10
7.72888521357e-11
8.7089491372e-12
7.36383267405e-11
1.17578056274e-11
1.69771526589e-09
7.82047831524e-09
1.43190479837e-08
1.50850045143e-08
5.14191966213e-09
3.07916950269e-09
7.69577302039e-09
8.75928425513e-09
8.69367604898e-09
2.63115994656e-09
2.12181940932e-09
5.77129653571e-10
6.33950748154e-10
2.73289222908e-11
8.35314723189e-11
2.84348836391e-11
1.02386880675e-11
6.21529759638e-11
4.06230230392e-11
6.18873232819e-11
2.51168143922e-11
3.51616888546e-11
1.16262298162e-10
1.66300841136e-11
1.41923677508e-10
2.00339931416e-12
1.83845134351e-10
5.66261394579e-11
5.558725873e-09
7.53695154401e-09
1.88408597424e-08
1.53238229418e-08
6.09633063523e-09
5.80742189562e-09
3.22722099882e-09
5.00819005079e-09
3.93185546347e-09
1.3774218413e-08
9.82556995537e-10
3.15149565075e-09
1.73350941205e-08
6.01496691491e-09
6.11741608617e-09
7.24434436678e-09
2.26801819766e-08
1.69952008598e-08
1.26097789267e-10
4.88362338347e-09
7.63647644525e-10
1.71239156405e-09
1.13835912941e-10
4.00803888048e-10
1.12117537362e-09
3.69666570157e-10
6.89759210949e-10
3.82414814817e-10
2.28746375148e-10
4.84121206718e-10
4.94616855798e-10
6.27034693283e-10
1.66046895837e-10
6.31819128181e-11
6.57734629259e-10
4.5151493376e-10
1.49481260955e-11
2.09208888651e-10
2.29894737854e-10
6.74008061382e-10
1.4367285249e-10
1.4227234697e-09
2.45199914459e-10
1.39515235587e-09
2.39564706636e-10
1.51180125139e-09
1.23853427153e-10
1.68311132486e-09
4.54027581675e-11
1.79631505269e-09
3.73633094967e-10
8.83989934881e-10
8.62960062745e-11
4.80306215684e-11
1.27758808889e-10
4.09897464032e-10
7.04244293562e-10
3.15879128274e-13
8.04680713082e-10
1.13205053976e-09
1.80894504913e-10
1.39110853918e-09
5.05311337749e-12
1.29862657039e-09
2.52241346074e-10
1.0855103296e-09
2.49157170026e-10
3.37025972561e-11
1.45857488498e-11
4.73593747433e-10
7.09927371982e-11
3.77197230436e-10
7.01353823514e-10
8.86917933969e-10
2.01055982215e-10
1.5504349016e-10
4.09509020805e-10
1.6488007363e-10
8.589635429e-11
6.46999629248e-10
2.38765016298e-10
6.55628711558e-10
7.7050968825e-11
4.7381675768e-10
1.90078825641e-10
2.62845857017e-10
1.1195832412e-10
2.15861444416e-10
1.45165097144e-10
1.31795901513e-10
7.1241559159e-11
2.17270496539e-10
1.59258665585e-10
2.68801770284e-10
1.35334946054e-10
1.15111199117e-10
5.88665803417e-09
4.26994421754e-09
1.01324506625e-08
7.19689303525e-09
1.76829809412e-08
1.6785343779e-08
2.55407030244e-08
2.66012809383e-08
5.60064212631e-09
6.7004325188e-09
2.13104265419e-09
3.14921609311e-09
3.13928070787e-09
4.84230143358e-09
1.82138522809e-10
1.76389764433e-11
1.54938386602e-10
1.55608069087e-10
8.28624764502e-11
1.51277911766e-11
7.41438056369e-11
2.51734413913e-10
3.93589778441e-10
1.12652536063e-10
5.03154856665e-10
2.15313784438e-10
2.46597831515e-10
2.5501120719e-10

