# vtk DataFile Version 3.0
File Name: Molecule/methanol/methanol_6.25-0.vtk
ASCII
DATASET UNSTRUCTURED_GRID
FIELD FieldData 1
TIME 1 1 double
0.0
POINTS 296 double
1.611 0.0 -0.359
1.554 -0.436 -0.353
1.403 0.0 -0.933
1.351 -0.397 -0.928
1.386 -0.842 -0.336
1.198 -0.767 -0.912
1.12 -1.191 -0.31
0.956 -1.085 -0.888
0.773 -1.459 -0.275
0.639 -1.329 -0.857
0.368 -1.627 -0.235
0.271 -1.482 -0.82
-0.065 -1.684 -0.192
-0.124 -1.534 -0.781
-0.499 -1.627 -0.149
-0.519 -1.482 -0.741
-0.903 -1.459 -0.108
-0.887 -1.329 -0.705
-1.251 -1.191 -0.074
-1.204 -1.085 -0.673
-1.517 -0.842 -0.047
-1.446 -0.767 -0.649
-1.684 -0.436 -0.031
-1.599 -0.397 -0.634
-1.742 0.0 -0.025
-1.651 0.0 -0.629
-1.684 0.436 -0.031
-1.599 0.397 -0.634
-1.517 0.842 -0.047
-1.446 0.767 -0.649
-1.251 1.191 -0.074
-1.204 1.085 -0.673
-0.903 1.459 -0.108
-0.887 1.329 -0.705
-0.499 1.627 -0.149
-0.519 1.482 -0.741
-0.065 1.684 -0.192
-0.124 1.534 -0.781
0.368 1.627 -0.235
0.271 1.482 -0.82
0.773 1.459 -0.275
0.639 1.329 -0.857
1.12 1.191 -0.31
0.956 1.085 -0.888
1.386 0.842 -0.336
1.198 0.767 -0.912
1.554 0.436 -0.353
1.351 0.397 -0.928
1.907 0.0 0.656
1.859 0.42 0.656
1.859 0.21 1.019
1.859 -0.21 1.019
1.859 -0.42 0.656
1.859 -0.21 0.292
1.859 0.21 0.292
1.72 0.709 1.065
1.72 0.409 1.365
1.72 -0.0 1.475
1.72 -0.409 1.365
1.72 -0.709 1.065
1.72 -0.819 0.656
1.72 -0.709 0.246
1.72 -0.409 -0.054
1.72 -0.0 -0.163
1.72 0.409 -0.054
1.72 0.709 0.246
1.72 0.819 0.656
1.495 1.106 1.058
1.495 0.902 1.412
1.495 0.588 1.675
1.495 0.204 1.815
1.495 -0.204 1.815
1.495 -0.588 1.675
1.495 -0.902 1.412
1.495 -1.106 1.058
1.495 -1.177 0.656
1.495 -1.106 0.253
1.495 -0.902 -0.101
1.495 0.902 -0.101
1.495 1.106 0.253
1.495 1.177 0.656
1.196 1.416 1.071
1.196 1.241 1.453
1.196 0.966 1.771
1.196 0.613 1.998
1.196 0.21 2.116
1.196 -0.21 2.116
1.196 -0.613 1.998
1.196 -0.966 1.771
1.196 -1.241 1.453
1.196 -1.416 1.071
1.196 -1.476 0.656
1.196 -1.416 0.24
1.196 1.416 0.24
1.196 1.476 0.656
0.838 1.651 1.063
0.838 1.506 1.446
0.838 1.273 1.783
0.838 0.966 2.055
0.838 0.603 2.246
0.838 0.205 2.344
0.838 -0.205 2.344
0.838 -0.603 2.246
0.838 -0.966 2.055
0.838 -1.273 1.783
0.838 -1.506 1.446
0.838 -1.651 1.063
0.838 -1.701 0.656
0.838 -1.651 0.249
0.838 1.651 0.249
0.838 1.701 0.656
0.439 1.794 1.065
0.439 1.658 1.454
0.439 1.439 1.803
0.439 1.147 2.094
0.439 0.798 2.314
0.439 0.409 2.45
0.439 0.0 2.496
0.439 -0.409 2.45
0.439 -0.798 2.314
0.439 -1.147 2.094
0.439 -1.439 1.803
0.439 -1.658 1.454
0.439 -1.794 1.065
0.439 -1.84 0.656
0.439 -1.794 0.246
0.439 1.794 0.246
0.439 1.84 0.656
0.019 1.843 1.061
0.019 1.713 1.448
0.019 1.503 1.798
0.019 1.222 2.094
0.019 0.884 2.323
0.019 0.505 2.474
0.019 0.102 2.54
0.019 -0.305 2.518
0.019 -0.699 2.409
0.019 -1.059 2.218
0.019 -1.37 1.954
0.019 -1.617 1.629
0.019 -1.789 1.258
0.019 -1.876 0.86
0.019 -1.876 0.452
0.019 -1.789 0.053
0.019 1.843 0.25
0.019 1.888 0.656
-0.401 1.84 0.656
-0.401 1.794 1.065
-0.401 1.658 1.454
-0.401 1.439 1.803
-0.401 1.147 2.094
-0.401 0.798 2.314
-0.401 0.409 2.45
-0.401 0.0 2.496
-0.401 -0.409 2.45
-0.401 -0.798 2.314
-0.401 -1.147 2.094
-0.401 -1.439 1.803
-0.401 -1.658 1.454
-0.401 -1.794 1.065
-0.401 -1.84 0.656
-0.401 -1.794 0.246
-0.401 1.794 0.246
-0.8 1.701 0.656
-0.8 1.651 1.063
-0.8 1.506 1.446
-0.8 1.273 1.783
-0.8 0.966 2.055
-0.8 0.603 2.246
-0.8 0.205 2.344
-0.8 -0.205 2.344
-0.8 -0.603 2.246
-0.8 -0.966 2.055
-0.8 -1.273 1.783
-0.8 -1.506 1.446
-0.8 -1.651 1.063
-0.8 -1.701 0.656
-0.8 -1.651 0.249
-0.8 1.651 0.249
-1.158 1.476 0.656
-1.158 1.416 1.071
-1.158 1.241 1.453
-1.158 0.966 1.771
-1.158 0.613 1.998
-1.158 0.21 2.116
-1.158 -0.21 2.116
-1.158 -0.613 1.998
-1.158 -0.966 1.771
-1.158 -1.241 1.453
-1.158 -1.416 1.071
-1.158 -1.476 0.656
-1.158 -1.416 0.24
-1.158 1.416 0.24
-1.457 1.177 0.656
-1.457 1.106 1.058
-1.457 0.902 1.412
-1.457 0.588 1.675
-1.457 0.204 1.815
-1.457 -0.204 1.815
-1.457 -0.588 1.675
-1.457 -0.902 1.412
-1.457 -1.106 1.058
-1.457 -1.177 0.656
-1.457 -1.106 0.253
-1.457 1.106 0.253
-1.682 0.819 0.656
-1.682 0.709 1.065
-1.682 0.409 1.365
-1.682 -0.0 1.475
-1.682 -0.409 1.365
-1.682 -0.709 1.065
-1.682 -0.819 0.656
-1.682 -0.709 0.246
-1.682 0.709 0.246
-1.821 0.42 0.656
-1.821 0.21 1.019
-1.821 -0.21 1.019
-1.821 -0.42 0.656
-1.821 -0.21 0.292
-1.821 0.21 0.292
-1.868 -0.0 0.656
1.21 -0.665 -1.121
0.966 -1.003 -1.153
0.966 -0.768 -1.505
1.21 -0.384 -1.402
0.966 -0.415 -1.74
1.21 -0.0 -1.505
0.966 0.0 -1.823
0.966 0.415 -1.74
1.21 0.384 -1.402
0.966 0.768 -1.505
1.21 0.665 -1.121
0.966 1.003 -1.153
0.648 -1.264 -1.148
0.648 -1.075 -1.519
0.648 -0.781 -1.813
0.648 -0.411 -2.001
0.648 0.0 -2.067
0.648 0.411 -2.001
0.648 0.781 -1.813
0.648 1.075 -1.519
0.648 1.264 -1.148
0.278 -1.36 -1.328
0.278 -1.15 -1.673
0.278 -0.855 -1.949
0.278 -0.497 -2.134
0.278 -0.101 -2.216
0.278 0.302 -2.189
0.278 0.682 -2.054
0.278 1.012 -1.821
0.278 1.267 -1.508
0.278 1.428 -1.137
-0.12 -1.483 -1.134
-0.12 -1.329 -1.505
-0.12 -1.085 -1.823
-0.12 -0.768 -2.067
-0.12 -0.397 -2.22
-0.12 -0.0 -2.272
-0.12 0.397 -2.22
-0.12 0.767 -2.067
-0.12 1.085 -1.823
-0.12 1.329 -1.505
-0.12 1.483 -1.134
-0.517 -1.36 -1.328
-0.517 -1.15 -1.673
-0.517 -0.855 -1.949
-0.517 -0.497 -2.134
-0.517 -0.101 -2.216
-0.517 0.302 -2.189
-0.517 0.682 -2.054
-0.517 1.012 -1.821
-0.517 1.267 -1.508
-0.517 1.428 -1.137
-0.887 -1.264 -1.148
-0.887 -1.075 -1.519
-0.887 -0.781 -1.813
-0.887 -0.411 -2.001
-0.887 0.0 -2.067
-0.887 0.411 -2.001
-0.887 0.781 -1.813
-0.887 1.075 -1.519
-0.887 1.264 -1.148
-1.205 -1.003 -1.153
-1.205 -0.768 -1.505
-1.205 -0.415 -1.74
-1.205 0.0 -1.823
-1.205 0.415 -1.74
-1.205 0.768 -1.505
-1.205 1.003 -1.153
-1.449 -0.665 -1.121
-1.449 -0.384 -1.402
-1.449 -0.0 -1.505
-1.449 0.384 -1.402
-1.449 0.665 -1.121
-1.602 -0.199 -1.081
-1.602 0.199 -1.081

CELLS 588 2352
3 0 1 2
3 2 1 3
3 1 4 3
3 3 4 5
3 4 6 5
3 5 6 7
3 6 8 7
3 7 8 9
3 8 10 9
3 9 10 11
3 10 12 11
3 11 12 13
3 12 14 13
3 13 14 15
3 14 16 15
3 15 16 17
3 16 18 17
3 17 18 19
3 18 20 19
3 19 20 21
3 20 22 21
3 21 22 23
3 22 24 23
3 23 24 25
3 24 26 25
3 25 26 27
3 26 28 27
3 27 28 29
3 28 30 29
3 29 30 31
3 30 32 31
3 31 32 33
3 32 34 33
3 33 34 35
3 34 36 35
3 35 36 37
3 36 38 37
3 37 38 39
3 38 40 39
3 39 40 41
3 40 42 41
3 41 42 43
3 42 44 43
3 43 44 45
3 44 46 45
3 45 46 47
3 46 0 47
3 47 0 2
3 48 49 50
3 48 50 51
3 48 51 52
3 48 52 53
3 48 53 54
3 48 54 49
3 50 49 55
3 50 55 56
3 50 56 57
3 51 50 57
3 51 57 58
3 51 58 59
3 52 51 59
3 52 59 60
3 52 60 61
3 53 52 61
3 53 61 62
3 53 62 63
3 54 53 63
3 54 63 64
3 54 64 65
3 49 54 65
3 49 65 66
3 49 66 55
3 55 66 67
3 55 67 68
3 56 55 68
3 56 68 69
3 56 69 70
3 57 56 70
3 57 70 71
3 58 57 71
3 58 71 72
3 58 72 73
3 59 58 73
3 59 73 74
3 60 59 74
3 60 74 75
3 60 75 76
3 61 60 76
3 61 76 77
3 62 61 77
3 65 64 78
3 65 78 79
3 66 65 79
3 66 79 80
3 66 80 67
3 67 80 81
3 67 81 82
3 68 67 82
3 68 82 83
3 69 68 83
3 69 83 84
3 70 69 84
3 70 84 85
3 70 85 86
3 71 70 86
3 71 86 87
3 72 71 87
3 72 87 88
3 73 72 88
3 73 88 89
3 74 73 89
3 74 89 90
3 75 74 90
3 75 90 91
3 75 91 92
3 76 75 92
3 80 79 93
3 80 93 94
3 80 94 81
3 81 94 95
3 81 95 96
3 82 81 96
3 82 96 97
3 83 82 97
3 83 97 98
3 84 83 98
3 84 98 99
3 85 84 99
3 85 99 100
3 85 100 101
3 86 85 101
3 86 101 102
3 87 86 102
3 87 102 103
3 88 87 103
3 88 103 104
3 89 88 104
3 89 104 105
3 90 89 105
3 90 105 106
3 91 90 106
3 91 106 107
3 91 107 108
3 92 91 108
3 94 93 109
3 94 109 110
3 94 110 95
3 95 110 111
3 95 111 112
3 96 95 112
3 96 112 113
3 97 96 113
3 97 113 114
3 98 97 114
3 98 114 115
3 99 98 115
3 99 115 116
3 100 99 116
3 100 116 117
3 101 100 117
3 101 117 118
3 102 101 118
3 102 118 119
3 103 102 119
3 103 119 120
3 104 103 120
3 104 120 121
3 105 104 121
3 105 121 122
3 106 105 122
3 106 122 123
3 107 106 123
3 107 123 124
3 107 124 125
3 108 107 125
3 110 109 126
3 110 126 127
3 110 127 111
3 111 127 128
3 111 128 129
3 112 111 129
3 112 129 130
3 113 112 130
3 113 130 131
3 114 113 131
3 114 131 132
3 115 114 132
3 115 132 133
3 116 115 133
3 116 133 134
3 117 116 134
3 117 134 135
3 118 117 135
3 118 135 136
3 119 118 136
3 119 136 137
3 120 119 137
3 120 137 138
3 121 120 138
3 121 138 139
3 122 121 139
3 122 139 140
3 123 122 140
3 123 140 141
3 124 123 141
3 124 141 142
3 125 124 142
3 125 142 143
3 127 126 144
3 127 144 145
3 127 145 128
3 128 145 146
3 128 146 147
3 129 128 147
3 129 147 148
3 130 129 148
3 130 148 149
3 131 130 149
3 131 149 150
3 132 131 150
3 132 150 151
3 133 132 151
3 133 151 152
3 134 133 152
3 134 152 153
3 135 134 153
3 135 153 154
3 136 135 154
3 136 154 155
3 137 136 155
3 137 155 156
3 138 137 156
3 138 156 157
3 139 138 157
3 139 157 158
3 140 139 158
3 140 158 159
3 141 140 159
3 141 159 160
3 142 141 160
3 142 160 161
3 143 142 161
3 146 144 162
3 145 144 146
3 147 146 163
3 147 163 164
3 148 147 164
3 148 164 165
3 149 148 165
3 149 165 166
3 150 149 166
3 150 166 167
3 151 150 167
3 151 167 168
3 152 151 168
3 152 168 169
3 153 152 169
3 153 169 170
3 154 153 170
3 154 170 171
3 155 154 171
3 155 171 172
3 156 155 172
3 156 172 173
3 157 156 173
3 157 173 174
3 158 157 174
3 158 174 175
3 159 158 175
3 159 175 176
3 160 159 176
3 161 160 176
3 161 176 177
3 163 162 178
3 146 162 163
3 164 163 179
3 164 179 180
3 165 164 180
3 165 180 181
3 166 165 181
3 166 181 182
3 167 166 182
3 167 182 183
3 168 167 183
3 168 183 184
3 169 168 184
3 169 184 185
3 170 169 185
3 171 170 185
3 171 185 186
3 172 171 186
3 172 186 187
3 173 172 187
3 173 187 188
3 174 173 188
3 174 188 189
3 175 174 189
3 175 189 190
3 176 175 190
3 177 176 190
3 177 190 191
3 179 178 192
3 163 178 179
3 180 179 193
3 180 193 194
3 181 180 194
3 181 194 195
3 182 181 195
3 182 195 196
3 183 182 196
3 183 196 197
3 184 183 197
3 184 197 198
3 185 184 198
3 186 185 198
3 186 198 199
3 187 186 199
3 187 199 200
3 188 187 200
3 188 200 201
3 189 188 201
3 189 201 202
3 190 189 202
3 191 190 202
3 191 202 203
3 193 192 204
3 179 192 193
3 194 193 205
3 194 205 206
3 195 194 206
3 195 206 207
3 196 195 207
3 197 196 207
3 197 207 208
3 198 197 208
3 198 208 209
3 199 198 209
3 200 199 209
3 200 209 210
3 201 200 210
3 201 210 211
3 202 201 211
3 203 202 211
3 203 211 212
3 205 204 213
3 193 204 205
3 206 205 214
3 206 214 215
3 207 206 215
3 208 207 215
3 208 215 216
3 209 208 216
3 210 209 216
3 210 216 217
3 211 210 217
3 212 211 217
3 212 217 218
3 214 213 219
3 205 213 214
3 215 214 220
3 216 215 220
3 217 216 220
3 218 217 220
3 219 218 220
3 214 219 220
3 219 213 26
3 219 26 24
3 219 24 218
3 218 24 22
3 218 22 212
3 212 22 20
3 212 20 203
3 203 20 18
3 203 18 191
3 191 18 16
3 191 16 177
3 177 16 14
3 177 14 161
3 161 14 12
3 161 12 143
3 143 12 10
3 143 10 125
3 125 10 108
3 108 10 8
3 108 8 92
3 92 8 6
3 92 6 76
3 76 6 77
3 77 6 4
3 77 4 1
3 77 1 62
3 62 1 63
3 63 1 0
3 63 0 46
3 63 46 64
3 64 46 78
3 78 46 44
3 78 44 42
3 78 42 79
3 79 42 93
3 93 42 40
3 93 40 109
3 109 40 38
3 109 38 126
3 126 38 144
3 144 38 36
3 144 36 162
3 162 36 34
3 162 34 178
3 178 34 32
3 178 32 192
3 192 32 30
3 192 30 204
3 204 30 28
3 204 28 213
3 213 28 26
3 221 222 223
3 224 221 223
3 224 223 225
3 226 224 225
3 226 225 227
3 226 227 228
3 229 226 228
3 229 228 230
3 231 229 230
3 231 230 232
3 222 233 234
3 223 222 234
3 223 234 235
3 225 223 235
3 225 235 236
3 227 225 236
3 227 236 237
3 227 237 238
3 228 227 238
3 228 238 239
3 230 228 239
3 230 239 240
3 232 230 240
3 232 240 241
3 234 233 242
3 234 242 243
3 235 234 243
3 235 243 244
3 235 244 245
3 236 235 245
3 236 245 246
3 237 236 246
3 237 246 247
3 238 237 247
3 238 247 248
3 239 238 248
3 239 248 249
3 240 239 249
3 240 249 250
3 241 240 250
3 241 250 251
3 242 252 253
3 243 242 253
3 243 253 254
3 244 243 254
3 244 254 255
3 245 244 255
3 245 255 256
3 246 245 256
3 246 256 257
3 247 246 257
3 247 257 258
3 248 247 258
3 248 258 259
3 249 248 259
3 249 259 260
3 250 249 260
3 250 260 261
3 251 250 261
3 251 261 262
3 253 252 263
3 253 263 264
3 254 253 264
3 254 264 265
3 255 254 265
3 255 265 266
3 256 255 266
3 256 266 267
3 257 256 267
3 257 267 268
3 258 257 268
3 258 268 269
3 259 258 269
3 259 269 270
3 260 259 270
3 260 270 271
3 261 260 271
3 261 271 272
3 262 261 272
3 263 273 274
3 264 263 274
3 264 274 275
3 265 264 275
3 266 265 275
3 266 275 276
3 267 266 276
3 267 276 277
3 268 267 277
3 268 277 278
3 269 268 278
3 269 278 279
3 270 269 279
3 270 279 280
3 271 270 280
3 271 280 281
3 272 271 281
3 274 273 282
3 274 282 283
3 275 274 283
3 275 283 284
3 276 275 284
3 276 284 285
3 277 276 285
3 278 277 285
3 278 285 286
3 279 278 286
3 279 286 287
3 280 279 287
3 280 287 288
3 281 280 288
3 283 282 289
3 283 289 290
3 284 283 290
3 284 290 291
3 285 284 291
3 286 285 291
3 286 291 292
3 287 286 292
3 287 292 293
3 288 287 293
3 290 289 294
3 291 290 294
3 291 294 295
3 292 291 295
3 293 292 295
3 293 295 27
3 293 27 29
3 293 29 288
3 288 29 31
3 288 31 281
3 281 31 33
3 281 33 272
3 272 33 35
3 272 35 37
3 272 37 262
3 262 37 39
3 262 39 251
3 251 39 41
3 251 41 241
3 241 41 43
3 241 43 232
3 232 43 45
3 232 45 231
3 231 45 47
3 231 47 229
3 229 47 2
3 229 2 226
3 226 2 224
3 224 2 3
3 224 3 221
3 221 3 5
3 221 5 222
3 222 5 7
3 222 7 233
3 233 7 9
3 233 9 11
3 233 11 242
3 242 11 252
3 252 11 13
3 252 13 15
3 252 15 263
3 263 15 273
3 273 15 17
3 273 17 19
3 273 19 282
3 282 19 21
3 282 21 289
3 289 21 23
3 289 23 294
3 294 23 25
3 294 25 295
3 295 25 27

CELL_TYPES 588
5
5
5
5
5
5
5
5
5
5
5
5
5
5
5
5
5
5
5
5
5
5
5
5
5
5
5
5
5
5
5
5
5
5
5
5
5
5
5
5
5
5
5
5
5
5
5
5
5
5
5
5
5
5
5
5
5
5
5
5
5
5
5
5
5
5
5
5
5
5
5
5
5
5
5
5
5
5
5
5
5
5
5
5
5
5
5
5
5
5
5
5
5
5
5
5
5
5
5
5
5
5
5
5
5
5
5
5
5
5
5
5
5
5
5
5
5
5
5
5
5
5
5
5
5
5
5
5
5
5
5
5
5
5
5
5
5
5
5
5
5
5
5
5
5
5
5
5
5
5
5
5
5
5
5
5
5
5
5
5
5
5
5
5
5
5
5
5
5
5
5
5
5
5
5
5
5
5
5
5
5
5
5
5
5
5
5
5
5
5
5
5
5
5
5
5
5
5
5
5
5
5
5
5
5
5
5
5
5
5
5
5
5
5
5
5
5
5
5
5
5
5
5
5
5
5
5
5
5
5
5
5
5
5
5
5
5
5
5
5
5
5
5
5
5
5
5
5
5
5
5
5
5
5
5
5
5
5
5
5
5
5
5
5
5
5
5
5
5
5
5
5
5
5
5
5
5
5
5
5
5
5
5
5
5
5
5
5
5
5
5
5
5
5
5
5
5
5
5
5
5
5
5
5
5
5
5
5
5
5
5
5
5
5
5
5
5
5
5
5
5
5
5
5
5
5
5
5
5
5
5
5
5
5
5
5
5
5
5
5
5
5
5
5
5
5
5
5
5
5
5
5
5
5
5
5
5
5
5
5
5
5
5
5
5
5
5
5
5
5
5
5
5
5
5
5
5
5
5
5
5
5
5
5
5
5
5
5
5
5
5
5
5
5
5
5
5
5
5
5
5
5
5
5
5
5
5
5
5
5
5
5
5
5
5
5
5
5
5
5
5
5
5
5
5
5
5
5
5
5
5
5
5
5
5
5
5
5
5
5
5
5
5
5
5
5
5
5
5
5
5
5
5
5
5
5
5
5
5
5
5
5
5
5
5
5
5
5
5
5
5
5
5
5
5
5
5
5
5
5
5
5
5
5
5
5
5
5
5
5
5
5
5
5
5
5
5
5
5
5
5
5
5
5
5
5
5
5
5
5
5
5
5
5
5
5
5
5
5
5
5
5
5
5
5
5
5
5
5
5
5
5
5
5
5
5
5
5
5
5
5
5
5
5
5
5
5
5
5
5
5
5
5
5
5
5
5
5
5
5
5
5
5
5
5
5
5
5
5
5
5
5
5
5
5
5
5
5
5
5
5
5
5
5
5
5
5
5

CELL_DATA 588
SCALARS cell_data_0 double
LOOKUP_TABLE default
2.37204679616e-08
1.20284803964e-08
4.02029759849e-09
9.20953231746e-09
3.32321383691e-10
2.51691767214e-09
5.86720478233e-10
4.6454323699e-10
1.60114136221e-12
5.16166539393e-11
2.22066850024e-10
2.5232781218e-10
3.06676341415e-10
3.01455870196e-11
7.69387225341e-11
1.95586341772e-10
3.77666512807e-10
3.23631414921e-10
2.8220847543e-10
2.35840013341e-11
2.84221418015e-10
1.42892511356e-11
3.33943149007e-10
8.80568725118e-11
3.36776842346e-10
1.58971290662e-11
3.32642364137e-10
7.73949694463e-11
1.89006986246e-10
2.8771367782e-12
1.54401563515e-10
1.17107965855e-10
8.73619581268e-11
2.37376190951e-10
1.88397866892e-10
2.33973616442e-10
9.77066862927e-11
1.17524385676e-10
9.91189252663e-11
5.43882059346e-11
2.59491597286e-11
1.05265392333e-10
8.86588869803e-10
2.01719453668e-09
4.30091879696e-11
1.29591646628e-09
1.99819067732e-08
2.51945702024e-08
3.43069847639e-10
9.29261578577e-11
5.35783764935e-10
3.28831716973e-10
1.43742623094e-09
2.00626578018e-10
4.32983253864e-11
3.35607806934e-11
1.20889624881e-11
2.06982722507e-10
2.19599903985e-10
1.37824960694e-10
4.40525602975e-10
1.89745585126e-11
1.83864182821e-09
1.43107706169e-09
5.75516109018e-09
2.44800081152e-09
3.47504660225e-09
1.30941401905e-09
5.74968961455e-10
7.90610923146e-10
2.34545880364e-11
1.18872861991e-10
6.43969998751e-12
5.2786974612e-12
4.89075055428e-11
2.04734207995e-11
2.17553480771e-12
7.17937309743e-11
1.33290148353e-11
8.88860174092e-11
1.06980574071e-10
9.673682877e-11
7.72124677426e-12
6.69179517883e-11
5.03776281694e-10
8.7539673553e-10
6.58973128772e-10
3.53760309664e-09
4.12814255483e-09
8.20109507029e-09
4.71383020855e-11
1.52777295491e-10
7.53734492383e-11
1.99559571937e-11
5.95532873259e-12
4.3741676466e-12
1.30407419032e-11
3.46471964959e-12
1.9216187332e-12
1.29322982342e-11
8.76431658558e-12
3.0659564653e-11
6.17380247674e-12
4.66509908007e-12
3.1135208547e-11
1.36383411053e-11
3.06714022832e-12
2.81415431891e-12
8.04548198341e-12
3.11194408628e-11
7.5089297324e-12
1.51613591452e-10
4.79520351093e-10
2.04850200846e-10
8.21365785292e-12
1.15421908997e-09
6.14341028494e-11
5.3137468728e-11
1.49836778819e-11
7.91043813092e-12
1.7162827755e-11
3.69063879598e-12
1.39384340418e-12
2.82475017253e-12
5.10913742761e-12
3.20787253895e-12
5.90788416151e-12
1.83165722312e-11
1.06141598687e-11
2.29959002497e-12
1.0917173783e-11
4.0214592272e-12
2.27623148685e-12
3.55830797715e-12
1.28573285698e-11
4.0849416314e-11
4.65125971776e-12
6.95357343899e-11
5.1027892021e-11
1.54037289062e-10
4.71968989394e-11
1.37448614423e-10
2.35113061631e-10
2.41728112245e-10
1.14441222541e-10
1.76619587702e-11
3.12056297851e-11
9.69238783387e-12
1.89523586797e-11
7.37558715415e-12
4.49351545988e-12
4.36905811045e-13
5.26623783234e-12
6.01672565732e-12
4.64157431015e-12
9.76988057415e-13
1.51886462783e-12
1.36141345141e-12
5.62166736859e-12
7.88862272271e-12
3.9325305975e-12
8.25016222064e-12
6.79998109994e-12
2.87689230909e-12
1.43955970738e-11
1.39996631502e-11
2.6718661842e-11
1.38890717344e-11
3.36646518292e-11
2.42972698026e-11
4.79229598862e-11
1.04359614479e-12
3.11969152994e-11
1.62358045384e-11
6.85060822032e-11
4.19959986222e-11
9.29240175654e-12
2.79885977429e-11
1.30198891957e-11
1.35798947881e-11
4.23954066698e-12
8.10514436344e-12
4.56995113436e-12
4.20772892518e-12
3.81601895371e-13
1.91488765883e-12
2.44040722725e-12
1.52663643136e-13
2.8474597787e-12
6.5673441245e-14
2.91640496395e-12
1.65630856058e-12
6.40349393089e-13
1.88398924046e-12
1.23313459758e-13
8.04553119142e-12
2.90436899407e-12
5.27602822076e-12
7.10089007297e-12
1.13716469214e-11
1.7956453247e-11
2.79849858111e-12
1.1591519791e-11
3.8900880234e-12
2.44006914911e-12
7.99479957008e-11
1.38657676746e-10
1.73683609082e-10
1.78574734258e-11
4.28412760039e-12
1.03843330625e-11
6.11228906643e-12
1.94208337661e-12
1.66216315842e-11
1.89960434479e-11
5.69544634921e-12
8.99104645984e-12
4.39855382478e-12
7.6505048668e-12
9.48014156089e-13
5.47224673185e-13
2.42519511177e-12
6.66817219327e-13
6.52446292272e-13
2.48070318748e-12
2.10355031424e-12
4.52439932527e-12
1.55371761803e-12
5.08000339491e-13
4.01088567442e-12
7.56802206582e-12
2.78508892477e-12
7.68927637054e-12
3.36979642555e-12
1.3959095559e-11
7.3143674704e-13
1.09221073898e-11
6.88672769714e-12
2.06118464882e-11
4.70325470407e-11
1.73263918446e-10
2.43019049249e-10
5.54579543998e-12
7.78114726955e-12
3.20743898676e-11
1.02524864214e-11
1.08190301399e-11
3.5445111821e-12
1.16046539695e-11
9.40616149205e-13
7.71103660002e-12
8.47728195603e-14
2.79615974587e-12
1.55683377334e-12
8.0742320891e-13
1.20755151076e-12
2.69805662134e-12
7.08421781407e-13
1.17076734288e-12
6.65813023546e-13
3.88088933091e-13
7.67828478535e-13
3.4050936555e-12
1.61171401031e-12
8.00473871074e-12
9.33374678509e-13
1.14836107979e-11
1.81252653419e-13
8.51708333625e-12
1.3296745469e-11
2.9988155644e-11
1.65868138904e-11
6.36175350603e-11
6.79136467494e-11
2.75967918339e-11
4.35087606523e-11
5.56804965507e-12
4.91925589755e-13
3.68224491886e-12
8.49289160601e-12
1.75411672835e-13
3.88758983975e-12
2.4385783519e-12
6.09034034315e-12
2.94970027539e-12
1.66143808374e-12
4.57174502322e-12
4.98665840473e-12
4.66312245807e-12
1.54248361013e-12
5.6233150788e-12
2.46192629131e-12
5.92772707247e-12
6.65429218981e-13
8.43843420535e-12
4.47337173446e-12
1.88923134153e-14
4.79128379934e-12
4.83502661034e-11
4.38751813657e-11
1.19889034964e-10
9.98043221616e-11
3.85542182911e-11
5.05562094854e-11
6.27735639605e-12
5.91972303776e-12
3.52566863082e-12
5.51434200949e-12
1.1752521942e-12
4.7372678971e-12
2.49556051206e-12
2.07504604525e-12
4.37808458243e-13
1.51821328869e-12
3.36013168126e-12
8.30088012315e-13
4.75252910615e-12
1.33614963052e-12
5.98499760388e-12
3.71843629186e-12
6.20500811285e-12
8.2428818745e-12
5.74337162868e-11
2.093417141e-11
1.59988811548e-10
1.41568896222e-10
2.15957743754e-11
5.35906419059e-11
4.19306747215e-12
8.33362190325e-12
3.63019261078e-12
1.51348088986e-12
1.50531314181e-12
2.46142722065e-12
2.10935446623e-12
3.31082909459e-12
9.12397009054e-13
1.2128778702e-12
3.58378385713e-12
8.79621175682e-12
4.12804860777e-12
5.73102038526e-11
3.70839243315e-12
2.23601139918e-10
2.17847411182e-10
6.27452522285e-12
6.17481064387e-11
1.31112830589e-11
1.24560303852e-11
4.62641474849e-12
1.48061166131e-11
4.51342647982e-12
1.23382514054e-11
1.21229194775e-11
6.20776665674e-11
1.09320113413e-11
2.80109728528e-10
2.87673548599e-10
1.56005342448e-11
9.00552218786e-11
3.23698335434e-11
8.91089151597e-11
1.1132614611e-11
2.00132641521e-10
9.80510739239e-12
2.38046294819e-10
6.79688745038e-12
2.77395526553e-10
3.79927194354e-12
2.35349766358e-10
2.54770919994e-11
2.15405403304e-10
3.44342049288e-11
1.99322520732e-10
4.84748094171e-11
1.78836822963e-10
1.24501046614e-10
2.20282758183e-10
1.16245110837e-11
1.61694849544e-13
7.51946471013e-11
4.04570196355e-11
3.58592178591e-12
2.66211406073e-12
1.14061465499e-10
2.79906300193e-11
1.89341170529e-09
2.06670709538e-09
5.73959889684e-10
3.29097126297e-09
1.14909788081e-08
8.05034943389e-09
7.42540928808e-09
6.2678338698e-09
4.24867606863e-10
1.14416787441e-09
1.32411378833e-10
3.18957240945e-10
4.18490545427e-11
4.14064881345e-11
1.91220427782e-12
1.36951298783e-10
2.67605294385e-12
1.47708747355e-11
2.15182823911e-11
6.88600927316e-11
2.10804280966e-11
1.02277906835e-10
1.81228839821e-10
8.70779588886e-11
1.61892191529e-10
4.66310673838e-11
1.72447661952e-10
4.9234437438e-12
1.94483175259e-10
4.0640389361e-11
7.63979050251e-09
1.00840471566e-09
1.00721914769e-08
1.14162115426e-08
6.80144774408e-09
1.09519006591e-09
2.43302462472e-09
4.90217289647e-09
3.37147941603e-09
1.09201173813e-08
6.62685448995e-09
6.60774924377e-09
1.07042297773e-10
1.07381888955e-08
4.0448838128e-09
3.26451011976e-09
1.25940688511e-08
1.24006421061e-08
9.87269305598e-09
5.52359721807e-10
4.02048734555e-09
1.46951078814e-10
2.39847104016e-10
8.04358376657e-10
4.29154794538e-11
6.4352603548e-11
5.72734073927e-10
4.03637985584e-10
4.32135097416e-10
2.08368770655e-09
6.6723921339e-10
8.99786715703e-10
4.24330602019e-10
7.83162835528e-10
5.3705835114e-10
1.81247186803e-09
3.81489785711e-10
6.67508149624e-10
3.9385677105e-11
1.06130941222e-11
5.68268350346e-12
2.74471910207e-10
7.5993893702e-11
5.41170934619e-11
2.47053592151e-10
3.09551847772e-11
1.56714280563e-10
2.36465161909e-11
3.73323694322e-11
4.77431033798e-11
5.37042752246e-12
6.99642792723e-11
7.98332317859e-11
3.06958515602e-11
1.88325319202e-10
5.82811617674e-11
6.78759681424e-11
3.00319237176e-12
7.14395713843e-11
4.87562572016e-11
1.90613397191e-10
2.91111176667e-11
3.50650556554e-10
2.39487161944e-11
2.46704178302e-10
2.05734866759e-11
2.08527907287e-10
7.08599599726e-11
1.23213925692e-10
9.28402216326e-12
1.28736948979e-10
4.21126818974e-11
2.85290028178e-10
3.37560998309e-11
1.84961165199e-10
4.678039095e-11
3.67977474345e-11
9.03206112501e-12
1.18851288411e-11
1.23991436587e-10
1.18394105195e-11
1.73911122183e-10
2.2360049207e-10
2.12753354357e-10
3.62959556489e-11
7.55587720848e-12
1.42568321756e-11
9.22211543356e-11
7.59269183958e-12
2.91213266672e-11
5.24493127855e-11
2.192896313e-10
4.22341599661e-11
1.08881128931e-11
1.45637186943e-10
1.05987461058e-10
2.39128905933e-10
3.76440127837e-10
3.96092604194e-10
3.41087960598e-11
5.23739965903e-11
7.55796786308e-11
8.07459587373e-11
1.84204033625e-12
1.00863812753e-10
9.55036701018e-12
1.43023703131e-11
3.76775335791e-10
2.53270230813e-10
3.08081035599e-11
1.42214657261e-10
1.19278639486e-10
2.27436911768e-10
1.77117881517e-10
4.01199076428e-11
1.52396862117e-10
1.25977711809e-10
1.95992497117e-10
2.00684666405e-10
1.51007679966e-10
7.79269134285e-11
2.14494966088e-10
4.30203483412e-11
2.38648243891e-10
5.39347380446e-11
2.65587782075e-10
2.35715835084e-11
2.9596334964e-10
2.77928001683e-11
1.78847936882e-10
1.02431092063e-10
5.0838456682e-11
5.46071741805e-11
2.8644747439e-11
9.04924878093e-11
4.88246816465e-11
8.59868356704e-11
4.94853336635e-11
3.23315031121e-12
1.16722446365e-10
4.5661581553e-10
6.19494537561e-10
4.60586139585e-09
6.89197621685e-09
1.51592074126e-11
1.27255238261e-08
6.04908944967e-09
5.70528474422e-09
7.27442223229e-09
2.77317516225e-09
4.36120716474e-09
4.99205465335e-09
4.03825506391e-09
4.16589117705e-09
2.58664847977e-10
4.04439107352e-11
9.17065317497e-11
1.74841618424e-10
7.81261854281e-11
6.56230489252e-11
5.30466295381e-12
1.45927329258e-10
5.79977500369e-11
1.28087974672e-10
7.43015269452e-11
1.25259097604e-11
2.2786962701e-10
1.54945520068e-11
2.4420599419e-10
1.54948632925e-10
4.03309114485e-11
1.38197657068e-10

