# vtk DataFile Version 3.0
File Name: Molecule/methanol/methanol_9.0-0.vtk
ASCII
DATASET UNSTRUCTURED_GRID
FIELD FieldData 1
TIME 1 1 double
0.0
POINTS 410 double
1.611 0.0 -0.359
1.569 -0.375 -0.355
1.403 0.0 -0.933
1.365 -0.341 -0.929
1.445 -0.731 -0.342
1.252 -0.666 -0.918
1.245 -1.05 -0.322
1.07 -0.957 -0.9
0.98 -1.317 -0.296
0.828 -1.2 -0.876
0.662 -1.518 -0.264
0.538 -1.382 -0.847
0.308 -1.642 -0.229
0.216 -1.496 -0.815
-0.065 -1.684 -0.192
-0.124 -1.534 -0.781
-0.438 -1.642 -0.155
-0.464 -1.496 -0.747
-0.793 -1.518 -0.119
-0.787 -1.382 -0.715
-1.11 -1.317 -0.088
-1.076 -1.2 -0.686
-1.376 -1.05 -0.061
-1.318 -0.957 -0.662
-1.576 -0.731 -0.042
-1.5 -0.666 -0.644
-1.7 -0.375 -0.029
-1.613 -0.341 -0.633
-1.742 0.0 -0.025
-1.651 0.0 -0.629
-1.7 0.375 -0.029
-1.613 0.341 -0.633
-1.576 0.731 -0.042
-1.5 0.666 -0.644
-1.376 1.05 -0.061
-1.318 0.957 -0.662
-1.11 1.317 -0.088
-1.076 1.2 -0.686
-0.793 1.518 -0.119
-0.787 1.382 -0.715
-0.438 1.642 -0.155
-0.464 1.496 -0.747
-0.065 1.684 -0.192
-0.124 1.534 -0.781
0.308 1.642 -0.229
0.216 1.496 -0.815
0.662 1.518 -0.264
0.538 1.382 -0.847
0.98 1.317 -0.296
0.828 1.2 -0.876
1.245 1.05 -0.322
1.07 0.957 -0.9
1.445 0.731 -0.342
1.252 0.666 -0.918
1.569 0.375 -0.355
1.365 0.341 -0.929
1.907 0.0 0.656
1.874 0.347 0.656
1.874 0.173 0.956
1.874 -0.173 0.956
1.874 -0.347 0.656
1.874 -0.173 0.355
1.874 0.173 0.355
1.779 0.59 0.997
1.779 0.341 1.246
1.779 -0.0 1.337
1.779 -0.341 1.246
1.779 -0.59 0.997
1.779 -0.682 0.656
1.779 -0.59 0.315
1.779 -0.341 0.065
1.779 -0.0 -0.026
1.779 0.341 0.065
1.779 0.59 0.315
1.779 0.682 0.656
1.624 0.934 0.995
1.624 0.761 1.294
1.624 0.497 1.516
1.624 0.173 1.634
1.624 -0.173 1.634
1.624 -0.497 1.516
1.624 -0.761 1.294
1.624 -0.934 0.995
1.624 -0.994 0.656
1.624 -0.934 0.316
1.624 -0.761 0.017
1.624 0.761 0.017
1.624 0.934 0.316
1.624 0.994 0.656
1.414 1.224 0.999
1.414 1.086 1.316
1.414 0.868 1.585
1.414 0.585 1.785
1.414 0.259 1.901
1.414 -0.087 1.924
1.414 -0.426 1.854
1.414 -0.733 1.694
1.414 -0.986 1.458
1.414 -1.166 1.162
1.414 -1.26 0.829
1.414 -1.26 0.482
1.414 -1.166 0.149
1.414 -0.986 -0.147
1.414 1.086 -0.005
1.414 1.224 0.313
1.414 1.272 0.656
1.156 1.466 1.003
1.156 1.346 1.332
1.156 1.154 1.624
1.156 0.899 1.864
1.156 0.597 2.039
1.156 0.262 2.139
1.156 -0.088 2.159
1.156 -0.432 2.099
1.156 -0.753 1.96
1.156 -1.034 1.751
1.156 -1.258 1.483
1.156 -1.415 1.171
1.156 -1.496 0.83
1.156 -1.496 0.481
1.156 -1.415 0.14
1.156 1.346 -0.02
1.156 1.466 0.308
1.156 1.506 0.656
0.86 1.655 0.996
0.86 1.553 1.322
0.86 1.387 1.621
0.86 1.164 1.88
0.86 0.894 2.089
0.86 0.587 2.24
0.86 0.256 2.326
0.86 -0.086 2.343
0.86 -0.424 2.291
0.86 -0.744 2.173
0.86 -1.034 1.992
0.86 -1.282 1.756
0.86 -1.477 1.476
0.86 -1.612 1.161
0.86 -1.681 0.827
0.86 -1.681 0.485
0.86 -1.612 0.15
0.86 1.553 -0.011
0.86 1.655 0.315
0.86 1.69 0.656
0.536 1.783 0.999
0.536 1.685 1.33
0.536 1.527 1.637
0.536 1.314 1.908
0.536 1.053 2.134
0.536 0.754 2.307
0.536 0.428 2.42
0.536 0.086 2.469
0.536 -0.258 2.453
0.536 -0.594 2.371
0.536 -0.908 2.228
0.536 -1.189 2.028
0.536 -1.427 1.778
0.536 -1.614 1.487
0.536 -1.742 1.167
0.536 -1.807 0.828
0.536 -1.807 0.483
0.536 -1.742 0.144
0.536 1.685 -0.019
0.536 1.783 0.312
0.536 1.815 0.656
0.193 1.847 1.001
0.193 1.753 1.335
0.193 1.598 1.645
0.193 1.389 1.922
0.193 1.133 2.155
0.193 0.838 2.338
0.193 0.514 2.463
0.193 0.173 2.527
0.193 -0.173 2.527
0.193 -0.514 2.463
0.193 -0.838 2.338
0.193 -1.133 2.155
0.193 -1.389 1.922
0.193 -1.598 1.645
0.193 -1.753 1.335
0.193 -1.847 1.001
0.193 -1.879 0.656
0.193 -1.847 0.31
0.193 -1.753 -0.023
0.193 1.753 -0.023
0.193 1.847 0.31
0.193 1.879 0.656
-0.155 1.847 1.001
-0.155 1.753 1.335
-0.155 1.598 1.645
-0.155 1.389 1.922
-0.155 1.133 2.155
-0.155 0.838 2.338
-0.155 0.514 2.463
-0.155 0.173 2.527
-0.155 -0.173 2.527
-0.155 -0.514 2.463
-0.155 -0.838 2.338
-0.155 -1.133 2.155
-0.155 -1.389 1.922
-0.155 -1.598 1.645
-0.155 -1.753 1.335
-0.155 -1.847 1.001
-0.155 -1.879 0.656
-0.155 -1.847 0.31
-0.155 1.847 0.31
-0.155 1.879 0.656
-0.498 1.815 0.656
-0.498 1.783 0.999
-0.498 1.685 1.33
-0.498 1.527 1.637
-0.498 1.314 1.908
-0.498 1.053 2.134
-0.498 0.754 2.307
-0.498 0.428 2.42
-0.498 0.086 2.469
-0.498 -0.258 2.453
-0.498 -0.594 2.371
-0.498 -0.908 2.228
-0.498 -1.189 2.028
-0.498 -1.427 1.778
-0.498 -1.614 1.487
-0.498 -1.742 1.167
-0.498 -1.807 0.828
-0.498 -1.807 0.483
-0.498 -1.742 0.144
-0.498 1.783 0.312
-0.822 1.69 0.656
-0.822 1.655 0.996
-0.822 1.553 1.322
-0.822 1.387 1.621
-0.822 1.164 1.88
-0.822 0.894 2.089
-0.822 0.587 2.24
-0.822 0.256 2.326
-0.822 -0.086 2.343
-0.822 -0.424 2.291
-0.822 -0.744 2.173
-0.822 -1.034 1.992
-0.822 -1.282 1.756
-0.822 -1.477 1.476
-0.822 -1.612 1.161
-0.822 -1.681 0.827
-0.822 -1.681 0.485
-0.822 -1.612 0.15
-0.822 1.655 0.315
-1.118 1.506 0.656
-1.118 1.466 1.003
-1.118 1.346 1.332
-1.118 1.154 1.624
-1.118 0.899 1.864
-1.118 0.597 2.039
-1.118 0.262 2.139
-1.118 -0.088 2.159
-1.118 -0.432 2.099
-1.118 -0.753 1.96
-1.118 -1.034 1.751
-1.118 -1.258 1.483
-1.118 -1.415 1.171
-1.118 -1.496 0.83
-1.118 -1.496 0.481
-1.118 -1.415 0.14
-1.118 1.466 0.308
-1.376 1.272 0.656
-1.376 1.224 0.999
-1.376 1.086 1.316
-1.376 0.868 1.585
-1.376 0.585 1.785
-1.376 0.259 1.901
-1.376 -0.087 1.924
-1.376 -0.426 1.854
-1.376 -0.733 1.694
-1.376 -0.986 1.458
-1.376 -1.166 1.162
-1.376 -1.26 0.829
-1.376 -1.26 0.482
-1.376 -1.166 0.149
-1.376 1.224 0.313
-1.586 0.994 0.656
-1.586 0.934 0.995
-1.586 0.761 1.294
-1.586 0.497 1.516
-1.586 0.173 1.634
-1.586 -0.173 1.634
-1.586 -0.497 1.516
-1.586 -0.761 1.294
-1.586 -0.934 0.995
-1.586 -0.994 0.656
-1.586 -0.934 0.316
-1.586 0.934 0.316
-1.741 0.682 0.656
-1.741 0.59 0.997
-1.741 0.341 1.246
-1.741 -0.0 1.337
-1.741 -0.341 1.246
-1.741 -0.59 0.997
-1.741 -0.682 0.656
-1.741 -0.59 0.315
-1.741 0.59 0.315
-1.836 0.347 0.656
-1.836 0.173 0.956
-1.836 -0.173 0.956
-1.836 -0.347 0.656
-1.836 -0.173 0.355
-1.836 0.173 0.355
-1.868 -0.0 0.656
1.263 -0.333 -1.314
1.08 -0.577 -1.501
1.08 -0.262 -1.658
1.263 -0.0 -1.403
1.08 0.088 -1.69
1.263 0.333 -1.314
1.08 0.427 -1.594
1.08 0.707 -1.382
1.08 -0.814 -1.241
0.837 -1.081 -1.258
0.837 -0.88 -1.553
0.837 -0.6 -1.777
0.837 -0.267 -1.907
0.837 0.09 -1.934
0.837 0.438 -1.854
0.837 0.748 -1.675
0.837 0.992 -1.413
1.08 0.892 -1.083
0.837 1.147 -1.091
0.546 -1.286 -1.246
0.546 -1.119 -1.55
0.546 -0.882 -1.803
0.546 -0.589 -1.989
0.546 -0.259 -2.096
0.546 0.087 -2.117
0.546 0.427 -2.052
0.546 0.741 -1.905
0.546 1.008 -1.684
0.546 1.212 -1.403
0.546 1.34 -1.081
0.222 -1.406 -1.249
0.222 -1.25 -1.56
0.222 -1.027 -1.826
0.222 -0.748 -2.033
0.222 -0.429 -2.171
0.222 -0.087 -2.231
0.222 0.26 -2.211
0.222 0.593 -2.111
0.222 0.894 -1.938
0.222 1.146 -1.699
0.222 1.337 -1.409
0.222 1.456 -1.082
-0.12 -1.497 -1.079
-0.12 -1.383 -1.403
-0.12 -1.2 -1.694
-0.12 -0.957 -1.937
-0.12 -0.666 -2.12
-0.12 -0.342 -2.234
-0.12 0.0 -2.272
-0.12 0.342 -2.234
-0.12 0.666 -2.12
-0.12 0.957 -1.937
-0.12 1.2 -1.694
-0.12 1.383 -1.403
-0.12 1.497 -1.079
-0.461 -1.406 -1.249
-0.461 -1.25 -1.56
-0.461 -1.027 -1.826
-0.461 -0.748 -2.033
-0.461 -0.429 -2.171
-0.461 -0.087 -2.231
-0.461 0.26 -2.211
-0.461 0.593 -2.111
-0.461 0.894 -1.938
-0.461 1.146 -1.699
-0.461 1.337 -1.409
-0.461 1.456 -1.082
-0.786 -1.372 -0.911
-0.786 -1.286 -1.246
-0.786 -1.119 -1.55
-0.786 -0.882 -1.803
-0.786 -0.589 -1.989
-0.786 -0.259 -2.096
-0.786 0.087 -2.117
-0.786 0.427 -2.052
-0.786 0.741 -1.905
-0.786 1.008 -1.684
-0.786 1.212 -1.403
-0.786 1.34 -1.081
-1.077 -1.187 -0.916
-1.077 -1.081 -1.258
-1.077 -0.88 -1.553
-1.077 -0.6 -1.777
-1.077 -0.267 -1.907
-1.077 0.09 -1.934
-1.077 0.438 -1.854
-1.077 0.748 -1.675
-1.077 0.992 -1.413
-1.077 1.147 -1.091
-1.32 -0.941 -0.913
-1.32 -0.814 -1.241
-1.32 -0.577 -1.501
-1.32 -0.262 -1.658
-1.32 0.088 -1.69
-1.32 0.427 -1.594
-1.32 0.707 -1.382
-1.32 0.892 -1.083
-1.503 -0.577 -1.07
-1.503 -0.333 -1.314
-1.503 -0.0 -1.403
-1.503 0.333 -1.314
-1.503 0.577 -1.07
-1.616 -0.171 -1.033
-1.616 0.171 -1.033

CELLS 816 3264
3 0 1 2
3 2 1 3
3 1 4 3
3 3 4 5
3 4 6 5
3 5 6 7
3 6 8 7
3 7 8 9
3 8 10 9
3 9 10 11
3 10 12 11
3 11 12 13
3 12 14 13
3 13 14 15
3 14 16 15
3 15 16 17
3 16 18 17
3 17 18 19
3 18 20 19
3 19 20 21
3 20 22 21
3 21 22 23
3 22 24 23
3 23 24 25
3 24 26 25
3 25 26 27
3 26 28 27
3 27 28 29
3 28 30 29
3 29 30 31
3 30 32 31
3 31 32 33
3 32 34 33
3 33 34 35
3 34 36 35
3 35 36 37
3 36 38 37
3 37 38 39
3 38 40 39
3 39 40 41
3 40 42 41
3 41 42 43
3 42 44 43
3 43 44 45
3 44 46 45
3 45 46 47
3 46 48 47
3 47 48 49
3 48 50 49
3 49 50 51
3 50 52 51
3 51 52 53
3 52 54 53
3 53 54 55
3 54 0 55
3 55 0 2
3 56 57 58
3 56 58 59
3 56 59 60
3 56 60 61
3 56 61 62
3 56 62 57
3 58 57 63
3 58 63 64
3 58 64 65
3 59 58 65
3 59 65 66
3 59 66 67
3 60 59 67
3 60 67 68
3 60 68 69
3 61 60 69
3 61 69 70
3 61 70 71
3 62 61 71
3 62 71 72
3 62 72 73
3 57 62 73
3 57 73 74
3 57 74 63
3 63 74 75
3 63 75 76
3 64 63 76
3 64 76 77
3 64 77 78
3 65 64 78
3 65 78 79
3 66 65 79
3 66 79 80
3 66 80 81
3 67 66 81
3 67 81 82
3 68 67 82
3 68 82 83
3 68 83 84
3 69 68 84
3 69 84 85
3 70 69 85
3 73 72 86
3 73 86 87
3 74 73 87
3 74 87 88
3 74 88 75
3 75 88 89
3 75 89 90
3 76 75 90
3 76 90 91
3 77 76 91
3 77 91 92
3 78 77 92
3 78 92 93
3 78 93 94
3 79 78 94
3 79 94 95
3 80 79 95
3 80 95 96
3 81 80 96
3 81 96 97
3 81 97 98
3 82 81 98
3 82 98 99
3 83 82 99
3 83 99 100
3 84 83 100
3 84 100 101
3 85 84 101
3 85 101 102
3 87 86 103
3 87 103 104
3 88 87 104
3 88 104 105
3 88 105 89
3 89 105 106
3 89 106 107
3 90 89 107
3 90 107 108
3 91 90 108
3 91 108 109
3 92 91 109
3 92 109 110
3 93 92 110
3 93 110 111
3 94 93 111
3 94 111 112
3 94 112 113
3 95 94 113
3 95 113 114
3 96 95 114
3 96 114 115
3 97 96 115
3 97 115 116
3 98 97 116
3 98 116 117
3 99 98 117
3 99 117 118
3 99 118 119
3 100 99 119
3 100 119 120
3 101 100 120
3 104 103 121
3 104 121 122
3 105 104 122
3 105 122 123
3 105 123 106
3 106 123 124
3 106 124 125
3 107 106 125
3 107 125 126
3 108 107 126
3 108 126 127
3 109 108 127
3 109 127 128
3 110 109 128
3 110 128 129
3 111 110 129
3 111 129 130
[...]
CELL_DATA 816
SCALARS cell_data_0 double
LOOKUP_TABLE default
1.02718473355e-08
1.05224548927e-08
1.00955292695e-08
1.09996397266e-08
2.17859146054e-09
2.44299087992e-09
4.52395199848e-10
5.17934519535e-10
1.92514491533e-10
1.2249000996e-10
3.83620867021e-12
9.90030411123e-11
2.65725789913e-10
1.59934406718e-10
2.57166006165e-10
1.14702457611e-10
1.84219141014e-10
4.54332483187e-11
4.00852768251e-10
2.32428147075e-10
5.62035676629e-10
1.74490697451e-10
2.70575908868e-10
1.2054056011e-10
3.14421948249e-10
2.36450279763e-10
3.18130437416e-10
1.20320062546e-10
2.99357419822e-10
1.53001609097e-10
2.8739643482e-10
1.20299225977e-10
1.85085022356e-10
8.61350067598e-11
2.06831223185e-10
1.84928940151e-10
3.01451236807e-10
4.58889743476e-10
4.23597650129e-10
3.26073456681e-10
1.16392920771e-10
7.04405490096e-11
1.76717291564e-10
8.40973229625e-11
7.62883929706e-11
3.41076952772e-12
1.5150244803e-11
6.71542721419e-11
5.35796781729e-11
4.2692520954e-10
9.02412043386e-10
2.50280349962e-09
7.39188286793e-10
2.769865686e-09
1.13010010936e-08
1.20028236259e-08
2.07554284159e-10
7.85671774732e-11
3.06074552527e-10
2.22469148837e-10
8.36850877911e-10
1.24488383956e-10
1.82767802204e-12
2.47456600564e-11
1.32630179063e-12
1.26941512421e-10
1.18145092576e-10
7.82279475709e-11
2.04761991377e-10
4.50107317065e-11
5.56730742114e-10
5.8451333315e-11
1.96364198159e-09
7.15026044588e-10
2.10830667004e-09
8.13058827705e-10
3.1070798189e-10
5.01191654673e-10
6.74630596425e-12
5.81038046741e-11
5.36590198551e-12
1.05019478698e-12
2.79712197402e-11
1.78693369138e-11
1.47390031497e-12
3.48450507889e-11
3.13992772613e-13
4.55589031596e-11
4.80894265122e-11
7.46115280913e-11
3.25251759464e-11
8.28298378685e-11
9.98359944427e-11
4.01831272878e-10
7.38838983345e-11
1.07524991535e-09
1.45232349743e-09
3.33907542523e-09
2.74736890802e-11
1.1425768788e-10
1.42105495365e-11
3.15148733619e-11
9.40474778347e-13
3.93287141505e-12
4.42005233215e-12
3.61052518215e-12
1.42025714498e-12
1.57399167525e-12
1.39807540085e-12
1.64165000126e-11
9.33912445841e-12
7.23000842911e-12
2.22293283179e-11
1.19367333801e-11
1.95481730754e-12
8.01263384434e-12
2.52281316396e-11
3.92922947445e-11
1.59993085345e-11
3.78166170073e-11
7.1916037411e-11
1.6243588115e-10
4.1629379058e-10
5.9130119222e-11
1.32725800646e-09
1.99500162958e-09
1.28091258656e-09
5.35456031519e-11
3.24322003969e-11
1.90000591139e-11
1.58333753644e-11
9.49774916421e-12
6.05804238638e-12
1.93252484892e-12
1.92562717246e-12
4.27478465307e-12
2.22030443953e-12
1.64871270659e-12
2.12367872488e-12
1.03861967957e-12
2.28318518392e-12
4.83586431831e-12
1.16865911397e-11
5.18584309976e-12
5.53900571459e-13
1.38843002995e-12
5.91452440362e-12
1.03221963583e-11
2.58430715228e-12
1.81963103164e-13
2.3763097096e-11
9.97415533618e-12
4.37470334148e-11
7.54931382263e-11
6.78039086911e-11
1.04312884014e-10
6.19604788696e-11
6.8324276433e-11
6.82631005507e-10
2.73443101924e-12
2.97754424638e-12
1.61546497284e-12
1.90509523763e-12
1.20946062745e-11
1.62418070404e-12
1.60315844129e-12
1.13663802272e-12
3.04943570075e-12
2.52174244869e-12
1.79103659094e-12
3.25666792905e-12
1.31717830426e-12
2.9178633136e-12
1.30876223646e-12
3.11093402107e-12
6.36457452837e-12
1.96674499108e-12
3.65333089894e-12
3.46124870603e-12
3.5101260506e-12
7.30284418842e-13
9.21140957803e-13
4.23394767762e-12
2.07697577832e-12
9.82761016444e-12
1.35718111209e-11
3.19965730596e-11
8.39383805631e-12
4.74231952651e-11
4.38878419882e-11
1.18021681014e-10
9.6046031123e-11
1.06048052895e-10
1.71090561891e-10
2.02446758679e-10
8.98491338084e-12
2.44774476441e-12
3.74955310637e-12
1.04308236598e-11
7.99386390538e-12
9.74582738431e-14
4.84169256454e-12
2.65580225703e-13
1.78287809235e-12
1.82672743762e-12
1.55315215853e-13
7.8002543547e-13
1.52718390195e-12
8.31870157949e-13
3.06855313264e-12
2.16239433583e-12
5.25128999802e-12
1.11858282673e-12
3.35465971748e-12
1.45607080538e-12
4.67053584278e-12
1.97688768626e-12
3.64096723391e-12
1.04406997339e-12
2.18668068316e-12
3.83257095408e-12
8.86146699619e-12
2.44992753595e-12
7.84592794342e-12
5.10336329445e-12
1.83014561872e-11
2.82133175986e-12
5.21907652016e-12
2.61329472593e-11
3.59698008148e-11
1.45030989123e-11
3.26912586023e-14
6.21800280584e-13
1.57795318481e-11
1.13561589215e-11
9.27760221976e-12
1.58082152836e-11
9.54548456411e-12
9.94760358014e-12
4.51357952452e-13
4.54034121783e-12
2.13629122135e-12
4.41602820917e-12
1.42883336357e-12
1.6738785244e-13
1.54672043675e-12
2.70820074607e-12
2.07110510016e-12
2.71380033617e-13
1.36658722436e-12
5.96572906819e-13
4.18731357699e-12
1.27910689194e-12
4.56315842691e-12
1.54224146096e-12
3.56014726938e-12
6.94797802257e-13
3.44603854202e-12
1.50534986953e-12
2.80177422805e-12
1.81378009438e-12
2.67573482791e-12
2.58955480869e-12
2.66977404207e-12
1.60953460989e-12
2.28861078819e-12
1.50632407599e-12
6.40501606818e-12
7.15165635978e-12
1.8290485335e-12
6.50053590385e-12
7.58421255356e-12
5.95187851987e-11
1.11975924683e-10
1.96945468145e-10
5.31166428357e-12
5.80589200681e-12
5.98884638925e-12
1.33803365165e-11
8.47329633637e-12
1.34283336038e-11
1.05769781332e-12
9.5976874314e-12
2.30810083044e-12
5.59231224939e-12
2.64957118126e-12
2.93065216202e-12
3.87689390479e-12
7.78156314918e-15
1.87054498389e-12
1.48005854728e-12
4.80525314727e-12
5.57867905756e-12
3.35292253522e-12
3.07301258543e-12
3.42967167306e-12
2.36863758792e-12
3.99092796866e-12
2.91942829522e-12
3.62906712581e-12
1.92519210265e-12
2.52334157574e-12
3.58715492843e-12
2.18154159914e-12
3.74258867172e-13
1.6752844054e-12
2.82772755482e-12
1.65364823132e-12
7.75949411244e-13
1.99546040133e-12
3.93482274786e-12
6.11038870413e-12
1.66720560063e-11
1.17350827127e-11
7.88340409954e-11
1.80207624517e-11
8.27567558407e-12
1.36221711096e-13
2.37552181524e-12
2.14548341626e-12
3.43214520936e-12
1.16900986811e-11
1.38919459567e-11
3.27040355106e-12
6.16036323222e-12
6.19802704747e-12
4.33976234198e-12
1.55297413754e-12
6.39712417166e-13
3.22198683601e-12
1.16210035491e-12
3.99758495761e-13
1.39549721486e-12
2.16897364704e-12
1.74133787696e-12
1.44112598391e-12
1.65714323608e-12
1.77721960853e-12
2.00803833402e-12
8.09917340596e-13
2.66866323264e-12
6.25580885525e-13
1.76769506267e-12
1.06398703745e-12
5.05146519444e-12
5.74954425784e-13
2.68136070698e-12
3.2754281555e-12
4.77410915483e-12
4.41122266748e-12
9.32228565724e-13
1.29838515891e-11
1.85278065683e-11
1.24793361817e-11
4.53025089584e-11
1.33514166505e-11
2.48216057209e-11
4.25526794571e-11
6.07119458865e-12
4.76861477102e-12
3.42405245142e-12
9.22459276073e-12
4.91824842875e-13
5.86657459196e-12
1.43671093447e-15
4.56481156975e-12
9.77534122218e-13
5.54307563379e-13
1.08813370431e-12
3.30276463492e-12
9.96057381387e-13
2.54316580092e-12
7.08571847084e-13
2.65921663859e-12
1.36947347939e-12
3.8148597171e-12
1.84041040864e-12
3.26664609422e-12
2.86084337196e-13
1.24873324514e-12
3.26621723869e-13
3.84494119847e-12
1.47496893248e-13
2.10840055415e-12
1.59017838086e-12
4.85577293561e-12
2.80012274339e-12
4.45194951799e-12
3.85306606157e-12
4.85607093122e-11
1.73732333143e-11
1.43329937915e-10
1.06037202032e-10
1.61931430819e-11
4.75343246016e-11
8.54719673193e-12
3.67959573804e-12
3.36323766698e-12
6.29121647704e-12
2.33178782978e-13
5.46340436333e-12
2.25237169221e-13
3.16533282969e-12
3.86554770076e-14
2.04590878962e-12
1.84105884445e-13
9.33798492529e-13
1.96138516303e-12
3.68467846034e-12
2.85817763574e-12
2.21589789186e-12
1.3071620288e-13
4.50412630503e-13
1.98384677481e-12
1.91723113923e-12
2.04497342264e-12
7.32731753532e-13
3.55194515703e-12
6.15262844826e-14
1.63290342677e-12
4.49348146691e-12
8.89215989565e-12
8.19630410409e-12
2.68755802487e-11
2.05496930136e-11
1.88942858837e-10
1.0598549748e-10
3.81613510554e-11
7.45739861553e-11
1.47579476901e-11
1.09585579088e-11
4.23605113894e-12
4.05529621362e-12
1.18019892527e-12
4.78956382368e-12
6.74512735218e-13
3.6817858177e-12
4.72274700426e-13
1.86591335228e-12
4.39829862786e-13
2.89993384507e-13
1.22659481213e-12
3.61826724376e-12
2.51667238094e-12
1.31625191204e-12
1.90815780066e-12
1.52616247411e-12
2.35729902438e-12
1.53798757619e-12
3.54033956168e-13
5.29132813617e-12
1.89881600748e-11
2.68531304267e-11
7.01685985082e-11
5.7393791574e-12
2.50365492572e-10
1.07217392816e-10
3.89582844985e-11
8.573306291e-11
6.1876494736e-12
1.58513114546e-11
3.30548493161e-12
1.22432655898e-12
1.71681976453e-12
3.88435753854e-12
1.95820055117e-12
5.70054324699e-13
8.55998027732e-13
1.37391790113e-12
1.28745965353e-12
3.36369141991e-12
2.83270421097e-12
1.16663213669e-12
6.58966843658e-13
1.1183898372e-12
1.33614840841e-12
1.36125873764e-11
4.29560958036e-12
7.73453074569e-11
6.68501553893e-11
1.8799454782e-10
1.04918856454e-10
7.65044886664e-11
8.12132198191e-11
5.16330390053e-12
1.78001665884e-11
4.1272307326e-12
1.31438037357e-12
1.17017488022e-12
2.5824151588e-13
3.33018442055e-13
5.45297707123e-13
1.41671656564e-12
1.36137745456e-12
5.74485929135e-12
1.42004370663e-11
1.85642543628e-11
7.27927412019e-11
4.43092960686e-11
1.2646614775e-10
1.41112535124e-10
5.83007648358e-11
8.69822675599e-11
1.11770403016e-11
2.28776668718e-11
5.48738119443e-12
2.70593372343e-11
4.73447774126e-12
2.39942199593e-11
9.21271314545e-12
9.03988141129e-11
4.91590838744e-11
1.92001157678e-10
1.81339317084e-10
5.14377657291e-11
1.06571739111e-10
2.740099117e-11
1.08500018486e-10
6.69912209302e-11
1.2453681577e-10
6.29965080457e-11
3.34416886569e-10
8.90099489532e-11
3.40724384725e-10
8.13731396907e-11
3.52135268659e-10
7.90834132398e-11
2.70858740315e-10
4.40610498475e-13
2.18576944471e-10
3.98160138265e-11
2.04715962064e-10
5.11318702469e-11
1.55032696884e-10
1.37598487684e-10
3.63738855527e-11
5.24358998453e-11
1.98465646779e-10
1.37483426546e-10
2.366032471e-10
4.45365527541e-12
2.68587366774e-11
9.81922164687e-12
1.80244642471e-11
1.38519772986e-12
2.01541446464e-11
1.96143182319e-10
1.14905314658e-09
5.44036086776e-10
2.11634242785e-12
3.76196983956e-10
1.21162640738e-09
6.95675338382e-09
3.7882949582e-09
7.14974265312e-09
4.85486363348e-09
1.52782276276e-10
9.28786918738e-10
1.14174767824e-10
3.60910157345e-10
1.36450349577e-10
4.51662117557e-11
4.95780107966e-13
2.87014821817e-11
1.55323915021e-11
3.69430920527e-12
2.58020064213e-11
3.78119561644e-11
8.31164017286e-11
1.17656456875e-10
1.55171546914e-10
6.26641568005e-11
1.66848750266e-10
2.26523096248e-10
2.2286746162e-10
6.54310986274e-11
2.57702269463e-10
7.59249650032e-11
2.64594285224e-10
8.8830574793e-11
2.59702642231e-10
3.77028989118e-11
1.00074378799e-08
7.53690313057e-09
4.25647179158e-09
1.63462553862e-08
1.35001625894e-08
8.85047436169e-09
1.27695439171e-08
1.10281376461e-08
6.62592024933e-10
3.29325141025e-09
6.77347313391e-09
2.38952322861e-09
2.71658283326e-09
1.54028551987e-09
5.00099110908e-09
1.62152301441e-09
2.86047026218e-09
2.10970329434e-09
3.30835638378e-09
2.27033738982e-09
2.74296086582e-12
6.69691360097e-10
2.8910083003e-10
1.70373468279e-09
1.86830267564e-10
3.74158871273e-10
3.78434076835e-10
1.53839849301e-10
5.71182587492e-11
9.47653329978e-11
8.53584679296e-10
3.50662912733e-10
3.51432728057e-10
1.88824821121e-10
1.65854919279e-09
1.27013187083e-09
1.32666409183e-09
4.83493578535e-11
7.72001551038e-11
9.01557375538e-12
2.7813035147e-12
7.18261049687e-11
4.6026108672e-11
1.43670383365e-10
8.62186873246e-11
1.82357452873e-10
2.11422190678e-11
6.23527566841e-11
2.58539984235e-11
3.13473637844e-11
6.22588482763e-12
7.30062808915e-11
3.55722125292e-11
6.70267234366e-11
2.49525288211e-11
1.44144857528e-11
1.33356534456e-11
3.42576205991e-11
5.49553635959e-11
8.56187967187e-11
5.70044765544e-11
1.30276575872e-12
1.02634765492e-10
2.28482149296e-11
8.45096634817e-11
2.40531795319e-11
3.95254086987e-11
6.41749868206e-13
1.39073734899e-11
1.21356253048e-11
4.16558139624e-12
1.13137014204e-12
1.22478969136e-11
1.96105655366e-12
3.93417344708e-11
1.61400094225e-12
4.96172186903e-11
9.66923703733e-12
6.05669073806e-12
6.28077173781e-11
4.46907774432e-11
3.24573185194e-12
2.19054686078e-11
4.83197011218e-12
5.40132913562e-12
1.65323576091e-11
9.93560546957e-11
4.63328380069e-12
5.70993432048e-11
3.55212714264e-11
2.36309188693e-11
3.23236194647e-11
5.05687671608e-12
3.92419755267e-11
9.26727865187e-12
1.08221354925e-11
3.08853104076e-11
1.67869486662e-11
6.18644246851e-11
4.93719962122e-11
4.87815939211e-11
4.59260479678e-11
6.34439217856e-11
5.36894694933e-11
1.37941061661e-12
1.59237209346e-10
1.93094445882e-11
4.80378229235e-11
8.32816998695e-11
4.79070707326e-12
4.89546949633e-11
3.11839198999e-12
6.39871075e-11
3.79395620077e-14
4.7090765384e-11
1.68656293502e-11
1.54325360737e-11
1.64603904458e-11
1.64339575256e-11
1.50181902394e-11
3.28053789053e-11
1.82442280476e-11
1.14975010358e-11
1.75803296337e-12
3.40729743576e-11
1.20261198878e-10
1.17225627509e-10
9.78095066309e-11
8.30270226054e-11
1.14264997353e-10
5.12964455712e-11
1.8592386259e-11
5.4245529945e-11
2.58467166343e-11
3.02339528764e-11
1.66291301793e-11
3.78083914884e-11
9.18298932476e-11
7.82087409776e-11
3.33392634022e-11
8.84856054086e-11
5.67756126757e-11
3.9314962792e-11
6.44103681286e-12
8.03896384317e-11
8.57185346361e-11
1.6322708804e-10
1.98300040529e-10
7.89628907652e-12
3.29782114965e-11
3.52488453422e-11
4.90549122548e-11
2.6890483516e-11
3.87245347915e-11
3.51362250875e-11
6.36283025119e-11
4.10571378404e-12
7.45195604099e-11
7.41257821619e-11
2.7595957748e-11
1.55162486137e-10
1.99135224357e-10
3.64625237577e-11
6.08051469698e-11
6.79722275936e-11
3.2259682915e-11
5.36455904642e-11
1.02815840012e-10
5.89736811106e-11
3.26405487412e-11
1.03830291058e-10
9.25785621505e-11
1.58610988888e-10
6.02397375608e-11
8.26042218352e-11
1.39399062262e-10
5.80248873682e-11
9.74796758951e-11
2.07692120545e-11
4.27628995599e-11
7.12419850447e-11
1.27722955533e-10
5.87695780568e-11
5.99539639075e-11
4.29377716125e-11
1.56598376881e-10
4.38910993642e-11
7.04414885373e-11
1.26038322445e-10
2.16115987042e-11
5.25333873912e-11
4.60587105025e-11
3.98768039126e-11
8.93961679269e-12
3.93733571579e-11
2.40611237274e-11
5.45111663093e-11
2.77400645854e-10
1.33318864587e-10
3.07488737428e-11
2.94542857016e-10
1.08586085625e-08
1.04426689903e-08
8.44310885487e-09
1.48555830681e-08
1.65846710947e-09
1.24099734547e-09
7.45771085945e-10
3.13799233376e-08
1.90202697942e-08
9.68926633482e-09
1.15920319373e-08
1.43103967856e-10
8.46090828601e-12
8.12391238892e-11
7.75799379404e-11
5.21569574542e-11
1.00030749975e-10
2.46846057643e-11
7.00128507439e-11
1.03919537343e-10
1.32005984414e-10
3.60054916216e-11
1.15112164093e-10
1.87524250544e-10
1.34275035942e-10
2.14867660812e-10
5.66274472958e-11
4.2957555966e-11
8.74803489137e-11
4.46187540049e-11
2.35987078005e-11
4.96094636987e-11
4.90106673414e-11

