# vtk DataFile Version 3.0
File Name: Molecule/methanol/methanol_13.5-0.vtk
ASCII
DATASET UNSTRUCTURED_GRID
FIELD FieldData 1
TIME 1 1 double
0.0
POINTS 658 double
1.611 0.0 -0.359
1.585 -0.292 -0.356
1.475 0.0 -0.634
1.451 -0.274 -0.632
1.403 0.0 -0.933
1.38 -0.266 -0.93
1.51 -0.576 -0.349
1.38 -0.539 -0.625
1.311 -0.525 -0.924
1.386 -0.842 -0.336
1.265 -0.788 -0.613
1.198 -0.767 -0.912
1.219 -1.083 -0.32
1.108 -1.014 -0.598
1.046 -0.986 -0.897
1.012 -1.29 -0.299
0.915 -1.208 -0.579
0.857 -1.175 -0.878
0.773 -1.459 -0.275
0.691 -1.366 -0.556
0.639 -1.329 -0.857
0.508 -1.583 -0.249
0.443 -1.482 -0.532
0.398 -1.442 -0.833
0.226 -1.659 -0.221
0.179 -1.553 -0.505
0.141 -1.511 -0.807
-0.065 -1.684 -0.192
-0.094 -1.577 -0.478
-0.124 -1.534 -0.781
-0.356 -1.659 -0.163
-0.366 -1.553 -0.451
-0.389 -1.511 -0.754
-0.639 -1.583 -0.135
-0.631 -1.482 -0.425
-0.646 -1.442 -0.729
-0.903 -1.459 -0.108
-0.878 -1.366 -0.4
-0.887 -1.329 -0.705
-1.143 -1.29 -0.085
-1.102 -1.208 -0.378
-1.105 -1.175 -0.683
-1.349 -1.083 -0.064
-1.296 -1.014 -0.358
-1.294 -0.986 -0.664
-1.517 -0.842 -0.047
-1.453 -0.788 -0.343
-1.446 -0.767 -0.649
-1.64 -0.576 -0.035
-1.568 -0.539 -0.331
-1.559 -0.525 -0.638
-1.716 -0.292 -0.028
-1.639 -0.274 -0.324
-1.628 -0.266 -0.631
-1.742 -0.0 -0.025
-1.663 -0.0 -0.322
-1.651 -0.0 -0.629
-1.716 0.292 -0.028
-1.639 0.274 -0.324
-1.628 0.266 -0.631
-1.64 0.576 -0.035
-1.568 0.539 -0.331
-1.559 0.525 -0.638
-1.517 0.842 -0.047
-1.453 0.788 -0.343
-1.446 0.767 -0.649
-1.349 1.083 -0.064
-1.296 1.014 -0.358
-1.294 0.986 -0.664
-1.143 1.29 -0.085
-1.102 1.208 -0.378
-1.105 1.175 -0.683
-0.903 1.459 -0.108
-0.878 1.366 -0.4
-0.887 1.329 -0.705
-0.639 1.583 -0.135
-0.631 1.482 -0.425
-0.646 1.442 -0.729
-0.356 1.659 -0.163
-0.366 1.553 -0.451
-0.389 1.511 -0.754
-0.065 1.684 -0.192
-0.094 1.577 -0.478
-0.124 1.534 -0.781
0.226 1.659 -0.221
0.179 1.553 -0.505
0.141 1.511 -0.807
0.508 1.583 -0.249
0.443 1.482 -0.532
0.398 1.442 -0.833
0.773 1.459 -0.275
0.691 1.366 -0.556
0.639 1.329 -0.857
1.012 1.29 -0.299
0.915 1.208 -0.579
0.857 1.175 -0.878
1.219 1.083 -0.32
1.108 1.014 -0.598
1.046 0.986 -0.897
1.386 0.842 -0.336
1.265 0.788 -0.613
1.198 0.767 -0.912
1.51 0.576 -0.349
1.38 0.539 -0.625
1.311 0.525 -0.924
1.585 0.292 -0.356
1.451 0.274 -0.632
1.38 0.266 -0.93
1.907 0.0 0.656
1.885 0.281 0.656
1.885 0.141 0.899
1.885 -0.141 0.899
1.885 -0.281 0.656
1.885 -0.141 0.412
1.885 0.141 0.412
1.823 0.482 0.934
1.823 0.278 1.137
1.823 -0.0 1.212
1.823 -0.278 1.137
1.823 -0.482 0.934
1.823 -0.556 0.656
1.823 -0.482 0.377
1.823 -0.278 0.174
1.823 -0.0 0.099
1.823 0.278 0.174
1.823 0.482 0.377
1.823 0.556 0.656
1.72 0.77 0.936
1.72 0.627 1.182
1.72 0.409 1.365
1.72 0.142 1.462
1.72 -0.142 1.462
1.72 -0.409 1.365
1.72 -0.627 1.182
1.72 -0.77 0.936
1.72 -0.819 0.656
1.72 -0.77 0.376
1.72 -0.627 0.129
1.72 -0.409 -0.054
1.72 -0.142 -0.151
1.72 0.142 -0.151
1.72 0.409 -0.054
1.72 0.627 0.129
1.72 0.77 0.376
1.72 0.819 0.656
1.579 1.027 0.931
1.579 0.921 1.187
1.579 0.752 1.407
1.579 0.532 1.576
1.579 0.275 1.683
1.579 0.0 1.719
1.579 -0.275 1.683
1.579 -0.532 1.576
1.579 -0.752 1.407
1.579 -0.921 1.187
1.579 -1.027 0.931
1.579 -1.063 0.656
1.579 -1.027 0.38
1.579 -0.921 0.124
1.579 -0.752 -0.096
1.579 0.752 -0.096
1.579 0.921 0.124
1.579 1.027 0.38
1.579 1.063 0.656
1.403 1.254 0.932
1.403 1.165 1.195
1.403 1.022 1.433
1.403 0.831 1.634
1.403 0.601 1.79
1.403 0.343 1.893
1.403 0.07 1.938
1.403 -0.208 1.923
1.403 -0.475 1.848
1.403 -0.72 1.718
1.403 -0.932 1.538
1.403 -1.1 1.317
1.403 -1.217 1.066
1.403 -1.276 0.794
1.403 -1.276 0.517
1.403 -1.217 0.246
1.403 -1.1 -0.006
1.403 1.022 -0.121
1.403 1.165 0.117
1.403 1.254 0.38
1.403 1.284 0.656
1.196 1.449 0.935
1.196 1.37 1.204
1.196 1.241 1.453
1.196 1.068 1.674
1.196 0.856 1.858
1.196 0.613 1.998
1.196 0.348 2.09
1.196 0.07 2.13
1.196 -0.21 2.116
1.196 -0.483 2.05
1.196 -0.738 1.934
1.196 -0.966 1.771
1.196 -1.16 1.568
1.196 -1.312 1.332
1.196 -1.416 1.071
1.196 -1.469 0.796
1.196 -1.469 0.515
1.196 -1.416 0.24
1.196 -1.312 -0.021
1.196 1.241 -0.142
1.196 1.37 0.107
1.196 1.449 0.376
1.196 1.476 0.656
0.963 1.611 0.932
0.963 1.541 1.2
0.963 1.427 1.453
0.963 1.272 1.683
0.963 1.08 1.883
0.963 0.857 2.048
0.963 0.609 2.172
0.963 0.344 2.254
0.963 0.069 2.289
0.963 -0.208 2.277
0.963 -0.479 2.219
0.963 -0.736 2.115
0.963 -0.972 1.97
0.963 -1.18 1.787
0.963 -1.354 1.571
0.963 -1.49 1.329
0.963 -1.582 1.067
0.963 -1.629 0.794
0.963 -1.629 0.517
0.963 -1.582 0.244
0.963 -1.49 -0.018
0.963 1.427 -0.142
0.963 1.541 0.111
0.963 1.611 0.379
0.963 1.635 0.656
0.709 1.735 0.93
0.709 1.671 1.199
0.709 1.566 1.453
0.709 1.421 1.688
0.709 1.242 1.898
0.709 1.033 2.077
0.709 0.798 2.221
0.709 0.543 2.327
0.709 0.275 2.391
0.709 -0.0 2.413
0.709 -0.275 2.391
0.709 -0.543 2.327
0.709 -0.798 2.221
0.709 -1.033 2.077
0.709 -1.242 1.898
0.709 -1.421 1.688
0.709 -1.566 1.453
0.709 -1.671 1.199
0.709 -1.735 0.93
0.709 -1.757 0.656
0.709 -1.735 0.381
0.709 -1.671 0.113
0.709 1.671 0.113
0.709 1.735 0.381
0.709 1.757 0.656
0.439 1.819 0.937
0.439 1.754 1.211
0.439 1.649 1.472
0.439 1.505 1.714
0.439 1.326 1.932
0.439 1.116 2.119
0.439 0.879 2.272
0.439 0.622 2.387
0.439 0.35 2.462
0.439 0.07 2.494
0.439 -0.211 2.484
0.439 -0.488 2.43
0.439 -0.753 2.335
0.439 -1.0 2.2
0.439 -1.224 2.029
0.439 -1.42 1.826
0.439 -1.582 1.596
0.439 -1.707 1.343
0.439 -1.792 1.075
0.439 -1.835 0.796
0.439 -1.835 0.515
0.439 -1.792 0.236
0.439 -1.707 -0.032
0.439 1.754 0.1
0.439 1.819 0.375
0.439 1.84 0.656
0.16 1.861 0.936
0.16 1.799 1.21
0.16 1.696 1.472
0.16 1.555 1.716
0.16 1.38 1.936
0.16 1.174 2.127
0.16 0.941 2.286
0.16 0.688 2.408
0.16 0.419 2.491
0.16 0.141 2.533
0.16 -0.141 2.533
0.16 -0.419 2.491
0.16 -0.688 2.408
0.16 -0.941 2.286
0.16 -1.174 2.127
0.16 -1.38 1.936
0.16 -1.555 1.716
0.16 -1.696 1.472
0.16 -1.799 1.21
0.16 -1.861 0.936
0.16 -1.882 0.656
0.16 -1.861 0.375
0.16 -1.799 0.101
0.16 1.799 0.101
0.16 1.861 0.375
0.16 1.882 0.656
-0.122 1.861 0.936
-0.122 1.799 1.21
-0.122 1.696 1.472
-0.122 1.555 1.716
-0.122 1.38 1.936
-0.122 1.174 2.127
-0.122 0.941 2.286
-0.122 0.688 2.408
-0.122 0.419 2.491
-0.122 0.141 2.533
-0.122 -0.141 2.533
-0.122 -0.419 2.491
-0.122 -0.688 2.408
-0.122 -0.941 2.286
-0.122 -1.174 2.127
-0.122 -1.38 1.936
-0.122 -1.555 1.716
-0.122 -1.696 1.472
-0.122 -1.799 1.21
-0.122 -1.861 0.936
-0.122 -1.882 0.656
-0.122 -1.861 0.375
-0.122 -1.799 0.101
-0.122 1.799 0.101
-0.122 1.861 0.375
-0.122 1.882 0.656
-0.401 1.84 0.656
-0.401 1.819 0.937
-0.401 1.754 1.211
-0.401 1.649 1.472
-0.401 1.505 1.714
-0.401 1.326 1.932
-0.401 1.116 2.119
-0.401 0.879 2.272
-0.401 0.622 2.387
-0.401 0.35 2.462
-0.401 0.07 2.494
-0.401 -0.211 2.484
-0.401 -0.488 2.43
-0.401 -0.753 2.335
-0.401 -1.0 2.2
-0.401 -1.224 2.029
-0.401 -1.42 1.826
-0.401 -1.582 1.596
-0.401 -1.707 1.343
-0.401 -1.792 1.075
-0.401 -1.835 0.796
-0.401 -1.835 0.515
-0.401 -1.792 0.236
-0.401 1.754 0.1
-0.401 1.819 0.375
-0.671 1.757 0.656
-0.671 1.735 0.93
-0.671 1.671 1.199
-0.671 1.566 1.453
-0.671 1.421 1.688
-0.671 1.242 1.898
-0.671 1.033 2.077
-0.671 0.798 2.221
-0.671 0.543 2.327
-0.671 0.275 2.391
-0.671 -0.0 2.413
-0.671 -0.275 2.391
-0.671 -0.543 2.327
-0.671 -0.798 2.221
-0.671 -1.033 2.077
-0.671 -1.242 1.898
-0.671 -1.421 1.688
-0.671 -1.566 1.453
-0.671 -1.671 1.199
-0.671 -1.735 0.93
-0.671 -1.757 0.656
-0.671 -1.735 0.381
-0.671 -1.671 0.113
-0.671 1.671 0.113
-0.671 1.735 0.381
-0.925 1.635 0.656
-0.925 1.611 0.932
-0.925 1.541 1.2
-0.925 1.427 1.453
-0.925 1.272 1.683
-0.925 1.08 1.883
-0.925 0.857 2.048
-0.925 0.609 2.172
-0.925 0.344 2.254
-0.925 0.069 2.289
-0.925 -0.208 2.277
-0.925 -0.479 2.219
-0.925 -0.736 2.115
-0.925 -0.972 1.97
-0.925 -1.18 1.787
-0.925 -1.354 1.571
-0.925 -1.49 1.329
-0.925 -1.582 1.067
-0.925 -1.629 0.794
-0.925 -1.629 0.517
-0.925 -1.582 0.244
-0.925 1.541 0.111
-0.925 1.611 0.379
-1.158 1.476 0.656
-1.158 1.449 0.935
-1.158 1.37 1.204
-1.158 1.241 1.453
-1.158 1.068 1.674
-1.158 0.856 1.858
-1.158 0.613 1.998
-1.158 0.348 2.09
-1.158 0.07 2.13
-1.158 -0.21 2.116
-1.158 -0.483 2.05
-1.158 -0.738 1.934
-1.158 -0.966 1.771
-1.158 -1.16 1.568
-1.158 -1.312 1.332
-1.158 -1.416 1.071
-1.158 -1.469 0.796
-1.158 -1.469 0.515
-1.158 -1.416 0.24
-1.158 1.37 0.107
-1.158 1.449 0.376
-1.365 1.284 0.656
-1.365 1.254 0.932
-1.365 1.165 1.195
-1.365 1.022 1.433
-1.365 0.831 1.634
-1.365 0.601 1.79
-1.365 0.343 1.893
-1.365 0.07 1.938
-1.365 -0.208 1.923
-1.365 -0.475 1.848
-1.365 -0.72 1.718
-1.365 -0.932 1.538
-1.365 -1.1 1.317
-1.365 -1.217 1.066
-1.365 -1.276 0.794
-1.365 -1.276 0.517
-1.365 -1.217 0.246
-1.365 1.165 0.117
-1.365 1.254 0.38
-1.541 1.063 0.656
-1.541 1.027 0.931
-1.541 0.921 1.187
-1.541 0.752 1.407
-1.541 0.532 1.576
-1.541 0.275 1.683
-1.541 0.0 1.719
-1.541 -0.275 1.683
-1.541 -0.532 1.576
-1.541 -0.752 1.407
-1.541 -0.921 1.187
-1.541 -1.027 0.931
-1.541 -1.063 0.656
-1.541 -1.027 0.38
-1.541 -0.921 0.124
-1.541 0.921 0.124
-1.541 1.027 0.38
-1.682 0.819 0.656
-1.682 0.77 0.936
-1.682 0.627 1.182
-1.682 0.409 1.365
-1.682 0.142 1.462
-1.682 -0.142 1.462
-1.682 -0.409 1.365
-1.682 -0.627 1.182
-1.682 -0.77 0.936
-1.682 -0.819 0.656
-1.682 -0.77 0.376
-1.682 -0.627 0.129
-1.682 0.627 0.129
-1.682 0.77 0.375
-1.785 0.556 0.656
-1.785 0.482 0.934
-1.785 0.278 1.137
-1.785 -0.0 1.212
-1.785 -0.278 1.137
-1.785 -0.482 0.934
-1.785 -0.556 0.656
-1.785 -0.482 0.377
-1.785 -0.278 0.174
-1.785 0.278 0.174
-1.785 0.482 0.377
-1.847 0.281 0.656
-1.847 0.141 0.899
-1.847 -0.141 0.899
-1.847 -0.281 0.656
-1.847 -0.141 0.412
-1.847 0.141 0.412
-1.868 0.0 0.656
1.312 -0.277 -1.217
1.185 -0.619 -1.257
1.185 -0.404 -1.437
1.185 -0.14 -1.533
1.312 -0.0 -1.292
1.185 0.14 -1.533
1.312 0.277 -1.217
1.185 0.404 -1.437
1.185 0.619 -1.257
1.015 -0.949 -1.149
1.015 -0.802 -1.39
1.015 -0.596 -1.582
1.015 -0.346 -1.712
1.015 -0.071 -1.769
1.015 0.21 -1.75
1.015 0.476 -1.655
1.015 0.706 -1.493
1.015 0.884 -1.275
0.805 -1.151 -1.156
0.805 -1.023 -1.41
0.805 -0.841 -1.628
0.805 -0.612 -1.798
0.805 -0.351 -1.911
[...]
CELL_DATA 1312
SCALARS cell_data_0 double
LOOKUP_TABLE default
1.26946681538e-09
1.1637131247e-09
7.35757247967e-10
4.31805491789e-10
2.47657358587e-10
8.93553417471e-11
4.62218496191e-10
5.94778021025e-10
2.42005642141e-11
7.23961199334e-11
1.52687649568e-10
2.16701740772e-10
1.07498841581e-10
6.86883388192e-11
8.30683355141e-11
7.26397132981e-11
1.66305051293e-11
1.39526470881e-11
8.93553761112e-11
7.46429031706e-11
1.02683925708e-13
5.0163092021e-12
1.57560507263e-11
9.7222818955e-12
5.92540311948e-12
7.09571803931e-12
1.10174297843e-11
1.76469893865e-11
3.44159928544e-11
1.18886048994e-11
1.70768938862e-11
4.18032583707e-11
3.84596557205e-11
1.56996859303e-11
3.69878173205e-11
6.59205189822e-11
6.22585290384e-11
4.28205477314e-12
7.45551170391e-11
1.27363043756e-10
6.84680961599e-11
5.13320197986e-11
6.86169909505e-11
9.98268179461e-11
1.19427442581e-10
3.89759311578e-11
6.13448161759e-11
1.40129174487e-10
7.70908034757e-11
3.98149774792e-11
7.61644815928e-11
1.43264371166e-10
1.09385527302e-10
8.13806763978e-11
5.42966876929e-11
1.73137838045e-10
1.74569471868e-10
7.28128896519e-11
1.41854005339e-10
2.04960311135e-10
2.53070781594e-10
1.09018290826e-10
1.41878689947e-10
1.46656400055e-10
2.7170944951e-10
5.01133127116e-11
1.26150087519e-10
1.15281102311e-10
1.37910819939e-10
6.06895715611e-12
7.7908942763e-11
1.03057108749e-10
1.37103868433e-10
5.82384957046e-11
1.0486754411e-10
1.29198079597e-10
2.62501749771e-10
1.01295644649e-10
1.37577889955e-10
1.09886131935e-10
2.60572931041e-10
5.37352266919e-11
8.95616999198e-11
1.62699792096e-10
2.06881838384e-10
6.89010983248e-11
1.65526669766e-10
1.68773181292e-10
1.88321610671e-10
4.74539078703e-11
8.65144703466e-11
9.30136158003e-11
1.74808001058e-10
4.81445920027e-11
9.56090976966e-11
9.0312371843e-11
1.05337110152e-10
7.01242310908e-12
6.96439786956e-11
8.75849049936e-11
7.34829243927e-11
3.33083140856e-11
6.95114977238e-11
8.26681462739e-11
8.55075848945e-11
1.91387154186e-11
5.37055487908e-11
7.65284931002e-11
5.46398130673e-11
1.44925091528e-11
4.81096868729e-11
6.41729953325e-11
2.38226127628e-11
1.47299780601e-11
1.09020378583e-11
6.18716680707e-11
1.18560083901e-11
6.77029103922e-12
2.95291110938e-11
2.11979078931e-11
3.67523458992e-12
4.45178599966e-12
1.10603404758e-12
6.58338291251e-12
2.52058112226e-11
3.02091016039e-11
6.9363454876e-11
4.03130776887e-11
3.49385919004e-11
1.76410819873e-11
1.1160250186e-10
1.41397970459e-10
2.62743306696e-10
3.2878648406e-11
5.74493756623e-10
3.09242293982e-10
3.49578221772e-10
7.02224351373e-11
7.69448676514e-11
2.56829744164e-10
2.64432808105e-10
7.08246255927e-10
2.16733235581e-10
3.64073061637e-10
1.02633868784e-11
3.48683335646e-12
8.71735191198e-12
4.10098978926e-12
1.2682882254e-11
1.33300081518e-13
4.6315463693e-12
2.41450551198e-13
4.13143424664e-13
3.62783344461e-12
2.73208513434e-12
3.80824760377e-13
6.63422046113e-12
5.42770463082e-13
6.08742399479e-12
8.19143372715e-12
6.12691614266e-11
9.3959116917e-11
2.04783807369e-11
1.13783830922e-11
2.59041028937e-11
6.84215985181e-12
7.26558339544e-12
5.26965839453e-12
7.72450809484e-13
5.66292027091e-13
1.67550166383e-12
2.32578540578e-12
3.26427137933e-12
2.88956330375e-12
1.74700189617e-12
4.01755639044e-12
2.2095829269e-12
2.19682863232e-12
4.17289822322e-12
5.39088528963e-12
4.61155661743e-12
1.66554315918e-11
1.1019112853e-11
3.56896089674e-11
2.44788095852e-11
5.83868840724e-11
2.04718926337e-11
1.59235466202e-10
3.65323911832e-11
1.86167538308e-10
5.39620214976e-11
6.68102516854e-11
9.81219833426e-12
1.24039790811e-11
1.72963379026e-13
3.67487801438e-13
4.8060727656e-13
8.90854889812e-13
1.64033028217e-12
4.33848958077e-13
1.52865258365e-13
1.5942858028e-12
1.38916087436e-12
1.46598267836e-12
2.07701682474e-12
3.34307586747e-12
3.21271145755e-12
1.07088928961e-12
7.82135711067e-13
1.42159512172e-13
1.79719960801e-12
5.20129248156e-13
1.80788128147e-12
1.42364152065e-12
3.71628822009e-12
1.61928696733e-12
8.08093114118e-12
1.03978482972e-11
1.362251398e-11
4.86158875291e-11
1.98109108284e-11
8.10124338289e-11
1.57736378574e-10
1.49132907547e-10
3.52438197517e-11
8.28366066656e-12
2.94692920668e-12
3.51659617609e-12
1.35857156185e-12
2.54125745191e-12
4.004058358e-12
1.5869541503e-12
3.2434232917e-13
9.64412478578e-13
1.51948494024e-12
4.0655540627e-13
2.34476086993e-13
1.65309402533e-12
6.47479565297e-13
5.70717082691e-13
4.9487478518e-14
2.67824359744e-13
3.06076486126e-12
7.76431386107e-13
1.24515258263e-12
1.69260435901e-13
9.37648867588e-14
3.58562636528e-13
1.75838148733e-12
1.65591550957e-12
7.05635766694e-13
5.85973988182e-13
1.24350400425e-12
2.21717152059e-12
3.15411768908e-12
1.38737340696e-13
1.39787566916e-12
2.26734838455e-11
1.46692911037e-11
5.98238991225e-11
1.11335564612e-10
1.12082209701e-11
2.29680907129e-12
1.28939867881e-12
2.2612468614e-12
8.38160990863e-13
3.28926715035e-12
4.26147784777e-12
9.93104065319e-13
9.34076082167e-13
4.16268427441e-13
8.80840828764e-13
7.62288196275e-13
4.44896031814e-13
1.41248286999e-12
6.02274674534e-13
9.35503019731e-14
6.38498040376e-13
5.18566285438e-13
3.17878992452e-12
4.95021249487e-12
2.10396748154e-12
1.91245345493e-12
4.98403661287e-13
1.97627483524e-12
1.24996332949e-12
2.08745157481e-12
1.33635348572e-12
1.92562857735e-12
1.0398724391e-12
1.35777220989e-12
1.95862911287e-14
8.16574312911e-13
4.41445170419e-13
3.71384421674e-12
5.61559008288e-12
3.29056707009e-12
4.96595822489e-12
5.33773841199e-12
3.29295560657e-12
7.17892347871e-12
8.57591779631e-12
3.26053876196e-11
1.07403482022e-12
3.4097436622e-12
1.60812613863e-12
2.29070191407e-12
8.33562697385e-13
3.90548825092e-12
3.27296793953e-12
4.41137711568e-13
6.39676937073e-13
2.81965397345e-13
1.40036542295e-12
7.10878412588e-13
6.75409427153e-13
5.89816162506e-13
1.39180168041e-12
5.42249226826e-13
4.53661145163e-13
1.28174217161e-12
2.67203693241e-12
5.36786734643e-13
1.95964117772e-12
1.85673974504e-12
1.01160829066e-12
3.78832798818e-13
1.48794274295e-12
1.52317662529e-12
3.23764383582e-13
1.64415377691e-13
2.3219860936e-12
6.82320632899e-13
1.12395408769e-12
4.55314710495e-13
1.61416864374e-12
6.3045739199e-13
1.17830839965e-12
2.54323488548e-13
3.0842074216e-12
3.31627222031e-12
4.00761925211e-12
1.05496841041e-11
4.33009630519e-12
1.51933258314e-12
2.05367672175e-12
4.3736224047e-12
1.73659083619e-12
8.73779862296e-12
7.94135309558e-12
5.88082023288e-12
2.49775742971e-12
3.74756196765e-12
1.04820630368e-12
1.37175710855e-12
3.58565484305e-12
3.28682007992e-13
1.43040580962e-12
7.76708652416e-13
9.63907442066e-13
6.39051690042e-13
5.71939357851e-14
8.20211718913e-13
3.703314141e-13
1.05143333803e-12
5.42578765603e-13
8.44423004089e-13
4.60517683854e-15
1.03796255787e-12
3.33234888447e-13
5.61079482498e-13
2.6829508941e-13
1.00389722075e-14
3.93628550986e-13
1.1712433836e-12
5.29571147156e-13
1.95633411556e-12
2.15967998545e-12
2.21213221195e-12
9.77434655166e-13
1.54734108196e-12
1.35131805399e-12
1.75655224718e-12
4.10925286832e-13
7.17504022925e-13
7.47914047769e-13
6.21440370989e-13
1.56558846369e-13
9.15604635408e-13
7.77900991923e-14
1.74271871109e-13
3.16672200258e-12
7.38743130331e-14
4.8146999839e-12
4.83897652909e-12
5.50095908201e-13
2.22351848292e-12
2.32474961476e-12
1.66120225607e-13
1.47019771103e-12
3.12429713207e-12
1.76797387415e-12
3.77134410806e-12
4.1209752998e-13
2.71922991755e-12
9.68406849516e-13
3.38859793679e-13
7.60464558903e-14
7.73211845824e-13
4.31303585901e-13
2.1484661468e-13
1.44422798527e-13
1.9411436651e-13
1.5305279948e-13
1.10326657596e-13
6.07532364421e-15
5.61234943087e-13
1.16094592534e-13
6.42535521731e-13
2.77105351522e-13
1.64290227514e-12
6.83474588473e-13
1.33387021255e-12
8.65657657888e-13
1.73826547749e-12
8.87766183588e-14
9.38258860774e-13
9.00644351816e-14
2.21494214417e-12
2.7600422534e-13
1.57370523607e-12
8.82594146413e-14
1.68566722721e-12
1.91511769278e-13
1.27365565267e-12
8.47241939386e-13
8.25929347836e-13
1.1743899306e-12
1.69676782383e-12
2.08926465488e-12
6.59537948635e-14
5.29723055428e-13
8.25007809037e-13
1.12507539717e-12
3.0902091053e-12
1.63490133798e-12
3.01827067883e-12
8.1593982792e-13
1.71048102246e-12
1.30246442877e-12
2.20930124989e-12
3.0134693089e-12
6.20279649184e-14
4.97010136486e-13
1.19426674009e-13
1.54597201906e-12
1.59101001103e-13
5.15368267296e-13
1.10130359392e-13
6.49038010787e-13
2.1508718874e-13
8.74927530373e-13
4.14168082591e-13
1.05602037272e-12
7.20922150891e-13
1.03096845899e-12
9.92438951107e-13
1.21236788809e-12
1.5423945685e-12
1.07046351302e-12
1.52443016311e-12
4.87972059689e-13
1.22711664822e-12
8.85218338473e-13
1.83931128501e-12
7.88371414444e-13
1.49443039631e-12
9.7231771992e-14
1.78601225918e-12
2.79992247144e-13
2.4173917987e-12
2.05936653019e-13
1.06915604233e-12
4.22763370413e-14
1.81710904009e-12
4.75932951604e-15
4.94393086185e-13
2.52569553782e-13
3.04259973669e-12
9.33136306193e-13
1.17004214265e-12
1.01121336685e-12
1.37288511431e-12
5.77105001493e-12
8.92222939401e-12
1.22414061703e-11
8.06839292478e-12
3.74602495182e-13
8.30240942395e-13
1.11554149344e-12
9.08209036669e-13
2.42097606779e-12
2.61125787153e-13
1.6767605462e-12
3.33562664098e-13
3.5162129777e-15
6.83835542048e-13
1.08819226637e-12
1.07765198094e-13
1.04028170607e-12
8.76386575727e-14
1.54653335256e-12
3.738892032e-13
2.3005345841e-12
4.51120929274e-13
2.47343961055e-12
7.01086731279e-13
2.70718340458e-12
7.9239700261e-13
2.67419200091e-12
1.16377654558e-12
2.79794897096e-12
1.60876158229e-12
3.08835793919e-12
1.3701179668e-12
2.19522172887e-12
9.90373457188e-13
1.40490232939e-12
1.01271928092e-12
1.15744873303e-12
1.19407028768e-12
1.7979142482e-12
1.6756047235e-12
1.73104746886e-12
9.82595577296e-13
1.0849885958e-12
1.69619567831e-12
8.96851449722e-13
5.05032524833e-13
1.8564123629e-13
9.82665774824e-13
1.42556377642e-12
3.75085138081e-12
7.46556462489e-12
3.39288160332e-12
1.03635656817e-11
1.7053951445e-11
1.88129995276e-12
1.653392191e-13
3.79848769148e-13
6.4787042997e-13
1.43976018224e-12
2.81129230434e-14
3.91828783328e-13
1.38139343187e-12
1.92499003105e-13
4.71629373936e-13
2.46511795252e-13
1.35513079288e-12
4.6695407296e-13
1.17487426538e-12
4.19809086663e-13
1.76304211856e-12
3.75990317236e-13
1.89719997063e-12
4.2787052182e-14
2.18617514613e-12
4.0974360112e-13
1.69249031632e-12
9.56468850921e-13
1.77241095296e-12
7.86588913334e-13
1.61415900863e-12
1.24366900932e-12
1.30975287685e-12
1.24255727079e-12
1.25963155686e-12
1.8321705152e-12
5.12206951859e-13
2.28814242684e-12
2.32157835836e-13
2.49747441834e-13
1.01041007586e-12
6.41207893367e-13
2.65455996635e-13
3.66842176369e-13
1.07054771847e-12
1.97598531678e-13
5.61832512781e-13
6.74487994216e-13
4.9827207758e-13
9.45737200959e-14
2.43591015023e-12
8.74456844915e-12
1.12098099743e-11
2.48812139757e-12
3.62207848941e-13
2.05104671052e-11
3.49017497193e-12
1.16288123198e-12
7.74725430291e-13
1.30401716909e-12
4.41072458551e-13
1.16607889846e-13
9.74083451485e-14
2.15467154935e-14
1.6844810637e-13
2.22847245703e-13
2.8857950348e-13
2.63224047654e-13
1.21146201939e-13
3.93416049107e-13
3.79223766886e-15
9.80884634892e-13
6.96453809108e-14
1.49879219276e-12
3.08617038308e-13
1.66361207913e-12
3.17271037479e-13
1.98427264685e-12
5.99364054498e-13
2.09845033247e-12
8.09794050186e-13
2.37659371098e-12
7.65779631381e-13
2.59854180955e-12
4.22813645895e-13
1.35987952069e-12
1.20353092141e-13
1.39064588073e-12
6.46106045508e-13
1.1626130333e-12
5.24877192358e-13
6.39757204232e-13
3.67487481663e-13
1.26565558022e-12
1.81440138365e-13
3.46354261708e-13
3.32127836117e-13
3.08226901477e-13
1.27330048866e-12
4.28205912496e-13
7.09044948898e-12
8.26974538444e-12
2.66442437173e-11
1.20672335726e-11
1.71799050894e-11
2.78435043023e-12
2.15871110112e-13
5.2548882645e-13
2.14702355397e-13
7.91960451201e-14
1.76925445424e-14
3.66975755734e-14
5.6137668746e-14
2.82628260209e-14
1.42339305893e-13
9.61864152269e-14
2.229992697e-13
3.34647484976e-13
2.83402531809e-13
1.49033905668e-13
1.29390137822e-13
7.15254494768e-13
5.99735803468e-14
2.39823203641e-13
1.65961536479e-13
5.2490850833e-13
6.26333434885e-13
6.9086833461e-13
8.99648446885e-13
8.91250668141e-13
1.30679655696e-12
1.67637628656e-12
9.9282042915e-13
2.29291780507e-13
1.94787648846e-13
7.12663655306e-13
7.97864029331e-13
2.03323653303e-13
6.90315775823e-13
1.80177639748e-13
7.61593659357e-13
4.06212516931e-13
3.27436725779e-13
9.79396610874e-13
2.22864606981e-12
1.08127224979e-12
7.20240433581e-12
1.22094054156e-12
1.95360505982e-11
2.57043794469e-11
3.41260337014e-12
2.70345959282e-13
2.11745257638e-14
5.25149116511e-13
1.58798110499e-13
2.24380453757e-13
1.17653967024e-13
7.12397897991e-14
8.55530178262e-14
1.05278583429e-13
7.85202630069e-14
4.92674986181e-13
1.58916862811e-13
3.86472064694e-13
9.43706068486e-14
2.07650436729e-13
4.73035712704e-13
1.00295590092e-12
6.20758624677e-14
6.50309393887e-13
1.34643561229e-12
6.16742022988e-13
7.54243997378e-14
5.04216116448e-13
6.30985098096e-13
1.71516320882e-13
1.42959548528e-13
7.76268917114e-13
1.2415054171e-13
2.12921826547e-13
2.22261870511e-13
7.45854757215e-14
6.27788081957e-13
2.83196332587e-13
1.88549340788e-13
2.46815372764e-12
3.8850211857e-12
1.81061835041e-12
1.5392299895e-11
4.92361239503e-12
1.96582791908e-12
6.61963998007e-11
2.03314972531e-11
6.03377648574e-12
5.28704662924e-13
2.70940028448e-12
9.11313998742e-13
5.43972774198e-13
1.06202962289e-13
1.0875874189e-14
8.36251721518e-14
2.23372232544e-13
1.57341060331e-14
7.14814898101e-14
1.78168910834e-13
7.94146895387e-15
1.89889972506e-13
1.02620005657e-13
9.32313202045e-14
6.13373708806e-13
6.2624966019e-13
3.99235443467e-13
9.98606435032e-13
2.58611776173e-13
4.26601735392e-13
2.10948954834e-13
7.36661053552e-13
5.40614559236e-14
2.54687281668e-13
6.15007890986e-14
2.58797153377e-13
1.8764748979e-13
3.55238972903e-13
2.25777359593e-13
6.17213198239e-12
1.30555814372e-12
1.35993684066e-11
3.39638729657e-11
3.09586297343e-11
7.42302345041e-11
1.79262085014e-11
1.26920556348e-11
1.84047938088e-12
3.84611927054e-12
2.15360052493e-13
9.78832031597e-13
3.80775929215e-13
7.31623584665e-14
9.26874854172e-14
1.08720318606e-13
2.7014511784e-16
2.23881341443e-13
1.03586827314e-13
1.46392165415e-13
5.8257554742e-13
1.51424227609e-13
3.82162830639e-13
3.29595121936e-13
2.43013570515e-13
2.78537962817e-13
2.5495800384e-14
1.41496995532e-13
3.97802355507e-13
1.84320011404e-13
1.18618386693e-13
1.93782170771e-13
1.50440778427e-12
2.93320281694e-13
5.71622203e-12
1.64518427403e-12
5.57680690749e-12
2.5321062161e-11
4.75138109695e-11
8.24655382442e-11
1.79501096341e-11
1.43552598721e-11
2.00867729824e-12
5.21908660347e-12
3.03166804249e-12
6.13940762521e-13
6.93005545941e-13
2.5012218376e-13
1.34921704269e-13
1.5267066603e-13
2.41822610017e-13
2.67771037395e-13
1.74615295459e-13
1.15297558635e-13
7.60010885178e-14
2.83614375467e-13
2.34757322184e-13
1.3705330832e-13
1.64887807659e-13
2.30044203213e-13
2.8899663777e-13
8.26006591303e-13
4.81349687582e-12
1.07880764364e-13
2.98636648726e-12
1.50502753236e-11
9.46190843148e-12
9.70102954241e-11
1.10671588366e-10
1.18385436347e-11
1.98473091008e-11
1.96809350719e-12
2.78948712055e-12
2.41904315025e-12
5.31588521222e-13
5.59548002096e-13
2.0634463601e-13
1.74535373732e-14
4.55146226361e-13
1.57812106241e-13
3.4578406127e-13
2.45936206075e-14
3.18306530593e-13
7.18678328453e-13
2.59843135371e-13
2.38524167351e-12
1.78006289819e-12
1.49304048857e-11
2.933109763e-11
4.32634013271e-11
1.45344541913e-10
1.42534084941e-10
4.50923663718e-11
2.89796972747e-11
1.31761624189e-11
9.81656640708e-12
7.6936438539e-12
3.0671745902e-12
1.58997818817e-12
5.82652906097e-12
1.7177596838e-12
3.15109657289e-12
7.5262597295e-12
1.05961203353e-11
1.03958641002e-11
1.98348695472e-11
1.11048731524e-11
9.92618264199e-12
1.87720180029e-11
9.21589370024e-12
2.46710279478e-11
8.18565012183e-12
2.4417004865e-11
1.14593668021e-11
2.87671957089e-11
1.24714210298e-11
4.46256409587e-12
1.60437808565e-10
3.4096986958e-12
3.7789883304e-11
6.81104185809e-11
1.00092521917e-10
8.32041242214e-11
5.38434372498e-11
5.02898656361e-11
1.0825597804e-11
8.91215382243e-11
2.00093872099e-11
7.23577258816e-11
5.55357259173e-11
1.57772289867e-11
4.2044691675e-11
4.1325634073e-11
2.42478461253e-12
2.32692584674e-11
3.2527530041e-11
1.22845994796e-12
3.86783135549e-11
1.08248607212e-11
2.08489887184e-11
4.09576245968e-12
5.94266628995e-12
3.10660644701e-12
1.19236698504e-12
7.14218687338e-12
2.47747940987e-11
5.78960245261e-11
2.85413018515e-11
6.12227716061e-11
1.56456596948e-10
4.44843881771e-11
9.78988071462e-11
1.41891316516e-10
1.73520773876e-10
3.89485707399e-11
1.46669058416e-10
2.69043170168e-10
1.91393074618e-10
5.12102969006e-10
1.75231117876e-10
1.88567870773e-10
7.94691575291e-11
9.33558999124e-11
2.33387647926e-11
1.34231345335e-11
7.22457018855e-12
4.42768722235e-12
1.81524920038e-12
1.57150481544e-12
1.46911549176e-12
1.38307984758e-12
1.73661639537e-11
9.84231353196e-12
4.73789376468e-11
1.46881919246e-11
6.35833529873e-11
1.06018663749e-11
4.32966051309e-11
2.67271596421e-12
1.26668105027e-11
4.536250636e-11
1.46323499421e-11
8.20197874793e-11
1.77470922874e-11
8.05507507566e-11
2.14245198698e-11
7.57984249857e-11
4.96410774608e-11
9.09816814262e-11
9.11765675631e-11
7.21926059203e-11
3.37830663039e-11
3.95125667315e-09
4.34798087423e-09
2.31885848065e-10
4.6317609098e-10
3.87776516027e-10
6.49371057228e-10
1.01722240118e-09
4.56491228315e-10
2.12871245323e-10
4.02698389354e-09
3.54766427305e-09
3.58005992844e-09
4.41638942315e-10
8.89839128793e-11
2.17321368874e-10
4.99940859547e-10
8.63278857182e-10
6.99543908394e-10
9.54579054738e-10
2.77868685774e-10
1.19454370908e-10
4.74964710053e-11
1.81193092535e-10
5.58200644703e-11
4.02741239021e-11
2.29422447234e-10
6.61602659228e-10
5.03023181082e-10
1.69677570623e-10
1.99797430865e-11
1.23381547084e-10
2.34620546849e-10
4.88527225944e-10
1.93769387555e-10
1.3524205264e-10
5.50970479974e-11
7.7392187439e-11
5.38454407726e-12
1.03075646151e-11
6.72167536816e-11
5.8579162961e-11
7.38485875371e-12
1.83195986194e-13
1.77951677744e-10
5.96017731784e-11
2.52330091971e-10
9.55330577408e-11
1.80199161687e-10
3.96310366633e-11
5.96058261651e-11
6.0569397941e-11
1.8356581629e-11
5.05056644418e-11
7.44775362925e-11
5.63246913665e-11
8.4250216141e-12
2.89030438571e-11
2.34957573685e-11
1.98269306755e-12
5.3338216727e-11
6.50246120071e-11
2.08312760124e-11
1.60131780463e-12
1.77251861622e-12
1.16951633165e-11
1.1442817958e-11
2.02321025786e-12
3.81086229938e-11
1.13558009905e-11
3.13945794883e-11
6.33435736433e-13
9.96431914818e-13
9.67781202763e-12
5.68320699449e-12
1.94646358494e-12
1.99970576978e-11
1.53913116521e-11
1.81322875309e-11
2.95942123822e-12
8.2913528157e-12
3.62815059927e-12
8.78533351604e-12
8.67802527587e-12
1.06613432658e-11
2.88103099266e-11
1.51468916251e-11
2.06870148979e-11
3.42024483636e-12
2.7811567741e-11
1.61100976743e-11
5.78949968319e-12
2.48983375456e-11
8.03617006646e-12
1.20907058892e-11
4.6825636056e-13
1.72786259559e-11
5.2645438504e-12
1.0152548583e-11
2.06293483171e-12
6.74268945065e-12
8.38418586539e-13
2.16394248788e-12
3.13179232494e-12
2.70050546096e-12
1.53349965238e-12
4.43986268692e-12
2.21260494073e-12
1.53828065181e-12
8.01587557455e-12
4.12756513682e-12
1.37598261582e-11
5.01724576326e-12
7.03158535714e-12
2.425261276e-12
1.44055748685e-11
4.09652928062e-11
3.8604871133e-11
4.14866067515e-11
1.11797805385e-10
2.58646812525e-11
2.45451966643e-11
1.82046137723e-11
2.26488522583e-11
1.82476818949e-11
1.47971566203e-11
9.56241831861e-12
1.79469781307e-11
2.35708695786e-12
1.55459444915e-11
2.93530324759e-12
9.93393492239e-12
2.29648634362e-12
4.5616441185e-12
9.14290436868e-12
2.57657472914e-12
3.84686717208e-12
6.17733269026e-13
1.2467869427e-12
1.22200427041e-11
2.02824899245e-11
2.25567812927e-11
4.11747175867e-11
2.6493560266e-11
2.38363427666e-12
1.26342601849e-11
3.95802778035e-11
3.90886701377e-11
5.25391272844e-11
8.10189831418e-11
2.30481238743e-11
2.12973708986e-11
2.63752147979e-11
2.4882130365e-11
5.59596711455e-12
3.45919129569e-11
8.03541287883e-12
2.39053484346e-11