# vtk DataFile Version 3.0
File Name: Molecule/methanol/methanol_6.0-0.vtk
ASCII
DATASET UNSTRUCTURED_GRID
FIELD FieldData 1
TIME 1 1 double
0.0
POINTS 286 double
1.611 0.0 -0.359
1.554 -0.436 -0.353
1.403 0.0 -0.933
1.351 -0.397 -0.928
1.386 -0.842 -0.336
1.198 -0.767 -0.912
1.12 -1.191 -0.31
0.956 -1.085 -0.888
0.773 -1.459 -0.275
0.639 -1.329 -0.857
0.368 -1.627 -0.235
0.271 -1.482 -0.82
-0.065 -1.684 -0.192
-0.124 -1.534 -0.781
-0.499 -1.627 -0.149
-0.519 -1.482 -0.741
-0.903 -1.459 -0.108
-0.887 -1.329 -0.705
-1.251 -1.191 -0.074
-1.204 -1.085 -0.673
-1.517 -0.842 -0.047
-1.446 -0.767 -0.649
-1.684 -0.436 -0.031
-1.599 -0.397 -0.634
-1.742 0.0 -0.025
-1.651 0.0 -0.629
-1.684 0.436 -0.031
-1.599 0.397 -0.634
-1.517 0.842 -0.047
-1.446 0.767 -0.649
-1.251 1.191 -0.074
-1.204 1.085 -0.673
-0.903 1.459 -0.108
-0.887 1.329 -0.705
-0.499 1.627 -0.149
-0.519 1.482 -0.741
-0.065 1.684 -0.192
-0.124 1.534 -0.781
0.368 1.627 -0.235
0.271 1.482 -0.82
0.773 1.459 -0.275
0.639 1.329 -0.857
1.12 1.191 -0.31
0.956 1.085 -0.888
1.386 0.842 -0.336
1.198 0.767 -0.912
1.554 0.436 -0.353
1.351 0.397 -0.928
1.907 0.0 0.656
1.859 0.42 0.656
1.859 0.21 1.019
1.859 -0.21 1.019
1.859 -0.42 0.656
1.859 -0.21 0.292
1.859 0.21 0.292
1.72 0.709 1.065
1.72 0.409 1.365
1.72 -0.0 1.475
1.72 -0.409 1.365
1.72 -0.709 1.065
1.72 -0.819 0.656
1.72 -0.709 0.246
1.72 -0.409 -0.054
1.72 -0.0 -0.163
1.72 0.409 -0.054
1.72 0.709 0.246
1.72 0.819 0.656
1.495 1.106 1.058
1.495 0.902 1.412
1.495 0.588 1.675
1.495 0.204 1.815
1.495 -0.204 1.815
1.495 -0.588 1.675
1.495 -0.902 1.412
1.495 -1.106 1.058
1.495 -1.177 0.656
1.495 -1.106 0.253
1.495 -0.902 -0.101
1.495 0.902 -0.101
1.495 1.106 0.253
1.495 1.177 0.656
1.196 1.416 1.071
1.196 1.241 1.453
1.196 0.966 1.771
1.196 0.613 1.998
1.196 0.21 2.116
1.196 -0.21 2.116
1.196 -0.613 1.998
1.196 -0.966 1.771
1.196 -1.241 1.453
1.196 -1.416 1.071
1.196 -1.476 0.656
1.196 -1.416 0.24
1.196 1.416 0.24
1.196 1.476 0.656
0.838 1.651 1.063
0.838 1.506 1.446
0.838 1.273 1.783
0.838 0.966 2.055
0.838 0.603 2.246
0.838 0.205 2.344
0.838 -0.205 2.344
0.838 -0.603 2.246
0.838 -0.966 2.055
0.838 -1.273 1.783
0.838 -1.506 1.446
0.838 -1.651 1.063
0.838 -1.701 0.656
0.838 -1.651 0.249
0.838 1.651 0.249
0.838 1.701 0.656
0.439 1.794 1.065
0.439 1.658 1.454
0.439 1.439 1.803
0.439 1.147 2.094
0.439 0.798 2.314
0.439 0.409 2.45
0.439 0.0 2.496
0.439 -0.409 2.45
0.439 -0.798 2.314
0.439 -1.147 2.094
0.439 -1.439 1.803
0.439 -1.658 1.454
0.439 -1.794 1.065
0.439 -1.84 0.656
0.439 -1.794 0.246
0.439 1.794 0.246
0.439 1.84 0.656
0.019 1.843 1.061
0.019 1.713 1.448
0.019 1.503 1.798
0.019 1.222 2.094
0.019 0.884 2.323
0.019 0.505 2.474
0.019 0.102 2.54
0.019 -0.305 2.518
0.019 -0.699 2.409
0.019 -1.059 2.218
0.019 -1.37 1.954
0.019 -1.617 1.629
0.019 -1.789 1.258
0.019 -1.876 0.86
0.019 -1.876 0.452
0.019 -1.789 0.053
0.019 1.843 0.25
0.019 1.888 0.656
-0.401 1.84 0.656
-0.401 1.794 1.065
-0.401 1.658 1.454
-0.401 1.439 1.803
-0.401 1.147 2.094
-0.401 0.798 2.314
-0.401 0.409 2.45
-0.401 0.0 2.496
-0.401 -0.409 2.45
-0.401 -0.798 2.314
-0.401 -1.147 2.094
-0.401 -1.439 1.803
-0.401 -1.658 1.454
-0.401 -1.794 1.065
-0.401 -1.84 0.656
-0.401 -1.794 0.246
-0.401 1.794 0.246
-0.8 1.701 0.656
-0.8 1.651 1.063
-0.8 1.506 1.446
-0.8 1.273 1.783
-0.8 0.966 2.055
-0.8 0.603 2.246
-0.8 0.205 2.344
-0.8 -0.205 2.344
-0.8 -0.603 2.246
-0.8 -0.966 2.055
-0.8 -1.273 1.783
-0.8 -1.506 1.446
-0.8 -1.651 1.063
-0.8 -1.701 0.656
-0.8 -1.651 0.249
-0.8 1.651 0.249
-1.158 1.476 0.656
-1.158 1.416 1.071
-1.158 1.241 1.453
-1.158 0.966 1.771
-1.158 0.613 1.998
-1.158 0.21 2.116
-1.158 -0.21 2.116
-1.158 -0.613 1.998
-1.158 -0.966 1.771
-1.158 -1.241 1.453
-1.158 -1.416 1.071
-1.158 -1.476 0.656
-1.158 -1.416 0.24
-1.158 1.416 0.24
-1.457 1.177 0.656
-1.457 1.106 1.058
-1.457 0.902 1.412
-1.457 0.588 1.675
-1.457 0.204 1.815
-1.457 -0.204 1.815
-1.457 -0.588 1.675
-1.457 -0.902 1.412
-1.457 -1.106 1.058
-1.457 -1.177 0.656
-1.457 -1.106 0.253
-1.457 1.106 0.253
-1.682 0.819 0.656
-1.682 0.709 1.065
-1.682 0.409 1.365
-1.682 -0.0 1.475
-1.682 -0.409 1.365
-1.682 -0.709 1.065
-1.682 -0.819 0.656
-1.682 -0.709 0.246
-1.682 0.709 0.246
-1.821 0.42 0.656
-1.821 0.21 1.019
-1.821 -0.21 1.019
-1.821 -0.42 0.656
-1.821 -0.21 0.292
-1.821 0.21 0.292
-1.868 -0.0 0.656
1.172 -0.719 -1.152
0.886 -0.986 -1.348
0.886 -0.699 -1.663
1.172 -0.415 -1.456
0.886 -0.317 -1.853
1.172 -0.0 -1.567
0.886 0.107 -1.892
1.172 0.415 -1.456
0.886 0.517 -1.776
0.886 0.857 -1.519
1.172 0.719 -1.152
0.886 1.082 -1.156
0.518 -1.328 -1.169
0.518 -1.13 -1.558
0.518 -0.821 -1.867
0.518 -0.431 -2.065
0.518 0.0 -2.133
0.518 0.431 -2.065
0.518 0.821 -1.867
0.518 1.13 -1.558
0.518 1.328 -1.169
0.099 -1.458 -1.165
0.099 -1.278 -1.559
0.099 -0.995 -1.885
0.099 -0.631 -2.119
0.099 -0.216 -2.241
0.099 0.216 -2.241
0.099 0.631 -2.119
0.099 0.995 -1.885
0.099 1.278 -1.559
0.099 1.458 -1.165
-0.338 -1.458 -1.165
-0.338 -1.278 -1.559
-0.338 -0.995 -1.885
-0.338 -0.631 -2.119
-0.338 -0.216 -2.241
-0.338 0.216 -2.241
-0.338 0.631 -2.119
-0.338 0.995 -1.885
-0.338 1.278 -1.559
-0.338 1.458 -1.165
-0.757 -1.328 -1.169
-0.757 -1.13 -1.558
-0.757 -0.821 -1.867
-0.757 -0.431 -2.065
-0.757 0.0 -2.133
-0.757 0.431 -2.065
-0.757 0.821 -1.867
-0.757 1.13 -1.558
-0.757 1.328 -1.169
-1.125 -1.14 -0.95
-1.125 -0.986 -1.348
-1.125 -0.699 -1.663
-1.125 -0.317 -1.853
-1.125 0.107 -1.892
-1.125 0.517 -1.776
-1.125 0.857 -1.519
-1.125 1.082 -1.156
-1.411 -0.719 -1.152
-1.411 -0.415 -1.456
-1.411 -0.0 -1.567
-1.411 0.415 -1.456
-1.411 0.719 -1.152
-1.593 -0.216 -1.112
-1.593 0.216 -1.112

CELLS 568 2272
3 0 1 2
3 2 1 3
3 1 4 3
3 3 4 5
3 4 6 5
3 5 6 7
3 6 8 7
3 7 8 9
3 8 10 9
3 9 10 11
3 10 12 11
3 11 12 13
3 12 14 13
3 13 14 15
3 14 16 15
3 15 16 17
3 16 18 17
3 17 18 19
3 18 20 19
3 19 20 21
3 20 22 21
3 21 22 23
3 22 24 23
3 23 24 25
3 24 26 25
3 25 26 27
3 26 28 27
3 27 28 29
3 28 30 29
3 29 30 31
3 30 32 31
3 31 32 33
3 32 34 33
3 33 34 35
3 34 36 35
3 35 36 37
3 36 38 37
3 37 38 39
3 38 40 39
3 39 40 41
3 40 42 41
3 41 42 43
3 42 44 43
3 43 44 45
3 44 46 45
3 45 46 47
3 46 0 47
3 47 0 2
3 48 49 50
3 48 50 51
3 48 51 52
3 48 52 53
3 48 53 54
3 48 54 49
3 50 49 55
3 50 55 56
3 50 56 57
3 51 50 57
3 51 57 58
3 51 58 59
3 52 51 59
3 52 59 60
3 52 60 61
3 53 52 61
3 53 61 62
3 53 62 63
3 54 53 63
3 54 63 64
3 54 64 65
3 49 54 65
3 49 65 66
3 49 66 55
3 55 66 67
3 55 67 68
3 56 55 68
3 56 68 69
3 56 69 70
3 57 56 70
3 57 70 71
3 58 57 71
3 58 71 72
3 58 72 73
3 59 58 73
3 59 73 74
3 60 59 74
3 60 74 75
3 60 75 76
3 61 60 76
3 61 76 77
3 62 61 77
3 65 64 78
3 65 78 79
3 66 65 79
3 66 79 80
3 66 80 67
3 67 80 81
3 67 81 82
3 68 67 82
3 68 82 83
3 69 68 83
3 69 83 84
3 70 69 84
3 70 84 85
3 70 85 86
3 71 70 86
3 71 86 87
3 72 71 87
3 72 87 88
3 73 72 88
3 73 88 89
3 74 73 89
3 74 89 90
3 75 74 90
3 75 90 91
3 75 91 92
3 76 75 92
3 80 79 93
3 80 93 94
3 80 94 81
3 81 94 95
3 81 95 96
3 82 81 96
3 82 96 97
3 83 82 97
3 83 97 98
3 84 83 98
3 84 98 99
3 85 84 99
3 85 99 100
3 85 100 101
3 86 85 101
3 86 101 102
3 87 86 102
3 87 102 103
3 88 87 103
3 88 103 104
3 89 88 104
3 89 104 105
3 90 89 105
3 90 105 106
3 91 90 106
3 91 106 107
3 91 107 108
3 92 91 108
3 94 93 109
3 94 109 110
3 94 110 95
3 95 110 111
3 95 111 112
3 96 95 112
3 96 112 113
3 97 96 113
3 97 113 114
3 98 97 114
3 98 114 115
3 99 98 115
3 99 115 116
3 100 99 116
3 100 116 117
3 101 100 117
3 101 117 118
3 102 101 118
3 102 118 119
3 103 102 119
3 103 119 120
3 104 103 120
3 104 120 121
3 105 104 121
3 105 121 122
3 106 105 122
3 106 122 123
3 107 106 123
3 107 123 124
3 107 124 125
3 108 107 125
3 110 109 126
3 110 126 127
3 110 127 111
3 111 127 128
3 111 128 129
3 112 111 129
3 112 129 130
3 113 112 130
3 113 130 131
3 114 113 131
3 114 131 132
3 115 114 132
3 115 132 133
3 116 115 133
3 116 133 134
3 117 116 134
3 117 134 135
3 118 117 135
3 118 135 136
3 119 118 136
3 119 136 137
3 120 119 137
3 120 137 138
3 121 120 138
3 121 138 139
3 122 121 139
3 122 139 140
3 123 122 140
3 123 140 141
3 124 123 141
3 124 141 142
3 125 124 142
3 125 142 143
3 127 126 144
3 127 144 145
3 127 145 128
3 128 145 146
3 128 146 147
3 129 128 147
3 129 147 148
3 130 129 148
3 130 148 149
3 131 130 149
3 131 149 150
3 132 131 150
3 132 150 151
3 133 132 151
3 133 151 152
3 134 133 152
3 134 152 153
3 135 134 153
3 135 153 154
3 136 135 154
3 136 154 155
3 137 136 155
3 137 155 156
3 138 137 156
3 138 156 157
3 139 138 157
3 139 157 158
3 140 139 158
3 140 158 159
3 141 140 159
3 141 159 160
3 142 141 160
3 142 160 161
3 143 142 161
3 146 144 162
3 145 144 146
3 147 146 163
3 147 163 164
3 148 147 164
3 148 164 165
3 149 148 165
3 149 165 166
3 150 149 166
3 150 166 167
3 151 150 167
3 151 167 168
3 152 151 168
3 152 168 169
3 153 152 169
3 153 169 170
3 154 153 170
3 154 170 171
3 155 154 171
3 155 171 172
3 156 155 172
3 156 172 173
3 157 156 173
3 157 173 174
3 158 157 174
3 158 174 175
3 159 158 175
3 159 175 176
3 160 159 176
3 161 160 176
3 161 176 177
3 163 162 178
3 146 162 163
3 164 163 179
3 164 179 180
3 165 164 180
3 165 180 181
3 166 165 181
3 166 181 182
3 167 166 182
3 167 182 183
3 168 167 183
3 168 183 184
3 169 168 184
3 169 184 185
3 170 169 185
3 171 170 185
3 171 185 186
3 172 171 186
3 172 186 187
3 173 172 187
3 173 187 188
3 174 173 188
3 174 188 189
3 175 174 189
3 175 189 190
3 176 175 190
3 177 176 190
3 177 190 191
3 179 178 192
3 163 178 179
3 180 179 193
3 180 193 194
3 181 180 194
3 181 194 195
3 182 181 195
3 182 195 196
3 183 182 196
3 183 196 197
3 184 183 197
3 184 197 198
3 185 184 198
3 186 185 198
3 186 198 199
3 187 186 199
3 187 199 200
3 188 187 200
3 188 200 201
3 189 188 201
3 189 201 202
3 190 189 202
3 191 190 202
3 191 202 203
3 193 192 204
3 179 192 193
3 194 193 205
3 194 205 206
3 195 194 206
3 195 206 207
3 196 195 207
3 197 196 207
3 197 207 208
3 198 197 208
3 198 208 209
3 199 198 209
3 200 199 209
3 200 209 210
3 201 200 210
3 201 210 211
3 202 201 211
3 203 202 211
3 203 211 212
3 205 204 213
3 193 204 205
3 206 205 214
3 206 214 215
3 207 206 215
3 208 207 215
3 208 215 216
3 209 208 216
3 210 209 216
3 210 216 217
3 211 210 217
3 212 211 217
3 212 217 218
3 214 213 219
3 205 213 214
3 215 214 220
3 216 215 220
3 217 216 220
3 218 217 220
3 219 218 220
3 214 219 220
3 219 213 26
3 219 26 24
3 219 24 218
3 218 24 22
3 218 22 212
3 212 22 20
3 212 20 203
3 203 20 18
3 203 18 191
3 191 18 16
3 191 16 177
3 177 16 14
3 177 14 161
3 161 14 12
3 161 12 143
3 143 12 10
3 143 10 125
3 125 10 108
3 108 10 8
3 108 8 92
3 92 8 6
3 92 6 76
3 76 6 77
3 77 6 4
3 77 4 1
3 77 1 62
3 62 1 63
3 63 1 0
3 63 0 46
3 63 46 64
3 64 46 78
3 78 46 44
3 78 44 42
3 78 42 79
3 79 42 93
3 93 42 40
3 93 40 109
3 109 40 38
3 109 38 126
3 126 38 144
3 144 38 36
3 144 36 162
3 162 36 34
3 162 34 178
3 178 34 32
3 178 32 192
3 192 32 30
3 192 30 204
3 204 30 28
3 204 28 213
3 213 28 26
3 221 222 223
3 224 221 223
3 224 223 225
3 226 224 225
3 226 225 227
3 228 226 227
3 228 227 229
3 228 229 230
3 231 228 230
3 231 230 232
3 222 233 234
3 223 222 234
3 223 234 235
3 223 235 236
3 225 223 236
3 225 236 237
3 227 225 237
3 227 237 238
3 229 227 238
3 229 238 239
3 230 229 239
3 230 239 240
3 232 230 240
3 232 240 241
3 233 242 243
3 234 233 243
3 234 243 244
3 235 234 244
3 235 244 245
3 236 235 245
3 236 245 246
3 237 236 246
3 237 246 247
3 238 237 247
3 238 247 248
3 239 238 248
3 239 248 249
3 240 239 249
3 240 249 250
3 241 240 250
3 241 250 251
3 242 252 253
3 243 242 253
3 243 253 254
3 244 243 254
3 244 254 255
3 245 244 255
3 246 245 255
3 246 255 256
3 246 256 257
3 247 246 257
3 247 257 258
3 248 247 258
3 248 258 259
3 249 248 259
3 249 259 260
3 250 249 260
3 250 260 261
3 251 250 261
3 253 252 262
3 253 262 263
3 254 253 263
3 254 263 264
3 255 254 264
3 255 264 265
3 256 255 265
3 256 265 266
3 257 256 266
3 257 266 267
3 258 257 267
3 258 267 268
3 259 258 268
3 259 268 269
3 260 259 269
3 260 269 270
3 261 260 270
3 262 271 272
3 263 262 272
3 263 272 273
3 264 263 273
3 265 264 273
3 265 273 274
3 266 265 274
3 266 274 275
3 267 266 275
3 267 275 276
3 268 267 276
3 268 276 277
3 269 268 277
3 269 277 278
3 270 269 278
3 272 271 279
3 273 272 279
3 273 279 280
3 274 273 280
3 274 280 281
3 275 274 281
3 275 281 282
3 276 275 282
3 277 276 282
3 277 282 283
3 278 277 283
3 280 279 284
3 281 280 284
3 281 284 285
3 282 281 285
3 283 282 285
3 283 285 27
3 283 27 29
3 283 29 31
3 283 31 278
3 278 31 33
3 278 33 270
3 270 33 35
3 270 35 261
3 261 35 37
3 261 37 251
3 251 37 39
3 251 39 241
3 241 39 41
3 241 41 232
3 232 41 43
3 232 43 231
3 231 43 45
3 231 45 47
3 231 47 228
3 228 47 2
3 228 2 226
3 226 2 224
3 224 2 3
3 224 3 221
3 221 3 5
3 221 5 7
3 221 7 222
3 222 7 233
3 233 7 9
3 233 9 11
3 233 11 242
3 242 11 13
3 242 13 252
3 252 13 15
3 252 15 262
3 262 15 17
3 262 17 271
3 271 17 19
3 271 19 21
3 271 21 279
3 279 21 23
3 279 23 284
3 284 23 25
3 284 25 285
3 285 25 27

CELL_TYPES 568
5
5
5
5
5
5
5
5
5
5
5
5
5
5
5
5
5
5
5
5
5
5
5
5
5
5
5
5
5
5
5
5
5
5
5
5
5
5
5
5
5
5
5
5
5
5
5
5
5
5
5
5
5
5
5
5
5
5
5
5
5
5
5
5
5
5
5
5
5
5
5
5
5
5
5
5
5
5
5
5
5
5
5
5
5
5
5
5
5
5
5
5
5
5
5
5
5
5
5
5
5
5
5
5
5
5
5
5
5
5
5
5
5
5
5
5
5
5
5
5
5
5
5
5
5
5
5
5
5
5
5
5
5
5
5
5
5
5
5
5
5
5
5
5
5
5
5
5
5
5
5
5
5
5
5
5
5
5
5
5
5
5
5
5
5
5
5
5
5
5
5
5
5
5
5
5
5
5
5
5
5
5
5
5
5
5
5
5
5
5
5
5
5
5
5
5
5
5
5
5
5
5
5
5
5
5
5
5
5
5
5
5
5
5
5
5
5
5
5
5
5
5
5
5
5
5
5
5
5
5
5
5
5
5
5
5
5
5
5
5
5
5
5
5
5
5
5
5
5
5
5
5
5
5
5
5
5
5
5
5
5
5
5
5
5
5
5
5
5
5
5
5
5
5
5
5
5
5
5
5
5
5
5
5
5
5
5
5
5
5
5
5
5
5
5
5
5
5
5
5
5
5
5
5
5
5
5
5
5
5
5
5
5
5
5
5
5
5
5
5
5
5
5
5
5
5
5
5
5
5
5
5
5
5
5
5
5
5
5
5
5
5
5
5
5
5
5
5
5
5
5
5
5
5
5
5
5
5
5
5
5
5
5
5
5
5
5
5
5
5
5
5
5
5
5
5
5
5
5
5
5
5
5
5
5
5
5
5
5
5
5
5
5
5
5
5
5
5
5
5
5
5
5
5
5
5
5
5
5
5
5
5
5
5
5
5
5
5
5
5
5
5
5
5
5
5
5
5
5
5
5
5
5
5
5
5
5
5
5
5
5
5
5
5
5
5
5
5
5
5
5
5
5
5
5
5
5
5
5
5
5
5
5
5
5
5
5
5
5
5
5
5
5
5
5
5
5
5
5
5
5
5
5
5
5
5
5
5
5
5
5
5
5
5
5
5
5
5
5
5
5
5
5
5
5
5
5
5
5
5
5
5
5
5
5
5
5
5
5
5
5
5
5
5
5
5
5
5
5
5
5
5
5
5
5
5
5
5
5
5
5
5
5
5
5
5
5
5
5
5
5
5
5
5
5
5
5
5
5
5
5
5
5
5
5
5
5
5

CELL_DATA 568
SCALARS cell_data_0 double
LOOKUP_TABLE default
3.18347041504e-08
1.18105737191e-08
1.3726350047e-09
8.80430803031e-09
7.75838659464e-11
2.44934911725e-09
5.17958003138e-10
3.62152414788e-10
2.38913918138e-11
1.52687800242e-10
2.529598838e-10
2.46665757401e-10
2.22125969977e-10
1.59310661273e-11
7.12974289906e-11
1.28558025684e-10
1.67050295089e-10
1.84910326409e-10
4.31358761847e-10
2.76656502431e-10
3.82698164112e-10
4.87793694055e-11
2.40173342063e-10
1.63878788003e-10
2.49770909643e-10
4.80670785911e-11
2.73803468783e-10
1.97755865735e-10
4.37453066037e-10
2.17723914506e-10
4.72257681853e-11
1.10029561832e-11
8.23547293927e-11
2.98466183172e-11
3.4180586004e-11
9.29452677475e-11
2.04771427178e-10
6.55440293219e-11
1.38449953631e-11
5.35777379582e-11
4.92738265534e-11
1.28906626472e-10
1.02247429547e-09
1.56459811934e-09
8.68858583621e-10
3.36428713027e-09
2.78645620592e-08
3.54435666089e-08
4.28679260921e-10
1.3865846719e-10
6.70424497465e-10
4.39823430876e-10
1.79384882785e-09
2.43245539294e-10
3.2691127079e-11
4.11411222866e-11
1.56850136423e-11
2.52079835698e-10
2.60451548156e-10
1.7526281678e-10
5.09177292709e-10
1.17490383409e-11
2.42405401118e-09
1.79566229447e-09
7.36260316229e-09
3.07162718184e-09
4.45104476481e-09
1.63626363183e-09
6.57325259149e-10
1.00274658075e-09
1.36069108985e-11
1.33875510435e-10
1.46229650809e-11
5.24456909885e-12
5.74329789741e-11
3.13429684472e-11
5.79463400718e-12
8.88353864988e-11
1.84878926307e-11
9.87555492925e-11
1.23370193566e-10
1.13096593789e-10
1.53299787353e-12
8.41360887693e-11
5.48535240491e-10
9.61596076593e-10
7.08161236861e-10
4.28331550753e-09
4.81475244624e-09
1.03065892561e-08
1.01258832486e-10
1.75246764987e-10
6.43598071922e-11
4.86721885773e-11
1.04039364476e-11
4.08075783326e-12
1.10828177086e-11
4.5562447883e-12
1.67593332468e-12
1.24432886429e-11
3.76137539874e-12
2.56058649474e-11
6.33102257935e-12
7.29050155666e-12
3.61539876865e-11
1.57594341806e-11
3.54758227756e-12
8.46636226139e-13
6.83260733232e-12
2.88449434295e-11
1.03172430996e-11
1.50640290963e-10
5.04399552017e-10
2.06957875793e-10
3.41562893796e-11
1.22611033405e-09
3.08659996893e-11
5.19613110493e-11
8.54403470942e-12
1.00998594367e-11
1.27161697658e-11
1.37972913546e-12
3.34592703347e-12
3.61716876241e-12
5.95772429852e-12
3.96314924835e-12
9.12863075232e-12
2.09536085388e-11
1.01477224116e-11
3.55067311968e-12
1.28730632602e-11
1.39224744e-12
1.13833158672e-12
3.39253946625e-12
1.29388945303e-11
4.03260812604e-11
5.36248979047e-12
7.02287513696e-11
5.45593346663e-11
1.54807995611e-10
2.59549366207e-11
1.55086811661e-10
2.51157786194e-10
2.42791689746e-10
1.13089141371e-10
2.41033940782e-11
2.72736069554e-11
1.14548180033e-11
1.77786123131e-11
5.85897208531e-12
2.73309216953e-12
4.82711409157e-13
4.58294202737e-12
4.34741948766e-12
5.34412029298e-12
1.78113078501e-12
3.12631035654e-12
1.91272103426e-12
5.83840255537e-12
6.49139174357e-12
3.48465232277e-12
7.18722402579e-12
6.20758896135e-12
3.73943220831e-12
1.58694255208e-11
1.29140544081e-11
2.51881079644e-11
1.4935305377e-11
3.42334898061e-11
2.20522380971e-11
4.6291743143e-11
5.47446637838e-13
2.97054501878e-11
1.56614320207e-11
6.87493613202e-11
4.2431875665e-11
9.89839542642e-12
2.81349337234e-11
1.16791559463e-11
1.11358022406e-11
4.88488140391e-12
1.11019838281e-11
4.02472014459e-12
1.22328391262e-12
8.90975075847e-13
4.6677321948e-12
1.71303439321e-12
2.68952812866e-12
2.14620248328e-12
1.89050785091e-12
2.8675455776e-12
2.68571219134e-13
3.54044819756e-13
2.91900326918e-12
6.61296450906e-13
7.51136746834e-12
1.92556058826e-12
6.27361028829e-12
8.98216199595e-12
1.0477315005e-11
1.77749015144e-11
3.25197407286e-12
1.20964252488e-11
4.64723212383e-12
3.06738544102e-12
7.94189534071e-11
1.39704929711e-10
1.75568936418e-10
1.71775143532e-11
5.15647024699e-12
1.22281461368e-11
4.78943314322e-12
7.58833270353e-13
1.91278224719e-11
2.02160629628e-11
2.86531778216e-12
8.28868660469e-12
7.13044077935e-12
7.97712938384e-12
3.35435500325e-12
4.7597407516e-13
4.6692054004e-12
4.95128228872e-13
2.14111389325e-12
2.86413852595e-12
8.24090085102e-13
4.38749492197e-12
6.28322391223e-13
9.35838343346e-13
3.71741385308e-12
7.35059625162e-12
2.26219903747e-12
8.93975839815e-12
2.57465977998e-12
1.34048281239e-11
6.43198469537e-14
1.21682778972e-11
7.8675000955e-12
2.1709573744e-11
4.69495511724e-11
1.75824510068e-10
2.45666346677e-10
6.63076825102e-12
8.5844375026e-12
3.31355229048e-11
1.12354035989e-11
1.14877573554e-11
2.68605097225e-12
1.16515335947e-11
9.82391459468e-14
7.5121701427e-12
6.02873455915e-13
3.53330893881e-12
3.07852479239e-13
8.06921716225e-13
2.76550273361e-13
3.0432478749e-12
1.28798015213e-12
1.64834946991e-12
8.97676495646e-13
1.91340440916e-14
3.42878120826e-13
2.33543487579e-12
2.84122756462e-12
9.14991613942e-12
2.82182779774e-14
1.07137644439e-11
1.24188748558e-12
9.79457929801e-12
1.50624194485e-11
3.21888816738e-11
1.82858139865e-11
6.31444009392e-11
6.59550576656e-11
2.89795977219e-11
4.54316540972e-11
6.9394470067e-12
5.27280362472e-13
2.70211104509e-12
7.37377251719e-12
9.38784892851e-13
5.3587141697e-12
1.23677519837e-12
4.07050729033e-12
2.51097880989e-12
2.45056885488e-12
5.56318983092e-12
7.3936723435e-12
6.5086623836e-12
5.39386229392e-13
5.49773447819e-12
1.69472064714e-12
7.60625488059e-12
1.75578736895e-12
7.90835596544e-12
3.59715233023e-12
1.07572628936e-12
6.34296361578e-12
5.19474129298e-11
4.86785281695e-11
1.21307545312e-10
9.89936031919e-11
4.17282233177e-11
5.46805043399e-11
8.10827616957e-12
5.30072389235e-12
2.73954413109e-12
4.77569562512e-12
2.13654406622e-12
5.80986532134e-12
3.4413552334e-12
2.48056671507e-12
9.71310886796e-14
3.1225160954e-12
1.39144130222e-12
1.5653465143e-12
5.05653256167e-12
2.26824287204e-12
5.12477584342e-12
2.99070366449e-12
5.61876507092e-12
1.05910546246e-11
6.28819796814e-11
2.61833797709e-11
1.68478736825e-10
1.43609209074e-10
2.57159764755e-11
5.74594924345e-11
5.48917786165e-12
7.80502125455e-12
2.60439195568e-12
5.51597544521e-13
2.46056805751e-12
1.53247999382e-12
8.5196068574e-13
2.02658526954e-12
2.10004031328e-12
5.22963836833e-13
2.75642895124e-12
8.6313074054e-12
6.47991683181e-12
6.41565244084e-11
5.30979686418e-12
2.45918423687e-10
2.20813445027e-10
9.10531798058e-12
6.29362751719e-11
1.27931745328e-11
1.16342160182e-11
3.67848278955e-12
1.3913696918e-11
3.66238009561e-12
1.19441274897e-11
1.19595074358e-11
6.62753487951e-11
1.79191633294e-11
2.88803506758e-10
2.85232019721e-10
1.53699646809e-11
8.75335635533e-11
3.10056886329e-11
8.74383553623e-11
1.49658909513e-11
1.91813384784e-10
9.71630451957e-12
2.42774863991e-10
4.43109118371e-12
2.70971280787e-10
2.5192403992e-11
2.74920897797e-10
3.27492514698e-12
2.22849283011e-10
2.17161009316e-11
2.12432829584e-10
4.31579324385e-11
1.79150398471e-10
1.17508827087e-10
2.22842745099e-10
1.90223574862e-11
3.6302078356e-12
6.61210215945e-11
5.62916756766e-11
1.50074042091e-11
1.26723209546e-11
9.21253644039e-11
1.28546731782e-10
1.83304591674e-09
1.98010359471e-09
7.0542772703e-10
5.51139889355e-09
1.64384464521e-08
1.19010455523e-08
9.52731024414e-09
8.87129127395e-09
4.5024642442e-10
1.40969642313e-09
7.01816124739e-11
3.9961012422e-10
1.165281131e-10
1.7142668695e-10
7.68587559427e-11
1.25420036178e-10
3.82763362996e-12
1.285463073e-11
2.5436992474e-11
7.35213667491e-11
2.35144475246e-11
8.32459473049e-11
1.59857293683e-10
7.16192462658e-11
1.72851001688e-10
6.76278003608e-11
1.86610397877e-10
3.72470483996e-11
2.16645828379e-10
1.32026694724e-11
8.3197460879e-09
9.37457946044e-09
3.34362612071e-09
3.47962599908e-09
2.06767644042e-09
3.21858954588e-11
2.12289817971e-09
2.18449883721e-10
9.40390304761e-09
1.21766845277e-08
1.26623719991e-08
5.41840833665e-09
6.64364885448e-09
3.99292382977e-09
2.51712716648e-09
1.52147097333e-08
7.36239889248e-09
9.66937025905e-11
7.62034327322e-09
1.64202837451e-09
5.27478149687e-09
2.90473886502e-10
6.52994251073e-10
6.56189782038e-10
2.93338229835e-10
1.76906458484e-10
1.35457728821e-10
7.6422387217e-11
1.56965789437e-10
1.1151178921e-09
7.09754536087e-10
2.40694594555e-09
5.83406889282e-10
1.48666979834e-09
2.13848583612e-10
6.77011633967e-10
2.03868455899e-10
2.05839980844e-10
7.87978330437e-11
2.09177652492e-11
2.22004693591e-10
5.08733679187e-11
5.06973637879e-11
2.35002257942e-10
8.22585645356e-11
5.47841829786e-10
1.68219595263e-10
8.39954469921e-10
3.20631210721e-11
9.89113615028e-11
5.33223558105e-10
5.40435647106e-11
4.64261051757e-10
2.91948143953e-11
5.11632705744e-10
2.20483088281e-10
5.94968878254e-10
1.75558499728e-10
8.68084619199e-12
3.44963982488e-11
1.60122552458e-11
2.07438164431e-10
2.25182457754e-10
2.87558555091e-10
3.1413550195e-10
6.99511700236e-10
5.49823005982e-11
6.84026983579e-10
4.35375085474e-10
6.48083667997e-10
1.42081773065e-10
4.04065192712e-10
1.77553950354e-10
3.41916739732e-10
8.66533395196e-11
1.00107344796e-10
3.04640755962e-10
2.27254411914e-10
2.17216205516e-10
3.16495420731e-11
3.73228736663e-10
2.01362943914e-10
2.90536322532e-10
1.08154585855e-10
1.25459817562e-10
2.44819150399e-10
2.6537420225e-10
2.72273529948e-13
1.3290109219e-10
1.92012744567e-10
6.54295146065e-11
6.46132853354e-11
1.39411284669e-10
1.16613163849e-10
3.68277083302e-10
3.91623983641e-10
2.29483225686e-11
1.23517325351e-10
8.95158811095e-11
2.41274913124e-10
3.93858834793e-10
1.65012984213e-10
2.32374993119e-11
2.38719777602e-10
2.10652270225e-10
1.02973077485e-10
9.56164322015e-12
8.05630544237e-11
1.84203754815e-10
2.34919888955e-10
8.2877749004e-11
1.98494564791e-11
1.03687610383e-11
8.0759989777e-11
4.57987051976e-11
9.89700467931e-11
1.21348450789e-10
1.96502411664e-10
1.2335564849e-12
1.52870710273e-10
2.79386722259e-10
3.00886410828e-10
5.83849723613e-09
6.34611050384e-09
8.33682515064e-09
6.33954985141e-09
7.1774859028e-09
1.13981010236e-09
1.17405529364e-08
1.50764763518e-08
6.73690847554e-09
4.74604867259e-09
3.67791573167e-10
1.9029691388e-08
1.72470460796e-08
1.93903855195e-10
8.40437680401e-11
2.43608068797e-10
2.76875395849e-11
1.46986726964e-10
8.66194112269e-11
1.08162236396e-10
2.21849080515e-11
2.05624851916e-10
7.93088654306e-11
7.9806332723e-11
1.36137888241e-11
1.12056423569e-10
3.42830107283e-10
1.70230410877e-10
3.71821251224e-12
2.30748051237e-10

