# vtk DataFile Version 3.0
File Name: Molecule/methanol/methanol_4.0-0.vtk
ASCII
DATASET UNSTRUCTURED_GRID
FIELD FieldData 1
TIME 1 1 double
0.0
POINTS 181 double
1.611 0.0 -0.359
1.51 -0.576 -0.349
1.403 0.0 -0.933
1.311 -0.525 -0.924
1.219 -1.083 -0.32
1.046 -0.986 -0.897
0.773 -1.459 -0.275
0.639 -1.329 -0.857
0.226 -1.659 -0.221
0.141 -1.511 -0.807
-0.356 -1.659 -0.163
-0.389 -1.511 -0.754
-0.903 -1.459 -0.108
-0.887 -1.329 -0.705
-1.349 -1.083 -0.064
-1.294 -0.986 -0.664
-1.64 -0.576 -0.035
-1.559 -0.525 -0.638
-1.742 -0.0 -0.025
-1.651 -0.0 -0.629
-1.64 0.576 -0.035
-1.559 0.525 -0.638
-1.349 1.083 -0.064
-1.294 0.986 -0.664
-0.903 1.459 -0.108
-0.887 1.329 -0.705
-0.356 1.659 -0.163
-0.389 1.511 -0.754
0.226 1.659 -0.221
0.141 1.511 -0.807
0.773 1.459 -0.275
0.639 1.329 -0.857
1.219 1.083 -0.32
1.046 0.986 -0.897
1.51 0.576 -0.349
1.311 0.525 -0.924
1.907 0.0 0.656
1.83 0.532 0.656
1.83 0.266 1.116
1.83 -0.266 1.116
1.83 -0.532 0.656
1.83 -0.266 0.195
1.83 0.266 0.195
1.607 0.884 1.166
1.607 0.51 1.539
1.607 -0.0 1.676
1.607 -0.51 1.539
1.607 -0.884 1.166
1.607 -1.02 0.656
1.607 -0.884 0.145
1.607 0.884 0.145
1.607 1.02 0.656
1.255 1.33 1.171
1.255 1.054 1.617
1.255 0.636 1.933
1.255 0.132 2.076
1.255 -0.39 2.028
1.255 -0.86 1.794
1.255 -1.213 1.407
1.255 -1.402 0.918
1.255 -1.402 0.393
1.255 1.33 0.14
1.255 1.426 0.656
0.803 1.633 1.186
0.803 1.389 1.665
0.803 1.009 2.045
0.803 0.531 2.288
0.803 -0.0 2.373
0.803 -0.531 2.288
0.803 -1.009 2.045
0.803 -1.389 1.665
0.803 -1.633 1.186
0.803 -1.717 0.656
0.803 -1.633 0.125
0.803 1.633 0.125
0.803 1.717 0.656
0.288 1.793 1.182
0.288 1.572 1.666
0.288 1.223 2.068
0.288 0.776 2.355
0.288 0.266 2.505
0.288 -0.266 2.505
0.288 -0.776 2.355
0.288 -1.223 2.068
0.288 -1.572 1.666
0.288 -1.793 1.182
0.288 -1.868 0.656
0.288 -1.793 0.129
0.288 1.793 0.129
0.288 1.868 0.656
-0.25 1.793 1.182
-0.25 1.572 1.666
-0.25 1.223 2.068
-0.25 0.776 2.355
-0.25 0.266 2.505
-0.25 -0.266 2.505
-0.25 -0.776 2.355
-0.25 -1.223 2.068
-0.25 -1.572 1.666
-0.25 -1.793 1.182
-0.25 -1.868 0.656
-0.25 -1.793 0.129
-0.25 1.793 0.129
-0.25 1.868 0.656
-0.765 1.717 0.656
-0.765 1.633 1.186
-0.765 1.389 1.665
-0.765 1.009 2.045
-0.765 0.531 2.288
-0.765 -0.0 2.373
-0.765 -0.531 2.288
-0.765 -1.009 2.045
-0.765 -1.389 1.665
-0.765 -1.633 1.186
-0.765 -1.717 0.656
-1.217 1.426 0.656
-1.217 1.33 1.171
-1.217 1.054 1.617
-1.217 0.636 1.933
-1.217 0.132 2.076
-1.217 -0.39 2.028
-1.217 -0.86 1.794
-1.217 -1.213 1.407
-1.217 -1.402 0.918
-1.217 -1.402 0.393
-1.569 1.02 0.656
-1.569 0.884 1.166
-1.569 0.51 1.539
-1.569 -0.0 1.676
-1.569 -0.51 1.539
-1.569 -0.884 1.166
-1.569 -1.02 0.656
-1.792 0.532 0.656
-1.792 0.266 1.116
-1.792 -0.266 1.116
-1.792 -0.532 0.656
-1.868 0.0 0.656
1.323 -0.263 -1.192
1.056 -0.854 -1.231
1.056 -0.493 -1.592
1.056 -0.0 -1.724
1.323 0.263 -1.192
1.056 0.493 -1.592
1.056 0.854 -1.231
0.648 -1.228 -1.246
0.648 -0.94 -1.677
0.648 -0.509 -1.965
0.648 0.0 -2.067
0.648 0.509 -1.965
0.648 0.94 -1.677
0.648 1.228 -1.246
0.147 -1.421 -1.254
0.147 -1.158 -1.709
0.147 -0.756 -2.046
0.147 -0.263 -2.226
0.147 0.262 -2.226
0.147 0.756 -2.046
0.147 1.158 -1.709
0.147 1.421 -1.254
-0.386 -1.421 -1.254
-0.386 -1.158 -1.709
-0.386 -0.756 -2.046
-0.386 -0.263 -2.226
-0.386 0.262 -2.226
-0.386 0.756 -2.046
-0.386 1.158 -1.709
-0.386 1.421 -1.254
-0.887 -1.228 -1.246
-0.887 -0.94 -1.677
-0.887 -0.509 -1.965
-0.887 0.0 -2.067
-0.887 0.509 -1.965
-0.887 0.94 -1.677
-0.887 1.228 -1.246
-1.296 -0.854 -1.231
-1.296 -0.493 -1.592
-1.296 -0.0 -1.724
-1.296 0.493 -1.592
-1.296 0.854 -1.231
-1.562 -0.263 -1.192
-1.562 0.263 -1.192

CELLS 358 1432
3 0 1 2
3 2 1 3
3 1 4 3
3 3 4 5
3 4 6 5
3 5 6 7
3 6 8 7
3 7 8 9
3 8 10 9
3 9 10 11
3 10 12 11
3 11 12 13
3 12 14 13
3 13 14 15
3 14 16 15
3 15 16 17
3 16 18 17
3 17 18 19
3 18 20 19
3 19 20 21
3 20 22 21
3 21 22 23
3 22 24 23
3 23 24 25
3 24 26 25
3 25 26 27
3 26 28 27
3 27 28 29
3 28 30 29
3 29 30 31
3 30 32 31
3 31 32 33
3 32 34 33
3 33 34 35
3 34 0 35
3 35 0 2
3 36 37 38
3 36 38 39
3 36 39 40
3 36 40 41
3 36 41 42
3 36 42 37
3 38 37 43
3 38 43 44
3 38 44 45
3 39 38 45
3 39 45 46
3 39 46 47
3 40 39 47
3 40 47 48
3 40 48 49
3 41 40 49
3 37 42 50
3 37 50 51
3 37 51 43
3 43 51 52
3 43 52 53
3 44 43 53
3 44 53 54
3 44 54 55
3 45 44 55
3 45 55 56
3 46 45 56
3 46 56 57
3 47 46 57
3 47 57 58
3 47 58 59
3 48 47 59
3 48 59 60
3 49 48 60
3 51 50 61
3 51 61 62
3 51 62 52
3 52 62 63
3 52 63 64
3 53 52 64
3 53 64 65
3 54 53 65
3 54 65 66
3 55 54 66
3 55 66 67
3 56 55 67
3 56 67 68
3 57 56 68
3 57 68 69
3 57 69 70
3 58 57 70
3 58 70 71
3 59 58 71
3 59 71 72
3 60 59 72
3 60 72 73
3 62 61 74
3 62 74 75
3 62 75 63
3 63 75 76
3 63 76 77
3 64 63 77
3 64 77 78
3 65 64 78
3 65 78 79
3 66 65 79
3 66 79 80
3 67 66 80
3 67 80 81
3 68 67 81
3 68 81 82
3 69 68 82
3 69 82 83
3 70 69 83
3 70 83 84
3 71 70 84
3 71 84 85
3 72 71 85
3 72 85 86
3 72 86 87
3 73 72 87
3 75 74 88
3 75 88 89
3 75 89 76
3 76 89 90
3 76 90 91
3 77 76 91
3 77 91 92
3 78 77 92
3 78 92 93
3 79 78 93
3 79 93 94
3 80 79 94
3 80 94 95
3 81 80 95
3 81 95 96
3 82 81 96
3 82 96 97
3 83 82 97
3 83 97 98
3 84 83 98
3 84 98 99
3 85 84 99
3 85 99 100
3 86 85 100
3 86 100 101
3 87 86 101
3 89 88 102
3 89 102 103
3 89 103 90
3 90 103 104
3 90 104 105
3 91 90 105
3 91 105 106
3 92 91 106
3 92 106 107
3 93 92 107
3 93 107 108
3 94 93 108
3 94 108 109
3 95 94 109
3 95 109 110
3 96 95 110
3 96 110 111
3 97 96 111
3 97 111 112
3 98 97 112
3 98 112 113
3 99 98 113
3 99 113 114
3 100 99 114
3 101 100 114
3 103 102 104
3 105 104 115
3 105 115 116
3 106 105 116
3 106 116 117
3 107 106 117
3 107 117 118
3 108 107 118
3 108 118 119
3 109 108 119
3 109 119 120
3 110 109 120
3 110 120 121
3 111 110 121
3 112 111 121
3 112 121 122
3 113 112 122
3 113 122 123
3 114 113 123
3 114 123 124
3 116 115 125
3 116 125 126
3 117 116 126
3 117 126 127
3 118 117 127
3 119 118 127
3 119 127 128
3 120 119 128
3 120 128 129
3 121 120 129
3 121 129 130
3 122 121 130
3 123 122 130
3 123 130 131
3 124 123 131
3 126 125 132
3 126 132 133
3 127 126 133
3 128 127 133
3 128 133 134
3 129 128 134
3 130 129 134
3 130 134 135
3 131 130 135
3 133 132 136
3 134 133 136
3 135 134 136
3 135 136 18
3 135 18 16
3 135 16 131
3 131 16 14
3 131 14 124
3 124 14 12
3 124 12 114
3 114 12 101
3 101 12 10
3 101 10 8
3 101 8 87
3 87 8 73
3 73 8 6
3 73 6 4
3 73 4 60
3 60 4 49
3 49 4 1
3 49 1 41
3 41 1 0
3 41 0 42
3 42 0 34
3 42 34 50
3 50 34 32
3 50 32 61
3 61 32 30
3 61 30 74
3 74 30 28
3 74 28 88
3 88 28 102
3 102 28 26
3 102 26 24
3 102 24 104
3 104 24 115
3 115 24 22
3 115 22 125
3 125 22 20
3 125 20 132
3 132 20 18
3 132 18 136
3 137 138 139
3 137 139 140
3 141 137 140
3 141 140 142
3 141 142 143
3 138 144 145
3 139 138 145
3 139 145 146
3 140 139 146
3 140 146 147
3 140 147 148
3 142 140 148
3 142 148 149
3 143 142 149
3 143 149 150
3 144 151 152
3 145 144 152
3 145 152 153
3 146 145 153
3 146 153 154
3 147 146 154
3 147 154 155
3 148 147 155
3 148 155 156
3 149 148 156
3 149 156 157
3 150 149 157
3 150 157 158
3 151 159 160
3 152 151 160
3 153 152 160
3 153 160 161
3 153 161 162
3 154 153 162
3 154 162 163
3 155 154 163
3 155 163 164
3 156 155 164
3 156 164 165
3 157 156 165
3 157 165 166
3 158 157 166
3 160 159 167
3 160 167 168
3 161 160 168
3 161 168 169
3 162 161 169
3 162 169 170
3 163 162 170
3 163 170 171
3 164 163 171
3 164 171 172
3 165 164 172
3 165 172 173
3 166 165 173
3 168 167 174
3 168 174 175
3 169 168 175
3 169 175 176
3 170 169 176
3 171 170 176
3 171 176 177
3 172 171 177
3 172 177 178
3 173 172 178
3 175 174 179
3 176 175 179
3 176 179 180
3 177 176 180
3 178 177 180
3 178 180 21
3 178 21 23
3 178 23 173
3 173 23 25
3 173 25 166
3 166 25 27
3 166 27 29
3 166 29 158
3 158 29 31
3 158 31 150
3 150 31 33
3 150 33 143
3 143 33 35
3 143 35 141
3 141 35 2
3 141 2 137
3 137 2 3
3 137 3 138
3 138 3 5
3 138 5 144
3 144 5 7
3 144 7 151
3 151 7 9
3 151 9 159
3 159 9 11
3 159 11 13
3 159 13 167
3 167 13 15
3 167 15 174
3 174 15 17
3 174 17 179
3 179 17 19
3 179 19 180
3 180 19 21

CELL_TYPES 358
5
5
5
5
5
5
5
5
5
5
5
5
5
5
5
5
5
5
5
5
5
5
5
5
5
5
5
5
5
5
5
5
5
5
5
5
5
5
5
5
5
5
5
5
5
5
5
5
5
5
5
5
5
5
5
5
5
5
5
5
5
5
5
5
5
5
5
5
5
5
5
5
5
5
5
5
5
5
5
5
5
5
5
5
5
5
5
5
5
5
5
5
5
5
5
5
5
5
5
5
5
5
5
5
5
5
5
5
5
5
5
5
5
5
5
5
5
5
5
5
5
5
5
5
5
5
5
5
5
5
5
5
5
5
5
5
5
5
5
5
5
5
5
5
5
5
5
5
5
5
5
5
5
5
5
5
5
5
5
5
5
5
5
5
5
5
5
5
5
5
5
5
5
5
5
5
5
5
5
5
5
5
5
5
5
5
5
5
5
5
5
5
5
5
5
5
5
5
5
5
5
5
5
5
5
5
5
5
5
5
5
5
5
5
5
5
5
5
5
5
5
5
5
5
5
5
5
5
5
5
5
5
5
5
5
5
5
5
5
5
5
5
5
5
5
5
5
5
5
5
5
5
5
5
5
5
5
5
5
5
5
5
5
5
5
5
5
5
5
5
5
5
5
5
5
5
5
5
5
5
5
5
5
5
5
5
5
5
5
5
5
5
5
5
5
5
5
5
5
5
5
5
5
5
5
5
5
5
5
5
5
5
5
5
5
5
5
5
5
5
5
5
5
5
5
5
5
5
5
5
5
5
5
5
5
5
5
5
5
5
5
5
5
5
5
5
5
5
5
5
5
5
5
5
5
5
5
5

CELL_DATA 358
SCALARS cell_data_0 double
LOOKUP_TABLE default
1.37518475265e-08
3.76292887838e-08
3.86909826222e-08
1.34429837993e-08
3.56245232763e-10
3.72174378478e-10
1.78480854152e-10
1.60230469898e-11
4.16762272208e-11
3.39547746725e-10
5.28653578891e-10
4.3845597561e-10
3.67595087934e-10
4.76888991335e-10
9.97508703589e-11
1.8426703867e-10
3.54722092903e-10
9.59882045329e-10
5.26250571218e-10
5.19082950156e-10
1.10261454149e-10
3.95166132375e-10
5.70661292506e-12
5.0378068547e-10
4.05326894128e-10
4.08256679538e-10
3.80604687105e-10
1.96885563391e-11
1.09344420417e-10
2.3308755643e-11
2.78174330351e-10
3.74153741404e-10
1.95317128083e-09
6.8236606812e-09
9.76849512769e-09
8.26514580132e-09
1.9914512961e-10
1.68302406083e-11
4.72181001479e-10
4.420794456e-10
4.6055338614e-11
2.37461943747e-10
1.0237598899e-11
2.23055251793e-11
1.54127383889e-10
6.92317118327e-11
2.14544653807e-10
1.15588470637e-11
7.31265906947e-10
5.76901317363e-11
3.20663186134e-10
2.86810240231e-10
3.09839092164e-11
3.4190022928e-11
1.8865293496e-11
1.48448380231e-11
1.57011380757e-11
1.80884428701e-11
1.30241157323e-11
1.77449391262e-11
1.2007924068e-10
8.09392311906e-11
3.67588254816e-11
7.90901100113e-11
2.32667103852e-10
2.90922808483e-10
3.60347699434e-10
2.35917852772e-10
5.87891886874e-10
9.29922798687e-10
9.28603206283e-11
7.3052898588e-11
1.6330235768e-11
4.23171125033e-12
1.6566879514e-11
1.20565070726e-13
9.84974601775e-12
9.92709158831e-12
2.65498230977e-11
2.82251911368e-11
3.54386435132e-12
2.39227361514e-11
1.72323984158e-11
7.1068761845e-11
4.81107175084e-11
3.73467754724e-11
1.18256904016e-11
6.48611794119e-11
2.03102488625e-10
2.7232222315e-11
1.57581570057e-10
2.26737596527e-10
7.96957835731e-11
1.84241423555e-11
8.90299150511e-12
5.88584739205e-13
1.86073150493e-13
1.82842132368e-12
2.89192472874e-13
2.52691200684e-11
2.63502611353e-14
2.02516896616e-11
1.78430354666e-12
2.83869153445e-11
4.72247803774e-12
4.31440674806e-12
1.88353997477e-12
6.76538423424e-12
3.2833023002e-11
1.75256171075e-11
2.83464973304e-11
5.19397283258e-11
1.51425448395e-11
6.09227452687e-11
2.09203352922e-11
6.18448028613e-11
3.24765726962e-11
1.14600905889e-13
7.62837568056e-12
1.45429598459e-11
1.28182424467e-11
1.54383116414e-12
3.08780004854e-11
3.33854136299e-12
3.89488708663e-11
1.18543971668e-11
4.75934772048e-12
5.74608194915e-12
1.9487998115e-11
3.78754103401e-12
9.07586235778e-12
7.0183437942e-12
4.81946119156e-12
4.98415245728e-11
7.79158741332e-12
9.76883818909e-12
1.62875302803e-11
1.76682990347e-12
1.45089140991e-11
4.46155027034e-11
1.14079116445e-10
2.40721175031e-10
1.68905458934e-10
2.63265622155e-11
2.70933441474e-11
3.410547949e-11
1.49755749954e-11
1.92448478227e-11
7.83233207327e-11
3.31716008405e-11
8.64325333323e-11
6.22921294052e-11
4.70243247828e-11
4.80579935676e-11
8.19033957758e-12
3.52114722175e-11
8.80721129509e-13
2.37738214353e-11
1.72941432091e-11
2.78761453804e-11
5.70034838812e-11
2.88335049946e-12
2.78813563825e-12
4.27859240438e-11
1.38695626832e-11
3.82132624481e-14
8.15532746004e-11
2.98489228849e-10
6.35731819826e-12
9.58140302223e-11
1.72738924735e-11
1.2176312368e-11
5.48419490158e-11
9.90493742173e-11
7.36871204839e-12
7.68967528974e-11
4.75060443719e-11
1.18419442088e-11
6.4505070488e-11
3.01010342986e-11
4.30210101266e-11
1.0904161549e-11
4.29842833844e-11
5.73892377364e-11
3.53654446015e-11
5.97958408037e-11
7.71446935319e-11
6.25729115893e-11
1.06614472289e-10
1.2264302403e-10
5.13136619537e-11
5.36187729065e-11
6.77355991579e-11
5.68261577307e-12
6.22279711538e-11
2.16124900682e-11
5.89559482583e-11
2.7968364218e-11
2.32971156162e-11
3.63294718074e-11
1.05337197477e-10
1.71704230576e-10
1.32015307137e-10
1.37714137211e-10
9.46494750844e-11
9.1695278871e-11
3.6032409225e-11
1.00932019163e-10
4.07539359988e-11
8.2293376959e-11
9.62123788692e-11
1.68025603104e-10
2.74379059791e-10
4.43850943502e-11
2.33092517321e-10
7.79249536546e-10
5.96913620997e-10
8.97287726634e-10
6.6727001763e-10
7.0658246196e-10
4.71510069533e-10
5.76122009755e-10
4.82090819891e-10
4.1145273793e-11
5.97613680233e-11
2.12268247821e-10
9.55077756308e-11
1.47054294855e-11
1.64773954062e-10
7.33247057462e-10
8.71017129738e-10
1.16634734896e-08
1.50723058559e-08
1.47409220188e-08
1.24408557952e-09
1.80335968857e-09
7.0533499657e-10
9.44616681766e-11
3.87556790173e-10
2.18066361075e-10
8.44749093224e-12
1.8624140163e-11
2.46406745117e-11
8.12335478317e-11
2.75693835057e-10
1.95788271394e-10
2.49371626008e-11
5.6895155606e-10
8.30284374689e-10
7.70753467558e-10
7.58111257926e-10
8.27586618766e-10
5.57557097924e-10
8.34307983476e-10
2.54858365724e-08
8.24716345573e-08
8.11754204705e-08
1.65343965211e-08
1.91664250793e-08
5.06258513814e-09
7.9347990944e-09
2.65258268071e-09
3.34385898483e-08
1.693278945e-08
1.62464478924e-08
1.76495515683e-08
6.80722113595e-09
1.17324409441e-08
1.42305808938e-09
8.65448657273e-11
4.65352147764e-10
2.25410198572e-10
2.75384078259e-11
4.6117276223e-10
4.99301070412e-09
2.42142081631e-09
5.27986747617e-09
6.12042353167e-10
2.4113715565e-11
2.65683874822e-10
5.39186363094e-10
1.80293809779e-10
4.17529623543e-10
6.30383441259e-10
3.80516353881e-10
1.62340929791e-10
4.26674463809e-10
8.58630064499e-10
1.11596930876e-10
1.0622497339e-09
1.57315896671e-10
7.37914128493e-10
1.34268734747e-10
2.65873563325e-10
5.87084274673e-10
7.79018041435e-10
2.19774309958e-10
5.78202707003e-10
6.2324722206e-12
4.47313295074e-13
1.01467549964e-09
1.49655977338e-10
1.22868608577e-09
9.72219480859e-11
1.53263792639e-09
2.86137725932e-10
2.6320930285e-11
7.7710085793e-10
2.92520221343e-10
1.87013586347e-10
4.01115130248e-10
7.94873986225e-10
5.03759191293e-11
5.60438245862e-10
1.0708138361e-09
2.08569703056e-10
1.19078921803e-09
3.24683391621e-10
2.60259031816e-10
1.59068226105e-10
5.85121624682e-11
3.30233812148e-11
2.35174742964e-10
9.70010708753e-11
3.80179190014e-10
9.71235488681e-10
8.35262315591e-10
6.89412720793e-10
1.98707216766e-10
1.53130013425e-11
3.19050337139e-10
1.1893053762e-10
2.16363989316e-10
4.94978082711e-12
6.469442318e-10
1.38391857159e-09
8.61111956658e-09
1.43009979304e-08
5.75483132257e-09
1.68309603979e-08
1.01904083623e-08
2.06983614542e-09
1.75404523269e-08
4.5991903435e-09
7.82832792119e-11
1.67893692479e-10
2.77068434152e-11
3.61733424735e-10
8.78965873669e-11
3.12645909284e-10
1.73320441116e-10
3.23922416561e-10
3.81202672479e-10
7.67148615019e-10
5.37555655937e-10
4.05498604018e-10
1.74827668154e-10
3.24085754391e-10

