# vtk DataFile Version 3.0
File Name: Molecule/methanol/methanol_4.5-0.vtk
ASCII
DATASET UNSTRUCTURED_GRID
FIELD FieldData 1
TIME 1 1 double
0.0
POINTS 216 double
1.611 0.0 -0.359
1.529 -0.521 -0.351
1.403 0.0 -0.933
1.328 -0.474 -0.925
1.291 -0.99 -0.327
1.111 -0.902 -0.904
0.92 -1.363 -0.29
0.773 -1.241 -0.87
0.453 -1.602 -0.243
0.348 -1.459 -0.828
-0.065 -1.684 -0.192
-0.124 -1.534 -0.781
-0.583 -1.602 -0.14
-0.596 -1.459 -0.734
-1.051 -1.363 -0.094
-1.021 -1.241 -0.691
-1.421 -0.99 -0.057
-1.359 -0.902 -0.658
-1.659 -0.521 -0.033
-1.576 -0.474 -0.636
-1.742 0.0 -0.025
-1.651 0.0 -0.629
-1.659 0.521 -0.033
-1.576 0.474 -0.636
-1.421 0.99 -0.057
-1.359 0.902 -0.658
-1.051 1.363 -0.094
-1.021 1.241 -0.691
-0.583 1.602 -0.14
-0.596 1.459 -0.734
-0.065 1.684 -0.192
-0.124 1.534 -0.781
0.453 1.602 -0.243
0.348 1.459 -0.828
0.92 1.363 -0.29
0.773 1.241 -0.87
1.291 0.99 -0.327
1.111 0.902 -0.904
1.529 0.521 -0.351
1.328 0.474 -0.925
1.907 0.0 0.656
1.842 0.489 0.656
1.842 0.244 1.079
1.842 -0.244 1.079
1.842 -0.489 0.656
1.842 -0.244 0.233
1.842 0.244 0.233
1.654 0.817 1.127
1.654 0.472 1.473
1.654 -0.0 1.599
1.654 -0.472 1.473
1.654 -0.817 1.127
1.654 -0.944 0.656
1.654 -0.817 0.184
1.654 0.817 0.184
1.654 0.944 0.656
1.354 1.245 1.138
1.354 0.986 1.555
1.354 0.595 1.85
1.354 0.123 1.985
1.354 -0.365 1.939
1.354 -0.804 1.721
1.354 -1.135 1.358
1.354 -1.312 0.901
1.354 -1.312 0.41
1.354 -1.135 -0.047
1.354 1.245 0.173
1.354 1.335 0.656
0.963 1.562 1.137
0.963 1.351 1.576
0.963 1.019 1.934
0.963 0.597 2.177
0.963 0.122 2.286
0.963 -0.364 2.249
0.963 -0.817 2.071
0.963 -1.198 1.767
0.963 -1.473 1.365
0.963 -1.616 0.899
0.963 -1.616 0.412
0.963 -1.473 -0.054
0.963 1.562 0.174
0.963 1.635 0.656
0.508 1.761 1.127
0.508 1.579 1.567
0.508 1.289 1.945
0.508 0.912 2.235
0.508 0.472 2.417
0.508 0.0 2.479
0.508 -0.472 2.417
0.508 -0.912 2.235
0.508 -1.289 1.945
0.508 -1.579 1.567
0.508 -1.761 1.127
0.508 -1.823 0.656
0.508 -1.761 0.184
0.508 1.761 0.184
0.508 1.823 0.656
0.019 1.828 1.125
0.019 1.654 1.565
0.019 1.376 1.948
0.019 1.011 2.249
0.019 0.583 2.451
0.019 0.119 2.539
0.019 -0.354 2.51
0.019 -0.804 2.363
0.019 -1.203 2.11
0.019 -1.527 1.765
0.019 -1.755 1.35
0.019 -1.873 0.892
0.019 -1.873 0.419
0.019 1.828 0.186
0.019 1.888 0.656
-0.47 1.823 0.656
-0.47 1.761 1.127
-0.47 1.579 1.567
-0.47 1.289 1.945
-0.47 0.912 2.235
-0.47 0.472 2.417
-0.47 0.0 2.479
-0.47 -0.472 2.417
-0.47 -0.912 2.235
-0.47 -1.289 1.945
-0.47 -1.579 1.567
-0.47 -1.761 1.127
-0.47 -1.823 0.656
-0.47 -1.761 0.184
-0.47 1.761 0.184
-0.925 1.635 0.656
-0.925 1.562 1.137
-0.925 1.351 1.576
-0.925 1.019 1.934
-0.925 0.597 2.177
-0.925 0.122 2.286
-0.925 -0.364 2.249
-0.925 -0.817 2.071
-0.925 -1.198 1.767
-0.925 -1.473 1.365
-0.925 -1.616 0.899
-0.925 -1.616 0.412
-0.925 1.562 0.174
-1.316 1.335 0.656
-1.316 1.245 1.138
-1.316 0.986 1.555
-1.316 0.595 1.85
-1.316 0.123 1.985
-1.316 -0.365 1.939
-1.316 -0.804 1.721
-1.316 -1.135 1.358
-1.316 -1.312 0.901
-1.316 -1.312 0.41
-1.316 1.245 0.173
-1.616 0.944 0.656
-1.616 0.817 1.127
-1.616 0.472 1.473
-1.616 -0.0 1.599
-1.616 -0.472 1.473
-1.616 -0.817 1.127
-1.616 -0.944 0.656
-1.804 0.489 0.656
-1.804 0.244 1.079
-1.804 -0.244 1.079
-1.804 -0.489 0.656
-1.868 0.0 0.656
-1.804 -0.244 0.233
-1.804 0.244 0.233
1.122 -0.591 -1.419
0.783 -1.147 -1.212
0.783 -0.878 -1.615
0.783 -0.475 -1.885
1.122 -0.128 -1.63
0.783 0.0 -1.979
1.122 0.375 -1.558
0.783 0.475 -1.885
0.783 0.878 -1.615
1.122 0.759 -1.225
0.783 1.147 -1.212
0.355 -1.284 -1.432
0.355 -0.989 -1.811
0.355 -0.586 -2.074
0.355 -0.121 -2.192
0.355 0.358 -2.152
0.355 0.798 -1.959
0.355 1.152 -1.634
0.355 1.381 -1.211
-0.12 -1.46 -1.212
-0.12 -1.242 -1.639
-0.12 -0.902 -1.979
-0.12 -0.474 -2.197
-0.12 0.0 -2.272
-0.12 0.474 -2.197
-0.12 0.902 -1.979
-0.12 1.242 -1.639
-0.12 1.46 -1.212
-0.594 -1.44 -0.977
-0.594 -1.284 -1.432
-0.594 -0.989 -1.811
-0.594 -0.586 -2.074
-0.594 -0.121 -2.192
-0.594 0.358 -2.152
-0.594 0.798 -1.959
-0.594 1.152 -1.634
-0.594 1.381 -1.211
-1.022 -1.147 -1.212
-1.022 -0.878 -1.615
-1.022 -0.475 -1.885
-1.022 0.0 -1.979
-1.022 0.475 -1.885
-1.022 0.878 -1.615
-1.022 1.147 -1.212
-1.362 -0.866 -0.991
-1.362 -0.591 -1.419
-1.362 -0.128 -1.63
-1.362 0.375 -1.558
-1.362 0.759 -1.225
-1.58 -0.237 -1.148
-1.58 0.237 -1.148

CELLS 428 1712
3 0 1 2
3 2 1 3
3 1 4 3
3 3 4 5
3 4 6 5
3 5 6 7
3 6 8 7
3 7 8 9
3 8 10 9
3 9 10 11
3 10 12 11
3 11 12 13
3 12 14 13
3 13 14 15
3 14 16 15
3 15 16 17
3 16 18 17
3 17 18 19
3 18 20 19
3 19 20 21
3 20 22 21
3 21 22 23
3 22 24 23
3 23 24 25
3 24 26 25
3 25 26 27
3 26 28 27
3 27 28 29
3 28 30 29
3 29 30 31
3 30 32 31
3 31 32 33
3 32 34 33
3 33 34 35
3 34 36 35
3 35 36 37
3 36 38 37
3 37 38 39
3 38 0 39
3 39 0 2
3 40 41 42
3 40 42 43
3 40 43 44
3 40 44 45
3 40 45 46
3 40 46 41
3 42 41 47
3 42 47 48
3 42 48 49
3 43 42 49
3 43 49 50
3 43 50 51
3 44 43 51
3 44 51 52
3 44 52 53
3 45 44 53
3 41 46 54
3 41 54 55
3 41 55 47
3 47 55 56
3 47 56 57
3 48 47 57
3 48 57 58
3 48 58 59
3 49 48 59
3 49 59 60
3 50 49 60
3 50 60 61
3 51 50 61
3 51 61 62
3 51 62 63
3 52 51 63
3 52 63 64
3 53 52 64
3 53 64 65
3 55 54 66
3 55 66 67
3 55 67 56
3 56 67 68
3 56 68 69
3 57 56 69
3 57 69 70
3 58 57 70
3 58 70 71
3 59 58 71
3 59 71 72
3 59 72 73
3 60 59 73
3 60 73 74
3 61 60 74
3 61 74 75
3 62 61 75
3 62 75 76
3 63 62 76
3 63 76 77
3 63 77 78
3 64 63 78
3 64 78 79
3 65 64 79
3 67 66 80
3 67 80 81
3 67 81 68
3 68 81 82
3 68 82 83
3 69 68 83
3 69 83 84
3 70 69 84
3 70 84 85
3 71 70 85
3 71 85 86
3 72 71 86
3 72 86 87
3 73 72 87
3 73 87 88
3 74 73 88
3 74 88 89
3 74 89 90
3 75 74 90
3 75 90 91
3 76 75 91
3 76 91 92
3 77 76 92
3 77 92 93
3 78 77 93
3 78 93 94
3 79 78 94
3 81 80 95
3 81 95 96
3 81 96 82
3 82 96 97
3 82 97 98
3 83 82 98
3 83 98 99
3 84 83 99
3 84 99 100
3 85 84 100
3 85 100 101
3 86 85 101
3 86 101 102
3 87 86 102
3 87 102 103
3 88 87 103
3 88 103 104
3 89 88 104
3 89 104 105
3 90 89 105
3 90 105 106
3 91 90 106
3 91 106 107
3 92 91 107
3 92 107 108
3 93 92 108
3 93 108 109
3 94 93 109
3 96 95 110
3 96 110 111
3 96 111 97
3 97 111 112
3 97 112 113
3 98 97 113
3 98 113 114
3 99 98 114
3 99 114 115
3 100 99 115
3 100 115 116
3 101 100 116
3 101 116 117
3 102 101 117
3 102 117 118
3 103 102 118
3 103 118 119
3 104 103 119
3 104 119 120
3 105 104 120
3 105 120 121
3 106 105 121
3 106 121 122
3 107 106 122
3 107 122 123
3 108 107 123
3 108 123 124
3 109 108 124
3 109 124 125
3 112 110 126
3 111 110 112
3 113 112 127
3 113 127 128
3 114 113 128
3 114 128 129
3 115 114 129
3 115 129 130
3 116 115 130
3 116 130 131
3 117 116 131
3 117 131 132
3 118 117 132
3 118 132 133
3 119 118 133
3 119 133 134
3 120 119 134
3 121 120 134
3 121 134 135
3 122 121 135
3 122 135 136
3 123 122 136
3 123 136 137
3 124 123 137
3 124 137 138
3 125 124 138
3 127 126 139
3 112 126 127
3 128 127 140
3 128 140 141
3 129 128 141
3 129 141 142
3 130 129 142
3 130 142 143
3 131 130 143
3 131 143 144
3 132 131 144
3 133 132 144
3 133 144 145
3 134 133 145
3 134 145 146
3 135 134 146
3 135 146 147
3 136 135 147
3 136 147 148
3 137 136 148
3 137 148 149
3 138 137 149
3 140 139 150
3 127 139 140
3 141 140 151
3 141 151 152
3 142 141 152
3 142 152 153
3 143 142 153
3 144 143 153
3 144 153 154
3 145 144 154
3 145 154 155
3 146 145 155
3 146 155 156
3 147 146 156
3 148 147 156
3 148 156 157
3 149 148 157
3 140 150 151
3 152 151 158
3 152 158 159
3 153 152 159
3 154 153 159
3 154 159 160
3 155 154 160
3 156 155 160
3 156 160 161
3 157 156 161
3 159 158 162
3 160 159 162
3 161 160 162
3 163 161 162
3 164 163 162
3 158 164 162
3 164 158 22
3 164 22 20
3 164 20 163
3 163 20 18
3 163 18 161
3 161 18 157
3 157 18 16
3 157 16 149
3 149 16 14
3 149 14 138
3 138 14 12
3 138 12 125
3 125 12 10
3 125 10 109
3 109 10 94
3 94 10 8
3 94 8 79
3 79 8 6
3 79 6 65
3 65 6 4
3 65 4 53
3 53 4 1
3 53 1 45
3 45 1 0
3 45 0 46
3 46 0 38
3 46 38 54
3 54 38 36
3 54 36 66
3 66 36 34
3 66 34 80
3 80 34 32
3 80 32 95
3 95 32 110
3 110 32 30
3 110 30 126
3 126 30 28
3 126 28 139
3 139 28 26
3 139 26 150
3 150 26 24
3 150 24 151
3 151 24 22
3 151 22 158
3 165 166 167
3 165 167 168
3 169 165 168
3 169 168 170
3 171 169 170
3 171 170 172
3 171 172 173
3 174 171 173
3 174 173 175
3 167 166 176
3 167 176 177
3 168 167 177
3 168 177 178
3 168 178 179
3 170 168 179
3 170 179 180
3 172 170 180
3 172 180 181
3 173 172 181
3 173 181 182
3 175 173 182
3 175 182 183
3 176 184 185
3 177 176 185
3 177 185 186
3 178 177 186
3 178 186 187
3 179 178 187
3 179 187 188
3 180 179 188
3 180 188 189
3 181 180 189
3 181 189 190
3 182 181 190
3 182 190 191
3 183 182 191
3 183 191 192
3 184 193 194
3 185 184 194
3 185 194 195
3 186 185 195
3 186 195 196
3 187 186 196
3 187 196 197
3 188 187 197
3 188 197 198
3 189 188 198
3 189 198 199
3 190 189 199
3 190 199 200
3 191 190 200
3 191 200 201
3 192 191 201
3 194 193 202
3 194 202 203
3 195 194 203
3 195 203 204
3 196 195 204
3 197 196 204
3 197 204 205
3 198 197 205
3 198 205 206
3 199 198 206
3 199 206 207
3 200 199 207
3 200 207 208
3 201 200 208
3 202 209 210
3 203 202 210
3 204 203 210
3 204 210 211
3 205 204 211
3 205 211 212
3 206 205 212
3 207 206 212
3 207 212 213
3 208 207 213
3 210 209 214
3 211 210 214
3 211 214 215
3 212 211 215
3 213 212 215
3 213 215 23
3 213 23 25
3 213 25 208
3 208 25 27
3 208 27 201
3 201 27 29
3 201 29 31
3 201 31 192
3 192 31 33
3 192 33 183
3 183 33 35
3 183 35 175
3 175 35 37
3 175 37 174
3 174 37 39
3 174 39 171
3 171 39 2
3 171 2 169
3 169 2 3
3 169 3 165
3 165 3 5
3 165 5 166
3 166 5 7
3 166 7 9
3 166 9 176
3 176 9 184
3 184 9 11
3 184 11 193
3 193 11 13
3 193 13 15
3 193 15 202
3 202 15 209
3 209 15 17
3 209 17 19
3 209 19 214
3 214 19 21
3 214 21 215
3 215 21 23

CELL_TYPES 428
5
5
5
5
5
5
5
5
5
5
5
5
5
5
5
5
5
5
5
5
5
5
5
5
5
5
5
5
5
5
5
5
5
5
5
5
5
5
5
5
5
5
5
5
5
5
5
5
5
5
5
5
5
5
5
5
5
5
5
5
5
5
5
5
5
5
5
5
5
5
5
5
5
5
5
5
5
5
5
5
5
5
5
5
5
5
5
5
5
5
5
5
5
5
5
5
5
5
5
5
5
5
5
5
5
5
5
5
5
5
5
5
5
5
5
5
5
5
5
5
5
5
5
5
5
5
5
5
5
5
5
5
5
5
5
5
5
5
5
5
5
5
5
5
5
5
5
5
5
5
5
5
5
5
5
5
5
5
5
5
5
5
5
5
5
5
5
5
5
5
5
5
5
5
5
5
5
5
5
5
5
5
5
5
5
5
5
5
5
5
5
5
5
5
5
5
5
5
5
5
5
5
5
5
5
5
5
5
5
5
5
5
5
5
5
5
5
5
5
5
5
5
5
5
5
5
5
5
5
5
5
5
5
5
5
5
5
5
5
5
5
5
5
5
5
5
5
5
5
5
5
5
5
5
5
5
5
5
5
5
5
5
5
5
5
5
5
5
5
5
5
5
5
5
5
5
5
5
5
5
5
5
5
5
5
5
5
5
5
5
5
5
5
5
5
5
5
5
5
5
5
5
5
5
5
5
5
5
5
5
5
5
5
5
5
5
5
5
5
5
5
5
5
5
5
5
5
5
5
5
5
5
5
5
5
5
5
5
5
5
5
5
5
5
5
5
5
5
5
5
5
5
5
5
5
5
5
5
5
5
5
5
5
5
5
5
5
5
5
5
5
5
5
5
5
5
5
5
5
5
5
5
5
5
5
5
5
5
5
5
5
5
5
5
5
5
5
5
5
5
5
5
5
5
5
5
5
5
5
5
5
5
5
5
5
5
5
5
5
5
5
5
5
5
5
5
5
5

CELL_DATA 428
SCALARS cell_data_0 double
LOOKUP_TABLE default
2.56098959687e-08
2.15076823975e-08
5.83039672084e-09
1.22945690877e-08
1.22146017292e-09
2.11489301532e-09
2.40758076856e-11
2.00055208633e-10
1.58402195516e-10
9.38261845791e-11
4.44263964433e-10
8.38231069532e-10
4.62083463732e-10
1.80465814911e-10
2.80063276843e-10
6.5007666666e-10
7.50923512705e-10
6.35991623059e-10
9.73711107062e-10
4.78887640157e-10
4.95404633984e-10
2.43114897915e-10
3.89962084204e-10
2.99190224472e-10
3.32597154406e-10
2.63234145683e-11
2.29795849721e-10
1.26008496494e-12
8.26490252986e-11
1.9265722892e-10
2.1193144086e-10
1.47872879399e-11
7.55882196362e-11
4.7514507959e-11
3.09219536224e-10
1.09115829853e-09
5.28443444308e-10
2.89320832761e-09
1.46921803579e-08
2.3207282877e-08
1.6019209269e-09
5.78328101079e-10
2.56540492276e-09
2.67127514096e-10
3.9302723395e-09
3.83469361468e-10
9.55428850729e-12
4.52410942631e-11
2.1110476075e-10
8.86370463556e-10
8.04278123159e-10
7.11524663621e-10
1.62084417367e-09
6.65804679708e-10
6.95527717809e-10
2.09350043771e-09
1.8918335846e-09
1.61301202225e-10
3.42267641656e-10
5.83647434594e-11
5.13510542653e-12
2.42978685478e-10
1.48021859205e-10
4.94433602268e-11
3.93365248449e-10
1.81666085278e-10
3.85653039422e-11
1.20801370859e-10
2.37900356673e-10
3.44335921775e-10
7.0934279427e-10
5.19901556214e-10
1.51657686834e-09
2.10831692698e-09
3.84468643058e-10
2.90969135471e-12
1.47785243105e-10
4.15468703483e-11
1.12762151424e-11
3.55641828629e-12
2.29479004922e-11
6.84584372926e-12
4.18490814392e-11
3.1419468795e-11
1.61389719664e-10
7.95983068286e-11
5.35302569676e-11
6.91907313594e-11
3.11378156456e-11
1.25338720364e-10
1.53889202502e-10
4.46465551481e-11
1.40718394907e-10
2.98798439745e-10
3.90655087303e-10
2.40731909261e-10
2.18601427972e-10
6.40464090024e-10
6.89737661126e-10
1.40944988719e-10
2.39812281709e-11
9.7520610713e-12
1.37557059969e-11
1.8517037297e-11
1.14513274829e-11
2.56327235998e-12
1.56043957226e-11
1.37773570496e-11
1.40605073536e-11
4.75504997938e-12
2.36555105986e-11
1.27395130946e-11
4.3126748028e-11
7.64888953574e-12
6.60292685612e-11
7.61089722826e-11
4.38682072788e-11
8.15648665552e-14
3.71343337204e-12
3.12202015625e-11
3.03194830118e-11
6.41069568999e-11
1.82444227143e-11
1.22827679502e-10
5.78566514867e-11
1.29073581992e-10
2.72431397384e-11
3.90212230975e-12
8.96608468526e-12
1.46223391397e-11
3.21798202043e-12
1.62498017368e-13
7.39577764436e-12
3.10872829454e-12
2.65422830761e-12
4.51325433817e-12
4.2050481371e-12
3.68507514085e-12
8.51620904601e-13
9.48333762266e-12
5.14431173134e-13
2.49303069279e-11
1.38468265651e-12
1.21803093309e-12
7.45764775304e-12
4.4864614199e-12
1.42851965688e-11
2.01843448958e-11
2.25961705204e-11
3.42693768875e-11
2.84013332776e-11
3.23244619755e-11
9.79564251265e-11
8.63170347025e-11
2.23199645272e-11
8.70255662502e-13
1.13941128714e-11
4.37538059942e-12
1.62487205425e-12
1.26695904823e-11
4.33424105771e-12
1.21260300714e-11
8.64510163995e-12
1.5951930975e-11
1.58479857641e-11
2.565746215e-12
4.86151022486e-12
7.85926301419e-12
7.77020779234e-12
1.00253656987e-11
3.95232428872e-12
1.5885471888e-11
9.83558788475e-12
4.54536407813e-13
3.447639485e-11
1.44408616374e-11
1.55319197615e-11
2.49733426491e-11
1.14629249709e-11
1.36473527592e-14
8.45426613004e-12
1.07248368433e-11
7.14676364379e-11
1.0181540949e-11
7.89317628771e-12
1.25108815447e-11
9.52817571684e-12
9.72826018552e-12
3.65145521876e-12
1.67984298339e-11
1.31783933755e-11
2.22989803903e-12
2.7946850798e-12
8.00298134931e-12
7.33595610091e-12
5.45954980327e-12
8.64211393801e-12
1.24544790429e-11
2.01469246564e-11
9.89117883299e-12
3.10105336608e-11
2.11982561704e-11
4.5073373267e-11
2.254123865e-11
3.12281204017e-11
2.28341000952e-11
4.33069634539e-11
3.99525473327e-11
1.48877567252e-10
1.43102065644e-10
2.28090860227e-12
6.76171709865e-11
7.803846601e-11
6.83822178413e-12
1.64177754439e-11
1.83538503856e-11
6.66812770998e-12
3.01086971908e-11
1.3292499704e-11
1.58704998666e-11
1.51690212962e-11
1.08148530845e-11
1.13073229798e-11
7.56957036163e-12
2.496611221e-11
2.80567075761e-11
3.59882810844e-11
4.64895028943e-11
7.16915489557e-11
1.23876649845e-10
1.41804438866e-10
2.00703911487e-10
8.07922417384e-11
1.52973503086e-11
1.6545748209e-11
4.36491911158e-11
3.35769133396e-11
2.90740264377e-11
1.06926965171e-11
1.56703061756e-11
2.8293120942e-11
4.3178858166e-12
2.37025681624e-11
2.26407345451e-11
2.8145498874e-11
1.03450571871e-10
7.62988960097e-11
1.15506984092e-10
2.92003564613e-10
1.09897112649e-10
2.66466493515e-11
5.00984769566e-11
2.33850637485e-12
9.35289097155e-12
4.2300608962e-12
4.28216462074e-11
4.10538087278e-11
1.58298011459e-10
3.73974546593e-10
1.94792204381e-10
3.2727567386e-10
1.05144670714e-10
3.87031536353e-10
9.03366233035e-10
7.0461909076e-10
3.23384362287e-11
2.58655109815e-10
6.82382826831e-10
1.56634029747e-10
7.45034427598e-10
7.70692744847e-10
6.5830926711e-10
3.21071391246e-10
4.04959071043e-10
1.95335563574e-10
2.57137475267e-10
1.32975014293e-10
3.0002771661e-10
1.54630806518e-10
4.77756421829e-11
3.77152837815e-11
2.84333092049e-11
4.67592136054e-11
6.93029283218e-10
6.39239307554e-10
6.69787543843e-09
1.53692812324e-08
1.08252552933e-09
1.82852460671e-09
1.14623883314e-08
3.98612162854e-09
3.7146436861e-10
3.36951260538e-11
1.06749325787e-10
6.31139972417e-11
1.02303493796e-11
9.03205468523e-12
2.44800410545e-11
5.37870696314e-11
3.32115812514e-11
7.1707820521e-11
1.27698075006e-10
5.15632239082e-11
1.88235359157e-10
7.45443368502e-11
5.85161736731e-10
5.48794933342e-10
7.84588250328e-10
7.81177078638e-09
1.68686952977e-08
1.45758175141e-08
3.90119583366e-09
5.70036071547e-09
1.27812718437e-08
1.11489539571e-08
1.6811702549e-08
9.84111327545e-09
5.87449340461e-09
1.08474824735e-08
1.12438767843e-08
1.11522984706e-08
1.69617748404e-08
1.27846497193e-08
1.49175395836e-09
8.32777851491e-09
1.63042128243e-09
7.80184204958e-09
5.45749672044e-10
5.90000733453e-10
1.70390700422e-10
9.0572129726e-11
3.82221327777e-10
2.98908350559e-10
5.16844640482e-10
4.03457284125e-10
3.0205807395e-10
4.73151331565e-10
6.84467066439e-10
6.40598610882e-10
1.34868206548e-10
3.315760242e-10
7.0053159183e-10
1.55558093785e-10
3.32496768304e-11
8.02561857061e-10
6.90465082371e-10
1.17841167114e-11
7.36230072268e-11
4.56632212852e-10
3.20275378403e-10
1.17276972428e-09
3.50099295351e-11
2.16738161435e-09
1.47200833877e-10
1.85597737844e-09
2.23887767432e-10
1.47499713337e-09
2.59795929038e-10
8.9117029594e-10
6.0008619558e-11
1.22604944125e-10
2.93400543185e-10
1.48998387033e-10
2.18601414839e-10
1.722024311e-10
4.95395048284e-10
1.5123414033e-09
3.67089694793e-10
1.75588146882e-09
5.16846812575e-11
9.98517307679e-10
1.67637615752e-10
1.1184560237e-09
5.14842073873e-10
1.09964533989e-10
1.13908643185e-10
8.30276788712e-11
2.29346431312e-10
1.74936054666e-10
5.0817547314e-10
1.42506485789e-10
9.72800337473e-10
1.06703912929e-10
4.05048955406e-10
1.0631954335e-10
3.63191095698e-11
1.8197165181e-10
7.01768756038e-11
7.73293977203e-10
5.71405883747e-11
7.43512940565e-10
3.86877255651e-10
2.64693004116e-10
1.51921709009e-10
1.94176721519e-10
1.14318801463e-10
3.24457522119e-10
3.14717577405e-10
5.20420852744e-10
2.67965364958e-10
4.21672498853e-10
4.20087258679e-10
9.02092204443e-10
4.71798567247e-09
7.79491896641e-09
1.04927354756e-08
5.44815931584e-09
7.96867578366e-09
2.35911490998e-08
1.08705150574e-08
1.50269521055e-08
4.55947431293e-08
1.97299952281e-08
1.65857999664e-08
2.60118851423e-08
2.00686644783e-10
8.97032004273e-11
3.60748486394e-10
4.95849891755e-11
1.13014129018e-10
3.92949493321e-10
7.15637220673e-11
2.33223558357e-10
1.86062650282e-10
9.23811548601e-12
1.89754820597e-10
1.43657853083e-11
9.12654367244e-11

