# vtk DataFile Version 3.0
File Name: Molecule/methanol/methanol_20.0-0.vtk
ASCII
DATASET UNSTRUCTURED_GRID
FIELD FieldData 1
TIME 1 1 double
0.0
POINTS 981 double
1.611 0.0 -0.359
1.594 -0.24 -0.357
1.475 0.0 -0.634
1.459 -0.224 -0.633
1.403 0.0 -0.933
1.387 -0.218 -0.931
1.543 -0.475 -0.352
1.412 -0.444 -0.628
1.341 -0.432 -0.927
1.459 -0.7 -0.344
1.333 -0.655 -0.62
1.265 -0.637 -0.919
1.345 -0.911 -0.332
1.226 -0.852 -0.61
1.16 -0.83 -0.909
1.201 -1.103 -0.318
1.092 -1.033 -0.596
1.03 -1.005 -0.896
1.032 -1.273 -0.301
0.934 -1.192 -0.58
0.876 -1.16 -0.88
0.841 -1.417 -0.282
0.754 -1.326 -0.563
0.701 -1.291 -0.863
0.631 -1.532 -0.261
0.558 -1.434 -0.543
0.51 -1.396 -0.844
0.407 -1.616 -0.239
0.348 -1.513 -0.522
0.306 -1.472 -0.824
0.173 -1.667 -0.216
0.129 -1.561 -0.5
0.093 -1.519 -0.802
-0.065 -1.684 -0.192
-0.094 -1.577 -0.478
-0.124 -1.534 -0.781
-0.304 -1.667 -0.168
-0.317 -1.561 -0.456
-0.341 -1.519 -0.759
-0.538 -1.616 -0.145
-0.536 -1.513 -0.434
-0.554 -1.472 -0.738
-0.762 -1.532 -0.123
-0.746 -1.434 -0.413
-0.758 -1.396 -0.718
-0.972 -1.417 -0.102
-0.942 -1.326 -0.394
-0.95 -1.291 -0.699
-1.163 -1.273 -0.083
-1.121 -1.192 -0.376
-1.124 -1.16 -0.681
-1.332 -1.103 -0.066
-1.28 -1.033 -0.36
-1.278 -1.005 -0.666
-1.475 -0.911 -0.051
-1.414 -0.852 -0.347
-1.408 -0.83 -0.653
-1.59 -0.7 -0.04
-1.521 -0.655 -0.336
-1.513 -0.637 -0.642
-1.674 -0.475 -0.032
-1.599 -0.444 -0.328
-1.589 -0.432 -0.635
-1.724 -0.24 -0.027
-1.647 -0.224 -0.323
-1.635 -0.218 -0.63
-1.742 -0.0 -0.025
-1.663 -0.0 -0.322
-1.651 -0.0 -0.629
-1.724 0.24 -0.027
-1.647 0.224 -0.323
-1.635 0.218 -0.63
-1.674 0.475 -0.032
-1.599 0.444 -0.328
-1.589 0.432 -0.635
-1.59 0.7 -0.04
-1.521 0.655 -0.336
-1.513 0.637 -0.642
-1.475 0.911 -0.051
-1.414 0.852 -0.347
-1.408 0.83 -0.653
-1.332 1.103 -0.066
-1.28 1.033 -0.36
-1.278 1.005 -0.666
-1.163 1.273 -0.083
-1.121 1.192 -0.376
-1.124 1.16 -0.681
-0.972 1.417 -0.102
-0.942 1.326 -0.394
-0.95 1.291 -0.699
-0.762 1.532 -0.123
-0.746 1.434 -0.413
-0.758 1.396 -0.718
-0.538 1.616 -0.145
-0.536 1.513 -0.434
-0.554 1.472 -0.738
-0.304 1.667 -0.168
-0.317 1.561 -0.456
-0.341 1.519 -0.759
-0.065 1.684 -0.192
-0.094 1.577 -0.478
-0.124 1.534 -0.781
0.173 1.667 -0.216
0.129 1.561 -0.5
0.093 1.519 -0.802
0.407 1.616 -0.239
0.348 1.513 -0.522
0.306 1.472 -0.824
0.631 1.532 -0.261
0.558 1.434 -0.543
0.51 1.396 -0.844
0.841 1.417 -0.282
0.754 1.326 -0.563
0.701 1.291 -0.863
1.032 1.273 -0.301
0.934 1.192 -0.58
0.876 1.16 -0.88
1.201 1.103 -0.318
1.092 1.033 -0.596
1.03 1.005 -0.896
1.345 0.911 -0.332
1.226 0.852 -0.61
1.16 0.83 -0.909
1.459 0.7 -0.344
1.333 0.655 -0.62
1.265 0.637 -0.919
1.543 0.475 -0.352
1.412 0.444 -0.628
1.341 0.432 -0.927
1.594 0.24 -0.357
1.459 0.224 -0.633
1.387 0.218 -0.931
1.907 0.0 0.656
1.893 0.228 0.656
1.893 0.114 0.853
1.893 -0.114 0.853
1.893 -0.228 0.656
1.893 -0.114 0.459
1.893 0.114 0.459
1.852 0.391 0.881
1.852 0.226 1.047
1.852 -0.0 1.107
1.852 -0.226 1.047
1.852 -0.391 0.881
1.852 -0.452 0.656
1.852 -0.391 0.43
1.852 -0.226 0.264
1.852 -0.0 0.204
1.852 0.226 0.264
1.852 0.391 0.43
1.852 0.452 0.656
1.784 0.629 0.885
1.784 0.513 1.086
1.784 0.335 1.235
1.784 0.116 1.315
1.784 -0.116 1.315
1.784 -0.335 1.235
1.784 -0.513 1.086
1.784 -0.629 0.885
1.784 -0.669 0.656
1.784 -0.629 0.427
1.784 -0.513 0.225
1.784 -0.335 0.076
1.784 -0.116 -0.004
1.784 0.116 -0.004
1.784 0.335 0.076
1.784 0.513 0.225
1.784 0.629 0.427
1.784 0.669 0.656
1.69 0.847 0.883
1.69 0.76 1.094
1.69 0.62 1.276
1.69 0.439 1.415
1.69 0.227 1.503
1.69 0.0 1.533
1.69 -0.227 1.503
1.69 -0.439 1.415
1.69 -0.62 1.276
1.69 -0.76 1.094
1.69 -0.847 0.883
1.69 -0.877 0.656
1.69 -0.847 0.429
1.69 -0.76 0.217
1.69 -0.62 0.035
1.69 -0.439 -0.104
1.69 -0.227 -0.192
1.69 -0.0 -0.222
1.69 0.227 -0.192
1.69 0.439 -0.104
1.69 0.62 0.035
1.69 0.76 0.217
1.69 0.847 0.429
1.69 0.877 0.656
1.572 1.049 0.879
1.572 0.98 1.092
1.572 0.867 1.286
1.572 0.717 1.452
1.572 0.536 1.584
1.572 0.331 1.675
1.572 0.112 1.722
1.572 -0.112 1.722
1.572 -0.331 1.675
1.572 -0.536 1.584
1.572 -0.717 1.452
1.572 -0.867 1.286
1.572 -0.98 1.092
1.572 -1.049 0.879
1.572 -1.072 0.656
1.572 -1.049 0.433
1.572 -0.98 0.219
1.572 -0.867 0.025
1.572 -0.717 -0.141
1.572 0.717 -0.141
1.572 0.867 0.025
1.572 0.98 0.219
1.572 1.049 0.433
1.572 1.072 0.656
1.432 1.232 0.879
1.432 1.172 1.095
1.432 1.074 1.298
1.432 0.943 1.479
1.432 0.78 1.634
1.432 0.593 1.758
1.432 0.387 1.846
1.432 0.168 1.896
1.432 -0.056 1.906
1.432 -0.279 1.876
1.432 -0.492 1.807
1.432 -0.69 1.7
1.432 -0.865 1.56
1.432 -1.013 1.391
1.432 -1.128 1.199
1.432 -1.207 0.989
1.432 -1.247 0.768
1.432 -1.247 0.543
1.432 -1.207 0.323
1.432 -1.128 0.113
1.432 -1.013 -0.08
1.432 0.943 -0.168
1.432 1.074 0.014
1.432 1.172 0.216
1.432 1.232 0.432
1.432 1.252 0.656
1.271 1.395 0.882
1.271 1.34 1.103
1.271 1.251 1.312
1.271 1.129 1.504
1.271 0.979 1.675
1.271 0.803 1.818
1.271 0.606 1.932
1.271 0.393 2.013
1.271 0.17 2.058
1.271 -0.057 2.067
1.271 -0.283 2.04
1.271 -0.501 1.977
1.271 -0.706 1.879
1.271 -0.894 1.75
1.271 -1.058 1.592
1.271 -1.194 1.411
1.271 -1.3 1.209
1.271 -1.372 0.994
1.271 -1.408 0.769
1.271 -1.408 0.542
1.271 -1.372 0.317
1.271 -1.3 0.102
1.271 -1.194 -0.1
1.271 1.129 -0.193
1.271 1.251 -0.001
1.271 1.34 0.208
1.271 1.395 0.429
1.271 1.413 0.656
1.091 1.537 0.882
1.091 1.488 1.103
1.091 1.407 1.315
1.091 1.296 1.513
1.091 1.157 1.692
1.091 0.994 1.85
1.091 0.809 1.982
1.091 0.608 2.085
1.091 0.393 2.158
1.091 0.17 2.2
1.091 -0.057 2.208
1.091 -0.282 2.183
1.091 -0.502 2.126
1.091 -0.71 2.037
1.091 -0.904 1.919
1.091 -1.078 1.774
1.091 -1.229 1.605
1.091 -1.355 1.416
1.091 -1.451 1.211
1.091 -1.516 0.993
1.091 -1.549 0.769
1.091 -1.549 0.542
1.091 -1.516 0.318
1.091 -1.451 0.101
1.091 -1.355 -0.105
1.091 1.296 -0.202
1.091 1.407 -0.004
1.091 1.488 0.208
1.091 1.537 0.429
1.091 1.553 0.656
0.896 1.656 0.883
0.896 1.609 1.107
0.896 1.533 1.321
0.896 1.428 1.524
0.896 1.296 1.71
0.896 1.141 1.877
0.896 0.964 2.021
0.896 0.769 2.14
0.896 0.56 2.23
0.896 0.34 2.292
0.896 0.114 2.323
0.896 -0.114 2.323
0.896 -0.34 2.292
0.896 -0.56 2.23
0.896 -0.769 2.14
0.896 -0.964 2.021
0.896 -1.141 1.877
0.896 -1.296 1.71
0.896 -1.428 1.524
0.896 -1.533 1.321
0.896 -1.609 1.107
0.896 -1.656 0.883
0.896 -1.671 0.656
0.896 -1.656 0.428
0.896 -1.609 0.205
0.896 -1.533 -0.01
0.896 1.533 -0.01
0.896 1.609 0.205
0.896 1.656 0.428
0.896 1.671 0.656
0.688 1.75 0.881
0.688 1.707 1.103
0.688 1.636 1.318
0.688 1.538 1.522
0.688 1.414 1.711
0.688 1.268 1.883
0.688 1.1 2.035
0.688 0.915 2.165
0.688 0.714 2.269
0.688 0.502 2.347
0.688 0.282 2.398
0.688 0.057 2.42
0.688 -0.169 2.412
0.688 -0.393 2.376
0.688 -0.61 2.312
0.688 -0.816 2.22
0.688 -1.01 2.103
0.688 -1.187 1.962
0.688 -1.344 1.8
0.688 -1.479 1.618
0.688 -1.59 1.421
0.688 -1.675 1.212
0.688 -1.732 0.993
0.688 -1.761 0.769
0.688 -1.761 0.543
0.688 -1.732 0.318
0.688 -1.675 0.099
0.688 -1.59 -0.11
0.688 1.636 -0.007
0.688 1.707 0.208
0.688 1.75 0.43
0.688 1.765 0.656
0.471 1.819 0.881
0.471 1.777 1.103
0.471 1.709 1.318
0.471 1.615 1.523
0.471 1.496 1.714
0.471 1.354 1.89
0.471 1.192 2.047
0.471 1.012 2.183
0.471 0.817 2.296
0.471 0.609 2.384
0.471 0.392 2.446
0.471 0.169 2.48
0.471 -0.056 2.487
0.471 -0.281 2.467
0.471 -0.502 2.418
0.471 -0.714 2.343
0.471 -0.916 2.243
0.471 -1.104 2.118
0.471 -1.276 1.971
0.471 -1.428 1.805
0.471 -1.558 1.62
0.471 -1.665 1.422
0.471 -1.746 1.211
0.471 -1.801 0.992
0.471 -1.829 0.768
0.471 -1.829 0.543
0.471 -1.801 0.319
0.471 -1.746 0.1
0.471 -1.665 -0.11
0.471 1.709 -0.006
0.471 1.777 0.209
0.471 1.819 0.43
0.471 1.833 0.656
0.247 1.86 0.881
0.247 1.819 1.104
0.247 1.752 1.32
0.247 1.659 1.526
0.247 1.542 1.72
0.247 1.403 1.898
0.247 1.243 2.058
0.247 1.064 2.198
0.247 0.871 2.315
0.247 0.664 2.408
0.247 0.448 2.475
0.247 0.226 2.516
0.247 -0.0 2.529
0.247 -0.226 2.516
0.247 -0.448 2.475
0.247 -0.664 2.408
0.247 -0.871 2.315
0.247 -1.064 2.198
0.247 -1.243 2.058
0.247 -1.403 1.898
0.247 -1.542 1.72
0.247 -1.659 1.526
0.247 -1.752 1.32
0.247 -1.819 1.104
0.247 -1.86 0.881
0.247 -1.874 0.656
0.247 -1.86 0.43
0.247 -1.819 0.207
0.247 -1.752 -0.009
0.247 1.752 -0.009
0.247 1.819 0.207
0.247 1.86 0.43
0.247 1.874 0.656
0.019 1.874 0.879
0.019 1.835 1.099
0.019 1.769 1.313
0.019 1.679 1.517
0.019 1.566 1.71
0.019 1.43 1.888
0.019 1.274 2.048
0.019 1.1 2.189
0.019 0.911 2.309
0.019 0.709 2.405
0.019 0.498 2.476
0.019 0.279 2.522
0.019 0.056 2.542
0.019 -0.168 2.536
0.019 -0.389 2.503
0.019 -0.605 2.444
0.019 -0.812 2.36
0.019 -1.008 2.252
0.019 -1.189 2.121
0.019 -1.354 1.97
0.019 -1.5 1.801
0.019 -1.625 1.615
0.019 -1.727 1.416
0.019 -1.805 1.207
0.019 -1.858 0.989
0.019 -1.884 0.767
0.019 -1.884 0.544
0.019 -1.858 0.322
0.019 -1.805 0.104
0.019 1.769 -0.002
0.019 1.835 0.212
0.019 1.874 0.432
0.019 1.888 0.656
-0.209 1.874 0.656
-0.209 1.86 0.881
-0.209 1.819 1.104
-0.209 1.752 1.32
-0.209 1.659 1.526
-0.209 1.542 1.72
-0.209 1.403 1.898
-0.209 1.243 2.058
-0.209 1.064 2.198
-0.209 0.871 2.315
-0.209 0.664 2.408
-0.209 0.448 2.475
-0.209 0.226 2.516
-0.209 -0.0 2.529
-0.209 -0.226 2.516
-0.209 -0.448 2.475
-0.209 -0.664 2.408
-0.209 -0.871 2.315
-0.209 -1.064 2.198
-0.209 -1.243 2.058
-0.209 -1.403 1.898
-0.209 -1.542 1.72
-0.209 -1.659 1.526
-0.209 -1.752 1.32
-0.209 -1.819 1.104
-0.209 -1.86 0.881
-0.209 -1.874 0.656
-0.209 -1.86 0.43
-0.209 -1.819 0.207
-0.209 -1.752 -0.009
-0.209 1.752 -0.009
-0.209 1.819 0.207
-0.209 1.86 0.43
-0.433 1.833 0.656
-0.433 1.819 0.881
-0.433 1.777 1.103
-0.433 1.709 1.318
-0.433 1.615 1.523
-0.433 1.496 1.714
-0.433 1.354 1.89
-0.433 1.192 2.047
-0.433 1.012 2.183
-0.433 0.817 2.296
-0.433 0.609 2.384
-0.433 0.392 2.446
-0.433 0.169 2.48
-0.433 -0.056 2.487
-0.433 -0.281 2.467
-0.433 -0.502 2.418
-0.433 -0.714 2.343
-0.433 -0.916 2.243
-0.433 -1.104 2.118
-0.433 -1.276 1.971
-0.433 -1.428 1.805
-0.433 -1.558 1.62
-0.433 -1.665 1.422
-0.433 -1.746 1.211
-0.433 -1.801 0.992
-0.433 -1.829 0.768
-0.433 -1.829 0.543
-0.433 -1.801 0.319
-0.433 -1.746 0.1
-0.433 1.709 -0.006
-0.433 1.777 0.209
[...]
CELL_DATA 1958
SCALARS cell_data_0 double
LOOKUP_TABLE default
5.72196523167e-10
8.83299434428e-11
3.29165339256e-10
6.19878861256e-10
8.41719061835e-11
1.73255760782e-11
2.68412641614e-10
4.0826990349e-10
1.33693801995e-10
8.8170018022e-11
7.70077620598e-11
1.95564336232e-10
1.54311050742e-10
1.28652342783e-11
1.67688950238e-11
1.46902587994e-10
2.01054994477e-11
1.05744192357e-11
7.63538113587e-11
1.31088321523e-10
3.8873852476e-12
1.3538581728e-11
2.06962548891e-11
5.55900745836e-11
2.84524226724e-12
4.2522020066e-13
1.52259579514e-11
1.6003393218e-11
1.93695526893e-12
5.57419611661e-12
2.31597696705e-12
1.68679315587e-11
1.98196023273e-11
1.14840971842e-11
2.91293123117e-11
5.9794676113e-11
5.17468795664e-11
2.94299953371e-11
4.50694796286e-11
6.67667852894e-11
5.70591947608e-11
1.13920710893e-11
3.56911467016e-11
8.15581138737e-11
6.91205183021e-11
2.70561198039e-11
8.22260497441e-11
1.37259879953e-10
7.67946921699e-11
8.96689398612e-12
9.91863018004e-11
9.24730995362e-11
9.10633124483e-11
1.80311380954e-11
6.13031257185e-11
1.37007355027e-10
9.04262363701e-11
4.03888426171e-11
1.12003291246e-10
2.09364454836e-10
1.49402730396e-10
6.36771090018e-11
1.46751895573e-10
1.95814172361e-10
1.61380961212e-10
6.02383680591e-11
8.90359669107e-11
1.8735979319e-10
1.44307539233e-10
1.07763497146e-13
1.91257560381e-10
1.59918811488e-10
9.85373530766e-11
4.30675214805e-12
7.006881234e-11
1.65715822462e-10
1.97497024144e-10
8.03184088649e-11
2.18641175209e-10
1.99596421018e-10
1.77508755632e-10
3.13053704111e-11
1.19936023868e-10
1.21384349323e-10
1.86881270376e-10
8.04746371883e-11
1.52047805594e-10
1.39416358102e-10
1.9854204062e-10
3.79820570497e-11
1.57223050861e-10
1.34522588858e-10
1.61704145565e-10
4.82959367256e-11
1.43445296112e-10
1.23654209389e-10
1.9484812344e-10
1.81936603298e-11
1.21678860169e-10
1.77859852131e-10
1.60034474543e-10
3.844824924e-11
1.68826365253e-10
1.66624162751e-10
9.89828158615e-11
2.4408649211e-11
9.04715041026e-11
1.11153367376e-10
7.0770613818e-11
1.02490462694e-11
1.13625862144e-10
1.23710113714e-10
1.0478581404e-10
5.19453361985e-12
1.09123039405e-10
1.27617168487e-10
9.89848302322e-11
1.99046131266e-11
9.97878077854e-11
1.2004835579e-10
1.26896094739e-10
3.84963093731e-11
9.75941464625e-11
1.09850972435e-10
1.17036811547e-10
2.06937269859e-11
8.12406369996e-11
9.52234139221e-11
9.03128784267e-11
2.00007911732e-11
7.23466068659e-11
9.27204443053e-11
6.12677843151e-11
1.9543604553e-11
4.73100590076e-11
9.18598794741e-11
4.33266655983e-11
1.74833268615e-11
5.13681013666e-11
6.23001901184e-11
1.4195081009e-11
5.22578738473e-12
5.49831168281e-12
3.27730602413e-11
3.472321526e-12
2.92216689046e-12
1.16516099401e-11
1.08755497989e-11
3.65112528944e-12
6.2513523581e-12
2.58002528738e-12
2.12020109118e-12
1.74434006936e-11
6.84309499258e-12
1.94406167422e-11
3.77381859425e-12
7.92279046092e-11
4.63035867968e-12
5.69177605228e-11
3.2141332497e-11
1.75292798391e-10
4.96977442048e-11
1.16677725857e-10
1.91141030872e-10
2.43404667409e-10
1.66589351409e-11
3.06930423751e-10
3.26015759875e-10
4.48401131647e-10
1.64109228729e-10
3.70460611793e-10
5.37817565679e-10
6.96552788289e-10
3.48774623061e-10
3.89134947438e-10
7.6347124043e-11
3.03760691603e-12
6.74536589016e-13
2.99967666901e-12
5.05639385164e-12
1.63302040503e-11
5.35745868477e-12
8.64464905968e-13
1.36136711915e-12
1.33391879872e-12
2.05679436413e-12
1.34851505377e-12
1.14650774583e-12
1.12826992328e-12
4.81277793664e-13
1.19479881946e-11
3.15582177823e-12
2.89691158892e-11
3.19267714719e-11
8.81499976695e-12
1.45530019099e-12
1.28804192607e-11
1.030998002e-11
1.41247420954e-12
1.59239313064e-12
6.60125343021e-13
8.84625154193e-13
1.07596186865e-12
2.6289395182e-13
1.82802388432e-12
1.17226426739e-12
4.37301098121e-13
7.14535184635e-13
7.85867776667e-13
1.22623656499e-12
1.26188777382e-12
7.37801616007e-13
3.11791514679e-13
3.64012680849e-12
8.13657165917e-13
1.67660267163e-11
9.46955565678e-12
3.71438185386e-11
6.09072213438e-11
1.40658829447e-10
3.77327185597e-11
8.27122837734e-11
3.31732352025e-12
1.50942461206e-11
9.22828093618e-14
3.69796137901e-12
2.87125092878e-13
1.03003876959e-12
1.80438950874e-13
1.55331608173e-12
1.16647213649e-12
7.7025940351e-13
2.99640278544e-13
1.51487322661e-12
1.52600712943e-12
1.07736144959e-12
1.30501570583e-12
8.44530227475e-13
1.04757075182e-12
6.04841130617e-13
1.82434420903e-12
3.1733447349e-12
4.02075597799e-13
1.70327667809e-12
1.12127260936e-12
3.14411245022e-12
1.67560221846e-12
1.834635464e-12
7.21589844305e-13
3.12449893231e-12
1.03250889329e-12
8.77559036864e-12
1.11183309082e-11
3.12162039539e-11
3.05448702147e-11
9.46053626222e-11
2.41404224057e-11
2.83985750426e-10
6.33728594957e-11
3.09627063151e-10
2.84135339233e-11
1.3836847088e-10
4.33690085711e-12
1.03651194345e-11
5.02319066473e-12
3.98638616823e-12
1.16299758738e-12
1.69522304109e-12
1.55384281486e-12
2.16101821367e-12
6.40564117e-13
2.05803171172e-12
1.2314044024e-12
1.69205019128e-13
6.94191162634e-13
9.63262786095e-13
1.33788977924e-13
1.01540328417e-12
2.87542071978e-14
3.50344422945e-13
1.63206318783e-12
2.33069303445e-12
1.63418036207e-12
1.01062148263e-12
1.99464258785e-12
2.43494195174e-13
6.33690163074e-13
2.89922260712e-13
1.81855584393e-12
1.36003276711e-13
6.3107962422e-13
9.44113830187e-13
2.20565804788e-12
3.08234285053e-12
1.00062486986e-12
2.80360760858e-13
4.26921047398e-13
4.8406239926e-12
8.25620362121e-13
8.52339175314e-12
2.14735732253e-11
5.40562138101e-11
2.38539053251e-11
7.82311835651e-11
1.71519520903e-10
1.9756193972e-10
3.14694724549e-11
1.47735149183e-11
3.69982558852e-12
6.13966716579e-13
7.5788193672e-13
1.4709922254e-12
1.14969572169e-12
1.8304081613e-12
2.72020520677e-12
8.75468727318e-13
2.6295726572e-13
5.4989765953e-13
7.16930414794e-13
6.91228751033e-13
3.88817734042e-13
2.06786137968e-13
3.96787084237e-13
8.02089883097e-13
6.25856152836e-13
1.00845315196e-13
6.49944391654e-13
7.23967987229e-13
5.4412113548e-13
7.39319076736e-13
1.44829686218e-12
5.7687830842e-13
7.77232308963e-13
2.15962491729e-13
3.66762601223e-13
6.58131151833e-13
5.52408326318e-13
5.82122831272e-13
1.45783582873e-12
7.35116616683e-13
7.15567953087e-13
1.26730194407e-12
4.57820909224e-14
5.62403050874e-13
1.06039585058e-12
4.51821155478e-12
2.84294489746e-12
2.53001062901e-12
1.1866796525e-13
3.27759296579e-11
1.68612643438e-11
6.98777080083e-11
1.45563102799e-10
2.22650757755e-11
2.35112772357e-12
1.75164402132e-12
5.72320681139e-13
4.33015513861e-13
1.95235624718e-12
1.96917371155e-13
1.87578963373e-12
2.07195993261e-12
4.63852433654e-13
2.72408008234e-13
2.03256164053e-13
6.57907906189e-13
3.91502321377e-13
2.5981391466e-13
3.26576515629e-13
2.66940612074e-13
9.52171712146e-13
7.11108744206e-13
3.35670721396e-13
2.2355056971e-13
6.48102521925e-13
5.67519343024e-13
1.31098129619e-12
2.467792872e-12
3.15906447413e-12
1.41207514107e-13
2.03093684141e-12
5.00939791367e-13
1.21993977664e-12
7.75464041169e-13
1.23125430068e-12
1.00804385864e-12
1.38256567266e-12
1.01166239754e-12
1.07515133355e-12
2.06591469693e-13
6.21118299774e-13
1.93762744724e-13
2.31870406079e-12
6.38396280061e-13
6.30324170887e-13
8.15549466446e-13
1.02071077497e-12
1.96732263376e-12
3.44909649369e-12
3.38097076477e-12
1.24723683426e-11
4.8901350878e-13
2.92277460421e-11
4.68498300703e-11
6.96420912534e-11
4.16929757745e-12
5.51251753141e-14
2.3307986334e-13
5.52588076689e-14
1.10755390977e-12
1.51056834805e-12
3.68551797468e-13
1.14533136803e-12
1.80059493804e-12
5.31870847709e-13
1.64346716657e-13
3.67455230388e-13
5.67233236814e-13
3.92507347105e-13
1.16901624589e-14
1.35556223084e-13
9.37923645341e-14
1.70227624059e-13
1.7113002653e-13
5.64080993536e-14
1.00753374442e-13
2.16355885223e-13
6.60105345102e-14
7.08552146183e-13
6.07241633544e-13
6.84312954408e-13
1.82454323112e-12
6.02650686396e-13
8.95140664158e-13
3.82667613816e-13
1.05770016998e-12
1.58738062703e-12
8.33072983751e-14
1.43427403828e-13
1.45824220413e-12
2.1531358536e-13
4.17403205355e-13
1.40165588037e-13
9.07124611154e-13
5.96541828955e-13
1.19552125819e-12
6.72334650464e-13
1.23317718056e-12
1.42199143222e-12
1.26172484872e-12
1.17937453498e-12
1.30702318106e-12
3.62937106844e-13
1.30924826682e-12
4.94252014726e-12
2.75990135593e-12
6.20573137222e-12
4.14143820884e-12
1.03508853345e-11
1.03272397844e-11
1.65178507468e-11
4.22410868074e-12
2.98385521263e-12
5.50519444189e-13
8.74880096217e-13
1.8843580079e-12
1.2914859721e-12
4.9340557279e-13
1.9726309851e-12
1.4672560667e-12
4.72044702023e-13
3.43834562333e-13
4.12230763604e-14
5.69814778197e-14
1.62749009085e-14
4.88056648396e-14
1.19537534634e-13
2.10790174174e-13
4.42753504802e-14
8.36819906123e-14
1.42023930811e-13
2.1322329135e-13
2.95741599843e-13
3.89495516334e-13
7.67766309546e-14
3.15273646518e-14
4.27619835934e-14
5.04176674174e-13
1.74148495354e-14
4.44215601698e-13
9.82299053071e-14
1.89422493718e-13
1.09169296251e-12
5.57958838685e-13
5.95816991059e-13
1.86423006515e-12
3.03795111849e-12
1.06341683099e-12
5.37527296329e-13
4.28964675055e-13
2.04130773111e-13
1.09909964913e-13
1.04499356277e-13
1.79386922626e-13
4.32409622042e-13
5.96308179443e-13
3.43145830857e-13
1.39707721413e-13
1.09998806974e-12
3.0522088122e-13
7.91146578711e-13
2.76331427226e-13
1.31627642973e-12
8.41261526538e-13
1.4994500187e-12
2.84422204779e-12
3.74996652179e-12
1.86615379867e-12
1.42822538872e-12
3.23776676354e-12
6.86272578025e-13
4.06013147692e-13
1.57588443004e-12
8.56806830614e-13
8.63140882914e-13
8.50552664751e-13
9.67660131475e-13
1.65411726367e-13
4.93138455451e-14
2.26654003243e-14
3.93544493818e-13
6.98161508263e-14
4.36748497889e-13
2.63349122392e-13
4.45274248913e-13
2.345209223e-13
2.66238345806e-13
2.92937163977e-13
2.78526823658e-13
1.47497795113e-13
2.63846123222e-13
4.39269392229e-13
3.60794251898e-13
4.31027595925e-13
3.1344039122e-13
4.67882203092e-13
7.42737631566e-14
5.4340644799e-13
4.93981000381e-13
5.01699346616e-13
5.2799798685e-13
7.91695708232e-13
1.12867373214e-12
3.65015579186e-13
1.61535657035e-12
1.1494189808e-12
5.85504197187e-13
2.05728339255e-13
3.55308619476e-13
1.20444397268e-12
1.55517828225e-13
1.64600954536e-13
3.52190601848e-15
4.26212167853e-13
2.54274326875e-13
1.38674746483e-13
5.02301652243e-13
3.85770296348e-13
7.8986014066e-13
1.79610859033e-13
5.0716098863e-13
1.62982830118e-13
1.27307052132e-12
3.96051888908e-13
2.04525694881e-12
4.26586264751e-13
7.34475931376e-13
2.68804054829e-15
1.5222391768e-12
3.7443077081e-13
3.77850136186e-14
8.94686593527e-13
1.08838022803e-12
3.39480074209e-13
4.04891674823e-14
8.65695858955e-13
1.00059217264e-12
1.22012501544e-13
7.49152500418e-13
8.2671654934e-14
3.10600993282e-13
1.13616362622e-13
2.87012626054e-13
3.46686353508e-13
2.40762480898e-13
1.63072675595e-14
2.0484844855e-13
2.62154631513e-13
1.00678044493e-13
9.48405584493e-14
1.25446329152e-13
1.74671848768e-13
8.90480071327e-14
1.12522488087e-13
6.40922225457e-14
7.56483364688e-14
1.27956601064e-13
1.10956628425e-14
8.22139883617e-14
1.33397032512e-13
4.12254475788e-13
2.34317109497e-13
1.183234954e-13
5.66396306746e-14
4.70106200644e-13
3.82840109256e-13
4.64295323148e-13
2.17737786257e-13
4.48073765e-13
5.43998402987e-13
2.3638739328e-13
2.78987028835e-13
4.23355465105e-13
4.54196884966e-13
1.12325512958e-13
2.42806987881e-13
2.62943027678e-13
6.34977827378e-15
2.48598754732e-13
1.91218343903e-13
4.88532966514e-13
1.37927734263e-13
3.73007934816e-13
8.32127562368e-13
3.5754966982e-14
3.32469891049e-13
5.1125791595e-13
5.76824485625e-14
5.72993067894e-14
1.15092138589e-12
2.47276309583e-12
8.14740586892e-12
2.77001724299e-12
3.51497573033e-13
1.82599819344e-13
4.04009499239e-14
4.47092639822e-14
3.43518121392e-13
8.32432803552e-13
6.32584201585e-13
3.25422822821e-15
1.32977601166e-13
2.89531948671e-13
5.94410459802e-13
7.68277863514e-14
4.45361306483e-13
1.76016623726e-13
4.9148509751e-13
1.87155057219e-13
2.4414454895e-13
1.97126873968e-14
5.01325778246e-13
1.6330662182e-13
2.73281981594e-13
5.85465448844e-15
2.53571779815e-13
5.35185112653e-14
2.14502343459e-13
7.83661367595e-14
1.26449965495e-13
3.77366572504e-14
1.59947248732e-13
3.44232607732e-13
3.35257735514e-13
3.55516123384e-13
2.09540480054e-13
3.7570976841e-13
2.96558564709e-13
3.32040666356e-13
1.79251627245e-13
4.02121086234e-13
3.03325213232e-13
5.92009415926e-13
2.11984022975e-13
8.17792819238e-13
3.65683351679e-13
4.82508749814e-13
4.35944237776e-14
2.08780687451e-13
1.5374323467e-13
3.32974634424e-13
2.26155745542e-13
9.36104115934e-14
2.56014260073e-13
2.50136539746e-13
4.1604208017e-13
1.16515352468e-13
4.80784453512e-14
2.57663190596e-13
4.806689599e-14
1.40698004656e-13
4.03173673299e-13
3.27581564115e-13
8.93013551994e-12
1.1074700879e-11
2.02576017782e-11
1.43309879906e-11
8.05336444453e-13
6.45900160688e-13
5.88228422689e-14
1.80710521486e-13
1.36866708143e-13
6.32457425254e-13
8.93169315679e-13
6.5930740238e-14
4.16342363981e-13
3.86959187538e-13
6.59551734824e-15
2.91830963908e-13
5.33942427248e-13
2.63470458644e-13
4.33446363661e-13
3.9266373497e-13
3.14407826791e-13
1.98048259481e-13
4.6905261739e-13
7.06154803735e-14
5.77232030252e-13
5.30069671574e-14
5.71424190771e-13
2.72560801543e-15
4.4199103666e-13
3.7924132085e-14
4.08122585081e-13
1.20777757205e-13
2.82782102833e-13
7.90269441664e-14
2.17402119554e-13
1.48663475052e-13
3.91326660985e-13
6.24401037345e-14
1.8651911686e-13
4.86843995927e-15
1.03757567782e-13
3.49862903031e-14
1.96663710979e-13
1.51382372237e-13
2.66326611364e-13
1.89885829039e-13
2.34384596886e-13
2.68261715783e-13
7.00654472737e-14
2.9119966083e-14
5.47974044107e-14
1.61724821546e-13
2.69892861913e-13
6.47457844791e-14
3.04132662331e-14
1.08536450484e-13
2.64244384343e-14
1.18818559155e-13
2.96419835545e-13
1.45169930373e-14
3.55911750646e-14
7.98514886842e-15
7.28924152737e-13
2.22789309136e-12
1.52735574689e-13
7.55998830826e-12
1.57946110574e-11
2.83848876906e-11
1.32087521932e-12
1.43225150729e-13
5.97911054845e-14
4.73681691229e-14
1.39337252631e-13
2.42507780019e-13
1.1923796957e-13
2.31309549798e-13
3.13175597792e-13
4.94503345155e-13
1.09027068799e-13
2.84564516713e-13
3.7884630675e-13
8.67891929176e-13
1.92873660502e-13
4.29697992465e-13
4.85030711204e-14
5.81141246321e-13
3.38746856738e-13
6.93632717504e-13
8.60145231948e-14
4.50492794151e-13
1.6630119988e-13
4.34650319815e-13
2.23115671443e-13
3.15464248638e-13
2.53470785628e-13
2.19313035637e-13
3.86666003845e-13
5.0206884048e-14
3.56878663958e-13
2.56699617771e-13
1.08643227339e-13
3.05396987807e-13
9.5665657121e-14
1.06003587847e-13
1.00066290114e-13
8.36057467812e-14
7.37035986115e-14
1.72217425286e-13
1.66894864256e-14
1.24177365205e-13
2.0398010829e-13
1.21427943269e-14
3.6729539085e-13
2.97831915095e-13
3.9799884527e-13
4.61078465788e-14
1.66611419735e-13
2.81912377728e-13
1.95806349048e-13
2.74901279016e-13
2.71794095873e-13
8.02456632839e-14
9.40636067416e-14
2.34014060934e-13
7.2992146309e-14
1.07334400152e-13
1.89401764062e-13
1.38807455004e-12
4.67169634609e-13
4.30964891034e-12
5.7534821714e-12
5.78775565772e-12
2.83386081906e-11
1.43414032151e-11
7.49672008494e-13
2.05600730423e-13
3.79398019488e-13
3.64726193564e-13
5.11585011616e-14
1.31407297103e-14
3.27702133516e-15
1.06326147119e-13
5.15995679833e-14
5.12484860814e-14
1.64543208402e-13
3.99731075703e-14
1.29608314695e-13
3.31910306e-13
4.96262051836e-14
5.47231755651e-14
2.63649747884e-13
2.99426138913e-15
2.17286816268e-13
2.61721074867e-13
3.64129966059e-13
1.33030343148e-13
3.87182367981e-13
2.23653413155e-13
4.24028107878e-13
1.66789977966e-13
2.70832340446e-13
2.27125060738e-13
4.81258912135e-15
2.57370626379e-13
2.03118937688e-13
2.33147735461e-13
6.25875417436e-14
1.24560161576e-13
5.01819757736e-14
1.76724729771e-13
5.51985659246e-14
1.3757053955e-13
4.80028025694e-14
2.51082554502e-13
3.78643653873e-15
2.94808433108e-13
3.18305208803e-13
4.75834066874e-13
2.03207115459e-13
3.38161896592e-16
2.18271788491e-14
3.32909642632e-13
2.61659053341e-13
1.39742665023e-13
1.25101821186e-13
3.63602117473e-14
1.19805071618e-13
2.20307225223e-14
9.04641041341e-14
1.11109079519e-13
6.69050475827e-13
1.71817494252e-13
6.68588433899e-13
3.28818771137e-13
1.06230479058e-11
2.68974211554e-11
3.90571007035e-11
9.20616693226e-12
5.12108601829e-12
9.10988188106e-13
1.45735200445e-12
4.58372773591e-13
8.29055471029e-14
9.52854370854e-14
4.12023831991e-14
4.2195673796e-14
9.19904091447e-14
2.03702310356e-13
2.50568664311e-13
1.26967275326e-13
4.42784178843e-14
1.74926608936e-14
1.71902830401e-13
3.23373849526e-14
3.16947662752e-13
2.9048260211e-13
1.5876947291e-13
2.35198883355e-13
4.41677370976e-13
3.05124621993e-13
2.24401961555e-13
2.08043972352e-13
3.89677048928e-13
9.49733451442e-15
9.82461771011e-14
2.49043855028e-14
7.08095527609e-14
4.89203058653e-14
1.28579487044e-14
1.28709388387e-13
1.51873574915e-13
4.42195389499e-14
1.2626377365e-13
2.50351985567e-13
9.61319239034e-14
1.29154651929e-13
1.56190515256e-13
3.86992172861e-13
2.04231969024e-13
2.79342773382e-13
4.11026470423e-14
5.05148028641e-13
2.65315061576e-13
3.98337449292e-13
1.75914502575e-13
3.14614138069e-13
1.88301082676e-13
2.56572193094e-13
2.29497598444e-13
2.14228856456e-13
2.07007940466e-13
9.85698308808e-13
1.20676806686e-12
2.473699217e-12
2.49542711507e-12
1.69836028449e-11
2.9627801281e-11
5.59244863967e-11
1.36793333959e-11
9.80363960872e-12
3.23771337484e-12
1.76004118655e-12
1.00439278498e-12
3.98978577666e-13
3.17742204087e-13
8.89977573581e-14
9.7254417125e-14
1.23825107044e-13
1.37672591396e-13
1.30040069636e-13
3.7758949093e-15
8.93790248557e-15
4.22313146197e-15
1.41962629236e-13
4.31169672732e-14
3.29718495144e-13
1.64250456452e-13
4.77710270918e-13
4.24326014779e-15
4.32659245298e-13
3.51430872507e-13
6.19513998342e-13
1.18328382423e-13
4.79954803137e-14
6.43470613282e-14
5.68938770635e-15
1.2398857383e-13
1.33457465878e-13
1.40374294375e-13
8.00754509014e-14
1.40545778352e-13
2.8245735506e-13
5.08706903075e-13
6.20049967201e-13
6.94007595519e-13
2.1775475729e-13
3.29403067539e-13
3.33558989001e-13
4.00828201971e-13
1.4707563454e-13
1.71239662511e-13
2.06110158031e-13
2.05428802451e-13
3.21339303154e-14
2.25305187257e-13
8.56393598021e-15
1.19853497661e-13
6.95338497184e-14
2.41951785923e-13
6.51403531759e-13
2.05518169436e-12
7.57699504989e-14
7.01858111552e-12
1.62800344321e-11
2.17493038418e-11
2.86905850236e-11
8.37017019347e-12
5.14838775959e-12
6.74087069494e-12
1.8018407178e-13
3.0358101057e-12
1.49383749038e-12
4.80690649101e-13
2.38624413166e-13
1.07330055858e-13
9.68964657594e-14
3.61356428419e-15
1.57264629008e-14
3.09837849637e-14
5.53704312191e-14
1.93916318269e-13
1.71573397198e-13
1.71945010504e-13
6.9934567958e-14
1.80910644299e-13
1.70205940233e-13
7.3966198876e-14
2.4494400047e-13
3.13545621233e-13
2.79812337055e-13
3.86529502024e-14
9.20369682529e-14
1.1574208045e-13
1.36467268813e-13
1.32040819407e-13
4.67302326057e-13
1.23690641174e-14
5.62483830653e-13
1.16160567585e-12
7.95630029127e-13
2.40587240078e-15
5.60401437898e-13
3.24067983835e-13
3.86778622355e-14
1.89261153172e-13
3.01487480928e-13
3.92041709152e-14
1.29805671036e-13
8.8441017597e-14
2.3517119526e-14
1.3735579735e-13
1.7915016256e-13
5.20738175543e-13
6.28683798459e-13
1.71427968108e-12
1.31035882007e-12
3.51582728773e-12
9.97785915587e-12
3.15505356207e-11
2.29954833921e-11
2.26020440933e-11
1.21610710593e-11
2.44083581803e-12
4.85672562595e-12
7.45236490051e-13
8.66652178354e-13
2.78377025631e-13
2.73048146544e-14
4.32073127668e-14
1.41555184862e-14
3.39031934292e-14
5.5300797256e-14
4.44778896137e-14
1.67244688929e-14
4.99663685e-14
2.73548537251e-15
5.32263772582e-14
1.10492073853e-13
1.20965726759e-13
7.70967705642e-14
3.2119757561e-13
2.1101760438e-13
4.47393940724e-14
4.73661046239e-13
7.46380948376e-13
1.19403475682e-13
1.72686941869e-13
5.77046353622e-13
5.02752235536e-13
9.69721338414e-14
1.11070323076e-13
5.11919440401e-13
1.68892249797e-13
3.13034747459e-14
2.12176444012e-13
6.2002900522e-14
2.02246421474e-13
1.31277734969e-13
1.07546113577e-13
6.89934713108e-15
4.59993096108e-14
3.56249039817e-13