# vtk DataFile Version 3.0
File Name: Molecule/methanol/methanol_2.0-0.vtk
ASCII
DATASET UNSTRUCTURED_GRID
FIELD FieldData 1
TIME 1 1 double
0.0
POINTS 96 double
1.611 0.0 -0.359
1.445 -0.731 -0.342
1.403 0.0 -0.933
1.252 -0.666 -0.918
0.98 -1.317 -0.296
0.828 -1.2 -0.876
0.308 -1.642 -0.229
0.216 -1.496 -0.815
-0.438 -1.642 -0.155
-0.464 -1.496 -0.747
-1.11 -1.317 -0.088
-1.076 -1.2 -0.686
-1.576 -0.731 -0.042
-1.5 -0.666 -0.644
-1.742 0.0 -0.025
-1.651 0.0 -0.629
-1.576 0.731 -0.042
-1.5 0.666 -0.644
-1.11 1.317 -0.088
-1.076 1.2 -0.686
-0.438 1.642 -0.155
-0.464 1.496 -0.747
0.308 1.642 -0.229
0.216 1.496 -0.815
0.98 1.317 -0.296
0.828 1.2 -0.876
1.445 0.731 -0.342
1.252 0.666 -0.918
1.907 0.0 0.656
1.763 0.722 0.656
1.763 0.361 1.281
1.763 -0.361 1.281
1.763 -0.722 0.656
1.763 -0.361 0.03
1.763 0.361 0.03
1.354 1.123 1.377
1.354 0.554 1.87
1.354 -0.19 1.977
1.354 -0.874 1.664
1.354 -1.281 1.032
1.354 -1.281 0.28
1.354 1.335 0.656
0.741 1.571 1.412
0.741 1.087 2.019
0.741 0.388 2.356
0.741 -0.388 2.356
0.741 -1.087 2.019
0.741 -1.571 1.412
0.741 -1.744 0.656
0.741 1.744 0.656
0.019 1.744 1.378
0.019 1.335 1.99
0.019 0.722 2.399
0.019 -0.0 2.543
0.019 -0.722 2.399
0.019 -1.335 1.99
0.019 -1.744 1.378
0.019 -1.888 0.656
0.019 1.888 0.656
-0.703 1.744 0.656
-0.703 1.571 1.412
-0.703 1.087 2.019
-0.703 0.388 2.356
-0.703 -0.388 2.356
-0.703 -1.087 2.019
-0.703 -1.571 1.412
-0.703 -1.744 0.656
-1.316 1.335 0.656
-1.316 1.123 1.377
-1.316 0.554 1.87
-1.316 -0.19 1.977
-1.316 -0.874 1.664
-1.316 -1.281 1.032
-1.725 0.722 0.656
-1.725 0.361 1.281
-1.725 -0.361 1.281
-1.725 -0.722 0.656
-1.868 0.0 0.656
1.21 -0.384 -1.402
0.648 -0.871 -1.742
0.648 -0.189 -2.053
1.21 0.384 -1.402
0.648 0.552 -1.946
0.648 1.118 -1.456
-0.12 -1.149 -1.755
-0.12 -0.544 -2.172
-0.12 0.185 -2.261
-0.12 0.872 -2.0
-0.12 1.359 -1.451
-0.887 -1.276 -1.112
-0.887 -0.871 -1.742
-0.887 -0.189 -2.053
-0.887 0.552 -1.946
-0.887 1.118 -1.456
-1.449 -0.384 -1.402
-1.449 0.384 -1.402

CELLS 188 752
3 0 1 2
3 2 1 3
3 1 4 3
3 3 4 5
3 4 6 5
3 5 6 7
3 6 8 7
3 7 8 9
3 8 10 9
3 9 10 11
3 10 12 11
3 11 12 13
3 12 14 13
3 13 14 15
3 14 16 15
3 15 16 17
3 16 18 17
3 17 18 19
3 18 20 19
3 19 20 21
3 20 22 21
3 21 22 23
3 22 24 23
3 23 24 25
3 24 26 25
3 25 26 27
3 26 0 27
3 27 0 2
3 28 29 30
3 28 30 31
3 28 31 32
3 28 32 33
3 28 33 34
3 28 34 29
3 30 29 35
3 30 35 36
3 30 36 37
3 31 30 37
3 31 37 38
3 31 38 39
3 32 31 39
3 32 39 40
3 33 32 40
3 29 41 35
3 35 41 42
3 35 42 43
3 36 35 43
3 36 43 44
3 37 36 44
3 37 44 45
3 38 37 45
3 38 45 46
3 38 46 47
3 39 38 47
3 39 47 48
3 40 39 48
3 41 49 42
3 42 49 50
3 42 50 51
3 43 42 51
3 43 51 52
3 44 43 52
3 44 52 53
3 45 44 53
3 45 53 54
3 46 45 54
3 46 54 55
3 47 46 55
3 47 55 56
3 48 47 56
3 48 56 57
3 49 58 50
3 50 58 59
3 50 59 60
3 51 50 60
3 51 60 61
3 52 51 61
3 52 61 62
3 53 52 62
3 53 62 63
3 54 53 63
3 54 63 64
3 55 54 64
3 55 64 65
3 56 55 65
3 56 65 66
3 57 56 66
3 60 59 67
3 60 67 68
3 61 60 68
3 61 68 69
3 62 61 69
3 62 69 70
3 63 62 70
3 63 70 71
3 64 63 71
3 65 64 71
3 65 71 72
3 66 65 72
3 68 67 73
3 68 73 74
3 69 68 74
3 70 69 74
3 70 74 75
3 71 70 75
3 72 71 75
3 72 75 76
3 74 73 77
3 75 74 77
3 76 75 77
3 76 77 14
3 76 14 12
3 76 12 10
3 76 10 72
3 72 10 66
3 66 10 8
3 66 8 57
3 57 8 6
3 57 6 48
3 48 6 4
3 48 4 40
3 40 4 1
3 40 1 33
3 33 1 0
3 33 0 34
3 34 0 26
3 34 26 29
3 29 26 41
3 41 26 24
3 41 24 49
3 49 24 22
3 49 22 58
3 58 22 20
3 58 20 59
3 59 20 18
3 59 18 67
3 67 18 16
3 67 16 73
3 73 16 14
3 73 14 77
3 78 79 80
3 81 78 80
3 81 80 82
3 81 82 83
3 79 84 85
3 80 79 85
3 80 85 86
3 82 80 86
3 82 86 87
3 83 82 87
3 83 87 88
3 84 89 90
3 85 84 90
3 85 90 91
3 86 85 91
3 86 91 92
3 87 86 92
3 87 92 93
3 88 87 93
3 90 89 94
3 91 90 94
3 91 94 95
3 92 91 95
3 93 92 95
3 93 95 17
3 93 17 19
3 93 19 21
3 93 21 88
3 88 21 23
3 88 23 83
3 83 23 25
3 83 25 27
3 83 27 81
3 81 27 2
3 81 2 78
3 78 2 3
3 78 3 79
3 79 3 5
3 79 5 7
3 79 7 84
3 84 7 9
3 84 9 89
3 89 9 11
3 89 11 13
3 89 13 94
3 94 13 15
3 94 15 95
3 95 15 17

CELL_TYPES 188
5
5
5
5
5
5
5
5
5
5
5
5
5
5
5
5
5
5
5
5
5
5
5
5
5
5
5
5
5
5
5
5
5
5
5
5
5
5
5
5
5
5
5
5
5
5
5
5
5
5
5
5
5
5
5
5
5
5
5
5
5
5
5
5
5
5
5
5
5
5
5
5
5
5
5
5
5
5
5
5
5
5
5
5
5
5
5
5
5
5
5
5
5
5
5
5
5
5
5
5
5
5
5
5
5
5
5
5
5
5
5
5
5
5
5
5
5
5
5
5
5
5
5
5
5
5
5
5
5
5
5
5
5
5
5
5
5
5
5
5
5
5
5
5
5
5
5
5
5
5
5
5
5
5
5
5
5
5
5
5
5
5
5
5
5
5
5
5
5
5
5
5
5
5
5
5
5
5
5
5
5
5
5
5
5
5
5
5

CELL_DATA 188
SCALARS cell_data_0 double
LOOKUP_TABLE default
7.96872664319e-09
2.81323384481e-08
1.97302713964e-08
1.16119852569e-08
2.0961875633e-10
7.86303764299e-10
2.26142316991e-10
2.09154073859e-10
8.13197488208e-10
3.24073018898e-10
1.99848476674e-10
4.3209498879e-11
8.27277433916e-11
9.42334890092e-10
1.3610061373e-09
6.61926976145e-10
5.36247956168e-10
5.8984926559e-10
1.44111034865e-09
9.31264195961e-10
1.35887267992e-09
2.55465947976e-10
7.64702741507e-10
8.52524555088e-10
2.01149305623e-09
9.59742901599e-09
2.38752210793e-08
3.18546501985e-08
1.24791415362e-09
1.68023977052e-10
1.16688943973e-09
4.99732200512e-11
2.95328183308e-09
3.51737153542e-10
7.03737209292e-10
1.80702691004e-10
2.60735780932e-11
1.18789000577e-09
2.41975397422e-10
1.85850588589e-09
1.39960937965e-09
2.12511043613e-10
4.8658804495e-10
5.01348536782e-10
1.86205129464e-10
6.043530343e-12
2.71163194928e-10
1.6546854312e-10
5.46873813038e-11
1.89594880947e-10
5.19848559279e-10
6.96152073701e-10
6.36007561372e-10
8.05874535754e-10
1.40084868718e-09
1.55253865195e-09
2.27199058276e-11
8.71408729337e-11
1.14486129762e-10
1.28418526785e-10
1.08836796459e-11
2.3105962448e-10
6.33609729862e-11
2.14031364143e-10
7.43933627607e-11
2.45321911186e-10
1.05357814141e-10
4.5797721226e-10
2.00181954126e-10
2.03911606953e-10
1.52039705012e-10
2.57919345845e-10
6.203411834e-11
9.94570532117e-11
8.45335022834e-11
6.39798446472e-11
5.24690895599e-11
2.48501545462e-11
2.69442494901e-10
3.51237830526e-10
1.1780774796e-10
4.16987995822e-10
3.116959918e-11
3.40962001862e-10
2.01684295478e-10
1.67700917362e-10
2.75179379067e-10
1.48523172726e-10
2.69266569765e-11
6.4706478086e-11
4.75178354674e-12
4.10867574523e-11
1.4887479295e-10
8.30819363268e-11
9.69077643788e-11
1.72650145417e-11
9.68223460701e-11
9.58576987969e-11
1.87865614934e-10
1.19792792808e-10
2.61005485726e-11
2.19154133048e-11
1.24116745496e-10
4.01473372242e-11
1.17196140772e-11
1.06564104022e-11
1.81178921493e-10
3.54890417317e-10
1.60673997544e-11
2.65786954316e-10
1.2533902563e-09
6.21423671616e-10
6.8932446959e-10
1.52117289918e-09
1.07712223301e-09
1.64747684332e-09
1.00856220705e-09
7.25412168429e-10
1.06029415034e-11
2.27530042793e-10
4.76211915798e-10
5.33131369799e-09
8.85727039363e-09
2.44248475416e-09
6.74634911471e-10
8.62314520573e-10
2.5842677694e-09
2.47392987244e-09
1.74805925934e-09
9.57482498099e-10
5.05513301806e-10
2.56068138952e-10
3.16220699158e-11
2.37912315674e-10
1.15588051603e-09
6.60910490092e-10
1.17908932092e-09
8.35865089249e-10
1.10933269292e-09
8.92384590609e-10
8.81790920985e-08
9.92355515023e-08
5.135662977e-09
2.05959457251e-08
3.62250225543e-09
1.15062071103e-08
1.44902004883e-08
1.41708883634e-08
3.41993157753e-09
7.50177643945e-09
4.54109508212e-09
1.67983759386e-09
4.60106704687e-09
3.6283534134e-09
1.94844547176e-09
1.15931837882e-09
4.17418015458e-09
1.4080739771e-09
8.88797114348e-09
3.46627233861e-09
1.42132213544e-09
1.5428781979e-09
2.80142503653e-10
5.89860169714e-09
5.00316491889e-09
4.02037068508e-09
6.06818542478e-09
5.93686284609e-10
4.65479406821e-09
2.71021637362e-09
2.48682064018e-09
1.90970323402e-08
3.44676052019e-08
2.32237738716e-08
2.93598856944e-08
1.55531262297e-08
1.32415180063e-08
3.35657977606e-08
3.39480766577e-09
4.36406289461e-09
1.78855164012e-09
5.26686827357e-11
1.3395426012e-09
1.14297171522e-09
6.29747643947e-09
6.01040396425e-10
6.08742749378e-10
1.66923397077e-09

