# vtk DataFile Version 3.0
File Name: Molecule/sphere_cent/sphere_cent_0-s21.vtk
ASCII
DATASET UNSTRUCTURED_GRID
FIELD FieldData 1
TIME 1 1 double
0.0
POINTS 858 double
-0.51285398006 -0.77634948492 0.36557975411
-0.35947951674 -0.81277877092 0.45833390951
-0.46860143542 -0.70091462135 0.53771841526
-0.38661906123 -0.88254892826 0.26737618446
0.89038401842 0.27035796642 0.3661377728
0.84008252621 0.43653652072 0.32181563973
0.79096180201 0.35466274619 0.4985947907
0.78289592266 -0.39334949851 0.4818854928
0.70651519299 -0.56159549952 0.43047422171
0.82251393795 -0.48315259814 0.29987478256
0.34842023253 -0.89891177416 -0.2620601058
0.37631839514 -0.82196396589 -0.42737066746
0.51525360346 -0.8057872057 -0.29151329398
0.66172790527 -0.72801160812 -0.17658703029
0.52279865742 -0.84530901909 -0.10552223027
0.89113777876 -0.29214039445 0.34634065628
0.99931287766 0.0093296151608 0.03576028347
0.9890897274 0.13357128203 -0.061863910407
0.98735630512 0.13249288499 0.087074495852
0.98642045259 -0.096627406776 0.13271640241
0.98098093271 0.049194216728 0.18773163855
-0.8508349061 -0.061916232109 -0.52165383101
-0.90995961428 -0.11990663409 -0.39525681734
-0.89201688766 0.024722054601 -0.45074409246
-0.95304989815 -0.0086574610323 -0.30243504047
-0.9751330018 0.10690969229 -0.19285193086
-0.93242043257 0.19631448388 -0.30320325494
0.1304783076 0.13694989681 -0.98191183805
-0.005095962435 0.27776610851 -0.96056461334
0.17481099069 0.29388734698 -0.93890231848
0.052061505616 0.99851953983 -0.0098708216101
-0.10195969045 0.987175107 -0.12279681861
-0.071228921413 0.99392384291 0.081787601113
-0.44222128391 0.89038670063 -0.10604291409
-0.5499740243 0.83404129744 -0.032796379179
-0.40933555365 0.90926611423 0.075331747532
-0.25705909729 0.95141279697 0.16708526015
-0.38504064083 0.88267600536 0.26866951585
-0.55317425728 0.81775134802 0.15898230672
-0.51041561365 0.79180622101 0.33531543612
-0.11883424222 -0.9892411828 -0.080211669207
-0.014788015746 -0.99964851141 0.020895477384
-0.19070568681 -0.98034888506 0.050195328891
0.098979443312 -0.99155187607 -0.083241052926
-0.044834442437 -0.98831814528 -0.14101888239
0.062988333404 -0.98853218555 0.13708622754
0.16837568581 -0.98439478874 0.050126872957
-0.094054460526 -0.98445051908 0.14820806682
0.3181835711 -0.117931135 -0.94025814533
0.1673990339 -0.24061658978 -0.95599716902
0.17894741893 -0.050888624042 -0.98250621557
0.27526417375 0.10429629683 -0.95538938046
0.014220973477 -0.1246265322 -0.99156719446
-0.90300840139 0.34823301435 0.25022310019
-0.95423597097 0.27629688382 0.11292782426
-0.95414352417 0.1539735347 0.25398942828
-0.97023516893 -0.046601999551 0.23736487329
-0.99257487059 0.085928499699 0.084638997912
0.072715118527 0.97963368893 -0.18720510602
-0.64630901814 0.5073517561 0.56991666555
-0.50163549185 0.51604127884 0.69427347183
-0.55750465393 0.62858444452 0.54222160578
-0.68911874294 0.59432893991 0.41453170776
-0.77380281687 0.44513195753 0.45007950068
-0.71070873737 0.38216120005 0.59063655138
-0.76588970423 0.58540439606 0.26425015926
-0.65898263454 0.7053578496 0.26115620136
-0.70250082016 0.70507520437 0.094278298318
-0.32529965043 -0.5497225523 -0.76926004887
-0.14343380928 -0.55282694101 -0.82082402706
-0.23953188956 -0.66142916679 -0.71065354347
-0.023752579466 -0.68451631069 -0.72860991955
0.030401578173 -0.53110432625 -0.84662181139
-0.41553243995 -0.64518821239 -0.6409791708
-0.96714985371 -0.18639414012 -0.17267498374
-0.98943138123 -0.026930226013 -0.14170357585
-0.99937927723 -0.029697928578 -0.016604587436
-0.99318087101 0.09477315098 -0.068071432412
-0.051117073745 0.95312303305 -0.29732781649
0.11069388688 0.9314852953 -0.34552437067
-0.073559395969 0.95983612537 0.26886740327
0.055738616735 0.98580741882 0.15752035379
0.030707819387 0.51645344496 0.85483014584
-0.11554189026 0.61114162207 0.782805264
-0.15699875355 0.43195164204 0.88812685013
-0.31304267049 0.34071162343 0.88572096825
-0.31565535069 0.50962036848 0.79951304197
0.32012650371 0.43821680546 0.839232862
0.51176100969 0.41149234772 0.75409859419
0.40682667494 0.56721693277 0.71606165171
0.55773699284 0.54096764326 0.62940466404
0.45595568419 0.67813742161 0.57617485523
-0.45984721184 -0.7261877656 -0.51099568605
-0.30509194732 -0.76556515694 -0.56639868021
0.17352291942 0.7363461256 0.65389358997
0.31492221355 0.69578415155 0.6455424428
0.2259503603 0.83048170805 0.50890922546
0.2221686244 0.62098050117 0.75046801567
0.11419329792 0.91227281094 0.39033094049
0.066241703928 0.82113212347 0.56683146954
0.10896810889 0.21645380557 0.97018301487
0.2667376399 0.26517853141 0.92644327879
0.14373794198 0.34442305565 0.92701929808
0.82265210152 0.1572586447 0.54630410671
0.9249715209 0.095519043505 0.36768177152
0.85247766972 -0.025779532269 0.52209025621
0.72744935751 0.0012117904844 0.68615072966
0.67418026924 0.15962436795 0.72099637985
0.5589440465 0.04075377807 0.8281223774
0.017473593354 -0.010782878846 0.99954098463
-0.037041317672 0.14500562847 0.98877602816
-0.18048007786 0.015186870471 0.98345887661
-0.1833333075 0.19457490742 0.96179080009
-0.32560506463 -0.69385278225 0.64230787754
-0.45664003491 -0.60207033157 0.65495359898
-0.78122675419 -0.58379143476 -0.22073955834
-0.69549119473 -0.68890368938 -0.2040245086
-0.7425737381 -0.66523057222 -0.077092453837
-0.53303295374 -0.069736108184 0.84318971634
-0.50787085295 0.12461811304 0.85156089067
-0.64664024115 0.022598946467 0.76242983341
-0.59244912863 0.22667904198 0.77309054136
-0.48560544848 0.3726528585 0.78976690769
-0.6073641181 0.38005688787 0.69758582115
-0.70415532589 0.14117960632 0.6958746314
-0.70137065649 0.26586008072 0.66133284569
-0.12965594232 0.25056794286 0.95764952898
-0.01673447527 0.32440242171 0.94573801756
-0.59590631723 -0.32962557673 0.73228406906
-0.50150960684 -0.24881154299 0.82807892561
-0.6275075078 -0.1731094569 0.75862467289
-0.50792729855 -0.85054093599 0.13268324733
-0.35881134868 -0.92800998688 0.10017040372
-0.78731739521 0.2849791646 0.54658269882
0.5413595438 0.21646736562 0.81244373322
0.44786950946 0.14866411686 0.88144433498
0.41790109873 0.30223828554 0.85673207045
-0.58771502972 -0.55991178751 0.58405166864
-0.48336431384 -0.46525344253 0.74079573154
-0.24119991064 -0.57774335146 0.77972370386
-0.36275541782 -0.5806030035 0.72887474298
-0.33268985152 -0.49374097586 0.80331689119
-0.82319092751 -0.5599360466 -0.093715682626
-0.87079644203 -0.46548753977 -0.15791229904
-0.88155454397 -0.47110900283 -0.02954088524
-0.80981308222 -0.58463197947 0.047723658383
-0.90810996294 -0.40591049194 0.10277236253
-0.70593309402 -0.70470219851 0.06767821312
-0.61493134499 -0.78123360872 -0.10429577529
-0.23841705918 -0.4534971714 0.85873961449
-0.77379906178 -0.055660422891 0.63092213869
-0.77766251564 0.056404970586 0.62610852718
-0.86857914925 0.20482455194 0.45024052262
-0.79115015268 0.16271199286 0.58937555552
-0.85033291578 -0.28773024678 0.44061380625
-0.92228722572 -0.193237409 0.33460143209
-0.88903677464 -0.36586722732 0.2751467526
-0.95164036751 -0.24367153645 0.18674497306
-0.69888526201 -0.57384431362 0.42691159248
-0.70538115501 -0.47929987311 0.52203112841
-0.80076605082 -0.46875017881 0.37267589569
-0.59193783998 -0.66343307495 0.45764639974
-0.65935438871 -0.67595016956 0.32910743356
0.19938021898 -0.9614251852 -0.18936862051
0.19396355748 -0.92971545458 -0.31283465028
0.026749245822 -0.9773517251 -0.20708209276
0.30702763796 -0.950286448 -0.04054037109
-0.98592984676 -0.16214266419 -0.041714180261
-0.98929083347 -0.11299345642 0.091919489205
-0.964807868 -0.25760936737 0.052879214287
-0.94210904837 -0.33117178082 -0.052512139082
-0.83389043808 -0.51514053345 0.19770050049
-0.7558054328 -0.58488339186 0.29400548339
-0.91162312031 -0.0206613224 0.40994244814
-0.62455582619 -0.43331134319 0.64971876144
-0.69243884087 -0.33560395241 0.63854795694
-0.7432769537 -0.64515578747 0.17657883465
-0.64253461361 -0.73755377531 0.20575554669
-0.37749025226 0.81707280874 0.43494984508
-0.076721541584 0.86716192961 0.49061277509
-0.21292877197 0.79407459497 0.56903964281
-0.084631241858 0.76104992628 0.64310050011
-0.22725592554 0.69163417816 0.68502104282
0.91803538799 0.34575277567 0.19414038956
0.26417902112 -0.78356003761 -0.56233018637
0.42907899618 -0.72699528933 -0.53597772121
0.2038719058 -0.69865518808 -0.68577975035
0.09137737751 -0.7854334712 -0.61216425896
0.13209079206 -0.85439193249 -0.50259065628
0.23951853812 -0.87429451942 -0.42207342386
-0.025288276374 -0.87832051516 -0.47737804055
0.96165466309 -0.052800323814 0.26907527447
0.9551230669 0.1965713203 0.22151492536
0.96114897728 0.26734852791 0.068845055997
0.90518635511 0.42502266169 0.0034707717132
-0.22268384695 0.86210507154 0.45495584607
-0.30628836155 -0.95067548752 -0.038364462554
-0.46570578218 -0.8844692111 -0.02695736289
-0.23398508132 -0.95044332743 0.20468567312
0.27665531635 -0.95434761047 0.11200923473
0.38263395429 -0.91369849443 0.13650400937
0.1916218102 -0.95883202553 0.20920851827
0.30673462152 -0.92483776808 0.22486333549
0.042700070888 0.680121243 0.73183852434
-0.37462431192 -0.037827685475 0.92623502016
-0.28435471654 -0.14051836729 0.94838285446
-0.15717355907 -0.20368544757 0.96621614695
-0.42116552591 -0.14713220298 0.894952178
-0.35839897394 -0.25206461549 0.89886677265
-0.23421414196 -0.3165704906 0.91918063164
0.090083248913 -0.91076588631 -0.40301996469
0.085374087095 -0.95006537437 -0.30011060834
-0.033608581871 -0.93764466047 -0.34590193629
-0.15785005689 -0.88216817379 -0.44163441658
-0.12868528068 -0.95679289103 -0.25930693746
-0.16473270953 -0.91921788454 -0.35547956824
0.39143574238 -0.87732189894 0.27724412084
0.92207962275 -0.25894421339 -0.28748646379
0.88930255175 -0.22040219605 -0.39988815784
0.93908441067 -0.12724794447 -0.31928899884
-0.34849232435 -0.37851369381 0.85699820518
-0.093905098736 -0.32972124219 0.93931829929
0.0081632984802 -0.89746439457 0.44098863006
-0.12914797664 -0.88465934992 0.44788974524
-0.11649905145 -0.94240349531 0.31356391311
[...]
CELL_DATA 1712
SCALARS cell_data_0 double
LOOKUP_TABLE default
5.34027135223e-09
1.33667046528e-08
7.09313417403e-09
5.9714643046e-09
1.69423369817e-08
1.74913283322e-08
5.93854137504e-09
1.71186632516e-09
5.12605905217e-09
2.77442151064e-09
1.42438189716e-08
1.77886437435e-08
1.04927365571e-08
3.39551312333e-09
9.8268687977e-09
2.31759568839e-09
1.49030310237e-09
2.35940579221e-09
9.14745033358e-09
6.34120433583e-09
4.95155203676e-10
4.98305775556e-10
2.26349065896e-09
2.06770113104e-08
9.85209707936e-09
6.56002964781e-09
1.0152324341e-08
2.29869590063e-09
2.01829802122e-09
1.26029108257e-08
4.20528959533e-09
1.3691845639e-08
8.63524452484e-09
1.43527729448e-08
1.34403659522e-08
5.96609449847e-09
4.71119714888e-09
9.25742279989e-09
1.02694736624e-08
3.02597735278e-09
1.19790019594e-09
3.05881373434e-09
2.24989523909e-10
3.95548925929e-10
9.81766299244e-09
4.95381167981e-09
2.64221517739e-09
1.89418047134e-08
1.1044803603e-08
1.29503390738e-09
2.88203630161e-10
1.38365768383e-08
1.564326676e-08
1.71474055925e-08
2.62794453995e-09
7.56153128033e-09
1.46709130164e-08
9.54373020248e-09
1.2898739188e-08
2.82899066328e-09
7.94671536716e-09
7.50446321268e-09
1.88321002466e-09
1.22394750007e-08
9.49195740609e-10
1.06533152157e-08
1.08269448705e-08
1.19376569172e-08
5.74732157657e-09
4.82231823871e-09
2.98872031539e-09
4.52272441005e-09
2.52371374407e-08
3.1318124693e-09
9.60833454526e-09
1.88357283181e-08
6.0431320513e-09
4.48760176301e-09
1.58266562259e-08
4.37570365241e-09
2.77974669933e-09
4.21499002828e-09
6.27844624873e-09
2.51071436482e-09
5.40218036324e-09
6.98733907603e-09
4.30964468303e-09
6.36976097061e-09
6.4405891052e-09
3.06811100047e-09
8.80990567226e-09
6.23457898336e-09
1.07834365357e-08
4.70758913712e-09
1.27084002503e-08
1.03092504579e-08
4.31226452424e-10
3.8779361884e-10
8.75343103415e-09
3.07269322929e-09
2.88647115608e-09
9.53620028672e-09
5.67591144501e-09
4.69094504455e-09
2.77222823459e-09
2.57924396077e-09
2.79866661314e-09
1.64418110502e-09
5.79401615594e-09
1.06102052798e-08
1.07404667815e-08
6.16387398106e-11
2.67961323284e-10
3.25799582735e-09
8.16889826987e-09
6.46943043344e-09
1.27691998824e-08
5.78549518567e-09
4.60191663076e-09
8.03411124011e-09
9.49760730508e-10
2.59765233638e-09
2.18074170054e-09
2.01058227787e-09
7.02388702317e-09
6.15693134893e-09
2.02955781881e-09
7.85396276895e-09
1.31167574393e-08
1.14027370314e-08
2.87579331419e-09
2.36602021493e-09
2.43255625973e-09
1.40992529233e-09
6.68013517945e-09
1.11502394517e-09
1.30756363356e-09
6.89613228827e-09
3.27962686097e-09
7.70139815727e-09
1.95686352215e-09
8.96234834057e-09
2.37380892061e-09
1.35042522619e-09
7.56198036997e-09
3.35145371365e-09
1.57904818922e-09
1.04110816288e-08
1.10437195791e-08
1.25843726569e-09
2.51810081809e-09
2.85791503681e-09
7.42377623607e-09
6.69138782962e-09
4.61723721899e-09
6.68607294774e-09
1.11072122898e-08
5.46344841266e-09
2.40083736483e-09
3.5262980712e-09
8.07219029287e-09
2.69666752775e-09
6.7440462365e-09
7.50587778994e-09
1.39985558599e-09
5.19123104348e-09
7.67087630254e-09
1.02947440858e-08
3.33691732086e-09
1.1775281542e-08
1.00394076421e-08
3.67339927896e-09
1.19113134994e-09
9.20828882389e-09
3.47388205848e-09
1.04679513976e-08
5.6881940366e-09
1.0044693424e-08
8.66391648463e-09
7.36950372252e-09
2.61765448806e-09
1.98808582449e-09
8.74887042342e-09
2.02163975698e-09
9.8814458735e-09
4.91360176364e-09
3.54851387458e-09
1.32502346061e-09
3.09522065507e-09
9.49068998964e-10
1.61897110774e-09
6.10546745015e-09
8.41118644466e-09
4.51052862379e-09
6.19373480702e-09
8.4936139276e-09
4.03610100041e-09
6.94840852579e-09
8.56064102979e-10
6.9085001222e-10
4.29596845006e-09
1.85449884536e-08
1.38145416613e-08
4.23643537775e-10
6.32189419151e-10
7.61751315902e-09
8.00516012543e-09
2.52743051651e-09
2.40571966262e-10
5.58037980827e-09
5.77975141475e-09
1.96251371946e-09
1.11015558408e-09
1.14875479049e-08
4.80899002334e-09
3.40477024536e-09
6.54508110097e-09
4.23252275059e-09
1.32455479048e-09
4.64674944737e-09
3.9840972621e-09
2.08756179561e-09
6.02710126298e-09
9.21683160217e-09
1.05080053646e-08
3.20655233266e-09
4.15274589945e-09
1.89116527327e-10
2.11208017001e-09
6.29186670748e-09
1.91210182277e-09
1.04689952335e-09
9.95407521597e-09
3.6873926653e-09
2.38986293887e-09
2.36968078152e-09
3.18453871456e-09
4.67428778133e-09
1.0133373224e-10
9.17520969283e-09
4.50790460935e-09
7.9521634706e-09
1.70136884401e-09
3.03969218834e-09
8.67594185161e-09
1.14411340854e-08
1.00755002138e-08
7.29585936261e-09
1.25937971745e-09
8.58450733966e-09
3.47581263954e-09
1.78621123871e-09
5.15406543035e-10
2.11862260081e-09
5.30672574157e-10
6.38199371267e-09
1.96505076982e-09
6.29522013406e-10
7.97492964983e-10
6.90420252581e-09
6.4336951366e-09
1.06728663365e-08
1.40957748707e-09
1.82477815203e-09
6.33897534242e-09
1.53788995379e-09
1.24846363799e-10
2.20089487243e-09
1.29802613203e-09
3.16577651346e-09
2.53077919947e-09
3.96258129568e-09
2.72583369344e-09
5.14339480254e-09
6.88028661071e-10
6.77436472744e-09
1.12923029297e-08
9.91812225768e-09
9.07202862383e-10
4.43201052159e-09
1.27378669218e-08
2.52668434078e-09
5.07647143367e-11
1.83090844302e-09
3.47498819498e-10
5.44802434553e-10
1.45564912772e-09
6.42185133504e-10
3.32453906716e-09
1.55188337824e-09
6.83804229669e-10
2.99889999986e-11
2.58398339546e-09
8.5146499624e-09
1.95014793814e-09
4.39845799759e-09
5.36734996359e-09
4.31599758129e-09
1.53029984362e-09
9.33518845702e-09
8.78426628639e-09
1.63198045835e-09
3.09981262241e-09
3.71245885828e-09
9.44640419953e-09
2.33705376784e-09
7.04157757044e-09
4.47522589497e-09
3.42526417541e-09
1.26631302551e-09
1.22349218147e-09
8.62302072984e-09
3.97419040759e-09
4.0343403994e-09
9.06738990487e-09
5.09460410139e-09
5.43644099031e-09
9.39049518147e-09
8.12110320384e-09
7.07559944043e-09
3.50092781455e-09
7.83928035081e-09
2.15311826809e-09
6.4865678305e-09
2.25030973921e-09
7.16438358199e-10
7.23335680637e-09
4.58608885275e-09
6.604932606e-09
2.39728866355e-09
7.64927789245e-10
1.83637794388e-09
1.11272209588e-09
6.3471442516e-09
3.17601406006e-09
3.41670091194e-09
1.37903862906e-09
1.01562464352e-08
6.50587578425e-09
5.73614197919e-09
8.08543236987e-10
7.01605320989e-09
3.4775614989e-09
2.39589657215e-09
1.04210923163e-08
2.56448569418e-09
1.09862426426e-09
4.61927862172e-09
2.68965705612e-09
1.71602592733e-09
3.60870104775e-09
1.38543784676e-09
6.71543963077e-09
4.8079815892e-09
3.70112726382e-09
6.06225003054e-09
4.93312042711e-09
8.80865923251e-09
3.61072509465e-09
2.66506816412e-10
5.5726720502e-09
6.52593425614e-09
1.51853927119e-10
1.39983115527e-08
4.44569827666e-10
7.644627662e-10
7.79609789669e-09
1.73468070315e-09
3.62557261631e-09
8.31646957816e-09
4.76487298911e-09
9.2734501341e-09
8.68449578825e-09
3.60334427927e-09
1.37810564475e-09
3.48924292772e-09
9.57206228547e-09
1.37160601445e-08
3.14434780604e-09
3.66122360307e-09
5.37062003351e-09
3.26454968092e-09
1.96194072957e-09
1.04022033847e-08
1.08957310987e-08
5.63447155397e-09
8.43165760189e-09
1.1255992838e-08
5.37608256859e-10
1.49978373528e-09
1.0789382511e-08
1.1936259106e-08
3.13642022971e-09
1.45333347038e-09
6.15178249814e-09
3.42299021162e-09
8.27432985964e-10
1.29844817389e-08
5.5941765928e-09
1.06187831413e-08
1.38719239291e-09
2.54240216334e-09
3.74544755667e-10
5.53952125242e-09
3.35161504299e-09
1.98170614865e-09
3.64787113633e-09
6.93491645945e-10
6.14308524969e-09
8.57066238404e-09
6.44715184429e-09
3.12676862563e-09
5.58159680291e-09
4.91595222319e-10
1.07754622583e-08
7.12589446165e-10
2.54718044999e-09
2.05096310556e-09
4.46879022062e-10
2.35511862491e-09
3.44336623447e-10
8.77750140439e-10
1.94993926982e-09
3.50640333887e-10
9.66107304953e-09
5.68999528018e-09
1.80264523469e-09
1.57833941719e-08
1.90077868417e-09
9.71879488735e-10
2.92163563075e-09
2.23891404782e-09
7.91946027181e-10
4.55077055519e-09
7.5867703363e-09
1.41027147693e-09
1.85478873718e-10
6.2232158669e-09
4.06768592412e-09
1.02080588405e-08
6.29464540568e-09
6.22961893562e-09
1.03592347006e-10
1.47024531455e-09
9.00417547722e-10
1.4557028995e-09
7.83099204121e-09
5.99843066359e-09
1.00318914175e-08
3.86414069372e-09
1.51282321461e-09
3.30102988887e-09
8.5629824297e-09
1.14594949036e-08
6.59693446894e-09
3.20103785851e-09
3.93126344997e-09
6.25749885085e-10
5.65294385673e-09
2.50729516957e-09
2.04572010069e-09
7.08559974949e-10
1.62129078347e-09
1.31171886001e-08
3.93348114767e-09
1.86967872864e-09
5.22106880078e-09
7.88972079086e-09
6.15548354098e-09
2.20331604795e-09
5.40296019341e-09
4.2033546237e-09
6.47449445724e-09
2.31902219663e-09
5.96427632413e-10
3.82693777911e-09
4.18632069998e-09
6.00345587807e-09
1.24785446591e-08
8.27972470656e-09
6.04479634528e-09
1.18934866332e-08
8.1348264173e-09
8.32426874811e-09
2.53446023199e-09
9.78258211408e-09
7.39189329118e-10
8.43652507517e-09
2.70647927883e-09
2.15680815754e-09
1.05821145882e-08
6.63791560022e-09
1.67441358354e-09
1.32970797835e-10
5.54792116878e-09
2.13445400816e-09
2.47974988465e-09
4.89701631736e-09
1.52498707311e-09
1.44989633447e-09
9.70315401557e-09
1.06850724287e-08
5.95946375609e-09
5.43091917138e-10
2.66881101994e-10
7.58549367943e-10
4.3975469828e-09
4.31779426515e-09
5.45944921203e-10
1.18700904295e-10
1.08253627807e-09
1.54769022833e-09
1.37446854726e-09
2.77606762803e-09
4.96597295402e-09
7.45440148245e-10
6.08620439996e-09
9.96847200204e-10
4.53587021811e-09
1.67149121955e-09
3.09349649993e-09
2.98884600807e-09
2.98434715173e-09
7.9820692987e-09
4.78893690662e-09
3.07560930565e-09
4.23807915649e-09
2.70390094561e-09
7.33019144788e-09
8.96599603662e-09
4.78097702703e-09
1.7915545121e-09
1.16476435572e-08
3.03921024556e-09
2.59013934848e-09
1.89671472209e-09
1.63186124661e-09
2.34169711562e-09
1.79825189805e-10
2.3265656445e-09
2.50167434883e-09
1.13954508701e-09
1.05342905506e-08
1.355076955e-09
6.11796292079e-09
7.31435548879e-09
1.49522978636e-10
1.27415172174e-09
4.30599336425e-09
2.74850797705e-09
2.35771050979e-09
5.44895613528e-09
2.80941926046e-09
4.29994457899e-10
1.33272470215e-09
1.57404718073e-09
6.37845155501e-09
4.86414751847e-10
2.7299954869e-09
3.9813742943e-09
4.06276583031e-11
8.10450106504e-10
1.2937156736e-09
1.09522611334e-10
7.70353496879e-10
2.01744509636e-09
1.95693674983e-09
2.63240527895e-09
1.33028789518e-09
1.06954164218e-09
3.44680920414e-09
3.2420722583e-09
1.06760075418e-09
3.00543763771e-09
1.68252924683e-09
3.65835562126e-09
4.63792325996e-09
3.46955004246e-09
4.22140980826e-09
2.09147546506e-09
4.73918055152e-09
1.50711570814e-09
3.56298549167e-09
2.77799149098e-09
5.66860618229e-10
2.11457781386e-11
3.68063096142e-09
3.41607806262e-09
5.20087107521e-09
7.43635171295e-09
2.92641828528e-09
6.30754426851e-09
1.49128387319e-09
5.19847571596e-10
1.12549092991e-09
7.247826343e-10
1.20225835698e-09
1.32409858448e-09
6.43310498455e-09
8.65917711325e-09
4.22425584251e-09
5.02505627011e-09
1.34579411941e-09
1.09313690923e-08
1.34856432713e-09
3.66591634902e-09
7.36467082192e-09
3.63256560121e-09
1.91263256952e-09
6.34539589626e-10
4.4334460763e-10
3.07116807229e-10
1.24880939023e-09
1.12463211465e-09
2.30763952746e-09
2.86034810219e-09
4.58417518708e-09
3.33649913145e-09
7.74930681202e-09
9.20784613496e-09
3.22985040372e-09
4.46651058615e-09
3.77379685185e-09
1.31954671736e-09
6.0784291034e-09
1.14670133403e-08
9.54016464166e-09
3.36276063164e-09
7.02151757545e-09
1.91949414877e-09
2.57500189885e-09
8.78430584184e-09
1.02169685362e-09
3.19064888723e-09
4.49024092918e-09
1.21319126874e-08
8.19938336612e-09
3.50747459841e-10
9.03917210535e-09
3.70188083708e-09
1.56314891413e-09
1.39936853896e-09
6.58620864941e-09
1.11604461681e-08
5.67167626687e-09
4.24864198616e-09
4.91894721398e-09
5.96407109499e-09
1.29255143363e-09
1.0682049906e-08
3.30183412216e-09
4.58454899003e-11
2.47210263853e-09
7.30690060944e-10
4.74399799249e-09
6.04627185418e-09
6.21952274191e-09
1.26454998814e-09
1.11049257912e-09
2.07986448509e-09
2.24758357281e-09
7.42474137732e-10
5.58649702783e-09
4.24429198358e-09
3.28880262904e-10
2.87808107432e-09
2.98187591428e-09
1.27011508624e-09
4.72313643494e-11
5.35036295062e-10
6.97370086748e-09
3.0058475297e-09
1.06360194958e-09
2.93370669766e-09
1.06430386116e-09
2.32323623833e-09
2.43721739341e-09
5.08074990942e-10
3.49709171145e-09
2.0511586212e-09
5.30826745062e-09
1.57278568411e-09
7.44900380079e-10
1.49245754702e-09
3.18003732424e-09
5.51956844013e-10
7.1466814054e-09
6.5821732835e-10
1.30155808058e-09
2.17826153789e-09
3.6042316772e-09
7.78399975303e-09
9.57876214393e-10
1.6073145796e-09
1.64703837905e-09
1.57508920362e-10
3.04034938996e-09
1.66400746621e-09
4.88912196838e-10
2.00979811377e-09
9.48998061954e-11
3.43168015932e-09
3.53728045998e-09
3.02984998266e-09
2.89687519713e-09
9.13476761896e-10
3.12997781737e-09
1.73057888037e-09
2.24446841022e-10
4.1086397117e-10
9.87301471813e-10
4.13558310933e-10
3.74469430725e-10
5.49741679236e-10
7.13283247621e-10
7.03905900243e-12
2.64476024584e-09
4.01929142396e-10
9.07609801126e-11
3.62461073739e-10
2.03753573755e-09
2.36278191792e-10
8.30401253549e-09
1.12528010262e-09
1.37754781151e-08
5.75884623489e-09
5.06777335078e-09
3.54937596988e-09
5.83639461609e-09
7.06213123651e-09
8.98178449831e-09
1.91793161837e-09
2.39709899254e-09
3.53439053019e-09
3.48426412467e-09
5.03136668629e-09
7.6437017362e-09
3.55322867958e-09
4.68830178572e-09
7.80944247946e-10
4.51170853987e-09
1.29966780555e-08
6.14676082274e-10
1.51160925239e-09
1.58748832196e-09
2.10675793601e-09
1.00826451685e-09
7.38037726196e-11
5.77777446992e-10
2.53810710515e-10
5.0511797383e-09
4.04556526216e-09
1.01975080047e-10
7.78690437492e-09
8.77803487264e-09
1.24723495904e-09
2.9291026741e-09
2.51277128938e-09
2.01007453886e-10
1.69513572918e-09
1.74655296656e-09
4.0349691148e-09
9.90063183285e-09
1.56876009733e-09
9.80831881138e-10
2.2946767534e-09
9.67952359697e-10
2.96287315837e-09
1.08943737222e-09
8.92191140254e-10
2.34070412832e-09
8.26761388897e-10
2.34996057427e-10
4.79183937919e-09
3.03097948539e-09
5.27883120938e-10
1.6690413343e-09
3.27846745262e-09
2.41351589749e-09
6.67014734934e-09
4.93809433931e-09
3.38534168033e-09
1.20362648815e-08
3.72006135528e-11
3.51873552711e-09
5.95980020201e-09
8.15077951365e-09
2.51598277864e-09
4.00412790471e-09
2.33789404147e-09
6.8842530842e-09
7.3907217905e-09
3.71374706421e-09
3.46715343029e-09
9.78968920654e-09
2.60456252839e-09
3.62121021482e-09
2.57626285011e-09
6.23287724224e-09
3.83520682918e-09
3.25461165331e-09
1.22395079271e-09
8.54091760607e-09
5.89983078634e-09
3.08861666697e-09
6.90162737497e-09
7.28455097245e-10
1.8180113669e-09
1.15415353931e-09
5.07749989084e-09
2.0527472174e-09
7.12058039637e-10
3.22624546928e-09
2.05156673364e-10
9.33928326788e-09
1.15690729182e-09
1.05617218233e-08
1.00877226724e-09
3.41103737491e-09
6.09279229916e-09
3.71220203554e-09
7.77335771238e-09
2.02645613513e-09
9.39790281117e-09
2.35160080902e-09
3.00804320685e-09
2.90543933178e-09
2.14680262816e-09
7.93915740424e-09
2.97253064362e-09
6.50760580971e-10
8.81871153784e-10
1.11045887732e-08
3.37570023033e-09
1.10147150689e-09
7.00552817076e-09
9.93247124643e-09
2.18830081684e-09
3.71438380223e-09
2.67571670778e-09
1.50801543187e-09
5.93171369707e-09
4.35909808682e-09
3.23534249702e-09
5.55743604571e-09
9.48809538296e-09
7.94813983677e-09
1.76004392454e-09
4.2414278375e-09
5.20914759617e-09
6.1198258711e-09
3.3980151946e-09
1.29403614586e-08
1.48010738467e-09
3.80543751093e-09
8.67837246952e-10
6.46942719902e-12
7.77435335352e-10
1.24908010069e-08
1.86647758897e-09
2.65749164735e-09
3.39051696932e-09
7.91579635221e-09
4.73809313154e-10
1.16615358979e-09
8.21004138976e-09
3.61523490876e-09
7.23723112851e-10
3.31236592347e-09
3.69151466049e-09
4.52683430577e-09
1.39170356333e-09
4.2014901692e-09
7.4098154216e-10
2.73733367373e-09
1.10910498797e-09
1.72649867189e-09
1.81427858254e-09
1.01323389036e-09
2.3443340741e-10
3.83916922983e-09
1.26817676427e-09
3.68054068546e-10
3.4826174439e-09
6.35432758171e-10
1.4305716993e-09
8.11163688996e-09
2.91314549626e-09
3.68328165764e-09
1.2684434224e-09
1.802602236e-09
6.35999827209e-09
4.16317518223e-09
3.51621919489e-09
6.54519589141e-09
4.56643542422e-09
3.42581185409e-09
2.62320361685e-09
1.30856184046e-09
3.92367414322e-09
1.39051236916e-09
3.26156759276e-09
2.69880106059e-09
9.29633408503e-09
8.60270279665e-09
6.80724329989e-09
4.3964243463e-10
3.39385502788e-09
3.89825793222e-10
1.5852440174e-09
3.87802855634e-09
7.83947632854e-09
2.82297313819e-09
2.6772782457e-09
3.30127663111e-09
7.75096397769e-09
3.18923026012e-09
2.84288602946e-09
6.42714158267e-10
1.0251987898e-09
6.13586926097e-09
3.16808672189e-09
1.61539496779e-09
2.47158184311e-09
2.8756079349e-09
1.47663205721e-09
4.76564814172e-10
6.42287916241e-09
1.85234294235e-09
1.71312201866e-09
6.52392186613e-10
3.42936050579e-10
2.00650288399e-09
4.26962332284e-10
2.88292397895e-09
7.15148366415e-09
5.86329220455e-09
4.30508622632e-09
2.50769441161e-09
4.27594875248e-09
3.21094970374e-09
1.38139976572e-09
1.28555621052e-09
4.34322804328e-10
5.60868089254e-09
2.28867740978e-09
7.7418200747e-09
2.05000566508e-09
3.56833427594e-09
1.43263431695e-09
6.66297797738e-10
7.37661736506e-09
1.48585314401e-10
6.53093500521e-09
4.03054365955e-11
4.74501686112e-09
6.41482369246e-09
1.18362550404e-08
6.6166171848e-09
2.68230824814e-09
2.01939058123e-09
6.64726273264e-09
1.28769128984e-10
4.68740275784e-09
7.66587854323e-09
6.05312908233e-09
6.80710276705e-10
1.72382337671e-10
1.44471199959e-09
1.63182147569e-09
6.23491443725e-09
1.55295201005e-09
7.67747258465e-10
9.01986625599e-09
2.94374573188e-09
5.63795998755e-09
7.22906518023e-09
5.36996211761e-10
1.8693471335e-09
4.48214572282e-10
2.13358658335e-09
2.28091735222e-09
7.15008321693e-09
3.58478175208e-09
7.75140375457e-09
2.65270937041e-10
2.02968652209e-10
4.5562124932e-10
1.52752332038e-09
1.08009170965e-09
3.54883798742e-09
4.20658966522e-09
3.39761910835e-09
2.75363773983e-10
1.29566477656e-09
6.00315353879e-09
4.14762533788e-10
6.15052272782e-10
2.9196587655e-09
6.4084449891e-09
1.24317709507e-09
8.54501468803e-10
3.89402448838e-09
1.05887635063e-08
1.12108509489e-08
7.36537426138e-09
2.57662423278e-09
6.36212001489e-10
3.08294215064e-10
6.95914142627e-10
2.67621523865e-09
3.75334701996e-09
1.34874729393e-09
7.99957179871e-09
7.32509351375e-10
4.83376691413e-10
7.52098596536e-09
3.77763169197e-09
9.35227156882e-10
3.9935547059e-09
2.07681282796e-09
4.26254457971e-10
9.77945747318e-10
1.78839446051e-09
7.82172913175e-09
3.7745055037e-10
2.10013690238e-09
1.52524104227e-09
1.93804212046e-09
3.68963266261e-10
1.10993917987e-09
7.97433357457e-09
1.08433195769e-10
1.21437598153e-09
7.69715353433e-12
3.43918408416e-09
2.41381333167e-09
2.77731048164e-09
6.59503170998e-09
2.55479994964e-09
3.63116077559e-10
7.73517981084e-10
1.16822606528e-08
3.37530676595e-09
6.00241899929e-09
1.52532694646e-09
4.11295330537e-09
4.71554419877e-09
1.96289786804e-09
5.8698196382e-10
2.17509695613e-10
2.33162739057e-09
6.54326899414e-09
1.74417506948e-09
7.45785336142e-09
7.28099576166e-09
3.04335073696e-09
4.40847677213e-10
1.67989385833e-09
7.20930349533e-10
3.12854804854e-09
4.09657090233e-09
8.92375891794e-09
1.62587911216e-09
5.37522560141e-09
4.12011738935e-09
2.43490009929e-09
1.53824261327e-09
4.95256534446e-09
1.59456020278e-09
4.35834320984e-09
3.49879798197e-09
4.76209926322e-10
9.36036499792e-11
1.33917393242e-09
1.68168717221e-09
2.17971321691e-09
4.50995088813e-10
2.63640763732e-09
3.53010790831e-09
4.77275074926e-09
7.28429736706e-10
7.18768335314e-10
2.39488874627e-09
1.05349795595e-10
3.82184482283e-09
7.6100209691e-10
5.26944992621e-09
2.16722463067e-09
3.19566315958e-10
3.88530555534e-09
7.99470799317e-09
5.71719488893e-09
7.74020613644e-10
6.97272593069e-09
8.30427676538e-09
3.6408712622e-09
3.41741898398e-09
2.08683598136e-11
4.32270233735e-09
1.40016047624e-09
1.52426333198e-09
3.62584080745e-09
4.1946758151e-09
3.24821144244e-09
6.72626658494e-09
2.95893232664e-09
4.49117924039e-09
1.55012017253e-09
4.4321543843e-10
3.95553433616e-10
3.43016899397e-10
2.35761320928e-09