# vtk DataFile Version 3.0
File Name: Molecule/sphere_cent/sphere_cent_0-s9.vtk
ASCII
DATASET UNSTRUCTURED_GRID
FIELD FieldData 1
TIME 1 1 double
0.0
POINTS 195 double
0.065741054714 0.034821227193 0.99722403288
0.51189047098 0.050312016159 0.85651379824
0.09169511497 0.36633098125 0.92346900702
-0.86068987846 -0.50584548712 0.049249239266
-0.56913560629 -0.76018810272 0.30950841308
-0.80612814426 -0.31227663159 0.50271356106
-0.3707651794 -0.45313766599 0.80943858624
-0.56351280212 -0.025618733838 0.82541757822
-0.83879244328 0.20474801958 0.50007563829
-0.98594474792 -0.042563091964 0.14481332898
0.50769495964 0.79337763786 -0.33542972803
0.28965005279 0.94359481335 -0.15975014865
0.52158987522 0.85315084457 0.0020899702795
0.26492390037 0.94981712103 0.16387699544
0.06469142437 0.99728530645 -0.0085628787056
0.4847086966 0.80364531279 0.34494417906
-0.52037680149 0.77710616589 0.35316672921
-0.41410341859 0.69499361515 0.58717125654
-0.36445343494 0.87827789783 0.30598571897
-0.052045505494 0.85757136345 0.5078984499
-0.048528257757 0.64531481266 0.76111626625
-0.67511087656 0.60736113787 0.41797569394
-0.54967778921 0.42308312654 0.71838462353
-0.25273174047 0.53578436375 0.80495220423
-0.53297930956 -0.84599125385 -0.0042442283593
-0.49842137098 -0.80559712648 -0.31797766685
-0.30074894428 -0.93313491344 -0.19563505054
-0.30553850532 -0.92869263887 0.20953555405
0.51057356596 -0.79367983341 -0.33055350184
0.52242487669 -0.85262310505 0.0012043827446
0.30292290449 -0.92913526297 -0.2115137428
0.51006537676 -0.79057532549 0.33848044276
0.30603271723 -0.9278447032 0.21338118613
0.80028629303 -0.32188788056 -0.50578528643
0.85578840971 -4.6745612053e-05 -0.51725417376
0.92792797089 -0.21477280557 -0.3047913909
0.80072575808 0.32092681527 -0.5056951642
0.92805415392 0.2137606144 -0.3051302731
-0.1608005017 -0.25328913331 0.95375269651
-0.0052740136161 -0.51805782318 0.85529351234
0.17045204341 -0.26526942849 0.94885987043
0.31255665421 -0.51344972849 0.79917371273
0.31619927287 -0.50784856081 -0.80127698183
0.037232846022 -0.51326006651 -0.85690122843
0.1560959816 -0.28515687585 -0.94556504488
-0.1557199508 -0.2893371284 -0.94418811798
-0.0051584392786 -0.063767001033 -0.99743747711
0.92811316252 0.21045133471 0.3063441515
0.76563411951 0.31168675423 0.56269711256
0.84707343578 -0.0047833858989 0.53123056889
0.9277254343 -0.21731607616 0.303270787
0.79955303669 -0.3262039125 0.50423502922
-0.80074161291 -0.31678834558 -0.50829362869
-0.92593628168 -0.205490008 -0.31419545412
-0.85599201918 0.00094297464238 -0.5169352293
-0.93132519722 0.20539972186 -0.30033010244
-0.80077910423 0.32177183032 -0.50516986847
-0.20666190982 0.30643907189 -0.92914956808
-0.318654567 0.51223820448 -0.79754757881
-0.00048499144032 0.52223992348 -0.85276579857
0.20450787246 0.30670803785 -0.92952919006
0.3169080615 0.51662218571 -0.79538983107
0.68542838097 0.15733863413 -0.71091133356
0.58941453695 0.44018816948 -0.67735999823
0.45360907912 0.27108189464 -0.84896677732
0.51005142927 0.0043367156759 -0.86012643576
-0.39066359401 0.25713315606 0.88381874561
-0.2585849762 0.038010273129 0.9652351737
-0.13086907566 0.26008221507 0.95580244064
0.46108028293 -0.27967113256 0.84220910072
0.67845451832 -0.19560539722 0.70820254087
0.58698916435 -0.4475864172 0.67452448606
0.88792395592 0.45777404308 -0.0022884192877
0.71150445938 0.683126688 0.16382968426
0.84036761522 0.46108287573 0.28483825922
0.67497295141 0.59738284349 0.43287101388
-0.45433479548 0.26947468519 -0.8490871191
-0.58942329884 0.43882572651 -0.6782374382
-0.68513888121 0.15664730966 -0.7113443017
-0.50983387232 0.0010260229465 -0.8602604866
-0.45248177648 -0.66661328077 0.59171533585
-0.28752458096 -0.83696389198 0.46587896347
-0.16998638213 -0.70689100027 0.68649804592
0.0051331082359 -0.88415873051 0.46456822753
-0.45778152347 -0.27722352743 -0.84476268291
-0.68483990431 -0.15558111668 -0.71186459064
-0.59002262354 -0.43893229961 -0.6776368618
-0.33717417717 -0.50351989269 -0.79539972544
-0.43710437417 -0.66735816002 -0.6014380455
-0.67434680462 -0.58600586653 -0.44912835956
-0.84276384115 -0.46222066879 -0.27507805824
-0.70844566822 -0.6775379777 -0.1975980401
0.68523037434 -0.15658287704 -0.71127218008
0.45722141862 -0.2780700624 -0.84474736452
0.59011298418 -0.43955376744 -0.67716312408
0.71450304985 0.67991536856 -0.16397888958
0.15683327615 -0.71621757746 0.67986553907
-0.97479349375 -0.13759063184 -0.15185153484
0.30637770891 0.082567311823 -0.94816219807
-0.30759188533 0.083268620074 -0.94772821665
0.84199106693 0.46151873469 -0.27967754006
0.67991322279 0.58432602882 -0.44291579723
0.68051034212 -0.58474969864 0.44140475988
0.84062618017 -0.46537384391 0.27738040686
0.71345472336 -0.68154031038 0.16200530529
0.88686484098 -0.45964545012 0.00086519587785
-0.003433134174 0.85878258944 -0.51230484247
-0.15982580185 0.71282696724 -0.68281978369
-0.26919013262 0.84565407038 -0.46084520221
-0.44051879644 0.67431879044 -0.59264957905
-0.50745362043 0.79622197151 -0.32928848267
-0.67891037464 0.58332127333 -0.44588199258
-0.71327078342 0.67590123415 -0.18520092964
-0.84932690859 0.45610055327 -0.26570796967
-0.85590881109 0.51693695784 0.010269973427
0.84130269289 -0.46382838488 -0.27795529366
0.67768728733 -0.5859708786 -0.44421127439
0.71446794271 -0.68074464798 -0.16086274385
0.44319564104 -0.67284268141 -0.59226816893
0.19100221992 -0.7114880681 -0.67632228136
0.27856042981 -0.83816552162 -0.46917450428
-0.041879057884 -0.87317943573 -0.48329764605
-0.071786642075 0.94751006365 -0.31123772264
-0.2719925344 0.93634140491 -0.22124493122
-0.56223291159 0.82586556673 -0.038909073919
-0.71116393805 0.69775426388 0.085575789213
-0.94728696346 0.30915054679 -0.082258790731
0.15704806149 0.71505433321 -0.68114590645
0.43688464165 0.67533648014 -0.59416854382
0.43669274449 -0.67526710033 0.5943363905
0.27852126956 0.84043610096 -0.4648526907
0.28238406777 -0.83788132668 0.46731561422
0.98698174953 -0.11147459596 -0.11291486025
0.98690146208 -0.11064816266 0.11410646141
0.96045017242 -0.00087764492491 -0.27843821049
0.98682767153 0.11193566769 -0.11405260116
0.99999845028 0.00037500355393 0.0004536867491
0.98702120781 0.11040316522 0.11359842122
0.96048122644 -0.0017086134758 0.27820819616
-0.96102303267 -0.001599246636 -0.27609464526
-0.98291558027 0.11555817723 -0.14323061705
-0.10201196373 0.11552473158 -0.9880490303
0.099493049085 0.11480363458 -0.98839062452
-0.00080879661255 0.27891302109 -0.96028596163
-0.25560295582 0.95257365704 0.16485089064
-0.066349714994 0.94872236252 0.30727449059
-0.10766956955 0.98878860474 -0.10328247398
-0.084209769964 0.99038958549 0.10779973865
-0.26192224026 0.96498328447 -0.0093857226893
-0.40598747134 0.90861743689 -0.097095534205
-0.40584719181 0.9103615284 0.080290347338
-0.54054909945 0.82393282652 0.17035536468
-0.2795188427 -0.96010363102 0.0030358417425
-0.11570186913 -0.98728716373 -0.10360757262
-0.11386185884 -0.98719894886 0.10771094263
0.001386882388 -0.99999833107 0.0014769036788
0.11600429565 -0.98738646507 -0.10077528656
0.11734122038 -0.98675376177 0.10790269822
0.28068584204 -0.95979732275 0.00081206019968
0.3318015635 -0.12183522433 -0.93544501066
0.16904371977 -0.064002245665 -0.98349422216
-0.17391702533 -0.064772382379 -0.98267245293
-0.33469250798 -0.12218140066 -0.93441528082
0.25282052159 0.84698438644 0.4677439034
0.42954626679 0.68047964573 0.59119582176
0.14629870653 0.71617525816 0.67972558737
-0.9468331337 0.12902982533 0.29444843531
-0.88694667816 0.38052788377 0.26139450073
-0.9586198926 0.26778796315 0.096594922245
-0.99593675137 0.084970250726 0.013717648573
0.07240600884 0.98229545355 -0.17247489095
-0.64760744572 0.50758296251 0.56808000803
-0.78473383188 0.4305460155 0.44575995207
-0.71984678507 0.34025558829 0.60420775414
-0.78804790974 0.56666588783 0.24052366614
-0.64867258072 0.70981234312 0.27377209067
-0.14987155795 -0.53851157427 -0.82925933599
-0.19245901704 -0.69821172953 -0.68970698118
-0.016602715477 -0.70195823908 -0.71232897043
0.12915633619 0.93209028244 -0.33838385344
-0.99342519045 -0.0016746904003 -0.11432320625
-0.99772626162 -0.056743469089 -0.010815540329
0.55520027876 0.40333586931 0.72643238306
0.31382259727 0.44948977232 0.83273363113
0.11229076982 0.93299335241 0.34198689461
0.084032386541 0.9842376709 0.15377250314
-0.28593215346 -0.86111563444 -0.42076119781
0.035621132702 0.52287387848 0.85138058662
-0.17767131329 0.41173949838 0.89304429293
0.38228023052 0.57463663816 0.72346186638
0.60507845879 0.51633197069 0.60568505526
-0.46335723996 -0.75305914879 -0.46747609973
-0.25567260385 -0.79221963882 -0.55441039801
0.22822965682 0.5941118598 0.7708312273
0.29071867466 0.69668471813 0.65582466125

CELLS 386 1544
3 0 1 2
3 3 4 5
3 5 6 7
3 7 8 5
3 5 9 3
3 10 11 12
3 11 13 12
3 11 14 13
3 12 13 15
3 16 17 18
3 19 17 20
3 16 21 17
3 17 22 23
3 3 24 4
3 25 26 24
3 24 27 4
3 28 29 30
3 29 31 32
3 33 34 35
3 34 36 37
3 6 38 7
3 6 39 38
3 39 40 38
3 39 41 40
3 38 40 0
3 0 40 1
3 42 43 44
3 43 45 44
3 44 45 46
3 47 48 49
3 50 49 51
3 49 48 1
3 52 53 54
3 54 55 56
3 57 58 59
3 60 59 61
3 36 62 63
3 62 64 63
3 62 65 64
3 63 64 61
3 66 67 68
3 66 7 67
3 68 67 0
3 1 69 70
3 69 71 70
3 69 41 71
3 70 71 51
3 72 73 74
3 73 75 74
3 73 15 75
3 74 75 48
3 58 76 77
3 76 78 77
3 76 79 78
3 77 78 56
3 4 80 5
3 80 6 5
3 4 81 80
3 81 82 80
3 81 83 82
3 80 82 6
3 79 84 85
3 84 86 85
3 84 87 86
3 85 86 52
3 87 88 86
3 88 89 86
3 86 89 52
3 52 89 90
3 89 91 90
3 89 25 91
3 90 91 3
3 65 92 93
3 92 94 93
3 92 33 94
3 93 94 42
3 15 73 12
3 12 73 95
3 7 66 22
3 22 66 23
3 3 91 24
3 24 91 25
3 83 81 27
3 27 81 4
3 65 62 92
3 34 62 36
3 33 92 34
3 34 92 62
3 0 67 38
3 38 67 7
3 6 82 39
3 39 82 96
3 41 69 40
3 40 69 1
3 44 93 42
3 87 84 45
3 72 74 47
3 47 74 48
3 1 70 49
3 49 70 51
3 79 85 78
3 54 85 52
3 56 78 54
3 54 78 85
3 52 90 53
3 53 90 97
3 61 64 60
3 60 64 98
3 79 76 99
3 57 76 58
3 72 100 95
3 100 101 95
3 100 36 101
3 95 101 10
3 51 102 103
3 102 104 103
3 102 31 104
3 103 104 105
3 106 107 108
3 107 109 108
3 107 58 109
3 108 109 110
3 110 111 112
3 111 113 112
3 111 56 113
3 112 113 114
3 33 115 116
3 115 117 116
3 115 105 117
3 116 117 28
3 42 118 119
3 118 120 119
3 118 28 120
3 119 120 121
3 72 95 73
3 12 95 10
3 106 108 122
3 123 108 110
3 110 112 124
3 124 112 125
3 121 120 30
3 30 120 28
3 105 104 117
3 29 104 31
3 28 117 29
3 29 117 104
3 105 115 35
3 35 115 33
3 36 100 37
3 37 100 72
3 42 119 43
3 51 103 50
3 50 103 105
3 114 113 126
3 55 113 56
3 58 107 59
3 59 107 127
3 10 101 128
3 63 101 36
3 31 102 129
3 71 102 51
3 110 109 111
3 77 109 58
3 56 111 77
3 77 111 109
3 28 118 116
3 94 118 42
3 33 116 94
3 94 116 118
3 10 128 130
3 128 127 130
3 128 61 127
3 130 127 106
3 41 96 129
3 96 131 129
3 96 83 131
3 129 131 31
3 10 130 11
3 31 131 32
3 32 131 83
3 35 132 105
3 105 132 133
3 37 134 34
3 34 134 35
3 35 134 132
3 134 135 132
3 134 37 135
3 132 135 136
3 136 135 137
3 135 37 72
3 83 96 82
3 39 96 41
3 136 133 132
3 133 50 105
3 136 137 133
3 137 138 133
3 137 47 138
3 133 138 50
3 50 138 49
3 49 138 47
3 47 137 72
3 72 137 135
3 53 139 54
3 139 55 54
3 53 97 139
3 139 140 55
3 3 97 90
3 46 141 142
3 141 143 142
3 141 57 143
3 142 143 60
3 60 143 59
3 59 143 57
3 106 127 107
3 59 127 61
3 61 128 63
3 63 128 101
3 41 129 71
3 71 129 102
3 144 18 145
3 19 18 17
3 14 146 147
3 146 148 147
3 146 123 148
3 147 148 144
3 123 149 148
3 149 150 148
3 149 124 150
3 148 150 144
3 124 149 110
3 110 149 123
3 144 150 18
3 150 151 18
3 150 124 151
3 18 151 16
3 26 152 24
3 152 27 24
3 26 153 152
3 153 154 152
3 153 155 154
3 152 154 27
3 155 153 156
3 153 26 121
3 27 154 83
3 83 154 157
3 30 156 121
3 121 156 153
3 32 158 29
3 29 158 30
3 30 158 156
3 158 157 156
3 158 32 157
3 156 157 155
3 155 157 154
3 157 32 83
3 65 159 98
3 159 160 98
3 159 44 160
3 98 160 142
3 45 161 46
3 46 161 141
3 44 159 93
3 93 159 65
3 79 162 84
3 84 162 45
3 142 160 46
3 46 160 44
3 65 98 64
3 60 98 142
3 141 99 57
3 57 99 76
3 79 99 162
3 99 161 162
3 99 141 161
3 162 161 45
3 15 163 164
3 163 19 165
3 8 166 5
3 166 9 5
3 8 167 166
3 167 168 166
3 167 114 168
3 9 166 169
3 11 170 14
3 14 170 146
3 13 163 15
3 21 171 17
3 171 22 17
3 21 172 171
3 172 173 171
3 172 8 173
3 171 173 22
3 8 172 167
3 172 174 167
3 172 21 174
3 167 174 114
3 114 174 125
3 174 175 125
3 174 21 175
3 125 175 151
3 22 173 7
3 173 8 7
3 43 176 45
3 176 87 45
3 87 176 177
3 176 178 177
3 176 43 178
3 177 178 121
3 15 164 75
3 87 177 88
3 121 178 119
3 119 178 43
3 106 179 130
3 130 179 11
3 97 180 139
3 180 140 139
3 97 181 180
3 181 169 180
3 181 9 169
3 180 169 140
3 9 181 3
3 181 97 3
3 140 126 55
3 55 126 113
3 140 169 126
3 169 168 126
3 168 169 166
3 126 168 114
3 146 122 123
3 123 122 108
3 106 122 179
3 122 170 179
3 122 146 170
3 179 170 11
3 151 175 16
3 16 175 21
3 114 125 112
3 124 125 151
3 48 182 1
3 182 183 1
3 19 184 145
3 184 185 145
3 184 13 185
3 145 185 147
3 25 186 26
3 26 186 121
3 20 23 187
3 188 2 187
3 188 68 2
3 187 2 183
3 183 2 1
3 0 2 68
3 68 188 66
3 66 188 23
3 183 182 189
3 182 190 189
3 182 48 190
3 189 190 164
3 88 191 89
3 191 25 89
3 25 191 186
3 191 192 186
3 191 88 192
3 186 192 121
3 147 185 14
3 14 185 13
3 19 145 18
3 144 145 147
3 183 193 187
3 20 187 165
3 193 165 187
3 188 187 23
3 23 20 17
3 20 165 19
3 165 194 163
3 163 194 164
3 164 194 189
3 194 193 189
3 194 165 193
3 189 193 183
3 13 184 163
3 163 184 19
3 164 190 75
3 75 190 48
3 121 192 177
3 177 192 88

CELL_TYPES 386
5
5
5
5
5
5
5
5
5
5
5
5
5
5
5
5
5
5
5
5
5
5
5
5
5
5
5
5
5
5
5
5
5
5
5
5
5
5
5
5
5
5
5
5
5
5
5
5
5
5
5
5
5
5
5
5
5
5
5
5
5
5
5
5
5
5
5
5
5
5
5
5
5
5
5
5
5
5
5
5
5
5
5
5
5
5
5
5
5
5
5
5
5
5
5
5
5
5
5
5
5
5
5
5
5
5
5
5
5
5
5
5
5
5
5
5
5
5
5
5
5
5
5
5
5
5
5
5
5
5
5
5
5
5
5
5
5
5
5
5
5
5
5
5
5
5
5
5
5
5
5
5
5
5
5
5
5
5
5
5
5
5
5
5
5
5
5
5
5
5
5
5
5
5
5
5
5
5
5
5
5
5
5
5
5
5
5
5
5
5
5
5
5
5
5
5
5
5
5
5
5
5
5
5
5
5
5
5
5
5
5
5
5
5
5
5
5
5
5
5
5
5
5
5
5
5
5
5
5
5
5
5
5
5
5
5
5
5
5
5
5
5
5
5
5
5
5
5
5
5
5
5
5
5
5
5
5
5
5
5
5
5
5
5
5
5
5
5
5
5
5
5
5
5
5
5
5
5
5
5
5
5
5
5
5
5
5
5
5
5
5
5
5
5
5
5
5
5
5
5
5
5
5
5
5
5
5
5
5
5
5
5
5
5
5
5
5
5
5
5
5
5
5
5
5
5
5
5
5
5
5
5
5
5
5
5
5
5
5
5
5
5
5
5
5
5
5
5
5
5
5
5
5
5
5
5
5
5
5
5
5
5
5
5
5
5
5
5
5
5
5
5
5
5
5
5
5
5
5
5
5
5
5
5
5
5

CELL_DATA 386
SCALARS cell_data_0 double
LOOKUP_TABLE default
2.00545603875e-07
1.02340416159e-07
8.96718142236e-08
1.1385752253e-07
4.33816123807e-08
1.05282899753e-08
3.83111569887e-08
7.7617187067e-08
3.36942897985e-08
9.68215753761e-08
1.58693232097e-07
3.84135987373e-08
1.24564549829e-09
2.78925438476e-08
3.83775772856e-08
1.13371669111e-07
3.14598469102e-08
4.20007040812e-08
2.87376353191e-08
2.68637963912e-08
3.76557317531e-08
1.13808343189e-07
1.85513608473e-08
3.09794567419e-08
9.79465448449e-08
6.33669710254e-08
2.90585014025e-08
1.40821461581e-08
6.17945726845e-08
1.08679478384e-07
2.09485142774e-08
2.30349142578e-07
4.93496186563e-08
4.14374026835e-08
4.39165506505e-08
4.32955316323e-08
4.21379504721e-09
2.88595507274e-10
3.1953538054e-09
5.25529661787e-09
3.58376668913e-08
1.70308170314e-07
1.20063807887e-08
1.48742282778e-07
1.87005289611e-10
1.36797413481e-08
1.17110631248e-08
4.49750296582e-08
4.19295918344e-08
1.25246974017e-08
5.21387908744e-08
1.5898240849e-09
8.6061027706e-10
7.07115962062e-09
8.70557802925e-09
7.85042507515e-08
5.21050662279e-08
1.54725268709e-07
7.23841765786e-09
8.55214862851e-09
1.79340947109e-07
1.50787928413e-08
1.76189769351e-10
5.16912788098e-08
2.21636953344e-09
7.30484474309e-09
2.20897043368e-08
7.35446116407e-09
9.98116545636e-09
2.10974623264e-08
4.30237965409e-08
1.81800798043e-07
2.03362205739e-08
1.57092272169e-08
2.37987496927e-09
3.85339664304e-08
1.88509737287e-08
2.640303636e-08
7.16981503451e-10
1.7236740879e-08
6.93221023119e-08
4.74785803171e-08
3.7231270535e-08
5.28451669906e-09
6.31150883916e-09
1.08452608917e-08
4.62173206321e-09
5.73305086732e-09
8.64944579325e-10
5.66618740445e-08
5.98642300715e-08
1.04803790049e-08
5.73208870227e-08
5.87267013891e-08
4.84758533809e-08
6.7911218671e-08
2.98825489405e-09
2.20328719654e-08
1.39892068937e-08
4.42895391185e-08
1.46681513665e-09
1.01905201374e-08
8.63459700546e-09
1.60287445148e-09
3.23762567323e-08
2.96680524442e-08
2.40489347493e-08
7.35439715089e-09
5.6024183172e-10
2.8386332913e-08
5.45537325655e-08
3.8035929484e-09
6.19539383847e-09
1.609197832e-08
6.73721736516e-09
7.36687128746e-10
9.4137530405e-09
5.3902930147e-08
1.14081567324e-08
4.88449911088e-09
1.68674474506e-08
2.12735215528e-08
1.22277238555e-08
1.32927189278e-08
6.86242069412e-09
2.03679843568e-08
1.26134675622e-08
1.04202940208e-10
5.58943319725e-08
1.18022950921e-09
1.85770353683e-08
4.11107690302e-08
2.0046545925e-08
3.79933640233e-09
5.82031625742e-08
1.35006699469e-08
1.6669560825e-08
1.4900363723e-08
1.52443425325e-08
4.11732316217e-09
5.06452490565e-08
9.98698598697e-08
4.65229562644e-08
1.25292113005e-08
1.20267775541e-08
2.64252183725e-08
2.01684344845e-08
6.79820107026e-08
6.39552140741e-08
1.69791370158e-08
3.88432762018e-08
5.73475784848e-08
2.11311485469e-08
3.4372200749e-09
2.04873920383e-08
9.53984872487e-09
1.63860421324e-08
2.0681636944e-08
1.17097766927e-08
1.72072945271e-08
2.49279005777e-08
2.0404964586e-08
8.07189904826e-09
3.03970671871e-09
8.69559535785e-09
1.70695982675e-08
3.49044392981e-08
1.54026859561e-08
2.15561835399e-08
4.36465392689e-08
3.79192453991e-09
1.38810529958e-08
1.77017971553e-08
1.41873685216e-08
1.06681115017e-08
7.04039132731e-08
1.11467549457e-09
4.26718834124e-08
6.09214026623e-08
2.46073408861e-08
9.31284232055e-08
4.97161458818e-08
1.94415040102e-08
1.8156049876e-08
8.647874333e-08
2.15269760194e-09
8.58077430665e-08
5.97638091832e-09
4.63050770268e-08
8.72359455284e-08
5.10954730252e-08
7.23747102749e-09
4.60140263687e-08
8.8916394677e-08
3.88167396178e-10
1.19289429774e-09
8.70397220168e-08
8.44057001759e-08
2.55823899052e-08
1.85313990081e-08
1.04462774445e-07
4.38246238637e-08
2.07821933994e-08
1.01849974284e-08
6.82754600959e-08
2.71198404517e-08
1.0525231449e-07
1.84509168496e-08
1.47013357113e-09
1.82330823575e-08
2.09197309232e-08
5.47018390289e-09
4.65660930024e-09
1.19490520323e-09
1.1127089507e-08
5.40254871024e-09
3.65485732729e-09
7.89874577046e-09
1.34295373653e-08
8.05370324098e-09
1.28320805675e-07
3.06965805512e-09
1.52624547623e-08
1.49570889011e-09
9.35694315507e-09
1.76849924995e-08
4.0695940677e-09
2.03110618399e-08
5.00419414384e-09
1.24786636368e-08
1.09615073338e-08
2.43830476369e-08
1.20980154099e-08
1.08391180113e-09
1.9386316701e-08
1.95307397917e-08
3.79670135381e-08
9.31901191039e-08
4.59439016099e-09
8.5275629001e-10
9.12358737442e-08
6.34041936337e-08
8.61076941465e-08
1.00878764738e-07
5.26699757443e-08
1.39110038142e-07
7.33490726891e-08
2.01368226835e-08
1.4151017485e-08
1.22148736635e-07
5.51414579254e-09
8.0312149714e-08
6.06292195707e-09
4.28529693714e-08
8.33556782985e-08
1.20501333645e-08
2.37310942632e-09
2.54488221501e-08
4.59413560313e-09
2.19244096221e-08
1.55985705524e-08
8.56723474606e-09
1.32144440298e-08
2.42551970649e-08
2.32136111252e-09
1.6167304269e-08
1.81067128363e-08
1.79790403126e-10
4.26477981118e-09
1.03582130291e-08
3.14552022474e-09
6.27228582727e-09
2.96180339159e-09
6.97679222916e-09
1.31623784958e-08
3.40089360145e-08
6.50643500625e-08
5.81135599381e-08
6.14195486647e-08
9.90316800928e-08
2.07993301698e-08
4.80727802704e-08
8.33355833322e-08
2.31447896794e-08
1.66141122466e-08
1.63343346118e-08
2.66205797252e-08
1.25371656345e-08
7.95744957771e-09
2.71598135522e-08
1.29900228389e-07
1.2374235997e-07
3.02661508685e-08
1.05829893558e-08
3.11109925856e-08
1.48243142751e-08
2.6216273417e-08
1.89188456003e-09
2.45682864858e-08
1.10551223384e-08
1.76943201616e-07
5.80168693593e-08
9.9047814317e-09
8.48420439218e-09
3.08496778481e-08
8.61281390816e-09
6.51498207856e-09
5.9550591018e-09
3.34740048498e-08
3.9294316998e-08
7.51593028994e-09
6.50933922401e-09
9.06096025706e-09
7.42724978796e-09
1.27281439952e-08
1.2612191146e-08
6.22569970385e-08
1.4923954006e-08
1.00858485405e-07
1.42693397054e-08
2.97113603593e-08
5.03215221677e-08
2.28199905838e-08
1.15437938038e-08
3.08035672725e-08
4.08027695873e-09
6.52704636874e-08
2.84768304473e-08
9.5067816123e-09
3.66276928424e-11
1.94919547926e-08
2.51598103679e-10
1.57111608901e-08
2.36698664748e-08
4.90569421592e-10
1.63522324993e-08
1.65055891255e-08
5.65359669779e-09
1.32724970166e-08
5.60090858387e-08
7.50192188656e-08
2.56866315438e-08
1.68091031302e-08
1.63585249024e-08
3.68699643407e-08
2.08098989439e-08
4.45306739152e-08
4.96370407764e-09
2.33382969397e-08
1.41115433387e-07
1.4673563387e-07
1.6081187769e-07
1.4199702239e-08
5.10282298079e-10
4.0217320369e-08
1.7242030539e-08
1.0098591303e-07
4.10868717571e-08
2.68855741479e-08
1.3983798053e-09
1.73722240586e-08
2.77583223528e-08
3.96289148824e-09
6.80628006094e-08
2.03042070466e-08
3.58312986576e-08
6.31465026956e-11
2.78938561898e-09
3.63809540407e-08
1.89224248306e-08
6.29379712768e-08
3.15271734687e-08
5.56985339731e-08
8.99647304058e-08
7.36748300737e-09
3.05881817109e-09
2.86307486837e-08
1.47271091684e-08
2.19001986752e-08
4.59350298211e-08
1.14804512904e-08
2.4783980327e-08
9.6975275935e-09
1.38563710916e-08
2.30986469515e-09
9.98495684717e-09

