# vtk DataFile Version 3.0
File Name: Molecule/sphere_cent/sphere_cent_0-s17.vtk
ASCII
DATASET UNSTRUCTURED_GRID
FIELD FieldData 1
TIME 1 1 double
0.0
POINTS 509 double
0.5113094449 0.79681181908 -0.32183495164
0.3152205348 0.92833328247 -0.19594869018
0.53365385532 0.84054923058 -0.043238066137
-0.40896010399 0.67319786549 0.61587846279
-0.50092327595 0.50676339865 0.70131146908
-0.30826187134 0.52696412802 0.79182720184
-0.51159065962 -0.81894117594 -0.25722485781
-0.31911921501 -0.92357254028 -0.21224586666
-0.47278416157 -0.87955212593 -0.049953773618
0.51825249195 -0.79441827536 -0.31366854906
0.52096164227 -0.84850227833 -0.079107642174
0.35037988424 -0.90642523766 -0.23575049639
-0.85115945339 0.0089889233932 -0.52492827177
-0.9190787077 0.21818174422 -0.32800349593
-0.79246103764 0.32344403863 -0.51714265347
-0.33757317066 0.52077496052 -0.78303837776
-0.4615496099 0.26956340671 -0.8451885581
-0.58956408501 0.43992751837 -0.67741209269
-0.68382608891 0.15567412972 -0.71288007498
-0.52062153816 0.0017262854381 -0.85380429029
-0.51864397526 -0.77942317724 0.35138216615
-0.34052494168 -0.81463390589 0.46845054626
-0.46673727036 -0.6970590353 0.54416811466
-0.35465943813 -0.52532625198 -0.77331626415
-0.4481279254 -0.63443112373 -0.62964308262
-0.57134276628 -0.45847555995 -0.68029868603
-0.67362672091 -0.57119458914 -0.46648052335
-0.37947934866 -0.88747012615 0.26079517603
0.89365959167 0.26840117574 0.3592158258
0.84337580204 0.44073688984 0.30578801036
0.7827718854 0.36174026132 0.50617671013
-0.68748664856 -0.11075384915 -0.71698379517
-0.31885433197 0.098144523799 -0.94269102812
0.810500741 0.51623237133 -0.27572786808
0.6705738306 0.59077268839 -0.44869509339
0.69096004963 0.69121879339 -0.20127616823
0.78660815954 -0.3693588376 0.49376967549
0.67293536663 -0.58769512177 0.44913887978
0.82822024822 -0.47622394562 0.29503169656
0.70969587564 -0.67194980383 0.20964056253
0.53018093109 -0.75998103619 0.37479794025
0.0015889506321 0.85197949409 -0.52347636223
-0.15490852296 0.71176201105 -0.68507909775
-0.26370927691 0.84226411581 -0.47015666962
-0.44157865644 0.67492574453 -0.59115505219
-0.50750595331 0.79629820585 -0.32918271422
-0.67592996359 0.58479434252 -0.44848018885
-0.71981084347 0.66852355003 -0.18697834015
-0.84634929895 0.45764473081 -0.27258747816
-0.86121326685 0.50816172361 0.0054064607248
-0.081658475101 0.9416500926 -0.32657417655
-0.27537289262 0.92902868986 -0.24703727663
-0.57961314917 0.81301087141 -0.054961651564
-0.71622180939 0.69472694397 0.066362507641
0.35574617982 -0.82304912806 -0.44223564863
0.68124592304 -0.71038216352 -0.17412988842
0.90291756392 -0.25894209743 0.3400272131
-0.94364637136 0.31403535604 -0.10476724058
-0.00096308585489 0.53150498867 -0.84662336111
0.15401050448 0.71277219057 -0.68423348665
0.44073757529 0.67497092485 -0.59179711342
0.45536208153 -0.66660916805 0.58939427137
0.61674743891 -0.4619807601 0.63433772326
0.28275376558 0.83754765987 -0.46742033958
0.31711056828 0.5305364728 -0.78501856327
0.30602154136 -0.81772166491 0.48707473278
0.99960613251 0.0076170521788 0.025709275156
0.98830485344 0.13325658441 -0.072956815362
0.98778569698 0.13073113561 0.084662109613
0.98704385757 -0.098606087267 0.12630584836
0.98139494658 0.044153131545 0.18662512302
-0.91313755512 -0.1613483429 -0.37286439538
-0.95378786325 -0.0074939480983 -0.30039390922
-0.97725230455 0.13532146811 -0.16360677779
0.00056009570835 -0.092001534998 -0.99571669102
-0.10645463318 0.11836078018 -0.98724150658
0.10378389806 0.11898902804 -0.98745268583
-0.0014298763126 0.28887325525 -0.95732927322
-0.21738812327 0.30153977871 -0.92735171318
0.20468451083 0.30621510744 -0.9285454154
0.56276774406 0.47806406021 -0.67208945751
-0.24487306178 0.95645320415 0.15886060894
-0.35713005066 0.88655370474 0.29376778007
-0.094467893243 0.95162880421 0.29227548838
0.065190277994 0.99774301052 -0.0072709601372
-0.10024165362 0.98792093992 -0.11808608472
-0.090076327324 0.99221509695 0.085845768452
-0.25972318649 0.9653853178 -0.022715244442
-0.41475304961 0.90267568827 -0.11438464373
-0.40825015306 0.9094773531 0.078643500805
-0.54996782541 0.81829309464 0.16721479595
-0.51111990213 0.78658694029 0.345803231
-0.29565116763 -0.95430129766 -0.041432157159
-0.11985595524 -0.98776370287 -0.099447123706
-0.0088617354631 -0.99971300364 0.018727421761
-0.18674375117 -0.98118191957 0.048735275865
0.098214156926 -0.99143475294 -0.085530132055
0.31115680933 -0.94943362474 -0.038992874324
0.068897865713 -0.9885699749 0.13395342231
0.17719697952 -0.98284041882 0.050817001611
-0.089697875082 -0.98584425449 0.14081884921
0.51882266998 7.8001641668e-05 -0.85487222672
0.34374547005 -0.11508387327 -0.93193358183
0.3167116344 0.10033851117 -0.9431771636
0.18239098787 -0.056316826493 -0.98160678148
0.16154773533 -0.25911131501 -0.95185798407
-0.1533960551 -0.2809124589 -0.94666904211
-0.18288864195 -0.059266190976 -0.98135960102
0.45803245902 -0.25032764673 -0.85244476795
-0.34548309445 -0.11804519594 -0.93096649647
-0.46063059568 -0.24695290625 -0.8519244194
0.45576125383 0.25893115997 -0.85072594881
-0.95035934448 0.14223217964 0.27653905749
-0.97216123343 -0.052773412317 0.228495121
-0.88849943876 -0.028932226822 0.45780843496
-0.87110793591 0.21778954566 0.43986231089
-0.88867712021 0.37184795737 0.26819369197
-0.95314610004 0.28549745679 0.099983818829
-0.99422192574 0.097143009305 0.044743318111
0.070602796972 0.97968971729 -0.18759360909
-0.64270913601 0.50911927223 0.57237523794
-0.55705291033 0.6382445693 0.53090846539
-0.68281376362 0.60228854418 0.41314718127
-0.78591102362 0.43703770638 0.43740308285
-0.71167099476 0.37944737077 0.59120881557
-0.78940600157 0.56497138739 0.24007472396
-0.65971672535 0.70540440083 0.25919058919
-0.14354975522 -0.54691672325 -0.82470226288
-0.23802015185 -0.6609159708 -0.7117151618
-0.023291420192 -0.68764001131 -0.72559958696
0.058813285083 -0.52348554134 -0.84979212284
0.49365025759 0.79298990965 0.35308134556
0.46833232045 0.69704550505 0.54281544685
0.64038646221 0.64274698496 0.41791918874
0.12548133731 0.92825812101 -0.35020792484
-0.96543753147 -0.19059918821 -0.17753207684
-0.99108558893 -0.014885693789 -0.13200126588
-0.99849414825 -0.050905972719 -0.019362332299
-0.067858278751 0.87242209911 0.48390352726
0.10233081132 0.92659640312 0.36158528924
0.070813044906 0.9814054966 0.17833840847
0.28163120151 0.9387601018 0.19333428144
0.045005179942 0.51820337772 0.85398972034
-0.10725481808 0.62698090076 0.77107691765
-0.15764482319 0.4259737432 0.89081770182
0.14428856969 0.35602858663 0.92320621014
-0.020171821117 0.31977316737 0.94726449251
0.30521148443 0.44316518307 0.84286975861
-0.1802431345 0.235150069 0.95507895947
-0.32759594917 0.30014020205 0.89576339722
0.52655237913 0.40682697296 0.74613106251
0.414293468 0.56655365229 0.71230816841
0.57169115543 0.52935093641 0.62614107132
-0.45612829924 -0.74574786425 -0.48485520482
-0.29425272346 -0.7706797719 -0.56483381987
0.22000014782 0.603705585 0.76627773046
0.039595752954 0.68401479721 0.72830027342
0.16613781452 0.73025977612 0.66234755516
0.31451013684 0.69745773077 0.64377045631
0.26552531123 0.83218824863 0.48545366526
0.068826235831 0.81935960054 0.5688931942
0.11739327759 0.19286768138 0.973741889
0.28384897113 0.24095153809 0.92808556557
0.82203680277 0.15711499751 0.54730498791
0.92952895164 0.096462741494 0.35538467765
0.85915541649 -0.038246653974 0.50938969851
0.72234141827 0.010748520494 0.69139271975
0.67477864027 0.17206671834 0.71718871593
0.53613382578 0.0072658061981 0.84357702732
-0.32009214163 0.13443818688 0.93778657913
-0.18419766426 0.017258392647 0.98266786337
-0.47979182005 0.13118326664 0.86743938923
-0.38713273406 -0.0094618713483 0.92188453674
-0.54104626179 -0.070735454559 0.8379201889
0.043790351599 -0.021188346669 0.99852395058
-0.044102754444 0.14585369825 0.98831218481
-0.32101979852 -0.69650864601 0.64172738791
-0.45216795802 -0.59719419479 0.66242456436
-0.13802444935 -0.72357589006 0.67603343725
-0.21808278561 -0.60414785147 0.76639282703
-0.78635019064 -0.56661176682 -0.24602633715
-0.83525729179 -0.43829771876 -0.33151337504
-0.68904262781 -0.69031870365 -0.21933335066
-0.74654042721 -0.6597109437 -0.086600676179
-0.64129018784 0.029397204518 0.76659977436
-0.4761659503 0.34973660111 0.80678772926
-0.59092980623 0.22177860141 0.77558666468
-0.6079672575 0.37398782372 0.7003762126
-0.0055031930096 -0.57180464268 0.819622159
-0.69667416811 0.13919717073 0.70347356796
-0.70018965006 0.26221266389 0.66405463219
-0.59520047903 -0.33438673615 0.7306779027
-0.49518734217 -0.25930809975 0.82907265425
-0.67338883877 -0.1863797605 0.7153711915
-0.35180565715 -0.38135299087 0.85476434231
-0.47488737106 -0.45533552766 0.75299912691
-0.79757875204 0.12305499613 0.59014296532
-0.77460080385 -0.054010163993 0.63004928827
-0.8264644146 -0.27453231812 0.49090364575
-0.53332078457 -0.83483147621 0.13575014472
-0.62895834446 -0.77423983812 -0.066662728786
-0.6947145462 -0.71634072065 0.063962846994
-0.3518178463 -0.93067270517 0.099475696683
-0.78554743528 0.27717283368 0.55315941572
0.53802680969 0.21435450017 0.81519705057
0.42060482502 0.14618095756 0.89540970325
0.42256769538 0.30197018385 0.85451304913
0.30195400119 0.013504181989 0.95249527693
-0.59017884731 -0.54747104645 0.59320932627
-0.35214197636 -0.58645516634 0.72939735651
-0.319442451 -0.50171017647 0.80381041765
-0.8253492713 -0.55533272028 -0.10197298974
-0.87722140551 -0.45672369003 -0.14802908897
-0.87919348478 -0.47511959076 -0.033969726413
-0.80944555998 -0.58582240343 0.038444057107
-0.90380394459 -0.4172617197 0.094321258366
-0.22434453666 -0.458412081 0.8597381711
-0.91934514046 -0.20354692638 0.33655253053
-0.88647538424 -0.37369823456 0.27274352312
-0.95082306862 -0.25263798237 0.17905576527
-0.7032302618 -0.56829088926 0.42706421018
-0.72605848312 -0.4435338378 0.52545428276
-0.79777348042 -0.48192501068 0.36151227355
-0.59625768661 -0.65717577934 0.46099039912
-0.66241425276 -0.67523986101 0.32435262203
[...]
CELL_DATA 1014
SCALARS cell_data_0 double
LOOKUP_TABLE default
2.14252451297e-08
5.96492897678e-09
2.31829553916e-08
1.42466976034e-09
2.74172925198e-08
2.23119146874e-08
1.02134383642e-09
3.53649829067e-09
9.48986392296e-09
6.49832274686e-09
2.11361523423e-08
4.79582597498e-08
6.4758324683e-09
1.88022019956e-09
3.58111732417e-09
7.80936783797e-09
1.15939409462e-08
1.80384111877e-09
2.84377258257e-08
2.28903739357e-08
1.18871277284e-08
1.07627464433e-08
1.09328636963e-08
1.02298653693e-08
1.69548499098e-09
2.29832362611e-08
1.76537136982e-09
9.94610443291e-09
2.88114908739e-08
2.08691955278e-08
2.31393372351e-08
7.16364451787e-10
2.14916057015e-08
1.6401884235e-08
1.71429957903e-08
2.46162577789e-08
1.43287962749e-08
2.29304722291e-08
1.5220087045e-08
1.35569439492e-08
2.93718002896e-08
8.04832051187e-08
3.2637737995e-08
1.88526277612e-08
2.48500734321e-09
6.0831908379e-09
1.6774138451e-08
5.00926698866e-09
9.89550329698e-11
1.46001558144e-08
2.14284555516e-08
4.83705695624e-08
1.30294230602e-08
2.56369896604e-08
2.314222411e-09
4.06379461213e-10
6.23628666759e-09
1.24016562801e-08
1.29510919247e-08
1.10803097005e-08
2.82712204234e-08
2.30337896356e-08
9.84012969653e-09
4.31019676076e-09
2.85621556111e-08
1.57110650748e-08
2.88835422665e-08
1.76000025623e-08
7.80247398974e-09
1.74754258261e-09
1.08411194398e-08
2.50249249225e-09
1.06201754867e-08
2.7318263726e-09
1.21576735131e-08
3.03887809016e-09
1.01885491606e-09
4.55451127646e-09
1.37324268271e-08
1.09153860702e-08
4.44016482705e-09
4.71711398641e-09
1.30008594846e-08
1.36879198736e-08
1.67447968187e-09
1.25945609725e-09
1.80000183354e-08
1.61895594412e-09
5.96267528879e-11
1.89271030971e-08
1.11874985616e-08
7.47863964795e-09
9.52120069947e-09
1.00167583915e-08
1.97593441054e-08
1.74784891986e-08
1.5666333695e-08
1.6239808039e-08
1.77253793433e-09
3.74857344635e-08
1.98715496687e-08
1.47560254883e-09
1.09495318309e-08
6.96979066253e-09
1.75224914413e-08
1.15529652725e-09
1.31582391954e-08
9.97167105823e-09
1.05812860093e-08
1.36188611463e-08
2.30424052773e-08
5.51914539881e-10
1.79754271873e-09
6.79642095893e-09
1.14670833336e-08
4.77594340614e-09
1.12500874997e-08
2.40484677412e-08
1.64897533011e-08
2.63041429104e-08
1.27260745947e-08
2.56710413298e-09
8.50886521845e-10
5.47993259453e-11
7.42143762334e-09
1.98956565774e-11
2.27944191604e-08
2.6526680348e-08
1.03402043182e-08
9.29005128889e-09
3.78380100505e-09
1.43379832102e-08
1.50845632558e-08
3.64619468446e-09
3.83143908101e-09
2.34105141578e-08
7.60058839748e-09
2.91912601425e-08
1.38797452332e-09
6.74563582038e-09
2.03183814939e-08
1.63180945251e-09
2.29143501899e-08
1.26206145366e-08
1.07805199846e-08
3.30972136272e-09
1.46239768224e-08
6.94345151498e-09
6.31690390376e-09
2.9120855777e-09
1.01442481314e-08
2.3427824702e-08
2.42057595797e-08
3.58265639944e-09
1.23483323909e-08
1.54583422516e-08
1.54010846635e-08
1.81889022965e-09
4.86035256638e-11
1.99286570116e-08
1.59334884022e-08
2.03351634402e-08
2.26103335529e-09
2.40332917089e-09
1.19101534393e-08
1.53599415074e-08
8.409932213e-09
8.77322071776e-09
5.40440102908e-09
1.44411979536e-08
1.48299650571e-08
2.60506627246e-09
1.2086825077e-08
1.64282845819e-08
1.7849060776e-08
1.84581205327e-08
5.36344484318e-09
1.20809023239e-08
5.54000786966e-09
8.97510138e-09
9.73802901314e-09
1.16284125604e-08
1.96783622901e-08
1.04688080955e-08
6.43093175002e-09
1.71379042748e-08
1.26834382682e-08
8.94994830492e-10
1.82507596707e-08
4.84512708926e-09
6.21019948311e-09
1.40691827732e-09
7.7427612603e-09
3.27330088843e-08
4.29744852742e-09
3.28236013815e-09
1.05072935883e-08
6.7103564497e-09
5.22744324366e-10
3.16228371237e-10
8.70667735082e-09
2.73583051381e-08
3.09985204545e-09
5.61867289755e-09
1.55904352329e-08
6.86071621589e-09
4.59412371747e-09
5.19051053194e-09
5.50175523701e-09
1.09355368273e-08
2.82983609686e-09
7.45570326108e-09
7.58114148282e-09
1.46110422181e-08
2.32130964225e-08
2.07183328481e-08
2.78923118985e-08
1.3216533405e-08
6.53999545504e-09
8.20938621721e-09
1.92345512205e-08
1.49240953054e-08
1.26736500404e-09
3.47623805796e-09
8.15157785834e-09
7.04939982192e-09
4.91547524333e-10
1.76192789526e-08
1.03412832932e-08
4.28566755266e-09
9.8468381526e-09
9.73861763116e-09
1.02884569066e-08
1.65388707537e-09
6.03821623127e-09
9.81145204551e-12
3.48464264225e-09
4.80737726848e-09
5.30821019474e-09
6.08486611602e-09
1.16181864199e-08
8.24590884659e-10
2.31932599307e-09
1.78471897705e-09
7.33939043224e-09
2.10570328344e-09
4.14861667848e-09
4.81374903028e-09
1.19861092617e-08
2.88390828613e-09
3.08241278967e-10
1.20484570456e-09
4.75895749374e-09
3.63839758183e-09
7.13387518404e-09
1.22302884199e-08
7.81085326181e-09
1.5924860306e-08
3.71540425539e-09
3.06095501668e-08
2.43085503315e-08
1.08865565944e-08
3.72640309595e-09
9.35076761014e-09
2.23161906324e-08
4.45227948441e-09
5.61059703592e-09
3.65911718772e-10
1.76913421539e-08
5.20966124076e-09
5.94060399737e-09
1.68440820891e-08
1.60236186912e-08
1.71891650846e-09
1.01046812099e-09
8.50318966939e-09
1.14792471069e-08
1.23542652118e-08
1.00309389026e-08
1.69072017712e-08
3.57736243153e-09
6.92030353225e-10
3.00402271345e-09
1.76848903697e-09
7.55591667662e-09
5.58407948413e-09
2.14931178271e-09
4.00422332505e-09
4.15766902986e-09
2.94306978324e-09
7.47074786522e-09
1.36626113653e-09
5.28022430631e-09
6.61694665426e-09
1.61905844648e-09
2.24512966345e-08
4.71961045999e-09
4.84669001916e-09
7.09828295384e-09
1.74511995534e-08
1.95179029116e-08
1.28479320254e-08
1.99782465348e-10
3.39049058208e-09
3.42858907371e-09
1.50040234723e-08
2.59888471495e-10
5.36056331956e-10
2.1640804627e-09
6.45895448216e-09
7.4644735436e-09
4.40476576078e-09
4.60809551415e-09
2.65010112852e-08
6.54746365604e-09
4.43957825276e-09
3.75299288832e-09
1.59285031296e-09
2.95759460401e-09
4.24719592505e-09
9.30151888154e-09
4.25901132227e-09
7.89561258595e-10
3.36962201004e-09
1.06607507328e-09
1.71915223362e-08
1.0858749261e-08
4.97048124001e-09
2.40520902514e-09
6.9046638138e-10
1.78286317762e-08
1.48877478208e-08
4.78231944889e-09
6.74525952864e-09
7.88984469054e-09
1.87584593433e-09
3.81371029377e-09
5.01812956635e-09
7.8194227217e-09
1.39978154258e-08
1.20333284917e-09
1.17046682396e-08
3.50094612404e-09
8.30255572724e-09
3.65427453962e-10
1.2264951396e-08
7.87289047272e-09
1.55454424049e-09
1.48068948258e-08
1.56549782359e-08
2.07870708772e-08
3.72818243626e-09
4.95174005283e-09
8.20106948006e-10
7.85491295658e-09
6.2035651361e-09
1.07132457554e-08
9.30661542062e-09
7.21071092641e-09
1.21523322726e-08
1.40566208001e-08
7.63467950513e-09
6.2982134285e-09
6.34737209924e-09
1.138490865e-08
1.63956048831e-09
5.85768893503e-10
2.54771284432e-09
8.95868473067e-10
5.04846115369e-09
1.44238617382e-08
5.67080099067e-09
7.83936308089e-09
2.93882784015e-08
1.3813495836e-08
5.85899044304e-09
1.63295629252e-08
8.38849473822e-09
6.99704820058e-09
5.56321516595e-09
1.38855132072e-08
8.59109466502e-09
1.63089644766e-08
2.67446621528e-09
2.35274828367e-09
1.62209640357e-09
8.14217041037e-09
4.16059863164e-09
2.89384832618e-09
6.73049113398e-09
3.80397413742e-09
2.37283612658e-09
1.5083944817e-08
1.5609872823e-09
1.81859215837e-08
7.0973711378e-09
2.61621464083e-09
2.56029777163e-09
1.46176725509e-08
1.56624858097e-09
6.33157677112e-09
3.39555492073e-09
3.88550752443e-09
2.04044265829e-09
7.32026020865e-09
1.20571940727e-08
4.4852645539e-09
2.76629466115e-09
2.70650948109e-08
2.55989192737e-09
2.1364322243e-08
2.44389887725e-08
8.59886509024e-09
2.86670686828e-09
2.95150263503e-09
2.04114300417e-09
7.41135334247e-09
5.95054221855e-09
1.56169136684e-08
4.64549672294e-09
2.32275484894e-09
1.25864682727e-08
7.89842523002e-09
2.36671590127e-08
1.24753784599e-08
2.07861171567e-09
2.87474956881e-09
1.16936257511e-08
7.01532697019e-11
1.13240530067e-08
3.57162333402e-09
1.3326454894e-08
1.58837062835e-08
4.31273636294e-09
3.78109721545e-10
3.29246600284e-09
3.78043305337e-09
1.23301678374e-09
1.70713774213e-09
1.07752834601e-08
1.06502496756e-08
6.87857194684e-09
2.33470971099e-09
2.65835900227e-09
4.36897694275e-09
6.83627598988e-09
1.24573289011e-08
2.25512974299e-09
4.21197500449e-09
7.93641628536e-09
5.44653516515e-09
5.88853885214e-09
2.9428794108e-09
6.60900262924e-09
2.86695352013e-09
4.31868920607e-09
4.20697360635e-09
3.01171711294e-09
4.01643923783e-09
3.39273736116e-10
4.66631999038e-09
2.22080157706e-08
3.55586783838e-09
3.15176968678e-09
1.8002301867e-08
3.57721317524e-09
6.17885047013e-09
1.44763525183e-08
4.83064815073e-09
1.54535546935e-09
3.43526928932e-09
3.37773547996e-10
3.07655941197e-09
1.37066705944e-08
3.52011604835e-09
6.30493385558e-10
1.20409627853e-09
1.90854176861e-09
5.63548857019e-10
1.51786886151e-09
7.04963083181e-09
4.90662916754e-09
9.85829408927e-09
9.49801438613e-09
4.45574915102e-09
1.00218918207e-09
8.31211713847e-09
6.29267147456e-09
5.98577720633e-09
7.56935348502e-09
9.41788441755e-10
1.18122345499e-08
8.43463773328e-09
9.69147311967e-09
5.92932739243e-09
1.01556539165e-09
3.30506276838e-09
6.18511037799e-09
7.2933492037e-09
4.98002588511e-10
3.85713768369e-09
8.17881121701e-09
1.06647945779e-08
1.18676187109e-08
3.63231403537e-09
6.53076142593e-09
8.00715410295e-09
4.01285351648e-09
1.35496317477e-08
2.9739090511e-09
3.38042917944e-09
8.31140264206e-09
6.20032983761e-09
1.31376925225e-08
3.36501552842e-09
3.66226547993e-09
3.76933695943e-09
1.26830181781e-09
2.32901093754e-09
1.62710815856e-08
4.03185114425e-09
1.31171210283e-08
1.06906397926e-08
9.24528196503e-09
1.48951936644e-10
2.41273902592e-09
4.85225677744e-09
6.45594770627e-09
4.57870248004e-09
1.49919391654e-09
4.55740892788e-09
5.93703521162e-09
3.60202715497e-09
2.1718709349e-08
2.4854552998e-08
2.92694315864e-09
1.10267581601e-08
4.99018680516e-09
3.33785836774e-09
3.64332758431e-09
6.54132350066e-09
1.49630300326e-08
1.05832098105e-10
4.69924714133e-09
1.57183299958e-08
1.60623047318e-08
1.45987633905e-08
5.31206706625e-09
2.42661818885e-10
2.86040312773e-09
5.14707791534e-09
8.63615326197e-09
1.81321006752e-09
2.58956299652e-09
6.43916542897e-09
2.31390859336e-08
8.30715045662e-09
1.08394139606e-08
1.66314581086e-09
4.95465555526e-09
1.54739781542e-08
1.25071961463e-08
1.91891924195e-08
1.87546244269e-08
4.50951482139e-09
7.72388487813e-09
6.57902693115e-09
6.29390457339e-09
7.58248693254e-09
9.16940624398e-10
4.36122774769e-09
3.98265919402e-09
3.95940480247e-09
4.76285428694e-09
5.39312267743e-09
1.15056499398e-08
1.25820727758e-09
8.43140861253e-09
2.23322024934e-08
6.11476108412e-09
2.51586851504e-09
1.13648394344e-08
9.72638533812e-09
9.35680016229e-09
3.04172761685e-09
4.92035523217e-09
5.80810963501e-09
1.11300269614e-10
1.15358775117e-09
1.68504635424e-08
1.0384384876e-08
1.29468949322e-09
2.47995921979e-10
4.39926966368e-09
8.44745932753e-09
1.07458189495e-08
3.54174431889e-09
9.43547358664e-09
1.72806305417e-09
9.15323110486e-09
1.64074705185e-08
8.79262676204e-09
3.8115547404e-09
1.89494633224e-09
5.98756263966e-09
4.90099805984e-11
1.51708346748e-08
1.62256918929e-09
1.59322988316e-10
5.81769531812e-09
8.30259555265e-09
8.85496800877e-09
3.33340981751e-09
1.09724879131e-08
6.38434747858e-10
7.27066279739e-09
5.0560160585e-09
1.23362083323e-09
1.86953177973e-08
4.34505785818e-09
5.88328472696e-09
7.84290852975e-09
3.57541361117e-09
4.24885094667e-10
6.55165117015e-09
2.00645259745e-10
5.20817327954e-09
2.95069582456e-09
1.34527792239e-09
2.43662328184e-09
1.04378865351e-08
5.18405723842e-11
4.54467331569e-09
1.426478986e-09
2.51821085313e-09
1.87099488357e-09
3.99009855734e-09
9.00730313108e-09
1.63171044381e-09
3.47528126149e-09
2.84978219846e-09
2.03538392946e-08
1.13079702132e-08
7.63871668769e-09
9.03280168169e-09
1.12896007247e-08
2.09290347032e-09
1.45761781953e-10
3.93409809864e-09
7.27341637245e-09
1.83008579218e-08
1.25082047421e-08
9.14325036787e-09
1.56813545821e-09
1.2453658897e-09
3.79272038449e-09
1.81610597666e-08
2.70199620512e-09
1.36643500748e-08
1.12887754171e-08
1.0375898172e-08
9.3617905539e-09
1.23644361892e-08
9.08118638149e-09
1.27070934995e-08
1.42406933057e-09
6.92420884313e-09
1.25511235347e-08
2.7174067328e-09
4.45548859146e-09
2.18397709963e-09
7.11818638398e-09
1.53009500885e-09
1.39221557359e-08
4.4588978508e-09
4.28828821862e-10
1.43380355068e-09
1.06707267075e-09
1.78302668356e-08
4.44447711969e-09
5.59502283837e-10
1.45668245002e-08
2.31911602459e-08
2.78560522224e-12
2.25986976227e-08
1.36524107772e-08
3.02187114992e-09
7.6899727456e-10
2.81243743109e-09
2.16836804059e-09
2.08118520689e-08
1.26444988528e-08
4.13853688058e-09
7.07054696696e-10
6.24896873981e-09
6.12061107921e-09
3.11181334711e-09
7.53208195623e-09
1.68967503228e-08
3.59994691961e-08
1.97681365246e-09
6.22378063429e-09
3.04735095961e-09
7.33167286532e-09
3.88930971782e-09
8.1297900879e-09
7.39936835464e-10
8.02741818533e-11
6.43957780309e-09
1.82722708462e-09
4.45871417074e-09
6.58662575388e-09
3.29052449438e-09
2.56293120705e-09
9.31106322364e-10
1.90734096942e-08
1.79200197057e-08
9.71874707858e-09
2.02362875058e-09
2.41104691067e-09
2.00390154586e-09
5.95232870344e-10
4.67793223474e-09
1.21601953265e-08
1.18570865573e-08
6.5358192146e-10
1.54296965119e-09
1.79905712924e-09
2.16700085321e-09
1.32239229905e-09
3.02297004971e-09
2.3658521614e-09
2.76928377551e-09
1.17304525617e-09
8.80795488232e-10
2.95552508656e-09
3.49024538073e-09
2.06835096511e-09
6.58882921483e-09
1.42152422537e-08
9.56828249977e-10
6.21158361999e-09
3.0455446699e-09
3.09846367309e-09
1.25388350843e-08
8.3084026262e-09
1.6543748973e-08
1.1299206026e-08
1.61876096134e-09
1.14702908673e-09
1.95807069431e-09
8.00124568846e-09
1.11979828419e-08
6.01049621911e-09
1.88274440502e-09
1.87819058179e-09
2.88728696739e-09
2.11674100642e-09
1.17947125562e-08
3.97253272308e-09
1.80133929429e-09
2.08989138045e-08
1.19407185562e-09
1.38146711706e-09
8.60383240574e-09
7.05675117472e-09
4.31668758841e-10
9.27353339052e-09
2.73554139171e-09
1.72134175056e-09
5.97087946968e-09
1.12515898639e-08
2.67216599003e-10
8.22682674511e-09
2.70801586966e-09
6.74941525656e-09
3.67520700633e-09
5.16551932747e-10
2.06265356806e-09
1.41567680488e-10
2.13100231298e-09
3.82648882144e-10
2.44994055686e-09
4.41592107534e-09
3.0899010643e-09
2.45677707258e-09
6.62503255087e-09
1.74378753885e-08
1.48671815555e-08
1.44838866491e-08
3.22409344044e-08
2.37560364693e-08
1.74994564825e-10
1.27791235714e-08
2.43449952207e-08
8.23793284918e-09
3.63591041382e-09
7.95170117535e-09
3.94573848181e-09
4.21951049685e-09
6.38052298125e-09
1.10764979775e-08
1.7710814806e-08
5.96971436913e-09
6.77776007463e-10
1.6286657974e-08
2.11973121296e-09
4.80006331456e-09
7.96978970159e-09
2.75941037507e-09
3.39572826078e-09
3.83340199723e-09
8.7562343605e-10
5.49347476001e-09
1.32749800284e-08
5.96148663898e-09
1.32004439595e-08
4.24877305459e-09
1.36867233656e-09
7.06265393084e-09
1.00915139749e-08
6.55102410238e-09
6.15032989511e-09
1.21732528152e-08
7.00562613627e-10
1.46077717453e-09
1.27737533471e-08
8.67297322283e-09
7.63165227136e-09
1.00495020242e-08
9.11693356006e-10
3.70499774674e-09
1.32204554023e-08
1.27746295831e-08
1.18773996688e-08
3.40103669798e-09
1.87909490971e-08
2.95348842904e-09
4.28809459448e-09
1.1851481797e-08
2.85327027072e-09
4.75882312716e-09
6.75907498079e-09
2.39220112232e-08
2.00783825036e-08
2.0860688916e-08
6.00498924897e-09
4.18154466841e-09
4.94236456987e-10
1.33992202371e-08
1.14605011951e-09
5.89644996968e-09
5.25634900044e-10
1.56383888537e-08
1.64937364828e-08
7.50537780063e-09
1.76352936771e-08
6.28823214005e-09
1.17814604189e-08
1.49128173555e-08
7.72840365787e-09
1.39809918965e-09
1.74644535291e-08
3.23693019513e-09
2.91556139089e-09
3.8886362209e-09
3.79625027233e-09
3.65094025365e-09
1.52528926612e-08
7.15491080092e-09
5.49973355328e-09
2.21376911557e-09
7.28305637835e-09
2.32732718449e-08
1.06757270574e-08
3.73032980365e-09
3.06907141691e-09
8.79517701131e-09
1.08174685836e-09
1.39818148952e-09
6.21271313877e-09
6.12528496516e-09
1.06109188859e-08
3.859861531e-09
1.40377557083e-08
3.97468618993e-09
8.17302199412e-10
1.03718297232e-08
5.47802339918e-10
8.50621725986e-09
4.29521005084e-10
1.20168711775e-08
5.71824639193e-09
3.39171109938e-09
1.46483812773e-08
6.13999605746e-09
8.53357908392e-11
5.04270906601e-09
3.95125587966e-09
8.52010440977e-09
3.50168589529e-09
1.0291009742e-08
9.85895084514e-09
5.61990972617e-11
6.87965130203e-09
6.82353128104e-09
7.21232475862e-09
1.43444269287e-09
8.61476957549e-10
4.26264877178e-09
4.00266482842e-09
8.74894436411e-09
1.03791945675e-08
1.2674692037e-08
5.18833174606e-10
1.59824301801e-09
7.03413066468e-09
5.83222045978e-09
3.09072958632e-08
6.49716257301e-09
6.51365572298e-09
1.09429074262e-08
2.70844722626e-09
1.26083805325e-08
2.02254371329e-09
3.12786669736e-10
5.95138540559e-09
4.13740345956e-10
6.08663823934e-10
3.49332212756e-09
4.57131340698e-10
5.33452926398e-09
1.95034364951e-09
1.55923763859e-09
1.38601372658e-11
2.86649453263e-09
8.58914456322e-10
2.88785266414e-09
2.14083076391e-09
2.3930238838e-10
7.54923647309e-10
4.16069572842e-09
7.46578911472e-09
1.20159990078e-09
1.05603668721e-08
3.37510995431e-10
7.71100793372e-10
1.84744724852e-08
3.2580983526e-09
3.18655827934e-09
5.37367150965e-09
1.89288875733e-09
1.65564692143e-08
2.40952632868e-10
5.82797759536e-09
9.82786651393e-09
8.64012766414e-09
2.45772352444e-09
2.51846599605e-10
1.89069913154e-08
4.08131789908e-09
1.95141139104e-09
4.92051912053e-09
2.32332404144e-10
7.76784993083e-09
3.27333969041e-08
1.43426657585e-08
5.29392944945e-10
4.60617280249e-09
1.76358170121e-10
9.22999170303e-10
3.78990381831e-09
5.85835998468e-10
1.39609186765e-09
9.50090181027e-10
4.9958376473e-09
5.46186332355e-10
3.78370771801e-09
3.57195039791e-09
9.97459913567e-09
7.09459428551e-09
5.07281962999e-10
4.27460651633e-10
1.94908914259e-08
2.63807031708e-08
1.5763951846e-09
9.97449634567e-09
1.20950932761e-08
7.75120743061e-10
8.22755952242e-09
1.07420662176e-08
2.98046735883e-09
2.80156167877e-09
2.1294549398e-09
2.39909470324e-09
1.8915898332e-09
8.77115630109e-09
1.1889299702e-08
1.39756309464e-09
1.43865489548e-09
2.92299611763e-09
1.74934168273e-08
1.66057119278e-08
1.89935413019e-09
1.17783443493e-08
1.39672507597e-08
6.58111942018e-10
6.68029579697e-10
6.79291245063e-10
3.47192900422e-09
8.38749439143e-09
1.98342415798e-08
2.04397565039e-11
1.80051791278e-09

