# vtk DataFile Version 3.0
File Name: Molecule/sphere_cent/sphere_cent_0-s26.vtk
ASCII
DATASET UNSTRUCTURED_GRID
FIELD FieldData 1
TIME 1 1 double
0.0
POINTS 1766 double
0.99906861782 0.0079277800396 0.041918814182
0.98980182409 0.13124230504 -0.054739005864
0.98735940456 0.13189277053 0.087839983404
-0.85451477766 -0.053892996162 -0.51640093327
-0.9087703824 -0.099501870573 -0.40520179272
-0.90063995123 0.024204717949 -0.43391245604
-0.62543582916 0.49730113149 0.60125792027
-0.52622282505 0.54317247868 0.6541762948
-0.5704395175 0.60246229172 0.55783802271
0.42115175724 0.59680879116 0.68279802799
0.53866118193 0.57174789906 0.61864429712
0.456582129 0.67849874496 0.57547652721
0.34520635009 0.69096457958 0.63509756327
0.13456766307 0.21018880606 0.96835744381
0.24375651777 0.25515025854 0.93566054106
0.14113016427 0.32183769345 0.93619406223
-0.77192157507 -0.60199904442 -0.20189364254
-0.70239692926 -0.68228411674 -0.2014760077
-0.7354131341 -0.67358464003 -0.073410950601
-0.6935312748 0.39701321721 0.60115408897
-0.63441348076 0.36768764257 0.67986810207
-0.59637200832 -0.30032277107 0.74428117275
-0.51684874296 -0.22637875378 0.82534378767
-0.61482596397 -0.17696978152 0.76855450869
-0.53115546703 -0.091336384416 0.84205842018
0.52615314722 0.24534422159 0.81421214342
0.42931753397 0.26922029257 0.86208176613
0.45243167877 0.17013834417 0.87537568808
-0.80705106258 -0.58306831121 -0.093201294541
-0.7867270112 -0.61605417728 0.026651952416
-0.71179234982 -0.69857996702 0.073171071708
-0.70546507835 0.29469656944 0.64430898428
0.32518917322 -0.91053366661 -0.25526550412
0.22466686368 -0.95063108206 -0.21367761493
0.22191441059 -0.92358082533 -0.31103092432
-0.62346804142 -0.55534905195 0.55004489422
-0.63938897848 -0.44890734553 0.62405103445
-0.69522857666 -0.48630180955 0.52925783396
-0.73689836264 -0.64762175083 0.1923622191
-0.75282561779 -0.58626419306 0.29879108071
-0.78901094198 -0.59100055695 0.16624933481
-0.6686604619 -0.68173253536 0.29586228728
-0.65818792582 -0.72865337133 0.18915092945
-0.20554052293 0.78465300798 0.58421486616
-0.21287278831 0.7084197998 0.67285692692
-0.093556165695 0.77135574818 0.62929302454
0.9852476716 0.075121991336 0.1526517272
0.96111178398 0.20974490047 0.17776452005
0.96968537569 0.23833100498 0.051712993532
0.28115895391 -0.9505674243 0.13151159883
0.29760071635 -0.92726367712 0.22714033723
0.1929397732 -0.96165406704 0.19457551837
0.0019135791808 0.82679915428 0.56245106459
-0.08459636569 0.85623151064 0.50899130106
-0.42886668444 -0.14651453495 0.89138764143
-0.43409073353 -0.035356204957 0.90005475283
-0.37132278085 -0.078246802092 0.92514640093
-0.31427806616 -0.15546312928 0.93637651205
-0.3630540967 -0.23803144693 0.9006652236
0.33927533031 -0.87072634697 -0.3560064435
0.35590976477 -0.81990504265 -0.44756299257
0.25771215558 -0.86187928915 -0.43552732468
0.27563634515 -0.7888815403 -0.54881852865
0.082243360579 -0.91349363327 -0.39761117101
-0.041763305664 -0.92443573475 -0.37883755565
-0.018937537447 -0.87775963545 -0.47856742144
-0.12443955243 -0.89018690586 -0.43775990605
-0.12310658395 -0.95643395185 -0.26471307874
-0.13639573753 -0.929469347 -0.34267649055
-0.054915864021 -0.95221978426 -0.30012243986
0.35864794254 -0.92055082321 0.15460766852
0.3833951354 -0.88294303417 0.27095276117
-0.12728981674 -0.8855292201 0.44678297639
-0.23157423735 -0.90248346329 0.36239305139
-0.11697714031 -0.93733102083 0.32798355818
0.83611685038 0.5401340723 -0.093880087137
0.85900944471 0.47937828302 -0.17954133451
0.80555564165 0.56246167421 -0.18631070852
0.87999469042 -0.43908166885 -0.18100468814
0.88062566519 -0.38240483403 -0.27975416183
0.91928339005 -0.34579372406 -0.18670207262
0.8255597949 -0.4821203053 -0.29321661592
0.91959625483 -0.26586151123 -0.28920197487
0.87704342604 -0.24070349336 -0.41539043188
0.87185025215 -0.3247923851 -0.36661350727
0.83080530167 -0.40674701333 -0.37989008427
0.82382702827 0.43045857549 -0.36879876256
0.82049256563 0.49962046742 -0.27776473761
0.88060420752 0.38581898808 -0.275082618
0.92030727863 0.2552562654 -0.29643175006
0.86758863926 0.32146513462 -0.37939709425
0.93205010891 0.31267529726 -0.18292789161
0.16233561933 -0.76700955629 0.62069553137
0.085223533213 -0.83665519953 0.54104650021
0.20706018806 -0.81345278025 0.5435192585
0.28698658943 -0.89602023363 0.33835694194
0.96863222122 -0.24382826686 -0.046180859208
0.99198490381 -0.12632602453 2.6004156098e-05
0.96981012821 -0.23688349128 0.056198224425
0.98461568356 -0.13808241487 -0.10709696263
0.98536133766 -0.1290615499 0.11205565929
0.93710672855 -0.15700939298 -0.311532408
0.96012288332 -0.18579770625 -0.20791356266
0.98493456841 -0.055758263916 -0.16187858582
0.97215557098 -0.095765836537 -0.21170525253
0.9798206687 0.066526077688 -0.18833020329
0.99664187431 -0.010019717738 -0.080656178296
0.95203375816 0.036823201925 -0.30374738574
0.94939476252 0.13412182033 -0.28405842185
0.96348631382 0.19724430144 -0.18087346852
0.96145200729 0.26562559605 -0.070619776845
-0.32725697756 -0.47806698084 0.81503331661
-0.24874541163 -0.43154415488 0.8670566678
-0.34198051691 -0.3907263577 0.85453897715
-0.52250361443 0.78901058435 0.32234412432
-0.58854240179 0.71434998512 0.37849056721
-0.48998847604 0.73993635178 0.46031552553
0.71726256609 0.67528736591 0.17158655822
0.71367353201 0.63927084208 0.2862944603
0.77453148365 0.58824932575 0.23180826008
0.66216468811 0.63206648827 0.40251609683
0.74305218458 0.56343275309 0.36051476002
0.33704438806 -0.29214221239 -0.89490693808
0.39825725555 -0.38635361195 -0.83192002773
0.27715551853 -0.40517619252 -0.87119400501
0.45901495218 -0.27032896876 -0.84629720449
0.3123857677 -0.49040174484 -0.81320375204
-0.81772184372 -0.39104485512 -0.42234438658
-0.85087287426 -0.40246671438 -0.33761256933
-0.87439531088 -0.30491501093 -0.37731838226
-0.87867981195 -0.21308575571 -0.4271992147
-0.91621351242 -0.21254213154 -0.33955389261
-0.92881596088 -0.32318553329 -0.18043893576
-0.90799856186 -0.30860465765 -0.28338366747
-0.88098496199 -0.4006267786 -0.25166895986
-0.94432401657 -0.2101226449 -0.25311499834
0.80227082968 0.59460604191 0.052669215947
0.73295736313 0.67766028643 0.058334421366
0.7885863781 0.59768199921 0.14374998212
-0.0018679170171 -0.89023280144 0.4545904994
-0.041459195316 -0.82691287994 0.56079894304
-0.033868622035 -0.73763024807 0.67431253195
-0.12143606693 -0.76656317711 0.63025105
-0.61057585478 0.74632543325 0.2637681663
0.47620937228 0.34373471141 0.80936121941
0.56273150444 0.3375608325 0.7545363903
0.52013993263 -0.8501444459 -0.081829212606
0.55511265993 -0.83117336035 0.031360637397
0.46800458431 -0.88369357586 0.0042682248168
0.81844335794 0.15640984476 -0.55285346508
0.83311587572 0.24273706973 -0.49689772725
0.87589395046 0.13512927294 -0.46312317252
-0.14463695884 -0.41275602579 0.89927786589
-0.22127251327 -0.34078487754 0.91357046366
-0.093623787165 -0.32284727693 0.94180458784
-0.098072774708 -0.507158041 0.85613667965
-0.045371197164 -0.43695411086 0.89817255735
0.019352987409 -0.49869376421 0.86638486385
0.76495701075 0.45078086853 -0.46001669765
0.75971662998 0.53365772963 -0.37151393294
0.83048444986 -0.32200285792 -0.45449784398
0.81498879194 0.35688102245 -0.45653873682
0.88279622793 0.22497877479 -0.41224491596
0.055995490402 -0.98708033562 0.14878258109
0.078917860985 -0.96549212933 0.24811834097
-0.013388289139 -0.97229385376 0.23337955773
0.02361400798 -0.94649666548 0.32121309638
0.11115179956 -0.93416202068 0.33890223503
0.031757973135 -0.02550232783 0.99914652109
0.090049281716 -0.16189819574 0.98265993595
0.15639972687 -0.025766465813 0.98733919859
0.16581694782 -0.27122220397 0.94763225317
0.042391892523 -0.29689690471 0.95380455256
-0.046145819128 -0.41416403651 -0.90858250856
0.0012300955132 -0.312174052 -0.94980603456
0.069040291011 -0.39225155115 -0.91720056534
0.4485835433 -0.26626372337 0.85245329142
0.38137567043 -0.37507340312 0.84472423792
0.50797182322 -0.32903665304 0.79605406523
0.77361607552 -0.37845531106 0.50796312094
0.70468306541 -0.3430325985 0.62111872435
0.68750315905 -0.43262979388 0.58321070671
-0.65798294544 -0.099900871515 -0.74632871151
-0.58802193403 -0.17704960704 -0.78930383921
-0.6838735342 -0.18113642931 -0.70660889149
0.66894501448 -0.14560502768 -0.72890841961
0.57351601124 -0.21765445173 -0.78974741697
0.58569437265 -0.068100385368 -0.80744862556
0.64548444748 -0.29776319861 -0.70333260298
0.52568626404 -0.35214915872 -0.77436596155
0.58324450254 -0.42937549949 -0.68953824043
0.73780435324 -0.20184919238 -0.64412158728
0.6788829565 -0.38975355029 -0.62227505445
0.73457360268 -0.30022457242 -0.60847306252
0.79476052523 -0.29609912634 -0.52973395586
0.80756849051 -0.2260517031 -0.54428201914
0.75529897213 0.32486045361 -0.56917864084
0.72199368477 0.41070353985 -0.55673700571
0.77192413807 0.36998102069 -0.51691621542
0.53585958481 -0.53366172314 -0.65426653624
0.46849295497 -0.47484216094 -0.7446898818
0.56799650192 0.64672958851 0.5085387826
0.63967263699 0.56109362841 0.52531707287
0.71969920397 0.52483707666 0.45433646441
0.69778126478 0.45559033751 0.55274063349
0.61642628908 0.48094376922 0.62339437008
0.24136228859 -0.14346554875 0.9597710371
-0.33422809839 -0.81327474117 0.47594812512
-0.22691237926 -0.85023754835 0.47495025396
-0.25276389718 -0.79664742947 0.54894506931
-0.15597036481 -0.82340294123 0.54558306932
0.57672929764 -0.79281228781 0.19701857865
0.64482355118 -0.75591033697 0.11305744946
0.65291410685 -0.72012025118 0.2348138243
0.72148305178 -0.67177706957 0.16743318737
0.71715205908 -0.69470268488 0.054729897529
0.63684362173 0.71920448542 0.27770382166
-0.45889922976 -0.38603839278 -0.80000460148
-0.53203958273 -0.33955201507 -0.7755445838
-0.44448468089 -0.34609383345 -0.82544463873
-0.78108555079 -0.48423340917 -0.39422306418
-0.74885612726 -0.45652210712 -0.48042476177
0.66055327654 0.74645143747 0.080426216125
0.058471467346 -0.67077320814 0.73880583048
-0.056393343955 -0.66134220362 0.74796372652
[...]
CELL_DATA 3528
SCALARS cell_data_0 double
LOOKUP_TABLE default
3.13786503654e-09
2.2222799102e-09
4.36157831401e-09
1.38542217674e-09
3.34244673515e-09
2.75039610388e-09
6.1038014627e-09
2.00658526773e-09
2.02640708932e-09
2.69564474912e-10
5.59570775827e-11
5.21321749096e-11
1.80017545157e-09
2.55193285471e-09
2.60773017162e-09
1.72531364627e-09
3.64133054701e-09
4.27055387396e-10
2.86278040859e-09
9.22684818183e-10
2.43599872427e-09
3.65073422365e-09
1.81675915478e-09
2.34030156867e-10
1.46000964677e-09
4.98356258081e-09
3.354050278e-09
3.41874358196e-09
2.30857686685e-09
1.25699874426e-09
3.74356356614e-09
3.12422788226e-09
3.29413337528e-09
4.72822452099e-09
2.93304338132e-09
3.58541914809e-10
3.4374647267e-10
3.8983801852e-09
3.41842399131e-11
3.14689730975e-09
1.90704628553e-09
4.12664662665e-09
2.13228319112e-09
1.43590832973e-11
1.43230919273e-09
2.74952824894e-10
3.57653294221e-09
3.42770279679e-09
2.26954841238e-09
3.68182551823e-10
1.67962030317e-09
9.90032497213e-10
2.11870721414e-09
5.07263171746e-09
4.03492860258e-11
1.04604751199e-09
3.33092571167e-09
1.83945844397e-09
6.83543108027e-10
1.24630616452e-09
3.87393214854e-11
2.38593448743e-09
1.25962721217e-09
2.04091237794e-09
1.10172663547e-09
4.68391720837e-10
1.87279552457e-09
3.03920160602e-09
4.81206299552e-10
4.99623716183e-10
3.26615241832e-09
1.36577749212e-09
5.48497988665e-09
2.35171425573e-10
1.39940691783e-09
6.39673676009e-10
7.58339593225e-10
1.54923874747e-09
2.1010911048e-09
3.32853398459e-09
1.17197884206e-09
9.09871290123e-10
3.11727043445e-10
2.78550316675e-09
1.14104426737e-09
4.54045431428e-09
1.33380978294e-09
1.20867666831e-09
4.81389418251e-10
2.03582919124e-09
9.50525020174e-10
6.29287125759e-10
6.76686873956e-10
9.89088100011e-10
1.25360214771e-09
8.34973272715e-10
1.93675645093e-09
9.75822745659e-10
4.40841861478e-09
2.71421812815e-09
1.3399072126e-09
9.61799045301e-10
1.25000584471e-10
7.41116464388e-10
3.67149832382e-10
2.65216303481e-09
1.55823256513e-10
8.92667230702e-10
1.30843318512e-09
2.23760108265e-09
1.09709157123e-09
1.93842765601e-09
1.82418171354e-09
1.11646994685e-09
2.2825722148e-09
3.27199445547e-09
3.47141013091e-10
2.34412338684e-09
5.88913071817e-10
1.77122324018e-09
8.30069812742e-10
2.86294544706e-09
7.6932516099e-10
1.05081053125e-09
3.04319261643e-09
9.46998872117e-10
1.21242556892e-09
7.5179910333e-10
2.36811851344e-09
5.33477732079e-10
1.23403903218e-09
4.61796002559e-10
9.54595647871e-10
1.28052887903e-09
1.62916562907e-10
1.75945990004e-09
1.60738004722e-09
2.05923495858e-09
2.20693092182e-09
9.78440300742e-10
9.99821684247e-10
1.09181377088e-09
2.96628992519e-10
4.2704253214e-10
2.05645170892e-09
2.84946039118e-09
6.04879871781e-09
7.06231448022e-10
3.44632671658e-09
3.33339472243e-09
2.49621352198e-09
1.28576058949e-09
6.19252362346e-10
9.26778031565e-10
2.97131357792e-09
1.90802606597e-09
2.04302400962e-09
1.69388611765e-09
2.61109146173e-09
6.81282305394e-10
1.07962326917e-10
7.15521648669e-11
6.90101796586e-10
7.86471177456e-11
1.35092989694e-10
1.53046042594e-09
2.3891268183e-10
2.55075717711e-09
1.19118132462e-09
1.65665414067e-09
1.9166615653e-09
1.84381835694e-09
6.25978710937e-10
2.69471266946e-09
2.68316812021e-10
1.09481948196e-09
1.65985324238e-09
1.23035648021e-09
5.87798698248e-10
9.28430346536e-10
2.01622332167e-09
2.50935322352e-09
5.38221161563e-10
1.49082789465e-09
1.34929600615e-09
1.96947022633e-09
5.53186116599e-09
2.83104525786e-09
2.7681792621e-10
1.59612543854e-09
4.50247471027e-09
2.18332451627e-10
1.28275171447e-10
3.31000137823e-09
3.51467101237e-09
4.32569070713e-09
1.23002011091e-10
4.11463454336e-09
1.59810675774e-09
1.62802181323e-09
1.02438704427e-10
1.01048289745e-09
1.07006573304e-09
5.3927709172e-10
1.75563336531e-09
2.73215921009e-09
2.77513208221e-09
1.52278425437e-09
1.64094798925e-10
3.2238250527e-09
2.73900339406e-09
3.823783946e-09
3.34652760327e-09
2.27623459687e-09
2.87216015308e-09
2.85374984263e-09
5.05869072115e-09
2.68175674808e-10
1.37207138389e-09
8.47222942179e-10
2.0904215233e-10
3.79993507797e-10
8.35402542939e-11
1.64903971228e-09
2.38986415041e-09
3.56971827677e-09
2.78660287906e-10
9.85834790795e-09
2.29192819583e-09
1.9617863749e-09
6.3766940126e-09
1.57271606019e-09
3.00273290459e-09
3.49959178403e-10
3.01886299272e-09
2.87899984541e-09
2.16961593759e-09
1.56560822802e-09
1.46535334812e-09
2.96903144746e-09
1.3802357522e-09
3.34112321274e-10
5.75600554101e-09
6.75834434337e-10
3.41304200085e-10
2.10460770597e-10
1.82985538989e-10
7.50427199514e-10
7.11229901414e-10
3.91821109982e-09
3.77036348292e-10
1.33920771728e-09
2.30238892823e-09
4.1739000891e-09
3.08728848916e-10
5.96710964978e-10
1.03290999611e-09
1.56206268154e-09
6.06096341844e-10
1.96343400138e-09
1.97575896425e-09
1.54701938897e-09
1.51978700817e-09
1.39224131899e-10
4.7588305929e-09
3.52386922994e-10
4.96606713785e-10
2.43636354767e-09
1.07704754793e-09
2.17307901438e-09
8.44033099874e-10
1.69349453084e-09
1.90812663994e-09
1.75329713982e-10
7.49893558953e-11
1.7960061907e-10
3.28319950376e-10
1.50412046142e-09
2.21151132959e-10
8.38942852097e-10
7.15705935989e-10
2.56911170963e-09
5.94829994041e-10
6.99010231071e-10
4.31818486223e-09
2.96917305975e-11
2.01417949322e-09
3.3715304855e-09
3.64220660929e-09
4.55710887766e-09
1.40004423408e-09
3.34388449472e-09
3.00900262525e-09
1.07367076408e-10
6.05686083924e-10
2.05217275373e-09
1.83203967527e-10
1.62828193335e-09
2.97461577199e-09
2.90055913556e-09
4.04171145372e-09
5.2709881699e-10
3.93025202179e-09
1.55589363786e-10
1.50324493795e-09
1.77044958183e-09
4.45668442449e-10
1.75941291555e-09
6.50716526424e-10
3.79950939897e-09
3.10603316852e-09
4.61745183404e-09
3.97604081044e-09
3.97653178016e-09
3.07593148222e-09
2.13953880414e-09
2.4462511776e-09
3.3496103343e-09
3.03417472727e-09
3.60043170191e-09
3.29292051762e-09
5.02880838598e-10
1.07204867431e-09
7.10147007297e-10
2.93903131169e-09
2.69356133469e-09
4.80870244505e-10
1.378796049e-10
4.99300059302e-09
2.97844878371e-09
2.82185222492e-09
1.5659369529e-09
3.00804527922e-09
2.42906208249e-09
9.81981221429e-10
4.37933603333e-09
2.14010228485e-09
1.82639198889e-10
1.33001627495e-09
1.41437425123e-09
2.42346744302e-09
2.47648613188e-09
2.54831629576e-09
1.15964282115e-09
1.83088102943e-09
1.58117096053e-09
2.30252890889e-09
7.12196188529e-10
1.3959236008e-10
3.28574119799e-09
4.53154297635e-10
6.62895531441e-10
2.36359217221e-09
7.81570620597e-10
4.44468936013e-10
2.73724873914e-09
7.78755637308e-10
1.18622500434e-09
1.17206541015e-09
4.41710369932e-09
2.07287236088e-09
2.57408277427e-09
2.57042731347e-09
1.52044560484e-09
2.11154190652e-09
6.79782015671e-10
3.82328204154e-10
6.61836146241e-09
2.23321959964e-10
2.49661696024e-09
8.78544991986e-10
4.68430772321e-09
5.55890994096e-09
4.36145605324e-09
1.87743518409e-09
1.00807725538e-10
1.32906952923e-09
4.70960755495e-09
3.11358237392e-09
2.54459310412e-09
9.41779270616e-10
6.19662776023e-10
2.84104482151e-09
4.08980480131e-09
2.06704928713e-09
3.02507909956e-09
1.60135364263e-09
8.8276243624e-10
8.07801473604e-11
7.12969110476e-10
1.52127121688e-09
1.25148495204e-10
1.76404286237e-09
9.97652151145e-10
2.05335604683e-10
3.39164672984e-10
2.46011511705e-09
1.67257580314e-09
7.7710418829e-11
2.83607522452e-10
1.55219236451e-09
2.58177680066e-09
8.11354222236e-10
1.29119847737e-09
7.79159126041e-10
7.53863870889e-10
1.62064307245e-09
2.8177650304e-10
1.06763602836e-09
1.37167248162e-09
3.16063197759e-10
3.4788722751e-09
1.50195790735e-09
2.54402472797e-09
2.23840306611e-09
2.14347295172e-09
2.66991229692e-09
5.46623160593e-09
7.38713750774e-10
2.34497572226e-09
1.57115521145e-09
5.17838392834e-10
1.21634151446e-10
2.94339259419e-09
2.85634469812e-10
1.46818073341e-10
1.53973580546e-09
4.54358801993e-10
3.28956633761e-09
3.04580213806e-09
1.08562434532e-09
1.75240786367e-10
2.80200692763e-09
8.24931123583e-10
1.02630844515e-09
3.08030917272e-09
1.19971384286e-09
1.40960876914e-09
2.04871665814e-10
2.74076357635e-09
3.81632612588e-09
1.28720787222e-10
1.37324510479e-09
2.36207240891e-09
8.12256146e-10
2.78962362967e-10
3.64820792552e-10
1.75231100127e-09
3.03272936816e-10
2.08140630768e-09
8.05690370696e-10
1.02398465355e-09
3.02835504689e-09
4.21330868026e-09
1.48254022309e-09
2.5292708954e-09
1.77918647806e-09
5.63046364649e-09
2.97683711177e-09
1.37702407863e-09
1.26436368097e-09
2.12346752979e-09
1.69097432836e-09
1.78853147545e-09
2.91094495352e-09
2.7158842651e-09
4.40108874968e-09
3.48811502917e-10
1.50625396083e-09
2.57553032769e-09
8.88748563889e-10
2.50441083305e-09
4.03182540271e-10
3.74820709916e-09
1.47113910838e-10
2.16199955953e-09
1.15894248323e-09
5.43283314705e-10
1.56666316997e-09
2.98420340579e-09
1.6834345344e-09
1.38905014219e-10
2.63865939512e-09
3.12174951412e-09
6.95439606615e-10
3.23315917728e-10
4.84630723734e-10
4.49401965956e-10
4.81659898861e-10
1.75903142755e-09
2.91283059834e-10
1.64096222147e-10
1.6159468004e-09
2.19633111791e-10
5.64049770131e-09
6.61648530554e-10
2.50772745416e-09
1.78403744487e-09
8.7122572845e-10
5.34445097883e-09
2.26102712768e-09
8.56245994638e-10
1.15324012053e-09
1.236488003e-09
1.86109060675e-09
3.05622212166e-09
1.13920796667e-09
1.66241471277e-09
1.21510542475e-09
1.32356165872e-09
8.97901211658e-10
6.74820146572e-10
7.23466520062e-10
5.81964832239e-10
3.25249322008e-09
2.47630854143e-09
2.13763908736e-09
1.74345885696e-09
1.63644347418e-09
4.06154000336e-09
9.58920254916e-10
2.73905690098e-09
7.63828807876e-10
1.89073585413e-09
6.86272113046e-10
1.80894893206e-10
1.50615746281e-09
1.44374002801e-10
3.34907759818e-09
4.54613481136e-09
1.27519651625e-09
9.39113206421e-10
3.84359943484e-10
2.7079309271e-09
3.46563533211e-10
1.79840705938e-09
2.24501693729e-09
1.48465383562e-09
1.62902677137e-09
4.7010085361e-09
7.6468208241e-10
2.2748681625e-09
3.03326279531e-09
2.90987918062e-09
5.12634128958e-09
4.50909469813e-09
9.02227356022e-10
1.15196551894e-09
1.25201312359e-09
5.04898537985e-10
3.68590090431e-10
1.58277232157e-09
2.29913150647e-09
2.58441573422e-09
2.34554630262e-09
1.15095609875e-09
2.86529295172e-10
2.48069749311e-09
4.38578565993e-10
3.09167175484e-10
1.14015138378e-09
1.15454977718e-09
1.24612161324e-09
3.17656896911e-09
7.99236724852e-11
3.17748129479e-09
1.53976959418e-09
2.23396386334e-09
4.02188993633e-09
1.56089133427e-09
1.7873101747e-09
2.76188307217e-11
1.83380736252e-09
3.07610703499e-09
2.17228442926e-09
8.81365424609e-10
6.92713533659e-10
3.66176904555e-10
5.71333326811e-11
1.7403035493e-09
2.00113412085e-09
1.72481964423e-09
8.04711514276e-10
3.29110236086e-09
1.93220075943e-09
5.45060709187e-10
1.7091292014e-09
2.82465469233e-09
4.08026498435e-09
1.65651429269e-09
1.20870426923e-09
2.07447011016e-09
2.69754708454e-09
4.2308627804e-09
2.58627027016e-09
1.833232755e-09
8.6939101169e-10
5.6014938038e-10
3.16418575123e-11
1.03497111207e-09
6.871589951e-09
1.17822946295e-09
3.53078220652e-10
3.88032145339e-10
3.04957039405e-09
1.6985640639e-09
1.36284322595e-09
2.58455352485e-09
1.28287394649e-09
4.55569966886e-09
3.23311586396e-10
4.82114201912e-10
1.58343965808e-10
2.84856879111e-10
7.04308559182e-10
6.03386503504e-10
1.53294513768e-10
7.35309582217e-10
7.88768600899e-10
1.96929495463e-10
1.82504584993e-09
2.79500448111e-09
3.68389174101e-09
7.83318971468e-10
1.11516061354e-09
2.78687367032e-09
2.12695198291e-10
2.89803503815e-10
9.18683222574e-10
2.33124974162e-09
3.89869429592e-11
5.75610724227e-10
5.84223050796e-12
2.32519614948e-09
1.81354300679e-09
9.22908598899e-10
2.49078410566e-09
8.46875625606e-11
7.40135249826e-10
3.14120381712e-09
8.6964999291e-10
4.68679539202e-10
1.31382073551e-09
2.35369578885e-09
6.52662035914e-10
2.00378441024e-09
3.43221455526e-09
1.5480291691e-09
1.34103779745e-09
3.04612617324e-09
1.20834008224e-09
2.89889492948e-10
4.8894857161e-10
1.19885229716e-09
1.28123644779e-10
1.62410472725e-10
1.9068833179e-10
1.79905916379e-10
1.10494482874e-09
7.30958119346e-10
2.32720874688e-09
7.6127534558e-10
7.6587947706e-10
8.82645398132e-10
1.19320788426e-09
3.20672636432e-10
8.07783272446e-10
9.56027053541e-10
4.20100975394e-10
1.76501905322e-09
8.76869433545e-10
1.39343554652e-09
2.46009218998e-09
2.8193895477e-09
3.60343358396e-09
6.40476690474e-10
3.67058025711e-10
5.61652472934e-10
1.36831805349e-09
1.43601755079e-09
1.56728490906e-09
8.32839497778e-10
5.78732892039e-10
1.93832131803e-10
3.16830517187e-10
9.76857258973e-10
3.30378125925e-09
2.6342954508e-10
5.82223457435e-09
2.25832913155e-09
1.23002865698e-09
6.39975166973e-10
2.08866695145e-09
9.68099086526e-10
1.6670937615e-09
2.17146380893e-09
1.51872271379e-10
4.65847294498e-10
1.45048293974e-09
2.08138473563e-09
5.00619059293e-09
3.02081281884e-09
3.76810276664e-10
2.59562464138e-10
1.21563798752e-09
6.43639505648e-10
2.11965558249e-09
8.30556160946e-10
2.63213830848e-10
3.05807283803e-09
2.95945030849e-10
3.77810013108e-09
3.01279758607e-10
2.26106252499e-09
1.33372681348e-09
1.14273479698e-09
8.21722431004e-10
8.33178170625e-10
4.91702387439e-10
2.21813754788e-09
5.56125326191e-10
3.13539116812e-10
3.29152670394e-09
1.88270866067e-09
8.43366577338e-10
1.89363775876e-09
3.04004609818e-09
4.21474847567e-09
1.88821103993e-09
1.11087154287e-09
4.375064207e-10
2.21467811923e-09
1.11182974122e-09
4.43544995536e-10
4.46454527036e-10
1.58534061763e-09
3.99007118637e-10
7.264441172e-10
2.50293833832e-09
3.92658788776e-11
4.58617113909e-10
6.7294496493e-10
1.29020723671e-09
2.74507918046e-09
2.14589074066e-09
9.01057016345e-10
4.15798378447e-09
3.04083118106e-09
5.46546623689e-10
5.08200921424e-10
2.7399259382e-09
2.16938658087e-09
8.05014022383e-10
2.62239471293e-09
9.98033742632e-10
2.33622371812e-09
3.87181282101e-09
3.34963270532e-10
4.1502139235e-09
1.89197869763e-11
1.55408464835e-09
5.1319648672e-09
5.76474306045e-10
1.90218792165e-09
2.68440096763e-09
1.8826183997e-09
5.29145447399e-11
2.36277051051e-09
4.26903104557e-10
3.30726048924e-09
8.37980053666e-10
2.99916074349e-10
5.75892720832e-10
1.21711566287e-09
2.34657809307e-09
1.96922449927e-09
4.23013390033e-10
1.92162475581e-09
1.30747264297e-09
6.00933722081e-09
3.4897631562e-09
4.34964513201e-10
4.1391832406e-10
1.09130735924e-09
3.65733088622e-10
2.3301633859e-09
1.6740558052e-09
3.20592518467e-09
5.48432051431e-09
2.46485397426e-09
1.45484376262e-09
7.79204992611e-10
7.4443188613e-11
6.84612777413e-10
9.93066704595e-10
1.41476058921e-09
1.68356337294e-09
3.93422889121e-09
1.04672613554e-09
1.41180134846e-09
5.08713389006e-09
1.12860547973e-09
1.56563310156e-09
4.50099070293e-09
1.1368965692e-09
3.87166523944e-09
2.84815897625e-09
4.61715094312e-10
2.10225161226e-09
2.40272674139e-09
1.20165141917e-10
2.19463011351e-09
1.32732235167e-09
1.30518121043e-09
1.50331933012e-09
1.59108051306e-09
1.49387288773e-09
1.80812267614e-09
1.12871557439e-09
5.07851544368e-10
2.03881651895e-09
1.74956381879e-09
2.32709525045e-09
1.0371575272e-09
6.50763168676e-11
8.78005724713e-10
3.6748854835e-09
4.61746443676e-09
2.6070246587e-09
8.27061228834e-10
1.23234312433e-09
5.14490744054e-10
2.48277676528e-09
1.74368802958e-09
3.25110486323e-11
5.99369835005e-10
1.45455408082e-09
4.39250253707e-10
3.96606020459e-11
6.1390990484e-10
4.37955459706e-10
7.28733712461e-10
5.30324191883e-10
1.41126881485e-10
1.04003787639e-09
1.98442775535e-09
8.43588546686e-10
1.46817532525e-09
6.64784183405e-10
2.04747277354e-09
2.7321852013e-09
3.75985227966e-11
1.54850303245e-09
7.4457849343e-10
3.95990148617e-09
6.49342396735e-10
1.25873094499e-09
2.74966956353e-10
6.33697210025e-10
8.04267362171e-10
8.32509269235e-10
1.16714418009e-09
2.41781913236e-09
7.56836720414e-10
5.06731424973e-10
9.12750178376e-10
3.6836566678e-09
1.47521170441e-09
2.72710262925e-10
2.3819585644e-09
3.4706740259e-09
8.92925962942e-10
9.64429002857e-10
4.54550776775e-10
1.7602072726e-09
1.3285818238e-09
1.79203240136e-09
1.57193681687e-09
1.06300028023e-09
3.66971982808e-10
2.33186872887e-09
5.55109801651e-10
1.01229748994e-09
9.45417158443e-11
8.11742658451e-10
2.08269414771e-09
2.1132676901e-09
9.08225924525e-10
1.4969880749e-09
1.24454315397e-09
2.28308998909e-09
2.54299143737e-09
3.81629884873e-09
1.35603818963e-09
2.10244751171e-09
4.46535866709e-09
3.72109591433e-09
1.96847333728e-09
1.33914534696e-09
1.39933790726e-09
2.80798493679e-09
2.74417961888e-09
1.83584001755e-11
6.65471469841e-10
9.57832890311e-10
2.5347469634e-09
3.82407412622e-09
1.84080539514e-09
1.98851878256e-09
3.07761369728e-09
1.01879570571e-10
1.0043160416e-09
8.59728427253e-10
2.40606180052e-09
1.78122237985e-09
1.98453842903e-09
5.24891163302e-10
1.0081335646e-09
7.95503745914e-10
1.45789867845e-10
7.49335255647e-10
9.30429204295e-10
1.38981299108e-09
3.15323411985e-10
1.0434949759e-09
1.54660050557e-09
3.64094452295e-09
1.11685599294e-10
1.48666094343e-09
2.48223702821e-09
8.93830711299e-10
1.08158149311e-09
2.8133996608e-10
2.06292417883e-09
8.3212656353e-11
1.0736891153e-09
2.56703420205e-10
1.25517497616e-09
4.94134346422e-10
2.24930241931e-09
1.76540529302e-09
3.61485830423e-10
6.33282391609e-10
8.92205447706e-11
1.74960198447e-09
4.4836349289e-10
3.37964689944e-09
1.25273003325e-09
1.24947246214e-09
2.01030572907e-09
2.25471725908e-09
2.13226589909e-09
2.03118385193e-10
8.91708242269e-10
8.84821567168e-10
1.16558821443e-09
3.58375601029e-10
1.60925679826e-09
1.79281001996e-09
1.32482852417e-09
2.16661945515e-09
1.72241063268e-09
8.88907163847e-10
2.27792849404e-09
2.73299161477e-09
3.7633583789e-09
8.7193775188e-10
1.28642481158e-10
2.12256596066e-10
1.33215675041e-09
2.34840860429e-09
3.33396776818e-09
2.22694519116e-09
1.05811574721e-09
2.23219029858e-09
6.3871165331e-10
3.69931530337e-09
2.80405368307e-09
1.42305374018e-09
2.02427658552e-09
4.86517315081e-10
2.58621552695e-09
1.91959282721e-09
1.06805271485e-09
1.84856970993e-09
6.98183802543e-10
3.07180664706e-10
7.49522013586e-10
1.67412277663e-09
2.64103192072e-10
1.60024184659e-11
1.48784255777e-09
6.89636191778e-10
9.43865471409e-10
1.83682007754e-09
3.55607168762e-10
2.78388436082e-09
1.54367490313e-09
7.72748107499e-10
1.18898237065e-09
2.76473577217e-10
4.59745716112e-09
6.31808327699e-09
7.69242090091e-10
2.34989307759e-09
2.21004092271e-09
2.54013838688e-10
1.296211753e-09
4.88775159099e-09
2.14504460864e-09
3.44731466029e-10
1.39446139502e-09
1.28095954541e-09
1.05204824612e-09
1.87496778872e-09
2.31821821145e-09
1.44128611299e-09
2.7207853212e-09
3.19375885771e-09
9.47844770123e-10
8.94115064049e-10
7.67693948417e-10
1.53750759578e-09
4.97430306754e-10
6.21150245387e-10
1.09785604534e-09
2.35713290342e-10
1.38100161018e-10
3.80540854574e-10
1.62127708786e-09
1.19385094107e-10
3.00684012242e-09
6.52222052446e-10
9.46730496734e-10
2.86331031679e-09
4.68957155746e-09
3.1725764688e-09
2.0277399037e-11
2.21708994273e-09
1.40208611714e-09
1.88293741344e-09
3.27381242239e-09
1.10154429051e-09
1.00492357993e-09
1.86119978043e-09
3.94609058363e-10
1.85061620462e-09
1.1651108964e-09
7.79846945989e-10
2.92464642397e-10
1.93843073839e-10
3.50616465867e-10
9.65511895633e-10
1.75999307831e-10
1.38639676348e-09
2.23374520771e-10
6.07680097176e-10
1.45527076988e-09
2.67727609487e-09
5.84379424953e-10
1.1594051175e-09
2.24383985921e-09
1.77160694514e-09
6.19058302866e-10
2.87281433087e-09
1.3190481796e-09
1.00164331145e-09
1.12108368729e-09
1.08112673991e-09
9.98200193716e-11
1.77035531001e-09
3.25828157775e-09
2.03735464796e-09
2.89929710978e-10
2.70157389559e-09
1.27136215998e-09
5.0175654489e-09
2.39021267057e-09
1.12150935832e-09
2.54327395373e-09
2.75170718827e-09
2.69861204799e-09
1.19538638392e-09
1.34714484011e-09
1.92945622842e-09
2.72100013228e-09
1.15733124309e-10
6.66345456174e-10
8.64671886146e-10
3.7378235372e-09
1.84708925617e-09
1.95342838721e-10
1.83973736019e-09
1.99534999357e-09
2.78056016755e-10
1.75876124448e-09
2.45805812256e-09
2.75169505664e-09
9.38636333735e-10
2.89694576036e-10
1.30428772199e-10
1.66691549293e-09
1.31580856054e-09
9.48961215378e-10
1.29332038702e-09
9.22275408972e-10
6.38229175423e-10
1.03289154653e-10
1.13250641775e-09
2.033739683e-09
7.26650169643e-10
1.25960814913e-09
3.71875154128e-09
2.6045587693e-10