# vtk DataFile Version 3.0
File Name: Molecule/sphere_dip/sphere_dip_0-s4.vtk
ASCII
DATASET UNSTRUCTURED_GRID
FIELD FieldData 1
TIME 1 1 double
0.0
POINTS 86 double
0.809016994375 0.309016994375 -0.5
0.309016994375 0.5 -0.809016994375
0.5 0.809016994375 -0.309016994375
0.0 0.850650808352 -0.525731112119
-0.309016994375 0.5 0.809016994375
0.0 0.0 1.0
0.309016994375 0.5 0.809016994375
-0.525731112119 0.0 0.850650808352
0.525731112119 0.0 0.850650808352
-0.309016994375 -0.5 0.809016994375
0.309016994375 -0.5 0.809016994375
0.0 -0.850650808352 0.525731112119
0.309016994375 -0.5 -0.809016994375
-0.309016994375 -0.5 -0.809016994375
0.0 0.0 -1.0
0.0 -0.850650808352 -0.525731112119
-0.525731112119 0.0 -0.850650808352
0.809016994375 -0.309016994375 0.5
0.809016994375 0.309016994375 0.5
0.5 0.809016994375 0.309016994375
0.0 0.850650808352 0.525731112119
-0.809016994375 -0.309016994375 -0.5
-0.809016994375 0.309016994375 -0.5
-1.0 0.0 0.0
-0.850650808352 -0.525731112119 0.0
-0.850650808352 0.525731112119 0.0
-0.5 -0.809016994375 -0.309016994375
-0.5 -0.809016994375 0.309016994375
0.0 -1.0 0.0
-0.809016994375 -0.309016994375 0.5
-0.809016994375 0.309016994375 0.5
0.5 -0.809016994375 -0.309016994375
0.5 -0.809016994375 0.309016994375
0.0 0.961938357784 0.273266528913
-0.259891913008 0.862668480416 0.433888564553
-0.26286555606 0.951056516295 0.162459848116
0.0 1.0 0.0
-0.5 0.809016994375 0.309016994375
-0.26286555606 0.951056516295 -0.162459848116
-0.525731112119 0.850650808352 0.0
-0.5 0.809016994375 -0.309016994375
-0.702046444776 0.69378047756 0.16062203564
-0.702046444776 0.69378047756 -0.16062203564
-0.16062203564 0.702046444776 0.69378047756
-0.425325404176 0.688190960236 0.587785252292
-0.688190960236 0.587785252292 0.425325404176
-0.587785252292 0.425325404176 0.688190960236
-0.862668480416 0.433888564553 0.259891913008
0.587785252292 -0.425325404176 0.688190960236
0.425325404176 -0.688190960236 0.587785252292
0.688190960236 -0.587785252292 0.425325404176
0.862668480416 -0.433888564553 0.259891913008
0.702046444776 -0.69378047756 0.16062203564
0.850650808352 -0.525731112119 0.0
1.0 0.0 0.0
0.862668480416 -0.433888564553 -0.259891913008
0.961938357784 -0.273266528913 0.0
0.951056516295 -0.162459848116 -0.26286555606
0.809016994375 -0.309016994375 -0.5
0.850650808352 0.0 -0.525731112119
0.951056516295 0.162459848116 -0.26286555606
0.69378047756 -0.16062203564 -0.702046444776
0.69378047756 0.16062203564 -0.702046444776
0.525731112119 0.0 -0.850650808352
0.850650808352 0.525731112119 0.0
0.433888564553 -0.259891913008 -0.862668480416
-0.309016994375 0.5 -0.809016994375
-0.425325404176 0.688190960236 -0.587785252292
-0.587785252292 0.425325404176 -0.688190960236
-0.688190960236 0.587785252292 -0.425325404176
0.587785252292 -0.425325404176 -0.688190960236
0.688190960236 -0.587785252292 -0.425325404176
0.425325404176 -0.688190960236 -0.587785252292
0.702046444776 -0.69378047756 -0.16062203564
0.162459848116 0.26286555606 -0.951056516295
-0.162459848116 0.26286555606 -0.951056516295
0.0 0.525731112119 -0.850650808352
0.702046444776 0.69378047756 -0.16062203564
0.702046444776 0.69378047756 0.16062203564
0.525731112119 0.850650808352 0.0
0.26286555606 0.951056516295 -0.162459848116
0.26286555606 0.951056516295 0.162459848116
0.951056516295 0.162459848116 0.26286555606
0.961938357784 0.273266528913 0.0
0.862668480416 0.433888564553 0.259891913008
0.688190960236 0.587785252292 0.425325404176

CELLS 168 672
3 0 1 2
3 2 1 3
3 4 5 6
3 4 7 5
3 6 5 8
3 7 9 5
3 9 10 5
3 9 11 10
3 5 10 8
3 12 13 14
3 12 15 13
3 14 13 16
3 17 18 8
3 19 20 6
3 18 6 8
3 16 21 22
3 21 23 22
3 21 24 23
3 22 23 25
3 24 26 27
3 26 28 27
3 26 15 28
3 27 28 11
3 24 27 29
3 27 9 29
3 27 11 9
3 29 9 7
3 7 30 29
3 30 23 29
3 29 23 24
3 16 13 21
3 13 26 21
3 13 15 26
3 21 26 24
3 15 31 28
3 31 32 28
3 28 32 11
3 19 33 20
3 20 33 34
3 33 35 34
3 33 36 35
3 34 35 37
3 36 38 35
3 38 39 35
3 38 40 39
3 35 39 37
3 40 38 3
3 3 38 36
3 37 39 41
3 39 42 41
3 39 40 42
3 41 42 25
3 20 34 43
3 34 44 43
3 34 37 44
3 43 44 4
3 37 45 44
3 45 46 44
3 45 30 46
3 44 46 4
3 37 41 45
3 41 47 45
3 41 25 47
3 45 47 30
3 4 46 7
3 46 30 7
3 20 43 6
3 43 4 6
3 10 48 8
3 8 48 17
3 10 49 48
3 49 50 48
3 49 32 50
3 48 50 17
3 32 49 11
3 11 49 10
3 17 50 51
3 50 52 51
3 50 32 52
3 51 52 53
3 17 51 54
3 25 42 22
3 30 47 23
3 47 25 23
3 31 52 32
3 53 55 56
3 55 57 56
3 55 58 57
3 56 57 54
3 58 59 57
3 59 60 57
3 59 0 60
3 57 60 54
3 58 61 59
3 61 62 59
3 61 63 62
3 59 62 0
3 60 0 64
3 0 62 1
3 62 63 1
3 63 65 14
3 65 12 14
3 66 67 3
3 3 67 40
3 66 68 67
3 68 69 67
3 68 22 69
3 67 69 40
3 22 68 16
3 16 68 66
3 63 61 65
3 61 70 65
3 61 58 70
3 65 70 12
3 58 71 70
3 71 72 70
3 71 31 72
3 70 72 12
3 58 55 71
3 55 73 71
3 55 53 73
3 71 73 31
3 12 72 15
3 72 31 15
3 14 74 63
3 63 74 1
3 14 75 74
3 75 76 74
3 75 66 76
3 74 76 1
3 66 75 16
3 16 75 14
3 1 76 3
3 76 66 3
3 53 56 51
3 51 56 54
3 40 69 42
3 42 69 22
3 31 73 52
3 52 73 53
3 2 77 0
3 0 77 64
3 64 77 78
3 77 79 78
3 77 2 79
3 78 79 19
3 2 80 79
3 80 81 79
3 80 36 81
3 79 81 19
3 36 80 3
3 3 80 2
3 54 82 17
3 82 18 17
3 54 83 82
3 83 84 82
3 83 64 84
3 82 84 18
3 64 78 84
3 78 85 84
3 78 19 85
3 84 85 18
3 18 85 6
3 6 85 19
3 19 81 33
3 33 81 36
3 64 83 60
3 60 83 54

CELL_TYPES 168
5
5
5
5
5
5
5
5
5
5
5
5
5
5
5
5
5
5
5
5
5
5
5
5
5
5
5
5
5
5
5
5
5
5
5
5
5
5
5
5
5
5
5
5
5
5
5
5
5
5
5
5
5
5
5
5
5
5
5
5
5
5
5
5
5
5
5
5
5
5
5
5
5
5
5
5
5
5
5
5
5
5
5
5
5
5
5
5
5
5
5
5
5
5
5
5
5
5
5
5
5
5
5
5
5
5
5
5
5
5
5
5
5
5
5
5
5
5
5
5
5
5
5
5
5
5
5
5
5
5
5
5
5
5
5
5
5
5
5
5
5
5
5
5
5
5
5
5
5
5
5
5
5
5
5
5
5
5
5
5
5
5
5
5
5
5
5
5

CELL_DATA 168
SCALARS cell_data_0 double
LOOKUP_TABLE default
0.000524722887199
2.60880226072e-05
0.000249046947346
0.000153922973885
0.000229574645857
0.000173827510013
0.000240534373159
9.40503235198e-05
0.000229169716392
0.000275255467184
8.89728489412e-05
0.000239804910516
1.95260529832e-05
5.76959840631e-06
7.35803103315e-05
2.23968179573e-05
2.63245024028e-05
6.54115813611e-05
6.58785034606e-05
7.28432841735e-05
1.37736607406e-05
4.3787186281e-06
7.10065658243e-06
5.99079117009e-05
6.83092143852e-05
4.70973770392e-05
0.000123509383725
0.000254426221655
1.82927321729e-05
6.77809324928e-05
7.29327391027e-05
6.48218522177e-05
4.19501214091e-05
6.25979126495e-05
9.52800900604e-06
1.62596445364e-05
6.22732032311e-06
3.42390810628e-05
2.34573324471e-05
8.87128703165e-06
7.47309905261e-06
9.97835193891e-06
1.26626672746e-05
1.65511712279e-05
1.52968248341e-05
1.33124652439e-05
2.70694537955e-06
7.09551628552e-06
7.18606022169e-06
1.45636058807e-05
1.86135713636e-05
3.16458033062e-05
2.10864655303e-05
7.7533641904e-07
2.96770693272e-06
1.07984439548e-05
3.97703484033e-06
1.16404476221e-05
6.67326148837e-06
1.6585253922e-05
4.83093650924e-07
1.50485893773e-06
2.07143041371e-05
2.57123297696e-07
6.46611513062e-05
0.000116615286523
1.17430213538e-05
4.93363276424e-05
4.25198249929e-05
1.61372269082e-05
1.86010256521e-05
1.32370545308e-05
5.53752194609e-06
9.06671769685e-06
8.67966531516e-06
2.67250055356e-05
2.32143693922e-06
9.51565892228e-07
1.55917903118e-06
7.55550239778e-06
3.57657801008e-05
5.49571477378e-05
1.2111788375e-06
3.66242610563e-05
2.34268623457e-06
7.46942849041e-06
1.16044764853e-05
3.4997189245e-05
3.58055851666e-05
4.59561065677e-05
5.74162079974e-05
0.000200593745927
8.89913369927e-05
1.52300518288e-05
5.0457037502e-06
6.0394839855e-06
0.000135728639287
0.000426402611203
0.000258891962256
3.00465275596e-05
0.000103985573206
0.00011045572846
2.84471580961e-05
1.20879947001e-06
1.31673919716e-05
6.931226593e-07
4.76599563535e-07
3.92040669509e-06
2.19481822565e-06
4.04384792924e-05
4.63001886268e-06
1.12096431351e-05
8.27274505696e-06
8.3019707976e-06
2.26899018588e-05
1.51865252916e-06
1.10066827193e-06
1.01624256054e-05
2.30530087861e-05
2.27757946983e-06
6.24682796557e-06
4.85004108309e-07
1.79070722678e-05
4.33765907473e-06
0.000114230458107
4.08617749745e-06
6.19059372368e-05
5.70188995267e-06
2.11527685386e-05
1.43117606672e-05
5.56974096409e-05
0.00011556257321
8.19533106811e-06
3.33596205591e-05
4.97635310891e-06
2.24665973028e-05
9.96856208829e-06
4.38927744664e-06
1.53910739159e-06
7.3494571615e-06
0.000198156921326
0.000292480179511
2.50840682308e-05
2.39297870878e-07
3.41403014119e-06
3.21053981783e-06
3.51221329739e-06
4.61644844131e-07
4.99211512206e-06
3.89719785415e-06
3.14579887356e-06
7.29252364198e-07
4.25760360959e-05
1.12833766508e-05
2.30220493306e-05
9.50300246484e-08
2.38973249973e-05
1.89189273772e-08
2.41199634836e-05
8.09004874524e-07
3.48813009002e-06
6.50558969279e-07
2.96554726167e-05
1.88342897203e-05
1.12029951193e-06
3.63090552103e-06
6.05875394525e-05
5.7617340625e-05

