# vtk DataFile Version 3.0
File Name: Molecule/sphere_dip/sphere_dip_0-s5.vtk
ASCII
DATASET UNSTRUCTURED_GRID
FIELD FieldData 1
TIME 1 1 double
0.0
POINTS 109 double
0.809016994375 -0.309016994375 0.5
0.809016994375 0.309016994375 0.5
0.525731112119 0.0 0.850650808352
0.5 0.809016994375 0.309016994375
0.0 0.850650808352 0.525731112119
0.309016994375 0.5 0.809016994375
-0.525731112119 0.0 -0.850650808352
-0.809016994375 -0.309016994375 -0.5
-0.809016994375 0.309016994375 -0.5
-1.0 0.0 0.0
-0.850650808352 -0.525731112119 0.0
-0.850650808352 0.525731112119 0.0
-0.5 -0.809016994375 -0.309016994375
-0.5 -0.809016994375 0.309016994375
0.0 -1.0 0.0
0.0 -0.850650808352 -0.525731112119
0.0 -0.850650808352 0.525731112119
-0.809016994375 -0.309016994375 0.5
-0.309016994375 -0.5 0.809016994375
-0.309016994375 -0.5 -0.809016994375
0.5 -0.809016994375 -0.309016994375
0.5 -0.809016994375 0.309016994375
0.0 0.961938357784 0.273266528913
-0.259891913008 0.862668480416 0.433888564553
-0.26286555606 0.951056516295 0.162459848116
0.0 1.0 0.0
-0.5 0.809016994375 0.309016994375
-0.26286555606 0.951056516295 -0.162459848116
-0.525731112119 0.850650808352 0.0
-0.5 0.809016994375 -0.309016994375
0.0 0.850650808352 -0.525731112119
-0.702046444776 0.69378047756 0.16062203564
-0.702046444776 0.69378047756 -0.16062203564
-0.16062203564 0.702046444776 0.69378047756
-0.425325404176 0.688190960236 0.587785252292
-0.309016994375 0.5 0.809016994375
-0.688190960236 0.587785252292 0.425325404176
-0.587785252292 0.425325404176 0.688190960236
-0.809016994375 0.309016994375 0.5
-0.862668480416 0.433888564553 0.259891913008
-0.525731112119 0.0 0.850650808352
0.309016994375 -0.5 0.809016994375
0.587785252292 -0.425325404176 0.688190960236
0.425325404176 -0.688190960236 0.587785252292
0.688190960236 -0.587785252292 0.425325404176
0.862668480416 -0.433888564553 0.259891913008
0.702046444776 -0.69378047756 0.16062203564
0.850650808352 -0.525731112119 0.0
1.0 0.0 0.0
0.862668480416 -0.433888564553 -0.259891913008
0.961938357784 -0.273266528913 0.0
0.951056516295 -0.162459848116 -0.26286555606
0.809016994375 -0.309016994375 -0.5
0.850650808352 0.0 -0.525731112119
0.951056516295 0.162459848116 -0.26286555606
0.69378047756 -0.16062203564 -0.702046444776
0.69378047756 0.16062203564 -0.702046444776
0.525731112119 0.0 -0.850650808352
0.433888564553 -0.259891913008 -0.862668480416
0.0 0.0 -1.0
-0.309016994375 0.5 -0.809016994375
-0.425325404176 0.688190960236 -0.587785252292
-0.587785252292 0.425325404176 -0.688190960236
-0.688190960236 0.587785252292 -0.425325404176
0.587785252292 -0.425325404176 -0.688190960236
0.309016994375 -0.5 -0.809016994375
0.688190960236 -0.587785252292 -0.425325404176
0.425325404176 -0.688190960236 -0.587785252292
0.702046444776 -0.69378047756 -0.16062203564
0.162459848116 0.26286555606 -0.951056516295
0.309016994375 0.5 -0.809016994375
-0.162459848116 0.26286555606 -0.951056516295
0.0 0.525731112119 -0.850650808352
0.702046444776 0.69378047756 -0.16062203564
0.525731112119 0.850650808352 0.0
0.702046444776 0.69378047756 0.16062203564
0.5 0.809016994375 -0.309016994375
0.26286555606 0.951056516295 -0.162459848116
0.26286555606 0.951056516295 0.162459848116
0.951056516295 0.162459848116 0.26286555606
0.961938357784 0.273266528913 0.0
0.862668480416 0.433888564553 0.259891913008
0.850650808352 0.525731112119 0.0
0.688190960236 0.587785252292 0.425325404176
0.809016994375 0.309016994375 -0.5
0.587785252292 0.425325404176 -0.688190960236
0.688190960236 0.587785252292 -0.425325404176
0.425325404176 0.688190960236 -0.587785252292
-0.162459848116 0.26286555606 0.951056516295
0.0 0.525731112119 0.850650808352
0.162459848116 0.26286555606 0.951056516295
0.0 0.0 1.0
-0.162459848116 -0.26286555606 0.951056516295
0.0 -0.525731112119 0.850650808352
0.162459848116 -0.26286555606 0.951056516295
0.0 -0.525731112119 -0.850650808352
0.162459848116 -0.26286555606 -0.951056516295
-0.162459848116 -0.26286555606 -0.951056516295
-0.69378047756 -0.16062203564 0.702046444776
-0.69378047756 0.16062203564 0.702046444776
-0.850650808352 0.0 0.525731112119
0.891006524188 0.238676930319 -0.386187385588
0.758652300163 0.237086325351 -0.606825149272
0.925614793411 0.353553390593 -0.135045378369
0.862668480416 0.433888564553 -0.259891913008
0.519553709322 0.342271135182 -0.782888506207
0.606825149272 0.758652300163 -0.237086325351
0.782888506207 0.519553709322 -0.342271135182
0.78384304242 0.615642020874 -0.0810862934433

CELLS 214 856
3 0 1 2
3 3 4 5
3 1 5 2
3 6 7 8
3 7 9 8
3 7 10 9
3 8 9 11
3 10 12 13
3 12 14 13
3 12 15 14
3 13 14 16
3 10 13 17
3 13 18 17
3 13 16 18
3 17 9 10
3 6 19 7
3 19 12 7
3 19 15 12
3 7 12 10
3 15 20 14
3 20 21 14
3 14 21 16
3 3 22 4
3 4 22 23
3 22 24 23
3 22 25 24
3 23 24 26
3 25 27 24
3 27 28 24
3 27 29 28
3 24 28 26
3 29 27 30
3 30 27 25
3 26 28 31
3 28 32 31
3 28 29 32
3 31 32 11
3 4 23 33
3 23 34 33
3 23 26 34
3 33 34 35
3 26 36 34
3 36 37 34
3 36 38 37
3 34 37 35
3 26 31 36
3 31 39 36
3 31 11 39
3 36 39 38
3 35 37 40
3 4 33 5
3 41 42 2
3 2 42 0
3 41 43 42
3 43 44 42
3 43 21 44
3 42 44 0
3 21 43 16
3 16 43 41
3 0 44 45
3 44 46 45
3 44 21 46
3 45 46 47
3 0 45 48
3 11 32 8
3 38 39 9
3 39 11 9
3 20 46 21
3 47 49 50
3 49 51 50
3 49 52 51
3 50 51 48
3 52 53 51
3 53 54 51
3 51 54 48
3 52 55 53
3 55 56 53
3 55 57 56
3 57 58 59
3 60 61 30
3 30 61 29
3 60 62 61
3 62 63 61
3 62 8 63
3 61 63 29
3 8 62 6
3 6 62 60
3 57 55 58
3 55 64 58
3 55 52 64
3 58 64 65
3 52 66 64
3 66 67 64
3 66 20 67
3 64 67 65
3 52 49 66
3 49 68 66
3 49 47 68
3 66 68 20
3 65 67 15
3 67 20 15
3 59 69 57
3 57 69 70
3 59 71 69
3 71 72 69
3 71 60 72
3 69 72 70
3 60 71 6
3 6 71 59
3 70 72 30
3 72 60 30
3 47 50 45
3 45 50 48
3 29 63 32
3 32 63 8
3 20 68 46
3 46 68 47
3 73 74 75
3 75 74 3
3 76 77 74
3 77 78 74
3 77 25 78
3 74 78 3
3 25 77 30
3 30 77 76
3 48 79 0
3 79 1 0
3 48 80 79
3 80 81 79
3 80 82 81
3 79 81 1
3 82 75 81
3 75 83 81
3 75 3 83
3 81 83 1
3 1 83 5
3 5 83 3
3 3 78 22
3 22 78 25
3 54 80 48
3 84 85 86
3 85 87 86
3 85 70 87
3 86 87 76
3 76 87 30
3 87 70 30
3 35 88 89
3 88 90 89
3 88 91 90
3 89 90 5
3 91 88 40
3 40 88 35
3 5 90 2
3 90 91 2
3 18 92 40
3 40 92 91
3 18 93 92
3 93 94 92
3 93 41 94
3 92 94 91
3 41 93 16
3 16 93 18
3 91 94 2
3 94 41 2
3 65 95 96
3 95 97 96
3 95 19 97
3 96 97 59
3 19 95 15
3 15 95 65
3 59 97 6
3 97 19 6
3 40 98 18
3 18 98 17
3 40 99 98
3 99 100 98
3 99 38 100
3 98 100 17
3 17 100 9
3 9 100 38
3 38 99 37
3 37 99 40
3 35 89 33
3 33 89 5
3 84 101 53
3 53 101 54
3 56 102 53
3 53 102 84
3 54 101 103
3 101 104 103
3 101 84 104
3 103 104 82
3 84 102 85
3 102 105 85
3 102 56 105
3 85 105 70
3 70 105 57
3 57 105 56
3 65 96 58
3 58 96 59
3 76 106 86
3 106 107 86
3 106 73 107
3 86 107 84
3 84 107 104
3 107 108 104
3 107 73 108
3 104 108 82
3 82 108 75
3 108 73 75
3 73 106 74
3 106 76 74
3 54 103 80
3 80 103 82

CELL_TYPES 214
5
5
5
5
5
5
5
5
5
5
5
5
5
5
5
5
5
5
5
5
5
5
5
5
5
5
5
5
5
5
5
5
5
5
5
5
5
5
5
5
5
5
5
5
5
5
5
5
5
5
5
5
5
5
5
5
5
5
5
5
5
5
5
5
5
5
5
5
5
5
5
5
5
5
5
5
5
5
5
5
5
5
5
5
5
5
5
5
5
5
5
5
5
5
5
5
5
5
5
5
5
5
5
5
5
5
5
5
5
5
5
5
5
5
5
5
5
5
5
5
5
5
5
5
5
5
5
5
5
5
5
5
5
5
5
5
5
5
5
5
5
5
5
5
5
5
5
5
5
5
5
5
5
5
5
5
5
5
5
5
5
5
5
5
5
5
5
5
5
5
5
5
5
5
5
5
5
5
5
5
5
5
5
5
5
5
5
5
5
5
5
5
5
5
5
5
5
5
5
5
5
5
5
5
5
5
5
5
5
5
5
5
5
5

CELL_DATA 214
SCALARS cell_data_0 double
LOOKUP_TABLE default
6.60773446489e-05
3.78675542203e-05
0.000103156332435
3.61483044003e-05
0.000103375098882
8.9897510703e-05
7.02839711467e-05
3.31545449548e-05
3.51102072541e-05
1.29891822681e-05
6.57329529967e-06
9.8275414019e-05
1.63038799843e-05
4.48049513673e-05
0.000187097620063
5.4050024554e-05
2.7659272416e-05
3.88454135215e-05
4.10668272441e-05
4.71522172115e-05
5.77582801272e-05
8.61208774174e-06
1.77687283009e-05
1.08200476928e-05
1.14929035796e-05
3.30540640328e-05
2.51866282529e-05
2.84762967853e-05
2.18132688558e-06
1.91286546794e-06
2.43057301034e-05
4.53040918456e-05
0.00010645323872
1.82262730428e-05
1.31726312944e-08
1.23431487884e-06
1.22014261997e-06
2.0434047387e-06
8.06810166185e-06
1.6134201188e-05
1.72220375783e-05
1.2053981482e-05
1.1296808436e-05
7.99672496043e-06
1.9195350762e-05
1.62423538561e-05
1.45400017295e-06
3.95782831581e-06
9.63401904293e-08
4.91545176089e-05
3.56057887847e-05
5.93729143573e-05
3.60362424749e-05
1.60762599184e-05
8.4815261421e-07
8.83073831819e-06
3.99786688475e-06
3.33597306729e-07
2.19397493554e-05
3.16842734452e-05
7.62921540962e-05
2.94493008568e-05
6.14521533086e-05
4.47811806654e-05
2.40298808265e-06
3.52887190903e-05
4.36788133271e-05
8.8155511057e-05
0.000130132069406
0.000149235278959
9.53523382883e-05
2.92134370486e-05
7.83869200707e-06
1.14610228452e-05
8.56707152838e-06
2.22038373161e-06
1.18543890931e-05
5.9578218793e-06
0.000109252747829
1.04328515494e-05
4.37870661794e-05
1.67745848689e-05
3.67106858294e-05
3.9252203085e-05
5.32036857903e-05
5.68726034535e-06
4.44225126166e-05
2.14996209754e-05
9.15310426504e-06
7.56528980446e-06
1.92155821951e-05
6.61162276644e-05
0.000106478170278
0.000121184702958
1.08928740433e-05
0.000161842714951
0.000172318263325
8.7189120326e-05
7.22892936786e-05
1.13152357108e-05
5.95246103918e-05
0.000121159688944
8.38229995571e-05
7.0265734059e-05
5.7818287843e-05
4.4080378439e-05
4.35565265794e-05
8.60624058414e-05
0.000136682140195
1.83148052326e-05
2.33249047791e-05
5.77778687506e-05
6.04587956533e-05
4.41548469453e-05
4.52910708796e-05
4.95059509097e-05
2.31238559559e-05
9.74869275641e-07
4.74311635741e-06
4.76244115689e-06
6.80573890357e-07
2.39969449146e-05
5.94680118355e-06
0.000100999144405
4.93508319308e-05
7.32382492727e-06
1.82509632301e-05
3.3255644696e-06
3.48027900736e-06
8.32436523946e-06
4.93710757996e-08
6.58026253398e-06
8.54770932646e-06
1.04789443546e-05
6.23238649905e-06
2.42999320183e-05
7.30869875285e-06
9.05682214096e-06
3.11115581362e-05
4.39926749668e-06
5.46558134351e-06
4.23879170804e-05
1.92334970961e-05
5.98205827461e-05
0.000156159847832
0.000104841399968
1.76030308883e-05
3.69344949711e-05
6.44511560847e-05
4.06269797059e-05
0.000134938721596
7.59531789362e-05
4.18894404006e-05
0.000125341158236
5.84505117799e-05
0.000128644328657
1.99217166893e-05
3.8096979837e-07
1.74867299511e-05
6.70250633653e-05
2.92897679632e-05
3.05940849399e-05
0.000135409870658
7.4401158781e-05
2.06599066512e-05
3.12318560848e-06
1.86945141229e-05
6.26642132723e-05
3.28533082584e-05
3.19765223661e-05
0.000114465803938
4.73729003221e-05
4.47480766923e-05
1.52857929632e-06
1.86220294374e-06
1.58693727208e-06
2.59690382263e-06
2.80334962884e-05
0.000118840346083
3.17381866282e-05
6.36963794083e-06
7.33271492507e-06
5.73355354538e-06
1.0814055507e-05
5.00656927465e-07
2.87649991767e-06
6.89127772941e-06
8.12560683572e-07
6.00136694053e-07
9.4292640566e-08
8.47293587391e-07
2.10274194729e-06
3.23773794111e-06
2.75786755816e-06
4.40390385633e-06
5.97651846739e-06
2.87751272782e-05
5.82252213247e-06
2.82862885113e-05
6.52014669162e-05
3.19263818787e-06
1.31753966329e-06
1.97585098791e-07
4.39300249188e-07
8.87764006243e-07
5.17210156159e-08
8.34946598099e-08
1.92392579463e-06
2.08250539854e-06
1.40284239445e-07
5.8933714144e-07
2.38213123488e-06
1.41789444483e-06
2.94988637901e-06

