# vtk DataFile Version 3.0
File Name: Molecule/sphere_dip/sphere_dip_0-s3.vtk
ASCII
DATASET UNSTRUCTURED_GRID
FIELD FieldData 1
TIME 1 1 double
0.0
POINTS 77 double
0.850650808352 0.525731112119 0.0
0.809016994375 0.309016994375 -0.5
0.5 0.809016994375 -0.309016994375
0.309016994375 0.5 -0.809016994375
0.0 0.850650808352 -0.525731112119
0.5 0.809016994375 0.309016994375
0.0 1.0 0.0
-0.309016994375 0.5 0.809016994375
0.0 0.0 1.0
0.309016994375 0.5 0.809016994375
-0.525731112119 0.0 0.850650808352
0.525731112119 0.0 0.850650808352
-0.309016994375 -0.5 0.809016994375
0.309016994375 -0.5 0.809016994375
0.0 -0.850650808352 0.525731112119
0.309016994375 -0.5 -0.809016994375
-0.309016994375 -0.5 -0.809016994375
0.0 0.0 -1.0
0.0 -0.850650808352 -0.525731112119
-0.525731112119 0.0 -0.850650808352
1.0 0.0 0.0
0.809016994375 0.309016994375 0.5
0.809016994375 -0.309016994375 0.5
0.0 0.850650808352 0.525731112119
-0.809016994375 -0.309016994375 -0.5
-0.809016994375 0.309016994375 -0.5
-1.0 0.0 0.0
-0.850650808352 -0.525731112119 0.0
-0.850650808352 0.525731112119 0.0
-0.5 -0.809016994375 -0.309016994375
-0.5 -0.809016994375 0.309016994375
0.0 -1.0 0.0
-0.809016994375 -0.309016994375 0.5
-0.809016994375 0.309016994375 0.5
0.5 -0.809016994375 -0.309016994375
0.5 -0.809016994375 0.309016994375
0.0 0.961938357784 0.273266528913
-0.259891913008 0.862668480416 0.433888564553
-0.26286555606 0.951056516295 0.162459848116
-0.5 0.809016994375 0.309016994375
-0.26286555606 0.951056516295 -0.162459848116
-0.525731112119 0.850650808352 0.0
-0.5 0.809016994375 -0.309016994375
-0.702046444776 0.69378047756 0.16062203564
-0.702046444776 0.69378047756 -0.16062203564
-0.16062203564 0.702046444776 0.69378047756
-0.425325404176 0.688190960236 0.587785252292
-0.688190960236 0.587785252292 0.425325404176
-0.587785252292 0.425325404176 0.688190960236
-0.862668480416 0.433888564553 0.259891913008
0.587785252292 -0.425325404176 0.688190960236
0.425325404176 -0.688190960236 0.587785252292
0.688190960236 -0.587785252292 0.425325404176
0.862668480416 -0.433888564553 0.259891913008
0.702046444776 -0.69378047756 0.16062203564
0.850650808352 -0.525731112119 0.0
0.862668480416 -0.433888564553 -0.259891913008
0.961938357784 -0.273266528913 0.0
0.951056516295 -0.162459848116 -0.26286555606
0.809016994375 -0.309016994375 -0.5
0.850650808352 0.0 -0.525731112119
0.951056516295 0.162459848116 -0.26286555606
0.69378047756 -0.16062203564 -0.702046444776
0.69378047756 0.16062203564 -0.702046444776
0.525731112119 0.0 -0.850650808352
0.433888564553 -0.259891913008 -0.862668480416
-0.309016994375 0.5 -0.809016994375
-0.425325404176 0.688190960236 -0.587785252292
-0.587785252292 0.425325404176 -0.688190960236
-0.688190960236 0.587785252292 -0.425325404176
0.587785252292 -0.425325404176 -0.688190960236
0.688190960236 -0.587785252292 -0.425325404176
0.425325404176 -0.688190960236 -0.587785252292
0.702046444776 -0.69378047756 -0.16062203564
0.162459848116 0.26286555606 -0.951056516295
-0.162459848116 0.26286555606 -0.951056516295
0.0 0.525731112119 -0.850650808352

CELLS 150 600
3 0 1 2
3 1 3 2
3 2 3 4
3 0 2 5
3 2 6 5
3 2 4 6
3 7 8 9
3 7 10 8
3 9 8 11
3 10 12 8
3 12 13 8
3 12 14 13
3 8 13 11
3 15 16 17
3 15 18 16
3 17 16 19
3 20 21 22
3 20 0 21
3 22 21 11
3 0 5 21
3 5 9 21
3 5 23 9
3 21 9 11
3 19 24 25
3 24 26 25
3 24 27 26
3 25 26 28
3 27 29 30
3 29 31 30
3 29 18 31
3 30 31 14
3 27 30 32
3 30 12 32
3 30 14 12
3 32 12 10
3 10 33 32
3 33 26 32
3 32 26 27
3 19 16 24
3 16 29 24
3 16 18 29
3 24 29 27
3 18 34 31
3 34 35 31
3 31 35 14
3 6 36 5
3 5 36 23
3 23 36 37
3 36 38 37
3 36 6 38
3 37 38 39
3 6 40 38
3 40 41 38
3 40 42 41
3 38 41 39
3 42 40 4
3 4 40 6
3 39 41 43
3 41 44 43
3 41 42 44
3 43 44 28
3 23 37 45
3 37 46 45
3 37 39 46
3 45 46 7
3 39 47 46
3 47 48 46
3 47 33 48
3 46 48 7
3 39 43 47
3 43 49 47
3 43 28 49
3 47 49 33
3 7 48 10
3 48 33 10
3 23 45 9
3 45 7 9
3 13 50 11
3 11 50 22
3 13 51 50
3 51 52 50
3 51 35 52
3 50 52 22
3 35 51 14
3 14 51 13
3 22 52 53
3 52 54 53
3 52 35 54
3 53 54 55
3 22 53 20
3 28 44 25
3 33 49 26
3 49 28 26
3 34 54 35
3 55 56 57
3 56 58 57
3 56 59 58
3 57 58 20
3 59 60 58
3 60 61 58
3 60 1 61
3 58 61 20
3 59 62 60
3 62 63 60
3 62 64 63
3 60 63 1
3 20 61 0
3 61 1 0
3 1 63 3
3 63 64 3
3 64 65 17
3 65 15 17
3 66 67 4
3 4 67 42
3 66 68 67
3 68 69 67
3 68 25 69
3 67 69 42
3 25 68 19
3 19 68 66
3 64 62 65
3 62 70 65
3 62 59 70
3 65 70 15
3 59 71 70
3 71 72 70
3 71 34 72
3 70 72 15
3 59 56 71
3 56 73 71
3 56 55 73
3 71 73 34
3 15 72 18
3 72 34 18
3 17 74 64
3 64 74 3
3 17 75 74
3 75 76 74
3 75 66 76
3 74 76 3
3 66 75 19
3 19 75 17
3 3 76 4
3 76 66 4
3 55 57 53
3 53 57 20
3 42 69 44
3 44 69 25
3 34 73 54
3 54 73 55

CELL_TYPES 150
5
5
5
5
5
5
5
5
5
5
5
5
5
5
5
5
5
5
5
5
5
5
5
5
5
5
5
5
5
5
5
5
5
5
5
5
5
5
5
5
5
5
5
5
5
5
5
5
5
5
5
5
5
5
5
5
5
5
5
5
5
5
5
5
5
5
5
5
5
5
5
5
5
5
5
5
5
5
5
5
5
5
5
5
5
5
5
5
5
5
5
5
5
5
5
5
5
5
5
5
5
5
5
5
5
5
5
5
5
5
5
5
5
5
5
5
5
5
5
5
5
5
5
5
5
5
5
5
5
5
5
5
5
5
5
5
5
5
5
5
5
5
5
5
5
5
5
5
5
5

CELL_DATA 150
SCALARS cell_data_0 double
LOOKUP_TABLE default
0.000612694174323
0.000119117722053
9.46381254595e-05
0.00140442925278
0.00071121677374
8.40757400923e-05
0.000263349481856
0.000212607533774
0.000215767456623
0.000215080157393
0.000262268212733
9.45426581062e-05
0.000213465702483
0.000247001709457
7.26810945086e-05
0.000206575104735
6.87109226869e-05
0.000629410598781
5.44145218378e-05
0.00111703401164
0.000343832205729
0.000298140640888
8.61333978515e-05
6.46590043479e-05
9.15009221927e-06
0.000104282899398
7.71055863151e-05
8.46727328934e-05
6.79081379679e-06
6.19633414345e-05
1.58179820648e-05
5.8842435336e-05
6.13582361716e-05
4.66760616361e-05
9.47957718274e-05
6.15130317033e-05
1.61462494216e-05
7.84877178436e-05
9.95106177403e-05
5.56692200326e-05
6.8777326371e-08
9.53510923966e-05
4.84183661465e-05
1.48223078971e-05
1.6576021208e-05
0.000219817759214
0.000201866979543
2.01721064094e-08
1.35114754228e-06
5.0895122914e-06
2.1450117524e-05
1.42551989855e-05
1.43028633773e-05
1.42931571854e-05
3.65912607666e-05
7.15291976123e-06
1.96600980989e-05
3.50671340845e-05
1.39652812922e-05
1.10115572215e-05
3.54824110744e-05
5.75863365034e-06
6.1981877726e-06
2.52728563072e-05
9.72593168615e-06
3.77167011344e-05
2.09111407757e-06
1.40130572267e-06
1.16739442595e-05
3.15455515914e-05
3.82569194095e-06
2.45267167829e-05
3.75386960024e-06
5.05721435023e-05
3.27926542742e-05
3.06181704619e-05
4.94028265534e-05
5.1507436207e-05
3.4251249112e-05
1.89834978601e-05
1.32458996954e-05
6.16897597204e-06
9.48731295886e-06
1.59218581568e-05
3.13987687422e-05
3.34601399148e-06
1.64494843148e-06
7.75650874365e-07
2.31821099892e-05
2.96318442e-05
5.60728455544e-05
3.50385632438e-06
4.39775562105e-05
3.87511181409e-06
3.47671410046e-05
5.95880372613e-06
2.10483248728e-05
2.76290207192e-05
2.75667752623e-05
1.59696834469e-05
1.8290391534e-05
4.05824251458e-05
4.73476601874e-05
3.54406343683e-05
3.44684576501e-05
1.78338730955e-05
0.00037154351287
0.00027063160555
2.45423198227e-05
1.80240895178e-05
0.000107516462164
0.000109053030644
2.66370180696e-05
6.645939491e-06
1.20142104311e-05
7.03905480817e-07
6.07538013506e-07
5.89572025232e-08
3.15908819927e-05
5.52601471839e-05
2.14558544044e-05
1.47314237715e-05
3.8869217303e-05
1.10165893623e-05
2.11398640102e-05
1.51406667423e-06
1.25123855979e-06
1.25847985173e-05
2.1760353817e-05
2.3896123879e-06
2.78766998208e-05
6.14047583636e-07
6.47435314587e-07
2.26711075605e-05
0.000119255595841
7.71270431331e-06
6.39930111241e-05
5.5827776463e-06
1.90192402548e-05
1.03649871725e-05
7.84164203637e-05
0.000130450594635
3.47625535637e-06
3.08239766581e-05
2.82632302579e-05
2.50681866698e-05
6.23684209203e-06
4.49275160165e-06
1.07202518749e-06
2.44957474078e-05

