# vtk DataFile Version 3.0
File Name: Molecule/sphere_cent/sphere_cent_0-s2.vtk
ASCII
DATASET UNSTRUCTURED_GRID
FIELD FieldData 1
TIME 1 1 double
0.0
POINTS 124 double
-0.525731112119 0.0 0.850650808352
-0.309016994375 -0.5 0.809016994375
0.0 0.0 1.0
0.309016994375 -0.5 0.809016994375
0.0 -0.850650808352 0.525731112119
0.525731112119 0.0 0.850650808352
0.809016994375 -0.309016994375 0.5
0.5 -0.809016994375 0.309016994375
0.850650808352 -0.525731112119 0.0
-0.5 -0.809016994375 0.309016994375
-0.809016994375 -0.309016994375 0.5
0.809016994375 -0.309016994375 -0.5
0.951056516295 -0.162459848116 -0.26286555606
1.0 0.0 0.0
0.850650808352 0.0 -0.525731112119
0.951056516295 0.162459848116 -0.26286555606
0.809016994375 0.309016994375 -0.5
0.525731112119 0.0 -0.850650808352
0.850650808352 0.525731112119 0.0
0.688190960236 0.587785252292 -0.425325404176
0.5 0.809016994375 -0.309016994375
0.587785252292 0.425325404176 -0.688190960236
0.425325404176 0.688190960236 -0.587785252292
0.309016994375 0.5 -0.809016994375
0.259891913008 0.862668480416 -0.433888564553
0.16062203564 0.702046444776 -0.69378047756
0.0 0.850650808352 -0.525731112119
0.525731112119 0.850650808352 0.0
0.5 0.809016994375 0.309016994375
0.26286555606 0.951056516295 -0.162459848116
0.26286555606 0.951056516295 0.162459848116
0.0 1.0 0.0
0.0 0.961938357784 -0.273266528913
0.259891913008 0.862668480416 0.433888564553
0.0 0.961938357784 0.273266528913
0.0 0.850650808352 0.525731112119
-0.259891913008 0.862668480416 0.433888564553
-0.26286555606 0.951056516295 0.162459848116
-0.5 0.809016994375 0.309016994375
-0.26286555606 0.951056516295 -0.162459848116
-0.525731112119 0.850650808352 0.0
-0.5 0.809016994375 -0.309016994375
-0.259891913008 0.862668480416 -0.433888564553
-0.702046444776 0.69378047756 0.16062203564
-0.702046444776 0.69378047756 -0.16062203564
-0.850650808352 0.525731112119 0.0
-0.16062203564 0.702046444776 0.69378047756
-0.425325404176 0.688190960236 0.587785252292
-0.309016994375 0.5 0.809016994375
-0.688190960236 0.587785252292 0.425325404176
-0.587785252292 0.425325404176 0.688190960236
-0.809016994375 0.309016994375 0.5
-0.862668480416 0.433888564553 0.259891913008
0.16062203564 0.702046444776 0.69378047756
0.0 0.525731112119 0.850650808352
0.309016994375 0.5 0.809016994375
-0.162459848116 0.26286555606 0.951056516295
0.162459848116 0.26286555606 0.951056516295
0.309016994375 -0.5 -0.809016994375
0.162459848116 -0.26286555606 -0.951056516295
0.0 0.0 -1.0
0.0 -0.525731112119 -0.850650808352
-0.162459848116 -0.26286555606 -0.951056516295
-0.309016994375 -0.5 -0.809016994375
0.16062203564 -0.702046444776 -0.69378047756
-0.16062203564 -0.702046444776 -0.69378047756
0.0 -0.850650808352 -0.525731112119
-0.273266528913 0.0 -0.961938357784
-0.433888564553 -0.259891913008 -0.862668480416
-0.525731112119 0.0 -0.850650808352
0.951056516295 -0.162459848116 0.26286555606
0.951056516295 0.162459848116 0.26286555606
0.850650808352 0.0 0.525731112119
0.809016994375 0.309016994375 0.5
0.688190960236 0.587785252292 0.425325404176
0.425325404176 0.688190960236 0.587785252292
0.587785252292 0.425325404176 0.688190960236
-0.69378047756 -0.16062203564 -0.702046444776
-0.69378047756 0.16062203564 -0.702046444776
-0.850650808352 0.0 -0.525731112119
-0.809016994375 -0.309016994375 -0.5
-0.809016994375 0.309016994375 -0.5
-0.951056516295 -0.162459848116 -0.26286555606
-0.951056516295 0.162459848116 -0.26286555606
-1.0 0.0 0.0
-0.862668480416 -0.433888564553 -0.259891913008
-0.961938357784 -0.273266528913 0.0
-0.850650808352 -0.525731112119 0.0
-0.862668480416 0.433888564553 -0.259891913008
-0.961938357784 0.273266528913 0.0
-0.16062203564 0.702046444776 -0.69378047756
-0.425325404176 0.688190960236 -0.587785252292
-0.309016994375 0.5 -0.809016994375
-0.587785252292 0.425325404176 -0.688190960236
-0.688190960236 0.587785252292 -0.425325404176
-0.433888564553 0.259891913008 -0.862668480416
-0.702046444776 -0.69378047756 -0.16062203564
-0.702046444776 -0.69378047756 0.16062203564
-0.525731112119 -0.850650808352 0.0
-0.5 -0.809016994375 -0.309016994375
-0.26286555606 -0.951056516295 -0.162459848116
-0.26286555606 -0.951056516295 0.162459848116
0.0 -1.0 0.0
-0.259891913008 -0.862668480416 -0.433888564553
0.0 -0.961938357784 -0.273266528913
-0.862668480416 -0.433888564553 0.259891913008
-0.688190960236 -0.587785252292 0.425325404176
-0.850650808352 0.0 0.525731112119
-0.951056516295 0.162459848116 0.26286555606
-0.951056516295 -0.162459848116 0.26286555606
-0.587785252292 -0.425325404176 -0.688190960236
-0.425325404176 -0.688190960236 -0.587785252292
-0.688190960236 -0.587785252292 -0.425325404176
0.259891913008 -0.862668480416 -0.433888564553
0.26286555606 -0.951056516295 -0.162459848116
0.5 -0.809016994375 -0.309016994375
0.525731112119 -0.850650808352 0.0
0.26286555606 -0.951056516295 0.162459848116
0.587785252292 -0.425325404176 -0.688190960236
0.688190960236 -0.587785252292 -0.425325404176
0.425325404176 -0.688190960236 -0.587785252292
0.162459848116 0.26286555606 -0.951056516295
-0.162459848116 0.26286555606 -0.951056516295
0.0 0.525731112119 -0.850650808352

CELLS 244 976
3 0 1 2
3 1 3 2
3 1 4 3
3 2 3 5
3 5 3 6
3 3 7 6
3 3 4 7
3 6 7 8
3 9 4 1
3 10 1 0
3 11 12 8
3 8 12 13
3 11 14 12
3 14 15 12
3 14 16 15
3 12 15 13
3 16 14 17
3 17 14 11
3 13 15 18
3 15 16 18
3 16 19 18
3 18 19 20
3 16 21 19
3 21 22 19
3 21 23 22
3 19 22 20
3 23 21 17
3 17 21 16
3 20 22 24
3 22 25 24
3 22 23 25
3 24 25 26
3 20 27 18
3 18 27 28
3 20 29 27
3 29 30 27
3 29 31 30
3 27 30 28
3 20 24 29
3 24 32 29
3 24 26 32
3 29 32 31
3 28 30 33
3 30 34 33
3 30 31 34
3 33 34 35
3 35 34 36
3 34 37 36
3 34 31 37
3 36 37 38
3 31 39 37
3 39 40 37
3 39 41 40
3 37 40 38
3 31 32 39
3 32 42 39
3 32 26 42
3 39 42 41
3 38 40 43
3 40 44 43
3 40 41 44
3 43 44 45
3 35 36 46
3 36 47 46
3 36 38 47
3 46 47 48
3 38 49 47
3 49 50 47
3 49 51 50
3 47 50 48
3 38 43 49
3 43 52 49
3 43 45 52
3 49 52 51
3 48 50 0
3 50 51 0
3 35 46 53
3 46 54 53
3 46 48 54
3 53 54 55
3 48 56 54
3 56 57 54
3 56 2 57
3 54 57 55
3 2 56 0
3 0 56 48
3 55 57 5
3 57 2 5
3 58 59 17
3 17 59 60
3 58 61 59
3 61 62 59
3 61 63 62
3 59 62 60
3 58 64 61
3 64 65 61
3 64 66 65
3 61 65 63
3 60 62 67
3 62 68 67
3 62 63 68
3 67 68 69
3 13 70 8
3 8 70 6
3 13 71 70
3 71 72 70
3 71 73 72
3 70 72 6
3 73 71 18
3 18 71 13
3 6 72 5
3 72 73 5
3 28 74 18
3 18 74 73
3 28 75 74
3 75 76 74
3 75 55 76
3 74 76 73
3 28 33 75
3 33 53 75
3 33 35 53
3 75 53 55
3 73 76 5
3 76 55 5
3 69 77 78
3 77 79 78
3 77 80 79
3 78 79 81
3 80 82 79
3 82 83 79
3 82 84 83
3 79 83 81
3 80 85 82
3 85 86 82
3 85 87 86
3 82 86 84
3 81 83 88
3 83 89 88
3 83 84 89
3 88 89 45
3 26 90 42
3 90 91 42
3 90 92 91
3 42 91 41
3 92 93 91
3 93 94 91
3 93 81 94
3 91 94 41
3 92 95 93
3 95 78 93
3 95 69 78
3 93 78 81
3 41 94 44
3 94 88 44
3 94 81 88
3 44 88 45
3 87 96 97
3 96 98 97
3 96 99 98
3 97 98 9
3 99 100 98
3 100 101 98
3 100 102 101
3 98 101 9
3 99 103 100
3 103 104 100
3 103 66 104
3 100 104 102
3 9 101 4
3 101 102 4
3 87 97 105
3 97 106 105
3 97 9 106
3 105 106 10
3 10 106 1
3 1 106 9
3 51 107 0
3 0 107 10
3 51 108 107
3 108 109 107
3 108 84 109
3 107 109 10
3 51 52 108
3 52 89 108
3 52 45 89
3 108 89 84
3 10 109 105
3 109 86 105
3 109 84 86
3 105 86 87
3 69 68 77
3 68 110 77
3 68 63 110
3 77 110 80
3 63 111 110
3 111 112 110
3 111 99 112
3 110 112 80
3 63 65 111
3 65 103 111
3 65 66 103
3 111 103 99
3 80 112 85
3 112 96 85
3 112 99 96
3 85 96 87
3 66 113 104
3 113 114 104
3 113 115 114
3 104 114 102
3 115 116 114
3 116 117 114
3 116 7 117
3 114 117 102
3 7 116 8
3 8 116 115
3 102 117 4
3 117 7 4
3 11 118 17
3 17 118 58
3 11 119 118
3 119 120 118
3 119 115 120
3 118 120 58
3 115 119 8
3 8 119 11
3 58 120 64
3 120 113 64
3 120 115 113
3 64 113 66
3 60 121 17
3 17 121 23
3 60 122 121
3 122 123 121
3 122 92 123
3 121 123 23
3 60 67 122
3 67 95 122
3 67 69 95
3 122 95 92
3 23 123 25
3 123 90 25
3 123 92 90
3 25 90 26

CELL_TYPES 244
5
5
5
5
5
5
5
5
5
5
5
5
5
5
5
5
5
5
5
5
5
5
5
5
5
5
5
5
5
5
5
5
5
5
5
5
5
5
5
5
5
5
5
5
5
5
5
5
5
5
5
5
5
5
5
5
5
5
5
5
5
5
5
5
5
5
5
5
5
5
5
5
5
5
5
5
5
5
5
5
5
5
5
5
5
5
5
5
5
5
5
5
5
5
5
5
5
5
5
5
5
5
5
5
5
5
5
5
5
5
5
5
5
5
5
5
5
5
5
5
5
5
5
5
5
5
5
5
5
5
5
5
5
5
5
5
5
5
5
5
5
5
5
5
5
5
5
5
5
5
5
5
5
5
5
5
5
5
5
5
5
5
5
5
5
5
5
5
5
5
5
5
5
5
5
5
5
5
5
5
5
5
5
5
5
5
5
5
5
5
5
5
5
5
5
5
5
5
5
5
5
5
5
5
5
5
5
5
5
5
5
5
5
5
5
5
5
5
5
5
5
5
5
5
5
5
5
5
5
5
5
5
5
5
5
5
5
5
5
5
5
5
5
5

CELL_DATA 244
SCALARS cell_data_0 double
LOOKUP_TABLE default
5.44569526227e-06
1.11445769363e-05
4.72607245835e-06
5.4753660835e-06
5.02863676361e-06
1.01060923625e-05
4.67479228143e-06
6.04680676004e-06
5.62554678796e-06
5.69653738267e-06
1.40422719729e-06
9.42024436873e-07
2.11475677207e-07
1.63805317543e-07
2.10919011189e-07
4.98173172705e-07
6.37580607459e-07
6.20730886544e-07
2.9770619496e-07
7.87059105509e-07
7.8743668617e-07
8.15853161152e-07
1.69734349502e-07
2.3494381716e-07
2.31480047969e-07
5.97472599653e-09
2.99435963946e-07
7.0285428016e-07
2.09442408509e-07
1.2247982834e-07
2.63301314362e-07
7.69993164249e-07
6.25343132407e-07
6.24589471778e-07
3.02414516008e-07
5.67786072518e-08
7.08669057805e-07
8.39410650984e-07
3.76635367148e-07
2.77056026795e-07
7.45858830864e-07
8.02170563445e-07
6.25266576924e-07
9.32847968098e-08
8.2877898043e-07
1.02612416627e-06
9.83424142298e-07
5.6794066118e-08
8.1606721923e-07
1.56144166568e-08
6.90518006412e-07
2.14638023551e-08
2.84247786692e-07
6.31134494968e-08
7.94735355985e-07
2.30139035154e-07
7.0273030588e-07
4.7169880566e-07
1.65235102898e-07
4.48391118496e-08
2.70793547969e-07
4.01958776492e-07
8.0144813084e-07
9.66273029715e-08
9.59969830328e-09
9.32312022811e-08
1.48969283954e-07
2.27531334593e-07
5.45341077289e-08
4.09554691342e-08
7.47846187787e-08
8.11789899871e-08
3.75409882765e-07
3.44025912598e-08
7.52035941315e-07
9.48112813463e-07
8.76153827077e-07
2.41602951361e-08
1.09434390889e-07
1.98527456977e-07
5.3585757816e-08
2.62632257354e-07
1.75228748295e-07
2.20867013496e-07
7.28574461506e-07
9.3371589668e-07
5.37582060897e-07
5.20128604707e-07
8.46628902296e-07
8.53821082257e-07
1.99826678692e-07
5.52600856763e-08
1.83660692774e-07
5.13841268481e-08
2.35321972651e-07
2.17016691878e-07
8.04724076484e-07
3.56362420062e-07
6.73359968432e-08
1.53556765181e-08
8.07266652588e-08
6.44672352208e-07
8.63015380516e-07
7.81491238018e-07
5.89718991296e-07
8.29252110752e-08
2.2113441811e-07
4.51519680042e-07
7.81584825675e-07
2.6638068216e-07
3.59875353932e-07
8.73553783737e-07
5.16920089631e-07
7.231204381e-07
8.79835591568e-07
5.55919935295e-08
2.53505572811e-07
2.66843975844e-07
7.12568709716e-07
1.96458185359e-08
8.27236108195e-07
2.46744425745e-07
8.32616566066e-07
5.63287348064e-07
6.5260840704e-07
3.03207613328e-08
3.5994301264e-09
5.94487468331e-08
1.97255853887e-07
2.16444325379e-07
2.0079227983e-07
1.69389736789e-07
1.65729344379e-09
5.11861118076e-09
4.42238006177e-07
5.91495384038e-08
3.7578769534e-08
1.18671373261e-08
6.31388110151e-08
4.65522023915e-07
7.80045594033e-07
1.50610944358e-07
7.96065964567e-08
3.20023103016e-07
1.61434678954e-07
3.3203778459e-07
2.93069600493e-07
1.27916052439e-07
1.95716466287e-09
5.48852680648e-08
6.27632517605e-07
5.77691632498e-08
7.09183728529e-08
1.38552565934e-07
6.62733564084e-08
4.22952802777e-07
4.29445129348e-07
1.0784463037e-08
1.12021884759e-07
1.16135654561e-07
1.24306008163e-07
7.70526863138e-08
2.93687882898e-07
8.3491193506e-08
2.22723665365e-07
1.58516135747e-08
6.61024756649e-07
1.89151315652e-07
4.35195106803e-07
6.61244979743e-07
4.64366281996e-07
9.25091507131e-08
3.16439042671e-07
3.90205130431e-07
3.05848767305e-06
3.10017965578e-06
9.23065452256e-07
4.81660229253e-07
7.62541522535e-08
1.76027499908e-07
1.84714649676e-07
1.51148341615e-07
7.00209353093e-08
7.17237373704e-08
4.2383953679e-07
2.6067818574e-08
2.09999967239e-07
1.10057408423e-07
1.13341100021e-07
5.05649842123e-07
6.27952299555e-07
3.69862674542e-08
7.18098412731e-08
1.99541298862e-08
8.01946423198e-08
1.61827260725e-07
1.20724848552e-07
1.93086312209e-07
1.39859928172e-07
1.21903996914e-08
8.18350729957e-07
6.22712760228e-08
1.19519551047e-08
4.30920614805e-08
6.29559626331e-08
4.17972689847e-07
6.85491170548e-07
2.9102903905e-08
2.23024047907e-07
1.83418653573e-07
1.68142072947e-07
8.20410516723e-08
3.30176135487e-07
2.27783630317e-07
8.51337303949e-07
1.54621039859e-06
7.45053513817e-07
1.79699461266e-07
5.2563762085e-07
5.92687310827e-07
3.37013581819e-07
1.17553629538e-07
9.72299556203e-09
3.85402028715e-09
1.32370600339e-06
1.27614425584e-06
6.99706194713e-08
1.79780024743e-07
2.36743185288e-08
7.31186423217e-07
5.22571051617e-07
4.91123911168e-08
1.10857931068e-07
9.18654165321e-08
1.92142630316e-07
3.86984250692e-07
2.39449895019e-08
9.69909131242e-08
6.02603830185e-07
1.19726755557e-08
2.65126108048e-07
2.84796264008e-09
7.29805723684e-08
6.36362079057e-07

