# vtk DataFile Version 3.0
File Name: Molecule/sphere_cent/sphere_cent_0-s3.vtk
ASCII
DATASET UNSTRUCTURED_GRID
FIELD FieldData 1
TIME 1 1 double
0.0
POINTS 259 double
0.809016994375 0.309016994375 -0.5
0.850650808352 0.0 -0.525731112119
0.525731112119 0.0 -0.850650808352
0.809016994375 -0.309016994375 -0.5
0.587785252292 0.425325404176 -0.688190960236
0.425325404176 0.688190960236 -0.587785252292
0.688190960236 0.587785252292 -0.425325404176
0.309016994375 0.5 -0.809016994375
0.5 0.809016994375 -0.309016994375
0.259891913008 0.862668480416 -0.433888564553
0.16062203564 0.702046444776 -0.69378047756
-0.26286555606 0.951056516295 -0.162459848116
-0.5 0.809016994375 -0.309016994375
-0.525731112119 0.850650808352 0.0
-0.26286555606 0.951056516295 0.162459848116
-0.5 0.809016994375 0.309016994375
-0.702046444776 0.69378047756 0.16062203564
-0.702046444776 0.69378047756 -0.16062203564
-0.850650808352 0.525731112119 0.0
-0.259891913008 0.862668480416 0.433888564553
-0.425325404176 0.688190960236 0.587785252292
-0.16062203564 0.702046444776 0.69378047756
-0.309016994375 0.5 0.809016994375
-0.688190960236 0.587785252292 0.425325404176
-0.587785252292 0.425325404176 0.688190960236
-0.862668480416 0.433888564553 0.259891913008
-0.809016994375 0.309016994375 0.5
0.0 0.525731112119 0.850650808352
0.16062203564 0.702046444776 0.69378047756
0.309016994375 0.5 0.809016994375
-0.162459848116 0.26286555606 0.951056516295
0.162459848116 0.26286555606 0.951056516295
0.525731112119 0.0 0.850650808352
0.0 -0.525731112119 -0.850650808352
-0.162459848116 -0.26286555606 -0.951056516295
0.162459848116 -0.26286555606 -0.951056516295
-0.309016994375 -0.5 -0.809016994375
0.309016994375 -0.5 -0.809016994375
0.16062203564 -0.702046444776 -0.69378047756
-0.16062203564 -0.702046444776 -0.69378047756
0.0 0.0 -1.0
-0.273266528913 0.0 -0.961938357784
-0.433888564553 -0.259891913008 -0.862668480416
-0.525731112119 0.0 -0.850650808352
0.425325404176 0.688190960236 0.587785252292
0.587785252292 0.425325404176 0.688190960236
-0.69378047756 -0.16062203564 -0.702046444776
-0.69378047756 0.16062203564 -0.702046444776
-0.850650808352 0.0 -0.525731112119
-0.809016994375 -0.309016994375 -0.5
-0.809016994375 0.309016994375 -0.5
-0.951056516295 -0.162459848116 -0.26286555606
-0.951056516295 0.162459848116 -0.26286555606
-1.0 0.0 0.0
-0.862668480416 -0.433888564553 -0.259891913008
-0.961938357784 -0.273266528913 0.0
-0.850650808352 -0.525731112119 0.0
-0.862668480416 0.433888564553 -0.259891913008
-0.961938357784 0.273266528913 0.0
-0.16062203564 0.702046444776 -0.69378047756
-0.309016994375 0.5 -0.809016994375
-0.425325404176 0.688190960236 -0.587785252292
-0.259891913008 0.862668480416 -0.433888564553
-0.587785252292 0.425325404176 -0.688190960236
-0.688190960236 0.587785252292 -0.425325404176
-0.433888564553 0.259891913008 -0.862668480416
-0.702046444776 -0.69378047756 -0.16062203564
-0.702046444776 -0.69378047756 0.16062203564
-0.525731112119 -0.850650808352 0.0
-0.5 -0.809016994375 -0.309016994375
-0.5 -0.809016994375 0.309016994375
-0.26286555606 -0.951056516295 -0.162459848116
-0.26286555606 -0.951056516295 0.162459848116
0.0 -1.0 0.0
-0.259891913008 -0.862668480416 -0.433888564553
0.0 -0.961938357784 -0.273266528913
-0.862668480416 -0.433888564553 0.259891913008
-0.688190960236 -0.587785252292 0.425325404176
-0.951056516295 0.162459848116 0.26286555606
-0.951056516295 -0.162459848116 0.26286555606
-0.850650808352 0.0 0.525731112119
-0.809016994375 -0.309016994375 0.5
-0.587785252292 -0.425325404176 -0.688190960236
-0.425325404176 -0.688190960236 -0.587785252292
-0.688190960236 -0.587785252292 -0.425325404176
0.259891913008 -0.862668480416 -0.433888564553
0.26286555606 -0.951056516295 -0.162459848116
0.5 -0.809016994375 -0.309016994375
0.587785252292 -0.425325404176 -0.688190960236
0.688190960236 -0.587785252292 -0.425325404176
0.425325404176 -0.688190960236 -0.587785252292
0.162459848116 0.26286555606 -0.951056516295
-0.162459848116 0.26286555606 -0.951056516295
0.0 0.525731112119 -0.850650808352
-0.525731112119 0.0 0.850650808352
-0.433888564553 -0.259891913008 0.862668480416
-0.273266528913 0.0 0.961938357784
-0.162459848116 -0.26286555606 0.951056516295
-0.309016994375 -0.5 0.809016994375
0.0 0.0 1.0
0.0 -0.525731112119 0.850650808352
0.162459848116 -0.26286555606 0.951056516295
0.309016994375 -0.5 0.809016994375
-0.16062203564 -0.702046444776 0.69378047756
0.16062203564 -0.702046444776 0.69378047756
0.0 -0.850650808352 0.525731112119
0.273266528913 0.0 0.961938357784
0.433888564553 -0.259891913008 0.862668480416
0.69378047756 -0.16062203564 0.702046444776
0.587785252292 -0.425325404176 0.688190960236
0.809016994375 -0.309016994375 0.5
0.425325404176 -0.688190960236 0.587785252292
0.688190960236 -0.587785252292 0.425325404176
0.5 -0.809016994375 0.309016994375
0.259891913008 -0.862668480416 0.433888564553
0.862668480416 -0.433888564553 0.259891913008
0.702046444776 -0.69378047756 0.16062203564
0.850650808352 -0.525731112119 0.0
-0.259891913008 -0.862668480416 0.433888564553
-0.425325404176 -0.688190960236 0.587785252292
-0.587785252292 -0.425325404176 0.688190960236
-0.69378047756 -0.16062203564 0.702046444776
0.891006524188 -0.238676930319 -0.386187385588
0.862668480416 -0.433888564553 -0.259891913008
0.925614793411 -0.353553390593 -0.135045378369
0.951056516295 -0.162459848116 -0.26286555606
0.961938357784 -0.273266528913 0.0
0.987688340595 -0.0822424652791 -0.133071104141
1.0 0.0 0.0
0.951056516295 0.162459848116 -0.26286555606
0.963861263467 0.0 -0.266404701135
0.891006524188 0.238676930319 -0.386187385588
0.987688340595 0.0822424652791 -0.133071104141
0.961938357784 0.273266528913 0.0
0.925614793411 0.353553390593 -0.135045378369
0.850650808352 0.525731112119 0.0
0.862668480416 0.433888564553 -0.259891913008
0.757935420048 0.453990499739 -0.468429850867
0.790569415042 0.572061402817 -0.218508012224
0.702046444776 0.69378047756 -0.16062203564
0.601500955008 0.707106781186 -0.37174803446
0.213022865649 0.792649229259 -0.571251659136
0.131200378813 0.864929335863 -0.484441642061
0.0810862934433 0.78384304242 -0.615642020874
0.0 0.850650808352 -0.525731112119
0.525731112119 0.850650808352 0.0
0.519258489728 0.840177885327 0.15643446504
0.5 0.809016994375 0.309016994375
0.26286555606 0.951056516295 -0.162459848116
0.399607051702 0.912982492932 -0.0823235800317
0.266404701135 0.963861263467 0.0
0.399607051702 0.912982492932 0.0823235800317
0.26286555606 0.951056516295 0.162459848116
0.133071104141 0.987688340595 -0.0822424652791
0.133071104141 0.987688340595 0.0822424652791
0.0 1.0 0.0
0.386187385588 0.891006524188 0.238676930319
0.264082750659 0.916244175191 -0.301258879093
0.131655371352 0.924304600611 -0.358228793487
0.132792476828 0.966392597402 -0.220117027473
0.0 0.961938357784 -0.273266528913
0.0 0.915043421233 -0.403355348617
0.0 0.990438881957 -0.137952242128
0.383613732685 0.843911474622 0.375038567478
0.264082750659 0.916244175191 0.301258879093
0.259891913008 0.862668480416 0.433888564553
0.132792476828 0.966392597402 0.220117027473
0.131655371352 0.924304600611 0.358228793487
0.0 0.961938357784 0.273266528913
0.0 0.990438881957 0.137952242128
0.131200378813 0.864929335863 0.484441642061
0.0 0.915043421233 0.403355348617
0.0 0.850650808352 0.525731112119
-0.131200378813 0.864929335863 0.484441642061
-0.131655371352 0.924304600611 0.358228793487
-0.132792476828 0.966392597402 0.220117027473
-0.264082750659 0.916244175191 0.301258879093
-0.133071104141 0.987688340595 0.0822424652791
-0.133071104141 0.987688340595 -0.0822424652791
-0.266404701135 0.963861263467 0.0
-0.132792476828 0.966392597402 -0.220117027473
-0.131655371352 0.924304600611 -0.358228793487
-0.264082750659 0.916244175191 -0.301258879093
-0.131200378813 0.864929335863 -0.484441642061
-0.0810862934433 0.78384304242 0.615642020874
-0.213022865649 0.792649229259 0.571251659136
-0.707106781186 0.37174803446 0.601500955008
-0.453990499739 0.468429850867 0.757935420048
-0.433888564553 0.259891913008 0.862668480416
-0.572061402817 0.218508012224 0.790569415042
-0.69378047756 0.16062203564 0.702046444776
0.0810862934433 0.78384304242 0.615642020874
0.0 0.711281734962 0.702907030488
-0.238676930319 0.386187385588 0.891006524188
-0.0822424652791 0.133071104141 0.987688340595
-0.353553390593 0.135045378369 0.925614793411
0.238676930319 -0.386187385588 -0.891006524188
0.433888564553 -0.259891913008 -0.862668480416
0.353553390593 -0.135045378369 -0.925614793411
0.273266528913 0.0 -0.961938357784
0.0822424652791 -0.133071104141 -0.987688340595
0.0 -0.711281734962 -0.702907030488
0.0810862934433 -0.78384304242 -0.615642020874
-0.0810862934433 -0.78384304242 -0.615642020874
0.0 -0.850650808352 -0.525731112119
0.987688340595 -0.0822424652791 0.133071104141
0.925614793411 -0.353553390593 0.135045378369
0.951056516295 -0.162459848116 0.26286555606
0.891006524188 -0.238676930319 0.386187385588
0.987688340595 0.0822424652791 0.133071104141
0.963861263467 0.0 0.266404701135
0.951056516295 0.162459848116 0.26286555606
0.912982492932 0.0823235800317 0.399607051702
0.912982492932 -0.0823235800317 0.399607051702
0.850650808352 0.0 0.525731112119
0.891006524188 0.238676930319 0.386187385588
0.840177885327 0.15643446504 0.519258489728
0.809016994375 0.309016994375 0.5
0.840177885327 -0.15643446504 0.519258489728
0.862668480416 0.433888564553 0.259891913008
0.925614793411 0.353553390593 0.135045378369
0.707106781187 0.0 0.707106781187
0.69378047756 0.16062203564 0.702046444776
0.601500955008 0.707106781186 0.37174803446
0.688190960236 0.587785252292 0.425325404176
0.468429850867 0.757935420048 0.453990499739
0.564254211766 0.646577791798 0.51337544123
0.707106781186 0.37174803446 0.601500955008
0.346153014789 0.783451698363 0.516121620051
0.213022865649 0.792649229259 0.571251659136
0.296004592578 0.702309846744 0.647411893882
0.572061402817 0.218508012224 0.790569415042
-0.0810862934433 0.78384304242 -0.615642020874
-0.213022865649 0.792649229259 -0.571251659136
-0.131200378813 -0.864929335863 -0.484441642061
0.0 -0.961938357784 0.273266528913
-0.601500955008 -0.707106781186 0.37174803446
-0.757935420048 -0.453990499739 0.468429850867
-0.518332565981 -0.56541318032 0.641591214532
-0.840177885327 0.15643446504 0.519258489728
-0.707106781187 0.0 0.707106781187
-0.840177885327 -0.15643446504 0.519258489728
-0.213022865649 -0.792649229259 -0.571251659136
0.131200378813 -0.864929335863 -0.484441642061
0.519258489728 -0.840177885327 -0.15643446504
0.525731112119 -0.850650808352 0.0
0.399607051702 -0.912982492932 0.0823235800317
0.26286555606 -0.951056516295 0.162459848116
0.519258489728 -0.840177885327 0.15643446504
0.386187385588 -0.891006524188 0.238676930319
0.133071104141 -0.987688340595 0.0822424652791
0.707106781187 -0.707106781187 0.0
0.702046444776 -0.69378047756 -0.16062203564
0.135045378369 -0.925614793411 0.353553390593
0.757935420048 -0.453990499739 -0.468429850867
0.601500955008 -0.707106781186 -0.37174803446
0.790569415042 -0.572061402817 -0.218508012224
0.213022865649 -0.792649229259 -0.571251659136
0.0 0.711281734962 -0.702907030488

CELLS 514 2056
3 0 1 2
3 2 1 3
3 4 5 6
3 4 7 5
3 7 4 2
3 2 4 0
3 8 5 9
3 5 7 10
3 11 12 13
3 14 13 15
3 15 13 16
3 13 17 16
3 13 12 17
3 16 17 18
3 19 15 20
3 21 20 22
3 15 23 20
3 23 24 20
3 15 16 23
3 16 25 23
3 16 18 25
3 23 25 26
3 21 22 27
3 28 27 29
3 30 31 27
3 27 31 29
3 29 31 32
3 33 34 35
3 33 36 34
3 37 38 33
3 33 39 36
3 40 34 41
3 34 42 41
3 34 36 42
3 41 42 43
3 44 29 45
3 43 46 47
3 46 48 47
3 46 49 48
3 47 48 50
3 49 51 48
3 51 52 48
3 51 53 52
3 48 52 50
3 49 54 51
3 54 55 51
3 54 56 55
3 51 55 53
3 50 52 57
3 52 58 57
3 52 53 58
3 57 58 18
3 59 60 61
3 62 61 12
3 60 63 61
3 63 64 61
3 63 50 64
3 61 64 12
3 60 65 63
3 65 47 63
3 65 43 47
3 63 47 50
3 12 64 17
3 64 57 17
3 64 50 57
3 17 57 18
3 56 66 67
3 66 68 67
3 66 69 68
3 67 68 70
3 69 71 68
3 71 72 68
3 71 73 72
3 68 72 70
3 69 74 71
3 74 75 71
3 71 75 73
3 56 67 76
3 67 77 76
3 78 79 80
3 78 53 79
3 26 25 78
3 25 58 78
3 25 18 58
3 78 58 53
3 81 79 76
3 79 55 76
3 79 53 55
3 76 55 56
3 43 42 46
3 42 82 46
3 42 36 82
3 46 82 49
3 36 83 82
3 83 84 82
3 83 69 84
3 82 84 49
3 36 39 83
3 83 74 69
3 49 84 54
3 84 66 54
3 84 69 66
3 54 66 56
3 85 86 75
3 85 87 86
3 75 86 73
3 3 88 2
3 89 90 88
3 88 90 37
3 37 90 38
3 90 87 85
3 2 91 7
3 40 92 91
3 92 93 91
3 92 60 93
3 91 93 7
3 40 41 92
3 41 65 92
3 41 43 65
3 92 65 60
3 7 93 10
3 93 60 59
3 94 95 96
3 95 97 96
3 95 98 97
3 96 97 99
3 98 100 97
3 100 101 97
3 100 102 101
3 97 101 99
3 98 103 100
3 103 104 100
3 103 105 104
3 100 104 102
3 99 101 106
3 101 107 106
3 101 102 107
3 106 107 32
3 32 107 108
3 107 109 108
3 107 102 109
3 108 109 110
3 102 111 109
3 111 112 109
3 111 113 112
3 109 112 110
3 102 104 111
3 104 114 111
3 104 105 114
3 111 114 113
3 110 112 115
3 112 116 115
3 112 113 116
3 115 116 117
3 70 118 119
3 118 103 119
3 118 105 103
3 119 103 98
3 81 120 121
3 120 95 121
3 120 98 95
3 121 95 94
3 3 122 123
3 122 124 123
3 122 125 124
3 123 124 117
3 117 124 126
3 124 127 126
3 124 125 127
3 126 127 128
3 125 122 1
3 1 122 3
3 129 130 1
3 1 130 125
3 0 131 1
3 1 131 129
3 125 130 127
3 130 132 127
3 130 129 132
3 127 132 128
3 128 132 133
3 132 134 133
3 132 129 134
3 133 134 135
3 129 131 134
3 131 136 134
3 131 0 136
3 134 136 135
3 0 137 136
3 137 138 136
3 137 6 138
3 136 138 135
3 135 138 139
3 138 140 139
3 138 6 140
3 139 140 8
3 6 137 4
3 4 137 0
3 8 140 5
3 5 140 6
3 10 141 5
3 5 141 9
3 9 141 142
3 141 143 142
3 141 10 143
3 142 143 144
3 135 139 145
3 145 139 8
3 145 146 135
3 135 146 147
3 148 149 8
3 8 149 145
3 148 150 149
3 150 151 149
3 150 152 151
3 149 151 145
3 148 153 150
3 153 154 150
3 153 155 154
3 150 154 152
3 145 151 146
3 151 156 146
3 151 152 156
3 146 156 147
3 9 157 8
3 8 157 148
3 9 158 157
3 158 159 157
3 158 160 159
3 157 159 148
3 9 142 158
3 142 161 158
3 142 144 161
3 158 161 160
3 148 159 153
3 159 162 153
3 159 160 162
3 153 162 155
3 147 156 163
3 156 164 163
3 156 152 164
3 163 164 165
3 152 166 164
3 166 167 164
3 166 168 167
3 164 167 165
3 152 154 166
3 154 169 166
3 154 155 169
3 166 169 168
3 165 167 170
3 167 171 170
3 167 168 171
3 170 171 172
3 172 171 173
3 171 174 173
3 171 168 174
3 173 174 19
3 168 175 174
3 175 176 174
3 175 14 176
3 174 176 19
3 168 169 175
3 169 177 175
3 169 155 177
3 175 177 14
3 19 176 15
3 176 14 15
3 155 178 177
3 178 179 177
3 178 11 179
3 177 179 14
3 14 179 13
3 13 179 11
3 155 162 178
3 162 180 178
3 162 160 180
3 178 180 11
3 160 181 180
3 181 182 180
3 181 62 182
3 180 182 11
3 160 161 181
3 161 183 181
3 161 144 183
3 181 183 62
3 11 182 12
3 182 62 12
3 172 173 184
3 173 185 184
3 173 19 185
3 184 185 21
3 21 185 20
3 20 185 19
3 26 186 23
3 23 186 24
3 24 187 20
3 20 187 22
3 22 187 188
3 187 189 188
3 187 24 189
3 188 189 94
3 24 186 189
3 186 190 189
3 186 26 190
3 189 190 94
3 172 184 191
3 184 192 191
3 184 21 192
3 191 192 28
3 28 192 27
3 27 192 21
3 22 193 27
3 193 30 27
3 30 194 31
3 194 99 31
3 99 194 96
3 194 195 96
3 194 30 195
3 96 195 94
3 94 195 188
3 195 193 188
3 195 30 193
3 188 193 22
3 99 106 31
3 31 106 32
3 37 196 197
3 196 198 197
3 196 35 198
3 197 198 2
3 2 198 199
3 198 200 199
3 198 35 200
3 199 200 40
3 35 196 33
3 33 196 37
3 40 200 34
3 34 200 35
3 38 201 33
3 201 39 33
3 38 202 201
3 202 203 201
3 202 204 203
3 201 203 39
3 128 205 126
3 205 206 126
3 205 207 206
3 126 206 117
3 117 206 115
3 206 208 115
3 206 207 208
3 115 208 110
3 128 209 205
3 209 210 205
3 209 211 210
3 205 210 207
3 211 212 210
3 212 213 210
3 212 214 213
3 210 213 207
3 211 215 212
3 215 216 212
3 215 217 216
3 212 216 214
3 207 213 208
3 213 218 208
3 213 214 218
3 208 218 110
3 217 215 219
3 215 220 219
3 215 211 220
3 219 220 135
3 135 220 133
3 220 209 133
3 220 211 209
3 133 209 128
3 110 218 108
3 218 221 108
3 218 214 221
3 108 221 32
3 214 216 221
3 216 222 221
3 216 217 222
3 221 222 32
3 147 223 135
3 223 224 135
3 217 219 224
3 224 219 135
3 147 225 223
3 225 226 223
3 225 44 226
3 223 226 224
3 224 226 45
3 45 226 44
3 45 227 224
3 224 227 217
3 147 163 225
3 163 228 225
3 163 165 228
3 225 228 44
3 165 229 228
3 229 230 228
3 229 28 230
3 228 230 44
3 165 170 229
3 170 191 229
3 170 172 191
3 229 191 28
3 44 230 29
3 230 28 29
3 217 227 222
3 227 231 222
3 227 45 231
3 222 231 32
3 32 231 29
3 29 231 45
3 144 232 183
3 232 233 183
3 232 59 233
3 183 233 62
3 62 233 61
3 61 233 59
3 74 234 75
3 234 204 75
3 105 118 72
3 72 118 70
3 73 235 72
3 72 235 105
3 70 236 67
3 67 236 77
3 77 237 76
3 76 237 81
3 81 237 120
3 237 238 120
3 237 77 238
3 120 238 98
3 98 238 119
3 238 236 119
3 238 77 236
3 119 236 70
3 26 239 190
3 239 240 190
3 239 80 240
3 190 240 94
3 94 240 121
3 240 241 121
3 240 80 241
3 121 241 81
3 80 239 78
3 78 239 26
3 81 241 79
3 79 241 80
3 39 242 83
3 242 74 83
3 39 203 242
3 203 234 242
3 203 204 234
3 242 234 74
3 204 243 75
3 243 85 75
3 87 244 86
3 244 245 86
3 245 246 86
3 246 247 86
3 245 248 246
3 248 249 246
3 248 113 249
3 246 249 247
3 247 250 86
3 86 250 73
3 113 248 116
3 248 251 116
3 248 245 251
3 116 251 117
3 117 251 252
3 251 244 252
3 251 245 244
3 252 244 87
3 73 250 235
3 250 253 235
3 250 247 253
3 235 253 105
3 247 249 253
3 249 114 253
3 249 113 114
3 253 114 105
3 37 197 88
3 88 197 2
3 3 254 88
3 254 89 88
3 89 255 90
3 255 87 90
3 87 255 252
3 255 256 252
3 255 89 256
3 252 256 117
3 117 256 123
3 256 254 123
3 256 89 254
3 123 254 3
3 85 257 90
3 90 257 38
3 38 257 202
3 257 243 202
3 257 85 243
3 202 243 204
3 2 199 91
3 91 199 40
3 59 258 93
3 93 258 10
3 10 258 143
3 258 232 143
3 258 59 232
3 143 232 144

CELL_TYPES 514
5
5
5
5
5
5
5
5
5
5
5
5
5
5
5
5
5
5
5
5
5
5
5
5
5
5
5
5
5
5
5
5
5
5
5
5
5
5
5
5
5
5
5
5
5
5
5
5
5
5
5
5
5
5
5
5
5
5
5
5
5
5
5
5
5
5
5
5
5
5
5
5
5
5
5
5
5
5
5
5
5
5
5
5
5
5
5
5
5
5
5
5
5
5
5
5
5
5
5
5
5
5
5
5
5
5
5
5
5
5
5
5
5
5
5
5
5
5
5
5
5
5
5
5
5
5
5
5
5
5
5
5
5
5
5
5
5
5
5
5
5
5
5
5
5
5
5
5
5
5
5
5
5
5
5
5
5
5
5
5
5
5
5
5
5
5
5
5
5
5
5
5
5
5
5
5
5
5
5
5
5
5
5
5
5
5
5
5
5
5
5
5
5
5
5
5
5
5
5
5
5
5
5
5
5
5
5
5
5
5
5
5
5
5
5
5
5
5
5
5
5
5
5
5
5
5
5
5
5
5
5
5
5
5
5
5
5
5
5
5
5
5
5
5
5
5
5
5
5
5
5
5
5
5
5
5
5
5
5
5
5
5
5
5
5
5
5
5
5
5
5
5
5
5
5
5
5
5
5
5
5
5
5
5
5
5
5
5
5
5
5
5
5
5
5
5
5
5
5
5
5
5
5
5
5
5
5
5
5
5
5
5
5
5
5
5
5
5
5
5
5
5
5
5
5
5
5
5
5
5
5
5
5
5
5
5
5
5
5
5
5
5
5
5
5
5
5
5
5
5
5
5
5
5
5
5
5
5
5
5
5
5
5
5
5
5
5
5
5
5
5
5
5
5
5
5
5
5
5
5
5
5
5
5
5
5
5
5
5
5
5
5
5
5
5
5
5
5
5
5
5
5
5
5
5
5
5
5
5
5
5
5
5
5
5
5
5
5
5
5
5
5
5
5
5
5
5
5
5
5
5
5
5
5
5
5
5
5
5
5
5
5
5
5
5
5
5
5
5
5
5
5
5
5
5
5
5
5
5
5
5
5
5
5
5
5
5
5
5
5
5
5
5
5
5
5
5
5
5
5
5
5
5
5
5
5
5
5
5
5
5
5
5
5
5
5
5
5
5
5
5
5
5
5
5
5
5
5
5
5
5
5
5
5

CELL_DATA 514
SCALARS cell_data_0 double
LOOKUP_TABLE default
1.75301512224e-06
1.68902208083e-06
3.53459250576e-07
6.79861575123e-09
1.65624853392e-06
1.73322794365e-06
6.45402434531e-08
3.552037899e-08
2.99781497572e-07
4.56397398853e-07
4.13469301262e-08
1.25536435122e-07
3.63500304001e-08
7.41109559754e-08
1.29238856567e-07
4.24013420535e-08
2.43119276792e-07
3.27221375271e-07
9.34597830385e-09
1.33959904326e-08
1.03105638862e-08
4.0848507847e-08
6.98595306992e-08
1.35021299578e-08
3.20749650415e-07
1.37716183126e-07
2.04680992695e-06
2.67092383941e-07
8.45993549059e-08
1.57141044709e-07
8.65044993904e-08
9.82165049399e-08
6.74414793928e-08
1.91795324832e-07
2.3147026402e-08
8.42001016016e-08
5.0350396889e-08
3.42382262539e-08
4.22677521337e-08
8.44542792169e-08
3.44669947307e-08
1.3765079662e-07
5.14082815833e-08
1.80537890531e-07
2.31564150723e-07
2.20787341681e-07
4.05862884201e-08
2.53557233134e-07
9.61384403377e-08
7.11548192827e-09
4.18842065014e-08
1.83120814168e-08
3.72428027847e-08
3.66863399236e-08
1.61321467298e-07
1.71344066257e-07
1.08146044601e-07
3.1965121575e-08
2.21294104686e-08
1.93363569358e-08
5.40181072729e-08
9.4569104592e-08
5.92785539657e-08
3.74044773355e-08
1.45870992626e-07
9.42906231679e-08
8.82181234305e-08
5.05461207535e-08
8.07169375976e-08
4.11086666224e-08
9.98667748015e-08
1.49088354725e-07
2.72144756455e-07
1.84537909196e-07
7.23177014395e-09
2.97884884487e-08
3.37631909406e-08
1.41037678527e-07
2.34089143148e-07
3.67328208652e-07
1.01691776455e-07
3.56890115619e-08
3.63723274407e-08
4.40881860184e-08
1.06623734359e-07
1.73172276196e-07
3.0789356132e-08
1.32473849923e-07
8.84215772309e-08
4.9818357808e-08
5.1403989214e-08
2.82934275567e-07
1.23251672575e-07
1.22853754029e-07
1.17704700043e-07
1.32892805304e-07
7.94979586232e-08
1.81380745756e-07
1.63774184508e-08
1.11352330131e-07
3.36374675698e-08
6.51935836689e-10
8.21527712273e-08
5.98291015962e-08
8.24253168192e-08
3.09739920423e-08
1.90123776466e-06
2.98028337826e-07
1.40380350907e-07
2.40107302427e-07
1.04630870496e-07
1.89675665944e-06
4.33842447642e-07
6.20168595074e-07
5.54369493601e-07
1.1699271473e-07
2.50273473227e-07
3.21107158217e-07
3.21991677269e-08
1.8726026003e-07
1.31320026257e-07
1.65113588742e-07
1.66224306594e-07
2.34577265406e-07
8.55376891839e-08
1.54871494049e-07
4.31346769371e-07
5.89180364788e-07
4.98080983246e-07
3.73533781655e-07
1.57892287345e-07
4.31146909676e-07
1.64132025833e-08
3.31340355445e-07
2.47801154314e-07
4.33132497599e-07
1.995559129e-07
1.25191705784e-07
1.68451324461e-07
4.16792850104e-07
2.41563232323e-07
2.96515223701e-07
9.31173343214e-09
1.86854466212e-07
1.59882230052e-07
5.42777498003e-07
1.21127462977e-07
1.39610490309e-07
2.22926881868e-07
6.24919861387e-08
3.55971013949e-07
4.81959410058e-07
4.20946872408e-07
3.73724045517e-07
3.72413700014e-07
4.13324947809e-07
9.39638898937e-08
2.5065223558e-07
4.62413261234e-07
4.81090995062e-07
2.59030053246e-07
2.82399983335e-07
1.27526607731e-07
1.37570025422e-07
1.09049215079e-07
2.33550474069e-07
3.21718700167e-07
2.76730684515e-07
1.17166092765e-07
2.18358730975e-07
2.56759139579e-08
1.74651830978e-07
7.08227089539e-08
6.38295631368e-08
1.61434621787e-07
2.65755093774e-08
1.13377040553e-07
8.12108942568e-09
5.21788109611e-08
8.9043226082e-08
5.15571293921e-08
1.48067628709e-07
1.18840116156e-07
2.36842570909e-08
3.08687523187e-08
1.22880224914e-07
4.38175059622e-09
7.72845744043e-09
9.86118259673e-09
1.86281374808e-07
9.11298692198e-08
8.32087483973e-08
1.1722807532e-08
1.9329836139e-07
1.13652672007e-07
2.20290071487e-08
4.02138773698e-08
1.83922183871e-07
1.84666259223e-08
2.91114536183e-08
3.53335662093e-08
6.29599853156e-08
7.64409271598e-08
7.40088681057e-09
6.87072285262e-08
1.92240071257e-07
5.33074887347e-07
1.52941221654e-07
8.00001689072e-07
1.22129189103e-06
4.73179955641e-08
2.05113079873e-08
6.90086880877e-08
2.48341031597e-08
5.76144574096e-08
6.43893425385e-08
5.32010734785e-08
9.73693177968e-09
2.17581749488e-08
5.82698630446e-08
1.50735722589e-07
1.57311454735e-08
4.7013315321e-08
1.56842718175e-07
9.23663769542e-08
5.22413274812e-09
7.52879468781e-08
1.11643836631e-09
3.84681544269e-08
7.33150327193e-08
6.54267580599e-08
8.2191037148e-09
1.91463087537e-07
4.45546501994e-08
4.9594453444e-08
1.06909808138e-08
3.43513551278e-08
2.89715721585e-08
5.73443713973e-08
1.44569864936e-08
5.16505455736e-08
2.9253014726e-08
3.03986958728e-08
3.10842008872e-08
1.60233527196e-08
1.81356792249e-08
4.50158639298e-08
1.83621477956e-08
3.10567075748e-08
1.86128712786e-08
2.64976714236e-08
2.31233870689e-08
1.7826464706e-08
5.05046897326e-08
5.02033495512e-08
2.42636563912e-08
1.6464244475e-08
2.83554398111e-08
2.00460432843e-08
2.66025156739e-08
5.0474743374e-08
3.73818323176e-08
2.34988140831e-08
2.85559530396e-08
1.78131596185e-08
2.60707145414e-08
3.04301450581e-09
4.15257776571e-08
1.71362627341e-08
1.32270273252e-08
7.51071217204e-08
5.50900072017e-08
5.94860449947e-08
6.57882006512e-08
4.13613766665e-08
1.66678831082e-08
5.49975304289e-08
6.89163935745e-08
7.27199265524e-08
5.64150497924e-08
1.05964892534e-07
1.02504902943e-07
5.7669584583e-08
8.41995571568e-09
1.76503553857e-07
5.94218940969e-08
8.47132059869e-08
1.45326606155e-07
5.7322003307e-08
1.99140515924e-09
6.5714331996e-08
8.30587188163e-08
1.16444248775e-07
7.77519169316e-08
2.27801883114e-08
1.8236670381e-08
5.49809397691e-08
4.96284815117e-08
1.28868417981e-08
9.65480979279e-08
1.30649932625e-08
2.73152315417e-08
5.3287711532e-08
1.96772590195e-07
8.18319060204e-08
8.83275491169e-08
5.13696106603e-08
1.02245261377e-09
8.56197286111e-08
7.47255991663e-08
9.01974971031e-08
1.06347071173e-07
2.68711189837e-08
4.1723440566e-08
4.42485612174e-09
2.46248405494e-08
5.42760525321e-08
1.04429827556e-07
7.93395689313e-08
3.51441026041e-08
3.27701665421e-08
1.52139736718e-07
7.8847743406e-08
3.67842719944e-08
9.14770600969e-08
3.12120567594e-07
1.97554606492e-07
1.78040310798e-08
1.18793617862e-07
2.79438304799e-07
2.87682145312e-07
3.37723659411e-08
9.40002659655e-08
4.948306957e-08
9.37409115265e-08
1.78406507086e-07
7.47935550187e-09
7.23250162277e-08
9.35268837581e-08
7.73073835626e-08
8.90590619799e-08
3.31248761157e-08
1.16528524906e-07
1.09373004135e-07
1.50496631042e-07
5.94966608928e-08
5.88199496769e-08
1.72911370663e-07
1.04347085363e-08
8.32246710122e-08
9.62005291087e-09
7.06435702028e-09
9.48888872961e-08
1.27331674057e-08
9.64752533125e-08
8.51484959749e-08
1.00171328554e-07
5.34003915317e-08
7.36635952139e-08
8.61290167476e-08
1.21360600476e-07
4.98263722506e-08
1.88812235225e-07
8.5050969975e-08
1.08029388484e-07
2.53268756233e-08
6.49059614176e-08
1.08843755225e-07
1.46259278454e-07
5.49246064106e-08
1.03608269787e-07
2.14138357857e-07
1.57266406292e-07
5.87645578585e-08
8.8062560899e-08
1.66792757924e-08
2.29737139626e-09
3.47300226335e-08
5.08576818068e-08
2.20074122062e-07
4.41505913299e-08
9.93060632185e-08
1.68524860368e-08
5.54287221042e-08
1.28530226542e-06
8.04806715124e-07
1.34346682965e-07
4.99576839419e-07
1.44633268525e-07
1.20684834675e-08
9.9468840918e-08
1.88310071303e-07
1.51071622411e-08
3.31325053009e-08
3.09265461728e-08
1.97987553417e-07
5.95002669482e-08
3.26763852369e-08
9.28260669763e-09
4.21431053863e-08
3.42658229578e-08
1.26818109409e-08
8.56163832036e-08
4.13941824318e-08
6.2815995647e-08
1.40566629989e-08
5.30597647849e-08
7.11356663838e-08
5.88747789921e-08
9.45739783344e-08
2.26473609441e-08
2.20042864233e-07
4.03365327795e-08
5.16970500004e-08
9.30784943502e-07
1.25706036367e-07
1.70944684858e-07
2.09350014265e-08
8.26731215823e-08
8.94161723205e-08
1.34766753325e-07
1.01810079889e-07
3.27323435163e-08
2.01597868597e-07
3.48958424509e-07
1.00821013048e-07
1.42140222657e-07
4.00852548961e-07
1.59471958697e-07
1.516246669e-07
4.88456578927e-08
6.8778944185e-08
1.07587899368e-07
1.81985337089e-07
1.02127507069e-07
6.39926979401e-08
5.4213768264e-08
1.29253196425e-07
5.54046564611e-08
6.93758901325e-08
6.58692541671e-08
1.99708135808e-07
8.70459205394e-08
1.09044088116e-07
3.91478547409e-08
1.61097470342e-07
9.41946257368e-08
4.02682689771e-09
7.36184220742e-09
4.53784050481e-08
1.10036320505e-08
4.4598195476e-08
1.12516299104e-07
1.04092099395e-07
1.00513477572e-07
4.38627584067e-08
1.50611004517e-07
1.12087330537e-07
2.40494280273e-07
6.60446921114e-08
1.45685107108e-08
3.79848377766e-08
1.13364453966e-08
4.66657086144e-08
1.22759852588e-07
2.36938097721e-08
4.14389844236e-08
1.09944605401e-07
5.68630082959e-08
6.78001900079e-09
6.67225241253e-08
6.39043560842e-08
3.64931199879e-08
7.3594482498e-08
3.76343992414e-08
4.83458447432e-08
2.00409549434e-08
2.67394467617e-08
2.98419774358e-08
5.64690608336e-08
2.2383280007e-08
2.15113018939e-07
7.46245724902e-08
1.35301018476e-07
1.12045891063e-07
1.02502350623e-07
1.96081682969e-07
1.80910368702e-07
1.37052679774e-07
2.52249141655e-08
2.08297640479e-08
2.95575963804e-08
2.63982901344e-08
3.17721335215e-08
4.39934289907e-08
5.91568308095e-08
1.42973550013e-07
6.36818702922e-09
1.6213155268e-08
7.10560022353e-08
1.00550922345e-08
2.85756908154e-08
4.98681896093e-08
6.12440400459e-09
9.7101970857e-08
1.44689614062e-07
1.77381427083e-07
4.12926492696e-08
3.80095075183e-08
1.79844446064e-08
6.64667969262e-08
2.15056761185e-09
4.91997979604e-08
1.83983295833e-07

