# vtk DataFile Version 3.0
File Name: Molecule/sphere_cent/sphere_cent_0-s0.vtk
ASCII
DATASET UNSTRUCTURED_GRID
FIELD FieldData 1
TIME 1 1 double
0.0
POINTS 12 double
1.7013016167 -1.05146222424 0.0
1.05146222424 0.0 -1.7013016167
1.7013016167 1.05146222424 0.0
0.0 1.7013016167 -1.05146222424
0.0 1.7013016167 1.05146222424
-1.7013016167 1.05146222424 0.0
-1.05146222424 0.0 1.7013016167
1.05146222424 0.0 1.7013016167
0.0 -1.7013016167 1.05146222424
0.0 -1.7013016167 -1.05146222424
-1.05146222424 0.0 -1.7013016167
-1.7013016167 -1.05146222424 0.0

CELLS 20 80
3 0 1 2
3 2 1 3
3 2 3 4
3 4 3 5
3 4 5 6
3 4 6 7
3 6 8 7
3 7 8 0
3 1 9 10
3 0 2 7
3 2 4 7
3 10 11 5
3 3 10 5
3 11 9 8
3 11 8 6
3 6 5 11
3 10 9 11
3 9 0 8
3 1 0 9
3 1 10 3

CELL_TYPES 20
5
5
5
5
5
5
5
5
5
5
5
5
5
5
5
5
5
5
5
5

CELL_DATA 20
SCALARS cell_data_0 double
LOOKUP_TABLE default
7.19219063645e-13
2.43563632804e-12
1.70028270977e-12
9.49093256243e-12
1.02878263634e-11
1.22373888366e-12
4.82144456738e-12
8.77570802485e-12
3.70526081605e-12
8.49978431822e-12
4.41082283545e-12
1.22752795342e-12
4.75552247321e-12
5.25953683817e-12
4.69590393046e-12
3.37066995409e-12
3.94976358477e-12
2.4313415864e-12
4.34919559134e-12
3.47199981439e-12

