# vtk DataFile Version 3.0
File Name: Molecule/sphere_dip_C5/sphere_dip_C5_0-s3.vtk
ASCII
DATASET UNSTRUCTURED_GRID
FIELD FieldData 1
TIME 1 1 double
0.0
POINTS 642 double
0.850650808352 -0.525731112119 0.0
0.864929335863 -0.484441642061 -0.131200378813
0.915043421233 -0.403355348617 0.0
0.924304600611 -0.358228793487 -0.131655371352
0.862668480416 -0.433888564553 -0.259891913008
0.961938357784 -0.273266528913 0.0
0.916244175191 -0.301258879093 -0.264082750659
0.966392597402 -0.220117027473 -0.132792476828
0.951056516295 -0.162459848116 -0.26286555606
0.843911474622 -0.375038567478 -0.383613732685
0.891006524188 -0.238676930319 -0.386187385588
0.809016994375 -0.309016994375 -0.5
0.990438881957 -0.137952242128 0.0
0.987688340595 -0.0822424652791 -0.133071104141
1.0 0.0 0.0
0.840177885327 -0.15643446504 -0.519258489728
0.912982492932 -0.0823235800317 -0.399607051702
0.850650808352 0.0 -0.525731112119
0.912982492932 0.0823235800317 -0.399607051702
0.963861263467 0.0 -0.266404701135
0.951056516295 0.162459848116 -0.26286555606
0.840177885327 0.15643446504 -0.519258489728
0.891006524188 0.238676930319 -0.386187385588
0.809016994375 0.309016994375 -0.5
0.987688340595 0.0822424652791 -0.133071104141
0.758652300163 -0.237086325351 -0.606825149272
0.78020437071 -0.08114185162 -0.620239582613
0.69378047756 -0.16062203564 -0.702046444776
0.702907030488 0.0 -0.711281734962
0.78020437071 0.08114185162 -0.620239582613
0.69378047756 0.16062203564 -0.702046444776
0.615642020874 -0.0810862934433 -0.78384304242
0.615642020874 0.0810862934433 -0.78384304242
0.525731112119 0.0 -0.850650808352
0.758652300163 0.237086325351 -0.606825149272
0.990438881957 0.137952242128 0.0
0.966392597402 0.220117027473 -0.132792476828
0.961938357784 0.273266528913 0.0
0.916244175191 0.301258879093 -0.264082750659
0.924304600611 0.358228793487 -0.131655371352
0.862668480416 0.433888564553 -0.259891913008
0.843911474622 0.375038567478 -0.383613732685
0.915043421233 0.403355348617 0.0
0.864929335863 0.484441642061 -0.131200378813
0.850650808352 0.525731112119 0.0
0.78384304242 0.615642020874 -0.0810862934433
0.792649229259 0.571251659136 -0.213022865649
0.702046444776 0.69378047756 -0.16062203564
0.783451698363 0.516121620051 -0.346153014789
0.702309846744 0.647411893882 -0.296004592578
0.688190960236 0.587785252292 -0.425325404176
0.757935420048 0.453990499739 -0.468429850867
0.606825149272 0.758652300163 -0.237086325351
0.601500955008 0.707106781186 -0.37174803446
0.5 0.809016994375 -0.309016994375
0.707106781186 0.37174803446 -0.601500955008
0.646577791798 0.51337544123 -0.564254211766
0.587785252292 0.425325404176 -0.688190960236
0.51337544123 0.564254211766 -0.646577791798
0.564254211766 0.646577791798 -0.51337544123
0.425325404176 0.688190960236 -0.587785252292
0.453990499739 0.468429850867 -0.757935420048
0.37174803446 0.601500955008 -0.707106781186
0.309016994375 0.5 -0.809016994375
0.468429850867 0.757935420048 -0.453990499739
0.647411893882 0.296004592578 -0.702309846744
0.571251659136 0.213022865649 -0.792649229259
0.516121620051 0.346153014789 -0.783451698363
0.433888564553 0.259891913008 -0.862668480416
0.484441642061 0.131200378813 -0.864929335863
0.375038567478 0.383613732685 -0.843911474622
0.383613732685 0.843911474622 -0.375038567478
0.346153014789 0.783451698363 -0.516121620051
0.259891913008 0.862668480416 -0.433888564553
0.296004592578 0.702309846744 -0.647411893882
0.213022865649 0.792649229259 -0.571251659136
0.16062203564 0.702046444776 -0.69378047756
0.237086325351 0.606825149272 -0.758652300163
0.131200378813 0.864929335863 -0.484441642061
0.0810862934433 0.78384304242 -0.615642020874
0.0 0.850650808352 -0.525731112119
0.78384304242 0.615642020874 0.0810862934433
0.711281734962 0.702907030488 0.0
0.702046444776 0.69378047756 0.16062203564
0.620239582613 0.78020437071 -0.08114185162
0.620239582613 0.78020437071 0.08114185162
0.525731112119 0.850650808352 0.0
0.519258489728 0.840177885327 -0.15643446504
0.606825149272 0.758652300163 0.237086325351
0.519258489728 0.840177885327 0.15643446504
0.5 0.809016994375 0.309016994375
0.386187385588 0.891006524188 -0.238676930319
0.399607051702 0.912982492932 -0.0823235800317
0.26286555606 0.951056516295 -0.162459848116
0.266404701135 0.963861263467 0.0
0.399607051702 0.912982492932 0.0823235800317
0.26286555606 0.951056516295 0.162459848116
0.133071104141 0.987688340595 -0.0822424652791
0.133071104141 0.987688340595 0.0822424652791
0.0 1.0 0.0
0.386187385588 0.891006524188 0.238676930319
0.264082750659 0.916244175191 -0.301258879093
0.131655371352 0.924304600611 -0.358228793487
0.132792476828 0.966392597402 -0.220117027473
0.0 0.961938357784 -0.273266528913
0.0 0.915043421233 -0.403355348617
0.0 0.990438881957 -0.137952242128
0.383613732685 0.843911474622 0.375038567478
0.264082750659 0.916244175191 0.301258879093
0.259891913008 0.862668480416 0.433888564553
0.132792476828 0.966392597402 0.220117027473
0.131655371352 0.924304600611 0.358228793487
0.0 0.961938357784 0.273266528913
0.0 0.990438881957 0.137952242128
0.131200378813 0.864929335863 0.484441642061
0.0 0.915043421233 0.403355348617
0.0 0.850650808352 0.525731112119
-0.131200378813 0.864929335863 0.484441642061
-0.131655371352 0.924304600611 0.358228793487
-0.259891913008 0.862668480416 0.433888564553
-0.132792476828 0.966392597402 0.220117027473
-0.264082750659 0.916244175191 0.301258879093
-0.26286555606 0.951056516295 0.162459848116
-0.133071104141 0.987688340595 0.0822424652791
-0.383613732685 0.843911474622 0.375038567478
-0.386187385588 0.891006524188 0.238676930319
-0.5 0.809016994375 0.309016994375
-0.133071104141 0.987688340595 -0.0822424652791
-0.266404701135 0.963861263467 0.0
-0.26286555606 0.951056516295 -0.162459848116
-0.399607051702 0.912982492932 -0.0823235800317
-0.399607051702 0.912982492932 0.0823235800317
-0.525731112119 0.850650808352 0.0
-0.386187385588 0.891006524188 -0.238676930319
-0.519258489728 0.840177885327 -0.15643446504
-0.5 0.809016994375 -0.309016994375
-0.519258489728 0.840177885327 0.15643446504
-0.132792476828 0.966392597402 -0.220117027473
-0.131655371352 0.924304600611 -0.358228793487
-0.264082750659 0.916244175191 -0.301258879093
-0.259891913008 0.862668480416 -0.433888564553
-0.131200378813 0.864929335863 -0.484441642061
-0.383613732685 0.843911474622 -0.375038567478
-0.606825149272 0.758652300163 0.237086325351
-0.620239582613 0.78020437071 0.08114185162
-0.702046444776 0.69378047756 0.16062203564
-0.620239582613 0.78020437071 -0.08114185162
-0.711281734962 0.702907030488 0.0
-0.702046444776 0.69378047756 -0.16062203564
-0.606825149272 0.758652300163 -0.237086325351
-0.78384304242 0.615642020874 0.0810862934433
-0.78384304242 0.615642020874 -0.0810862934433
-0.850650808352 0.525731112119 0.0
-0.0810862934433 0.78384304242 0.615642020874
-0.213022865649 0.792649229259 0.571251659136
-0.16062203564 0.702046444776 0.69378047756
-0.346153014789 0.783451698363 0.516121620051
-0.296004592578 0.702309846744 0.647411893882
-0.425325404176 0.688190960236 0.587785252292
-0.468429850867 0.757935420048 0.453990499739
-0.237086325351 0.606825149272 0.758652300163
-0.37174803446 0.601500955008 0.707106781186
-0.309016994375 0.5 0.809016994375
-0.601500955008 0.707106781186 0.37174803446
-0.564254211766 0.646577791798 0.51337544123
-0.688190960236 0.587785252292 0.425325404176
-0.646577791798 0.51337544123 0.564254211766
-0.51337544123 0.564254211766 0.646577791798
-0.587785252292 0.425325404176 0.688190960236
-0.757935420048 0.453990499739 0.468429850867
-0.707106781186 0.37174803446 0.601500955008
-0.809016994375 0.309016994375 0.5
-0.453990499739 0.468429850867 0.757935420048
-0.702309846744 0.647411893882 0.296004592578
-0.792649229259 0.571251659136 0.213022865649
-0.783451698363 0.516121620051 0.346153014789
-0.862668480416 0.433888564553 0.259891913008
-0.864929335863 0.484441642061 0.131200378813
-0.843911474622 0.375038567478 0.383613732685
-0.375038567478 0.383613732685 0.843911474622
-0.516121620051 0.346153014789 0.783451698363
-0.433888564553 0.259891913008 0.862668480416
-0.647411893882 0.296004592578 0.702309846744
-0.571251659136 0.213022865649 0.792649229259
-0.69378047756 0.16062203564 0.702046444776
-0.758652300163 0.237086325351 0.606825149272
-0.484441642061 0.131200378813 0.864929335863
-0.615642020874 0.0810862934433 0.78384304242
-0.525731112119 0.0 0.850650808352
0.0810862934433 0.78384304242 0.615642020874
0.0 0.711281734962 0.702907030488
0.16062203564 0.702046444776 0.69378047756
-0.08114185162 0.620239582613 0.78020437071
0.08114185162 0.620239582613 0.78020437071
0.0 0.525731112119 0.850650808352
-0.15643446504 0.519258489728 0.840177885327
0.237086325351 0.606825149272 0.758652300163
0.15643446504 0.519258489728 0.840177885327
0.309016994375 0.5 0.809016994375
-0.238676930319 0.386187385588 0.891006524188
-0.0823235800317 0.399607051702 0.912982492932
-0.162459848116 0.26286555606 0.951056516295
0.0 0.266404701135 0.963861263467
0.0823235800317 0.399607051702 0.912982492932
0.162459848116 0.26286555606 0.951056516295
-0.0822424652791 0.133071104141 0.987688340595
0.0822424652791 0.133071104141 0.987688340595
0.0 0.0 1.0
0.238676930319 0.386187385588 0.891006524188
-0.301258879093 0.264082750659 0.916244175191
-0.358228793487 0.131655371352 0.924304600611
-0.220117027473 0.132792476828 0.966392597402
-0.273266528913 0.0 0.961938357784
-0.403355348617 0.0 0.915043421233
-0.137952242128 0.0 0.990438881957
0.375038567478 0.383613732685 0.843911474622
0.301258879093 0.264082750659 0.916244175191
0.433888564553 0.259891913008 0.862668480416
0.220117027473 0.132792476828 0.966392597402
0.358228793487 0.131655371352 0.924304600611
0.273266528913 0.0 0.961938357784
0.137952242128 0.0 0.990438881957
0.484441642061 0.131200378813 0.864929335863
0.403355348617 0.0 0.915043421233
0.525731112119 0.0 0.850650808352
-0.484441642061 -0.131200378813 0.864929335863
-0.358228793487 -0.131655371352 0.924304600611
-0.433888564553 -0.259891913008 0.862668480416
[...]
CELL_DATA 1280
SCALARS cell_data_0 double
LOOKUP_TABLE default
8.35404223335e-06
1.42396372853e-05
1.26568482954e-05
3.98907402103e-06
6.4972913021e-06
1.03728250993e-05
7.12624856055e-06
6.37950807801e-06
8.64670515389e-06
1.58036788151e-05
1.33194611961e-05
9.46201215671e-06
5.29221442488e-06
1.07292533639e-05
8.47782343467e-06
5.74016660841e-06
1.35279034149e-05
2.47058813916e-05
1.5517132567e-05
1.8581517813e-05
1.35373858539e-05
1.47041146678e-05
4.1919951299e-06
1.21094781955e-05
6.39209492878e-06
7.86907370438e-06
6.38055328396e-06
4.54068039508e-06
7.04799287485e-06
7.36749813358e-06
2.51501615685e-06
4.85796619022e-06
7.7771742878e-06
2.04334453644e-05
1.57580243438e-05
1.70096242524e-05
2.53227690729e-05
4.57209516496e-05
2.59164316607e-05
2.9560848836e-05
1.87110974306e-05
3.25253203355e-05
1.9582163386e-05
2.12091069171e-05
1.64153422741e-05
2.56944105938e-05
2.17109764476e-05
1.06912580879e-05
3.79910649522e-06
1.67757602763e-05
1.14443088353e-05
1.41392608733e-05
2.21375588415e-05
4.03909476231e-05
2.04118284024e-05
2.34958056876e-05
9.95927415985e-06
1.66027733727e-05
7.76412713164e-06
1.2993875701e-05
1.52509841648e-05
2.54298670148e-05
1.61219848219e-05
1.00894504267e-05
1.24986488267e-05
2.53798516763e-05
1.34239896529e-05
1.53756152497e-05
2.09868414489e-05
4.00677905268e-05
2.54784261837e-05
1.97551636477e-05
1.6155675581e-05
2.94029482767e-05
1.47582831777e-05
2.12192538428e-05
2.1821640767e-05
3.95883809795e-05
2.24413761798e-05
2.09154551294e-05
3.12521396689e-05
6.12874775799e-05
4.27291273217e-05
3.19750133863e-05
5.41444198827e-05
0.000105373814405
6.32450495885e-05
5.60990859848e-05
5.2192356748e-05
9.83275919528e-05
5.26504945013e-05
5.78783285986e-05
4.22022873632e-05
9.43709765935e-05
6.79607571654e-05
4.49046532622e-05
2.48010695931e-05
6.31229561407e-05
3.66504760378e-05
4.79355204725e-05
7.02547918298e-05
0.000106107991941
5.34190896724e-05
5.03899074242e-05
4.38390328983e-05
7.6274315245e-05
3.15894579388e-05
5.38797273754e-05
3.70036891335e-05
6.92983166545e-05
3.78429427148e-05
4.08981460697e-05
5.38733019095e-05
9.96810141559e-05
5.62849604832e-05
4.91524659406e-05
4.64189795007e-05
9.60942664217e-05
5.11454024591e-05
5.73271808931e-05
4.36375376831e-05
6.76982453004e-05
3.76563281462e-05
3.15358355496e-05
4.75400673159e-05
7.57285756591e-05
4.3340436129e-05
3.41574477399e-05
2.73798699904e-05
5.49251619133e-05
2.29954652079e-05
3.42878686963e-05
3.94695831772e-05
8.45798115969e-05
4.81352625023e-05
4.03562339072e-05
3.20117218486e-05
5.55250655456e-05
2.31773738798e-05
3.22851698264e-05
3.57246437889e-05
5.98872484266e-05
3.28562934402e-05
1.97394933388e-05
2.93597554456e-05
6.16386177097e-05
3.3997962644e-05
3.28233018336e-05
3.40745725947e-05
6.74719270878e-05
2.897687512e-05
3.82105260279e-05
3.87111103857e-05
7.87035345189e-05
4.84978167278e-05
3.19918120884e-05
2.75017567295e-05
4.85355418655e-05
2.43070368509e-05
1.78779106767e-05
3.62483221269e-05
6.38670812246e-05
3.91106321647e-05
2.64861907283e-05
2.57898776411e-05
6.67824887584e-05
3.71527013879e-05
4.28824582669e-05
2.72948922456e-05
4.76980982562e-05
3.19538067867e-05
2.05597851133e-05
4.98043397013e-05
8.42825236267e-05
4.28632312025e-05
3.76686302156e-05
1.34802222577e-05
3.62489151339e-05
1.87668446134e-05
1.54966946692e-05
3.07017398843e-05
6.47186635015e-05
3.43935687756e-05
2.44586326501e-05
3.57224650427e-05
5.96914275911e-05
2.68451049053e-05
2.54585712425e-05
1.94182355374e-05
3.75542035426e-05
1.84781483375e-05
1.10173464751e-05
2.03300358516e-05
3.52583048748e-05
8.04185425721e-06
1.79902902734e-05
8.74213659183e-06
1.77815778491e-05
7.54264775785e-06
4.48921700155e-06
1.27368168563e-05
2.42361842016e-05
1.30352163504e-05
8.64127713369e-06
4.80038585386e-06
1.50634484151e-05
5.25479615293e-06
7.11722379375e-06
9.43972271068e-06
1.73847647368e-05
7.74503364266e-06
7.37837401553e-06
6.74558129589e-06
1.83357218484e-05
8.84802276509e-06
9.23408205521e-06
2.59935737651e-05
5.79048936911e-05
4.88614782307e-05
1.82303130352e-05
9.11884523077e-06
3.51161312159e-05
2.2306752597e-05
1.87009312228e-05
1.78667835823e-05
3.7908939032e-05
2.76319814252e-05
1.42847316787e-05
2.40778018957e-05
4.70962081909e-05
2.47168396382e-05
2.45676732898e-05
2.22803310225e-05
3.93154436061e-05
2.31265699204e-05
1.99478719709e-05
3.43994128732e-05
5.54452372933e-05
2.12698907008e-05
3.28744631369e-05
1.5926863294e-05
3.0847834639e-05
1.9783926903e-05
8.50015359718e-06
1.10914977318e-05
2.16820641467e-05
1.05612671025e-05
9.75320622324e-06
1.87474894707e-05
3.45554434649e-05
2.42139647133e-05
1.27140315939e-05
5.67989681612e-06
1.36258263913e-05
8.23409635253e-06
6.03418216813e-06
1.04560714828e-05
1.86274670905e-05
1.40001153025e-05
4.80300003812e-06
5.45604176281e-07
2.77879031565e-06
3.59489901168e-06
4.7865190277e-06
2.47669324731e-06
7.50287270827e-06
3.23787605616e-06
2.3230716989e-06
7.89540355955e-06
5.73887621629e-06
6.69315756149e-06
1.07705765023e-05
1.03840006506e-06
2.68875331955e-08
3.90308844064e-06
5.00743445158e-06
6.31295768204e-06
5.08564282343e-06
9.4349719738e-06
7.39108473478e-06
3.7036146125e-06
4.95931628731e-07
2.39589323248e-06
7.92895517352e-06
8.77737587079e-06
8.21617696017e-06
1.04454439629e-05
1.3170841444e-05
2.44747948279e-06
5.61908284119e-06
2.32403330394e-06
1.73737269619e-06
1.06157109926e-07
2.56564680119e-06
6.95719821189e-07
2.13079250201e-06
2.38951424614e-06
6.2606836427e-06
3.29826441751e-06
2.64072591735e-07
1.33615367144e-06
1.67975295936e-06
2.14937744203e-06
1.77324605853e-06
1.31606842555e-05
1.18487315982e-05
1.07256471874e-05
1.47210805421e-05
1.1184725505e-05
1.16899431286e-05
1.15988863507e-05
1.4715795331e-05
8.12552494771e-06
5.9574871683e-06
5.35396028473e-06
9.16841260018e-06
1.51456803082e-05
1.3666253473e-05
1.20080569199e-05
1.44544593356e-05
7.28767248862e-06
9.50679953828e-06
9.81396450564e-06
1.10212770599e-05
1.2915892013e-05
1.39656106976e-05
1.51591252662e-05
1.29148027339e-05
1.19408639465e-05
1.41810256654e-05
1.41549834742e-05
1.53016732699e-05
1.28521299849e-05
1.45204277066e-05
1.52683240499e-05
1.45377793655e-05
1.94057177652e-05
2.13981876391e-05
2.34810610602e-05
2.03740619113e-05
2.65965686524e-05
2.55081574141e-05
2.6505281708e-05
2.27109714762e-05
2.72650755903e-05
2.80235225627e-05
2.92231828272e-05
2.72903639521e-05
2.02915647106e-05
2.1331926157e-05
2.34302578587e-05
1.93613837737e-05
1.60286276499e-05
1.80648375339e-05
1.72751786247e-05
1.96886626497e-05
1.92164255805e-05
2.14058405724e-05
2.24727587019e-05
2.20844883572e-05
1.74238996869e-05
1.857847273e-05
1.7024808803e-05
2.026554909e-05
2.27806714359e-05
2.35492492497e-05
2.32657623242e-05
2.44655576262e-05
1.61450901885e-05
1.79005999704e-05
1.96538271328e-05
1.72421979502e-05
2.20226884317e-05
2.14409731514e-05
2.24479166446e-05
1.93595390131e-05
2.28089562804e-05
2.35921625401e-05
2.45077191891e-05
2.31243042296e-05
1.75017083419e-05
1.84471826565e-05
2.01725136537e-05
1.70780548247e-05
1.71844982108e-05
1.85097055198e-05
1.73865261125e-05
2.02967204899e-05
1.9209189622e-05
2.13381158909e-05
2.18228224147e-05
2.24433788048e-05
1.70386997794e-05
1.77970102931e-05
1.60461557632e-05
1.95324895522e-05
2.31928278686e-05
2.36630365654e-05
2.26317500798e-05
2.46004143462e-05
1.92745587783e-05
2.1291496801e-05
2.03749552233e-05
2.33587203908e-05
2.30584573783e-05
2.55634801218e-05
2.67727346514e-05
2.64317525468e-05
2.04154203881e-05
2.13153434348e-05
1.93110653771e-05
2.35983340151e-05
2.71816683164e-05
2.8312417805e-05
2.75567671057e-05
2.94762279224e-05
1.44775395534e-05
1.44361740136e-05
1.23997131766e-05
1.51125216985e-05
1.23479053421e-05
1.38746441535e-05
1.26088917816e-05
1.49815356671e-05
9.39650221696e-06
9.11491189771e-06
6.81519119018e-06
1.00121562651e-05
1.50934247982e-05
1.40480711534e-05
1.19387236139e-05
1.4128211914e-05
2.45718824791e-05
2.46202927538e-05
2.34899629748e-05
2.37175267253e-05
2.22984632569e-05
2.18745974161e-05
1.91043985784e-05
2.28750584419e-05
1.9747638494e-05
1.78391907474e-05
1.6057523373e-05
1.6756946567e-05
2.04928336104e-05
1.85092725822e-05
1.69041760157e-05
1.69874298034e-05
1.43364543155e-05
1.29167842845e-05
1.45160704801e-05
1.11098894602e-05
1.38015557503e-05
9.87269967385e-06
9.35918112921e-06
9.9712642836e-06
1.43053919824e-05
1.22041645585e-05
1.35699570707e-05
1.01406737323e-05
6.86928072383e-06
3.59469076536e-06
6.44666859177e-06
4.98838234658e-06
1.34162207594e-05
9.79251398003e-06
8.5296209451e-06
1.10719785237e-05
8.47612333921e-06
7.80641664364e-06
5.70399332296e-06
9.76938412186e-06
6.07128488511e-06
4.41339274878e-06
4.78538976367e-06
4.51774166034e-06
7.46241562295e-06
3.85279010779e-06
4.04643230768e-06
5.59313274328e-06
1.13436750408e-05
6.48582122245e-06
8.38834328996e-06
4.95421690729e-06
4.87806020635e-06
2.88790396412e-06
5.63166669618e-07
1.11873003342e-06
6.48375952889e-06
2.3258738806e-07
3.10475821024e-06
6.55282098503e-07
1.73792385244e-06
3.2098624984e-06
1.92649693572e-06
1.77632434114e-06
4.74777408689e-08
3.54505019337e-06
2.2107084022e-06
3.2828540506e-06
1.7878112451e-06
1.06285438521e-08
9.25203573613e-08
6.52368030403e-07
2.09863657502e-06
8.09481288507e-08
2.35355548499e-06
4.35268072285e-07
9.71795851405e-07
3.70930895909e-06
1.91163150478e-06
1.78702272017e-06
9.62347395842e-06
1.5161277248e-05
1.23342204523e-05
1.10154390658e-05
1.61439543435e-05
2.02938033016e-05
1.32922739241e-05
1.23251315681e-05
1.74987318306e-05
2.50322513159e-05
1.53915973937e-05
1.55825004566e-05
1.59355564728e-05
2.34210407403e-05
1.2055923504e-05
1.56076869765e-05
1.46730742787e-05
2.35171043232e-05
1.29297356227e-05
1.68378561887e-05
1.63340174617e-05
2.81116526315e-05
1.96625611416e-05
1.76820891652e-05
2.16339916259e-05
3.83853093726e-05
2.49570334113e-05
2.213202369e-05
1.75347413573e-05
1.66594401504e-05
9.53542220217e-06
6.60357783607e-06
4.04923005045e-06
3.90793449256e-06
4.08595841759e-07
5.02531442847e-06
4.51014576534e-07
1.65084134438e-07
9.52985169809e-07
1.05119263325e-06
3.66618022996e-07
1.16017677937e-08
6.33092730183e-07
8.22785658425e-07
9.83857215467e-06
9.01135495454e-06
1.2137968107e-06
8.82543441562e-06
8.73002088502e-07
1.09563630979e-06
1.56082365839e-06
3.96399777481e-06
1.90942872122e-06
1.35623089123e-06
3.49070243761e-06
4.03367589875e-06
1.08076365874e-05
1.01505109575e-05
9.34790907206e-06
3.42326175258e-06
3.81024649356e-06
1.3814410993e-06
3.45403798564e-06
1.83872193319e-06
1.41770695861e-06
1.20313242086e-06
1.50180441624e-07
8.1977255634e-07
2.3506864088e-06
3.39130869774e-06
1.61269434928e-06
3.100353541e-06
6.38958348778e-07
2.59586683632e-07
4.10201949183e-07
1.2985230952e-06
2.1549591262e-06
4.7929314364e-07
2.53306113959e-06
1.68894998954e-06
2.47618215801e-06
3.42321025832e-06
2.37271276432e-06
1.87250908058e-06
3.44582393662e-06
5.6946477604e-06
5.68245471108e-06
3.27857224646e-06
4.33966900261e-06
6.88486967897e-06
8.36680003879e-06
5.97379551296e-06
3.99813002745e-06
7.35387095403e-06
6.6904703704e-06
8.16337635264e-06
2.13617156678e-06
1.71621748742e-06
1.75371212792e-06
1.49672255998e-06
1.97205259491e-06
2.23553655484e-06
1.53487084106e-06
1.73541863805e-06
3.05561149404e-06
3.02800089182e-06
3.12391055239e-06
1.28983021867e-06
3.02857526503e-06
4.1029666918e-06
2.15059333301e-06
6.00711341365e-06
6.38805281885e-06
6.3957498972e-06
6.32211156669e-06
7.64491336332e-06
6.92179223524e-06
9.76440382155e-06
1.01784696593e-05
1.05372727649e-05
6.32303425344e-06
8.03691739787e-06
7.9366727336e-06
8.69600913725e-06
1.11262937756e-05
1.22321323244e-05
1.13607656591e-05
1.35998520348e-05
1.46663450818e-05
1.41559894442e-05
1.23031509799e-05
1.56251276954e-06
3.67446298671e-06
3.42670340937e-06
2.26949158924e-06
2.1701302263e-06
6.78715603166e-06
7.39857069805e-06
6.14878361775e-06
2.29811892351e-06
2.50100996849e-06
4.45248167796e-06
3.03871655784e-06
6.08220684182e-06
5.60923430734e-06
6.89999020587e-06
7.09526316283e-06
5.00813331286e-06
9.98557187305e-06
1.14912231001e-05
1.10323166007e-05
7.82337589765e-06
1.12123804785e-05
1.40089805905e-05
1.54658915039e-05
1.23741923145e-05
6.37853633197e-06
9.83020509663e-06
1.00540934033e-05
9.39936018181e-06
1.78227782235e-06
6.85253666227e-08
1.55746598401e-06
6.0626696477e-06
8.55225712938e-06
9.81247437217e-06
1.07535350355e-05
8.57751522661e-06
1.45399574608e-06
3.18851388778e-06
1.59718666651e-06
1.00352485428e-05
9.50652046953e-06
1.19610581823e-05
1.17344513724e-05
1.30471016597e-05
8.67354509703e-06
9.88547390191e-06
9.31456920549e-06
9.84509325948e-06
1.16856284589e-05
1.38371322519e-05
1.5366761795e-05
1.23681327998e-05
1.1826630371e-05
1.44342716593e-05
1.44090582483e-05
1.53791155649e-05
1.23651784736e-05
1.47427094324e-05
1.5566750414e-05
1.5113952265e-05
1.12053713137e-06
6.06838542274e-07
3.79525450465e-06
3.10703612193e-06
4.19575012151e-06
5.51405885936e-07
3.23380079102e-06
2.98666573189e-06
3.94712784422e-06
6.59832035786e-07
8.43964543793e-09
3.35471345152e-06
2.26409140667e-06
5.32167002987e-07
2.46167874395e-06
6.79578447401e-07
9.21127386616e-07
1.01584058881e-06
1.15472289487e-07
2.92653284693e-06
8.11363409742e-08
2.01432009265e-06
3.91772628524e-07
1.95635192626e-06
3.15644424803e-07
1.54036386825e-06
8.58390485087e-07
6.12337197216e-07
2.09487406835e-06
7.07280779628e-07
1.53062295197e-06
2.18278223888e-07
4.24375660969e-07
7.55460527329e-07
2.53733472796e-06
1.46512321087e-06
2.33169595621e-06
1.10973768283e-06
4.91115129725e-07
2.15346220506e-06
2.22634394379e-06
9.00991433065e-07
1.85380729773e-07
3.43686146787e-07
9.00398110535e-07
1.45261002551e-07
4.10376966791e-07
7.78790297408e-08
9.28694326521e-07
1.13269820981e-06
2.00810950078e-06
2.90176232987e-06
1.67552239715e-06
3.50632972847e-07
3.66335849468e-07
1.72297615103e-06
1.16931201403e-06
2.81821935492e-07
3.43973967991e-07
1.50581081836e-06
2.47992703317e-06
1.53265367176e-06
1.51427809739e-06
1.05266464368e-06
1.00277534187e-05
9.95581816284e-06
3.92499115112e-06
8.18738090039e-06
4.35437936909e-06
2.83973350531e-06
2.81755521214e-06
1.34005958703e-06
4.98179125039e-06
4.32544007256e-06
4.57450840719e-06
3.53401557224e-06
8.4817248177e-06
1.04800639956e-05
2.63670875808e-06
8.9932497675e-06
5.40381691226e-06
5.72570008277e-06
4.91975571099e-06
4.7308546964e-06
5.62732850017e-06
4.18883268894e-06
3.16105198362e-06
2.82361382228e-06
4.34112113875e-06
2.81319133641e-06
3.73228455771e-07
2.80964944298e-06
2.09143569546e-06
1.04157802379e-06
7.74391602465e-07
8.80176164942e-07
3.56605082954e-06
3.24256705186e-06
2.83143095537e-06
3.60897237922e-06
2.38405146799e-06
1.54044321467e-06
3.57678345748e-06
2.43178528393e-06
2.64230649839e-06
1.6812290689e-06
2.09562688155e-06
3.24588375362e-06
2.08476125246e-06
5.59067386382e-07
2.68126277291e-06
3.14005492015e-08
6.66931021206e-06
9.56286254407e-06
2.57989183936e-06
8.86593128496e-06
4.80569008679e-06
7.32563568492e-06
7.16566659495e-06
4.31315330483e-06
2.32826263355e-06
2.69743551361e-06
6.68778475545e-07
4.97275482551e-06
5.66820277235e-06
7.37116599726e-06
5.56632638303e-06
3.40925369627e-06
1.19091232113e-06
3.1391026145e-06
2.55784447711e-06
1.56949357887e-06
2.3243362402e-06
3.84358438555e-06
2.04175715132e-06
2.49812317179e-06
3.55239296792e-06
3.719669835e-06
3.73983314e-06
8.27084663631e-07
1.31309618744e-06
2.33343983238e-06
1.77383631014e-06
1.30589641639e-06
3.66643885562e-06
4.89732991839e-06
3.78025063148e-06
2.00358622221e-06
4.20642773607e-06
6.14595699559e-06
2.14893212955e-06
2.69439613057e-06
4.26550628475e-06
7.03844149777e-06
3.89731865818e-06
2.81324948595e-06
1.20555178499e-06
3.92549841792e-06
1.68565823947e-06
7.3991560415e-08
5.40060319013e-06
8.66197086855e-06
8.21722241254e-06
5.00898695047e-06
1.01970239626e-05
1.50456080495e-05
1.00400989173e-05
8.78268064454e-06
1.07050109324e-05
1.68982714964e-05
1.15451863594e-05
1.07786538131e-05
6.63819866272e-06
1.40091916948e-05
1.12295579736e-05
7.06707173633e-06
3.90489683518e-06
9.2591072267e-06
2.4137134467e-06
3.58243637137e-06
2.69027022274e-06
6.38485524116e-06
1.53874569659e-06
9.19093062751e-07
2.30477565972e-06
7.9631333432e-06
5.16348622533e-06
3.41707977304e-06
1.59446008439e-07
6.31958758923e-06
2.69917592864e-06
1.35424569792e-06
4.54103380946e-06
1.33510237132e-05
6.53702803957e-06
8.62750008654e-06
1.28292564989e-05
2.25848781745e-05
8.27906265271e-06
9.97591609909e-06
4.82166850644e-06
1.00741039329e-05
1.23104484569e-06
6.05277047242e-06
5.05104209132e-06
9.85373728218e-06
3.24429275032e-06
1.86968171763e-07
2.225282672e-06
5.0996857413e-06
3.89979401986e-06
2.43464968424e-07
6.09706278085e-06
3.15263529939e-06
6.92441048293e-06
4.80175690675e-06
8.52693028241e-06
9.29994070517e-06
1.40017426753e-05
9.55163200133e-06
3.29469988704e-06
2.67071415854e-06
7.32569930954e-06
4.41018313346e-06
2.8154433005e-06
4.19038752135e-06
3.47549965139e-07
3.87063853027e-06
4.96567654537e-06
5.61713295353e-06
7.42773027332e-06
6.97166528678e-06
3.3382886429e-06
3.63541942892e-06
4.02516730016e-06
6.7903150822e-06
8.21265645044e-06
1.0353949698e-05
1.0258432592e-05
1.25944749623e-05
6.59212383439e-06
6.94795617588e-06
7.34836987597e-06
8.20691728266e-06
9.75480513454e-06
1.14683175627e-05
1.41962413572e-05
1.06467072525e-05
1.03091876506e-05
1.34140180154e-05
1.41259072577e-05
1.48093805171e-05
1.14264185096e-05
1.42389642561e-05
1.51946311871e-05
1.48961845758e-05
1.32896017829e-05
1.13631726379e-05
1.09716384935e-05
1.0258158998e-05
9.84871469697e-06
8.2961802689e-06
6.90459913201e-06
9.12498526668e-06
8.58718582899e-06
7.62560368144e-06
7.46671887623e-06
7.12682766404e-06
8.05650304068e-06
7.80446103181e-06
7.11323754417e-06
7.44343643489e-06
8.87530973457e-06
8.72500870535e-06
6.56479550545e-06
8.27437614146e-06
6.43582152142e-06
7.86474591524e-06
6.16818359358e-06
7.76806489356e-06
5.07328394844e-06
5.4832790723e-06
3.43532716567e-06
4.83256724135e-06
8.15289985941e-06
8.51270665943e-06
6.19396583787e-06
8.55262354049e-06
5.20547781074e-06
4.34746141024e-06
3.78996095296e-06
4.79843953523e-06
4.73986428426e-06
4.12870742068e-06
1.88448058801e-06
3.82280501816e-06
2.33709313358e-06
6.59685496748e-07
1.32377282467e-06
3.71278769444e-07
3.47497918325e-06
2.00540085404e-06
2.64240319276e-07
8.51496836553e-07
3.51956604587e-06
2.66298119894e-06
4.48505052811e-06
1.84235319778e-06
3.52073643732e-06
3.88421930907e-06
2.14811053013e-06
4.30754795818e-06
3.19025842088e-06
2.29833469268e-06
1.24957151811e-06
6.70778413275e-07
6.55970049317e-07
2.39736210239e-06
1.19332410285e-06
2.96157961707e-06
1.45859705563e-06
8.45213341943e-07
3.27629433485e-06
3.68455241449e-06
3.01858559116e-06
6.46878975689e-07
1.32309385044e-06
4.03189269531e-06
3.14282001233e-06
1.16889298224e-06
9.46372453658e-07
1.62036010003e-06
3.89693923588e-06
8.60702449842e-07
1.49670068242e-06
2.20324096725e-07
1.50835034786e-06
1.78721440073e-06
1.75386489104e-06
1.85503606989e-06
1.19536842245e-06
7.48963879412e-07
1.80204528084e-06
1.47009530236e-06
1.18478135793e-06
8.60107919694e-07
1.35175170865e-06
1.83903878258e-06
1.69446477055e-06
1.37172627917e-06
2.09939034842e-06
6.21286284111e-07
1.02693023605e-06
1.39784249618e-06
1.51218348011e-06
1.66808213152e-06
1.83078218789e-06
1.26126145847e-06
2.29470642917e-06
1.27037011249e-06
1.34820255979e-06
4.45336181682e-06
4.59506416602e-06
6.15016333705e-06
1.10864971876e-06
3.37513191693e-06
4.65307501945e-06
3.76474127903e-06
6.70945596866e-07
1.65305294735e-06
2.17111626407e-06
2.21420695169e-06
1.93855098882e-06
1.130536288e-06
1.22883365741e-06
1.98376620713e-06
1.61974623242e-06
2.73029734315e-06
3.16943435086e-06
3.13888251976e-06
2.21550448827e-06
2.05104396329e-06
1.85901575766e-06
8.91901624568e-07
7.51967364653e-06
8.05854842763e-06
2.6314889153e-06
6.83426176414e-06
2.44731056996e-06
2.8641490832e-06
2.14408026798e-06
2.20395042919e-06
2.65584789618e-06
3.4545668787e-06
2.50816416723e-06
2.42848981971e-06
6.66695341653e-06
7.25520021022e-06
1.85554124264e-06
5.42621687563e-06
1.15569576653e-06
1.36030973556e-06
3.78657504045e-06
2.01258928235e-06
3.34187530108e-06
7.70970362041e-07
2.06680223808e-06
4.29500719686e-07
2.88259759023e-06