# vtk DataFile Version 3.0
File Name: Molecule/sphere_cent/sphere_cent_0-s4.vtk
ASCII
DATASET UNSTRUCTURED_GRID
FIELD FieldData 1
TIME 1 1 double
0.0
POINTS 123 double
0.80892771482 -0.30896502733 -0.49988520145
0.95211273432 -0.1591501534 -0.26128554344
0.85068064928 -0.52567750216 -0.00060650066007
0.99941676855 -0.00039266742533 0.025029297918
0.85246759653 3.2389016269e-05 -0.52301371098
0.95209425688 0.15946500003 -0.26114302874
0.80897188187 0.30888724327 -0.49986180663
0.52573049068 -1.4819710259e-06 -0.85065120459
0.85069566965 0.5256524682 8.2348560682e-05
0.68649804592 0.58786809444 -0.42820209265
0.49991753697 0.80890542269 -0.30897459388
0.58780401945 0.42802241445 -0.68666189909
0.428042382 0.68660980463 -0.58784687519
0.30887213349 0.49991703033 -0.80894380808
-0.00014299791656 0.85062909126 -0.5257653594
0.52294814587 0.85249757767 -1.5709592844e-05
0.50002467632 0.80881100893 0.30905359983
0.26451712847 0.95116990805 -0.15974481404
0.26506125927 0.95103633404 0.15961100161
-0.00017291723634 0.9998588562 1.2497201169e-05
0.010047906078 0.85097110271 0.52209609747
-0.26656776667 0.94994908571 0.16318246722
-0.2657251358 0.9505482316 -0.16127301753
-0.52457541227 0.85139727592 0.00031543211662
-0.50285947323 0.80356633663 -0.31796658039
-0.51835739613 0.78734630346 0.32671287656
-0.83850741386 0.54130864143 -0.023866537958
-0.0035556582734 0.52461248636 0.85137838125
0.30892050266 0.49990817904 0.80894631147
-0.33011618257 0.50819152594 0.79540640116
-0.1607426554 0.26396942139 0.95103818178
0.15887862444 0.26065602899 0.95230472088
0.00048862816766 -0.025844719261 0.99962437153
0.51991909742 0.014665949158 0.85131376982
0.30894491076 -0.4999602437 -0.80888950825
0.15972883999 -0.2645894289 -0.95116567612
-5.5408068874e-05 2.4537089303e-06 -0.99985432625
-0.001907507889 -0.52361708879 -0.85205805302
-0.16139237583 -0.26563206315 -0.95056152344
-0.31796056032 -0.50356966257 -0.80310481787
0.00017598121485 -0.85053217411 -0.52592122555
-0.52583223581 -1.4668139556e-05 -0.85058706999
0.68888056278 0.58523648977 0.42776179314
0.82185894251 0.28919309378 0.49002450705
0.42864906788 0.6864503026 0.5875223279
0.59123820066 0.42528608441 0.68527817726
-0.80125623941 -0.31620401144 -0.50742465258
-0.85149812698 6.1076185375e-05 -0.52442473173
-0.80324828625 0.31793642044 -0.50345212221
-0.95102059841 -0.15827867389 -0.26564121246
-0.95131438971 0.16174401343 -0.2622808516
-0.9998870492 3.1251853216e-05 0.013626704924
0.58784979582 -0.42811766267 -0.68657362461
0.68588155508 -0.58939051628 -0.42703998089
0.42801877856 -0.68788397312 -0.58633619547
0.49622961879 -0.81468361616 -0.2995262444
0.15972647071 0.26459294558 -0.9511654377
-0.16128109396 0.26569536328 -0.95056760311
-0.0017855858896 0.52379411459 -0.85194826126
-0.31740525365 0.50325989723 -0.80352860689
-0.68444341421 0.57946360111 0.44231078029
-0.16750779748 -0.70353257656 0.69052159786
0.0036843107082 -0.8477153182 0.52981096506
0.0025691171177 -0.51922118664 0.8546064496
0.29883021116 -0.5147036314 0.80028110743
0.43229529262 -0.68253773451 0.58931869268
-0.43357080221 0.68280208111 -0.58813798428
-0.58730387688 0.43411284685 -0.68317210674
-0.68149024248 0.58854746819 -0.43512654305
-0.85122394562 -0.52479761839 -0.00077702756971
-0.70455646515 -0.6918156743 -0.15803158283
-0.70561826229 -0.69081842899 0.15753960609
-0.52076107264 -0.85373818874 9.0992805781e-05
-0.49559104443 -0.81097990274 -0.31019213796
-0.50001496077 -0.8089915514 0.3090197742
-0.26368942857 -0.95120102167 -0.16065469384
-0.26565590501 -0.95113402605 0.15762840211
-0.00070081971353 -0.99976670742 -0.0044962475076
-0.25522792339 -0.86311197281 0.43552902341
-0.00020929146558 -0.96068394184 0.27735978365
-0.86291640997 -0.43554857373 0.25624129176
-0.68521398306 -0.5877174139 0.43011721969
-0.80660659075 -0.30603563786 0.50525468588
-0.43029603362 -0.68453872204 0.5882948637
-0.58595943451 -0.42682859302 0.68884527683
-0.30097320676 -0.48895353079 0.81865096092
-0.53257989883 -0.0064689856954 0.84473073483
-0.85077595711 0.0019498649053 0.52555203438
-0.79893916845 0.31593897939 0.5116032362
-0.94840478897 0.15695349872 0.27490264177
-0.9487811923 -0.15784627199 0.27358093858
-0.86652833223 0.42772436142 0.25735127926
-0.96203768253 0.27221688628 0.020627286285
-0.96052181721 -0.27798736095 0.0069806971587
-0.58744692802 -0.43469667435 -0.68270218372
-0.43197983503 -0.68853062391 -0.58259904385
-0.68008691072 -0.59338700771 -0.43068528175
-0.85942751169 -0.44129145145 -0.25807321072
0.26125335693 -0.95297640562 -0.1541069597
0.52102398872 -0.85355740786 0.007450801786
0.26631516218 -0.95085549355 0.1579324156
0.51413697004 -0.79724508524 0.31533753872
0.25870639086 -0.86610555649 0.42737001181
-0.26851603389 0.85138773918 0.45083087683
-0.17879027128 0.70779389143 0.68352717161
-0.44131487608 0.67799991369 0.5876211524
-0.58992910385 0.43289852142 0.68155610561
-0.44575589895 0.26141628623 0.85594183207
-0.68448913097 0.17214474082 0.70836305618
-0.42159566283 -0.25313872099 0.870690763
-0.27585458755 -0.012965141796 0.96095508337
-0.15367035568 -0.27056205273 0.95028072596
0.16000002623 -0.2786950469 0.94687157869
0.27133136988 -0.021095003933 0.96222400665
0.43467852473 -0.25851160288 0.86261165142
0.69206428528 -0.15935505927 0.70388633013
0.58752995729 -0.42829525471 0.68655920029
0.8089749217 -0.3106341362 0.49860867858
0.69198858738 -0.58024585247 0.42965531349
0.94708454609 -0.16159237921 0.27746492624
0.95098817348 0.14737385511 0.27212437987
0.85557556152 -0.012743207626 0.51754379272
0.70529001951 0.14411790669 0.69405585527

CELLS 242 968
3 0 1 2
3 2 1 3
3 0 4 1
3 4 5 1
3 4 6 5
3 1 5 3
3 6 4 7
3 7 4 0
3 3 5 8
3 5 6 8
3 6 9 8
3 8 9 10
3 6 11 9
3 11 12 9
3 11 13 12
3 9 12 10
3 13 11 7
3 7 11 6
3 10 12 14
3 12 13 14
3 10 15 8
3 8 15 16
3 10 17 15
3 17 18 15
3 17 19 18
3 15 18 16
3 19 17 14
3 14 17 10
3 16 18 20
3 18 19 20
3 19 21 20
3 19 22 21
3 22 23 21
3 22 24 23
3 21 23 25
3 24 22 14
3 14 22 19
3 25 23 26
3 23 24 26
3 20 27 28
3 29 30 27
3 30 31 27
3 30 32 31
3 27 31 28
3 28 31 33
3 34 35 7
3 7 35 36
3 34 37 35
3 37 38 35
3 37 39 38
3 35 38 36
3 39 37 40
3 40 37 34
3 36 38 41
3 38 39 41
3 16 42 8
3 8 42 43
3 16 44 42
3 44 45 42
3 44 28 45
3 42 45 43
3 28 44 20
3 20 44 16
3 45 28 33
3 46 47 41
3 41 47 48
3 46 49 47
3 49 50 47
3 49 51 50
3 47 50 48
3 48 50 26
3 0 52 7
3 7 52 34
3 0 53 52
3 53 54 52
3 53 55 54
3 52 54 34
3 55 53 2
3 2 53 0
3 34 54 40
3 54 55 40
3 36 56 7
3 7 56 13
3 36 57 56
3 57 58 56
3 57 59 58
3 56 58 13
3 59 57 41
3 41 57 36
3 13 58 14
3 58 59 14
3 25 26 60
3 61 62 63
3 64 62 65
3 59 66 14
3 14 66 24
3 59 67 66
3 67 68 66
3 67 48 68
3 66 68 24
3 48 67 41
3 41 67 59
3 24 68 26
3 68 48 26
3 69 70 71
3 70 72 71
3 70 73 72
3 71 72 74
3 73 75 72
3 75 76 72
3 75 77 76
3 72 76 74
3 77 75 40
3 40 75 73
3 74 76 78
3 76 79 78
3 76 77 79
3 78 79 62
3 69 71 80
3 71 81 80
3 71 74 81
3 80 81 82
3 74 83 81
3 83 84 81
3 83 85 84
3 81 84 82
3 74 78 83
3 78 61 83
3 78 62 61
3 83 61 85
3 82 84 86
3 86 87 82
3 88 89 87
3 89 90 87
3 89 51 90
3 87 90 82
3 88 91 89
3 91 92 89
3 91 26 92
3 89 92 51
3 82 90 80
3 90 93 80
3 90 51 93
3 80 93 69
3 39 94 41
3 41 94 46
3 39 95 94
3 95 96 94
3 95 73 96
3 94 96 46
3 73 95 40
3 40 95 39
3 46 96 97
3 96 70 97
3 96 73 70
3 97 70 69
3 55 98 40
3 40 98 77
3 55 99 98
3 99 100 98
3 99 101 100
3 98 100 77
3 101 99 2
3 2 99 55
3 77 100 79
3 100 102 79
3 100 101 102
3 79 102 62
3 69 93 97
3 49 93 51
3 46 97 49
3 49 97 93
3 51 92 50
3 50 92 26
3 20 103 104
3 103 105 104
3 103 25 105
3 104 105 29
3 25 60 105
3 60 106 105
3 60 88 106
3 105 106 29
3 29 106 107
3 106 108 107
3 106 88 108
3 107 108 86
3 86 109 110
3 109 111 110
3 109 85 111
3 110 111 32
3 85 63 111
3 63 112 111
3 63 64 112
3 111 112 32
3 32 112 113
3 112 114 113
3 112 64 114
3 113 114 33
3 33 114 115
3 114 116 115
3 114 64 116
3 115 116 117
3 64 65 116
3 65 118 116
3 65 101 118
3 116 118 117
3 117 118 2
3 118 101 2
3 3 119 2
3 2 119 117
3 3 120 119
3 120 121 119
3 120 43 121
3 119 121 117
3 43 120 8
3 8 120 3
3 117 121 115
3 121 122 115
3 121 43 122
3 115 122 33
3 25 103 21
3 21 103 20
3 20 104 27
3 27 104 29
3 86 110 107
3 30 110 32
3 29 107 30
3 30 107 110
3 32 113 31
3 31 113 33
3 33 122 45
3 45 122 43
3 88 60 91
3 91 60 26
3 64 63 62
3 61 63 85
3 101 65 102
3 102 65 62
3 85 109 84
3 84 109 86
3 86 108 87
3 87 108 88

CELL_TYPES 242
5
5
5
5
5
5
5
5
5
5
5
5
5
5
5
5
5
5
5
5
5
5
5
5
5
5
5
5
5
5
5
5
5
5
5
5
5
5
5
5
5
5
5
5
5
5
5
5
5
5
5
5
5
5
5
5
5
5
5
5
5
5
5
5
5
5
5
5
5
5
5
5
5
5
5
5
5
5
5
5
5
5
5
5
5
5
5
5
5
5
5
5
5
5
5
5
5
5
5
5
5
5
5
5
5
5
5
5
5
5
5
5
5
5
5
5
5
5
5
5
5
5
5
5
5
5
5
5
5
5
5
5
5
5
5
5
5
5
5
5
5
5
5
5
5
5
5
5
5
5
5
5
5
5
5
5
5
5
5
5
5
5
5
5
5
5
5
5
5
5
5
5
5
5
5
5
5
5
5
5
5
5
5
5
5
5
5
5
5
5
5
5
5
5
5
5
5
5
5
5
5
5
5
5
5
5
5
5
5
5
5
5
5
5
5
5
5
5
5
5
5
5
5
5
5
5
5
5
5
5
5
5
5
5
5
5
5
5
5
5
5
5

CELL_DATA 242
SCALARS cell_data_0 double
LOOKUP_TABLE default
1.77740429753e-06
1.47683710115e-06
4.68656711375e-07
1.71210017648e-07
1.1830424313e-06
4.92597093894e-07
9.02526337424e-07
3.71145480659e-07
3.19678498658e-07
5.39475049475e-07
6.12002774182e-07
6.38872933016e-07
1.23269899252e-06
2.12813312485e-07
7.79295365276e-07
3.1260233504e-07
1.08595607098e-07
8.80409602965e-07
6.17967904805e-07
1.24552547618e-07
2.16033546786e-07
2.24000078306e-07
5.05462077051e-07
2.85340238411e-07
3.11159295678e-07
5.97307343439e-07
7.03033993576e-07
7.32519135354e-07
1.6985727929e-06
1.71227416387e-06
2.11305779884e-06
2.67467542362e-07
4.08583206611e-08
8.740542018e-07
2.59278605105e-07
4.13384559225e-07
6.7449412233e-07
1.49959737271e-06
6.30658266961e-07
2.09625515354e-06
8.96474924214e-08
1.74907959e-07
3.56574473103e-07
2.68779643654e-07
1.962810465e-06
6.36931316437e-07
5.92211530636e-07
2.74739572255e-07
2.24579922799e-07
5.80740017804e-07
5.96986229408e-07
1.34045280485e-06
1.33746786244e-06
8.46597282657e-07
8.88427464861e-07
5.46582189838e-07
6.01475303925e-07
2.10068982663e-07
3.30700520246e-07
5.95873298001e-07
5.52702627748e-07
1.91846841706e-06
1.95548688358e-06
1.36193481433e-06
5.55868993627e-07
8.36317086159e-07
9.35570478747e-07
4.22525960005e-07
2.24152164671e-07
6.75933618123e-07
1.61413682136e-06
7.17756848597e-07
6.48195618191e-07
1.97028443048e-07
1.33756943949e-07
9.14657194799e-07
2.32108988999e-07
7.6068958323e-07
1.86349307652e-06
1.39265498397e-06
2.9420715859e-07
6.88270403756e-07
3.11489680272e-07
2.25914039951e-07
1.26615772728e-07
5.07703252696e-07
4.99143932512e-07
1.04819347289e-06
1.36847734406e-06
1.71683249033e-07
1.99128967425e-07
2.0601011686e-06
1.22939882914e-07
2.7773139941e-07
7.79249590185e-08
5.59831130697e-07
6.59389713506e-07
2.54091181458e-07
7.46967827957e-07
1.18749371365e-06
9.5869638519e-07
9.54328723936e-07
2.90202166735e-07
9.40042716135e-07
1.48427812196e-07
2.21054360825e-07
7.56293923117e-08
9.45376171761e-08
3.94115943116e-08
5.18452686017e-08
5.28765932267e-07
7.18464530705e-08
1.01232157989e-06
1.43517932246e-06
2.90345601467e-07
3.60480652544e-07
6.21169972192e-07
4.43085490413e-07
2.01448668137e-07
2.56230397415e-07
3.13012890067e-07
1.09752082388e-06
4.19889027704e-07
4.40688825453e-07
2.35509619042e-07
1.25022887054e-06
1.72509806036e-07
3.14919192948e-07
5.55254599366e-07
5.36963165431e-07
8.75218228201e-07
7.73578797245e-07
1.55341668524e-07
2.20589297496e-07
3.11670646881e-07
7.22683740622e-07
7.6119180107e-08
1.28987063518e-07
2.28418372172e-08
1.16587260932e-07
5.57932592777e-07
1.30699474707e-07
6.61229432569e-08
3.21479360259e-07
1.25226183517e-06
6.29689601869e-07
4.03187910952e-07
5.90999409543e-08
5.03261175415e-08
4.66830885603e-07
1.29826736459e-06
1.24442602979e-06
3.36291912949e-07
1.75312309887e-07
1.03541666099e-07
2.31648835583e-07
1.605776486e-07
8.7989372964e-07
1.05445476797e-06
2.50142141109e-08
3.86306769587e-07
3.39589304633e-07
1.18950851219e-06
6.34240840041e-07
3.51433550821e-07
1.20014586808e-07
3.33630953279e-07
5.03473381083e-07
2.8035316831e-07
3.00855052843e-07
7.04286095916e-07
2.29890063765e-07
1.13569163634e-08
5.00481706264e-07
2.66140116439e-07
3.82502741906e-08
2.67044067844e-07
1.33810557181e-07
1.09198715537e-07
3.52664906041e-07
1.58983631039e-07
2.12597343273e-07
3.01542091696e-08
6.48437087765e-08
5.87936507406e-09
6.68650858135e-08
8.1486390397e-08
2.26370116619e-07
1.71581290375e-07
1.32657922265e-07
1.77763461063e-07
1.54497486297e-07
6.29855240608e-07
8.06387769908e-08
1.84184471581e-07
1.5724111293e-07
4.01334414649e-07
9.14731922585e-08
2.04298649323e-07
2.06050727688e-07
3.65994732737e-07
6.14588171941e-08
7.63392788761e-07
8.37590321427e-08
6.95773354297e-07
9.37743932611e-08
1.6220964507e-06
1.06168715513e-06
1.35870629813e-06
1.72488003251e-06
6.1946212053e-07
5.4921858128e-08
8.81569005423e-08
1.13955188682e-07
6.04670866029e-07
1.88352051269e-07
5.55097862863e-08
2.13074645376e-07
7.27079659577e-08
1.0314935967e-07
4.64330931551e-07
1.37855419343e-07
4.45368572039e-07
2.54186212916e-08
2.02072835203e-07
3.44616937481e-07
2.24401311521e-07
8.82978013053e-10
2.05821204924e-07
4.1586018655e-07
7.01002993833e-08
3.41964052277e-07
2.24906328235e-08
6.94983513471e-07
5.83063251059e-07
5.19316955931e-07
6.42840033887e-07
1.58813271958e-07
2.18336138719e-07
4.09302644688e-07
2.89057702377e-07
7.60318961552e-08

