# vtk DataFile Version 3.0
File Name: Molecule/sphere_cent/sphere_cent_0-s13.vtk
ASCII
DATASET UNSTRUCTURED_GRID
FIELD FieldData 1
TIME 1 1 double
0.0
POINTS 176 double
0.86429715157 -0.49966061115 -0.046645872295
0.94518709183 -0.22147643566 -0.23612818122
0.99453228712 -0.046142414212 0.086402699351
0.34612718225 -0.50964176655 -0.78747701645
0.037202876061 -0.51755785942 -0.85405522585
0.16753733158 -0.26213574409 -0.9503543973
-0.15061441064 -0.2505196631 -0.95533746481
0.0088337641209 0.035207316279 -0.99911886454
0.48913735151 0.82913839817 0.26977387071
0.42455303669 0.6902718544 0.58587104082
0.68884533644 0.58988064528 0.42130112648
0.58912724257 0.42647856474 0.68629693985
0.27818062901 0.49073129892 0.82552373409
0.83205688 0.28066837788 0.47796699405
0.78200381994 0.34911233187 -0.51470077038
0.56672257185 0.44147866964 -0.6953098774
0.66905713081 0.60929006338 -0.42504051328
0.41723942757 0.69442421198 -0.58620864153
0.27332317829 0.48772341013 -0.82882386446
0.48059850931 0.83466553688 -0.26761335135
-0.54929631948 -0.24707822502 0.79796779156
-0.32579040527 -0.49440476298 0.80586946011
-0.34909799695 -0.13773857057 0.92583501339
-0.003831994487 -0.53335511684 0.84583109617
-0.17277099192 -0.27795907855 0.94294470549
0.15638385713 -0.26609480381 0.95114219189
0.31675973535 -0.52103674412 0.79236316681
0.1014437899 -0.82838171721 0.55006092787
-0.95225691795 0.15722079575 0.26172667742
-0.95289433002 -0.15713170171 0.25932377577
-0.86026757956 -0.028803640977 0.50821602345
-0.99860745668 0.005883466918 -0.0099996626377
-0.82154560089 -0.2984072566 0.48385024071
-0.85087138414 0.52537614107 -0.0011687804945
-0.81092280149 0.32105278969 0.48663234711
-0.057981800288 0.86110520363 0.50293320417
-0.24580000341 0.95691311359 0.15435644984
-0.49684813619 0.81124305725 0.30794373155
0.035355065018 0.99925619364 -0.0070114107803
-0.24946983159 0.9549601078 -0.160394907
-0.5190783143 0.85477423668 -0.0048645548522
-0.50250375271 0.80430465937 -0.31688371301
-0.052320048213 0.86283177137 -0.50011467934
-0.41404512525 0.6840993762 0.60041999817
-0.67948275805 0.59091889858 0.43496376276
-0.5582048893 0.45943450928 0.69018220901
-0.30162701011 0.48650488257 0.81994831562
-0.039959125221 -0.86620628834 -0.49546205997
0.27405595779 -0.94598126411 -0.17306414247
-0.0058067394421 -0.99946683645 -0.023284316063
0.51490491629 -0.85614460707 0.032570406795
0.2558683753 -0.95238059759 0.16577769816
0.49163973331 -0.80567413568 0.33010020852
-0.50357013941 -0.80557459593 -0.31172081828
-0.53295868635 -0.84418964386 -0.0037567983381
-0.77794510126 -0.5842744112 -0.22323694825
-0.84367215633 -0.53541147709 0.00066874257755
-0.77586758137 -0.58748877048 0.22465480864
-0.27587899566 -0.94798588753 -0.15879225731
-0.28088659048 -0.94860559702 0.14544062316
-0.51171272993 -0.80506944656 0.29984310269
-0.24661749601 -0.86471372843 0.43744787574
-0.030172267929 -0.9620257616 0.27129343152
-0.44335177541 -0.6860524416 0.57684326172
-0.66967403889 -0.59667444229 0.43949654698
-0.56718915701 -0.473965168 0.67295950651
-0.18744677305 -0.71220439672 0.67646443844
-0.80524218082 -0.30173406005 -0.50734841824
-0.85278040171 -0.0027307434939 -0.52226561308
-0.55875813961 -0.048156552017 -0.8261859417
-0.94650173187 -0.14181573689 -0.28673312068
-0.94820708036 0.15374983847 -0.27778306603
-0.81807923317 0.3049364984 -0.48568296432
-0.42300856113 0.67812997103 -0.60092294216
-0.3001281321 0.50122541189 -0.81157439947
-0.55358546972 0.44832786918 -0.70097011328
-0.68544077873 0.58015704155 -0.44003227353
-0.60130423307 -0.43556508422 -0.6698744297
-0.3447508812 -0.5059876442 -0.78922796249
-0.44725418091 -0.68259572983 -0.57788676023
-0.67640584707 -0.59277617931 -0.43439558148
0.5209287405 0.0029428792186 0.85357922316
0.4496884644 -0.25781264901 0.85505449772
0.68875056505 -0.1580106616 0.70756459236
0.59299004078 -0.43678170443 0.67635238171
0.78487914801 -0.32818621397 0.52555561066
0.45346292853 -0.67254638672 0.58483123779
0.68602329493 -0.57594615221 0.44456994534
0.88009750843 -0.39185664058 0.26729044318
0.71818292141 -0.66831022501 0.19321611524
0.87601804733 -0.051187437028 0.47902396321
0.70405393839 0.13514554501 0.6971296072
-0.26730692387 0.047488726676 -0.96244865656
-0.14709185064 0.28855526447 -0.94607931376
-0.4011618495 0.25760191679 -0.87909501791
0.41626775265 0.25142577291 0.87367331982
0.27192392945 0.01769567281 0.96209013462
-0.13465365767 0.680560112 0.72023177147
0.13597851992 0.7032815218 0.69750720263
-0.0069303018972 0.50063532591 0.8656193614
-0.15592540801 0.27664968371 0.94813895226
0.13192865252 0.27490276098 0.95235848427
-0.0081330295652 0.033273655921 0.99912786484
-0.5343708992 0.24670422077 0.80659037828
-0.26807639003 0.02478085272 0.96269160509
-0.013658513315 0.51232022047 -0.8586319685
0.13295245171 0.70308023691 -0.69822531939
-0.13899847865 0.68733227253 -0.71295768023
0.24314785004 0.8757737875 0.41659799218
0.24200759828 0.87890970707 -0.41041976213
0.13607683778 0.27784135938 -0.9509395957
0.2750633359 0.95227378607 0.13228814304
0.043426781893 0.96552693844 0.25673368573
0.45359244943 -0.67197281122 -0.58534318209
0.20454880595 -0.71269208193 -0.67107844353
0.28041777015 -0.83927571774 -0.46591120958
0.51880073547 -0.77361625433 -0.36374014616
0.545560956 -0.0013755927794 -0.83799219131
0.28714478016 0.019346063957 -0.95759820938
0.39201876521 0.25083249807 -0.88508731127
0.45773825049 -0.26074507833 -0.84985810518
0.8562541604 0.51624411345 -0.01497734338
0.67885684967 0.72344297171 -0.12563753128
0.7014234066 0.69964927435 0.13535757363
0.49644568563 0.86804848909 0.00044846808305
0.27353209257 0.95214343071 -0.13639982045
0.040475748479 0.96445691586 -0.2612401545
0.96228629351 0.26768150926 0.046954896301
0.94770002365 0.1544007957 0.27942600846
0.8715800643 0.42735680938 0.23956954479
0.67399919033 -0.20272873342 -0.71024417877
0.58295291662 -0.45290800929 -0.67454087734
0.77698284388 -0.36026483774 -0.51514089108
0.82779192924 -0.045996014029 -0.55873292685
0.70796221495 0.076998233795 -0.70184844732
0.89800286293 0.39150580764 -0.19989910722
0.96265435219 0.17397351563 -0.20591630042
0.66849035025 -0.59222340584 -0.44966942072
0.83018887043 -0.47215411067 -0.29639050364
0.7160640955 -0.66117936373 -0.22326113284
0.91059666872 -0.10527031124 -0.39912500978
0.91510826349 0.074234172702 -0.39620697498
0.96780961752 -0.015701724216 -0.24998527765
0.82526409626 0.15957967937 -0.54172730446
0.88879597187 0.26329684258 -0.37512817979
-0.70245850086 -0.17373627424 0.68999260664
0.55107492208 -0.81781744957 -0.1659745127
0.70367753506 -0.70984786749 -0.032105956227
-0.76102072001 -0.45765215158 0.45955768228
-0.70297592878 -0.36441913247 0.61029839516
-0.71522706747 0.006873305887 0.69846373796
-0.50410497189 0.0090930312872 0.8634672761
-0.71578580141 0.15259467065 -0.68130171299
-0.70028853416 0.35906082392 -0.61696285009
-0.58592987061 0.22083033621 -0.77984905243
-0.15708139539 -0.53377872705 -0.83109915257
-0.19371430576 -0.6999772191 -0.68733811378
-0.011147906072 -0.70637172461 -0.70780479908
0.8099988699 0.44651997089 -0.37976640463
0.58451145887 0.22130924463 -0.7805776
0.70859092474 0.27909055352 -0.64786291122
-0.8328115344 0.15485799313 0.5311166048
-0.69991332293 0.36758449674 0.61192840338
-0.6905066371 0.17243225873 0.70238494873
0.79160249233 0.56618225574 -0.22963371873
-0.2661382854 -0.37663388252 -0.88729172945
-0.36392730474 -0.15617474914 -0.91827428341
-0.45567411184 -0.28848806024 -0.84219670296
-0.10205662996 -0.1190334931 0.98749595881
-0.86946427822 -0.42437386513 0.25082665682
-0.96178257465 -0.27125957608 0.0045598875731
-0.88791978359 -0.2444948554 -0.38920733333
-0.98522114754 -0.086108416319 -0.14540833235
-0.92855101824 -0.33910375834 -0.1487454772
-0.86304283142 -0.43074789643 -0.26380631328
-0.76483643055 -0.44985747337 -0.46110597253

CELLS 348 1392
3 0 1 2
3 3 4 5
3 4 6 5
3 5 6 7
3 8 9 10
3 9 11 10
3 9 12 11
3 10 11 13
3 14 15 16
3 15 17 16
3 15 18 17
3 16 17 19
3 20 21 22
3 21 23 24
3 23 25 24
3 23 26 25
3 26 23 27
3 28 29 30
3 28 31 29
3 30 29 32
3 31 28 33
3 33 28 34
3 35 36 37
3 38 39 36
3 39 40 36
3 39 41 40
3 36 40 37
3 41 39 42
3 37 40 33
3 40 41 33
3 37 43 35
3 37 44 43
3 44 45 43
3 43 45 46
3 34 44 33
3 33 44 37
3 47 48 49
3 50 51 48
3 50 52 51
3 48 51 49
3 51 52 27
3 53 54 55
3 56 54 57
3 53 58 54
3 58 59 54
3 58 49 59
3 54 59 60
3 49 58 47
3 47 58 53
3 60 59 61
3 59 62 61
3 59 49 62
3 61 62 27
3 60 63 64
3 63 65 64
3 63 21 65
3 60 61 63
3 61 66 63
3 61 27 66
3 63 66 21
3 21 66 23
3 23 66 27
3 27 62 51
3 51 62 49
3 67 68 69
3 70 71 68
3 68 71 72
3 72 71 33
3 71 31 33
3 42 73 41
3 74 75 73
3 75 76 73
3 73 76 41
3 41 76 33
3 76 72 33
3 69 77 67
3 78 79 77
3 79 80 77
3 79 53 80
3 53 79 47
3 81 82 83
3 82 84 83
3 82 26 84
3 83 84 85
3 26 86 84
3 86 87 84
3 86 52 87
3 84 87 85
3 52 86 27
3 27 86 26
3 85 87 88
3 87 89 88
3 87 52 89
3 88 89 0
3 85 88 90
3 2 88 0
3 2 90 88
3 85 90 83
3 90 91 83
3 90 13 91
3 83 91 81
3 7 92 93
3 92 94 93
3 92 69 94
3 93 94 74
3 6 92 7
3 81 91 95
3 11 91 13
3 26 82 25
3 25 82 96
3 50 89 52
3 74 94 75
3 35 97 98
3 97 99 98
3 97 46 99
3 98 99 12
3 46 100 99
3 100 101 99
3 100 102 101
3 99 101 12
3 100 103 104
3 12 101 95
3 101 96 95
3 101 102 96
3 95 96 81
3 18 105 106
3 105 107 106
3 105 74 107
3 106 107 42
3 35 98 108
3 9 98 12
3 12 95 11
3 11 95 91
3 18 106 17
3 17 106 109
3 81 96 82
3 25 96 102
3 46 97 43
3 43 97 35
3 42 107 73
3 73 107 74
3 74 105 93
3 93 105 110
3 8 111 108
3 111 112 108
3 111 38 112
3 108 112 35
3 3 113 114
3 113 115 114
3 113 116 115
3 114 115 47
3 117 118 119
3 118 110 119
3 118 7 110
3 119 110 18
3 7 118 5
3 5 118 120
3 3 114 4
3 8 108 9
3 9 108 98
3 15 119 18
3 35 112 36
3 36 112 38
3 47 115 48
3 48 115 116
3 18 110 105
3 93 110 7
3 121 122 123
3 122 124 123
3 122 19 124
3 123 124 8
3 19 109 125
3 109 126 125
3 109 42 126
3 125 126 38
3 2 127 128
3 127 129 128
3 127 121 129
3 128 129 13
3 117 130 120
3 130 131 120
3 130 132 131
3 120 131 3
3 132 130 133
3 133 130 134
3 121 127 135
3 136 127 2
3 117 120 118
3 5 120 3
3 121 123 129
3 10 123 8
3 13 129 10
3 10 129 123
3 19 122 16
3 42 109 106
3 17 109 19
3 38 126 39
3 39 126 42
3 2 128 90
3 90 128 13
3 19 125 124
3 111 125 38
3 8 124 111
3 111 124 125
3 3 131 113
3 113 131 137
3 132 138 137
3 138 139 137
3 138 0 139
3 137 139 116
3 0 138 1
3 1 138 132
3 133 140 132
3 132 140 1
3 133 141 140
3 141 142 140
3 141 136 142
3 140 142 1
3 133 143 141
3 143 144 141
3 143 14 144
3 141 144 136
3 1 142 2
3 142 136 2
3 32 145 30
3 116 146 48
3 146 50 48
3 0 147 139
3 147 146 139
3 147 50 146
3 139 146 116
3 64 65 148
3 32 149 145
3 149 20 145
3 149 65 20
3 150 145 151
3 21 20 65
3 72 152 68
3 68 152 69
3 75 153 76
3 153 72 76
3 72 153 152
3 153 154 152
3 153 75 154
3 152 154 69
3 50 147 89
3 89 147 0
3 69 154 94
3 94 154 75
3 132 137 131
3 113 137 116
3 4 155 6
3 78 155 156
3 155 157 156
3 155 4 157
3 156 157 47
3 16 158 14
3 14 158 144
3 117 159 134
3 159 160 134
3 159 15 160
3 134 160 143
3 34 161 162
3 161 150 163
3 161 30 150
3 163 150 151
3 30 161 28
3 28 161 34
3 34 162 44
3 44 162 45
3 45 103 46
3 46 103 100
3 45 162 103
3 162 163 103
3 163 162 161
3 103 163 151
3 78 156 79
3 79 156 47
3 47 157 114
3 114 157 4
3 15 159 119
3 119 159 117
3 121 164 122
3 122 164 16
3 143 160 14
3 14 160 15
3 117 134 130
3 133 134 143
3 144 135 136
3 136 135 127
3 121 135 164
3 135 158 164
3 135 144 158
3 164 158 16
3 20 151 145
3 145 150 30
3 6 165 166
3 165 167 166
3 165 78 167
3 166 167 69
3 151 22 104
3 22 168 104
3 22 24 168
3 104 168 102
3 102 168 25
3 25 168 24
3 56 169 170
3 29 169 32
3 31 170 29
3 29 170 169
3 64 57 60
3 60 57 54
3 56 57 169
3 57 148 169
3 57 64 148
3 169 148 32
3 67 171 68
3 171 70 68
3 70 172 71
3 172 31 71
3 31 172 170
3 172 173 170
3 172 70 173
3 170 173 56
3 56 173 174
3 173 171 174
3 173 70 171
3 174 171 175
3 69 167 77
3 77 167 78
3 80 175 77
3 77 175 67
3 67 175 171
3 175 55 174
3 175 80 55
3 174 55 56
3 56 55 54
3 53 55 80
3 6 166 92
3 92 166 69
3 151 104 103
3 100 104 102
3 32 148 149
3 149 148 65
3 24 22 21
3 20 22 151
3 78 165 155
3 155 165 6

CELL_TYPES 348
5
5
5
5
5
5
5
5
5
5
5
5
5
5
5
5
5
5
5
5
5
5
5
5
5
5
5
5
5
5
5
5
5
5
5
5
5
5
5
5
5
5
5
5
5
5
5
5
5
5
5
5
5
5
5
5
5
5
5
5
5
5
5
5
5
5
5
5
5
5
5
5
5
5
5
5
5
5
5
5
5
5
5
5
5
5
5
5
5
5
5
5
5
5
5
5
5
5
5
5
5
5
5
5
5
5
5
5
5
5
5
5
5
5
5
5
5
5
5
5
5
5
5
5
5
5
5
5
5
5
5
5
5
5
5
5
5
5
5
5
5
5
5
5
5
5
5
5
5
5
5
5
5
5
5
5
5
5
5
5
5
5
5
5
5
5
5
5
5
5
5
5
5
5
5
5
5
5
5
5
5
5
5
5
5
5
5
5
5
5
5
5
5
5
5
5
5
5
5
5
5
5
5
5
5
5
5
5
5
5
5
5
5
5
5
5
5
5
5
5
5
5
5
5
5
5
5
5
5
5
5
5
5
5
5
5
5
5
5
5
5
5
5
5
5
5
5
5
5
5
5
5
5
5
5
5
5
5
5
5
5
5
5
5
5
5
5
5
5
5
5
5
5
5
5
5
5
5
5
5
5
5
5
5
5
5
5
5
5
5
5
5
5
5
5
5
5
5
5
5
5
5
5
5
5
5
5
5
5
5
5
5
5
5
5
5
5
5
5
5
5
5
5
5
5
5
5
5
5
5
5
5
5
5
5
5
5
5
5
5
5
5
5
5
5
5
5
5

CELL_DATA 348
SCALARS cell_data_0 double
LOOKUP_TABLE default
8.32409694902e-07
3.18594415619e-07
1.95923555631e-07
1.24895056253e-07
8.02561674881e-08
1.87819563068e-07
7.87142742665e-08
2.6841765126e-07
1.06948586077e-07
2.5187577349e-07
1.11312624645e-07
1.26279357586e-09
5.95799427132e-07
2.90124469332e-07
1.82653190758e-07
2.13367985489e-07
6.53736656422e-07
2.21244062279e-08
2.60112406262e-07
5.11830211119e-08
1.29965151814e-06
1.73917138621e-06
1.16124075367e-06
8.57605791951e-08
1.54572692821e-07
6.47132856601e-08
1.37469937201e-07
9.82304289065e-07
1.89655320555e-06
1.9304734284e-06
1.27471159744e-06
1.17268164033e-07
1.47237338892e-07
3.71364456069e-08
1.88156029277e-06
1.91037044087e-06
1.84012520576e-06
4.98837118391e-08
4.3285091708e-07
5.42353702575e-08
8.87720443426e-07
2.89113000784e-07
6.11750285364e-07
6.59426377335e-07
2.32479784631e-07
1.02944971795e-07
3.68306077918e-07
1.24316463821e-06
1.01008162992e-06
1.85949876293e-07
3.53889404244e-07
1.65469159395e-07
2.65539549956e-07
4.36440894496e-08
6.84201457936e-08
1.21628207944e-07
1.19625718838e-07
2.84945079598e-07
2.56303688176e-07
1.04333386306e-07
2.57653875694e-07
2.89744597702e-08
1.43493929515e-07
1.54283572993e-07
4.31601928041e-07
1.04974858226e-07
1.55888048915e-07
1.41597919689e-06
1.7048798249e-06
1.19613007063e-06
5.19051112301e-08
1.76418387311e-07
7.40278569512e-08
1.92568720753e-06
1.4908242901e-06
3.34125881345e-07
6.13926549025e-08
1.27724663569e-07
3.46229712386e-07
1.42687069613e-06
2.48290063769e-07
5.30818690646e-08
4.49232471272e-09
5.0241563588e-07
2.68645561142e-07
1.63542524756e-07
2.80271834993e-07
3.88391771507e-07
1.93881876499e-07
1.47584935614e-07
3.71026348305e-07
9.43817044692e-08
8.80015469659e-08
1.9203164858e-07
1.05936486647e-07
1.31561293665e-06
1.55602340212e-06
4.93784403026e-07
4.74205778658e-09
2.28501395805e-07
3.27061407192e-07
6.01094850204e-09
1.25541979805e-07
2.79603725967e-07
1.5215188336e-07
2.19598603367e-07
1.18049245256e-08
1.31284768833e-07
2.05726271277e-08
1.77878139274e-07
2.34969228571e-07
5.67571033196e-08
1.74171109955e-07
8.05849468858e-08
7.48831723274e-08
1.43860569692e-07
7.28244064469e-08
1.56378437535e-07
1.82162923874e-07
2.5842552697e-07
1.22507760744e-06
2.974539153e-07
1.30808619436e-07
2.24020347648e-07
1.61006950091e-07
1.38059534638e-08
1.99882254373e-08
1.55440297295e-07
2.61865003182e-07
1.43239520862e-07
2.60637852323e-07
6.68425473242e-10
2.59901988661e-07
1.02809520295e-08
1.53998422157e-07
1.94738098678e-08
5.99646830597e-08
5.53857013879e-08
2.15630115024e-07
7.00538230489e-08
6.51247103183e-08
8.36342989703e-08
3.93058074402e-08
5.39361429411e-08
1.64092669069e-08
1.1096502402e-07
9.4300769646e-08
3.3274832461e-08
8.4340353536e-09
2.25547559676e-07
1.51858929156e-07
3.51280829322e-08
4.12085799879e-08
7.33121217337e-08
1.3457844833e-07
2.54281301296e-07
5.16866294172e-07
1.57312361219e-07
8.93444093386e-08
3.65504360184e-08
3.84121986604e-08
1.37054684833e-07
5.54771371999e-08
7.28825855673e-07
5.52908495173e-08
3.37943771234e-08
4.03351059216e-09
7.31284847139e-08
8.31261651319e-08
2.10154859414e-07
1.15268515776e-07
6.16269897276e-08
6.09322107304e-08
3.69878362171e-07
1.51929993594e-07
3.86314797524e-08
7.65982364833e-08
6.59554324957e-09
3.31414060308e-08
1.41135277999e-08
7.89251448638e-08
9.0830159949e-08
4.75914760184e-08
9.19750895729e-09
3.85405770294e-08
4.98801546468e-08
2.27867801448e-07
2.76150782494e-07
3.45104523893e-07
1.5124325355e-07
1.12136315257e-07
7.46317662212e-08
1.64654682663e-07
4.55471777319e-09
9.43916506411e-08
5.36541500085e-08
8.13176247591e-08
1.53488139402e-07
2.61541066584e-07
7.30254568549e-08
1.15224727078e-07
5.11686419962e-08
1.70546864697e-07
6.93649792676e-08
1.1686090791e-09
4.85493462588e-08
9.50976990658e-08
1.39638717068e-07
2.11113161378e-07
3.10576793567e-07
3.7504186906e-07
1.65263577316e-07
4.17088996768e-08
1.3690586149e-07
1.71295968117e-07
1.07657287103e-07
1.58093985126e-07
3.43866070088e-07
1.40215245981e-07
1.01743013956e-07
9.41849969277e-08
1.24242210316e-07
1.75443707113e-07
1.17127067047e-07
3.88915504283e-08
6.02791513931e-08
1.48878616905e-07
1.46635526914e-07
9.71999855764e-08
2.35510520489e-07
3.14893395114e-07
5.51159599271e-08
1.18845215467e-08
7.48187816531e-08
2.49782101851e-08
5.49004236189e-08
5.05145741741e-08
1.17715750801e-07
3.25005247104e-07
9.6542216261e-10
2.99219201852e-07
1.64950657564e-07
4.18286454891e-08
7.72209892277e-08
1.0903123191e-07
1.91052281374e-07
3.02813029812e-08
4.00077178604e-08
1.05672133663e-07
5.49389073488e-08
2.23379437795e-07
2.01312517784e-07
1.2307403128e-07
3.3202256096e-08
2.952338584e-08
2.57886537659e-08
6.20944414675e-08
6.8678970169e-08
1.2005202416e-07
2.84242942723e-08
1.43693360031e-07
3.65292212819e-08
3.51671864915e-08
5.81612032934e-08
3.77288925335e-08
1.83486681152e-08
3.62450093245e-08
8.25585345393e-08
1.04512939117e-07
1.25310884209e-08
1.81265515778e-07
7.0279726257e-07
9.07886094703e-08
1.6440737808e-07
1.68240389376e-07
7.59558684823e-08
8.29179817421e-08
5.70239063556e-07
8.39769452907e-08
2.61702699355e-08
1.09752715772e-07
7.86602274503e-08
5.75884411187e-08
3.46260725002e-08
9.05015940441e-08
1.01421505333e-07
1.05018591744e-08
1.47121578066e-07
9.71377389128e-08
8.46611706817e-09
3.46270147882e-08
5.39052859349e-08
2.16706169258e-08
5.06531441066e-08
1.18921339046e-07
7.63587848304e-08
2.2566788916e-07
8.25641327414e-08
7.89985235658e-08
6.42766211251e-08
1.13800820077e-07
6.64688623365e-08
1.50502113344e-07
5.05616061596e-08
1.44670942174e-08
1.27043342234e-07
3.5018706556e-07
2.22177038159e-07
6.61552997856e-09
3.53910495032e-07
2.22342009455e-07
5.26360592928e-07
6.626313967e-08
1.15674079276e-07
3.1623573638e-08
8.8668238711e-09
5.42419122648e-07
1.47738885468e-07
3.69648037873e-08
2.30931461141e-07
1.3226290572e-07
1.38037297335e-07
2.25259314999e-08
4.59610192284e-08
2.78726487283e-08
1.7007410075e-08
3.27657833128e-08
2.67412195681e-08
2.78215475352e-07
9.5720213423e-08
4.11898698204e-08
5.09671254458e-07
3.25103809267e-07
8.66782275846e-08
3.39563310368e-08
7.4555941666e-08
6.49317899382e-07
3.58764800613e-08
2.27333954521e-07
5.54096089452e-08
3.45494071607e-07
1.14913646113e-08
1.21717149754e-07
5.32325278816e-08
5.15826241838e-09
4.32678177522e-09
1.73081937529e-07
1.88100045561e-07

