# vtk DataFile Version 3.0
File Name: Molecule/sphere_cent/sphere_cent_0-s39.vtk
ASCII
DATASET UNSTRUCTURED_GRID
FIELD FieldData 1
TIME 1 1 double
0.0
POINTS 2721 double
-0.33025941253 0.91360527277 -0.23715914786
-0.25423043966 0.95075362921 -0.17648118734
-0.24709671736 0.92981547117 -0.27270245552
0.64386564493 0.49561581016 0.58291697502
0.59763276577 0.45641040802 0.65918046236
0.67627853155 0.40789160132 0.61301100254
-0.2580909133 0.36473658681 0.89462000132
-0.27543392777 0.28780430555 0.91692703962
-0.18774414062 0.29101622105 0.93810528517
0.1558021903 -0.10129459947 0.98258185387
0.17040868104 0.0061265425757 0.98532551527
0.084231816232 -0.039739824831 0.99529635906
0.51862406731 0.54201602936 0.66123956442
0.52352261543 0.46541872621 0.71365201473
0.6273650527 0.69587224722 -0.34947827458
0.69908827543 0.64499914646 -0.30861178041
0.66912126541 0.62343037128 -0.40451553464
0.45292595029 0.15566766262 -0.87782603502
0.36308893561 0.17415718734 -0.91531985998
0.40063303709 0.23524111509 -0.88554483652
0.31116300821 0.2452070266 -0.91795682907
0.13118854165 0.012920310721 -0.9912750721
0.046714458615 0.023263186216 -0.99854058027
0.090859636664 0.1027624011 -0.9905154705
0.58268469572 0.80818730593 0.08542791754
0.51805406809 0.85445916653 0.038858938962
0.5112208128 0.84931254387 0.13149872422
0.43384811282 0.7733502388 0.46226096153
0.38827583194 0.82484394312 0.41083866358
0.33916386962 0.80415517092 0.48809164762
0.084450535476 -0.071438968182 -0.99386054277
0.40572157502 0.85645073652 -0.31868126988
0.42327451706 0.87430566549 -0.23752421141
0.48880326748 0.82818382978 -0.27416300774
0.30462440848 0.0052038915455 -0.95245409012
0.38655909896 0.0058170715347 -0.92222630978
0.35531771183 -0.077986255288 -0.93148177862
0.32621392608 0.2588699162 0.90903443098
0.36328783631 0.16429273784 0.91707026958
0.41580304503 0.22531762719 0.88110303879
-0.13680949807 0.49757918715 -0.85655134916
-0.0885245502 0.41967302561 -0.90334779024
-0.19298610091 0.42090123892 -0.88630920649
-0.046927340329 0.5036624074 -0.86256754398
0.19595663249 0.8743776679 0.44372025132
0.14932231605 0.91637903452 0.3714120388
0.096667468548 0.88356918097 0.45820751786
0.051752686501 0.91781193018 0.39360052347
0.93046760559 -0.2236199975 -0.29012525082
0.9005907774 -0.25299093127 -0.35344606638
0.92053383589 -0.15972554684 -0.35653170943
0.10578095168 0.71448254585 0.69160574675
0.021147651598 0.68968808651 0.72379761934
0.095642060041 0.64263403416 0.76014512777
0.34631145 0.36923164129 0.86233222485
0.38368707895 0.42579486966 0.81943184137
0.29901456833 0.44159451127 0.84588116407
-0.064574092627 0.32924041152 -0.94202888012
0.019476192072 0.38917267323 -0.92094242573
0.23274703324 0.92102020979 0.3122856915
0.25820225477 0.88460129499 0.38824766874
-0.0036507768091 0.10432039201 -0.99453604221
-0.43949779868 -0.87745118141 -0.19214910269
-0.45442441106 -0.8826469779 -0.11824804544
-0.51673477888 -0.8386657238 -0.17143960297
-0.37298417091 -0.91548413038 -0.15062792599
-0.51813614368 -0.59037452936 0.61875069141
-0.47734245658 -0.54254168272 0.69120329618
-0.56290489435 -0.51632928848 0.64531171322
-0.071347169578 0.39206573367 0.91712290049
0.016074489802 0.41869854927 0.90797668695
-0.051424589008 0.49154338241 0.86931407452
0.70807391405 -0.46501484513 -0.53137117624
0.64685201645 -0.51102209091 -0.56605470181
0.67279666662 -0.43743628263 -0.59626591206
-0.59212559462 0.54123198986 0.59696233273
-0.57312363386 0.4786297977 0.66515123844
-0.51817673445 0.53826260567 0.66452753544
-0.35484087467 -0.90094476938 -0.24974770844
0.91450065374 -0.048347577453 0.401358217
0.88058286905 -0.034910142422 0.47253683209
0.88624340296 -0.11109641194 0.44968360662
0.43506714702 -0.62041407824 0.65247297287
0.36985781789 -0.6941383481 0.61754620075
0.44872757792 -0.66361308098 0.59831297398
0.11473199725 0.43019354343 0.89541405439
0.053083866835 0.4930408895 0.86838310957
0.14723813534 0.50950604677 0.84778392315
0.9030559063 0.038587167859 0.4276535213
-0.21688997746 0.62156277895 0.75251930952
-0.29456332326 0.63023877144 0.71821039915
-0.25305148959 0.58322238922 0.77163404226
0.41795444489 -0.70371091366 -0.57454526424
0.42032837868 -0.75874143839 -0.49761280417
0.34355151653 -0.75726795197 -0.555382967
0.85813885927 -0.087536662817 -0.50588798523
0.85494720936 -0.17551977932 -0.4881246984
0.81065219641 -0.16871775687 -0.56070035696
-0.72101944685 0.015359903686 0.69274681807
-0.6604526639 -0.046174362302 0.74944847822
-0.64696240425 0.053790517151 0.76060450077
-0.49702760577 0.45830526948 -0.73682278395
-0.58304011822 0.43146464229 -0.68841511011
-0.52993017435 0.52023404837 -0.66971945763
-0.65786206722 0.42486327887 -0.62173342705
-0.6068341136 0.50031501055 -0.61760729551
-0.70650833845 0.1226824075 0.6969846487
-0.51368755102 -0.026391111314 0.85756522417
-0.45623627305 -0.09144885838 0.88488405943
-0.42939424515 -0.012456113473 0.90292978287
-0.45583379269 0.87736058235 0.14979228377
-0.47907575965 0.84626609087 0.23308894038
-0.3895291388 0.89337277412 0.22396549582
-0.54260236025 0.82633280754 0.15082238615
-0.41807320714 0.85417205095 0.30919110775
-0.96224290133 0.22686091065 -0.14983560145
-0.95234572887 0.28985697031 -0.094992242754
-0.93614816666 0.30692476034 -0.17119769752
-0.96951216459 0.23955474794 0.051312822849
-0.98190134764 0.18817022443 -0.016425170004
-0.98677837849 0.14885520935 0.063725732267
-0.92062324286 0.375654459 -0.10611833632
-0.24462066591 -0.9628084898 -0.11469303817
-0.18619741499 -0.98094952106 -0.055181581527
-0.2651322186 -0.96343004704 -0.038349114358
-0.43708246946 -0.89578378201 0.080750957131
-0.38271266222 -0.91117423773 0.15261007845
-0.45467436314 -0.87670427561 0.1568801254
-0.55953335762 0.57234793901 -0.59947156906
-0.63636380434 0.56436866522 -0.52583283186
-0.65435892344 0.61787897348 -0.43584191799
-0.59103429317 0.64559340477 -0.48360106349
-0.20629496872 -0.42004302144 0.88373821974
-0.11623372883 -0.44044187665 0.89022314548
-0.14153634012 -0.36031478643 0.92186307907
-0.91899722815 -0.29387456179 0.26280295849
-0.88913398981 -0.37589207292 0.2609834969
-0.88079315424 -0.33384901285 0.33572602272
-0.82974952459 -0.53190428019 0.16870096326
-0.83074295521 -0.50071513653 0.24256342649
-0.87620908022 -0.44747704268 0.17892840505
-0.7805120945 -0.5172457695 0.35080254078
-0.75746142864 -0.48665624857 0.43519321084
-0.81147038937 -0.44328248501 0.38067886233
-0.94731777906 -0.27652770281 -0.16156457365
-0.95733392239 -0.20405724645 -0.20456114411
-0.92416512966 -0.28961807489 -0.24907024205
-0.71172392368 0.68263041973 0.16539746523
-0.69078212976 0.71729648113 0.089218825102
-0.75181508064 0.6537886858 0.085642285645
-0.72450870275 0.68922847509 0.0066664116457
-0.66489243507 0.74638438225 -0.021126493812
-0.7005546093 0.7097902894 -0.072543099523
-0.72553724051 0.5189820528 0.45180410147
-0.70006525517 0.59838807583 0.38964033127
-0.76047343016 0.52220660448 0.38586935401
-0.7393758893 0.60034894943 0.30434191227
-0.67601001263 0.66000503302 0.32759770751
-0.62189310789 0.67329609394 0.39991018176
-0.58082175255 0.74150341749 0.33586475253
-0.77239131927 0.59743124247 -0.21536506712
-0.81001198292 0.56593757868 -0.15360505879
-0.76488953829 0.62727850676 -0.14648133516
-0.8230907917 0.52211397886 -0.22325073183
0.024097276852 -0.72574788332 0.68754047155
-0.029995350167 -0.78596812487 0.61752521992
0.074776284397 -0.78707164526 0.61230880022
-0.16226622462 -0.8455632329 0.50860184431
-0.075601130724 -0.837030828 0.54191631079
-0.13800479472 -0.78628152609 0.60223919153
-0.23651883006 -0.7592933774 0.60618710518
-0.17569488287 -0.7236674428 0.66734367609
-0.081692188978 -0.73699200153 0.67084622383
-0.77360862494 0.56581562757 -0.28520905972
-0.85206663609 0.50493711233 -0.13742996752
0.48753112555 -0.79639744759 -0.35773080587
0.51360833645 -0.81362050772 -0.27242934704
0.42274472117 -0.85282343626 -0.30602392554
-0.6102913022 -0.62588024139 0.48498630524
-0.59310847521 -0.57692456245 0.56157189608
-0.67433398962 -0.55331605673 0.4889908731
-0.64665079117 -0.49704658985 0.578568995
-0.35500267148 -0.17344799638 -0.91863679886
-0.43119347095 -0.22983956337 -0.87248075008
-0.43767851591 -0.11862496287 -0.89124882221
-0.49379947782 -0.28318911791 -0.82211047411
-0.53545463085 -0.21457469463 -0.81662374735
-0.68608093262 -0.5296061039 -0.49879208207
-0.69402033091 -0.45100578666 -0.56118321419
-0.63102298975 -0.51734554768 -0.57806348801
-0.50558334589 0.85997664928 0.069468677044
-0.58875989914 0.80543810129 0.065910086036
-0.53267240524 0.84620469809 -0.013286307454
-0.4413292706 0.89731752872 -0.0061132591218
-0.62318366766 0.74240195751 0.24545440078
-0.5592468977 0.79311335087 0.24138982594
-0.62722444534 0.76265108585 0.15792363882
0.35520112514 -0.89467799664 0.2708683908
0.37107536197 -0.86237496138 0.34439510107
0.28302571177 -0.90582954884 0.31506600976
0.44444960356 -0.84953010082 0.28417789936
0.43150013685 -0.8153834343 0.38552829623
0.19698111713 -0.91221982241 0.35914433002
0.23499315977 -0.87309336662 0.42706939578
0.16884578764 -0.87739157677 0.44907703996
-0.10918232054 0.8792540431 -0.46344533563
-0.14667570591 0.90301889181 -0.40375971794
-0.072835467756 0.91389602423 -0.3993537724
-0.083397313952 0.94302386045 -0.32206937671
0.00020379060879 0.93015342951 -0.36712944508
-0.27088794112 0.042504072189 0.96165573597
-0.17583605647 0.074839182198 0.98137116432
-0.25182697177 0.13488577306 0.95829766989
0.29900890589 -0.9279640913 0.22158753872
0.39663097262 -0.89796859026 0.19063152373
-0.16540758312 0.33865702152 -0.92624616623
-0.52680522203 -0.65186941624 0.54528784752
-0.6346051693 -0.43731561303 -0.63721215725
-0.27619093657 0.6969897151 -0.66176503897
-0.20577764511 0.73968756199 -0.64070624113
-0.17285797 0.68776535988 -0.70493203402
-0.30463281274 -0.04970709607 0.9510062933
-0.22172483802 -0.038356829435 0.97409933805
-0.49821716547 0.80704057217 0.31695568562
-0.90649807453 -0.2012526691 -0.37107479572
-0.87820881605 -0.15609388053 -0.45203769207
[...]
CELL_DATA 5438
SCALARS cell_data_0 double
LOOKUP_TABLE default
3.65842248829e-09
2.8406980193e-09
3.10292923014e-09
3.44753411213e-09
3.24236994399e-09
3.19557767996e-09
1.34634773622e-10
4.55454421973e-12
3.47405435547e-10
2.31229370518e-09
1.58190319196e-09
1.26579574562e-09
6.96623825813e-10
1.97334453929e-10
5.16739966478e-09
4.04725293858e-09
9.24331761847e-12
2.30427934192e-09
2.54132708817e-10
1.44946369556e-09
1.89641581363e-09
5.55845935423e-10
5.35104904544e-09
7.6864585273e-09
1.66908359889e-10
2.30072023436e-09
6.91327130715e-10
3.12693385009e-10
3.83579948596e-09
8.48264788775e-10
3.28498359773e-09
2.92467425338e-09
3.47793418688e-10
8.14012487862e-10
1.23097275267e-09
3.91731232286e-10
2.20780905934e-09
1.45412174263e-09
2.96810124473e-09
1.51768784885e-10
2.44489284377e-09
3.1921739991e-10
1.19082886752e-09
2.02012069834e-09
4.70938707522e-09
1.1902069644e-09
1.02606463645e-09
1.60559342504e-10
2.94299440797e-09
1.65665030952e-09
7.80685777334e-10
1.81014268019e-10
1.52208036884e-09
3.52761371757e-09
4.44702570467e-09
2.87671906238e-09
1.20855210707e-09
4.85219138671e-10
3.05277245129e-09
8.5091153892e-10
2.6226923603e-09
2.73214604204e-10
3.87853482016e-09
6.7901895824e-10
2.44132127371e-09
2.63551203061e-10
5.59550203543e-10
3.36281725651e-09
2.05427945755e-11
1.21801865033e-09
2.61660813421e-09
2.83171026921e-09
2.39963988412e-09
2.88834441555e-09
2.25562504549e-09
3.59871196837e-09
2.47119815998e-09
2.07514198356e-10
1.30969134645e-10
2.56182894461e-09
1.3470936567e-09
1.80903579213e-10
1.73679596259e-09
7.86867984124e-09
4.94284392314e-09
3.68143237909e-09
1.06237259782e-09
4.28900705446e-09
5.59624918061e-09
9.27318962417e-10
2.4313954474e-09
3.02843722764e-09
3.19704573582e-09
6.1934336077e-10
6.38252865405e-09
1.16111984597e-11
2.67308715448e-09
1.11538013824e-09
2.1078360118e-09
7.48775544413e-09
2.3603931529e-09
3.77382663169e-09
3.85613557711e-09
7.64225025022e-10
2.48716996491e-09
4.30292199937e-09
2.92059576847e-09
3.69036145286e-09
2.04146902005e-09
5.1544419032e-10
6.61579773623e-10
5.77252706532e-09
4.14545547937e-11
3.45015471075e-09
6.26947242333e-09
2.2481725815e-09
4.44892098667e-09
7.59498895817e-09
3.94417483696e-09
3.03785508436e-09
1.05080197243e-09
6.01974553978e-09
9.07892787574e-10
2.7298028794e-09
3.51488842384e-09
1.50645616902e-09
3.31243202925e-09
3.96702229416e-09
5.64482424747e-10
4.4337169043e-09
7.11066418529e-09
6.4843052098e-09
1.61120931599e-09
1.81641909512e-09
1.55405643802e-09
2.52381754959e-09
1.03650846177e-09
9.16329093525e-10
4.58975227528e-09
1.53312676679e-09
2.12432543782e-09
4.96745312098e-09
5.48892147252e-09
2.62302319944e-09
3.83973979354e-09
6.7474122503e-10
3.52854039989e-09
2.82998932953e-09
3.18747476843e-09
1.27766444052e-09
1.46373242288e-09
5.46340531749e-09
4.7125339011e-09
6.18198073131e-09
1.69615361281e-09
6.47962543848e-09
2.69324454325e-09
1.42382212887e-09
5.30543018593e-09
3.68512162764e-10
3.83281958633e-09
2.31668407332e-09
5.40647833635e-10
6.36148700234e-09
6.16044467934e-09
4.7954185619e-09
2.16357561003e-09
1.9024963936e-09
3.05122351034e-09
2.41326840049e-09
1.83244504087e-09
3.8238698458e-09
2.24831237819e-09
5.52539835596e-09
5.26512732785e-09
2.90207872241e-09
1.60110933921e-09
3.86452352556e-09
1.71500838325e-09
3.70703171929e-09
5.57290266566e-10
2.46049564737e-09
6.31631381297e-10
4.25066902292e-09
1.85369877492e-09
3.77625277672e-09
3.10904723433e-09
5.94811169194e-09
1.00657665257e-09
1.29751840712e-09
1.00753047198e-09
1.20412068677e-09
2.29827787187e-09
1.59363305949e-09
2.82353203309e-09
3.36253843278e-09
4.57708854919e-10
2.47227768788e-09
8.20490924801e-10
1.46549414651e-09
2.64799363473e-09
2.47621181011e-09
5.74897849889e-09
8.12964471807e-10
7.02558584718e-09
2.36299480467e-09
2.95180273941e-09
2.34309178963e-09
1.79947152566e-09
2.41417702104e-09
9.02349754987e-10
3.67409700161e-09
7.87497546195e-09
2.31283274449e-10
2.33057632411e-09
1.56295727777e-09
8.90347020951e-10
1.95058588695e-09
2.16737684075e-10
3.70853341671e-09
4.59492802487e-09
2.29864519279e-09
7.68238954394e-10
3.66981366366e-09
1.69957523617e-10
2.55730307403e-09
1.72335356209e-10
6.53881268601e-10
2.3523789884e-10
1.17141763175e-09
2.40452213334e-09
7.45996507067e-10
4.01002255923e-10
6.0150009125e-11
2.94921360211e-09
1.11488880286e-09
1.01090834356e-09
2.79039764146e-09
2.40566954764e-09
2.08594372156e-10
2.14217112467e-09
8.73125849201e-10
3.14708520333e-09
2.268214999e-09
2.21760522534e-10
1.30091977285e-09
4.97879826157e-09
1.27952287136e-09
4.49286539497e-09
6.02335312125e-09
4.86379977228e-09
8.12362928065e-10
2.8711829124e-09
5.44318451443e-09
4.61479856814e-09
3.50064687685e-09
4.52211845508e-09
4.54167105975e-09
5.37619347888e-09
3.02077077901e-09
4.10788104757e-09
1.86044382284e-09
2.18606125499e-09
2.30279071438e-10
1.90707453937e-09
2.68907123365e-09
2.4971643714e-09
8.98550423392e-10
1.41808127564e-09
7.98923753143e-09
1.60013166146e-09
1.40680814398e-09
5.87030595796e-09
4.73129202097e-09
8.80254677426e-10
3.61003689236e-10
3.75776547748e-10
1.76054203068e-09
3.43137629616e-09
2.99420289849e-09
4.8947247567e-09
1.10335550537e-09
2.18153991632e-09
8.01041985508e-10
8.96920369402e-10
8.26038066053e-10
1.73342670073e-09
4.37677365787e-10
6.4598671854e-10
2.70215514803e-09
4.54826317013e-10
1.04369448568e-09
3.87708514942e-09
3.04911173678e-09
1.77696724539e-09
1.40949987577e-09
1.31050568904e-09
5.46086296194e-09
1.80177636495e-09
1.46714613535e-09
1.96647087898e-09
6.92880504476e-10
2.54917179588e-09
4.41885303159e-09
2.62890293371e-09
4.52177974201e-10
2.35219985051e-09
1.14511537718e-10
2.01394999705e-09
1.62791150606e-09
2.61394572645e-09
4.55803391187e-09
3.64790093169e-09
4.34693263502e-09
6.20386496643e-09
6.41586244266e-09
4.32613125987e-09
2.54801215231e-09
1.81497764501e-09
1.38358168066e-09
1.48965175017e-09
4.02431202328e-09
1.08634330399e-09
3.99595382343e-09
3.50699236106e-09
1.58515904422e-09
3.96921758367e-09
6.14759453298e-09
5.73245641889e-09
1.75032590653e-10
4.41160123382e-10
1.40119283349e-09
2.39915172014e-09
3.07200782394e-10
8.81850186352e-10
2.73015299513e-09
4.34551611478e-11
3.02473796642e-09
3.14399896956e-09
1.17015982526e-11
3.03495858855e-09
1.11587352204e-09
3.60045925632e-09
1.48076073982e-09
1.44211812002e-09
1.36392287249e-09
1.65818749089e-09
1.94969779871e-09
2.2665237309e-09
1.86143646823e-09
1.24093259832e-09
8.38532487546e-10
8.45078380661e-10
6.54898870008e-10
2.4673103202e-09
3.81491493825e-09
1.24035665319e-09
3.26292834406e-09
6.79952068002e-10
1.71759499002e-09
1.41051400398e-09
1.77231929303e-09
1.19430942237e-09
2.64875688011e-10
2.16592745491e-10
3.47793319618e-09
1.60800300358e-09
1.26781793414e-10
3.46036516577e-09
2.23358520208e-09
1.0675433467e-09
1.93403099973e-09
9.9880905925e-10
2.75836308627e-09
5.66308209574e-10
2.30819235727e-09
1.60327606117e-09
7.18818351779e-10
1.0161540989e-09
4.40235667483e-09
5.55587483767e-10
2.65051201199e-09
2.63416743965e-09
6.23835258469e-10
2.56487466359e-10
2.62691206687e-09
2.0376295571e-09
1.50507139482e-09
2.28092298528e-10
3.0470308414e-09
2.85164716067e-09
1.40323088856e-09
1.89162854137e-09
4.53490154442e-09
8.37086523508e-10
1.29029642988e-09
3.65847685968e-09
2.12947321524e-09
3.57075570001e-10
2.8852598292e-09
3.95960666155e-10
4.55359393042e-09
2.92764308327e-09
7.17011637575e-10
2.09998822634e-09
2.06964075756e-09
2.38509260944e-10
1.20329970853e-09
1.1851921367e-09
3.99121860794e-09
3.06995142133e-09
3.0830351701e-09
3.43720743407e-09
4.42138379557e-10
1.19975269386e-09
6.34793449729e-09
1.90100109139e-09
2.60397446481e-09
2.18333793377e-09
6.16868845932e-10
3.82673671733e-10
1.19159920599e-09
3.84671370694e-09
5.50831344496e-11
1.28435314743e-09
5.52349159837e-09
1.73288266558e-09
3.03389873476e-09
9.92365845133e-10
2.7402139265e-09
9.27214218811e-09
2.51657021097e-09
3.88066635052e-09
2.53364524939e-09
6.57929774519e-10
3.85950182332e-09
5.15708151466e-10
5.45564098867e-10
3.16978346969e-11
5.70088385467e-09
2.56920990134e-09
1.07766110103e-10
3.82214931597e-09
9.23613560545e-11
2.5457349805e-09
5.3793517171e-10
1.20320763966e-09
1.90776205018e-09
1.15119804778e-09
1.89459182883e-09
1.91289381498e-09
1.50978449334e-09
4.76956813488e-10
3.88388364505e-09
7.93564767164e-10
1.82992400536e-09
8.43826172516e-10
1.5945462426e-09
3.75999935964e-09
3.34655121226e-10
2.35827542893e-09
1.27367600635e-09
1.92863934517e-09
3.2619999589e-09
1.13438360711e-09
1.77753683789e-10
1.04604815276e-09
1.4123445136e-10
1.06761975183e-09
1.06335745363e-09
2.50417166748e-09
9.23058623877e-10
3.47545381723e-10
7.30851343779e-09
1.33738665759e-09
3.05054999749e-09
8.73431422403e-11
2.65809358092e-09
5.80052077596e-10
3.15623033093e-09
2.35398487084e-09
7.12062609484e-09
1.03532040291e-09
4.91862658602e-09
3.87466334034e-09
1.13986066007e-09
4.69079779579e-09
2.20731531322e-09
3.78222033363e-09
1.55719783888e-09
3.26482522417e-09
2.80532333696e-09
4.34101471157e-09
2.8263729214e-09
2.20964315262e-09
1.34578500508e-09
8.96400565529e-10
1.13068799091e-09
2.6141856078e-09
2.21180892621e-10
1.55315338444e-09
2.97426678724e-09
1.13632185879e-09
6.87726657561e-11
1.58774594904e-09
2.7103787382e-09
2.68888591626e-09
6.59982686904e-10
3.6950080287e-09
4.16863662336e-09
8.07929847101e-10
1.11280727157e-09
1.2198403927e-09
1.11542461996e-09
1.93511769408e-09
3.80975315916e-09
1.25530652957e-09
3.75530183304e-09
1.7080823417e-09
1.68672829018e-09
2.01510500595e-10
3.91934337767e-10
2.04785336418e-09
1.16517552331e-09
1.84627538356e-09
3.76810839413e-09
2.39803137134e-09
6.19688533483e-10
1.55469089973e-09
8.8594302461e-10
1.46334932524e-09
1.18717300242e-09
3.12035542907e-09
3.65974526157e-09
1.09786066101e-09
2.37075642459e-09
1.48981953336e-09
2.16723389349e-09
5.91705591775e-10
1.84342308274e-09
4.02643055518e-10
2.11711848692e-09
3.06339450343e-10
3.02034424701e-09
2.68131758995e-09
4.43510487227e-10
3.15701114883e-09
1.37698153515e-09
8.13181284811e-10
1.74892513874e-09
1.84403394279e-09
4.60721156059e-10
8.3711187875e-10
4.224028848e-09
2.32665969363e-09
2.05651976921e-10
3.29512668343e-10
1.55090213731e-09
1.05434806506e-09
1.48441351166e-09
2.01530883421e-09
5.97619501963e-10
1.61647638877e-09
8.5322748743e-10
7.74933107807e-10
1.3291391787e-09
2.74969017534e-09
2.68857306695e-09
3.57061636091e-09
1.83153233497e-09
2.09298514214e-09
1.08001715831e-09
3.1687194667e-10
3.60364105297e-10
4.9144035122e-10
2.196782129e-09
3.60795447621e-09
1.05444460554e-09
3.09096559798e-09
2.66497407626e-09
2.09858482176e-09
2.35067070004e-10
1.42870542104e-10
8.00395727554e-10
2.66706075084e-09
3.99725382898e-09
2.41261439332e-10
5.24229844571e-11
1.63429794022e-09
2.20478094343e-09
1.10870903727e-10
1.39397224083e-09
3.57176761437e-10
3.22426991534e-09
8.1054718745e-12
1.94282212918e-09
3.32833459078e-09
1.64185723433e-09
3.99995835799e-09
2.40996864944e-10
7.56563296858e-10
6.91702750581e-09
1.51150132948e-10
2.87955471242e-10
3.08879348688e-09
3.57034710343e-09
3.8516752149e-09
2.52108916558e-10
1.05611910366e-10
1.27111019784e-09
1.00628868701e-09
9.05450707264e-10
1.21832304479e-09
1.4834678635e-09
1.54151663475e-09
7.07023659282e-10
4.55435527982e-10
6.78233019128e-10
3.81628954763e-09
1.02094746411e-09
6.13055734397e-10
1.55256082422e-09
2.31704826103e-09
2.46690902708e-09
9.24181857072e-10
3.84237516449e-09
1.63793917965e-09
2.516713145e-09
4.66692725488e-10
2.00327468912e-09
3.13120879497e-10
2.22328850165e-09
4.5232543285e-09
2.91583859919e-09
3.94859985491e-09
6.45115607843e-10
4.4327096919e-09
3.65636754472e-09
2.8413516146e-09
7.65701933803e-10
7.68617755876e-10
2.29914679336e-09
3.31535717709e-09
1.06049520714e-09
5.17962413619e-09
1.26509345679e-09
2.18393162518e-09
1.28700359047e-09
5.97702128175e-10
8.57144418978e-10
9.719780557e-10
1.94237023984e-09
5.23632987475e-10
1.80838066177e-09
3.57135526405e-09
2.13138048474e-09
4.50459940696e-09
1.16181929584e-09
3.82926473765e-09
1.96467469254e-09
1.86880096633e-09
4.1781335008e-09
5.40643174422e-10
6.82630981984e-10
1.11533764247e-09
1.69196763037e-09
8.00202491645e-10
2.42534555537e-09
9.03249812072e-10
1.7162163198e-09
2.40992839598e-10
1.25514201576e-09
1.94680089687e-09
6.20217549547e-10
2.79063917497e-10
1.89441566069e-09
2.03766739185e-09
3.93666230478e-10
1.34082463728e-09
3.14935419491e-09
8.75067451423e-10
3.78715639787e-09
1.00658513733e-09
2.17315838937e-09
1.9220251736e-09
8.85446488158e-10
1.56558706239e-09
1.34506435172e-09
4.27128539391e-10
6.27785021273e-10
6.84322029013e-10
1.59955515196e-09
1.17935585384e-09
2.37100110176e-10
1.89234588375e-09
6.29385254269e-09
1.42822651863e-09
3.38717459711e-09
6.67623964685e-09
9.65751316151e-10
1.87674562568e-10
9.9596629714e-10
5.14896241074e-09
3.8682289505e-09
3.03638329345e-09
2.09147284024e-09
8.04492948888e-10
9.3672680809e-10
1.49205395752e-09
2.67319765701e-09
1.50004208842e-09
8.46619539099e-10
4.91920046269e-10
1.99772520948e-09
3.43310350034e-10
2.59936979069e-09
1.01609461624e-09
1.3907876603e-09
1.76190288774e-09
9.36454296938e-11
2.6561129029e-10
3.49751970992e-10
2.18783492046e-09
1.64106188558e-09
1.15347894882e-09
6.6019309122e-10
1.41024970107e-09
2.15495684974e-09
1.86934372322e-09
1.11434788718e-09
1.96695975569e-09
1.50503382484e-09
4.2419846409e-09
5.74021977913e-10
3.38012496066e-09
1.66322693804e-09
1.25009140481e-09
2.93931915532e-10
1.26199436104e-10
1.54843671044e-09
3.48971665012e-09
1.90847785893e-09
1.62687923583e-09
4.08047390454e-09
1.27996227739e-09
1.85731746413e-09
9.00035777974e-10
7.29847616171e-10
7.93250593419e-11
7.73905640793e-10
2.74959192892e-09
3.13027352012e-10
2.01806886918e-10
4.88185972462e-11
1.07062724443e-09
1.85150259793e-09
4.00662642929e-10
1.65003187504e-09
1.57344171775e-09
5.81188615195e-10
1.06242029155e-09
9.97048496249e-10
1.07727704956e-09
2.14130946064e-09
2.97881434279e-09
6.29528301766e-10
1.48433445581e-09
5.18529861078e-11
1.95737081038e-10
1.42530001796e-09
8.15716534489e-10
1.98422742168e-09
1.0014803761e-09
2.17589672994e-09
1.3325463938e-09
8.46476611693e-10
1.08646468849e-09
1.88236827429e-09
4.70836326046e-09
4.92777607831e-09
2.11926011945e-09
3.93409001573e-09
6.22388235173e-10
2.48107838931e-09
1.10709141261e-09
1.59285966659e-09
1.68156731387e-10
6.19032330903e-10
1.21248081634e-09
7.37286375552e-10
1.61329986797e-09
1.60503605941e-09
2.14113820912e-09
1.02722037617e-09
1.37700226677e-09
7.73367115121e-10
1.30510415774e-09
6.30754704231e-10
2.34519237034e-10
1.98449552579e-09
2.21596206159e-09
1.3239035457e-09
1.0144839442e-09
1.10554542859e-10
1.95879579802e-09
2.31868403798e-09
7.80313177101e-09
2.17234295839e-10
6.25569130149e-10
1.70775492788e-09
1.02194048282e-10
2.08744133802e-09
1.21970991959e-09
3.73774237303e-10
1.50070731547e-09
6.48746812549e-10
5.45289858062e-10
6.56444052764e-10
7.50236208149e-11
1.63226362123e-09
2.41130846767e-10
1.99781339368e-10
4.69452855453e-10
2.02545212571e-09
5.39844366539e-10
1.23813041963e-09
5.01788832263e-09
1.62453896091e-09
1.85855658413e-09
1.06330615684e-09
1.11751550974e-09
4.48056078617e-10
1.17985453138e-09
1.31596328873e-09
6.72456420512e-09
3.14110529914e-10
1.13200349359e-09
2.00431108348e-10
9.86064082824e-10
7.00112419802e-10
3.08376415167e-09
2.84293524816e-09
4.00618338293e-10
5.00778688316e-09
8.04911943273e-10
1.39914430914e-09
2.75833722905e-09
1.29805971119e-09
1.90106616372e-09
2.05384638249e-10
6.0846852581e-10
2.52429608504e-09
1.31982969267e-09
8.92437459065e-10
1.01477244747e-09
1.6266744376e-09
6.95751635517e-10
2.27544651933e-09
4.44411305382e-09
1.10349704514e-09
7.45675056155e-10
7.51088260778e-10
3.92079179526e-10
1.33780648096e-09
1.58741292386e-09
2.67124354317e-09
1.2496146597e-10
5.75273287292e-11
2.83037667218e-09
4.94024106628e-10
1.1793603699e-09
3.66620446034e-10
2.52108723658e-09
2.38573337914e-09
3.48248746008e-09
8.68414614647e-10
2.3312725242e-09
1.48611473502e-09
1.19102781514e-09
1.76888752742e-09
4.83331280288e-10
3.47599059445e-10
1.82271728852e-09
1.59678759138e-09
2.93594216175e-10
5.02495274853e-10
5.43761619817e-10
2.55709193174e-09
6.12797493095e-10
1.80290187414e-09
1.03590120355e-09
3.1780298674e-10
7.95502425931e-10
4.14027631505e-10
1.93702214159e-09
1.67952052131e-09
2.29325802475e-09
3.21869012191e-09
1.94649017337e-09
1.28581805176e-10
5.3817067235e-09
2.92758525775e-09
1.04775068637e-09
1.48985374685e-09
7.18689396802e-10
7.28714479433e-09
3.3642386642e-09
4.04828983121e-09
1.72814255468e-10
2.46498231336e-09
2.65522910289e-09
3.39808601047e-09
3.59965488178e-11
3.61302162394e-09
3.21447308051e-10
1.17333855242e-09
1.6827683277e-09
1.27069359915e-09
7.42297184142e-11
2.6084934085e-09
8.05101595353e-11
8.38232557816e-11
1.05269002688e-09
9.13221216838e-11
4.04687707068e-09
3.22497888251e-09
1.12728594401e-09
1.64259853111e-10
1.51441805534e-09
1.65023347131e-09
2.68576390942e-09
2.41052831612e-09
5.29796218398e-10
1.18397960482e-09
2.57569606384e-09
6.23609759381e-10
3.22686644177e-09
1.62614984405e-09
1.21985433909e-09
9.37831662491e-11
4.29541554986e-10
4.53543913702e-10
1.3307551511e-09
2.48962312688e-09
6.10937163592e-10
1.4988437604e-09
4.20528625109e-10
3.75425427228e-09
3.40829348202e-09
3.06630816764e-10
8.9527569262e-10
1.39688343085e-10
6.68114517699e-10
1.00788901391e-10
1.07230886707e-09
2.46272285975e-09
3.51886444513e-09
3.03894793663e-09
2.28919895414e-09
2.55014129179e-09
1.31215456179e-10
1.90258637103e-09
3.04051079563e-09
5.68639002013e-10
1.25352987429e-09
2.73118760438e-10
3.47958002235e-09
2.23005594388e-09
3.33260013241e-09
3.23599457204e-09
1.13933982801e-09
4.14041769933e-11
8.94203116123e-10
5.97692979769e-10
7.52366508506e-10
5.89777983983e-09
4.01305000035e-09
4.23502110294e-09
1.41795010742e-09
3.20231056608e-09
7.19727269212e-10
1.77088728955e-10
1.62081100175e-09
6.67352854826e-10
6.24379212218e-10
5.84825234259e-11
7.8798226023e-10
3.25910742042e-10
1.41171350903e-09
4.57254710304e-10
7.14580527257e-10
2.63233743506e-10
3.51553798915e-11
2.87575019406e-10
5.80923576812e-10
4.29420282902e-10
4.95491186243e-10
1.83506112529e-10
2.07162073797e-09
1.63732697299e-09
3.71559824734e-09
4.21814768924e-09
6.7040209603e-10
4.27298196645e-09
5.44643671019e-10
1.48732708472e-09
4.25232627387e-09
4.42349658169e-09
3.40865909949e-10
3.86951349357e-10
6.72947441431e-10
1.49697427474e-09
4.09277709474e-10
1.84346662722e-09
1.51033451857e-09
4.49080223168e-09
7.90016791934e-10
6.07036780024e-10
7.5161718615e-10
1.6716171713e-10
2.66784411094e-09
3.47362852339e-09
2.53008804959e-09
1.95332373372e-10
6.04363272345e-11
6.5652721248e-10
1.30941806324e-09
9.8846709088e-10
1.72887462418e-09
1.83201978511e-09
2.30753083412e-10
1.1898630286e-09
1.88812410308e-09
2.49959150199e-09
2.85110613711e-11
1.88024738304e-09
9.05997977373e-10
3.83054868699e-10
1.7565521629e-10
1.96252123376e-09
5.46293242458e-10
1.51184553698e-09
1.33367429527e-09
8.2814938966e-10
1.01087646062e-09
2.258064399e-09
5.52073731545e-11
2.57485649081e-09
1.28137166703e-09
3.85894398616e-10
3.12000546653e-09
1.06469880371e-10
6.93866241036e-09
6.63725503456e-10
4.13300789464e-10
6.08993508408e-10
2.00942173272e-09
5.9837468367e-10
2.57324706702e-10
1.98314835524e-09
2.21395900011e-09
1.36577263396e-10
6.0142690116e-10
1.10667639348e-09
2.07303294609e-09
1.9566459317e-09
3.01798285431e-10
1.48888172958e-09
1.64648628249e-09
1.18088829332e-10
8.98641210807e-10
2.215152315e-09
3.43699580416e-10
2.10169115766e-09
3.17532707781e-11
5.66943268344e-10
1.57732182114e-09
1.24720575446e-10
4.43687134067e-09
1.76681672792e-09
1.30356755561e-09
1.54128379881e-09
1.43146840144e-09
2.02465353939e-09
6.58301370275e-10
1.89969730339e-09
2.15021408809e-09
1.45649242251e-09
2.50338399614e-10
2.36991669428e-10
1.20805646744e-10
4.37437960237e-11
1.94240540908e-13
2.13468493124e-09
1.67176348466e-09
3.75726701178e-11
1.3441669508e-09
6.93820190846e-10
3.10704015583e-09
2.18459861143e-09
2.32182181777e-09
5.25925692593e-10
1.80913368849e-09
2.58345039002e-09
8.99021977405e-10
7.19315651013e-10
3.24250433294e-10
1.08537983849e-09
5.26109396086e-12
5.95962087911e-10
3.57667886139e-10
3.31543261695e-10
2.15289372156e-09
1.30374868155e-09