# vtk DataFile Version 3.0
File Name: Molecule/methanol/methanol_6.25-0.vtk
ASCII
DATASET UNSTRUCTURED_GRID
FIELD FieldData 1
TIME 1 1 double
0.0
POINTS 296 double
1.611 0.0 -0.359
1.554 -0.436 -0.353
1.403 0.0 -0.933
1.351 -0.397 -0.928
1.386 -0.842 -0.336
1.198 -0.767 -0.912
1.12 -1.191 -0.31
0.956 -1.085 -0.888
0.773 -1.459 -0.275
0.639 -1.329 -0.857
0.368 -1.627 -0.235
0.271 -1.482 -0.82
-0.065 -1.684 -0.192
-0.124 -1.534 -0.781
-0.499 -1.627 -0.149
-0.519 -1.482 -0.741
-0.903 -1.459 -0.108
-0.887 -1.329 -0.705
-1.251 -1.191 -0.074
-1.204 -1.085 -0.673
-1.517 -0.842 -0.047
-1.446 -0.767 -0.649
-1.684 -0.436 -0.031
-1.599 -0.397 -0.634
-1.742 0.0 -0.025
-1.651 0.0 -0.629
-1.684 0.436 -0.031
-1.599 0.397 -0.634
-1.517 0.842 -0.047
-1.446 0.767 -0.649
-1.251 1.191 -0.074
-1.204 1.085 -0.673
-0.903 1.459 -0.108
-0.887 1.329 -0.705
-0.499 1.627 -0.149
-0.519 1.482 -0.741
-0.065 1.684 -0.192
-0.124 1.534 -0.781
0.368 1.627 -0.235
0.271 1.482 -0.82
0.773 1.459 -0.275
0.639 1.329 -0.857
1.12 1.191 -0.31
0.956 1.085 -0.888
1.386 0.842 -0.336
1.198 0.767 -0.912
1.554 0.436 -0.353
1.351 0.397 -0.928
1.907 0.0 0.656
1.859 0.42 0.656
1.859 0.21 1.019
1.859 -0.21 1.019
1.859 -0.42 0.656
1.859 -0.21 0.292
1.859 0.21 0.292
1.72 0.709 1.065
1.72 0.409 1.365
1.72 -0.0 1.475
1.72 -0.409 1.365
1.72 -0.709 1.065
1.72 -0.819 0.656
1.72 -0.709 0.246
1.72 -0.409 -0.054
1.72 -0.0 -0.163
1.72 0.409 -0.054
1.72 0.709 0.246
1.72 0.819 0.656
1.495 1.106 1.058
1.495 0.902 1.412
1.495 0.588 1.675
1.495 0.204 1.815
1.495 -0.204 1.815
1.495 -0.588 1.675
1.495 -0.902 1.412
1.495 -1.106 1.058
1.495 -1.177 0.656
1.495 -1.106 0.253
1.495 -0.902 -0.101
1.495 0.902 -0.101
1.495 1.106 0.253
1.495 1.177 0.656
1.196 1.416 1.071
1.196 1.241 1.453
1.196 0.966 1.771
1.196 0.613 1.998
1.196 0.21 2.116
1.196 -0.21 2.116
1.196 -0.613 1.998
1.196 -0.966 1.771
1.196 -1.241 1.453
1.196 -1.416 1.071
1.196 -1.476 0.656
1.196 -1.416 0.24
1.196 1.416 0.24
1.196 1.476 0.656
0.838 1.651 1.063
0.838 1.506 1.446
0.838 1.273 1.783
0.838 0.966 2.055
0.838 0.603 2.246
0.838 0.205 2.344
0.838 -0.205 2.344
0.838 -0.603 2.246
0.838 -0.966 2.055
0.838 -1.273 1.783
0.838 -1.506 1.446
0.838 -1.651 1.063
0.838 -1.701 0.656
0.838 -1.651 0.249
0.838 1.651 0.249
0.838 1.701 0.656
0.439 1.794 1.065
0.439 1.658 1.454
0.439 1.439 1.803
0.439 1.147 2.094
0.439 0.798 2.314
0.439 0.409 2.45
0.439 0.0 2.496
0.439 -0.409 2.45
0.439 -0.798 2.314
0.439 -1.147 2.094
0.439 -1.439 1.803
0.439 -1.658 1.454
0.439 -1.794 1.065
0.439 -1.84 0.656
0.439 -1.794 0.246
0.439 1.794 0.246
0.439 1.84 0.656
0.019 1.843 1.061
0.019 1.713 1.448
0.019 1.503 1.798
0.019 1.222 2.094
0.019 0.884 2.323
0.019 0.505 2.474
0.019 0.102 2.54
0.019 -0.305 2.518
0.019 -0.699 2.409
0.019 -1.059 2.218
0.019 -1.37 1.954
0.019 -1.617 1.629
0.019 -1.789 1.258
0.019 -1.876 0.86
0.019 -1.876 0.452
0.019 -1.789 0.053
0.019 1.843 0.25
0.019 1.888 0.656
-0.401 1.84 0.656
-0.401 1.794 1.065
-0.401 1.658 1.454
-0.401 1.439 1.803
-0.401 1.147 2.094
-0.401 0.798 2.314
-0.401 0.409 2.45
-0.401 0.0 2.496
-0.401 -0.409 2.45
-0.401 -0.798 2.314
-0.401 -1.147 2.094
-0.401 -1.439 1.803
-0.401 -1.658 1.454
-0.401 -1.794 1.065
-0.401 -1.84 0.656
-0.401 -1.794 0.246
-0.401 1.794 0.246
-0.8 1.701 0.656
-0.8 1.651 1.063
-0.8 1.506 1.446
-0.8 1.273 1.783
-0.8 0.966 2.055
-0.8 0.603 2.246
-0.8 0.205 2.344
-0.8 -0.205 2.344
-0.8 -0.603 2.246
-0.8 -0.966 2.055
-0.8 -1.273 1.783
-0.8 -1.506 1.446
-0.8 -1.651 1.063
-0.8 -1.701 0.656
-0.8 -1.651 0.249
-0.8 1.651 0.249
-1.158 1.476 0.656
-1.158 1.416 1.071
-1.158 1.241 1.453
-1.158 0.966 1.771
-1.158 0.613 1.998
-1.158 0.21 2.116
-1.158 -0.21 2.116
-1.158 -0.613 1.998
-1.158 -0.966 1.771
-1.158 -1.241 1.453
-1.158 -1.416 1.071
-1.158 -1.476 0.656
-1.158 -1.416 0.24
-1.158 1.416 0.24
-1.457 1.177 0.656
-1.457 1.106 1.058
-1.457 0.902 1.412
-1.457 0.588 1.675
-1.457 0.204 1.815
-1.457 -0.204 1.815
-1.457 -0.588 1.675
-1.457 -0.902 1.412
-1.457 -1.106 1.058
-1.457 -1.177 0.656
-1.457 -1.106 0.253
-1.457 1.106 0.253
-1.682 0.819 0.656
-1.682 0.709 1.065
-1.682 0.409 1.365
-1.682 -0.0 1.475
-1.682 -0.409 1.365
-1.682 -0.709 1.065
-1.682 -0.819 0.656
-1.682 -0.709 0.246
-1.682 0.709 0.246
-1.821 0.42 0.656
-1.821 0.21 1.019
-1.821 -0.21 1.019
-1.821 -0.42 0.656
-1.821 -0.21 0.292
-1.821 0.21 0.292
-1.868 -0.0 0.656
1.21 -0.665 -1.121
0.966 -1.003 -1.153
0.966 -0.768 -1.505
1.21 -0.384 -1.402
0.966 -0.415 -1.74
1.21 -0.0 -1.505
0.966 0.0 -1.823
0.966 0.415 -1.74
1.21 0.384 -1.402
0.966 0.768 -1.505
1.21 0.665 -1.121
0.966 1.003 -1.153
0.648 -1.264 -1.148
0.648 -1.075 -1.519
0.648 -0.781 -1.813
0.648 -0.411 -2.001
0.648 0.0 -2.067
0.648 0.411 -2.001
0.648 0.781 -1.813
0.648 1.075 -1.519
0.648 1.264 -1.148
0.278 -1.36 -1.328
0.278 -1.15 -1.673
0.278 -0.855 -1.949
0.278 -0.497 -2.134
0.278 -0.101 -2.216
0.278 0.302 -2.189
0.278 0.682 -2.054
0.278 1.012 -1.821
0.278 1.267 -1.508
0.278 1.428 -1.137
-0.12 -1.483 -1.134
-0.12 -1.329 -1.505
-0.12 -1.085 -1.823
-0.12 -0.768 -2.067
-0.12 -0.397 -2.22
-0.12 -0.0 -2.272
-0.12 0.397 -2.22
-0.12 0.767 -2.067
-0.12 1.085 -1.823
-0.12 1.329 -1.505
-0.12 1.483 -1.134
-0.517 -1.36 -1.328
-0.517 -1.15 -1.673
-0.517 -0.855 -1.949
-0.517 -0.497 -2.134
-0.517 -0.101 -2.216
-0.517 0.302 -2.189
-0.517 0.682 -2.054
-0.517 1.012 -1.821
-0.517 1.267 -1.508
-0.517 1.428 -1.137
-0.887 -1.264 -1.148
-0.887 -1.075 -1.519
-0.887 -0.781 -1.813
-0.887 -0.411 -2.001
-0.887 0.0 -2.067
-0.887 0.411 -2.001
-0.887 0.781 -1.813
-0.887 1.075 -1.519
-0.887 1.264 -1.148
-1.205 -1.003 -1.153
-1.205 -0.768 -1.505
-1.205 -0.415 -1.74
-1.205 0.0 -1.823
-1.205 0.415 -1.74
-1.205 0.768 -1.505
-1.205 1.003 -1.153
-1.449 -0.665 -1.121
-1.449 -0.384 -1.402
-1.449 -0.0 -1.505
-1.449 0.384 -1.402
-1.449 0.665 -1.121
-1.602 -0.199 -1.081
-1.602 0.199 -1.081

CELLS 588 2352
3 0 1 2
3 2 1 3
3 1 4 3
3 3 4 5
3 4 6 5
3 5 6 7
3 6 8 7
3 7 8 9
3 8 10 9
3 9 10 11
3 10 12 11
3 11 12 13
3 12 14 13
3 13 14 15
3 14 16 15
3 15 16 17
3 16 18 17
3 17 18 19
3 18 20 19
3 19 20 21
3 20 22 21
3 21 22 23
3 22 24 23
3 23 24 25
3 24 26 25
3 25 26 27
3 26 28 27
3 27 28 29
3 28 30 29
3 29 30 31
3 30 32 31
3 31 32 33
3 32 34 33
3 33 34 35
3 34 36 35
3 35 36 37
3 36 38 37
3 37 38 39
3 38 40 39
3 39 40 41
3 40 42 41
3 41 42 43
3 42 44 43
3 43 44 45
3 44 46 45
3 45 46 47
3 46 0 47
3 47 0 2
3 48 49 50
3 48 50 51
3 48 51 52
3 48 52 53
3 48 53 54
3 48 54 49
3 50 49 55
3 50 55 56
3 50 56 57
3 51 50 57
3 51 57 58
3 51 58 59
3 52 51 59
3 52 59 60
3 52 60 61
3 53 52 61
3 53 61 62
3 53 62 63
3 54 53 63
3 54 63 64
3 54 64 65
3 49 54 65
3 49 65 66
3 49 66 55
3 55 66 67
3 55 67 68
3 56 55 68
3 56 68 69
3 56 69 70
3 57 56 70
3 57 70 71
3 58 57 71
3 58 71 72
3 58 72 73
3 59 58 73
3 59 73 74
3 60 59 74
3 60 74 75
3 60 75 76
3 61 60 76
3 61 76 77
3 62 61 77
3 65 64 78
3 65 78 79
3 66 65 79
3 66 79 80
3 66 80 67
3 67 80 81
3 67 81 82
3 68 67 82
3 68 82 83
3 69 68 83
3 69 83 84
3 70 69 84
3 70 84 85
3 70 85 86
3 71 70 86
3 71 86 87
3 72 71 87
3 72 87 88
3 73 72 88
3 73 88 89
3 74 73 89
3 74 89 90
3 75 74 90
3 75 90 91
3 75 91 92
3 76 75 92
3 80 79 93
3 80 93 94
3 80 94 81
3 81 94 95
3 81 95 96
3 82 81 96
3 82 96 97
3 83 82 97
3 83 97 98
3 84 83 98
3 84 98 99
3 85 84 99
3 85 99 100
3 85 100 101
3 86 85 101
3 86 101 102
3 87 86 102
3 87 102 103
3 88 87 103
3 88 103 104
3 89 88 104
3 89 104 105
3 90 89 105
3 90 105 106
3 91 90 106
3 91 106 107
3 91 107 108
3 92 91 108
3 94 93 109
3 94 109 110
3 94 110 95
3 95 110 111
3 95 111 112
3 96 95 112
3 96 112 113
3 97 96 113
3 97 113 114
3 98 97 114
3 98 114 115
3 99 98 115
3 99 115 116
3 100 99 116
3 100 116 117
3 101 100 117
3 101 117 118
3 102 101 118
3 102 118 119
3 103 102 119
3 103 119 120
3 104 103 120
3 104 120 121
3 105 104 121
3 105 121 122
3 106 105 122
3 106 122 123
3 107 106 123
3 107 123 124
3 107 124 125
3 108 107 125
3 110 109 126
3 110 126 127
3 110 127 111
3 111 127 128
3 111 128 129
3 112 111 129
3 112 129 130
3 113 112 130
3 113 130 131
3 114 113 131
3 114 131 132
3 115 114 132
3 115 132 133
3 116 115 133
3 116 133 134
3 117 116 134
3 117 134 135
3 118 117 135
3 118 135 136
3 119 118 136
3 119 136 137
3 120 119 137
3 120 137 138
3 121 120 138
3 121 138 139
3 122 121 139
3 122 139 140
3 123 122 140
3 123 140 141
3 124 123 141
3 124 141 142
3 125 124 142
3 125 142 143
3 127 126 144
3 127 144 145
3 127 145 128
3 128 145 146
3 128 146 147
3 129 128 147
3 129 147 148
3 130 129 148
3 130 148 149
3 131 130 149
3 131 149 150
3 132 131 150
3 132 150 151
3 133 132 151
3 133 151 152
3 134 133 152
3 134 152 153
3 135 134 153
3 135 153 154
3 136 135 154
3 136 154 155
3 137 136 155
3 137 155 156
3 138 137 156
3 138 156 157
3 139 138 157
3 139 157 158
3 140 139 158
3 140 158 159
3 141 140 159
3 141 159 160
3 142 141 160
3 142 160 161
3 143 142 161
3 146 144 162
3 145 144 146
3 147 146 163
3 147 163 164
3 148 147 164
3 148 164 165
3 149 148 165
3 149 165 166
3 150 149 166
3 150 166 167
3 151 150 167
3 151 167 168
3 152 151 168
3 152 168 169
3 153 152 169
3 153 169 170
3 154 153 170
3 154 170 171
3 155 154 171
3 155 171 172
3 156 155 172
3 156 172 173
3 157 156 173
3 157 173 174
3 158 157 174
3 158 174 175
3 159 158 175
3 159 175 176
3 160 159 176
3 161 160 176
3 161 176 177
3 163 162 178
3 146 162 163
3 164 163 179
3 164 179 180
3 165 164 180
3 165 180 181
3 166 165 181
3 166 181 182
3 167 166 182
3 167 182 183
3 168 167 183
3 168 183 184
3 169 168 184
3 169 184 185
3 170 169 185
3 171 170 185
3 171 185 186
3 172 171 186
3 172 186 187
3 173 172 187
3 173 187 188
3 174 173 188
3 174 188 189
3 175 174 189
3 175 189 190
3 176 175 190
3 177 176 190
3 177 190 191
3 179 178 192
3 163 178 179
3 180 179 193
3 180 193 194
3 181 180 194
3 181 194 195
3 182 181 195
3 182 195 196
3 183 182 196
3 183 196 197
3 184 183 197
3 184 197 198
3 185 184 198
3 186 185 198
3 186 198 199
3 187 186 199
3 187 199 200
3 188 187 200
3 188 200 201
3 189 188 201
3 189 201 202
3 190 189 202
3 191 190 202
3 191 202 203
3 193 192 204
3 179 192 193
3 194 193 205
3 194 205 206
3 195 194 206
3 195 206 207
3 196 195 207
3 197 196 207
3 197 207 208
3 198 197 208
3 198 208 209
3 199 198 209
3 200 199 209
3 200 209 210
3 201 200 210
3 201 210 211
3 202 201 211
3 203 202 211
3 203 211 212
3 205 204 213
3 193 204 205
3 206 205 214
3 206 214 215
3 207 206 215
3 208 207 215
3 208 215 216
3 209 208 216
3 210 209 216
3 210 216 217
3 211 210 217
3 212 211 217
3 212 217 218
3 214 213 219
3 205 213 214
3 215 214 220
3 216 215 220
3 217 216 220
3 218 217 220
3 219 218 220
3 214 219 220
3 219 213 26
3 219 26 24
3 219 24 218
3 218 24 22
3 218 22 212
3 212 22 20
3 212 20 203
3 203 20 18
3 203 18 191
3 191 18 16
3 191 16 177
3 177 16 14
3 177 14 161
3 161 14 12
3 161 12 143
3 143 12 10
3 143 10 125
3 125 10 108
3 108 10 8
3 108 8 92
3 92 8 6
3 92 6 76
3 76 6 77
3 77 6 4
3 77 4 1
3 77 1 62
3 62 1 63
3 63 1 0
3 63 0 46
3 63 46 64
3 64 46 78
3 78 46 44
3 78 44 42
3 78 42 79
3 79 42 93
3 93 42 40
3 93 40 109
3 109 40 38
3 109 38 126
3 126 38 144
3 144 38 36
3 144 36 162
3 162 36 34
3 162 34 178
3 178 34 32
3 178 32 192
3 192 32 30
3 192 30 204
3 204 30 28
3 204 28 213
3 213 28 26
3 221 222 223
3 224 221 223
3 224 223 225
3 226 224 225
3 226 225 227
3 226 227 228
3 229 226 228
3 229 228 230
3 231 229 230
3 231 230 232
3 222 233 234
3 223 222 234
3 223 234 235
3 225 223 235
3 225 235 236
3 227 225 236
3 227 236 237
3 227 237 238
3 228 227 238
3 228 238 239
3 230 228 239
3 230 239 240
3 232 230 240
3 232 240 241
3 234 233 242
3 234 242 243
3 235 234 243
3 235 243 244
3 235 244 245
3 236 235 245
3 236 245 246
3 237 236 246
3 237 246 247
3 238 237 247
3 238 247 248
3 239 238 248
3 239 248 249
3 240 239 249
3 240 249 250
3 241 240 250
3 241 250 251
3 242 252 253
3 243 242 253
3 243 253 254
3 244 243 254
3 244 254 255
3 245 244 255
3 245 255 256
3 246 245 256
3 246 256 257
3 247 246 257
3 247 257 258
3 248 247 258
3 248 258 259
3 249 248 259
3 249 259 260
3 250 249 260
3 250 260 261
3 251 250 261
3 251 261 262
3 253 252 263
3 253 263 264
3 254 253 264
3 254 264 265
3 255 254 265
3 255 265 266
3 256 255 266
3 256 266 267
3 257 256 267
3 257 267 268
3 258 257 268
3 258 268 269
3 259 258 269
3 259 269 270
3 260 259 270
3 260 270 271
3 261 260 271
3 261 271 272
3 262 261 272
3 263 273 274
3 264 263 274
3 264 274 275
3 265 264 275
3 266 265 275
3 266 275 276
3 267 266 276
3 267 276 277
3 268 267 277
3 268 277 278
3 269 268 278
3 269 278 279
3 270 269 279
3 270 279 280
3 271 270 280
3 271 280 281
3 272 271 281
3 274 273 282
3 274 282 283
3 275 274 283
3 275 283 284
3 276 275 284
3 276 284 285
3 277 276 285
3 278 277 285
3 278 285 286
3 279 278 286
3 279 286 287
3 280 279 287
3 280 287 288
3 281 280 288
3 283 282 289
3 283 289 290
3 284 283 290
3 284 290 291
3 285 284 291
3 286 285 291
3 286 291 292
3 287 286 292
3 287 292 293
3 288 287 293
3 290 289 294
3 291 290 294
3 291 294 295
3 292 291 295
3 293 292 295
3 293 295 27
3 293 27 29
3 293 29 288
3 288 29 31
3 288 31 281
3 281 31 33
3 281 33 272
3 272 33 35
3 272 35 37
3 272 37 262
3 262 37 39
3 262 39 251
3 251 39 41
3 251 41 241
3 241 41 43
3 241 43 232
3 232 43 45
3 232 45 231
3 231 45 47
3 231 47 229
3 229 47 2
3 229 2 226
3 226 2 224
3 224 2 3
3 224 3 221
3 221 3 5
3 221 5 222
3 222 5 7
3 222 7 233
3 233 7 9
3 233 9 11
3 233 11 242
3 242 11 252
3 252 11 13
3 252 13 15
3 252 15 263
3 263 15 273
3 273 15 17
3 273 17 19
3 273 19 282
3 282 19 21
3 282 21 289
3 289 21 23
3 289 23 294
3 294 23 25
3 294 25 295
3 295 25 27

CELL_TYPES 588
5
5
5
5
5
5
5
5
5
5
5
5
5
5
5
5
5
5
5
5
5
5
5
5
5
5
5
5
5
5
5
5
5
5
5
5
5
5
5
5
5
5
5
5
5
5
5
5
5
5
5
5
5
5
5
5
5
5
5
5
5
5
5
5
5
5
5
5
5
5
5
5
5
5
5
5
5
5
5
5
5
5
5
5
5
5
5
5
5
5
5
5
5
5
5
5
5
5
5
5
5
5
5
5
5
5
5
5
5
5
5
5
5
5
5
5
5
5
5
5
5
5
5
5
5
5
5
5
5
5
5
5
5
5
5
5
5
5
5
5
5
5
5
5
5
5
5
5
5
5
5
5
5
5
5
5
5
5
5
5
5
5
5
5
5
5
5
5
5
5
5
5
5
5
5
5
5
5
5
5
5
5
5
5
5
5
5
5
5
5
5
5
5
5
5
5
5
5
5
5
5
5
5
5
5
5
5
5
5
5
5
5
5
5
5
5
5
5
5
5
5
5
5
5
5
5
5
5
5
5
5
5
5
5
5
5
5
5
5
5
5
5
5
5
5
5
5
5
5
5
5
5
5
5
5
5
5
5
5
5
5
5
5
5
5
5
5
5
5
5
5
5
5
5
5
5
5
5
5
5
5
5
5
5
5
5
5
5
5
5
5
5
5
5
5
5
5
5
5
5
5
5
5
5
5
5
5
5
5
5
5
5
5
5
5
5
5
5
5
5
5
5
5
5
5
5
5
5
5
5
5
5
5
5
5
5
5
5
5
5
5
5
5
5
5
5
5
5
5
5
5
5
5
5
5
5
5
5
5
5
5
5
5
5
5
5
5
5
5
5
5
5
5
5
5
5
5
5
5
5
5
5
5
5
5
5
5
5
5
5
5
5
5
5
5
5
5
5
5
5
5
5
5
5
5
5
5
5
5
5
5
5
5
5
5
5
5
5
5
5
5
5
5
5
5
5
5
5
5
5
5
5
5
5
5
5
5
5
5
5
5
5
5
5
5
5
5
5
5
5
5
5
5
5
5
5
5
5
5
5
5
5
5
5
5
5
5
5
5
5
5
5
5
5
5
5
5
5
5
5
5
5
5
5
5
5
5
5
5
5
5
5
5
5
5
5
5
5
5
5
5
5
5
5
5
5
5
5
5
5
5
5
5
5
5
5
5
5
5
5
5
5
5
5
5
5
5
5
5
5
5
5
5
5
5
5
5
5
5
5
5
5
5
5
5
5
5
5
5
5
5
5
5
5
5
5
5
5
5
5
5
5
5
5
5
5
5
5
5
5
5
5
5
5
5
5
5
5
5
5
5
5
5
5
5
5
5
5

CELL_DATA 588
SCALARS cell_data_0 double
LOOKUP_TABLE default
2.47988048301e-08
7.51310649368e-09
2.41560796932e-10
6.94111352584e-09
1.19926721189e-09
2.42501805294e-09
4.85117273998e-10
3.88687795169e-10
6.65740861647e-11
1.58851981106e-10
1.35802084631e-10
3.77353820206e-10
3.86398728802e-10
2.06178446251e-10
2.95018108759e-10
4.11811918282e-10
4.02464262125e-10
6.49613826589e-10
5.58177150897e-11
3.14544026269e-10
1.16577895192e-10
2.2802365972e-10
2.06924251569e-10
1.12454228606e-10
1.35103589566e-10
2.81493483574e-10
8.35326311075e-11
1.36467890792e-10
8.22209864229e-11
2.01995682236e-10
2.78370964648e-11
2.39455328208e-10
1.28561195275e-10
5.80290700125e-10
2.83191875916e-10
4.90115167867e-10
6.3855858385e-11
2.28456164964e-10
1.53880405407e-10
1.4009143613e-10
6.78083487467e-11
8.79073702164e-11
9.20852102792e-10
1.99729818108e-09
1.69862959184e-09
4.07718012237e-09
1.77809262637e-08
2.20210398217e-08
3.5563233025e-10
6.27633405092e-11
5.30506202415e-10
2.8637483336e-10
1.4704272184e-09
2.34031186539e-10
5.25208578317e-11
3.23541554644e-11
1.3159970857e-11
2.5067643967e-10
2.51385053374e-10
1.78188191799e-10
4.17667274457e-10
2.10154740962e-11
1.76171989591e-09
1.32677855329e-09
5.67301365564e-09
2.8874734671e-09
3.1559820382e-09
1.20072968305e-09
7.00473513433e-10
7.75260478054e-10
7.14236137108e-11
1.16385140703e-10
3.02920471152e-11
2.76899590028e-11
3.86496713872e-11
3.61291455002e-12
3.11304237819e-12
8.70349969073e-11
2.47709774002e-12
1.0969035328e-10
1.13039514636e-10
8.17902331299e-11
2.21499474695e-12
7.58473978704e-11
4.6985190709e-10
8.40672324896e-10
6.6117026548e-10
3.39731250453e-09
4.06322808502e-09
8.20677209688e-09
8.83102133094e-12
1.02466199616e-10
6.03591643695e-11
2.96054924956e-11
4.50346501401e-11
7.09636909324e-12
4.00597038989e-11
1.21650202768e-11
1.52495463876e-12
5.74920151917e-11
2.58930879104e-11
3.3907907015e-11
1.77007136852e-12
1.66217301457e-12
3.8197698736e-11
4.21481967927e-11
1.72464013601e-11
3.71022586389e-12
1.43313756512e-11
1.18954351604e-11
6.67589950459e-12
1.95685963293e-10
5.01339786866e-10
2.52441251525e-10
2.92734764632e-11
1.12977222479e-09
9.98954968882e-11
9.71175049606e-11
1.94876633335e-11
5.44121390747e-12
4.38045171542e-12
5.20242238347e-11
7.26469207985e-12
5.64043318924e-12
3.20105815267e-11
1.18502279053e-11
1.12916580669e-11
5.24304423784e-12
2.43273228416e-12
7.81932395944e-12
1.08031250228e-11
7.13885873503e-12
2.40189906637e-11
1.07546799829e-11
1.59120465606e-11
2.44808067799e-11
1.53686431621e-11
6.88586164138e-11
7.94078998159e-11
1.59374675644e-10
8.67883835988e-11
1.18918987923e-10
2.20935713532e-10
2.28478408089e-10
1.72826932007e-10
5.81129749318e-11
1.55183123483e-11
7.07861422472e-13
3.87818999204e-11
2.69351619573e-11
1.93859266871e-11
2.85750358766e-11
3.18955685302e-11
3.29053630898e-11
1.71749499839e-11
1.68127033596e-11
1.40222880299e-11
1.13310535631e-11
1.38825633736e-11
8.71206962838e-12
2.04170622859e-11
2.18148576527e-11
1.75440131599e-11
7.65131760523e-12
1.21759588386e-11
1.50449274218e-11
4.28763664754e-11
2.93835422892e-11
4.29866626681e-11
1.22434481492e-11
4.92050835605e-11
2.20413510443e-12
2.77301785423e-11
1.46207618345e-11
7.08055808732e-11
7.04030347941e-11
1.38636396885e-11
3.56232905975e-11
1.31832949159e-11
1.47758222263e-11
1.7128522077e-12
2.33683637319e-11
1.03111832818e-11
1.28219210886e-11
1.34466937579e-12
1.5557928907e-11
2.35209839924e-12
9.8830957007e-12
2.25247251211e-11
1.1939857252e-11
6.30088784748e-12
2.11702592589e-11
2.74101626826e-12
1.48094089693e-12
2.00928504336e-11
8.88521971081e-12
1.33414182277e-12
9.70099152547e-12
6.12697846812e-12
1.62187080731e-11
2.82083744462e-11
9.05693695153e-12
4.72754259572e-12
1.41794507569e-12
1.65469129383e-12
5.22237100434e-11
1.18475013432e-10
1.43213193334e-10
1.34868122907e-11
9.90280356588e-12
1.02937118693e-11
1.18313111677e-11
2.97658710692e-12
2.40582450784e-11
2.61072688331e-11
8.68863252401e-12
1.0782187883e-11
2.17076716758e-11
6.40934339288e-12
9.27251025081e-12
5.45457681855e-11
5.93070260142e-11
3.04109846584e-11
2.90137084206e-11
3.99655397196e-11
2.62208637515e-11
3.78056809632e-12
1.33487448387e-11
1.68511768654e-11
4.46382712735e-12
1.26549889299e-11
1.05388889446e-11
4.80869244803e-12
1.5647173474e-11
2.97309699676e-11
1.13673125865e-11
1.05763044058e-11
5.93922383048e-12
1.7038411189e-11
2.25235675587e-11
1.33368382754e-10
1.81782023407e-10
9.2520146978e-12
5.02711916508e-12
3.07897817487e-11
1.20080204966e-11
5.57612958661e-12
7.66936877264e-12
1.31018384539e-11
2.29368789611e-12
9.37920485927e-12
1.43412238938e-11
2.41741667191e-11
9.63182933697e-12
1.05754590589e-11
2.27047750563e-11
1.63510841613e-11
3.45470459592e-12
1.05381843474e-11
8.58374315813e-12
1.18820183737e-11
9.44856249417e-13
1.90908347119e-11
1.93839162314e-11
5.7864864664e-12
2.67264191005e-12
1.58694115906e-11
2.2942803488e-12
1.14371387742e-11
2.07437107534e-11
3.61774793077e-11
3.4768884755e-11
3.92358271109e-11
2.20094922597e-11
4.15577347537e-11
4.45401305105e-11
1.62967890761e-12
1.474778697e-12
1.26654727898e-12
4.89379915776e-12
8.18367727958e-12
1.45195035016e-11
3.19534140981e-12
6.54084164694e-12
7.42864965023e-12
5.74306876473e-12
1.25250599479e-11
1.5596260135e-11
3.32041843782e-12
4.81948723901e-12
1.10518617413e-11
2.51706866285e-11
1.64483086901e-11
4.36675501986e-12
2.29587070438e-12
1.37013946194e-12
3.02953273742e-12
2.08077389513e-11
7.75949205392e-11
8.29613073292e-11
7.39248087521e-11
1.28738245862e-11
4.94739139114e-11
3.30844791576e-11
9.81581923067e-12
4.09786080767e-12
1.94532162686e-13
8.90421104561e-12
3.28736425001e-13
1.01217386654e-11
1.50638075225e-12
6.64447092577e-13
1.39162389966e-11
4.73792191839e-12
1.33157487286e-11
1.16813198904e-11
8.0970230859e-12
4.18157948205e-12
8.03344657153e-12
3.63260276213e-12
3.06193767423e-12
2.52934097613e-11
8.73055299177e-11
8.10792733758e-11
7.2460838223e-11
7.8473990917e-11
7.01457413231e-11
7.47289143505e-11
3.71162254071e-11
3.12497134218e-12
3.71325321369e-12
3.91738065542e-13
4.2920406914e-12
1.93029823687e-12
2.97398305269e-12
4.58175253793e-12
2.80271388428e-12
9.65799702129e-14
6.10183158209e-12
9.24179639175e-12
1.58409442993e-11
4.54902693292e-11
1.22813036688e-11
1.34774215634e-10
1.42719929383e-10
2.71493114525e-12
6.58695268546e-11
6.62678279891e-12
1.95365730531e-12
4.040900172e-12
1.08344960776e-11
2.18021736858e-12
5.5884289324e-12
3.78482324323e-12
9.09645844563e-12
9.68155130453e-12
4.59627787426e-11
1.6462133121e-10
3.00903774116e-11
4.83454782458e-11
2.27863130821e-11
5.6879235624e-11
6.33389372801e-11
4.31304569389e-11
6.96783981252e-12
1.69723412031e-10
1.79533867922e-10
2.0587030207e-10
1.56310364393e-10
1.1229975173e-10
9.91708132729e-11
1.52437436421e-10
1.90408915514e-10
2.29997875383e-10
2.22804598515e-10
2.31345416348e-10
2.25251940974e-10
2.25863588004e-10
8.85034113282e-11
3.29306240459e-11
4.24102945326e-11
4.26393964884e-11
1.05145430725e-11
1.42816097433e-11
1.19890472909e-10
7.22933863354e-11
1.92326099863e-09
2.1956931424e-09
3.58765477848e-10
3.0564167423e-09
1.21694238251e-08
9.00272526617e-09
7.11606322988e-09
6.82888200365e-09
1.10925060605e-10
2.50400778005e-10
4.23991130973e-10
3.39781390182e-10
2.53679487258e-11
1.60216043242e-11
7.49398607825e-12
1.52722039215e-10
1.60067618244e-11
1.74219435867e-11
2.97608219543e-11
2.14233379567e-11
6.84247200542e-11
2.25215996442e-10
1.89158199305e-10
2.00055022645e-10
9.83648633831e-11
1.12533483373e-10
1.87879251277e-10
1.82095908039e-10
1.91121873918e-10
2.62084746009e-11
6.96450988265e-09
8.99060060119e-10
1.09089633585e-08
1.24340428939e-08
9.20321065343e-09
1.02027433539e-09
2.77376752016e-09
3.27310917098e-09
7.90067697222e-09
1.36775051833e-08
6.08399266497e-09
6.59239234021e-09
8.22545932769e-10
1.09134858315e-08
4.77775777738e-09
4.42045008101e-10
1.15313944012e-08
1.13153764309e-08
9.31514561236e-09
1.15129778944e-09
4.30557833826e-09
9.068556995e-10
1.39316251541e-09
7.7704927082e-10
1.60541983283e-12
1.30765725959e-10
6.79357288551e-10
5.05784226294e-10
5.37636631094e-10
2.22599738543e-09
6.28374227983e-10
8.86047047769e-10
4.06623526691e-10
7.6318684388e-10
5.07954441693e-10
1.91675502967e-09
4.67393100033e-10
7.42041792441e-10
8.25001965889e-11
4.44121653618e-11
1.51151477452e-11
2.77891843578e-10
1.9682769236e-10
4.36206153149e-11
3.301403951e-10
3.72579579519e-11
1.9732753206e-10
3.57675282277e-11
7.14049932944e-11
1.56559293028e-11
2.21012461096e-11
2.7180935339e-11
1.18860598641e-10
9.3621652538e-11
2.53572795151e-10
2.14292335237e-11
8.83055398221e-11
3.33212918516e-11
5.32699662988e-11
8.71930280051e-11
1.51232496716e-10
3.41190533031e-11
3.79575617526e-10
6.44496117995e-11
1.75138934259e-10
1.03758770674e-10
2.46174560308e-10
7.84508424312e-11
1.13422757727e-10
3.0706283038e-11
1.08862671811e-10
6.78299874611e-12
1.88855421271e-10
2.9351409016e-11
2.05687015868e-10
4.71192702483e-11
1.28438003349e-10
8.5838390748e-11
1.41685628188e-11
1.01344866466e-10
1.10213221291e-10
1.63072473632e-10
3.17568575939e-10
3.54207337651e-10
4.00909961098e-11
2.99980544288e-11
1.37395004406e-10
1.77965151791e-10
9.47254055518e-11
2.49393194546e-11
2.01870825671e-11
2.53769773432e-10
2.96629210122e-11
6.79460850029e-11
5.46496973761e-11
2.21461694924e-10
3.51894837579e-10
3.03951237857e-10
3.22130680698e-10
1.14316313991e-10
3.35487472729e-11
9.7406639096e-11
2.66212563476e-10
1.68765340143e-10
1.12697795994e-10
1.30984109582e-11
2.35317888239e-11
3.55222609117e-10
3.6097200124e-10
2.22928014668e-11
1.24848031535e-10
5.28283623105e-12
6.97500861796e-11
6.18473904606e-11
1.11307953057e-10
1.10092978935e-11
2.36114105622e-11
6.95247441585e-11
8.2141164308e-11
1.39044453118e-10
8.21510600533e-11
2.06001298376e-10
3.83100650038e-10
2.24016054657e-10
9.9527382586e-11
2.3799650105e-11
1.37241805551e-10
1.75022371022e-10
2.42793926364e-10
2.99287525396e-10
4.11910169425e-10
2.01482830012e-10
1.47960953881e-10
7.69418678716e-11
1.47667820739e-10
2.02541056997e-10
1.25967786581e-11
1.17757304446e-11
2.6792656732e-11
7.88976193174e-11
4.88354955484e-10
6.29995229203e-10
5.4155465043e-09
6.00856611103e-09
9.30799211223e-10
1.52652353034e-08
4.66219872485e-09
6.03582482544e-09
4.98620805814e-09
1.08826815392e-09
3.28343991266e-09
3.99018367499e-09
3.52393356895e-09
3.90179569533e-09
2.00053031708e-10
6.23354570527e-12
6.64335162399e-11
1.98208713595e-10
4.69037734262e-11
1.80422611352e-11
7.76168515293e-11
5.84444775748e-11
1.93212849079e-10
3.90142055895e-10
1.53342635888e-10
2.93252230672e-10
2.19582359157e-10
2.72431413383e-10
7.59540330089e-12
1.78712877365e-10
1.27824969714e-10
1.495702606e-10

