# vtk DataFile Version 3.0
File Name: Molecule/methanol/methanol_2.0-1.vtk
ASCII
DATASET UNSTRUCTURED_GRID
FIELD FieldData 1
TIME 1 1 double
0.0
POINTS 99 double
1.611 0.0 -0.359
1.445 -0.731 -0.342
1.403 0.0 -0.933
1.252 -0.666 -0.918
0.98 -1.317 -0.296
0.828 -1.2 -0.876
0.308 -1.642 -0.229
0.216 -1.496 -0.815
-0.438 -1.642 -0.155
-0.464 -1.496 -0.747
-1.11 -1.317 -0.088
-1.076 -1.2 -0.686
-1.576 -0.731 -0.042
-1.5 -0.666 -0.644
-1.742 0.0 -0.025
-1.651 0.0 -0.629
-1.576 0.731 -0.042
-1.5 0.666 -0.644
-1.11 1.317 -0.088
-1.076 1.2 -0.686
-0.438 1.642 -0.155
-0.464 1.496 -0.747
0.308 1.642 -0.229
0.216 1.496 -0.815
0.98 1.317 -0.296
0.828 1.2 -0.876
1.445 0.731 -0.342
1.252 0.666 -0.918
1.907 0.0 0.656
1.763 0.722 0.656
1.763 0.361 1.281
1.763 -0.361 1.281
1.763 -0.722 0.656
1.763 -0.361 0.03
1.763 0.361 0.03
1.354 1.123 1.377
1.354 0.554 1.87
1.354 -0.19 1.977
1.354 -0.874 1.664
1.354 -1.281 1.032
1.354 -1.281 0.28
1.354 1.335 0.656
0.741 1.571 1.412
0.741 1.087 2.019
0.741 0.388 2.356
0.741 -0.388 2.356
0.741 -1.087 2.019
0.741 -1.571 1.412
0.741 -1.744 0.656
0.741 1.744 0.656
0.019 1.744 1.378
0.019 1.335 1.99
0.019 0.722 2.399
0.019 -0.0 2.543
0.019 -0.722 2.399
0.019 -1.335 1.99
0.019 -1.744 1.378
0.019 -1.888 0.656
0.019 1.888 0.656
-0.703 1.744 0.656
-0.703 1.571 1.412
-0.703 1.087 2.019
-0.703 0.388 2.356
-0.703 -0.388 2.356
-0.703 -1.087 2.019
-0.703 -1.571 1.412
-0.703 -1.744 0.656
-1.316 1.335 0.656
-1.316 1.123 1.377
-1.316 0.554 1.87
-1.316 -0.19 1.977
-1.316 -0.874 1.664
-1.316 -1.281 1.032
-1.725 0.722 0.656
-1.725 0.361 1.281
-1.725 -0.361 1.281
-1.725 -0.722 0.656
-1.868 0.0 0.656
1.21 0.384 -1.402
0.648 0.552 -1.946
0.648 1.118 -1.456
0.648 -0.871 -1.742
-0.12 -1.149 -1.755
-0.12 -0.544 -2.172
0.648 -0.189 -2.053
-0.12 0.185 -2.261
-0.12 0.872 -2.0
-0.12 1.359 -1.451
-0.887 -1.276 -1.112
-0.887 -0.871 -1.742
-0.887 -0.189 -2.053
-0.887 0.552 -1.946
-0.887 1.118 -1.456
-1.449 -0.384 -1.402
-1.449 0.384 -1.402
1.21 -0.384 -1.402
0.929 -0.2865 -1.7275
1.21 0.0 -1.402
0.929 0.0975 -1.7275

CELLS 194 776
3 0 1 2
3 2 1 3
3 1 4 3
3 3 4 5
3 4 6 5
3 5 6 7
3 6 8 7
3 7 8 9
3 8 10 9
3 9 10 11
3 10 12 11
3 11 12 13
3 12 14 13
3 13 14 15
3 14 16 15
3 15 16 17
3 16 18 17
3 17 18 19
3 18 20 19
3 19 20 21
3 20 22 21
3 21 22 23
3 22 24 23
3 23 24 25
3 24 26 25
3 25 26 27
3 26 0 27
3 27 0 2
3 28 29 30
3 28 30 31
3 28 31 32
3 28 32 33
3 28 33 34
3 28 34 29
3 30 29 35
3 30 35 36
3 30 36 37
3 31 30 37
3 31 37 38
3 31 38 39
3 32 31 39
3 32 39 40
3 33 32 40
3 29 41 35
3 35 41 42
3 35 42 43
3 36 35 43
3 36 43 44
3 37 36 44
3 37 44 45
3 38 37 45
3 38 45 46
3 38 46 47
3 39 38 47
3 39 47 48
3 40 39 48
3 41 49 42
3 42 49 50
3 42 50 51
3 43 42 51
3 43 51 52
3 44 43 52
3 44 52 53
3 45 44 53
3 45 53 54
3 46 45 54
3 46 54 55
3 47 46 55
3 47 55 56
3 48 47 56
3 48 56 57
3 49 58 50
3 50 58 59
3 50 59 60
3 51 50 60
3 51 60 61
3 52 51 61
3 52 61 62
3 53 52 62
3 53 62 63
3 54 53 63
3 54 63 64
3 55 54 64
3 55 64 65
3 56 55 65
3 56 65 66
3 57 56 66
3 60 59 67
3 60 67 68
3 61 60 68
3 61 68 69
3 62 61 69
3 62 69 70
3 63 62 70
3 63 70 71
3 64 63 71
3 65 64 71
3 65 71 72
3 66 65 72
3 68 67 73
3 68 73 74
3 69 68 74
3 70 69 74
3 70 74 75
3 71 70 75
3 72 71 75
3 72 75 76
3 74 73 77
3 75 74 77
3 76 75 77
3 76 77 14
3 76 14 12
3 76 12 10
3 76 10 72
3 72 10 66
3 66 10 8
3 66 8 57
3 57 8 6
3 57 6 48
3 48 6 4
3 48 4 40
3 40 4 1
3 40 1 33
3 33 1 0
3 33 0 34
3 34 0 26
3 34 26 29
3 29 26 41
3 41 26 24
3 41 24 49
3 49 24 22
3 49 22 58
3 58 22 20
3 58 20 59
3 59 20 18
3 59 18 67
3 67 18 16
3 67 16 73
3 73 16 14
3 73 14 77
3 78 79 80
3 81 82 83
3 84 81 83
3 84 83 85
3 79 84 85
3 79 85 86
3 80 79 86
3 80 86 87
3 82 88 89
3 83 82 89
3 83 89 90
3 85 83 90
3 85 90 91
3 86 85 91
3 86 91 92
3 87 86 92
3 89 88 93
3 90 89 93
3 90 93 94
3 91 90 94
3 92 91 94
3 92 94 17
3 92 17 19
3 92 19 21
3 92 21 87
3 87 21 23
3 87 23 80
3 80 23 25
3 80 25 27
3 80 27 78
3 78 27 2
3 95 2 3
3 95 3 81
3 81 3 5
3 81 5 7
3 81 7 82
3 82 7 9
3 82 9 88
3 88 9 11
3 88 11 13
3 88 13 93
3 93 13 15
3 93 15 94
3 94 15 17
3 84 96 81
3 81 96 95
3 78 97 98
3 97 96 98
3 97 95 96
3 98 96 84
3 78 98 79
3 98 84 79
3 95 97 2
3 2 97 78

CELL_TYPES 194
5
5
5
5
5
5
5
5
5
5
5
5
5
5
5
5
5
5
5
5
5
5
5
5
5
5
5
5
5
5
5
5
5
5
5
5
5
5
5
5
5
5
5
5
5
5
5
5
5
5
5
5
5
5
5
5
5
5
5
5
5
5
5
5
5
5
5
5
5
5
5
5
5
5
5
5
5
5
5
5
5
5
5
5
5
5
5
5
5
5
5
5
5
5
5
5
5
5
5
5
5
5
5
5
5
5
5
5
5
5
5
5
5
5
5
5
5
5
5
5
5
5
5
5
5
5
5
5
5
5
5
5
5
5
5
5
5
5
5
5
5
5
5
5
5
5
5
5
5
5
5
5
5
5
5
5
5
5
5
5
5
5
5
5
5
5
5
5
5
5
5
5
5
5
5
5
5
5
5
5
5
5
5
5
5
5
5
5
5
5
5
5
5
5

CELL_DATA 194
SCALARS cell_data_0 double
LOOKUP_TABLE default
3.48877147938e-06
4.7044283233e-07
7.13098593271e-07
2.16544669128e-07
4.27973649703e-08
5.17952960828e-09
6.01049668286e-08
2.90530615594e-07
3.10087968643e-07
3.80209713603e-07
4.4343238693e-07
1.00812138681e-07
4.36955316614e-08
6.69763014016e-08
4.07364336426e-07
1.03050043497e-07
7.48232876217e-08
1.62562681814e-07
3.06249723783e-07
1.21003881062e-07
1.24932297495e-07
1.72870473137e-07
9.23498237203e-08
2.09096497744e-07
2.18280788955e-07
4.9254803189e-07
6.67589587447e-07
8.39604073068e-08
4.94097202188e-08
5.59103667341e-09
9.2698961141e-08
9.92021119049e-08
3.02039007529e-07
5.15323286782e-08
2.90217625452e-08
1.60606813913e-08
1.79637215058e-08
1.2606653022e-08
7.24890029236e-08
1.48938619893e-08
1.2540348634e-07
5.44632431886e-08
3.67247472633e-07
2.48545665903e-08
7.94524919854e-09
8.91610679368e-09
1.275969636e-08
1.34131244116e-08
2.3230981835e-08
3.70769478269e-09
1.79270830114e-08
1.60473274013e-08
6.10315366048e-09
3.0197547753e-08
1.34630101362e-08
1.48373757524e-07
4.14374496394e-08
3.94532353955e-09
2.40000966465e-08
4.51383664888e-09
1.01913910765e-08
1.19376912176e-08
9.16312264898e-10
6.95222999431e-09
6.5131352811e-09
9.75640815168e-09
8.6747518585e-09
1.59008104436e-09
9.65635930759e-09
2.38551405854e-09
1.74677068072e-08
2.76364392526e-08
9.32192018877e-11
1.34727215812e-08
1.83392759566e-08
2.92900616771e-09
1.47620189006e-08
1.23396118668e-08
7.24101032421e-09
1.05196752807e-08
5.60363796123e-09
3.51935258886e-09
1.65972134609e-08
1.41372379501e-08
2.25561202942e-08
1.34839069839e-08
7.63071134581e-09
2.94082150059e-08
1.33148341155e-08
9.39840003746e-09
9.18462192927e-09
4.47057022856e-09
5.44917606919e-09
1.29214930311e-08
8.13584555311e-09
1.56449115829e-08
1.30893260945e-08
1.30247045039e-09
2.40662045636e-09
4.2799602735e-08
1.57328540329e-08
3.76931756857e-09
4.72929002672e-09
2.16759130666e-08
4.11072001154e-09
1.07258636564e-09
3.41000194312e-08
4.42634686948e-08
6.98930574927e-09
4.38614505454e-08
2.39978561451e-08
1.71493191619e-07
1.90532342816e-07
5.44271008693e-08
1.92889888765e-08
2.09323069768e-07
4.40036771172e-08
1.95508823972e-07
5.18799166046e-08
1.16075813434e-07
3.61615599257e-08
6.45493260037e-07
4.04434992317e-07
1.48292228207e-06
1.88178375795e-07
7.19702442252e-07
7.59836096217e-08
3.16922367205e-08
4.06918310773e-08
5.31662147872e-08
1.14849085053e-07
6.54268782877e-08
1.80599304606e-07
4.32225256623e-08
1.96047923038e-07
1.24632196043e-08
2.1221764901e-07
7.52292562388e-09
2.10757601845e-07
2.84067453869e-08
4.26940864394e-06
3.55281885503e-07
1.32999040079e-06
9.00238537504e-07
1.7817338466e-06
6.12967369121e-07
5.51599795735e-07
9.17795629815e-08
3.81483289535e-07
6.13588784903e-08
3.50761583658e-07
8.83495452546e-08
1.9119737841e-07
2.95458561839e-07
2.32802752363e-07
4.45248024443e-07
3.11079666358e-07
4.79653935552e-07
5.36208019011e-07
2.54446313717e-07
6.11689544187e-07
1.1939834333e-06
4.11207188796e-07
3.4689322869e-07
1.03389757223e-07
8.69255307422e-08
1.34283316218e-07
1.10322485402e-07
9.36593405407e-07
1.77678363681e-06
1.04588593862e-05
9.68370853995e-06
3.15903338487e-06
3.90793376298e-06
6.4071172083e-07
1.17246684882e-06
2.50318830067e-07
3.1778591839e-07
7.1618252081e-07
3.69883828733e-07
1.73706357941e-06
3.71652878061e-07
2.25094002282e-08
2.96901310488e-07
3.40628517281e-07
4.30041198591e-07
9.81047869806e-07
7.57386330423e-06
1.06153972943e-06
1.85687436431e-07
3.60435967522e-06
6.09671982018e-07
5.00945635702e-07
6.75365191095e-07

