# vtk DataFile Version 3.0
File Name: Molecule/methanol/methanol_12.5-4.vtk
ASCII
DATASET UNSTRUCTURED_GRID
FIELD FieldData 1
TIME 1 1 double
0.0
POINTS 663 double
1.6050567627 0.013290411793 -0.37374147773
1.5696510077 -0.34025773406 -0.36999502778
1.4786297083 -0.010622493923 -0.62348031998
1.4474104643 -0.29933080077 -0.62607371807
1.4769667387 -0.63861781359 -0.36371219158
1.4155980349 -0.46813732386 -0.59645795822
1.3875193596 -0.83045345545 -0.34592327476
1.2757658958 -0.77071326971 -0.61344271898
1.349714756 -0.60893648863 -0.63139665127
1.2940956354 -0.5981297493 -0.88158291578
1.2046713829 -0.7550650239 -0.91360384226
1.0969469547 -1.0244648457 -0.60184240341
1.1926848888 -1.107085228 -0.32577124238
1.0204644203 -0.99726808071 -0.92820495367
0.87006729841 -1.2496750355 -0.56069207191
0.96005415916 -1.3406865597 -0.27661716938
0.80944418907 -1.2158088684 -0.86972123384
0.67928081751 -1.5125567913 -0.25506287813
0.59696358442 -1.4163589478 -0.54597043991
0.54289919138 -1.3861027956 -0.82852041721
0.38208964467 -1.6254910231 -0.2266535908
0.30310666561 -1.5263367891 -0.51289945841
0.24384960532 -1.4925750494 -0.8014805913
0.16551977396 -1.6654773951 -0.22423003614
0.0064032096416 -1.573735714 -0.48964887857
-0.030380785465 -1.5274156332 -0.80524271727
-0.19576074183 -1.5767086744 -0.4528144002
-0.15530699492 -1.6767201424 -0.19952833652
-0.22438326478 -1.5294764042 -0.77182638645
-0.48031300306 -1.6265040636 -0.17211398482
-0.48159694672 -1.5238140821 -0.45448663831
-0.51907229424 -1.4849081039 -0.7246979475
-0.80012989044 -1.5057846308 -0.14549738169
-0.78134196997 -1.414919734 -0.41989341378
-0.79529321194 -1.373025775 -0.73694825172
-1.0544230938 -1.2498745918 -0.37024328113
-1.0908358097 -1.3386186361 -0.069699466228
-1.0589764118 -1.2196118832 -0.65938329697
-1.3365916014 -1.0893591642 -0.087734736502
-1.2820769548 -1.0239542723 -0.37787538767
-1.2790765762 -0.99570947886 -0.69227212667
-1.4530181885 -0.79006838799 -0.32879558206
-1.5188945532 -0.82320356369 -0.080846242607
-1.4515843391 -0.76704806089 -0.61929678917
-1.5416433811 -0.61085361242 -0.32959711552
-1.6177527905 -0.64935106039 -0.0072127860039
-1.5302773714 -0.59530806541 -0.64356631041
-1.6993635893 -0.33703890443 -0.066940069199
-1.6296033859 -0.30819195509 -0.34130126238
-1.615331769 -0.30936831236 -0.65622091293
-1.6652663946 0.00041603666614 -0.30900046229
-1.7488566637 -0.0010200368706 0.0123775471
-1.6491519213 -0.00069557363167 -0.63954931498
-1.6988101006 0.33615010977 -0.069207914174
-1.6275465488 0.31562909484 -0.34534481168
-1.6137925386 0.30802223086 -0.66897082329
-1.5482937098 0.6016715169 -0.31211262941
-1.619194746 0.65113908052 0.0019612312317
-1.5261918306 0.60236006975 -0.65086382627
-1.5157067776 0.83270633221 -0.07273735106
-1.454434514 0.77476644516 -0.36945235729
-1.3851574659 0.85736852884 -0.67801469564
-1.2839747667 1.0284928083 -0.35544100404
-1.3418022394 1.0934712887 -0.058894548565
-1.2659920454 1.0201638937 -0.65590131283
-1.0918759108 1.3299520016 -0.09382327646
-1.0523682833 1.2434242964 -0.39985442162
-1.0569617748 1.2072308064 -0.71670895815
-0.79236155748 1.4142962694 -0.39984107018
-0.78636789322 1.5106390715 -0.15065596998
-0.79602247477 1.3765031099 -0.71984875202
-0.49147537351 1.5232532024 -0.44372904301
-0.46722248197 1.6286796331 -0.17597234249
-0.50318402052 1.4812959433 -0.76307427883
-0.1941409409 1.5795576572 -0.4456242919
-0.16659672558 1.6813887358 -0.18024934828
-0.22391049564 1.5373716354 -0.74142974615
0.039664346725 1.6766628027 -0.21439495683
0.00055833160877 1.567736268 -0.50943118334
-0.036226779222 1.5267198086 -0.80872094631
0.3029191494 1.529096961 -0.50397741795
0.36040040851 1.6347885132 -0.21887534857
0.2599799037 1.4884153605 -0.80596107244
0.66761755943 1.5180432796 -0.25481277704
0.59751784801 1.4161090851 -0.5459421277
0.55617243052 1.3771140575 -0.83832299709
0.95380628109 1.3438709974 -0.27763715386
0.86728990078 1.2469428778 -0.57179474831
0.82709348202 1.2113976479 -0.84516537189
1.2021943331 1.0970144272 -0.32601642609
1.0923486948 1.0239543915 -0.6133710146
1.0219216347 0.99225389957 -0.93643307686
1.2742292881 0.78648799658 -0.59382510185
1.3955053091 0.84063595533 -0.31739014387
1.2077660561 0.75559616089 -0.90624058247
1.4803869724 0.64206266403 -0.35212537646
1.3499755859 0.62199652195 -0.61675840616
1.3053963184 0.61265528202 -0.76724982262
1.5751425028 0.33182489872 -0.36089724302
1.4136971235 0.46906214952 -0.6008310318
1.4553551674 0.28942090273 -0.60648882389
1.9070000648 3.1750460039e-07 0.65588116646
1.8779842854 0.32454320788 0.65587061644
1.8779820204 0.16220137477 0.93654668331
1.8779858351 -0.1615755707 0.93689870834
1.8779911995 -0.32447627187 0.65624785423
1.8780056238 -0.16219049692 0.37454688549
1.8780198097 0.1618450731 0.37436792254
1.8013218641 0.53864228725 0.96642154455
1.7956504822 0.31841135025 1.2078354359
1.8012613058 0.00048052845523 1.2768735886
1.7956527472 -0.3186968565 1.2076852322
1.8013402224 -0.53838008642 0.96676015854
1.795702219 -0.63779997826 0.65577971935
1.8013571501 -0.53880751133 0.34502395988
1.7956190109 -0.31829178333 0.10258247703
1.807435751 -0.0094653507695 0.055442251265
1.7969924212 0.31738254428 0.10652042925
1.8013103008 0.53860533237 0.34454968572
1.7957061529 0.63784527779 0.65586149693
1.682115674 0.83746165037 0.95695984364
1.6804870367 0.68700826168 1.2264236212
1.672903657 0.46337783337 1.4382730722
1.6789370775 0.16148847342 1.5370503664
1.6794265509 -0.15346762538 1.5385301113
1.6714906693 -0.45054531097 1.4489588737
1.6787221432 -0.68500351906 1.2341302633
1.6791223288 -0.84215003252 0.96192938089
1.6646313667 -0.92512691021 0.65652728081
1.678815484 -0.84297204018 0.34937945008
1.67907691 -0.68534743786 0.078660212457
1.6650758982 -0.46093046665 -0.14614617825
1.680288434 -0.16468387842 -0.21615818143
1.7289384604 0.1050613299 -0.13731566072
1.6678267717 0.46315407753 -0.13756170869
1.679880619 0.68874192238 0.085619270802
1.6822725534 0.83729177713 0.35474735498
1.6782202721 0.90096366405 0.65595144033
1.5687460899 1.0335934162 0.95614284277
1.577423811 0.94227522612 1.1486999989
1.5733059645 0.76692980528 1.4033107758
1.5648334026 0.54052299261 1.5896452665
1.5736175776 0.34915834665 1.6660882235
1.5770674944 0.04204935953 1.7201755047
1.573715806 -0.28257212043 1.6872802973
1.5626337528 -0.56657290459 1.5779306889
1.5736227036 -0.72158026695 1.4445871115
1.5763237476 -0.91672390699 1.201267004
1.5718958378 -1.0428743362 0.90376251936
1.5010319948 -1.1695985794 0.65730649233
1.5723110437 -1.0423309803 0.40749686956
1.5757184029 -0.91760146618 0.1086852178
1.5732738972 -0.71755897999 -0.13868224621
1.5707793236 0.77089262009 -0.095461495221
1.5766071081 0.93983614445 0.15548026562
1.570332408 1.0304032564 0.35261547565
1.567081213 1.0767490864 0.65526866913
1.3800370693 1.2686029673 0.97537559271
1.3784558773 1.1663399935 1.2494789362
1.3818825483 1.0521256924 1.4274814129
1.3807351589 0.84736913443 1.6508302689
1.3799073696 0.58568149805 1.8255354166
1.3808959723 0.28048530221 1.9318084717
1.3805989027 -0.043710883707 1.9623059034
1.3699798584 -0.33366844058 1.9297969341
1.3820210695 -0.5297819972 1.8484325409
1.379067421 -0.79176032543 1.6978604794
1.3814646006 -1.0202096701 1.4720147848
1.3829398155 -1.188172102 1.1936006546
1.3770136833 -1.2900009155 0.89100033045
1.3622237444 -1.3226153851 0.60112243891
1.3764106035 -1.2874679565 0.40483704209
1.3830736876 -1.1876679659 0.11728079617
1.3897606134 -1.0210747719 -0.14085926116
1.3851674795 1.0473737717 -0.12265890092
1.3796541691 1.1631031036 0.059121631086
1.3802865744 1.2690341473 0.33862170577
1.3723040819 1.3146798611 0.65615588427
1.1413804293 1.4823513031 0.97732490301
1.1348934174 1.395103693 1.2631971836
1.1452461481 1.2900893688 1.4453061819
1.142059803 1.1108285189 1.6880367994
1.1417113543 0.87018746138 1.8975474834
1.141066432 0.58911496401 2.0542626381
1.1289213896 0.31448176503 2.1479525566
1.1428723335 0.10003070533 2.1678056717
1.1453274488 -0.20121911168 2.156829834
1.1395070553 -0.51443696022 2.0842769146
1.1435582638 -0.80720692873 1.9384067059
1.1411652565 -1.0438966751 1.756870985
1.1323586702 -1.1896594763 1.6056032181
1.1406433582 -1.3471363783 1.3552296162
1.1416192055 -1.4622364044 1.0591675043
1.139675498 -1.5132453442 0.76266175508
1.1353313923 -1.5165941715 0.55197560787
1.1407066584 -1.4621374607 0.2490491569
1.1469296217 -1.3392463923 -0.048988647759
1.1453611851 1.2947157621 -0.13187368214
1.1385066509 1.3893647194 0.044102951884
1.1412167549 1.482950449 0.33606553078
1.1313587427 1.5240309238 0.65616774559
0.86988288164 1.654278636 0.97598975897
0.86935847998 1.5640364885 1.2837508917
0.86499065161 1.4340231419 1.5439437628
0.87299478054 1.3077249527 1.7136982679
0.87105715275 1.0980188847 1.932423234
0.87040442228 0.83787435293 2.1169116497
0.86860150099 0.5459753871 2.2498693466
0.86652320623 0.23853372037 2.3254368305
0.87477511168 -0.051708806306 2.3363006115
0.86383229494 -0.26233407855 2.3223187923
0.85673034191 -0.55438995361 2.25304389
0.86811232567 -0.83628237247 2.1190490723
0.86899006367 -1.0965880156 1.9348173141
0.86395895481 -1.3048014641 1.7224235535
0.87222021818 -1.4257366657 1.5519169569
0.87262660265 -1.5618906021 1.284386754
0.87329787016 -1.651802659 0.97953689098
0.86775249243 -1.685565114 0.65655618906
0.87305861712 -1.6519721746 0.33296665549
0.87779438496 -1.5557088852 0.018290307373
0.87313324213 1.5603598356 0.022477604449
0.86983782053 1.6540759802 0.33478108048
0.85843789577 1.6893060207 0.65586286783
0.57244712114 1.7756607533 0.97859346867
0.57218754292 1.6913986206 1.2856531143
0.56455463171 1.5654256344 1.5557030439
0.5743342042 1.4451183081 1.7341175079
0.57395398617 1.2426789999 1.9630162716
0.57367628813 0.99180060625 2.1627750397
0.5736219883 0.70670449734 2.3153595924
0.57684767246 0.4034280479 2.4130313396
0.57540011406 0.11170390248 2.455624342
0.56872344017 -0.10498395562 2.4577445984
0.57086998224 -0.40793356299 2.4138450623
0.57074648142 -0.71235275269 2.3139176369
[...]
CELL_DATA 1322
SCALARS cell_data_0 double
LOOKUP_TABLE default
2.12078550437e-08
3.15825611991e-10
1.1038683431e-08
1.58064644177e-09
8.55453706471e-09
2.78249723541e-08
3.15401219213e-09
7.29120084186e-09
1.51555571267e-09
6.60456941653e-08
6.95325352928e-08
5.15858511539e-09
8.29466077613e-09
1.18994564119e-08
2.34709390296e-09
5.29973585256e-09
3.51142053215e-09
4.61777681881e-09
9.83454965939e-09
6.26852495856e-09
1.0077829771e-08
3.54230785148e-10
1.00977655933e-09
3.04292346327e-09
1.16554217382e-08
6.58322600442e-10
2.90627164666e-09
1.44892623575e-09
2.86141603273e-09
2.98410049733e-09
4.63687437946e-09
1.45420991889e-09
8.36822402154e-09
2.65562697131e-09
1.71992557976e-09
1.17056709435e-08
1.3005336031e-08
5.36662184138e-09
4.10658896597e-09
1.24511735227e-08
1.01342164009e-08
4.77399798728e-09
1.04734318526e-08
2.19426877348e-09
1.14394982126e-08
6.40395097818e-09
4.32323286681e-09
4.34810977775e-09
7.57235111698e-09
1.50693454713e-09
1.04875241212e-08
8.10712156308e-09
2.70689708877e-09
4.12405132112e-09
1.21967325165e-09
4.34283160873e-09
7.78402679435e-09
1.20176127352e-08
1.11304975643e-09
3.01963407398e-09
4.84490553593e-09
2.02531985103e-09
9.03988462331e-09
4.45620298722e-09
7.91849799544e-09
9.40589010606e-09
3.76581979272e-09
7.00308977672e-10
3.02392070659e-09
4.16954901645e-10
8.16377724922e-09
2.28110296294e-09
7.06460171361e-09
1.52425450247e-09
3.16117375494e-09
3.90696305638e-09
4.57629885618e-09
9.57068130036e-10
1.52674012967e-08
1.33014826085e-08
6.4223870979e-09
1.41498082091e-08
1.47090426586e-09
1.58463974276e-09
1.86348906495e-09
5.20796785563e-10
4.68756735176e-09
2.88849127136e-09
2.73314620398e-09
1.02269909468e-08
1.99972669743e-09
1.47753007512e-09
1.00421322589e-09
1.83817876368e-09
2.94267358745e-09
4.93221521369e-09
3.07767432922e-09
3.237353135e-09
2.3220234464e-10
5.93356149018e-09
4.44224289017e-09
7.87919926723e-10
3.66954764799e-10
1.51025077705e-08
5.80665606299e-09
1.08626740873e-08
7.54358240308e-09
1.39297058599e-08
1.07340722536e-08
7.54013643764e-09
1.08313523329e-08
9.30386543735e-09
8.68791903181e-09
1.29795833804e-09
1.39755935725e-08
2.43700327667e-09
7.5287053559e-09
6.59047320625e-08
6.90377966499e-08
1.44369595006e-09
3.96236801673e-09
1.93689271988e-08
4.03722507792e-09
1.42682778547e-09
2.69699594564e-08
9.83487030857e-11
4.04945046105e-11
2.83147932445e-11
9.74497014266e-12
5.89322698567e-11
1.64510576611e-11
1.96577636739e-10
1.52876480393e-10
9.30898892786e-11
2.78335793962e-10
6.66624281047e-11
1.57879253204e-10
3.36417324508e-10
1.27492207311e-10
2.29027885229e-10
1.35254209485e-10
1.57319413088e-10
2.46158793396e-10
1.15408662521e-10
3.33603307298e-10
1.3932605256e-10
2.45969971477e-10
2.48891208083e-10
1.35488594372e-10
6.18996830365e-11
1.99619744634e-11
5.95232358715e-11
8.13342218952e-11
4.75858673496e-11
1.2177922068e-10
8.52493040286e-11
7.54327433994e-11
1.37772524468e-10
1.26261139056e-10
3.21659961345e-11
5.28986890381e-11
1.7006195769e-10
1.55112188912e-10
2.37158344813e-11
1.21258894951e-10
3.67615712735e-10
7.63762646979e-11
1.76240055628e-10
1.2321282182e-09
3.23817341781e-11
1.33231756273e-09
1.37596094738e-10
6.05617203848e-10
3.66602579744e-10
3.38292491177e-10
6.80267227071e-10
1.71511018361e-10
9.02290592299e-11
6.84588651972e-13
5.30131027891e-11
2.50085362174e-10
6.78404793204e-12
1.56060920386e-10
1.11946645762e-10
1.01044849943e-10
1.83081526548e-10
5.35308565634e-11
1.63516086412e-10
8.80926577151e-11
2.53851634386e-10
1.05571209637e-10
1.11653386617e-10
1.02046678491e-10
5.55971458516e-11
1.1581673112e-10
5.92421178551e-11
1.39300213085e-10
3.91140541702e-11
3.73159721197e-11
6.65446090193e-11
4.44770972735e-11
1.8286470282e-10
1.0213246983e-10
1.73467518938e-10
7.59561035275e-10
1.87512503134e-10
1.03318188951e-10
3.36024526303e-10
4.14466003459e-10
2.17489516655e-12
4.72087670244e-11
1.14648785847e-10
1.2886960306e-10
2.66071935291e-11
1.15617899441e-10
6.9447748743e-11
2.2091859224e-10
1.509721986e-10
1.20332971207e-10
7.66381070733e-11
4.67646431889e-12
1.13537825682e-10
2.45562963909e-10
1.17318535489e-10
2.43186550762e-10
1.1392791255e-10
1.98580887133e-10
1.82224050233e-10
1.99108949179e-11
1.66394803299e-11
9.17265457427e-11
2.61246774563e-10
1.25256785207e-11
2.5667092086e-10
1.27898732838e-11
1.71076458667e-11
9.52573918052e-13
1.63225702024e-10
2.20625452964e-10
4.37673331967e-10
4.51762453088e-10
7.52749482931e-10
5.074537768e-11
9.36071339528e-10
5.2204492927e-10
4.43124697885e-10
3.78090603579e-10
1.7946798794e-10
1.24058013088e-10
1.92634450939e-12
4.62753192955e-11
1.6305396502e-11
8.92333625001e-11
7.26673996778e-11
1.11282567597e-10
2.99587230209e-11
9.09204936917e-11
1.6604210447e-11
4.77039007407e-11
1.19625352151e-11
3.79535398574e-11
1.03884556212e-10
3.68452642499e-11
6.67091272757e-11
1.00995481417e-10
6.41700928286e-11
4.89094157859e-11
2.21089775609e-10
7.65201388801e-11
4.08317745661e-11
7.0433441603e-11
8.90314700444e-11
1.4217078431e-10
1.2883030557e-11
5.76826984862e-12
2.29018734717e-11
1.55350866992e-10
8.38825066279e-12
2.91976083092e-10
4.47629555473e-11
1.80780708607e-10
5.30937164851e-11
4.81071393828e-10
5.15536177695e-10
1.02815876349e-09
4.12710466242e-10
7.72612336071e-10
1.19276623193e-10
3.78413589579e-10
1.69514116795e-10
2.36314942342e-10
4.58668710137e-11
5.1092350992e-11
3.71581888224e-11
5.27989597396e-11
8.3389185023e-11
1.38291052295e-10
1.12835112382e-10
1.14066766935e-10
1.08775667507e-10
5.47293863079e-11
5.27823789411e-11
2.99822397825e-11
1.1619490663e-11
2.37743297523e-11
1.51050431712e-10
8.1460782883e-11
1.97007376766e-11
1.22086827308e-10
2.85474480646e-10
1.90947854049e-10
5.9849919275e-11
1.65363284156e-11
5.42754325075e-11
6.2325652978e-11
4.67743489575e-11
7.69503741253e-11
8.27549408586e-11
1.27562608635e-12
5.25626899464e-11
6.01409611486e-11
6.32787881483e-11
3.15831610929e-11
7.73038767604e-11
7.65764778679e-11
9.84148889894e-11
2.14365785362e-11
5.99573844372e-10
2.11054857343e-10
1.24352096389e-09
2.55825241469e-10
4.25817706451e-10
3.3223140833e-10
1.7851307702e-10
1.49719335053e-10
4.36028887987e-11
7.35231701746e-11
1.9506048254e-12
9.82280609422e-12
2.56212509252e-10
1.74508876625e-11
9.77235552928e-11
9.88206306949e-11
7.68577274867e-12
6.1429034249e-11
2.82024129726e-11
5.1477840763e-11
3.8298333567e-11
2.81894483978e-11
4.74343983273e-11
1.56552200854e-11
5.52434079905e-12
2.94090618084e-11
6.96535862454e-11
8.14477633294e-11
1.15769139234e-10
3.79278416687e-12
1.92790726249e-11
8.43714051163e-12
2.77213774341e-11
2.87732752447e-11
2.18502808774e-11
2.63895474168e-11
6.74767690093e-11
5.89039868708e-11
1.13816241854e-10
6.85613470983e-11
4.94153644487e-11
1.1928297772e-10
4.06166195122e-11
2.92906152634e-10
1.87809113036e-10
1.0180581949e-09
4.05523094939e-10
2.0409430364e-09
1.05278715906e-09
3.63595473896e-10
5.89684586878e-10
1.2650271033e-10
2.71129094026e-10
1.01706675061e-10
1.73773226256e-10
6.41155074495e-11
6.22286162042e-12
2.41865509079e-11
1.44179933039e-10
1.23978880673e-10
1.29121488199e-10
2.78038830886e-11
1.34471025246e-10
5.64720925657e-11
1.08147532595e-10
4.89979939504e-11
1.37746081044e-10
1.24551633966e-10
5.18176191236e-11
5.36225084887e-11
2.78726580984e-10
2.62686189174e-10
1.28409742144e-10
2.11643780563e-11
1.5265482562e-10
3.56050379704e-11
1.54008580431e-10
8.86273172385e-12
1.19395529228e-10
1.05469256274e-10
7.0360560785e-11
1.27323215567e-10
1.15782955971e-10
1.46474296395e-10
1.22866881538e-10
1.38476798691e-11
7.53650604119e-11
2.81929813173e-11
1.53849344352e-10
1.48165640408e-11
2.58625708177e-10
2.55149961408e-10
7.73325358188e-10
1.62658947509e-10
1.7021124084e-09
1.75257096347e-09
1.8640797895e-10
8.8614906951e-10
8.60074686489e-11
3.03674623428e-10
1.84294169922e-11
6.96545097289e-11
1.28851423551e-10
4.90223344836e-11
9.02078358582e-11
2.13197620571e-11
1.57951024257e-11
1.16299744315e-10
1.68548361631e-11
5.92272398861e-11
7.01844320221e-12
1.86031773455e-10
5.04088959168e-11
1.51201290384e-10
1.26869934951e-10
6.23879002544e-11
1.76302690031e-10
1.08176580858e-10
1.31844493114e-10
1.3631642429e-10
8.02893557725e-13
1.91212647869e-10
8.36412755727e-12
1.19213964122e-10
1.02127454234e-10
1.47215378315e-10
1.08255002003e-10
3.21566665479e-11
1.59559470655e-10
1.00792119858e-10
1.52185932764e-10
1.73909938429e-10
8.82888617759e-11
1.47942607396e-10
6.31480261562e-11
2.11246418064e-10
6.08816862556e-11
2.19988718157e-10
1.14030425384e-10
9.66596622992e-11
6.09273207361e-11
5.01339158109e-10
2.75173885326e-10
1.21272230338e-09
2.40042065491e-09
2.81111912942e-10
9.65245088125e-10
2.24395364313e-11
2.9344687221e-10
3.6169552658e-10
1.09917000305e-10
7.8699799878e-11
1.22301431093e-10
8.10771506321e-11
1.20767216181e-10
8.03163143524e-11
1.23180660089e-10
2.63024777787e-11
2.71995002482e-11
2.93444917956e-11
4.82752865352e-11
4.79326625539e-11
7.11597505053e-11
9.72228333251e-11
9.33707199757e-11
2.0883127458e-10
2.19621264761e-10
1.42118599642e-10
6.06502334093e-11
7.77145140737e-11
1.16661535796e-10
3.34163982265e-11
4.36063066453e-11
7.86780755248e-11
4.06529629978e-12
2.48388818994e-10
6.70715353934e-11
2.85140993343e-10
3.01971272931e-11
4.27007483886e-11
8.19739646441e-11
8.72682010476e-11
1.15022755007e-11
6.68412105603e-11
6.89711088545e-11
7.85968261943e-12
1.30759958553e-10
1.11960988293e-11
1.91094856362e-10
6.13680004351e-11
8.58290513408e-11
5.75111785785e-11
7.77747607796e-10
1.94095669656e-10
1.41939959095e-09
1.0920896244e-10
4.80851145671e-10
3.77707774544e-11
7.52864141976e-10
9.6631626468e-11
3.54549429555e-10
5.68804607436e-11
8.99180800917e-11
4.80955584219e-11
3.62913936156e-11
8.96096225472e-11
3.67157311206e-11
1.30172855375e-11
7.68249552737e-11
2.02852928589e-11
1.86054192059e-11
1.05413617226e-11
7.78006742317e-12
1.15238455716e-10
1.10472812918e-10
8.67096990473e-11
1.85016515836e-10
1.48975150433e-10
4.14470648821e-11
2.49770811471e-11
3.08425301912e-11
1.90690280417e-11
5.86257371861e-11
1.4043838826e-11
1.85807903095e-11
1.40624223253e-11
9.77564439248e-11
1.56901195521e-10
6.62489550506e-11
1.51979620943e-10
1.48397971905e-10
3.02630251075e-11
1.29067093973e-10
1.60767596148e-10
1.70369790272e-10
2.63764478586e-10
3.69343769355e-10
2.32282804329e-10
1.04745100138e-09
8.64880962929e-10
2.11834834463e-09
2.41343070554e-09
4.61169708091e-10
8.06923346401e-10
8.23903511567e-11
8.95142640885e-10
8.04606743327e-11
4.50642508731e-10
4.80242036538e-11
2.36106903593e-10
7.03086653495e-12
3.66773647283e-11
8.67928103576e-11
4.86026451701e-11
5.00002860714e-11
7.38075005473e-11
2.06743206317e-11
6.90502828296e-11
2.65005130908e-11
1.13812271227e-11
2.71849502239e-11
4.01983084771e-11
3.18651895709e-11
9.52206605942e-12
8.16273070721e-11
4.61048224256e-11
6.54251806926e-11
2.52859613632e-11
1.16891157937e-11
1.89035654685e-11
1.02829914412e-10
4.14781545963e-11
1.02743528034e-10
9.56537912657e-11
5.40148530496e-11
4.64619278596e-11
1.34311752363e-11
2.38865803548e-10
6.7134644682e-12
4.50131376558e-10
1.06022583043e-10
8.12425205294e-10
1.12545419795e-09
1.36432687288e-09
2.50335945003e-09
2.05279686242e-09
2.19658529647e-09
4.34897621893e-10
1.10306087719e-09
7.57462602642e-11
9.60384629881e-10
1.77698313148e-10
4.88435345323e-10
3.83705680588e-11
1.99748481631e-10
8.2171555599e-11
7.45129929504e-11
1.80985900404e-11
1.12655716129e-10
1.27956746493e-11
8.17274122688e-11
4.76795780582e-11
3.26880602338e-11
5.72335962768e-11
4.27158128231e-11
1.75500948322e-10
5.18587136234e-11
2.25296461832e-11
1.6536937442e-10
5.92168883108e-12
6.00489242985e-11
2.45809153506e-11
6.16427878514e-11
1.07602961012e-10
2.50719411098e-11
1.47638906047e-10
3.06343246165e-11
2.88901976056e-13
5.46165901248e-11
8.62828390272e-11
1.65349823784e-10
1.85018289071e-10
2.53861269983e-10
2.32963348135e-10
2.51609840178e-10
7.93423799251e-10
1.53263503339e-09
1.85174862072e-09
9.29472563358e-10
6.08410825257e-10
1.23599001231e-09
3.67101636386e-11
1.0600060312e-09
2.00142776889e-10
4.4016414049e-10
4.87828597003e-12
8.59001282335e-11
1.29566478969e-11
1.51871248604e-10
2.67121584524e-11
1.1891611293e-10
7.59452975594e-11
3.53986610331e-11
9.45109437733e-11
4.32540874432e-11
1.45565181639e-11
4.48490766604e-11
3.47566019649e-11
1.20739033814e-10
6.03527993884e-11
1.74046360621e-10
1.42913862111e-10
8.16521889026e-11
8.86962994495e-11
1.62252002651e-11
8.28243016161e-11
6.90728006718e-11
1.26963882002e-10
4.26860549579e-11
4.19810912867e-10
5.04986522873e-11
4.31626779505e-10
1.41876429595e-10
1.88248446736e-10
5.92185527659e-10
1.78089945157e-09
4.91985085146e-10
1.65269532619e-10
1.21364906623e-09
9.92011173924e-11
1.00394881062e-09
9.04083261061e-11
3.9764761251e-10
9.06664993892e-11
1.12482837165e-10
1.172054209e-11
1.27624156679e-10
1.00085489719e-11
3.95634246318e-11
8.89870549091e-11
3.23008676218e-11
1.26500876401e-10
1.66576019658e-11
1.51146704146e-10
1.21522250766e-10
1.47987319341e-11
2.78227409041e-11
1.11446636924e-10
7.20485130453e-11
1.65573143251e-10
6.49145631128e-12
2.1026640249e-10
1.30947479719e-10
3.89952300367e-10
1.70091776119e-10
1.468357517e-10
3.21584742409e-10
5.34398317225e-10
2.84169119701e-09
2.75570829762e-09
6.57120146696e-10
1.72962422676e-10
1.55753291872e-09
2.62603426818e-10
4.99351423927e-10
1.90859760895e-10
5.85085472107e-11
1.54723218334e-10
1.07015337995e-10
5.47162162157e-11
5.53570289163e-11
1.89182367155e-11
2.65214142159e-11
4.12904780659e-11
5.18831964086e-11
2.70828744295e-11
6.52479678062e-11
5.80422892217e-11
1.1932010055e-11
4.24202280504e-11
6.79040919996e-11
1.0335593953e-10
1.06691627079e-10
3.68427493682e-10
4.03659923527e-10
8.96031458721e-10
9.84224453939e-10
3.29031441869e-09
2.9069423005e-10
1.0859453198e-09
4.75608343599e-11
1.11347030098e-09
3.7566409521e-10
4.35905246472e-10
5.45664151116e-11
1.87820024469e-10
3.67352666951e-11
3.96767207635e-10
1.14291448558e-10
4.11135538765e-10
2.90318322029e-10
1.56210343017e-10
3.61825016598e-11
1.79998706739e-10
4.36716218351e-10
6.27397563786e-10
1.751966491e-09
1.2558083387e-09
2.16026031699e-09
4.27684277326e-10
1.34086441827e-09
3.57874290497e-10
3.77208647853e-10
1.12909285025e-10
8.54631147672e-10
4.53793260212e-10
3.51341344315e-10
2.95283115307e-10
6.7321803029e-10
2.28185199549e-09
9.40601951281e-10
3.91289763018e-09
6.9055108683e-10
1.92945139593e-09
5.59550697353e-10
1.0850677376e-09
5.3968502017e-10
4.41918967534e-10
1.59045198832e-09
4.2865993981e-10
5.34126093542e-10
5.63553148818e-09
4.45759486012e-09
5.72027577358e-09
3.89023236518e-09
2.9519460451e-09
7.44608392672e-09
6.41227223151e-09
4.1207373104e-09
1.37232200372e-09
3.806633798e-09
2.06094758985e-09
4.13551692609e-09
6.46986264899e-09
1.63902209841e-09
3.9901516629e-09
2.9446868844e-09
4.97733994379e-09
4.31040733265e-09
8.20404005814e-09
4.46864608052e-10
6.10888866508e-10
3.42088146899e-09
2.61297984796e-09
3.14232013928e-09
1.91945332561e-09
3.18759067504e-09
2.90949638167e-10
2.14204636802e-09
1.67052389852e-09
6.40213891339e-10
1.53333874577e-09
6.76119866117e-10
5.46493704571e-10
1.01022486008e-09
5.0093415376e-10
1.38187140483e-09
1.91454734332e-09
5.34347834316e-10
1.97139731981e-09
7.1529198454e-10
1.12364963536e-09
3.88228248573e-10
1.88418874362e-10
9.27910953896e-11
7.88663951187e-10
1.05019375449e-09
1.0740697405e-09
5.57443900528e-10
2.20765232633e-09
4.23247100885e-10
1.52352698582e-09
2.14045570224e-09
1.27181346596e-09
3.13466809289e-09
4.32258689441e-10
2.24417521914e-09
3.95771867636e-10
3.78348802956e-09
2.07091700797e-10
4.60597661975e-09
1.00304747917e-10
9.08474993679e-11
1.30542699331e-09
1.98272265931e-10
6.54955320194e-09
6.26902214702e-10
5.82490386974e-09
2.96209675101e-09
6.54397362409e-09
3.23855284263e-09
5.84847027636e-09
2.84341970239e-09
4.06569698878e-09
2.80752113262e-08
1.80912029312e-08
5.97546270761e-08
1.44201573368e-08
6.7310542253e-08
3.33549723634e-08
1.28633187805e-08
2.78023595614e-08
5.10117428606e-08
4.84693760409e-08
4.5256987947e-08
1.25101535906e-08
1.14673062149e-09
1.02859483555e-08
1.87614848388e-08
4.2418213874e-08
1.72044801369e-08
7.12457714796e-08
4.26511868222e-08
1.46090979447e-08
4.21169692289e-08
5.37189500332e-08
2.90089396985e-08
9.00958926425e-08
7.50193813848e-08
5.49001113835e-08
5.72186786269e-08
4.46019047088e-08
4.24476453755e-08
1.27939533785e-08
6.17156246406e-09
2.84597768704e-09
1.69995694111e-08
4.93656621836e-09
1.06577158623e-09
1.56016287763e-09
2.00194983829e-09
3.57548340751e-10
6.78604368177e-09
6.16434915476e-09
1.52611130662e-09
4.2076497299e-09
4.26109513079e-09
5.19703428127e-09
9.10321251952e-09
1.06311456256e-09
1.02496485378e-08
2.7045209883e-09
1.09380425303e-08
6.67140034386e-09
7.31023773803e-09
8.81961626939e-09
5.35025406579e-09
6.85271929332e-09
3.24813209669e-09
3.3658378729e-09
1.35683138178e-08
9.52602535301e-09
1.51456076922e-09
2.68915075875e-09
9.02392781062e-10
3.08645642792e-10
5.79768914854e-09
1.45721078804e-09
8.94454599778e-09
1.50311635651e-10
7.42725601076e-09
4.63499349182e-10
7.43909457682e-09
1.62544667895e-09
1.78571774126e-08
4.11902811872e-09
2.2535397146e-08
1.06222147593e-08
2.16642450213e-08
1.23642309058e-08
1.83897112501e-08
8.67889227196e-09
1.17289433195e-08
1.47955488241e-08
1.30093038165e-08
1.24952038755e-08
8.5269521868e-09
7.73887257125e-09
5.344819271e-09
2.91120533756e-09
4.08115964256e-09
5.47050607404e-09
1.7006683714e-09
3.48009325717e-09
2.92594644197e-09
1.21116945465e-09
1.63292307937e-09
2.70221161743e-09
4.30931655107e-10
1.32219695955e-09
4.89159237908e-09
3.9722924064e-09
1.09609392046e-10
7.43234045175e-09
3.08650474002e-09
8.21300105101e-09
4.68522542229e-09
5.91892350471e-09
5.87179410671e-09
7.68485746182e-09
2.22328275334e-09
7.70216745086e-09
6.5797933881e-09
6.55690565884e-09
5.72974061671e-09
4.73349047913e-09
5.56846717383e-09
3.52912110069e-09
2.63258346355e-09
1.06458364284e-09
1.24321218308e-09
6.13553364218e-10
1.86435778991e-09
1.38550266815e-09
1.62907374816e-09
2.60133802021e-10
1.01972791555e-10
6.02900623223e-11
1.5281325413e-09
1.94345748612e-09
1.16642852083e-09
9.09378882939e-11
5.01358388823e-10
9.8269224193e-10
1.31169428802e-09
1.89722013083e-10
3.74164544985e-09
4.03439471398e-10
1.26999769617e-09
1.92236131007e-10
9.90886369962e-10
2.97845940553e-10
1.0139001963e-09
1.81389547156e-09
2.42659359231e-09
3.30829730732e-10
1.79316758126e-09
3.90008633664e-09
2.14245436698e-10
2.06218794468e-09
2.13480567684e-09
6.63750601966e-11
3.00758780678e-09
1.43162996637e-10
6.17299284362e-10
2.42872842651e-09
1.73693437132e-09
1.02912574263e-09
2.7519229685e-09
1.11783789179e-09
3.10816901624e-09
4.41410703691e-10
3.01711201262e-09
1.93610690598e-10
6.33958298337e-10
2.6259800066e-09
1.27244755025e-09
8.92389413176e-10
2.24538563094e-09
1.62287070359e-09
1.2734645061e-09
3.4898865168e-09
1.55024589525e-09
3.57824468581e-09
2.39981005511e-10
1.89527349134e-09
1.49762819402e-09
3.75355730297e-09
1.96772739494e-09
1.080862479e-10
1.691181879e-09
3.97323318878e-10
1.14397857861e-09
2.00521633456e-09
3.23127586889e-09
9.38930231851e-10
2.04190259862e-09
1.70281689424e-09
1.4673185382e-11
1.4232734576e-09
3.69888044994e-09
1.96909505083e-09
2.06591333876e-09
1.4462062647e-09
1.65003932792e-09
1.1357851705e-09
2.28769291607e-09
4.18016373009e-09
1.38527195882e-09
2.8678445347e-09
1.74781860316e-10
4.76998796735e-09
1.31800204453e-09
1.19044755714e-09
5.10434602775e-10
2.16851436527e-09
1.17109572152e-09
4.79660052077e-11
3.24893933794e-09
8.96442342258e-10
3.0969620174e-09
1.60385598976e-09
3.13940693172e-09
1.59585269323e-09
7.96852789683e-11
1.07538793097e-09
5.23280247975e-10
6.38438681251e-10
1.22328732235e-09
1.36149580049e-09
3.43883317348e-09
3.49915174867e-09
3.19786393876e-09
1.3487269327e-09
1.60220208126e-09
4.24211508804e-10
3.48687693004e-10
5.48165520476e-09
3.32340518206e-09
5.37501807505e-09
2.74963452387e-09
1.56466346914e-10
3.78870610439e-09
3.13358619542e-10
2.15958742498e-09
3.59368353011e-09
7.56574592584e-09
5.07232635425e-09
4.723974321e-09
3.71428954503e-09
4.0596805514e-10
3.5361291754e-09
1.80510401872e-09
3.95085160345e-09
1.70863373305e-09
1.08164316236e-09
5.57407272134e-09