# vtk DataFile Version 3.0
File Name: Molecule/methanol/methanol_2.0-5.vtk
ASCII
DATASET UNSTRUCTURED_GRID
FIELD FieldData 1
TIME 1 1 double
0.0
POINTS 117 double
1.611 0.0 -0.359
1.445 -0.731 -0.342
1.403 0.0 -0.933
0.98 -1.317 -0.296
1.252 -0.666 -0.918
0.308 -1.642 -0.229
0.828 -1.2 -0.876
0.216 -1.496 -0.815
-0.438 -1.642 -0.155
-0.464 -1.496 -0.747
-1.11 -1.317 -0.088
-1.076 -1.2 -0.686
-1.576 -0.731 -0.042
-1.5 -0.666 -0.644
-1.742 0.0 -0.025
-1.651 0.0 -0.629
-1.576 0.731 -0.042
-1.5 0.666 -0.644
-1.11 1.317 -0.088
-1.076 1.2 -0.686
-0.438 1.642 -0.155
-0.464 1.496 -0.747
0.308 1.642 -0.229
0.216 1.496 -0.815
0.98 1.317 -0.296
0.828 1.2 -0.876
1.445 0.731 -0.342
1.252 0.666 -0.918
1.907 0.0 0.656
1.763 0.722 0.656
1.763 0.361 1.281
1.763 -0.361 1.281
1.763 -0.722 0.656
1.763 -0.361 0.03
1.763 0.361 0.03
1.354 1.123 1.377
1.354 0.554 1.87
1.354 -0.19 1.977
1.354 -0.874 1.664
1.354 -1.281 1.032
1.354 -1.281 0.28
1.354 1.335 0.656
0.741 1.571 1.412
0.741 1.087 2.019
0.741 0.388 2.356
0.741 -0.388 2.356
0.741 -1.087 2.019
0.741 -1.571 1.412
0.741 -1.744 0.656
0.741 1.744 0.656
0.019 1.744 1.378
0.019 1.335 1.99
0.019 0.722 2.399
0.019 -0.0 2.543
0.019 -0.722 2.399
0.019 -1.335 1.99
0.019 -1.744 1.378
0.019 -1.888 0.656
0.019 1.888 0.656
-0.703 1.744 0.656
-0.703 1.571 1.412
-0.703 1.087 2.019
-0.703 0.388 2.356
-0.703 -0.388 2.356
-0.703 -1.087 2.019
-0.703 -1.571 1.412
-0.703 -1.744 0.656
-1.316 1.335 0.656
-1.316 1.123 1.377
-1.316 0.554 1.87
-1.316 -0.19 1.977
-1.316 -0.874 1.664
-1.316 -1.281 1.032
-1.725 0.722 0.656
-1.725 0.361 1.281
-1.725 -0.361 1.281
-1.725 -0.722 0.656
-1.868 0.0 0.656
0.648 -0.871 -1.742
-0.12 -1.149 -1.755
-0.12 -0.544 -2.172
0.648 -0.189 -2.053
-0.12 0.185 -2.261
0.648 0.552 -1.946
-0.12 0.872 -2.0
0.648 1.118 -1.456
-0.12 1.359 -1.451
-0.887 -1.276 -1.112
-0.887 -0.871 -1.742
-0.887 -0.189 -2.053
-0.887 0.552 -1.946
-0.887 1.118 -1.456
-1.449 -0.384 -1.402
-1.449 0.384 -1.402
0.929 -0.2865 -1.7275
1.21 -0.384 -1.402
0.929 0.0975 -1.7275
1.3275 0.333 -0.9255
1.231 0.525 -1.16
1.21 0.384 -1.402
1.3065 0.192 -1.1675
1.21 0.0 -1.402
1.3275 -0.333 -0.9255
1.3065 -0.192 -1.1675
1.231 -0.525 -1.16
0.929 0.468 -1.674
0.648 0.835 -1.701
0.929 0.751 -1.429
1.0695 0.04875 -1.56475
1.0695 -0.14325 -1.56475
0.929 -0.0945 -1.7275
1.04 -0.933 -0.897
0.95 -0.7685 -1.33
0.738 -1.0355 -1.309
1.0695 0.426 -1.538
1.0695 0.24075 -1.56475
0.929 0.28275 -1.70075

CELLS 230 920
3 0 1 2
3 1 3 4
3 3 5 6
3 6 5 7
3 5 8 7
3 7 8 9
3 8 10 9
3 9 10 11
3 10 12 11
3 11 12 13
3 12 14 13
3 13 14 15
3 14 16 15
3 15 16 17
3 16 18 17
3 17 18 19
3 18 20 19
3 19 20 21
3 20 22 21
3 21 22 23
3 22 24 23
3 23 24 25
3 24 26 25
3 25 26 27
3 26 0 27
3 28 29 30
3 28 30 31
3 28 31 32
3 28 32 33
3 28 33 34
3 28 34 29
3 30 29 35
3 30 35 36
3 30 36 37
3 31 30 37
3 31 37 38
3 31 38 39
3 32 31 39
3 32 39 40
3 33 32 40
3 29 41 35
3 35 41 42
3 35 42 43
3 36 35 43
3 36 43 44
3 37 36 44
3 37 44 45
3 38 37 45
3 38 45 46
3 38 46 47
3 39 38 47
3 39 47 48
3 40 39 48
3 41 49 42
3 42 49 50
3 42 50 51
3 43 42 51
3 43 51 52
3 44 43 52
3 44 52 53
3 45 44 53
3 45 53 54
3 46 45 54
3 46 54 55
3 47 46 55
3 47 55 56
3 48 47 56
3 48 56 57
3 49 58 50
3 50 58 59
3 50 59 60
3 51 50 60
3 51 60 61
3 52 51 61
3 52 61 62
3 53 52 62
3 53 62 63
3 54 53 63
3 54 63 64
3 55 54 64
3 55 64 65
3 56 55 65
3 56 65 66
3 57 56 66
3 60 59 67
3 60 67 68
3 61 60 68
3 61 68 69
3 62 61 69
3 62 69 70
3 63 62 70
3 63 70 71
3 64 63 71
3 65 64 71
3 65 71 72
3 66 65 72
3 68 67 73
3 68 73 74
3 69 68 74
3 70 69 74
3 70 74 75
3 71 70 75
3 72 71 75
3 72 75 76
3 74 73 77
3 75 74 77
3 76 75 77
3 76 77 14
3 76 14 12
3 76 12 10
3 76 10 72
3 72 10 66
3 66 10 8
3 66 8 57
3 57 8 5
3 57 5 48
3 48 5 3
3 48 3 40
3 40 3 1
3 40 1 33
3 33 1 0
3 33 0 34
3 34 0 26
3 34 26 29
3 29 26 41
3 41 26 24
3 41 24 49
3 49 24 22
3 49 22 58
3 58 22 20
3 58 20 59
3 59 20 18
3 59 18 67
3 67 18 16
3 67 16 73
3 73 16 14
3 73 14 77
3 78 79 80
3 81 78 80
3 81 80 82
3 83 81 82
3 83 82 84
3 85 84 86
3 79 87 88
3 80 79 88
3 80 88 89
3 82 80 89
3 82 89 90
3 84 82 90
3 84 90 91
3 86 84 91
3 88 87 92
3 89 88 92
3 89 92 93
3 90 89 93
3 91 90 93
3 91 93 17
3 91 17 19
3 91 19 21
3 91 21 86
3 86 21 23
3 86 23 85
3 85 23 25
3 85 25 27
3 78 7 79
3 79 7 9
3 79 9 87
3 87 9 11
3 87 11 13
3 87 13 92
3 92 13 15
3 92 15 93
3 93 15 17
3 81 94 78
3 78 94 95
3 96 81 83
3 2 97 0
3 0 97 27
3 27 98 85
3 99 98 100
3 98 97 100
3 98 27 97
3 100 97 2
3 99 100 101
3 101 100 2
3 4 102 1
3 1 102 2
3 95 103 104
3 103 102 104
3 103 2 102
3 104 102 4
3 95 104 78
3 2 103 101
3 101 103 95
3 105 106 107
3 105 83 106
3 107 106 85
3 85 106 84
3 106 83 84
3 101 108 99
3 101 109 108
3 109 110 108
3 109 94 110
3 108 110 96
3 94 109 95
3 95 109 101
3 96 110 81
3 110 94 81
3 99 107 98
3 98 107 85
3 6 111 3
3 3 111 4
3 78 112 113
3 112 111 113
3 112 4 111
3 113 111 6
3 78 113 7
3 113 6 7
3 4 112 104
3 104 112 78
3 99 114 107
3 114 105 107
3 96 115 108
3 108 115 99
3 105 116 83
3 83 116 96
3 96 116 115
3 116 114 115
3 116 105 114
3 115 114 99

CELL_TYPES 230
5
5
5
5
5
5
5
5
5
5
5
5
5
5
5
5
5
5
5
5
5
5
5
5
5
5
5
5
5
5
5
5
5
5
5
5
5
5
5
5
5
5
5
5
5
5
5
5
5
5
5
5
5
5
5
5
5
5
5
5
5
5
5
5
5
5
5
5
5
5
5
5
5
5
5
5
5
5
5
5
5
5
5
5
5
5
5
5
5
5
5
5
5
5
5
5
5
5
5
5
5
5
5
5
5
5
5
5
5
5
5
5
5
5
5
5
5
5
5
5
5
5
5
5
5
5
5
5
5
5
5
5
5
5
5
5
5
5
5
5
5
5
5
5
5
5
5
5
5
5
5
5
5
5
5
5
5
5
5
5
5
5
5
5
5
5
5
5
5
5
5
5
5
5
5
5
5
5
5
5
5
5
5
5
5
5
5
5
5
5
5
5
5
5
5
5
5
5
5
5
5
5
5
5
5
5
5
5
5
5
5
5
5
5
5
5
5
5
5
5
5
5
5
5
5
5
5
5
5
5

CELL_DATA 230
SCALARS cell_data_0 double
LOOKUP_TABLE default
4.94771810439e-07
2.06558585615e-07
5.03177226937e-08
1.34278855899e-08
5.34258348988e-08
2.66825433959e-07
2.82470966928e-07
3.47418290684e-07
4.53899560396e-07
1.082820176e-07
2.81114256908e-08
5.90538059214e-08
4.11276258965e-07
1.01957493555e-07
7.88103194447e-08
1.81120377456e-07
2.91799066924e-07
1.26296059468e-07
1.58138579789e-07
1.40218149232e-07
7.16248540717e-08
2.0665274918e-07
1.72576227098e-07
1.2427922584e-07
1.13765416639e-06
2.43652778778e-08
8.8251722844e-09
4.64058855954e-08
5.90982121402e-08
1.58364479313e-07
3.4354609959e-08
2.77592256121e-08
1.49911533119e-08
9.95460561807e-09
4.86100168537e-09
5.5632996672e-08
1.67620656118e-08
8.01573829087e-08
2.53156829299e-08
1.82668768094e-07
2.27031309419e-08
6.95300493627e-09
1.19375579242e-08
1.30574471916e-08
1.17819292662e-08
1.61167338497e-08
7.45952760422e-09
1.31273115383e-08
1.79025659731e-08
8.78538658737e-10
2.10870138081e-08
2.2121693337e-08
9.06284467442e-08
3.92082051436e-08
1.46975196519e-09
2.25311122659e-08
6.91412500786e-09
1.26561566592e-08
1.01687340123e-08
1.82664131808e-09
1.47011552111e-09
7.98480212837e-09
6.37943002692e-09
7.57068997532e-09
1.38495980721e-10
1.30011293297e-08
2.55723453823e-10
2.28058107885e-08
2.53683850524e-08
6.58234714402e-10
1.17866472564e-08
2.03429178748e-08
6.56818765304e-09
9.68666011399e-09
1.03485465362e-08
6.77649652678e-10
8.67749480762e-09
1.60230722915e-09
5.93042136163e-09
1.39204767928e-08
1.61434589254e-08
2.13726727289e-08
1.42260662014e-08
8.15207076198e-09
2.84810506859e-08
1.25736399947e-08
8.25161009111e-09
1.43285775307e-08
5.2441824058e-09
3.22695135992e-09
1.35244517066e-08
6.57084234932e-09
1.40144683848e-08
1.1271141199e-08
1.10363477062e-09
2.74143822152e-09
4.28759102533e-08
1.54501141664e-08
4.30264326242e-09
4.74369005281e-09
2.13685302144e-08
3.00813099039e-09
9.08973044183e-10
3.34660001312e-08
4.37917493022e-08
7.1488408593e-09
4.479365989e-08
2.83354546665e-08
1.72831738003e-07
1.94824821027e-07
5.64933014813e-08
1.79639545395e-08
2.12951873419e-07
4.8999473418e-08
1.79396249646e-07
5.27247535695e-08
1.0659410132e-07
3.34930679662e-08
3.00700090614e-07
1.85535648838e-07
8.56078170138e-07
9.96165237927e-08
4.58126219106e-07
4.04116215983e-08
1.96007240687e-08
3.05817496019e-08
5.90193295707e-08
1.13835133947e-07
6.46017505412e-08
1.819018132e-07
3.90270876878e-08
1.96208880437e-07
1.37962292238e-08
2.14073312011e-07
4.2389088182e-09
2.06213143779e-07
2.61830267899e-08
2.45960435931e-07
1.38630502506e-06
9.36535625989e-07
1.59261688011e-06
6.73451159756e-07
1.81842500366e-07
3.28292429858e-07
8.80505298883e-08
3.95176614842e-07
1.05274716082e-07
1.64767569876e-07
6.01222868239e-08
1.29151607616e-07
1.56193977672e-07
2.43116016366e-07
5.37528489406e-07
5.0772536782e-07
3.31948204593e-07
4.87052142461e-07
1.21025610367e-06
4.25246907114e-07
2.89805659459e-07
1.27267130083e-07
4.8296470862e-08
2.36368157022e-07
1.60346184382e-07
1.11658369262e-06
9.75789850861e-07
3.50990773486e-07
3.64017381496e-07
7.39483517245e-07
3.60012919827e-07
1.73169826845e-06
3.40036531915e-07
3.16530506075e-08
3.33651931191e-07
1.36272520921e-07
4.10973552628e-06
1.23919258493e-06
1.40445320472e-07
6.40705124304e-08
1.64559624522e-07
4.60967324682e-07
3.42842043265e-07
1.33071614738e-07
6.83278855309e-07
4.3880239453e-07
2.79089105767e-06
4.96985602071e-08
1.37696088883e-06
1.36538044391e-06
2.06664765408e-07
1.68920029209e-06
9.91409593285e-08
1.78964999498e-06
3.19385893007e-06
1.78090764034e-06
6.14594809406e-07
2.68571042306e-07
1.19797277073e-07
2.35408911405e-07
4.21633215087e-07
5.28792545666e-08
5.6393791977e-07
4.84886745287e-07
1.82109219891e-07
7.09645149692e-07
4.33046247262e-07
9.23087660873e-07
2.30380735892e-07
2.08456673976e-07
1.83954640725e-06
5.10962977915e-07
3.23661046539e-08
1.52221335961e-07
1.73166404824e-07
3.16126626781e-08
9.94856835683e-07
1.66449279427e-07
4.76354040701e-07
2.23453708711e-07
2.49726776088e-07
6.02671502299e-07
6.01599163963e-07
1.07107717764e-07
1.98638547665e-07
3.19580652689e-07
1.39320776368e-07
3.92334544595e-07
7.01191181428e-07
6.72068991258e-08
4.35407122514e-08
3.53543240307e-07

