# vtk DataFile Version 3.0
File Name: Molecule/methanol/methanol_4.0-6.vtk
ASCII
DATASET UNSTRUCTURED_GRID
FIELD FieldData 1
TIME 1 1 double
0.0
POINTS 218 double
1.5429849625 -0.51803034544 -0.30397617817
1.2148218155 -1.0962846279 -0.29492071271
1.3121093512 -0.63583803177 -0.71483415365
1.0506192446 -1.0167776346 -0.82610857487
0.80357480049 -1.4258884192 -0.31442028284
0.67692756653 -1.3011630774 -0.87037026882
0.1155667603 -1.5270140171 -0.77318251133
0.1794912219 -1.6569423676 -0.24925503135
-0.32973250747 -1.6441844702 -0.23751428723
-0.361828655 -1.5178319216 -0.75101053715
-0.92059803009 -1.3053333759 -0.71011710167
-0.94390958548 -1.4338400364 -0.10184873641
-1.2926023006 -0.9996522665 -0.6349375844
-1.3421317339 -1.0966421366 -0.039193656296
-1.65901196 -0.52348721027 -0.01672902517
-1.5812302828 -0.46803727746 -0.62430953979
-1.7441780567 -0.0039664558135 -0.0035788211972
-1.6539111137 0.0027607220691 -0.61749655008
-1.6640319824 0.51291233301 -0.017827579752
-1.5755207539 0.47433012724 -0.63021951914
-1.3480374813 1.0880895853 -0.03866404295
-1.2887612581 1.0041404963 -0.63450270891
-0.94387018681 1.4383224249 -0.076190710068
-0.92225861549 1.309299469 -0.69434696436
-0.32965564728 1.6470406055 -0.22812326252
-0.36206540465 1.5173066854 -0.75246393681
0.11470875144 1.526373148 -0.77380365133
0.19734975696 1.6618763208 -0.22132714093
0.81280893087 1.4264342785 -0.30212038755
0.67453926802 1.3099617958 -0.8535528779
1.0463601351 1.0058134794 -0.85834294558
1.2161029577 1.0943056345 -0.29788941145
1.5327180624 0.51393818855 -0.34411749244
1.3477842808 0.46883109212 -0.87547630072
1.4560323954 0.030997464433 -0.6898470521
1.6255363226 -0.00093809113605 -0.30854669213
1.9070006609 8.1555663201e-07 0.65592455864
1.8391137123 0.49695461988 0.65576612949
1.8391218185 0.25110271573 1.0835210085
1.8391572237 -0.24720610678 1.0851646662
1.8391582966 -0.49724400043 0.65542596579
1.8381973505 -0.24829575419 0.21434596181
1.8380899429 0.24836932123 0.21359746158
1.5919259787 0.92515051365 1.1340976954
1.584477663 0.51765698195 1.5739706755
1.5899055004 0.032580584288 1.7017101049
1.5846048594 -0.55949187279 1.5485062599
1.5896917582 -0.90428096056 1.1845088005
1.5836626291 -1.0520002842 0.59062576294
1.5895580053 -0.89928609133 0.12215650082
1.589461565 0.92866671085 0.17401540279
1.5811789036 1.059453845 0.65576732159
1.2692705393 1.3256088495 1.1442782879
1.2710803747 0.98948758841 1.6628264189
1.2659885883 0.58894753456 1.9438486099
1.2553132772 0.12725669146 2.0753026009
1.2690181732 -0.35626515746 2.0240197182
1.2555437088 -0.81706738472 1.8224619627
1.2551974058 -1.2393664122 1.3600862026
1.268992424 -1.3931318521 0.89686912298
1.2698991299 -1.3898458481 0.39901196957
1.2677534819 1.3305742741 0.17155434191
1.2493109703 1.4287215471 0.65618610382
0.85966008902 1.6179966927 1.1408188343
0.86220806837 1.3342146873 1.6894634962
0.86081016064 0.97864854336 2.0322277546
0.85715949535 0.53877186775 2.2574312687
0.73447984457 -0.0040674237534 2.4019930363
0.85847884417 -0.55500006676 2.2513766289
0.72112232447 -1.0443232059 2.0620605946
0.73879319429 -1.3940535784 1.7045230865
0.86335790157 -1.6126160622 1.1493732929
0.86134493351 -1.6882102489 0.66139096022
0.85939997435 -1.6194629669 0.16826911271
0.85957121849 1.6215578318 0.18395449221
0.72144472599 1.7515212297 0.65722817183
0.2793468833 1.8065145016 1.132902503
0.27353715897 1.5512545109 1.694991827
0.27209913731 1.2248699665 2.0666451454
0.27350518107 0.81702411175 2.3377790451
0.2691231966 0.22098848224 2.5123291016
0.26259571314 -0.27858585119 2.5069475174
0.26654329896 -0.75704103708 2.3669104576
0.26573902369 -1.2814247608 2.0183022022
0.26053467393 -1.5869886875 1.6484560966
0.26346176863 -1.7906059027 1.1974864006
0.26767331362 -1.8686742783 0.57677733898
0.27898263931 -1.7851338387 0.10777252913
0.26794362068 1.8115507364 0.20410552621
0.2517477572 1.8718016148 0.66787874699
-0.22780497372 1.806885004 1.1422451735
-0.23140777647 1.5453985929 1.7094260454
-0.23346985877 1.2149976492 2.0761990547
-0.22927451134 0.80722343922 2.3438184261
-0.22756257653 0.2077024132 2.5151007175
-0.23749297857 -0.27905473113 2.5039377213
-0.2327825278 -0.74986857176 2.3696463108
-0.22368749976 -1.2717972994 2.0282258987
-0.23591804504 -1.5815432072 1.652307272
-0.21913874149 -1.7858726978 1.217392683
-0.22976997495 -1.8687794209 0.73411637545
-0.23164711893 -1.7909384966 0.14243218303
-0.2136939168 1.8726056814 0.64706754684
-0.23143213987 1.8088839054 0.18590830266
-0.68802261353 1.7500678301 0.64259195328
-0.82368856668 1.617339015 1.1385471821
-0.82015752792 1.3375157118 1.6890580654
-0.82431328297 0.98128968477 2.0295524597
-0.82118982077 0.54014414549 2.2555019855
-0.69985485077 -0.0043176114559 2.3995656967
-0.81938803196 -0.55536592007 2.252622366
-0.68822234869 -1.0410087109 2.0607876778
-0.82477527857 -1.3295668364 1.6955746412
-0.8197696209 -1.6176905632 1.1424560547
-0.825784266 -1.6875554323 0.63220989704
-1.2177363634 1.4259233475 0.62776523829
-1.2302472591 1.3311347961 1.1328334808
-1.2338770628 1.0779498816 1.5647373199
-1.2268211842 0.59387028217 1.9429190159
-1.2168391943 0.12762251496 2.0757193565
-1.2300339937 -0.35653686523 2.0248229504
-1.2172130346 -0.81837391853 1.8221107721
-1.2212667465 -1.2369160652 1.3575637341
-1.2300121784 -1.3941681385 0.89644235373
-1.2283786535 -1.3948372602 0.40266674757
-1.5490349531 1.0522238016 0.63057094812
-1.5540127754 0.92564564943 1.1302191019
-1.5470856428 0.52105808258 1.570653677
-1.5517368317 0.03292478621 1.7018131018
-1.5464709997 -0.55957919359 1.5486073494
-1.5512902737 -0.90410965681 1.184630394
-1.5507969856 -1.0453505516 0.56436556578
-1.8055638075 0.49138990045 0.62970244884
-1.8005981445 0.25183692575 1.0837622881
-1.8000967503 -0.24775086343 1.0867894888
-1.8049212694 -0.4892578423 0.63572382927
-1.8677668571 2.8925802326e-05 0.65900969505
1.0045616627 0.92292588949 -1.2185232639
0.66173088551 0.99493575096 -1.6050833464
0.64574152231 1.2304553986 -1.2342805862
0.63591885567 -1.2075487375 -1.3056915998
0.19121699035 -1.421497941 -1.2216587067
0.20378990471 -1.1896380186 -1.6505732536
0.61237990856 -0.95162671804 -1.6901831627
0.19484511018 -0.71603000164 -2.0558893681
0.61447006464 -0.51779907942 -1.9763865471
0.19212095439 -0.24764223397 -2.2192616463
0.62516629696 -0.023149035871 -2.0753962994
0.18833468854 0.24286368489 -2.2208418846
0.61363607645 0.46226507425 -1.9976358414
0.19137556851 0.71374046803 -2.0584921837
0.20483806729 1.1857881546 -1.6538677216
0.62152659893 0.74316430092 -1.8542349339
0.19037055969 1.4212316275 -1.2223219872
-0.43313091993 -1.4282370806 -1.206890583
-0.43012735248 -1.1900798082 -1.6528502703
-0.43380412459 -0.70824450254 -2.06143713
-0.4329020381 -0.24276512861 -2.2192575932
-0.44571775198 0.24209827185 -2.2179000378
-0.43424639106 0.70987522602 -2.0607609749
-0.4292678237 1.1907942295 -1.6521334648
-0.43129879236 1.4285895824 -1.2065485716
-0.88199865818 -1.2094519138 -1.2952167988
-0.88898599148 -0.92245733738 -1.6926922798
-0.88660597801 -0.51176786423 -1.9631770849
-0.87957781553 -0.037389028817 -2.0703721046
-0.88780778646 0.4435774684 -1.9898896217
-0.89064717293 0.96947014332 -1.6417663097
-0.88234978914 1.2366112471 -1.2274984121
-1.2680672407 -0.907558918 -1.199382782
-1.2619026899 -0.47632485628 -1.6436430216
-1.2663943768 -0.0013448949903 -1.7562125921
-1.2611443996 0.47685411572 -1.6441400051
-1.2693789005 0.90823549032 -1.1958390474
-1.5740941763 -0.24576716125 -1.1572241783
-1.5730215311 0.24602912366 -1.1582486629
1.2100598812 0.62450253963 -1.184161067
1.0122525692 -0.92703938484 -1.2004816532
1.0180051327 -0.4634039402 -1.6566799879
0.912124753 -0.3000523746 -1.831502676
1.1248874664 -0.20794601738 -1.6110695601
1.034299016 0.010882604867 -1.7475594282
0.88605982065 0.0051300665364 -1.8947765827
0.65613585711 -0.22761675715 -2.0409107208
0.79065597057 -0.48552885652 -1.8741141558
0.90194892883 0.30315977335 -1.8408311605
0.65379279852 0.26619330049 -2.0365431309
0.78521096706 0.48852086067 -1.8772829771
1.3674497604 -0.33455401659 -0.92227047682
1.2164433002 -0.70882862806 -1.0215450525
1.287664175 -0.4402962029 -1.1666198969
1.1908488274 -0.62141138315 -1.226950407
1.3386700153 0.25596800447 -1.1413414478
1.2155288458 0.39666441083 -1.3830242157
1.019423008 0.71947544813 -1.4706578255
1.3928194046 0.1623775512 -0.93648654222
1.3816667795 0.00054274610011 -1.0568580627
1.335554719 0.061731077731 -1.2167832851
1.3427792788 -0.22995038331 -1.1429743767
1.2190443277 -0.37599751353 -1.3867955208
1.1220566034 -0.50171142817 -1.4868330956
1.0145395994 -0.73235732317 -1.4661701918
0.79483026266 -0.97607469559 -1.4895738363
0.80260485411 -0.74979841709 -1.7074761391
0.64285778999 -0.77382856607 -1.8198914528
0.99681961536 0.4909093976 -1.6654808521
0.79699134827 0.74308973551 -1.7173843384
1.498732686 -0.30351734161 -0.50940811634
1.4271103144 -0.17162723839 -0.76116740704
1.4050959349 -0.44795823097 -0.64144462347
1.023201108 0.31578609347 -1.7116658688
1.1143347025 0.43350800872 -1.5400644541
1.1338158846 0.26499131322 -1.5803625584
1.2031835318 0.059510566294 -1.5110729933
1.2791421413 -0.14816217124 -1.3512103558
1.2773679495 0.16602791846 -1.3509966135
1.3917037249 -0.15659126639 -0.9427139163
1.4099633694 -0.0068310177885 -0.9081697464

CELLS 432 1728
3 0 1 2
3 2 1 3
3 1 4 3
3 3 4 5
3 5 4 6
3 7 6 4
3 7 8 6
3 6 8 9
3 9 8 10
3 11 10 8
3 10 11 12
3 13 12 11
3 13 14 12
3 12 14 15
3 14 16 15
3 15 16 17
3 16 18 17
3 17 18 19
3 18 20 19
3 19 20 21
3 20 22 21
3 21 22 23
3 22 24 23
3 23 24 25
3 25 24 26
3 27 26 24
3 27 28 26
3 26 28 29
3 29 28 30
3 31 30 28
3 31 32 30
3 30 32 33
3 33 32 34
3 35 34 32
3 36 37 38
3 36 38 39
3 36 39 40
3 36 40 41
3 36 41 42
3 36 42 37
3 38 37 43
3 38 43 44
3 38 44 45
3 39 38 45
3 39 45 46
3 39 46 47
3 40 39 47
3 40 47 48
3 40 48 49
3 41 40 49
3 37 42 50
3 37 50 51
3 37 51 43
3 43 51 52
3 43 52 53
3 44 43 53
3 44 53 54
3 44 54 45
3 55 45 54
3 45 55 56
3 46 45 56
3 46 56 57
3 47 46 57
3 47 57 58
3 47 58 59
3 48 47 59
3 48 59 60
3 49 48 60
3 51 50 61
3 51 61 62
3 51 62 52
3 52 62 63
3 52 63 64
3 53 52 64
3 53 64 65
3 54 53 65
3 54 65 66
3 55 54 66
3 55 66 67
3 56 55 67
3 56 67 68
3 57 56 68
3 57 68 69
3 57 69 70
3 58 57 70
3 58 70 71
3 59 58 71
3 59 71 72
3 60 59 72
3 60 72 73
3 62 61 74
3 62 74 75
3 62 75 63
3 63 75 76
3 63 76 77
3 64 63 77
3 64 77 78
3 65 64 78
3 65 78 79
3 66 65 79
3 66 79 80
3 67 66 80
3 67 80 81
3 68 67 81
3 68 81 82
3 69 68 82
3 69 82 83
3 70 69 83
3 70 83 84
3 71 70 84
3 71 84 85
3 72 71 85
3 72 85 86
3 72 86 73
3 87 73 86
3 75 74 88
3 75 88 89
3 75 89 76
3 76 89 90
3 76 90 77
3 91 77 90
3 77 91 78
3 92 78 91
3 78 92 79
3 93 79 92
3 79 93 80
3 94 80 93
3 80 94 81
3 95 81 94
3 95 96 81
3 82 81 96
3 82 96 97
3 83 82 97
3 97 98 83
3 84 83 98
3 98 99 84
3 85 84 99
3 85 99 100
3 86 85 100
3 86 100 101
3 87 86 101
3 89 88 102
3 103 102 88
3 89 102 90
3 90 102 104
3 90 104 105
3 91 90 105
3 91 105 106
3 92 91 106
3 92 106 107
3 93 92 107
3 93 107 108
3 94 93 108
3 94 108 109
3 95 94 109
3 95 109 110
3 96 95 110
3 96 110 111
3 97 96 111
3 97 111 112
3 98 97 112
3 98 112 113
3 99 98 113
3 99 113 100
3 114 100 113
3 101 100 114
3 102 103 104
3 105 104 115
3 105 115 116
3 106 105 116
3 106 116 117
3 107 106 117
3 107 117 118
3 108 107 118
3 108 118 119
3 109 108 119
3 109 119 120
3 110 109 120
3 110 120 121
3 111 110 121
3 112 111 121
3 112 121 122
3 113 112 122
3 113 122 123
3 114 113 123
3 114 123 124
3 116 115 125
3 116 125 126
3 117 116 126
3 117 126 127
3 118 117 127
3 119 118 128
3 127 128 118
3 120 119 128
3 120 128 129
3 121 120 129
3 121 129 130
3 122 121 130
3 123 122 130
3 123 130 131
3 124 123 131
3 126 125 132
3 126 132 133
3 127 126 133
3 128 127 133
3 128 133 134
3 129 128 134
3 130 129 134
3 130 134 135
3 131 130 135
3 133 132 136
3 134 133 136
3 135 134 136
3 135 136 16
3 135 16 14
3 135 14 131
3 131 14 13
3 131 13 124
3 124 13 11
3 124 11 114
3 114 11 101
3 101 11 8
3 101 8 7
3 101 7 87
3 73 87 4
3 7 4 87
3 73 4 1
3 73 1 60
3 60 1 49
3 49 1 0
3 49 0 41
3 41 0 35
3 41 35 42
3 42 35 32
3 42 32 50
3 50 32 31
3 50 31 61
3 61 31 28
3 61 28 74
3 74 28 27
3 74 27 88
3 88 27 103
3 103 27 24
3 103 24 22
3 103 22 104
3 104 22 115
3 115 22 20
3 115 20 125
3 125 20 18
3 125 18 132
3 132 18 16
3 132 16 136
3 137 138 139
3 140 141 142
3 143 140 142
3 143 142 144
3 145 144 146
3 147 146 148
3 149 148 150
3 150 151 152
3 139 138 151
3 139 151 153
3 141 154 155
3 142 141 155
3 144 142 155
3 144 155 156
3 144 156 146
3 157 146 156
3 146 157 148
3 158 148 157
3 148 158 159
3 150 148 159
3 150 159 160
3 151 150 160
3 151 160 153
3 161 153 160
3 155 154 162
3 155 162 163
3 156 155 163
3 156 163 164
3 157 156 164
3 157 164 165
3 158 157 165
3 158 165 166
3 159 158 166
3 159 166 167
3 160 159 167
3 160 167 168
3 161 160 168
3 163 162 169
3 163 169 170
3 164 163 170
3 164 170 171
3 165 164 171
3 166 165 171
3 166 171 172
3 167 166 172
3 167 172 173
3 168 167 173
3 170 169 174
3 171 170 174
3 171 174 175
3 172 171 175
3 173 172 175
3 173 175 19
3 173 19 21
3 168 173 23
3 21 23 173
3 168 23 161
3 161 23 25
3 161 25 26
3 161 26 153
3 153 26 29
3 153 29 139
3 139 29 30
3 139 30 137
3 137 30 176
3 3 5 177
3 140 177 5
3 140 5 141
3 141 5 6
3 141 6 154
3 154 6 9
3 154 9 10
3 154 10 162
3 162 10 169
3 12 169 10
3 169 12 15
3 169 15 174
3 174 15 17
3 174 17 175
3 175 17 19
3 178 179 180
3 181 179 182
3 179 183 182
3 145 183 184
3 182 183 147
3 181 182 185
3 182 186 185
3 182 147 186
3 185 186 187
3 147 183 146
3 183 145 146
3 149 186 148
3 186 147 148
3 188 189 190
3 188 2 189
3 191 189 177
3 177 189 3
3 189 2 3
3 192 193 176
3 193 194 176
3 176 194 137
3 137 194 138
3 192 176 33
3 33 176 30
3 34 195 33
3 33 195 192
3 195 196 192
3 197 192 196
3 197 196 198
3 198 190 199
3 200 199 191
3 190 191 199
3 199 200 180
3 200 191 201
3 191 190 189
3 188 190 198
3 143 202 140
3 140 202 177
3 178 201 203
3 201 202 203
3 201 177 202
3 203 202 143
3 178 203 184
3 203 204 184
3 203 143 204
3 184 204 145
3 205 187 206
3 187 152 206
3 187 149 152
3 206 152 138
3 145 204 144
3 204 143 144
3 138 152 151
3 152 149 150
3 178 184 179
3 179 184 183
3 149 187 186
3 185 187 205
3 205 206 194
3 194 206 138
3 177 201 191
3 200 201 178
3 0 207 35
3 35 207 34
3 34 207 208
3 207 209 208
3 207 0 209
3 208 209 188
3 205 210 185
3 185 210 181
3 188 209 2
3 2 209 0
3 205 211 210
3 211 212 210
3 211 193 212
3 210 212 181
3 181 213 180
3 213 214 180
3 197 214 215
3 180 214 199
3 193 211 194
3 211 205 194
3 199 214 198
3 198 214 197
3 181 180 179
3 178 180 200
3 197 215 192
3 192 215 193
3 193 215 212
3 215 213 212
3 213 215 214
3 212 213 181
3 196 216 198
3 198 216 188
3 188 216 208
3 216 217 208
3 216 196 217
3 208 217 34
3 34 217 195
3 195 217 196

CELL_TYPES 432
5
5
5
5
5
5
5
5
5
5
5
5
5
5
5
5
5
5
5
5
5
5
5
5
5
5
5
5
5
5
5
5
5
5
5
5
5
5
5
5
5
5
5
5
5
5
5
5
5
5
5
5
5
5
5
5
5
5
5
5
5
5
5
5
5
5
5
5
5
5
5
5
5
5
5
5
5
5
5
5
5
5
5
5
5
5
5
5
5
5
5
5
5
5
5
5
5
5
5
5
5
5
5
5
5
5
5
5
5
5
5
5
5
5
5
5
5
5
5
5
5
5
5
5
5
5
5
5
5
5
5
5
5
5
5
5
5
5
5
5
5
5
5
5
5
5
5
5
5
5
5
5
5
5
5
5
5
5
5
5
5
5
5
5
5
5
5
5
5
5
5
5
5
5
5
5
5
5
5
5
5
5
5
5
5
5
5
5
5
5
5
5
5
5
5
5
5
5
5
5
5
5
5
5
5
5
5
5
5
5
5
5
5
5
5
5
5
5
5
5
5
5
5
5
5
5
5
5
5
5
5
5
5
5
5
5
5
5
5
5
5
5
5
5
5
5
5
5
5
5
5
5
5
5
5
5
5
5
5
5
5
5
5
5
5
5
5
5
5
5
5
5
5
5
5
5
5
5
5
5
5
5
5
5
5
5
5
5
5
5
5
5
5
5
5
5
5
5
5
5
5
5
5
5
5
5
5
5
5
5
5
5
5
5
5
5
5
5
5
5
5
5
5
5
5
5
5
5
5
5
5
5
5
5
5
5
5
5
5
5
5
5
5
5
5
5
5
5
5
5
5
5
5
5
5
5
5
5
5
5
5
5
5
5
5
5
5
5
5
5
5
5
5
5
5
5
5
5
5
5
5
5
5
5
5
5
5
5
5
5
5
5
5
5
5
5
5
5
5
5
5
5
5
5
5
5
5
5
5
5
5
5
5
5
5
5
5
5
5
5
5
5
5
5
5
5
5
5
5
5
5
5

CELL_DATA 432
SCALARS cell_data_0 double
LOOKUP_TABLE default
1.36990427594e-07
1.66574195946e-07
2.02808154245e-08
6.78913830904e-08
1.3946846394e-07
1.48352510952e-07
2.67994386481e-08
3.73420442076e-08
1.33849253038e-07
1.1272432193e-07
1.06223540249e-07
9.13384867026e-08
7.85670252195e-08
1.46457666817e-07
6.08094711903e-08
9.89222062123e-08
7.35527038663e-08
1.18863588573e-07
1.38174731245e-07
6.68365442423e-08
8.79191007827e-08
8.78435164411e-08
1.08849100326e-07
4.99254838142e-09
2.82913771529e-08
3.28866748246e-08
1.58375211589e-07
1.10852553473e-07
1.12540539483e-08
2.52420541279e-08
3.29612438693e-08
2.66464893045e-07
1.28498685873e-09
9.8420616793e-08
4.59637946301e-10
8.17589685254e-10
6.38496555202e-10
4.3499604353e-11
5.84292800549e-10
9.73935948676e-11
6.39526277095e-10
4.6973021801e-10
2.52417498341e-11
5.33549513959e-10
1.577917516e-09
8.32401770663e-10
1.50998888314e-09
1.49101733599e-09
2.58648723143e-09
9.24597970587e-11
7.14535737343e-11
1.61883475649e-09
9.40433217582e-10
1.03425108106e-09
1.16282601801e-10
5.11023616608e-10
5.09612077651e-10
7.84987022935e-11
2.49314322584e-10
1.63094641493e-09
9.15011849422e-10
8.45414204278e-10
4.24068525942e-10
1.96739732263e-10
8.45028274074e-10
2.98787658693e-09
7.5884473652e-10
8.16941873602e-11
5.36730455563e-10
4.41727782403e-10
1.38938857708e-09
8.28584610374e-10
3.32005031583e-10
8.62191873485e-10
1.53309766949e-09
4.12573853245e-10
5.76674831249e-10
5.46791975491e-10
5.37974158159e-11
1.12339293984e-09
2.87758126352e-10
1.04681639223e-09
9.76417993138e-11
2.48305248467e-10
1.80443995068e-09
7.0523460859e-10
3.68271231161e-11
4.25264931126e-10
1.42615449582e-09
1.45502644195e-09
1.64665359986e-09
2.06344526107e-09
3.02723091998e-09
1.63546198451e-09
1.84584216566e-09
6.32831080404e-10
1.59124214561e-10
6.56345878377e-10
4.01294826366e-11
7.43271436314e-11
1.09978825778e-09
2.80721507367e-10
1.6516555969e-09
7.64277552851e-10
3.84887485944e-10
5.13222077122e-10
3.82195894698e-10
7.31161570694e-10
5.13107117346e-10
1.12677989127e-09
2.59389885233e-10
4.82406773724e-11
5.74519599371e-09
2.57794326266e-09
6.89957336047e-09
5.06730619333e-10
8.55859906379e-11
1.34869430628e-09
2.30441706422e-10
2.08164110893e-09
2.22378209129e-09
3.51096030456e-10
1.84317538882e-11
3.94780029772e-10
5.85242583604e-10
1.69781439766e-10
3.66970076308e-11
2.75191816519e-10
1.6124528749e-10
1.72840914322e-10
9.39636751426e-10
1.42568560537e-10
1.19951905112e-09
4.77712551863e-10
3.74447790545e-10
8.4430571335e-10
8.6429147303e-10
7.16856499927e-10
3.44428713685e-09
5.21284924655e-09
8.6713916239e-09
1.78049044568e-09
1.74642923217e-09
2.6211153805e-09
4.8575592534e-09
8.9220073886e-10
3.72821828504e-09
5.98028168372e-10
5.80880310216e-10
6.48958149987e-11
2.13687219176e-10
6.6108048265e-10
5.55372235678e-10
3.2967957538e-10
1.21081187956e-09
1.89675190029e-10
1.92466664275e-10
5.15387875817e-10
6.95214947576e-11
5.5719365548e-10
7.67066481102e-10
3.88844081155e-10
2.5236772684e-09
6.20412458124e-10
1.37294947578e-09
1.18969487965e-08
2.16158500096e-10
2.62512182957e-09
9.16542069805e-10
4.1509844726e-09
2.3131361528e-10
9.01954018636e-10
5.99804690598e-11
7.41957562175e-10
7.96085684509e-10
1.0884938122e-10
5.68371404173e-10
7.19259236011e-10
1.09781644466e-09
9.79593385225e-10
1.83860777133e-10
5.20629377009e-10
1.95897850883e-10
2.28010345683e-09
1.53989831172e-09
1.502272978e-09
2.67802285289e-10
7.03817041632e-10
2.78615535011e-09
8.14088133099e-10
6.02516764923e-10
7.43335237575e-11
6.26076965475e-10
3.50251380291e-10
5.60396058236e-10
2.97890375889e-10
1.19357856706e-09
3.45489794192e-09
1.34880961511e-09
4.73179058755e-09
4.93062544368e-10
2.89733576616e-09
8.21715733544e-10
4.45607881767e-09
9.46032003546e-10
7.45859481243e-09
4.28892787694e-09
2.95288758014e-09
7.01304450219e-10
2.88453583252e-09
2.0616744167e-09
1.60145111912e-09
2.17250152352e-09
3.15596018066e-08
1.04468749926e-07
3.33332908224e-08
1.21641423381e-07
1.03903461474e-08
5.47630680304e-08
5.87924270504e-08
1.11531306287e-08
5.55325195085e-08
2.22047637106e-08
1.307212951e-08
2.38989001449e-08
2.35250779782e-08
1.81380288589e-08
6.06049629388e-09
1.94146829337e-08
2.30351876962e-08
9.88940198519e-10
7.94931040097e-10
1.19063865929e-09
1.84517935875e-09
5.01428529705e-09
2.31684386255e-08
7.5446210667e-09
9.1980150033e-09
4.5339539944e-09
4.32729373938e-08
6.99774191697e-09
5.53968716416e-09
2.36851925048e-08
6.39655867103e-08
9.18695136015e-08
2.49374456089e-08
1.07017320512e-07
1.81926243443e-08
1.43976467462e-07
2.91865778568e-08
9.92946764344e-08
3.26059521434e-08
1.16128824974e-07
4.98176064624e-08
3.01648505854e-08
1.15687658873e-07
1.96782821866e-07
2.73876533433e-07
2.17944654909e-07
1.76795355747e-07
9.27879347047e-08
4.98161434587e-08
1.65711972056e-08
1.00884227813e-08
1.96389754198e-08
1.13170625496e-07
8.78316734248e-08
8.58439839976e-08
5.51169618994e-08
6.94637416638e-08
1.04461035391e-07
8.1823984861e-08
1.11386056235e-07
1.11864738529e-07
8.64391263019e-09
3.27797687714e-08
2.15216053085e-08
3.7295991162e-09
1.0192653565e-08
5.18997391767e-09
1.03355571118e-08
1.60081887118e-09
7.50666959249e-09
5.87644458366e-09
7.58993427484e-09
2.96018061049e-09
1.15096533293e-09
3.0584776803e-09
2.08371530938e-08
1.1881219636e-08
1.35004823616e-09
8.76785306018e-09
9.40808067418e-09
7.56655086089e-09
6.0194033297e-09
1.96024710436e-08
7.90746191395e-09
6.43066291971e-09
1.89399413014e-08
7.23332821789e-09
1.25836854238e-08
1.59138255693e-08
1.07835884943e-08
2.19226637649e-09
9.55130075916e-09
3.63224425477e-08
8.24456729447e-09
8.75578035228e-09
1.80602658249e-08
3.2839889219e-08
1.82271160379e-08
1.94320521017e-08
5.9426028095e-08
3.56966228428e-08
7.09606256199e-08
6.64679780691e-08
2.61491248122e-07
2.02748284124e-07
1.8779804425e-07
2.10668874088e-08
5.97689715941e-08
2.44637821377e-08
1.71715660124e-08
3.10435269465e-08
4.70625643834e-10
1.01099793331e-08
9.99582478535e-09
3.48968775754e-08
1.02897855774e-08
2.06635898247e-08
3.21611994976e-08
2.47345225737e-08
1.43853538274e-07
9.85223345566e-08
1.00434606405e-07
3.30705381962e-09
1.22014694272e-07
7.37227634871e-08
6.02216740754e-08
1.55516106153e-07
7.65116558e-08
8.06796722489e-08
2.94151645075e-08
8.98447458662e-08
9.95365784049e-08
1.83148209845e-07
2.0209460288e-07
4.48007133494e-08
1.43277491738e-07
2.00667695043e-08
1.00027913178e-07
2.96560547674e-07
5.49446894667e-08
2.39657935115e-07
3.34752649657e-07
4.98591240998e-07
1.96686546741e-07
1.5800003209e-07
5.98304179011e-09
8.90658672637e-09
1.09819378111e-08
3.77515464207e-09
9.19808043108e-08
9.3003023276e-08
5.63723428738e-08
2.0396577223e-08
3.83232046952e-08
1.32580232494e-08
2.28286007619e-08
5.91531332121e-08
9.80231514214e-08
6.6459880222e-08
6.71851489656e-08
1.90512045833e-08
1.56896600035e-07
1.74121456841e-08
1.07029345364e-08
2.09358654923e-08
1.18144012288e-07
1.6492326284e-08
1.41100158743e-08
1.48067160923e-08
2.85342635741e-08
2.98633386911e-09
1.24064239313e-07
1.21141739927e-07
5.82741220381e-09
8.47154473344e-08
1.67896974604e-09
5.81287139524e-08
5.1466530878e-08
9.77882156283e-08
8.25801501553e-08
8.32282279289e-10
1.63893775629e-09
2.58523517088e-08
9.54282149314e-08
1.92038603123e-08
6.57651407299e-09
1.38977230688e-07
8.08780271898e-09
6.58114074063e-08
1.66781915266e-07
1.34308784231e-08
2.04935440331e-09
9.71179271069e-09
2.91605747518e-08
3.05126254886e-08
2.9249722287e-08
1.15503359991e-07
3.87191308052e-08
8.19589076371e-08
1.77244631251e-09
3.76635825131e-08
6.89448688938e-09
1.8925136218e-08
2.12143385148e-07
1.50430955955e-08
4.066925072e-09
1.14197455735e-07
2.39680603735e-08
3.85688016051e-08
5.48531826658e-08
1.32077819733e-07
2.36399245541e-08
3.17431237377e-08
3.34612697249e-08
1.246443243e-08
1.5664832484e-08
7.53556278733e-08
1.00971507837e-07
1.48937132411e-08

