# vtk DataFile Version 3.0
File Name: Molecule/methanol/methanol_4.0-4.vtk
ASCII
DATASET UNSTRUCTURED_GRID
FIELD FieldData 1
TIME 1 1 double
0.0
POINTS 198 double
1.6243122816 0.0006937039434 -0.30900350213
1.5388350487 -0.50807458162 -0.32832357287
1.4439700842 -0.0094213495031 -0.73544740677
1.3161667585 -0.61615169048 -0.73207932711
1.2148711681 -1.096701622 -0.29368939996
1.0508092642 -1.0142587423 -0.83531826735
0.80355393887 -1.4258887768 -0.31425583363
0.67694276571 -1.3011637926 -0.87043625116
0.11587561667 -1.52706182 -0.77318060398
0.17952527106 -1.6569494009 -0.24923869967
-0.3297303319 -1.6441861391 -0.23751111329
-0.36181610823 -1.5178368092 -0.75100290775
-0.92059761286 -1.3053334951 -0.7101174593
-0.94390970469 -1.4338399172 -0.10184889287
-1.2926023006 -0.99965214729 -0.6349375844
-1.3421318531 -1.0966420174 -0.039193570614
-1.6590118408 -0.52348726988 -0.016729019582
-1.5812302828 -0.46803730726 -0.62430953979
-1.7441780567 -0.0039664655924 -0.0035788230598
-1.6539111137 0.0027607157826 -0.61749660969
-1.6640319824 0.51291233301 -0.017827570438
-1.5755207539 0.47433012724 -0.63021945953
-1.3480374813 1.0880895853 -0.03866404295
-1.28865695 1.0042649508 -0.63463652134
-0.94383889437 1.438364625 -0.076261393726
-0.92280340195 1.3090769053 -0.69364368916
-0.32948970795 1.6471045017 -0.2281229794
-0.36172252893 1.5173728466 -0.75330859423
0.11437229812 1.5263963938 -0.7737313509
0.19738978148 1.6618345976 -0.22134919465
0.81282687187 1.4264775515 -0.3020747602
0.67402589321 1.3100196123 -0.85448640585
1.0466939211 1.0053203106 -0.85900616646
1.2160505056 1.0943223238 -0.29796683788
1.5323212147 0.51285219193 -0.34659051895
1.3508986235 0.46690288186 -0.87111085653
1.9070006609 5.9068088376e-07 0.65592461824
1.8390606642 0.4970407486 0.65583401918
1.8391181231 0.2511113584 1.0835266113
1.8391551971 -0.24720034003 1.0851713419
1.8392121792 -0.49717018008 0.65534991026
1.8384201527 -0.24880287051 0.21189077199
1.8382304907 0.24812534451 0.21323363483
1.5919246674 0.92515563965 1.1340949535
1.5844777822 0.51765722036 1.5739703178
1.5899074078 0.032580733299 1.70170784
1.5846040249 -0.55949246883 1.548506856
1.5896961689 -0.90428078175 1.1845011711
1.5836673975 -1.0519937277 0.59061139822
1.5893130302 -0.89883935452 0.12024898827
1.5893577337 0.92877215147 0.17393557727
1.5811773539 1.0594559908 0.65576642752
1.2692701817 1.3256093264 1.1442784071
1.2710804939 0.98948764801 1.6628262997
1.2659887075 0.58894759417 1.9438484907
1.2553132772 0.12725681067 2.0753026009
1.2690181732 -0.35626521707 2.0240194798
1.2555428743 -0.81706768274 1.8224624395
1.2551965714 -1.239366889 1.3600866795
1.2689944506 -1.3931310177 0.8968667984
1.2698421478 -1.3898904324 0.39883723855
1.2677457333 1.3305795193 0.1715451479
1.2493095398 1.4287222624 0.6561870575
0.85965996981 1.6179966927 1.1408188343
0.86220800877 1.3342146873 1.6894634962
0.86081016064 0.97864860296 2.0322277546
0.85715949535 0.53877186775 2.2574312687
0.73447984457 -0.0040674204938 2.4019930363
0.85847884417 -0.55500006676 2.2513766289
0.72112232447 -1.0443232059 2.0620605946
0.73879319429 -1.3940536976 1.7045230865
0.86335855722 -1.6126166582 1.1493715048
0.86133897305 -1.6882125139 0.66139417887
0.85952621698 -1.6194261312 0.16830530763
0.85956889391 1.6215593815 0.18395909667
0.72144442797 1.751521349 0.65722876787
0.2793469727 1.8065145016 1.132902503
0.27353709936 1.5512545109 1.6949919462
0.27209913731 1.2248699665 2.0666451454
0.27350518107 0.81702411175 2.3377790451
0.2691231966 0.22098848224 2.5123291016
0.26259571314 -0.27858585119 2.5069475174
0.26654329896 -0.75704103708 2.3669104576
0.26573902369 -1.2814247608 2.0183024406
0.26053470373 -1.5869886875 1.6484560966
0.26346156001 -1.7906057835 1.1974868774
0.26767379045 -1.868674159 0.57678061724
0.27897781134 -1.7851287127 0.10775339603
0.26794469357 1.8115500212 0.20410230756
0.2517478466 1.8718016148 0.66787844896
-0.22780486941 1.8068851233 1.1422450542
-0.23140777647 1.5453985929 1.7094260454
-0.23346985877 1.2149976492 2.0761990547
-0.22927451134 0.80722343922 2.3438184261
-0.22756257653 0.2077024132 2.5151007175
-0.23749297857 -0.27905473113 2.5039377213
-0.2327825129 -0.74986857176 2.3696463108
-0.22368749976 -1.2717971802 2.0282261372
-0.23591804504 -1.5815432072 1.652307272
-0.2191387713 -1.7858726978 1.217392683
-0.22976996005 -1.8687794209 0.73411625624
-0.23164838552 -1.7909384966 0.14243803918
-0.21369409561 1.8726055622 0.64706760645
-0.23143029213 1.8088848591 0.1859125495
-0.68802124262 1.7500685453 0.64259016514
-0.82368850708 1.617339015 1.1385471821
-0.82015752792 1.3375157118 1.6890580654
-0.82431328297 0.98128968477 2.0295524597
-0.82118982077 0.54014414549 2.2555019855
-0.69985485077 -0.0043176114559 2.3995656967
-0.81938803196 -0.55536592007 2.252622366
-0.68822240829 -1.0410087109 2.0607876778
-0.82477521896 -1.3295668364 1.6955746412
-0.81976956129 -1.6176906824 1.1424560547
-0.8257843852 -1.6875554323 0.63220989704
-1.2177380323 1.425922513 0.62776082754
-1.2302472591 1.3311347961 1.1328332424
-1.2338770628 1.0779497623 1.5647374392
-1.2268211842 0.59387028217 1.9429190159
-1.2168391943 0.12762251496 2.0757193565
-1.2300339937 -0.35653686523 2.0248229504
-1.2172131538 -0.81837385893 1.8221107721
-1.2212667465 -1.2369160652 1.3575638533
-1.2300121784 -1.3941681385 0.89644229412
-1.2283786535 -1.3948373795 0.40266671777
-1.5490349531 1.0522238016 0.63057088852
-1.5540127754 0.92564547062 1.1302192211
-1.5470856428 0.52105808258 1.570653677
-1.5517368317 0.03292478621 1.7018131018
-1.5464709997 -0.55957919359 1.5486073494
-1.5512902737 -0.90410965681 1.184630394
-1.5507969856 -1.0453505516 0.56436556578
-1.8055638075 0.49139010906 0.62970227003
-1.8005981445 0.25183692575 1.0837622881
-1.8000967503 -0.24775086343 1.0867894888
-1.8049212694 -0.4892578423 0.63572382927
-1.8677668571 2.8942507925e-05 0.65900963545
1.0086884499 -0.91386044025 -1.2234457731
0.63830310106 -1.2052997351 -1.3072355986
0.64971554279 -0.92134678364 -1.6935558319
1.0122643709 -0.47753697634 -1.6555080414
0.63994383812 -0.5255766511 -1.9622256756
1.0112607479 0.47226971388 -1.6598547697
0.63401848078 0.46807575226 -1.9868220091
0.64918857813 0.96961504221 -1.6434402466
1.0057936907 0.92309468985 -1.2151571512
0.64487612247 1.2289913893 -1.237241745
0.1909147203 -1.4213497639 -1.2216137648
0.20393414795 -1.1896339655 -1.6508574486
0.19480656087 -0.7164722681 -2.0558462143
0.19276472926 -0.24766248465 -2.219196558
0.62467199564 -0.022069858387 -2.0749394894
0.18898610771 0.24318312109 -2.2207491398
0.19460780919 0.71574318409 -2.0568468571
0.19254022837 1.1959220171 -1.6468348503
0.20303428173 1.4239904881 -1.2128647566
-0.43315380812 -1.4282025099 -1.2069801092
-0.42968463898 -1.1900560856 -1.6534407139
-0.43357437849 -0.70846045017 -2.0615413189
-0.43300685287 -0.24282057583 -2.2192275524
-0.44557219744 0.24217543006 -2.2179117203
-0.43393117189 0.71075987816 -2.0605971813
-0.4332703054 1.1879005432 -1.6548269987
-0.42734694481 1.4256826639 -1.2137275934
-0.88198119402 -1.2094546556 -1.2952319384
-0.88897204399 -0.92245721817 -1.6926987171
-0.8866045475 -0.51176542044 -1.9631774426
-0.87958163023 -0.037388429046 -2.0703697205
-0.88778048754 0.4436198473 -1.9898912907
-0.89189535379 0.96742635965 -1.6419135332
-0.88220202923 1.2363820076 -1.2280409336
-1.2680670023 -0.90755909681 -1.1993824244
-1.2619024515 -0.47632417083 -1.6436439753
-1.2663952112 -0.0013453902211 -1.7562114
-1.261120677 0.47687903047 -1.6441788673
-1.2693705559 0.90818572044 -1.1959588528
-1.5740931034 -0.24576811492 -1.1572262049
-1.5730196238 0.24602587521 -1.1582523584
1.2101129293 0.62449175119 -1.1839588881
0.89696121216 -0.30781671405 -1.8447827101
1.043741107 0.00072748330422 -1.7322024107
0.8914347291 0.003991976846 -1.8917996883
0.65569025278 -0.22366064787 -2.0429785252
0.89638149738 0.30211275816 -1.8456065655
0.65235048532 0.26204869151 -2.0375819206
1.3793432713 -0.34144824743 -0.94700706005
1.2146968842 -0.7072597146 -1.0301859379
1.2840806246 -0.43653386831 -1.1795686483
1.2040246725 -0.62089157104 -1.2017991543
1.2084437609 0.38219380379 -1.4052927494
1.3151358366 -0.20612064004 -1.2009552717
1.3329869509 0.085419923067 -1.2174556255
1.3369873762 0.26613467932 -1.1391397715
1.0253213644 0.72373300791 -1.4587236643
1.2052628994 -0.37130531669 -1.4141435623
1.3769472837 0.079299256206 -0.98254430294
1.3416900635 -0.013800486922 -1.1336517334
1.1324006319 -0.5100235343 -1.4613357782

CELLS 392 1568
3 0 1 2
3 2 1 3
3 1 4 3
3 3 4 5
3 4 6 5
3 5 6 7
3 7 6 8
3 9 8 6
3 9 10 8
3 8 10 11
3 11 10 12
3 13 12 10
3 12 13 14
3 15 14 13
3 15 16 14
3 14 16 17
3 16 18 17
3 17 18 19
3 18 20 19
3 19 20 21
3 20 22 21
3 21 22 23
3 22 24 23
3 23 24 25
3 24 26 25
3 25 26 27
3 27 26 28
3 29 28 26
3 29 30 28
3 28 30 31
3 31 30 32
3 33 32 30
3 33 34 32
3 32 34 35
3 35 34 2
3 0 2 34
3 36 37 38
3 36 38 39
3 36 39 40
3 36 40 41
3 36 41 42
3 36 42 37
3 38 37 43
3 38 43 44
3 38 44 45
3 39 38 45
3 39 45 46
3 39 46 47
3 40 39 47
3 40 47 48
3 40 48 49
3 41 40 49
3 37 42 50
3 37 50 51
3 37 51 43
3 43 51 52
3 43 52 53
3 44 43 53
3 44 53 54
3 44 54 45
3 55 45 54
3 45 55 56
3 46 45 56
3 46 56 57
3 47 46 57
3 47 57 58
3 47 58 59
3 48 47 59
3 48 59 60
3 49 48 60
3 51 50 61
3 51 61 62
3 51 62 52
3 52 62 63
3 52 63 64
3 53 52 64
3 53 64 65
3 54 53 65
3 54 65 66
3 55 54 66
3 55 66 67
3 56 55 67
3 56 67 68
3 57 56 68
3 57 68 69
3 57 69 70
3 58 57 70
3 58 70 71
3 59 58 71
3 59 71 72
3 60 59 72
3 60 72 73
3 62 61 74
3 62 74 75
3 62 75 63
3 63 75 76
3 63 76 77
3 64 63 77
3 64 77 78
3 65 64 78
3 65 78 79
3 66 65 79
3 66 79 80
3 67 66 80
3 67 80 81
3 68 67 81
3 68 81 82
3 69 68 82
3 69 82 83
3 70 69 83
3 70 83 84
3 71 70 84
3 71 84 85
3 72 71 85
3 72 85 86
3 72 86 73
3 87 73 86
3 75 74 88
3 75 88 89
3 75 89 76
3 76 89 90
3 76 90 77
3 91 77 90
3 77 91 78
3 92 78 91
3 78 92 79
3 93 79 92
3 79 93 80
3 94 80 93
3 80 94 81
3 95 81 94
3 95 96 81
3 82 81 96
3 82 96 97
3 83 82 97
3 97 98 83
3 84 83 98
3 98 99 84
3 85 84 99
3 85 99 100
3 86 85 100
3 86 100 101
3 87 86 101
3 89 88 102
3 103 102 88
3 89 102 90
3 90 102 104
3 90 104 105
3 91 90 105
3 91 105 106
3 92 91 106
3 92 106 107
3 93 92 107
3 93 107 108
3 94 93 108
3 94 108 109
3 95 94 109
3 95 109 110
3 96 95 110
3 96 110 111
3 97 96 111
3 97 111 112
3 98 97 112
3 98 112 113
3 99 98 113
3 99 113 100
3 114 100 113
3 101 100 114
3 102 103 104
3 105 104 115
3 105 115 116
3 106 105 116
3 106 116 117
3 107 106 117
3 107 117 118
3 108 107 118
3 108 118 119
3 109 108 119
3 109 119 120
3 110 109 120
3 110 120 121
3 111 110 121
3 112 111 121
3 112 121 122
3 113 112 122
3 113 122 123
3 114 113 123
3 114 123 124
3 116 115 125
3 116 125 126
3 117 116 126
3 117 126 127
3 118 117 127
3 119 118 128
3 127 128 118
3 120 119 128
3 120 128 129
3 121 120 129
3 121 129 130
3 122 121 130
3 123 122 130
3 123 130 131
3 124 123 131
3 126 125 132
3 126 132 133
3 127 126 133
3 128 127 133
3 128 133 134
3 129 128 134
3 130 129 134
3 130 134 135
3 131 130 135
3 133 132 136
3 134 133 136
3 135 134 136
3 135 136 18
3 135 18 16
3 135 16 131
3 131 16 15
3 131 15 124
3 124 15 13
3 124 13 114
3 114 13 101
3 101 13 10
3 101 10 9
3 101 9 87
3 73 87 6
3 9 6 87
3 73 6 4
3 73 4 60
3 60 4 49
3 49 4 1
3 49 1 41
3 41 1 0
3 41 0 42
3 42 0 34
3 42 34 50
3 50 34 33
3 50 33 61
3 61 33 30
3 61 30 74
3 74 30 29
3 74 29 88
3 88 29 103
3 103 29 26
3 103 26 24
3 103 24 104
3 104 24 115
3 115 24 22
3 115 22 125
3 125 22 20
3 125 20 132
3 132 20 18
3 132 18 136
3 137 138 139
3 140 137 139
3 140 139 141
3 142 143 144
3 145 144 146
3 138 147 148
3 139 138 148
3 139 148 149
3 141 139 149
3 141 149 150
3 151 150 152
3 143 152 153
3 144 143 153
3 144 153 154
3 146 144 154
3 146 154 155
3 147 156 157
3 148 147 157
3 149 148 157
3 149 157 158
3 149 158 150
3 159 150 158
3 150 159 152
3 160 152 159
3 152 160 161
3 153 152 161
3 153 161 162
3 154 153 162
3 154 162 163
3 155 154 163
3 157 156 164
3 157 164 165
3 158 157 165
3 158 165 166
3 159 158 166
3 159 166 167
3 160 159 167
3 160 167 168
3 161 160 168
3 161 168 169
3 162 161 169
3 162 169 170
3 163 162 170
3 165 164 171
3 165 171 172
3 166 165 172
3 166 172 173
3 167 166 173
3 168 167 173
3 168 173 174
3 169 168 174
3 169 174 175
3 170 169 175
3 172 171 176
3 173 172 176
3 173 176 177
3 174 173 177
3 175 174 177
3 175 177 21
3 175 21 23
3 170 175 25
3 23 25 175
3 170 25 163
3 163 25 27
3 163 27 28
3 163 28 155
3 155 28 31
3 155 31 146
3 146 31 32
3 146 32 145
3 145 32 178
3 5 7 137
3 138 137 7
3 138 7 147
3 147 7 8
3 147 8 156
3 156 8 11
3 156 11 12
3 156 12 164
3 164 12 171
3 14 171 12
3 171 14 17
3 171 17 176
3 176 17 19
3 176 19 177
3 177 19 21
3 141 179 140
3 140 179 180
3 180 179 181
3 179 182 181
3 179 141 182
3 181 182 151
3 180 181 183
3 181 184 183
3 181 151 184
3 183 184 143
3 180 183 142
3 142 183 143
3 151 182 150
3 182 141 150
3 143 184 152
3 184 151 152
3 3 185 2
3 185 186 187
3 185 3 186
3 188 186 137
3 137 186 5
3 186 3 5
3 142 189 180
3 190 180 191
3 192 189 178
3 189 193 178
3 189 142 193
3 178 193 145
3 145 193 144
3 193 142 144
3 192 178 35
3 35 178 32
3 190 194 180
3 194 140 180
3 192 191 189
3 189 191 180
3 2 195 35
3 35 195 192
3 192 195 191
3 195 196 191
3 196 195 190
3 191 196 190
3 190 187 194
3 197 194 188
3 187 188 194
3 194 197 140
3 140 197 137
3 137 197 188
3 185 190 195
3 2 185 195
3 188 187 186
3 185 187 190

CELL_TYPES 392
5
5
5
5
5
5
5
5
5
5
5
5
5
5
5
5
5
5
5
5
5
5
5
5
5
5
5
5
5
5
5
5
5
5
5
5
5
5
5
5
5
5
5
5
5
5
5
5
5
5
5
5
5
5
5
5
5
5
5
5
5
5
5
5
5
5
5
5
5
5
5
5
5
5
5
5
5
5
5
5
5
5
5
5
5
5
5
5
5
5
5
5
5
5
5
5
5
5
5
5
5
5
5
5
5
5
5
5
5
5
5
5
5
5
5
5
5
5
5
5
5
5
5
5
5
5
5
5
5
5
5
5
5
5
5
5
5
5
5
5
5
5
5
5
5
5
5
5
5
5
5
5
5
5
5
5
5
5
5
5
5
5
5
5
5
5
5
5
5
5
5
5
5
5
5
5
5
5
5
5
5
5
5
5
5
5
5
5
5
5
5
5
5
5
5
5
5
5
5
5
5
5
5
5
5
5
5
5
5
5
5
5
5
5
5
5
5
5
5
5
5
5
5
5
5
5
5
5
5
5
5
5
5
5
5
5
5
5
5
5
5
5
5
5
5
5
5
5
5
5
5
5
5
5
5
5
5
5
5
5
5
5
5
5
5
5
5
5
5
5
5
5
5
5
5
5
5
5
5
5
5
5
5
5
5
5
5
5
5
5
5
5
5
5
5
5
5
5
5
5
5
5
5
5
5
5
5
5
5
5
5
5
5
5
5
5
5
5
5
5
5
5
5
5
5
5
5
5
5
5
5
5
5
5
5
5
5
5
5
5
5
5
5
5
5
5
5
5
5
5
5
5
5
5
5
5
5
5
5
5
5
5
5
5
5
5
5
5
5
5
5
5
5
5
5
5
5
5
5
5
5
5
5
5
5
5
5
5
5
5
5
5

CELL_DATA 392
SCALARS cell_data_0 double
LOOKUP_TABLE default
1.95142662261e-07
3.08458138307e-07
1.73187281103e-07
2.52880040116e-07
1.33940545371e-08
5.79646958513e-08
1.43414408433e-07
1.5063391809e-07
2.71816999217e-08
3.73213246652e-08
1.34156517679e-07
1.1236683916e-07
1.06093203253e-07
9.14676816072e-08
7.89335639791e-08
1.47087891448e-07
6.08743093504e-08
9.8576617732e-08
7.32020702179e-08
1.18085719155e-07
1.38232383934e-07
6.64799696155e-08
8.81772280986e-08
8.67820701224e-08
1.07064179576e-07
6.47604424561e-09
2.67267904312e-08
3.36195874688e-08
1.57976924605e-07
1.10394897288e-07
1.14796793969e-08
2.38737731343e-08
2.5169347671e-08
2.59604302129e-07
1.88178098547e-07
1.75273439223e-07
3.77452419265e-10
2.86280337924e-10
5.72350593239e-10
7.29597691312e-11
4.36355490138e-09
2.68186346456e-10
5.34446808102e-10
2.5405183852e-10
1.78850033628e-10
1.72012471467e-10
1.45726991761e-09
1.07337733564e-09
1.85024991464e-09
2.58439860942e-09
2.19162967545e-09
3.83606807791e-09
1.57487914783e-09
9.60901827454e-10
1.22150182697e-09
9.09092827455e-10
9.84006056432e-11
3.75567892581e-10
3.79081647361e-10
7.06412698253e-11
3.4697835827e-10
1.74712493253e-09
1.12805956315e-09
7.29334327825e-10
3.82654710626e-10
2.87803523032e-11
1.32888524205e-09
2.87450317089e-09
4.04700684543e-10
7.46352125154e-10
9.96398091919e-11
5.60641826087e-10
1.30503324179e-09
7.74964127612e-10
4.63792042133e-10
7.45660667865e-10
1.2497752896e-09
5.0194656059e-10
5.09895297551e-10
5.45768145636e-10
3.09789471198e-11
1.47980205605e-09
3.82469244795e-11
1.15826288001e-09
5.88779076371e-11
1.71658399619e-10
1.64650854108e-09
4.23042641348e-10
3.21879726196e-10
2.58961002726e-10
1.38415359448e-09
1.48851033034e-09
1.85121704496e-09
2.30943204156e-09
2.9666536414e-09
1.58422530383e-09
1.80033733669e-09
7.02499970083e-10
1.15250831218e-10
6.62355117653e-10
2.58047249589e-10
3.85110968828e-10
6.74457324694e-10
1.24191436975e-10
1.69317148488e-09
7.20761154884e-10
2.88131462948e-10
2.66490017513e-10
4.03259735261e-10
6.98675435488e-10
5.58892344673e-10
1.14658741478e-09
3.99548438776e-10
1.1067378725e-11
5.69648403744e-09
2.59300184962e-09
7.06870489738e-09
2.63001313698e-10
9.68363696787e-11
1.37736898841e-09
2.99823689301e-10
2.02295532635e-09
2.1432900218e-09
4.23755951287e-10
1.05533338428e-10
4.3208772702e-10
4.85032586267e-10
6.57281159966e-11
6.92881589062e-11
1.62424503215e-10
4.33667750961e-10
1.08412350283e-10
1.02270197637e-09
1.02815540478e-10
1.14754235237e-09
4.5976976311e-10
3.97376228794e-10
8.21645277505e-10
1.00704579321e-09
8.30450252396e-10
3.37533077362e-09
5.30260884047e-09
8.56596853783e-09
1.84913195236e-09
1.56686389616e-09
2.62393809485e-09
4.88843659331e-09
9.54335588351e-10
3.78757109485e-09
5.88808539958e-10
5.73856742398e-10
5.21249761854e-11
3.52821608142e-10
4.68449220963e-10
6.26432985236e-10
6.24386409433e-11
1.52005441427e-09
3.12475129309e-11
4.28894498258e-10
3.61567469251e-10
1.22584198209e-12
5.82861727843e-10
7.20950494451e-10
4.19782493574e-10
2.63544785404e-09
5.34402451001e-10
1.42730291049e-09
1.18789833399e-08
2.01264243044e-10
2.6923195828e-09
8.04149301575e-10
4.19380604004e-09
2.4057405274e-10
9.71183271643e-10
1.54841914816e-11
8.26997901221e-10
8.8691706201e-10
1.01672636001e-10
6.13827261438e-10
7.32643308087e-10
1.14262198667e-09
7.62873511183e-10
2.21392401245e-10
5.82066103475e-10
1.7977801849e-10
2.30057042496e-09
1.5749330135e-09
1.36482768486e-09
4.46500479676e-10
6.81943545263e-10
2.77893455057e-09
7.67158395416e-10
5.86443735961e-10
1.43607334951e-11
7.17834594936e-10
2.93033271625e-10
4.48711177854e-10
2.09341822502e-10
1.24709503633e-09
3.46178633043e-09
1.41179702496e-09
5.07203688024e-09
3.84288319552e-10
2.73505122351e-09
5.86368281811e-10
4.40609135051e-09
8.52418109796e-10
7.64260172579e-09
4.42920105479e-09
3.03102417946e-09
6.75730542293e-10
3.18247546517e-09
1.96886304379e-09
1.69994293621e-09
2.05245484317e-09
3.1821910672e-08
1.04737847598e-07
3.34297431242e-08
1.22485902902e-07
9.99530215059e-09
5.43961491384e-08
5.87352546597e-08
1.11793617097e-08
5.50473856005e-08
2.25367581233e-08
1.29667456447e-08
2.32255593379e-08
2.37926564691e-08
1.66957132519e-08
6.83161348388e-09
1.93581219322e-08
2.7270214384e-08
1.43412865771e-09
1.52285430665e-08
4.1350071333e-10
1.42960397862e-08
8.28986383991e-09
2.03489854763e-08
7.7724673998e-09
1.01128073802e-08
4.20690897485e-09
4.39263357833e-08
7.27684164311e-09
5.31658568775e-09
2.36051121196e-08
6.49756386819e-08
9.16968210315e-08
2.50836408436e-08
1.07321448882e-07
1.81478563505e-08
1.43705916434e-07
2.9424212977e-08
9.96057452689e-08
3.29823505343e-08
1.47720184623e-07
8.94514955754e-07
8.12785145902e-07
9.30028848752e-07
1.36956075274e-07
4.82321009408e-08
4.45013269835e-08
1.37437382764e-07
4.39029265533e-08
2.17312196601e-07
2.72618431559e-07
2.46592777034e-07
2.79590067604e-07
1.28876416131e-07
1.10129321836e-07
4.81120200632e-08
1.73332749297e-08
1.11609088707e-08
2.30942472788e-08
1.17970305688e-07
8.44843300475e-08
8.50454578597e-08
5.08306183545e-08
6.71606141171e-08
1.01662090812e-07
7.65705764058e-08
1.14582202012e-07
1.13733032218e-07
5.33365667976e-08
3.98034657304e-08
2.16432298725e-08
3.29086334119e-09
1.21550169453e-08
4.65358953953e-09
1.1167425847e-08
1.66995084244e-09
6.76919406988e-09
6.00845254058e-09
7.43773110376e-09
2.83519113685e-09
2.77127119413e-09
3.13858534285e-09
1.78239221945e-08
1.17766284645e-08
1.05483405064e-09
8.38031787971e-09
9.46396962189e-09
8.37367757029e-09
5.60078538074e-09
1.98387537372e-08
7.46877103229e-09
6.46839358687e-09
1.85032525295e-08
7.76117933377e-09
1.28924760063e-08
1.55786996281e-08
1.084761983e-08
2.38003513753e-09
9.31615011756e-09
3.62403053224e-08
8.11896727558e-09
8.85937423237e-09
1.64175091874e-08
3.5370268711e-08
1.43251832422e-08
2.15920607883e-08
5.76159375927e-08
2.96816197412e-08
7.10176606849e-08
6.92244785193e-08
2.54528353908e-07
2.35128302102e-07
2.04099566233e-07
2.13047219147e-08
5.9573732403e-08
2.53846780496e-08
1.78001372225e-08
3.16709816532e-08
6.9872214439e-10
1.02008639386e-08
1.00993729418e-08
3.45666610305e-08
1.00836076251e-08
2.10856047071e-08
3.21645634178e-08
2.46565051173e-08
1.46681603948e-07
2.60158242156e-07
2.64313106049e-07
1.2664648734e-07
9.68288171717e-08
8.1220693667e-08
2.53964531832e-07
6.24807878708e-08
1.01667764757e-07
8.80021898974e-08
4.11937239802e-07
2.40409609219e-08
9.14251680746e-08
2.12814761169e-08
1.00606964226e-07
8.3449267401e-08
1.07955002696e-07
1.48198835156e-07
1.77084327999e-07
4.74135661684e-08
1.60710505462e-07
7.14081822228e-09
5.53585382846e-07
3.95317180788e-07
2.51088737266e-07
3.81457963129e-07
3.14984156103e-07
6.28734394704e-08
1.88275883442e-07
5.7973848029e-07
2.0086727562e-07
5.0198069733e-07
8.32890618726e-08
2.3421482721e-07
1.10472555343e-07
3.28725693131e-08
3.93597731737e-07
1.69234819283e-07
2.49549805358e-08
1.38878502655e-08
2.94280635574e-07
1.69636484347e-07
1.96642907278e-07
1.07613003198e-07
1.35307987885e-07
1.34255645995e-07
3.68190464138e-07
2.78231934134e-07
4.16047042311e-07
8.46460450058e-08
3.25282704411e-08
5.73865653775e-08

