# vtk DataFile Version 3.0
File Name: Molecule/methanol/methanol_5.0-4.vtk
ASCII
DATASET UNSTRUCTURED_GRID
FIELD FieldData 1
TIME 1 1 double
0.0
POINTS 262 double
1.3296298981 -0.4851885438 -0.90806168318
1.4554098845 -0.48639070988 -0.498955369
1.1694068909 -0.8785853982 -0.72946739197
1.3291860819 -0.93117725849 -0.32168626785
1.0808650255 -1.2061103582 -0.35637319088
0.93712067604 -1.1249674559 -0.84557551146
0.66801607609 -1.501491785 -0.30399847031
0.55024504662 -1.3699935675 -0.86408406496
0.11002996564 -1.5207519531 -0.79395115376
0.197358042 -1.6727919579 -0.17840048671
-0.32072168589 -1.6609810591 -0.18378564715
-0.34858992696 -1.528273344 -0.72609597445
-0.80635589361 -1.5023266077 -0.15415932238
-0.80657702684 -1.3821300268 -0.68037170172
-1.2080779076 -1.2257769108 -0.10695549846
-1.1628081799 -1.113656044 -0.70743566751
-1.3949745893 -0.87705314159 -0.59576904774
-1.4428358078 -0.95800918341 -0.058769106865
-1.6543959379 -0.4997510314 -0.095524862409
-1.5740681887 -0.45946478844 -0.65974855423
-1.6578183174 -0.0010230826447 -0.60557574034
-1.7379050255 -0.0014533058275 -0.046710975468
-1.654792428 0.49784439802 -0.093611121178
-1.5740327835 0.45662969351 -0.66234773397
-1.3976697922 0.87271696329 -0.60005551577
-1.4436351061 0.9509216547 -0.073105879128
-1.2059897184 1.2137153149 -0.14953482151
-1.1642415524 1.1090188026 -0.71078664064
-0.79821997881 1.3864581585 -0.6883200407
-0.80740791559 1.5059599876 -0.13424809277
-0.3240801096 1.6531040668 -0.2132806927
-0.3552865684 1.5106352568 -0.77749425173
0.11295328289 1.5304803848 -0.7625297308
0.18835499883 1.6653461456 -0.21415321529
0.66997820139 1.5072643757 -0.28591582179
0.5597153306 1.3850328922 -0.81707668304
1.0740237236 1.2309770584 -0.31663671136
0.93611556292 1.1258169413 -0.84673178196
1.3192088604 0.94505947828 -0.33378213644
1.1484975815 0.87238043547 -0.86956948042
1.452490449 0.50994282961 -0.4832893312
1.9070003033 2.0643756216e-07 0.65591955185
1.8443682194 0.48176130652 0.65591752529
1.8443347216 0.24112959206 1.0719447136
1.8443322182 -0.24050118029 1.0723336935
1.8443256617 -0.48162314296 0.65619373322
1.8442828655 -0.24080987275 0.23774193227
1.8442839384 0.24086542428 0.23744384944
1.6701763868 0.79053425789 1.1145201921
1.6618888378 0.46295237541 1.4608488083
1.670681119 -0.0052203200758 1.5690555573
1.6632156372 -0.45945358276 1.461239934
1.6687185764 -0.79348093271 1.1155742407
1.6629513502 -0.92785465717 0.65606808662
1.6685777903 -0.79518771172 0.19834727049
1.6661229134 -0.46571114659 -0.1394213587
1.6646304131 0.46186828613 -0.14762239158
1.6688178778 0.79214668274 0.19373913109
1.6619820595 0.92917448282 0.65571314096
1.3962187767 1.2003047466 1.1268364191
1.3969603777 0.94926208258 1.5264445543
1.387365222 0.59115642309 1.8141856194
1.3941857815 0.12192186713 1.9421910048
1.3981378078 -0.36135062575 1.8920359612
1.3922580481 -0.78744280338 1.6828023195
1.3870168924 -1.1047302485 1.3409297466
1.3974912167 -1.2643361092 0.90306144953
1.3955975771 -1.2695361376 0.42082634568
1.3844021559 -1.112134099 -0.018874350935
1.392568469 1.201482296 0.17300103605
1.3883755207 1.2995724678 0.65516489744
1.1306256056 1.4482640028 1.1320700645
1.1311782598 1.2334047556 1.5519398451
1.1336784363 0.98617458344 1.8149619102
1.1283625364 0.58486133814 2.0651438236
1.1233325005 0.12766876817 2.1785144806
1.1311947107 -0.34639516473 2.1397695541
1.1317864656 -0.80094343424 1.9516345263
1.130951643 -1.1628462076 1.6397294998
1.1289945841 -1.3634616137 1.3377981186
1.1276464462 -1.5090274811 0.88595569134
1.121540904 -1.5108217001 0.41172930598
1.1270391941 -1.3648753166 -0.017998117954
1.1290303469 1.4477852583 0.17292390764
1.1228181124 1.5280798674 0.65530437231
0.72314459085 1.6843785048 1.1361904144
0.72409695387 1.4875231981 1.5793344975
0.71952825785 1.1910076141 1.9408934116
0.73745077848 0.90623128414 2.1464972496
0.72181981802 0.4768114686 2.3410601616
0.7246055603 -0.0076874420047 2.4062726498
0.71949380636 -0.48538082838 2.3395547867
0.70611232519 -0.90953439474 2.1596808434
0.72437602282 -1.1909271479 1.9391380548
0.72160452604 -1.4910956621 1.575643301
0.72289448977 -1.6849548817 1.135158658
0.72270143032 -1.7510972023 0.65562170744
0.71835029125 -1.6850426197 0.16668814421
0.72172057629 1.6852760315 0.17638806999
0.70985174179 1.7549632788 0.65617185831
0.26945984364 1.81014359 1.1249178648
0.26148280501 1.6322990656 1.5689947605
0.26202300191 1.3446494341 1.9563001394
0.26365348697 0.96222692728 2.2599592209
0.25276094675 0.52504056692 2.4525201321
0.25969469547 0.061776608229 2.5248925686
0.25810459256 -0.29329106212 2.5048849583
0.27433922887 -0.74393892288 2.3718192577
0.26342952251 -1.149527669 2.1323394775
0.26406756043 -1.4875669479 1.7894605398
0.26469707489 -1.7290920019 1.3712780476
0.26506716013 -1.8546392918 0.90499848127
0.2649268806 -1.8562140465 0.415789783
0.2670186162 1.8108435869 0.19486047328
0.24594548345 1.8724471331 0.6569775939
-0.21684767306 1.8110415936 1.130694747
-0.22265325487 1.6273741722 1.580299139
-0.22365356982 1.3363734484 1.9658311605
-0.22461329401 0.9546276927 2.2646450996
-0.2142368108 0.50844174623 2.4581131935
-0.2176631093 0.056574225426 2.5264661312
-0.22381126881 -0.28888502717 2.5052473545
-0.21966050565 -0.74492520094 2.3736646175
-0.22412449121 -1.162535429 2.1227846146
-0.22526499629 -1.4967708588 1.7783013582
-0.22578576207 -1.7349661589 1.3581460714
-0.22611951828 -1.8567801714 0.89052343369
-0.23311428726 -1.8519181013 0.38058447838
-0.21694590151 1.8116339445 0.18726220727
-0.22235183418 1.8718546629 0.65647280216
-0.67440766096 1.7538551092 0.65568375587
-0.68587058783 1.6841288805 1.1362452507
-0.6878580451 1.4863852262 1.5796496868
-0.68072718382 1.1911220551 1.9420273304
-0.70186382532 0.90363675356 2.1460614204
-0.6844355464 0.4768152535 2.3407258987
-0.68747484684 -0.0083842510357 2.4058308601
-0.68278050423 -0.48480001092 2.338937521
-0.67079430819 -0.91091752052 2.1568789482
-0.68921810389 -1.1905730963 1.9369841814
-0.68457823992 -1.4908279181 1.5750529766
-0.68621104956 -1.6843975782 1.1351361275
-0.6868109107 -1.7502598763 0.6547164917
-0.67617410421 -1.6905269623 0.19238390028
-0.68537646532 1.6858632565 0.18492476642
-1.0829800367 1.5293953419 0.65534168482
-1.0908454657 1.4497998953 1.131131053
-1.0916298628 1.2350455523 1.5518044233
-1.0942474604 0.98554623127 1.8166222572
-1.089782238 0.58458852768 2.0655639172
-1.0835111141 0.12794677913 2.1796443462
-1.0905739069 -0.34566703439 2.1417818069
-1.0910176039 -0.80180692673 1.9533274174
-1.0924267769 -1.1632654667 1.6399577856
-1.090362668 -1.3635649681 1.3381228447
-1.088301301 -1.509873867 0.88565838337
-1.0898509026 -1.5067529678 0.40473130345
-1.0959409475 1.4484078884 0.1926304549
-1.3480906487 1.301805377 0.65638309717
-1.3565557003 1.2022891045 1.1271225214
-1.3572716713 0.95107114315 1.5274574757
-1.3480007648 0.59050357342 1.8161484003
-1.3535766602 0.12207514048 1.9451550245
-1.358678937 -0.36102887988 1.8939322233
-1.3534832001 -0.7873492837 1.684058547
-1.3471614122 -1.106490612 1.342019558
-1.3577260971 -1.2657672167 0.90405184031
-1.3590928316 -1.2670766115 0.41437959671
-1.3575484753 1.204911828 0.20295479894
-1.6243747473 0.92859268188 0.65614289045
-1.6333241463 0.78866845369 1.1134032011
-1.6244972944 0.4622323513 1.4601076841
-1.6335897446 -0.0055234692991 1.5673838854
-1.6262154579 -0.45909944177 1.4594054222
-1.6312235594 -0.79263520241 1.1151458025
-1.6261049509 -0.92603099346 0.65615290403
-1.6366969347 -0.78752595186 0.23200911283
-1.6359574795 0.78639543056 0.21908983588
-1.8062368631 0.4821793437 0.65650433302
-1.806117177 0.24120947719 1.0726765394
-1.8061423302 -0.24076162279 1.0728609562
-1.8062781096 -0.48201552033 0.65689438581
-1.8078677654 -0.24353210628 0.25325405598
-1.8079897165 0.24313414097 0.25318080187
-1.8679431677 1.0434887372e-05 0.65736460686
1.6779104471 -0.0074557736516 -0.22883336246
1.5294177532 0.18104735017 -0.47910255194
1.1153318882 -0.80992305279 -1.1449579
0.78186011314 -1.1459255219 -1.2152819633
0.77069246769 -0.91550004482 -1.5825968981
1.1119098663 0.78078687191 -1.2107328176
0.77245348692 0.90118163824 -1.600286603
0.77499485016 1.147927165 -1.2201606035
0.35922572017 -1.2887701988 -1.4214998484
0.35242035985 -0.98739868402 -1.8135962486
0.35608908534 -0.58319443464 -2.0746772289
0.76114541292 -0.74825161695 -1.7434450388
0.78665697575 -0.47190696001 -1.8833479881
0.76060092449 -0.17979842424 -1.977725625
0.74669766426 0.019591730088 -1.9972057343
0.34937095642 -0.11808631569 -2.1940546036
0.35490065813 0.35718256235 -2.1522462368
0.75711500645 0.50421339273 -1.8887352943
0.35743069649 0.79645955563 -1.9588837624
0.35658797622 1.1496603489 -1.635727644
0.34867823124 1.3806974888 -1.2152289152
-0.12546372414 -1.4132583141 -1.3380726576
-0.12014385313 -1.1458506584 -1.7579827309
-0.11971085519 -0.77234661579 -2.0642514229
-0.12023966014 -0.32273522019 -2.2380709648
-0.11999669671 0.1578566879 -2.2641377449
-0.11951822042 0.61272621155 -2.143443346
-0.11967162043 0.91378927231 -1.9682577848
-0.11960995942 1.2483062744 -1.6288814545
-0.11972241104 1.4672009945 -1.1946508884
-0.59539371729 -1.4259371758 -1.0112602711
-0.5944904089 -1.2786252499 -1.4398705959
-0.59239083529 -0.98402088881 -1.815726757
-0.58447289467 -0.58297723532 -2.078135252
-0.59309947491 -0.122800529 -2.191947937
-0.59470307827 0.35644981265 -2.1520709991
-0.59677439928 0.79592102766 -1.9590885639
-0.59639751911 1.1496180296 -1.6354693174
-0.58899313211 1.3841689825 -1.2076734304
-1.018735528 -1.1570307016 -1.1971795559
-1.0253925323 -0.88137167692 -1.6076047421
-1.0220234394 -0.47488030791 -1.8849533796
-1.0163798332 0.003428601427 -1.9828305244
-1.0217722654 0.47320625186 -1.8857002258
-1.0244268179 0.87443864346 -1.6158571243
-1.0194762945 1.1505955458 -1.2087271214
-1.3670409918 -0.81157189608 -1.1194427013
-1.3583000898 -0.49929326773 -1.4939593077
-1.3632215261 -0.039476808161 -1.6373335123
-1.3588045835 0.43455380201 -1.5329482555
-1.3684940338 0.77901905775 -1.1806058884
-1.5807359219 -0.24196217954 -1.1441591978
-1.5803853273 0.23948062956 -1.1460943222
1.2960993052 0.50058281422 -0.97055226564
1.1491698027 0.41920247674 -1.4868321419
1.3586758375 0.012301620096 -1.1090246439
1.1416189671 -0.052748691291 -1.6055519581
1.009345293 -0.17020893097 -1.7625398636
1.0101559162 -0.46207293868 -1.6669287682
1.0212117434 0.16845525801 -1.7504698038
0.90487188101 0.0070690126158 -1.8796554804
0.79098111391 0.29562246799 -1.9370546341
1.0040252209 0.45827078819 -1.6747421026
1.3554178476 0.47942638397 -0.77171212435
1.3643052578 0.29223173857 -0.95734679699
1.413120985 0.31686899066 -0.73530632257
1.0152087212 0.62105876207 -1.5626138449
0.78830885887 0.73146128654 -1.734118104
1.4809104204 -0.023982848972 -0.61238962412
0.92436212301 -0.73271608353 -1.5879223347
1.1342442036 -0.50005573034 -1.4663102627
1.4237389565 0.15492768586 -0.77964991331
1.4044635296 -0.29294317961 -0.77224677801
1.281319499 -0.28958976269 -1.2889393568
1.2810227871 -0.45235344768 -1.173099637
1.3796775341 -0.18376237154 -1.0104666948
1.4198578596 -0.028142197058 -0.81179666519

CELLS 520 2080
3 0 1 2
3 3 2 1
3 3 4 2
3 2 4 5
3 4 6 5
3 5 6 7
3 7 6 8
3 9 8 6
3 9 10 8
3 8 10 11
3 10 12 11
3 11 12 13
3 12 14 13
3 13 14 15
3 15 14 16
3 17 16 14
3 17 18 16
3 16 18 19
3 19 18 20
3 21 20 18
3 21 22 20
3 20 22 23
3 23 22 24
3 25 24 22
3 25 26 24
3 24 26 27
3 27 26 28
3 29 28 26
3 29 30 28
3 28 30 31
3 31 30 32
3 33 32 30
3 33 34 32
3 32 34 35
3 34 36 35
3 35 36 37
3 36 38 37
3 37 38 39
3 38 40 39
3 41 42 43
3 41 43 44
3 41 44 45
3 41 45 46
3 41 46 47
3 41 47 42
3 43 42 48
3 43 48 49
3 43 49 50
3 44 43 50
3 44 50 51
3 44 51 52
3 45 44 52
3 45 52 53
3 45 53 54
3 46 45 54
3 46 54 55
3 47 56 57
3 42 47 57
3 42 57 58
3 42 58 48
3 48 58 59
3 48 59 60
3 49 48 60
3 49 60 61
3 49 61 62
3 50 49 62
3 50 62 63
3 51 50 63
3 51 63 64
3 52 51 64
3 52 64 65
3 52 65 66
3 53 52 66
3 53 66 67
3 54 53 67
3 54 67 68
3 58 57 69
3 58 69 70
3 58 70 59
3 59 70 71
3 59 71 72
3 60 59 72
3 60 72 73
3 61 60 73
3 61 73 74
3 62 61 74
3 62 74 75
3 62 75 76
3 63 62 76
3 63 76 77
3 64 63 77
3 64 77 78
3 65 64 78
3 65 78 79
3 66 65 79
3 66 79 80
3 66 80 67
3 81 67 80
3 67 81 82
3 68 67 82
3 70 69 83
3 70 83 84
3 70 84 71
3 71 84 85
3 71 85 86
3 72 71 86
3 72 86 87
3 73 72 87
3 73 87 88
3 74 73 88
3 74 88 89
3 75 74 89
3 75 89 90
3 76 75 90
3 76 90 91
3 77 76 91
3 77 91 92
3 77 92 93
3 78 77 93
3 78 93 94
3 79 78 94
3 79 94 95
3 80 79 95
3 80 95 96
3 81 80 96
3 81 96 97
3 82 81 97
3 84 83 98
3 84 98 99
3 84 99 85
3 85 99 100
3 85 100 101
3 86 85 101
3 86 101 102
3 87 86 102
3 87 102 103
3 88 87 103
3 88 103 89
3 104 89 103
3 89 104 105
3 90 89 105
3 90 105 106
3 91 90 106
3 91 106 107
3 92 91 107
3 92 107 108
3 93 92 108
3 93 108 109
3 94 93 109
3 94 109 110
3 95 94 110
3 95 110 111
3 96 95 111
3 96 111 112
3 97 96 112
3 99 98 113
3 99 113 114
3 99 114 100
3 100 114 115
3 100 115 101
3 116 101 115
3 101 116 102
3 117 102 116
3 102 117 103
3 118 103 117
3 103 118 104
3 119 104 118
3 104 119 105
3 120 105 119
3 121 106 120
3 105 120 106
3 107 106 122
3 121 122 106
3 107 122 108
3 123 108 122
3 108 123 109
3 124 109 123
3 109 124 110
3 125 110 124
3 110 125 111
3 126 111 125
3 127 112 126
3 111 126 112
3 114 113 128
3 114 128 129
3 114 129 115
3 115 129 130
3 115 130 131
3 116 115 131
3 116 131 132
3 117 116 132
3 117 132 133
3 118 117 133
3 118 133 134
3 119 118 135
3 134 135 118
3 120 119 135
3 120 135 136
3 121 120 136
3 121 136 137
3 122 121 137
3 122 137 138
3 123 122 138
3 123 138 139
3 124 123 139
3 124 139 140
3 125 124 140
3 125 140 141
3 126 125 141
3 126 141 142
3 127 126 142
3 127 142 143
3 130 128 144
3 129 128 130
3 131 130 145
3 131 145 146
3 132 131 146
3 132 146 147
3 133 132 147
3 133 147 148
3 134 133 148
3 134 148 149
3 135 134 149
3 135 149 150
3 136 135 150
3 136 150 151
3 137 136 151
3 137 151 152
3 138 137 152
3 139 138 152
3 139 152 153
3 140 139 153
3 140 153 154
3 141 140 154
3 141 154 155
3 142 141 155
3 142 155 156
3 143 142 156
3 145 144 157
3 130 144 145
3 146 145 158
3 146 158 159
3 147 146 159
3 147 159 160
3 148 147 160
3 148 160 161
3 149 148 161
3 149 161 162
3 150 149 162
3 151 150 162
3 151 162 163
3 152 151 163
3 152 163 164
3 153 152 164
3 153 164 165
3 154 153 165
3 154 165 166
3 155 154 166
3 166 167 155
3 156 155 167
3 158 157 168
3 145 157 158
3 159 158 169
3 159 169 170
3 160 159 170
3 160 170 171
3 161 160 171
3 162 161 171
3 162 171 172
3 163 162 172
3 163 172 173
3 164 163 173
3 164 173 174
3 165 164 174
3 166 165 174
3 166 174 175
3 167 166 175
3 167 175 176
3 169 168 177
3 158 168 169
3 170 169 178
3 170 178 179
3 171 170 179
3 172 171 179
3 172 179 180
3 173 172 180
3 174 173 180
3 174 180 181
3 175 174 181
3 176 175 181
3 176 181 182
3 178 177 183
3 169 177 178
3 179 178 184
3 180 179 184
3 181 180 184
3 182 181 184
3 183 182 184
3 178 183 184
3 183 177 22
3 183 22 21
3 183 21 182
3 182 21 18
3 182 18 176
3 176 18 17
3 176 17 167
3 167 17 14
3 167 14 156
3 156 14 12
3 156 12 143
3 143 12 10
3 143 10 127
3 127 10 9
3 127 9 112
3 112 9 97
3 97 9 6
3 97 6 82
3 82 6 4
3 82 4 68
3 68 4 3
3 68 3 54
3 55 54 3
3 55 3 1
3 55 1 185
3 55 185 46
3 46 185 47
3 47 185 56
3 40 56 186
3 56 40 38
3 56 38 57
3 57 38 69
3 69 38 36
3 69 36 83
3 83 36 34
3 83 34 98
3 113 98 33
3 34 33 98
3 113 33 128
3 128 33 30
3 128 30 144
3 144 30 29
3 144 29 157
3 157 29 26
3 157 26 168
3 168 26 25
3 168 25 177
3 177 25 22
3 187 188 189
3 190 191 192
3 189 188 193
3 189 193 194
3 194 195 196
3 197 195 198
3 199 200 201
3 202 201 203
3 191 203 204
3 192 191 204
3 192 204 205
3 193 206 207
3 194 193 207
3 194 207 208
3 195 194 208
3 195 208 209
3 200 195 209
3 200 209 210
3 201 200 210
3 201 210 211
3 203 201 211
3 203 211 212
3 204 203 212
3 204 212 213
3 205 204 213
3 205 213 214
3 206 215 216
3 207 206 216
3 207 216 217
3 208 207 217
3 208 217 218
3 209 208 218
3 209 218 219
3 210 209 219
3 210 219 220
3 211 210 220
3 211 220 221
3 212 211 221
3 212 221 222
3 213 212 222
3 213 222 223
3 214 213 223
3 216 215 224
3 216 224 225
3 217 216 225
3 217 225 226
3 218 217 226
3 219 218 226
3 219 226 227
3 220 219 227
3 220 227 228
3 221 220 228
3 221 228 229
3 222 221 229
3 222 229 230
3 223 222 230
3 225 224 231
3 225 231 232
3 226 225 232
3 226 232 233
3 227 226 233
3 228 227 233
3 228 233 234
3 229 228 234
3 229 234 235
3 230 229 235
3 232 231 236
3 233 232 236
3 233 236 237
3 234 233 237
3 235 234 237
3 235 237 23
3 235 23 24
3 235 24 27
3 235 27 230
3 230 27 28
3 230 28 223
3 223 28 31
3 223 31 214
3 214 31 32
3 214 32 205
3 205 32 35
3 205 35 192
3 192 35 37
3 39 190 37
3 192 37 190
3 190 39 238
3 190 238 239
3 239 240 241
3 187 0 2
3 187 2 5
3 187 5 188
3 188 5 7
3 188 7 193
3 193 7 8
3 193 8 206
3 206 8 11
3 206 11 215
3 215 11 13
3 215 13 224
3 224 13 15
3 224 15 231
3 231 15 16
3 231 16 19
3 231 19 236
3 236 19 20
3 236 20 237
3 237 20 23
3 242 241 243
3 241 242 244
3 242 198 245
3 242 197 198
3 245 198 199
3 245 244 242
3 245 246 244
3 245 199 246
3 244 246 247
3 241 244 239
3 199 198 200
3 200 198 195
3 202 246 201
3 246 199 201
3 40 248 39
3 39 248 238
3 238 248 249
3 248 250 249
3 248 40 250
3 239 247 251
3 247 252 251
3 247 202 252
3 251 252 191
3 239 251 190
3 190 251 191
3 191 252 203
3 252 202 203
3 238 249 239
3 239 249 240
3 202 247 246
3 244 247 239
3 1 253 185
3 189 254 187
3 187 254 255
3 255 254 243
3 254 196 243
3 254 189 196
3 243 196 197
3 197 196 195
3 196 189 194
3 255 243 241
3 242 243 197
3 256 186 253
3 256 250 186
3 253 186 185
3 185 186 56
3 186 250 40
3 250 256 249
3 249 256 240
3 0 257 1
3 1 257 253
3 240 258 241
3 241 258 255
3 255 258 259
3 258 260 259
3 258 240 260
3 259 260 0
3 255 259 187
3 259 0 187
3 240 261 260
3 261 257 260
3 261 253 257
3 260 257 0
3 253 261 256
3 256 261 240

CELL_TYPES 520
5
5
5
5
5
5
5
5
5
5
5
5
5
5
5
5
5
5
5
5
5
5
5
5
5
5
5
5
5
5
5
5
5
5
5
5
5
5
5
5
5
5
5
5
5
5
5
5
5
5
5
5
5
5
5
5
5
5
5
5
5
5
5
5
5
5
5
5
5
5
5
5
5
5
5
5
5
5
5
5
5
5
5
5
5
5
5
5
5
5
5
5
5
5
5
5
5
5
5
5
5
5
5
5
5
5
5
5
5
5
5
5
5
5
5
5
5
5
5
5
5
5
5
5
5
5
5
5
5
5
5
5
5
5
5
5
5
5
5
5
5
5
5
5
5
5
5
5
5
5
5
5
5
5
5
5
5
5
5
5
5
5
5
5
5
5
5
5
5
5
5
5
5
5
5
5
5
5
5
5
5
5
5
5
5
5
5
5
5
5
5
5
5
5
5
5
5
5
5
5
5
5
5
5
5
5
5
5
5
5
5
5
5
5
5
5
5
5
5
5
5
5
5
5
5
5
5
5
5
5
5
5
5
5
5
5
5
5
5
5
5
5
5
5
5
5
5
5
5
5
5
5
5
5
5
5
5
5
5
5
5
5
5
5
5
5
5
5
5
5
5
5
5
5
5
5
5
5
5
5
5
5
5
5
5
5
5
5
5
5
5
5
5
5
5
5
5
5
5
5
5
5
5
5
5
5
5
5
5
5
5
5
5
5
5
5
5
5
5
5
5
5
5
5
5
5
5
5
5
5
5
5
5
5
5
5
5
5
5
5
5
5
5
5
5
5
5
5
5
5
5
5
5
5
5
5
5
5
5
5
5
5
5
5
5
5
5
5
5
5
5
5
5
5
5
5
5
5
5
5
5
5
5
5
5
5
5
5
5
5
5
5
5
5
5
5
5
5
5
5
5
5
5
5
5
5
5
5
5
5
5
5
5
5
5
5
5
5
5
5
5
5
5
5
5
5
5
5
5
5
5
5
5
5
5
5
5
5
5
5
5
5
5
5
5
5
5
5
5
5
5
5
5
5
5
5
5
5
5
5
5
5
5
5
5
5
5
5
5
5
5
5
5
5
5
5
5
5
5
5
5
5
5
5
5
5
5
5
5
5
5
5
5
5
5
5
5
5
5
5
5
5
5
5
5
5
5
5
5
5
5
5
5
5
5
5
5
5
5
5

CELL_DATA 520
SCALARS cell_data_0 double
LOOKUP_TABLE default
3.52762813127e-07
3.54900316105e-08
1.66213434282e-08
4.38141212803e-08
7.38256642244e-09
2.3577467365e-08
1.00159967798e-07
1.0326011005e-07
2.84688263676e-08
6.91056292218e-08
1.19203856056e-08
7.74215301247e-08
1.52924335947e-08
9.4985330104e-08
3.38561314159e-08
3.44655396787e-08
2.31462574092e-08
7.55272873573e-08
4.59965185084e-08
4.38593956224e-08
4.58813002802e-08
7.53940944122e-08
7.1066906124e-09
2.64704612877e-08
2.18363681094e-08
4.74859218735e-08
1.60378412629e-08
6.45543933287e-09
7.82691781018e-08
2.7960188498e-08
2.62214897898e-08
2.5032425936e-08
9.72593000766e-08
4.3593598655e-08
6.877654962e-08
7.80391840445e-08
5.3253147253e-09
9.64808192669e-09
8.53244326991e-08
3.72658274475e-11
2.75822376826e-10
1.0427380524e-10
4.36238885796e-11
5.17102499023e-10
1.08184995876e-11
6.80445552102e-10
5.81094859158e-10
4.43344631947e-10
4.92030226261e-10
4.92070481428e-10
6.12565814249e-10
9.22436319096e-10
9.58784357277e-11
8.6579631431e-10
1.21018774824e-10
5.30465246034e-10
8.25897852925e-10
5.27611611835e-10
8.87396772876e-10
6.74587000684e-11
1.3886746669e-10
8.54249918989e-11
2.77815000374e-10
3.86699963754e-11
6.7645205999e-10
2.5517835648e-10
1.69762092743e-11
4.38489215615e-10
3.28854388817e-10
4.14513984469e-10
7.52358993137e-10
2.65321503465e-10
8.86997893511e-10
1.74289320023e-10
1.53018408229e-09
1.21537810643e-09
5.28898508594e-10
8.67912065294e-10
7.76635428289e-10
1.32117840067e-11
3.35653318245e-10
1.85008488543e-10
6.88592555307e-10
2.77430894641e-11
4.75714936378e-10
3.08011397084e-10
3.57465377927e-10
4.11797965748e-10
6.19356072025e-11
5.6064118075e-10
1.85067274739e-10
4.98674571326e-10
4.90830753498e-11
4.22972386868e-10
2.29747595134e-10
2.6802062037e-11
3.15171629276e-10
8.98387377909e-10
1.05708592709e-09
1.28539602881e-09
7.88022185154e-10
1.08711339414e-10
4.34033406589e-10
9.93720520778e-11
1.41591740349e-12
4.70661596445e-10
2.49605815457e-11
2.97939053515e-10
5.12961938952e-10
7.91820893167e-10
5.1014835883e-10
3.68648918202e-10
3.93665079518e-10
4.19528374996e-10
2.9285475308e-10
5.47034152527e-10
5.42746587004e-10
5.25688588745e-10
8.12112070523e-10
7.78983893752e-12
3.63949927693e-10
3.90227207849e-10
5.65417525112e-10
3.13789638947e-10
1.82723643691e-09
6.94814269984e-10
2.13108935877e-09
1.98604967637e-09
1.03287081508e-09
1.21479663133e-09
3.87794553054e-10
3.42359279697e-10
1.04374536194e-10
9.24531043262e-11
6.8724221367e-12
6.96443282984e-11
3.98014006959e-10
5.70406504803e-10
7.86993276681e-11
2.061813401e-10
5.36307351815e-10
9.61383006783e-10
2.52281842854e-10
4.22638020999e-10
2.5369085722e-10
1.41324874391e-10
5.487085079e-10
4.86334884938e-11
3.93317716184e-11
6.28660683837e-11
4.48505914684e-10
2.20186448926e-10
7.13952526754e-10
1.28605156687e-09
1.33175395815e-09
3.43713293535e-09
3.53658112189e-10
1.50884691782e-09
2.35400583803e-11
1.03958066167e-09
1.05225032801e-09
7.48982450481e-10
6.333516303e-10
2.75419349245e-10
2.15413158555e-10
1.2176802059e-10
5.35108884062e-11
1.40454081457e-10
3.1417578777e-10
3.37654225587e-10
2.34975797325e-10
1.77461684221e-10
5.5796335772e-10
2.05403581902e-10
1.76017696396e-10
6.41922474343e-11
1.92733798418e-10
1.19432418216e-10
3.21272340532e-10
1.84283207116e-11
8.12891352826e-10
1.27883672808e-09
8.60974013085e-10
5.90042045096e-09
9.09118419096e-11
2.1489570644e-09
3.90278027675e-09
3.06608443775e-10
1.24875024387e-09
1.76750994443e-10
8.77247357451e-10
2.3817786139e-10
4.69570714811e-10
6.23673672658e-10
2.01179358246e-11
6.65708763605e-11
2.99462357026e-10
7.74329300182e-11
2.35324387033e-10
3.68163238776e-10
4.18067858473e-10
2.838379688e-10
3.85948389273e-10
4.67688244939e-10
1.15945877713e-10
1.03627680318e-10
1.60138094482e-10
2.03280809838e-10
1.36441690627e-10
2.66203709929e-09
1.10050277194e-09
3.59139770648e-09
4.5665654337e-09
1.2240210402e-10
4.23614769359e-09
6.02356386316e-10
1.53133521889e-09
2.49052938255e-12
4.07462203562e-10
1.04989132945e-10
2.44285489227e-10
3.27695446797e-10
5.36492692598e-10
1.40077815366e-10
1.91813472045e-10
9.42773705986e-11
1.33361077266e-10
2.5279686054e-10
6.52131816488e-10
1.35929265546e-10
3.01572732814e-10
4.64874370413e-10
2.86815956225e-11
1.00608719536e-10
1.29138705043e-09
3.09740778897e-10
3.03140024433e-09
1.29063848082e-09
6.86413809393e-09
1.0131105792e-10
3.26102615672e-09
9.36415581825e-10
1.06154240068e-09
1.83867775642e-10
3.77334592209e-10
7.01315390896e-11
4.29915477216e-10
2.32838928602e-10
1.51080387897e-10
1.41475908139e-11
2.88747056294e-10
1.13495733715e-10
1.80102518003e-10
7.10160943785e-13
1.63608814316e-10
2.0961520492e-10
4.06749993489e-10
1.23539374474e-09
2.58675036118e-09
4.04926119375e-09
6.51019834511e-09
9.6068124602e-10
5.0467149426e-09
1.04112947519e-09
1.40803823843e-09
2.14974412909e-11
3.71235612986e-10
1.21888879778e-11
1.11068558489e-09
5.13670538173e-10
8.56803252434e-10
6.8687604573e-10
9.1301702635e-10
1.67657265343e-09
6.62264105311e-10
3.36101090623e-09
4.13014529023e-10
7.08898595572e-09
1.08340496434e-08
2.05667325389e-09
4.98643801005e-09
1.03669901008e-09
1.21838458803e-09
3.62921662744e-10
3.30095908583e-09
1.60865081159e-09
1.38966351589e-09
7.8689365992e-10
2.92664599036e-09
9.8599409538e-09
5.94653735385e-09
1.2462598557e-08
2.8446847474e-09
4.13261607439e-09
1.95583985706e-09
2.07732504534e-09
9.05450723061e-09
4.85225462154e-09
2.98357227082e-09
9.72157065338e-09
3.93799125978e-08
5.65089050896e-09
3.97311916907e-08
1.18973300097e-08
3.01279608941e-08
3.04325934556e-08
4.73819737667e-08
1.55204524956e-08
7.04024227444e-08
3.95801856801e-09
2.46551825468e-08
3.38075558757e-08
3.54899396159e-08
2.46955683059e-08
2.00307839017e-08
2.96953916384e-08
2.23183416364e-08
3.34829684942e-09
6.88256641285e-09
5.02131149071e-09
1.46243769493e-09
6.48765986995e-09
1.83493251573e-08
7.70842423975e-09
2.41544035718e-09
7.5094865836e-10
2.6660830399e-09
2.50568365856e-09
1.76860419877e-08
4.64107531509e-09
5.73203569919e-09
4.31767283564e-09
1.93187631822e-09
4.41812621487e-09
3.42525288581e-09
2.30626014542e-08
3.05239129944e-08
5.9966568452e-09
2.00184276319e-08
5.33523242062e-09
2.99911304538e-08
1.86181914774e-09
2.96409304431e-08
1.53922832694e-09
2.32614029687e-08
3.08697983399e-09
3.22531977194e-08
1.74887949108e-07
1.72344422076e-07
4.72211374037e-08
1.66328610061e-07
2.12506095768e-08
1.9874250226e-07
3.80981306488e-07
2.86309330016e-07
1.58917317153e-07
1.57878300285e-07
5.55865940642e-08
2.68858708453e-08
1.25303485567e-08
4.42364121332e-08
4.2042830988e-09
7.30699285976e-08
2.24350753463e-08
9.36903311084e-08
5.91503182667e-08
8.52835182223e-08
7.23911117575e-08
4.14445717975e-08
5.33118286133e-08
3.02721635431e-08
3.11731212724e-08
1.23315189569e-08
1.38138904113e-08
1.55817305683e-09
1.36337765131e-08
4.21509070637e-11
2.01268325478e-08
5.61938166821e-09
2.42548800642e-08
1.36171883419e-08
2.52716030041e-08
1.72785956768e-08
1.64497187577e-08
5.04456431739e-09
1.19182850219e-08
1.41433437288e-08
9.9924557847e-09
6.15529740172e-09
6.00760589397e-09
1.31765849863e-09
5.94293535566e-09
1.22750857064e-10
3.42384347618e-10
2.27677355486e-09
3.56499675938e-09
6.42810274803e-10
5.91143375957e-09
1.11968663518e-09
3.02606207419e-09
2.88807137851e-09
1.98669745245e-09
2.74690371598e-09
7.52595474713e-09
5.74570481866e-09
1.28578010308e-08
3.30201972186e-09
8.35187356275e-09
4.34700468858e-09
4.00966709913e-09
9.32834106768e-09
6.46177671041e-09
1.34103177606e-08
1.30669864925e-08
9.26062964369e-09
6.24342309627e-09
6.60788231766e-09
1.8423255917e-08
1.14447177618e-09
3.33369342066e-08
1.41939197839e-08
2.41424967294e-09
3.77670926307e-08
8.69854512519e-09
2.9988641233e-08
4.54375056984e-09
2.56464241798e-08
3.60650493997e-09
2.49008701849e-08
2.01394923914e-08
2.82452538139e-08
1.4852178208e-07
1.44299151984e-07
2.29559505809e-07
4.78552505976e-07
2.49819092152e-08
3.40614531613e-07
1.23427632933e-07
2.54186857245e-07
1.94642078462e-08
7.71939764858e-08
3.22593366995e-08
5.08066684608e-08
2.54210867595e-08
6.02727849438e-09
1.33234657672e-08
7.29609691902e-09
3.53858630963e-08
1.48765449421e-08
1.12602408958e-08
2.82594942357e-08
5.53258421653e-09
3.33460082843e-08
1.93750013863e-08
3.56457033081e-08
3.19192338424e-07
1.86351068877e-07
2.60647648698e-09
2.07556949262e-07
4.10174533972e-08
2.15728123836e-08
1.08353298385e-07
3.95544767937e-08
2.3279540697e-08
4.76508235525e-07
1.22846661447e-07
2.45488196343e-07
1.6348769081e-07
1.29073814548e-07
5.18457137365e-08
6.98119746631e-08
1.83994831892e-08
1.973241908e-08
2.22057796682e-08
1.35447458083e-07
7.88477912791e-09
1.35572209755e-07
7.75274306733e-08
4.44725865811e-07
2.01065828199e-07
8.04313451847e-08
1.40102619273e-07
8.91580762971e-08
5.90183478273e-07
1.77774175591e-08
5.91006284832e-08
8.81862678753e-08
8.1372896303e-08
1.79486458821e-07
5.7162676193e-08
1.04350110417e-07
3.10413496993e-08
1.29630753468e-07
3.88081411885e-08
1.77698336905e-08
4.42153206412e-07
2.03694965131e-08
7.63683147893e-10
2.92980430399e-08
5.99680081122e-08
9.9071346062e-09
4.85874068669e-08
1.57209719314e-09
2.8993957469e-07
3.57490731074e-09
9.28845235075e-08
2.22026062638e-07
6.23875508208e-08
4.06913590362e-08
2.2745152853e-08
2.3829396314e-09
1.56098718752e-07
2.5640052214e-07
1.04302737961e-07
1.78305102477e-07
1.25662991559e-07
1.54839056629e-08
2.87389389518e-08
1.85284247786e-09
6.27715574459e-08

