# vtk DataFile Version 3.0
File Name: Molecule/methanol/methanol_1.0-6.vtk
ASCII
DATASET UNSTRUCTURED_GRID
FIELD FieldData 1
TIME 1 1 double
0.0
POINTS 70 double
0.94311457872 -1.1266512871 -0.81051588058
1.0948148966 -1.2243167162 -0.2663077414
0.41010084748 -1.4453880787 -0.81397658587
-0.13347738981 -1.5048745871 -0.9358355999
0.020587470382 -1.6786862612 -0.18326623738
-1.1658098698 -1.0976279974 -0.70683783293
-1.2179300785 -1.2285466194 -0.034430876374
-1.7297555208 -0.00093505124096 -0.019674101844
-1.6404606104 -0.00021937536076 -0.76823163033
-1.1629840136 1.0877940655 -0.72310233116
-1.2077556849 1.2290167809 -0.057491369545
-0.055988609791 1.5080900192 -0.82996606827
0.02977543883 1.685367465 -0.16155406833
0.91492962837 1.1252179146 -0.87621241808
1.0944552422 1.2236489058 -0.26869308949
1.613817215 0.0033054752275 -0.31114301085
1.2824962139 0.60993075371 -0.90649223328
1.9059585333 0.00038982718252 0.67429870367
1.5803085566 1.0593613386 0.65798282623
1.5726009607 0.50451588631 1.5989406109
1.5738831758 -0.57900768518 1.55341506
1.5782401562 -1.0590301752 0.72736561298
0.58044290543 1.4500664473 1.7180790901
0.56848216057 0.55004960299 2.3730595112
0.59062421322 -0.55133414268 2.3635416031
0.57947510481 -1.45028615 1.7189190388
0.57186239958 -1.8039056063 0.66044449806
0.5718433857 1.8033858538 0.66016787291
-0.54288971424 1.4605493546 1.7032366991
-0.53054898977 0.56965243816 2.3672680855
-0.53592312336 -0.55683022738 2.3699579239
-0.54100555182 -1.4607188702 1.7052043676
-0.54204595089 -1.8023445606 0.64535957575
-0.54206556082 1.8027037382 0.64298033714
-1.5410511494 1.0562490225 0.67668765783
-1.5354895592 0.50542974472 1.5980194807
-1.5373063087 -0.5784085989 1.5513054132
-1.5405856371 -1.0540847778 0.74973326921
-1.8628371954 -0.0003096666187 0.69526809454
-0.15137496591 0.31412351131 -2.2349660397
-1.141953826 -0.61444866657 -1.7004824877
-1.1475434303 0.6116926074 -1.6997573376
-0.13577254117 1.1706619263 -1.7240111828
0.88721698523 0.95730221272 -1.3727165461
-0.12334856391 -0.80429345369 -2.0358407497
1.2690975666 -0.61915177107 -0.92219954729
1.0290374756 -0.45614790916 -1.6451352835
1.2802019119 -0.32475695014 -1.2762037516
1.0090591908 -0.8274487257 -1.3593360186
0.48413023353 -0.72670054436 -1.9423114061
0.48050537705 -0.40745618939 -2.0889832973
0.48774921894 -0.062874346972 -2.1434090137
-0.11747514457 -0.31834417582 -2.2387444973
0.5058324337 -1.2905801535 -1.250592947
1.2363401651 0.4002982676 -1.3416832685
1.3756552935 0.01065958757 -0.9955188632
1.2159956694 -0.064199909568 -1.4898369312
0.88705348969 0.62102764845 -1.7111381292
0.35583487153 0.51091712713 -2.1040372849
0.36015608907 0.91641026735 -1.8697875738
-0.12098769844 0.77087414265 -2.0647120476
0.7929007411 -0.62889093161 -1.7989549637
0.78904742002 -0.30228051543 -1.936222434
1.0188926458 0.1461482197 -1.7549546957
0.77033346891 0.30495139956 -1.9476885796
1.107145071 0.42005679011 -1.5546126366
1.4658863544 -0.0044710310176 -0.66636025906
1.373790741 -0.30361559987 -0.92858475447
1.4390466213 -0.32109260559 -0.64059472084
1.0172278881 -0.97462928295 -1.0647661686

CELLS 136 544
3 0 1 2
3 3 4 5
3 6 5 4
3 6 7 5
3 5 7 8
3 8 7 9
3 10 9 7
3 9 10 11
3 12 11 10
3 11 12 13
3 14 13 12
3 14 15 16
3 17 18 19
3 17 19 20
3 17 20 21
3 19 18 22
3 19 22 23
3 19 23 24
3 20 19 24
3 20 24 25
3 21 20 25
3 21 25 26
3 18 27 22
3 22 27 28
3 22 28 29
3 23 22 29
3 23 29 30
3 24 23 30
3 25 24 30
3 25 30 31
3 25 31 26
3 32 26 31
3 27 33 28
3 28 33 34
3 28 34 35
3 29 28 35
3 29 35 30
3 36 30 35
3 31 30 36
3 31 36 37
3 32 31 37
3 35 34 38
3 36 35 38
3 37 36 38
3 37 38 7
3 37 7 6
3 37 6 32
3 32 6 4
3 32 4 26
3 26 4 1
3 26 1 21
3 21 1 15
3 21 15 17
3 17 15 18
3 18 15 14
3 18 14 27
3 27 14 12
3 27 12 33
3 33 12 10
3 33 10 34
3 34 10 7
3 34 7 38
3 39 40 41
3 42 41 9
3 42 9 11
3 42 11 43
3 44 3 40
3 40 3 5
3 40 5 8
3 40 8 41
3 41 8 9
3 0 45 1
3 46 47 48
3 47 45 48
3 49 44 50
3 51 52 39
3 39 52 40
3 52 44 40
3 3 44 53
3 14 16 13
3 13 43 11
3 43 16 54
3 43 13 16
3 54 16 55
3 54 55 56
3 57 58 59
3 58 60 59
3 58 39 60
3 59 60 42
3 42 60 41
3 60 39 41
3 39 58 51
3 57 59 43
3 43 59 42
3 46 56 47
3 47 56 55
3 46 61 62
3 61 50 62
3 61 49 50
3 62 50 51
3 51 50 52
3 52 50 44
3 46 62 63
3 62 64 63
3 62 51 64
3 63 64 57
3 49 61 53
3 48 61 46
3 54 65 43
3 43 65 57
3 57 65 63
3 65 56 63
3 65 54 56
3 63 56 46
3 57 64 58
3 58 64 51
3 55 66 67
3 66 68 67
3 66 15 68
3 67 68 45
3 3 2 4
3 4 2 1
3 69 0 53
3 2 53 0
3 2 3 53
3 69 53 48
3 45 68 1
3 1 68 15
3 55 67 47
3 47 67 45
3 0 69 45
3 45 69 48
3 48 53 61
3 49 53 44
3 15 66 16
3 16 66 55

CELL_TYPES 136
5
5
5
5
5
5
5
5
5
5
5
5
5
5
5
5
5
5
5
5
5
5
5
5
5
5
5
5
5
5
5
5
5
5
5
5
5
5
5
5
5
5
5
5
5
5
5
5
5
5
5
5
5
5
5
5
5
5
5
5
5
5
5
5
5
5
5
5
5
5
5
5
5
5
5
5
5
5
5
5
5
5
5
5
5
5
5
5
5
5
5
5
5
5
5
5
5
5
5
5
5
5
5
5
5
5
5
5
5
5
5
5
5
5
5
5
5
5
5
5
5
5
5
5
5
5
5
5
5
5
5
5
5
5
5
5

CELL_DATA 136
SCALARS cell_data_0 double
LOOKUP_TABLE default
7.06504498468e-08
8.92438076432e-07
7.23400378103e-07
6.4337221965e-08
2.40541975682e-07
4.29721603445e-07
6.89661495385e-08
1.44048844081e-07
3.125995734e-07
5.20939360875e-07
1.78010906307e-07
1.01936155907e-06
3.29502337912e-09
4.49358048722e-09
2.76418025017e-09
3.51717025595e-09
1.33755218901e-08
5.23074157455e-10
4.95216936238e-09
2.73403748061e-09
7.76306138155e-09
6.77837760908e-09
1.11902696234e-09
3.59923202704e-09
6.69616022153e-10
1.03339041527e-09
9.15001342624e-09
1.35723497604e-08
4.27707295985e-09
7.50435012921e-09
1.86276081606e-09
3.60078240897e-08
2.71431843446e-08
7.57320951601e-08
5.03559094759e-09
1.04593782293e-08
1.34323073593e-08
2.63208368412e-09
2.51770434971e-08
2.21667556596e-08
2.18155537108e-08
3.70024467594e-08
3.04506078099e-08
3.14071958648e-08
6.8103340222e-08
5.25190565314e-07
1.59224556931e-07
3.73271668151e-07
2.05212805768e-07
1.30808938785e-07
1.89172846339e-07
3.96313972593e-07
6.17266466573e-08
1.83956784796e-09
3.64522997237e-07
1.09304855943e-07
1.31045599847e-07
4.1644193531e-08
3.41382909899e-07
4.83224523088e-08
4.64196013836e-07
9.08753191144e-08
2.34865415026e-07
3.22173114086e-07
8.29979880067e-08
1.86442531159e-06
5.29095355933e-07
1.0346570572e-08
1.85720252734e-07
2.43864766915e-07
9.17238063955e-08
3.38661110437e-07
1.39561705975e-06
1.50490645914e-06
1.32824674696e-07
4.81049771647e-07
5.1096844119e-07
1.82030586461e-07
2.23548566195e-07
3.28295295039e-07
1.3578968466e-06
5.35845257057e-07
7.80443391113e-07
1.4366121189e-06
4.65692934723e-07
6.60845489979e-07
1.289363786e-08
1.10886700411e-07
5.27229676082e-08
2.82649397262e-07
2.25860678257e-07
3.53635620595e-07
2.04366761511e-07
3.63736484397e-07
5.27404469371e-07
1.58849703906e-07
2.61000520977e-07
1.43559980141e-07
8.43089041219e-08
1.78710233927e-07
2.36983297683e-08
2.41739675263e-07
6.51351964809e-07
5.10699187853e-07
4.61528117887e-08
5.84919502292e-07
4.75794772085e-07
1.95184699493e-07
6.93675823637e-08
1.70283753633e-07
3.64385742476e-07
3.77464668561e-07
1.68721944495e-07
1.11543690657e-06
1.95272989874e-07
8.33658412938e-08
4.83219589563e-07
1.42111111999e-07
3.23167259673e-08
1.15007479857e-08
2.05284854229e-07
2.1668485277e-07
1.17920471712e-07
1.05881743681e-08
1.06709426007e-07
3.41916569726e-07
1.99141576996e-07
3.06220084179e-07
5.84969989114e-08
2.53012485926e-07
4.05255000065e-08
6.02644700948e-08
3.76550175578e-07
2.44272030462e-07
2.95395943925e-07
9.67418987917e-07

