# vtk DataFile Version 3.0
File Name: Molecule/methanol/methanol_13.5-4.vtk
ASCII
DATASET UNSTRUCTURED_GRID
FIELD FieldData 1
TIME 1 1 double
0.0
POINTS 670 double
1.611 0.0 -0.359
1.585 -0.292 -0.356
1.475 0.0 -0.634
1.451 -0.274 -0.632
1.403 0.0 -0.933
1.38 -0.266 -0.93
1.51 -0.576 -0.349
1.38 -0.539 -0.625
1.311 -0.525 -0.924
1.386 -0.842 -0.336
1.265 -0.788 -0.613
1.198 -0.767 -0.912
1.219 -1.083 -0.32
1.108 -1.014 -0.598
1.046 -0.986 -0.897
1.012 -1.29 -0.299
0.915 -1.208 -0.579
0.857 -1.175 -0.878
0.773 -1.459 -0.275
0.691 -1.366 -0.556
0.639 -1.329 -0.857
0.508 -1.583 -0.249
0.443 -1.482 -0.532
0.398 -1.442 -0.833
0.226 -1.659 -0.221
0.179 -1.553 -0.505
0.141 -1.511 -0.807
-0.065 -1.684 -0.192
-0.094 -1.577 -0.478
-0.124 -1.534 -0.781
-0.356 -1.659 -0.163
-0.366 -1.553 -0.451
-0.389 -1.511 -0.754
-0.639 -1.583 -0.135
-0.631 -1.482 -0.425
-0.646 -1.442 -0.729
-0.903 -1.459 -0.108
-0.878 -1.366 -0.4
-0.887 -1.329 -0.705
-1.143 -1.29 -0.085
-1.102 -1.208 -0.378
-1.105 -1.175 -0.683
-1.349 -1.083 -0.064
-1.296 -1.014 -0.358
-1.294 -0.986 -0.664
-1.517 -0.842 -0.047
-1.453 -0.788 -0.343
-1.446 -0.767 -0.649
-1.64 -0.576 -0.035
-1.568 -0.539 -0.331
-1.559 -0.525 -0.638
-1.716 -0.292 -0.028
-1.639 -0.274 -0.324
-1.628 -0.266 -0.631
-1.742 -0.0 -0.025
-1.663 -0.0 -0.322
-1.651 -0.0 -0.629
-1.716 0.292 -0.028
-1.639 0.274 -0.324
-1.628 0.266 -0.631
-1.64 0.576 -0.035
-1.568 0.539 -0.331
-1.559 0.525 -0.638
-1.517 0.842 -0.047
-1.453 0.788 -0.343
-1.446 0.767 -0.649
-1.349 1.083 -0.064
-1.296 1.014 -0.358
-1.294 0.986 -0.664
-1.143 1.29 -0.085
-1.102 1.208 -0.378
-1.105 1.175 -0.683
-0.903 1.459 -0.108
-0.878 1.366 -0.4
-0.887 1.329 -0.705
-0.639 1.583 -0.135
-0.631 1.482 -0.425
-0.646 1.442 -0.729
-0.356 1.659 -0.163
-0.366 1.553 -0.451
-0.389 1.511 -0.754
-0.065 1.684 -0.192
-0.094 1.577 -0.478
-0.124 1.534 -0.781
0.226 1.659 -0.221
0.179 1.553 -0.505
0.141 1.511 -0.807
0.508 1.583 -0.249
0.443 1.482 -0.532
0.398 1.442 -0.833
0.773 1.459 -0.275
0.691 1.366 -0.556
0.639 1.329 -0.857
1.012 1.29 -0.299
0.915 1.208 -0.579
0.857 1.175 -0.878
1.219 1.083 -0.32
1.108 1.014 -0.598
1.046 0.986 -0.897
1.386 0.842 -0.336
1.265 0.788 -0.613
1.198 0.767 -0.912
1.51 0.576 -0.349
1.38 0.539 -0.625
1.311 0.525 -0.924
1.585 0.292 -0.356
1.451 0.274 -0.632
1.38 0.266 -0.93
1.907 0.0 0.656
1.885 0.281 0.656
1.885 0.141 0.899
1.885 -0.141 0.899
1.885 -0.281 0.656
1.885 -0.141 0.412
1.885 0.141 0.412
1.823 0.482 0.934
1.823 0.278 1.137
1.823 -0.0 1.212
1.823 -0.278 1.137
1.823 -0.482 0.934
1.823 -0.556 0.656
1.823 -0.482 0.377
1.823 -0.278 0.174
1.823 -0.0 0.099
1.823 0.278 0.174
1.823 0.482 0.377
1.823 0.556 0.656
1.72 0.77 0.936
1.72 0.627 1.182
1.72 0.409 1.365
1.72 0.142 1.462
1.72 -0.142 1.462
1.72 -0.409 1.365
1.72 -0.627 1.182
1.72 -0.77 0.936
1.72 -0.819 0.656
1.72 -0.77 0.376
1.72 -0.627 0.129
1.72 -0.409 -0.054
1.72 -0.142 -0.151
1.72 0.142 -0.151
1.72 0.409 -0.054
1.72 0.627 0.129
1.72 0.77 0.376
1.72 0.819 0.656
1.579 1.027 0.931
1.579 0.921 1.187
1.579 0.752 1.407
1.579 0.532 1.576
1.579 0.275 1.683
1.579 0.0 1.719
1.579 -0.275 1.683
1.579 -0.532 1.576
1.579 -0.752 1.407
1.579 -0.921 1.187
1.579 -1.027 0.931
1.579 -1.063 0.656
1.579 -1.027 0.38
1.579 -0.921 0.124
1.579 -0.752 -0.096
1.579 0.752 -0.096
1.579 0.921 0.124
1.579 1.027 0.38
1.579 1.063 0.656
1.403 1.254 0.932
1.403 1.165 1.195
1.403 1.022 1.433
1.403 0.831 1.634
1.403 0.601 1.79
1.403 0.343 1.893
1.403 0.07 1.938
1.403 -0.208 1.923
1.403 -0.475 1.848
1.403 -0.72 1.718
1.403 -0.932 1.538
1.403 -1.1 1.317
1.403 -1.217 1.066
1.403 -1.276 0.794
1.403 -1.276 0.517
1.403 -1.217 0.246
1.403 -1.1 -0.006
1.403 1.022 -0.121
1.403 1.165 0.117
1.403 1.254 0.38
1.403 1.284 0.656
1.196 1.449 0.935
1.196 1.37 1.204
1.196 1.241 1.453
1.196 1.068 1.674
1.196 0.856 1.858
1.196 0.613 1.998
1.196 0.348 2.09
1.196 0.07 2.13
1.196 -0.21 2.116
1.196 -0.483 2.05
1.196 -0.738 1.934
1.196 -0.966 1.771
1.196 -1.16 1.568
1.196 -1.312 1.332
1.196 -1.416 1.071
1.196 -1.469 0.796
1.196 -1.469 0.515
1.196 -1.416 0.24
1.196 -1.312 -0.021
1.196 1.241 -0.142
1.196 1.37 0.107
1.196 1.449 0.376
1.196 1.476 0.656
0.963 1.611 0.932
0.963 1.541 1.2
0.963 1.427 1.453
0.963 1.272 1.683
0.963 1.08 1.883
0.963 0.857 2.048
0.963 0.609 2.172
0.963 0.344 2.254
0.963 0.069 2.289
0.963 -0.208 2.277
0.963 -0.479 2.219
0.963 -0.736 2.115
0.963 -0.972 1.97
0.963 -1.18 1.787
0.963 -1.354 1.571
0.963 -1.49 1.329
0.963 -1.582 1.067
0.963 -1.629 0.794
0.963 -1.629 0.517
0.963 -1.582 0.244
0.963 -1.49 -0.018
0.963 1.427 -0.142
0.963 1.541 0.111
0.963 1.611 0.379
0.963 1.635 0.656
0.709 1.735 0.93
0.709 1.671 1.199
0.709 1.566 1.453
0.709 1.421 1.688
0.709 1.242 1.898
0.709 1.033 2.077
0.709 0.798 2.221
0.709 0.543 2.327
0.709 0.275 2.391
0.709 -0.0 2.413
0.709 -0.275 2.391
0.709 -0.543 2.327
0.709 -0.798 2.221
0.709 -1.033 2.077
0.709 -1.242 1.898
0.709 -1.421 1.688
0.709 -1.566 1.453
0.709 -1.671 1.199
0.709 -1.735 0.93
0.709 -1.757 0.656
0.709 -1.735 0.381
0.709 -1.671 0.113
0.709 1.671 0.113
0.709 1.735 0.381
0.709 1.757 0.656
0.439 1.819 0.937
0.439 1.754 1.211
0.439 1.649 1.472
0.439 1.505 1.714
0.439 1.326 1.932
0.439 1.116 2.119
0.439 0.879 2.272
0.439 0.622 2.387
0.439 0.35 2.462
0.439 0.07 2.494
0.439 -0.211 2.484
0.439 -0.488 2.43
0.439 -0.753 2.335
0.439 -1.0 2.2
0.439 -1.224 2.029
0.439 -1.42 1.826
0.439 -1.582 1.596
0.439 -1.707 1.343
0.439 -1.792 1.075
0.439 -1.835 0.796
0.439 -1.835 0.515
0.439 -1.792 0.236
0.439 -1.707 -0.032
0.439 1.754 0.1
0.439 1.819 0.375
0.439 1.84 0.656
0.16 1.861 0.936
0.16 1.799 1.21
0.16 1.696 1.472
0.16 1.555 1.716
0.16 1.38 1.936
0.16 1.174 2.127
0.16 0.941 2.286
0.16 0.688 2.408
0.16 0.419 2.491
0.16 0.141 2.533
0.16 -0.141 2.533
0.16 -0.419 2.491
0.16 -0.688 2.408
0.16 -0.941 2.286
0.16 -1.174 2.127
0.16 -1.38 1.936
0.16 -1.555 1.716
0.16 -1.696 1.472
0.16 -1.799 1.21
0.16 -1.861 0.936
0.16 -1.882 0.656
0.16 -1.861 0.375
0.16 -1.799 0.101
0.16 1.799 0.101
0.16 1.861 0.375
0.16 1.882 0.656
-0.122 1.861 0.936
-0.122 1.799 1.21
-0.122 1.696 1.472
-0.122 1.555 1.716
-0.122 1.38 1.936
-0.122 1.174 2.127
-0.122 0.941 2.286
-0.122 0.688 2.408
-0.122 0.419 2.491
-0.122 0.141 2.533
-0.122 -0.141 2.533
-0.122 -0.419 2.491
-0.122 -0.688 2.408
-0.122 -0.941 2.286
-0.122 -1.174 2.127
-0.122 -1.38 1.936
-0.122 -1.555 1.716
-0.122 -1.696 1.472
-0.122 -1.799 1.21
-0.122 -1.861 0.936
-0.122 -1.882 0.656
-0.122 -1.861 0.375
-0.122 -1.799 0.101
-0.122 1.799 0.101
-0.122 1.861 0.375
-0.122 1.882 0.656
-0.401 1.84 0.656
-0.401 1.819 0.937
-0.401 1.754 1.211
-0.401 1.649 1.472
-0.401 1.505 1.714
-0.401 1.326 1.932
-0.401 1.116 2.119
-0.401 0.879 2.272
-0.401 0.622 2.387
-0.401 0.35 2.462
-0.401 0.07 2.494
-0.401 -0.211 2.484
-0.401 -0.488 2.43
-0.401 -0.753 2.335
-0.401 -1.0 2.2
-0.401 -1.224 2.029
-0.401 -1.42 1.826
-0.401 -1.582 1.596
-0.401 -1.707 1.343
-0.401 -1.792 1.075
-0.401 -1.835 0.796
-0.401 -1.835 0.515
-0.401 -1.792 0.236
-0.401 1.754 0.1
-0.401 1.819 0.375
-0.671 1.757 0.656
-0.671 1.735 0.93
-0.671 1.671 1.199
-0.671 1.566 1.453
-0.671 1.421 1.688
-0.671 1.242 1.898
-0.671 1.033 2.077
-0.671 0.798 2.221
-0.671 0.543 2.327
-0.671 0.275 2.391
-0.671 -0.0 2.413
-0.671 -0.275 2.391
-0.671 -0.543 2.327
-0.671 -0.798 2.221
-0.671 -1.033 2.077
-0.671 -1.242 1.898
-0.671 -1.421 1.688
-0.671 -1.566 1.453
-0.671 -1.671 1.199
-0.671 -1.735 0.93
-0.671 -1.757 0.656
-0.671 -1.735 0.381
-0.671 -1.671 0.113
-0.671 1.671 0.113
-0.671 1.735 0.381
-0.925 1.635 0.656
-0.925 1.611 0.932
-0.925 1.541 1.2
-0.925 1.427 1.453
-0.925 1.272 1.683
-0.925 1.08 1.883
-0.925 0.857 2.048
-0.925 0.609 2.172
-0.925 0.344 2.254
-0.925 0.069 2.289
-0.925 -0.208 2.277
-0.925 -0.479 2.219
-0.925 -0.736 2.115
-0.925 -0.972 1.97
-0.925 -1.18 1.787
-0.925 -1.354 1.571
-0.925 -1.49 1.329
-0.925 -1.582 1.067
-0.925 -1.629 0.794
-0.925 -1.629 0.517
-0.925 -1.582 0.244
-0.925 1.541 0.111
-0.925 1.611 0.379
-1.158 1.476 0.656
-1.158 1.449 0.935
-1.158 1.37 1.204
-1.158 1.241 1.453
-1.158 1.068 1.674
-1.158 0.856 1.858
-1.158 0.613 1.998
-1.158 0.348 2.09
-1.158 0.07 2.13
-1.158 -0.21 2.116
-1.158 -0.483 2.05
-1.158 -0.738 1.934
-1.158 -0.966 1.771
-1.158 -1.16 1.568
-1.158 -1.312 1.332
-1.158 -1.416 1.071
-1.158 -1.469 0.796
-1.158 -1.469 0.515
-1.158 -1.416 0.24
-1.158 1.37 0.107
-1.158 1.449 0.376
-1.365 1.284 0.656
-1.365 1.254 0.932
-1.365 1.165 1.195
-1.365 1.022 1.433
-1.365 0.831 1.634
-1.365 0.601 1.79
-1.365 0.343 1.893
-1.365 0.07 1.938
-1.365 -0.208 1.923
-1.365 -0.475 1.848
-1.365 -0.72 1.718
-1.365 -0.932 1.538
-1.365 -1.1 1.317
-1.365 -1.217 1.066
-1.365 -1.276 0.794
-1.365 -1.276 0.517
-1.365 -1.217 0.246
-1.365 1.165 0.117
-1.365 1.254 0.38
-1.541 1.063 0.656
-1.541 1.027 0.931
-1.541 0.921 1.187
-1.541 0.752 1.407
-1.541 0.532 1.576
-1.541 0.275 1.683
-1.541 0.0 1.719
-1.541 -0.275 1.683
-1.541 -0.532 1.576
-1.541 -0.752 1.407
-1.541 -0.921 1.187
-1.541 -1.027 0.931
-1.541 -1.063 0.656
-1.541 -1.027 0.38
-1.541 -0.921 0.124
-1.541 0.921 0.124
-1.541 1.027 0.38
-1.682 0.819 0.656
-1.682 0.77 0.936
-1.682 0.627 1.182
-1.682 0.409 1.365
-1.682 0.142 1.462
-1.682 -0.142 1.462
-1.682 -0.409 1.365
-1.682 -0.627 1.182
-1.682 -0.77 0.936
-1.682 -0.819 0.656
-1.682 -0.77 0.376
-1.682 -0.627 0.129
-1.682 0.627 0.129
-1.682 0.77 0.375
-1.785 0.556 0.656
-1.785 0.482 0.934
-1.785 0.278 1.137
-1.785 -0.0 1.212
-1.785 -0.278 1.137
-1.785 -0.482 0.934
-1.785 -0.556 0.656
-1.785 -0.482 0.377
-1.785 -0.278 0.174
-1.785 0.278 0.174
-1.785 0.482 0.377
-1.847 0.281 0.656
-1.847 0.141 0.899
-1.847 -0.141 0.899
-1.847 -0.281 0.656
-1.847 -0.141 0.412
-1.847 0.141 0.412
-1.868 0.0 0.656
1.312 0.277 -1.217
1.312 -0.0 -1.292
1.185 0.14 -1.533
1.185 0.404 -1.437
1.185 0.619 -1.257
1.185 -0.619 -1.257
1.015 -0.949 -1.149
1.015 -0.802 -1.39
1.015 -0.596 -1.582
1.185 -0.14 -1.533
1.015 -0.346 -1.712
1.015 -0.071 -1.769
1.015 0.21 -1.75
1.015 0.476 -1.655
1.015 0.706 -1.493
1.015 0.884 -1.275
0.805 -1.151 -1.156
0.805 -1.023 -1.41
0.805 -0.841 -1.628
0.805 -0.612 -1.798
0.805 -0.351 -1.911
0.805 -0.071 -1.96
0.805 0.213 -1.944
[...]
CELL_DATA 1336
SCALARS cell_data_0 double
LOOKUP_TABLE default
1.60837597701e-08
2.66918341742e-08
1.0712876156e-08
1.24421396362e-08
1.75319889367e-08
9.46939033338e-09
4.80332979819e-09
1.81435206319e-08
1.56465278823e-09
2.12159747159e-09
2.79275282496e-08
2.72155135993e-08
1.2027682046e-09
8.40395073914e-10
2.60995393491e-09
3.94245011193e-09
7.07742009406e-10
1.15105485204e-09
2.76294042328e-10
8.11373472932e-10
1.25087274655e-09
1.71904003606e-09
2.11579712892e-09
2.34819780841e-09
1.34806607985e-09
1.78471031322e-09
2.57438805699e-09
2.69725367998e-09
1.26829725451e-09
1.6534453612e-09
2.45945506119e-09
2.60671864721e-09
1.18468480755e-09
1.4868033823e-09
2.27403629928e-09
2.36352943664e-09
1.01731383799e-09
1.32459218026e-09
2.03929430662e-09
2.06044716049e-09
8.71250876374e-10
1.12416375855e-09
1.73542945922e-09
1.81681635673e-09
6.87474140985e-10
1.00740524899e-09
1.64552254875e-09
1.68606301877e-09
6.11552996564e-10
8.42258792156e-10
1.38286773105e-09
1.55871775708e-09
5.2962088439e-10
7.25591267978e-10
1.30210439098e-09
1.4873823715e-09
4.00905441145e-10
6.24246688557e-10
1.21170593065e-09
1.36209048071e-09
1.950060809e-10
5.26682385481e-10
1.18996257444e-09
1.20579291665e-09
1.78467914258e-10
6.30047814843e-10
1.07555451032e-09
1.03657276279e-09
3.74909042925e-10
6.35457902736e-10
9.21614075652e-10
9.82020837125e-10
3.09598470129e-10
5.97536140829e-10
1.06410022802e-09
1.10863343012e-09
3.05484923032e-10
5.81774551301e-10
9.95126991332e-10
8.84778101955e-10
1.95517291773e-10
4.64775404068e-10
8.08535648171e-10
1.11502911466e-09
2.90162974577e-10
5.19368064752e-10
1.05666308789e-09
1.14940089808e-09
2.75846695986e-10
5.71328600463e-10
9.77491077884e-10
1.12970674176e-09
3.57112295987e-10
6.69634942539e-10
1.10752384095e-09
1.16218562173e-09
5.04529542649e-10
8.05459291805e-10
1.10272910759e-09
1.30619503985e-09
6.09663442635e-10
8.12183014235e-10
1.28575717933e-09
1.36604614145e-09
6.13229850664e-10
9.45321720731e-10
1.32409780129e-09
1.5645904408e-09
7.39626194106e-10
1.01833573671e-09
1.54797949896e-09
1.62549870813e-09
7.77535362758e-10
1.07644784613e-09
1.50882808745e-09
1.66613438989e-09
8.30854589008e-10
1.09468388628e-09
1.5872480388e-09
1.58906767415e-09
7.97921167028e-10
9.59573101546e-10
1.36946604636e-09
1.1585326585e-09
5.69341015077e-10
4.96771055959e-10
7.50469761508e-10
1.12791937591e-10
5.90184316857e-11
4.90101505172e-10
1.03169553813e-09
4.19919797895e-09
8.93450062558e-10
2.79953539644e-09
6.137954376e-09
8.6955220303e-09
2.4343851148e-09
6.24224784688e-09
1.0002225013e-08
2.26533833628e-08
3.59723256039e-09
9.19509506117e-09
2.71837215744e-08
1.88560767635e-08
3.45334201428e-10
3.43490971213e-10
3.48346522034e-10
3.2502343405e-10
2.82153961189e-10
3.12310488969e-10
4.17059890739e-10
3.5129937437e-10
3.78550563107e-10
4.4314846119e-10
3.78477505119e-10
3.74152834933e-10
4.43961210684e-10
3.62288380257e-10
3.05073498277e-10
3.48631787984e-10
2.56968613284e-10
3.12177989135e-10
3.36178878293e-10
2.88748218647e-10
2.91926968105e-10
3.81347300797e-10
3.65716179755e-10
3.58973737623e-10
3.65199115638e-10
3.1963634081e-10
3.64108234967e-10
3.45763373378e-10
3.33394734984e-10
3.81049167488e-10
3.39273149291e-10
4.01169639729e-10
3.6989508241e-10
3.8859926115e-10
4.16957594479e-10
3.78439801843e-10
3.82344393506e-10
3.33290237824e-10
2.11007096157e-10
1.67674400035e-10
1.02913582109e-10
2.33077546191e-10
2.83302017135e-11
3.23385059214e-10
1.91172360381e-11
1.95746635197e-10
1.33551474446e-10
1.23750117216e-10
3.19494301747e-10
3.4660995793e-10
3.21929747648e-10
3.64733384856e-10
3.40131667041e-10
3.48781870859e-10
3.36179464361e-10
3.0559679498e-10
3.51030133983e-10
2.91564111022e-10
3.17222455719e-10
2.81086012356e-10
2.94337209325e-10
3.18003399021e-10
3.02566356336e-10
3.55386702582e-10
3.13797108289e-10
3.48903506423e-10
3.1792718307e-10
3.344324202e-10
3.88438985551e-10
3.60366773083e-10
4.13032128475e-10
3.4977211214e-10
3.55815229852e-10
3.19703162261e-10
2.4725502591e-10
1.4917348958e-10
3.44189208527e-11
5.66481917976e-11
2.62539089168e-11
2.42337622081e-10
2.77571258851e-10
2.61657933997e-10
3.47681121758e-10
2.85767272803e-10
3.12901321472e-10
3.04556429648e-10
3.16930474087e-10
3.05689906474e-10
2.57341542292e-10
2.77719378905e-10
2.61809705931e-10
2.86843414304e-10
2.61736282393e-10
2.73648218241e-10
2.55064332283e-10
2.65598695628e-10
2.58041235713e-10
2.63189825476e-10
2.86951739735e-10
2.73058246814e-10
2.98848063588e-10
2.72913369254e-10
3.04102227724e-10
3.05341737747e-10
3.316682199e-10
3.21008240087e-10
3.39000328035e-10
3.40071383313e-10
3.41752590344e-10
3.46401147832e-10
3.17763936417e-10
3.3271606103e-10
2.854438835e-10
2.320045444e-10
8.56461514355e-11
3.07577579902e-12
6.02262031492e-11
1.8966297506e-10
2.22321001298e-10
2.83071866942e-10
2.72188768152e-10
3.03899784108e-10
2.91390602891e-10
2.81511912806e-10
2.71804023311e-10
2.69878885928e-10
2.45320700047e-10
2.60903673237e-10
2.80803703136e-10
2.69562174395e-10
2.5353478859e-10
2.36105415467e-10
2.49784838141e-10
2.18566938326e-10
2.31337077681e-10
2.51671514171e-10
2.68665162025e-10
2.51542100398e-10
2.56702842239e-10
2.65766347539e-10
2.71969824688e-10
2.73459287396e-10
2.69279276058e-10
2.98563442188e-10
2.79122330153e-10
3.02794340347e-10
2.77837552088e-10
3.1403074315e-10
3.05782132276e-10
3.30208345948e-10
3.12691950216e-10
3.20258772033e-10
2.90222372067e-10
2.65121756062e-10
2.28024281216e-10
1.20434855915e-10
3.40342963304e-11
8.96205306516e-11
8.39824310054e-11
1.6440733724e-10
1.49735687198e-10
2.13994180291e-10
2.25375213758e-10
2.8345538163e-10
2.8763611133e-10
2.85082572018e-10
2.54069877819e-10
2.04738677605e-10
2.40477692885e-10
1.84504214558e-10
2.42795254148e-10
2.48749095452e-10
2.77828920659e-10
2.1618794444e-10
2.11050283338e-10
2.18718054274e-10
2.32417175753e-10
2.19802408647e-10
2.4194177567e-10
2.04827979491e-10
2.06043476814e-10
1.74511366981e-10
2.08327931189e-10
2.43794303346e-10
2.38438193948e-10
2.65409015852e-10
2.32483596166e-10
2.49510900347e-10
2.44049290271e-10
2.65178474001e-10
2.60295520228e-10
2.74009498005e-10
2.66687848941e-10
2.87056216708e-10
2.77977645049e-10
3.00935468744e-10
2.84036676897e-10
2.83058933652e-10
2.47874436791e-10
2.0705930189e-10
1.99870401485e-10
8.83652093508e-11
2.21647687899e-11
1.07539831293e-10
1.17539279887e-10
1.01420421858e-10
9.70873134269e-11
1.6107201339e-10
1.76509874252e-10
2.51357137074e-10
2.03351382915e-10
2.05167985876e-10
1.69333802366e-10
1.88094931201e-10
1.8567407433e-10
2.01268260922e-10
1.78959784461e-10
1.54638715892e-10
1.78404612661e-10
2.24136880826e-10
2.53918814899e-10
2.1094221692e-10
1.9680710177e-10
1.87881216187e-10
2.13765978016e-10
1.98989733991e-10
1.82438946503e-10
1.59117474986e-10
1.6074085012e-10
1.86157481539e-10
1.94269466062e-10
1.80548831814e-10
1.98095374392e-10
1.86772754211e-10
2.06101601604e-10
1.91439852971e-10
1.97539104726e-10
2.23800245474e-10
2.16609862382e-10
2.4629137592e-10
2.27998387141e-10
2.51259852462e-10
2.37134963325e-10
2.61118048699e-10
2.41997165661e-10
2.61534662183e-10
2.32893362521e-10
2.3406286783e-10
1.90595627188e-10
1.75026662752e-10
9.92950097354e-11
2.89719901174e-11
8.56504919517e-12
6.7662101766e-11
1.2306501015e-10
1.3688702099e-10
1.58101538192e-10
1.69025126615e-10
1.80593663685e-10
1.77245282412e-10
1.72869914521e-10
1.93316136098e-10
1.85282812485e-10
1.94978060449e-10
1.85633039462e-10
1.69586534342e-10
1.40148842988e-10
1.72038763191e-10
1.7866962661e-10
1.94305188527e-10
1.85047432461e-10
1.97012580304e-10
1.9068861988e-10
1.71015257614e-10
1.86605102234e-10
1.94928217816e-10
1.88342087992e-10
1.80585205378e-10
2.09889579509e-10
2.05333364832e-10
2.41154918665e-10
2.07002302636e-10
2.46606267044e-10
2.13611529185e-10
2.46139382528e-10
2.13901785483e-10
2.45129226049e-10
2.23169769344e-10
2.52079440381e-10
2.30967254096e-10
2.41919001558e-10
2.31336426268e-10
2.41821386982e-10
2.35614540127e-10
2.31978791929e-10
2.19970201627e-10
1.93932206651e-10
1.70809197016e-10
1.13100463175e-10
6.77300357179e-11
5.40577894063e-11
5.69067267168e-11
7.6753672326e-11
1.10720650738e-10
1.21265327897e-10
1.54338278627e-10
1.61637549318e-10
1.73594628094e-10
1.47144582471e-10
1.4782749193e-10
1.68549738967e-10
1.70107194332e-10
1.6287262196e-10
1.59163389974e-10
1.68969559111e-10
1.75990839109e-10
1.62926359513e-10
1.56314479866e-10
1.37584750698e-10
1.12877355016e-10
1.41626600848e-10
1.41250105418e-10
1.76942094935e-10
1.12485434159e-10
1.39812459954e-10
1.79570779715e-10
2.19176660846e-10
1.67505761365e-10
1.64960588609e-10
1.34967308033e-10
2.13873934229e-10
1.4279161654e-10
2.06983906921e-10
1.54153299324e-10
2.24256307387e-10
1.6165827601e-10
2.12046153667e-10
1.53858344343e-10
2.12800690241e-10
1.88754223472e-10
2.35241698458e-10
2.01379134715e-10
2.17745645485e-10
1.92053280717e-10
2.08859043901e-10
1.75236936583e-10
1.70793481315e-10
1.2785052853e-10
8.90521121507e-11
5.99612742049e-12
1.03032282458e-10
1.12610692798e-10
9.22494078467e-11
8.50031574637e-11
9.58760771132e-11
1.33097990645e-10
1.3850152821e-10
1.43944825348e-10
1.34729527442e-10
1.36050138379e-10
1.47636552985e-10
1.60315277717e-10
1.61998518052e-10
1.48078086319e-10
1.52218044168e-10
1.39859848529e-10
1.53689186802e-10
1.18202623392e-10
1.34516786697e-10
1.45148803055e-10
1.43436519823e-10
1.46656153334e-10
1.16941606822e-10
1.7286607237e-10
1.35731461255e-10
1.12219683532e-10
1.29150517883e-10
1.56613844472e-10
1.57648735837e-10
1.18762794346e-10
9.98160395477e-11
1.50054136105e-10
1.19132064955e-10
1.40146622242e-10
1.15687121933e-10
1.27704162337e-10
1.46135047626e-10
1.75003098321e-10
1.47549655514e-10
1.72607640196e-10
1.62144012461e-10
1.80522351313e-10
1.78659313066e-10
1.70073117151e-10
1.71067470373e-10
1.53216609929e-10
1.49123884798e-10
1.02004574556e-10
9.02271812643e-11
2.12567125112e-11
1.14469389191e-11
7.54188845343e-11
6.74334530322e-11
5.23105006709e-11
8.32036462204e-11
1.11395870516e-10
1.11955931254e-10
1.2750172461e-10
1.06672975148e-10
1.02715770302e-10
1.28980932788e-10
1.28857607221e-10
1.48690802967e-10
1.30397434702e-10
1.25965942713e-10
1.17704333187e-10
1.26762358054e-10
1.28328172283e-10
1.07253557894e-10
1.28022913898e-10
1.50009125924e-10
1.80658659269e-10
1.79951936238e-10
1.4824119962e-10
1.67182213672e-10
1.49289765589e-10
1.30283438662e-10
1.01239798815e-10
1.0907282441e-10
1.28576726752e-10
1.37207018748e-10
1.37567342454e-10
1.66432276419e-10
1.61641600668e-10
1.63775533571e-10
1.53117829222e-10
1.67140669012e-10
1.60993589037e-10
1.84991601997e-10
1.82871565527e-10
1.92253040607e-10
1.52497171543e-10
1.52767747951e-10
1.51799604513e-10
1.66059097952e-10
1.58510192656e-10
1.43409547946e-10
1.30664907881e-10
8.94707278227e-11
6.5673628616e-11
9.92608404923e-12
5.88950059585e-12
5.53149063281e-11
3.50558080655e-11
3.75500151478e-11
5.4858116856e-11
9.36337568184e-11
7.54790707615e-11
8.12518710863e-11
1.05184514251e-10
1.04788244248e-10
1.15091968408e-10
1.06053915481e-10
1.13409936407e-10
1.24644615162e-10
1.34146869953e-10
1.26016766687e-10
1.39018751341e-10
1.28541228424e-10
1.47166257483e-10
1.34337873168e-10
1.3744902939e-10
1.27345601081e-10
1.21191986314e-10
9.97137048964e-11
9.85096139243e-11
1.20605732894e-10
1.43346070433e-10
1.36151680586e-10
1.22127011396e-10
1.33081158633e-10
1.44257947713e-10
1.35869850701e-10
1.41490663399e-10
1.43385450664e-10
1.48995181567e-10
1.50364381043e-10
1.60063696864e-10
1.70328558373e-10
1.51724935936e-10
1.28710518144e-10
1.30118710076e-10
1.30507815907e-10
1.43159330526e-10
1.28481934951e-10
1.26500048249e-10
1.05355223924e-10
8.69514769009e-11
3.82884870246e-11
1.29534840529e-11
9.00070641521e-11
6.21391290639e-11
3.80278025132e-11
1.58035413277e-11
4.07203082114e-11
6.12621693151e-11
6.63891362003e-11
8.73846132774e-11
9.06980768802e-11
1.02281557142e-10
9.93964512327e-11
1.0792138615e-10
1.16151912043e-10
1.25707273051e-10
1.28318708769e-10
1.16207699736e-10
1.18470661324e-10
1.16803534464e-10
9.95845048707e-11
1.04255004715e-10
1.14717741934e-10
1.15213281592e-10
1.17257294637e-10
1.20495164714e-10
1.24155448953e-10
1.15809992505e-10
9.8405453754e-11
1.26014384728e-10
1.31929695774e-10
1.30220724849e-10
1.29756385532e-10
1.26353006721e-10
1.40338668165e-10
1.30684276901e-10
1.49142029655e-10
1.36247177472e-10
1.29625390115e-10
1.22719010879e-10
1.20163026595e-10
1.20628212807e-10
1.15780745849e-10
9.74303520648e-11
8.82887987799e-11
6.77800772212e-11
3.90373414617e-11
1.17801332581e-11
8.89875778953e-11
9.67339400034e-11
3.9834166298e-11
3.01191468477e-13
2.95772892581e-11
4.49819431901e-11
5.73906345948e-11
7.80138404757e-11
8.28636696888e-11
9.05778647671e-11
9.33674886869e-11
1.01403469948e-10
9.45554241665e-11
1.01546373615e-10
9.49421929016e-11
1.14468991153e-10
1.15317787786e-10
9.46758918107e-11
9.78038281298e-11
1.05908337181e-10
1.29310563331e-10
1.34132462789e-10
1.00618008557e-10
8.76405481524e-11
8.92567637359e-11
1.11620179068e-10
1.21983522862e-10
1.18126827823e-10
1.11870205672e-10
1.18582144027e-10
1.17036692039e-10
1.20370154519e-10
1.15054379985e-10
1.1509910602e-10
1.17286635834e-10
1.09898941601e-10
1.06228511245e-10
9.14478053365e-11
7.89527515553e-11
5.05388790726e-11
4.45620381681e-11
1.19719933276e-11
6.73437817492e-11
1.48643223018e-10
6.14433519331e-11
3.27212097607e-12
1.26251663963e-11
4.38350043882e-11
5.97461782373e-11
7.19098423381e-11
7.70102977002e-11
8.59720989699e-11
9.03972747331e-11
8.62053405173e-11
8.68811826953e-11
8.14059215496e-11
9.93539233215e-11
1.08352591683e-10
1.05282627856e-10
1.07429386902e-10
1.02919358309e-10
1.10660566265e-10
1.03541232548e-10
9.72311301057e-11
9.97379954411e-11
1.08452359188e-10
1.10835763689e-10
1.08358055829e-10
1.12390214667e-10
1.12363148838e-10
1.11607996719e-10
1.0488496959e-10
1.0374242977e-10
9.51520004966e-11
9.41037711827e-11
7.2936569136e-11
6.9984256941e-11
5.58054773634e-11
5.61778883221e-11
1.49620255038e-11
6.87903790516e-11
1.84398363166e-10
6.74123337085e-11
2.629929512e-11
2.28058921233e-11
3.31347370926e-11
3.83058516359e-11
6.68972335456e-11
6.94178201681e-11
7.80092848564e-11
8.38227523565e-11
8.66290702446e-11
8.75895653774e-11
9.24451278147e-11
9.67298055719e-11
9.56062121036e-11
9.87881372475e-11
1.00832939034e-10
9.76618688293e-11
9.2632806346e-11
9.27130102171e-11
9.79518204453e-11
1.00511872985e-10
9.76463731206e-11
9.69692532929e-11
9.0570005621e-11
9.22656403112e-11
8.34170540938e-11
7.2370770494e-11
5.61772354195e-11
4.19548807912e-11
4.43105628106e-11
2.26250516197e-11
3.56506338939e-11
1.46862536847e-10
1.970450886e-10
8.1906063685e-11
8.10440156168e-13
1.19059070176e-11
9.12912349756e-12
3.64713501747e-11
5.64884650395e-11
5.82730169487e-11
6.98744618242e-11
8.06729235356e-11
8.10785781104e-11
8.54600352264e-11
8.87028422611e-11
8.90076884327e-11
9.35546398884e-11
8.60757679078e-11
9.131657169e-11
8.9101446849e-11
8.84027315555e-11
8.58147867703e-11
7.8319657937e-11
6.87783303521e-11
5.72262499651e-11
3.85755095516e-11
3.67708924856e-11
3.32812240736e-13
1.15856188133e-12
6.93133857786e-11
2.1874264797e-10
2.22360887365e-10
6.53408596426e-11
8.94195456276e-12
1.24819750255e-11
1.11671358334e-11
4.13375234021e-11
4.91665376467e-11
5.30071274479e-11
6.66448889725e-11
7.72346595537e-11
8.10449379672e-11
8.15747349921e-11
8.91188562696e-11
8.18078543456e-11
7.66600568067e-11
7.92226925462e-11
6.05214921043e-11
5.26762828597e-11
2.68574900834e-11
2.90925933712e-11
2.27329780581e-11
1.31315976644e-10
2.15421877923e-10
1.99985740499e-10
8.68126182231e-11
1.79694870545e-11
4.54152289127e-12
1.90561162601e-13
2.31800841286e-11
4.900699152e-11
6.04073303568e-11
6.79660026036e-11
7.01748401629e-11
6.38325110649e-11
3.2723094703e-11
2.67847509484e-11
1.28047687743e-11
1.23384061803e-11
2.03149581357e-11
1.46549199647e-11
1.5499249724e-11
2.26218067927e-11
2.03546364206e-11
9.26034586994e-12
1.57290868806e-11
2.23143415828e-11
1.62941289364e-11
2.01665463328e-11
1.58699339648e-10
5.32616233311e-11
1.3070329238e-10
9.38741186562e-11
1.95762697635e-10
1.96198253671e-11
5.36063794224e-11
2.19492319203e-10
1.36600961836e-10
2.63638903882e-10
2.20815116156e-10
2.02522485744e-10
2.82799887431e-10
2.53201243852e-10
2.47767924459e-10
2.42257354334e-10
2.82992212666e-10
3.5738793577e-10
2.82498999356e-10
4.19445832454e-10
2.19647352588e-10
4.77502632855e-10
2.22550911347e-10
3.54287906975e-10
1.92895552972e-10
6.23018077759e-10
3.28508470487e-10
5.84364381338e-10
3.67368436008e-10
5.69409667056e-10
2.50961334569e-10
5.47958433979e-10
4.53644360673e-10
9.08632208527e-11
1.54645835768e-09
2.11147155449e-09
7.68116096074e-09
7.1588406756e-09
6.53455386169e-09
6.59669047785e-10
5.19309772139e-10
1.18720893594e-12
3.63784759867e-10
4.29097083942e-10
2.90260398146e-10
1.51663955441e-10
6.90005039008e-11
4.41156183692e-11
8.48839745482e-11
3.06021852955e-11
1.46240024896e-10
8.33766117197e-11
9.50026194755e-11
3.38897973111e-10
8.43913843285e-11
3.16714703025e-10
1.02490877191e-10
2.83507557696e-10
1.14279661609e-10
2.26545855012e-10
1.15393397788e-10
2.34683466413e-10
1.70515360198e-10
2.11763887053e-10
2.06160762481e-10
1.7367196919e-10
9.03840096869e-11
1.53918219608e-10
1.01429919003e-10
1.90644086506e-10
1.13129934674e-10
2.05681844122e-10
8.70866199443e-11
4.34565319039e-11
1.85057578976e-10
1.12361408444e-10
8.69421999712e-08
4.48621733364e-08
7.18676594668e-08
7.4546028248e-08
2.98765472113e-08
2.33756520951e-08
1.78594678213e-08
1.84162463214e-08
1.11175181083e-08
1.13332850962e-08
5.84823137145e-09
2.5575704579e-08
1.72366859728e-08
5.25630165094e-08
6.74578004312e-08
1.68203228492e-08
2.96567900073e-08
2.47503978991e-08
1.77601776827e-08
2.27696459432e-08
1.45320677468e-08
1.09795229446e-08
1.3511245036e-08
5.69970013751e-09
6.4481420696e-09
2.00835016589e-09
1.40146064572e-09
8.93743181334e-10
7.4228287061e-10
1.00678607615e-09
1.28537391621e-09
4.59484617451e-09
4.26263872234e-09
1.00285787011e-08
6.60783688976e-09
1.04993147896e-08
5.22456516833e-09
8.52447208028e-09
4.71968917323e-09
6.62399732931e-09
2.88475747217e-09
2.31614724835e-09
3.22651154052e-09
6.40166995306e-10
1.13737210033e-09
2.54924084231e-10
8.284527618e-11
5.21402081272e-10
7.97967159883e-10
1.37224445001e-09
1.80917360869e-09
1.77417683496e-09
1.79837311262e-09
1.96616519903e-09
1.28441549634e-09
2.06874536924e-10
7.12542137224e-10
6.34784279661e-10
3.34184900368e-11
1.36407751709e-09
2.87580222646e-10
1.43295615673e-09
3.24948643021e-10
1.0699752999e-09
4.96734906833e-11
4.60475457722e-10
2.71348868876e-10
7.79792521708e-11
6.44863832146e-10
6.2356829011e-10
9.60560431821e-10
9.93846814117e-10
1.18515916237e-09
1.09716850427e-09
1.30300767559e-09
1.24315640411e-09
1.42117449834e-09
1.65004715793e-09
1.96307391826e-09
2.26065128831e-09
2.24434202932e-09
2.13885670786e-09
2.00485789483e-09
1.94607238519e-09
1.67581122885e-09
1.75176470579e-09
1.40038970828e-09
1.532916279e-09
1.10367420019e-09
1.31657943567e-09
9.35116187737e-10
1.21666477483e-09
8.96220418089e-10
1.20960600419e-09
9.82737122855e-10
1.25971728778e-09
1.07648930383e-09
1.28816465429e-09
1.21094753196e-09
1.34639661731e-09
1.330642051e-09
1.39672616568e-09
1.46653485934e-09
1.49146048278e-09
1.55846203783e-09
1.39759168382e-09
1.56284563662e-09
1.62907410149e-09
2.00642153189e-09
2.03016133304e-09
2.04524537494e-09
2.01792185605e-09
2.01912083388e-09
2.05826808988e-09
1.94525276222e-09
1.89873383827e-09
1.85128968419e-09
1.79329683861e-09
1.69692332506e-09
1.65555135741e-09
1.65319238959e-09
1.58744443155e-09
1.55399145274e-09
1.5290699118e-09
1.5641753073e-09
1.51352507729e-09
1.47826951715e-09
1.48202360715e-09
1.48533361592e-09
1.45934063776e-09
1.42401462518e-09
1.38664547827e-09
1.45728461115e-09
1.47651180883e-09
1.41915443749e-09
1.24272850085e-09
1.25095613344e-09
1.48339083717e-09
1.65786720412e-09
1.81904996023e-09
1.96764745998e-09
1.76649957763e-09
1.84640176734e-09
1.77294352441e-09
1.81432381413e-09
1.71440106791e-09
1.78541836748e-09
1.71052419156e-09
1.64476301061e-09
1.60017910076e-09
1.62385191556e-09
1.58814770533e-09
1.54248296304e-09
1.45778274585e-09
1.47986154026e-09
1.41729932185e-09