# vtk DataFile Version 3.0
File Name: Molecule/methanol/methanol_2.0-test-1.vtk
ASCII
DATASET UNSTRUCTURED_GRID
FIELD FieldData 1
TIME 1 1 double
0.0
POINTS 99 double
1.611 0.0 -0.359
1.445 -0.731 -0.342
1.403 0.0 -0.933
1.252 -0.666 -0.918
0.98 -1.317 -0.296
0.828 -1.2 -0.876
0.308 -1.642 -0.229
0.216 -1.496 -0.815
-0.438 -1.642 -0.155
-0.464 -1.496 -0.747
-1.11 -1.317 -0.088
-1.076 -1.2 -0.686
-1.576 -0.731 -0.042
-1.5 -0.666 -0.644
-1.742 0.0 -0.025
-1.651 0.0 -0.629
-1.576 0.731 -0.042
-1.5 0.666 -0.644
-1.11 1.317 -0.088
-1.076 1.2 -0.686
-0.438 1.642 -0.155
-0.464 1.496 -0.747
0.308 1.642 -0.229
0.216 1.496 -0.815
0.98 1.317 -0.296
0.828 1.2 -0.876
1.445 0.731 -0.342
1.252 0.666 -0.918
1.907 0.0 0.656
1.763 0.722 0.656
1.763 0.361 1.281
1.763 -0.361 1.281
1.763 -0.722 0.656
1.763 -0.361 0.03
1.763 0.361 0.03
1.354 1.123 1.377
1.354 0.554 1.87
1.354 -0.19 1.977
1.354 -0.874 1.664
1.354 -1.281 1.032
1.354 -1.281 0.28
1.354 1.335 0.656
0.741 1.571 1.412
0.741 1.087 2.019
0.741 0.388 2.356
0.741 -0.388 2.356
0.741 -1.087 2.019
0.741 -1.571 1.412
0.741 -1.744 0.656
0.741 1.744 0.656
0.019 1.744 1.378
0.019 1.335 1.99
0.019 0.722 2.399
0.019 -0.0 2.543
0.019 -0.722 2.399
0.019 -1.335 1.99
0.019 -1.744 1.378
0.019 -1.888 0.656
0.019 1.888 0.656
-0.703 1.744 0.656
-0.703 1.571 1.412
-0.703 1.087 2.019
-0.703 0.388 2.356
-0.703 -0.388 2.356
-0.703 -1.087 2.019
-0.703 -1.571 1.412
-0.703 -1.744 0.656
-1.316 1.335 0.656
-1.316 1.123 1.377
-1.316 0.554 1.87
-1.316 -0.19 1.977
-1.316 -0.874 1.664
-1.316 -1.281 1.032
-1.725 0.722 0.656
-1.725 0.361 1.281
-1.725 -0.361 1.281
-1.725 -0.722 0.656
-1.868 0.0 0.656
1.21 0.384 -1.402
0.648 0.552 -1.946
0.648 1.118 -1.456
0.648 -0.871 -1.742
-0.12 -1.149 -1.755
-0.12 -0.544 -2.172
0.648 -0.189 -2.053
-0.12 0.185 -2.261
-0.12 0.872 -2.0
-0.12 1.359 -1.451
-0.887 -1.276 -1.112
-0.887 -0.871 -1.742
-0.887 -0.189 -2.053
-0.887 0.552 -1.946
-0.887 1.118 -1.456
-1.449 -0.384 -1.402
-1.449 0.384 -1.402
1.21 -0.384 -1.402
0.929 -0.2865 -1.7275
1.21 0.0 -1.402
0.929 0.0975 -1.7275

CELLS 194 776
3 0 1 2
3 2 1 3
3 1 4 3
3 3 4 5
3 4 6 5
3 5 6 7
3 6 8 7
3 7 8 9
3 8 10 9
3 9 10 11
3 10 12 11
3 11 12 13
3 12 14 13
3 13 14 15
3 14 16 15
3 15 16 17
3 16 18 17
3 17 18 19
3 18 20 19
3 19 20 21
3 20 22 21
3 21 22 23
3 22 24 23
3 23 24 25
3 24 26 25
3 25 26 27
3 26 0 27
3 27 0 2
3 28 29 30
3 28 30 31
3 28 31 32
3 28 32 33
3 28 33 34
3 28 34 29
3 30 29 35
3 30 35 36
3 30 36 37
3 31 30 37
3 31 37 38
3 31 38 39
3 32 31 39
3 32 39 40
3 33 32 40
3 29 41 35
3 35 41 42
3 35 42 43
3 36 35 43
3 36 43 44
3 37 36 44
3 37 44 45
3 38 37 45
3 38 45 46
3 38 46 47
3 39 38 47
3 39 47 48
3 40 39 48
3 41 49 42
3 42 49 50
3 42 50 51
3 43 42 51
3 43 51 52
3 44 43 52
3 44 52 53
3 45 44 53
3 45 53 54
3 46 45 54
3 46 54 55
3 47 46 55
3 47 55 56
3 48 47 56
3 48 56 57
3 49 58 50
3 50 58 59
3 50 59 60
3 51 50 60
3 51 60 61
3 52 51 61
3 52 61 62
3 53 52 62
3 53 62 63
3 54 53 63
3 54 63 64
3 55 54 64
3 55 64 65
3 56 55 65
3 56 65 66
3 57 56 66
3 60 59 67
3 60 67 68
3 61 60 68
3 61 68 69
3 62 61 69
3 62 69 70
3 63 62 70
3 63 70 71
3 64 63 71
3 65 64 71
3 65 71 72
3 66 65 72
3 68 67 73
3 68 73 74
3 69 68 74
3 70 69 74
3 70 74 75
3 71 70 75
3 72 71 75
3 72 75 76
3 74 73 77
3 75 74 77
3 76 75 77
3 76 77 14
3 76 14 12
3 76 12 10
3 76 10 72
3 72 10 66
3 66 10 8
3 66 8 57
3 57 8 6
3 57 6 48
3 48 6 4
3 48 4 40
3 40 4 1
3 40 1 33
3 33 1 0
3 33 0 34
3 34 0 26
3 34 26 29
3 29 26 41
3 41 26 24
3 41 24 49
3 49 24 22
3 49 22 58
3 58 22 20
3 58 20 59
3 59 20 18
3 59 18 67
3 67 18 16
3 67 16 73
3 73 16 14
3 73 14 77
3 78 79 80
3 81 82 83
3 84 81 83
3 84 83 85
3 79 84 85
3 79 85 86
3 80 79 86
3 80 86 87
3 82 88 89
3 83 82 89
3 83 89 90
3 85 83 90
3 85 90 91
3 86 85 91
3 86 91 92
3 87 86 92
3 89 88 93
3 90 89 93
3 90 93 94
3 91 90 94
3 92 91 94
3 92 94 17
3 92 17 19
3 92 19 21
3 92 21 87
3 87 21 23
3 87 23 80
3 80 23 25
3 80 25 27
3 80 27 78
3 78 27 2
3 95 2 3
3 95 3 81
3 81 3 5
3 81 5 7
3 81 7 82
3 82 7 9
3 82 9 88
3 88 9 11
3 88 11 13
3 88 13 93
3 93 13 15
3 93 15 94
3 94 15 17
3 84 96 81
3 95 96 81
3 78 97 98
3 97 96 98
3 97 95 96
3 98 96 84
3 78 98 79
3 98 84 79
3 95 97 2
3 78 97 2

CELL_TYPES 194
5
5
5
5
5
5
5
5
5
5
5
5
5
5
5
5
5
5
5
5
5
5
5
5
5
5
5
5
5
5
5
5
5
5
5
5
5
5
5
5
5
5
5
5
5
5
5
5
5
5
5
5
5
5
5
5
5
5
5
5
5
5
5
5
5
5
5
5
5
5
5
5
5
5
5
5
5
5
5
5
5
5
5
5
5
5
5
5
5
5
5
5
5
5
5
5
5
5
5
5
5
5
5
5
5
5
5
5
5
5
5
5
5
5
5
5
5
5
5
5
5
5
5
5
5
5
5
5
5
5
5
5
5
5
5
5
5
5
5
5
5
5
5
5
5
5
5
5
5
5
5
5
5
5
5
5
5
5
5
5
5
5
5
5
5
5
5
5
5
5
5
5
5
5
5
5
5
5
5
5
5
5
5
5
5
5
5
5
5
5
5
5
5
5

CELL_DATA 194
SCALARS cell_data_0 double
LOOKUP_TABLE default
4.37627823879e-08
1.0957979457e-07
8.82748274524e-08
7.23835843939e-08
1.44215108917e-08
2.25022275751e-08
1.86938761234e-08
2.16578896391e-08
8.16987312973e-09
1.30444161886e-08
9.78330870063e-09
1.23318244577e-08
7.92696114412e-09
9.33173761975e-09
5.38025267912e-09
8.62752074028e-09
6.92819680791e-09
1.18513772579e-08
8.71158273423e-09
1.55131109516e-08
1.23736669123e-08
1.62977928886e-08
1.31041625619e-08
1.71085604949e-08
1.88339675896e-08
8.50281739515e-08
1.50474753475e-07
1.57992921778e-07
6.03883719065e-09
4.30273245515e-09
5.60309157551e-09
2.50608558624e-09
1.31193428092e-09
4.48243682003e-09
6.22568368716e-09
4.0820584753e-09
4.31652305303e-09
3.91003005989e-09
3.83822898965e-09
3.6586775281e-09
4.72749593263e-09
5.21784588956e-09
3.2000752319e-09
5.30145184494e-09
3.52155619299e-09
3.24089604711e-09
3.86587577429e-09
3.46435225898e-09
4.0017008268e-09
3.36263134898e-09
4.19250468065e-09
4.08140608631e-09
4.9119003893e-09
4.94374510845e-09
4.16724316298e-09
4.04272606927e-09
3.53575610112e-09
2.97981598967e-09
2.49481375463e-09
3.05712139073e-09
2.42619390246e-09
2.6369784638e-09
2.52170246979e-09
3.1373339674e-09
2.55929265518e-09
2.96167725491e-09
2.76932530515e-09
4.28371748028e-09
3.49904050271e-09
3.72359744452e-09
2.80707433234e-09
2.88874577826e-09
2.26651273589e-09
2.11184500681e-09
2.15812559617e-09
2.30788364372e-09
2.11104084966e-09
2.17677544397e-09
2.38686566132e-09
2.59898778026e-09
2.22912500058e-09
2.02854897843e-09
2.2506587112e-09
2.5888769844e-09
2.53321887826e-09
2.63374539768e-09
2.86570703847e-09
1.80241460775e-09
1.64814053958e-09
1.94137058904e-09
1.84100636271e-09
1.88464757564e-09
1.76158654042e-09
1.91801768513e-09
1.82858337826e-09
2.04236008142e-09
2.16005384973e-09
2.10191311245e-09
2.33171463486e-09
1.33823996995e-09
1.44117147286e-09
1.51344929353e-09
1.51641562631e-09
1.53122280087e-09
1.5475531605e-09
1.71437688568e-09
1.82982888458e-09
1.2238010161e-09
8.99429013097e-10
1.25313773055e-09
4.30549909108e-10
1.29527988608e-09
1.85015063975e-09
3.88298272767e-10
1.69793018208e-10
2.21761257158e-09
1.16597378712e-09
2.7748423269e-09
6.28722653411e-10
6.61290801078e-09
3.06062644952e-09
5.39298880546e-08
5.79852436107e-08
4.11342723024e-08
3.99924740574e-09
3.34886266464e-10
4.54519748992e-09
2.83205806011e-09
6.80052051808e-09
3.93426252854e-09
2.78567704613e-09
6.07934721163e-10
3.80349826779e-09
2.30308790993e-10
2.0393961582e-09
2.78075608419e-10
1.26114760614e-09
1.16478833454e-10
1.84230199235e-09
1.90943792549e-10
3.01507641869e-08
7.62871242997e-09
2.93807362733e-08
3.2518254378e-08
3.78551599672e-08
2.64838152596e-08
4.02147783243e-08
3.26960316206e-08
2.03577038025e-08
2.29104253911e-08
3.42813709801e-08
3.03203041932e-08
2.72819445756e-08
1.87230856345e-08
2.3005789084e-08
2.17728610807e-08
1.98676722968e-08
2.36200935527e-08
1.37200755075e-07
1.15460676066e-07
1.1750179042e-07
1.50598077721e-07
2.43362348916e-08
2.74408515668e-08
3.31270854536e-08
2.4123392083e-08
3.57901911866e-08
2.34542604008e-08
6.13714309211e-08
1.08711127708e-07
1.11974923319e-07
7.27326408069e-08
1.15755822102e-07
1.42132655676e-07
4.06067976364e-08
2.28577581527e-08
3.93381401924e-08
2.18858236444e-08
1.04309612144e-08
1.12310914914e-08
2.63626091677e-08
1.64606823053e-08
1.31508465819e-07
1.05303604203e-07
1.32575204665e-07
2.30559257086e-07
1.06045404508e-07
3.19664491274e-08
5.00446708287e-07
2.0634527838e-07
3.98835609797e-07
3.89530863989e-07
3.5341943088e-07
2.46715304145e-07

