# vtk DataFile Version 3.0
File Name: Molecule/methanol/methanol_9.0-2.vtk
ASCII
DATASET UNSTRUCTURED_GRID
FIELD FieldData 1
TIME 1 1 double
0.0
POINTS 457 double
1.611 0.0 -0.359
1.569 -0.375 -0.355
1.403 0.0 -0.933
1.07 -0.957 -0.9
0.98 -1.317 -0.296
0.828 -1.2 -0.876
0.662 -1.518 -0.264
0.538 -1.382 -0.847
0.308 -1.642 -0.229
0.216 -1.496 -0.815
-0.065 -1.684 -0.192
-0.124 -1.534 -0.781
-0.438 -1.642 -0.155
-0.464 -1.496 -0.747
-0.793 -1.518 -0.119
-0.787 -1.382 -0.715
-1.11 -1.317 -0.088
-1.076 -1.2 -0.686
-1.376 -1.05 -0.061
-1.318 -0.957 -0.662
-1.576 -0.731 -0.042
-1.5 -0.666 -0.644
-1.7 -0.375 -0.029
-1.613 -0.341 -0.633
-1.742 0.0 -0.025
-1.651 0.0 -0.629
-1.7 0.375 -0.029
-1.613 0.341 -0.633
-1.576 0.731 -0.042
-1.5 0.666 -0.644
-1.376 1.05 -0.061
-1.318 0.957 -0.662
-1.11 1.317 -0.088
-1.076 1.2 -0.686
-0.793 1.518 -0.119
-0.787 1.382 -0.715
-0.438 1.642 -0.155
-0.464 1.496 -0.747
-0.065 1.684 -0.192
-0.124 1.534 -0.781
0.308 1.642 -0.229
0.216 1.496 -0.815
0.662 1.518 -0.264
0.538 1.382 -0.847
0.98 1.317 -0.296
0.828 1.2 -0.876
1.245 1.05 -0.322
1.07 0.957 -0.9
1.445 0.731 -0.342
1.252 0.666 -0.918
1.569 0.375 -0.355
1.365 0.341 -0.929
1.907 0.0 0.656
1.874 0.347 0.656
1.874 0.173 0.956
1.874 -0.173 0.956
1.874 -0.347 0.656
1.874 -0.173 0.355
1.874 0.173 0.355
1.779 0.59 0.997
1.779 0.341 1.246
1.779 -0.0 1.337
1.779 -0.341 1.246
1.779 -0.59 0.997
1.779 -0.682 0.656
1.779 -0.59 0.315
1.779 -0.341 0.065
1.779 -0.0 -0.026
1.779 0.341 0.065
1.779 0.59 0.315
1.779 0.682 0.656
1.624 0.934 0.995
1.624 0.761 1.294
1.624 0.497 1.516
1.624 0.173 1.634
1.624 -0.173 1.634
1.624 -0.497 1.516
1.624 -0.761 1.294
1.624 -0.934 0.995
1.624 -0.994 0.656
1.624 -0.934 0.316
1.624 -0.761 0.017
1.624 0.761 0.017
1.624 0.934 0.316
1.624 0.994 0.656
1.414 1.224 0.999
1.414 1.086 1.316
1.414 0.868 1.585
1.414 0.585 1.785
1.414 0.259 1.901
1.414 -0.087 1.924
1.414 -0.426 1.854
1.414 -0.733 1.694
1.414 -0.986 1.458
1.414 -1.166 1.162
1.414 -1.26 0.829
1.414 -1.26 0.482
1.414 -1.166 0.149
1.414 -0.986 -0.147
1.414 1.086 -0.005
1.414 1.224 0.313
1.414 1.272 0.656
1.156 1.466 1.003
1.156 1.346 1.332
1.156 1.154 1.624
1.156 0.899 1.864
1.156 0.597 2.039
1.156 0.262 2.139
1.156 -0.088 2.159
1.156 -0.432 2.099
1.156 -0.753 1.96
1.156 -1.034 1.751
1.156 -1.258 1.483
1.156 -1.415 1.171
1.156 -1.496 0.83
1.156 -1.496 0.481
1.156 -1.415 0.14
1.156 1.346 -0.02
1.156 1.466 0.308
1.156 1.506 0.656
0.86 1.655 0.996
0.86 1.553 1.322
0.86 1.387 1.621
0.86 1.164 1.88
0.86 0.894 2.089
0.86 0.587 2.24
0.86 0.256 2.326
0.86 -0.086 2.343
0.86 -0.424 2.291
0.86 -0.744 2.173
0.86 -1.034 1.992
0.86 -1.282 1.756
0.86 -1.477 1.476
0.86 -1.612 1.161
0.86 -1.681 0.827
0.86 -1.681 0.485
0.86 -1.612 0.15
0.86 1.553 -0.011
0.86 1.655 0.315
0.86 1.69 0.656
0.536 1.783 0.999
0.536 1.685 1.33
0.536 1.527 1.637
0.536 1.314 1.908
0.536 1.053 2.134
0.536 0.754 2.307
0.536 0.428 2.42
0.536 0.086 2.469
0.536 -0.258 2.453
0.536 -0.594 2.371
0.536 -0.908 2.228
0.536 -1.189 2.028
0.536 -1.427 1.778
0.536 -1.614 1.487
0.536 -1.742 1.167
0.536 -1.807 0.828
0.536 -1.807 0.483
0.536 -1.742 0.144
0.536 1.685 -0.019
0.536 1.783 0.312
0.536 1.815 0.656
0.193 1.847 1.001
0.193 1.753 1.335
0.193 1.598 1.645
0.193 1.389 1.922
0.193 1.133 2.155
0.193 0.838 2.338
0.193 0.514 2.463
0.193 0.173 2.527
0.193 -0.173 2.527
0.193 -0.514 2.463
0.193 -0.838 2.338
0.193 -1.133 2.155
0.193 -1.389 1.922
0.193 -1.598 1.645
0.193 -1.753 1.335
0.193 -1.847 1.001
0.193 -1.879 0.656
0.193 -1.847 0.31
0.193 -1.753 -0.023
0.193 1.753 -0.023
0.193 1.847 0.31
0.193 1.879 0.656
-0.155 1.847 1.001
-0.155 1.753 1.335
-0.155 1.598 1.645
-0.155 1.389 1.922
-0.155 1.133 2.155
-0.155 0.838 2.338
-0.155 0.514 2.463
-0.155 0.173 2.527
-0.155 -0.173 2.527
-0.155 -0.514 2.463
-0.155 -0.838 2.338
-0.155 -1.133 2.155
-0.155 -1.389 1.922
-0.155 -1.598 1.645
-0.155 -1.753 1.335
-0.155 -1.847 1.001
-0.155 -1.879 0.656
-0.155 -1.847 0.31
-0.155 1.847 0.31
-0.155 1.879 0.656
-0.498 1.815 0.656
-0.498 1.783 0.999
-0.498 1.685 1.33
-0.498 1.527 1.637
-0.498 1.314 1.908
-0.498 1.053 2.134
-0.498 0.754 2.307
-0.498 0.428 2.42
-0.498 0.086 2.469
-0.498 -0.258 2.453
-0.498 -0.594 2.371
-0.498 -0.908 2.228
-0.498 -1.189 2.028
-0.498 -1.427 1.778
-0.498 -1.614 1.487
-0.498 -1.742 1.167
-0.498 -1.807 0.828
-0.498 -1.807 0.483
-0.498 -1.742 0.144
-0.498 1.783 0.312
-0.822 1.69 0.656
-0.822 1.655 0.996
-0.822 1.553 1.322
-0.822 1.387 1.621
-0.822 1.164 1.88
-0.822 0.894 2.089
-0.822 0.587 2.24
-0.822 0.256 2.326
-0.822 -0.086 2.343
-0.822 -0.424 2.291
-0.822 -0.744 2.173
-0.822 -1.034 1.992
-0.822 -1.282 1.756
-0.822 -1.477 1.476
-0.822 -1.612 1.161
-0.822 -1.681 0.827
-0.822 -1.681 0.485
-0.822 -1.612 0.15
-0.822 1.655 0.315
-1.118 1.506 0.656
-1.118 1.466 1.003
-1.118 1.346 1.332
-1.118 1.154 1.624
-1.118 0.899 1.864
-1.118 0.597 2.039
-1.118 0.262 2.139
-1.118 -0.088 2.159
-1.118 -0.432 2.099
-1.118 -0.753 1.96
-1.118 -1.034 1.751
-1.118 -1.258 1.483
-1.118 -1.415 1.171
-1.118 -1.496 0.83
-1.118 -1.496 0.481
-1.118 -1.415 0.14
-1.118 1.466 0.308
-1.376 1.272 0.656
-1.376 1.224 0.999
-1.376 1.086 1.316
-1.376 0.868 1.585
-1.376 0.585 1.785
-1.376 0.259 1.901
-1.376 -0.087 1.924
-1.376 -0.426 1.854
-1.376 -0.733 1.694
-1.376 -0.986 1.458
-1.376 -1.166 1.162
-1.376 -1.26 0.829
-1.376 -1.26 0.482
-1.376 -1.166 0.149
-1.376 1.224 0.313
-1.586 0.994 0.656
-1.586 0.934 0.995
-1.586 0.761 1.294
-1.586 0.497 1.516
-1.586 0.173 1.634
-1.586 -0.173 1.634
-1.586 -0.497 1.516
-1.586 -0.761 1.294
-1.586 -0.934 0.995
-1.586 -0.994 0.656
-1.586 -0.934 0.316
-1.586 0.934 0.316
-1.741 0.682 0.656
-1.741 0.59 0.997
-1.741 0.341 1.246
-1.741 -0.0 1.337
-1.741 -0.341 1.246
-1.741 -0.59 0.997
-1.741 -0.682 0.656
-1.741 -0.59 0.315
-1.741 0.59 0.315
-1.836 0.347 0.656
-1.836 0.173 0.956
-1.836 -0.173 0.956
-1.836 -0.347 0.656
-1.836 0.173 0.355
-1.836 -0.173 0.355
1.245 -1.05 -0.322
1.445 -0.731 -0.342
1.263 0.333 -1.314
1.08 0.427 -1.594
1.08 0.707 -1.382
1.08 -0.262 -1.658
1.08 -0.577 -1.501
0.837 -0.6 -1.777
0.837 -0.267 -1.907
1.08 0.088 -1.69
0.837 0.09 -1.934
0.837 0.438 -1.854
0.837 0.748 -1.675
0.837 0.992 -1.413
1.08 0.892 -1.083
0.837 1.147 -1.091
0.837 -1.081 -1.258
0.546 -1.286 -1.246
0.546 -1.119 -1.55
0.837 -0.88 -1.553
0.546 -0.882 -1.803
0.546 -0.589 -1.989
0.546 -0.259 -2.096
0.546 0.087 -2.117
0.546 0.427 -2.052
0.546 0.741 -1.905
0.546 1.008 -1.684
0.546 1.212 -1.403
0.546 1.34 -1.081
0.222 -1.406 -1.249
0.222 -1.25 -1.56
0.222 -1.027 -1.826
0.222 -0.748 -2.033
0.222 -0.429 -2.171
0.222 -0.087 -2.231
0.222 0.26 -2.211
0.222 0.593 -2.111
0.222 0.894 -1.938
0.222 1.146 -1.699
0.222 1.337 -1.409
0.222 1.456 -1.082
-0.12 -1.497 -1.079
-0.12 -1.383 -1.403
-0.12 -1.2 -1.694
-0.12 -0.957 -1.937
-0.12 -0.666 -2.12
-0.12 -0.342 -2.234
-0.12 0.0 -2.272
-0.12 0.342 -2.234
-0.12 0.666 -2.12
-0.12 0.957 -1.937
-0.12 1.2 -1.694
-0.12 1.383 -1.403
-0.12 1.497 -1.079
-0.461 -1.406 -1.249
-0.461 -1.25 -1.56
-0.461 -1.027 -1.826
-0.461 -0.748 -2.033
-0.461 -0.429 -2.171
-0.461 -0.087 -2.231
-0.461 0.26 -2.211
-0.461 0.593 -2.111
-0.461 0.894 -1.938
-0.461 1.146 -1.699
-0.461 1.337 -1.409
-0.461 1.456 -1.082
-0.786 -1.372 -0.911
-0.786 -1.286 -1.246
-0.786 -1.119 -1.55
-0.786 -0.882 -1.803
-0.786 -0.589 -1.989
-0.786 -0.259 -2.096
-0.786 0.087 -2.117
-0.786 0.427 -2.052
-0.786 0.741 -1.905
-0.786 1.008 -1.684
-0.786 1.212 -1.403
-0.786 1.34 -1.081
-1.077 -1.187 -0.916
-1.077 -1.081 -1.258
-1.077 -0.88 -1.553
-1.077 -0.6 -1.777
-1.077 -0.267 -1.907
-1.077 0.09 -1.934
-1.077 0.438 -1.854
-1.077 0.748 -1.675
-1.077 0.992 -1.413
-1.077 1.147 -1.091
-1.32 -0.941 -0.913
-1.32 -0.814 -1.241
-1.32 -0.577 -1.501
-1.32 -0.262 -1.658
-1.32 0.088 -1.69
-1.32 0.427 -1.594
-1.32 0.707 -1.382
-1.32 0.892 -1.083
-1.503 -0.577 -1.07
-1.503 -0.333 -1.314
-1.503 -0.0 -1.403
-1.503 0.333 -1.314
-1.503 0.577 -1.07
-1.616 -0.171 -1.033
-1.616 0.171 -1.033
1.467 -0.358 -0.642
1.365 -0.341 -0.929
1.507 -0.553 -0.3485
1.405 -0.536 -0.6355
1.252 -0.666 -0.918
1.263 -0.333 -1.314
1.1715 -0.455 -1.4075
1.263 -0.0 -1.403
1.263 -0.1665 -1.3585
1.1715 0.044 -1.5465
1.263 0.1665 -1.3585
1.1715 0.2105 -1.502
1.08 -0.814 -1.241
0.9585 -0.9475 -1.2495
0.9585 -0.847 -1.397
0.837 -0.9805 -1.4055
1.08 -0.6955 -1.371
0.9585 -0.7285 -1.527
1.333 0.1665 -1.1235
1.333 0.0 -1.168
1.333 -0.1665 -1.1235
1.2575 -0.4995 -1.116
1.1715 -0.5735 -1.2775
1.166 -0.74 -1.0795
1.075 -0.8855 -1.0705
1.161 -0.8115 -0.909
0.9535 -1.019 -1.079
1.2485 -0.858 -0.62
1.1575 -1.0035 -0.611
-1.836 0.26 0.806
-1.836 0.0 0.956
-1.836 -0.26 0.806
-1.836 -0.26 0.5055
-1.836 0.26 0.5055
-1.852 0.0865 0.806
-1.852 0.1735 0.656
-1.868 -0.0 0.656
-1.852 -0.0865 0.806
-1.852 -0.1735 0.656
-1.852 -0.0865 0.5055
-1.836 0.0 0.355
-1.852 0.0865 0.5055
1.5965 -0.568 -0.169
-1.503 0.455 -1.192
-1.5595 0.252 -1.1735
-1.5595 0.374 -1.0515
-1.558 0.459 -0.8515
-1.6145 0.256 -0.833
1.538 -0.464 -0.35175
1.1155 -0.88425 -0.9045
1.203 -0.93075 -0.6155
1.2065 -0.73875 -0.9135
1.5655 -0.657 -0.16575

CELLS 910 3640
3 0 1 2
3 3 4 5
3 4 6 5
3 5 6 7
3 6 8 7
3 7 8 9
3 8 10 9
3 9 10 11
3 10 12 11
3 11 12 13
3 12 14 13
3 13 14 15
3 14 16 15
3 15 16 17
3 16 18 17
3 17 18 19
3 18 20 19
3 19 20 21
3 20 22 21
3 21 22 23
3 22 24 23
3 23 24 25
3 24 26 25
3 25 26 27
3 26 28 27
3 27 28 29
3 28 30 29
3 29 30 31
3 30 32 31
3 31 32 33
3 32 34 33
3 33 34 35
3 34 36 35
3 35 36 37
3 36 38 37
3 37 38 39
3 38 40 39
3 39 40 41
3 40 42 41
3 41 42 43
3 42 44 43
3 43 44 45
3 44 46 45
3 45 46 47
3 46 48 47
3 47 48 49
3 48 50 49
3 49 50 51
3 50 0 51
3 51 0 2
3 52 53 54
3 52 54 55
3 52 55 56
3 52 56 57
3 52 57 58
3 52 58 53
3 54 53 59
3 54 59 60
3 54 60 61
3 55 54 61
3 55 61 62
3 55 62 63
3 56 55 63
3 56 63 64
3 56 64 65
3 57 56 65
3 57 65 66
3 57 66 67
3 58 57 67
3 58 67 68
3 58 68 69
3 53 58 69
3 53 69 70
3 53 70 59
3 59 70 71
3 59 71 72
3 60 59 72
3 60 72 73
3 60 73 74
3 61 60 74
3 61 74 75
3 62 61 75
3 62 75 76
3 62 76 77
3 63 62 77
3 63 77 78
3 64 63 78
3 64 78 79
3 64 79 80
3 65 64 80
3 65 80 81
3 66 65 81
3 69 68 82
3 69 82 83
3 70 69 83
3 70 83 84
[...]
CELL_DATA 910
SCALARS cell_data_0 double
LOOKUP_TABLE default
1.62125474974e-06
1.91299735528e-06
1.2262377964e-06
1.74405980818e-06
1.10294862264e-06
1.49199222756e-06
9.66401993479e-07
1.21193592427e-06
7.95464872567e-07
9.66085117478e-07
6.64281484839e-07
7.51694411041e-07
5.22215827902e-07
5.60250806142e-07
4.06771606942e-07
4.06714501016e-07
2.96929703042e-07
2.76717420561e-07
2.09752437776e-07
1.1839002313e-07
7.64021612892e-08
3.61919609444e-08
4.86132117109e-09
1.57355739414e-07
1.19925997381e-07
3.07044920522e-07
2.32866708974e-07
4.68638827258e-07
3.55860116638e-07
6.42351880083e-07
4.79024423918e-07
8.21255285702e-07
6.09265214325e-07
9.94982548494e-07
7.00500939837e-07
1.07579983192e-06
6.98189816143e-07
8.99245052456e-07
4.40655149579e-07
2.47731410647e-08
2.38539745192e-07
2.46689895367e-06
1.92865589071e-06
6.86653142125e-06
3.6017777212e-06
1.53068874082e-06
4.33600168047e-07
8.56391412021e-07
2.95024420074e-07
3.96961603186e-07
6.85551138593e-09
1.79001016632e-09
8.55673524738e-09
1.65004032464e-08
2.35854858054e-08
6.54164487623e-09
9.24927412185e-09
1.11033636496e-08
2.40664086924e-08
1.948365623e-08
6.37275254012e-08
6.6738197874e-08
1.42591716989e-08
2.10564066142e-08
4.73992666663e-09
2.98884765063e-08
4.75880468429e-08
7.87617188571e-08
7.34984750128e-08
7.79973146034e-08
5.05249801681e-08
1.8356885804e-08
3.98902585849e-09
3.88021008441e-09
4.10578060554e-09
4.87968905263e-09
7.18099906369e-09
2.27305437839e-09
3.25341719098e-09
1.68303316743e-08
7.33832386981e-09
6.40113410041e-08
4.92022322501e-08
6.85769365131e-08
9.02296950674e-08
2.85401702093e-08
2.34046371897e-08
5.92886681706e-09
3.29010784742e-09
1.0011777642e-08
3.38261896582e-08
6.02726361708e-08
6.08909590659e-08
2.61943799665e-08
1.15856723951e-08
4.94524733247e-09
9.99202652867e-09
2.58820546909e-08
2.5526103696e-08
1.24860955386e-08
8.7957168924e-09
3.65066231758e-09
7.75276129863e-09
1.5451711249e-08
2.02066013274e-08
2.62075676068e-08
1.95544388017e-08
2.27407758874e-08
5.16546303083e-09
8.6668128499e-09
9.82674329212e-09
5.84834649299e-09
1.20245463436e-08
1.07193621984e-08
9.7071909044e-10
2.28825998381e-10
7.46580590416e-10
7.78632447098e-09
1.30637627535e-08
3.44152699251e-08
3.97958652478e-08
1.96543183606e-08
1.01807429986e-08
1.82275726841e-08
3.37104970223e-08
3.7277718799e-08
5.4061345595e-08
5.11611516599e-08
3.77347402618e-08
3.12685261489e-08
1.78420326166e-08
1.12575269468e-08
2.0010647089e-09
8.00156091387e-09
1.94409401704e-08
2.4963345003e-08
3.24294093695e-08
3.82083931196e-08
4.40919126931e-08
3.96847438137e-08
4.12743631319e-08
2.95672272848e-08
2.80366166447e-08
1.2777395412e-08
1.12686158225e-08
4.55164823674e-09
1.21321688927e-08
8.33462462656e-09
1.14670695556e-08
5.37094362809e-09
2.22077583625e-09
9.09465607179e-09
4.19525374357e-09
2.92949444839e-08
5.24123546117e-08
5.18714875789e-08
6.65175568079e-08
6.61290466402e-08
7.91543184447e-08
7.0920651246e-08
6.06813582494e-08
5.05540405748e-08
3.90800186111e-08
3.02780800967e-08
1.81824824476e-08
1.08121987076e-08
2.27336561358e-09
8.05211150352e-09
2.10135657906e-08
2.56100508894e-08
3.72524683485e-08
4.10884440535e-08
4.92872583032e-08
5.2521946028e-08
5.6448581556e-08
5.34538976009e-08
4.94322908931e-08
3.98186910429e-08
3.63570954151e-08
2.40225997274e-08
1.14721314809e-08
1.15217765625e-08
1.66547521753e-08
1.96063573614e-08
1.5909247495e-08
3.59921785635e-09
2.35785332174e-10
2.23337802359e-08
3.16912378368e-08
8.09855138442e-08
9.38632409785e-08
8.66788441216e-08
9.59746151413e-08
9.01114108867e-08
9.96342942732e-08
9.01152764677e-08
7.66927028787e-08
6.67423795926e-08
5.48308898536e-08
4.44925462623e-08
3.41740851185e-08
2.429179035e-08
1.41345547772e-08
4.36785266917e-09
5.04439708268e-09
1.42451176606e-08
2.30553817501e-08
3.19123410821e-08
3.97102516739e-08
4.76134923594e-08
5.3700994862e-08
6.05875308747e-08
6.27243767755e-08
6.65032445662e-08
5.98831951571e-08
5.63904357776e-08
4.52788329727e-08
3.53123233531e-08
1.34758054575e-08
1.80263755024e-08
6.01737554388e-09
5.31820409368e-09
2.15644244331e-08
1.86034253318e-08
2.02853947315e-09
5.24268093513e-09
3.87793623155e-08
5.44141927427e-08
1.26843126384e-07
1.36356845745e-07
1.16873664794e-07
1.25852089265e-07
1.14989621704e-07
1.21994419325e-07
1.08246852379e-07
9.3877370161e-08
8.06661486518e-08
6.87092767306e-08
5.62642389415e-08
4.53536570563e-08
3.33302384012e-08
2.36584047728e-08
1.1776891662e-08
2.97492613154e-09
8.65389698966e-09
1.66221730598e-08
2.79830048905e-08
3.51577617643e-08
4.60099428197e-08
5.20054136513e-08
6.21525446585e-08
6.61922828691e-08
7.32608646319e-08
7.26992854516e-08
7.38117200172e-08
6.55819963105e-08
4.52554399194e-08
2.54055772916e-08
2.73922394415e-08
4.98793539121e-08
9.49388929177e-08
3.92587970946e-08
1.55890947621e-08
1.86991560697e-08
1.28950498547e-08
2.26978192508e-09
2.17142640997e-08
5.52376061108e-08
1.00322829642e-07
1.7341820009e-07
1.74786169016e-07
1.48356527242e-07
1.54773111929e-07
1.39018089847e-07
1.40310911209e-07
1.21922001858e-07
1.08585507949e-07
9.03242196268e-08
7.86541447204e-08
6.2839203505e-08
5.36221159948e-08
3.78358288946e-08
2.94732640985e-08
1.43920901204e-08
7.03255637652e-09
7.83886754182e-09
1.43453743683e-08
2.76509798567e-08
3.51692690934e-08
4.83287649233e-08
5.29873069699e-08
6.56738478269e-08
6.89929468363e-08
7.88166735431e-08
7.96458821625e-08
7.86170250712e-08
7.34981672698e-08
5.30367313368e-08
3.24296846359e-08
1.12192240889e-08
2.62224081664e-08
2.98417042703e-09
4.29978030806e-08
2.18886935218e-09
1.08229300028e-08
1.72328383193e-08
8.9453940624e-09
3.47800156606e-08
4.62569439265e-08
1.82383047995e-07
1.64052347631e-07
1.65170964737e-07
1.56106764149e-07
1.57257304726e-07
1.41119909974e-07
1.23382837732e-07
1.10681017369e-07
9.20738857999e-08
8.02651574608e-08
6.38571092935e-08
5.50275847981e-08
3.92669685341e-08
3.15955540492e-08
1.59708928974e-08
9.66109407272e-09
5.89179759364e-09
1.09951658978e-08
2.66104675749e-08
3.0695991009e-08
4.60581830726e-08
4.90737460628e-08
6.33236126671e-08
6.52064151992e-08
7.66501603951e-08
7.64485630925e-08
7.74867995949e-08
7.31889328715e-08
5.43693895169e-08
3.9830514144e-08
1.74782635013e-08
1.59543081082e-08
5.2605289249e-10
4.12572049656e-09
2.52093080786e-08
1.92063687478e-08
1.47460186101e-08
7.46265620322e-09
5.44816990828e-08
1.02448461374e-07
1.66198925996e-07
1.68003236497e-07
1.51341740247e-07
1.41019800958e-07
1.18287528358e-07
1.07977218614e-07
8.80512866363e-08
7.84038874906e-08
6.14085059264e-08
5.20780265957e-08
3.76058340254e-08
2.77243366433e-08
1.55423397459e-08
5.27528925833e-09
5.17703818366e-09
1.61074193027e-08
2.49464204954e-08
3.64374196459e-08
4.35905806237e-08
5.4915363729e-08
6.03466312716e-08
6.91141824268e-08
7.16960509682e-08
7.38846259629e-08
7.2167682093e-08
5.399405438e-08
3.78777660764e-08
3.47785504048e-08
7.23337580209e-08
8.75760634282e-08
3.32884745706e-08
3.56209004559e-09
1.48226462918e-08
3.7610817574e-09
1.52726127743e-08
7.89842322932e-08
1.22036222633e-07
1.7768635413e-07
1.69056237549e-07
1.56694582914e-07
1.48179356556e-07
1.17726051688e-07
1.09265594626e-07
8.44477767873e-08
7.40797709817e-08
5.4583014507e-08
4.12544564231e-08
2.67893369344e-08
1.07551671367e-08
1.37631180022e-09
1.69308060963e-08
2.2608231384e-08
4.19174471782e-08
4.50448084402e-08
5.66566790841e-08
6.70578720366e-08
6.99018612378e-08
7.45346698937e-08
6.9892202931e-08
4.96982074388e-08
2.91928676036e-08
6.39188693383e-08
1.1285937129e-07
1.37341532575e-07
6.6799179113e-08
1.11714504618e-08
5.88737631918e-09
1.7043393204e-09
1.8068499454e-08
8.45463543449e-08
1.35600960709e-07
1.93690377757e-07
1.7867718235e-07
1.60535358794e-07
1.42848680432e-07
1.1433186493e-07
9.60998856764e-08
7.29764058762e-08
5.351135872e-08
3.5855090759e-08
1.41372262579e-08
1.92025776089e-09
2.06461290453e-08
2.86624404116e-08
4.89295923597e-08
5.44942434078e-08
6.5310124607e-08
6.70870572849e-08
6.68391292931e-08
4.08531381151e-08
1.95845028687e-08
8.48423057563e-08
1.51123131512e-07
1.77346370532e-07
1.00312933092e-07
2.22836527101e-08
3.29199374073e-10
3.14236761894e-10
2.01937776817e-08
9.11677217731e-08
1.3845986241e-07
1.92590423885e-07
1.85863104618e-07
1.46161501826e-07
1.19283847982e-07
8.99424252671e-08
6.16222501467e-08
4.05892275895e-08
9.34911083493e-09
2.01304540438e-09
3.1067998298e-08
3.74809648817e-08
5.21721432557e-08
5.12250436585e-08
5.06387417989e-08
3.19082605332e-09
1.03550225803e-08
6.92352783558e-08
1.11978862622e-07
1.26229710168e-07
3.86757637104e-08
5.65380076653e-09
4.40099372872e-09
1.49429105037e-08
7.38384558101e-08
1.21432998997e-07
1.71439263279e-07
1.71279024729e-07
1.02059988688e-07
5.44966436715e-08
3.19461400025e-08
9.1380925674e-09
1.54431459792e-08
3.2126410548e-08
1.16690235508e-10
4.074897383e-09
6.06292697081e-08
5.25306563173e-08
9.27682902452e-08
4.8113847193e-08
9.95615552889e-09
6.66829728571e-09
5.87692076241e-09
5.88051237478e-08
8.1309659937e-08
8.34696426779e-08
1.2689356046e-07
1.35042686464e-08
3.17162759548e-09
3.9854950105e-08
2.90981429038e-08
6.09866764006e-09
3.68803684816e-08
7.82359673742e-08
1.45272935028e-08
5.08667171819e-06
4.40665749024e-06
8.9460995229e-06
1.03154616077e-05
2.52064893153e-08
1.55785036018e-08
7.50996987736e-09
1.63132340757e-08
1.57405705635e-08
1.6889689533e-08
1.96172535655e-09
2.6187104644e-08
3.53375292318e-08
4.88663769677e-08
5.67439069949e-08
8.05276846399e-08
6.95510149591e-08
1.05236850953e-07
5.42350777363e-08
4.56651883197e-08
1.60721553682e-07
6.46465042128e-08
1.91694761131e-07
5.22393117056e-08
1.87167203891e-07
1.94901317106e-08
6.510567147e-09
6.86776121854e-08
2.56663757931e-08
2.66393882121e-06
2.15637003509e-06
9.55903175879e-08
1.80533696342e-07
1.76256030803e-07
1.34137336719e-07
4.97251848617e-08
2.78098036514e-08
6.580603543e-08
6.61948317372e-08
7.88272897106e-08
4.60000480856e-08
7.93251204416e-08
5.04326155168e-09
5.44055243272e-08
3.46460150846e-08
7.87485858296e-08
1.06536439895e-07
6.86363195161e-08
1.10336883456e-07
6.35341469007e-08
5.55035866203e-08
1.08858813563e-07
4.45770047619e-08
9.93433922181e-08
3.01350653929e-08
8.84620820333e-08
9.7981300013e-09
6.19501078458e-08
2.65794676144e-06
1.14196990252e-06
9.07146257559e-07
3.42704105452e-06
1.80599773963e-06
1.86391513251e-06
2.59264876952e-06
8.5100246364e-07
1.12504303823e-06
4.00822334832e-07
4.12483901019e-07
1.29795674003e-07
7.62948160181e-08
3.94286995274e-09
2.24695608583e-07
4.32355498116e-07
9.05667397653e-07
7.8518281285e-07
2.69150617506e-07
6.34940468009e-07
7.74794214011e-07
1.91777210307e-07
8.58221612184e-07
2.48379979959e-07
3.49375852647e-07
1.77121227504e-08
1.18617094012e-07
1.01704237739e-07
5.96189398076e-08
5.53634613213e-08
7.03226297695e-08
7.38657033091e-08
4.66490370827e-09
8.8832220639e-08
2.30708375632e-07
4.24785752371e-07
6.61492819203e-07
7.92498066113e-07
1.23353907792e-06
1.39064525024e-06
1.64442130471e-06
1.39935720627e-06
1.19154656004e-06
9.9779618939e-07
7.03545091932e-07
6.00152626452e-07
3.18012748464e-07
2.74492442485e-07
7.35621903727e-08
6.63117337924e-08
3.31277604964e-07
2.81786903839e-07
2.40840834649e-07
1.57944238671e-07
7.25895442782e-08
6.04609972343e-08
1.60032651165e-07
3.44050964492e-07
4.1213311427e-07
6.17722707071e-07
5.88115775964e-07
9.29643814933e-07
9.87248159723e-07
1.2578692966e-06
1.02765013615e-06
9.89229767061e-07
7.83147938791e-07
6.85041540348e-07
5.28115069241e-07
3.96414986192e-07
3.05638464079e-07
1.81453205207e-07
1.62417076287e-07
2.94955559533e-07
2.29077827435e-07
2.15586781648e-07
1.19940216091e-07
6.765999767e-08
3.49872129014e-08
1.16983524331e-07
1.96853908799e-07
2.97087778879e-07
3.13929036748e-07
3.98319161543e-07
4.51250211635e-07
6.95119279515e-07
7.38457909513e-07
8.03254677598e-07
6.46310020492e-07
6.45072969197e-07
5.10157156975e-07
4.68549993934e-07
3.69426299423e-07
3.14126604116e-07
2.74210892134e-07
2.25370382975e-07
1.03426902976e-07
1.46499591539e-07
9.00187707135e-08
7.45986441185e-08
1.93526403835e-08
3.49592199409e-08
6.82623566228e-08
1.39598927005e-07
1.25106144283e-07
1.86205089567e-07
2.05165116305e-07
3.73377256476e-07
4.20965611643e-07
5.19923291658e-07
4.45581726643e-07
4.83856072182e-07
3.92409207868e-07
4.03962497281e-07
3.31727959724e-07
3.27937344994e-07
3.04196695307e-07
2.99028466634e-07
7.79825521693e-10
1.92832320622e-08
2.25694983382e-08
1.1670761054e-08
7.15363840704e-09
1.60555333745e-08
1.85968616598e-08
3.7170930022e-08
7.60726753057e-08
1.13389278567e-07
1.68164215984e-07
2.76032260745e-07
2.7215315954e-07
3.18818042374e-07
2.7865470517e-07
2.91161034456e-07
2.66834681323e-07
2.80291126179e-07
2.77189682014e-07
2.96024514813e-07
8.07515766914e-08
3.6981455291e-08
1.65437644113e-09
1.39613075467e-08
1.13753413207e-08
3.91689360192e-08
4.58550171709e-08
1.08408361185e-07
1.44388818545e-07
1.96015875183e-07
1.92052537663e-07
2.08122381143e-07
1.52029455685e-07
1.76534265403e-07
1.6521980771e-07
2.41304587223e-07
7.51132518079e-08
5.0227198665e-08
7.04548344593e-07
6.74452913335e-07
5.95197863765e-06
2.87449344856e-06
5.22274578316e-06
6.54195952157e-07
6.26983485506e-07
4.94505848608e-07
1.43262642141e-06
1.14543995381e-05
3.03350316393e-05
9.07306493942e-07
2.6840251695e-07
2.66495573261e-09
3.28599214404e-07
1.80080822419e-09
3.74019942886e-07
4.8288614363e-07
1.02920061289e-07
5.25971647351e-07
1.66302585629e-07
4.60282382645e-07
1.83042790008e-07
1.49705738362e-07
3.79776916159e-08
7.78102109119e-07
6.23422857744e-07
2.47785275982e-06
1.26428065691e-06
5.10026805403e-07
6.67979372791e-07
2.85321651023e-06
2.31911606215e-06
2.26781715426e-07
5.91167176064e-07
5.93951188375e-08
5.69744723885e-07
7.10800963935e-08
3.6867058725e-07
2.41254647706e-07
1.04692740073e-07
1.03868301671e-07
2.15461131664e-07
1.1496780532e-07
2.19679262508e-07
1.62117190856e-07
1.30367591988e-07
1.33983298465e-07
1.53264825119e-07
7.56822646383e-08
3.1046228172e-08
1.42046362113e-07
1.38712304446e-05
2.98952140031e-06
1.52461261534e-06
1.55483416017e-05
1.01564488389e-05
4.08088025754e-06
1.6314340775e-06
3.76806202573e-06
8.41951604478e-07
1.31508612293e-06
4.76803938053e-06
2.87781101213e-06
2.94310620308e-06
3.73057676441e-06
1.29054123911e-06
1.35915240087e-06
1.82081875669e-06
1.47695392154e-06
2.4026695105e-06
2.48839121292e-06
2.04804361191e-07
3.07770832011e-07
9.57342878657e-08
2.78139129167e-07
6.42882129489e-06
5.1935614374e-06
2.25368558254e-06
2.0234318458e-06
4.0906934911e-06
1.97165144946e-06
2.96407592981e-07
3.27115631031e-07
2.59479617561e-06
3.45680869853e-06
2.88034171823e-06
3.39892472042e-06
2.14437401946e-06
3.17653832514e-06
3.33167828268e-06
3.08605303631e-06
2.31432684904e-06
2.01970142463e-06
3.4788307416e-06
2.17892370447e-06
6.26545412751e-07
2.14532053757e-06
1.46884448636e-06
8.27378370476e-07
4.31102151207e-07
4.46955591505e-07
7.71086549898e-08
1.93495335686e-06
1.08107814244e-06
4.62930028129e-06
5.28879217802e-08
1.52217952287e-06
6.85086880321e-09
3.05650782032e-08
5.59427994476e-08
5.65535139552e-09
1.83752685756e-07
4.56918311723e-07
2.01461041697e-07
3.68209268532e-07
5.08488454702e-07
2.17814432952e-07
1.69162302433e-09
1.11871896115e-09
1.60080079059e-08
2.85778620227e-09
3.91408629997e-10
6.60260012716e-09
1.96537172778e-08
4.5079310887e-06
2.33700947015e-06
4.20835304238e-09
2.95853542368e-10
2.89671658861e-10
8.46993799107e-10
3.18591414118e-07
1.668794853e-09
1.04921368388e-09
4.17182305169e-12
3.19100752485e-07
2.60173609431e-09
4.14737748513e-10
2.19495328327e-11
3.28558069617e-07
1.61986982346e-06
2.23707403044e-10
2.68848773981e-09
3.26392034994e-07
8.17730156134e-07
1.21363306244e-10
1.62105451621e-06
3.22762260286e-07
1.30407420995e-09
3.99532279493e-10
8.52486762371e-07
3.25540772609e-07
4.11906936865e-06
2.03816025376e-06
4.07808391522e-08
1.80475210372e-06
3.70508281555e-07
2.88228487038e-07
8.51583589703e-06
2.44382196323e-06
1.42480049898e-07
8.08657931548e-12
1.80946760105e-07
1.57902006229e-06
2.49579614789e-07
7.63538582127e-09
2.3909812823e-06
4.40450151487e-10
4.92769540221e-07
1.16573120861e-07
2.49856805121e-08
3.69865253557e-06
1.6540921646e-06
3.61437007412e-06
3.76884775536e-08
1.31928724432e-08
1.66849040886e-06
1.52681499117e-08
1.96267141372e-08
3.34653594982e-08
1.73754710494e-06
1.95547137634e-08
2.38728714213e-06
4.78312503253e-10
2.12503382021e-09
3.3154268835e-09
1.36500075981e-06
3.5859381253e-07
4.7091435552e-08
8.93445360282e-07
8.4645917611e-07
9.91508064639e-09

