# vtk DataFile Version 3.0
File Name: Molecule/methanol/methanol_5.0-1.vtk
ASCII
DATASET UNSTRUCTURED_GRID
FIELD FieldData 1
TIME 1 1 double
0.0
POINTS 245 double
1.620385766 0.002307128394 -0.33286088705
1.4983099699 -0.50003755093 -0.43726575375
1.395011425 -0.00025228955201 -0.94898599386
1.327044487 -0.46882504225 -0.93097782135
1.1744452715 -0.87637323141 -0.72525435686
1.3139927387 -0.93883311749 -0.35176685452
1.0798707008 -1.206979394 -0.35639661551
0.93788594007 -1.1246675253 -0.84433507919
0.6679571867 -1.501465559 -0.30417060852
0.55019873381 -1.3701449633 -0.8636520505
0.11006577313 -1.520706892 -0.79410284758
0.19735024869 -1.6727923155 -0.1784004122
-0.32072663307 -1.6609789133 -0.18377451599
-0.34863710403 -1.5282797813 -0.72610759735
-0.80686312914 -1.5021733046 -0.15430746973
-0.80647355318 -1.3821649551 -0.68044102192
-1.2062023878 -1.2292780876 -0.094378873706
-1.1717442274 -1.1206748486 -0.66664260626
-1.3957264423 -0.8751822114 -0.59715169668
-1.4427263737 -0.95739287138 -0.061551589519
-1.6544144154 -0.49971571565 -0.09551179409
-1.5741075277 -0.45927897096 -0.65982997417
-1.6578167677 -0.0010107468115 -0.60557496548
-1.7379082441 -0.0014588874765 -0.046706680208
-1.6547935009 0.49784147739 -0.09361307323
-1.5740331411 0.45662933588 -0.66234821081
-1.3976699114 0.87271684408 -0.60005569458
-1.4436351061 0.95092141628 -0.073106341064
-1.2059898376 1.2137153149 -0.14953482151
-1.1642415524 1.1090188026 -0.71078664064
-0.7982673049 1.3864241838 -0.68829798698
-0.80739885569 1.5059703588 -0.13425184786
-0.32426077127 1.6529772282 -0.21327781677
-0.3552839756 1.510643959 -0.77749526501
0.11285533011 1.5304983854 -0.76252001524
0.17848424613 1.6644952297 -0.22180572152
0.66699934006 1.5106391907 -0.27877694368
0.56023383141 1.3853337765 -0.81583046913
1.073607564 1.2313599586 -0.31652978063
0.93648034334 1.1258049011 -0.84576588869
1.3196607828 0.94512730837 -0.3339908421
1.1510915756 0.87173962593 -0.86754590273
1.4517362118 0.48314365745 -0.50854170322
1.321143508 0.46400585771 -0.94657802582
1.9070004225 -1.9656272343e-07 0.65591847897
1.8443562984 0.48178374767 0.65593975782
1.8443450928 0.24113002419 1.0719166994
1.8443324566 -0.24048426747 1.0723377466
1.844363451 -0.48178580403 0.65595209599
1.8441697359 -0.24079054594 0.23686553538
1.8441928625 0.24096596241 0.23648516834
1.6701686382 0.79054123163 1.1145328283
1.6618893147 0.46295213699 1.4608482122
1.6706815958 -0.0052205566317 1.5690549612
1.6632157564 -0.45945310593 1.4612398148
1.6687150002 -0.79348266125 1.1155788898
1.6629378796 -0.92789787054 0.65604358912
1.6716686487 -0.79357111454 0.21074420214
1.6628855467 -0.47642549872 -0.13698776066
1.664244771 0.46570473909 -0.14531557262
1.6688982248 0.79225099087 0.19390623271
1.661980629 0.9291729331 0.65572941303
1.3962188959 1.2003079653 1.1268318892
1.3968957663 0.94924670458 1.5265886784
1.3873289824 0.59112626314 1.8142956495
1.3941518068 0.12189476937 1.9422627687
1.3981364965 -0.36135071516 1.8920377493
1.3922605515 -0.78744411469 1.6827983856
1.3870168924 -1.1047303677 1.3409292698
1.3974062204 -1.2643198967 0.9031894207
1.3957229853 -1.269423604 0.42099544406
1.3937852383 -1.1001008749 -0.018100541085
1.3925002813 1.2015658617 0.1729593724
1.3883714676 1.2995785475 0.65515881777
1.130623579 1.448264122 1.1320724487
1.1312021017 1.2333842516 1.5518857241
1.1348488331 0.98645371199 1.8128272295
1.1282711029 0.58484017849 2.0652143955
1.1220698357 0.12974482775 2.1797919273
1.1312117577 -0.34604907036 2.1397955418
1.1318200827 -0.800991714 1.9515608549
1.1309511662 -1.1628493071 1.6397264004
1.1289987564 -1.3634617329 1.3377962112
1.1277866364 -1.5089949369 0.88587737083
1.1217942238 -1.5107133389 0.41179639101
1.1303417683 -1.3626525402 -0.020022669807
1.1288307905 1.4479666948 0.17319823802
1.1228244305 1.5280691385 0.65535050631
0.7231451869 1.6843782663 1.1361904144
0.72410464287 1.4875198603 1.5793397427
0.71972477436 1.190967083 1.9408075809
0.72708112001 0.9038386941 2.1527371407
0.72165799141 0.47627842426 2.3412895203
0.72417896986 -0.0080869663507 2.4065618515
0.71953386068 -0.48535740376 2.339546442
0.7082041502 -0.91059136391 2.1572716236
0.72432672977 -1.1911457777 1.9389635324
0.72160160542 -1.4911068678 1.575627923
0.72290235758 -1.6849522591 1.135155797
0.72271555662 -1.7510918379 0.65562146902
0.71847969294 -1.6849859953 0.1666598618
0.72201764584 1.6853307486 0.17745181918
0.70985120535 1.7549587488 0.65629011393
0.2694607079 1.8101449013 1.1249152422
0.26148319244 1.6322983503 1.568998456
0.26208597422 1.3446675539 1.9562538862
0.26329955459 0.96235775948 2.2597327232
0.25271216035 0.52511811256 2.4524855614
0.26170256734 0.062984630466 2.5235037804
0.26206567883 -0.28919559717 2.5053792
0.26418679953 -0.73800104856 2.3755738735
0.2636757493 -1.1490526199 2.1326401234
0.26408284903 -1.4875299931 1.78949821
0.2646972537 -1.7290911674 1.371278286
0.26506671309 -1.8546389341 0.90499860048
0.26492875814 -1.856213212 0.41578653455
0.26643255353 1.8108296394 0.19411507249
0.24595098197 1.8724447489 0.65691947937
-0.2168469727 1.8110423088 1.1306931973
-0.22265566885 1.6273720264 1.580307126
-0.22382251918 1.3362238407 1.9660511017
-0.22170694172 0.95654815435 2.2640836239
-0.22126863897 0.51600682735 2.4549264908
-0.21744780242 0.057473599911 2.5264484882
-0.23693090677 -0.29354596138 2.5018820763
-0.22058701515 -0.74516373873 2.3734917641
-0.22410564125 -1.1625484228 2.1227757931
-0.22526206076 -1.4967703819 1.7783027887
-0.22578570247 -1.7349660397 1.3581461906
-0.22611761093 -1.8567800522 0.89052516222
-0.23310160637 -1.8519178629 0.38059782982
-0.21712116897 1.8115779161 0.1869944036
-0.22236411273 1.87185359 0.65645241737
-0.6744068861 1.753857255 0.65567564964
-0.68587106466 1.6841287613 1.1362452507
-0.68786418438 1.486379385 1.5796548128
-0.68070060015 1.1912164688 1.9419580698
-0.70176059008 0.9037244916 2.1460697651
-0.68513911963 0.47674041986 2.3404927254
-0.68766176701 -0.0087606897578 2.405755043
-0.6834102273 -0.4849384129 2.3386306763
-0.67082750797 -0.91092026234 2.1568701267
-0.68921852112 -1.1905729771 1.9369846582
-0.6845780611 -1.4908280373 1.5750528574
-0.68621122837 -1.6843975782 1.1351362467
-0.68681031466 -1.7502598763 0.65471756458
-0.67619502544 -1.6905111074 0.19232861698
-0.68539834023 1.6858541965 0.1849206388
-1.082971096 1.5294026136 0.6553350091
-1.090846777 1.4497990608 1.1311298609
-1.0916327238 1.2350459099 1.5517977476
-1.0942370892 0.98554903269 1.8166332245
-1.0897932053 0.5845708251 2.0655658245
-1.0835069418 0.1279168874 2.1796591282
-1.0905928612 -0.34567078948 2.141772747
-1.0909984112 -0.80180299282 1.9533489943
-1.0924236774 -1.1632628441 1.6399655342
-1.0903565884 -1.3635632992 1.3381325006
-1.0882908106 -1.5098792315 0.88566166162
-1.0900892019 -1.5066668987 0.40579068661
-1.0959385633 1.4484097958 0.19262801111
-1.3480898142 1.3018062115 0.65638291836
-1.3565558195 1.2022891045 1.1271220446
-1.3572705984 0.95107191801 1.527458787
-1.3480026722 0.59050470591 1.8161447048
-1.3535805941 0.12207763642 1.9451483488
-1.3586865664 -0.3610303998 1.8939201832
-1.3534845114 -0.78735071421 1.6840542555
-1.3471615314 -1.1064910889 1.3420193195
-1.3577309847 -1.2657679319 0.90404313803
-1.3588114977 -1.2674316168 0.41496002674
-1.3575481176 1.2049121857 0.20295408368
-1.6243747473 0.92859274149 0.65614289045
-1.6333241463 0.7886685133 1.1134032011
-1.6244972944 0.46223220229 1.460108161
-1.6335904598 -0.0055236569606 1.5673822165
-1.6262156963 -0.45909950137 1.4594050646
-1.6312234402 -0.79263645411 1.1151447296
-1.6260980368 -0.92603927851 0.65617406368
-1.6366312504 -0.78761911392 0.23180556297
-1.6359575987 0.78639513254 0.21908944845
-1.8062368631 0.4821793437 0.65650427341
-1.806117177 0.24120949209 1.0726765394
-1.806142211 -0.24076139927 1.0728611946
-1.8062776327 -0.48201531172 0.656891644
-1.8078674078 -0.24353027344 0.25324636698
-1.8079893589 0.24313542247 0.25318190455
-1.8679431677 1.0473261682e-05 0.65736442804
1.1120624542 -0.81666767597 -1.1407971382
0.78160041571 -1.1464080811 -1.2147160769
0.78723931313 -0.88127416372 -1.6074975729
1.1276721954 -0.49953991175 -1.4806574583
0.77659058571 -0.48699623346 -1.8843363523
1.1306126118 0.4367646277 -1.5150570869
0.77950841188 0.49466603994 -1.8787317276
0.78506225348 0.87608194351 -1.6145143509
1.1096551418 0.78200334311 -1.21162045
0.77455163002 1.146612525 -1.2224509716
0.35937845707 -1.2882583141 -1.4224047661
0.35410097241 -0.98462152481 -1.8151582479
0.35113850236 -0.58017069101 -2.077457428
0.76200670004 -0.17939722538 -1.9771535397
0.74505984783 0.019828280434 -1.997439146
0.34918284416 -0.11609759927 -2.1940553188
0.35509926081 0.35750949383 -2.1520762444
0.35787948966 0.79612386227 -1.9588557482
0.35758265853 1.1493006945 -1.6357446909
0.34873065352 1.38068223 -1.215211153
-0.12511509657 -1.4130837917 -1.3386158943
-0.11979091913 -1.1457009315 -1.758275032
-0.11980023235 -0.77232283354 -2.0643119812
-0.12020839751 -0.32280176878 -2.2381105423
-0.11999683827 0.15786576271 -2.2641363144
-0.11987069249 0.61240929365 -2.1434280872
-0.11971077323 0.91383647919 -1.9681652784
-0.11942532659 1.2482773066 -1.6290004253
-0.11969388276 1.467194438 -1.1946766376
-0.59538495541 -1.4259207249 -1.0112709999
-0.59450292587 -1.2786223888 -1.4398418665
-0.59240591526 -0.98401987553 -1.8156957626
-0.58448141813 -0.58302682638 -2.0780992508
-0.5930852294 -0.12281638384 -2.191952467
-0.5947214365 0.35643789172 -2.1520681381
-0.59678912163 0.79590064287 -1.9590933323
-0.59639942646 1.1496142149 -1.6354672909
-0.58899271488 1.3841718435 -1.2076696157
-1.0193287134 -1.1581149101 -1.1940976381
-1.0254102945 -0.88151663542 -1.6074359417
-1.0220265388 -0.47489181161 -1.8849465847
-1.016379714 0.0034262859263 -1.9828305244
-1.0217730999 0.47320517898 -1.8856999874
-1.0244272947 0.8744379282 -1.6158573627
-1.0194762945 1.1505957842 -1.2087272406
-1.3674197197 -0.81157028675 -1.118609786
-1.3583204746 -0.49930930138 -1.4939236641
-1.3632212877 -0.039478186518 -1.6373332739
-1.3588047028 0.43455380201 -1.5329480171
-1.3684936762 0.77901905775 -1.1806066036
-1.5807393789 -0.24197131395 -1.1441508532
-1.5803847313 0.23948250711 -1.1460945606
1.1418693066 -0.036343842745 -1.6101438999
1.0127737522 -0.17497850955 -1.7574269772
1.0164213181 0.16878576577 -1.7551926374
0.9055788517 0.0069533381611 -1.8792248964
0.78161555529 0.28776443005 -1.9447578192

CELLS 486 1944
3 0 1 2
3 2 1 3
3 3 1 4
3 5 4 1
3 5 6 4
3 4 6 7
3 6 8 7
3 7 8 9
3 9 8 10
3 11 10 8
3 11 12 10
3 10 12 13
3 12 14 13
3 13 14 15
3 14 16 15
3 15 16 17
3 17 16 18
3 19 18 16
3 19 20 18
3 18 20 21
3 21 20 22
3 23 22 20
3 23 24 22
3 22 24 25
3 25 24 26
3 27 26 24
3 27 28 26
3 26 28 29
3 29 28 30
3 31 30 28
3 31 32 30
3 30 32 33
3 33 32 34
3 35 34 32
3 35 36 34
3 34 36 37
3 36 38 37
3 37 38 39
3 38 40 39
3 39 40 41
3 40 42 41
3 41 42 43
3 0 2 42
3 43 42 2
3 44 45 46
3 44 46 47
3 44 47 48
3 44 48 49
3 44 49 50
3 44 50 45
3 46 45 51
3 46 51 52
3 46 52 53
3 47 46 53
3 47 53 54
3 47 54 55
3 48 47 55
3 48 55 56
3 48 56 57
3 49 48 57
3 49 57 58
3 50 59 60
3 45 50 60
3 45 60 61
3 45 61 51
3 51 61 62
3 51 62 63
3 52 51 63
3 52 63 64
3 52 64 65
3 53 52 65
3 53 65 66
3 54 53 66
3 54 66 67
3 55 54 67
3 55 67 68
3 55 68 69
3 56 55 69
3 56 69 70
3 57 56 70
3 57 70 71
3 61 60 72
3 61 72 73
3 61 73 62
3 62 73 74
3 62 74 75
3 63 62 75
3 63 75 76
3 64 63 76
3 64 76 77
3 65 64 77
3 65 77 78
3 65 78 79
3 66 65 79
3 66 79 80
3 67 66 80
3 67 80 81
3 68 67 81
3 68 81 82
3 69 68 82
3 69 82 83
3 69 83 70
3 84 70 83
3 70 84 85
3 71 70 85
3 73 72 86
3 73 86 87
3 73 87 74
3 74 87 88
3 74 88 89
3 75 74 89
3 75 89 90
3 76 75 90
3 76 90 91
3 77 76 91
3 77 91 92
3 78 77 92
3 78 92 93
3 79 78 93
3 79 93 94
3 80 79 94
3 80 94 95
3 80 95 96
3 81 80 96
3 81 96 97
3 82 81 97
3 82 97 98
3 83 82 98
3 83 98 99
3 84 83 99
3 84 99 100
3 85 84 100
3 87 86 101
3 87 101 102
3 87 102 88
3 88 102 103
3 88 103 104
3 89 88 104
3 89 104 105
3 90 89 105
3 90 105 106
3 91 90 106
3 91 106 92
3 107 92 106
3 92 107 108
3 93 92 108
3 93 108 109
3 94 93 109
3 94 109 110
3 95 94 110
3 95 110 111
3 96 95 111
3 96 111 112
3 97 96 112
3 97 112 113
3 98 97 113
3 98 113 114
3 99 98 114
3 99 114 115
3 100 99 115
3 102 101 116
3 102 116 117
3 102 117 103
3 103 117 118
3 103 118 104
3 119 104 118
3 104 119 105
3 120 105 119
3 105 120 106
3 121 106 120
3 106 121 107
3 122 107 121
3 107 122 108
3 123 108 122
3 108 123 109
3 124 109 123
3 110 109 125
3 124 125 109
3 110 125 111
3 126 111 125
3 111 126 112
3 127 112 126
3 112 127 113
3 128 113 127
3 113 128 114
3 129 114 128
3 130 115 129
3 114 129 115
3 117 116 131
3 117 131 132
3 117 132 118
3 118 132 133
3 118 133 134
3 119 118 134
3 119 134 135
3 120 119 135
3 120 135 136
3 121 120 136
3 121 136 137
3 122 121 138
3 137 138 121
3 123 122 138
3 123 138 139
3 124 123 139
3 124 139 140
3 125 124 140
3 125 140 141
3 126 125 141
3 126 141 142
3 127 126 142
3 127 142 143
3 128 127 143
3 128 143 144
3 129 128 144
3 129 144 145
3 130 129 145
3 130 145 146
3 133 131 147
3 132 131 133
3 134 133 148
3 134 148 149
3 135 134 149
3 135 149 150
3 136 135 150
3 136 150 151
3 137 136 151
3 137 151 152
3 138 137 152
3 138 152 153
3 139 138 153
3 139 153 154
3 140 139 154
3 140 154 155
3 141 140 155
3 142 141 155
3 142 155 156
3 143 142 156
3 143 156 157
3 144 143 157
3 144 157 158
3 145 144 158
3 145 158 159
3 146 145 159
3 148 147 160
3 133 147 148
3 149 148 161
3 149 161 162
3 150 149 162
3 150 162 163
3 151 150 163
3 151 163 164
3 152 151 164
3 152 164 165
3 153 152 165
3 154 153 165
3 154 165 166
3 155 154 166
3 155 166 167
3 156 155 167
3 156 167 168
3 157 156 168
3 157 168 169
3 158 157 169
3 159 158 170
3 169 170 158
3 161 160 171
3 148 160 161
3 162 161 172
3 162 172 173
3 163 162 173
3 163 173 174
3 164 163 174
3 165 164 174
3 165 174 175
3 166 165 175
3 166 175 176
3 167 166 176
3 167 176 177
3 168 167 177
3 169 168 177
3 169 177 178
3 170 169 178
3 170 178 179
3 172 171 180
3 161 171 172
3 173 172 181
3 173 181 182
3 174 173 182
3 175 174 182
3 175 182 183
3 176 175 183
3 177 176 183
3 177 183 184
3 178 177 184
3 179 178 184
3 179 184 185
3 181 180 186
3 172 180 181
3 182 181 187
3 183 182 187
3 184 183 187
3 185 184 187
3 186 185 187
3 181 186 187
3 186 180 24
3 186 24 23
3 186 23 185
3 185 23 20
3 185 20 179
3 179 20 19
3 179 19 170
3 170 19 16
3 170 16 159
3 159 16 14
3 159 14 146
3 146 14 12
3 146 12 130
3 130 12 11
3 130 11 115
3 115 11 100
3 100 11 8
3 100 8 85
3 85 8 6
3 85 6 71
3 71 6 5
3 71 5 58
3 71 58 57
3 58 5 1
3 58 1 0
3 58 0 49
3 49 0 50
3 50 0 59
3 59 0 42
3 59 42 40
3 59 40 60
3 60 40 72
3 72 40 38
3 72 38 86
3 86 38 36
3 86 36 101
3 116 101 35
3 36 35 101
3 116 35 131
3 131 35 32
3 131 32 147
3 147 32 31
3 147 31 160
3 160 31 28
3 160 28 171
3 171 28 27
3 171 27 180
3 180 27 24
3 188 189 190
3 191 188 190
3 191 190 192
3 193 194 195
3 196 193 195
3 196 195 197
3 190 189 198
3 190 198 199
3 192 190 199
3 192 199 200
3 192 200 201
3 202 203 204
3 194 204 205
3 195 194 205
3 195 205 206
3 197 195 206
3 197 206 207
3 198 208 209
3 199 198 209
3 199 209 210
3 200 199 210
3 200 210 211
3 203 200 211
3 203 211 212
3 204 203 212
3 204 212 213
3 205 204 213
3 205 213 214
3 206 205 214
3 206 214 215
3 207 206 215
3 207 215 216
3 208 217 218
3 209 208 218
3 209 218 219
3 210 209 219
3 210 219 220
3 211 210 220
3 211 220 221
3 212 211 221
3 212 221 222
3 213 212 222
3 213 222 223
3 214 213 223
3 214 223 224
3 215 214 224
3 215 224 225
3 216 215 225
3 218 217 226
3 218 226 227
3 219 218 227
3 219 227 228
3 220 219 228
3 221 220 228
3 221 228 229
3 222 221 229
3 222 229 230
3 223 222 230
3 223 230 231
3 224 223 231
3 224 231 232
3 225 224 232
3 227 226 233
3 227 233 234
3 228 227 234
3 228 234 235
3 229 228 235
3 230 229 235
3 230 235 236
3 231 230 236
3 231 236 237
3 232 231 237
3 234 233 238
3 235 234 238
3 235 238 239
3 236 235 239
3 237 236 239
3 237 239 25
3 237 25 26
3 237 26 29
3 237 29 232
3 232 29 30
3 232 30 225
3 225 30 33
3 225 33 216
3 216 33 34
3 216 34 207
3 207 34 37
3 207 37 197
3 197 37 39
3 197 39 196
3 41 196 39
3 196 41 43
3 196 43 193
3 193 43 2
3 193 2 240
3 240 2 191
3 191 2 3
3 191 3 188
3 188 3 4
3 188 4 7
3 188 7 189
3 189 7 9
3 189 9 198
3 198 9 10
3 198 10 208
3 208 10 13
3 208 13 217
3 217 13 15
3 217 15 226
3 226 15 17
3 226 17 233
3 233 17 18
3 233 18 21
3 233 21 238
3 238 21 22
3 238 22 239
3 239 22 25
3 192 241 191
3 191 241 240
3 240 241 242
3 241 201 243
3 241 192 201
3 243 201 202
3 243 242 241
3 243 244 242
3 243 202 244
3 242 244 194
3 240 242 193
3 193 242 194
3 202 201 203
3 203 201 200
3 194 244 204
3 244 202 204

CELL_TYPES 486
5
5
5
5
5
5
5
5
5
5
5
5
5
5
5
5
5
5
5
5
5
5
5
5
5
5
5
5
5
5
5
5
5
5
5
5
5
5
5
5
5
5
5
5
5
5
5
5
5
5
5
5
5
5
5
5
5
5
5
5
5
5
5
5
5
5
5
5
5
5
5
5
5
5
5
5
5
5
5
5
5
5
5
5
5
5
5
5
5
5
5
5
5
5
5
5
5
5
5
5
5
5
5
5
5
5
5
5
5
5
5
5
5
5
5
5
5
5
5
5
5
5
5
5
5
5
5
5
5
5
5
5
5
5
5
5
5
5
5
5
5
5
5
5
5
5
5
5
5
5
5
5
5
5
5
5
5
5
5
5
5
5
5
5
5
5
5
5
5
5
5
5
5
5
5
5
5
5
5
5
5
5
5
5
5
5
5
5
5
5
5
5
5
5
5
5
5
5
5
5
5
5
5
5
5
5
5
5
5
5
5
5
5
5
5
5
5
5
5
5
5
5
5
5
5
5
5
5
5
5
5
5
5
5
5
5
5
5
5
5
5
5
5
5
5
5
5
5
5
5
5
5
5
5
5
5
5
5
5
5
5
5
5
5
5
5
5
5
5
5
5
5
5
5
5
5
5
5
5
5
5
5
5
5
5
5
5
5
5
5
5
5
5
5
5
5
5
5
5
5
5
5
5
5
5
5
5
5
5
5
5
5
5
5
5
5
5
5
5
5
5
5
5
5
5
5
5
5
5
5
5
5
5
5
5
5
5
5
5
5
5
5
5
5
5
5
5
5
5
5
5
5
5
5
5
5
5
5
5
5
5
5
5
5
5
5
5
5
5
5
5
5
5
5
5
5
5
5
5
5
5
5
5
5
5
5
5
5
5
5
5
5
5
5
5
5
5
5
5
5
5
5
5
5
5
5
5
5
5
5
5
5
5
5
5
5
5
5
5
5
5
5
5
5
5
5
5
5
5
5
5
5
5
5
5
5
5
5
5
5
5
5
5
5
5
5
5
5
5
5
5
5
5
5
5
5
5
5
5
5
5
5
5
5
5
5
5
5
5
5
5
5
5
5
5
5
5
5
5
5
5
5
5
5
5
5

CELL_DATA 486
SCALARS cell_data_0 double
LOOKUP_TABLE default
1.29903850167e-06
1.05977429761e-06
7.19119312532e-07
3.26746882344e-08
1.65906451583e-08
6.40153947824e-08
3.2830089174e-09
2.52898860112e-08
1.01508083032e-07
1.05428283571e-07
2.85514045816e-08
6.912928109e-08
1.17372499778e-08
7.8328852654e-08
1.97416424439e-08
7.78918679452e-08
4.01598029775e-08
3.99876338385e-08
2.35508430391e-08
7.36903526609e-08
4.60189608468e-08
4.40157776666e-08
4.56699088302e-08
7.52605867095e-08
7.23032825502e-09
2.62897613258e-08
2.21297785122e-08
4.75380497945e-08
1.64373914837e-08
6.81695684435e-09
7.7899189283e-08
2.82699722692e-08
2.71192195312e-08
2.20342420257e-08
9.8793794168e-08
4.30756446243e-08
6.89767738723e-08
7.31247186005e-08
5.82828187056e-09
2.97717172448e-08
1.42294912991e-08
3.80942388287e-07
8.21460944112e-07
1.60965653178e-06
1.47895382039e-09
1.59456950455e-09
1.87799382636e-09
1.06631416735e-09
9.54266158501e-09
2.01567307481e-09
8.33115012679e-10
6.00639946448e-10
7.97928240251e-10
2.30088799622e-10
3.27756458686e-10
8.26859025347e-10
1.21995613523e-09
3.60915267525e-10
8.5912542979e-10
3.25528415416e-09
9.49531791176e-09
5.93909962075e-09
6.26406758201e-09
1.2943564871e-09
1.01922568632e-09
3.89433848144e-11
6.56118328257e-10
2.63900564648e-10
9.03784555389e-11
7.00034284006e-10
4.63519233543e-10
6.22156654512e-11
4.02953444556e-10
3.14076958474e-10
7.25373035807e-10
7.67813724709e-10
2.60329588766e-10
3.21099408921e-10
2.24599588393e-09
5.27738505907e-09
4.99640327315e-09
1.82171444891e-09
2.56298153657e-09
4.60314264592e-10
2.36716960803e-10
3.47080376146e-10
1.83776869738e-10
7.4842879868e-10
1.62359131582e-11
5.05261921648e-10
2.87828785511e-10
3.47628402875e-10
4.00522358783e-10
1.91187270187e-10
6.87247600904e-10
1.90466045205e-10
5.29686821446e-10
1.33493204863e-10
6.44618995794e-10
4.0968698411e-10
3.98554842692e-10
2.98224866529e-10
1.3599386957e-09
2.75944759785e-09
4.4588593845e-09
6.92347274214e-10
2.87220621055e-10
3.76839149871e-10
1.57718812218e-10
1.89804864733e-10
3.61779915052e-10
2.3901891689e-10
2.5136958761e-10
3.98546030417e-10
8.60439859555e-10
5.25167711223e-10
2.85564324945e-10
3.86531458425e-10
4.40885009578e-10
3.41582277471e-10
4.8757095321e-10
4.86750901475e-10
5.62782272138e-10
7.7688386392e-10
2.39327213547e-10
8.23573552633e-11
3.17029964699e-10
6.78004270787e-10
3.06406351958e-10
2.16030896353e-09
1.77816142546e-09
8.61001987744e-10
1.97212737473e-09
1.03973361872e-09
1.19764508862e-09
3.26882595423e-10
3.37297267733e-10
1.61847682919e-11
8.22607248262e-11
2.5597851481e-12
9.37861289346e-11
3.98221216925e-10
4.207515327e-10
1.3166657431e-10
1.86318361802e-10
5.98143657295e-10
8.7005234525e-10
1.20417622311e-10
5.18390809562e-10
1.51551031284e-10
9.33619673984e-11
4.9131819024e-10
7.73254928927e-11
5.00905637617e-11
1.67322661853e-10
2.39247072213e-10
3.36685995356e-10
8.82264338226e-10
1.19331195382e-09
1.41867173892e-09
3.42831411191e-09
3.55912855887e-10
1.58803556183e-09
1.14061869436e-10
1.15802014634e-09
1.03300936848e-09
5.78127501027e-10
5.88775807512e-10
3.71718743492e-10
4.66319568569e-10
1.05262594492e-10
1.48511152351e-10
3.25274779043e-10
3.66300364297e-10
4.42407510356e-12
4.38699596475e-10
2.33178374386e-10
6.42253340868e-10
2.43752429119e-10
1.87395180742e-10
2.07485070615e-10
1.951818448e-10
9.63556622839e-11
4.42881350633e-10
1.36143017563e-10
7.79262668525e-10
1.17319284225e-09
7.93017475017e-10
5.70079526474e-09
2.42507147565e-10
2.11539952059e-09
3.86221328328e-09
3.6238307944e-10
1.40866351114e-09
8.29253820479e-11
7.95363150531e-10
1.08504340514e-10
5.34040793761e-10
5.83673632584e-10
4.98641509246e-11
1.04853160824e-10
2.78708658756e-10
3.94815414191e-10
5.70386548261e-10
1.02105600008e-10
4.97331037963e-10
2.83900957996e-10
2.83358611498e-10
4.25749328303e-10
2.19204830102e-10
2.07298357196e-10
2.47802187432e-10
2.36897914069e-10
2.13059374155e-10
2.65705613965e-09
1.15465867185e-09
3.76699343298e-09
4.2696363514e-09
3.76385710301e-10
4.38105427257e-09
5.9880850202e-10
1.51997447758e-09
9.66578111493e-11
4.85262019636e-10
2.01776968805e-10
2.95103851972e-10
2.67167741218e-10
5.35722468353e-10
1.72366816456e-10
2.08848833688e-10
3.5634689774e-11
1.15101224512e-10
2.05994331684e-10
6.25372615647e-10
1.74941909028e-10
2.8271734583e-10
4.35842422163e-10
9.46363083291e-11
1.15962726169e-10
1.29648578906e-09
1.59982512196e-10
2.72834365803e-09
1.49484689655e-09
6.65593282239e-09
3.48954305546e-10
3.1461434427e-09
8.78517569418e-10
1.09650156926e-09
1.85918106227e-10
3.11971335498e-10
6.74249122e-11
4.16159856532e-10
2.14342254457e-10
2.01581448089e-10
8.75883775551e-12
2.77937714959e-10
7.57018830629e-11
2.06908835761e-10
3.38377228071e-11
1.94762310554e-10
1.61560310487e-10
3.94124100269e-10
1.14348189876e-09
3.79677996374e-09
2.37938767693e-09
6.83021681398e-09
1.05187273208e-09
4.98128755806e-09
1.11980115753e-09
1.41272028585e-09
1.02702793016e-11
3.13449629172e-10
7.42449349527e-11
1.17527538978e-09
5.30683620652e-10
7.5292630549e-10
7.04358468097e-10
9.37914178224e-10
1.702544684e-09
6.08884528133e-10
3.33787950043e-09
2.64022857201e-10
6.89536246608e-09
1.06120732043e-08
1.89634121062e-09
5.04443303267e-09
8.85815772226e-10
1.22960698861e-09
3.6743886854e-10
3.27640902725e-09
1.55344900182e-09
1.26937549658e-09
1.04643511895e-09
2.92479055794e-09
9.7455671962e-09
5.97314622455e-09
1.25393992339e-08
2.80629730586e-09
4.02810200943e-09
1.84855025685e-09
2.06542221201e-09
9.09141251058e-09
4.64946191896e-09
2.93005147146e-09
9.87244461314e-09
3.90435898833e-08
5.70954346212e-09
3.93884843548e-08
1.23081188048e-08
3.02528146832e-08
3.14299757551e-08
4.69202071078e-08
1.42957195171e-08
6.75882840009e-08
3.8510339105e-09
2.44238233316e-08
3.40462628101e-08
3.59055069041e-08
2.47527771307e-08
1.9608094588e-08
2.84761116395e-08
2.34086517517e-08
8.89685917849e-09
1.13561426223e-08
1.0650587252e-08
4.94479262186e-08
7.14375976732e-09
2.01840201304e-08
1.14064200921e-07
3.5897125201e-08
4.52145659396e-09
1.21696006306e-08
1.14041415024e-07
1.46277402232e-08
5.10160354512e-08
2.6967067407e-09
5.38507882203e-09
2.00689666846e-09
6.49118208104e-09
3.52011506813e-09
2.45890859378e-08
3.2075194189e-08
6.08260366548e-09
2.12037323051e-08
5.08082966588e-09
3.02907105262e-08
2.02977742097e-09
2.98364214045e-08
1.62065235298e-09
2.31626731865e-08
3.1342983621e-09
3.23009726322e-08
1.30393354935e-07
1.14730214612e-06
1.31175116277e-06
1.72369409225e-06
1.50054491702e-06
1.71620080473e-07
3.37423831857e-10
1.35542947059e-07
1.59346624484e-07
3.8820490952e-07
2.75296083368e-07
3.43760019337e-07
2.8410252726e-07
2.77886318879e-07
8.72656532374e-08
1.08012953088e-07
6.77544856594e-08
3.03456330112e-08
1.17151194272e-08
4.89540101541e-08
9.06544992238e-09
6.53121182415e-08
1.33047882526e-08
9.10652336207e-08
5.662748861e-08
8.78529304599e-08
6.9958401059e-08
5.45722402925e-08
7.29216261185e-08
3.8772677102e-08
3.94797634676e-08
1.00352645002e-08
1.30450825477e-08
3.20098917115e-09
1.33547752576e-08
2.69318407295e-09
2.03115010721e-08
5.18448966973e-09
2.52259216366e-08
1.50351084471e-08
2.52539055199e-08
1.71567932689e-08
1.44064911129e-08
1.41727381192e-09
9.69907665393e-09
7.57766123414e-09
9.6769890256e-09
6.25183591856e-09
5.88575920335e-09
4.30293671624e-10
5.43489625123e-09
5.21320698295e-10
6.41387272517e-10
1.71465205043e-09
3.49874590039e-09
1.02626971766e-09
5.91918028929e-09
1.61961577649e-10
3.2125942497e-09
9.86055300612e-10
1.84150880642e-09
1.98782135336e-09
7.85678106137e-09
4.9963026986e-09
1.27154946205e-08
3.39005992332e-09
8.32408088476e-09
3.89808176104e-09
3.84289019234e-09
9.97746281002e-09
6.24000018071e-09
1.41311780789e-08
1.36376409168e-08
9.09510177091e-09
6.27930456538e-09
6.75338795433e-09
1.83094477103e-08
1.1121573048e-09
3.31279002956e-08
1.39323447982e-08
2.42471064128e-09
3.79951480469e-08
9.20760639151e-09
2.90305147244e-08
4.08373515797e-09
2.7102282795e-08
2.2606402999e-09
2.31219139396e-08
2.19819909407e-08
1.65869960177e-08
1.56596587173e-07
1.29479694047e-07
3.0043475489e-07
7.6334693905e-07
7.68427436918e-07
2.69288357824e-07
3.5059620391e-07
1.02894118147e-06
3.97993444275e-07
3.87100243398e-07
6.07677713927e-08
1.69798239036e-07
1.54185064243e-08
9.63860428257e-08
2.50581701776e-08
5.22035811943e-08
2.53990165186e-08
6.57671744324e-09
1.31346616884e-08
7.26864856062e-09
3.37999005445e-08
1.27643833582e-08
9.55403958911e-09
2.88941659776e-08
4.62279343892e-09
3.37756407059e-08
1.93178455921e-08
3.55666127024e-08
4.40015571325e-07
1.06506398817e-07
3.12108919671e-07
7.97459431099e-08
1.12470325194e-07
6.38646372061e-08
1.43720637021e-07
8.90773083979e-08
7.36741859977e-08
9.36558916037e-08
9.54418852023e-07
2.18665297548e-09
1.43403619785e-07
2.75507972191e-07
1.69168743632e-07
9.56451179056e-08

