# vtk DataFile Version 3.0
File Name: Molecule/methanol/methanol_2.0-6.vtk
ASCII
DATASET UNSTRUCTURED_GRID
FIELD FieldData 1
TIME 1 1 double
0.0
POINTS 130 double
1.4769181013 -0.69155454636 -0.29288077354
0.96588474512 -1.3315763474 -0.28217563033
1.3359313011 -0.64448237419 -0.61829859018
0.34388998151 -1.6409512758 -0.19839262962
0.26431801915 -1.48562181 -0.81218516827
0.81132680178 -1.1998971701 -0.89479535818
-0.47736671567 -1.6365801096 -0.13008670509
-0.50567674637 -1.4819967747 -0.75163435936
-1.0639777184 -1.2169026136 -0.66080987453
-1.0933704376 -1.3339788914 -0.041618537158
-1.6034668684 -0.6710370183 -0.026193499565
-1.5230587721 -0.6067174077 -0.64814317226
-1.7394207716 -0.00049771385966 -0.038263347
-1.6374768019 1.480197534e-05 -0.66541624069
-1.5210438967 0.60369324684 -0.65728348494
-1.6022543907 0.67321950197 -0.024523306638
-1.0622128248 1.2092437744 -0.68924486637
-1.0891156197 1.3370325565 -0.06640188396
-0.48495131731 1.6375186443 -0.11520560086
-0.5000628233 1.4800242186 -0.76191407442
0.34022265673 1.6424911022 -0.18868753314
0.25856804848 1.477494359 -0.83848023415
0.967654109 1.3387234211 -0.25328192115
0.81934255362 1.1975588799 -0.88486140966
1.4787415266 0.67753475904 -0.30678585172
1.2699689865 0.6135789156 -0.9328250885
1.9066048861 -0.0038715421688 0.66301697493
1.7430218458 0.76724302769 0.66081017256
1.740672946 0.38228803873 1.3269923925
1.7411950827 -0.39193794131 1.321202755
1.7420868874 -0.7690384388 0.65643119812
1.7494022846 -0.38970291615 0.030737850815
1.8008457422 0.30681395531 0.1144977361
1.3806484938 1.0694743395 1.4065186977
1.3703949451 0.5798459053 1.8374252319
1.3793509007 -0.20041891932 1.9484270811
1.372328043 -0.91222959757 1.6017802954
1.3795566559 -1.2492408752 1.0439816713
1.3853546381 -1.2417521477 0.26545417309
1.3732954264 1.3137738705 0.64004164934
0.73054283857 1.5639587641 1.4355974197
0.73113656044 1.0503190756 2.0519127846
0.73290503025 0.32824483514 2.3711774349
0.71543389559 -0.32950428128 2.3783004284
0.72294002771 -1.0489428043 2.0567107201
0.72508448362 -1.5632376671 1.442942977
0.72543692589 -1.7496359348 0.64888894558
0.71619510651 1.7532336712 0.64174807072
0.090934723616 1.7747653723 1.2916238308
0.092713348567 1.3525327444 1.9697282314
0.092673428357 0.68497508764 2.4125635624
0.089268878102 0.032682113349 2.541087389
-0.051710430533 -0.74366533756 2.388646841
-0.053831361234 -1.2999495268 2.0204906464
-0.054425891489 -1.7497618198 1.3560342789
-0.055661521852 -1.8839309216 0.55304282904
-0.050710365176 1.8851714134 0.61430042982
-0.68912547827 1.7486066818 0.65572828054
-0.68641674519 1.5665545464 1.4364336729
-0.68613296747 1.0531525612 2.0535473824
-0.68847620487 0.32950642705 2.3735938072
-0.67745488882 -0.32843488455 2.3785889149
-0.69203186035 -1.0471720695 2.0543153286
-0.69466227293 -1.5595003366 1.4426968098
-0.69074445963 -1.7479467392 0.66011756659
-1.3383111954 1.3106426001 0.65754526854
-1.3425729275 1.0699862242 1.4061088562
-1.3326147795 0.57968431711 1.8371720314
-1.3408180475 -0.20029968023 1.948959589
-1.3340370655 -0.9122646451 1.6020601988
-1.3388780355 -1.2542597055 1.0372793674
-1.7010225058 0.77035474777 0.67631053925
-1.7020093203 0.38305664062 1.328163743
-1.7030396461 -0.39197671413 1.3213456869
-1.7009774446 -0.77707928419 0.65140932798
-1.867806673 -0.00017246141215 0.65606915951
1.6205638647 0.010921254754 -0.32406324148
0.62675696611 1.1134456396 -1.4854882956
-0.12080319226 0.90006548166 -1.9799647331
-0.12108412385 1.3394408226 -1.4897298813
-0.13490894437 -1.1174738407 -1.7823065519
-0.88456344604 -1.2430140972 -1.1751390696
-0.87935346365 -0.80348885059 -1.8002414703
-0.12056806684 -0.48598748446 -2.1916339397
-0.88929718733 -0.19497086108 -2.0500490665
-0.14198096097 0.16662925482 -2.2638704777
-0.88008862734 0.58594542742 -1.9329899549
-0.89000511169 1.0894985199 -1.4957418442
-1.4471094608 -0.39002498984 -1.4015750885
-1.4454078674 0.38092842698 -1.4087057114
1.0150263309 0.7767803669 -1.4138007164
1.2374655008 0.35684028268 -1.354660511
1.3507068157 -0.018366163597 -1.1324789524
1.1444844007 -0.032655745745 -1.6007727385
0.027912367135 -1.426371336 -1.2860741615
0.8996437788 0.46484395862 -1.7850774527
0.62540268898 0.5929492712 -1.9379959106
0.6545727253 0.85914617777 -1.7464745045
0.90269124508 -0.76803416014 -1.584051013
0.63743114471 -0.6666623354 -1.8930535316
1.0184317827 -0.32788780332 -1.7122144699
0.63267481327 -0.93958133459 -1.6893088818
0.20128150284 -0.094271734357 -2.2330174446
0.63044804335 -0.22349624336 -2.0548548698
0.21206621826 -1.0864534378 -1.7675694227
0.50010102987 -1.3064069748 -1.2400522232
1.2702310085 -0.60521769524 -0.94087684155
1.4371554852 -0.32405093312 -0.64210838079
1.374153018 -0.30220550299 -0.92716532946
1.4770630598 -0.010308709927 -0.62640345097
1.574182868 -0.34135040641 -0.35874632001
1.4454137087 0.31966292858 -0.62159466743
1.3670159578 0.32480373979 -0.93286716938
1.2191905975 -0.33634361625 -1.4006463289
1.2834018469 -0.44296959043 -1.1765794754
1.1170047522 0.39601320028 -1.5490409136
1.0085241795 0.0088414531201 -1.7753337622
1.1293561459 0.56310456991 -1.4292753935
1.0122004747 0.60360050201 -1.5782350302
0.79549092054 -0.31435412169 -1.9284863472
0.78038644791 0.1762996465 -1.9674141407
0.64484554529 -0.027883149683 -2.0673675537
0.36462795734 0.19045528769 -2.1807031631
0.2042478621 0.41478261352 -2.177816391
0.63939487934 0.40360176563 -2.0073451996
1.1238495111 -0.73300206661 -1.2609177828
1.1205493212 -0.51081287861 -1.4821385145
1.4070228338 -0.0047605070285 -0.92040860653
1.4195364714 0.15724432468 -0.79195272923
1.3802984953 0.15666954219 -1.0195891857

CELLS 256 1024
3 0 1 2
3 3 4 1
3 5 1 4
3 3 6 4
3 7 4 6
3 7 6 8
3 9 8 6
3 9 10 8
3 8 10 11
3 10 12 11
3 13 11 12
3 13 12 14
3 15 14 12
3 14 15 16
3 17 16 15
3 17 18 16
3 19 16 18
3 18 20 19
3 19 20 21
3 20 22 21
3 21 22 23
3 22 24 23
3 23 24 25
3 26 27 28
3 26 28 29
3 26 29 30
3 26 30 31
3 26 31 32
3 26 32 27
3 28 27 33
3 28 33 34
3 28 34 35
3 29 28 35
3 29 35 36
3 29 36 37
3 30 29 37
3 30 37 38
3 31 30 38
3 27 39 33
3 33 39 40
3 33 40 41
3 34 33 41
3 34 41 42
3 35 34 42
3 35 42 43
3 36 35 44
3 43 44 35
3 36 44 45
3 37 36 45
3 37 45 46
3 38 37 46
3 39 47 40
3 40 47 48
3 40 48 49
3 41 40 49
3 41 49 50
3 42 41 50
3 42 50 51
3 43 42 51
3 43 51 52
3 44 43 52
3 44 52 53
3 45 44 53
3 45 53 54
3 46 45 54
3 46 54 55
3 47 56 48
3 48 56 57
3 48 57 58
3 49 48 58
3 49 58 59
3 50 49 59
3 50 59 60
3 51 50 60
3 51 60 61
3 52 51 61
3 52 61 62
3 53 52 62
3 53 62 63
3 54 53 63
3 54 63 64
3 55 54 64
3 58 57 65
3 58 65 66
3 59 58 66
3 59 66 67
3 60 59 67
3 60 67 68
3 61 60 68
3 61 68 62
3 69 62 68
3 63 62 69
3 63 69 70
3 64 63 70
3 66 65 71
3 66 71 72
3 67 66 72
3 68 67 72
3 68 72 73
3 69 68 73
3 70 69 73
3 70 73 74
3 72 71 75
3 73 72 75
3 74 73 75
3 74 75 10
3 12 10 75
3 74 10 9
3 74 9 70
3 70 9 64
3 64 9 6
3 64 6 55
3 55 6 3
3 55 3 46
3 46 3 1
3 46 1 38
3 38 1 0
3 38 0 31
3 31 76 32
3 32 76 24
3 32 24 27
3 27 24 39
3 39 24 22
3 39 22 47
3 47 22 20
3 47 20 56
3 56 20 18
3 56 18 57
3 57 18 17
3 57 17 65
3 65 17 15
3 65 15 71
3 71 15 75
3 12 75 15
3 77 78 79
3 80 81 82
3 83 80 82
3 83 82 84
3 85 83 84
3 85 84 86
3 78 85 86
3 78 86 87
3 79 78 87
3 82 81 88
3 84 82 88
3 84 88 89
3 86 84 89
3 87 86 89
3 87 89 14
3 87 14 16
3 87 16 19
3 87 19 79
3 79 19 21
3 79 21 77
3 77 21 23
3 77 23 90
3 91 92 93
3 7 81 94
3 81 7 8
3 81 8 11
3 81 11 88
3 88 11 13
3 88 13 89
3 89 13 14
3 95 96 97
3 90 97 77
3 77 97 78
3 97 96 78
3 25 90 23
3 98 99 100
3 98 101 99
3 102 103 83
3 80 83 104
3 101 98 105
3 2 106 107
3 108 107 106
3 107 108 109
3 0 2 110
3 76 110 109
3 110 107 109
3 107 110 2
3 106 2 5
3 5 2 1
3 76 111 24
3 24 111 25
3 25 111 112
3 111 76 109
3 0 110 31
3 31 110 76
3 25 112 91
3 113 92 114
3 95 115 116
3 115 93 116
3 115 91 93
3 116 93 100
3 91 115 117
3 115 118 117
3 115 95 118
3 117 118 90
3 90 118 97
3 97 118 95
3 91 117 25
3 117 90 25
3 103 119 99
3 119 100 99
3 100 93 113
3 113 93 92
3 95 116 120
3 120 116 121
3 116 100 119
3 85 102 83
3 99 83 103
3 103 102 121
3 102 122 121
3 102 85 122
3 121 122 120
3 96 123 78
3 123 85 78
3 120 124 95
3 95 124 96
3 96 124 123
3 124 122 123
3 124 120 122
3 123 122 85
3 103 121 119
3 119 121 116
3 101 104 99
3 99 104 83
3 98 125 5
3 5 125 106
3 4 105 5
3 5 105 98
3 101 105 104
3 105 94 104
3 105 4 94
3 104 94 80
3 80 94 81
3 94 4 7
3 113 126 100
3 126 98 100
3 106 125 114
3 125 126 114
3 125 98 126
3 114 126 113
3 92 127 108
3 127 109 108
3 109 128 111
3 111 128 112
3 112 128 129
3 128 127 129
3 128 109 127
3 129 127 92
3 112 129 91
3 91 129 92
3 106 114 108
3 108 114 92

CELL_TYPES 256
5
5
5
5
5
5
5
5
5
5
5
5
5
5
5
5
5
5
5
5
5
5
5
5
5
5
5
5
5
5
5
5
5
5
5
5
5
5
5
5
5
5
5
5
5
5
5
5
5
5
5
5
5
5
5
5
5
5
5
5
5
5
5
5
5
5
5
5
5
5
5
5
5
5
5
5
5
5
5
5
5
5
5
5
5
5
5
5
5
5
5
5
5
5
5
5
5
5
5
5
5
5
5
5
5
5
5
5
5
5
5
5
5
5
5
5
5
5
5
5
5
5
5
5
5
5
5
5
5
5
5
5
5
5
5
5
5
5
5
5
5
5
5
5
5
5
5
5
5
5
5
5
5
5
5
5
5
5
5
5
5
5
5
5
5
5
5
5
5
5
5
5
5
5
5
5
5
5
5
5
5
5
5
5
5
5
5
5
5
5
5
5
5
5
5
5
5
5
5
5
5
5
5
5
5
5
5
5
5
5
5
5
5
5
5
5
5
5
5
5
5
5
5
5
5
5
5
5
5
5
5
5
5
5
5
5
5
5
5
5
5
5
5
5
5
5
5
5
5
5
5
5
5
5
5
5

CELL_DATA 256
SCALARS cell_data_0 double
LOOKUP_TABLE default
1.32866015888e-07
2.22096206306e-07
1.829083805e-07
9.60339543121e-08
7.24833573204e-08
1.53229159163e-07
1.61528078301e-07
6.89373352458e-08
1.83929391586e-07
7.74948889604e-08
1.31590256715e-07
1.41128425085e-07
8.5733597157e-08
7.09566223258e-08
9.89637885997e-08
2.03183877681e-07
2.18611270579e-07
3.34800819406e-07
1.11509109539e-07
2.48927638326e-07
2.14343870446e-07
1.59025283489e-07
1.65892569361e-07
1.20558698624e-09
2.05198897319e-09
1.53466699039e-11
1.55788779975e-09
2.51874529578e-11
2.72804093819e-09
2.11417284321e-09
3.19854138456e-09
8.51726497545e-10
1.16876216587e-09
4.14016670623e-09
9.30415047564e-10
5.59505390468e-09
3.38134855174e-09
1.35730510914e-09
4.70140875519e-09
1.20312224516e-09
3.55498727931e-09
2.30286832661e-10
6.9434344615e-10
2.31060646898e-09
2.11200817826e-09
1.91229028615e-09
2.5365234935e-10
1.2545603827e-10
1.08351907884e-09
2.05559231939e-10
6.30635602254e-09
1.06989961294e-09
2.70342104544e-09
2.9760201485e-09
1.73712885836e-09
2.05756390339e-09
5.50404570109e-11
1.95066459088e-09
2.45525581251e-09
9.69000309926e-10
6.7514675569e-10
2.27342447437e-09
3.88994864221e-10
5.05819538191e-09
2.27077134317e-09
3.89967764782e-09
1.72810969972e-09
5.89852880237e-09
5.852955847e-09
5.4952302404e-09
1.3390550698e-10
6.44228615507e-10
1.38258371808e-10
1.97457670265e-10
1.29956055989e-09
1.38677326559e-09
1.68162555172e-09
2.51562516973e-09
8.39195306686e-10
4.7294179794e-09
1.26798765607e-10
1.43683369314e-09
1.72624306156e-08
1.57754163282e-09
5.68935180433e-09
3.63601692191e-09
1.34586110667e-09
2.33563599027e-09
1.55844228974e-09
1.35531551367e-09
4.85441992121e-09
3.16650696765e-09
6.11838315051e-10
1.64230305293e-09
1.18156289396e-08
1.83315027856e-09
2.00588306916e-09
7.2485072474e-10
1.07007728146e-08
6.77653975617e-09
3.45399020841e-09
5.48282034853e-10
1.30835360909e-08
6.95867834034e-09
6.97876736302e-09
4.26647016834e-08
5.79499447118e-08
1.56897815597e-07
1.71122852547e-07
7.72409119961e-08
1.80411767954e-07
6.85122915473e-08
1.17408639716e-07
9.55429333034e-08
5.73316619835e-08
4.99822285651e-08
4.1612723909e-08
1.01546765563e-08
7.82764627514e-12
2.88888137035e-09
1.25313561031e-08
5.47287862271e-09
5.72441482435e-08
1.93128194828e-08
3.64528756653e-08
8.09930698933e-09
1.3595485339e-07
1.90380050662e-08
1.52568480095e-07
2.97495276029e-08
2.10523262221e-07
3.96384208762e-08
5.08992735043e-08
5.04515920794e-08
2.73231309797e-07
7.21646311839e-08
7.25239025904e-10
7.72978676539e-08
1.75302687061e-08
1.33590060726e-07
1.2734577379e-07
7.1517531067e-08
2.55846320681e-08
8.52719658591e-08
6.28750360999e-08
7.01559778438e-09
2.87118059173e-09
1.05251174613e-07
1.78647548286e-08
9.46402871061e-08
8.50455528266e-10
1.02270835396e-08
9.41072667154e-08
1.05270445985e-07
4.81652029972e-08
4.12382024096e-07
1.89521703995e-07
9.99269967966e-08
4.1671848493e-08
3.42668064709e-08
7.42344911319e-08
1.37803513418e-08
2.98151683122e-08
2.11653488132e-09
2.27888619425e-07
2.81522839734e-07
2.80201079099e-07
2.94213581458e-07
4.07704980008e-07
7.06552379835e-07
7.67888848834e-08
3.98740784033e-07
1.45517812879e-09
3.63895824445e-07
5.63414150927e-08
5.19412181978e-08
4.02661708531e-08
1.48944447976e-10
1.40631700578e-08
1.09541528064e-07
4.65141150628e-08
3.33855424484e-07
6.46695820657e-08
8.01291255391e-08
3.23249214612e-07
2.08593747383e-07
5.1820256589e-08
1.86662325024e-10
5.23759635545e-09
2.65163192111e-07
3.34113053081e-07
2.48641132343e-07
2.96203460879e-07
3.17108674826e-07
1.23186989248e-07
1.47321830739e-07
3.19072623304e-08
1.60401194272e-07
2.94386623727e-08
1.97734340016e-07
2.92890546231e-07
2.98772492517e-07
4.61063315842e-08
6.54038125209e-08
4.42667261313e-07
4.39417727252e-07
6.83374065832e-08
2.90047534335e-07
3.41377084282e-07
8.67722317048e-08
2.92657272854e-08
6.37489363602e-07
7.19714024192e-08
1.09735878307e-08
6.14033986457e-08
1.34159686466e-07
2.29127642937e-07
7.54259432399e-08
6.66267456571e-08
9.80225922716e-08
7.24921218162e-08
6.32467219339e-08
1.51646780342e-07
5.05122423621e-08
1.64495036868e-08
5.67808560353e-07
1.14280261978e-07
5.04843590744e-07
7.04737637086e-07
1.09287265482e-06
5.40965466473e-08
5.38614737489e-07
8.22689553186e-08
2.03994323444e-08
4.94213276342e-08
5.30123276374e-08
1.22609211635e-07
3.67349239722e-08
1.2726271265e-07
2.29800575509e-07
1.53394188385e-07
1.12018136642e-07
1.7819480078e-07
1.72521179383e-08
2.2437197827e-07
1.03047033697e-07
6.57486844316e-08
1.37196173327e-07
2.27565594426e-08
2.72513224929e-08
5.80392956522e-08
5.43871960946e-08
9.59928255323e-09
8.20464892265e-08
7.44565663441e-08
6.48647724076e-08

