# vtk DataFile Version 3.0
File Name: Molecule/sphere_dip_C5/sphere_dip_C5_0-s3.vtk
ASCII
DATASET UNSTRUCTURED_GRID
FIELD FieldData 1
TIME 1 1 double
0.0
POINTS 130 double
0.850650808352 -0.525731112119 0.0
0.809016994375 -0.309016994375 -0.5
1.0 0.0 0.0
0.809016994375 0.309016994375 -0.5
0.525731112119 0.0 -0.850650808352
0.850650808352 0.525731112119 0.0
0.5 0.809016994375 -0.309016994375
0.309016994375 0.5 -0.809016994375
-0.5 -0.809016994375 -0.309016994375
0.0 -1.0 0.0
-0.5 -0.809016994375 0.309016994375
0.0 -0.850650808352 -0.525731112119
0.0 -0.850650808352 0.525731112119
-0.850650808352 -0.525731112119 0.0
-0.809016994375 -0.309016994375 0.5
-0.309016994375 -0.5 0.809016994375
0.5 -0.809016994375 -0.309016994375
0.5 -0.809016994375 0.309016994375
0.309016994375 -0.5 -0.809016994375
0.0 0.0 -1.0
-0.309016994375 0.5 -0.809016994375
0.0 0.850650808352 -0.525731112119
0.25 0.829833901363 -0.417374053247
0.5 0.809016994375 0.0
0.25 0.904508497187 -0.154508497188
0.25 0.904508497187 0.154508497188
0.0 1.0 0.0
0.5 0.809016994375 0.309016994375
0.0 0.925325404176 -0.26286555606
0.25 0.829833901363 0.417374053247
0.0 0.925325404176 0.26286555606
0.0 0.850650808352 0.525731112119
-0.25 0.829833901363 0.417374053247
-0.25 0.904508497187 0.154508497188
-0.5 0.809016994375 0.309016994375
-0.25 0.904508497187 -0.154508497188
-0.5 0.809016994375 0.0
-0.5 0.809016994375 -0.309016994375
-0.25 0.829833901363 -0.417374053247
-0.675325404176 0.667374053247 0.154508497188
-0.675325404176 0.667374053247 -0.154508497188
-0.154508497188 0.675325404176 0.667374053247
-0.404508497188 0.654508497187 0.559016994375
-0.309016994375 0.5 0.809016994375
-0.654508497187 0.559016994375 0.404508497188
-0.559016994375 0.404508497188 0.654508497187
-0.809016994375 0.309016994375 0.5
-0.829833901363 0.417374053247 0.25
-0.850650808352 0.525731112119 0.0
-0.525731112119 0.0 0.850650808352
0.154508497188 0.675325404176 0.667374053247
0.0 0.5 0.809016994375
0.309016994375 0.5 0.809016994375
-0.154508497188 0.25 0.904508497187
0.309016994375 -0.5 0.809016994375
0.0 -0.5 0.809016994375
0.404508497188 0.654508497187 0.559016994375
-1.0 0.0 0.0
0.925325404176 0.26286555606 0.0
0.525731112119 0.0 0.850650808352
0.417374053247 -0.25 0.829833901363
0.667374053247 -0.154508497188 0.675325404176
0.559016994375 -0.404508497188 0.654508497187
0.809016994375 -0.309016994375 0.5
0.404508497188 -0.654508497187 0.559016994375
0.654508497187 -0.559016994375 0.404508497188
0.154508497188 -0.25 -0.904508497187
0.0 -0.5 -0.809016994375
-0.154508497188 -0.25 -0.904508497187
-0.309016994375 -0.5 -0.809016994375
-0.26286555606 0.0 -0.925325404176
-0.417374053247 -0.25 -0.829833901363
-0.525731112119 0.0 -0.850650808352
0.904508497187 -0.154508497188 0.25
0.904508497187 0.154508497188 0.25
0.809016994375 0.0 0.5
0.809016994375 0.309016994375 0.5
0.829833901363 0.417374053247 0.25
0.667374053247 0.154508497188 0.675325404176
0.675325404176 0.667374053247 0.154508497188
0.654508497187 0.559016994375 0.404508497188
0.559016994375 0.404508497188 0.654508497187
0.417374053247 0.25 0.829833901363
-0.667374053247 -0.154508497188 -0.675325404176
-0.667374053247 0.154508497188 -0.675325404176
-0.809016994375 0.0 -0.5
-0.809016994375 -0.309016994375 -0.5
-0.809016994375 0.309016994375 -0.5
-0.904508497187 -0.154508497188 -0.25
-0.904508497187 0.154508497188 -0.25
-0.829833901363 -0.417374053247 -0.25
-0.925325404176 -0.26286555606 0.0
-0.829833901363 0.417374053247 -0.25
-0.925325404176 0.26286555606 0.0
-0.559016994375 0.404508497188 -0.654508497187
-0.404508497188 0.654508497187 -0.559016994375
-0.654508497187 0.559016994375 -0.404508497188
-0.417374053247 0.25 -0.829833901363
-0.675325404176 -0.667374053247 -0.154508497188
-0.559016994375 -0.404508497188 0.654508497187
-0.667374053247 -0.154508497188 0.675325404176
-0.417374053247 -0.25 0.829833901363
-0.667374053247 0.154508497188 0.675325404176
-0.809016994375 0.0 0.5
-0.559016994375 -0.404508497188 -0.654508497187
-0.404508497188 -0.654508497187 -0.559016994375
-0.654508497187 -0.559016994375 -0.404508497188
-0.154508497188 0.25 -0.904508497187
-0.587662702088 0.738195523811 -0.231762745782
-0.762988106264 0.596552582683 -0.077254248594
0.0 0.25 0.904508497187
0.154508497188 0.25 0.904508497187
-0.077254248594 0.125 0.952254248593
0.077254248594 0.125 0.952254248593
0.0 0.0 1.0
0.231762745782 0.375 0.856762745781
-0.26286555606 0.0 0.925325404176
-0.340119804654 0.125 0.87757965277
0.340119804654 0.125 0.87757965277
0.26286555606 0.0 0.925325404176
-0.231762745782 -0.375 0.856762745781
-0.340119804654 -0.125 0.87757965277
-0.154508497188 -0.25 0.904508497187
-0.077254248594 -0.125 0.952254248593
0.154508497188 -0.25 0.904508497187
0.0 -0.25 0.904508497187
0.231762745782 -0.375 0.856762745781
0.077254248594 -0.125 0.952254248593
0.340119804654 -0.125 0.87757965277
-0.742171199276 0.488195523811 -0.327254248594

CELLS 256 1024
3 0 1 2
3 1 3 2
3 1 4 3
3 5 3 6
3 3 7 6
3 3 4 7
3 8 9 10
3 8 11 9
3 10 9 12
3 13 10 14
3 10 12 15
3 11 16 9
3 16 17 9
3 16 0 17
3 9 17 12
3 4 1 18
3 1 16 18
3 1 0 16
3 18 16 11
3 4 19 7
3 7 20 21
3 21 22 7
3 7 22 6
3 6 23 5
3 6 24 23
3 24 25 23
3 24 26 25
3 23 25 27
3 6 22 24
3 22 28 24
3 22 21 28
3 24 28 26
3 27 25 29
3 25 30 29
3 25 26 30
3 29 30 31
3 31 30 32
3 30 33 32
3 30 26 33
3 32 33 34
3 26 35 33
3 35 36 33
3 35 37 36
3 33 36 34
3 26 28 35
3 28 38 35
3 28 21 38
3 35 38 37
3 34 36 39
3 36 40 39
3 31 32 41
3 32 42 41
3 32 34 42
3 41 42 43
3 34 44 42
3 44 45 42
3 44 46 45
3 42 45 43
3 34 39 44
3 39 47 44
3 39 48 47
3 44 47 46
3 43 45 49
3 31 41 50
3 41 51 50
3 41 43 51
3 50 51 52
3 43 53 51
3 54 55 12
3 12 55 15
3 27 29 56
3 29 50 56
3 29 31 50
3 56 50 52
3 20 38 21
3 46 47 57
3 5 58 3
3 3 58 2
3 59 60 61
3 60 62 61
3 60 54 62
3 61 62 63
3 54 64 62
3 64 65 62
3 64 17 65
3 62 65 63
3 17 64 12
3 12 64 54
3 63 65 0
3 65 17 0
3 18 66 4
3 4 66 19
3 18 67 66
3 67 68 66
3 67 69 68
3 66 68 19
3 69 67 11
3 11 67 18
3 19 68 70
3 68 71 70
3 68 69 71
3 70 71 72
3 2 73 0
3 0 73 63
3 2 74 73
3 74 75 73
3 74 76 75
3 73 75 63
3 2 58 74
3 58 77 74
3 58 5 77
3 74 77 76
3 63 75 61
3 75 78 61
3 75 76 78
3 61 78 59
3 5 79 77
3 79 80 77
3 79 27 80
3 77 80 76
3 76 81 78
3 81 82 78
3 81 52 82
3 78 82 59
3 72 83 84
3 83 85 84
3 83 86 85
3 84 85 87
3 86 88 85
3 88 89 85
3 88 57 89
3 85 89 87
3 86 90 88
3 90 91 88
3 90 13 91
3 88 91 57
3 87 89 92
3 89 93 92
3 89 57 93
3 92 93 48
3 20 94 95
3 94 96 95
3 94 87 96
3 95 96 37
3 20 97 94
3 97 84 94
3 97 72 84
3 94 84 87
3 13 98 10
3 98 8 10
3 15 99 10
3 10 99 14
3 14 99 100
3 99 101 100
3 99 15 101
3 100 101 49
3 49 102 100
3 102 103 100
3 102 46 103
3 100 103 14
3 14 103 57
3 57 103 46
3 57 91 14
3 14 91 13
3 72 71 83
3 71 104 83
3 71 69 104
3 83 104 86
3 69 105 104
3 105 106 104
3 105 8 106
3 104 106 86
3 8 105 11
3 11 105 69
3 86 106 90
3 106 98 90
3 106 8 98
3 90 98 13
3 19 107 7
3 107 20 7
3 19 70 107
3 70 97 107
3 70 72 97
3 107 97 20
3 27 79 23
3 23 79 5
3 37 108 36
3 36 108 40
3 40 109 39
3 39 109 48
3 46 102 45
3 45 102 49
3 53 110 51
3 110 111 51
3 53 112 110
3 112 113 110
3 112 114 113
3 110 113 111
3 111 115 51
3 51 115 52
3 114 112 116
3 112 117 116
3 112 53 117
3 116 117 49
3 49 117 43
3 117 53 43
3 52 115 82
3 115 118 82
3 115 111 118
3 82 118 59
3 111 113 118
3 113 119 118
3 113 114 119
3 118 119 59
3 15 120 101
3 120 121 101
3 120 122 121
3 101 121 49
3 49 121 116
3 121 123 116
3 121 122 123
3 116 123 114
3 122 120 55
3 55 120 15
3 124 125 55
3 55 125 122
3 54 126 55
3 55 126 124
3 122 125 123
3 125 127 123
3 125 124 127
3 123 127 114
3 114 127 119
3 127 128 119
3 127 124 128
3 119 128 59
3 124 126 128
3 126 60 128
3 126 54 60
3 128 60 59
3 76 80 56
3 56 80 27
3 52 81 56
3 56 81 76
3 20 95 38
3 38 95 37
3 48 109 92
3 109 129 92
3 109 40 129
3 92 129 87
3 87 129 96
3 129 108 96
3 129 40 108
3 96 108 37
3 48 93 47
3 47 93 57

CELL_TYPES 256
5
5
5
5
5
5
5
5
5
5
5
5
5
5
5
5
5
5
5
5
5
5
5
5
5
5
5
5
5
5
5
5
5
5
5
5
5
5
5
5
5
5
5
5
5
5
5
5
5
5
5
5
5
5
5
5
5
5
5
5
5
5
5
5
5
5
5
5
5
5
5
5
5
5
5
5
5
5
5
5
5
5
5
5
5
5
5
5
5
5
5
5
5
5
5
5
5
5
5
5
5
5
5
5
5
5
5
5
5
5
5
5
5
5
5
5
5
5
5
5
5
5
5
5
5
5
5
5
5
5
5
5
5
5
5
5
5
5
5
5
5
5
5
5
5
5
5
5
5
5
5
5
5
5
5
5
5
5
5
5
5
5
5
5
5
5
5
5
5
5
5
5
5
5
5
5
5
5
5
5
5
5
5
5
5
5
5
5
5
5
5
5
5
5
5
5
5
5
5
5
5
5
5
5
5
5
5
5
5
5
5
5
5
5
5
5
5
5
5
5
5
5
5
5
5
5
5
5
5
5
5
5
5
5
5
5
5
5
5
5
5
5
5
5
5
5
5
5
5
5
5
5
5
5
5
5

CELL_DATA 256
SCALARS cell_data_0 double
LOOKUP_TABLE default
3.22807748488e-05
0.000119754699185
0.000114014228741
0.000163157170411
0.000230775196766
6.4408006663e-05
3.04203295864e-05
5.89617195584e-06
5.32722409631e-05
4.79123142104e-05
0.00013299654755
0.000119480084398
9.06721277617e-05
4.73347561022e-05
4.97314000077e-05
0.000127144530176
0.000305805709385
0.000147708518657
0.000182339643267
6.36437893732e-05
6.00557454128e-05
5.93456433628e-05
0.000126910117716
0.000105798192825
9.03911353582e-05
7.91064978512e-05
3.66853926257e-05
6.58358920163e-05
7.79262875534e-05
4.12223433978e-05
3.58185876801e-05
1.33211450919e-05
2.44324484205e-05
9.63817081561e-06
1.01205790072e-05
1.63387269055e-05
1.55558938171e-06
2.97211790169e-05
5.27335527512e-06
2.96895121742e-05
8.39634188381e-05
0.00012812493905
8.54340260918e-05
3.00090128777e-05
5.5398987861e-05
0.000197675248028
0.000116787757654
0.00017533039533
2.75965071714e-05
0.0001131199812
6.73314294015e-06
1.39098147933e-06
4.9287661336e-06
3.8309507302e-05
3.00247055165e-05
2.67946059985e-05
1.80768483246e-05
3.72814251536e-05
9.43272735423e-07
5.32046067752e-05
7.26094931928e-05
1.4610584289e-05
9.25401300761e-05
1.48615848884e-05
2.34947737881e-05
4.55844859174e-05
3.84250509486e-05
8.4108408752e-05
9.73033878572e-05
0.000112719740696
1.92696400941e-05
2.70192853272e-05
1.33126810877e-05
3.97043590992e-05
0.000236336023597
4.57486612778e-05
4.79440807991e-06
7.88906324042e-06
6.22537264357e-05
5.77094839276e-05
4.68486109338e-05
3.28146556039e-05
4.70419657879e-05
4.32203755495e-05
1.96311782144e-05
2.87285994851e-05
4.62929897788e-05
6.85454209122e-05
2.18440047523e-05
2.45036056587e-05
8.14528039624e-05
7.42971125491e-05
6.37957084993e-05
5.11105622586e-05
3.73951695268e-05
6.12940670823e-05
4.05913249648e-05
5.33363826138e-05
6.64375771142e-05
5.66901185653e-05
3.22546081307e-05
4.88266606087e-05
3.3107318047e-07
9.17332308634e-06
3.25857330754e-05
7.48269766567e-05
7.15503355263e-05
3.36068782826e-05
1.18159569395e-05
1.99070108526e-06
1.31199502301e-05
1.07018642306e-05
6.38335105224e-06
3.49903813487e-05
3.80363852731e-07
5.55071169173e-05
1.38015404455e-05
2.41848287422e-05
1.42221535009e-05
1.71358019551e-05
3.50616008167e-05
5.71966451002e-05
5.5609746378e-05
6.28915944103e-05
1.04940879127e-05
9.59200518628e-06
1.96220872969e-05
1.33174078595e-05
1.69924623908e-05
4.76259367519e-06
3.65480052998e-06
1.44829411315e-05
7.62871200574e-06
7.81975564673e-06
1.10399950006e-06
2.11210623824e-06
8.43022813933e-06
5.79145193688e-06
1.78538663923e-06
3.86945176016e-06
5.83182609308e-05
7.99099159774e-05
4.07203176505e-05
7.02665726897e-05
7.30390647716e-05
5.94061878829e-05
6.21961895171e-05
1.18378175752e-05
4.33861207119e-05
2.4194712136e-05
8.41530538893e-05
6.0352008203e-05
3.60690736452e-05
6.67473113973e-05
6.11539528415e-05
6.25668099674e-05
5.21728558828e-05
5.42735962831e-05
3.9965370481e-05
4.02176505238e-05
5.95962548511e-05
6.32275203203e-05
2.56975502704e-05
1.47295739382e-05
1.66922683721e-05
1.21022421821e-05
2.12760342327e-05
1.56297517997e-05
1.66351591651e-05
0.000153881045912
0.000148462338116
0.000178719245405
2.79045386319e-06
2.63692619225e-05
0.000144025043492
0.000166193114372
0.000169268602819
3.00415246886e-05
0.000315184376467
0.000295743401941
0.000196674019985
0.000271707216566
0.000108590447904
0.000222397455795
1.75374677079e-05
1.13582060806e-05
6.97432929949e-05
0.000125574020604
0.000125882071048
7.58371225165e-05
2.62629921404e-05
4.25533079017e-05
5.15943709768e-05
5.1454890219e-05
2.65862890605e-05
2.03930251375e-05
2.79697014283e-05
2.39052072671e-05
3.59951701609e-05
1.76629851197e-05
5.21425026576e-05
2.32726590595e-05
4.491992169e-05
1.61893920595e-05
6.45053881405e-05
7.57169162261e-05
2.56016060883e-05
2.80996772674e-05
2.84059604937e-05
3.61026097717e-05
4.28569847268e-05
2.44995751147e-05
4.78963189378e-05
2.97982171982e-05
2.36150649689e-05
1.36303036019e-05
1.50671574976e-05
3.20089979508e-05
1.1107973586e-05
2.27126513009e-06
3.54083910792e-05
4.7888636276e-05
5.41906455763e-05
3.27008680885e-05
8.15257585372e-05
7.24738252163e-05
3.43918617783e-05
5.85776953655e-05
2.42919313017e-05
3.54939281746e-06
3.13688052402e-05
2.35688918126e-05
4.5323544193e-05
8.61763966469e-06
5.34127827262e-05
2.59297851843e-05
4.37167541752e-05
3.24923029806e-05
2.65015010314e-05
4.07567430834e-05
3.67737582451e-05
2.96095965661e-05
5.60312904331e-05
4.47305935821e-05
0.0001714590361
0.000144709735139
5.63562261759e-05
5.28078509735e-05
0.000101653998495
3.77420837585e-06
1.60704528481e-05
7.86811246836e-05
0.000104035240687
7.65911411627e-05
3.34028293701e-05
2.9453773042e-05

