# vtk DataFile Version 3.0
File Name: Molecule/sphere_excent/sphere_excent_0-s5.vtk
ASCII
DATASET UNSTRUCTURED_GRID
FIELD FieldData 1
TIME 1 1 double
0.0
POINTS 54 double
0.0 0.850650808352 0.525731112119
-0.5 0.809016994375 0.309016994375
-0.309016994375 0.5 0.809016994375
-0.809016994375 0.309016994375 0.5
-0.850650808352 0.525731112119 0.0
-0.525731112119 0.0 0.850650808352
0.309016994375 0.5 0.809016994375
0.0 0.0 1.0
0.525731112119 0.0 0.850650808352
-0.309016994375 -0.5 0.809016994375
0.309016994375 -0.5 0.809016994375
0.0 -0.850650808352 0.525731112119
0.809016994375 -0.309016994375 0.5
0.5 -0.809016994375 0.309016994375
0.850650808352 -0.525731112119 0.0
0.525731112119 0.0 -0.850650808352
0.309016994375 -0.5 -0.809016994375
0.0 0.0 -1.0
-0.309016994375 -0.5 -0.809016994375
0.0 -0.850650808352 -0.525731112119
-0.525731112119 0.0 -0.850650808352
1.0 0.0 0.0
0.809016994375 0.309016994375 0.5
0.850650808352 0.525731112119 0.0
0.5 0.809016994375 0.309016994375
-0.809016994375 -0.309016994375 -0.5
-0.809016994375 0.309016994375 -0.5
-1.0 0.0 0.0
-0.850650808352 -0.525731112119 0.0
0.0 0.850650808352 -0.525731112119
-0.309016994375 0.5 -0.809016994375
-0.5 0.809016994375 -0.309016994375
-0.5 -0.809016994375 -0.309016994375
-0.5 -0.809016994375 0.309016994375
0.0 -1.0 0.0
-0.809016994375 -0.309016994375 0.5
0.5 -0.809016994375 -0.309016994375
0.809016994375 -0.309016994375 -0.5
0.309016994375 0.5 -0.809016994375
0.0 1.0 0.0
-0.25 0.904508497187 0.154508497188
-0.25 0.904508497187 -0.154508497188
-0.5 0.809016994375 0.0
0.5 0.809016994375 -0.309016994375
0.5 0.809016994375 0.0
0.25 0.904508497187 -0.154508497188
0.25 0.904508497187 0.154508497188
0.809016994375 0.309016994375 -0.5
0.654508497187 0.559016994375 -0.404508497188
0.559016994375 0.404508497188 -0.654508497187
0.404508497188 0.654508497187 -0.559016994375
0.904508497187 -0.154508497188 -0.25
0.809016994375 0.0 -0.5
0.904508497187 0.154508497188 -0.25

CELLS 104 416
3 0 1 2
3 1 3 2
3 1 4 3
3 2 3 5
3 0 2 6
3 2 7 6
3 2 5 7
3 6 7 8
3 5 9 7
3 9 10 7
3 9 11 10
3 7 10 8
3 8 10 12
3 10 13 12
3 10 11 13
3 12 13 14
3 15 16 17
3 16 18 17
3 16 19 18
3 17 18 20
3 14 21 12
3 21 22 12
3 21 23 22
3 12 22 8
3 23 24 22
3 24 6 22
3 24 0 6
3 22 6 8
3 20 25 26
3 25 27 26
3 25 28 27
3 26 27 4
3 29 30 31
3 30 26 31
3 30 20 26
3 31 26 4
3 28 32 33
3 32 34 33
3 32 19 34
3 33 34 11
3 28 33 35
3 33 9 35
3 33 11 9
3 35 9 5
3 5 3 35
3 3 27 35
3 3 4 27
3 35 27 28
3 20 18 25
3 18 32 25
3 18 19 32
3 25 32 28
3 19 36 34
3 36 13 34
3 36 14 13
3 34 13 11
3 15 37 16
3 37 36 16
3 37 14 36
3 16 36 19
3 15 17 38
3 17 30 38
3 17 20 30
3 38 30 29
3 39 40 0
3 0 40 1
3 39 41 40
3 41 42 40
3 41 31 42
3 40 42 1
3 31 41 29
3 29 41 39
3 1 42 4
3 42 31 4
3 43 44 23
3 23 44 24
3 43 45 44
3 45 46 44
3 45 39 46
3 44 46 24
3 39 45 29
3 29 45 43
3 24 46 0
3 46 39 0
3 47 48 23
3 23 48 43
3 47 49 48
3 49 50 48
3 49 38 50
3 48 50 43
3 38 49 15
3 15 49 47
3 43 50 29
3 50 38 29
3 37 51 14
3 14 51 21
3 37 52 51
3 52 53 51
3 52 47 53
3 51 53 21
3 47 52 15
3 15 52 37
3 21 53 23
3 53 47 23

CELL_TYPES 104
5
5
5
5
5
5
5
5
5
5
5
5
5
5
5
5
5
5
5
5
5
5
5
5
5
5
5
5
5
5
5
5
5
5
5
5
5
5
5
5
5
5
5
5
5
5
5
5
5
5
5
5
5
5
5
5
5
5
5
5
5
5
5
5
5
5
5
5
5
5
5
5
5
5
5
5
5
5
5
5
5
5
5
5
5
5
5
5
5
5
5
5
5
5
5
5
5
5
5
5
5
5
5
5

CELL_DATA 104
SCALARS cell_data_0 double
LOOKUP_TABLE default
3.83787914546e-05
5.09343881327e-05
6.25139529401e-05
6.02232898082e-05
6.56766020494e-05
0.000148293998281
0.000192893819831
0.000124235031318
0.000193672699162
0.000127888471358
6.84302965492e-05
0.000115870071837
6.39372849728e-05
5.00406326859e-05
4.09601503794e-05
5.44131776612e-06
0.000521163814034
4.84454198593e-06
2.92702137612e-05
0.000113109915366
1.02099616173e-05
2.504194082e-05
7.7957805308e-05
4.93363992364e-05
3.3040465728e-05
4.73719648128e-05
3.96922882137e-05
6.47948534268e-05
0.00015041342838
5.03062391139e-05
0.000154075112591
0.000137937159706
9.66240120353e-05
5.36803413835e-06
0.00012825620585
8.88667420163e-05
5.371107205e-05
1.11958494702e-05
1.93488342956e-05
1.14873044938e-05
4.01842450373e-05
5.40610317606e-05
4.11293330773e-05
7.87327753395e-05
4.32513087851e-06
7.54232807646e-06
0.000131555796834
0.000106866100398
0.000142057969593
1.46146557156e-05
2.50377558871e-05
0.00010801403533
2.54095898985e-05
4.83781028464e-06
1.23971075936e-05
6.23742982282e-06
0.00062007804725
3.30401968467e-05
5.18008506076e-05
2.9015560892e-05
0.000511820276524
3.78463302542e-06
0.000114165574448
0.000106587085764
7.06254822982e-06
9.09583955957e-06
2.39745816709e-06
1.69176934174e-06
1.15818038926e-06
3.32967280382e-06
4.05450163557e-05
3.77915823543e-05
3.08734732869e-05
3.85104064444e-05
4.16453962113e-05
3.08554886169e-05
2.62004213123e-07
1.82082900931e-06
2.15308785837e-06
4.29864963175e-06
4.93875199163e-05
5.27152704129e-05
9.54406319169e-06
7.55964519794e-06
5.64962132874e-05
4.45578719269e-05
1.53940932119e-06
8.0233898549e-08
1.27676783494e-07
5.95180150448e-07
0.000253255596544
0.000267667977307
4.43615633738e-05
4.91044019667e-05
2.38743268122e-05
1.26502540225e-05
7.07582666457e-06
1.56632973471e-07
1.57861453072e-06
2.2203884776e-06
0.000267690159605
0.000305925579848
5.74409456869e-05
5.62997444252e-05

