# vtk DataFile Version 3.0
File Name: Molecule/sphere_cent/sphere_cent_0-s4.vtk
ASCII
DATASET UNSTRUCTURED_GRID
FIELD FieldData 1
TIME 1 1 double
0.0
POINTS 516 double
0.904508497187 0.154508497188 -0.25
0.809016994375 0.309016994375 -0.5
0.850650808352 0.525731112119 0.0
0.5 0.809016994375 -0.309016994375
0.25 0.829833901363 -0.417374053247
0.25 0.904508497187 -0.154508497188
0.0 0.925325404176 -0.26286555606
0.0 1.0 0.0
-0.809016994375 -0.309016994375 -0.5
-0.809016994375 0.0 -0.5
-0.525731112119 0.0 -0.850650808352
-0.829833901363 -0.417374053247 -0.25
-0.850650808352 -0.525731112119 0.0
-0.925325404176 -0.26286555606 0.0
-0.904508497187 -0.154508497188 -0.25
-1.0 0.0 0.0
-0.675325404176 -0.667374053247 0.154508497188
-0.829833901363 -0.417374053247 0.25
-0.904508497187 0.154508497188 0.25
-0.925325404176 0.26286555606 0.0
-0.904508497187 -0.154508497188 0.25
-0.675325404176 -0.667374053247 -0.154508497188
0.5 -0.809016994375 -0.309016994375
0.675325404176 -0.667374053247 -0.154508497188
0.5 -0.809016994375 0.0
0.675325404176 -0.667374053247 0.154508497188
0.0 -1.0 0.0
0.25 -0.904508497187 0.154508497188
0.0 -0.925325404176 0.26286555606
0.856762745781 0.077254248594 -0.375
0.904508497187 0.0 -0.25
0.856762745781 -0.077254248594 -0.375
1.0 0.0 0.0
0.606762745781 0.481762745782 -0.529508497188
0.654508497187 0.559016994375 -0.404508497188
0.559016994375 0.404508497188 -0.654508497187
0.481762745782 0.529508497188 -0.606762745781
0.529508497188 0.606762745781 -0.481762745782
0.404508497188 0.654508497187 -0.559016994375
0.0 0.850650808352 -0.525731112119
0.125 0.840242354857 -0.471552582683
0.154508497188 0.675325404176 -0.667374053247
0.375 0.856762745781 -0.077254248594
0.25 0.904508497187 0.0
0.375 0.856762745781 0.077254248594
0.25 0.904508497187 0.154508497188
0.5 0.809016994375 0.0
0.5 0.809016994375 0.309016994375
0.125 0.877579652769 -0.340119804654
0.0 0.887988106264 -0.394298334089
-0.125 0.952254248593 0.077254248594
-0.125 0.87757965277 0.340119804654
0.0 0.925325404176 0.26286555606
-0.25 0.904508497187 0.154508497188
0.0 0.850650808352 0.525731112119
-0.375 0.856762745781 0.231762745782
-0.25 0.829833901363 0.417374053247
-0.125 0.952254248593 -0.077254248594
-0.25 0.904508497187 0.0
-0.25 0.904508497187 -0.154508497188
-0.375 0.856762745781 -0.077254248594
-0.375 0.856762745781 0.077254248594
-0.5 0.809016994375 0.0
-0.5 0.809016994375 -0.309016994375
-0.5 0.809016994375 0.154508497188
-0.5 0.809016994375 0.309016994375
-0.25 0.829833901363 -0.417374053247
-0.675325404176 0.667374053247 0.154508497188
-0.654508497187 0.559016994375 0.404508497188
-0.819425447869 0.363195523811 0.375
-0.809016994375 0.309016994375 0.5
-0.231762745782 0.375 0.856762745781
-0.154508497188 0.25 0.904508497187
-0.077254248594 0.375 0.856762745781
-0.154508497188 0.5 0.809016994375
0.0 0.5 0.809016994375
0.0 0.25 0.904508497187
0.077254248594 0.375 0.856762745781
0.154508497188 0.25 0.904508497187
-0.077254248594 0.125 0.952254248593
0.077254248594 0.125 0.952254248593
0.154508497188 0.5 0.809016994375
0.231762745782 0.375 0.856762745781
-0.340119804654 0.125 0.87757965277
0.340119804654 0.125 0.87757965277
0.417374053247 0.25 0.829833901363
0.525731112119 0.0 0.850650808352
0.309016994375 -0.5 -0.809016994375
0.231762745782 -0.375 -0.856762745781
0.417374053247 -0.25 -0.829833901363
0.340119804654 -0.125 -0.87757965277
0.154508497188 -0.25 -0.904508497187
0.525731112119 0.0 -0.850650808352
0.077254248594 -0.125 -0.952254248593
0.26286555606 0.0 -0.925325404176
0.0 0.0 -1.0
0.154508497188 -0.5 -0.809016994375
0.077254248594 -0.375 -0.856762745781
0.0 -0.5 -0.809016994375
-0.077254248594 -0.375 -0.856762745781
0.0 -0.25 -0.904508497187
-0.154508497188 -0.25 -0.904508497187
-0.154508497188 -0.5 -0.809016994375
-0.231762745782 -0.375 -0.856762745781
-0.077254248594 -0.125 -0.952254248593
0.231762745782 -0.587662702088 -0.738195523811
0.077254248594 -0.587662702088 -0.738195523811
0.154508497188 -0.675325404176 -0.667374053247
-0.154508497188 -0.675325404176 -0.667374053247
-0.26286555606 0.0 -0.925325404176
-0.340119804654 -0.125 -0.87757965277
-0.417374053247 -0.25 -0.829833901363
0.404508497188 0.654508497187 0.559016994375
0.481762745782 0.529508497188 0.606762745781
0.529508497188 0.606762745781 0.481762745782
0.606762745781 0.481762745782 0.529508497188
0.559016994375 0.404508497188 0.654508497187
0.654508497187 0.559016994375 0.404508497188
0.309016994375 0.5 0.809016994375
-0.667374053247 0.154508497188 -0.675325404176
-0.856762745781 -0.077254248594 -0.375
-0.904508497187 0.0 -0.25
-0.856762745781 0.077254248594 -0.375
-0.904508497187 0.154508497188 -0.25
-0.809016994375 0.309016994375 -0.5
-0.309016994375 0.5 -0.809016994375
-0.356762745782 0.577254248593 -0.684016994375
-0.154508497188 0.675325404176 -0.667374053247
-0.434016994375 0.452254248594 -0.731762745781
-0.481762745782 0.529508497188 -0.606762745781
-0.542374053247 0.202254248594 -0.75257965277
-0.417374053247 0.25 -0.829833901363
-0.559016994375 0.404508497188 -0.654508497187
-0.5 -0.809016994375 -0.309016994375
-0.375 -0.856762745781 -0.231762745782
-0.5 -0.809016994375 -0.154508497188
-0.375 -0.856762745781 -0.077254248594
-0.25 -0.904508497187 -0.154508497188
-0.5 -0.809016994375 0.0
-0.25 -0.904508497187 0.0
-0.375 -0.856762745781 0.077254248594
-0.25 -0.904508497187 0.154508497188
-0.5 -0.809016994375 0.309016994375
-0.375 -0.819425447869 -0.363195523811
-0.25 -0.867171199275 -0.285941275218
-0.25 -0.829833901363 0.417374053247
-0.654508497187 -0.559016994375 0.404508497188
-0.742171199275 -0.488195523811 0.327254248594
-0.577254248593 -0.684016994375 0.356762745782
-0.819425447869 -0.363195523811 0.375
-0.731762745781 -0.434016994375 0.452254248594
-0.481762745781 -0.529508497187 0.606762745782
-0.559016994375 -0.404508497188 0.654508497187
-0.309016994375 -0.5 0.809016994375
-0.404508497188 -0.654508497187 0.559016994375
-0.809016994375 0.154508497188 0.5
-0.667374053247 0.154508497188 0.675325404176
-0.667374053247 0.0 0.675325404176
-0.809016994375 0.0 0.5
-0.525731112119 0.0 0.850650808352
-0.667374053247 -0.154508497188 0.675325404176
-0.809016994375 -0.154508497188 0.5
-0.856762745781 0.231762745782 0.375
-0.856762745781 0.077254248594 0.375
-0.904508497187 0.0 0.25
-0.856762745781 -0.077254248594 0.375
-0.856762745781 -0.231762745782 0.375
-0.867171199275 0.285941275218 0.25
-0.829833901363 0.417374053247 0.25
-0.809016994375 -0.309016994375 0.5
-0.867171199275 -0.285941275218 0.25
-0.434016994375 -0.452254248594 -0.731762745781
-0.542374053247 -0.202254248594 -0.75257965277
-0.559016994375 -0.404508497188 -0.654508497187
-0.452254248594 -0.731762745781 -0.434016994375
-0.577254248593 -0.684016994375 -0.356762745782
-0.529508497188 -0.606762745781 -0.481762745782
-0.654508497187 -0.559016994375 -0.404508497188
-0.404508497188 -0.654508497187 -0.559016994375
-0.327254248594 -0.742171199275 -0.488195523811
-0.25 -0.829833901363 -0.417374053247
0.375 -0.819425447869 -0.363195523811
0.375 -0.856762745781 -0.231762745782
0.25 -0.867171199275 -0.285941275218
0.25 -0.904508497187 -0.154508497188
0.125 -0.952254248593 -0.077254248594
0.0 -0.925325404176 -0.26286555606
0.375 -0.856762745781 0.0772542485935
0.5 -0.809016994375 0.309016994375
0.542374053247 -0.202254248594 -0.75257965277
0.434016994375 -0.452254248594 -0.731762745781
0.577254248593 -0.684016994375 -0.356762745782
0.404508497188 -0.654508497187 -0.559016994375
0.481762745782 -0.529508497188 -0.606762745781
0.356762745782 -0.577254248593 -0.684016994375
0.75257965277 -0.542374053247 -0.202254248594
0.279508497188 -0.664916950682 -0.613195523811
0.25 -0.829833901363 -0.417374053247
-0.077254248594 0.125 -0.952254248593
0.154508497188 0.25 -0.904508497187
-0.154508497188 0.25 -0.904508497187
-0.077254248594 0.375 -0.856762745781
-0.231762745782 0.375 -0.856762745781
-0.154508497188 0.5 -0.809016994375
0.0 0.5 -0.809016994375
-0.340119804654 0.125 -0.87757965277
0.809016994375 -0.309016994375 -0.5
0.856762745781 -0.231762745782 -0.375
0.829833901363 -0.417374053247 -0.25
0.87757965277 -0.340119804654 -0.125
0.904508497187 -0.154508497188 -0.25
0.850650808352 -0.525731112119 0.0
0.809016994375 0.154508497188 -0.5
0.667374053247 0.154508497188 -0.675325404176
0.667374053247 0.0 -0.675325404176
0.809016994375 0.0 -0.5
0.667374053247 -0.154508497188 -0.675325404176
0.809016994375 -0.154508497188 -0.5
0.925325404176 0.26286555606 0.0
0.75257965277 0.542374053247 -0.202254248594
0.675325404176 0.667374053247 -0.154508497188
0.577254248593 0.684016994375 -0.356762745782
0.309016994375 0.5 -0.809016994375
0.434016994375 0.452254248594 -0.731762745781
0.417374053247 0.25 -0.829833901363
0.542374053247 0.202254248594 -0.75257965277
0.684016994375 0.356762745782 -0.577254248593
0.327254248594 0.742171199275 -0.488195523811
0.279508497188 0.664916950682 -0.613195523811
0.202254248594 0.752579652769 -0.542374053247
0.356762745782 0.577254248593 -0.684016994375
0.231762745782 0.587662702088 -0.738195523811
0.5 0.809016994375 -0.154508497188
0.675325404176 0.667374053247 0.0
0.675325404176 0.667374053247 0.154508497188
0.5 0.809016994375 0.154508497188
0.25 0.829833901363 0.417374053247
-0.125 0.877579652769 -0.340119804654
-0.125 0.914916950682 -0.208687026624
-0.25 0.867171199275 -0.285941275218
-0.375 0.856762745781 -0.231762745782
-0.375 0.819425447869 -0.363195523811
-0.675325404176 0.667374053247 -0.154508497188
-0.675325404176 0.667374053247 0.0
-0.587662702088 0.738195523811 -0.231762745782
-0.762988106264 0.596552582683 0.077254248594
-0.762988106264 0.596552582683 -0.077254248594
-0.850650808352 0.525731112119 0.0
-0.577254248593 0.684016994375 0.356762745782
-0.404508497188 0.654508497187 0.559016994375
-0.481762745781 0.529508497187 0.606762745782
-0.309016994375 0.5 0.809016994375
-0.587662702088 0.738195523811 0.231762745782
-0.664916950682 0.613195523811 0.279508497188
-0.752579652769 0.542374053247 0.202254248594
-0.742171199275 0.488195523811 0.327254248594
[...]
CELL_DATA 1028
SCALARS cell_data_0 double
LOOKUP_TABLE default
9.29824007668e-07
4.54878773918e-07
1.585126791e-06
2.97714561698e-06
1.35825399628e-06
1.12879043491e-06
2.1356539061e-07
5.46323371729e-07
3.30554024219e-07
8.61473365526e-07
1.26171464306e-06
1.16656370417e-06
2.87465201202e-07
3.56622025656e-07
4.77023685756e-07
4.26417737227e-07
9.4660604638e-07
1.17679439056e-07
3.08421603134e-07
3.93272362749e-07
5.6949905823e-07
5.88873902042e-07
4.33801544449e-07
8.98197813902e-07
3.16650775936e-07
3.58987134075e-09
2.43410932158e-07
5.73492284e-07
5.88868485656e-07
4.67768321036e-07
4.71281390228e-07
2.76034125208e-07
1.47291647449e-07
1.9531741256e-07
2.14644425493e-07
3.2791406257e-07
6.84738731548e-07
3.3770029516e-07
4.7440508194e-07
9.24633692924e-07
3.15352123284e-07
9.75136684512e-08
6.00429242898e-07
2.37440396207e-07
3.13847395447e-07
8.40338944534e-08
4.58873614752e-07
2.85091929588e-07
6.31563896118e-07
6.3869943097e-07
7.20796493098e-07
1.74053255162e-07
5.60393747077e-07
4.16038128473e-07
4.19681390512e-07
4.59568068175e-07
9.12643315151e-07
7.23913974275e-07
1.51698321691e-07
4.06833327079e-07
6.63963374665e-08
6.42357103115e-08
5.63797753865e-07
3.33319848231e-07
4.05780994917e-07
3.72465539791e-08
4.61342399759e-07
4.65535585319e-07
2.88649240857e-07
6.97874412303e-08
8.24623037746e-07
4.94535672744e-07
4.44162954158e-08
8.63025234413e-07
6.99898289008e-07
6.4711801285e-07
1.4957181968e-07
5.7236708974e-07
3.65905924815e-08
2.70246609968e-07
4.42329797484e-07
1.26556930877e-06
7.31517744424e-07
1.19843210056e-07
1.05355873598e-07
4.6272359889e-07
5.63195237921e-07
6.79036453336e-07
5.43207761937e-07
7.00250064768e-07
1.89788524695e-07
1.67383068596e-07
3.74359254373e-07
1.32918603374e-07
1.78991021197e-07
7.62162962316e-07
7.18358060349e-07
3.14725717674e-07
3.31716682489e-07
2.47097228577e-07
2.48389777475e-07
1.63142170639e-08
3.72948293715e-07
5.79239459117e-07
1.78867183578e-07
7.10973967612e-08
1.79674878896e-08
5.76667246239e-07
3.91053192201e-07
3.25565642544e-07
1.15565969906e-07
5.19283461285e-07
3.49113270805e-07
2.60097941536e-07
1.00358011667e-06
3.17582412982e-07
3.55715876119e-07
2.2707288064e-07
2.17661871626e-07
6.76485168529e-07
2.64852205016e-07
4.42920800723e-07
9.11325142354e-07
8.70564752924e-07
7.35785736317e-08
3.16780673995e-07
2.72444739024e-07
2.24464616969e-07
2.55431379573e-07
1.10608562095e-06
8.83078163018e-07
2.84351455832e-07
5.47111830254e-07
5.78110355532e-07
8.25808160104e-07
7.79353315082e-07
5.24228220135e-07
8.46374108067e-07
5.79578784428e-07
4.36306022399e-07
6.64780121505e-08
9.76952729855e-07
2.93200231966e-07
8.29760706352e-07
7.93741947883e-08
1.18788858695e-06
8.03402174797e-07
6.99794744436e-07
6.48190090221e-07
1.54216483058e-07
1.34651831536e-07
3.38614458267e-07
7.80585798895e-07
1.58755120895e-08
1.21814237033e-06
1.05738974546e-06
4.51686733392e-08
3.60551333043e-07
1.22275728272e-07
4.17404857964e-07
4.3362062974e-07
3.79265225089e-07
3.7071476449e-07
1.70355203651e-08
3.51609763464e-08
2.16690611776e-07
5.32120028623e-07
8.02028451312e-07
8.51262941256e-07
6.93905306852e-07
4.57313789444e-07
4.17681402336e-08
4.04042009359e-07
3.99901100454e-07
6.0443930825e-07
3.98431392969e-07
1.36222174679e-07
1.78184738156e-07
8.50133399548e-08
6.06943115102e-07
2.99263878621e-07
9.80810755834e-08
1.77895547724e-07
2.29019115609e-07
2.29682738925e-07
4.76282090132e-07
1.71476164946e-07
3.10926273318e-07
6.08059858004e-07
1.82585163538e-06
6.4050239416e-07
2.62574102984e-08
4.55775276027e-08
5.72380087392e-08
9.74751459824e-08
6.16928788855e-08
9.36383030311e-07
8.47874006839e-08
6.2714219355e-07
8.04050322856e-08
4.47896092807e-07
5.87496569965e-08
6.23927125922e-07
2.78432983482e-07
1.84903755145e-07
1.22385203888e-07
7.16913804413e-07
3.3271461024e-07
4.57902351018e-07
4.55415142161e-09
9.60757446728e-07
2.57258703758e-07
1.94707168188e-08
6.15654452867e-07
9.45320040558e-07
5.30395130983e-08
4.52568389757e-07
2.16749427987e-08
1.04031938407e-07
2.22533803878e-07
2.79462730882e-07
3.50465229493e-08
6.70988714355e-07
4.07233446148e-07
6.39191875955e-07
8.54072473016e-07
1.32059113528e-06
4.37800703723e-07
5.83214303513e-07
2.4074824199e-07
4.04693315757e-07
6.77854871219e-07
5.34892447792e-07
6.82296647937e-07
3.13518526441e-07
1.07529781919e-07
8.42163898562e-07
6.33023001268e-07
2.73009419464e-07
3.00156158747e-07
7.38879007704e-07
2.15527868913e-07
3.36403594303e-07
2.45697358887e-07
7.86757340962e-07
1.9839794681e-07
7.67283840156e-08
2.20573031571e-07
2.16920657302e-07
8.9205765283e-08
5.41559934425e-08
1.94496086079e-07
1.10831159139e-06
1.03662892575e-07
3.53398521069e-07
1.83287404993e-08
7.52385754098e-08
2.81665069925e-07
5.73831304375e-08
4.32074350456e-07
6.29046959602e-07
7.67504070621e-07
7.05118298984e-07
5.05723040195e-07
3.87564270396e-07
6.31329713739e-07
6.82778846642e-07
1.02571559467e-06
6.53316904749e-07
4.6960184297e-08
3.99246383072e-07
2.31178308676e-07
1.57048185736e-07
1.58268114748e-07
2.87949595007e-07
9.81535451868e-08
3.00907076287e-07
2.19460116973e-08
4.42340521974e-07
1.75741037207e-07
2.32088099785e-07
1.25002595622e-08
1.71626631326e-07
3.77526423349e-07
2.63798842006e-07
7.31973344529e-07
9.08945349426e-07
2.40669007954e-07
8.3528770431e-08
2.00392367166e-07
1.74091806556e-07
2.75273853399e-07
2.43234918856e-07
9.86142660879e-08
3.00710740505e-08
5.90680964491e-07
2.2592512198e-07
3.48595257916e-08
9.01303958666e-07
1.33570522078e-07
3.86144239681e-07
1.38678152747e-07
1.74828475697e-07
7.08987618304e-07
7.66584841231e-07
4.41918685328e-07
2.41830357241e-07
2.58447845744e-08
8.46788490044e-07
4.09482424218e-07
4.61431567228e-07
4.44496865954e-07
1.88214867282e-07
1.59031321129e-07
9.34774758443e-10
1.25610081494e-08
3.63202201182e-07
2.44414799424e-07
8.58252845261e-07
3.97110960168e-07
4.66979661766e-07
1.66069538842e-07
7.54125328026e-07
4.57821652439e-07
6.92968639173e-07
2.70059686306e-07
5.94731007684e-08
4.98447032396e-07
9.75459271145e-07
1.0422137231e-07
8.52760474357e-07
3.91540135997e-07
3.95389174008e-07
2.31900056254e-07
1.55659003089e-07
4.49001414925e-07
4.33392399097e-07
8.77585109186e-07
3.4788661435e-07
3.84422803967e-07
7.5449519112e-08
4.02091004482e-07
5.61801637264e-07
5.17107163222e-08
6.5594020469e-07
1.46570193036e-07
8.55173403727e-08
3.05682060331e-07
1.10823958412e-08
1.81909051484e-07
1.85169490766e-07
1.15674322427e-07
6.64105460461e-07
7.35332944579e-07
1.23754326814e-07
5.7929083226e-09
6.29393741985e-08
7.73181537402e-07
1.1323573801e-07
1.56286117516e-07
7.76364778993e-08
1.41035556156e-07
1.12863651517e-07
2.30325994866e-07
1.39977985375e-07
1.29770997366e-07
7.63542434439e-08
6.95916664461e-07
8.73038175051e-08
2.48381854663e-08
7.06755633393e-08
5.44052041741e-07
6.86983026806e-07
2.41718501147e-07
1.97441856903e-07
3.91706024143e-07
1.9090798617e-08
8.45024835768e-08
6.4620490047e-08
1.1877432599e-07
9.76265300724e-08
1.56118030184e-07
7.64771250611e-07
1.75494500403e-07
1.69360955922e-07
1.85486887231e-07
3.08777443907e-07
7.76381908189e-07
4.81903093756e-07
1.95718132053e-07
4.59224724046e-08
3.04508680673e-07
5.3534744165e-07
1.57369787725e-07
3.39291457882e-07
2.60199171609e-07
1.64875041422e-07
1.07738016335e-07
3.73220075045e-07
9.92306500551e-08
2.83203038626e-07
3.55066214748e-08
1.39194963332e-07
4.26384280896e-07
2.46411732608e-07
3.30646431872e-08
7.78766079833e-07
4.15677616008e-08
2.04315399521e-07
1.12541841943e-06
6.60397182622e-07
1.11197896753e-07
3.86538107138e-08
1.03069500997e-07
3.17555703672e-08
2.3587642599e-07
5.47321292887e-07
1.58931189053e-07
8.12020224043e-07
3.30759671287e-08
1.89900680353e-08
8.0714242351e-08
9.11451938701e-08
3.28223023403e-07
3.10235242531e-07
9.13081125484e-08
3.46639022607e-07
1.72627857899e-07
2.59351700242e-07
2.39921473185e-08
1.48260592506e-07
1.23003354634e-07
6.74630698897e-07
4.48791922025e-07
4.85918729917e-08
3.70732798749e-07
4.15644077265e-07
4.86973150135e-07
2.84505449912e-07
3.76020524332e-07
1.85241925059e-07
2.78145734764e-07
3.06374768222e-07
1.9137928762e-07
7.33574765128e-08
1.11622821823e-07
3.93618108606e-07
5.4604954771e-07
4.4796319289e-07
3.25661690345e-07
2.45055338831e-07
1.1422230234e-07
8.62245925617e-07
4.86106158009e-07
6.19367513607e-07
7.33282185786e-07
5.76866937754e-07
1.22743276628e-07
8.17594630613e-07
4.26371824696e-07
4.99383830099e-07
5.02496555149e-08
4.99661197986e-08
4.3314623105e-08
4.96411457945e-07
5.41050437795e-07
3.52808653409e-07
2.51529928379e-07
4.19219848514e-07
6.80144019534e-07
7.0491884477e-08
1.26177012261e-08
2.6926489542e-07
7.1443280593e-07
7.66239990443e-07
2.14165520003e-07
9.72437450456e-08
3.35740458625e-07
1.66325923984e-07
3.26267249014e-07
2.27515295764e-07
1.29540350902e-07
1.0250162833e-07
3.2518425726e-07
1.76341900666e-07
1.51530266999e-07
9.54150292226e-08
2.69784051886e-07
9.75147275294e-08
3.62197319105e-07
3.20781219964e-07
3.26193768438e-07
8.10208627004e-08
2.70758142378e-07
2.17539496758e-07
4.18739128113e-07
5.55989956227e-08
2.17185628085e-07
8.22345638325e-08
1.87426228073e-07
4.57204362832e-09
2.11764039071e-08
1.505660276e-08
2.58178982527e-07
2.7078671314e-09
3.35867033434e-07
5.12053530357e-07
8.2313781188e-08
3.70930776314e-08
1.01158058576e-07
9.83800100724e-08
3.26337250666e-07
8.2922437959e-08
2.21811864954e-07
3.75201898737e-07
3.783606786e-07
1.03229163057e-06
3.27429547283e-07
5.77463533827e-09
6.58812863566e-08
8.93441101344e-08
1.82555196658e-07
4.28562536994e-07
2.10780596664e-07
9.45577162136e-08
2.73192922982e-07
2.19007759224e-07
5.73773369933e-07
4.24099809844e-07
5.90663023505e-07
3.61640220274e-08
1.60137439837e-07
8.4725865017e-08
1.51341751615e-08
2.25978939378e-07
3.54916968048e-08
1.55062253101e-07
7.79106764022e-07
7.44786747875e-07
4.58465143606e-07
2.7394343764e-07
5.72285957632e-07
1.65931696787e-08
1.38211723691e-07
7.95827417556e-08
5.82210601233e-08
4.77383033071e-08
4.82156005836e-08
1.38107408131e-07
1.17544352118e-07
8.73659971907e-08
1.66537043924e-08
1.8443120184e-07
6.77324860292e-07
2.15807297152e-07
2.20666679173e-08
2.3176873484e-07
1.17183449121e-07
1.96487304504e-07
5.86879972889e-07
5.04630458917e-07
2.6412259967e-07
1.01941149333e-07
3.47395197616e-07
2.65937625884e-07
2.26388410977e-07
3.52207696284e-08
3.59709543769e-08
1.14335651402e-07
9.18338622505e-07
3.2890575107e-07
6.83770683965e-08
8.83502770422e-08
1.332189036e-07
8.30027807604e-08
1.76474906882e-07
2.58301174348e-07
7.54821376453e-08
3.25754189285e-07
1.54415065208e-07
7.61988362766e-07
1.60980443899e-07
7.74123301885e-08
1.01874495048e-07
1.70733923777e-07
3.47079891614e-07
6.40758927392e-07
6.39684067884e-08
6.1327105608e-10
2.95759474592e-07
2.04653307877e-07
3.2737575877e-07
1.56853482322e-07
4.70885975142e-07
2.23689605294e-08
9.0798276552e-08
5.49507927181e-07
2.51445437582e-07
1.08584382372e-07
1.37219579523e-07
4.23111007486e-08
7.24417650516e-07
5.75966426454e-07
7.07147628914e-09
5.92214009523e-08
1.07098589006e-07
2.48145695215e-07
3.63143079167e-07
2.9747157349e-07
4.19302594996e-07
1.82382955228e-07
1.68189516578e-07
7.83682708433e-07
6.03340190368e-08
2.3765351332e-07
6.33567656842e-08
6.87882183211e-08
6.97739623585e-07
8.55896466717e-07
1.48260071612e-07
2.76635253592e-07
8.28545991677e-08
2.52399371114e-07
5.66798854335e-07
3.92109952518e-07
4.53962036065e-07
2.7991915096e-08
8.28733169372e-08
2.36153561696e-07
5.9011454521e-08
5.11230340757e-08
1.05975884935e-07
9.79809194706e-09
9.8936830069e-07
1.86929799432e-07
2.40507483307e-09
8.27377141972e-08
4.51945166476e-07
1.30884000076e-07
2.92050972477e-07
5.32599974308e-07
5.65943307734e-07
6.77146245983e-07
1.5319296886e-07
2.33286127253e-07
2.26322556504e-07
1.11515037042e-07
3.26876703259e-07
3.06048962056e-07
7.40960624586e-08
9.6542991677e-08
3.68350481212e-08
2.09758610848e-07
8.01156554813e-08
2.63682161004e-07
2.45757744147e-07
8.29896118848e-08
8.95530563899e-07
7.43780661719e-07
1.90961894594e-07
1.54995040825e-08
1.86768719003e-07
4.46243218676e-08
4.64589472559e-07
2.08974953616e-07
2.08090576613e-07
8.55885467388e-07
3.87455429819e-07
3.63929063033e-07
1.93099143884e-07
2.56975860612e-09
3.6258450671e-07
3.56891266873e-07
1.02187595972e-07
1.34257929792e-07
2.34574512537e-07
3.98259248292e-07
4.99995150761e-07
3.14756842218e-07
4.24452949415e-07
2.22857339468e-07
7.7153751877e-07
1.12765939895e-06
3.61605359552e-07
1.2486355517e-07
9.17041017007e-07
8.50687635021e-07
1.95693393255e-07
5.38625659008e-07
5.95611064418e-07
1.81152805737e-07
1.33051282262e-07
2.71580228374e-07
6.51632325204e-07
9.14959425185e-07
4.08242146973e-07
3.30227438876e-07
3.3400779257e-07
2.71842826878e-07
3.4844229759e-07
3.69144735697e-08
1.81619879216e-08
7.01261378338e-09
4.68460490163e-08
2.80333051457e-08
1.171622418e-07
2.23645586139e-07
2.87846870845e-08
5.25903101731e-08
8.23992512298e-08
1.06054538492e-07
4.31253803743e-08
2.54027693598e-07
3.04480020587e-07
2.03608760202e-08
3.62447421899e-07
7.25553180323e-08
1.66073789238e-07
1.80727132974e-07
2.42609548941e-07
1.1074779998e-07
4.57535797797e-07
2.90417774934e-08
2.89247824099e-07
7.62267517282e-08
9.67194503856e-08
2.180969334e-07
1.15258201455e-07
5.41182066125e-08
2.24933447207e-07
1.38123659682e-07
3.31778818731e-07
2.14453827499e-07
2.2279832236e-07
6.77443431565e-07
2.39031543698e-07
4.90128458276e-07
2.01709828329e-08
3.26742178446e-07
4.9990397291e-07
1.23336730593e-07
4.4336640388e-07
3.33981061522e-07
4.08269594723e-07
6.8090919452e-07
3.62148109817e-07
2.64787866387e-07
1.9075145294e-07
1.16919593221e-08
3.17844105983e-08
2.20847718705e-07
4.89558500234e-07
4.18441891913e-07
5.92521934015e-07
7.38458958509e-07
4.40945244225e-07
4.661061563e-07
4.76366243609e-07
3.34975322473e-07
2.72573291418e-07
6.46243224711e-08
1.38159468762e-07
7.15625336417e-07
2.77389840782e-07
2.45700863082e-07
2.27610098628e-07
6.15238908964e-08
1.76577063598e-09
4.56473440119e-08
4.99428009951e-07
2.60809592141e-08
3.16704977985e-07
7.88957889384e-08
2.68172453535e-07
2.84283359173e-07
1.16677495577e-07
1.27095540179e-07
1.05071497309e-07
3.13853847135e-08
1.14841127144e-07
1.93126840497e-07
2.82825266783e-07
1.78956869587e-08
1.52066382226e-08
1.90448185744e-07
3.67594600808e-08
4.37076106241e-08
1.68576844544e-08
3.11525103847e-08
1.4858703742e-08
6.9219943496e-08
1.95149020426e-07
2.32815057894e-07
1.25723990067e-08
1.87035107717e-08
9.6288371064e-08
4.8549683749e-08
1.88360418571e-07
4.88474178912e-07
1.65880189973e-07
8.95317101194e-08
2.66288650623e-07
7.12998440681e-08
2.04727368675e-07
4.16821356564e-08
3.34480908453e-08
1.57518278445e-07
3.02183703836e-07
3.93851835509e-07
1.41359858527e-07
1.97293505999e-07
2.31734129262e-07
1.56500748685e-07
5.11832830634e-08
4.03975731632e-07
3.41383339507e-07
7.70285901117e-08
1.34876528005e-08
3.53991849867e-07
7.18372345998e-08
3.37582313287e-08
5.63444685824e-07
2.82475306205e-07
2.2497087031e-07
1.53979585211e-07
1.49752872721e-07
1.53413554361e-08
1.37908441777e-09
2.34051401816e-07
7.43129874429e-08
3.80169042166e-07
7.49806273803e-08
6.38138366446e-08
1.27717362347e-07
1.80430410173e-07
8.44691028851e-08
7.46691080087e-08
1.35539063906e-07
1.1835481111e-07
4.1385431034e-08
4.22431540422e-07
2.56362609314e-08
2.94358103289e-07
1.33533092195e-07
3.20714563757e-07
3.29496253306e-07
1.35039449552e-08
4.87693777531e-07
5.6444213344e-08
3.41186166761e-07
1.99332053194e-07
1.6100454734e-07
5.60596170917e-07
4.76433956811e-08
1.47926861682e-08
2.30895466184e-07
3.24041925616e-09
8.93980214601e-08
1.53188704642e-07
2.57803980636e-07
7.64908592333e-07
3.74241046755e-07
9.56889466696e-07
1.85618857417e-07
1.24390749263e-06
2.52643282604e-07
1.25797660666e-07
4.41833585144e-07
9.37909874331e-08
2.11483363312e-07
4.9419120037e-08
3.78485543048e-08
9.51723268218e-08
2.42265429893e-08
1.33446355532e-08
4.98725147922e-08
5.95530278441e-08
2.39712990074e-08
3.09241166477e-08
1.03183513626e-08
4.34164365555e-08
1.06221479307e-07
7.10780380183e-08
1.23466066317e-07
3.87978310988e-08
1.2763563315e-07
1.31075951767e-07
9.80792765689e-08
6.86683713496e-08
1.74629478018e-08
3.35850328427e-07
1.08611496192e-07
3.52707833017e-07
8.62774366951e-08
1.30713371201e-07
1.63206757581e-07
1.70428192493e-07
1.36836095347e-08
1.09236820661e-07
1.75845182349e-07
1.67513682184e-07
5.38562089912e-07
3.13953876914e-07
5.88752442769e-09
3.68146274204e-07
5.85170315595e-09
1.81224966244e-07
7.57905540929e-08
3.5670876791e-08
2.97975692582e-08
2.17438388575e-07
1.14795240278e-07
3.94687502995e-08
2.9279574385e-08
5.32164736549e-09
8.8851234022e-08
3.73785552632e-08
6.13087445743e-08
3.69014949473e-07
3.2670727055e-07
8.29184682715e-08
4.05139036423e-07
1.41810465463e-07
1.73854513279e-07
1.06616324611e-07
6.32122436117e-08
1.3176954466e-07
4.0587396882e-08
2.83921095433e-07
7.9352758314e-08
4.53070868027e-07
1.78312210023e-07
5.19049812379e-07
2.58505868295e-07
1.5687992469e-07
1.55625262963e-07
1.59024130502e-07
8.98663485443e-08
4.44116488001e-08
2.60316777278e-07
1.52964688817e-07
4.63497444219e-08
8.81348588064e-08
2.9061659626e-07
4.40474666277e-08
5.51376923525e-07
3.48869523193e-08
6.03578078442e-08
5.03668932815e-07
8.60506982117e-10
7.47496612905e-08
6.71594007877e-09
4.65129119875e-08
5.98669149901e-08
2.39927315589e-07
1.00840197921e-07
2.24198288757e-08
1.92335479318e-07
3.993707068e-07
7.11741476844e-08
4.29733018396e-07
3.26217386141e-07
2.87476075651e-07
4.59231805176e-07
1.77584704559e-08
6.01390073491e-08
1.16732629276e-08
2.6895580601e-08
2.75903668263e-07
1.1579897874e-07
4.72246796951e-08
5.34748921818e-08
6.42029036766e-08
5.05864025223e-08
1.99348360796e-07
4.72716843054e-09
2.94774880116e-08
2.75629539792e-07
2.9289619163e-07
3.12727536802e-07
1.64911139233e-07
1.10228527069e-07
1.99459995237e-08
2.17822581318e-07
2.12736741402e-07
8.61822693299e-08
5.96498448226e-08
2.5729127425e-07
9.8294166209e-08
5.92461630455e-08
5.41725608006e-08
1.70243740059e-07
5.30557097843e-08
1.84557447906e-08
5.20821740097e-08
6.25057407738e-08
9.54000821246e-08
4.96274510043e-08
4.56321941137e-08
4.20537229692e-08
2.2678465525e-07
7.34207352211e-08
1.33044390914e-07
3.96547166097e-08
8.92240957631e-08
4.42189455977e-08
5.92222935026e-08
1.77014715705e-07
4.79539989483e-08
5.7336234619e-07
6.25735252131e-07
1.96645110424e-07
1.52092199427e-07
3.02486401794e-07
1.13944272148e-07
2.21518277419e-08
6.91429723452e-08
8.63487380843e-08
1.12459022532e-07
2.83604167642e-08
2.07025229327e-07
1.79939690473e-07
6.51545035822e-07
1.07427405979e-06
4.61593294015e-07
6.47327006878e-07
5.3451941268e-07
3.84651375418e-07

