# vtk DataFile Version 3.0
File Name: Molecule/sphere_cent/sphere_cent_0-s5.vtk
ASCII
DATASET UNSTRUCTURED_GRID
FIELD FieldData 1
TIME 1 1 double
0.0
POINTS 1067 double
0.5 0.809016994375 -0.309016994375
0.25 0.829833901363 -0.417374053247
0.25 0.904508497187 -0.154508497188
0.0 -1.0 0.0
0.25 -0.904508497187 0.154508497188
0.0 -0.925325404176 0.26286555606
0.856762745781 0.077254248594 -0.375
0.904508497187 0.0 -0.25
0.856762745781 -0.077254248594 -0.375
0.809016994375 0.309016994375 -0.5
0.606762745781 0.481762745782 -0.529508497188
0.654508497187 0.559016994375 -0.404508497188
0.125 0.877579652769 -0.340119804654
0.125 0.840242354857 -0.471552582683
-0.654508497187 0.559016994375 0.404508497188
-0.819425447869 0.363195523811 0.375
-0.809016994375 0.309016994375 0.5
-0.154508497188 0.5 0.809016994375
-0.077254248594 0.375 0.856762745781
0.0 0.5 0.809016994375
0.0 0.25 0.904508497187
0.154508497188 0.25 0.904508497187
0.077254248594 0.375 0.856762745781
0.154508497188 0.5 0.809016994375
0.231762745782 0.375 0.856762745781
0.231762745782 -0.587662702088 -0.738195523811
0.154508497188 -0.675325404176 -0.667374053247
0.077254248594 -0.587662702088 -0.738195523811
0.0 -0.5 -0.809016994375
-0.154508497188 -0.675325404176 -0.667374053247
-0.154508497188 -0.25 -0.904508497187
-0.231762745782 -0.375 -0.856762745781
-0.340119804654 -0.125 -0.87757965277
0.404508497188 0.654508497187 0.559016994375
0.481762745782 0.529508497188 0.606762745781
0.529508497188 0.606762745781 0.481762745782
0.559016994375 0.404508497188 0.654508497187
0.606762745781 0.481762745782 0.529508497188
-0.904508497187 0.0 -0.25
-0.856762745781 0.077254248594 -0.375
-0.856762745781 -0.077254248594 -0.375
-0.667374053247 0.154508497188 -0.675325404176
-0.542374053247 0.202254248594 -0.75257965277
-0.525731112119 0.0 -0.850650808352
-0.559016994375 0.404508497188 -0.654508497187
-0.434016994375 0.452254248594 -0.731762745781
-0.559016994375 -0.404508497188 0.654508497187
-0.481762745781 -0.529508497187 0.606762745782
-0.309016994375 -0.5 0.809016994375
-0.809016994375 0.154508497188 0.5
-0.667374053247 0.154508497188 0.675325404176
-0.667374053247 0.0 0.675325404176
-0.809016994375 0.0 0.5
-0.809016994375 -0.154508497188 0.5
-0.856762745781 0.231762745782 0.375
-0.856762745781 0.077254248594 0.375
-0.867171199275 0.285941275218 0.25
-0.829833901363 0.417374053247 0.25
-0.809016994375 -0.309016994375 0.5
-0.856762745781 -0.231762745782 0.375
-0.819425447869 -0.363195523811 0.375
-0.867171199275 -0.285941275218 0.25
-0.829833901363 -0.417374053247 0.25
-0.452254248594 -0.731762745781 -0.434016994375
-0.577254248593 -0.684016994375 -0.356762745782
-0.529508497188 -0.606762745781 -0.481762745782
-0.654508497187 -0.559016994375 -0.404508497188
-0.404508497188 -0.654508497187 -0.559016994375
-0.327254248594 -0.742171199275 -0.488195523811
-0.25 -0.829833901363 -0.417374053247
-0.375 -0.819425447869 -0.363195523811
0.25 -0.867171199275 -0.285941275218
0.375 -0.856762745781 -0.231762745782
0.25 -0.904508497187 -0.154508497188
0.125 -0.952254248593 -0.077254248594
0.0 -0.925325404176 -0.26286555606
0.356762745782 -0.577254248593 -0.684016994375
0.404508497188 -0.654508497187 -0.559016994375
0.279508497188 -0.664916950682 -0.613195523811
0.25 -0.829833901363 -0.417374053247
0.856762745781 -0.231762745782 -0.375
0.904508497187 -0.154508497188 -0.25
0.87757965277 -0.340119804654 -0.125
0.809016994375 0.154508497188 -0.5
0.809016994375 0.0 -0.5
0.667374053247 0.0 -0.675325404176
0.525731112119 0.0 -0.850650808352
0.667374053247 -0.154508497188 -0.675325404176
0.809016994375 -0.154508497188 -0.5
0.809016994375 -0.309016994375 -0.5
0.75257965277 0.542374053247 -0.202254248594
0.850650808352 0.525731112119 0.0
0.675325404176 0.667374053247 -0.154508497188
0.577254248593 0.684016994375 -0.356762745782
0.279508497188 0.664916950682 -0.613195523811
0.202254248594 0.752579652769 -0.542374053247
0.327254248594 0.742171199275 -0.488195523811
0.154508497188 0.675325404176 -0.667374053247
0.404508497188 0.654508497187 -0.559016994375
0.356762745782 0.577254248593 -0.684016994375
0.231762745782 0.587662702088 -0.738195523811
0.309016994375 0.5 -0.809016994375
0.5 0.809016994375 -0.154508497188
0.675325404176 0.667374053247 0.0
0.5 0.809016994375 0.0
0.675325404176 0.667374053247 0.154508497188
0.5 0.809016994375 0.154508497188
-0.125 0.877579652769 -0.340119804654
-0.25 0.867171199275 -0.285941275218
-0.125 0.914916950682 -0.208687026624
-0.25 0.904508497187 -0.154508497188
-0.375 0.856762745781 -0.231762745782
-0.25 0.829833901363 -0.417374053247
-0.375 0.819425447869 -0.363195523811
-0.675325404176 0.667374053247 -0.154508497188
-0.675325404176 0.667374053247 0.0
-0.5 0.809016994375 0.0
-0.675325404176 0.667374053247 0.154508497188
-0.762988106264 0.596552582683 0.077254248594
-0.762988106264 0.596552582683 -0.077254248594
-0.577254248593 0.684016994375 0.356762745782
-0.481762745781 0.529508497187 0.606762745782
-0.587662702088 0.738195523811 0.231762745782
-0.664916950682 0.613195523811 0.279508497188
-0.752579652769 0.542374053247 0.202254248594
-0.742171199275 0.488195523811 0.327254248594
-0.840242354857 0.471552582683 0.125
-0.077254248594 -0.762988106264 -0.596552582683
0.356762745782 0.577254248593 0.684016994375
0.202254248594 0.75257965277 0.542374053247
0.154508497188 0.675325404176 0.667374053247
0.0 0.850650808352 0.525731112119
0.452254248594 0.731762745781 0.434016994375
-0.819425447869 -0.363195523811 -0.375
-0.867171199275 -0.285941275218 -0.25
-0.856762745781 -0.231762745782 -0.375
-0.856762745781 0.231762745782 -0.375
-0.904508497187 0.154508497188 -0.25
-0.867171199275 0.285941275218 -0.25
-0.819425447869 0.363195523811 -0.375
-0.829833901363 0.417374053247 -0.25
-0.914916950682 0.208687026624 -0.125
-0.877579652769 0.340119804654 -0.125
-0.840242354857 0.471552582683 -0.125
-0.925325404176 0.26286555606 0.0
-0.887988106264 0.394298334089 0.0
-0.154508497188 0.675325404176 -0.667374053247
-0.202254248594 0.752579652769 -0.542374053247
0.0 0.850650808352 -0.525731112119
-0.279508497188 0.664916950682 -0.613195523811
-0.327254248594 0.742171199275 -0.488195523811
-0.404508497188 0.654508497187 -0.559016994375
-0.452254248594 0.731762745781 -0.434016994375
-0.529508497188 0.606762745781 -0.481762745782
-0.654508497187 0.559016994375 -0.404508497188
-0.577254248593 0.684016994375 -0.356762745782
-0.664916950682 0.613195523811 -0.279508497188
-0.587662702088 0.738195523811 -0.231762745782
-0.742171199275 0.488195523811 -0.327254248594
-0.752579652769 0.542374053247 -0.202254248594
-0.731762745781 0.434016994375 -0.452254248594
-0.675325404176 -0.667374053247 -0.154508497188
-0.587662702088 -0.738195523811 -0.077254248594
-0.675325404176 -0.667374053247 0.0
-0.125 -0.840242354857 -0.471552582683
-0.125 -0.877579652769 -0.340119804654
0.0 -0.887988106264 -0.394298334089
-0.25 -0.904508497187 -0.154508497188
-0.125 -0.914916950682 -0.208687026624
-0.125 -0.952254248593 -0.077254248594
0.0 -0.962662702088 -0.13143277803
-0.877579652769 0.340119804654 0.125
-0.231762745782 -0.587662702088 -0.738195523811
-0.279508497188 -0.664916950682 -0.613195523811
-0.356762745782 -0.577254248593 -0.684016994375
-0.202254248594 -0.752579652769 -0.542374053247
-0.731762745781 -0.434016994375 -0.452254248594
-0.742171199275 -0.488195523811 -0.327254248594
-0.829833901363 -0.417374053247 -0.25
0.0 -0.850650808352 -0.525731112119
0.125 -0.840242354857 -0.471552582683
0.125 -0.877579652769 -0.340119804654
0.731762745781 -0.434016994375 -0.452254248594
0.684016994375 -0.356762745782 -0.577254248593
0.606762745781 -0.481762745782 -0.529508497188
0.654508497187 -0.559016994375 -0.404508497188
0.559016994375 -0.404508497188 -0.654508497187
0.340119804654 0.125 -0.87757965277
0.231762745782 0.375 -0.856762745781
0.417374053247 0.25 -0.829833901363
0.154508497188 0.25 -0.904508497187
0.077254248594 0.375 -0.856762745781
0.154508497188 0.5 -0.809016994375
0.0 0.5 -0.809016994375
0.077254248594 0.587662702088 -0.738195523811
0.0 0.675325404176 -0.667374053247
-0.363195523811 0.375 0.819425447869
-0.488195523811 0.327254248594 0.742171199275
-0.417374053247 0.25 0.829833901363
-0.542374053247 0.202254248594 0.752579652769
-0.471552582683 0.125 0.840242354857
-0.596552582683 0.077254248594 0.762988106264
-0.471552582683 -0.125 0.840242354857
-0.417374053247 -0.25 0.829833901363
-0.340119804654 -0.125 0.877579652769
-0.394298334089 0.0 0.887988106264
-0.26286555606 0.0 0.925325404176
-0.285941275218 -0.25 0.867171199275
-0.208687026624 -0.125 0.914916950682
-0.154508497188 -0.25 0.904508497187
-0.363195523811 -0.375 0.819425447869
-0.231762745782 -0.375 0.856762745781
-0.13143277803 0.0 0.962662702088
-0.077254248594 -0.125 0.952254248593
0.0 0.0 1.0
-0.154508497188 -0.5 0.809016994375
-0.077254248594 -0.375 0.856762745781
0.0 -0.5 0.809016994375
0.077254248594 -0.375 0.856762745781
0.0 -0.25 0.904508497187
0.154508497188 -0.25 0.904508497187
0.154508497188 -0.5 0.809016994375
0.231762745782 -0.375 0.856762745781
0.309016994375 -0.5 0.809016994375
0.077254248594 -0.125 0.952254248593
-0.231762745782 -0.587662702088 0.738195523811
-0.154508497188 -0.675325404176 0.667374053247
-0.077254248594 -0.587662702088 0.738195523811
0.0 -0.675325404176 0.667374053247
0.077254248594 -0.587662702088 0.738195523811
0.154508497188 -0.675325404176 0.667374053247
-0.077254248594 -0.762988106264 0.596552582683
0.077254248594 -0.762988106264 0.596552582683
0.231762745782 -0.587662702088 0.738195523811
0.13143277803 0.0 0.962662702088
0.208687026624 -0.125 0.914916950682
0.285941275218 -0.25 0.867171199275
0.363195523811 -0.375 0.819425447869
0.417374053247 -0.25 0.829833901363
0.340119804654 -0.125 0.877579652769
0.471552582683 -0.125 0.840242354857
0.488195523811 -0.327254248594 0.742171199275
0.542374053247 -0.202254248594 0.752579652769
0.613195523811 -0.279508497188 0.664916950682
0.559016994375 -0.404508497188 0.654508497187
0.434016994375 -0.452254248594 0.731762745781
[...]
CELL_DATA 2130
SCALARS cell_data_0 double
LOOKUP_TABLE default
2.8943168477e-07
1.16876758387e-06
4.05178474843e-07
1.43827446832e-07
4.93089115405e-07
8.46360292959e-08
6.54412018267e-07
1.92962023731e-08
5.47836101119e-07
3.82654081403e-07
1.03323730474e-07
2.99702529601e-07
3.35818013064e-07
1.80475432302e-07
2.51245607772e-08
3.82541643357e-08
1.97423214539e-07
4.88257234028e-07
4.55381742906e-07
6.46996558429e-07
1.61920968187e-07
2.35066854466e-07
1.4683385414e-06
2.15120778854e-07
1.72022818975e-08
1.09727694178e-08
1.23485487593e-06
3.23966544456e-07
8.95025398983e-07
1.20647914318e-07
1.34484763564e-07
2.69473384555e-07
3.45543300708e-07
2.77408789832e-07
5.38333129174e-08
9.50077349148e-08
8.41554916951e-08
2.42499272925e-07
3.14081415113e-07
1.52777477131e-07
2.73673722383e-07
3.14633492437e-07
8.6389853953e-08
8.93063736795e-08
8.65502421609e-07
9.60850326005e-07
1.625915463e-07
6.69760865798e-07
1.48646079344e-06
3.82394016258e-07
8.32933861096e-07
3.90718112818e-07
4.22549168138e-07
1.53275724772e-07
3.21239605665e-07
1.16373919119e-07
3.64201206941e-07
1.41495092859e-07
4.82234309635e-08
3.11015766091e-07
2.37029402188e-08
1.38573195662e-07
7.6677116534e-07
7.28602994572e-07
3.73381937293e-07
1.84577635819e-07
7.06963940134e-07
7.55486111857e-09
1.14439272396e-07
2.25470358436e-07
1.00208611435e-08
4.07686965563e-07
8.00487289017e-07
7.85901112296e-08
4.42279815062e-09
9.22624833117e-07
3.58872626621e-07
1.14552515488e-07
2.30620861757e-07
1.44328208846e-07
6.39457666455e-08
3.3079687579e-07
1.35399148524e-07
3.77413358134e-07
4.00662038515e-07
1.71589953428e-07
3.81869086384e-07
2.25335217997e-07
3.29623735652e-09
1.03011946625e-07
9.87409914747e-08
3.12129175234e-07
2.67050245171e-09
2.90837007785e-07
2.53725472497e-07
3.18510117043e-07
1.66190055256e-07
3.05239479135e-07
1.57571293287e-07
3.20898836185e-07
1.31624001178e-07
2.521471179e-08
2.4547864079e-08
9.55906871341e-08
2.03417982851e-07
1.49783411727e-07
4.08747344907e-08
2.0666515752e-07
2.74145517393e-07
1.38013781854e-07
2.00470190609e-08
2.98934739448e-07
2.28112197107e-07
3.57325267338e-07
3.07313476862e-09
1.38016156527e-08
1.27530259951e-07
1.94411264542e-07
2.42670259396e-07
2.20692936698e-07
2.177803463e-09
5.91343525846e-07
1.73058178023e-07
1.31420454193e-07
1.75464838714e-07
3.45981874837e-07
1.23367072314e-07
1.0988826767e-07
2.36804911586e-07
8.34727683619e-08
6.18469764405e-07
1.07841534189e-07
2.74287494922e-07
1.34863732476e-07
7.88369307998e-07
1.90449903514e-08
5.19065431558e-08
3.75682988509e-07
5.88734839775e-07
4.9014602568e-07
1.95741125125e-08
5.69113976556e-08
1.35252535159e-07
2.31072804839e-07
1.86972698397e-08
1.10277120691e-07
8.4664337628e-09
2.93270587503e-07
2.5314900325e-07
7.66422038945e-08
8.33394500636e-08
5.67778791208e-08
2.2682128469e-07
1.21910698101e-07
2.28354285148e-07
3.51214516277e-07
1.73387112028e-07
1.2979665052e-07
3.06960808705e-07
6.29475293299e-07
1.2514666865e-08
6.42331903086e-08
2.48686915691e-07
4.18178114698e-08
7.60422857061e-07
2.81204661291e-07
1.61370549317e-08
8.00350524341e-08
3.48834934204e-07
4.82662638637e-07
2.75815842024e-07
5.38517011126e-07
2.47706399271e-07
1.94481238223e-07
2.92680136518e-07
7.65943659437e-08
1.20148847337e-07
1.15967735015e-07
2.07448712896e-07
4.71107571586e-07
3.1645087214e-07
1.76707317411e-07
1.06576397197e-07
1.69540423215e-07
1.54640508156e-07
2.30776377637e-07
3.59862872116e-07
3.09893760817e-07
2.61433828997e-07
2.38868800496e-07
5.19426966815e-08
2.65298752348e-07
1.3363305544e-07
1.68581813533e-07
4.17693060816e-09
8.23150642875e-08
2.12020851392e-07
7.00350682367e-07
1.31063775373e-07
1.47872711841e-07
2.0966136922e-07
1.95708699181e-07
1.53747787417e-07
2.80834785847e-08
1.08493861321e-07
5.03262536428e-07
1.19361309378e-07
1.03796233193e-07
3.21909665799e-07
1.28291123134e-07
2.68606092783e-07
2.63609099328e-07
7.74806481814e-08
2.89917248356e-07
1.74155734074e-07
3.63726793124e-07
2.88485085828e-07
5.01590229085e-08
1.2818216992e-07
1.63687469685e-07
9.82345223872e-08
1.68122630199e-07
2.68975696757e-07
7.95015160502e-08
3.86463285238e-07
5.21170418541e-07
4.44848677908e-08
2.7375071586e-07
1.02673274313e-07
2.76097455214e-07
5.56186966883e-08
1.20463242305e-07
2.16935143883e-07
5.87702654756e-09
6.65951666661e-08
9.39480033854e-08
2.27450100626e-07
3.91765634037e-08
1.14418044071e-07
4.23475066742e-07
1.45944012429e-07
9.8663361028e-08
2.01736099403e-07
1.50427212795e-07
7.48772750382e-08
1.83135075874e-07
2.36386966959e-07
4.55890758649e-08
5.1396282002e-07
1.19567424055e-07
5.36469022579e-08
9.23003314028e-07
1.5508997852e-07
2.53827483332e-07
3.0021637178e-07
1.42620548366e-06
3.80893986074e-07
2.51080425963e-07
2.25531808096e-08
5.35146988956e-07
5.70185757798e-07
5.69371767108e-07
3.04645423987e-07
2.7072993324e-07
1.07698208893e-07
8.2377878038e-07
2.89344660722e-07
2.20923937449e-07
6.00125365929e-07
4.01393171841e-07
2.71004724245e-07
2.80346936681e-08
1.74745143738e-07
6.22896947865e-08
1.08042497184e-07
5.70654627205e-07
7.7634198983e-08
1.32614435379e-07
7.41569469537e-07
1.33415914133e-07
1.20569045515e-07
3.71075840087e-08
1.91595936255e-07
1.76427488942e-07
9.99694743635e-08
4.08145462595e-08
1.59092403228e-07
6.66222201464e-08
4.56983237996e-07
6.20840424709e-08
7.97134693514e-08
8.88293988629e-08
1.6283851042e-07
2.03493652172e-07
2.33554433319e-08
1.80811494964e-07
8.18042118074e-08
1.31551939418e-07
3.77010992461e-07
9.10549930307e-08
1.18257200357e-09
2.17003503003e-07
9.96668627451e-08
3.0605786309e-07
6.78312877214e-07
6.21375974088e-07
3.03201594204e-07
1.19619679573e-07
2.78530268766e-07
2.37947403112e-07
1.11399686566e-07
3.45742136078e-07
1.18468272553e-07
2.71593099212e-08
1.58870881632e-07
1.60426565253e-08
2.54029533467e-07
7.93257685696e-08
5.69554964919e-08
2.66492977136e-07
3.32389942403e-09
2.65508958513e-08
9.5166212894e-08
2.16311373397e-07
2.36831969708e-07
1.50476497246e-07
2.84824076656e-07
4.66077490091e-07
3.2105567358e-07
3.15976652831e-07
1.93187870979e-07
6.95394976831e-08
2.63314023974e-07
1.43546387838e-07
7.84571000393e-08
1.03342935633e-07
1.40236844884e-07
9.05127885186e-08
1.1730911386e-08
1.91715671566e-07
2.35886553161e-07
1.2969031905e-08
2.98862267581e-08
2.23340618725e-07
9.40048916041e-08
2.32262102864e-07
6.045694482e-07
1.64180351008e-08
1.58138904214e-07
1.53484965023e-07
2.29531916794e-07
3.02354545062e-07
2.30077930602e-07
2.5098417589e-07
2.49166805803e-07
1.36054911189e-07
6.20631929122e-08
1.75117610617e-07
1.6809804293e-07
3.98478284043e-07
3.91339632515e-07
2.8021217845e-07
2.06782819375e-07
8.56892492747e-08
4.99632106159e-07
2.27207828735e-07
1.87823390305e-07
1.70906673902e-08
2.53633482557e-07
7.55093736706e-08
9.41035738476e-07
1.53337328018e-07
6.75601872125e-08
4.18685488323e-08
1.07240254316e-07
1.55113667126e-07
2.33401533119e-07
4.77522020406e-08
1.97876888504e-07
3.97658599105e-07
4.12793884441e-07
3.52527483094e-07
3.59882830338e-07
4.06254843928e-07
4.05706112271e-07
1.73800677073e-07
1.18413216911e-07
3.35356217356e-07
2.06625207537e-07
2.9502889942e-07
1.34100719365e-07
1.28174773535e-07
1.43219952519e-07
3.80667519539e-08
1.22372225556e-08
1.25624544131e-07
1.83408566463e-07
3.95997719964e-07
3.94727586735e-07
2.91453056125e-07
7.90875171391e-09
4.57386730646e-08
1.32142265644e-07
1.56917409973e-07
1.62168175158e-07
1.24333409265e-07
5.79049202478e-08
6.96392444463e-08
4.41457607447e-08
1.20477918488e-07
1.23630956101e-07
5.46452751567e-07
3.75087781639e-08
3.55907686917e-07
3.52741564654e-07
2.89706185399e-08
1.08856182117e-07
2.12651061743e-08
2.95969728108e-07
6.98832066991e-08
1.82116029981e-07
1.46359375569e-07
1.74808809088e-07
2.82481151321e-07
4.33067078259e-07
2.4084046965e-07
7.03264201625e-08
1.04135494368e-07
4.43141337299e-07
2.22074206702e-07
2.65863272714e-07
3.02280199338e-07
2.10680610717e-07
1.86409404536e-07
2.26140612418e-07
2.66731412706e-07
7.55013875703e-08
1.16910652634e-08
2.19569281516e-07
3.64493480136e-07
4.78740826178e-07
4.58148437611e-07
4.61793627509e-07
1.71241537226e-08
4.53483361983e-08
1.07330901204e-07
1.95516245151e-07
1.77112833263e-07
8.19594872386e-08
1.64233443748e-07
2.14819659632e-07
2.53252544149e-08
2.13362701386e-07
4.61703505168e-07
1.47816520459e-07
1.43968643901e-09
7.54053609109e-07
3.37501438369e-07
3.02300666364e-07
2.50610022261e-07
4.47905708136e-07
2.88535758822e-07
4.13849584237e-07
1.42030477689e-07
4.48811916222e-07
6.43420980201e-07
5.13536389894e-07
2.07247022913e-07
3.49336105395e-07
3.52340295686e-07
7.72223864327e-08
2.01235394937e-07
1.92887621218e-07
1.54684154743e-07
1.8178190284e-07
1.3724220216e-07
9.91868208682e-08
2.30749817531e-07
2.07513136739e-07
1.02030965282e-07
2.84700341222e-08
4.57538815392e-08
1.05815769049e-07
1.0574950695e-07
1.67217739199e-07
3.21167356532e-07
1.11906185692e-07
2.4855583264e-07
7.2343052778e-08
7.37563772891e-07
5.38750990938e-07
4.40657272409e-08
3.8598092394e-07
5.27170653515e-07
1.46221538557e-06
1.26072615901e-06
2.69267642698e-07
1.36776215066e-07
3.5954996477e-08
6.84571435335e-07
1.26332840163e-07
6.4876775505e-07
6.65417553213e-08
1.65595027115e-07
4.88104734608e-08
5.47293816487e-08
7.46522479556e-07
7.05669690545e-08
2.13377799861e-07
2.59291724069e-07
1.33220234624e-08
2.823259324e-07
4.21990871791e-07
1.84490121211e-07
5.76533395517e-08
1.24508660272e-07
8.58176597589e-08
4.31880446249e-08
1.58521256488e-08
7.32530118777e-07
1.38240738711e-07
3.81852784691e-08
5.88823014676e-07
2.68530729961e-08
3.69304966985e-08
1.47696133695e-07
2.05842490995e-07
7.03212467411e-07
2.32505228848e-07
2.79085221828e-07
3.00447736271e-07
8.23325633124e-07
4.90195883578e-07
1.68193302531e-07
1.6271525426e-07
3.77835018374e-08
4.358400458e-07
4.69922104094e-07
9.62720129545e-08
4.77066999007e-08
1.81864600394e-07
1.9948102723e-07
8.83117357464e-09
4.73498427877e-07
1.25052816473e-07
2.78440291074e-07
1.85369912215e-07
2.20983039641e-07
1.64436199294e-07
1.69994495118e-07
1.93595479488e-07
1.73719522054e-07
2.04828357646e-07
1.76688468939e-07
8.17906275362e-08
1.51312420381e-07
3.25352278982e-07
3.0866547563e-07
3.01726451785e-07
2.15251914543e-07
2.70074428698e-08
5.56158161243e-08
4.56959535272e-07
3.01277980289e-08
1.52293494436e-07
5.20990784284e-08
6.26881552882e-08
1.03750821042e-07
1.65711327838e-07
8.69962500003e-08
1.54093395331e-07
1.02867819388e-07
9.66895255577e-08
9.28807465864e-08
1.29856621623e-07
5.7988359863e-08
1.91976664468e-08
7.60711455821e-08
1.76971277744e-07
1.62719465962e-07
3.8229382491e-07
2.20124359079e-08
3.0465906178e-07
7.7286627491e-08
7.63255565155e-08
6.94555975641e-08
6.0319244498e-08
1.50382026337e-07
1.16237910329e-08
3.96617303343e-08
1.04663038518e-08
1.81807784272e-08
3.54949658735e-08
3.68724081975e-08
1.25553277002e-07
1.47119378459e-09
3.0403296486e-08
1.93333734621e-08
2.20404828686e-09
8.38916482567e-08
5.7642693214e-08
3.0873169196e-08
1.03760775855e-07
3.01263065851e-08
1.01603320846e-08
6.13401340532e-08
6.76596508601e-08
1.39838140336e-07
8.17793323235e-08
3.03334947806e-07
2.64758607366e-08
1.1855398628e-07
7.64590820181e-08
1.77837275518e-07
4.91275252712e-09
9.20870660281e-08
5.93854242296e-08
1.06453669405e-07
3.95035681123e-07
2.37435860514e-07
2.05807371398e-07
2.25928210399e-07
9.69378407962e-08
6.08728958977e-08
5.1215652134e-08
1.21648914565e-07
7.10936534194e-08
2.29154646549e-07
1.24854091863e-07
2.1314983619e-08
1.04768127663e-07
3.12688793475e-08
7.78604979609e-08
1.91157759912e-07
1.49711128757e-07
2.06372253705e-07
1.83316743892e-07
1.96691294509e-07
1.42124847606e-07
1.81736855562e-07
8.53913317398e-08
1.56161493296e-07
1.87549351928e-07
1.58556046467e-07
1.37098751474e-07
9.43083961104e-08
4.58819596855e-08
4.28828794405e-08
7.81383551018e-08
3.41311789254e-07
1.8429915833e-08
8.85945643468e-09
5.46779912796e-08
5.7064417784e-08
7.86163362452e-08
7.84640812468e-08
6.52559006146e-08
2.42424806912e-08
1.30059374432e-07
1.01711925177e-07
1.41189453861e-08
2.41759469303e-08
3.03514421692e-09
7.59390719738e-08
8.5517867858e-08
2.19014558151e-07
1.09220519274e-07
2.11169539792e-07
3.1746512813e-07
4.61235810252e-07
5.6747619578e-08
1.61964791055e-08
2.38285677443e-07
1.42278429695e-07
2.78650459234e-07
2.47823797737e-07
3.12201714122e-08
4.90948938884e-08
1.97898474802e-08
5.53023099563e-08
2.70756179588e-08
1.81163767164e-08
8.10533742389e-08
3.87877290393e-08
1.60101614326e-07
2.4843562529e-07
1.56140315847e-08
4.02570177759e-08
2.44965577637e-08
9.14213577972e-08
2.48547094424e-07
2.78721412741e-07
9.22364198545e-09
2.61924310042e-07
2.11074685176e-07
2.31123253419e-07
2.63436751351e-07
2.87455387651e-07
2.0825722692e-07
1.30638296673e-07
3.10762661749e-07
3.36220322547e-07
4.92362479972e-08
1.62181665055e-08
1.55896704477e-08
1.91596830772e-07
2.19862518419e-07
2.78525892487e-07
1.51653340213e-07
1.69098800421e-07
2.57952776163e-07
2.71688669819e-09
4.12656629102e-08
8.54055172185e-08
2.30108591323e-07
2.77457494926e-07
2.96059256335e-07
9.63966115612e-08
2.04341168981e-07
2.84611877693e-07
7.36384382966e-08
2.76149443052e-07
3.36487514844e-07
2.20686843434e-08
2.87722616119e-07
1.05919167608e-07
3.49984702483e-07
1.02677796385e-08
1.71462394894e-07
1.48827510171e-07
8.35449862801e-08
4.33199854099e-07
2.15336630119e-07
8.63447776202e-08
2.59177163406e-08
1.8038655723e-08
5.08487039709e-08
1.82294158321e-08
7.67072175266e-08
3.41051274081e-08
5.02123529619e-09
1.15400352929e-08
3.9779484087e-08
8.22364173149e-08
5.10166175324e-08
7.06568563434e-08
8.90903973117e-08
1.30211491041e-08
7.61135044529e-09
2.25916484517e-08
1.45764939334e-08
9.59083995462e-08
2.28067860913e-08
2.05576430952e-09
5.48531508568e-08
7.06982281007e-08
1.55512285752e-08
1.10659794571e-09
9.305112309e-10
6.44524814903e-08
6.79593091225e-08
9.49192420128e-09
6.5647985119e-08
2.94401672505e-08
3.136200776e-08
8.34877568315e-08
2.07704982626e-07
9.52459099797e-08
9.21648146189e-08
1.3667942908e-07
7.30981836144e-09
3.63383759517e-08
9.65545916093e-08
6.25258478375e-08
1.29257811127e-07
1.34628593734e-07
1.16746269422e-07
2.34155748473e-07
2.26299779202e-07
1.09927762107e-07
8.66869663745e-08
2.78720960963e-08
1.04718745417e-07
5.66651265082e-08
1.04400842247e-07
3.54061744889e-08
3.01048608903e-07
5.80880175423e-08
4.33816831169e-08
4.91960663327e-08
1.75939790461e-07
2.75276509254e-07
2.17974460512e-07
2.0191488164e-07
3.15048840166e-07
6.01144235484e-08
4.28369764576e-08
2.34714317055e-09
8.18820787968e-08
4.03803288365e-07
3.79373916652e-08
7.74129821038e-08
5.49923118785e-08
4.40259382915e-07
2.3898730732e-07
1.74485228113e-07
2.75113740676e-08
3.96740912357e-08
6.38910505049e-08
5.24289160908e-08
1.16915014756e-07
1.99638542783e-07
1.10578957979e-06
6.35454268857e-09
3.17655479494e-07
8.40122234038e-08
1.66382718715e-07
5.24869282324e-08
2.09806449384e-07
2.9874253514e-07
2.40371819273e-07
1.3065872651e-07
1.71543922253e-07
2.24023461163e-07
6.21552991854e-08
4.99012249601e-08
1.89928517873e-07
2.97906085774e-07
2.21501561138e-07
1.73700401845e-07
2.53770534785e-07
1.78828781777e-07
5.33836432067e-07
3.64903406292e-08
4.24241126568e-07
2.9064989868e-07
1.74604393252e-07
2.59122683408e-07
2.80195455075e-07
1.76435772499e-07
2.09789422394e-07
1.05822663263e-07
7.85828537583e-08
3.7743046288e-11
1.93849266878e-08
4.3688014962e-07
2.25542505268e-07
2.78007353191e-07
7.63756400929e-08
2.6854228211e-09
2.08235258787e-07
2.38663369182e-07
1.91380068679e-07
3.94848598539e-08
3.14602711078e-08
7.25977891052e-08
9.4314921843e-09
3.17325428974e-08
3.30980609923e-08
6.09665278405e-08
5.15971399099e-08
6.24260918903e-08
5.20951527878e-08
2.768365098e-08
1.10365526777e-07
6.38314536653e-08
3.49937903911e-08
1.23731222649e-08
1.42426707292e-08
2.20882679447e-08
7.74162296703e-09
4.81446941991e-08
3.4399436262e-08
3.62155087694e-08
4.19375940269e-08
7.44198894866e-08
3.34749262588e-08
6.43169894593e-08
4.74587835537e-08
6.3761568123e-08
5.53787753293e-08
1.59802679336e-08
4.28139151588e-08
8.01209310386e-08
1.82398498846e-08
6.10670163003e-08
2.3430387107e-09
4.16632653913e-07
9.13172099027e-08
1.17816744647e-07
1.5499302698e-09
4.64827206698e-07
5.35328615191e-08
5.3239259695e-08
5.86986514256e-09
4.47822539694e-07
2.61189938816e-07
1.00433581174e-07
1.33085602166e-07
2.22921709013e-08
1.11257776703e-07
2.41489841193e-08
1.5442690822e-08
5.74138215495e-08
1.00282116231e-08
6.58415452214e-07
4.53091407094e-07
7.46555050935e-07
1.95312880303e-07
2.43194321521e-07
1.92594513942e-07
1.09498331276e-07
3.74542159882e-08
2.11710842502e-07
2.29184938472e-07
2.17260809567e-07
3.73290822729e-07
1.46423365758e-07
5.26656426759e-08
2.97840359064e-07
2.22008104985e-08
3.30717833083e-08
1.01574948228e-07
7.18959113365e-08
1.07286205725e-07
1.40076544589e-07
2.47739040305e-08
2.14581807606e-08
3.39596921896e-08
1.45281173865e-08
3.02158237438e-08
1.491857943e-08
2.10969643739e-07
3.55020601955e-07
2.75691976518e-07
3.97037071112e-07
2.39229997101e-07
8.96020986679e-08
1.25740154982e-07
4.15028682947e-08
4.08211132085e-07
3.14062584696e-07
2.03606843116e-07
7.73031271204e-08
6.84158163219e-08
1.03681105411e-07
3.69272474579e-08
3.90295129164e-07
1.89213623042e-07
6.26121800259e-08
7.1251725244e-08
7.62675620951e-08
1.69336485708e-07
1.52689508726e-08
5.92368980752e-08
3.61202126478e-08
3.48626204986e-08
1.36254365078e-07
1.65228640705e-07
1.32818397948e-07
1.6789754256e-07
1.77386153767e-07
1.45992660248e-07
1.67186495542e-07
1.08165131709e-07
7.51075282032e-08
1.62711972774e-08
1.07630717382e-07
1.37839803682e-07
1.68262494522e-07
1.71308112782e-07
1.29328244267e-07
1.26360536641e-07
3.09907761736e-08
1.70150253434e-07
3.62880135108e-07
2.78978008076e-07
7.87602757372e-08
2.09242976978e-07
1.64953679052e-08
1.06523106722e-08
1.33690482438e-07
1.70561821178e-08
2.25488394694e-08
6.86975022311e-08
3.27848014509e-08
3.87543202107e-09
5.26076653776e-08
1.02507804604e-10
1.40450655577e-07
1.07498493867e-07
1.14990780641e-07
7.5433697542e-08
6.07811632528e-08
1.94251521481e-07
8.71091721069e-08
1.60222098853e-07
3.66200342938e-07
2.46282635027e-07
2.57882972636e-07
1.05782591495e-07
2.93047209797e-08
7.26681947488e-08
5.77242329118e-08
1.11413724184e-07
1.62120558826e-07
1.2208265908e-07
4.85844768527e-07
4.56176338049e-07
3.08645420503e-08
3.30383312991e-07
1.84855452702e-07
1.18859509402e-07
1.32372817096e-07
8.85981492228e-08
5.24255965283e-07
1.2516131877e-08
2.74963003866e-08
1.10066073017e-07
1.31001641563e-07
1.68983542023e-07
2.5851214497e-07
7.74839971843e-08
1.07690966076e-07
9.96769623813e-08
8.98116423384e-08
1.93616370347e-07
3.60064688632e-08
4.82312152335e-07
3.04615915139e-07
2.36553460871e-07
3.44140783062e-07
2.52620843896e-07
1.50327747544e-07
6.15994718207e-07
2.9863972723e-07
8.73256190658e-08
5.92817384655e-08
6.14709650803e-08
3.50548965386e-07
3.33711781513e-07
1.04254111083e-07
2.84192226083e-09
8.26556260169e-08
1.67893466815e-07
1.60060549968e-07
1.88586487089e-07
2.35180513879e-08
4.11960588109e-07
5.52305089204e-07
3.55527590841e-08
2.90143061872e-08
8.51779008542e-09
2.51739843895e-07
1.77905167073e-07
2.53701215353e-08
1.9872932908e-07
1.84009545975e-07
1.44765413662e-07
3.46181552565e-07
5.43622612284e-08
1.07168539319e-07
2.32367988586e-07
9.19050392562e-08
7.95097032581e-08
7.73339731339e-09
9.29120265627e-08
8.74500555915e-08
1.05643555445e-07
1.92186334634e-07
3.64979807371e-07
6.49442289546e-10
6.18640018344e-08
2.11595430053e-08
3.00326331292e-07
3.88867155957e-07
1.59399197004e-07
4.07730213836e-08
6.35462864968e-08
7.57558674268e-08
2.29799743389e-08
4.56284885136e-08
3.03133918241e-07
1.25116592771e-07
2.55142098109e-07
1.84342344102e-08
5.29548375102e-08
4.06136468313e-08
1.77663071717e-07
1.50701475388e-07
3.42718180919e-07
4.29418596476e-08
4.35663206964e-08
8.39090142157e-08
1.18131890549e-07
2.1980975277e-07
1.09885244305e-07
1.36180382841e-07
1.70111525252e-07
2.77217644588e-07
3.29775598349e-07
1.80541748687e-07
7.5851540522e-08
1.25984359384e-07
6.19678604166e-08
1.36811802046e-07
4.00896665791e-08
7.71877105978e-08
4.23035237303e-08
1.29521780577e-07
1.03801336035e-07
1.42072037644e-07
2.81131343573e-07
6.47521795228e-08