# vtk DataFile Version 3.0
File Name: Molecule/sphere_cent/sphere_cent_0-s3.vtk
ASCII
DATASET UNSTRUCTURED_GRID
FIELD FieldData 1
TIME 1 1 double
0.0
POINTS 148 double
0.8089312315 -0.30891492963 -0.49992692471
0.95180958509 -0.15983405709 -0.2619497776
0.85111266375 -0.51986098289 -0.014867286198
0.85189568996 6.2492981669e-05 -0.52388876677
0.95154047012 0.16046455503 -0.2625695765
0.80892139673 0.3089415431 -0.49991065264
0.9995290637 0.0027096185368 0.013604519889
0.52574115992 -4.1417163743e-07 -0.85064458847
0.85064721107 0.52573424578 -1.1868600268e-05
0.68719059229 0.58772015572 -0.42725133896
0.50405758619 0.80719393492 -0.30635613203
0.5879393816 0.42706903815 -0.68711364269
0.43066692352 0.6849501729 -0.58781355619
0.31138411164 0.49587145448 -0.81033492088
0.25607544184 0.86283689737 -0.43579116464
0.15834359825 0.70484942198 -0.69144159555
4.7891677241e-05 0.85064601898 -0.52573865652
0.52406477928 0.85175442696 -8.2156202552e-06
0.50404167175 0.80713832378 0.30651822686
0.26602998376 0.95102828741 -0.15759284794
0.26607108116 0.95100164413 0.1576821804
6.243795724e-06 0.99998784065 5.1356767727e-08
0.00017537907115 0.96048885584 -0.27820804715
0.25592294335 0.86306726933 0.43542322516
0.00016946022515 0.96049147844 0.27819868922
2.9184318919e-05 0.85063713789 0.52575296164
-0.25511774421 0.86296015978 0.43606567383
-0.26568686962 0.95103687048 0.15788608789
-0.49999374151 0.80900371075 0.30902245641
-0.26573976874 0.9510127902 -0.1579388231
-0.52117878199 0.85343974829 -1.879353249e-06
-0.49999630451 0.80900621414 -0.30901244283
-0.25512996316 0.86306977272 -0.43583860993
-0.70524829626 0.69117999077 0.15758964419
-0.70529317856 0.69112426043 -0.15762345493
-0.85065340996 0.5257267952 2.1703444872e-05
-0.15804101527 0.70482772589 0.69153320789
-0.43018981814 0.68503439426 0.58798515797
-0.31187725067 0.4947938025 0.81084686518
-0.68533825874 0.58753973246 0.43031281233
-0.58778691292 0.42749398947 0.68687433004
-0.8070153594 0.30575489998 0.50478965044
-0.86290675402 0.43571031094 0.255977422
-0.52897673845 0.017768314108 0.84503960609
0.15813294053 0.70486861467 0.6914742589
3.3237847674e-05 0.52070242167 0.85367435217
0.31225940585 0.49452269077 0.81086957455
-0.16059865057 0.26168474555 0.95172530413
0.16023591161 0.2615994215 0.95178604126
0.00048090526252 -0.013605439104 0.99990713596
0.51983815432 0.016106523573 0.8510645628
0.31138938665 -0.49588993192 -0.8103248477
0.16084684432 -0.26389405131 -0.95111346245
0.004874044098 1.9848872057e-07 -0.9997394681
8.2117301645e-05 -0.52072453499 -0.85376167297
-0.15746876597 -0.26572209597 -0.95113456249
-0.30900904536 -0.49999168515 -0.80901014805
0.15805058181 -0.70471024513 -0.69164788723
-0.15757495165 -0.7052565217 -0.69117331505
5.9461275669e-05 -0.85067802668 -0.52568656206
-0.27738472819 -0.00021703752282 -0.96074533463
-0.43577218056 -0.25512567163 -0.86310636997
-0.5257062912 -9.7951851785e-07 -0.85066610575
0.6882327199 0.58654075861 0.42707535625
0.81620681286 0.29912903905 0.49357280135
0.43039032817 0.68502599001 0.58779728413
0.58990550041 0.4256246984 0.68624985218
-0.69107955694 -0.1575589329 -0.70535135269
-0.69097667933 0.15773543715 -0.70541298389
-0.85346490145 1.3143746401e-05 -0.52113902569
-0.809009552 -0.30900633335 -0.49999469519
-0.80901008844 0.30900886655 -0.4999923408
-0.95107585192 -0.15774147213 -0.26562941074
-0.9510384798 0.15791413188 -0.265660882
-0.99998778105 -4.9101623745e-07 1.7926549845e-05
-0.86313122511 -0.43571195006 -0.25513529778
-0.96049147844 -0.27819380164 -6.2619954406e-05
-0.85063976049 -0.52574837208 7.6890122727e-05
-0.86318087578 0.43565949798 -0.25506138802
-0.96047705412 0.27824696898 -0.00014175433898
-0.15758304298 0.70539325476 -0.69103384018
-0.42989802361 0.68534731865 -0.5877712369
-0.30901047587 0.49999719858 -0.80900633335
-0.58789378405 0.42983803153 -0.68527889252
-0.68549573421 0.58776366711 -0.42967161536
-0.43604695797 0.25517526269 -0.8629540801
-0.70533561707 -0.69109916687 -0.15754024684
-0.70456302166 -0.69163614511 0.15871091187
-0.52071237564 -0.85371851921 0.000787448138
-0.49998489022 -0.80902707577 -0.30897539854
-0.49091687799 -0.8106020689 0.31914648414
-0.26525974274 -0.95130580664 -0.15693622828
-0.26424410939 -0.95104759932 0.16024917364
0.0045208474621 -0.99986994267 0.012996404432
-0.25505918264 -0.86321693659 -0.43558722734
8.8506458269e-05 -0.96090900898 -0.27679103613
-0.86283391714 -0.43564063311 0.25631341338
-0.68490070105 -0.58789724112 0.4303843677
-0.80318439007 -0.30742782354 0.51014822721
-0.85136973858 -0.00065971037839 0.52463078499
-0.95100188255 0.1577244997 0.26583233476
-0.95081609488 -0.15803988278 0.26636096835
-0.58777201176 -0.42989525199 -0.68534809351
-0.42981570959 -0.68549197912 -0.58766323328
-0.6854839325 -0.58778095245 -0.42966762185
0.25628000498 -0.86303049326 -0.43527501822
0.26596692204 -0.95104891062 -0.15719272196
0.50810587406 -0.80756664276 -0.29915803671
0.5879303813 -0.42703568935 -0.68709564209
0.68690919876 -0.58836865425 -0.42666906118
0.43073642254 -0.6852298975 -0.58735346794
0.16084414721 0.26389718056 -0.95111328363
-0.15758815408 0.26579543948 -0.95109403133
0.000214528176 0.52101773024 -0.85358154774
-0.43493402004 -0.25683215261 0.8628578186
-0.2723325789 -0.014506611973 0.96211320162
-0.15936918557 -0.2723325491 0.94881427288
-0.30968561769 -0.50043201447 0.8083987236
-5.1416602219e-05 -0.52373731136 0.85186415911
0.1598841697 -0.27190071344 0.94885730743
0.30916395783 -0.5002746582 0.80877697468
-0.15856507421 -0.70389264822 0.69231617451
0.15884672105 -0.70409297943 0.69205099344
-0.00079402973643 -0.85113584995 0.52474838495
0.27138620615 -0.014886809513 0.96227419376
0.43502476811 -0.2571952939 0.8627436161
0.69197320938 -0.15885101259 0.70401930809
0.58772200346 -0.42798727751 0.68657720089
0.80872476101 -0.3093777597 0.50023406744
0.42793008685 -0.6867660284 0.58753043413
0.6865260601 -0.5879406333 0.42776945233
0.49973785877 -0.80931949615 0.30841234326
0.25720000267 -0.86266201735 0.43540450931
0.86261606216 -0.43524733186 0.25724044442
0.70419806242 -0.69171929359 0.15909409523
0.96235114336 -0.27118593454 0.015051783994
0.94876527786 -0.15980419517 0.27245879173
0.9510499239 0.15408279002 0.26811516285
0.8541200757 -0.006856283173 0.51998543739
0.70231682062 0.14933209121 0.69591993093
-0.25150480866 -0.86224490404 0.43955340981
-0.42204204202 -0.68614768982 0.59247463942
-0.58323955536 -0.42659321427 0.69110792875
-0.68611031771 -0.16569539905 0.70840400457
0.70162379742 -0.69643545151 -0.15018633008
0.52621012926 -0.85016924143 0.0061916294508
0.26664063334 -0.94920164347 0.16691833735
0.0023576978128 -0.95915490389 0.28274855018

CELLS 292 1168
3 0 1 2
3 0 3 1
3 3 4 1
3 3 5 4
3 1 4 6
3 5 3 7
3 7 3 0
3 6 4 8
3 4 5 8
3 5 9 8
3 8 9 10
3 5 11 9
3 11 12 9
3 11 13 12
3 9 12 10
3 13 11 7
3 7 11 5
3 10 12 14
3 12 15 14
3 12 13 15
3 14 15 16
3 10 17 8
3 8 17 18
3 10 19 17
3 19 20 17
3 19 21 20
3 17 20 18
3 10 14 19
3 14 22 19
3 14 16 22
3 19 22 21
3 18 20 23
3 20 24 23
3 20 21 24
3 23 24 25
3 25 24 26
3 24 27 26
3 24 21 27
3 26 27 28
3 21 29 27
3 29 30 27
3 29 31 30
3 27 30 28
3 21 22 29
3 22 32 29
3 22 16 32
3 29 32 31
3 28 30 33
3 30 34 33
3 30 31 34
3 33 34 35
3 25 26 36
3 26 37 36
3 26 28 37
3 36 37 38
3 28 39 37
3 39 40 37
3 39 41 40
3 37 40 38
3 28 33 39
3 33 42 39
3 33 35 42
3 39 42 41
3 38 40 43
3 40 41 43
3 25 36 44
3 36 45 44
3 36 38 45
3 44 45 46
3 38 47 45
3 47 48 45
3 47 49 48
3 45 48 46
3 43 47 38
3 46 48 50
3 51 52 7
3 7 52 53
3 51 54 52
3 54 55 52
3 54 56 55
3 52 55 53
3 51 57 54
3 57 58 54
3 57 59 58
3 54 58 56
3 53 55 60
3 55 61 60
3 55 56 61
3 60 61 62
3 18 63 8
3 8 63 64
3 18 65 63
3 65 66 63
3 65 46 66
3 63 66 64
3 18 23 65
3 23 44 65
3 23 25 44
3 65 44 46
3 66 46 50
3 62 67 68
3 67 69 68
3 67 70 69
3 68 69 71
3 70 72 69
3 72 73 69
3 72 74 73
3 69 73 71
3 70 75 72
3 75 76 72
3 75 77 76
3 72 76 74
3 71 73 78
3 73 79 78
3 73 74 79
3 78 79 35
3 16 80 32
3 80 81 32
3 80 82 81
3 32 81 31
3 82 83 81
3 83 84 81
3 83 71 84
3 81 84 31
3 82 85 83
3 85 68 83
3 85 62 68
3 83 68 71
3 31 84 34
3 84 78 34
3 84 71 78
3 34 78 35
3 77 86 87
3 86 88 87
3 86 89 88
3 87 88 90
3 89 91 88
3 91 92 88
3 91 93 92
3 88 92 90
3 89 94 91
3 94 95 91
3 94 59 95
3 91 95 93
3 77 87 96
3 87 97 96
3 87 90 97
3 96 97 98
3 41 99 43
3 41 100 99
3 100 101 99
3 100 74 101
3 99 101 98
3 41 42 100
3 42 79 100
3 42 35 79
3 100 79 74
3 98 101 96
3 101 76 96
3 101 74 76
3 96 76 77
3 62 61 67
3 61 102 67
3 61 56 102
3 67 102 70
3 56 103 102
3 103 104 102
3 103 89 104
3 102 104 70
3 56 58 103
3 58 94 103
3 58 59 94
3 103 94 89
3 70 104 75
3 104 86 75
3 104 89 86
3 75 86 77
3 59 105 95
3 105 106 95
3 105 107 106
3 95 106 93
3 0 108 7
3 7 108 51
3 0 109 108
3 109 110 108
3 109 107 110
3 108 110 51
3 2 109 0
3 51 110 57
3 110 105 57
3 110 107 105
3 57 105 59
3 53 111 7
3 7 111 13
3 53 112 111
3 112 113 111
3 112 82 113
3 111 113 13
3 53 60 112
3 60 85 112
3 60 62 85
3 112 85 82
3 13 113 15
3 113 80 15
3 113 82 80
3 15 80 16
3 43 114 115
3 114 116 115
3 114 117 116
3 115 116 49
3 117 118 116
3 118 119 116
3 118 120 119
3 116 119 49
3 117 121 118
3 121 122 118
3 121 123 122
3 118 122 120
3 49 119 124
3 119 125 124
3 119 120 125
3 124 125 50
3 50 125 126
3 125 127 126
3 125 120 127
3 126 127 128
3 120 129 127
3 129 130 127
3 129 131 130
3 127 130 128
3 120 122 129
3 122 132 129
3 122 123 132
3 129 132 131
3 128 130 133
3 130 134 133
3 130 131 134
3 133 134 2
3 2 135 133
3 135 136 133
3 135 6 136
3 133 136 128
3 6 137 136
3 137 138 136
3 137 64 138
3 136 138 128
3 64 137 8
3 8 137 6
3 128 138 126
3 138 139 126
3 138 64 139
3 126 139 50
3 90 140 141
3 140 121 141
3 140 123 121
3 141 121 117
3 98 142 143
3 142 114 143
3 142 117 114
3 143 114 43
3 107 144 145
3 144 134 145
3 144 2 134
3 145 134 131
3 93 146 147
3 146 132 147
3 146 131 132
3 147 132 123
3 6 135 1
3 1 135 2
3 43 115 47
3 47 115 49
3 49 124 48
3 48 124 50
3 50 139 66
3 66 139 64
3 123 140 147
3 92 140 90
3 93 147 92
3 92 147 140
3 117 142 141
3 97 142 98
3 90 141 97
3 97 141 142
3 98 143 99
3 99 143 43
3 131 146 145
3 106 146 93
3 107 145 106
3 106 145 146
3 2 144 109
3 109 144 107

CELL_TYPES 292
5
5
5
5
5
5
5
5
5
5
5
5
5
5
5
5
5
5
5
5
5
5
5
5
5
5
5
5
5
5
5
5
5
5
5
5
5
5
5
5
5
5
5
5
5
5
5
5
5
5
5
5
5
5
5
5
5
5
5
5
5
5
5
5
5
5
5
5
5
5
5
5
5
5
5
5
5
5
5
5
5
5
5
5
5
5
5
5
5
5
5
5
5
5
5
5
5
5
5
5
5
5
5
5
5
5
5
5
5
5
5
5
5
5
5
5
5
5
5
5
5
5
5
5
5
5
5
5
5
5
5
5
5
5
5
5
5
5
5
5
5
5
5
5
5
5
5
5
5
5
5
5
5
5
5
5
5
5
5
5
5
5
5
5
5
5
5
5
5
5
5
5
5
5
5
5
5
5
5
5
5
5
5
5
5
5
5
5
5
5
5
5
5
5
5
5
5
5
5
5
5
5
5
5
5
5
5
5
5
5
5
5
5
5
5
5
5
5
5
5
5
5
5
5
5
5
5
5
5
5
5
5
5
5
5
5
5
5
5
5
5
5
5
5
5
5
5
5
5
5
5
5
5
5
5
5
5
5
5
5
5
5
5
5
5
5
5
5
5
5
5
5
5
5
5
5
5
5
5
5
5
5
5
5
5
5
5
5
5
5
5
5

CELL_DATA 292
SCALARS cell_data_0 double
LOOKUP_TABLE default
2.12112930971e-06
7.65167337923e-07
4.9844866708e-07
8.1993175893e-07
1.45446672569e-07
2.84318366482e-07
2.20751707172e-07
4.69329766625e-07
7.42208844942e-07
8.69383442022e-07
8.31785077252e-07
3.73183332262e-07
1.78053131923e-07
3.55097242636e-07
3.83113970052e-08
3.41461963057e-07
3.30600839438e-07
1.95975114274e-07
1.5994994552e-07
6.79305126737e-08
5.32827368912e-07
6.92453008855e-08
2.53573426761e-07
6.65053584625e-07
6.472642374e-07
2.97190715017e-07
6.83119941211e-07
2.60247040662e-07
3.76193903855e-07
6.74365688735e-07
4.75044612878e-07
1.5463371988e-07
1.56633500197e-08
2.35284426128e-07
5.83420265596e-08
8.64833249964e-08
6.60542609861e-08
1.2852829571e-07
5.71208875841e-09
1.55163426077e-09
2.00602304486e-07
2.02342566558e-07
2.33794881443e-07
3.1386515665e-07
7.73107210439e-08
5.45226742844e-07
2.10041635699e-08
3.39119707208e-08
1.26827272476e-07
8.25005521025e-08
4.25101737483e-08
1.69237495684e-07
2.08421677306e-07
1.69027998675e-07
2.61905052095e-07
7.22908827276e-08
5.10533358025e-08
4.28871862897e-08
3.14557061122e-07
6.50672545777e-08
1.21361593153e-07
7.53150584716e-08
6.70560619109e-08
1.21359676474e-06
1.24803801959e-06
1.47090644452e-07
6.25364060647e-08
1.43496290461e-07
2.51456686323e-08
1.03425204617e-07
7.3523077878e-08
1.36745620803e-07
6.68578202425e-08
1.64631837636e-06
1.93612877939e-06
5.81263435263e-07
5.80881255802e-07
1.39268458751e-07
2.77818186123e-08
8.17260687782e-08
1.19265836691e-07
7.06373729222e-08
2.04665588596e-08
2.42836806607e-08
5.07594149444e-08
1.40696784103e-08
8.0626685504e-08
3.12086867644e-08
1.47359069283e-07
4.9508681594e-07
7.61896066271e-07
1.26663612063e-07
6.8323176723e-08
5.35240989152e-08
3.88045314124e-08
7.54710942314e-08
6.29924046251e-08
6.19155651732e-08
4.10307045458e-09
1.90425314698e-06
2.37620854547e-07
3.84020117277e-08
7.20795197454e-08
6.7211946366e-08
9.82776859214e-08
9.36332966043e-08
1.92706529201e-07
1.25828803378e-07
2.45525698847e-08
3.17675612167e-09
2.22221937293e-07
1.38217865263e-08
3.76580041206e-09
3.31660650086e-08
1.99725958065e-08
9.57843560593e-08
4.4441495433e-07
1.27069252312e-09
7.71738896169e-08
9.58938593631e-09
1.04500041257e-07
8.26280863686e-08
1.50154864486e-07
1.28092673274e-07
1.19325013252e-08
7.09438805719e-09
2.18492517518e-07
4.48644192439e-08
4.78003099193e-08
9.03597941852e-08
4.333841117e-09
4.35559269251e-08
2.18329297713e-07
5.06000766129e-10
7.62459230556e-09
1.97692466337e-07
5.69005499181e-08
3.28768595587e-08
9.32313340555e-08
1.9865796099e-08
1.14978428619e-07
1.18673820906e-07
7.99527629917e-08
8.33644865103e-08
2.46390760886e-07
6.63449136997e-08
2.47201409656e-07
1.57738757667e-07
1.67841477193e-06
9.44765466935e-08
5.91805867606e-08
1.33820518502e-07
5.47423915525e-09
4.18904008295e-08
3.09871577443e-09
8.26154165249e-08
2.41629183369e-08
1.13562203723e-07
3.75786259411e-08
2.04023235271e-08
2.44021387723e-07
2.07295618009e-07
1.58321047893e-08
3.84553130087e-08
5.71684514699e-08
3.4376159582e-08
4.2979963612e-08
1.07785137913e-07
1.32179803479e-07
8.88297557259e-08
4.84904402822e-08
5.12589052278e-08
8.9673122842e-08
8.29745445072e-09
5.97295643747e-08
2.21605145763e-08
1.86878534285e-07
1.20692318543e-07
6.42579106432e-08
2.35815425588e-07
6.76812023195e-09
8.39532697793e-07
6.62621603129e-07
6.42015795562e-08
3.67542930483e-07
1.86826493125e-07
8.89792172673e-08
2.2124952702e-06
8.91255068235e-08
9.26434329871e-08
9.15875817868e-08
9.64159534118e-08
5.35373183229e-07
6.61039661643e-07
1.34929374662e-07
2.5518666419e-08
1.3030638316e-07
7.73057367388e-08
1.81290593454e-09
9.18489483113e-08
1.50709840679e-07
3.54494249971e-09
8.42749264494e-09
1.1580467609e-08
6.22168155908e-08
4.68811896385e-07
3.115336278e-07
5.90227865733e-08
1.80491207133e-08
7.06407056524e-08
1.78670036585e-07
1.7833409329e-07
1.5986427826e-07
1.8293193249e-07
1.28681844746e-07
2.06876316068e-07
1.36475218833e-07
3.89952583288e-08
9.77077295615e-09
2.95689301356e-08
4.52907678797e-08
6.70209713585e-08
1.9874051018e-08
6.88466022258e-08
1.02324244138e-07
9.99532096672e-08
6.25145542257e-08
6.48163080721e-08
7.23919197499e-08
8.48018424085e-08
1.32180968936e-08
6.4301087694e-08
2.29173555168e-07
7.79856573857e-08
3.38122697432e-09
1.42029909295e-07
2.23118174048e-08
1.5482601934e-07
8.47747497918e-08
1.7345545585e-07
7.87787943942e-08
7.93805337539e-09
3.06552942292e-07
2.90944391441e-08
1.30721882565e-07
8.14768651108e-08
5.68679808772e-07
2.61910089292e-07
6.4433382674e-08
1.00089944694e-07
7.26413070787e-08
2.25883223725e-08
2.26364348683e-07
1.14729978431e-07
2.04798715264e-07
6.71320448545e-08
8.73398333629e-08
1.37480582481e-08
9.74385449287e-08
1.69775689309e-07
1.72520573178e-07
1.06886412246e-07
7.80359811594e-08
4.81615517371e-08
4.48765757327e-08
1.73361810464e-08
8.31159981407e-08
2.96675581277e-07
8.2349610895e-08
4.21481283222e-07
8.57898567854e-08
9.71183580177e-08
3.44264182262e-08
3.21690477357e-07
3.76831883699e-07
2.99901103398e-08
3.04859962186e-07
1.7658703722e-07
8.7498232051e-09
1.06652815393e-07
7.80301754588e-08
5.8656657577e-08
1.11415378384e-07
5.91338173627e-08
8.47705571701e-08
2.25354546979e-07
1.47096098411e-08
1.55584203447e-07
7.83750105741e-08
1.18631666301e-07
4.41879511795e-07
8.90391971797e-08

