# vtk DataFile Version 3.0
File Name: Molecule/methanol/methanol_2.0-test-2.vtk
ASCII
DATASET UNSTRUCTURED_GRID
FIELD FieldData 1
TIME 1 1 double
0.0
POINTS 102 double
1.611 0.0 -0.359
1.445 -0.731 -0.342
1.403 0.0 -0.933
1.252 -0.666 -0.918
0.98 -1.317 -0.296
0.828 -1.2 -0.876
0.308 -1.642 -0.229
0.216 -1.496 -0.815
-0.438 -1.642 -0.155
-0.464 -1.496 -0.747
-1.11 -1.317 -0.088
-1.076 -1.2 -0.686
-1.576 -0.731 -0.042
-1.5 -0.666 -0.644
-1.742 0.0 -0.025
-1.651 0.0 -0.629
-1.576 0.731 -0.042
-1.5 0.666 -0.644
-1.11 1.317 -0.088
-1.076 1.2 -0.686
-0.438 1.642 -0.155
-0.464 1.496 -0.747
0.308 1.642 -0.229
0.216 1.496 -0.815
0.98 1.317 -0.296
0.828 1.2 -0.876
1.445 0.731 -0.342
1.252 0.666 -0.918
1.907 0.0 0.656
1.763 0.722 0.656
1.763 0.361 1.281
1.763 -0.361 1.281
1.763 -0.722 0.656
1.763 -0.361 0.03
1.763 0.361 0.03
1.354 1.123 1.377
1.354 0.554 1.87
1.354 -0.19 1.977
1.354 -0.874 1.664
1.354 -1.281 1.032
1.354 -1.281 0.28
1.354 1.335 0.656
0.741 1.571 1.412
0.741 1.087 2.019
0.741 0.388 2.356
0.741 -0.388 2.356
0.741 -1.087 2.019
0.741 -1.571 1.412
0.741 -1.744 0.656
0.741 1.744 0.656
0.019 1.744 1.378
0.019 1.335 1.99
0.019 0.722 2.399
0.019 -0.0 2.543
0.019 -0.722 2.399
0.019 -1.335 1.99
0.019 -1.744 1.378
0.019 -1.888 0.656
0.019 1.888 0.656
-0.703 1.744 0.656
-0.703 1.571 1.412
-0.703 1.087 2.019
-0.703 0.388 2.356
-0.703 -0.388 2.356
-0.703 -1.087 2.019
-0.703 -1.571 1.412
-0.703 -1.744 0.656
-1.316 1.335 0.656
-1.316 1.123 1.377
-1.316 0.554 1.87
-1.316 -0.19 1.977
-1.316 -0.874 1.664
-1.316 -1.281 1.032
-1.725 0.722 0.656
-1.725 0.361 1.281
-1.725 -0.361 1.281
-1.725 -0.722 0.656
-1.868 0.0 0.656
1.21 0.384 -1.402
0.648 0.552 -1.946
0.648 1.118 -1.456
0.648 -0.871 -1.742
-0.12 -1.149 -1.755
-0.12 -0.544 -2.172
0.648 -0.189 -2.053
-0.12 0.185 -2.261
-0.12 0.872 -2.0
-0.12 1.359 -1.451
-0.887 -1.276 -1.112
-0.887 -0.871 -1.742
-0.887 -0.189 -2.053
-0.887 0.552 -1.946
-0.887 1.118 -1.456
-1.449 -0.384 -1.402
-1.449 0.384 -1.402
1.21 -0.384 -1.402
0.929 -0.2865 -1.7275
1.21 0.0 -1.402
0.929 0.0975 -1.7275
1.0695 -0.33525 -1.56475
1.0695 -0.14325 -1.56475
1.21 -0.192 -1.402

CELLS 200 800
3 0 1 2
3 2 1 3
3 1 4 3
3 3 4 5
3 4 6 5
3 5 6 7
3 6 8 7
3 7 8 9
3 8 10 9
3 9 10 11
3 10 12 11
3 11 12 13
3 12 14 13
3 13 14 15
3 14 16 15
3 15 16 17
3 16 18 17
3 17 18 19
3 18 20 19
3 19 20 21
3 20 22 21
3 21 22 23
3 22 24 23
3 23 24 25
3 24 26 25
3 25 26 27
3 26 0 27
3 27 0 2
3 28 29 30
3 28 30 31
3 28 31 32
3 28 32 33
3 28 33 34
3 28 34 29
3 30 29 35
3 30 35 36
3 30 36 37
3 31 30 37
3 31 37 38
3 31 38 39
3 32 31 39
3 32 39 40
3 33 32 40
3 29 41 35
3 35 41 42
3 35 42 43
3 36 35 43
3 36 43 44
3 37 36 44
3 37 44 45
3 38 37 45
3 38 45 46
3 38 46 47
3 39 38 47
3 39 47 48
3 40 39 48
3 41 49 42
3 42 49 50
3 42 50 51
3 43 42 51
3 43 51 52
3 44 43 52
3 44 52 53
3 45 44 53
3 45 53 54
3 46 45 54
3 46 54 55
3 47 46 55
3 47 55 56
3 48 47 56
3 48 56 57
3 49 58 50
3 50 58 59
3 50 59 60
3 51 50 60
3 51 60 61
3 52 51 61
3 52 61 62
3 53 52 62
3 53 62 63
3 54 53 63
3 54 63 64
3 55 54 64
3 55 64 65
3 56 55 65
3 56 65 66
3 57 56 66
3 60 59 67
3 60 67 68
3 61 60 68
3 61 68 69
3 62 61 69
3 62 69 70
3 63 62 70
3 63 70 71
3 64 63 71
3 65 64 71
3 65 71 72
3 66 65 72
3 68 67 73
3 68 73 74
3 69 68 74
3 70 69 74
3 70 74 75
3 71 70 75
3 72 71 75
3 72 75 76
3 74 73 77
3 75 74 77
3 76 75 77
3 76 77 14
3 76 14 12
3 76 12 10
3 76 10 72
3 72 10 66
3 66 10 8
3 66 8 57
3 57 8 6
3 57 6 48
3 48 6 4
3 48 4 40
3 40 4 1
3 40 1 33
3 33 1 0
3 33 0 34
3 34 0 26
3 34 26 29
3 29 26 41
3 41 26 24
3 41 24 49
3 49 24 22
3 49 22 58
3 58 22 20
3 58 20 59
3 59 20 18
3 59 18 67
3 67 18 16
3 67 16 73
3 73 16 14
3 73 14 77
3 78 79 80
3 81 82 83
3 84 81 83
3 84 83 85
3 79 84 85
3 79 85 86
3 80 79 86
3 80 86 87
3 82 88 89
3 83 82 89
3 83 89 90
3 85 83 90
3 85 90 91
3 86 85 91
3 86 91 92
3 87 86 92
3 89 88 93
3 90 89 93
3 90 93 94
3 91 90 94
3 92 91 94
3 92 94 17
3 92 17 19
3 92 19 21
3 92 21 87
3 87 21 23
3 87 23 80
3 80 23 25
3 80 25 27
3 80 27 78
3 78 27 2
3 95 2 3
3 95 3 81
3 81 3 5
3 81 5 7
3 81 7 82
3 82 7 9
3 82 9 88
3 88 9 11
3 88 11 13
3 88 13 93
3 93 13 15
3 93 15 94
3 94 15 17
3 84 96 81
3 78 97 98
3 98 96 84
3 78 98 79
3 98 84 79
3 78 97 2
3 95 99 81
3 99 96 81
3 97 100 98
3 100 96 98
3 97 101 100
3 101 99 100
3 101 95 99
3 100 99 96
3 95 101 2
3 101 97 2

CELL_TYPES 200
5
5
5
5
5
5
5
5
5
5
5
5
5
5
5
5
5
5
5
5
5
5
5
5
5
5
5
5
5
5
5
5
5
5
5
5
5
5
5
5
5
5
5
5
5
5
5
5
5
5
5
5
5
5
5
5
5
5
5
5
5
5
5
5
5
5
5
5
5
5
5
5
5
5
5
5
5
5
5
5
5
5
5
5
5
5
5
5
5
5
5
5
5
5
5
5
5
5
5
5
5
5
5
5
5
5
5
5
5
5
5
5
5
5
5
5
5
5
5
5
5
5
5
5
5
5
5
5
5
5
5
5
5
5
5
5
5
5
5
5
5
5
5
5
5
5
5
5
5
5
5
5
5
5
5
5
5
5
5
5
5
5
5
5
5
5
5
5
5
5
5
5
5
5
5
5
5
5
5
5
5
5
5
5
5
5
5
5
5
5
5
5
5
5
5
5
5
5
5
5

CELL_DATA 200
SCALARS cell_data_0 double
LOOKUP_TABLE default
3.94346120682e-08
8.19751660017e-08
6.03748383732e-08
5.62206091239e-08
1.46961365423e-08
2.03010524102e-08
1.62480878082e-08
2.0259146831e-08
1.07666879205e-08
1.50200711044e-08
9.19820726342e-09
1.22375059615e-08
8.36974136419e-09
9.85165984822e-09
5.66088497678e-09
9.04188231218e-09
7.15869996257e-09
1.23713445908e-08
9.13397962501e-09
1.56787520554e-08
1.23130635736e-08
1.70640325803e-08
1.36665754795e-08
1.77307280475e-08
1.75160655693e-08
7.77857434748e-08
1.39176208892e-07
1.49832903623e-07
5.96659885153e-09
4.28603709655e-09
5.7259414014e-09
2.3727231583e-09
1.72674925156e-09
4.3164021143e-09
6.1481549844e-09
4.1107465905e-09
4.36789051789e-09
3.9203531057e-09
3.91855628593e-09
3.30202370482e-09
4.42220927221e-09
4.95419395964e-09
3.04650054345e-09
5.2832331106e-09
3.59590658196e-09
3.2710815111e-09
3.90418288685e-09
3.46072949844e-09
3.9890377619e-09
3.31825093503e-09
4.28244653011e-09
4.20334719121e-09
4.86854335135e-09
4.49216684662e-09
3.78700718645e-09
3.75127849783e-09
3.60781205999e-09
2.99612673924e-09
2.50163471509e-09
3.08014924826e-09
2.44578438506e-09
2.62573865962e-09
2.59786423268e-09
3.19415718475e-09
2.65815209309e-09
3.00961360147e-09
2.83947012501e-09
4.21301195369e-09
3.41915715758e-09
3.66444869598e-09
2.84897852005e-09
2.90663548115e-09
2.29932895681e-09
2.13549112237e-09
2.1440158267e-09
2.31393777035e-09
2.13904221764e-09
2.20642915326e-09
2.48492656437e-09
2.67350137347e-09
2.31960003196e-09
1.9821811033e-09
2.24624287044e-09
2.60094726679e-09
2.55485319931e-09
2.64184503619e-09
2.87919984802e-09
1.84649499249e-09
1.67381111991e-09
1.98131213002e-09
1.89609418727e-09
1.90849238213e-09
1.76601143337e-09
1.90033394161e-09
1.86210766521e-09
2.03893415403e-09
2.174254748e-09
2.14272732414e-09
2.3498766569e-09
1.37458934371e-09
1.47496427702e-09
1.54540143289e-09
1.5449007474e-09
1.55545846658e-09
1.57359177596e-09
1.74938783218e-09
1.85768521469e-09
1.25377496297e-09
9.10210704745e-10
1.24903008264e-09
3.47958104434e-10
1.4589531846e-09
1.78976160605e-09
5.74458667583e-10
3.27269995843e-10
2.37658758157e-09
9.67391008956e-10
3.52248292804e-09
4.5312254546e-10
6.79263851389e-09
2.37629216042e-09
5.26026174333e-08
6.10257557277e-08
4.17233669823e-08
4.51152411329e-09
1.72554645007e-09
4.09740135651e-09
1.91271587142e-09
6.40700351609e-09
3.66824485964e-09
2.95233413862e-09
6.07321531006e-10
3.89576792081e-09
2.52766547882e-10
2.11453775322e-09
2.87020975826e-10
1.316349896e-09
1.64339796868e-10
1.82189312193e-09
1.77087265618e-10
2.62621989384e-08
1.19856519321e-08
2.34626243729e-08
3.62022478788e-08
3.97849761433e-08
2.53918919503e-08
3.27007397135e-08
3.10815571317e-08
2.22163580432e-08
2.48261054296e-08
3.69448380699e-08
3.42625026935e-08
2.86625265152e-08
2.30935896679e-08
2.42841490066e-08
2.4396955055e-08
2.5210187045e-08
2.37396941396e-08
2.72052570743e-07
2.41034497953e-07
2.31650457023e-07
2.9226944697e-07
2.41735202525e-08
2.67280185204e-08
3.28183821534e-08
2.58730935103e-08
3.38552505908e-08
2.33741132401e-08
5.41570496476e-08
9.26772554854e-08
1.01123633102e-07
1.68699749335e-07
2.22336095004e-07
1.07525118366e-07
3.71272587845e-08
2.68945481476e-08
3.85999546909e-08
2.57335770452e-08
1.36952983708e-08
1.28702913346e-08
3.27037764508e-08
1.77334710105e-08
2.49837677982e-07
2.06972411976e-07
5.46496804745e-08
6.63358386308e-07
2.41800353144e-07
3.45664689507e-07
3.60492180084e-07
9.16663768684e-07
7.13317258097e-07
7.34912772469e-07
2.43737764297e-07
7.21374238947e-07
2.53410938657e-07
1.99084697986e-07
9.32619434238e-08
2.33163498356e-08
4.02972651231e-07
1.65996400192e-07

