# vtk DataFile Version 3.0
File Name: Molecule/methanol/methanol_8.0-2.vtk
ASCII
DATASET UNSTRUCTURED_GRID
FIELD FieldData 1
TIME 1 1 double
0.0
POINTS 388 double
1.569 -0.375 -0.355
1.445 -0.731 -0.342
1.365 -0.341 -0.929
1.252 -0.666 -0.918
1.245 -1.05 -0.322
1.07 -0.957 -0.9
0.98 -1.317 -0.296
0.828 -1.2 -0.876
0.662 -1.518 -0.264
0.538 -1.382 -0.847
0.308 -1.642 -0.229
0.216 -1.496 -0.815
-0.065 -1.684 -0.192
-0.124 -1.534 -0.781
-0.438 -1.642 -0.155
-0.464 -1.496 -0.747
-0.793 -1.518 -0.119
-0.787 -1.382 -0.715
-1.11 -1.317 -0.088
-1.076 -1.2 -0.686
-1.376 -1.05 -0.061
-1.318 -0.957 -0.662
-1.576 -0.731 -0.042
-1.5 -0.666 -0.644
-1.7 -0.375 -0.029
-1.613 -0.341 -0.633
-1.742 0.0 -0.025
-1.651 0.0 -0.629
-1.7 0.375 -0.029
-1.613 0.341 -0.633
-1.576 0.731 -0.042
-1.5 0.666 -0.644
-1.376 1.05 -0.061
-1.318 0.957 -0.662
-1.11 1.317 -0.088
-1.076 1.2 -0.686
-0.793 1.518 -0.119
-0.787 1.382 -0.715
-0.438 1.642 -0.155
-0.464 1.496 -0.747
-0.065 1.684 -0.192
-0.124 1.534 -0.781
0.308 1.642 -0.229
0.216 1.496 -0.815
0.662 1.518 -0.264
0.538 1.382 -0.847
0.98 1.317 -0.296
0.828 1.2 -0.876
1.245 1.05 -0.322
1.07 0.957 -0.9
1.445 0.731 -0.342
1.252 0.666 -0.918
1.569 0.375 -0.355
1.365 0.341 -0.929
1.907 0.0 0.656
1.87 0.368 0.656
1.87 0.184 0.974
1.87 -0.184 0.974
1.87 -0.368 0.656
1.87 -0.184 0.337
1.87 0.184 0.337
1.763 0.626 1.017
1.763 0.361 1.281
1.763 -0.0 1.378
1.763 -0.361 1.281
1.763 -0.626 1.017
1.763 -0.722 0.656
1.763 -0.626 0.294
1.763 -0.361 0.03
1.763 -0.0 -0.067
1.763 0.361 0.03
1.763 0.626 0.294
1.763 0.722 0.656
1.588 0.985 1.014
1.588 0.803 1.33
1.588 0.524 1.564
1.588 0.182 1.688
1.588 -0.182 1.688
1.588 -0.524 1.564
1.588 -0.803 1.33
1.588 -0.985 1.014
1.588 -1.049 0.656
1.588 -0.985 0.297
1.588 -0.803 -0.018
1.588 0.803 -0.018
1.588 0.985 0.297
1.588 1.049 0.656
1.354 1.285 1.016
1.354 1.14 1.349
1.354 0.911 1.631
1.354 0.614 1.841
1.354 0.272 1.962
1.354 -0.091 1.987
1.354 -0.447 1.913
1.354 -0.77 1.746
1.354 -1.035 1.498
1.354 -1.224 1.187
1.354 -1.322 0.837
1.354 -1.322 0.474
1.354 -1.224 0.124
1.354 1.14 -0.038
1.354 1.285 0.296
1.354 1.335 0.656
1.068 1.527 1.018
1.068 1.402 1.36
1.068 1.202 1.664
1.068 0.937 1.914
1.068 0.622 2.097
1.068 0.273 2.201
1.068 -0.091 2.222
1.068 -0.45 2.159
1.068 -0.785 2.015
1.068 -1.077 1.797
1.068 -1.311 1.518
1.068 -1.475 1.192
1.068 -1.559 0.838
1.068 -1.559 0.473
1.068 -1.475 0.119
1.068 1.402 -0.049
1.068 1.527 0.294
1.068 1.569 0.656
0.741 1.706 1.018
0.741 1.593 1.365
0.741 1.411 1.681
0.741 1.167 1.952
0.741 0.872 2.166
0.741 0.539 2.314
0.741 0.182 2.39
0.741 -0.182 2.39
0.741 -0.539 2.314
0.741 -0.872 2.166
0.741 -1.167 1.952
0.741 -1.411 1.681
0.741 -1.593 1.365
0.741 -1.706 1.018
0.741 -1.744 0.656
0.741 -1.706 0.293
0.741 -1.593 -0.054
0.741 1.593 -0.054
0.741 1.706 0.293
0.741 1.744 0.656
0.387 1.816 1.017
0.387 1.71 1.364
0.387 1.539 1.684
0.387 1.309 1.965
0.387 1.028 2.195
0.387 0.708 2.366
0.387 0.361 2.471
0.387 0.0 2.507
0.387 -0.361 2.471
0.387 -0.708 2.366
0.387 -1.028 2.195
0.387 -1.309 1.965
0.387 -1.539 1.684
0.387 -1.71 1.364
0.387 -1.816 1.017
0.387 -1.851 0.656
0.387 -1.816 0.294
0.387 -1.71 -0.053
0.387 1.71 -0.053
0.387 1.816 0.294
0.387 1.851 0.656
0.019 1.853 1.013
0.019 1.752 1.357
0.019 1.588 1.676
0.019 1.366 1.958
0.019 1.095 2.193
0.019 0.784 2.373
0.019 0.445 2.49
0.019 0.09 2.541
0.019 -0.269 2.524
0.019 -0.617 2.439
0.019 -0.944 2.29
0.019 -1.236 2.082
0.019 -1.484 1.822
0.019 -1.678 1.521
0.019 -1.811 1.187
0.019 -1.879 0.835
0.019 -1.879 0.476
0.019 -1.811 0.124
0.019 1.853 0.298
0.019 1.888 0.656
-0.349 1.851 0.656
-0.349 1.816 1.017
-0.349 1.71 1.364
-0.349 1.539 1.684
-0.349 1.309 1.965
-0.349 1.028 2.195
-0.349 0.708 2.366
-0.349 0.361 2.471
-0.349 0.0 2.507
-0.349 -0.361 2.471
-0.349 -0.708 2.366
-0.349 -1.028 2.195
-0.349 -1.309 1.965
-0.349 -1.539 1.684
-0.349 -1.71 1.364
-0.349 -1.816 1.017
-0.349 -1.851 0.656
-0.349 -1.816 0.294
-0.349 1.816 0.294
-0.703 1.744 0.656
-0.703 1.706 1.018
-0.703 1.593 1.365
-0.703 1.411 1.681
-0.703 1.167 1.952
-0.703 0.872 2.166
-0.703 0.539 2.314
-0.703 0.182 2.39
-0.703 -0.182 2.39
-0.703 -0.539 2.314
-0.703 -0.872 2.166
-0.703 -1.167 1.952
-0.703 -1.411 1.681
-0.703 -1.593 1.365
-0.703 -1.706 1.018
-0.703 -1.744 0.656
-0.703 -1.706 0.293
-0.703 1.706 0.293
-1.03 1.569 0.656
-1.03 1.527 1.018
-1.03 1.402 1.36
-1.03 1.202 1.664
-1.03 0.937 1.914
-1.03 0.622 2.097
-1.03 0.273 2.201
-1.03 -0.091 2.222
-1.03 -0.45 2.159
-1.03 -0.785 2.015
-1.03 -1.077 1.797
-1.03 -1.311 1.518
-1.03 -1.475 1.192
-1.03 -1.559 0.838
-1.03 -1.559 0.473
-1.03 -1.475 0.119
-1.03 1.527 0.294
-1.316 1.335 0.656
-1.316 1.285 1.016
-1.316 1.14 1.349
-1.316 0.911 1.631
-1.316 0.614 1.841
-1.316 0.272 1.962
-1.316 -0.091 1.987
-1.316 -0.447 1.913
-1.316 -0.77 1.746
-1.316 -1.035 1.498
-1.316 -1.224 1.187
-1.316 -1.322 0.837
-1.316 -1.322 0.474
-1.316 -1.224 0.124
-1.316 1.285 0.296
-1.55 1.049 0.656
-1.55 0.985 1.014
-1.55 0.803 1.33
-1.55 0.524 1.564
-1.55 0.182 1.688
-1.55 -0.182 1.688
-1.55 -0.524 1.564
-1.55 -0.803 1.33
-1.55 -0.985 1.014
-1.55 -1.049 0.656
-1.55 -0.985 0.297
-1.55 0.985 0.297
-1.725 0.722 0.656
-1.725 0.626 1.017
-1.725 0.361 1.281
-1.725 -0.0 1.378
-1.725 -0.361 1.281
-1.725 -0.626 1.017
-1.725 -0.722 0.656
-1.725 -0.626 0.294
-1.725 0.626 0.294
-1.832 0.368 0.656
-1.832 0.184 0.974
-1.832 -0.184 0.974
-1.832 -0.368 0.656
-1.832 -0.184 0.337
-1.832 0.184 0.337
-1.868 -0.0 0.656
1.611 0.0 -0.359
1.239 -0.357 -1.355
1.029 -0.613 -1.549
1.029 -0.279 -1.716
1.239 0.357 -1.355
1.029 0.094 -1.751
1.029 0.454 -1.648
1.029 -0.865 -1.273
0.752 -1.212 -1.093
0.752 -1.063 -1.42
0.752 -0.827 -1.692
0.752 -0.525 -1.886
0.752 -0.18 -1.988
0.752 0.18 -1.988
0.752 0.525 -1.886
0.752 0.827 -1.692
1.029 0.752 -1.423
0.752 1.063 -1.42
1.029 0.949 -1.105
0.752 1.212 -1.093
0.425 -1.334 -1.266
0.425 -1.161 -1.581
0.425 -0.915 -1.843
0.425 -0.611 -2.036
0.425 -0.269 -2.147
0.425 0.09 -2.17
0.425 0.444 -2.102
0.425 0.769 -1.949
0.425 1.046 -1.72
0.425 1.258 -1.429
0.425 1.39 -1.094
0.065 -1.48 -1.102
0.065 -1.349 -1.445
0.065 -1.141 -1.748
0.065 -0.866 -1.991
0.065 -0.54 -2.162
0.065 -0.184 -2.25
0.065 0.184 -2.25
0.065 0.54 -2.162
0.065 0.866 -1.991
0.065 1.141 -1.748
0.065 1.349 -1.445
0.065 1.48 -1.102
-0.305 -1.48 -1.102
-0.305 -1.349 -1.445
-0.305 -1.141 -1.748
-0.305 -0.866 -1.991
-0.305 -0.54 -2.162
-0.305 -0.184 -2.25
-0.305 0.184 -2.25
-0.305 0.54 -2.162
-0.305 0.866 -1.991
-0.305 1.141 -1.748
-0.305 1.349 -1.445
-0.305 1.48 -1.102
-0.664 -1.424 -0.917
-0.664 -1.334 -1.266
-0.664 -1.161 -1.581
-0.664 -0.915 -1.843
-0.664 -0.611 -2.036
-0.664 -0.269 -2.147
-0.664 0.09 -2.17
-0.664 0.444 -2.102
-0.664 0.769 -1.949
-0.664 1.046 -1.72
-0.664 1.258 -1.429
-0.664 1.39 -1.094
-0.992 -1.212 -1.093
-0.992 -1.063 -1.42
-0.992 -0.827 -1.692
-0.992 -0.525 -1.886
-0.992 -0.18 -1.988
-0.992 0.18 -1.988
-0.992 0.525 -1.886
-0.992 0.827 -1.692
-0.992 1.063 -1.42
-0.992 1.212 -1.093
-1.269 -1.001 -0.924
-1.269 -0.865 -1.273
-1.269 -0.613 -1.549
-1.269 -0.279 -1.716
-1.269 0.094 -1.751
-1.269 0.454 -1.648
-1.269 0.752 -1.423
-1.269 0.949 -1.105
-1.479 -0.618 -1.094
-1.479 -0.357 -1.355
-1.479 -0.0 -1.451
-1.479 0.357 -1.355
-1.479 0.618 -1.094
-1.61 -0.184 -1.055
-1.61 0.184 -1.055
1.403 0.0 -0.933
1.239 -0.0 -1.451
1.488 0.1705 -0.644
1.384 0.1705 -0.931
1.507 0.0 -0.646
1.2455 -0.5115 -1.1365
1.134 -0.611 -1.314
1.1405 -0.7655 -1.0955
1.486 -0.1875 -0.644
1.134 -0.1395 -1.5835
1.134 0.047 -1.601
1.029 -0.0925 -1.7335
1.134 0.5545 -1.389
1.1405 0.709 -1.1705
1.2455 0.5115 -1.1365
1.455 0.0 -0.7895
1.538 -0.1875 -0.5005

CELLS 772 3088
3 0 1 2
3 2 1 3
3 1 4 3
3 3 4 5
3 4 6 5
3 5 6 7
3 6 8 7
3 7 8 9
3 8 10 9
3 9 10 11
3 10 12 11
3 11 12 13
3 12 14 13
3 13 14 15
3 14 16 15
3 15 16 17
3 16 18 17
3 17 18 19
3 18 20 19
3 19 20 21
3 20 22 21
3 21 22 23
3 22 24 23
3 23 24 25
3 24 26 25
3 25 26 27
3 26 28 27
3 27 28 29
3 28 30 29
3 29 30 31
3 30 32 31
3 31 32 33
3 32 34 33
3 33 34 35
3 34 36 35
3 35 36 37
3 36 38 37
3 37 38 39
3 38 40 39
3 39 40 41
3 40 42 41
3 41 42 43
3 42 44 43
3 43 44 45
3 44 46 45
3 45 46 47
3 46 48 47
3 47 48 49
3 48 50 49
3 49 50 51
3 50 52 51
3 51 52 53
3 54 55 56
3 54 56 57
3 54 57 58
3 54 58 59
3 54 59 60
3 54 60 55
3 56 55 61
3 56 61 62
3 56 62 63
3 57 56 63
3 57 63 64
3 57 64 65
3 58 57 65
3 58 65 66
3 58 66 67
3 59 58 67
3 59 67 68
3 59 68 69
3 60 59 69
3 60 69 70
3 60 70 71
3 55 60 71
3 55 71 72
3 55 72 61
3 61 72 73
3 61 73 74
3 62 61 74
3 62 74 75
3 62 75 76
3 63 62 76
3 63 76 77
3 64 63 77
3 64 77 78
3 64 78 79
3 65 64 79
3 65 79 80
3 66 65 80
3 66 80 81
3 66 81 82
3 67 66 82
3 67 82 83
3 68 67 83
3 71 70 84
3 71 84 85
3 72 71 85
3 72 85 86
3 72 86 73
3 73 86 87
3 73 87 88
3 74 73 88
3 74 88 89
3 75 74 89
3 75 89 90
3 76 75 90
3 76 90 91
3 76 91 92
3 77 76 92
3 77 92 93
3 78 77 93
3 78 93 94
3 79 78 94
3 79 94 95
3 79 95 96
3 80 79 96
3 80 96 97
3 81 80 97
3 81 97 98
3 82 81 98
3 82 98 99
3 83 82 99
3 85 84 100
3 85 100 101
3 86 85 101
3 86 101 102
3 86 102 87
3 87 102 103
3 87 103 104
3 88 87 104
3 88 104 105
3 89 88 105
3 89 105 106
3 90 89 106
3 90 106 107
3 91 90 107
3 91 107 108
3 92 91 108
3 92 108 109
3 92 109 110
3 93 92 110
3 93 110 111
3 94 93 111
3 94 111 112
3 95 94 112
3 95 112 113
3 96 95 113
3 96 113 114
3 97 96 114
3 97 114 115
3 97 115 116
3 98 97 116
3 98 116 117
3 99 98 117
3 101 100 118
3 101 118 119
3 102 101 119
3 102 119 120
3 102 120 103
3 103 120 121
3 103 121 122
3 104 103 122
3 104 122 123
3 105 104 123
3 105 123 124
3 106 105 124
3 106 124 125
3 107 106 125
3 107 125 126
3 108 107 126
3 108 126 127
3 109 108 127
3 109 127 128
3 110 109 128
3 110 128 129
3 111 110 129
3 111 129 130
3 111 130 131
3 112 111 131
3 112 131 132
3 113 112 132
3 113 132 133
3 114 113 133
3 114 133 134
3 115 114 134
3 115 134 135
3 116 115 135
3 116 135 136
3 117 116 136
3 117 136 137
3 119 118 138
3 119 138 139
3 120 119 139
3 120 139 140
3 120 140 121
3 121 140 141
3 121 141 142
3 122 121 142
3 122 142 143
3 123 122 143
3 123 143 144
3 124 123 144
3 124 144 145
3 125 124 145
3 125 145 146
3 126 125 146
3 126 146 147
3 127 126 147
3 127 147 148
3 128 127 148
3 128 148 149
3 129 128 149
3 129 149 150
3 130 129 150
3 130 150 151
3 131 130 151
3 131 151 152
3 132 131 152
3 132 152 153
3 133 132 153
3 133 153 154
3 134 133 154
3 134 154 155
3 135 134 155
3 135 155 156
3 135 156 157
3 136 135 157
3 136 157 158
3 137 136 158
3 139 138 159
3 139 159 160
3 140 139 160
3 140 160 161
3 140 161 141
3 141 161 162
3 141 162 163
3 142 141 163
3 142 163 164
3 143 142 164
3 143 164 165
3 144 143 165
3 144 165 166
3 145 144 166
3 145 166 167
3 146 145 167
3 146 167 168
3 147 146 168
3 147 168 169
3 148 147 169
3 148 169 170
3 149 148 170
3 149 170 171
3 150 149 171
3 150 171 172
3 151 150 172
3 151 172 173
3 152 151 173
3 152 173 174
3 153 152 174
3 153 174 175
3 154 153 175
3 154 175 176
3 155 154 176
3 155 176 177
3 156 155 177
3 156 177 178
3 157 156 178
3 157 178 179
3 158 157 179
3 161 160 180
3 161 180 181
3 161 181 162
3 162 181 182
3 162 182 183
3 163 162 183
3 163 183 184
3 164 163 184
3 164 184 185
3 165 164 185
3 165 185 186
3 166 165 186
3 166 186 187
3 167 166 187
3 167 187 188
3 168 167 188
3 168 188 189
3 169 168 189
3 169 189 190
3 170 169 190
3 170 190 191
3 171 170 191
3 171 191 192
3 172 171 192
3 172 192 193
3 173 172 193
3 173 193 194
3 174 173 194
3 174 194 195
3 175 174 195
3 175 195 196
3 176 175 196
3 176 196 197
3 177 176 197
3 177 197 198
3 178 177 198
3 178 198 199
3 179 178 199
3 182 180 200
3 181 180 182
3 183 182 201
3 183 201 202
3 184 183 202
3 184 202 203
3 185 184 203
3 185 203 204
3 186 185 204
3 186 204 205
3 187 186 205
3 187 205 206
3 188 187 206
3 188 206 207
3 189 188 207
3 189 207 208
3 190 189 208
3 190 208 209
3 191 190 209
3 191 209 210
3 192 191 210
3 192 210 211
3 193 192 211
3 193 211 212
3 194 193 212
3 194 212 213
3 195 194 213
3 195 213 214
3 196 195 214
3 196 214 215
3 197 196 215
3 197 215 216
3 198 197 216
3 199 198 216
3 199 216 217
3 201 200 218
3 182 200 201
3 202 201 219
3 202 219 220
3 203 202 220
3 203 220 221
3 204 203 221
3 204 221 222
3 205 204 222
3 205 222 223
3 206 205 223
3 206 223 224
3 207 206 224
3 207 224 225
3 208 207 225
3 208 225 226
3 209 208 226
3 209 226 227
3 210 209 227
3 210 227 228
3 211 210 228
3 212 211 228
3 212 228 229
3 213 212 229
3 213 229 230
3 214 213 230
3 214 230 231
3 215 214 231
3 215 231 232
3 216 215 232
3 216 232 233
3 217 216 233
3 217 233 234
3 219 218 235
3 201 218 219
3 220 219 236
3 220 236 237
3 221 220 237
3 221 237 238
3 222 221 238
3 222 238 239
3 223 222 239
3 223 239 240
3 224 223 240
3 224 240 241
3 225 224 241
3 225 241 242
3 226 225 242
3 227 226 242
3 227 242 243
3 228 227 243
3 228 243 244
3 229 228 244
3 229 244 245
3 230 229 245
3 230 245 246
3 231 230 246
3 231 246 247
3 232 231 247
3 232 247 248
3 233 232 248
3 234 233 248
3 234 248 249
3 236 235 250
3 219 235 236
3 237 236 251
3 237 251 252
3 238 237 252
3 238 252 253
3 239 238 253
3 239 253 254
3 240 239 254
3 240 254 255
3 241 240 255
3 242 241 255
3 242 255 256
3 243 242 256
3 243 256 257
3 244 243 257
3 244 257 258
3 245 244 258
3 246 245 258
3 246 258 259
3 247 246 259
3 247 259 260
3 248 247 260
3 248 260 261
3 249 248 261
3 251 250 262
3 236 250 251
3 252 251 263
3 252 263 264
3 253 252 264
3 253 264 265
3 254 253 265
3 255 254 265
3 255 265 266
3 256 255 266
3 256 266 267
3 257 256 267
3 258 257 267
3 258 267 268
3 259 258 268
3 259 268 269
3 260 259 269
3 261 260 269
3 261 269 270
3 263 262 271
3 251 262 263
3 264 263 272
3 264 272 273
3 265 264 273
3 266 265 273
3 266 273 274
3 267 266 274
3 268 267 274
3 268 274 275
3 269 268 275
3 270 269 275
3 270 275 276
3 272 271 277
3 263 271 272
3 273 272 278
3 274 273 278
3 275 274 278
3 276 275 278
3 277 276 278
3 272 277 278
3 277 271 28
3 277 28 26
3 277 26 276
3 276 26 24
3 276 24 270
3 270 24 22
3 270 22 261
3 261 22 20
3 261 20 249
3 249 20 18
3 249 18 234
3 234 18 16
3 234 16 217
3 217 16 14
3 217 14 199
3 199 14 179
3 179 14 12
3 179 12 10
3 179 10 158
3 158 10 8
3 158 8 137
3 137 8 6
3 137 6 117
3 117 6 99
3 99 6 4
3 99 4 83
3 83 4 1
3 83 1 0
3 83 0 68
3 68 0 69
3 69 0 279
3 69 279 52
3 69 52 70
3 70 52 84
3 84 52 50
3 84 50 48
3 84 48 100
3 100 48 118
3 118 48 46
3 118 46 138
3 138 46 44
3 138 44 159
3 159 44 42
3 159 42 40
3 159 40 180
3 159 180 160
3 180 40 200
3 200 40 38
3 200 38 218
3 218 38 36
3 218 36 235
3 235 36 34
3 235 34 250
3 250 34 32
3 250 32 262
3 262 32 30
3 262 30 271
3 271 30 28
3 280 281 282
3 283 284 285
3 286 287 288
3 286 288 289
3 281 286 289
3 281 289 290
3 282 281 290
3 282 290 291
3 284 291 292
3 285 284 292
3 285 292 293
3 285 293 294
3 295 285 294
3 295 294 296
3 297 295 296
3 297 296 298
3 288 287 299
3 288 299 300
3 289 288 300
3 289 300 301
3 290 289 301
3 290 301 302
3 290 302 303
3 291 290 303
3 291 303 304
3 292 291 304
3 292 304 305
3 293 292 305
3 293 305 306
3 294 293 306
3 294 306 307
3 296 294 307
3 296 307 308
3 298 296 308
3 298 308 309
3 299 310 311
3 300 299 311
3 300 311 312
3 301 300 312
3 301 312 313
3 302 301 313
3 302 313 314
3 303 302 314
3 303 314 315
3 304 303 315
3 304 315 316
3 305 304 316
3 305 316 317
3 306 305 317
3 306 317 318
3 307 306 318
3 307 318 319
3 308 307 319
3 308 319 320
3 309 308 320
3 309 320 321
3 310 322 323
3 311 310 323
3 311 323 324
3 312 311 324
3 312 324 325
3 313 312 325
3 313 325 326
3 314 313 326
3 314 326 327
3 315 314 327
3 315 327 328
3 316 315 328
3 316 328 329
3 317 316 329
3 317 329 330
3 318 317 330
3 318 330 331
3 319 318 331
3 319 331 332
3 320 319 332
3 320 332 333
3 321 320 333
3 322 334 335
3 323 322 335
3 323 335 336
3 324 323 336
3 324 336 337
3 325 324 337
3 325 337 338
3 326 325 338
3 326 338 339
3 327 326 339
3 327 339 340
3 328 327 340
3 328 340 341
3 329 328 341
3 329 341 342
3 330 329 342
3 330 342 343
3 331 330 343
3 331 343 344
3 332 331 344
3 332 344 345
3 333 332 345
3 335 334 346
3 335 346 347
3 336 335 347
3 336 347 348
3 337 336 348
3 337 348 349
3 338 337 349
3 339 338 349
3 339 349 350
3 340 339 350
3 340 350 351
3 341 340 351
3 341 351 352
3 342 341 352
3 342 352 353
3 343 342 353
3 343 353 354
3 344 343 354
3 344 354 355
3 345 344 355
3 346 356 357
3 347 346 357
3 348 347 357
3 348 357 358
3 349 348 358
3 349 358 359
3 350 349 359
3 350 359 360
3 351 350 360
3 351 360 361
3 352 351 361
3 353 352 361
3 353 361 362
3 354 353 362
3 354 362 363
3 355 354 363
3 357 356 364
3 358 357 364
3 358 364 365
3 359 358 365
3 359 365 366
3 360 359 366
3 360 366 367
3 361 360 367
3 362 361 367
3 362 367 368
3 363 362 368
3 365 364 369
3 366 365 369
3 366 369 370
3 367 366 370
3 368 367 370
3 368 370 29
3 368 29 31
3 368 31 33
3 368 33 363
3 363 33 35
3 363 35 355
3 355 35 37
3 355 37 345
3 345 37 39
3 345 39 333
3 333 39 41
3 333 41 321
3 321 41 43
3 321 43 309
3 309 43 45
3 309 45 298
3 298 45 47
3 298 47 297
3 297 47 49
3 297 49 51
3 283 371 372
3 372 371 280
3 280 371 2
3 286 5 287
3 287 5 7
3 287 7 9
3 287 9 299
3 299 9 11
3 299 11 310
3 310 11 13
3 310 13 322
3 322 13 15
3 322 15 334
3 334 15 17
3 334 17 346
3 346 17 19
3 346 19 356
3 356 19 21
3 356 21 23
3 356 23 364
3 364 23 25
3 364 25 369
3 369 25 27
3 369 27 370
3 370 27 29
3 279 373 52
3 52 373 53
3 53 373 374
3 373 375 374
3 373 279 375
3 53 374 283
3 283 374 371
3 3 376 2
3 2 376 280
3 280 376 377
3 376 378 377
3 376 3 378
3 377 378 286
3 280 377 281
3 377 286 281
3 286 378 5
3 378 3 5
3 371 379 2
3 379 0 2
3 282 380 280
3 280 380 372
3 372 380 381
3 380 382 381
3 380 282 382
3 381 382 284
3 372 381 283
3 283 381 284
3 295 383 285
3 285 383 283
3 284 382 291
3 382 282 291
3 51 384 297
3 297 384 295
3 295 384 383
3 384 385 383
3 384 51 385
3 383 385 283
3 283 385 53
3 385 51 53
3 371 386 379
3 386 387 379
3 386 375 387
3 379 387 0
3 0 387 279
3 387 375 279
3 375 386 374
3 374 386 371

CELL_TYPES 772
5
5
5
5
5
5
5
5
5
5
5
5
5
5
5
5
5
5
5
5
5
5
5
5
5
5
5
5
5
5
5
5
5
5
5
5
5
5
5
5
5
5
5
5
5
5
5
5
5
5
5
5
5
5
5
5
5
5
5
5
5
5
5
5
5
5
5
5
5
5
5
5
5
5
5
5
5
5
5
5
5
5
5
5
5
5
5
5
5
5
5
5
5
5
5
5
5
5
5
5
5
5
5
5
5
5
5
5
5
5
5
5
5
5
5
5
5
5
5
5
5
5
5
5
5
5
5
5
5
5
5
5
5
5
5
5
5
5
5
5
5
5
5
5
5
5
5
5
5
5
5
5
5
5
5
5
5
5
5
5
5
5
5
5
5
5
5
5
5
5
5
5
5
5
5
5
5
5
5
5
5
5
5
5
5
5
5
5
5
5
5
5
5
5
5
5
5
5
5
5
5
5
5
5
5
5
5
5
5
5
5
5
5
5
5
5
5
5
5
5
5
5
5
5
5
5
5
5
5
5
5
5
5
5
5
5
5
5
5
5
5
5
5
5
5
5
5
5
5
5
5
5
5
5
5
5
5
5
5
5
5
5
5
5
5
5
5
5
5
5
5
5
5
5
5
5
5
5
5
5
5
5
5
5
5
5
5
5
5
5
5
5
5
5
5
5
5
5
5
5
5
5
5
5
5
5
5
5
5
5
5
5
5
5
5
5
5
5
5
5
5
5
5
5
5
5
5
5
5
5
5
5
5
5
5
5
5
5
5
5
5
5
5
5
5
5
5
5
5
5
5
5
5
5
5
5
5
5
5
5
5
5
5
5
5
5
5
5
5
5
5
5
5
5
5
5
5
5
5
5
5
5
5
5
5
5
5
5
5
5
5
5
5
5
5
5
5
5
5
5
5
5
5
5
5
5
5
5
5
5
5
5
5
5
5
5
5
5
5
5
5
5
5
5
5
5
5
5
5
5
5
5
5
5
5
5
5
5
5
5
5
5
5
5
5
5
5
5
5
5
5
5
5
5
5
5
5
5
5
5
5
5
5
5
5
5
5
5
5
5
5
5
5
5
5
5
5
5
5
5
5
5
5
5
5
5
5
5
5
5
5
5
5
5
5
5
5
5
5
5
5
5
5
5
5
5
5
5
5
5
5
5
5
5
5
5
5
5
5
5
5
5
5
5
5
5
5
5
5
5
5
5
5
5
5
5
5
5
5
5
5
5
5
5
5
5
5
5
5
5
5
5
5
5
5
5
5
5
5
5
5
5
5
5
5
5
5
5
5
5
5
5
5
5
5
5
5
5
5
5
5
5
5
5
5
5
5
5
5
5
5
5
5
5
5
5
5
5
5
5
5
5
5
5
5
5
5
5
5
5
5
5
5
5
5
5
5
5
5
5
5
5
5
5
5
5
5
5
5
5
5
5
5
5
5
5
5
5
5
5
5
5
5
5
5
5
5
5
5
5
5
5
5
5
5
5
5
5
5
5
5
5
5
5
5
5
5
5
5
5
5
5
5
5
5
5
5
5
5
5
5
5
5
5
5
5
5
5
5
5
5
5
5
5
5
5
5
5
5
5
5
5
5
5
5
5
5
5
5
5
5
5
5
5
5
5
5
5
5
5
5
5
5
5
5
5
5
5
5
5
5
5
5
5
5
5
5
5
5
5
5
5
5
5
5
5
5
5
5
5
5
5
5
5
5
5
5
5
5
5
5
5
5
5
5
5
5
5
5
5
5
5

CELL_DATA 772
SCALARS cell_data_0 double
LOOKUP_TABLE default
4.68853704494e-07
2.85778322935e-07
1.27396157825e-07
1.63040631835e-07
2.01410569379e-08
6.21814636135e-08
1.38225744371e-08
4.26701987531e-09
1.83858243232e-08
4.03407978272e-08
1.52853440322e-08
5.9295521595e-08
4.74408060656e-09
7.27542552651e-08
2.39621451373e-09
7.76934539353e-08
4.50956352738e-09
7.94381105627e-08
1.13577516551e-08
8.34936400607e-08
1.93848394107e-08
8.46646138717e-08
2.41224290908e-08
8.29335036382e-08
2.8152485798e-08
8.25949162321e-08
3.21082584516e-08
8.30947439493e-08
3.47605509465e-08
7.46354655127e-08
3.8905817362e-08
7.34719451146e-08
4.4004727921e-08
6.48847525648e-08
4.79079501216e-08
5.82781925622e-08
5.18381980324e-08
4.62956314345e-08
5.56379355436e-08
3.11383126066e-08
5.5536636682e-08
7.732623143e-09
5.33904498992e-08
1.70898783494e-08
4.49288219812e-08
4.00739941532e-08
1.89219634879e-08
2.57351573763e-08
3.18693825553e-08
1.72566442123e-07
5.67144962444e-08
6.17573376047e-07
2.88497353268e-10
1.10581806385e-11
3.52596870998e-10
1.70489692527e-10
2.8552470614e-10
1.34176502092e-10
3.79305964337e-10
1.47176380805e-10
1.06528863465e-10
3.70768446159e-10
2.56118542453e-10
1.52503498291e-10
6.22760244239e-10
4.83485331282e-10
3.91638340704e-10
9.53864971559e-10
6.08761272378e-10
1.53064189101e-09
2.10896338145e-10
2.237978717e-09
1.0964901628e-10
1.4326304034e-09
3.61213033116e-10
4.5317674148e-10
1.42146583873e-10
1.59222990599e-10
1.78294238763e-10
6.43113679433e-11
1.26310407345e-10
7.44847862237e-11
2.48418739403e-10
2.58197692179e-10
5.68206852996e-11
2.61124031128e-10
2.23091568157e-10
7.81647316635e-13
3.0670027826e-10
3.72731041916e-10
4.10289288178e-10
1.97090153572e-09
7.55086922543e-10
3.81223152096e-09
3.4126979696e-09
6.79258479102e-10
1.01861256793e-09
4.03481856278e-10
2.06356232372e-10
8.18745319464e-11
2.85721392313e-12
1.56997986354e-10
1.02695459256e-10
2.19304363932e-10
1.14743066859e-10
1.04263444481e-10
4.28406213696e-11
3.56143096307e-10
1.75875553118e-10
1.8736908264e-10
2.14739069816e-10
5.96312450503e-11
1.53477306395e-10
7.49769656084e-11
1.21684702268e-10
2.93915206621e-10
1.24716405236e-10
1.9422141728e-10
2.34737750621e-10
1.66723880548e-09
5.75140074815e-10
4.64391391817e-09
8.54399649384e-10
7.20397170666e-10
2.3690975165e-10
3.78735237008e-10
3.73577503651e-11
2.88821342067e-11
7.26598107055e-12
1.9910115727e-11
1.56028848627e-10
1.24952043873e-10
6.95858024264e-11
3.19312323688e-11
5.79987624642e-11
2.51279435718e-11
1.09803015102e-11
6.99112075163e-11
7.12670922217e-11
8.81545094201e-11
1.13260442015e-10
1.72888504736e-10
5.48192557086e-11
1.55581840933e-10
1.38905191709e-10
1.61637619094e-10
6.18195904874e-12
4.44945667574e-11
2.36933858625e-10
1.50879222945e-10
2.80205079931e-10
1.13666289823e-09
7.1836932555e-10
7.09283930828e-10
1.8822331141e-10
1.18064050686e-09
6.35082606091e-11
2.49825059277e-10
2.49938989924e-10
8.70801850908e-11
3.33086713397e-11
3.80755585009e-11
5.05793250877e-11
9.4676091579e-11
2.10677187547e-12
7.02940419219e-11
9.19854792347e-11
2.69095658439e-11
6.28566965219e-11
4.18971643056e-11
3.08745905755e-11
9.50059929981e-11
2.42281959338e-11
3.04945921322e-11
1.85619842298e-11
7.44654367433e-11
4.79101978513e-11
4.82443368281e-11
1.57576026441e-10
2.4666859119e-11
1.17741981123e-10
4.04677449568e-12
2.15311445089e-10
6.41962965454e-11
2.8999626275e-10
7.27557071199e-11
2.50559120673e-10
4.77615952896e-10
1.07895633101e-09
4.24256880671e-10
9.28951057185e-10
8.45374084934e-10
7.02167133516e-10
3.30775622861e-10
2.99113893375e-10
1.48836549732e-10
9.65347143553e-11
1.58270307275e-10
4.61609347248e-11
4.49862664087e-11
3.89575496348e-11
1.06139983345e-10
2.67789716668e-11
6.51376737865e-11
1.48953850434e-10
1.78373816024e-11
9.81339855525e-11
7.66366710029e-11
1.19504618014e-10
2.83970332566e-11
6.87807087202e-11
1.71846184037e-11
5.87764536449e-11
6.52124773448e-11
5.52382886923e-11
3.30738173861e-11
1.9719231639e-11
6.63668149882e-13
4.34651550426e-11
9.32696090597e-12
7.96299731792e-11
2.59783636157e-11
2.66435356494e-10
2.05224674225e-11
3.99515913452e-10
3.40501558765e-10
2.25697737513e-09
3.75716190548e-10
4.20158919939e-09
2.93435240489e-09
7.34140240454e-10
1.2559759778e-09
2.52213687889e-10
4.49772809984e-10
8.13842987376e-11
1.6935115967e-10
3.2892258443e-11
1.86086594617e-10
8.72714405334e-11
1.60980277175e-10
8.24298696375e-11
5.03618949167e-11
1.09368334762e-10
5.63628111362e-11
8.13336888128e-11
1.07408013414e-10
2.89102651205e-11
5.32592064863e-11
2.31463937692e-12
7.77016411138e-11
7.4241351318e-11
9.42303544283e-11
4.1127432924e-11
1.26924417622e-10
4.07494651372e-11
4.28093944339e-11
4.986081066e-11
1.43103518791e-11
6.29717011214e-11
7.61386161766e-11
1.31907683689e-10
5.89179166103e-11
1.86367236785e-10
2.45665049492e-10
2.40669012683e-10
6.6805754321e-10
7.08707812479e-10
1.00193490412e-09
7.12131134973e-10
1.92369332838e-09
2.24528096099e-10
7.21246586816e-10
1.32970878785e-09
7.82007491768e-11
4.83472693136e-10
5.72511073241e-12
2.66204731753e-10
2.20150534705e-11
1.66468815589e-10
9.15837638658e-12
9.50159764481e-11
3.68614131334e-11
2.1436530803e-11
1.58402285724e-12
2.70998290982e-11
1.79191434512e-11
4.83203289893e-11
6.77452768181e-11
4.99357100435e-11
3.50160105923e-12
5.21144336376e-11
1.63862729575e-11
7.86949244917e-11
2.27532172095e-11
6.84748184235e-11
4.44536052101e-11
4.71754095764e-11
1.63257290213e-12
2.78740349765e-11
1.82277269855e-10
1.03804681725e-10
2.80688893438e-10
7.41895867269e-11
6.22820138535e-10
1.75591506373e-10
1.31535496288e-09
1.4452050397e-11
7.02586590859e-10
3.12314741257e-10
1.68501167894e-09
2.21718191517e-10
6.49274351109e-10
4.71770003795e-12
3.97813904388e-10
4.03675479509e-11
2.48824719401e-10
5.088390972e-11
1.9506624087e-10
4.63449458686e-11
1.62408494916e-10
5.11283755476e-11
6.62182624025e-11
3.23512646621e-11
9.31685157077e-11
6.53884094936e-11
8.12404224299e-11
7.93850210414e-11
1.12117985994e-11
7.74747959458e-11
4.42828381992e-11
9.59855251035e-11
9.90328629454e-11
5.14083606177e-11
1.60821919517e-10
8.08597493035e-11
4.05312689759e-10
2.94960373633e-11
5.60498747759e-10
1.70280370622e-10
1.48010232849e-09
1.09355567337e-09
1.23990231786e-09
6.2557322219e-10
1.80224348524e-10
1.9826608135e-09
2.35282145709e-10
6.55432309013e-10
8.6742158764e-11
3.45573303876e-10
4.58904123644e-11
2.12937943485e-10
2.41678847933e-11
7.92580957722e-11
7.73968288583e-11
5.84365971498e-11
1.04107822474e-10
1.99368556727e-11
1.56838866637e-10
6.33116377817e-11
1.01523208296e-10
4.20198745116e-11
1.70037749624e-10
1.54030601023e-10
1.12424557445e-10
1.80597746213e-11
1.05082615671e-10
9.63464260881e-11
3.26105659434e-11
3.16238001205e-10
6.03036378326e-11
5.08026423164e-10
1.74020493328e-10
1.47000737872e-09
1.65950170099e-10
3.61101925977e-09
1.32417758971e-09
5.30205855285e-11
2.13232901192e-09
3.6978219707e-10
7.27041457107e-10
4.93267964742e-11
4.12466977273e-10
5.22314534187e-11
1.58548370128e-10
1.08606783435e-10
9.35411947878e-11
1.63201240583e-10
1.03666080664e-11
1.38438014331e-10
1.34950915768e-10
5.13775232931e-11
1.1806136848e-10
7.67584785806e-11
1.23670763784e-10
1.2607389594e-10
4.15009631969e-11
2.08515763238e-10
3.8511512858e-11
4.79148893299e-10
2.1424393433e-10
8.57255020499e-10
5.03560745965e-10
1.96180819234e-09
4.98636319541e-09
4.53648415336e-09
1.85637510245e-09
6.52092560561e-11
2.32292422708e-09
4.37417100213e-10
6.9667329613e-10
7.90061957258e-11
3.58259928502e-10
7.77990414255e-11
2.01846470689e-10
1.84085505835e-10
6.28557158958e-11
1.32607837433e-11
3.00507966684e-10
1.11539167635e-10
2.34978660931e-10
2.14087594656e-10
2.36616746157e-10
4.54292225021e-10
7.76897007714e-12
4.14012726379e-10
1.45343347221e-10
1.1863123224e-09
5.77226333866e-10
2.56752843899e-09
2.06393259288e-09
2.48507783601e-09
3.24272235214e-10
2.27343773858e-09
5.8567130046e-10
6.76508578702e-10
1.49273181692e-11
2.86094716014e-10
6.81498716183e-11
7.34319262794e-10
2.08741864903e-10
7.10566180854e-10
5.40990859916e-10
4.2271842537e-10
7.17324923932e-11
4.48534144016e-10
7.27068762428e-10
1.20941239592e-09
3.29120585539e-09
3.01644545374e-09
3.65196288704e-09
6.82220153433e-10
2.34358920509e-09
4.05197742792e-10
5.54821066789e-10
1.03253305061e-10
1.57425271031e-09
7.97806965842e-10
5.50709186983e-10
4.09177344989e-10
1.21271311294e-09
4.1196901363e-09
9.87082262931e-10
4.05637190549e-09
1.15689321909e-09
1.76347378686e-09
7.99733100349e-10
7.23672147241e-10
2.70144679807e-09
1.1507545942e-09
7.69104629115e-10
4.78817119966e-09
2.73471415955e-08
3.93567712423e-09
2.68946806015e-08
5.03450519154e-09
2.26484551641e-08
6.71613483075e-09
2.58177335828e-08
3.16549297934e-09
1.09864806227e-08
2.34138022797e-09
1.07045245363e-08
1.37117722308e-08
2.69363694342e-08
1.36589589402e-08
1.02530155555e-08
1.79828763757e-08
1.08187606949e-08
1.47059010764e-09
1.3492570356e-09
2.49210090034e-09
1.89174757964e-09
3.5406571197e-09
1.0927131969e-08
2.47395415645e-09
6.41526144618e-09
5.49461182487e-09
2.19751242672e-08
4.45669685503e-10
3.19435679365e-10
2.8379418216e-09
6.29778186377e-09
2.99462683115e-09
3.85279509824e-09
5.42623984353e-09
4.6496220546e-09
4.97243176299e-09
2.15334250991e-09
4.06827456236e-09
2.76029707794e-09
1.42235893746e-09
2.64764039465e-09
1.45419816184e-09
5.61055786781e-09
1.95590465383e-08
2.01354380289e-09
2.90456809413e-11
2.41759195112e-08
5.86756747271e-10
2.59324178889e-08
2.13052011257e-10
2.58181265529e-08
1.10240545027e-09
2.55936399203e-08
1.39422447175e-09
2.4407396539e-08
1.99006086019e-09
2.295141065e-08
2.49234171725e-07
1.0511156114e-07
1.22790029523e-07
3.94487601412e-08
1.24678745043e-07
1.76181702107e-07
1.60400975208e-07
4.57342145008e-07
6.29970567594e-07
4.91052562883e-07
2.62289333309e-07
3.86856242113e-07
4.46644177192e-07
1.36626937407e-07
1.62671683484e-07
4.31189103851e-08
1.1760704889e-08
4.0041616793e-08
3.2391776394e-08
9.08151744102e-08
2.55209681375e-08
1.49987174458e-07
1.10015948507e-07
2.47385879891e-08
1.55603037852e-07
7.98079030289e-08
1.7587560924e-07
1.36649463755e-07
1.20582175112e-07
1.09059167386e-07
5.77879975262e-08
6.06769615973e-08
3.23967467518e-08
3.7872044879e-08
1.52305983811e-08
1.25172046425e-08
2.42592396317e-09
1.63750393875e-08
2.39092165734e-09
2.34659036889e-08
4.07382828193e-09
3.92884892636e-08
5.8874349657e-09
5.36871263972e-08
2.54030286142e-08
5.31767138274e-08
3.49131732088e-08
4.15901643525e-08
3.23553909241e-08
3.04531518923e-08
2.77981585016e-08
1.83529888619e-08
1.84108146312e-08
1.03466391349e-08
1.09775060863e-08
5.19475622683e-09
4.094211296e-10
1.22973218846e-11
2.46751750185e-09
2.50029475348e-09
4.95650209613e-09
7.81944986125e-10
8.2734194041e-09
1.59551565792e-09
1.1387411467e-08
3.79382691633e-09
1.45459210347e-08
7.82371835204e-09