# vtk DataFile Version 3.0
File Name: Molecule/methanol/methanol_2.0-3.vtk
ASCII
DATASET UNSTRUCTURED_GRID
FIELD FieldData 1
TIME 1 1 double
0.0
POINTS 105 double
1.611 0.0 -0.359
1.445 -0.731 -0.342
1.403 0.0 -0.933
0.98 -1.317 -0.296
1.252 -0.666 -0.918
0.828 -1.2 -0.876
0.308 -1.642 -0.229
0.216 -1.496 -0.815
-0.438 -1.642 -0.155
-0.464 -1.496 -0.747
-1.11 -1.317 -0.088
-1.076 -1.2 -0.686
-1.576 -0.731 -0.042
-1.5 -0.666 -0.644
-1.742 0.0 -0.025
-1.651 0.0 -0.629
-1.576 0.731 -0.042
-1.5 0.666 -0.644
-1.11 1.317 -0.088
-1.076 1.2 -0.686
-0.438 1.642 -0.155
-0.464 1.496 -0.747
0.308 1.642 -0.229
0.216 1.496 -0.815
0.98 1.317 -0.296
0.828 1.2 -0.876
1.445 0.731 -0.342
1.252 0.666 -0.918
1.907 0.0 0.656
1.763 0.722 0.656
1.763 0.361 1.281
1.763 -0.361 1.281
1.763 -0.722 0.656
1.763 -0.361 0.03
1.763 0.361 0.03
1.354 1.123 1.377
1.354 0.554 1.87
1.354 -0.19 1.977
1.354 -0.874 1.664
1.354 -1.281 1.032
1.354 -1.281 0.28
1.354 1.335 0.656
0.741 1.571 1.412
0.741 1.087 2.019
0.741 0.388 2.356
0.741 -0.388 2.356
0.741 -1.087 2.019
0.741 -1.571 1.412
0.741 -1.744 0.656
0.741 1.744 0.656
0.019 1.744 1.378
0.019 1.335 1.99
0.019 0.722 2.399
0.019 -0.0 2.543
0.019 -0.722 2.399
0.019 -1.335 1.99
0.019 -1.744 1.378
0.019 -1.888 0.656
0.019 1.888 0.656
-0.703 1.744 0.656
-0.703 1.571 1.412
-0.703 1.087 2.019
-0.703 0.388 2.356
-0.703 -0.388 2.356
-0.703 -1.087 2.019
-0.703 -1.571 1.412
-0.703 -1.744 0.656
-1.316 1.335 0.656
-1.316 1.123 1.377
-1.316 0.554 1.87
-1.316 -0.19 1.977
-1.316 -0.874 1.664
-1.316 -1.281 1.032
-1.725 0.722 0.656
-1.725 0.361 1.281
-1.725 -0.361 1.281
-1.725 -0.722 0.656
-1.868 0.0 0.656
1.21 0.384 -1.402
0.648 0.552 -1.946
0.648 1.118 -1.456
0.648 -0.871 -1.742
-0.12 -1.149 -1.755
-0.12 -0.544 -2.172
0.648 -0.189 -2.053
-0.12 0.185 -2.261
-0.12 0.872 -2.0
-0.12 1.359 -1.451
-0.887 -1.276 -1.112
-0.887 -0.871 -1.742
-0.887 -0.189 -2.053
-0.887 0.552 -1.946
-0.887 1.118 -1.456
-1.449 -0.384 -1.402
-1.449 0.384 -1.402
0.929 -0.2865 -1.7275
1.21 -0.384 -1.402
1.21 0.0 -1.402
0.929 0.0975 -1.7275
1.3275 0.333 -0.9255
1.231 0.525 -1.16
1.3065 0.192 -1.1675
1.3275 -0.333 -0.9255
1.3065 -0.192 -1.1675
1.231 -0.525 -1.16

CELLS 206 824
3 0 1 2
3 1 3 4
3 4 3 5
3 3 6 5
3 5 6 7
3 6 8 7
3 7 8 9
3 8 10 9
3 9 10 11
3 10 12 11
3 11 12 13
3 12 14 13
3 13 14 15
3 14 16 15
3 15 16 17
3 16 18 17
3 17 18 19
3 18 20 19
3 19 20 21
3 20 22 21
3 21 22 23
3 22 24 23
3 23 24 25
3 24 26 25
3 25 26 27
3 26 0 27
3 28 29 30
3 28 30 31
3 28 31 32
3 28 32 33
3 28 33 34
3 28 34 29
3 30 29 35
3 30 35 36
3 30 36 37
3 31 30 37
3 31 37 38
3 31 38 39
3 32 31 39
3 32 39 40
3 33 32 40
3 29 41 35
3 35 41 42
3 35 42 43
3 36 35 43
3 36 43 44
3 37 36 44
3 37 44 45
3 38 37 45
3 38 45 46
3 38 46 47
3 39 38 47
3 39 47 48
3 40 39 48
3 41 49 42
3 42 49 50
3 42 50 51
3 43 42 51
3 43 51 52
3 44 43 52
3 44 52 53
3 45 44 53
3 45 53 54
3 46 45 54
3 46 54 55
3 47 46 55
3 47 55 56
3 48 47 56
3 48 56 57
3 49 58 50
3 50 58 59
3 50 59 60
3 51 50 60
3 51 60 61
3 52 51 61
3 52 61 62
3 53 52 62
3 53 62 63
3 54 53 63
3 54 63 64
3 55 54 64
3 55 64 65
3 56 55 65
3 56 65 66
3 57 56 66
3 60 59 67
3 60 67 68
3 61 60 68
3 61 68 69
3 62 61 69
3 62 69 70
3 63 62 70
3 63 70 71
3 64 63 71
3 65 64 71
3 65 71 72
3 66 65 72
3 68 67 73
3 68 73 74
3 69 68 74
3 70 69 74
3 70 74 75
3 71 70 75
3 72 71 75
3 72 75 76
3 74 73 77
3 75 74 77
3 76 75 77
3 76 77 14
3 76 14 12
3 76 12 10
3 76 10 72
3 72 10 66
3 66 10 8
3 66 8 57
3 57 8 6
3 57 6 48
3 48 6 3
3 48 3 40
3 40 3 1
3 40 1 33
3 33 1 0
3 33 0 34
3 34 0 26
3 34 26 29
3 29 26 41
3 41 26 24
3 41 24 49
3 49 24 22
3 49 22 58
3 58 22 20
3 58 20 59
3 59 20 18
3 59 18 67
3 67 18 16
3 67 16 73
3 73 16 14
3 73 14 77
3 78 79 80
3 81 82 83
3 84 81 83
3 84 83 85
3 79 84 85
3 79 85 86
3 80 79 86
3 80 86 87
3 82 88 89
3 83 82 89
3 83 89 90
3 85 83 90
3 85 90 91
3 86 85 91
3 86 91 92
3 87 86 92
3 89 88 93
3 90 89 93
3 90 93 94
3 91 90 94
3 92 91 94
3 92 94 17
3 92 17 19
3 92 19 21
3 92 21 87
3 87 21 23
3 87 23 80
3 80 23 25
3 80 25 27
3 81 4 5
3 81 5 7
3 81 7 82
3 82 7 9
3 82 9 88
3 88 9 11
3 88 11 13
3 88 13 93
3 93 13 15
3 93 15 94
3 94 15 17
3 84 95 81
3 81 95 96
3 78 97 98
3 97 95 98
3 97 96 95
3 98 95 84
3 78 98 79
3 98 84 79
3 2 99 0
3 0 99 27
3 27 100 80
3 80 100 78
3 78 100 101
3 100 99 101
3 100 27 99
3 101 99 2
3 78 101 97
3 97 101 2
3 4 102 1
3 1 102 2
3 96 103 104
3 103 102 104
3 103 2 102
3 104 102 4
3 96 104 81
3 104 4 81
3 2 103 97
3 97 103 96

CELL_TYPES 206
5
5
5
5
5
5
5
5
5
5
5
5
5
5
5
5
5
5
5
5
5
5
5
5
5
5
5
5
5
5
5
5
5
5
5
5
5
5
5
5
5
5
5
5
5
5
5
5
5
5
5
5
5
5
5
5
5
5
5
5
5
5
5
5
5
5
5
5
5
5
5
5
5
5
5
5
5
5
5
5
5
5
5
5
5
5
5
5
5
5
5
5
5
5
5
5
5
5
5
5
5
5
5
5
5
5
5
5
5
5
5
5
5
5
5
5
5
5
5
5
5
5
5
5
5
5
5
5
5
5
5
5
5
5
5
5
5
5
5
5
5
5
5
5
5
5
5
5
5
5
5
5
5
5
5
5
5
5
5
5
5
5
5
5
5
5
5
5
5
5
5
5
5
5
5
5
5
5
5
5
5
5
5
5
5
5
5
5
5
5
5
5
5
5
5
5
5
5
5
5
5
5
5
5
5
5

CELL_DATA 206
SCALARS cell_data_0 double
LOOKUP_TABLE default
3.16089118909e-07
3.93425018112e-07
3.0413821633e-08
4.91111874406e-08
2.87164213579e-08
3.91667489732e-08
2.9625758137e-07
3.230790498e-07
3.75792918608e-07
4.45592304328e-07
1.108140325e-07
3.86437367312e-08
6.79828693322e-08
4.09955505129e-07
1.04575696168e-07
6.86051217382e-08
1.82779603524e-07
2.97602835579e-07
1.27332969106e-07
1.50983577631e-07
1.42470232146e-07
7.58698775549e-08
2.138847724e-07
1.7267646579e-07
1.61794880283e-07
1.13953118765e-06
2.25957595573e-08
1.04051385289e-08
5.72508959706e-08
6.20211957134e-08
1.8754995871e-07
3.12842725277e-08
3.22258348552e-08
1.054187464e-08
1.52008361583e-08
4.41275997773e-10
6.64682051049e-08
2.02869174451e-08
1.02150348238e-07
3.97975029897e-08
2.42971945589e-07
2.64341034986e-08
7.2910795632e-09
1.24181633792e-08
1.31728020032e-08
1.20434935914e-08
1.79895417952e-08
7.00469199567e-09
1.45226312499e-08
1.6264953693e-08
8.35798271091e-10
3.35752753929e-08
2.37723210413e-08
1.24964460327e-07
4.34420988676e-08
2.01672531672e-09
2.36714001838e-08
6.12410967559e-09
1.16000311201e-08
1.05640955038e-08
6.63314515788e-09
4.6891220428e-09
6.56964790633e-09
1.01814960162e-08
9.87104155609e-09
3.16685594354e-09
1.49129105469e-08
6.93372852679e-09
2.22075357601e-08
2.65562877019e-08
4.50704611762e-10
1.26303924996e-08
1.98813765126e-08
4.84723568538e-09
1.29472260446e-08
1.44194566863e-08
2.86758852733e-09
9.68099027497e-09
1.57889100714e-09
5.55165330984e-09
1.66777466286e-08
1.37701565908e-08
2.38115280448e-08
1.26099610414e-08
7.0605223165e-09
2.88655091842e-08
1.28710816517e-08
8.49732294159e-09
1.15144029154e-08
7.78665549022e-09
3.06515463103e-09
1.38126659965e-08
8.96457505852e-09
1.58032395293e-08
1.11723244588e-08
6.58638975697e-10
1.86969297245e-09
4.39041940303e-08
1.47721663229e-08
3.83730286423e-09
5.20559255711e-09
2.13372690255e-08
4.20305964651e-09
6.68549958709e-10
3.25718437838e-08
4.30161182405e-08
6.81739163473e-09
4.26434584532e-08
2.16486137809e-08
1.7357580343e-07
1.91104643856e-07
5.18586938461e-08
1.77383205533e-08
2.10791710051e-07
4.41668923033e-08
1.9376019308e-07
5.13905985519e-08
1.17303161405e-07
6.60407579676e-08
4.57102440341e-07
2.42786974324e-07
9.73115337645e-07
9.40067084491e-08
4.88008658874e-07
3.42249284333e-08
1.89384870399e-08
4.1708036724e-08
5.91251383293e-08
1.13997077506e-07
6.44458446597e-08
1.82049824675e-07
4.14940666524e-08
1.9323460044e-07
1.44565099312e-08
2.28179127255e-07
1.27563892227e-10
2.2086144092e-07
2.79304528372e-08
5.47123488226e-06
3.88354056154e-07
1.35965107331e-06
8.52837157225e-07
1.79450529664e-06
6.45498890053e-07
5.48411489281e-07
1.43540048173e-07
4.01963578931e-07
3.68657749224e-08
3.76508099146e-07
3.96540581713e-08
2.36638401102e-07
2.49987883572e-07
1.56367038151e-07
3.11234455537e-07
3.23571929512e-07
5.05486833384e-07
5.12278022259e-07
2.39027464806e-07
5.61521323067e-07
1.21051688945e-06
4.06880759102e-07
3.07956950149e-07
1.20599493794e-07
3.54397237007e-09
1.82911922873e-07
1.37199028339e-07
1.16155159999e-06
4.30474716372e-06
6.57442253019e-07
1.1769633875e-06
1.92839843403e-07
3.09755007961e-07
7.04469261158e-07
3.55967819139e-07
1.73093393882e-06
3.67460887814e-07
2.32570904161e-08
2.977013999e-07
4.64433585948e-07
2.74802785012e-06
2.39738548806e-06
6.88866041051e-06
2.25723698939e-06
9.60881521133e-07
4.72888274232e-06
9.39467381311e-07
2.9322393585e-07
3.98143435984e-07
1.09834286544e-06
1.3624602335e-06
4.94607504508e-07
1.00414779813e-06
1.61382667343e-08
1.71719244199e-06
3.78200138037e-06
2.16830982093e-06
5.76022085561e-07
2.01326721461e-06
1.33975474377e-06
3.50169032206e-07
2.79078938063e-06
3.55609217898e-07
3.30043451054e-07
1.63879631595e-06
1.62496298331e-06
2.79083663846e-06

