# vtk DataFile Version 3.0
File Name: Molecule/methanol/methanol_2.0-2.vtk
ASCII
DATASET UNSTRUCTURED_GRID
FIELD FieldData 1
TIME 1 1 double
0.0
POINTS 102 double
1.611 0.0 -0.359
1.445 -0.731 -0.342
1.403 0.0 -0.933
1.252 -0.666 -0.918
0.98 -1.317 -0.296
0.828 -1.2 -0.876
0.308 -1.642 -0.229
0.216 -1.496 -0.815
-0.438 -1.642 -0.155
-0.464 -1.496 -0.747
-1.11 -1.317 -0.088
-1.076 -1.2 -0.686
-1.576 -0.731 -0.042
-1.5 -0.666 -0.644
-1.742 0.0 -0.025
-1.651 0.0 -0.629
-1.576 0.731 -0.042
-1.5 0.666 -0.644
-1.11 1.317 -0.088
-1.076 1.2 -0.686
-0.438 1.642 -0.155
-0.464 1.496 -0.747
0.308 1.642 -0.229
0.216 1.496 -0.815
0.98 1.317 -0.296
0.828 1.2 -0.876
1.445 0.731 -0.342
1.252 0.666 -0.918
1.907 0.0 0.656
1.763 0.722 0.656
1.763 0.361 1.281
1.763 -0.361 1.281
1.763 -0.722 0.656
1.763 -0.361 0.03
1.763 0.361 0.03
1.354 1.123 1.377
1.354 0.554 1.87
1.354 -0.19 1.977
1.354 -0.874 1.664
1.354 -1.281 1.032
1.354 -1.281 0.28
1.354 1.335 0.656
0.741 1.571 1.412
0.741 1.087 2.019
0.741 0.388 2.356
0.741 -0.388 2.356
0.741 -1.087 2.019
0.741 -1.571 1.412
0.741 -1.744 0.656
0.741 1.744 0.656
0.019 1.744 1.378
0.019 1.335 1.99
0.019 0.722 2.399
0.019 -0.0 2.543
0.019 -0.722 2.399
0.019 -1.335 1.99
0.019 -1.744 1.378
0.019 -1.888 0.656
0.019 1.888 0.656
-0.703 1.744 0.656
-0.703 1.571 1.412
-0.703 1.087 2.019
-0.703 0.388 2.356
-0.703 -0.388 2.356
-0.703 -1.087 2.019
-0.703 -1.571 1.412
-0.703 -1.744 0.656
-1.316 1.335 0.656
-1.316 1.123 1.377
-1.316 0.554 1.87
-1.316 -0.19 1.977
-1.316 -0.874 1.664
-1.316 -1.281 1.032
-1.725 0.722 0.656
-1.725 0.361 1.281
-1.725 -0.361 1.281
-1.725 -0.722 0.656
-1.868 0.0 0.656
1.21 0.384 -1.402
0.648 0.552 -1.946
0.648 1.118 -1.456
0.648 -0.871 -1.742
-0.12 -1.149 -1.755
-0.12 -0.544 -2.172
0.648 -0.189 -2.053
-0.12 0.185 -2.261
-0.12 0.872 -2.0
-0.12 1.359 -1.451
-0.887 -1.276 -1.112
-0.887 -0.871 -1.742
-0.887 -0.189 -2.053
-0.887 0.552 -1.946
-0.887 1.118 -1.456
-1.449 -0.384 -1.402
-1.449 0.384 -1.402
1.21 -0.384 -1.402
0.929 -0.2865 -1.7275
1.21 0.0 -1.402
0.929 0.0975 -1.7275
1.3275 0.333 -0.9255
1.231 0.525 -1.16
1.3065 0.192 -1.1675

CELLS 200 800
3 0 1 2
3 2 1 3
3 1 4 3
3 3 4 5
3 4 6 5
3 5 6 7
3 6 8 7
3 7 8 9
3 8 10 9
3 9 10 11
3 10 12 11
3 11 12 13
3 12 14 13
3 13 14 15
3 14 16 15
3 15 16 17
3 16 18 17
3 17 18 19
3 18 20 19
3 19 20 21
3 20 22 21
3 21 22 23
3 22 24 23
3 23 24 25
3 24 26 25
3 25 26 27
3 26 0 27
3 28 29 30
3 28 30 31
3 28 31 32
3 28 32 33
3 28 33 34
3 28 34 29
3 30 29 35
3 30 35 36
3 30 36 37
3 31 30 37
3 31 37 38
3 31 38 39
3 32 31 39
3 32 39 40
3 33 32 40
3 29 41 35
3 35 41 42
3 35 42 43
3 36 35 43
3 36 43 44
3 37 36 44
3 37 44 45
3 38 37 45
3 38 45 46
3 38 46 47
3 39 38 47
3 39 47 48
3 40 39 48
3 41 49 42
3 42 49 50
3 42 50 51
3 43 42 51
3 43 51 52
3 44 43 52
3 44 52 53
3 45 44 53
3 45 53 54
3 46 45 54
3 46 54 55
3 47 46 55
3 47 55 56
3 48 47 56
3 48 56 57
3 49 58 50
3 50 58 59
3 50 59 60
3 51 50 60
3 51 60 61
3 52 51 61
3 52 61 62
3 53 52 62
3 53 62 63
3 54 53 63
3 54 63 64
3 55 54 64
3 55 64 65
3 56 55 65
3 56 65 66
3 57 56 66
3 60 59 67
3 60 67 68
3 61 60 68
3 61 68 69
3 62 61 69
3 62 69 70
3 63 62 70
3 63 70 71
3 64 63 71
3 65 64 71
3 65 71 72
3 66 65 72
3 68 67 73
3 68 73 74
3 69 68 74
3 70 69 74
3 70 74 75
3 71 70 75
3 72 71 75
3 72 75 76
3 74 73 77
3 75 74 77
3 76 75 77
3 76 77 14
3 76 14 12
3 76 12 10
3 76 10 72
3 72 10 66
3 66 10 8
3 66 8 57
3 57 8 6
3 57 6 48
3 48 6 4
3 48 4 40
3 40 4 1
3 40 1 33
3 33 1 0
3 33 0 34
3 34 0 26
3 34 26 29
3 29 26 41
3 41 26 24
3 41 24 49
3 49 24 22
3 49 22 58
3 58 22 20
3 58 20 59
3 59 20 18
3 59 18 67
3 67 18 16
3 67 16 73
3 73 16 14
3 73 14 77
3 78 79 80
3 81 82 83
3 84 81 83
3 84 83 85
3 79 84 85
3 79 85 86
3 80 79 86
3 80 86 87
3 82 88 89
3 83 82 89
3 83 89 90
3 85 83 90
3 85 90 91
3 86 85 91
3 86 91 92
3 87 86 92
3 89 88 93
3 90 89 93
3 90 93 94
3 91 90 94
3 92 91 94
3 92 94 17
3 92 17 19
3 92 19 21
3 92 21 87
3 87 21 23
3 87 23 80
3 80 23 25
3 80 25 27
3 95 2 3
3 95 3 81
3 81 3 5
3 81 5 7
3 81 7 82
3 82 7 9
3 82 9 88
3 88 9 11
3 88 11 13
3 88 13 93
3 93 13 15
3 93 15 94
3 94 15 17
3 84 96 81
3 81 96 95
3 78 97 98
3 97 96 98
3 97 95 96
3 98 96 84
3 78 98 79
3 98 84 79
3 95 97 2
3 2 99 0
3 0 99 27
3 27 100 80
3 80 100 78
3 78 100 101
3 100 99 101
3 100 27 99
3 101 99 2
3 78 101 97
3 97 101 2

CELL_TYPES 200
5
5
5
5
5
5
5
5
5
5
5
5
5
5
5
5
5
5
5
5
5
5
5
5
5
5
5
5
5
5
5
5
5
5
5
5
5
5
5
5
5
5
5
5
5
5
5
5
5
5
5
5
5
5
5
5
5
5
5
5
5
5
5
5
5
5
5
5
5
5
5
5
5
5
5
5
5
5
5
5
5
5
5
5
5
5
5
5
5
5
5
5
5
5
5
5
5
5
5
5
5
5
5
5
5
5
5
5
5
5
5
5
5
5
5
5
5
5
5
5
5
5
5
5
5
5
5
5
5
5
5
5
5
5
5
5
5
5
5
5
5
5
5
5
5
5
5
5
5
5
5
5
5
5
5
5
5
5
5
5
5
5
5
5
5
5
5
5
5
5
5
5
5
5
5
5
5
5
5
5
5
5
5
5
5
5
5
5
5
5
5
5
5
5
5
5
5
5
5
5

CELL_DATA 200
SCALARS cell_data_0 double
LOOKUP_TABLE default
2.22214486254e-06
8.36648761088e-07
9.22521406391e-07
2.41348832391e-07
3.95660596863e-08
4.43813179945e-09
7.29425608065e-08
2.80827474436e-07
2.99218486437e-07
3.69216328194e-07
4.49877526245e-07
1.20287312844e-07
3.24801529944e-08
7.20828646915e-08
4.18155648548e-07
9.29390894126e-08
6.39190606152e-08
1.73533764217e-07
2.97700703873e-07
1.25205181719e-07
1.46809789315e-07
1.46505904111e-07
7.85804283641e-08
2.10782922219e-07
1.82740218311e-07
2.3555184048e-07
1.36236315726e-06
4.20262954672e-08
5.2100116591e-09
8.02782179646e-08
8.72532774126e-08
2.60358743131e-07
3.96457376733e-08
2.72439184668e-08
1.53780587113e-08
1.39350884062e-08
1.6544983073e-08
7.40119529919e-08
1.89812079422e-08
1.20548235535e-07
4.90186521803e-08
3.2312270907e-07
2.09276299883e-08
8.96825599282e-09
1.18784966684e-08
1.4183786035e-08
9.56758574252e-09
2.11724384638e-08
5.18379608113e-09
2.00170621559e-08
1.7726904371e-08
2.12727217319e-09
3.29297121388e-08
2.12898204072e-08
1.4466550953e-07
4.10065345284e-08
3.67509024839e-09
2.12931298255e-08
4.95303307802e-09
1.20007108111e-08
1.19983783766e-08
8.92762195207e-09
3.54028007797e-09
4.05263769734e-09
1.11237216367e-08
5.90265622132e-09
4.07096117171e-09
1.43474267813e-08
6.48588866447e-09
2.12958465972e-08
2.62142315976e-08
5.00948733563e-10
1.37939969197e-08
1.84369238317e-08
3.86692575613e-09
1.50514812672e-08
1.65573550404e-08
3.20734260886e-09
8.03216841551e-09
4.72302075454e-09
6.20802037895e-09
1.57308063772e-08
1.42904274974e-08
2.27585189756e-08
1.17468018642e-08
6.68685473055e-09
2.89265066116e-08
1.25216336701e-08
8.66222647297e-09
1.13967346442e-08
4.91938524972e-09
3.19851221485e-09
1.34753457404e-08
9.16610737754e-09
1.59175044563e-08
1.18973796102e-08
1.02172241849e-09
2.39069383309e-09
4.37240840374e-08
1.64406962757e-08
3.26335270578e-09
4.13521415181e-09
2.11929092343e-08
4.85141736081e-09
1.12244707012e-09
3.31216302173e-08
4.27555777972e-08
7.18997849658e-09
4.28378626357e-08
2.16214573764e-08
1.8051684381e-07
1.90910456772e-07
5.59171009279e-08
2.0923569251e-08
2.08916520605e-07
4.13395949604e-08
1.9631652494e-07
5.06386335234e-08
1.18599827061e-07
6.17391667772e-08
5.89832367168e-07
3.17601691385e-07
1.31292539045e-06
1.71579052779e-07
6.28963987355e-07
7.69457975653e-08
8.3068505837e-09
3.21641848173e-08
6.18263537703e-08
1.14248131601e-07
6.45565962476e-08
1.82345117275e-07
4.09599719293e-08
1.96057621844e-07
1.73742493992e-08
2.15467284559e-07
4.44380762772e-09
2.07334221881e-07
3.44957702884e-08
5.61602561035e-06
3.51271685361e-07
1.35587061466e-06
8.85174435167e-07
1.75502518606e-06
6.31620787519e-07
5.49701818745e-07
1.46306227656e-07
3.80382458007e-07
2.58470591707e-08
3.71577794318e-07
7.19945539391e-08
1.92374680374e-07
2.31502318593e-07
1.79092157476e-07
3.22505479995e-07
3.07445091204e-07
5.03206484595e-07
5.08874862551e-07
2.72468250806e-07
5.53310674417e-07
1.20662360766e-06
4.15195667687e-07
3.14916321751e-07
1.12810108926e-07
1.67861559673e-08
1.87188643721e-07
1.33558458011e-07
1.12386843669e-06
1.13597578309e-05
2.28227272854e-06
3.8161423199e-06
6.37428577703e-07
1.15540071896e-06
2.7232771127e-07
3.04630869542e-07
7.1026649029e-07
3.60690979643e-07
1.75174141561e-06
3.67108529374e-07
2.14000229583e-08
3.04000928437e-07
4.72416673818e-07
1.22562228779e-07
1.88117318966e-06
7.88622962164e-06
6.43987901269e-07
1.31107967853e-07
4.68309084786e-06
1.20943540307e-06
1.39167297123e-06
1.2421696553e-06
2.89018222658e-07
9.32583494608e-07
1.29615400403e-06
3.55326245503e-07
1.46823175469e-06
1.58186004777e-07
9.25959138322e-07
3.73014098855e-06
9.80188800376e-07

