# vtk DataFile Version 3.0
File Name: Molecule/methanol/methanol_2.0-test-3.vtk
ASCII
DATASET UNSTRUCTURED_GRID
FIELD FieldData 1
TIME 1 1 double
0.0
POINTS 105 double
1.611 0.0 -0.359
1.445 -0.731 -0.342
1.403 0.0 -0.933
1.252 -0.666 -0.918
0.98 -1.317 -0.296
0.828 -1.2 -0.876
0.308 -1.642 -0.229
0.216 -1.496 -0.815
-0.438 -1.642 -0.155
-0.464 -1.496 -0.747
-1.11 -1.317 -0.088
-1.076 -1.2 -0.686
-1.576 -0.731 -0.042
-1.5 -0.666 -0.644
-1.742 0.0 -0.025
-1.651 0.0 -0.629
-1.576 0.731 -0.042
-1.5 0.666 -0.644
-1.11 1.317 -0.088
-1.076 1.2 -0.686
-0.438 1.642 -0.155
-0.464 1.496 -0.747
0.308 1.642 -0.229
0.216 1.496 -0.815
0.98 1.317 -0.296
0.828 1.2 -0.876
1.445 0.731 -0.342
1.252 0.666 -0.918
1.907 0.0 0.656
1.763 0.722 0.656
1.763 0.361 1.281
1.763 -0.361 1.281
1.763 -0.722 0.656
1.763 -0.361 0.03
1.763 0.361 0.03
1.354 1.123 1.377
1.354 0.554 1.87
1.354 -0.19 1.977
1.354 -0.874 1.664
1.354 -1.281 1.032
1.354 -1.281 0.28
1.354 1.335 0.656
0.741 1.571 1.412
0.741 1.087 2.019
0.741 0.388 2.356
0.741 -0.388 2.356
0.741 -1.087 2.019
0.741 -1.571 1.412
0.741 -1.744 0.656
0.741 1.744 0.656
0.019 1.744 1.378
0.019 1.335 1.99
0.019 0.722 2.399
0.019 -0.0 2.543
0.019 -0.722 2.399
0.019 -1.335 1.99
0.019 -1.744 1.378
0.019 -1.888 0.656
0.019 1.888 0.656
-0.703 1.744 0.656
-0.703 1.571 1.412
-0.703 1.087 2.019
-0.703 0.388 2.356
-0.703 -0.388 2.356
-0.703 -1.087 2.019
-0.703 -1.571 1.412
-0.703 -1.744 0.656
-1.316 1.335 0.656
-1.316 1.123 1.377
-1.316 0.554 1.87
-1.316 -0.19 1.977
-1.316 -0.874 1.664
-1.316 -1.281 1.032
-1.725 0.722 0.656
-1.725 0.361 1.281
-1.725 -0.361 1.281
-1.725 -0.722 0.656
-1.868 0.0 0.656
1.21 0.384 -1.402
0.648 0.552 -1.946
0.648 1.118 -1.456
0.648 -0.871 -1.742
-0.12 -1.149 -1.755
-0.12 -0.544 -2.172
0.648 -0.189 -2.053
-0.12 0.185 -2.261
-0.12 0.872 -2.0
-0.12 1.359 -1.451
-0.887 -1.276 -1.112
-0.887 -0.871 -1.742
-0.887 -0.189 -2.053
-0.887 0.552 -1.946
-0.887 1.118 -1.456
-1.449 -0.384 -1.402
-1.449 0.384 -1.402
1.21 -0.384 -1.402
0.929 -0.2865 -1.7275
0.929 0.0975 -1.7275
1.0695 -0.33525 -1.56475
1.21 0.0 -1.402
1.0695 -0.14325 -1.56475
1.21 -0.192 -1.402
1.3065 0.192 -1.1675
1.21 0.192 -1.402
1.3065 0.0 -1.1675

CELLS 206 824
3 0 1 2
3 2 1 3
3 1 4 3
3 3 4 5
3 4 6 5
3 5 6 7
3 6 8 7
3 7 8 9
3 8 10 9
3 9 10 11
3 10 12 11
3 11 12 13
3 12 14 13
3 13 14 15
3 14 16 15
3 15 16 17
3 16 18 17
3 17 18 19
3 18 20 19
3 19 20 21
3 20 22 21
3 21 22 23
3 22 24 23
3 23 24 25
3 24 26 25
3 25 26 27
3 26 0 27
3 27 0 2
3 28 29 30
3 28 30 31
3 28 31 32
3 28 32 33
3 28 33 34
3 28 34 29
3 30 29 35
3 30 35 36
3 30 36 37
3 31 30 37
3 31 37 38
3 31 38 39
3 32 31 39
3 32 39 40
3 33 32 40
3 29 41 35
3 35 41 42
3 35 42 43
3 36 35 43
3 36 43 44
3 37 36 44
3 37 44 45
3 38 37 45
3 38 45 46
3 38 46 47
3 39 38 47
3 39 47 48
3 40 39 48
3 41 49 42
3 42 49 50
3 42 50 51
3 43 42 51
3 43 51 52
3 44 43 52
3 44 52 53
3 45 44 53
3 45 53 54
3 46 45 54
3 46 54 55
3 47 46 55
3 47 55 56
3 48 47 56
3 48 56 57
3 49 58 50
3 50 58 59
3 50 59 60
3 51 50 60
3 51 60 61
3 52 51 61
3 52 61 62
3 53 52 62
3 53 62 63
3 54 53 63
3 54 63 64
3 55 54 64
3 55 64 65
3 56 55 65
3 56 65 66
3 57 56 66
3 60 59 67
3 60 67 68
3 61 60 68
3 61 68 69
3 62 61 69
3 62 69 70
3 63 62 70
3 63 70 71
3 64 63 71
3 65 64 71
3 65 71 72
3 66 65 72
3 68 67 73
3 68 73 74
3 69 68 74
3 70 69 74
3 70 74 75
3 71 70 75
3 72 71 75
3 72 75 76
3 74 73 77
3 75 74 77
3 76 75 77
3 76 77 14
3 76 14 12
3 76 12 10
3 76 10 72
3 72 10 66
3 66 10 8
3 66 8 57
3 57 8 6
3 57 6 48
3 48 6 4
3 48 4 40
3 40 4 1
3 40 1 33
3 33 1 0
3 33 0 34
3 34 0 26
3 34 26 29
3 29 26 41
3 41 26 24
3 41 24 49
3 49 24 22
3 49 22 58
3 58 22 20
3 58 20 59
3 59 20 18
3 59 18 67
3 67 18 16
3 67 16 73
3 73 16 14
3 73 14 77
3 78 79 80
3 81 82 83
3 84 81 83
3 84 83 85
3 79 84 85
3 79 85 86
3 80 79 86
3 80 86 87
3 82 88 89
3 83 82 89
3 83 89 90
3 85 83 90
3 85 90 91
3 86 85 91
3 86 91 92
3 87 86 92
3 89 88 93
3 90 89 93
3 90 93 94
3 91 90 94
3 92 91 94
3 92 94 17
3 92 17 19
3 92 19 21
3 92 21 87
3 87 21 23
3 87 23 80
3 80 23 25
3 80 25 27
3 80 27 78
3 95 2 3
3 95 3 81
3 81 3 5
3 81 5 7
3 81 7 82
3 82 7 9
3 82 9 88
3 88 9 11
3 88 11 13
3 88 13 93
3 93 13 15
3 93 15 94
3 94 15 17
3 84 96 81
3 97 96 84
3 78 97 79
3 97 84 79
3 95 98 81
3 98 96 81
3 99 100 97
3 100 96 97
3 99 101 100
3 101 98 100
3 101 95 98
3 100 98 96
3 95 101 2
3 2 102 27
3 78 102 27
3 78 103 97
3 103 99 97
3 78 103 102
3 103 104 102
3 103 99 104
3 102 104 2
3 99 104 101
3 101 104 2

CELL_TYPES 206
5
5
5
5
5
5
5
5
5
5
5
5
5
5
5
5
5
5
5
5
5
5
5
5
5
5
5
5
5
5
5
5
5
5
5
5
5
5
5
5
5
5
5
5
5
5
5
5
5
5
5
5
5
5
5
5
5
5
5
5
5
5
5
5
5
5
5
5
5
5
5
5
5
5
5
5
5
5
5
5
5
5
5
5
5
5
5
5
5
5
5
5
5
5
5
5
5
5
5
5
5
5
5
5
5
5
5
5
5
5
5
5
5
5
5
5
5
5
5
5
5
5
5
5
5
5
5
5
5
5
5
5
5
5
5
5
5
5
5
5
5
5
5
5
5
5
5
5
5
5
5
5
5
5
5
5
5
5
5
5
5
5
5
5
5
5
5
5
5
5
5
5
5
5
5
5
5
5
5
5
5
5
5
5
5
5
5
5
5
5
5
5
5
5
5
5
5
5
5
5
5
5
5
5
5
5

CELL_DATA 206
SCALARS cell_data_0 double
LOOKUP_TABLE default
3.46671346859e-07
4.96372682593e-07
5.39652072925e-07
4.78865867359e-08
1.90694102399e-08
2.63383452317e-08
1.90893959094e-08
2.57225360722e-08
1.48918490178e-08
1.93899806737e-08
1.19404133471e-08
1.61063740494e-08
1.15465844817e-08
1.3677139715e-08
8.63012148398e-09
1.32319603528e-08
1.06033586469e-08
1.76674568977e-08
1.37716732729e-08
2.27244498847e-08
1.84578050619e-08
2.66719408288e-08
2.20179113653e-08
2.87007205585e-08
1.8953049194e-08
6.8247711644e-08
5.97346115066e-08
3.2235250675e-08
5.92785442975e-09
5.38641870748e-09
5.03072399087e-09
7.74881285762e-09
8.98820317252e-09
6.55276659317e-09
7.77651316474e-09
5.82329239161e-09
6.11386418557e-09
6.74168320056e-09
5.85670024202e-09
7.16990949922e-09
7.00531661856e-09
6.69908630712e-09
1.09957041941e-08
6.47583109522e-09
5.23526996195e-09
4.64527832732e-09
5.19477292755e-09
4.59810892803e-09
5.21464270405e-09
4.53291920842e-09
5.50824019821e-09
5.52941646667e-09
5.71179458223e-09
6.79250808856e-09
6.27808928821e-09
7.17564172453e-09
5.23776938899e-09
4.42368950696e-09
3.68652159464e-09
4.33667738281e-09
3.51421753862e-09
3.83163921802e-09
3.55363005305e-09
4.22669446919e-09
3.45856615081e-09
4.16569471811e-09
3.92260938235e-09
5.04113475729e-09
4.19835033788e-09
4.88909402264e-09
4.28995559292e-09
4.14774274331e-09
3.3406430559e-09
3.18704448747e-09
3.19839908941e-09
3.32307888211e-09
3.09627642686e-09
3.03656766071e-09
3.19660687717e-09
3.46032815078e-09
3.12865826687e-09
2.86517570929e-09
3.09886942867e-09
3.45646972934e-09
3.44103111389e-09
3.4482655732e-09
3.86056355409e-09
2.5972072673e-09
2.38861640415e-09
2.82273031403e-09
2.71629102707e-09
2.66335667984e-09
2.48818323149e-09
2.65288851525e-09
2.60912817783e-09
2.82848071251e-09
2.8741793112e-09
2.81122464729e-09
3.02899734844e-09
1.90371092374e-09
2.09302134446e-09
2.17436699596e-09
2.21669320043e-09
2.16679603307e-09
2.13388487115e-09
2.34569489914e-09
2.38536139286e-09
1.61736798702e-09
1.26886268309e-09
1.57488584203e-09
2.40709178319e-11
2.61759335195e-09
2.85219043941e-09
2.86745962484e-10
2.58224551512e-10
3.8099086962e-09
7.64505145557e-10
4.20945858063e-09
1.18880117778e-09
8.5046430775e-09
7.57237910115e-10
3.85367585904e-07
4.5522077927e-07
2.8870947348e-07
1.52298902079e-08
2.57932922503e-08
1.67455619231e-09
3.60231833417e-09
4.76344180025e-09
3.7949902729e-09
5.47430613951e-09
7.51015169203e-10
6.06909129222e-09
5.19385925913e-10
3.76376487431e-09
7.5283553408e-11
2.62421931375e-09
2.6802246873e-10
3.06456586237e-09
5.32345843123e-10
3.41370855361e-08
1.25779004415e-08
2.74765044973e-08
4.62446950045e-08
5.06523122524e-08
4.08633493901e-08
4.32414986129e-08
4.04116517111e-08
3.13089399315e-08
3.25444726271e-08
4.81963176123e-08
4.79869684317e-08
4.15959084887e-08
3.86686352779e-08
3.56489955213e-08
3.50337788496e-08
3.6476594867e-08
3.23721638194e-08
2.78277325351e-07
2.45315513902e-07
2.37589695666e-07
2.99700365644e-07
3.26169666715e-08
3.63946688169e-08
4.23498071099e-08
3.74558751492e-08
4.42215744278e-08
3.63326020596e-08
3.80367859229e-08
6.95891461153e-08
3.01745163824e-07
4.5526327748e-07
9.09097000677e-08
4.97359288683e-08
3.07995660561e-08
4.83141625329e-08
3.46777804018e-08
1.81276944386e-08
1.71045159574e-08
4.56063147204e-08
2.50824924293e-08
2.56510646758e-07
2.11466644262e-07
7.6200205656e-09
8.21722096987e-07
9.65088975877e-07
9.02897086883e-07
3.8652376436e-07
2.16529377018e-07
1.30929267321e-08
1.50083980283e-07
5.66240771392e-07
6.10709460326e-07
3.94006814085e-07
3.1425285622e-07
5.30891587355e-07
7.5655406948e-07
7.37478713745e-07
7.31790247758e-07
7.15917703573e-07
4.22304299894e-07
1.08428563264e-06
6.53727258844e-07
7.16531982141e-07
1.95414048293e-07
2.42082904199e-07

