# vtk DataFile Version 3.0
File Name: Molecule/methanol/methanol_8.0-5.vtk
ASCII
DATASET UNSTRUCTURED_GRID
FIELD FieldData 1
TIME 1 1 double
0.0
POINTS 425 double
1.07 -0.957 -0.9
0.98 -1.317 -0.296
0.828 -1.2 -0.876
0.662 -1.518 -0.264
0.538 -1.382 -0.847
0.308 -1.642 -0.229
0.216 -1.496 -0.815
-0.065 -1.684 -0.192
-0.124 -1.534 -0.781
-0.438 -1.642 -0.155
-0.464 -1.496 -0.747
-0.793 -1.518 -0.119
-0.787 -1.382 -0.715
-1.11 -1.317 -0.088
-1.076 -1.2 -0.686
-1.376 -1.05 -0.061
-1.318 -0.957 -0.662
-1.576 -0.731 -0.042
-1.5 -0.666 -0.644
-1.7 -0.375 -0.029
-1.613 -0.341 -0.633
-1.742 0.0 -0.025
-1.651 0.0 -0.629
-1.7 0.375 -0.029
-1.613 0.341 -0.633
-1.576 0.731 -0.042
-1.5 0.666 -0.644
-1.376 1.05 -0.061
-1.318 0.957 -0.662
-1.11 1.317 -0.088
-1.076 1.2 -0.686
-0.793 1.518 -0.119
-0.787 1.382 -0.715
-0.438 1.642 -0.155
-0.464 1.496 -0.747
-0.065 1.684 -0.192
-0.124 1.534 -0.781
0.308 1.642 -0.229
0.216 1.496 -0.815
0.662 1.518 -0.264
0.538 1.382 -0.847
0.98 1.317 -0.296
0.828 1.2 -0.876
1.245 1.05 -0.322
1.07 0.957 -0.9
1.445 0.731 -0.342
1.252 0.666 -0.918
1.907 0.0 0.656
1.87 0.368 0.656
1.87 0.184 0.974
1.87 -0.184 0.974
1.87 -0.368 0.656
1.87 -0.184 0.337
1.87 0.184 0.337
1.763 0.626 1.017
1.763 0.361 1.281
1.763 -0.0 1.378
1.763 -0.361 1.281
1.763 -0.626 1.017
1.763 -0.722 0.656
1.763 -0.626 0.294
1.763 -0.361 0.03
1.763 -0.0 -0.067
1.763 0.361 0.03
1.763 0.626 0.294
1.763 0.722 0.656
1.588 0.985 1.014
1.588 0.803 1.33
1.588 0.524 1.564
1.588 0.182 1.688
1.588 -0.182 1.688
1.588 -0.524 1.564
1.588 -0.803 1.33
1.588 -0.985 1.014
1.588 -1.049 0.656
1.588 -0.985 0.297
1.588 -0.803 -0.018
1.588 0.803 -0.018
1.588 0.985 0.297
1.588 1.049 0.656
1.354 1.285 1.016
1.354 1.14 1.349
1.354 0.911 1.631
1.354 0.614 1.841
1.354 0.272 1.962
1.354 -0.091 1.987
1.354 -0.447 1.913
1.354 -0.77 1.746
1.354 -1.035 1.498
1.354 -1.224 1.187
1.354 -1.322 0.837
1.354 -1.322 0.474
1.354 -1.224 0.124
1.354 1.14 -0.038
1.354 1.285 0.296
1.354 1.335 0.656
1.068 1.527 1.018
1.068 1.402 1.36
1.068 1.202 1.664
1.068 0.937 1.914
1.068 0.622 2.097
1.068 0.273 2.201
1.068 -0.091 2.222
1.068 -0.45 2.159
1.068 -0.785 2.015
1.068 -1.077 1.797
1.068 -1.311 1.518
1.068 -1.475 1.192
1.068 -1.559 0.838
1.068 -1.559 0.473
1.068 -1.475 0.119
1.068 1.402 -0.049
1.068 1.527 0.294
1.068 1.569 0.656
0.741 1.706 1.018
0.741 1.593 1.365
0.741 1.411 1.681
0.741 1.167 1.952
0.741 0.872 2.166
0.741 0.539 2.314
0.741 0.182 2.39
0.741 -0.182 2.39
0.741 -0.539 2.314
0.741 -0.872 2.166
0.741 -1.167 1.952
0.741 -1.411 1.681
0.741 -1.593 1.365
0.741 -1.706 1.018
0.741 -1.744 0.656
0.741 -1.706 0.293
0.741 -1.593 -0.054
0.741 1.593 -0.054
0.741 1.706 0.293
0.741 1.744 0.656
0.387 1.816 1.017
0.387 1.71 1.364
0.387 1.539 1.684
0.387 1.309 1.965
0.387 1.028 2.195
0.387 0.708 2.366
0.387 0.361 2.471
0.387 0.0 2.507
0.387 -0.361 2.471
0.387 -0.708 2.366
0.387 -1.028 2.195
0.387 -1.309 1.965
0.387 -1.539 1.684
0.387 -1.71 1.364
0.387 -1.816 1.017
0.387 -1.851 0.656
0.387 -1.816 0.294
0.387 -1.71 -0.053
0.387 1.71 -0.053
0.387 1.816 0.294
0.387 1.851 0.656
0.019 1.853 1.013
0.019 1.752 1.357
0.019 1.588 1.676
0.019 1.366 1.958
0.019 1.095 2.193
0.019 0.784 2.373
0.019 0.445 2.49
0.019 0.09 2.541
0.019 -0.269 2.524
0.019 -0.617 2.439
0.019 -0.944 2.29
0.019 -1.236 2.082
0.019 -1.484 1.822
0.019 -1.678 1.521
0.019 -1.811 1.187
0.019 -1.879 0.835
0.019 -1.879 0.476
0.019 -1.811 0.124
0.019 1.853 0.298
0.019 1.888 0.656
-0.349 1.851 0.656
-0.349 1.816 1.017
-0.349 1.71 1.364
-0.349 1.539 1.684
-0.349 1.309 1.965
-0.349 1.028 2.195
-0.349 0.708 2.366
-0.349 0.361 2.471
-0.349 0.0 2.507
-0.349 -0.361 2.471
-0.349 -0.708 2.366
-0.349 -1.028 2.195
-0.349 -1.309 1.965
-0.349 -1.539 1.684
-0.349 -1.71 1.364
-0.349 -1.816 1.017
-0.349 -1.851 0.656
-0.349 -1.816 0.294
-0.349 1.816 0.294
-0.703 1.744 0.656
-0.703 1.706 1.018
-0.703 1.593 1.365
-0.703 1.411 1.681
-0.703 1.167 1.952
-0.703 0.872 2.166
-0.703 0.539 2.314
-0.703 0.182 2.39
-0.703 -0.182 2.39
-0.703 -0.539 2.314
-0.703 -0.872 2.166
-0.703 -1.167 1.952
-0.703 -1.411 1.681
-0.703 -1.593 1.365
-0.703 -1.706 1.018
-0.703 -1.744 0.656
-0.703 -1.706 0.293
-0.703 1.706 0.293
-1.03 1.569 0.656
-1.03 1.527 1.018
-1.03 1.402 1.36
-1.03 1.202 1.664
-1.03 0.937 1.914
-1.03 0.622 2.097
-1.03 0.273 2.201
-1.03 -0.091 2.222
-1.03 -0.45 2.159
-1.03 -0.785 2.015
-1.03 -1.077 1.797
-1.03 -1.311 1.518
-1.03 -1.475 1.192
-1.03 -1.559 0.838
-1.03 -1.559 0.473
-1.03 -1.475 0.119
-1.03 1.527 0.294
-1.316 1.335 0.656
-1.316 1.285 1.016
-1.316 1.14 1.349
-1.316 0.911 1.631
-1.316 0.614 1.841
-1.316 0.272 1.962
-1.316 -0.091 1.987
-1.316 -0.447 1.913
-1.316 -0.77 1.746
-1.316 -1.035 1.498
-1.316 -1.224 1.187
-1.316 -1.322 0.837
-1.316 -1.322 0.474
-1.316 -1.224 0.124
-1.316 1.285 0.296
-1.55 1.049 0.656
-1.55 0.985 1.014
-1.55 0.803 1.33
-1.55 0.524 1.564
-1.55 0.182 1.688
-1.55 -0.182 1.688
-1.55 -0.524 1.564
-1.55 -0.803 1.33
-1.55 -0.985 1.014
-1.55 -1.049 0.656
-1.55 -0.985 0.297
-1.55 0.985 0.297
-1.725 0.722 0.656
-1.725 0.626 1.017
-1.725 0.361 1.281
-1.725 -0.0 1.378
-1.725 -0.361 1.281
-1.725 -0.626 1.017
-1.725 -0.722 0.656
-1.725 -0.626 0.294
-1.725 0.626 0.294
-1.832 0.368 0.656
-1.832 0.184 0.974
-1.832 -0.184 0.974
-1.832 -0.368 0.656
-1.832 -0.184 0.337
-1.832 0.184 0.337
-1.868 -0.0 0.656
1.245 -1.05 -0.322
1.445 -0.731 -0.342
1.569 -0.375 -0.355
1.611 0.0 -0.359
1.569 0.375 -0.355
1.029 -0.865 -1.273
0.752 -1.212 -1.093
0.752 -1.063 -1.42
0.752 -0.827 -1.692
1.029 -0.613 -1.549
0.752 -0.525 -1.886
1.029 0.949 -1.105
1.029 0.752 -1.423
0.752 1.063 -1.42
0.752 1.212 -1.093
0.425 -1.334 -1.266
0.425 -1.161 -1.581
0.425 -0.915 -1.843
0.425 -0.611 -2.036
0.425 -0.269 -2.147
0.752 -0.18 -1.988
0.425 0.09 -2.17
0.752 0.18 -1.988
0.425 0.444 -2.102
0.752 0.525 -1.886
0.425 0.769 -1.949
0.752 0.827 -1.692
0.425 1.046 -1.72
0.425 1.258 -1.429
0.425 1.39 -1.094
0.065 -1.48 -1.102
0.065 -1.349 -1.445
0.065 -1.141 -1.748
0.065 -0.866 -1.991
0.065 -0.54 -2.162
0.065 -0.184 -2.25
0.065 0.184 -2.25
0.065 0.54 -2.162
0.065 0.866 -1.991
0.065 1.141 -1.748
0.065 1.349 -1.445
0.065 1.48 -1.102
-0.305 -1.48 -1.102
-0.305 -1.349 -1.445
-0.305 -1.141 -1.748
-0.305 -0.866 -1.991
-0.305 -0.54 -2.162
-0.305 -0.184 -2.25
-0.305 0.184 -2.25
-0.305 0.54 -2.162
-0.305 0.866 -1.991
-0.305 1.141 -1.748
-0.305 1.349 -1.445
-0.305 1.48 -1.102
-0.664 -1.424 -0.917
-0.664 -1.334 -1.266
-0.664 -1.161 -1.581
-0.664 -0.915 -1.843
-0.664 -0.611 -2.036
-0.664 -0.269 -2.147
-0.664 0.09 -2.17
-0.664 0.444 -2.102
-0.664 0.769 -1.949
-0.664 1.046 -1.72
-0.664 1.258 -1.429
-0.664 1.39 -1.094
-0.992 -1.212 -1.093
-0.992 -1.063 -1.42
-0.992 -0.827 -1.692
-0.992 -0.525 -1.886
-0.992 -0.18 -1.988
-0.992 0.18 -1.988
-0.992 0.525 -1.886
-0.992 0.827 -1.692
-0.992 1.063 -1.42
-0.992 1.212 -1.093
-1.269 -1.001 -0.924
-1.269 -0.865 -1.273
-1.269 -0.613 -1.549
-1.269 -0.279 -1.716
-1.269 0.094 -1.751
-1.269 0.454 -1.648
-1.269 0.752 -1.423
-1.269 0.949 -1.105
-1.479 -0.618 -1.094
-1.479 -0.357 -1.355
-1.479 -0.0 -1.451
-1.479 0.357 -1.355
-1.479 0.618 -1.094
-1.61 -0.184 -1.055
-1.61 0.184 -1.055
1.239 -0.357 -1.355
1.403 0.0 -0.933
1.365 -0.341 -0.929
1.488 0.1705 -0.644
1.365 0.341 -0.929
1.384 0.1705 -0.931
1.507 0.0 -0.646
1.239 0.357 -1.355
1.2455 -0.5115 -1.1365
1.1405 -0.7655 -1.0955
1.134 -0.611 -1.314
1.252 -0.666 -0.918
1.486 -0.1875 -0.644
1.239 -0.0 -1.451
1.134 -0.1395 -1.5835
1.134 0.047 -1.601
1.029 -0.0925 -1.7335
1.029 -0.279 -1.716
1.029 0.454 -1.648
1.134 0.5545 -1.389
1.1405 0.709 -1.1705
1.2455 0.5115 -1.1365
1.455 0.0 -0.7895
1.538 -0.1875 -0.5005
1.4105 0.5205 -0.6365
1.3085 0.5035 -0.9235
1.467 0.358 -0.642
1.029 0.274 -1.6995
1.029 0.094 -1.751
0.8905 -0.043 -1.8695
0.8905 0.137 -1.8695
0.752 0.0 -1.988
0.8905 0.317 -1.818
1.507 -0.553 -0.3485
1.467 -0.358 -0.642
1.405 -0.536 -0.6355
0.8905 -0.402 -1.801
0.8905 -0.2295 -1.852
0.752 -0.3525 -1.937
0.8905 0.6405 -1.67
1.029 0.603 -1.5355
0.8905 0.7895 -1.5575
1.321 0.1785 -1.144
1.239 0.1785 -1.403
1.321 0.0 -1.192
1.2485 -0.858 -0.62
1.161 -0.8115 -0.909
1.1575 -1.0035 -0.611
1.134 -0.485 -1.452
1.134 -0.318 -1.5355
1.029 -0.446 -1.6325
1.3085 -0.5035 -0.9235
1.1865 -0.484 -1.3345
1.0815 -0.612 -1.4315
1.239 -0.1785 -1.403
1.0815 0.0705 -1.676
1.1865 0.202 -1.478
1.134 0.2255 -1.553
1.385 -0.4385 -0.78225
1.3285 -0.601 -0.77675
1.28 0.0 -1.3215
1.28 -0.1785 -1.2735

CELLS 846 3384
3 0 1 2
3 1 3 2
3 2 3 4
3 3 5 4
3 4 5 6
3 5 7 6
3 6 7 8
3 7 9 8
3 8 9 10
3 9 11 10
3 10 11 12
3 11 13 12
3 12 13 14
3 13 15 14
3 14 15 16
3 15 17 16
3 16 17 18
3 17 19 18
3 18 19 20
3 19 21 20
3 20 21 22
3 21 23 22
3 22 23 24
3 23 25 24
3 24 25 26
3 25 27 26
3 26 27 28
3 27 29 28
3 28 29 30
3 29 31 30
3 30 31 32
3 31 33 32
3 32 33 34
3 33 35 34
3 34 35 36
3 35 37 36
3 36 37 38
3 37 39 38
3 38 39 40
3 39 41 40
3 40 41 42
3 41 43 42
3 42 43 44
3 43 45 44
3 44 45 46
3 47 48 49
3 47 49 50
3 47 50 51
3 47 51 52
3 47 52 53
3 47 53 48
3 49 48 54
3 49 54 55
3 49 55 56
3 50 49 56
3 50 56 57
3 50 57 58
3 51 50 58
3 51 58 59
3 51 59 60
3 52 51 60
3 52 60 61
3 52 61 62
3 53 52 62
3 53 62 63
3 53 63 64
3 48 53 64
3 48 64 65
3 48 65 54
3 54 65 66
3 54 66 67
3 55 54 67
3 55 67 68
3 55 68 69
3 56 55 69
3 56 69 70
3 57 56 70
3 57 70 71
3 57 71 72
3 58 57 72
3 58 72 73
3 59 58 73
3 59 73 74
3 59 74 75
3 60 59 75
3 60 75 76
3 61 60 76
3 64 63 77
3 64 77 78
3 65 64 78
3 65 78 79
3 65 79 66
3 66 79 80
3 66 80 81
3 67 66 81
3 67 81 82
3 68 67 82
3 68 82 83
3 69 68 83
3 69 83 84
3 69 84 85
3 70 69 85
3 70 85 86
3 71 70 86
3 71 86 87
3 72 71 87
3 72 87 88
3 72 88 89
3 73 72 89
3 73 89 90
3 74 73 90
3 74 90 91
3 75 74 91
3 75 91 92
3 76 75 92
3 78 77 93
3 78 93 94
3 79 78 94
3 79 94 95
3 79 95 80
3 80 95 96
3 80 96 97
3 81 80 97
3 81 97 98
3 82 81 98
3 82 98 99
3 83 82 99
3 83 99 100
3 84 83 100
3 84 100 101
3 85 84 101
3 85 101 102
3 85 102 103
3 86 85 103
3 86 103 104
3 87 86 104
3 87 104 105
3 88 87 105
3 88 105 106
3 89 88 106
3 89 106 107
3 90 89 107
3 90 107 108
3 90 108 109
3 91 90 109
3 91 109 110
3 92 91 110
3 94 93 111
3 94 111 112
3 95 94 112
[...]
CELL_DATA 846
SCALARS cell_data_0 double
LOOKUP_TABLE default
7.50014372231e-08
1.50012528179e-08
5.6448011625e-09
1.85747499135e-08
3.99448639681e-08
1.50334480018e-08
5.95186887785e-08
4.41896095461e-09
7.29004321802e-08
2.93189487289e-09
7.79197667786e-08
5.24782850912e-09
7.99891221728e-08
1.14286149758e-08
8.33672962443e-08
1.93048705159e-08
8.46872166624e-08
2.41715334846e-08
8.28548896907e-08
2.78729920225e-08
8.28377292041e-08
3.1487378528e-08
8.24944413675e-08
3.48089651536e-08
7.44419010882e-08
3.94072300481e-08
7.33387573614e-08
4.42969454914e-08
6.50459591626e-08
4.80496932932e-08
5.85726156346e-08
5.17285796113e-08
4.59383393234e-08
5.55485642672e-08
3.12409787234e-08
5.51814408613e-08
8.11943822189e-09
5.31055006793e-08
1.70238895832e-08
4.46136099667e-08
3.97013797654e-08
1.9188914698e-08
2.64520533017e-08
3.07693538964e-08
1.57626662502e-07
1.47715738428e-10
4.29785706504e-11
1.0604765773e-10
8.48431511535e-11
2.88240086846e-10
2.4878355715e-10
2.4162903264e-10
3.48984577875e-10
1.53934338139e-10
3.41956315763e-10
1.8388964169e-10
2.22794526488e-10
6.3409366165e-10
2.40028751568e-10
4.20709928912e-10
5.86920902443e-11
8.44576084443e-11
1.07788751541e-09
6.38105750847e-11
1.92880339493e-09
2.37462339415e-10
3.96650435195e-11
4.13810353096e-10
2.73776961579e-10
6.3536117051e-11
3.47497980375e-10
1.14474503272e-10
1.10108249361e-10
8.71689443158e-11
3.32619888452e-10
2.44364227879e-10
2.93536194933e-10
9.62976920511e-11
2.45363137596e-10
1.03908761632e-10
2.50957845856e-10
3.96708117273e-10
2.11402404548e-12
4.32243282207e-10
4.24796170957e-10
7.55169202284e-10
3.28688924669e-10
1.58103368978e-11
9.05692138089e-10
5.48383064602e-10
3.62260777372e-10
8.37657351519e-11
1.14916341335e-10
2.34195596054e-11
2.50886203261e-10
2.64053927683e-12
1.37180435226e-10
1.07796384772e-11
2.26551217292e-10
6.73845039888e-11
3.0080240811e-10
1.5120931266e-10
2.17583317596e-10
1.97690487913e-10
2.27839959479e-11
2.66127299857e-10
6.17041763404e-11
9.48371409758e-11
3.33354659001e-10
2.41436533791e-10
2.49880561296e-10
1.36379904585e-10
9.11608838979e-10
2.59411219628e-10
9.01262413849e-10
7.60336866997e-10
8.60695711774e-10
3.95062098579e-10
3.0031995237e-10
6.58488214716e-11
5.38465024862e-11
2.64980117949e-11
8.79161742658e-11
2.69584624752e-11
6.6618112619e-11
7.83199316841e-11
8.9396144078e-11
8.42027455045e-11
1.46357765046e-10
1.33824649034e-10
1.7447625185e-11
1.74705667684e-11
1.12442191946e-10
2.32867424285e-10
2.05479730858e-10
1.55745148768e-11
1.41905786794e-10
2.02532982472e-11
5.23754811811e-11
2.10864294988e-11
1.25910863153e-10
1.83171904607e-10
2.04289743497e-10
2.57435579807e-10
1.13547887975e-09
6.43323440356e-10
1.16967154869e-09
4.15874913553e-10
9.85436879692e-10
2.29826704965e-11
3.01111291088e-10
2.27559219219e-10
7.79325800275e-11
5.11472755447e-11
1.77213924536e-11
8.1227679896e-11
2.97066468176e-11
1.1562183572e-10
6.62481897072e-11
1.76501975899e-11
9.15835658923e-11
1.30958038601e-11
2.48645487014e-11
1.15989666931e-11
3.74737926852e-12
5.32995441488e-11
1.01479011286e-10
1.21188058157e-10
3.42394157204e-11
7.16739107247e-12
6.79402286793e-11
1.00907144145e-10
3.06976150652e-11
1.54807100817e-10
7.61754943536e-11
1.53299857055e-10
3.068059188e-11
2.67569742432e-10
6.14234619883e-11
3.78755997067e-10
4.60379539713e-10
1.11384514246e-09
3.63165554266e-10
1.02477755567e-09
9.21072434598e-10
5.31915001233e-10
2.38640092999e-10
3.41670592694e-10
8.56483642019e-11
1.26275754822e-10
7.14480364818e-11
8.26126306054e-11
2.68502482337e-11
5.2648292887e-11
1.13663675422e-11
5.47226101762e-11
1.43548899831e-11
9.49364565339e-11
5.15869797153e-11
4.71145708925e-12
2.40391392835e-11
5.63501445189e-11
8.85924444482e-12
9.31883020068e-12
1.70927951185e-10
9.82732555923e-11
1.14872958087e-11
1.8236994844e-11
8.09988956938e-11
5.09186414988e-11
4.66906317005e-11
5.63675031953e-11
2.72215210817e-11
1.65367083165e-10
2.60534510727e-11
2.68707527194e-10
2.44760076062e-12
4.68379809288e-10
2.71492697931e-10
2.11182658718e-09
4.12971314797e-10
4.33503590713e-09
2.84845451057e-09
7.04534405015e-10
1.21062962117e-09
2.55136212289e-10
4.4814749029e-10
1.08817285258e-10
1.99524686092e-10
1.04751198928e-10
1.76184089147e-10
3.31797723072e-11
2.54466598499e-12
1.63994545455e-11
9.66954101605e-11
1.01033641137e-10
7.89565043093e-12
4.39886298814e-11
2.59195532773e-11
6.03080934512e-11
2.42658948102e-11
1.39246066176e-11
5.64972921521e-11
8.65515587509e-11
3.37523878733e-11
9.31350001207e-11
1.66390884418e-10
1.85962713947e-10
1.70737325547e-10
7.55956202279e-11
4.50174138518e-11
6.18994893051e-11
2.46414711928e-11
7.19024948471e-11
1.26279538659e-10
1.92896559339e-10
2.14921437117e-10
2.49844998108e-10
6.4519625979e-10
6.84752614113e-10
9.81803794156e-10
7.75936251939e-10
1.89323701751e-09
2.05884067503e-10
7.28755012267e-10
1.35145750447e-09
6.87550200554e-11
5.19376179854e-10
8.40436756909e-12
2.79640347287e-10
4.67241237499e-11
1.94454927784e-10
4.3252108877e-11
1.43932492655e-10
4.28455516288e-11
1.28087487505e-10
2.39448149531e-11
1.74278957623e-10
7.38555798696e-11
3.05544842932e-12
3.42183149952e-11
2.34612009309e-11
9.33633155389e-11
2.08505538975e-11
1.2094150349e-10
3.01269419336e-11
8.55281981311e-11
5.87971811733e-12
6.17684994151e-12
1.63747511709e-11
3.39329746641e-11
1.42644392558e-11
1.08345057398e-10
8.2678128366e-11
3.18778393192e-10
7.12639954433e-11
6.34668878794e-10
1.96431199395e-10
1.26635473436e-09
5.78245271808e-11
6.52686885943e-10
2.97239428526e-10
1.6980717146e-09
2.42759040057e-10
6.42119162143e-10
1.25931947094e-11
3.4198937096e-10
7.84768057177e-12
2.53195682481e-10
5.14461659283e-11
1.7334866029e-10
3.73994649107e-11
1.2362359602e-10
1.49784040566e-11
3.17127884128e-11
2.91624210593e-11
1.34274329631e-11
2.06270144446e-10
1.00409888206e-10
6.4956926683e-11
8.81839776715e-11
1.03895538435e-10
5.26978345165e-11
1.16666119085e-10
2.23913492025e-10
1.76458037052e-11
1.64708027771e-10
8.03691627698e-11
2.26906225341e-10
4.88487152601e-11
5.04826089665e-10
1.83670102887e-10
1.45590199881e-09
1.15764988297e-09
1.23943220943e-09
6.36074093124e-10
2.28556668982e-10
2.05981421034e-09
3.11539299204e-10
6.42547136159e-10
7.20765639847e-12
3.30357682601e-10
6.37428899782e-11
1.45483481875e-10
1.38867226647e-11
6.60655315962e-11
6.79048112486e-11
5.26646030269e-11
9.20718348482e-11
1.95594327653e-11
1.63063639757e-10
2.42173827338e-11
1.02254829158e-10
3.83513920928e-11
1.42331804389e-10
1.53419243656e-10
8.02544834919e-11
6.34720256234e-12
7.06480033522e-11
8.33325471395e-11
3.08064508101e-11
3.08229237964e-10
1.0169476234e-10
4.25813983856e-10
2.13871779326e-10
1.57421592437e-09
1.92995912318e-10
3.47737096181e-09
1.37242812341e-09
1.34599590632e-10
2.12124847893e-09
2.38927401258e-10
6.25768024909e-10
1.26929376059e-10
3.77821059997e-10
6.59847469974e-12
1.84408521223e-10
1.01014340939e-10
1.49367327151e-10
2.35143153382e-10
2.14386094888e-11
1.52832105068e-10
1.17369850661e-10
1.92561319716e-11
1.66020500844e-10
1.07603123382e-10
8.11454072495e-11
1.09994983112e-10
2.96023872572e-11
2.42844219471e-10
5.56900097841e-11
4.28212838305e-10
2.50260415795e-10
8.22217479266e-10
5.5857987417e-10
2.27154032796e-09
5.07178599e-09
4.27021939493e-09
2.00577769854e-09
2.36204231385e-10
2.06949256787e-09
4.78376982092e-10
7.21692018027e-10
2.80461104119e-11
3.99179708238e-10
1.28966075512e-10
1.76102230863e-10
1.85681768815e-10
1.01984574399e-10
2.74868140199e-11
2.80649169981e-10
8.29383398503e-11
2.33847306557e-10
2.20421724685e-10
3.10998764574e-10
4.83895685812e-10
2.23318613121e-11
4.15643947253e-10
6.75602520724e-11
1.05930908491e-09
6.0703836404e-10
2.72154924335e-09
2.23586855588e-09
2.63669855854e-09
3.69999180857e-10
2.26274970295e-09
6.63885130332e-10
5.64947168108e-10
5.28427810766e-11
2.88820968462e-10
2.30614596384e-11
6.45974974698e-10
1.22682837455e-10
7.12493292251e-10
5.19798021105e-10
3.41340832233e-10
8.24783993711e-12
4.34910924677e-10
5.69475892044e-10
1.06763973994e-09
3.3412037842e-09
3.29411578242e-09
3.87278743754e-09
7.39276661985e-10
2.67696113525e-09
4.2152310438e-10
4.57870925283e-10
4.83718637831e-11
1.56275452686e-09
8.25475899672e-10
5.60479108725e-10
4.44898439857e-10
1.16495781681e-09
4.2262539682e-09
1.05219356516e-09
3.99227295459e-09
1.290994596e-09
1.76526807026e-09
7.93937938489e-10
8.12243192949e-10
2.71214783861e-09
1.22537078111e-09
8.16458101939e-10
5.11059569447e-09
2.74918454352e-08
4.05359310366e-09
2.7107136796e-08
4.94595729506e-09
2.28642269615e-08
6.54503164181e-09
2.60983480902e-08
3.28650480472e-09
1.0836586154e-08
2.17115689198e-09
1.05232586994e-08
1.37526433736e-08
2.67334280974e-08
1.33641325845e-08
1.036375353e-08
1.79016057807e-08
1.10198315411e-08
1.45901299302e-09
1.19620336488e-09
2.37271741842e-09
1.93427659516e-09
3.29615395811e-09
1.05179614996e-08
4.39539554992e-09
2.43828455342e-09
2.20643971282e-09
1.99103114715e-09
2.6277354668e-09
6.1844063459e-09
1.22241226716e-08
1.32229133923e-09
2.17828157332e-09
1.38866993209e-09
4.81409519936e-09
3.53794435294e-09
2.32951750333e-09
4.13525031619e-09
2.76404727174e-09
1.40615643008e-09
2.63290586269e-09
1.55637938224e-09
5.59878012585e-09
1.97268826732e-08
2.03240296593e-09
2.83737077422e-10
2.40953207646e-08
5.11944489757e-10
2.55609280982e-08
6.22147150461e-12
2.5956278157e-08
1.04017073761e-09
2.58141364477e-08
1.3098952596e-09
2.49329331601e-08
1.85502643792e-09
2.38983919948e-08
1.14007882567e-07
3.4183838728e-08
1.29411549429e-07
1.6187743114e-07
1.53965044476e-07
4.61015761895e-08
1.30242855932e-08
4.12788784415e-08
3.12838213995e-08
9.05718603038e-08
2.11357901477e-08
1.42595830176e-07
1.0487192816e-07
1.51073587053e-07
1.63250692722e-07
1.40023233977e-07
1.17760168242e-07
1.1441312731e-07
6.45676660721e-08
6.89507059048e-08
3.17690647592e-08
3.64647919334e-08
1.45516064615e-08
1.26183626119e-08
2.33591155204e-09
1.62084439217e-08
3.02536502281e-09
2.40808523808e-08
3.6709910999e-09
4.00408761458e-08
6.97720934386e-09
5.30759160063e-08
2.4848092756e-08
5.30333317047e-08
3.39015880338e-08
4.3554278152e-08
3.44489278922e-08
2.96214162544e-08
2.72663498259e-08
1.73913678418e-08
1.73663774373e-08
1.05623897174e-08
1.16610277078e-08
5.42654681616e-09
4.13351003744e-10
6.36230774051e-11
2.63723191748e-09
2.33266573339e-09
4.85003176783e-09
7.81651557413e-10
7.93825081658e-09
1.38163549268e-09
1.11063524514e-08
3.66241756472e-09
1.46055796742e-08
8.27088962589e-09
1.62749584645e-08
1.16870980449e-08
1.49790628977e-08
1.22237085632e-08
1.12207822798e-08
9.81310436823e-09
9.24795363831e-09
7.98180371758e-09
5.59269805959e-09
4.49473529934e-09
6.31839859076e-10
2.24903095701e-09
1.95406709079e-09
3.26072942023e-09
3.21017941987e-09
1.76963151567e-09
4.00024029404e-09
1.33873642442e-09
4.78564115497e-09
2.0409388439e-10
5.29135853034e-09
1.95588523424e-09
4.7735986237e-09
2.42759740978e-09
3.82856405711e-09
2.55945955794e-09
2.76361650001e-09
2.18332200457e-09
2.22182747559e-09
1.21514535025e-09
5.34905617049e-10
1.81649619169e-09
1.10896142787e-09
1.74470536132e-09
1.53168322832e-09
3.52664783824e-10
5.77795802063e-10
4.31202810872e-11
9.9793785576e-10
1.10530765765e-09
2.03664621498e-10
3.63659188557e-10
1.1161084836e-09
3.08358818174e-10
1.98729948486e-09
1.8228221424e-10
5.55289734259e-10
6.38486525225e-10
1.26871270587e-10
1.40382307662e-09
5.34428965733e-10
8.01914503526e-10
2.33812631698e-09
1.26649352248e-09
2.52126637103e-10
1.43978959005e-09
5.50366965329e-09
2.20256698609e-09
4.74411424626e-09
2.47336721513e-09
3.51846530782e-09
7.58901866562e-10
1.60715712946e-09
2.09526164605e-09
1.96726874308e-09
3.36609493997e-09
3.96508983422e-09
5.73647137759e-09
1.01093855762e-08
1.48692998072e-09
3.28531330204e-09
3.33068638067e-09
3.65304743991e-09
5.92885778375e-09
2.9832961953e-09
1.03640911828e-09
3.2093916676e-09
1.82802901607e-09
1.0732911029e-08
1.15368767877e-08
2.52970157661e-09
2.55674205997e-09
3.80420678337e-09
1.1737858418e-08
3.2439846253e-09
1.86516501356e-08
2.37730664927e-08
5.48278337615e-09
2.83157638627e-08
3.97484988457e-09
2.3656435871e-08
3.96551943037e-09
2.05119917139e-08
3.16422615649e-09
1.59656735975e-08
4.49202579571e-10
1.2004695996e-08
2.84232198847e-09
7.8128802519e-09
8.59314335056e-09
4.75487717545e-09
2.70992975026e-08
6.10802239593e-09
5.15305700281e-08
6.43827175137e-08
6.0203885738e-08
2.01296522881e-08
2.9796773004e-09
2.40034930546e-08
8.23589194093e-09
1.55594515025e-08
9.89069707799e-09
9.96027841803e-09
1.55004580677e-08
3.68887071213e-09
1.28377098449e-08
4.19272739523e-09
2.45535256303e-08
8.53185481424e-09
1.13941952946e-08
1.72932662256e-08
4.16170601127e-09
2.38879745824e-08
2.95351015317e-09
2.49136574957e-08
1.01748153014e-08
2.51928707547e-08
2.84063240131e-08
1.32156477446e-07
3.68893807422e-08
1.18631030506e-08
9.44520244476e-09
3.70579496814e-08
2.49770076054e-08
1.29959314769e-07
1.06776763931e-07
4.4371255667e-08
9.81863830305e-08
9.4268404381e-09
5.15661195737e-08
9.62194618729e-08
5.40572724762e-08
6.83964604393e-08
6.37771732597e-08
1.01128980043e-08
3.91561039066e-08
7.92503396778e-08
3.70548568618e-08
4.97051963121e-08
8.36744411199e-08
1.8303758632e-08
8.10120503962e-09
7.26942516274e-10
3.00139986398e-09
2.97894944326e-09
3.9983319665e-09
3.44138603391e-08
2.40281253991e-08
1.04562222957e-07
7.88941627467e-08
4.83688332782e-10
9.8545386527e-09
9.0853265316e-08
9.05438311471e-08
1.08668848108e-08
1.5494159121e-08
6.00935061887e-08
3.4732231162e-08
3.08955144124e-08
5.54216322797e-09
3.82964104531e-09
1.30238567138e-08
2.28594267846e-08
7.27780753861e-08
6.31760041831e-08
4.21091021201e-08
1.54054434986e-07
1.61901583341e-09
6.85242989993e-08
3.36864675693e-08
3.13027207586e-08
7.26125256217e-09
6.63583568637e-09
9.5673837956e-09
3.49066443194e-09
6.46921071065e-10
4.6880962542e-09
6.46983127677e-08
1.00909001185e-08
2.5180035767e-08
3.73670246012e-08
4.34052428116e-08
2.10334750191e-08
2.01402293191e-08
2.78756157909e-08
9.18142507563e-09
3.37252132606e-08
1.78050618269e-08
6.38942264696e-10
2.13315837916e-08
4.35044537288e-08
2.2378475908e-08
1.30525363377e-07
1.49236776211e-07
5.58344846933e-09
9.91839583184e-09
1.20255086435e-07
8.98117002994e-09
2.26012226797e-08
2.04534182106e-08
6.98943099607e-09
3.10812721248e-08
6.6988520105e-08
8.7571010408e-08
4.09962546246e-09
1.73674737375e-08
9.97843476431e-09
1.73116859789e-08
2.59177858416e-09
1.59564489907e-08
2.18172478143e-08
7.27849209771e-09
1.75175061479e-08
7.6103949073e-08
2.00874320972e-08
5.97148326752e-08
4.86023399655e-10
1.95417569055e-08
2.55637137456e-08
1.20735080854e-08
2.87687728426e-08
1.85334998393e-08
4.07605645414e-09
7.07303534552e-09
2.95059115428e-08
6.12019369112e-08
8.66433384076e-09
4.05591272956e-09
5.16231543991e-08
1.41078607497e-08
6.94651552644e-08
2.6603714415e-08
2.74631669984e-08
1.32085250692e-08
2.80061508941e-09
5.89430092922e-08
1.51214024373e-08
4.18729627064e-08
1.29445197964e-07
9.40613397215e-09
5.95264841676e-09
1.43537154611e-08
1.74774240107e-08
2.36641240723e-08
8.25204830561e-09
1.27841948432e-08
4.98681462668e-09
3.52510093978e-08
8.47541920949e-09
2.73240867167e-08
3.45103526393e-08
3.02174343398e-08
2.35897463925e-08
6.02110993671e-08
3.50334282618e-08
5.79329456572e-08
1.76137034051e-07
2.1056202622e-07
6.1692785279e-08
6.0830034632e-08

