# vtk DataFile Version 3.0
File Name: Molecule/methanol/methanol_4.0-1.vtk
ASCII
DATASET UNSTRUCTURED_GRID
FIELD FieldData 1
TIME 1 1 double
0.0
POINTS 186 double
1.6224042177 0.00034836848499 -0.32146537304
1.5312905312 -0.5080037117 -0.35604971647
1.4349200726 -0.0074937981553 -0.85463690758
1.2975331545 -0.61148148775 -0.87193781137
1.2140140533 -1.0964721441 -0.29859551787
1.0428706408 -1.0186662674 -0.84506171942
0.80241906643 -1.4222671986 -0.32469403744
0.67497378588 -1.3009544611 -0.87222075462
0.11592993885 -1.5270382166 -0.77293354273
0.19912353158 -1.6579755545 -0.23520612717
-0.3317258954 -1.6441802979 -0.24064800143
-0.36178466678 -1.5176295042 -0.75153452158
-0.92129969597 -1.3126648664 -0.68659371138
-0.93885701895 -1.4384274483 -0.081470519304
-1.3376015425 -1.0967013836 -0.065101675689
-1.2891706228 -0.99315136671 -0.66105669737
-1.659090519 -0.52332633734 -0.016404723749
-1.5813701153 -0.46845108271 -0.62417453527
-1.744165659 -0.0039230785333 -0.0035689286888
-1.6539099216 0.0028153602034 -0.61750638485
-1.6640424728 0.51293414831 -0.017901476473
-1.5755255222 0.47425469756 -0.6303614378
-1.3478622437 1.088927269 -0.039985120296
-1.2836743593 1.0032922029 -0.65284174681
-0.94352167845 1.4385046959 -0.076453968883
-0.92238563299 1.3093377352 -0.69354128838
-0.3294813633 1.6471024752 -0.22815480828
-0.36171150208 1.5173760653 -0.75330448151
0.11448085308 1.5264168978 -0.77369737625
0.1974414587 1.6618438959 -0.22127485275
0.81231045723 1.4265719652 -0.30206593871
0.6727886796 1.310102582 -0.85495108366
1.051024437 1.007946372 -0.84834587574
1.2166166306 1.0945712328 -0.29648464918
1.5311775208 0.51300609112 -0.35007530451
1.337264657 0.47655111551 -0.90031319857
1.9070010185 -2.0228057451e-08 0.65592336655
1.8391281366 0.49694725871 0.65607249737
1.8391352892 0.25094664097 1.0835669041
1.8392096758 -0.24663826823 1.0862365961
1.839210391 -0.49711984396 0.65535050631
1.8380938768 -0.24901351333 0.20947921276
1.8380891085 0.24765971303 0.21218490601
1.5914434195 0.92604851723 1.1321672201
1.5823208094 0.51182991266 1.5813758373
1.5898014307 0.031876470894 1.701911211
1.5845899582 -0.55949896574 1.5485285521
1.5897120237 -0.90425425768 1.1844824553
1.5835994482 -1.0521013737 0.5907343626
1.5890253782 -0.89857399464 0.11797857285
1.589504838 0.92852121592 0.17348867655
1.5811555386 1.0594906807 0.65555411577
1.269204855 1.3256714344 1.144269824
1.2710790634 0.9894580245 1.6628601551
1.2655538321 0.5889197588 1.9442868233
1.2552912235 0.12720833719 2.0753238201
1.2690116167 -0.35627195239 2.0240252018
1.2555370331 -0.81707251072 1.8224636316
1.2551981211 -1.2393567562 1.3600947857
1.2688573599 -1.3934389353 0.89660966396
1.2698764801 -1.3898169994 0.39854502678
1.267798543 1.3305683136 0.17167593539
1.2493065596 1.4287233353 0.65619617701
0.85965377092 1.6179996729 1.1408190727
0.86221122742 1.334209919 1.6894708872
0.86079335213 0.97864192724 2.0322415829
0.85711276531 0.53876036406 2.2574532032
0.73448187113 -0.0040649687871 2.4019930363
0.85847401619 -0.55500280857 2.2513773441
0.72112178802 -1.0443234444 2.062060833
0.73872435093 -1.3941627741 1.7044621706
0.86311590672 -1.6139591932 1.1476362944
0.8569856286 -1.6905702353 0.65663415194
0.85891419649 -1.6192430258 0.16591376066
0.8595174551 1.6215713024 0.18394938111
0.72144335508 1.7515217066 0.65722978115
0.27934518456 1.8065146208 1.1329027414
0.27353593707 1.5512545109 1.6949919462
0.2721003592 1.2248700857 2.0666460991
0.27350535989 0.81702619791 2.3377783298
0.2691295743 0.22099217772 2.5123286247
0.26259604096 -0.27858555317 2.5069475174
0.26654395461 -0.75704199076 2.3669099808
0.26568248868 -1.2814592123 2.0182993412
0.2604406178 -1.5870705843 1.648391366
0.26328712702 -1.7906497717 1.1973567009
0.26807230711 -1.8683474064 0.57614982128
0.28089594841 -1.7855159044 0.11181820929
0.26794424653 1.8115509748 0.2041041553
0.25174793601 1.871801734 0.66787797213
-0.22780559957 1.8068853617 1.1422442198
-0.23140910268 1.5453988314 1.7094253302
-0.23358368874 1.2149291039 2.0762467384
-0.22932888567 0.80714690685 2.3438751698
-0.22751709819 0.20762555301 2.5150969028
-0.23733353615 -0.2791492939 2.5039374828
-0.23278044164 -0.74987828732 2.3696420193
-0.22373479605 -1.2717860937 2.0282173157
-0.23589256406 -1.581617713 1.6521843672
-0.23201440275 -1.7844163179 1.2154505253
-0.22980409861 -1.8687957525 0.73391580582
-0.23153576255 -1.791121006 0.14215789735
-0.21369314194 1.8726053238 0.64706879854
-0.23143398762 1.8088818789 0.18589133024
-0.68801432848 1.7500711679 0.6425819993
-0.8236861825 1.6173406839 1.1385449171
-0.8200930357 1.3375139236 1.6891095638
-0.82332241535 0.98191893101 2.0293552876
-0.8211171627 0.54010826349 2.2555606365
-0.69850933552 -0.0050798729062 2.3998069763
-0.81950610876 -0.55538928509 2.2525784969
-0.68823051453 -1.0410054922 2.0607852936
-0.82476586103 -1.3295733929 1.6955761909
-0.82077747583 -1.6172575951 1.1424177885
-0.82632952929 -1.687374711 0.63277810812
-1.2176964283 1.4259562492 0.6277012229
-1.230256319 1.3311349154 1.1328241825
-1.2337419987 1.077986598 1.5648699999
-1.2193276882 0.60502523184 1.943790555
-1.2223699093 0.1328022629 2.0703365803
-1.2300471067 -0.35614395142 2.0249116421
-1.2172355652 -0.81833201647 1.8221307993
-1.2212725878 -1.2369087934 1.3575695753
-1.2300674915 -1.3941371441 0.89641821384
-1.2277837992 -1.3952898979 0.40197375417
-1.5490481853 1.0522158146 0.63046348095
-1.5540159941 0.92564624548 1.1302390099
-1.5468351841 0.52137410641 1.570892334
-1.5519293547 0.0330911614 1.7015103102
-1.5464684963 -0.55958706141 1.5485941172
-1.5513339043 -0.90410131216 1.1845780611
-1.5509214401 -1.0455089808 0.56208413839
-1.8055645227 0.49138596654 0.62970387936
-1.8005869389 0.25182056427 1.083779335
-1.8000936508 -0.24776016176 1.0868104696
-1.804937005 -0.48926985264 0.63568437099
-1.8677663803 2.7234171284e-05 0.65900939703
1.3181910515 -0.24212962389 -1.182921648
1.0144597292 -0.90404236317 -1.2250244617
1.0247670412 -0.47918897867 -1.6407650709
1.0518883467 -0.0023825271055 -1.7261995077
1.312387228 0.23679044843 -1.1946166754
1.0230200291 0.48250406981 -1.6410702467
1.0197165012 0.89631569386 -1.2237799168
0.64519453049 -1.2045186758 -1.3010369539
0.65043348074 -0.92128896713 -1.6930687428
0.64016336203 -0.52616369724 -1.9616465569
0.63522994518 0.46949014068 -1.9857244492
0.65021079779 0.96886491776 -1.643247366
0.64571046829 1.2279251814 -1.2375787497
0.19116067886 -1.4213182926 -1.221596837
0.20404240489 -1.1896299124 -1.6508148909
0.19481833279 -0.71648663282 -2.0558555126
0.19259659946 -0.24748378992 -2.21925354
0.6250423789 -0.022243820131 -2.0748281479
0.18912126124 0.24326463044 -2.2207136154
0.19472377002 0.71589905024 -2.0567369461
0.19219465554 1.1958248615 -1.6467479467
0.20309719443 1.4240305424 -1.2127771378
-0.43370452523 -1.4283070564 -1.206917882
-0.42973676324 -1.1900420189 -1.6534473896
-0.43358367682 -0.70845127106 -2.0615429878
-0.43302059174 -0.24282519519 -2.2192256451
-0.44556686282 0.24218192697 -2.2179117203
-0.43391489983 0.71076261997 -2.0605957508
-0.43329414725 1.1878954172 -1.6548252106
-0.4273198545 1.4256916046 -1.2137182951
-0.88237142563 -1.2098784447 -1.2943987846
-0.88896530867 -0.92247116566 -1.6926749945
-0.88660520315 -0.51176303625 -1.9631773233
-0.87958174944 -0.037388294935 -2.0703697205
-0.88777965307 0.4436198771 -1.9898917675
-0.89190119505 0.96742922068 -1.6419113874
-0.88219225407 1.2363921404 -1.2280348539
-1.2672448158 -0.90665316582 -1.2021805048
-1.2617967129 -0.4764033556 -1.6437488794
-1.2663947344 -0.0013479300542 -1.7562118769
-1.2611175776 0.47687256336 -1.6441835165
-1.2687883377 0.90756171942 -1.1979076862
-1.574088335 -0.24587160349 -1.1572583914
-1.5730057955 0.24599301815 -1.1582969427
0.89646214247 -0.30727466941 -1.8442486525
0.88968145847 0.0043132416904 -1.8921136856
0.6554812789 -0.22358423471 -2.0430805683
0.89782112837 0.30435651541 -1.8436779976
0.65257924795 0.26224321127 -2.037460804

CELLS 368 1472
3 0 1 2
3 2 1 3
3 1 4 3
3 3 4 5
3 4 6 5
3 5 6 7
3 7 6 8
3 9 8 6
3 9 10 8
3 8 10 11
3 11 10 12
3 13 12 10
3 13 14 12
3 12 14 15
3 14 16 15
3 15 16 17
3 16 18 17
3 17 18 19
3 18 20 19
3 19 20 21
3 20 22 21
3 21 22 23
3 22 24 23
3 23 24 25
3 24 26 25
3 25 26 27
3 27 26 28
3 29 28 26
3 29 30 28
3 28 30 31
3 31 30 32
3 33 32 30
3 33 34 32
3 32 34 35
3 35 34 2
3 0 2 34
3 36 37 38
3 36 38 39
3 36 39 40
3 36 40 41
3 36 41 42
3 36 42 37
3 38 37 43
3 38 43 44
3 38 44 45
3 39 38 45
3 39 45 46
3 39 46 47
3 40 39 47
3 40 47 48
3 40 48 49
3 41 40 49
3 37 42 50
3 37 50 51
3 37 51 43
3 43 51 52
3 43 52 53
3 44 43 53
3 44 53 54
3 44 54 45
3 55 45 54
3 45 55 56
3 46 45 56
3 46 56 57
3 47 46 57
3 47 57 58
3 47 58 59
3 48 47 59
3 48 59 60
3 49 48 60
3 51 50 61
3 51 61 62
3 51 62 52
3 52 62 63
3 52 63 64
3 53 52 64
3 53 64 65
3 54 53 65
3 54 65 66
3 55 54 66
3 55 66 67
3 56 55 67
3 56 67 68
3 57 56 68
3 57 68 69
3 57 69 70
3 58 57 70
3 58 70 71
3 59 58 71
3 59 71 72
3 60 59 72
3 60 72 73
3 62 61 74
3 62 74 75
3 62 75 63
3 63 75 76
3 63 76 77
3 64 63 77
3 64 77 78
3 65 64 78
3 65 78 79
3 66 65 79
3 66 79 80
3 67 66 80
3 67 80 81
3 68 67 81
3 68 81 82
3 69 68 82
3 69 82 83
3 70 69 83
3 70 83 84
3 71 70 84
3 71 84 85
3 72 71 85
3 72 85 86
3 72 86 73
3 87 73 86
3 75 74 88
3 75 88 89
3 75 89 76
3 76 89 90
3 76 90 77
3 91 77 90
3 77 91 78
3 92 78 91
3 93 79 92
3 78 92 79
3 79 93 80
3 94 80 93
3 80 94 81
3 95 81 94
3 82 81 96
3 95 96 81
3 82 96 97
3 83 82 97
3 84 83 98
3 97 98 83
3 85 84 99
3 98 99 84
3 85 99 100
3 86 85 100
3 86 100 101
3 87 86 101
3 89 88 102
3 103 102 88
3 89 102 90
3 90 102 104
3 90 104 105
3 91 90 105
3 91 105 106
3 92 91 106
3 92 106 107
3 93 92 107
3 93 107 108
3 94 93 108
3 94 108 109
3 95 94 109
3 95 109 110
3 96 95 110
3 96 110 111
3 97 96 111
3 97 111 112
3 98 97 112
3 98 112 113
3 99 98 113
3 99 113 100
3 114 100 113
3 101 100 114
3 102 103 104
3 105 104 115
3 105 115 116
3 106 105 116
3 106 116 117
3 107 106 117
3 107 117 118
3 108 107 118
3 108 118 119
3 109 108 119
3 109 119 120
3 110 109 120
3 110 120 121
3 111 110 121
3 112 111 121
3 112 121 122
3 113 112 122
3 113 122 123
3 114 113 123
3 114 123 124
3 116 115 125
3 116 125 126
3 117 116 126
3 117 126 127
3 118 117 127
3 119 118 128
3 127 128 118
3 120 119 128
3 120 128 129
3 121 120 129
3 121 129 130
3 122 121 130
3 123 122 130
3 123 130 131
3 124 123 131
3 126 125 132
3 126 132 133
3 127 126 133
3 128 127 133
3 128 133 134
3 129 128 134
3 130 129 134
3 130 134 135
3 131 130 135
3 133 132 136
3 134 133 136
3 135 134 136
3 135 136 18
3 135 18 16
3 135 16 131
3 131 16 14
3 131 14 124
3 124 14 13
3 124 13 114
3 114 13 101
3 101 13 10
3 101 10 9
3 101 9 87
3 73 87 6
3 9 6 87
3 73 6 4
3 73 4 60
3 60 4 49
3 49 4 1
3 49 1 41
3 41 1 0
3 41 0 42
3 42 0 34
3 42 34 50
3 50 34 33
3 50 33 61
3 61 33 30
3 61 30 74
3 74 30 29
3 74 29 88
3 88 29 103
3 103 29 26
3 103 26 24
3 103 24 104
3 104 24 115
3 115 24 22
3 115 22 125
3 125 22 20
3 125 20 132
3 132 20 18
3 132 18 136
3 137 138 139
3 137 139 140
3 141 137 140
3 141 140 142
3 141 142 143
3 138 144 145
3 139 138 145
3 139 145 146
3 142 147 148
3 143 142 148
3 143 148 149
3 144 150 151
3 145 144 151
3 145 151 152
3 146 145 152
3 146 152 153
3 154 153 155
3 147 155 156
3 148 147 156
3 148 156 157
3 149 148 157
3 149 157 158
3 150 159 160
3 151 150 160
3 152 151 160
3 152 160 161
3 152 161 153
3 162 153 161
3 153 162 155
3 163 155 162
3 155 163 164
3 156 155 164
3 156 164 165
3 157 156 165
3 157 165 166
3 158 157 166
3 160 159 167
3 160 167 168
3 161 160 168
3 161 168 169
3 162 161 169
3 162 169 170
3 163 162 170
3 163 170 171
3 164 163 171
3 164 171 172
3 165 164 172
3 165 172 173
3 166 165 173
3 168 167 174
3 168 174 175
3 169 168 175
3 169 175 176
3 170 169 176
3 171 170 176
3 171 176 177
3 172 171 177
3 172 177 178
3 173 172 178
3 175 174 179
3 176 175 179
3 176 179 180
3 177 176 180
3 178 177 180
3 178 180 21
3 178 21 23
3 173 178 25
3 23 25 178
3 173 25 166
3 166 25 27
3 166 27 28
3 166 28 158
3 158 28 31
3 158 31 149
3 149 31 32
3 149 32 143
3 143 32 35
3 143 35 141
3 141 35 2
3 141 2 137
3 137 2 3
3 137 3 138
3 138 3 5
3 5 7 138
3 144 138 7
3 144 7 150
3 150 7 8
3 150 8 159
3 159 8 11
3 159 11 12
3 159 12 167
3 167 12 174
3 15 174 12
3 174 15 17
3 174 17 179
3 179 17 19
3 179 19 180
3 180 19 21
3 146 181 139
3 139 181 140
3 140 181 182
3 181 183 182
3 181 146 183
3 182 183 154
3 140 182 184
3 182 185 184
3 182 154 185
3 184 185 147
3 140 184 142
3 142 184 147
3 154 183 153
3 183 146 153
3 147 185 155
3 185 154 155

CELL_TYPES 368
5
5
5
5
5
5
5
5
5
5
5
5
5
5
5
5
5
5
5
5
5
5
5
5
5
5
5
5
5
5
5
5
5
5
5
5
5
5
5
5
5
5
5
5
5
5
5
5
5
5
5
5
5
5
5
5
5
5
5
5
5
5
5
5
5
5
5
5
5
5
5
5
5
5
5
5
5
5
5
5
5
5
5
5
5
5
5
5
5
5
5
5
5
5
5
5
5
5
5
5
5
5
5
5
5
5
5
5
5
5
5
5
5
5
5
5
5
5
5
5
5
5
5
5
5
5
5
5
5
5
5
5
5
5
5
5
5
5
5
5
5
5
5
5
5
5
5
5
5
5
5
5
5
5
5
5
5
5
5
5
5
5
5
5
5
5
5
5
5
5
5
5
5
5
5
5
5
5
5
5
5
5
5
5
5
5
5
5
5
5
5
5
5
5
5
5
5
5
5
5
5
5
5
5
5
5
5
5
5
5
5
5
5
5
5
5
5
5
5
5
5
5
5
5
5
5
5
5
5
5
5
5
5
5
5
5
5
5
5
5
5
5
5
5
5
5
5
5
5
5
5
5
5
5
5
5
5
5
5
5
5
5
5
5
5
5
5
5
5
5
5
5
5
5
5
5
5
5
5
5
5
5
5
5
5
5
5
5
5
5
5
5
5
5
5
5
5
5
5
5
5
5
5
5
5
5
5
5
5
5
5
5
5
5
5
5
5
5
5
5
5
5
5
5
5
5
5
5
5
5
5
5
5
5
5
5
5
5
5
5
5
5
5
5
5
5
5
5
5
5
5
5
5
5
5
5
5
5
5
5
5
5
5
5
5
5
5
5

CELL_DATA 368
SCALARS cell_data_0 double
LOOKUP_TABLE default
3.72228949579e-07
4.76001113386e-07
3.12162582619e-07
3.04319674111e-07
2.8903982107e-08
7.8099372616e-08
1.33295984839e-07
1.40839708671e-07
3.25033925648e-08
3.78474158303e-08
1.20126634712e-07
1.14842150576e-07
3.40294346446e-08
9.92838540498e-08
7.25552475683e-08
1.36705658458e-07
5.98335400989e-08
1.00021610466e-07
7.29718177135e-08
1.17445909326e-07
1.36743312275e-07
8.18585179241e-08
9.46164877536e-08
8.21922667306e-08
1.05721434063e-07
5.61005484062e-09
2.74858650614e-08
3.28513508763e-08
1.55251912077e-07
1.02819982325e-07
9.54869250703e-09
3.59066206408e-08
5.97097177907e-08
3.00153494624e-07
7.32112945796e-07
3.69664771928e-07
3.87112173063e-10
2.83316080183e-10
1.97291503093e-11
3.52109223422e-11
3.76168107406e-09
1.01321686721e-10
1.30474030277e-11
7.17421287842e-10
3.60679889303e-10
5.22530522225e-10
1.12921513164e-09
1.09514693051e-09
1.73776429872e-09
2.21528864426e-09
2.19917695609e-09
2.97045367541e-09
9.29466322056e-10
1.03228036092e-09
1.40819307012e-09
9.92744288302e-10
2.51572088319e-10
2.85536541135e-10
2.38037446694e-10
6.11324791268e-11
3.86490844559e-10
1.62185555781e-09
1.00494639393e-09
6.27930551506e-10
4.79380167939e-10
3.88087992167e-10
1.00736746464e-09
2.94138471524e-09
5.73133850284e-10
5.46501286962e-10
7.60893548174e-10
7.87428181382e-10
1.50563715811e-09
6.55378595771e-10
4.73620708445e-10
8.83626602402e-10
1.27422294475e-09
3.6296921019e-10
5.81151632243e-10
6.84117225098e-10
4.43933815194e-11
1.5343770886e-09
1.98731708379e-10
1.27274469821e-09
1.11690026283e-10
2.61807370937e-10
1.70267909663e-09
1.71004320916e-10
3.97072824244e-11
5.10047824457e-10
1.3800399992e-09
1.74185670205e-09
1.58450906725e-09
1.98611791276e-09
3.0460221479e-09
1.43985814859e-09
1.87547078555e-09
5.94926867022e-10
2.96870394167e-10
6.85094948514e-10
2.57061350025e-10
2.4851199177e-10
8.72412590753e-10
9.13428630962e-12
1.64995068393e-09
6.61186971993e-10
1.64219620584e-10
4.45419721005e-10
4.16207628196e-10
9.30110198064e-10
5.32071771683e-10
1.26471607975e-09
3.25849981616e-10
3.560360614e-10
5.90219407225e-09
2.17208180544e-09
6.66741976296e-09
4.42652565986e-10
3.22324967985e-11
1.34776902775e-09
2.36548369083e-10
2.0221636697e-09
2.12943009292e-09
4.69687033897e-10
1.8110599954e-12
3.83742283493e-10
3.89376340732e-10
1.36014211948e-10
1.13831194889e-10
2.73397024478e-10
3.15780093982e-10
8.08185042366e-10
2.08723527355e-10
1.89356822192e-10
1.1547494089e-09
3.97641938603e-10
4.98168780298e-10
9.13542472226e-10
8.4583546223e-10
8.30593511806e-10
3.61363578356e-09
5.22991379324e-09
8.611196592e-09
1.85474839381e-09
1.49186957521e-09
2.61365310549e-09
4.86583904084e-09
8.88521142724e-10
3.82124024744e-09
4.65191854789e-10
2.13692871345e-10
9.20198475963e-11
3.27364692055e-10
6.38943558299e-10
7.89483115177e-10
2.73168204814e-10
1.31762814483e-09
5.32284295856e-10
2.51153407654e-10
5.37872394909e-10
1.49490008498e-10
4.15704778372e-10
7.13875875716e-10
4.26588994457e-10
2.58684073994e-09
5.64477723764e-10
1.1741249946e-09
1.20364731611e-08
3.59732418653e-10
2.64726717999e-09
7.63520152441e-10
4.13042613032e-09
2.97957909866e-10
9.39095206441e-10
1.60581123368e-12
7.23030040766e-10
8.13175409363e-10
1.75882195732e-10
7.23608748075e-10
8.48141425248e-10
1.01258560506e-09
9.81229102131e-10
1.85699709034e-10
5.17823662538e-10
2.45525573928e-10
2.35244783794e-09
1.61689850187e-09
1.58172862601e-09
5.37406144097e-10
6.23435463473e-10
2.77316538943e-09
8.16964373292e-10
6.84557559164e-10
1.51124004689e-10
7.21679501069e-10
3.68102124512e-10
3.64503439706e-10
2.11518202039e-10
1.10816642114e-09
3.45408255142e-09
1.34841216114e-09
5.06718077055e-09
4.61038508337e-10
2.67003152016e-09
5.76385632426e-10
4.56262669734e-09
9.18923462801e-10
7.70838719276e-09
4.44290861267e-09
3.12372362167e-09
5.86185435205e-10
2.58933190244e-09
1.73069705611e-09
1.68629665779e-09
2.23574402316e-09
3.11940839364e-08
1.04940932908e-07
3.19715466417e-08
1.27666642479e-07
1.18755436289e-08
5.41269403261e-08
5.52335506874e-08
1.30703995334e-08
5.51396708062e-08
2.03163979653e-08
1.15177141691e-08
2.57593978068e-08
2.0097677892e-08
1.95301425666e-08
7.53211087465e-09
2.17174961069e-08
2.71889603251e-08
6.76941390382e-09
1.00063248807e-09
2.7692759216e-09
1.46716110411e-09
9.87856121058e-09
2.62957157985e-08
7.42203242935e-09
8.03641465762e-09
5.09602168704e-09
4.48228456907e-08
7.12772233107e-09
5.37697927779e-09
2.37814503278e-08
6.50203753404e-08
9.17945691647e-08
2.47274980557e-08
1.07778168825e-07
1.85794492554e-08
1.44283035763e-07
2.98787758976e-08
9.94347113685e-08
3.22812492915e-08
3.03966724456e-06
9.58574229647e-08
1.21399981331e-06
2.13253401481e-07
3.41430418721e-06
9.27418078379e-08
1.1183590004e-06
8.68118449772e-07
9.75438584618e-07
1.01437643897e-06
1.19994383314e-07
6.11222696588e-08
3.15770942524e-08
1.41862353521e-07
3.8433814174e-08
2.14628356858e-07
2.67418481164e-07
2.42453249454e-07
2.74673661887e-07
1.25903939587e-07
1.08056082317e-07
5.38014899196e-08
1.64213779149e-08
1.46506659228e-08
1.42590787561e-08
1.16307979836e-07
8.29370755309e-08
8.45255470937e-08
4.94297225763e-08
6.64940413654e-08
1.00773011008e-07
7.46495244711e-08
1.15605156208e-07
1.1407816021e-07
5.21953964128e-08
3.6238896732e-08
2.25483933189e-08
2.47868155482e-09
1.02330010113e-08
4.74656393066e-09
1.17032028837e-08
2.16376565708e-09
6.85459454419e-09
5.73918819783e-09
7.24895844767e-09
3.28840629455e-09
3.13280276032e-09
2.71717810986e-09
1.75849469256e-08
1.37900452901e-08
1.19426116882e-09
8.19585180186e-09
9.5331264565e-09
7.69285686943e-09
5.0127707539e-09
1.94989866622e-08
7.80679852631e-09
6.73342080063e-09
1.88101702453e-08
7.43094902332e-09
1.27101528239e-08
1.54067272533e-08
1.11931328197e-08
2.23828222843e-09
9.04715606886e-09
3.5737975816e-08
8.78814169605e-09
1.03003188521e-08
1.67539971363e-08
3.41672973501e-08
1.56583878615e-08
2.15015456318e-08
5.04169016091e-08
2.91188534334e-08
8.26974082477e-08
8.09353039422e-08
3.61157024836e-07
8.08597338759e-08
5.94759512198e-07
2.3138107899e-07
6.99797018653e-07
3.73292846614e-06
1.32092654227e-07
1.8063532756e-07
1.78277719202e-07
2.73216426948e-08
5.82026430001e-08
2.47341006586e-08
1.81419577024e-08
3.01686823494e-08
2.97162946856e-09
5.22760411183e-09
1.05903125074e-08
2.87987303955e-08
1.0251048394e-08
2.09073537065e-08
3.21939717274e-08
2.45087061792e-08
1.28651706932e-07
1.13806492644e-07
3.31495291676e-07
1.35151821122e-07
7.22296046527e-08
7.0496056097e-08
3.2313896329e-07
6.15284403292e-08
8.69896245908e-08
6.70895911589e-08
7.34091724493e-07
4.30721342184e-09
9.85826317086e-08
1.08826443515e-08
1.08414638098e-07
7.22355520296e-08

