# vtk DataFile Version 3.0
File Name: Molecule/methanol/methanol_13.5-3.vtk
ASCII
DATASET UNSTRUCTURED_GRID
FIELD FieldData 1
TIME 1 1 double
0.0
POINTS 725 double
1.611 0.0 -0.359
1.585 -0.292 -0.356
1.475 0.0 -0.634
1.451 -0.274 -0.632
1.403 0.0 -0.933
1.38 -0.266 -0.93
1.51 -0.576 -0.349
1.38 -0.539 -0.625
1.311 -0.525 -0.924
1.386 -0.842 -0.336
1.265 -0.788 -0.613
1.219 -1.083 -0.32
1.108 -1.014 -0.598
1.198 -0.767 -0.912
1.046 -0.986 -0.897
1.012 -1.29 -0.299
0.915 -1.208 -0.579
0.857 -1.175 -0.878
0.773 -1.459 -0.275
0.691 -1.366 -0.556
0.639 -1.329 -0.857
0.508 -1.583 -0.249
0.443 -1.482 -0.532
0.398 -1.442 -0.833
0.226 -1.659 -0.221
0.179 -1.553 -0.505
0.141 -1.511 -0.807
-0.065 -1.684 -0.192
-0.094 -1.577 -0.478
-0.124 -1.534 -0.781
-0.356 -1.659 -0.163
-0.366 -1.553 -0.451
-0.389 -1.511 -0.754
-0.639 -1.583 -0.135
-0.631 -1.482 -0.425
-0.646 -1.442 -0.729
-0.903 -1.459 -0.108
-0.878 -1.366 -0.4
-0.887 -1.329 -0.705
-1.143 -1.29 -0.085
-1.102 -1.208 -0.378
-1.105 -1.175 -0.683
-1.349 -1.083 -0.064
-1.296 -1.014 -0.358
-1.294 -0.986 -0.664
-1.517 -0.842 -0.047
-1.453 -0.788 -0.343
-1.446 -0.767 -0.649
-1.64 -0.576 -0.035
-1.568 -0.539 -0.331
-1.559 -0.525 -0.638
-1.716 -0.292 -0.028
-1.639 -0.274 -0.324
-1.628 -0.266 -0.631
-1.742 -0.0 -0.025
-1.663 -0.0 -0.322
-1.716 0.292 -0.028
-1.639 0.274 -0.324
-1.651 -0.0 -0.629
-1.64 0.576 -0.035
-1.568 0.539 -0.331
-1.628 0.266 -0.631
-1.517 0.842 -0.047
-1.453 0.788 -0.343
-1.559 0.525 -0.638
-1.446 0.767 -0.649
-1.349 1.083 -0.064
-1.296 1.014 -0.358
-1.294 0.986 -0.664
-1.143 1.29 -0.085
-1.102 1.208 -0.378
-1.105 1.175 -0.683
-0.903 1.459 -0.108
-0.878 1.366 -0.4
-0.887 1.329 -0.705
-0.639 1.583 -0.135
-0.631 1.482 -0.425
-0.646 1.442 -0.729
-0.356 1.659 -0.163
-0.366 1.553 -0.451
-0.389 1.511 -0.754
-0.065 1.684 -0.192
-0.094 1.577 -0.478
-0.124 1.534 -0.781
0.226 1.659 -0.221
0.179 1.553 -0.505
0.141 1.511 -0.807
0.508 1.583 -0.249
0.443 1.482 -0.532
0.398 1.442 -0.833
0.773 1.459 -0.275
0.691 1.366 -0.556
0.639 1.329 -0.857
1.012 1.29 -0.299
0.915 1.208 -0.579
0.857 1.175 -0.878
1.219 1.083 -0.32
1.108 1.014 -0.598
1.046 0.986 -0.897
1.386 0.842 -0.336
1.265 0.788 -0.613
1.198 0.767 -0.912
1.51 0.576 -0.349
1.38 0.539 -0.625
1.311 0.525 -0.924
1.585 0.292 -0.356
1.451 0.274 -0.632
1.38 0.266 -0.93
1.907 0.0 0.656
1.885 0.281 0.656
1.885 0.141 0.899
1.885 -0.141 0.899
1.885 -0.281 0.656
1.885 -0.141 0.412
1.885 0.141 0.412
1.823 0.482 0.934
1.823 0.278 1.137
1.823 -0.0 1.212
1.823 -0.278 1.137
1.823 -0.482 0.934
1.823 -0.556 0.656
1.823 -0.482 0.377
1.823 -0.278 0.174
1.823 -0.0 0.099
1.823 0.278 0.174
1.823 0.482 0.377
1.823 0.556 0.656
1.72 0.77 0.936
1.72 0.627 1.182
1.72 0.409 1.365
1.72 0.142 1.462
1.72 -0.142 1.462
1.72 -0.409 1.365
1.72 -0.627 1.182
1.72 -0.77 0.936
1.72 -0.819 0.656
1.72 -0.77 0.376
1.72 -0.627 0.129
1.72 -0.409 -0.054
1.72 -0.142 -0.151
1.72 0.142 -0.151
1.72 0.409 -0.054
1.72 0.627 0.129
1.72 0.77 0.376
1.72 0.819 0.656
1.579 1.027 0.931
1.579 0.921 1.187
1.579 0.752 1.407
1.579 0.532 1.576
1.579 0.275 1.683
1.579 0.0 1.719
1.579 -0.275 1.683
1.579 -0.532 1.576
1.579 -0.752 1.407
1.579 -0.921 1.187
1.579 -1.027 0.931
1.579 -1.063 0.656
1.579 -1.027 0.38
1.579 -0.921 0.124
1.579 -0.752 -0.096
1.579 0.752 -0.096
1.579 0.921 0.124
1.579 1.027 0.38
1.579 1.063 0.656
1.403 1.254 0.932
1.403 1.165 1.195
1.403 1.022 1.433
1.403 0.831 1.634
1.403 0.601 1.79
1.403 0.343 1.893
1.403 0.07 1.938
1.403 -0.208 1.923
1.403 -0.475 1.848
1.403 -0.72 1.718
1.403 -0.932 1.538
1.403 -1.1 1.317
1.403 -1.217 1.066
1.403 -1.276 0.794
1.403 -1.276 0.517
1.403 -1.217 0.246
1.403 -1.1 -0.006
1.403 1.022 -0.121
1.403 1.165 0.117
1.403 1.254 0.38
1.403 1.284 0.656
1.196 1.449 0.935
1.196 1.37 1.204
1.196 1.241 1.453
1.196 1.068 1.674
1.196 0.856 1.858
1.196 0.613 1.998
1.196 0.348 2.09
1.196 0.07 2.13
1.196 -0.21 2.116
1.196 -0.483 2.05
1.196 -0.738 1.934
1.196 -0.966 1.771
1.196 -1.16 1.568
1.196 -1.312 1.332
1.196 -1.416 1.071
1.196 -1.469 0.796
1.196 -1.469 0.515
1.196 -1.416 0.24
1.196 -1.312 -0.021
1.196 1.241 -0.142
1.196 1.37 0.107
1.196 1.449 0.376
1.196 1.476 0.656
0.963 1.611 0.932
0.963 1.541 1.2
0.963 1.427 1.453
0.963 1.272 1.683
0.963 1.08 1.883
0.963 0.857 2.048
0.963 0.609 2.172
0.963 0.344 2.254
0.963 0.069 2.289
0.963 -0.208 2.277
0.963 -0.479 2.219
0.963 -0.736 2.115
0.963 -0.972 1.97
0.963 -1.18 1.787
0.963 -1.354 1.571
0.963 -1.49 1.329
0.963 -1.582 1.067
0.963 -1.629 0.794
0.963 -1.629 0.517
0.963 -1.582 0.244
0.963 -1.49 -0.018
0.963 1.427 -0.142
0.963 1.541 0.111
0.963 1.611 0.379
0.963 1.635 0.656
0.709 1.735 0.93
0.709 1.671 1.199
0.709 1.566 1.453
0.709 1.421 1.688
0.709 1.242 1.898
0.709 1.033 2.077
0.709 0.798 2.221
0.709 0.543 2.327
0.709 0.275 2.391
0.709 -0.0 2.413
0.709 -0.275 2.391
0.709 -0.543 2.327
0.709 -0.798 2.221
0.709 -1.033 2.077
0.709 -1.242 1.898
0.709 -1.421 1.688
0.709 -1.566 1.453
0.709 -1.671 1.199
0.709 -1.735 0.93
0.709 -1.757 0.656
0.709 -1.735 0.381
0.709 -1.671 0.113
0.709 1.671 0.113
0.709 1.735 0.381
0.709 1.757 0.656
0.439 1.819 0.937
0.439 1.754 1.211
0.439 1.649 1.472
0.439 1.505 1.714
0.439 1.326 1.932
0.439 1.116 2.119
0.439 0.879 2.272
0.439 0.622 2.387
0.439 0.35 2.462
0.439 0.07 2.494
0.439 -0.211 2.484
0.439 -0.488 2.43
0.439 -0.753 2.335
0.439 -1.0 2.2
0.439 -1.224 2.029
0.439 -1.42 1.826
0.439 -1.582 1.596
0.439 -1.707 1.343
0.439 -1.792 1.075
0.439 -1.835 0.796
0.439 -1.835 0.515
0.439 -1.792 0.236
0.439 -1.707 -0.032
0.439 1.754 0.1
0.439 1.819 0.375
0.439 1.84 0.656
0.16 1.861 0.936
0.16 1.799 1.21
0.16 1.696 1.472
0.16 1.555 1.716
0.16 1.38 1.936
0.16 1.174 2.127
0.16 0.941 2.286
0.16 0.688 2.408
0.16 0.419 2.491
0.16 0.141 2.533
0.16 -0.141 2.533
0.16 -0.419 2.491
0.16 -0.688 2.408
0.16 -0.941 2.286
0.16 -1.174 2.127
0.16 -1.38 1.936
0.16 -1.555 1.716
0.16 -1.696 1.472
0.16 -1.799 1.21
0.16 -1.861 0.936
0.16 -1.882 0.656
0.16 -1.861 0.375
0.16 -1.799 0.101
0.16 1.799 0.101
0.16 1.861 0.375
0.16 1.882 0.656
-0.122 1.861 0.936
-0.122 1.799 1.21
-0.122 1.696 1.472
-0.122 1.555 1.716
-0.122 1.38 1.936
-0.122 1.174 2.127
-0.122 0.941 2.286
-0.122 0.688 2.408
-0.122 0.419 2.491
-0.122 0.141 2.533
-0.122 -0.141 2.533
-0.122 -0.419 2.491
-0.122 -0.688 2.408
-0.122 -0.941 2.286
-0.122 -1.174 2.127
-0.122 -1.38 1.936
-0.122 -1.555 1.716
-0.122 -1.696 1.472
-0.122 -1.799 1.21
-0.122 -1.861 0.936
-0.122 -1.882 0.656
-0.122 -1.861 0.375
-0.122 -1.799 0.101
-0.122 1.799 0.101
-0.122 1.861 0.375
-0.122 1.882 0.656
-0.401 1.84 0.656
-0.401 1.819 0.937
-0.401 1.754 1.211
-0.401 1.649 1.472
-0.401 1.505 1.714
-0.401 1.326 1.932
-0.401 1.116 2.119
-0.401 0.879 2.272
-0.401 0.622 2.387
-0.401 0.35 2.462
-0.401 0.07 2.494
-0.401 -0.211 2.484
-0.401 -0.488 2.43
-0.401 -0.753 2.335
-0.401 -1.0 2.2
-0.401 -1.224 2.029
-0.401 -1.42 1.826
-0.401 -1.582 1.596
-0.401 -1.707 1.343
-0.401 -1.792 1.075
-0.401 -1.835 0.796
-0.401 -1.835 0.515
-0.401 -1.792 0.236
-0.401 1.754 0.1
-0.401 1.819 0.375
-0.671 1.757 0.656
-0.671 1.735 0.93
-0.671 1.671 1.199
-0.671 1.566 1.453
-0.671 1.421 1.688
-0.671 1.242 1.898
-0.671 1.033 2.077
-0.671 0.798 2.221
-0.671 0.543 2.327
-0.671 0.275 2.391
-0.671 -0.0 2.413
-0.671 -0.275 2.391
-0.671 -0.543 2.327
-0.671 -0.798 2.221
-0.671 -1.033 2.077
-0.671 -1.242 1.898
-0.671 -1.421 1.688
-0.671 -1.566 1.453
-0.671 -1.671 1.199
-0.671 -1.735 0.93
-0.671 -1.757 0.656
-0.671 -1.735 0.381
-0.671 -1.671 0.113
-0.671 1.671 0.113
-0.671 1.735 0.381
-0.925 1.635 0.656
-0.925 1.611 0.932
-0.925 1.541 1.2
-0.925 1.427 1.453
-0.925 1.272 1.683
-0.925 1.08 1.883
-0.925 0.857 2.048
-0.925 0.609 2.172
-0.925 0.344 2.254
-0.925 0.069 2.289
-0.925 -0.208 2.277
-0.925 -0.479 2.219
-0.925 -0.736 2.115
-0.925 -0.972 1.97
-0.925 -1.18 1.787
-0.925 -1.354 1.571
-0.925 -1.49 1.329
-0.925 -1.582 1.067
-0.925 -1.629 0.794
-0.925 -1.629 0.517
-0.925 -1.582 0.244
-0.925 1.541 0.111
-0.925 1.611 0.379
-1.158 1.476 0.656
-1.158 1.449 0.935
-1.158 1.37 1.204
-1.158 1.241 1.453
-1.158 1.068 1.674
-1.158 0.856 1.858
-1.158 0.613 1.998
-1.158 0.348 2.09
-1.158 0.07 2.13
-1.158 -0.21 2.116
-1.158 -0.483 2.05
-1.158 -0.738 1.934
-1.158 -0.966 1.771
-1.158 -1.16 1.568
-1.158 -1.312 1.332
-1.158 -1.416 1.071
-1.158 -1.469 0.796
-1.158 -1.469 0.515
-1.158 -1.416 0.24
-1.158 1.37 0.107
-1.158 1.449 0.376
-1.365 1.284 0.656
-1.365 1.254 0.932
-1.365 1.165 1.195
-1.365 1.022 1.433
-1.365 0.831 1.634
-1.365 0.601 1.79
-1.365 0.343 1.893
-1.365 0.07 1.938
-1.365 -0.208 1.923
-1.365 -0.475 1.848
-1.365 -0.72 1.718
-1.365 -0.932 1.538
-1.365 -1.1 1.317
-1.365 -1.217 1.066
-1.365 -1.276 0.794
-1.365 -1.276 0.517
-1.365 -1.217 0.246
-1.365 1.165 0.117
-1.365 1.254 0.38
-1.541 1.063 0.656
-1.541 1.027 0.931
-1.541 0.921 1.187
-1.541 0.752 1.407
-1.541 0.532 1.576
-1.541 0.275 1.683
-1.541 0.0 1.719
-1.541 -0.275 1.683
-1.541 -0.532 1.576
-1.541 -0.752 1.407
-1.541 -0.921 1.187
-1.541 -1.027 0.931
-1.541 -1.063 0.656
-1.541 -1.027 0.38
-1.541 -0.921 0.124
-1.541 0.921 0.124
-1.541 1.027 0.38
-1.682 0.819 0.656
-1.682 0.77 0.936
-1.682 0.627 1.182
-1.682 0.409 1.365
-1.682 0.142 1.462
-1.682 -0.142 1.462
-1.682 -0.409 1.365
-1.682 -0.627 1.182
-1.682 -0.77 0.936
-1.682 -0.819 0.656
-1.682 -0.77 0.376
-1.682 -0.627 0.129
-1.682 0.627 0.129
-1.682 0.77 0.375
-1.785 0.556 0.656
-1.785 0.482 0.934
-1.785 0.278 1.137
-1.785 -0.0 1.212
-1.785 -0.278 1.137
-1.785 -0.482 0.934
-1.785 -0.556 0.656
-1.785 -0.482 0.377
-1.785 -0.278 0.174
-1.785 0.278 0.174
-1.785 0.482 0.377
-1.847 0.281 0.656
-1.847 0.141 0.899
-1.847 -0.141 0.899
-1.847 -0.281 0.656
-1.847 -0.141 0.412
-1.847 0.141 0.412
-1.868 0.0 0.656
1.312 0.277 -1.217
1.185 0.404 -1.437
1.185 0.619 -1.257
1.185 -0.14 -1.533
1.015 -0.346 -1.712
1.015 -0.071 -1.769
1.185 0.14 -1.533
1.015 0.21 -1.75
1.015 0.476 -1.655
1.015 0.706 -1.493
1.015 0.884 -1.275
1.015 -0.949 -1.149
0.805 -1.151 -1.156
0.805 -1.023 -1.41
1.015 -0.802 -1.39
0.805 -0.841 -1.628
1.015 -0.596 -1.582
0.805 -0.612 -1.798
0.805 -0.351 -1.911
0.805 -0.071 -1.96
0.805 0.213 -1.944
0.805 0.485 -1.862
0.805 0.731 -1.72
[...]
CELL_DATA 1446
SCALARS cell_data_0 double
LOOKUP_TABLE default
3.25736163034e-07
2.10546543705e-06
9.19016363134e-08
2.61666556601e-07
2.22324390953e-06
1.47763001987e-06
2.11906567369e-06
2.23279601843e-07
3.63290661011e-08
1.45203481422e-08
1.44535867797e-07
2.18731824971e-08
2.09204489195e-07
4.17161505918e-08
2.90527872812e-08
2.0947549593e-07
1.7441716389e-07
2.13366936152e-07
2.1045597541e-08
4.4549564268e-10
3.38647749138e-09
8.78662120686e-09
8.60877401062e-09
8.71959864386e-10
4.31940087152e-09
1.80407362026e-09
4.02328700661e-09
4.27287602793e-09
6.42450071292e-09
7.13273861148e-10
2.18907828691e-09
7.68629898528e-09
7.56593541194e-09
1.26289219161e-09
7.65916189448e-10
1.12450061849e-08
8.41517552464e-09
3.65638689354e-09
4.9318258935e-10
1.39961118633e-08
8.77058872468e-09
1.09393901916e-09
4.92199944856e-09
1.59315503871e-08
8.18204186682e-09
3.68237664612e-10
1.69878854367e-09
1.76936781145e-08
9.96028374925e-09
3.75186534751e-09
6.70907630665e-09
2.01729802087e-08
1.00621895158e-08
3.55126789782e-09
6.36490133531e-09
2.22255300041e-08
9.47676089641e-09
5.30827858269e-09
2.83511180263e-09
2.33494541914e-08
6.78310993857e-09
5.83708760258e-09
2.51966653489e-09
2.42780463399e-08
5.30787649277e-09
4.11273471931e-09
2.08553334972e-09
2.18224288579e-08
1.29948417221e-08
3.97821636263e-09
1.97197886481e-07
3.36042036531e-07
1.38140082531e-07
5.87211083059e-07
4.88578044884e-07
3.07630366516e-08
5.81352163708e-07
4.66316376084e-07
3.98460773106e-08
1.44647898867e-07
3.15633195236e-07
1.1822139584e-07
1.25315984129e-07
1.31646837672e-09
2.58943756793e-08
9.70080326539e-09
1.25315366644e-09
3.32346017962e-09
2.58529116055e-08
1.07546609666e-08
1.24368293965e-09
1.55449763115e-09
2.5034796044e-08
1.14705298161e-08
2.1872212355e-09
5.19728089115e-10
2.37696610433e-08
1.20445607054e-08
2.41928204658e-09
6.25124346599e-10
2.22354807963e-08
1.23213574542e-08
3.18869393455e-09
4.90349523705e-10
2.02191859103e-08
1.2471563488e-08
3.35266377756e-09
4.63936455195e-10
1.72875944709e-08
1.14677091254e-08
4.22748879644e-09
2.45690802962e-09
1.39921835375e-08
1.09782138655e-08
4.71807400048e-09
4.99135165209e-09
9.37651677448e-09
9.26937317861e-09
5.31135771738e-09
8.73471183041e-09
3.74820774372e-09
8.44319184326e-09
5.75856994766e-09
1.74539726544e-08
1.80412238245e-10
9.03851900299e-09
5.32938167576e-09
4.33090676974e-08
3.18464711999e-09
1.41134601724e-08
1.81166038855e-08
8.34422243791e-08
2.52936977961e-08
1.86132033393e-08
3.91202297278e-08
1.80552752903e-07
5.98017810118e-08
2.11855152431e-08
2.27756237225e-07
1.14521431647e-06
1.4558737752e-10
5.14900826478e-11
1.40029109004e-10
3.56483216585e-11
3.56204722685e-11
8.82599086742e-11
2.27541104126e-10
8.49333152763e-11
6.77884113571e-11
4.94298001733e-10
3.12399798814e-10
4.90528118294e-10
6.73435480163e-10
4.2012301288e-09
7.98563446049e-09
5.13819151961e-09
7.23290947968e-09
3.18240721851e-11
3.32193391001e-09
7.89530056544e-09
8.69113050429e-09
4.51067962151e-09
4.63095582607e-09
8.59643564311e-10
2.24949788037e-10
1.72137508195e-09
8.50833159793e-10
1.29315895742e-09
4.71239976319e-10
3.85714902337e-10
6.03455664895e-10
1.10205265609e-09
1.53975782737e-09
1.97598763022e-09
3.72921887752e-10
3.27537264165e-10
4.46636455984e-09
5.35984131818e-09
9.44886569572e-09
1.30603282511e-08
1.70952830139e-08
1.55095913629e-08
2.02876615568e-08
1.36580613616e-08
1.18072802833e-09
9.32280574575e-09
1.56106466182e-08
1.82228466439e-08
1.75737462063e-08
1.58180563497e-08
1.06506421284e-08
7.64195022603e-09
4.10127873157e-09
7.39658477994e-10
1.84844502799e-09
3.45793664752e-09
3.24544218383e-09
3.50247854018e-09
2.48204196878e-09
2.38430789952e-09
1.53657230487e-09
5.74554351252e-10
5.17855150445e-11
1.12323046138e-09
1.58705101742e-09
2.47701688886e-09
3.01460098034e-09
3.64604880214e-09
3.44264553602e-09
3.22566397955e-09
2.03302302338e-09
1.46848510279e-09
1.75473894724e-09
2.00793027954e-09
4.61992270564e-09
8.9753223152e-09
1.18577375252e-08
1.95589871555e-08
1.37113664548e-08
1.68860509968e-08
1.96470142098e-08
1.35648186555e-08
1.14515174882e-08
6.06939369743e-09
3.74684935261e-09
9.53509861201e-10
1.51148454109e-09
4.1172119148e-09
5.30971913724e-09
4.97497716549e-09
5.32291181811e-09
4.60754306727e-09
4.47182708427e-09
3.5713764423e-09
3.23478074056e-09
1.72205606549e-09
1.31485897309e-09
4.32608411574e-10
4.27510168244e-10
1.10203096618e-09
2.02553792943e-09
2.6282256825e-09
3.53247851753e-09
3.93148137036e-09
4.3306632698e-09
5.00276521299e-09
4.58139367572e-09
5.32932798725e-09
4.99380814555e-09
3.74877256344e-09
3.32283069085e-09
9.86935359846e-10
2.1504297589e-10
3.12113638228e-09
3.56428404911e-09
9.31635516759e-09
7.64191823748e-09
1.2036936857e-08
7.12163321314e-09
4.95029871772e-09
1.52627961648e-09
2.36008693852e-10
2.21945735876e-09
4.09989241116e-09
6.64998342364e-09
7.66019274603e-09
7.07371845894e-09
7.23292359393e-09
6.42778496177e-09
6.22210113033e-09
5.41243279403e-09
4.99497392079e-09
3.90672484301e-09
3.37786484616e-09
2.35272344439e-09
1.9641082435e-09
5.60184138541e-10
4.21201253433e-11
1.19212156322e-09
1.75512292461e-09
2.77912519116e-09
3.40749239298e-09
4.15734065164e-09
4.75951821268e-09
5.54300186847e-09
5.98985653873e-09
6.63368397465e-09
6.53717075961e-09
7.11575160706e-09
6.31181092854e-09
6.7971319686e-09
5.04239978333e-09
5.2270986093e-09
2.31754566097e-09
2.53352902564e-09
6.54558922946e-10
1.66999062051e-09
1.19010321005e-09
2.53816546934e-09
4.2680454455e-09
1.06483513572e-09
2.90810235596e-10
2.94992304748e-09
3.84026338264e-09
5.58401220423e-09
6.81124753139e-09
9.26764991436e-09
9.60491227326e-09
9.185700002e-09
8.89702737684e-09
8.30502254268e-09
7.7317178179e-09
7.06251296594e-09
6.42741481395e-09
5.55329168936e-09
4.99357160025e-09
4.04389093011e-09
3.36201297683e-09
2.28245198307e-09
1.66531084864e-09
7.17046825261e-10
6.14784382027e-11
1.10945431728e-09
1.70982222183e-09
2.60640482226e-09
3.16988405899e-09
4.04298836921e-09
4.90162698579e-09
5.49670152475e-09
6.2933337295e-09
6.84711769538e-09
7.53259455392e-09
7.96084587008e-09
8.30341264299e-09
8.64247770938e-09
8.33888826581e-09
8.50623154384e-09
7.07690012545e-09
7.10586016115e-09
5.62147112449e-09
3.95595035538e-09
1.92811934452e-09
5.63779527279e-10
6.75106042964e-10
6.10810601254e-10
1.38328608789e-09
3.48150358793e-09
4.91194910182e-09
6.84422729126e-09
7.42567949561e-09
8.59837663065e-09
9.35271503902e-09
1.13066253862e-08
1.14023125398e-08
1.08420523018e-08
1.04534219461e-08
9.82602568601e-09
9.22257354013e-09
8.40801096116e-09
7.68523378702e-09
6.90833994107e-09
6.13981668397e-09
5.44858154618e-09
4.63861831053e-09
3.68108084828e-09
3.0270087818e-09
2.11691976793e-09
1.53441403965e-09
5.42094581783e-10
8.79129107215e-12
1.0534927091e-09
1.79632156718e-09
2.58265634605e-09
3.29122710811e-09
4.23078578405e-09
5.00328190417e-09
5.9999435719e-09
6.43376897729e-09
7.33960333566e-09
7.76779990585e-09
8.6758892303e-09
9.0119690612e-09
9.70263639791e-09
9.75523272983e-09
1.00628391673e-08
9.81635743696e-09
9.74841876538e-09
8.65383550596e-09
7.695995425e-09
5.80838430148e-09
3.66515015976e-09
1.39174570239e-09
4.86399374438e-10
6.11907698104e-11
7.92243460556e-09
9.5290039949e-09
1.01976763123e-08
1.11529915649e-08
1.14592687218e-08
1.33699541069e-08
1.36521465117e-08
1.25955347553e-08
1.23189495289e-08
1.13762035739e-08
1.08865810216e-08
9.88637981104e-09
9.06585560549e-09
8.10436201123e-09
7.28210737116e-09
6.44554557417e-09
5.64450337648e-09
4.730601917e-09
3.77406621337e-09
3.07856664402e-09
2.13797365898e-09
1.53248862209e-09
3.35406586803e-10
1.72999664144e-10
1.22142009522e-09
1.69981696514e-09
2.92367211657e-09
3.43579588931e-09
4.52752872431e-09
4.95434512695e-09
6.08382965275e-09
6.52348184357e-09
7.77973509393e-09
8.02499534231e-09
9.37746822886e-09
9.51566665001e-09
1.07094124721e-08
1.06238499606e-08
1.16408505973e-08
1.11751620497e-08
1.17986663894e-08
1.08298704819e-08
1.04706479424e-08
8.46977759823e-09
5.77225143641e-09
2.87168452027e-09
4.09820754851e-09
3.3003496115e-09
1.88104417939e-09
9.58341991709e-09
1.18570383334e-08
1.24731152863e-08
1.38123875544e-08
1.42232699965e-08
1.58313971974e-08
1.55143476763e-08
1.4796150214e-08
1.39216216896e-08
1.31399141163e-08
1.21207228831e-08
1.13002255078e-08
1.01268517682e-08
9.37102635654e-09
8.24878060806e-09
7.50385060428e-09
6.444167277e-09
5.68644847844e-09
4.54539548691e-09
3.76547462963e-09
2.77995777154e-09
2.02909261181e-09
1.09032022581e-09
2.04063884895e-10
7.46237537093e-10
1.51346548359e-09
2.33418508202e-09
3.17213315327e-09
4.19249427241e-09
4.93253835307e-09
5.87219641238e-09
6.62066216306e-09
7.65934674506e-09
8.4532308448e-09
9.37710796667e-09
1.00828287296e-08
1.09696427034e-08
1.14858974476e-08
1.23389826057e-08
1.25785160619e-08
1.30221801157e-08
1.26459863975e-08
1.22510677105e-08
1.10423598569e-08
8.65563268e-09
5.30264660136e-09
1.28646203774e-09
7.81257410918e-09
7.56088267935e-09
1.52051445849e-09
1.06338916998e-08
1.28698065885e-08
1.47648045846e-08
1.57791540626e-08
1.60138980038e-08
1.72611249688e-08
1.68191285003e-08
1.61405346957e-08
1.51296254324e-08
1.4458040339e-08
1.31335818631e-08
1.23563197651e-08
1.09521014684e-08
1.02407775778e-08
8.85793258447e-09
8.21420952796e-09
6.75122457889e-09
6.15859816925e-09
4.841355061e-09
4.29595924094e-09
2.96445994524e-09
2.42579014641e-09
1.13500599739e-09
6.54807587902e-10
7.5997626804e-10
1.23447953868e-09
2.58041660727e-09
3.03957732696e-09
4.38682787323e-09
4.90460054975e-09
6.35757723136e-09
6.81536298276e-09
7.82374117505e-09
8.8429744068e-09
9.98970587692e-09
1.0356440634e-08
1.17197016695e-08
1.20233471122e-08
1.32318748787e-08
1.33695222347e-08
1.39928464847e-08
1.37640265577e-08
1.31055036662e-08
1.22383257912e-08
8.59174929311e-09
6.38935279799e-09
3.19658583406e-09
7.63126431015e-09
9.81794048817e-09
4.66031143838e-09
9.38100796091e-09
1.28009255698e-08
1.60110076267e-08
1.69957460939e-08
1.75197264481e-08
1.10480258512e-08
5.47584412468e-09
1.08477207414e-08
5.22457860396e-09
9.89066639798e-09
4.70488473927e-09
8.63371476642e-09
3.95016750972e-09
7.23353438151e-09
3.33852227908e-09
5.87393946193e-09
2.58003593035e-09
4.43825799714e-09
1.87718764483e-09
3.32056586911e-09
1.41730124811e-09
2.08919667479e-09
6.28195440161e-10
7.70260557271e-10
8.00989583371e-11
5.72193112435e-10
6.11974554841e-10
1.72223812946e-09
1.2363524648e-09
2.94082804499e-09
1.88057631e-09
4.29085144279e-09
2.66987953212e-09
5.63778737501e-09
3.24147595152e-09
6.83362077978e-09
3.88573680997e-09
8.08234040467e-09
4.51337493753e-09
9.19426882325e-09
4.98989402811e-09
9.74944556035e-09
5.14250363866e-09
9.22443277891e-09
4.59471115875e-09
6.11465858387e-09
2.33430942744e-09
2.107363239e-09
3.15526330195e-09
5.05087622638e-09
2.11883354697e-10
5.23376335116e-09
4.33988723095e-09
1.05860856585e-08
6.11752310826e-10
6.02248730825e-10
4.19652177494e-10
3.66906469145e-10
2.52305053832e-10
2.59381636075e-10
1.64890529207e-10
1.32747721308e-10
9.92255965966e-11
9.17428762773e-11
6.15477898761e-11
2.20806716254e-11
9.66797107644e-11
6.18541930739e-11
1.02913480027e-10
8.76503254058e-12
3.94955199936e-11
1.55757993627e-11
1.65627838497e-11
1.96635885139e-11
6.77612246202e-11
5.18887640484e-11
1.11435581927e-10
6.91991953968e-11
7.87992825267e-11
1.12871158973e-12
2.38343054955e-12
2.7611585723e-11
7.72044087132e-11
4.67601952086e-11
5.50371750277e-11
2.27315906668e-11
6.68154511046e-11
8.51687495662e-11
1.30720408401e-10
1.16013962228e-10
1.41558190395e-10
2.0189827507e-10
2.38126099495e-10
3.97119641699e-10
4.42175474596e-10
7.47998958404e-10
8.57238379445e-10
2.07946190649e-09
2.07305657933e-09
9.70149709691e-10
9.71205373829e-10
5.37974524171e-10
6.85964154301e-10
6.58595161142e-10
4.4509038604e-10
4.03317867605e-10
2.67217755035e-10
2.56296694787e-10
2.17460613281e-10
1.38160555184e-10
1.97657279894e-10
1.02573852289e-10
1.89760683029e-10
7.00437956798e-11
1.65102186602e-10
2.29334690611e-11
1.4248358991e-10
4.90680044797e-11
1.13584866536e-10
1.54950397679e-11
1.21429399754e-10
3.25964299956e-11
1.2043583152e-10
1.37267634447e-11
9.27661470129e-11
1.10802269626e-12
3.14220341169e-11
1.22098662915e-10
5.01489299854e-11
1.61851058545e-10
1.02849793412e-11
1.7103405811e-10
4.85827140568e-11
1.87485045614e-10
9.923353536e-11
1.8338265721e-10
2.33484974865e-10
2.44803089333e-10
4.23574237377e-10
4.27688115604e-10
7.09102205502e-10
6.82272622769e-10
1.1471979428e-09
1.96550979125e-09
2.27338412061e-09
1.08475865098e-09
1.16390708498e-09
5.58572116131e-10
7.75103691408e-10
7.20131012903e-10
4.6816163121e-10
4.16123172544e-10
3.20886247538e-10
3.09503224418e-10
1.75320609638e-10
1.52076759188e-10
1.69514839818e-10
7.8794332195e-11
1.53902264927e-10
4.96587930009e-11
1.69713945728e-10
3.26848564571e-11
1.45385149604e-10
2.0346084253e-11
1.26721429383e-10
1.26040941767e-10
1.11940086129e-11
2.06167433241e-10
2.06229718124e-11
2.19258978475e-10
4.95263482878e-11
2.43482068489e-10
5.84368887538e-11
1.8982828052e-10
1.02052903377e-10
1.95048077477e-10
2.01732353484e-10
2.18478671549e-10
3.54907992636e-10
3.17648834752e-10
5.70433441304e-10
6.13176448819e-10
9.54074884161e-10
1.0944305252e-09
8.16579942553e-10
2.29077010492e-09
2.87541566741e-09
1.64836762968e-09
1.3226823974e-09
6.9054800411e-10
9.46523137639e-10
8.24658190145e-10
5.25605917691e-10
4.77924227139e-10
3.38764159015e-10
3.04690333027e-10
2.79549114843e-10
2.41581362926e-10
2.14391286141e-10
1.31157024432e-10
1.99736989742e-10
5.66248662126e-11
2.11457543175e-10
7.79089933232e-11
2.83545729126e-10
2.25207723477e-10
4.57004138928e-11
2.06487735735e-10
5.69886360405e-11
1.97390941574e-10
1.19244286493e-10
1.80119211643e-10
2.11321094023e-10
2.67134250295e-10
2.92982861435e-10
2.87264351883e-10
3.5137054338e-10
4.07418286868e-10
5.47884126251e-10
7.17263479804e-10
9.4825526164e-10
1.25102836859e-09
1.02659726922e-09
2.71144229816e-09
3.07331943236e-09
2.3297899325e-09
1.39838481515e-09
8.00602189811e-10
9.95523768709e-10
8.36959219733e-10
5.65245884386e-10
5.12231569867e-10
3.37825507916e-10
3.08510425592e-10
2.65381296984e-10
1.7714827882e-10
2.75270012681e-10
1.94900994093e-10
2.61292446894e-10
2.17182943972e-10
1.77153731461e-10
2.551469634e-10
1.72119968396e-10
2.82515285291e-10
2.02495173863e-10
2.39952269617e-10
1.66541472318e-10
2.82652205688e-10
2.98804344066e-10
2.72583361494e-10
3.55968489705e-10
5.2314576158e-10
4.16252159941e-10
8.00102656458e-10
7.09558345692e-10
1.03299892402e-09
1.77700589051e-09
2.42498773632e-09
3.16695015378e-09
2.45948047737e-09
1.62658078672e-09
8.55457086487e-10
1.08683647693e-09
9.94096952059e-10
5.4414187901e-10
5.38185182123e-10
3.42826722744e-10
3.69042150808e-10
2.97496675656e-10
2.91124212039e-10
3.35008980314e-10
3.97266364454e-10
3.31141939278e-10
3.4424091758e-10
2.76172500036e-10
2.40445924929e-10
3.55806254067e-10
4.00617726894e-10
3.92348682034e-10
5.77194856613e-10
5.58265555706e-10
9.49324707535e-10
1.07892385329e-09
1.04873495915e-09
1.74024222338e-09
2.63143363299e-09
3.572274453e-09
3.85934993132e-09
2.73413708467e-09
1.65020007494e-09
1.14702386878e-09
1.19884142192e-09
1.08216051712e-09
5.27144253689e-10
6.38830560489e-10
3.67953852884e-10
3.8447321613e-10
5.10900908327e-10
5.15977868116e-10
5.43169249013e-10
4.16349701198e-10
3.8202985436e-10
6.16693942269e-10
5.29194353779e-10
1.04004658722e-09
1.1482824876e-09
1.27992715933e-09
1.88672197927e-09
3.58517001348e-09
2.36009599837e-09
2.86824511712e-09
3.77164307879e-09
1.77860468738e-09
1.21394317914e-09
1.12983354573e-09
1.15997548768e-09
5.05212415047e-10
6.10021536317e-10
9.26754923491e-10
6.18336569472e-10
4.98115729587e-10
1.16642890087e-09
1.10645208813e-09
1.58942561668e-09
1.55685465385e-09
3.747492091e-09
3.77398659353e-09
1.54588106474e-09
1.55054958802e-09
7.43899529636e-10
7.44137057681e-10
7.29678600512e-10
1.17456289768e-09
1.89875725159e-09
1.20121043402e-09
1.2184219477e-08
1.94262249423e-08
1.20253828926e-08
7.12412088691e-11
3.39362455324e-09
1.12146480326e-09
3.79770503384e-10
1.53035471242e-09
9.11249638191e-10
7.75100368943e-09
6.80687734641e-09
9.6722999355e-09
6.67227745576e-09
9.21766022683e-09
9.22858974334e-09
4.57918921185e-09
2.57647809431e-09
8.45077634486e-09
1.09800239935e-08
5.11837571103e-09
6.97356444276e-09
6.76555464644e-09
1.61886586775e-09
1.06577280477e-09
2.18599144288e-09
6.29999015237e-09
2.2847003886e-09
2.87171788626e-09
7.42626718314e-10
5.07530959104e-09
3.71925370728e-09
1.36510687412e-09
4.42485150332e-09
7.43857688514e-09
8.17547187203e-10
1.30453598431e-08
2.33662197088e-07
1.94984939904e-07
1.3771540775e-07
4.82146728058e-09
1.02122149712e-08
1.24652147098e-08
8.94563385263e-09
1.79919807663e-08
4.73319815433e-09
7.42610059933e-09
3.70636148021e-10
1.36278472903e-09
1.21837313338e-09
6.57713352742e-10
6.92954781169e-10
1.87212192484e-09
5.14785206468e-09
2.17239807709e-09
4.82507613093e-09
2.09670751493e-10
2.83515267691e-09
2.64093130619e-09
3.285571908e-10
5.81121134845e-09
1.20572977342e-11
3.51986150772e-09
4.94440016901e-09
1.57516505558e-09
9.63082767495e-10
2.07977633008e-09
1.5795999397e-10
1.78964508959e-09
1.50080326712e-10
1.56296140186e-09
8.08789379355e-08
8.71050868448e-08
1.92954133529e-07
1.97018494961e-07
1.18966213363e-07
9.62215491693e-08
2.25055182621e-06
2.7315540167e-06
3.08491909519e-06
2.34335175276e-06
2.05136145897e-06
1.12446734702e-06
1.33010941496e-08
4.29318845946e-07
2.23166037713e-06
1.08046235374e-06
1.04982255979e-06
2.34668875641e-07
4.09433391833e-08
8.00678001375e-07
7.11360499856e-07
7.56084101683e-07
8.54047700296e-07
5.05502560281e-07
1.05421762176e-06
3.60901886784e-07
7.81732737802e-07
1.45790641197e-07
5.60237868643e-07
1.91672996661e-08
1.1450052903e-07
1.62279031772e-08
1.08198986559e-06
1.88018944313e-06
1.10372831835e-06
1.56751005471e-06
6.82705988997e-07
6.79173555973e-07
1.59551050271e-07
7.97454651231e-08
9.91866777556e-08
3.09955970259e-07
3.23336094981e-08
9.87180118533e-08
1.0557499594e-08
2.05040736123e-07
3.17206531618e-07
4.65522171493e-07
6.54154635771e-07
5.72373837363e-07
4.55160199282e-07
4.20390594279e-07
1.60774216875e-07
1.69596589135e-07
4.79393312506e-08
4.43067464444e-08
2.91719136808e-08
2.80163914468e-07
8.09004046553e-08
2.70569764679e-07
7.76263833904e-08
1.56814589804e-07
2.93119345368e-08
3.75651377923e-08
1.36598056787e-08
2.09743563775e-08
7.07357872854e-08
1.27016769414e-07
1.91390744682e-07
2.9737848358e-07
3.30812002147e-07
3.00170104329e-07
2.87881946672e-07
3.3173642927e-07
4.20820245899e-07
5.33915593576e-07
5.82850983907e-07
5.96882745143e-07
5.00820505538e-07
3.43564333144e-07
2.90211961794e-07
1.39959399559e-07
1.22599255393e-07
1.91783644631e-07
1.70733541074e-07
1.78323564774e-07
1.32622395117e-07
1.43688027853e-07
9.43661942938e-08
1.02386636702e-07
5.77246196775e-08
5.02789433889e-08
9.56925104917e-09
1.84766850723e-08
6.47495783092e-08
1.06516231196e-07
1.60173078826e-07
1.99840236807e-07
2.60745550089e-07
2.78393017703e-07
3.31724033775e-07
3.24324277149e-07
3.59083836661e-07
3.13589904672e-07
4.14579846491e-07
4.36905129287e-07
4.97919084507e-07
4.16476178642e-07
3.48989326859e-07
2.89550781407e-07
2.044764226e-07
1.75232620702e-07
1.5770502596e-07
1.86113507819e-07
1.75700656453e-07
1.87952791909e-07
1.63400747575e-07
1.6329507406e-07
1.28695357006e-07
1.190284203e-07
7.46859489337e-08
5.83988603344e-08
8.69549874088e-09
1.46330247171e-08
6.72010193953e-08
9.81423730807e-08
1.40171336271e-07
1.73440674577e-07
1.94618309208e-07
2.26818962157e-07
2.53283717018e-07
2.32839540708e-07
2.1465357567e-07
2.28879596157e-07
2.42798364876e-07
3.3740982279e-07
3.45413639998e-07
3.47363469531e-07
2.72818965269e-07
2.63608314341e-07
2.04701876592e-07
1.84710002442e-07
1.17881387222e-07
1.12858198184e-07
1.4067598117e-07
1.20996817023e-07
1.32090166415e-07
1.04311919974e-07
1.01289952926e-07
6.74511861406e-08
5.21472783683e-08
1.63379534175e-08
7.25301056215e-09
3.96452948664e-08
7.03361410542e-08
9.20676747814e-08
1.24131713241e-07
1.27960420988e-07
1.57960738188e-07
1.39355346361e-07
1.6431137083e-07
1.18356581601e-07
1.31130244305e-07
1.26171505022e-07
2.20883391409e-07