# vtk DataFile Version 3.0
File Name: Molecule/methanol/methanol_5.0-3.vtk
ASCII
DATASET UNSTRUCTURED_GRID
FIELD FieldData 1
TIME 1 1 double
0.0
POINTS 257 double
1.4517761469 -0.48261138797 -0.50899004936
1.3298900127 -0.45952951908 -0.93209135532
1.4678705931 -0.032067928463 -0.6463099122
1.1720066071 -0.87670689821 -0.72821217775
1.3306678534 -0.92981529236 -0.32160815597
1.0803486109 -1.2063622475 -0.35622704029
0.93805551529 -1.1246193647 -0.84506988525
0.66795474291 -1.5015034676 -0.30401599407
0.55024939775 -1.3700684309 -0.86384695768
0.11004444212 -1.5207234621 -0.79403102398
0.19735568762 -1.6727921963 -0.17840310931
-0.32072451711 -1.6609807014 -0.18378554285
-0.34858861566 -1.528272748 -0.72609871626
-0.80635613203 -1.5023264885 -0.15415930748
-0.80657702684 -1.3821300268 -0.68037182093
-1.2080780268 -1.2257767916 -0.10695552081
-1.1628081799 -1.113656044 -0.70743572712
-1.3949745893 -0.8770532012 -0.59576904774
-1.4428358078 -0.95800924301 -0.058769091964
-1.6543959379 -0.4997510612 -0.095524892211
-1.5740681887 -0.45946478844 -0.65974861383
-1.6578183174 -0.0010230797343 -0.60557574034
-1.7379050255 -0.0014533082722 -0.046710953116
-1.654792428 0.49784439802 -0.093611136079
-1.5740327835 0.45662969351 -0.66234773397
-1.3976697922 0.87271696329 -0.60005551577
-1.4436351061 0.9509216547 -0.073105879128
-1.2059897184 1.2137153149 -0.14953482151
-1.1642415524 1.1090188026 -0.71078664064
-0.79821997881 1.3864581585 -0.6883200407
-0.80740791559 1.5059599876 -0.13424809277
-0.3240801096 1.6531040668 -0.2132806927
-0.3552865684 1.5106352568 -0.77749425173
0.11295329034 1.5304803848 -0.7625297308
0.18835499883 1.6653461456 -0.21415321529
0.66997820139 1.5072643757 -0.28591582179
0.5597153306 1.3850328922 -0.81707668304
1.0740741491 1.2309287786 -0.3166731298
0.93616217375 1.1257563829 -0.84675389528
1.3190915585 0.94517296553 -0.33383509517
1.148426652 0.87257426977 -0.86935770512
1.4526805878 0.50971359015 -0.48328649998
1.9070001841 2.7911210054e-07 0.65591967106
1.8443729877 0.4817674458 0.65589237213
1.8443478346 0.2411313653 1.0719082355
1.8443459272 -0.24050049484 1.0722950697
1.8443278074 -0.48163288832 0.65617203712
1.844180584 -0.24069938064 0.2371699512
1.8441476822 0.24114350975 0.23691937327
1.6701672077 0.79054141045 1.1145358086
1.6618896723 0.46295180917 1.4608476162
1.6706823111 -0.0052201915532 1.5690534115
1.6632169485 -0.45945334435 1.4612373114
1.6687140465 -0.79348415136 1.1155817509
1.6629742384 -0.92782908678 0.65602934361
1.6685780287 -0.79519432783 0.19834524393
1.6648308039 -0.46576732397 -0.14336432517
1.6640763283 0.46266973019 -0.14868780971
1.6687982082 0.79215401411 0.19370432198
1.6620100737 0.92914414406 0.65566980839
1.3962187767 1.200304985 1.1268362999
1.3969596624 0.94926249981 1.5264453888
1.387365222 0.59115642309 1.8141856194
1.3941859007 0.12192182988 1.9421908855
1.3981378078 -0.36135062575 1.8920358419
1.3922579288 -0.78744286299 1.6828024387
1.387016654 -1.1047302485 1.3409303427
1.3974941969 -1.264334321 0.90305715799
1.395553112 -1.2695912123 0.4209164083
1.3844598532 -1.1120263338 -0.019046537578
1.3924769163 1.2015967369 0.17311120033
1.3883787394 1.2995696068 0.65517544746
1.1306259632 1.4482637644 1.132070303
1.1311781406 1.2334047556 1.5519398451
1.1336783171 0.98617452383 1.8149620295
1.1283624172 0.58486121893 2.065144062
1.1233325005 0.12766873837 2.1785144806
1.1311947107 -0.34639519453 2.1397695541
1.1317864656 -0.80094343424 1.9516345263
1.1309515238 -1.1628462076 1.639729619
1.1289944649 -1.3634617329 1.3377979994
1.1276473999 -1.5090261698 0.88595825434
1.1215324402 -1.5108270645 0.4117372632
1.1270699501 -1.3648656607 -0.017974494025
1.1290141344 1.4477955103 0.17292131484
1.1228182316 1.5280797482 0.65530461073
0.72314465046 1.6843785048 1.1361904144
0.72409695387 1.4875230789 1.5793346167
0.71952825785 1.1910076141 1.9408932924
0.73745077848 0.90623128414 2.1464972496
0.72181981802 0.4768114686 2.3410601616
0.7246055603 -0.0076874396764 2.4062726498
0.71949380636 -0.48538082838 2.3395547867
0.70611232519 -0.90953439474 2.1596808434
0.72437602282 -1.1909271479 1.9391381741
0.72160452604 -1.4910956621 1.5756431818
0.72289443016 -1.6849548817 1.1351587772
0.72270107269 -1.7510973215 0.65562200546
0.71835005283 -1.6850423813 0.16668732464
0.72171884775 1.6852767467 0.17638812959
0.70985174179 1.7549632788 0.65617197752
0.26945984364 1.81014359 1.1249178648
0.26148283482 1.6322990656 1.5689946413
0.26202303171 1.3446494341 1.9563001394
0.26365348697 0.96222692728 2.2599592209
0.25276094675 0.52504056692 2.4525201321
0.25969469547 0.061776608229 2.5248925686
0.25810459256 -0.29329106212 2.5048849583
0.27433922887 -0.74393892288 2.3718192577
0.26342952251 -1.149527669 2.1323394775
0.26406753063 -1.4875669479 1.7894605398
0.26469704509 -1.7290920019 1.3712780476
0.26506716013 -1.8546392918 0.90499848127
0.2649268806 -1.8562140465 0.41578987241
0.26701837778 1.8108435869 0.19486048818
0.24594548345 1.8724471331 0.6569776535
-0.21684765816 1.8110415936 1.130694747
-0.22265323997 1.6273741722 1.5802992582
-0.22365356982 1.3363734484 1.9658311605
-0.22461329401 0.9546276927 2.2646450996
-0.2142368108 0.50844174623 2.4581131935
-0.2176631093 0.056574225426 2.5264661312
-0.22381126881 -0.28888502717 2.5052473545
-0.21966050565 -0.74492520094 2.3736646175
-0.22412449121 -1.162535429 2.1227846146
-0.22526499629 -1.4967708588 1.7783013582
-0.22578576207 -1.7349661589 1.3581460714
-0.22611951828 -1.8567801714 0.89052343369
-0.23311436176 -1.8519181013 0.38058435917
-0.21694591641 1.8116339445 0.18726220727
-0.22235181928 1.8718546629 0.65647280216
-0.67440766096 1.7538551092 0.65568375587
-0.68587058783 1.6841288805 1.1362453699
-0.6878580451 1.4863852262 1.5796496868
-0.68072718382 1.1911220551 1.9420273304
-0.70186382532 0.90363675356 2.1460614204
-0.6844355464 0.4768152535 2.3407258987
-0.68747484684 -0.0083842510357 2.4058308601
-0.68278050423 -0.48480001092 2.338937521
-0.67079430819 -0.91091752052 2.1568789482
-0.68921810389 -1.1905730963 1.9369841814
-0.68457823992 -1.4908279181 1.5750529766
-0.68621104956 -1.6843975782 1.1351361275
-0.68681097031 -1.7502598763 0.6547164917
-0.67617422342 -1.6905268431 0.19238388538
-0.68537646532 1.6858632565 0.18492476642
-1.0829800367 1.5293953419 0.65534174442
-1.0908453465 1.4497998953 1.131131053
-1.0916298628 1.235045433 1.5518044233
-1.0942474604 0.98554623127 1.8166223764
-1.0897823572 0.58458846807 2.0655639172
-1.0835111141 0.12794676423 2.1796443462
-1.0905739069 -0.34566703439 2.1417818069
-1.0910176039 -0.80180692673 1.9533274174
-1.0924267769 -1.1632654667 1.6399577856
-1.090362668 -1.3635649681 1.3381228447
-1.088301301 -1.509873867 0.88565832376
-1.0898509026 -1.5067529678 0.40473133326
-1.0959409475 1.4484078884 0.1926304549
-1.3480906487 1.301805377 0.65638309717
-1.3565557003 1.2022891045 1.1271225214
-1.3572716713 0.95107108355 1.5274574757
-1.3480007648 0.59050357342 1.8161484003
-1.3535766602 0.12207514048 1.9451549053
-1.358678937 -0.36102887988 1.8939322233
-1.3534832001 -0.7873492837 1.684058547
-1.3471614122 -1.106490612 1.342019558
-1.3577260971 -1.2657673359 0.9040517807
-1.3590928316 -1.2670766115 0.41437959671
-1.3575484753 1.204911828 0.20295479894
-1.6243747473 0.92859268188 0.65614283085
-1.6333241463 0.78866845369 1.1134032011
-1.6244972944 0.4622323513 1.4601076841
-1.6335897446 -0.0055234744214 1.5673838854
-1.6262154579 -0.45909944177 1.4594054222
-1.6312235594 -0.79263526201 1.1151458025
-1.6261049509 -0.92603105307 0.65615284443
-1.6366969347 -0.78752595186 0.23200914264
-1.6359574795 0.78639537096 0.21908982098
-1.8062369823 0.4821793437 0.65650433302
-1.806117177 0.24120947719 1.0726765394
-1.8061423302 -0.24076160789 1.0728609562
-1.8062781096 -0.48201552033 0.65689426661
-1.8078677654 -0.24353209138 0.25325402617
-1.8079897165 0.24313412607 0.25318083167
-1.8679431677 1.0432851923e-05 0.65736460686
1.630146265 0.0077464869246 -0.29679757357
1.5236339569 0.18250928819 -0.49526235461
1.1127039194 -0.81314516068 -1.1443378925
0.78166544437 -1.1461247206 -1.2151300907
0.76965844631 -0.91556298733 -1.5832387209
1.1119471788 0.78058040142 -1.2109026909
0.77253079414 0.90110635757 -1.600310564
0.7750133872 1.1479016542 -1.2201826572
0.35921266675 -1.2887743711 -1.4214977026
0.35236304998 -0.98743450642 -1.8135905266
0.35517251492 -0.58316081762 -2.0750491619
0.76206207275 -0.74956077337 -1.7419807911
0.77065306902 -0.47764274478 -1.8922829628
0.76069349051 -0.17937509716 -1.9777519703
0.7466301322 0.01964186877 -1.9972240925
0.34935110807 -0.11808546633 -2.1940617561
0.35489988327 0.3571832478 -2.1522462368
0.75725394487 0.50413513184 -1.8887103796
0.35743206739 0.79646104574 -1.9588822126
0.35659340024 1.1496582031 -1.6357272863
0.34867918491 1.3806966543 -1.2152299881
-0.1254748702 -1.4132670164 -1.3380408287
-0.12015845627 -1.145856142 -1.7579680681
-0.11976066232 -0.77234202623 -2.0642547607
-0.12026616931 -0.32273581624 -2.2380716801
-0.11999744177 0.15785752237 -2.2641375065
-0.11951791495 0.61272549629 -2.1434435844
-0.11967140436 0.9137892127 -1.9682579041
-0.11960949004 1.2483062744 -1.6288815737
-0.11972226202 1.4672009945 -1.1946510077
-0.59539335966 -1.4259375334 -1.011259675
-0.59448987246 -1.2786253691 -1.439871788
-0.59238982201 -0.98401963711 -1.815729022
-0.58447450399 -0.5829731226 -2.0781371593
-0.5931006074 -0.12279950827 -2.1919476986
-0.59470307827 0.35644987226 -2.1520709991
-0.59677439928 0.79592102766 -1.9590885639
-0.59639745951 1.1496180296 -1.6354693174
-0.58899313211 1.3841689825 -1.2076734304
-1.018735528 -1.1570305824 -1.1971795559
-1.0253926516 -0.88137167692 -1.6076046228
-1.0220235586 -0.47488030791 -1.8849533796
-1.0163798332 0.0034285234287 -1.9828305244
-1.0217722654 0.47320625186 -1.8857002258
-1.0244268179 0.87443864346 -1.6158571243
-1.0194762945 1.1505955458 -1.2087271214
-1.3670409918 -0.81157189608 -1.1194425821
-1.3582999706 -0.49929326773 -1.4939593077
-1.3632215261 -0.039476796985 -1.6373333931
-1.3588045835 0.43455380201 -1.5329482555
-1.3684940338 0.77901905775 -1.1806058884
-1.5807359219 -0.24196219444 -1.1441591978
-1.5803853273 0.23948061466 -1.1460943222
1.2960484028 0.49956560135 -0.97172510624
1.1515648365 0.41995078325 -1.4838751554
1.3634136915 -0.0090269949287 -1.0187817812
1.1423344612 -0.049345571548 -1.6062928438
1.142413497 -0.48900279403 -1.4599415064
1.0083925724 -0.16991741955 -1.7631530762
1.010559082 -0.46233567595 -1.6660790443
1.021034956 0.1689401418 -1.75050354
0.90483957529 0.0071888533421 -1.8796913624
0.79087525606 0.29561927915 -1.9371122122
1.004119277 0.45784145594 -1.6747322083
1.3555788994 0.47892513871 -0.77215307951
1.3671497107 0.29587700963 -0.94719213247
1.4142861366 0.31586590409 -0.73325675726
1.0157318115 0.6205457449 -1.5624313354
0.78830170631 0.73143422604 -1.734118104
0.92678821087 -0.73400104046 -1.583833456
1.4238606691 0.14882126451 -0.7804248929

CELLS 510 2040
3 0 1 2
3 1 0 3
3 4 3 0
3 4 5 3
3 3 5 6
3 5 7 6
3 6 7 8
3 8 7 9
3 10 9 7
3 10 11 9
3 9 11 12
3 11 13 12
3 12 13 14
3 13 15 14
3 14 15 16
3 16 15 17
3 18 17 15
3 18 19 17
3 17 19 20
3 20 19 21
3 22 21 19
3 22 23 21
3 21 23 24
3 24 23 25
3 26 25 23
3 26 27 25
3 25 27 28
3 28 27 29
3 30 29 27
3 30 31 29
3 29 31 32
3 32 31 33
3 34 33 31
3 34 35 33
3 33 35 36
3 35 37 36
3 36 37 38
3 37 39 38
3 38 39 40
3 39 41 40
3 42 43 44
3 42 44 45
3 42 45 46
3 42 46 47
3 42 47 48
3 42 48 43
3 44 43 49
3 44 49 50
3 44 50 51
3 45 44 51
3 45 51 52
3 45 52 53
3 46 45 53
3 46 53 54
3 46 54 55
3 47 46 55
3 47 55 56
3 48 57 58
3 43 48 58
3 43 58 59
3 43 59 49
3 49 59 60
3 49 60 61
3 50 49 61
3 50 61 62
3 50 62 63
3 51 50 63
3 51 63 64
3 52 51 64
3 52 64 65
3 53 52 65
3 53 65 66
3 53 66 67
3 54 53 67
3 54 67 68
3 55 54 68
3 55 68 69
3 59 58 70
3 59 70 71
3 59 71 60
3 60 71 72
3 60 72 73
3 61 60 73
3 61 73 74
3 62 61 74
3 62 74 75
3 63 62 75
3 63 75 76
3 63 76 77
3 64 63 77
3 64 77 78
3 65 64 78
3 65 78 79
3 66 65 79
3 66 79 80
3 67 66 80
3 67 80 81
3 67 81 68
3 82 68 81
3 68 82 83
3 69 68 83
3 71 70 84
3 71 84 85
3 71 85 72
3 72 85 86
3 72 86 87
3 73 72 87
3 73 87 88
3 74 73 88
3 74 88 89
3 75 74 89
3 75 89 90
3 76 75 90
3 76 90 91
3 77 76 91
3 77 91 92
3 78 77 92
3 78 92 93
3 78 93 94
3 79 78 94
3 79 94 95
3 80 79 95
3 80 95 96
3 81 80 96
3 81 96 97
3 82 81 97
3 82 97 98
3 83 82 98
3 85 84 99
3 85 99 100
3 85 100 86
3 86 100 101
3 86 101 102
3 87 86 102
3 87 102 103
3 88 87 103
3 88 103 104
3 89 88 104
3 89 104 90
3 105 90 104
3 90 105 106
3 91 90 106
3 91 106 107
3 92 91 107
3 92 107 108
3 93 92 108
3 93 108 109
3 94 93 109
3 94 109 110
3 95 94 110
3 95 110 111
3 96 95 111
3 96 111 112
3 97 96 112
3 97 112 113
3 98 97 113
3 100 99 114
3 100 114 115
3 100 115 101
3 101 115 116
3 101 116 102
3 117 102 116
3 102 117 103
3 118 103 117
3 103 118 104
3 119 104 118
3 104 119 105
3 120 105 119
3 105 120 106
3 121 106 120
3 106 121 107
3 122 107 121
3 108 107 123
3 122 123 107
3 108 123 109
3 124 109 123
3 109 124 110
3 125 110 124
3 110 125 111
3 126 111 125
3 111 126 112
3 127 112 126
3 128 113 127
3 112 127 113
3 115 114 129
3 115 129 130
3 115 130 116
3 116 130 131
3 116 131 132
3 117 116 132
3 117 132 133
3 118 117 133
3 118 133 134
3 119 118 134
3 119 134 135
3 120 119 136
3 135 136 119
3 121 120 136
3 121 136 137
3 122 121 137
3 122 137 138
3 123 122 138
3 123 138 139
3 124 123 139
3 124 139 140
3 125 124 140
3 125 140 141
3 126 125 141
3 126 141 142
3 127 126 142
3 127 142 143
3 128 127 143
3 128 143 144
3 131 129 145
3 130 129 131
3 132 131 146
3 132 146 147
3 133 132 147
3 133 147 148
3 134 133 148
3 134 148 149
3 135 134 149
3 135 149 150
3 136 135 150
3 136 150 151
3 137 136 151
3 137 151 152
3 138 137 152
3 138 152 153
3 139 138 153
3 140 139 153
3 140 153 154
3 141 140 154
3 141 154 155
3 142 141 155
3 142 155 156
3 143 142 156
3 143 156 157
3 144 143 157
3 146 145 158
3 131 145 146
3 147 146 159
3 147 159 160
3 148 147 160
3 148 160 161
3 149 148 161
3 149 161 162
3 150 149 162
3 150 162 163
3 151 150 163
3 152 151 163
3 152 163 164
3 153 152 164
3 153 164 165
3 154 153 165
3 154 165 166
3 155 154 166
3 155 166 167
3 156 155 167
3 157 156 168
3 167 168 156
3 159 158 169
3 146 158 159
3 160 159 170
3 160 170 171
3 161 160 171
3 161 171 172
3 162 161 172
3 163 162 172
3 163 172 173
3 164 163 173
3 164 173 174
3 165 164 174
3 165 174 175
3 166 165 175
3 167 166 175
3 167 175 176
3 168 167 176
3 168 176 177
3 170 169 178
3 159 169 170
3 171 170 179
3 171 179 180
3 172 171 180
3 173 172 180
3 173 180 181
3 174 173 181
3 175 174 181
3 175 181 182
3 176 175 182
3 177 176 182
3 177 182 183
3 179 178 184
3 170 178 179
3 180 179 185
3 181 180 185
3 182 181 185
3 183 182 185
3 184 183 185
3 179 184 185
3 184 178 23
3 184 23 22
3 184 22 183
3 183 22 19
3 183 19 177
3 177 19 18
3 177 18 168
3 168 18 15
3 168 15 157
3 157 15 13
3 157 13 144
3 144 13 11
3 144 11 128
3 128 11 10
3 128 10 113
3 113 10 98
3 98 10 7
3 98 7 83
3 83 7 5
3 83 5 69
3 69 5 4
3 69 4 55
3 56 55 4
3 56 4 0
3 56 0 186
3 56 186 47
3 47 186 48
3 48 186 57
3 41 57 187
3 57 41 39
3 57 39 58
3 58 39 70
3 70 39 37
3 70 37 84
3 84 37 35
3 84 35 99
3 114 99 34
3 35 34 99
3 114 34 129
3 129 34 31
3 129 31 145
3 145 31 30
3 145 30 158
3 158 30 27
3 158 27 169
3 169 27 26
3 169 26 178
3 178 26 23
3 188 189 190
3 191 192 193
3 190 189 194
3 190 194 195
3 195 196 197
3 198 196 199
3 200 201 202
3 203 202 204
3 192 204 205
3 193 192 205
3 193 205 206
3 194 207 208
3 195 194 208
3 195 208 209
3 196 195 209
3 196 209 210
3 201 196 210
3 201 210 211
3 202 201 211
3 202 211 212
3 204 202 212
3 204 212 213
3 205 204 213
3 205 213 214
3 206 205 214
3 206 214 215
3 207 216 217
3 208 207 217
3 208 217 218
3 209 208 218
3 209 218 219
3 210 209 219
3 210 219 220
3 211 210 220
3 211 220 221
3 212 211 221
3 212 221 222
3 213 212 222
3 213 222 223
3 214 213 223
3 214 223 224
3 215 214 224
3 217 216 225
3 217 225 226
3 218 217 226
3 218 226 227
3 219 218 227
3 220 219 227
3 220 227 228
3 221 220 228
3 221 228 229
3 222 221 229
3 222 229 230
3 223 222 230
3 223 230 231
3 224 223 231
3 226 225 232
3 226 232 233
3 227 226 233
3 227 233 234
3 228 227 234
3 229 228 234
3 229 234 235
3 230 229 235
3 230 235 236
3 231 230 236
3 233 232 237
3 234 233 237
3 234 237 238
3 235 234 238
3 236 235 238
3 236 238 24
3 236 24 25
3 236 25 28
3 236 28 231
3 231 28 29
3 231 29 224
3 224 29 32
3 224 32 215
3 215 32 33
3 215 33 206
3 206 33 36
3 206 36 193
3 193 36 38
3 193 38 191
3 40 191 38
3 191 40 239
3 191 239 240
3 240 241 242
3 242 241 243
3 243 241 1
3 243 1 188
3 188 1 3
3 188 3 6
3 188 6 189
3 189 6 8
3 189 8 194
3 194 8 9
3 194 9 207
3 207 9 12
3 207 12 216
3 216 12 14
3 216 14 225
3 225 14 16
3 225 16 232
3 232 16 17
3 232 17 20
3 232 20 237
3 237 20 21
3 237 21 238
3 238 21 24
3 244 242 245
3 242 244 246
3 244 199 247
3 244 198 199
3 247 199 200
3 247 246 244
3 247 248 246
3 247 200 248
3 246 248 249
3 242 246 240
3 200 199 201
3 201 199 196
3 203 248 202
3 248 200 202
3 41 250 40
3 40 250 239
3 239 250 251
3 250 252 251
3 250 41 252
3 240 249 253
3 249 254 253
3 249 203 254
3 253 254 192
3 240 253 191
3 191 253 192
3 192 254 204
3 254 203 204
3 239 251 240
3 240 251 241
3 203 249 248
3 246 249 240
3 241 2 1
3 0 2 186
3 190 255 188
3 188 255 243
3 243 255 245
3 255 197 245
3 255 190 197
3 245 197 198
3 198 197 196
3 197 190 195
3 243 245 242
3 244 245 198
3 241 256 2
3 256 187 2
3 256 252 187
3 2 187 186
3 186 187 57
3 187 252 41
3 252 256 251
3 251 256 241

CELL_TYPES 510
5
5
5
5
5
5
5
5
5
5
5
5
5
5
5
5
5
5
5
5
5
5
5
5
5
5
5
5
5
5
5
5
5
5
5
5
5
5
5
5
5
5
5
5
5
5
5
5
5
5
5
5
5
5
5
5
5
5
5
5
5
5
5
5
5
5
5
5
5
5
5
5
5
5
5
5
5
5
5
5
5
5
5
5
5
5
5
5
5
5
5
5
5
5
5
5
5
5
5
5
5
5
5
5
5
5
5
5
5
5
5
5
5
5
5
5
5
5
5
5
5
5
5
5
5
5
5
5
5
5
5
5
5
5
5
5
5
5
5
5
5
5
5
5
5
5
5
5
5
5
5
5
5
5
5
5
5
5
5
5
5
5
5
5
5
5
5
5
5
5
5
5
5
5
5
5
5
5
5
5
5
5
5
5
5
5
5
5
5
5
5
5
5
5
5
5
5
5
5
5
5
5
5
5
5
5
5
5
5
5
5
5
5
5
5
5
5
5
5
5
5
5
5
5
5
5
5
5
5
5
5
5
5
5
5
5
5
5
5
5
5
5
5
5
5
5
5
5
5
5
5
5
5
5
5
5
5
5
5
5
5
5
5
5
5
5
5
5
5
5
5
5
5
5
5
5
5
5
5
5
5
5
5
5
5
5
5
5
5
5
5
5
5
5
5
5
5
5
5
5
5
5
5
5
5
5
5
5
5
5
5
5
5
5
5
5
5
5
5
5
5
5
5
5
5
5
5
5
5
5
5
5
5
5
5
5
5
5
5
5
5
5
5
5
5
5
5
5
5
5
5
5
5
5
5
5
5
5
5
5
5
5
5
5
5
5
5
5
5
5
5
5
5
5
5
5
5
5
5
5
5
5
5
5
5
5
5
5
5
5
5
5
5
5
5
5
5
5
5
5
5
5
5
5
5
5
5
5
5
5
5
5
5
5
5
5
5
5
5
5
5
5
5
5
5
5
5
5
5
5
5
5
5
5
5
5
5
5
5
5
5
5
5
5
5
5
5
5
5
5
5
5
5
5
5
5
5
5
5
5
5
5
5
5
5
5
5
5
5
5
5
5
5
5
5
5
5
5
5
5
5
5
5
5
5
5
5
5
5
5
5
5
5
5
5
5
5
5
5
5
5
5
5
5
5
5
5
5
5
5

CELL_DATA 510
SCALARS cell_data_0 double
LOOKUP_TABLE default
1.00325977125e-07
3.87981126572e-07
5.70774922676e-08
1.79715147979e-08
4.34379373675e-08
7.40227803059e-09
2.4920059505e-08
9.94054188913e-08
1.023860579e-07
2.84572439404e-08
6.9365840388e-08
1.15349852522e-08
7.77099947867e-08
1.48456250723e-08
9.47863849543e-08
3.40864819003e-08
3.42785740597e-08
2.31267788219e-08
7.5521204669e-08
4.58599896569e-08
4.41472118419e-08
4.57886326735e-08
7.52283504949e-08
7.22556143324e-09
2.63839278321e-08
2.21180297209e-08
4.80128136977e-08
1.63525183377e-08
6.70858126008e-09
7.81037103128e-08
2.78133594126e-08
2.63545101721e-08
2.50608919825e-08
9.75717942462e-08
4.38522839793e-08
6.81086267781e-08
7.69289134224e-08
5.18328161312e-09
1.22005218199e-08
7.66872032177e-08
4.13395883794e-10
2.55049496644e-11
5.2867605849e-10
4.14087496751e-11
6.5959490047e-10
2.34710307125e-10
7.22770723134e-10
5.24321721013e-10
4.65694844609e-10
9.00717522842e-10
4.16400411597e-10
6.48552577085e-10
1.00678610399e-09
1.28816624094e-10
1.18085767968e-09
3.86194785984e-10
4.87616688173e-10
6.83330198383e-12
3.37465485912e-10
8.62686378738e-10
2.36039110514e-11
1.71968559957e-10
8.04066068109e-12
1.50658415135e-10
2.7998816792e-11
6.9672853973e-10
2.03549458109e-10
1.72501973548e-11
4.32582850861e-10
2.73229566448e-10
1.18831233947e-10
6.80681012545e-10
2.57436974332e-10
1.04196740696e-09
1.32717127691e-10
6.87685385302e-10
2.55276496121e-09
8.54257500877e-10
6.01220320868e-10
8.40371073367e-10
3.94026533341e-11
3.6003226351e-10
1.47258810346e-10
7.473855116e-10
2.8284883386e-11
4.56532124916e-10
2.79867347357e-10
3.88452589295e-10
3.16796657863e-10
2.10301293716e-13
5.00590581672e-10
2.58149273113e-10
5.75495709052e-10
8.30478040493e-11
4.50439358408e-10
3.33862402888e-10
1.12259423236e-10
2.80392077436e-10
8.37259769785e-10
9.67544105258e-10
8.32334155082e-10
8.95783705353e-10
3.35547441876e-10
4.05704417408e-10
1.01387632543e-10
6.18432694112e-11
3.72001155552e-10
1.35492144767e-10
4.27931716545e-10
4.06941558155e-10
7.47941472261e-10
4.72971126628e-10
3.31082274164e-10
4.38727011654e-10
5.69298582269e-10
2.66164752443e-10
5.65878244849e-10
5.91465481184e-10
4.36903924688e-10
7.55833184437e-10
3.68683657466e-10
8.58778947471e-11
3.60603881496e-10
4.87427127019e-10
2.09216437741e-10
1.9122685568e-09
8.02194783074e-10
2.04826524916e-09
1.80163750683e-09
8.80676861243e-10
1.29964579388e-09
3.65910250832e-10
2.34567267499e-10
1.60023418953e-10
1.01364891069e-10
3.45646554592e-11
1.17492845235e-10
3.64029691166e-10
5.03999258314e-10
2.39906854853e-10
1.79051167105e-10
4.28916164653e-10
6.44066642864e-10
4.24482240262e-10
4.40789710105e-10
1.59874361989e-10
9.65069320049e-11
4.79277794077e-10
1.27670298167e-11
5.92412689192e-11
5.75486858786e-11
2.18645774544e-10
3.24395458591e-10
8.15953464681e-10
1.28982662711e-09
1.3109011215e-09
3.4618454949e-09
4.22331984904e-10
1.54104215593e-09
1.50632055315e-10
1.14091193479e-09
1.09088898502e-09
7.03034070562e-10
4.62067661612e-10
3.28888468911e-10
3.40975204589e-10
4.74779683991e-11
2.32013609243e-10
9.6444809821e-11
2.59581843153e-10
3.45419871266e-10
4.11945955081e-10
2.66100364816e-10
4.89580306244e-10
3.20101069592e-10
5.03737167638e-10
2.83987142702e-10
4.02263812962e-10
8.6682860181e-11
4.04069149551e-10
8.90301926146e-11
7.46636150942e-10
1.31668411004e-09
7.68060039966e-10
5.75444775554e-09
1.37191857029e-10
2.10423253937e-09
3.84503057319e-09
3.92430031805e-10
1.41439555104e-09
7.31609941373e-11
7.42301441653e-10
1.65583545068e-10
4.19260504715e-10
5.46515507549e-10
1.66262802139e-11
3.95805337853e-11
2.25640635001e-10
2.76427711597e-10
4.24049823464e-10
2.11418998923e-10
4.81332946848e-10
3.56917031796e-10
2.42446033431e-10
5.02135320407e-10
8.66151201345e-11
1.0615955446e-10
2.22210656037e-10
2.83816214458e-10
1.39872200693e-10
2.60347870456e-09
1.20003015043e-09
3.58132185296e-09
4.25117828669e-09
2.7873301398e-10
4.34951779618e-09
6.24929517864e-10
1.55938687683e-09
2.32172299663e-12
4.65921142818e-10
1.57443889491e-10
2.38886572011e-10
2.48969743681e-10
5.13720119233e-10
1.08701618258e-10
1.1435535449e-10
9.83498983695e-11
1.27681005505e-10
1.26597082008e-10
7.22452869305e-10
1.92041208552e-10
2.65396490627e-10
5.10068299346e-10
4.03132779554e-11
6.9414936554e-11
1.3541431143e-09
2.67082205832e-10
2.80456679652e-09
1.51010649405e-09
6.82493545658e-09
2.19256865119e-10
3.2203338395e-09
8.99216242348e-10
1.03537290007e-09
2.28209120387e-10
3.32254518927e-10
2.63258896243e-12
3.50247940995e-10
2.58726463131e-10
1.72729676693e-10
1.63406011206e-10
2.78286412784e-10
7.81324876771e-11
1.90611192249e-10
6.06841011969e-11
2.92404408715e-10
1.41103766913e-10
3.69509124112e-10
1.19023292169e-09
3.6806488841e-09
2.32777670413e-09
6.65798013614e-09
9.76601556685e-10
4.97693718695e-09
1.04569890274e-09
1.43815626858e-09
1.31954325277e-11
3.34258455924e-10
7.06007827018e-11
1.21461329453e-09
4.38075834173e-10
8.05280998813e-10
6.92781916923e-10
1.01910972958e-09
1.71681792629e-09
6.72108262525e-10
3.40719812915e-09
2.16191997739e-10
7.03958236931e-09
1.06419779085e-08
2.06668657796e-09
4.97803330199e-09
1.00148634835e-09
1.25210156953e-09
3.73291022868e-10
3.33495151497e-09
1.62833767722e-09
1.36881418331e-09
7.44461410826e-10
2.88581189343e-09
9.65220900559e-09
6.19444748862e-09
1.25746161944e-08
2.70542794132e-09
4.09936446084e-09
1.90663397027e-09
2.06313748855e-09
9.34887161874e-09
4.85270628179e-09
2.99666650685e-09
9.62051875453e-09
3.89913147449e-08
5.73635168524e-09
3.91793123342e-08
1.16372549029e-08
3.00971675152e-08
3.08436910175e-08
4.75714070895e-08
1.56585829863e-08
7.00647163517e-08
3.34883181095e-09
2.44041446646e-08
3.35980483396e-08
3.5428270225e-08
2.46813761415e-08
2.01172566048e-08
3.01966702394e-08
2.25732027336e-08
3.08460624631e-09
6.52490113443e-09
4.82755804243e-09
3.15834167171e-10
9.94046042051e-10
2.6603877539e-08
4.45533667188e-08
2.45401454745e-09
7.54388675115e-10
2.02150127668e-09
1.11210533059e-08
1.88662003708e-08
5.46964808945e-10
6.5378491601e-09
4.81601750552e-09
1.62807379343e-09
5.06186036603e-09
3.65891248818e-09
2.31117379076e-08
3.05514257972e-08
6.00546853163e-09
2.01152201535e-08
5.429318817e-09
3.01648030315e-08
1.84369202109e-09
2.97050743052e-08
1.77154228137e-09
2.33306185609e-08
2.79040604824e-09
3.25299035716e-08
1.52680571708e-07
1.66734408661e-07
5.12530692873e-08
1.72509247767e-07
2.74152564079e-08
1.88328145289e-07
3.72617181411e-07
2.81998273541e-07
1.59761375614e-07
1.58837328849e-07
5.61042966859e-08
2.61452440162e-08
1.2498266434e-08
4.15172029764e-08
4.77571075131e-09
6.84905331828e-08
1.6478971609e-08
9.46523000014e-08
6.1172844152e-08
8.47243259641e-08
7.12984085721e-08
4.11597626599e-08
5.32114845307e-08
2.98690065102e-08
3.05853024947e-08
1.18590668371e-08
1.34344939141e-08
1.6436088184e-09
1.41457059589e-08
3.35461038536e-10
2.0789787161e-08
6.90567332049e-09
2.46673226268e-08
1.39244701992e-08
2.52377473651e-08
1.67781085976e-08
1.64492612362e-08
5.21559340229e-09
1.20710516863e-08
1.42663800703e-08
1.00873237432e-08
6.19629100555e-09
5.75558993403e-09
1.14907199916e-09
6.48011007205e-09
1.82328120851e-10
2.92165189247e-10
1.91598637154e-09
3.31545640017e-09
7.35398172308e-10
5.92081172239e-09
1.13940599849e-09
2.75945333747e-09
2.95122135736e-09
2.10477305847e-09
2.78470442822e-09
7.44987048767e-09
5.50403433582e-09
1.28590963491e-08
3.29286890749e-09
8.29820952771e-09
3.9934748493e-09
3.85939433055e-09
8.98090665561e-09
6.69615667964e-09
1.33406121328e-08
1.3045974428e-08
9.28748393089e-09
6.18978444248e-09
6.89744153495e-09
1.83180938308e-08
6.1347852504e-10
3.33654098977e-08
1.40711646906e-08
2.53225235973e-09
3.78062251097e-08
8.94113577385e-09
2.98603151454e-08
4.36891894717e-09
2.57711262975e-08
3.9150662769e-09
2.52772768548e-08
1.96523643894e-08
2.75163324124e-08
1.44263862144e-07
1.46493071325e-07
2.32208508438e-07
4.82478834377e-07
1.35138695315e-07
1.25135028117e-06
1.67372239889e-06
4.05112575958e-07
4.01850274e-07
1.13390799823e-07
2.3315558334e-07
2.00952049703e-08
7.72145203697e-08
3.1890340572e-08
5.0263400107e-08
2.60684070863e-08
6.80153257377e-09
1.33460229111e-08
7.43231092829e-09
3.57531492565e-08
1.46147153873e-08
1.14116221518e-08
2.8151616906e-08
5.59470367699e-09
3.35699260902e-08
1.93538756146e-08
3.57370908304e-08
3.67571825652e-07
2.46105028337e-07
1.4767202432e-08
2.02877633766e-07
4.44173021017e-08
5.37769697107e-08
9.59951263188e-08
4.57494248165e-08
6.62485933358e-08
6.52823160059e-07
1.21126861981e-07
2.52810967696e-07
1.68083196672e-07
1.19319849239e-07
5.05631735831e-08
7.21295260727e-08
1.16666372767e-08
1.1142197593e-08
2.23757642533e-08
1.42905614307e-07
4.49621002158e-09
1.40218590318e-07
7.37602696225e-08
4.53492561639e-07
1.99780724653e-07
8.00275447273e-08
1.37518916962e-07
6.63834737855e-08
5.87410557144e-07
2.41714752007e-08
8.91175165672e-08
1.47624716285e-06
7.04964320773e-08
4.23189763132e-08
2.55149369476e-07
1.26541919765e-07
9.73886822073e-08
1.88331896044e-08
8.26442808235e-08
2.63468385561e-08
1.38440580585e-08
1.58890142526e-07
1.11721380684e-08
6.92359125735e-07
5.57311530974e-08
7.47145227507e-08
6.85110299856e-09
1.09317079934e-08
4.08325497865e-08
4.46737818573e-08
2.94311459393e-07

