# vtk DataFile Version 3.0
File Name: Molecule/methanol/methanol_5.0-6.vtk
ASCII
DATASET UNSTRUCTURED_GRID
FIELD FieldData 1
TIME 1 1 double
0.0
POINTS 288 double
1.3258430958 -0.5053243041 -0.89495825768
1.4547051191 -0.48553356528 -0.50065726042
1.1771478653 -0.87481272221 -0.71558868885
1.3441611528 -0.90917545557 -0.31445223093
1.0764737129 -1.1994905472 -0.38482159376
0.93440163136 -1.1589407921 -0.76449453831
0.63963347673 -1.4590928555 -0.38479703665
0.55587893724 -1.3600823879 -0.88178372383
0.11501625925 -1.5240440369 -0.78332698345
0.20444495976 -1.6768491268 -0.15620559454
-0.32054460049 -1.6598031521 -0.18935413659
-0.34923124313 -1.5330041647 -0.71011799574
-0.80452001095 -1.4999029636 -0.16774764657
-0.81313461065 -1.3834352493 -0.66384142637
-1.2051180601 -1.2262194157 -0.11960697174
-1.1636623144 -1.1091375351 -0.71843588352
-1.3880431652 -0.86600130796 -0.48649531603
-1.445787549 -0.95292341709 -0.059946637601
-1.619782567 -0.48239672184 -0.18332406878
-1.5677814484 -0.4628688097 -0.67861866951
-1.6572463512 0.0030368284788 -0.60772126913
-1.7303980589 0.00020117964596 -0.088552825153
-1.6151616573 0.4816968739 -0.21028500795
-1.5785790682 0.47974422574 -0.73573869467
-1.3872424364 0.85863161087 -0.50440835953
-1.4423817396 0.94545632601 -0.095306798816
-1.1754256487 1.1867254972 -0.23888710141
-1.1612237692 1.1029472351 -0.73413544893
-0.79727488756 1.3873559237 -0.68743282557
-0.80925625563 1.4961371422 -0.17019575834
-0.32745841146 1.6056877375 -0.29752877355
-0.35206240416 1.5083221197 -0.78683412075
0.12133347243 1.5207049847 -0.67677587271
0.18819607794 1.6672632694 -0.20500648022
0.66714006662 1.5046468973 -0.29835915565
0.56346195936 1.384822011 -0.81457161903
0.93428111076 1.1364161968 -0.73779964447
1.0843486786 1.2344307899 -0.28683570027
1.3467584848 0.93100106716 -0.27656924725
1.1829812527 0.86459708214 -0.71370637417
1.4475144148 0.52394109964 -0.48066818714
1.9070008993 2.0508992748e-05 0.65575551987
1.8429111242 0.48695066571 0.65572702885
1.8428530693 0.24375467002 1.0764354467
1.8428592682 -0.24285928905 1.076946497
1.842843771 -0.48660194874 0.65632468462
1.8431290388 -0.24321132898 0.23388712108
1.8430352211 0.24299944937 0.23282785714
1.6737183332 0.78354996443 1.1125965118
1.6583402157 0.4638082087 1.4668638706
1.6744115353 -0.0092023722827 1.5620429516
1.6610387564 -0.45893612504 1.4661191702
1.6705594063 -0.78979057074 1.1150273085
1.6607227325 -0.93162482977 0.65659791231
1.6699751616 -0.79382544756 0.20195260644
1.665522933 -0.47046643496 -0.13680590689
1.6632227898 0.46405601501 -0.15020391345
1.6718099117 0.78541791439 0.19514153898
1.6586202383 0.93472617865 0.6553170681
1.4066687822 1.1876122952 1.1258454323
1.4073270559 0.93847739697 1.5203789473
1.3901453018 0.59775853157 1.8076635599
1.4025713205 0.12357080728 1.9325460196
1.4097430706 -0.36473062634 1.877609849
1.3998707533 -0.78823167086 1.6711536646
1.3899053335 -1.1014543772 1.340141654
1.4080753326 -1.2506607771 0.90919059515
1.404161334 -1.2606720924 0.42520684004
1.3853604794 -1.1140681505 -0.010743015446
1.4034224749 1.1869362593 0.17388619483
1.3919918537 1.2957530022 0.65473610163
1.1239882708 1.4530118704 1.131588459
1.1257125139 1.242400527 1.5462498665
1.1284182072 0.97613894939 1.8277930021
1.1195868254 0.58004820347 2.0733239651
1.1098591089 0.13337104023 2.1864438057
1.1244491339 -0.3350006938 2.1468617916
1.1238507032 -0.79692834616 1.9602200985
1.124065876 -1.1598448753 1.6499370337
1.1203138828 -1.3756847382 1.324539423
1.1186629534 -1.5165579319 0.87707710266
1.1063045263 -1.5209122896 0.41076818109
1.1133869886 -1.3773443699 -0.0088874092326
1.1234019995 1.4516764879 0.17190644145
1.1076338291 1.5366170406 0.65445894003
0.72279167175 1.6841651201 1.1366324425
0.72395956516 1.4875611067 1.5790543556
0.71783030033 1.1979856491 1.9347645044
0.74892568588 0.89515084028 2.1468968391
0.71909093857 0.47381815314 2.3429327011
0.72441744804 -0.014690697193 2.406191349
0.71738123894 -0.48950472474 2.3391830921
0.69346600771 -0.90275126696 2.169208765
0.72445708513 -1.1981825829 1.932357192
0.72045266628 -1.4928679466 1.573620677
0.72248727083 -1.685136795 1.1350176334
0.721601367 -1.751544714 0.65400886536
0.70990824699 -1.6842924356 0.14494216442
0.72008663416 1.6856806278 0.17611421645
0.69619858265 1.7590870857 0.65645378828
0.27823939919 1.8104584217 1.1161419153
0.26333403587 1.6364465952 1.5584993362
0.26397305727 1.3510825634 1.948086381
0.2682453692 0.96597629786 2.2565946579
0.2474386394 0.53317415714 2.4498980045
0.26116240025 0.079665198922 2.5230238438
0.25676676631 -0.30191910267 2.5034677982
0.28606954217 -0.74361974001 2.3702626228
0.26581558585 -1.1425946951 2.1368420124
0.26758882403 -1.4810186625 1.7962050438
0.26865139604 -1.7247684002 1.3788827658
0.2693118453 -1.8527542353 0.91181343794
0.2677244246 -1.8557937145 0.41584223509
0.27390649915 1.811558485 0.20874078572
0.23412917554 1.8728408813 0.65836876631
-0.2125543505 1.8119642735 1.1279108524
-0.22376962006 1.6269927025 1.5802861452
-0.22490957379 1.3350681067 1.9665915966
-0.22872598469 0.94995135069 2.2663617134
-0.20809948444 0.50319439173 2.4602615833
-0.21644373238 0.06755656749 2.5258829594
-0.23909002542 -0.2991566956 2.5007171631
-0.21639557183 -0.74686133862 2.3730456829
-0.22600002587 -1.1660388708 2.11956954
-0.22818224132 -1.4987044334 1.7746872902
-0.22899919748 -1.7359741926 1.3537735939
-0.23029778898 -1.8568768501 0.88178318739
-0.23926794529 -1.8485119343 0.35627391934
-0.21395148337 1.8109205961 0.1795129478
-0.2230219841 1.8718018532 0.65578818321
-0.66489434242 1.7563676834 0.6560536027
-0.68470150232 1.684150815 1.1369054317
-0.68834465742 1.4859923124 1.5795782804
-0.67882585526 1.197721839 1.9368709326
-0.71442359686 0.89087706804 2.1463918686
-0.68187451363 0.47372838855 2.3424081802
-0.68764960766 -0.016482327133 2.4055945873
-0.68109285831 -0.48899617791 2.3381924629
-0.65875959396 -0.90504729748 2.1648900509
-0.69072133303 -1.197887063 1.9287559986
-0.6841276288 -1.4926922321 1.5720579624
-0.68652498722 -1.6844185591 1.1343261003
-0.68722867966 -1.7500677109 0.65393835306
-0.67014056444 -1.6934390068 0.19778686762
-0.68571680784 1.6853628159 0.18333885074
-1.0669224262 1.5384708643 0.65543031693
-1.0830831528 1.4554924965 1.1301549673
-1.0853645802 1.2447763681 1.5462398529
-1.0886259079 0.97528713942 1.8298215866
-1.0807627439 0.57930678129 2.0740017891
-1.0687859058 0.13374850154 2.1883735657
-1.0823066235 -0.33385625482 2.1500561237
-1.0816299915 -0.79810583591 1.9628919363
-1.0853710175 -1.160392642 1.6503094435
-1.0813887119 -1.3758546114 1.3247890472
-1.0785616636 -1.5179696083 0.87562072277
-1.0743989944 -1.5142364502 0.37754958868
-1.089645505 1.4528057575 0.18960435688
-1.3502631187 1.2994686365 0.65769654512
-1.3661392927 1.1906046867 1.1263763905
-1.3669502735 0.94093865156 1.5219115019
-1.3501361609 0.59672284126 1.8105988503
-1.3604184389 0.12369219214 1.9372878075
-1.3693789244 -0.36421239376 1.8806862831
-1.3605259657 -0.78806900978 1.6733244658
-1.3491457701 -1.1041207314 1.3416775465
-1.3675971031 -1.2524603605 0.91045379639
-1.3699548244 -1.2545902729 0.4126522243
-1.3690387011 1.1917837858 0.2071519047
-1.6209141016 0.93419367075 0.65723019838
-1.6373693943 0.78086388111 1.1110047102
-1.6211122274 0.4628342092 1.4659584761
-1.6376473904 -0.009609262459 1.5597709417
-1.624522686 -0.45847448707 1.4633510113
-1.6331613064 -0.78874593973 1.1145353317
-1.6244002581 -0.92880868912 0.6583147645
-1.6435728073 -0.77418446541 0.24321477115
-1.6423020363 0.77133399248 0.21921822429
-1.8047707081 0.48725494742 0.6572573185
-1.8045920134 0.24365270138 1.0773884058
-1.8046678305 -0.24313405156 1.0774322748
-1.8048752546 -0.48677161336 0.65840363503
-1.8059968948 -0.25088125467 0.24699918926
-1.8056733608 0.25149148703 0.24450846016
-1.8679468632 0.00012413677177 0.65731817484
1.6838526726 -0.0129681658 -0.20907795429
1.531816721 0.19645959139 -0.4649374783
0.74610996246 -1.0021054745 -1.5083438158
0.73689121008 -1.1704223156 -1.2241060734
0.35625040531 -1.2939411402 -1.4132345915
0.35211309791 -0.98766607046 -1.8133949041
0.35731005669 -0.5809341073 -2.0750405788
0.74623596668 -0.7603199482 -1.7482222319
0.78424990177 -0.47524321079 -1.8838080168
0.74736964703 -0.17153473198 -1.9883680344
0.63573408127 0.1057632193 -2.0686929226
0.34030741453 -0.11623615772 -2.1974406242
0.34844091535 0.35931459069 -2.1538455486
0.73798537254 0.52496695518 -1.8936355114
0.33830142021 0.75271433592 -1.9901697636
-0.13108833134 -1.422311306 -1.3183284998
-0.12055116892 -1.1508694887 -1.7516300678
-0.11902591586 -0.77637952566 -2.0616288185
-0.12056864798 -0.32614463568 -2.2372331619
-0.12054993957 0.15510028601 -2.2643425465
-0.12236806005 0.60300403833 -2.147133112
-0.11987345666 0.92158126831 -1.9616172314
0.36169585586 0.94775265455 -1.8434067965
0.3115927577 1.1624486446 -1.6372019053
0.3463024497 1.3831754923 -1.2112829685
-0.12211495638 1.2515566349 -1.6241602898
-0.11834082752 1.4740800858 -1.1779180765
-0.59645527601 -1.4179844856 -1.0303958654
-0.59503817558 -1.2736594677 -1.4471042156
-0.59139281511 -0.97935837507 -1.8199344873
-0.57600873709 -0.5804964304 -2.0817353725
-0.59209173918 -0.12430565059 -2.1919732094
-0.59543526173 0.35462138057 -2.1521987915
-0.59890151024 0.79394924641 -1.9595906734
-0.5984992981 1.1479409933 -1.6363729239
-0.58437985182 1.3861832619 -1.2064967155
-1.0160025358 -1.1648118496 -1.1859579086
-1.0279723406 -0.88484811783 -1.6009165049
-1.0214655399 -0.4750058949 -1.8852491379
-1.0114861727 0.0062251836061 -1.9861608744
-1.0215879679 0.47158011794 -1.8863062859
-1.0268986225 0.87155997753 -1.6160101891
-1.0166251659 1.1530241966 -1.2079720497
-1.3722054958 -0.81272757053 -1.1054338217
-1.3556275368 -0.50188070536 -1.4963051081
-1.3641183376 -0.038702949882 -1.6360884905
-1.3562393188 0.44083282351 -1.5331147909
-1.3707299232 0.78478807211 -1.1672790051
-1.5807050467 -0.24598020315 -1.1425107718
-1.5779420137 0.23957504332 -1.1520903111
[...]
CELL_DATA 572
SCALARS cell_data_0 double
LOOKUP_TABLE default
2.72916699591e-07
3.5278170188e-08
1.5971520975e-08
3.79516569826e-08
2.87604291771e-09
2.6224175569e-08
7.09222092463e-08
7.20000640454e-08
3.9747461781e-08
6.38622196811e-08
1.32669742428e-08
6.65201430396e-08
1.65398253465e-08
9.1671005166e-08
2.56540833962e-08
1.80297333164e-08
1.30525809308e-08
5.2754973049e-08
3.39654020771e-08
7.200620952e-09
3.82167928848e-09
3.84542136956e-08
1.52387722074e-08
1.50052504082e-08
5.61878201872e-09
3.029444361e-08
8.4794961782e-09
2.09255239937e-08
4.20181046249e-08
1.68551676388e-08
1.14198711127e-08
4.99769526243e-08
8.38047717788e-08
5.86816896783e-08
3.1390394511e-08
1.8381846446e-08
1.89457633068e-08
7.28666826174e-09
3.37933536231e-08
1.85707805203e-10
9.4799638191e-11
2.56321189075e-10
1.90674970928e-10
2.02168355246e-10
9.85946859597e-11
6.21801451004e-10
4.237340805e-10
3.88148195853e-10
7.10092156824e-10
1.31121921817e-10
4.64498810897e-10
9.38949201241e-10
1.11721594467e-10
8.32893493584e-10
9.3373855045e-11
9.74734668105e-10
9.2797401156e-10
1.03041212198e-09
6.98814095188e-10
5.88415633863e-11
4.68005612902e-11
1.3629204062e-10
1.26041777841e-10
4.06945636349e-10
8.55810759698e-10
5.07709922103e-10
9.36880916496e-12
2.57616171669e-10
2.79524583971e-11
3.83576490641e-10
6.7940685836e-10
3.30838790121e-10
7.57494923468e-10
2.1196721968e-10
1.17078641979e-09
1.39618638545e-09
2.55271482597e-10
6.91544688519e-10
6.73359667944e-10
5.43763811567e-11
4.5050423885e-10
7.5074937617e-11
3.50750569311e-10
2.92662689413e-10
3.50633444213e-10
2.14140961513e-10
3.12201819392e-10
2.48964154121e-10
2.01880897449e-10
3.05597678048e-10
1.73367160344e-10
4.62784428566e-10
1.4390174642e-10
3.07445237497e-10
2.58456625868e-10
1.4129685824e-10
3.71061559747e-10
9.76204132373e-10
1.10131093342e-09
1.33777675023e-09
1.02296723909e-09
1.91268511274e-10
6.68343465671e-10
1.6499652985e-11
7.59025091628e-11
2.14600188057e-10
1.10782719112e-10
4.79302293797e-10
2.78728011006e-10
6.67485663956e-10
6.79555635581e-10
1.5416117992e-10
3.79579865312e-10
3.22662236664e-10
6.74139625357e-10
6.20141918295e-10
5.29291819835e-10
3.68795213299e-10
6.67930287306e-10
1.66848523878e-10
9.99054029811e-11
3.25685266782e-10
4.9780887639e-10
3.50060307664e-10
1.98548822347e-09
1.06949921308e-09
1.43422117415e-09
1.3336707524e-09
7.14524172882e-10
1.18147990255e-09
4.08811781209e-10
4.59035609585e-10
1.2410948013e-11
2.11043547403e-10
1.70340953471e-11
9.60815474893e-11
1.98918987395e-10
6.51001733249e-10
7.24098912253e-11
2.35803549413e-10
4.80689232228e-10
8.01192654984e-10
4.38402289542e-10
4.14369909791e-10
2.19089137339e-10
1.97615338371e-10
4.07457180642e-10
5.35104164042e-11
7.73875119397e-11
8.8875036092e-11
1.31363338467e-10
2.12481230174e-10
6.41089171372e-10
1.61530351007e-09
1.41769735118e-09
3.69996537421e-09
5.11707631964e-10
1.30270018015e-09
2.62760456465e-11
1.04257915209e-09
1.02211238585e-09
7.11689085116e-10
5.20865509219e-10
4.2561736312e-10
1.50247066455e-10
1.88378234786e-11
8.25715583252e-11
6.94465441891e-11
2.5360997386e-10
2.78290896388e-10
1.61390373084e-10
2.07528593825e-10
3.24041971284e-10
3.7857562614e-10
2.20294090005e-10
9.42921217424e-11
2.56472882746e-10
2.72209395447e-11
4.36524237691e-10
1.53015883407e-10
9.49767387635e-10
1.79319109314e-09
1.05289787207e-09
6.18821996322e-09
2.4156550946e-10
2.19595840537e-09
4.00602687604e-09
4.34961345819e-10
1.23943771002e-09
1.1374541706e-10
7.43201610485e-10
2.19020535224e-10
4.89229046735e-10
5.1820524762e-10
1.04934979471e-10
1.12097027409e-10
3.85656067065e-10
3.39254760274e-10
3.73623828902e-10
8.65426561247e-11
2.11916824505e-10
6.43526035595e-10
2.02916950223e-10
2.96230415571e-10
1.35238560451e-10
2.2908402992e-10
2.34866733482e-10
3.52908353984e-10
1.34627861831e-10
2.50584743781e-09
7.23697142966e-10
3.73922761151e-09
4.02297205181e-09
6.05073480925e-11
4.54152160847e-09
6.99815114357e-10
1.41846330131e-09
7.38091158177e-11
4.23388268692e-10
1.23376369941e-10
1.69093828264e-10
1.23812931441e-10
6.02278085477e-10
2.13362459405e-10
1.93442736609e-10
9.85660388223e-11
3.61780249134e-11
2.0540877462e-11
5.41233030847e-10
1.8991046856e-10
2.37720578003e-10
2.87722186572e-10
8.44815281985e-11
1.75795374737e-11
1.26379454487e-09
2.9561713953e-10
3.43385058918e-09
4.31430340625e-10
5.20565795874e-09
3.45988812849e-11
3.73433766229e-09
8.58048833245e-10
9.55180609409e-10
2.12798354574e-10
4.27154506247e-10
4.45584586123e-11
3.24319889057e-10
1.50288004542e-10
1.1810579647e-10
3.12890568273e-11
2.82187037754e-10
6.50415136647e-11
1.90292167901e-10
9.30148187717e-11
2.01129913908e-10
2.47792354346e-10
2.49242213962e-10
1.076254922e-09
2.93905172101e-09
4.70459095206e-09
7.41415595091e-09
1.22514568452e-09
4.84601395091e-09
9.54541299988e-10
1.30954518471e-09
1.56505088615e-10
3.40712312887e-10
1.27562701412e-10
1.22832820333e-09
5.41927154302e-10
7.85707394082e-10
6.09209860226e-10
9.08445591804e-10
1.62791199333e-09
5.36496246853e-10
3.19353040199e-09
1.15346018834e-09
5.6690634578e-09
1.03401969458e-08
1.71618651394e-09
5.08324004646e-09
1.23517177428e-09
1.31347387521e-09
4.76587755115e-10
2.83648901571e-09
1.30438469324e-09
1.17898672742e-09
1.11669035263e-09
2.9605292745e-09
7.8003434584e-09
4.9223108999e-09
1.18608506555e-08
2.75593588521e-09
4.73833091405e-09
2.05062880609e-09
2.26675653748e-09
8.60208423299e-09
5.6227258686e-09
2.77330194231e-09
3.01349159301e-08
5.56065832607e-08
5.92355457409e-09
5.08218474712e-08
3.06197185317e-08
3.27882830761e-08
2.61370529821e-08
4.14464747468e-08
1.68928936943e-08
6.59247669916e-08
6.47609543835e-09
2.61325306733e-08
3.0478967379e-08
2.80856200635e-08
2.19784722254e-08
1.64211536515e-08
4.2383019586e-08
3.70150688708e-08
1.59161363978e-09
7.4400053646e-09
5.10122083523e-09
8.47553958406e-10
4.17218260684e-09
1.88054990955e-08
1.3459794686e-08
1.67561002373e-09
8.16979147437e-10
9.26557770842e-11
2.26350157208e-09
1.62478459675e-08
4.1751034862e-09
3.99926012903e-09
6.1789997748e-09
2.49397757974e-09
4.85949542014e-09
4.3873612113e-09
1.83378751072e-08
2.53066864014e-08
4.71930126859e-09
1.32751590066e-08
2.97507138156e-09
4.37603799379e-08
2.8406106836e-09
3.73211841358e-08
7.38590676297e-09
2.69199222919e-08
3.00150967552e-09
3.49401176869e-08
1.06554475042e-08
9.33578481576e-08
1.30156580089e-08
2.04628847578e-07
1.03270450496e-07
2.15099949074e-07
2.88967176681e-08
1.35863714594e-08
4.73452399465e-08
3.80614346237e-09
7.66941308829e-08
2.68125560273e-08
9.18542945192e-08
5.66875373814e-08
8.54522551635e-08
6.52149488883e-08
4.21340363833e-08
7.39196612455e-09
2.97279973504e-08
1.47699586738e-08
1.27852722501e-08
1.19645187071e-09
1.244239656e-08
1.41658655679e-09
1.93760722029e-08
4.76271199828e-09
2.36105128679e-08
1.31932386083e-08
2.38852579026e-08
1.5530874316e-08
1.57442230364e-08
6.22244859974e-09
1.09058093252e-08
1.18523099465e-08
8.87587943663e-09
5.48780005185e-09
6.38586587971e-09
9.03225272696e-10
5.03828779043e-09
2.02218395369e-10
5.85316642884e-10
3.71734602259e-09
3.53073598476e-09
5.83754056317e-10
6.35113467685e-09
1.23966569167e-10
2.77697403785e-09
2.3370635892e-09
2.54252724158e-09
4.74445703544e-10
4.79932881551e-09
5.59920449292e-09
1.42613961389e-08
2.19481364435e-09
7.280348375e-09
4.17537108062e-09
4.08598940911e-09
1.03764953903e-08
6.43417537188e-09
1.03172690603e-08
1.01443258111e-08
7.55220997902e-09
6.71877342295e-09
8.83638762209e-09
5.89584972737e-09
1.06821425744e-08
1.20386886489e-08
2.52990314806e-08
9.06083380721e-09
2.62100217256e-08
8.52206412602e-09
1.91825728751e-08
8.7099555959e-09
2.02179204481e-08
1.38964392168e-08
3.41886351075e-08
1.19762747365e-08
6.15368600741e-09
1.436370921e-07
1.79346563023e-07
2.75686691048e-07
5.1779322483e-08
2.71765159092e-08
4.95305550663e-08
2.24015893804e-08
6.03772609865e-09
1.47042222276e-08
6.76873318593e-09
3.44861357826e-08
1.89060419871e-08
2.24556224365e-08
2.53261558089e-08
2.64481762223e-09
1.89165625899e-08
1.35431457825e-08
1.51258763801e-08
7.65540547491e-08
4.16674046433e-08
4.76474123001e-08
4.49312036014e-08
1.05621588578e-07
3.68023496888e-08
1.31801644814e-08
1.66724648616e-07
2.19866968036e-07
2.02254767093e-07
6.17843321288e-08
8.51775722986e-08
1.16290332114e-07
3.02246188232e-08
1.28312149136e-08
2.72131551688e-08
7.67447547325e-08
4.57940083496e-08
6.57274595548e-09
3.8132699329e-08
6.75229534811e-08
2.21481157946e-10
1.94362781698e-07
9.25715104902e-08
3.11101947518e-08
7.53768883199e-08
3.58293128864e-08
2.29572361423e-08
6.7319133169e-08
1.90159827459e-08
4.50669268561e-08
7.14276890205e-09
4.52400972055e-08
1.47094798894e-08
1.21753229166e-08
4.12210976029e-08
4.92852809752e-08
4.2903814362e-08
7.6703321398e-08
1.3696508515e-07
1.38581970604e-07
7.7799934207e-08
9.76642031547e-08
1.09466584892e-07
6.02511349789e-08
9.5368852721e-08
5.56540699253e-08
4.15814713107e-08
2.09530859709e-09
2.95230312613e-08
6.13938687775e-09
1.19572863431e-08
1.61554613097e-08
5.06778149755e-08
9.89486440236e-09
1.51722344315e-08
7.72446328346e-08
5.98146987444e-08
3.52435958012e-08
6.38969522103e-09
3.30509929483e-09
1.11043396105e-08
1.05022888928e-07
2.68077374892e-08
3.36316392244e-09
3.9864101588e-09
3.52421535531e-08
1.95512306789e-08
2.5507903357e-08
2.95003072427e-09
1.74571533179e-08
3.11338595968e-08
7.79878233666e-09
2.07597567546e-09
2.31116174528e-08
3.34258719526e-08
1.06853832291e-07
3.49474029626e-08
6.63839815415e-08
4.82069663645e-09
8.50441621727e-10
5.41478418691e-09
8.45129236638e-09
2.76019619629e-08
4.65574229451e-08
1.82678892536e-07
7.20287089255e-08
1.3788352834e-09
2.10648886968e-09
4.36180112837e-09
3.88997507913e-09
4.24918251411e-09
4.12157497378e-09
2.37875631954e-08
1.35671347253e-08
2.76966131333e-08
9.42558470531e-09
6.95795315196e-09
1.53634786451e-08
6.96158195063e-09
1.01970822544e-08
4.56241456882e-09
1.91412878652e-08
2.73725202742e-08
2.39069203049e-08
7.0603658458e-08
5.45612292695e-10
5.45358566197e-09
5.22239428362e-09
3.60584648259e-08
1.41548261198e-09
1.35280949948e-08
2.15360634504e-08
4.92816654257e-09
2.07515941794e-08
6.0154091353e-08
4.45927057643e-08
5.65037429221e-08
1.11863060981e-07
2.57471706212e-08
2.39600506612e-09
1.24653494508e-08
3.54394902911e-08
5.00464184506e-08
3.52097887093e-09
1.33019607239e-07
1.38897928282e-07
1.04409649926e-07
3.07597435624e-09

