# vtk DataFile Version 3.0
File Name: Molecule/sphere_dip_C5/sphere_dip_C5_0-s4.vtk
ASCII
DATASET UNSTRUCTURED_GRID
FIELD FieldData 1
TIME 1 1 double
0.0
POINTS 552 double
0.702046444776 0.69378047756 0.16062203564
0.525731112119 0.850650808352 0.0
0.5 0.809016994375 0.309016994375
0.26286555606 0.951056516295 -0.162459848116
0.26286555606 0.951056516295 0.162459848116
0.259891913008 0.862668480416 0.433888564553
-0.688190960236 0.587785252292 0.425325404176
-0.587785252292 0.425325404176 0.688190960236
-0.425325404176 0.688190960236 0.587785252292
1.0 0.0 0.0
0.961938357784 -0.273266528913 0.0
0.809016994375 -0.309016994375 -0.5
0.850650808352 0.0 -0.525731112119
0.69378047756 -0.16062203564 -0.702046444776
0.69378047756 0.16062203564 -0.702046444776
0.688190960236 -0.587785252292 0.425325404176
0.702046444776 -0.69378047756 0.16062203564
0.862668480416 -0.433888564553 0.259891913008
0.850650808352 -0.525731112119 0.0
0.951056516295 -0.162459848116 0.26286555606
-0.525731112119 0.0 -0.850650808352
-0.69378047756 -0.16062203564 -0.702046444776
-0.809016994375 0.309016994375 -0.5
-0.850650808352 -0.525731112119 0.0
-0.961938357784 -0.273266528913 0.0
-0.809016994375 -0.309016994375 -0.5
-0.309016994375 0.5 -0.809016994375
-0.433888564553 0.259891913008 -0.862668480416
-0.702046444776 -0.69378047756 -0.16062203564
-0.702046444776 -0.69378047756 0.16062203564
-0.525731112119 -0.850650808352 0.0
-0.5 -0.809016994375 -0.309016994375
-0.5 -0.809016994375 0.309016994375
-0.26286555606 -0.951056516295 -0.162459848116
-0.26286555606 -0.951056516295 0.162459848116
0.0 -1.0 0.0
-0.951056516295 -0.162459848116 0.26286555606
-0.862668480416 -0.433888564553 0.259891913008
-1.0 0.0 0.0
-0.587785252292 -0.425325404176 -0.688190960236
-0.162459848116 0.26286555606 -0.951056516295
0.0 0.525731112119 -0.850650808352
0.162459848116 0.26286555606 -0.951056516295
0.309016994375 0.5 -0.809016994375
0.453990499739 0.468429850867 -0.757935420048
0.37174803446 0.601500955008 -0.707106781186
0.237086325351 0.606825149272 -0.758652300163
0.296004592578 0.702309846744 -0.647411893882
0.16062203564 0.702046444776 -0.69378047756
0.0810862934433 0.78384304242 -0.615642020874
0.259891913008 0.862668480416 -0.433888564553
-0.5 0.809016994375 0.309016994375
-0.519258489728 0.840177885327 0.15643446504
-0.606825149272 0.758652300163 0.237086325351
-0.620239582613 0.78020437071 0.08114185162
-0.309016994375 0.5 0.809016994375
-0.237086325351 0.606825149272 0.758652300163
-0.16062203564 0.702046444776 0.69378047756
-0.601500955008 0.707106781186 0.37174803446
-0.453990499739 0.468429850867 0.757935420048
-0.702309846744 0.647411893882 0.296004592578
-0.375038567478 0.383613732685 0.843911474622
-0.516121620051 0.346153014789 0.783451698363
-0.433888564553 0.259891913008 0.862668480416
-0.15643446504 0.519258489728 0.840177885327
-0.08114185162 0.620239582613 0.78020437071
0.0 0.525731112119 0.850650808352
-0.238676930319 0.386187385588 0.891006524188
-0.0823235800317 0.399607051702 0.912982492932
-0.162459848116 0.26286555606 0.951056516295
0.0823235800317 0.399607051702 0.912982492932
0.15643446504 0.519258489728 0.840177885327
0.238676930319 0.386187385588 0.891006524188
0.309016994375 0.5 0.809016994375
-0.301258879093 0.264082750659 0.916244175191
0.375038567478 0.383613732685 0.843911474622
0.301258879093 0.264082750659 0.916244175191
0.162459848116 0.26286555606 0.951056516295
0.433888564553 0.259891913008 0.862668480416
0.220117027473 0.132792476828 0.966392597402
0.358228793487 0.131655371352 0.924304600611
0.484441642061 0.131200378813 0.864929335863
0.403355348617 0.0 0.915043421233
0.273266528913 0.0 0.961938357784
-0.433888564553 -0.259891913008 0.862668480416
-0.375038567478 -0.383613732685 0.843911474622
-0.301258879093 -0.264082750659 0.916244175191
-0.238676930319 -0.386187385588 0.891006524188
-0.309016994375 -0.5 0.809016994375
-0.162459848116 -0.26286555606 0.951056516295
-0.15643446504 -0.519258489728 0.840177885327
-0.0823235800317 -0.399607051702 0.912982492932
0.0 -0.525731112119 0.850650808352
0.0823235800317 -0.399607051702 0.912982492932
0.0 -0.266404701135 0.963861263467
0.162459848116 -0.26286555606 0.951056516295
0.15643446504 -0.519258489728 0.840177885327
0.238676930319 -0.386187385588 0.891006524188
0.309016994375 -0.5 0.809016994375
0.0 -0.707106781187 0.707106781187
0.16062203564 -0.702046444776 0.69378047756
-0.16062203564 -0.702046444776 0.69378047756
0.301258879093 -0.264082750659 0.916244175191
0.220117027473 -0.132792476828 0.966392597402
0.433888564553 -0.259891913008 0.862668480416
0.358228793487 -0.131655371352 0.924304600611
0.375038567478 -0.383613732685 0.843911474622
0.484441642061 -0.131200378813 0.864929335863
0.643954748142 -0.294754166588 0.70600443598
0.587785252292 -0.425325404176 0.688190960236
0.688190960236 0.587785252292 0.425325404176
0.468429850867 0.757935420048 0.453990499739
0.641591214532 0.518332565981 0.56541318032
0.425325404176 0.688190960236 0.587785252292
0.809016994375 0.309016994375 0.5
0.37174803446 0.601500955008 0.707106781186
0.587785252292 0.425325404176 0.688190960236
0.296004592578 0.702309846744 0.647411893882
0.237086325351 0.606825149272 0.758652300163
0.643954748142 0.294754166588 0.70600443598
-0.294754166588 0.70600443598 -0.643954748142
-0.16062203564 0.702046444776 -0.69378047756
-0.131200378813 0.864929335863 -0.484441642061
0.0 0.850650808352 -0.525731112119
-0.0768840702267 0.622785464303 -0.778605872826
-0.951056516295 -0.162459848116 -0.26286555606
-0.850650808352 0.0 -0.525731112119
-0.951056516295 0.162459848116 -0.26286555606
-0.309016994375 -0.5 -0.809016994375
-0.16062203564 -0.702046444776 -0.69378047756
-0.425325404176 -0.688190960236 -0.587785252292
-0.259891913008 -0.862668480416 -0.433888564553
0.0 -0.850650808352 -0.525731112119
0.259891913008 -0.862668480416 -0.433888564553
0.0 -0.961938357784 -0.273266528913
0.26286555606 -0.951056516295 -0.162459848116
0.5 -0.809016994375 -0.309016994375
0.862668480416 -0.433888564553 -0.259891913008
0.688190960236 -0.587785252292 -0.425325404176
0.702046444776 -0.69378047756 -0.16062203564
0.309016994375 -0.5 -0.809016994375
0.425325404176 -0.688190960236 -0.587785252292
0.16062203564 -0.702046444776 -0.69378047756
0.809016994375 0.309016994375 -0.5
0.843911474622 0.375038567478 -0.383613732685
0.951056516295 0.162459848116 -0.26286555606
0.965056599484 0.224799542734 -0.134651124684
0.862668480416 0.433888564553 -0.259891913008
0.961938357784 0.273266528913 0.0
0.864929335863 0.484441642061 -0.131200378813
0.850650808352 0.525731112119 0.0
0.78384304242 0.615642020874 -0.0810862934433
0.792649229259 0.571251659136 -0.213022865649
0.702046444776 0.69378047756 -0.16062203564
0.783451698363 0.516121620051 -0.346153014789
0.702309846744 0.647411893882 -0.296004592578
0.688190960236 0.587785252292 -0.425325404176
0.757935420048 0.453990499739 -0.468429850867
0.606825149272 0.758652300163 -0.237086325351
0.601500955008 0.707106781186 -0.37174803446
0.5 0.809016994375 -0.309016994375
0.564254211766 0.646577791798 -0.51337544123
0.468429850867 0.757935420048 -0.453990499739
0.425325404176 0.688190960236 -0.587785252292
0.383613732685 0.843911474622 -0.375038567478
0.346153014789 0.783451698363 -0.516121620051
0.78384304242 0.615642020874 0.0810862934433
0.711281734962 0.702907030488 0.0
0.386187385588 0.891006524188 -0.238676930319
0.133071104141 0.987688340595 -0.0822424652791
0.0 1.0 0.0
0.264082750659 0.916244175191 -0.301258879093
0.131655371352 0.924304600611 -0.358228793487
0.132792476828 0.966392597402 -0.220117027473
0.0 0.961938357784 -0.273266528913
0.131200378813 0.864929335863 -0.484441642061
0.0 0.915043421233 -0.403355348617
0.0 0.990438881957 -0.137952242128
0.0 0.961938357784 0.273266528913
0.131655371352 0.924304600611 0.358228793487
0.0 0.990438881957 0.137952242128
0.131200378813 0.864929335863 0.484441642061
0.0 0.915043421233 0.403355348617
0.0 0.850650808352 0.525731112119
-0.131200378813 0.864929335863 0.484441642061
-0.131655371352 0.924304600611 0.358228793487
-0.259891913008 0.862668480416 0.433888564553
-0.132792476828 0.966392597402 0.220117027473
-0.264082750659 0.916244175191 0.301258879093
-0.26286555606 0.951056516295 0.162459848116
-0.133071104141 0.987688340595 0.0822424652791
-0.383613732685 0.843911474622 0.375038567478
-0.386187385588 0.891006524188 0.238676930319
-0.133071104141 0.987688340595 -0.0822424652791
-0.266404701135 0.963861263467 0.0
-0.26286555606 0.951056516295 -0.162459848116
-0.399607051702 0.912982492932 -0.0823235800317
-0.399607051702 0.912982492932 0.0823235800317
-0.525731112119 0.850650808352 0.0
-0.386187385588 0.891006524188 -0.238676930319
-0.519258489728 0.840177885327 -0.15643446504
-0.5 0.809016994375 -0.309016994375
-0.132792476828 0.966392597402 -0.220117027473
-0.131655371352 0.924304600611 -0.358228793487
-0.264082750659 0.916244175191 -0.301258879093
-0.259891913008 0.862668480416 -0.433888564553
-0.383613732685 0.843911474622 -0.375038567478
-0.0810862934433 0.78384304242 0.615642020874
-0.213022865649 0.792649229259 0.571251659136
-0.707106781186 0.37174803446 0.601500955008
-0.647411893882 0.296004592578 0.702309846744
-0.758652300163 0.237086325351 0.606825149272
-0.809016994375 0.309016994375 0.5
-0.69378047756 0.16062203564 0.702046444776
-0.571251659136 0.213022865649 0.792649229259
-0.484441642061 0.131200378813 0.864929335863
-0.615642020874 0.0810862934433 0.78384304242
-0.525731112119 0.0 0.850650808352
0.862668480416 0.433888564553 0.259891913008
0.782888506207 0.519553709322 0.342271135182
0.213022865649 0.792649229259 0.571251659136
0.0810862934433 0.78384304242 0.615642020874
0.16062203564 0.702046444776 0.69378047756
-0.965056599484 0.224799542734 -0.134651124684
-0.843911474622 0.375038567478 -0.383613732685
-0.862668480416 0.433888564553 -0.259891913008
-0.757935420048 0.453990499739 -0.468429850867
-0.688190960236 0.587785252292 -0.425325404176
-0.601500955008 0.707106781186 -0.37174803446
[...]
CELL_DATA 1100
SCALARS cell_data_0 double
LOOKUP_TABLE default
1.04454519065e-05
9.70918688399e-07
6.13969548082e-06
7.705945792e-06
7.48807157001e-05
4.72034853276e-05
9.99080438182e-05
0.000136979854273
0.000219876349977
0.000250452018378
0.000114085581374
0.000251724311075
0.000101009714253
3.52700049991e-05
5.75305826632e-05
2.09705361113e-05
3.8045813291e-05
3.19718589488e-05
1.84558669981e-05
3.9561423526e-05
6.15900446828e-05
2.72159726765e-05
3.15965493994e-05
3.16232306623e-05
1.03831963075e-05
4.01455557287e-05
2.99227449533e-05
2.96311361815e-05
1.92323672709e-05
1.56605789835e-05
1.19129320319e-05
4.43234555909e-06
2.01429037773e-06
3.87400804674e-06
1.50259057251e-06
1.24970030505e-06
3.073086329e-06
3.72938034565e-06
1.86668490313e-05
3.09285673914e-06
5.83330435053e-06
1.86007106216e-05
1.82483916576e-06
2.24357788697e-05
2.85877685101e-06
3.97349787982e-06
1.22993477636e-06
1.36282081424e-05
1.34081088403e-05
8.98449298723e-06
1.29936010754e-05
1.41784029985e-05
1.42314975692e-05
1.4326354954e-05
1.8869349799e-05
2.06157133316e-05
2.3199736946e-05
1.95077822696e-05
2.20908716217e-05
1.9604682526e-05
2.07597409408e-05
1.89633968231e-05
1.55160235546e-05
1.71451398804e-05
1.61450448666e-05
1.97689288095e-05
1.55858991308e-05
1.74833953278e-05
2.02010523554e-05
1.54963769792e-05
2.16451067891e-05
1.82092088834e-05
1.53017976676e-05
1.7879806474e-05
1.9379223158e-05
1.2691131676e-05
1.68044541217e-05
1.56541315275e-05
1.84955503246e-05
1.88741412416e-05
2.00604793312e-05
1.41496880187e-05
2.20057051852e-05
1.75284150856e-05
2.56426500185e-05
2.77731852395e-05
1.52990973719e-05
2.05839345605e-05
1.93732731389e-05
2.29553006636e-05
1.80006812907e-05
1.65851107209e-05
2.53305336082e-05
1.60046997239e-05
2.35703664285e-05
1.93461385845e-05
1.99397752463e-05
1.7935635109e-05
1.69960324497e-05
1.69293296483e-05
1.82450710662e-05
1.69154813867e-05
2.62022131403e-05
2.66286664049e-05
2.24048817312e-05
1.61188898523e-05
1.1489687809e-05
1.72349308569e-05
1.90598506479e-06
1.50133235637e-05
2.3019743085e-06
1.54150022096e-05
2.11975756512e-05
1.39640826206e-05
3.83621392549e-06
8.02274702071e-06
1.03532161302e-05
6.72424173761e-06
7.44016449788e-06
1.10763706385e-05
2.5179914774e-05
1.83547988356e-05
1.84651331461e-05
5.5705210548e-06
1.52031973495e-05
3.14313899626e-05
2.23739235852e-05
1.78802540669e-05
1.80141326447e-05
3.57182434359e-05
1.63065371314e-05
4.57451995821e-05
2.66551189365e-05
2.2220760824e-05
1.97209486458e-05
6.99234568507e-06
6.56813290116e-05
7.77638518946e-05
5.91210631903e-05
2.69898600754e-05
4.37537056572e-05
7.51916255223e-05
4.72384137841e-05
5.57821401823e-05
3.08264575504e-06
3.25954308236e-07
1.78165206133e-06
6.60009536902e-06
1.67391035683e-07
2.0143105851e-06
5.15014547112e-06
3.69785682986e-06
8.53434032699e-06
4.29446387647e-06
2.67140934886e-07
5.78070235774e-06
2.8925965911e-07
1.02348478992e-08
1.36298630692e-06
2.75674254533e-06
6.34907592936e-06
2.02140803039e-05
5.16246760548e-06
3.04107625345e-05
1.22350239179e-05
5.99594377865e-06
1.9895889682e-06
5.99966367652e-07
2.13089262119e-06
1.80256361429e-06
1.39213377544e-06
2.0962222369e-06
8.01443611634e-07
5.95659155799e-06
6.46164676878e-06
4.56730398619e-06
4.55044745066e-06
1.19159426128e-05
3.35573015887e-06
1.73322955511e-05
1.11724788502e-05
1.86595148069e-05
9.79417487448e-06
1.53849902179e-05
1.15307022335e-05
1.11159628832e-05
5.79589121172e-06
5.83739076681e-06
1.06542131454e-05
8.60221575033e-06
3.76724310363e-06
3.41594927321e-06
1.38387557895e-06
9.06798964341e-08
7.88713689319e-06
1.70926951437e-05
1.11562989564e-05
8.1841146918e-06
1.89698470239e-05
1.3832416799e-05
1.10315419038e-05
1.36995025593e-05
8.47110651789e-06
1.05690032841e-05
8.93506020483e-06
1.43426982815e-05
9.58170274316e-06
1.0861126288e-05
6.61310367275e-06
1.30655785078e-05
1.08667093027e-05
1.07404366931e-05
1.25225926265e-05
1.3998735613e-05
7.57618965621e-06
9.52966414404e-06
1.62079945098e-05
1.1103543839e-06
3.99318445692e-07
1.31454571685e-05
2.12659982779e-06
3.5744415685e-06
3.79728647948e-06
5.88276197525e-06
6.98885453081e-06
7.10574785331e-06
8.83037771166e-07
3.25592333883e-06
4.81956477994e-08
6.27359301547e-06
1.24826752814e-06
2.4703749996e-06
4.0687991045e-06
3.10347752358e-06
1.14432885986e-06
2.67878291978e-07
2.37876486913e-06
6.21239628978e-06
1.32208908346e-06
4.58589999239e-06
3.00648566891e-06
4.33808747078e-06
1.09538325091e-06
4.49049613419e-07
1.31461146095e-06
4.82764211244e-06
2.32129122667e-06
4.26662754189e-07
7.52448889164e-07
3.46018762363e-06
2.71478436277e-06
3.26785814183e-06
1.12920160252e-06
9.74348570766e-08
2.78410732388e-06
4.47681526114e-07
2.32442822502e-07
2.18065023414e-06
3.61758644376e-07
8.6031273908e-08
1.10649543301e-07
2.19896347822e-06
2.89460953696e-07
1.9002200549e-06
8.15827687001e-06
8.98386885856e-06
4.41192597158e-06
6.18891707918e-06
5.69659775048e-06
6.21392470428e-06
9.09868023514e-06
8.07218170379e-07
7.78706424072e-06
1.03414794454e-05
9.05757242713e-06
4.78561175061e-06
1.54529369267e-05
1.47806598939e-05
9.45906261311e-06
1.53940726172e-05
7.1009167694e-06
5.02332091436e-06
3.56876714514e-06
1.08875327046e-05
6.12565496374e-06
8.05811656972e-06
6.93198923975e-06
4.75855948206e-06
1.05378246906e-06
4.32179903142e-07
2.77967290176e-05
5.34804849695e-06
2.0238838509e-05
6.78721031879e-05
7.89966245568e-05
1.40153977255e-05
2.93831444757e-06
5.13191885245e-06
1.71285154639e-05
1.04212290959e-05
1.65260764716e-05
6.0848419436e-06
2.69104560774e-05
1.29876403323e-05
1.48838887334e-05
1.93762113467e-06
2.3390728505e-06
2.00021730989e-05
2.56862515621e-05
1.99653514706e-05
5.74575316662e-06
1.4033680595e-05
2.98918781261e-05
3.38960890811e-05
6.10918068575e-05
5.25230017861e-05
5.78594342773e-05
6.45452870941e-05
7.27880595605e-05
3.96731041047e-05
1.42737237477e-05
8.34627496831e-06
9.45438125604e-06
2.88597433254e-06
1.59549328825e-05
2.89243825287e-06
1.84542539864e-05
6.46198619844e-06
2.19172640189e-05
2.50525244285e-05
7.3803930741e-06
6.15477856647e-06
2.06930967355e-05
1.36650879782e-06
9.96089703399e-06
3.6628393056e-06
2.187943338e-06
7.97241900981e-06
7.50935707383e-06
7.74787004756e-06
2.2684189968e-05
1.75329806488e-05
1.4653470616e-05
3.63540305874e-06
1.69630336724e-06
8.80109775637e-06
2.90547820699e-05
2.59832689847e-05
2.76851885004e-05
7.6526899803e-05
1.59026412967e-05
6.30722405427e-05
8.62382240933e-05
3.46799567035e-05
1.35396487996e-05
8.24664962704e-06
1.84395072956e-05
2.25059233048e-05
2.24479772356e-05
1.15426129481e-05
2.09726025304e-05
2.42561332139e-05
2.02871847513e-05
9.23162986671e-06
6.78438959045e-06
1.91082746398e-05
2.37274785738e-05
1.10978957622e-05
1.98115150568e-05
8.83520747251e-06
9.65002291942e-06
1.24010943166e-05
1.96308932905e-05
2.23055115548e-05
2.45443560709e-05
1.95601260359e-05
2.4728777172e-05
2.69049077878e-05
2.71385398525e-05
2.28152914085e-05
1.51252173603e-05
2.42559167083e-05
2.55301950462e-05
2.11841514077e-05
2.6346256644e-05
1.61341007145e-05
2.42659223932e-05
4.24050323084e-05
4.9160612781e-05
2.68072693544e-05
1.56303704832e-05
2.17099349521e-05
4.06225814034e-05
1.03410974321e-05
1.95918420677e-05
2.57572535899e-05
2.34520783293e-05
2.5517499944e-05
2.02040749466e-05
1.75538012124e-05
3.19999025429e-05
2.13605501356e-05
1.88757174124e-05
1.75934569995e-05
1.26584509537e-05
3.23047633914e-05
2.03474866378e-05
2.20745212113e-05
3.69947959492e-05
2.04286426443e-05
1.79531063001e-05
6.73887098354e-05
8.58458725539e-05
2.22260119099e-05
1.32149601412e-06
2.97290987067e-06
1.2594850172e-05
2.20936974052e-05
1.28233653113e-05
1.80532936461e-07
1.18406487833e-05
1.82140401374e-05
1.38191118063e-05
2.44331014039e-06
4.30924289698e-06
6.36319915633e-06
1.89593480924e-05
4.51050215964e-06
3.135345817e-06
6.76998230823e-06
5.22774415538e-06
5.64310241573e-06
1.478927614e-05
1.31051915462e-06
1.51404608238e-05
9.45845280043e-06
1.55220143022e-05
9.53362510294e-06
7.60098180588e-06
7.69388738929e-06
2.4610159436e-08
2.92376215702e-06
4.8333211889e-07
9.00348565568e-06
4.56103750274e-06
4.82162171193e-06
2.48236310882e-07
7.96092700368e-06
6.32171482563e-06
3.2258376144e-06
7.11482443649e-06
1.12128160801e-05
5.22236660579e-06
1.2993586641e-05
4.08703892583e-05
4.63429332221e-05
6.6478824995e-05
7.10878047289e-05
1.94715572973e-05
1.94245209745e-05
1.09031528354e-05
3.40729011921e-06
4.58338275571e-05
3.977447552e-05
5.34187757963e-07
2.67483548064e-06
2.06911737488e-07
5.572549322e-06
1.94160000493e-06
2.71537258096e-06
1.43570733362e-06
1.31060791889e-06
3.22752230055e-06
6.74317734008e-06
3.00721070329e-06
6.3875668523e-06
4.67872515076e-07
3.88055804443e-06
2.22071517505e-06
6.14207544696e-06
2.73546489608e-06
1.20188294651e-06
2.61716979848e-06
2.61212309507e-06
1.86207668677e-06
6.96142954242e-06
3.69998132547e-06
7.43152935945e-06
1.67244196823e-05
6.27493567315e-06
1.12339372179e-05
1.20388562667e-05
1.29293469958e-05
6.72274510551e-06
1.18695100636e-05
1.3221473763e-05
1.50396807934e-05
1.27847645823e-05
6.07424664769e-06
1.04000233828e-05
1.15329044979e-05
9.79719169734e-06
4.34715615154e-06
1.34064203093e-05
4.86505612125e-06
9.38621533824e-06
1.05651094889e-05
8.955982474e-06
4.40117386206e-06
8.48457450493e-06
7.2777068916e-06
9.75692090466e-06
9.83338193422e-06
1.16339825223e-05
1.14644451976e-05
1.3223577405e-05
8.74693402027e-06
8.28451262772e-06
6.92137131144e-06
8.77602154982e-06
1.58970786696e-05
1.30058334397e-05
1.03232858879e-05
6.4331017864e-06
1.63894607703e-05
1.62101120549e-05
1.37446165188e-06
1.28491750365e-05
4.64083822934e-05
8.13950320574e-05
5.39072841032e-05
1.39300799849e-05
2.42425196508e-05
5.30640505656e-06
6.42612148424e-06
2.57159361597e-07
1.28652876194e-06
4.18491846292e-06
1.53566281736e-05
9.76086840631e-06
7.44180537488e-07
1.28321586504e-05
1.00272293422e-05
9.80228034127e-06
8.77032340615e-06
6.84723265452e-06
4.48907973011e-06
6.64255241677e-06
7.80165381754e-06
6.38912340559e-06
1.08459312335e-06
1.82032719567e-08
3.08399220774e-05
3.70042643306e-06
5.65355283341e-06
4.50242076025e-06
2.61980080225e-05
4.62955194791e-06
1.00766641118e-06
7.58345104823e-07
8.94451073442e-06
2.74363196235e-06
9.73233808266e-06
8.81408241374e-06
2.91995315831e-06
6.80193176463e-06
1.33399270426e-06
6.54107776609e-06
6.73484963505e-05
5.4330788127e-05
2.60573711331e-05
6.15044530218e-05
2.57348801555e-05
2.47667424024e-05
1.41153649406e-05
2.22228579516e-06
4.02338243549e-07
4.14800612126e-06
5.02746563152e-06
3.29011974716e-06
2.14594049658e-06
1.24344744291e-06
8.02884144296e-07
2.27039476704e-06
1.53000178326e-06
3.04067253133e-07
1.30059465335e-05
7.13979088773e-06
2.15006270532e-05
4.03448615116e-06
1.99873860211e-05
5.3129840251e-06
3.44451031213e-06
3.91419780163e-06
2.05908125247e-05
5.90839240545e-06
6.03887300321e-06
3.15648086063e-06
7.07136579132e-06
7.45878084889e-06
5.19447673871e-06
5.20777834193e-06
4.34626297449e-06
3.92362638639e-06
5.66536586657e-06
6.22830732438e-06
1.19814361788e-05
1.20466545192e-05
1.95737534121e-05
3.62761607139e-06
1.06869282379e-05
4.18457693713e-06
6.53673340297e-06
3.51000914591e-06
1.4933999157e-05
6.78636257625e-06
9.94088267304e-06
5.35246134768e-06
8.49398352794e-06
1.5816800097e-05
4.42085798968e-06
4.93766125903e-06
1.17517253284e-06
3.51279549667e-06
1.315273704e-06
1.87204743859e-06
1.52329530362e-06
6.43907391534e-07
1.53360787498e-06
2.24288852033e-06
1.84917515514e-06
9.54297546322e-07
1.63685273316e-06
4.30258113345e-06
3.38324064385e-06
3.0190641764e-06
7.41323511776e-07
1.03664630603e-06
9.21977031243e-07
9.1243506412e-07
1.2908143761e-06
1.52782671124e-06
9.06870597308e-07
1.41806179922e-06
4.65479558214e-06
3.69496195802e-06
1.96565422043e-06
2.18473364514e-06
1.75882531449e-06
1.64868509839e-06
1.66279784892e-06
2.99993673387e-06
2.18403052653e-06
2.78724702236e-06
1.77937902445e-06
4.12844880698e-06
3.43293157755e-06
7.81095480649e-06
8.8494106068e-06
6.57721282029e-06
4.84452195947e-06
9.82477304893e-06
3.50802831931e-06
4.19938119928e-06
2.15877168029e-06
8.83573673503e-06
3.25734818229e-06
3.7581033191e-06
2.43658202155e-06
1.94109827795e-06
8.67428418239e-06
3.66099658201e-06
1.67634206849e-06
2.46822418741e-06
2.20175729571e-06
3.44616928628e-06
2.14790642731e-06
2.00987549428e-06
1.17547350617e-06
2.13581092526e-06
1.51300205773e-06
1.20926275539e-06
5.29240400727e-06
2.08951343358e-06
5.82014887987e-08
2.06724845369e-06
4.2306162801e-06
5.57424946243e-07
5.30274240257e-06
6.7047059433e-06
9.90039676579e-07
3.438546462e-07
2.54402417744e-06
7.56392359548e-07
9.35411757923e-07
3.16715495081e-06
2.37350518568e-06
8.14503724251e-07
4.51259293349e-07
1.78265613098e-07
3.94467564577e-07
7.15685111512e-07
4.06929968176e-07
1.37512324549e-07
3.93572446658e-07
6.27954094992e-07
2.31945342003e-06
3.31766581408e-07
1.27876893098e-07
4.533941611e-07
1.88085928732e-07
2.41586538956e-06
4.64474314896e-06
1.20818906959e-06
6.00017710744e-07
6.16559720236e-07
2.7971240453e-07
5.52267564616e-07
8.8700429329e-07
3.10355182804e-06
2.00625811892e-06
1.58097622198e-07
1.16894677529e-07
9.6250153974e-08
4.30332371909e-07
9.14351945309e-07
8.21017585446e-07
2.78574072568e-07
4.25105027117e-07
1.05721801631e-06
2.65194483624e-06
9.7033305401e-07
4.99319460506e-07
1.08848123534e-06
7.39771092089e-07
8.41554356895e-07
6.23094877478e-07
9.2269315938e-06
8.26880098335e-07
2.21636539415e-06
3.23598665369e-06
1.73612413386e-06
4.50127073166e-06
3.8893707047e-07
4.76938937851e-06
3.29572709438e-06
1.71822079826e-06
1.34975500652e-06
1.71119315534e-06
3.85429395824e-06
1.67128246391e-06
1.78300681861e-06
2.18591695805e-06
4.48668474356e-06
6.68841596927e-06
1.6954335128e-06
3.97127972728e-06
3.52654519412e-06
3.33344260899e-06
2.76833636191e-06
1.16189717142e-06
2.27594080987e-06
2.79949973837e-06
4.96943755039e-06
2.18824277451e-06
2.43707312547e-06
1.39160875026e-06
3.67571142376e-06
2.16637758774e-06
2.59386083561e-06
2.2431114819e-06
5.26978416833e-06
2.61289014261e-06
7.26812934286e-06
3.78305094145e-06
3.60451479059e-06
4.63122811804e-06
1.18783470435e-05
7.50652457304e-06
4.55999931113e-06
4.3742367886e-06
1.07888154184e-05
9.16510961946e-06
6.89483662004e-06
3.59326436513e-06
1.00586527187e-05
7.14242595067e-06
3.08694030531e-06
9.73799215719e-06
1.34573993982e-05
9.7089099202e-06
8.35839105527e-06
2.58085775956e-06
6.86813893061e-06
6.89072980626e-06
7.97022553265e-07
8.83048453284e-07
9.23374383675e-06
9.16172628721e-06
6.02518551583e-06
8.44865853451e-06
1.17842918326e-05
3.99626068031e-06
3.5942950321e-06
3.35816553492e-06
1.278128469e-05
3.29964813122e-06
4.83190433223e-06
4.16692450094e-07
4.55726063637e-07
4.67193058711e-06
1.38472274335e-05
4.21070076741e-06
1.16218616793e-05
2.82867884314e-06
4.42004827774e-06
1.17656959928e-05
1.42877851579e-05
4.23348287624e-06
4.59765285762e-06
2.86417913397e-06
8.0901972977e-06
1.88373579339e-08
1.743373813e-06
2.14686694851e-06
1.13442641493e-06
5.05780736432e-06
6.00182996311e-06
1.07781980978e-05
1.42435729183e-05
1.38787403878e-05
1.23474963803e-05
5.21048968392e-06
6.9684314614e-07
1.67584289852e-06
3.81635887832e-06
1.99963202639e-06
1.45518866449e-06
6.09393812226e-06
5.97415920399e-06
6.68387363397e-06
2.82287727469e-06
7.33885557155e-06
6.53129656963e-06
7.50813453615e-06
3.82277325172e-06
7.76604734658e-06
7.12869437812e-06
6.0381403916e-06
1.06574406533e-06
6.67583261995e-06
1.67224443413e-06
1.14879631889e-05
1.0053374388e-05
3.07363113863e-06
9.66741716859e-06
1.08860768641e-05
1.20408305585e-05
2.700586829e-06
3.02512557706e-06
8.53714089248e-07
3.70031282015e-06
1.21439816189e-05
8.65824632687e-06
1.62410026869e-06
7.13498041411e-06
4.24992406962e-06
5.29391528079e-07
6.52858296766e-06
1.74074260017e-06
2.18896979562e-06
2.76308719438e-06
1.06178287346e-06
1.60277270807e-07
4.54709616468e-06
4.72119464094e-06
4.77788320429e-06
3.08122227979e-07
5.51224982748e-06
4.86358779578e-06
4.37097925554e-06
1.44926775813e-06
5.73602057955e-07
5.05554508522e-06
6.07984678674e-06
2.6226360418e-06
5.8516161173e-06
6.49419272485e-06
9.69630650257e-06
1.10282146445e-05
1.14904526803e-05
9.52552115258e-06
2.77301706952e-06
2.97135804433e-06
5.82824775606e-06
5.27368159283e-06
6.5446161234e-06
4.31268322756e-06
5.73888605126e-06
5.44959274491e-06
6.343725643e-06
3.44240310982e-06
6.21034907074e-06
5.8574689042e-06
5.00166003697e-06
2.47943360571e-06
4.91137530165e-06
2.10715919442e-06
5.85399829843e-06
5.61395432044e-06
9.00123209561e-06
9.55709344038e-06
7.73950261056e-07
1.9157146044e-06
6.65939471432e-07
7.28471881382e-06
1.617592334e-06
1.58761952815e-06
7.78180797913e-06
1.54605083086e-06
9.90154972665e-06
8.46290118963e-06
6.98689267716e-06
1.01740792426e-05
1.31872086401e-06
2.16580432754e-06
2.83321788257e-06
8.71209227658e-08
1.55059204947e-07
1.18365417753e-06
3.28581297276e-06
4.82966229223e-06
3.77061164958e-06
4.28533072156e-07
5.20069961487e-06
5.45269499011e-06
3.45925130416e-06
3.81936759479e-07
4.23469418601e-07
4.74107388629e-06
5.95745749062e-06
1.13403243281e-06
5.1611774897e-06
5.75187239322e-06
1.31832806674e-05
8.29744037175e-06
4.90153507322e-07
1.78879370163e-06
4.38217605202e-06
5.09000015085e-06
4.81026009299e-06
6.35647613975e-07
6.09803135374e-06
5.64478059531e-06
1.20012366932e-05
1.08588183298e-05
6.16390969403e-06
1.22596150511e-06
6.68976601562e-06
6.85605995113e-06
5.63378978547e-06
1.32991353181e-05
2.4366084791e-06
3.82379268021e-06
1.02262189582e-05
8.49401746145e-06
1.43524230835e-05
1.31080350568e-05
6.19731881693e-06
2.3378204166e-06
5.72893131936e-06
5.32812054903e-06
5.7046287505e-06
2.1555673817e-06
5.19128589523e-06
5.02313427417e-06
9.84949621583e-06
1.0880364916e-05
4.7017746374e-06
2.59944555303e-06
5.3763880823e-06
2.52847066641e-06
1.04863019915e-05
1.13263060905e-05
5.53901445277e-06
4.24787380181e-06
4.96308564866e-06
3.6973826148e-06
8.0204494561e-06
9.56348542496e-06
8.19225872252e-06
7.99428694019e-06
6.9924565015e-06
6.6472870573e-06
7.0979406822e-06
4.42616853714e-06
8.56334616476e-06
1.38882591827e-05
8.86748041959e-06
4.88215991286e-06
1.50030181935e-05
1.02148342188e-05
2.10629283865e-06
7.97376496287e-06
1.16777989965e-05
1.1366403732e-05
6.26015000685e-06
4.06142429999e-09
1.16076600257e-05
1.48734133042e-06
6.70558182933e-07
4.10211918428e-06
1.15577499808e-05
2.88059344078e-06
3.45774579138e-06
3.94303871393e-06
4.76163515055e-06
4.32375224656e-06
1.3713307786e-06
1.21630012251e-06
3.03515041782e-06
1.68602269612e-05
1.7438390578e-05
1.13720584676e-06
2.54657977242e-06
1.1150194097e-06
1.49635888259e-06
6.51945891167e-06
1.19659567533e-05
4.38406914138e-06
2.00610400828e-05
2.93710696322e-05
3.83662575583e-06
2.13613500624e-06
4.8049366113e-07
2.93510722588e-06
3.52537901063e-06
1.31159209507e-05
1.63661911889e-05
5.38846260528e-06
3.94780382132e-06
6.46086178107e-06
1.24733626574e-05
1.364146518e-05
5.20609441329e-06
1.04405005738e-05
6.65090666199e-06
8.55224036326e-06
3.72331112052e-06
2.06206743301e-07
4.42779504535e-06
2.60445525328e-06
4.38105571311e-06
2.98197925916e-06
1.56133646612e-06
1.02558972099e-05
3.55557878604e-06
1.57386414231e-06
6.92259183337e-06
4.96944714179e-06
8.34931405908e-06
7.95240647151e-06
7.27467350034e-06
3.60358303313e-08
4.62519316393e-06
6.33990097016e-06
7.91702366109e-06
7.56895388918e-06
2.22686545412e-06
4.22268748629e-06
4.34777549266e-06
2.10333734552e-06
1.40571474153e-06
4.14749975304e-07
4.20324117166e-06
1.11103077989e-06
3.99416877561e-06
6.00389376435e-06
1.35126508506e-05
4.18803322995e-06
1.55254942432e-06
8.03693200525e-07
4.27226808801e-06
6.15236808368e-07
9.48988723253e-06
3.18051980052e-06
2.29619576894e-06
4.42049367672e-06
6.04898567666e-07
1.48316007916e-09
1.67714263019e-06
4.52715519798e-06
2.0996515631e-06
2.31212203499e-06
2.62504621828e-06
1.10519871233e-06
4.40022333738e-06
1.89877447648e-07
1.54260338296e-06
4.43266167727e-08

