# vtk DataFile Version 3.0
File Name: Molecule/sphere_dip_C5/sphere_dip_C5_0-s3.vtk
ASCII
DATASET UNSTRUCTURED_GRID
FIELD FieldData 1
TIME 1 1 double
0.0
POINTS 217 double
-0.809016994375 -0.309016994375 -0.5
-1.0 0.0 0.0
-0.809016994375 0.309016994375 -0.5
-0.309016994375 -0.5 -0.809016994375
0.0 -0.850650808352 -0.525731112119
-0.5 -0.809016994375 -0.309016994375
0.5 -0.809016994375 -0.309016994375
0.0 -1.0 0.0
0.809016994375 -0.309016994375 -0.5
0.850650808352 -0.525731112119 0.0
0.309016994375 -0.5 -0.809016994375
0.809016994375 0.309016994375 -0.5
0.862668480416 0.433888564553 -0.259891913008
1.0 0.0 0.0
0.850650808352 0.525731112119 0.0
0.702046444776 0.69378047756 -0.16062203564
0.688190960236 0.587785252292 -0.425325404176
0.5 0.809016994375 -0.309016994375
0.425325404176 0.688190960236 -0.587785252292
0.259891913008 0.862668480416 -0.433888564553
0.702046444776 0.69378047756 0.16062203564
0.525731112119 0.850650808352 0.0
0.5 0.809016994375 0.309016994375
0.26286555606 0.951056516295 -0.162459848116
0.26286555606 0.951056516295 0.162459848116
0.0 1.0 0.0
0.0 0.961938357784 -0.273266528913
0.0 0.850650808352 -0.525731112119
0.259891913008 0.862668480416 0.433888564553
0.0 0.961938357784 0.273266528913
0.0 0.850650808352 0.525731112119
-0.259891913008 0.862668480416 0.433888564553
-0.26286555606 0.951056516295 0.162459848116
-0.5 0.809016994375 0.309016994375
-0.26286555606 0.951056516295 -0.162459848116
-0.525731112119 0.850650808352 0.0
-0.5 0.809016994375 -0.309016994375
-0.259891913008 0.862668480416 -0.433888564553
-0.16062203564 0.702046444776 0.69378047756
-0.425325404176 0.688190960236 0.587785252292
-0.688190960236 0.587785252292 0.425325404176
-0.587785252292 0.425325404176 0.688190960236
-0.809016994375 0.309016994375 0.5
-0.69378047756 0.16062203564 0.702046444776
-0.433888564553 0.259891913008 0.862668480416
-0.525731112119 0.0 0.850650808352
0.809016994375 0.309016994375 0.5
0.16062203564 0.702046444776 0.69378047756
-0.862668480416 0.433888564553 -0.259891913008
-0.688190960236 0.587785252292 -0.425325404176
-0.309016994375 0.5 -0.809016994375
-0.702046444776 0.69378047756 -0.16062203564
-0.809016994375 -0.309016994375 0.5
0.961938357784 -0.273266528913 0.0
0.850650808352 0.0 -0.525731112119
0.69378047756 -0.16062203564 -0.702046444776
0.69378047756 0.16062203564 -0.702046444776
0.525731112119 0.0 -0.850650808352
0.309016994375 -0.5 0.809016994375
0.425325404176 -0.688190960236 0.587785252292
0.587785252292 -0.425325404176 0.688190960236
0.688190960236 -0.587785252292 0.425325404176
0.5 -0.809016994375 0.309016994375
0.809016994375 -0.309016994375 0.5
0.16062203564 -0.702046444776 0.69378047756
0.259891913008 -0.862668480416 0.433888564553
0.0 -0.850650808352 0.525731112119
0.862668480416 -0.433888564553 0.259891913008
0.702046444776 -0.69378047756 0.16062203564
0.433888564553 -0.259891913008 -0.862668480416
0.273266528913 0.0 -0.961938357784
0.162459848116 -0.26286555606 -0.951056516295
0.0 0.0 -1.0
0.0 -0.525731112119 -0.850650808352
-0.162459848116 -0.26286555606 -0.951056516295
-0.273266528913 0.0 -0.961938357784
-0.433888564553 -0.259891913008 -0.862668480416
-0.525731112119 0.0 -0.850650808352
0.951056516295 -0.162459848116 0.26286555606
0.951056516295 0.162459848116 0.26286555606
0.850650808352 0.0 0.525731112119
0.69378047756 -0.16062203564 0.702046444776
0.69378047756 0.16062203564 0.702046444776
0.525731112119 0.0 0.850650808352
-0.69378047756 -0.16062203564 -0.702046444776
-0.850650808352 -0.525731112119 0.0
-0.961938357784 -0.273266528913 0.0
-0.433888564553 0.259891913008 -0.862668480416
-0.702046444776 -0.69378047756 -0.16062203564
-0.702046444776 -0.69378047756 0.16062203564
-0.525731112119 -0.850650808352 0.0
-0.5 -0.809016994375 0.309016994375
-0.26286555606 -0.951056516295 -0.162459848116
-0.26286555606 -0.951056516295 0.162459848116
-0.259891913008 -0.862668480416 0.433888564553
0.0 -0.961938357784 0.273266528913
-0.862668480416 -0.433888564553 0.259891913008
-0.688190960236 -0.587785252292 0.425325404176
-0.425325404176 -0.688190960236 0.587785252292
-0.587785252292 -0.425325404176 0.688190960236
-0.309016994375 -0.5 0.809016994375
-0.16062203564 -0.702046444776 0.69378047756
-0.951056516295 0.162459848116 0.26286555606
-0.850650808352 0.0 0.525731112119
-0.951056516295 -0.162459848116 0.26286555606
-0.587785252292 -0.425325404176 -0.688190960236
0.26286555606 -0.951056516295 0.162459848116
0.587785252292 -0.425325404176 -0.688190960236
0.433888564553 0.259891913008 -0.862668480416
0.162459848116 0.26286555606 -0.951056516295
0.309016994375 0.5 -0.809016994375
-0.162459848116 0.26286555606 -0.951056516295
0.0 0.525731112119 -0.850650808352
0.707106781186 0.37174803446 -0.601500955008
0.587785252292 0.425325404176 -0.688190960236
0.51337544123 0.564254211766 -0.646577791798
0.453990499739 0.468429850867 -0.757935420048
0.37174803446 0.601500955008 -0.707106781186
0.572061402817 0.218508012224 -0.790569415042
0.296004592578 0.702309846744 -0.647411893882
0.16062203564 0.702046444776 -0.69378047756
0.237086325351 0.606825149272 -0.758652300163
0.0810862934433 0.78384304242 -0.615642020874
-0.519258489728 0.840177885327 0.15643446504
-0.131200378813 0.864929335863 -0.484441642061
-0.606825149272 0.758652300163 0.237086325351
-0.620239582613 0.78020437071 0.08114185162
-0.702046444776 0.69378047756 0.16062203564
-0.620239582613 0.78020437071 -0.08114185162
-0.711281734962 0.702907030488 0.0
-0.78384304242 0.615642020874 0.0810862934433
-0.78384304242 0.615642020874 -0.0810862934433
-0.850650808352 0.525731112119 0.0
-0.309016994375 0.5 0.809016994375
-0.237086325351 0.606825149272 0.758652300163
-0.601500955008 0.707106781186 0.37174803446
-0.757935420048 0.453990499739 0.468429850867
-0.453990499739 0.468429850867 0.757935420048
-0.702309846744 0.647411893882 0.296004592578
-0.792649229259 0.571251659136 0.213022865649
-0.783451698363 0.516121620051 0.346153014789
-0.862668480416 0.433888564553 0.259891913008
-0.864929335863 0.484441642061 0.131200378813
-0.843911474622 0.375038567478 0.383613732685
-0.375038567478 0.383613732685 0.843911474622
-0.516121620051 0.346153014789 0.783451698363
0.0 0.711281734962 0.702907030488
-0.08114185162 0.620239582613 0.78020437071
0.08114185162 0.620239582613 0.78020437071
0.0 0.525731112119 0.850650808352
-0.15643446504 0.519258489728 0.840177885327
0.237086325351 0.606825149272 0.758652300163
0.15643446504 0.519258489728 0.840177885327
0.309016994375 0.5 0.809016994375
-0.238676930319 0.386187385588 0.891006524188
-0.0823235800317 0.399607051702 0.912982492932
-0.162459848116 0.26286555606 0.951056516295
0.0 0.266404701135 0.963861263467
0.0823235800317 0.399607051702 0.912982492932
0.162459848116 0.26286555606 0.951056516295
-0.0822424652791 0.133071104141 0.987688340595
0.0822424652791 0.133071104141 0.987688340595
0.0 0.0 1.0
0.238676930319 0.386187385588 0.891006524188
-0.301258879093 0.264082750659 0.916244175191
-0.358228793487 0.131655371352 0.924304600611
-0.220117027473 0.132792476828 0.966392597402
-0.273266528913 0.0 0.961938357784
-0.137952242128 0.0 0.990438881957
0.375038567478 0.383613732685 0.843911474622
0.301258879093 0.264082750659 0.916244175191
0.433888564553 0.259891913008 0.862668480416
0.220117027473 0.132792476828 0.966392597402
0.358228793487 0.131655371352 0.924304600611
0.273266528913 0.0 0.961938357784
0.137952242128 0.0 0.990438881957
0.484441642061 0.131200378813 0.864929335863
0.403355348617 0.0 0.915043421233
-0.433888564553 -0.259891913008 0.862668480416
-0.358228793487 -0.131655371352 0.924304600611
-0.301258879093 -0.264082750659 0.916244175191
-0.220117027473 -0.132792476828 0.966392597402
-0.162459848116 -0.26286555606 0.951056516295
-0.375038567478 -0.383613732685 0.843911474622
-0.238676930319 -0.386187385588 0.891006524188
-0.0822424652791 -0.133071104141 0.987688340595
-0.15643446504 -0.519258489728 0.840177885327
-0.0823235800317 -0.399607051702 0.912982492932
0.0 -0.525731112119 0.850650808352
0.0823235800317 -0.399607051702 0.912982492932
0.0 -0.266404701135 0.963861263467
0.162459848116 -0.26286555606 0.951056516295
0.15643446504 -0.519258489728 0.840177885327
0.238676930319 -0.386187385588 0.891006524188
0.0822424652791 -0.133071104141 0.987688340595
0.0 -0.707106781187 0.707106781187
0.220117027473 -0.132792476828 0.966392597402
0.301258879093 -0.264082750659 0.916244175191
0.358228793487 -0.131655371352 0.924304600611
0.433888564553 -0.259891913008 0.862668480416
0.375038567478 -0.383613732685 0.843911474622
0.484441642061 -0.131200378813 0.864929335863
0.643954748142 -0.294754166588 0.70600443598
0.688190960236 0.587785252292 0.425325404176
0.468429850867 0.757935420048 0.453990499739
0.641591214532 0.518332565981 0.56541318032
0.425325404176 0.688190960236 0.587785252292
0.37174803446 0.601500955008 0.707106781186
0.587785252292 0.425325404176 0.688190960236
0.296004592578 0.702309846744 0.647411893882
0.643954748142 0.294754166588 0.70600443598
-0.961938357784 0.273266528913 0.0
-0.294754166588 0.70600443598 -0.643954748142
-0.16062203564 0.702046444776 -0.69378047756
-0.643954748142 -0.294754166588 0.70600443598
-0.965056599484 0.224799542734 0.134651124684
-0.0768840702267 0.622785464303 -0.778605872826

CELLS 430 1720
3 0 1 2
3 3 4 5
3 4 6 7
3 8 9 6
3 10 6 4
3 11 12 13
3 13 12 14
3 14 12 15
3 12 16 15
3 12 11 16
3 15 16 17
3 16 18 17
3 17 18 19
3 14 15 20
3 15 21 20
3 15 17 21
3 20 21 22
3 17 23 21
3 23 24 21
3 23 25 24
3 21 24 22
3 17 19 23
3 19 26 23
3 19 27 26
3 23 26 25
3 22 24 28
3 24 29 28
3 24 25 29
3 28 29 30
3 30 29 31
3 29 32 31
3 29 25 32
3 31 32 33
3 25 34 32
3 34 35 32
3 34 36 35
3 25 26 34
3 26 37 34
3 34 37 36
3 30 31 38
3 31 39 38
3 31 33 39
3 40 41 39
3 41 42 43
3 44 43 45
3 14 20 46
3 28 30 47
3 1 48 2
3 2 49 50
3 50 49 36
3 36 49 51
3 49 48 51
3 49 2 48
3 45 43 52
3 13 53 8
3 8 53 9
3 8 54 13
3 54 11 13
3 8 55 54
3 55 56 54
3 55 57 56
3 54 56 11
3 58 59 60
3 59 61 60
3 59 62 61
3 60 61 63
3 58 64 59
3 64 65 59
3 64 66 65
3 59 65 62
3 63 61 67
3 61 68 67
3 61 62 68
3 67 68 9
3 57 69 70
3 69 71 70
3 69 10 71
3 70 71 72
3 10 73 71
3 73 74 71
3 73 3 74
3 71 74 72
3 3 73 4
3 4 73 10
3 72 74 75
3 74 76 75
3 74 3 76
3 75 76 77
3 9 53 67
3 53 78 67
3 53 13 78
3 67 78 63
3 13 79 78
3 79 80 78
3 79 46 80
3 78 80 63
3 46 79 14
3 14 79 13
3 63 80 81
3 80 82 81
3 80 46 82
3 81 82 83
3 77 84 2
3 84 0 2
3 85 86 0
3 0 86 1
3 50 87 2
3 87 77 2
3 85 88 89
3 88 90 89
3 88 5 90
3 89 90 91
3 5 92 90
3 92 93 90
3 92 7 93
3 90 93 91
3 7 92 4
3 4 92 5
3 91 93 94
3 93 95 94
3 93 7 95
3 94 95 66
3 85 89 96
3 89 97 96
3 89 91 97
3 96 97 52
3 91 98 97
3 98 99 97
3 98 100 99
3 97 99 52
3 91 94 98
3 94 101 98
3 94 66 101
3 98 101 100
3 42 102 103
3 102 104 103
3 102 1 104
3 103 104 52
3 52 104 96
3 104 86 96
3 104 1 86
3 96 86 85
3 77 76 84
3 76 105 84
3 76 3 105
3 84 105 0
3 0 105 5
3 5 105 3
3 5 88 0
3 0 88 85
3 62 106 6
3 6 106 7
3 9 68 6
3 6 68 62
3 7 106 95
3 106 65 95
3 106 62 65
3 95 65 66
3 57 55 69
3 55 107 69
3 55 8 107
3 69 107 10
3 10 107 6
3 6 107 8
3 57 70 108
3 70 109 108
3 70 72 109
3 108 109 110
3 72 111 109
3 111 112 109
3 111 50 112
3 109 112 110
3 72 75 111
3 75 87 111
3 75 77 87
3 111 87 50
3 11 113 16
3 113 114 16
3 114 115 16
3 115 18 16
3 114 116 115
3 116 117 115
3 116 110 117
3 115 117 18
3 110 116 108
3 116 118 108
3 116 114 118
3 108 118 57
3 57 118 56
3 118 113 56
3 118 114 113
3 56 113 11
3 18 119 19
3 119 120 19
3 18 117 119
3 117 121 119
3 117 110 121
3 119 121 120
3 120 122 19
3 19 122 27
3 35 123 32
3 32 123 33
3 27 124 26
3 26 124 37
3 33 123 125
3 123 126 125
3 123 35 126
3 125 126 127
3 35 128 126
3 128 129 126
3 128 51 129
3 126 129 127
3 51 128 36
3 36 128 35
3 127 129 130
3 129 131 130
3 129 51 131
3 130 131 132
3 133 134 39
3 39 134 38
3 33 135 39
3 135 40 39
3 40 136 41
3 136 42 41
3 41 137 39
3 39 137 133
3 33 125 135
3 125 138 135
3 125 127 138
3 135 138 40
3 127 139 138
3 139 140 138
3 139 141 140
3 138 140 40
3 127 130 139
3 130 142 139
3 130 132 142
3 139 142 141
3 40 140 136
3 140 143 136
3 140 141 143
3 136 143 42
3 133 137 144
3 137 145 144
3 137 41 145
3 144 145 44
3 44 145 43
3 43 145 41
3 38 146 30
3 30 146 47
3 38 147 146
3 147 148 146
3 147 149 148
3 146 148 47
3 38 134 147
3 134 150 147
3 134 133 150
3 147 150 149
3 47 148 151
3 148 152 151
3 148 149 152
3 151 152 153
3 133 154 150
3 154 155 150
3 154 156 155
3 150 155 149
3 156 157 155
3 157 158 155
3 157 159 158
3 155 158 149
3 156 160 157
3 160 161 157
3 160 162 161
3 157 161 159
3 149 158 152
3 158 163 152
3 158 159 163
3 152 163 153
3 133 144 154
3 144 164 154
3 144 44 164
3 154 164 156
3 44 165 164
3 165 166 164
3 165 167 166
3 164 166 156
3 167 165 45
3 45 165 44
3 156 166 160
3 166 168 160
3 166 167 168
3 160 168 162
3 153 163 169
3 163 170 169
3 163 159 170
3 169 170 171
3 159 172 170
3 172 173 170
3 172 174 173
3 170 173 171
3 159 161 172
3 161 175 172
3 161 162 175
3 172 175 174
3 171 173 176
3 173 177 176
3 173 174 177
3 176 177 83
3 178 179 45
3 45 179 167
3 178 180 179
3 180 181 179
3 180 182 181
3 179 181 167
3 178 183 180
3 183 184 180
3 183 100 184
3 180 184 182
3 167 181 168
3 181 185 168
3 181 182 185
3 168 185 162
3 100 186 184
3 186 187 184
3 186 188 187
3 184 187 182
3 188 189 187
3 189 190 187
3 189 191 190
3 187 190 182
3 188 192 189
3 192 193 189
3 192 58 193
3 189 193 191
3 182 190 185
3 190 194 185
3 190 191 194
3 185 194 162
3 58 192 64
3 192 195 64
3 192 188 195
3 64 195 66
3 66 195 101
3 195 186 101
3 195 188 186
3 101 186 100
3 162 194 175
3 194 196 175
3 194 191 196
3 175 196 174
3 191 197 196
3 197 198 196
3 197 199 198
3 196 198 174
3 191 193 197
3 193 200 197
3 193 58 200
3 197 200 199
3 174 198 177
3 198 201 177
3 198 199 201
3 177 201 83
3 83 201 81
3 201 202 81
3 201 199 202
3 81 202 63
3 199 200 202
3 200 60 202
3 200 58 60
3 202 60 63
3 22 203 20
3 20 203 46
3 22 204 203
3 204 205 203
3 204 206 205
3 203 205 46
3 206 207 205
3 207 208 205
3 207 153 208
3 205 208 46
3 206 204 28
3 28 204 22
3 47 209 28
3 28 209 206
3 206 209 207
3 209 151 207
3 209 47 151
3 207 151 153
3 153 169 208
3 169 210 208
3 169 171 210
3 208 210 46
3 46 210 82
3 210 176 82
3 210 171 176
3 82 176 83
3 1 211 48
3 48 211 132
3 37 212 36
3 36 212 50
3 50 212 213
3 212 124 213
3 212 37 124
3 213 124 27
3 132 131 48
3 48 131 51
3 100 183 99
3 183 214 99
3 183 178 214
3 99 214 52
3 52 214 45
3 214 178 45
3 42 103 43
3 43 103 52
3 42 143 102
3 143 215 102
3 143 141 215
3 102 215 1
3 141 142 215
3 142 211 215
3 142 132 211
3 215 211 1
3 27 122 213
3 122 216 213
3 122 120 216
3 213 216 50
3 50 216 112
3 216 121 112
3 216 120 121
3 112 121 110

CELL_TYPES 430
5
5
5
5
5
5
5
5
5
5
5
5
5
5
5
5
5
5
5
5
5
5
5
5
5
5
5
5
5
5
5
5
5
5
5
5
5
5
5
5
5
5
5
5
5
5
5
5
5
5
5
5
5
5
5
5
5
5
5
5
5
5
5
5
5
5
5
5
5
5
5
5
5
5
5
5
5
5
5
5
5
5
5
5
5
5
5
5
5
5
5
5
5
5
5
5
5
5
5
5
5
5
5
5
5
5
5
5
5
5
5
5
5
5
5
5
5
5
5
5
5
5
5
5
5
5
5
5
5
5
5
5
5
5
5
5
5
5
5
5
5
5
5
5
5
5
5
5
5
5
5
5
5
5
5
5
5
5
5
5
5
5
5
5
5
5
5
5
5
5
5
5
5
5
5
5
5
5
5
5
5
5
5
5
5
5
5
5
5
5
5
5
5
5
5
5
5
5
5
5
5
5
5
5
5
5
5
5
5
5
5
5
5
5
5
5
5
5
5
5
5
5
5
5
5
5
5
5
5
5
5
5
5
5
5
5
5
5
5
5
5
5
5
5
5
5
5
5
5
5
5
5
5
5
5
5
5
5
5
5
5
5
5
5
5
5
5
5
5
5
5
5
5
5
5
5
5
5
5
5
5
5
5
5
5
5
5
5
5
5
5
5
5
5
5
5
5
5
5
5
5
5
5
5
5
5
5
5
5
5
5
5
5
5
5
5
5
5
5
5
5
5
5
5
5
5
5
5
5
5
5
5
5
5
5
5
5
5
5
5
5
5
5
5
5
5
5
5
5
5
5
5
5
5
5
5
5
5
5
5
5
5
5
5
5
5
5
5
5
5
5
5
5
5
5
5
5
5
5
5
5
5
5
5
5
5
5
5
5
5
5
5
5
5
5
5
5
5
5
5
5
5
5
5
5
5
5
5
5
5
5
5
5
5
5
5
5
5
5
5
5
5
5
5
5
5
5
5
5
5

CELL_DATA 430
SCALARS cell_data_0 double
LOOKUP_TABLE default
2.15497928571e-05
2.50337958112e-05
0.00012364902507
5.44196424339e-05
0.000107980540627
3.10636549322e-05
1.33402777231e-05
3.44782233688e-05
0.000102882895926
6.9815996156e-05
7.82990430499e-05
7.97621270536e-05
4.48582379732e-05
1.36583494529e-05
1.11264385192e-05
1.7998130219e-05
1.46286152814e-05
4.92070183122e-06
3.24565877283e-06
3.43689801429e-06
5.15294126455e-06
2.33102312848e-05
2.60359395889e-05
2.77324354574e-05
2.22929001042e-06
9.63021442677e-06
1.16692845253e-05
5.24825904455e-06
2.3123183617e-05
2.40488829296e-05
2.34719459325e-05
1.71607852087e-05
2.24463649191e-05
1.85902553865e-05
4.78635116634e-05
7.03233012241e-05
2.91589507948e-05
7.20794308592e-05
7.57354368992e-05
2.59273039198e-05
1.71432270172e-05
1.54390273644e-05
4.46950889437e-06
3.10200632172e-05
5.75640194745e-05
3.16776476019e-05
3.37637385477e-05
7.8110510676e-05
2.95493149157e-06
8.26991460079e-06
1.0425612314e-05
4.88576756501e-05
4.21039551556e-05
9.83136101405e-05
1.87401373673e-06
5.33723458164e-06
9.75772858133e-06
1.75727654148e-05
5.29502482865e-06
6.19676305621e-06
8.65556822818e-06
1.26991669607e-05
5.04966025167e-05
3.19151658583e-05
1.13600276583e-05
3.24879641538e-05
4.15363509758e-05
2.82021215488e-05
2.88584550508e-05
1.10879319345e-05
1.13786248539e-05
2.93851936399e-06
2.64828185203e-06
1.89216301279e-06
3.20057062151e-05
5.17677884113e-05
4.44387796649e-05
6.22920337108e-05
8.0343536859e-05
0.000142639303323
0.000121324517041
0.000119316635979
7.89207342721e-05
6.85657850426e-05
0.000110250058676
9.95245868014e-05
7.58060179835e-05
4.5530746263e-05
9.82310147605e-07
1.14238117218e-05
9.47869537346e-06
3.2561399406e-06
9.30577191825e-06
1.06924497901e-05
2.20961643147e-05
2.30086532514e-05
2.27132318231e-05
8.54537312214e-06
3.24961267801e-05
3.95214744482e-05
3.29160135641e-05
5.00210636108e-05
8.31960568046e-06
1.43208985583e-05
8.91742346427e-06
4.83480664695e-07
6.52478285241e-06
1.05185469869e-05
1.37866110718e-05
1.42251344739e-05
8.01357515488e-06
6.56396210307e-07
9.28489273435e-06
1.60124765439e-05
1.76399686123e-06
5.06056048136e-07
1.3001582304e-05
1.1625581981e-05
7.74774510908e-06
2.27633146311e-05
3.97054429428e-06
2.61685956235e-05
1.77033918491e-05
2.30388314387e-05
7.90832578706e-06
1.97256309237e-05
2.03673698083e-05
4.63555170943e-05
5.60574193306e-05
3.57623932744e-05
1.71522650907e-05
3.87926930541e-05
3.53774101523e-05
4.65049974413e-05
2.19372100185e-05
1.87599016059e-05
3.8772409843e-06
1.80198940549e-05
1.10196734597e-05
1.45381950732e-05
5.90517030153e-06
1.6132015059e-05
1.39215405943e-05
1.44544574619e-05
3.14944636187e-05
1.41501679793e-05
2.14892412817e-05
3.39210241913e-05
8.79506270052e-07
6.63913887269e-06
5.08363342125e-05
8.1394893031e-05
3.36038719226e-05
4.82074317208e-05
3.11258990236e-06
1.3437288483e-05
1.78709166901e-06
2.19834652318e-05
1.48062665282e-05
1.11415558497e-05
4.42296835455e-06
2.2890337906e-05
8.05904544399e-05
5.61367483772e-05
2.72538735119e-05
2.73405157882e-05
4.15831898022e-05
1.32666700643e-05
3.52215106132e-05
2.07278261761e-05
1.67242938376e-05
1.59483728841e-05
5.61167575943e-05
3.32284829171e-05
3.27500848588e-05
9.02904949256e-06
6.44827165096e-05
0.000113563063731
0.000110204009991
7.3517529283e-05
3.53125047155e-05
1.87236886522e-05
8.08339242822e-06
2.14295579449e-05
9.24132529591e-06
2.68910585619e-05
5.8659694715e-05
2.4361477982e-05
2.25954103235e-05
4.38702639123e-05
8.31158636647e-05
2.4731001936e-05
3.03108302615e-05
1.95449328775e-05
1.09332192469e-05
8.09049910744e-06
6.02657155646e-06
5.06175687887e-06
1.89066749295e-05
1.90678842115e-05
3.52929065536e-06
7.68110318617e-06
4.96357284911e-06
1.67170236086e-05
5.70492107332e-07
1.01329661676e-05
1.39203569981e-05
1.13228779733e-05
2.42092737801e-05
2.6511210769e-05
1.62157708397e-05
1.76084238952e-05
2.13950573936e-05
2.57831552223e-05
1.42391697759e-05
2.26985853685e-05
1.58344635872e-05
1.54623566922e-05
7.0197605335e-06
3.51064113235e-06
1.35213483695e-05
2.08184271086e-05
3.87238327517e-06
3.47445496536e-07
3.58997296251e-06
9.25529227824e-06
5.20564689693e-06
1.67108726941e-05
9.29547844386e-06
1.56883736348e-05
2.28587625367e-05
3.97421783047e-05
2.64911422844e-05
2.14578189653e-05
2.14518288336e-05
4.43558860435e-05
2.59261458884e-05
3.10944553307e-05
1.64707062882e-05
3.96597598801e-05
3.1956802721e-05
1.91678725383e-05
2.77265436262e-06
1.59407214923e-05
8.70507392739e-06
8.84673106953e-07
1.9321328265e-05
6.82700106126e-06
1.39828430447e-05
1.6055650972e-06
2.75652389557e-05
5.68218236892e-05
1.06975782517e-05
1.93961745126e-05
1.24275764007e-05
1.92533031073e-05
3.48894574916e-06
8.72518166354e-07
9.60399351548e-06
2.8738467074e-05
2.15734985917e-06
1.0889314756e-07
2.98076639076e-06
1.46627700951e-05
1.41179318984e-05
9.53396682538e-06
1.87050723531e-05
3.93062996659e-06
2.27118171629e-05
1.54084636282e-05
2.59218371105e-05
1.46699234305e-05
3.18528964733e-05
2.65960006138e-05
1.30411167836e-05
7.7442211138e-06
1.82059404684e-05
1.89844201049e-06
1.16875451145e-06
1.02089049504e-05
5.99136398399e-06
1.35244798421e-05
7.1782130993e-06
6.83064406995e-06
1.66756179502e-05
1.72979770339e-05
4.249936488e-05
3.02898670569e-05
2.15592851413e-05
1.23140618819e-05
2.3461066038e-05
2.64773926705e-05
1.84115413505e-06
6.43655413649e-06
1.46591585096e-05
1.11453555151e-05
2.03264089315e-05
6.51344671792e-06
2.06851666452e-05
1.50029782711e-05
2.3423968963e-05
1.37754443002e-05
2.56786990227e-05
2.25907807025e-05
9.25552527328e-06
1.34005613173e-06
1.85262871552e-05
9.20734490798e-06
3.57723751756e-05
4.20426027468e-05
1.05015821693e-05
3.67219957253e-06
1.5360118967e-05
2.25014409249e-05
5.31802651176e-06
8.41008581066e-06
6.41133588954e-06
1.0182269095e-05
2.54554523674e-05
1.90780663585e-05
2.15067340135e-05
2.65809870001e-05
4.49940501596e-06
1.08673601021e-05
3.83158159103e-07
1.48375691323e-05
1.1210716005e-05
7.29724572112e-06
2.09167187925e-05
1.9302073296e-05
3.70869411681e-06
6.18909671992e-08
7.48155243408e-06
1.87572409326e-05
2.48882259439e-05
1.57766516814e-05
2.09288466072e-05
2.97997874173e-05
1.37082935327e-05
1.87553947927e-05
1.36448636219e-05
6.47819882633e-06
8.75353888518e-06
1.03514838641e-05
8.93828971522e-06
1.72527507386e-05
2.31471040611e-05
8.1910275525e-06
1.62611792733e-05
2.28122746012e-05
1.59840928153e-05
9.39572240202e-06
9.58549871922e-06
2.2020172325e-05
1.5346195686e-05
6.52685295027e-06
1.09700676014e-05
5.03721987778e-06
1.94745296664e-05
9.71033324976e-06
9.83306356124e-06
1.38385703197e-05
2.55285229117e-05
1.79323634134e-05
1.80955796285e-05
1.55174677569e-05
1.24441814203e-05
1.40625534655e-05
2.15337023992e-05
1.62623060639e-05
1.05286642896e-05
1.29820519642e-05
2.06337261643e-06
3.08702342264e-06
6.33357725961e-06
2.85497849024e-06
4.09649705038e-06
6.19855365735e-07
1.75532839036e-05
3.91730218864e-06
1.2240009117e-06
6.49967807312e-06
1.55670187083e-05
3.56759675575e-06
2.36853230429e-06
6.14880876903e-06
2.2334659558e-06
2.61872326591e-06
1.17364672839e-05
5.36939410347e-06
1.77247028333e-05
3.44329815691e-06
1.29874660165e-05
6.39423683144e-06
1.54576980111e-05
2.33379862545e-05
3.85018340438e-05
4.07791145799e-05
2.92364935828e-05
5.8735216279e-06
2.15942840575e-06
2.51868688307e-06
1.52377234762e-05
3.38956047755e-06
4.1134482051e-05
4.65662554134e-05
2.14105549823e-05
9.37294420608e-06
1.65671445257e-05
1.02402532515e-05
3.56141235961e-05
5.68605451641e-05
3.21082062017e-05
3.65279653296e-05
2.44407731227e-05
2.83486144716e-05
2.82554676947e-05
7.75614658807e-07
2.88697277472e-05
2.97500074489e-05
3.04056808852e-05
3.38238424878e-07
5.0248535567e-06
3.84945042891e-06
5.25703227983e-06
1.53292813158e-06
4.79274326551e-06
6.70626318788e-06
4.48944844806e-06
7.92341435936e-06

