# vtk DataFile Version 3.0
File Name: Molecule/sphere_dip/sphere_dip_0-s2.vtk
ASCII
DATASET UNSTRUCTURED_GRID
FIELD FieldData 1
TIME 1 1 double
0.0
POINTS 48 double
0.850650808352 -0.525731112119 0.0
0.809016994375 -0.309016994375 -0.5
1.0 0.0 0.0
0.809016994375 0.309016994375 -0.5
0.525731112119 0.0 -0.850650808352
0.850650808352 0.525731112119 0.0
0.5 0.809016994375 -0.309016994375
0.309016994375 0.5 -0.809016994375
0.0 0.850650808352 -0.525731112119
0.5 0.809016994375 0.309016994375
0.0 1.0 0.0
0.0 0.850650808352 0.525731112119
-0.5 0.809016994375 0.309016994375
-0.309016994375 0.5 0.809016994375
-0.809016994375 0.309016994375 0.5
-0.850650808352 0.525731112119 0.0
-0.525731112119 0.0 0.850650808352
0.309016994375 0.5 0.809016994375
0.0 0.0 1.0
0.525731112119 0.0 0.850650808352
-0.309016994375 -0.5 0.809016994375
0.309016994375 -0.5 0.809016994375
0.0 -0.850650808352 0.525731112119
0.309016994375 -0.5 -0.809016994375
0.0 0.0 -1.0
-0.309016994375 -0.5 -0.809016994375
0.0 -0.850650808352 -0.525731112119
-0.525731112119 0.0 -0.850650808352
0.809016994375 -0.309016994375 0.5
0.809016994375 0.309016994375 0.5
-0.809016994375 -0.309016994375 -0.5
-0.809016994375 0.309016994375 -0.5
-1.0 0.0 0.0
-0.850650808352 -0.525731112119 0.0
-0.309016994375 0.5 -0.809016994375
-0.5 0.809016994375 -0.309016994375
-0.5 -0.809016994375 -0.309016994375
-0.5 -0.809016994375 0.309016994375
0.0 -1.0 0.0
-0.809016994375 -0.309016994375 0.5
0.5 -0.809016994375 -0.309016994375
0.5 -0.809016994375 0.309016994375
-0.25 0.904508497187 0.154508497188
-0.25 0.904508497187 -0.154508497188
-0.5 0.809016994375 0.0
0.559016994375 -0.404508497188 0.654508497187
0.404508497188 -0.654508497187 0.559016994375
0.654508497187 -0.559016994375 0.404508497188

CELLS 92 368
3 0 1 2
3 1 3 2
3 1 4 3
3 2 3 5
3 5 3 6
3 3 7 6
3 3 4 7
3 6 7 8
3 5 6 9
3 6 10 9
3 6 8 10
3 9 10 11
3 11 12 13
3 12 14 13
3 12 15 14
3 13 14 16
3 11 13 17
3 13 18 17
3 13 16 18
3 17 18 19
3 16 20 18
3 20 21 18
3 20 22 21
3 18 21 19
3 4 23 24
3 23 25 24
3 23 26 25
3 24 25 27
3 0 2 28
3 2 29 28
3 2 5 29
3 28 29 19
3 5 9 29
3 9 17 29
3 9 11 17
3 29 17 19
3 27 30 31
3 30 32 31
3 30 33 32
3 31 32 15
3 8 34 35
3 34 31 35
3 34 27 31
3 35 31 15
3 33 36 37
3 36 38 37
3 36 26 38
3 37 38 22
3 33 37 39
3 37 20 39
3 37 22 20
3 39 20 16
3 16 14 39
3 14 32 39
3 14 15 32
3 39 32 33
3 27 25 30
3 25 36 30
3 25 26 36
3 30 36 33
3 26 40 38
3 40 41 38
3 40 0 41
3 38 41 22
3 4 1 23
3 1 40 23
3 1 0 40
3 23 40 26
3 4 24 7
3 24 34 7
3 24 27 34
3 7 34 8
3 10 42 11
3 11 42 12
3 10 43 42
3 43 44 42
3 43 35 44
3 42 44 12
3 35 43 8
3 8 43 10
3 12 44 15
3 44 35 15
3 21 45 19
3 19 45 28
3 21 46 45
3 46 47 45
3 46 41 47
3 45 47 28
3 41 46 22
3 22 46 21
3 28 47 0
3 47 41 0

CELL_TYPES 92
5
5
5
5
5
5
5
5
5
5
5
5
5
5
5
5
5
5
5
5
5
5
5
5
5
5
5
5
5
5
5
5
5
5
5
5
5
5
5
5
5
5
5
5
5
5
5
5
5
5
5
5
5
5
5
5
5
5
5
5
5
5
5
5
5
5
5
5
5
5
5
5
5
5
5
5
5
5
5
5
5
5
5
5
5
5
5
5
5
5
5
5

CELL_DATA 92
SCALARS cell_data_0 double
LOOKUP_TABLE default
8.5259185546e-05
7.40391482237e-05
7.62933825289e-06
0.000104031126477
8.52316366514e-06
1.66500552136e-05
1.1535547807e-05
5.04987743548e-06
8.5222395097e-05
0.000681885567159
0.000375423499585
0.000599830864567
0.000116306568912
0.000125903955124
8.9692901179e-05
6.2830164784e-05
9.01320727764e-06
1.4532788707e-05
9.01787787908e-05
3.80322038353e-05
9.15587700532e-05
9.05327171136e-05
5.86705488499e-05
5.32038282269e-05
0.000224564770201
0.000263255021606
8.04481908453e-05
0.000211451305213
0.000211373415552
0.000180415602738
8.17386281908e-05
7.11814078835e-05
7.19587512342e-05
8.64178585991e-05
0.000104547442655
7.43935975929e-06
2.1136841862e-05
5.02450829414e-05
6.68737787779e-06
7.33502597007e-05
2.327858395e-06
9.54180203131e-05
6.67632327003e-05
0.000169198972914
5.92047481602e-07
9.18915385038e-06
1.34627295839e-05
3.05316303174e-06
9.54596524033e-06
3.5831112308e-06
2.2764738434e-06
7.03302296062e-05
5.64028415931e-05
1.02616449014e-05
8.66205324611e-06
2.83005216854e-06
9.19049723979e-05
5.40647032069e-05
3.11444860743e-05
1.11391124391e-05
1.37096647918e-05
2.22757677265e-05
2.17273449885e-05
6.49627887832e-06
5.94820606309e-05
5.03674717189e-05
2.41997324962e-06
3.10199777059e-05
0.000208198092833
0.000272635881564
0.00020498563555
6.00199834161e-05
0.0002195335806
4.3657600236e-05
0.000130343433792
1.31912253323e-06
2.42100616733e-05
2.73228657699e-05
2.88223042711e-05
0.000200817619062
4.66070335153e-05
4.13486303189e-05
2.63573498478e-05
5.08913916952e-05
1.05156688382e-05
2.87360706227e-06
4.17570964702e-06
2.68956479185e-05
3.93879730968e-06
2.35090986785e-05
4.91467874545e-05
1.17653441137e-05

