# vtk DataFile Version 3.0
File Name: Molecule/sphere_dip/sphere_dip_0-s5.vtk
ASCII
DATASET UNSTRUCTURED_GRID
FIELD FieldData 1
TIME 1 1 double
0.0
POINTS 66 double
0.850650808352 -0.525731112119 0.0
0.809016994375 -0.309016994375 -0.5
1.0 0.0 0.0
0.809016994375 0.309016994375 -0.5
0.525731112119 0.0 -0.850650808352
0.850650808352 0.525731112119 0.0
0.0 0.850650808352 0.525731112119
-0.309016994375 0.5 0.809016994375
0.309016994375 0.5 0.809016994375
0.0 0.0 1.0
-0.525731112119 0.0 0.850650808352
0.525731112119 0.0 0.850650808352
-0.309016994375 -0.5 0.809016994375
0.309016994375 -0.5 0.809016994375
0.0 -0.850650808352 0.525731112119
0.309016994375 -0.5 -0.809016994375
0.0 0.0 -1.0
-0.309016994375 -0.5 -0.809016994375
0.0 -0.850650808352 -0.525731112119
-0.525731112119 0.0 -0.850650808352
0.809016994375 -0.309016994375 0.5
0.809016994375 0.309016994375 0.5
0.5 0.809016994375 0.309016994375
-0.809016994375 -0.309016994375 -0.5
-0.809016994375 0.309016994375 -0.5
-0.850650808352 -0.525731112119 0.0
-1.0 0.0 0.0
0.0 0.850650808352 -0.525731112119
-0.309016994375 0.5 -0.809016994375
-0.5 0.809016994375 -0.309016994375
-0.5 -0.809016994375 -0.309016994375
-0.5 -0.809016994375 0.309016994375
0.0 -1.0 0.0
-0.809016994375 -0.309016994375 0.5
-0.809016994375 0.309016994375 0.5
0.5 -0.809016994375 -0.309016994375
0.5 -0.809016994375 0.309016994375
0.309016994375 0.5 -0.809016994375
-0.25 0.904508497187 0.154508497188
-0.5 0.809016994375 0.309016994375
0.0 1.0 0.0
-0.25 0.904508497187 -0.154508497188
-0.5 0.809016994375 0.0
-0.850650808352 0.525731112119 0.0
0.559016994375 -0.404508497188 0.654508497187
0.404508497188 -0.654508497187 0.559016994375
0.654508497187 -0.559016994375 0.404508497188
0.5 0.809016994375 -0.309016994375
0.5 0.809016994375 0.0
0.25 0.904508497187 -0.154508497188
0.25 0.904508497187 0.154508497188
0.25 0.829833901363 0.417374053247
0.0 0.925325404176 0.26286555606
0.654508497187 0.559016994375 -0.404508497188
0.559016994375 0.404508497188 -0.654508497187
0.404508497188 0.654508497187 -0.559016994375
-0.404508497188 0.654508497187 0.559016994375
-0.654508497187 0.559016994375 0.404508497188
-0.559016994375 0.404508497188 0.654508497187
-0.904508497187 0.154508497188 -0.25
-0.829833901363 0.417374053247 -0.25
-0.925325404176 0.26286555606 0.0
-0.654508497187 0.559016994375 -0.404508497188
-0.675325404176 0.667374053247 -0.154508497188
-0.904508497187 0.154508497188 0.25
-0.829833901363 0.417374053247 0.25

CELLS 128 512
3 0 1 2
3 1 3 2
3 1 4 3
3 2 3 5
3 6 7 8
3 7 9 8
3 7 10 9
3 8 9 11
3 10 12 9
3 12 13 9
3 12 14 13
3 9 13 11
3 4 15 16
3 15 17 16
3 15 18 17
3 16 17 19
3 0 2 20
3 2 21 20
3 2 5 21
3 20 21 11
3 5 22 21
3 22 8 21
3 21 8 11
3 19 23 24
3 23 25 26
3 27 28 29
3 28 19 24
3 25 30 31
3 30 32 31
3 30 18 32
3 31 32 14
3 25 31 33
3 31 12 33
3 31 14 12
3 33 12 10
3 10 34 33
3 33 26 25
3 19 17 23
3 17 30 23
3 17 18 30
3 23 30 25
3 18 35 32
3 35 36 32
3 35 0 36
3 32 36 14
3 4 1 15
3 1 35 15
3 1 0 35
3 15 35 18
3 4 16 37
3 16 28 37
3 16 19 28
3 37 28 27
3 6 38 39
3 40 41 38
3 41 42 38
3 41 29 42
3 38 42 39
3 29 41 27
3 27 41 40
3 39 42 43
3 13 44 11
3 11 44 20
3 13 45 44
3 45 46 44
3 45 36 46
3 44 46 20
3 36 45 14
3 14 45 13
3 20 46 0
3 46 36 0
3 47 48 5
3 5 48 22
3 47 49 48
3 49 50 48
3 49 40 50
3 48 50 22
3 40 49 27
3 27 49 47
3 22 50 51
3 50 52 51
3 50 40 52
3 51 52 6
3 22 51 8
3 51 6 8
3 6 52 38
3 38 52 40
3 3 53 5
3 5 53 47
3 3 54 53
3 54 55 53
3 54 37 55
3 53 55 47
3 37 54 4
3 4 54 3
3 47 55 27
3 55 37 27
3 39 56 6
3 6 56 7
3 39 57 56
3 57 58 56
3 57 34 58
3 56 58 7
3 43 57 39
3 7 58 10
3 58 34 10
3 26 59 23
3 23 59 24
3 24 59 60
3 59 61 60
3 59 26 61
3 60 61 43
3 24 62 28
3 28 62 29
3 29 62 63
3 62 60 63
3 62 24 60
3 63 60 43
3 34 64 33
3 64 26 33
3 34 65 64
3 65 61 64
3 65 43 61
3 64 61 26
3 29 63 42
3 42 63 43
3 43 65 57
3 57 65 34

CELL_TYPES 128
5
5
5
5
5
5
5
5
5
5
5
5
5
5
5
5
5
5
5
5
5
5
5
5
5
5
5
5
5
5
5
5
5
5
5
5
5
5
5
5
5
5
5
5
5
5
5
5
5
5
5
5
5
5
5
5
5
5
5
5
5
5
5
5
5
5
5
5
5
5
5
5
5
5
5
5
5
5
5
5
5
5
5
5
5
5
5
5
5
5
5
5
5
5
5
5
5
5
5
5
5
5
5
5
5
5
5
5
5
5
5
5
5
5
5
5
5
5
5
5
5
5
5
5
5
5
5
5

CELL_DATA 128
SCALARS cell_data_0 double
LOOKUP_TABLE default
0.000329948509362
0.000193096898841
7.02494655309e-05
0.000197524647014
8.00295100026e-05
0.000257427620827
0.000203390550084
0.000219330980729
0.000194384153658
0.0002309199544
8.78464303009e-05
0.000216095345472
0.000211663908439
0.000223194349406
8.18492839657e-05
0.000199659448443
0.000212025244615
7.06178564327e-05
0.00017502141399
2.69805662683e-06
0.000163673662477
9.04000169168e-06
5.69384425268e-05
4.34369600823e-05
0.000101591077587
4.10335122899e-05
8.42641948221e-05
0.000206167882632
8.70577292135e-05
7.1833579715e-05
8.88394873398e-06
6.68002207704e-05
6.13338768922e-05
4.92719145874e-05
8.65461143822e-05
5.73490742909e-05
7.12801601907e-05
8.6489446552e-05
1.30666618435e-05
1.54794429743e-05
0.00020197313746
3.32147482646e-06
9.12437113367e-05
0.000210052738444
5.45248098303e-05
1.3584508124e-05
1.6572083833e-06
0.000188787146035
3.89756652545e-05
8.08076683844e-05
0.000197561585653
0.000200780220881
0.000140516341258
4.4426165155e-05
2.54298393956e-06
7.68785439278e-06
1.35287214979e-05
4.62142284993e-05
4.21485119007e-06
1.48900819445e-06
0.000378727391395
3.82336309779e-05
1.94887023405e-06
1.87778138232e-05
1.26195542796e-05
1.45451114956e-05
4.1761100381e-06
1.83342929444e-05
2.94899389803e-05
4.01074814983e-05
8.92275202723e-05
9.56178951686e-05
9.56213220075e-05
2.50382281337e-05
6.9011171318e-07
5.49218717878e-06
2.42547254278e-05
2.38535369807e-06
2.96093121642e-05
2.00294775347e-05
1.58197774608e-06
4.52490205689e-06
1.60388245195e-06
1.63088610613e-05
1.64934906297e-05
3.15386474791e-07
4.20388672759e-06
4.5122315927e-05
9.72538203281e-05
3.13300169706e-06
2.59384253806e-06
9.70971919009e-05
2.59038568577e-05
0.000145151143388
1.57947369783e-06
2.84671736426e-05
0.000137745919719
4.50788999058e-05
1.7610149664e-05
3.00323006283e-05
2.27895270221e-06
4.11945459255e-08
1.01916353943e-05
0.000320360589154
5.2505794277e-05
3.2871892721e-05
3.87787164202e-06
2.37899201948e-06
1.66857320251e-06
8.47145164881e-07
2.86377971704e-06
0.000107238048652
2.66164766958e-05
1.89668507656e-05
4.04377615474e-06
1.19521568245e-06
1.23536537611e-06
0.000108958299508
1.41046906089e-05
5.72691900968e-06
1.98278069089e-07
8.55775705004e-07
0.000107546492497
2.94332020617e-06
1.44452326099e-05
0.000133522605023
0.000108952693091
9.15858353507e-07

