# vtk DataFile Version 3.0
File Name: Molecule/methanol/methanol_9.0-0.vtk
ASCII
DATASET UNSTRUCTURED_GRID
FIELD FieldData 1
TIME 1 1 double
0.0
POINTS 410 double
1.611 0.0 -0.359
1.569 -0.375 -0.355
1.403 0.0 -0.933
1.365 -0.341 -0.929
1.445 -0.731 -0.342
1.252 -0.666 -0.918
1.245 -1.05 -0.322
1.07 -0.957 -0.9
0.98 -1.317 -0.296
0.828 -1.2 -0.876
0.662 -1.518 -0.264
0.538 -1.382 -0.847
0.308 -1.642 -0.229
0.216 -1.496 -0.815
-0.065 -1.684 -0.192
-0.124 -1.534 -0.781
-0.438 -1.642 -0.155
-0.464 -1.496 -0.747
-0.793 -1.518 -0.119
-0.787 -1.382 -0.715
-1.11 -1.317 -0.088
-1.076 -1.2 -0.686
-1.376 -1.05 -0.061
-1.318 -0.957 -0.662
-1.576 -0.731 -0.042
-1.5 -0.666 -0.644
-1.7 -0.375 -0.029
-1.613 -0.341 -0.633
-1.742 0.0 -0.025
-1.651 0.0 -0.629
-1.7 0.375 -0.029
-1.613 0.341 -0.633
-1.576 0.731 -0.042
-1.5 0.666 -0.644
-1.376 1.05 -0.061
-1.318 0.957 -0.662
-1.11 1.317 -0.088
-1.076 1.2 -0.686
-0.793 1.518 -0.119
-0.787 1.382 -0.715
-0.438 1.642 -0.155
-0.464 1.496 -0.747
-0.065 1.684 -0.192
-0.124 1.534 -0.781
0.308 1.642 -0.229
0.216 1.496 -0.815
0.662 1.518 -0.264
0.538 1.382 -0.847
0.98 1.317 -0.296
0.828 1.2 -0.876
1.245 1.05 -0.322
1.07 0.957 -0.9
1.445 0.731 -0.342
1.252 0.666 -0.918
1.569 0.375 -0.355
1.365 0.341 -0.929
1.907 0.0 0.656
1.874 0.347 0.656
1.874 0.173 0.956
1.874 -0.173 0.956
1.874 -0.347 0.656
1.874 -0.173 0.355
1.874 0.173 0.355
1.779 0.59 0.997
1.779 0.341 1.246
1.779 -0.0 1.337
1.779 -0.341 1.246
1.779 -0.59 0.997
1.779 -0.682 0.656
1.779 -0.59 0.315
1.779 -0.341 0.065
1.779 -0.0 -0.026
1.779 0.341 0.065
1.779 0.59 0.315
1.779 0.682 0.656
1.624 0.934 0.995
1.624 0.761 1.294
1.624 0.497 1.516
1.624 0.173 1.634
1.624 -0.173 1.634
1.624 -0.497 1.516
1.624 -0.761 1.294
1.624 -0.934 0.995
1.624 -0.994 0.656
1.624 -0.934 0.316
1.624 -0.761 0.017
1.624 0.761 0.017
1.624 0.934 0.316
1.624 0.994 0.656
1.414 1.224 0.999
1.414 1.086 1.316
1.414 0.868 1.585
1.414 0.585 1.785
1.414 0.259 1.901
1.414 -0.087 1.924
1.414 -0.426 1.854
1.414 -0.733 1.694
1.414 -0.986 1.458
1.414 -1.166 1.162
1.414 -1.26 0.829
1.414 -1.26 0.482
1.414 -1.166 0.149
1.414 -0.986 -0.147
1.414 1.086 -0.005
1.414 1.224 0.313
1.414 1.272 0.656
1.156 1.466 1.003
1.156 1.346 1.332
1.156 1.154 1.624
1.156 0.899 1.864
1.156 0.597 2.039
1.156 0.262 2.139
1.156 -0.088 2.159
1.156 -0.432 2.099
1.156 -0.753 1.96
1.156 -1.034 1.751
1.156 -1.258 1.483
1.156 -1.415 1.171
1.156 -1.496 0.83
1.156 -1.496 0.481
1.156 -1.415 0.14
1.156 1.346 -0.02
1.156 1.466 0.308
1.156 1.506 0.656
0.86 1.655 0.996
0.86 1.553 1.322
0.86 1.387 1.621
0.86 1.164 1.88
0.86 0.894 2.089
0.86 0.587 2.24
0.86 0.256 2.326
0.86 -0.086 2.343
0.86 -0.424 2.291
0.86 -0.744 2.173
0.86 -1.034 1.992
0.86 -1.282 1.756
0.86 -1.477 1.476
0.86 -1.612 1.161
0.86 -1.681 0.827
0.86 -1.681 0.485
0.86 -1.612 0.15
0.86 1.553 -0.011
0.86 1.655 0.315
0.86 1.69 0.656
0.536 1.783 0.999
0.536 1.685 1.33
0.536 1.527 1.637
0.536 1.314 1.908
0.536 1.053 2.134
0.536 0.754 2.307
0.536 0.428 2.42
0.536 0.086 2.469
0.536 -0.258 2.453
0.536 -0.594 2.371
0.536 -0.908 2.228
0.536 -1.189 2.028
0.536 -1.427 1.778
0.536 -1.614 1.487
0.536 -1.742 1.167
0.536 -1.807 0.828
0.536 -1.807 0.483
0.536 -1.742 0.144
0.536 1.685 -0.019
0.536 1.783 0.312
0.536 1.815 0.656
0.193 1.847 1.001
0.193 1.753 1.335
0.193 1.598 1.645
0.193 1.389 1.922
0.193 1.133 2.155
0.193 0.838 2.338
0.193 0.514 2.463
0.193 0.173 2.527
0.193 -0.173 2.527
0.193 -0.514 2.463
0.193 -0.838 2.338
0.193 -1.133 2.155
0.193 -1.389 1.922
0.193 -1.598 1.645
0.193 -1.753 1.335
0.193 -1.847 1.001
0.193 -1.879 0.656
0.193 -1.847 0.31
0.193 -1.753 -0.023
0.193 1.753 -0.023
0.193 1.847 0.31
0.193 1.879 0.656
-0.155 1.847 1.001
-0.155 1.753 1.335
-0.155 1.598 1.645
-0.155 1.389 1.922
-0.155 1.133 2.155
-0.155 0.838 2.338
-0.155 0.514 2.463
-0.155 0.173 2.527
-0.155 -0.173 2.527
-0.155 -0.514 2.463
-0.155 -0.838 2.338
-0.155 -1.133 2.155
-0.155 -1.389 1.922
-0.155 -1.598 1.645
-0.155 -1.753 1.335
-0.155 -1.847 1.001
-0.155 -1.879 0.656
-0.155 -1.847 0.31
-0.155 1.847 0.31
-0.155 1.879 0.656
-0.498 1.815 0.656
-0.498 1.783 0.999
-0.498 1.685 1.33
-0.498 1.527 1.637
-0.498 1.314 1.908
-0.498 1.053 2.134
-0.498 0.754 2.307
-0.498 0.428 2.42
-0.498 0.086 2.469
-0.498 -0.258 2.453
-0.498 -0.594 2.371
-0.498 -0.908 2.228
-0.498 -1.189 2.028
-0.498 -1.427 1.778
-0.498 -1.614 1.487
-0.498 -1.742 1.167
-0.498 -1.807 0.828
-0.498 -1.807 0.483
-0.498 -1.742 0.144
-0.498 1.783 0.312
-0.822 1.69 0.656
-0.822 1.655 0.996
-0.822 1.553 1.322
-0.822 1.387 1.621
-0.822 1.164 1.88
-0.822 0.894 2.089
-0.822 0.587 2.24
-0.822 0.256 2.326
-0.822 -0.086 2.343
-0.822 -0.424 2.291
-0.822 -0.744 2.173
-0.822 -1.034 1.992
-0.822 -1.282 1.756
-0.822 -1.477 1.476
-0.822 -1.612 1.161
-0.822 -1.681 0.827
-0.822 -1.681 0.485
-0.822 -1.612 0.15
-0.822 1.655 0.315
-1.118 1.506 0.656
-1.118 1.466 1.003
-1.118 1.346 1.332
-1.118 1.154 1.624
-1.118 0.899 1.864
-1.118 0.597 2.039
-1.118 0.262 2.139
-1.118 -0.088 2.159
-1.118 -0.432 2.099
-1.118 -0.753 1.96
-1.118 -1.034 1.751
-1.118 -1.258 1.483
-1.118 -1.415 1.171
-1.118 -1.496 0.83
-1.118 -1.496 0.481
-1.118 -1.415 0.14
-1.118 1.466 0.308
-1.376 1.272 0.656
-1.376 1.224 0.999
-1.376 1.086 1.316
-1.376 0.868 1.585
-1.376 0.585 1.785
-1.376 0.259 1.901
-1.376 -0.087 1.924
-1.376 -0.426 1.854
-1.376 -0.733 1.694
-1.376 -0.986 1.458
-1.376 -1.166 1.162
-1.376 -1.26 0.829
-1.376 -1.26 0.482
-1.376 -1.166 0.149
-1.376 1.224 0.313
-1.586 0.994 0.656
-1.586 0.934 0.995
-1.586 0.761 1.294
-1.586 0.497 1.516
-1.586 0.173 1.634
-1.586 -0.173 1.634
-1.586 -0.497 1.516
-1.586 -0.761 1.294
-1.586 -0.934 0.995
-1.586 -0.994 0.656
-1.586 -0.934 0.316
-1.586 0.934 0.316
-1.741 0.682 0.656
-1.741 0.59 0.997
-1.741 0.341 1.246
-1.741 -0.0 1.337
-1.741 -0.341 1.246
-1.741 -0.59 0.997
-1.741 -0.682 0.656
-1.741 -0.59 0.315
-1.741 0.59 0.315
-1.836 0.347 0.656
-1.836 0.173 0.956
-1.836 -0.173 0.956
-1.836 -0.347 0.656
-1.836 -0.173 0.355
-1.836 0.173 0.355
-1.868 -0.0 0.656
1.263 -0.333 -1.314
1.08 -0.577 -1.501
1.08 -0.262 -1.658
1.263 -0.0 -1.403
1.08 0.088 -1.69
1.263 0.333 -1.314
1.08 0.427 -1.594
1.08 0.707 -1.382
1.08 -0.814 -1.241
0.837 -1.081 -1.258
0.837 -0.88 -1.553
0.837 -0.6 -1.777
0.837 -0.267 -1.907
0.837 0.09 -1.934
0.837 0.438 -1.854
0.837 0.748 -1.675
0.837 0.992 -1.413
1.08 0.892 -1.083
0.837 1.147 -1.091
0.546 -1.286 -1.246
0.546 -1.119 -1.55
0.546 -0.882 -1.803
0.546 -0.589 -1.989
0.546 -0.259 -2.096
0.546 0.087 -2.117
0.546 0.427 -2.052
0.546 0.741 -1.905
0.546 1.008 -1.684
0.546 1.212 -1.403
0.546 1.34 -1.081
0.222 -1.406 -1.249
0.222 -1.25 -1.56
0.222 -1.027 -1.826
0.222 -0.748 -2.033
0.222 -0.429 -2.171
0.222 -0.087 -2.231
0.222 0.26 -2.211
0.222 0.593 -2.111
0.222 0.894 -1.938
0.222 1.146 -1.699
0.222 1.337 -1.409
0.222 1.456 -1.082
-0.12 -1.497 -1.079
-0.12 -1.383 -1.403
-0.12 -1.2 -1.694
-0.12 -0.957 -1.937
-0.12 -0.666 -2.12
-0.12 -0.342 -2.234
-0.12 0.0 -2.272
-0.12 0.342 -2.234
-0.12 0.666 -2.12
-0.12 0.957 -1.937
-0.12 1.2 -1.694
-0.12 1.383 -1.403
-0.12 1.497 -1.079
-0.461 -1.406 -1.249
-0.461 -1.25 -1.56
-0.461 -1.027 -1.826
-0.461 -0.748 -2.033
-0.461 -0.429 -2.171
-0.461 -0.087 -2.231
-0.461 0.26 -2.211
-0.461 0.593 -2.111
-0.461 0.894 -1.938
-0.461 1.146 -1.699
-0.461 1.337 -1.409
-0.461 1.456 -1.082
-0.786 -1.372 -0.911
-0.786 -1.286 -1.246
-0.786 -1.119 -1.55
-0.786 -0.882 -1.803
-0.786 -0.589 -1.989
-0.786 -0.259 -2.096
-0.786 0.087 -2.117
-0.786 0.427 -2.052
-0.786 0.741 -1.905
-0.786 1.008 -1.684
-0.786 1.212 -1.403
-0.786 1.34 -1.081
-1.077 -1.187 -0.916
-1.077 -1.081 -1.258
-1.077 -0.88 -1.553
-1.077 -0.6 -1.777
-1.077 -0.267 -1.907
-1.077 0.09 -1.934
-1.077 0.438 -1.854
-1.077 0.748 -1.675
-1.077 0.992 -1.413
-1.077 1.147 -1.091
-1.32 -0.941 -0.913
-1.32 -0.814 -1.241
-1.32 -0.577 -1.501
-1.32 -0.262 -1.658
-1.32 0.088 -1.69
-1.32 0.427 -1.594
-1.32 0.707 -1.382
-1.32 0.892 -1.083
-1.503 -0.577 -1.07
-1.503 -0.333 -1.314
-1.503 -0.0 -1.403
-1.503 0.333 -1.314
-1.503 0.577 -1.07
-1.616 -0.171 -1.033
-1.616 0.171 -1.033

CELLS 816 3264
3 0 1 2
3 2 1 3
3 1 4 3
3 3 4 5
3 4 6 5
3 5 6 7
3 6 8 7
3 7 8 9
3 8 10 9
3 9 10 11
3 10 12 11
3 11 12 13
3 12 14 13
3 13 14 15
3 14 16 15
3 15 16 17
3 16 18 17
3 17 18 19
3 18 20 19
3 19 20 21
3 20 22 21
3 21 22 23
3 22 24 23
3 23 24 25
3 24 26 25
3 25 26 27
3 26 28 27
3 27 28 29
3 28 30 29
3 29 30 31
3 30 32 31
3 31 32 33
3 32 34 33
3 33 34 35
3 34 36 35
3 35 36 37
3 36 38 37
3 37 38 39
3 38 40 39
3 39 40 41
3 40 42 41
3 41 42 43
3 42 44 43
3 43 44 45
3 44 46 45
3 45 46 47
3 46 48 47
3 47 48 49
3 48 50 49
3 49 50 51
3 50 52 51
3 51 52 53
3 52 54 53
3 53 54 55
3 54 0 55
3 55 0 2
3 56 57 58
3 56 58 59
3 56 59 60
3 56 60 61
3 56 61 62
3 56 62 57
3 58 57 63
3 58 63 64
3 58 64 65
3 59 58 65
3 59 65 66
3 59 66 67
3 60 59 67
3 60 67 68
3 60 68 69
3 61 60 69
3 61 69 70
3 61 70 71
3 62 61 71
3 62 71 72
3 62 72 73
3 57 62 73
3 57 73 74
3 57 74 63
3 63 74 75
3 63 75 76
3 64 63 76
3 64 76 77
3 64 77 78
3 65 64 78
3 65 78 79
3 66 65 79
3 66 79 80
3 66 80 81
3 67 66 81
3 67 81 82
3 68 67 82
3 68 82 83
3 68 83 84
3 69 68 84
3 69 84 85
3 70 69 85
3 73 72 86
3 73 86 87
3 74 73 87
3 74 87 88
3 74 88 75
3 75 88 89
3 75 89 90
3 76 75 90
3 76 90 91
3 77 76 91
3 77 91 92
3 78 77 92
3 78 92 93
3 78 93 94
3 79 78 94
3 79 94 95
3 80 79 95
3 80 95 96
3 81 80 96
3 81 96 97
3 81 97 98
3 82 81 98
3 82 98 99
3 83 82 99
3 83 99 100
3 84 83 100
3 84 100 101
3 85 84 101
3 85 101 102
3 87 86 103
3 87 103 104
3 88 87 104
3 88 104 105
3 88 105 89
3 89 105 106
3 89 106 107
3 90 89 107
3 90 107 108
3 91 90 108
3 91 108 109
3 92 91 109
3 92 109 110
3 93 92 110
3 93 110 111
3 94 93 111
3 94 111 112
3 94 112 113
3 95 94 113
3 95 113 114
3 96 95 114
3 96 114 115
3 97 96 115
3 97 115 116
3 98 97 116
3 98 116 117
3 99 98 117
3 99 117 118
3 99 118 119
3 100 99 119
3 100 119 120
3 101 100 120
3 104 103 121
3 104 121 122
3 105 104 122
3 105 122 123
3 105 123 106
3 106 123 124
3 106 124 125
3 107 106 125
3 107 125 126
3 108 107 126
3 108 126 127
3 109 108 127
3 109 127 128
3 110 109 128
3 110 128 129
3 111 110 129
3 111 129 130
[...]
CELL_DATA 816
SCALARS cell_data_0 double
LOOKUP_TABLE default
1.02609067639e-08
1.06753418876e-08
1.02886541618e-08
1.11292576475e-08
2.1616410676e-09
2.47359166031e-09
4.44008486909e-10
5.24525350402e-10
1.87445058912e-10
1.19685016317e-10
4.14984828408e-12
8.26848680642e-11
2.58542033391e-10
1.44546513373e-10
2.82639992275e-10
9.52640362267e-11
1.60005086826e-10
5.99322330689e-11
4.13607702175e-10
2.61535848153e-10
5.33938400968e-10
2.06363807384e-10
2.67947509094e-10
1.14049858224e-10
2.6888428517e-10
1.75923111445e-10
2.99415458404e-10
2.76113771595e-11
2.63829827726e-10
6.79702834688e-11
2.72069669306e-10
5.35444140266e-11
1.66454352555e-10
1.77614985868e-11
1.8295212877e-10
1.48268511534e-10
3.06061984322e-10
4.41718565457e-10
4.0092229218e-10
3.06660198174e-10
1.07583982068e-10
5.57189708737e-11
1.64576685906e-10
6.27052165606e-11
7.02127947781e-11
1.32731379869e-11
1.34697183344e-11
6.05774662823e-11
5.18289881641e-11
3.97372527669e-10
8.71433340719e-10
2.51498301574e-09
7.66040087173e-10
2.81891528851e-09
1.12176345613e-08
1.19186380317e-08
2.05089583289e-10
7.65682886426e-11
3.03085912145e-10
2.19353785939e-10
8.28493575889e-10
1.23167327571e-10
3.26909346792e-12
2.32402502075e-11
8.70259049363e-13
1.26228980003e-10
1.16618914454e-10
7.83527731018e-11
2.02312355643e-10
4.20644705507e-11
5.52336494957e-10
6.31367829375e-11
1.94120107397e-09
7.00725133835e-10
2.08755010065e-09
8.0440931359e-10
3.07392206556e-10
4.96662496428e-10
5.66479719803e-12
5.86554191513e-11
5.93204684439e-12
1.62413613626e-12
2.89306738254e-11
1.52061039187e-11
1.51165959104e-12
3.76787369747e-11
2.54362035307e-12
4.37264504887e-11
4.92475782187e-11
7.36759892316e-11
3.00827166783e-11
8.32189865813e-11
1.02865009615e-10
3.96996922956e-10
7.68877150221e-11
1.06752239576e-09
1.43834446876e-09
3.29589482282e-09
2.85424088456e-11
1.15580003324e-10
1.84283424647e-11
3.01252087067e-11
2.27262904448e-12
2.75360113619e-12
4.4212498502e-12
3.38756313122e-12
2.55321328631e-12
3.58537651814e-12
2.28547707265e-12
1.59040183539e-11
9.16055061121e-12
7.89666631371e-12
1.83805783264e-11
9.88580641027e-12
4.30005988495e-13
6.57246066691e-12
2.48036377022e-11
3.61726086367e-11
1.75455410116e-11
3.63549772673e-11
7.15618178242e-11
1.537711013e-10
4.18772782219e-10
4.85351322663e-11
1.28753496362e-09
1.95799415195e-09
1.2489347576e-09
5.30025347407e-11
2.91681562329e-11
1.60704531791e-11
1.54118250709e-11
7.69744208616e-12
5.69746797995e-12
1.67761234777e-12
1.88081270698e-12
3.91121972945e-12
9.36374753641e-13
1.06208094685e-12
3.6648663578e-12
2.26599732027e-12
2.9330211871e-12
1.01083418527e-12
4.87185848387e-12
4.27412775083e-12
1.37784556268e-12
7.96030439958e-13
5.5727127554e-12
8.52815263488e-12
1.36433905228e-12
6.191381084e-13
2.21588697138e-11
1.24614901403e-11
4.07160406219e-11
7.42258669986e-11
6.50384831679e-11
1.07542847074e-10
5.5087589591e-11
5.77240795532e-11
6.49581400841e-10
3.09447073135e-12
5.18231813416e-12
3.74824751676e-12
1.91425915694e-12
1.08847390884e-11
1.43677611143e-12
1.45182637953e-12
8.59954035383e-13
2.6542278964e-12
2.32604760354e-12
1.28636473957e-12
3.20071941289e-12
2.56310010292e-12
1.87478345251e-12
2.21111956534e-13
2.09552629103e-12
3.34770624884e-12
1.8302686713e-12
2.90131782544e-13
1.43235686155e-12
2.76794941692e-12
5.02104061619e-13
1.28872964304e-12
3.94963229888e-12
1.5705067975e-12
9.79531722835e-12
1.2085565048e-11
3.05703371331e-11
9.24428934359e-12
4.60188578768e-11
4.52474236736e-11
1.17262303225e-10
9.5324459292e-11
1.05362251162e-10
1.69638311892e-10
2.00581537035e-10
9.17359526838e-12
3.68264406355e-12
2.19143314756e-12
1.00414358475e-11
6.84573409177e-12
9.49532283764e-14
3.88066244966e-12
4.01742583275e-13
1.94067063309e-12
1.87707251571e-12
1.01281875657e-12
8.92081274194e-13
1.75695788041e-12
1.72764311095e-12
2.75821447652e-12
2.10518967557e-12
3.36263414802e-12
1.91495028505e-13
1.88900419591e-12
1.4429801403e-13
3.81913293704e-12
2.06015682837e-12
4.04692191454e-12
1.3336957667e-12
1.65694182586e-12
3.58495958346e-12
8.75385909524e-12
2.10535504242e-12
7.22290804078e-12
5.32582015645e-12
1.79224590694e-11
3.0676601294e-12
4.72578570489e-12
2.58248062745e-11
3.53277092342e-11
1.43623473871e-11
8.83779037311e-14
6.61853256011e-13
1.53426197733e-11
1.14570379803e-11
8.58234482629e-12
1.52857477146e-11
9.62334441685e-12
9.86525213258e-12
1.03317033066e-13
4.69787846818e-12
2.39426021347e-12
3.60907311902e-12
1.51709912956e-12
8.66656069281e-13
1.87778700275e-12
9.5259900284e-13
9.16270487307e-13
1.98301128806e-12
1.55414206159e-13
3.44490807236e-13
4.55574254138e-12
2.43954441217e-12
2.93783929828e-12
2.94393635594e-13
3.17199800663e-12
1.90275087662e-13
2.81475678139e-12
9.48989401872e-13
2.44268415549e-12
1.83211446046e-12
2.63076754162e-12
2.45931213789e-12
2.77655464661e-12
1.58340744916e-12
2.1964249515e-12
1.28401225132e-12
6.23691495121e-12
7.36114303591e-12
1.92295038256e-12
6.43976220862e-12
7.59747700003e-12
6.03317271604e-11
1.12041271456e-10
1.96120295282e-10
5.16874089004e-12
5.60918710245e-12
5.58212044541e-12
1.33719948714e-11
8.18998742264e-12
1.33741228946e-11
1.89645296597e-12
9.4429650812e-12
9.89130616624e-13
5.61335366053e-12
9.62850622377e-13
2.6295752497e-12
1.26795553598e-12
3.63787722529e-13
3.45548874896e-13
1.84367428967e-12
4.3210644756e-12
4.02110373893e-12
2.76663916259e-12
4.65289483415e-12
2.29892281738e-12
1.98429890501e-12
2.03104884197e-12
2.62465536764e-12
2.37547682747e-12
1.36633726168e-12
1.38468859701e-12
3.16488477683e-12
1.40299649851e-12
7.75782453731e-14
1.21072726276e-12
2.78571658855e-12
1.34644234072e-12
6.07143061315e-13
2.14590521091e-12
3.98927228013e-12
5.68450727298e-12
1.70619123115e-11
1.31236488914e-11
7.98875948429e-11
1.76341024802e-11
8.22544638386e-12
1.02063350613e-13
2.12762058776e-12
1.88918977739e-12
3.13834388493e-12
1.07463993429e-11
1.34152913994e-11
4.50199614113e-12
6.21324680163e-12
4.77950811431e-12
4.64952486545e-12
3.20783724616e-13
5.4137242967e-13
9.76151014877e-13
2.52940957295e-13
1.40914613518e-12
1.43525431901e-12
3.11855072415e-12
1.26694781461e-12
1.52349019577e-14
1.72670928621e-12
5.1600375166e-13
1.00219375231e-12
2.65797411992e-13
1.98177651567e-12
7.84613368306e-14
1.04396690521e-12
1.25615882683e-12
4.58072801872e-12
8.17706756336e-13
2.75430942975e-12
2.93919295738e-12
4.94998321953e-12
4.53907414748e-12
1.02389137522e-12
1.25320977784e-11
1.98314976133e-11
1.51477823165e-11
4.76198905762e-11
1.37544072437e-11
2.42848761605e-11
4.16259557347e-11
5.72725791148e-12
4.64778997887e-12
3.45628638878e-12
8.72856379982e-12
5.18467074018e-13
6.55290505273e-12
3.72577730388e-14
3.43794700218e-12
8.700801091e-13
1.21388511757e-12
8.97145854757e-13
2.41085439608e-12
1.62823634117e-12
1.86615954662e-12
4.18850109775e-13
1.36090474213e-12
7.79621051486e-13
2.4578631271e-12
2.02069131808e-12
2.69579460418e-12
2.1361660063e-16
2.85516329925e-13
6.53590720287e-13
3.15940719846e-12
1.30354397071e-13
2.20187928223e-12
1.53086999438e-12
4.83638911888e-12
2.9105429327e-12
4.60430914453e-12
4.16543810285e-12
4.88702459677e-11
1.3976193966e-11
1.47486791384e-10
1.04405985072e-10
1.67615173642e-11
4.59431622043e-11
7.83194074492e-12
3.75370123614e-12
3.449037983e-12
6.48349071704e-12
6.14418259937e-14
4.92391058628e-12
5.14005988058e-14
3.6513412195e-12
4.34090019074e-13
8.58065055057e-13
3.06221238837e-13
7.46207770121e-13
2.03781526742e-12
2.6342541133e-12
1.86927896861e-12
2.16665829439e-12
5.237266136e-14
5.95109770296e-13
1.16667229116e-12
2.11157113079e-12
2.20726358565e-12
1.00503478942e-12
3.20009234524e-12
1.46253618943e-13
1.70211050525e-12
4.46149881413e-12
8.77075047633e-12
1.00237238212e-11
2.41912224956e-11
2.30300111712e-11
1.8141284939e-10
1.0495378754e-10
3.52781299677e-11
7.19102599434e-11
1.40386406046e-11
1.07477670927e-11
4.21051450307e-12
3.98483977143e-12
1.03497013235e-12
4.59539147984e-12
8.03344099208e-13
3.65782559179e-12
4.14148523462e-13
2.70787890018e-12
1.50341068419e-13
2.65671855504e-13
5.29371109076e-13
3.66343891068e-12
1.89912092018e-12
1.60049001483e-12
2.13505777128e-12
1.3828106662e-12
2.17642861059e-12
1.37966902136e-12
4.79016858242e-13
5.11496709445e-12
1.83451580484e-11
2.44652823191e-11
6.34140662796e-11
5.24154425569e-12
2.32968117725e-10
1.04941825235e-10
3.79242121829e-11
8.28406601931e-11
5.89680128578e-12
1.54449316825e-11
3.15244086454e-12
1.35208779326e-12
1.58853482158e-12
3.8462995696e-12
2.04707320403e-12
4.99216474857e-13
2.95197693822e-13
8.25314220519e-13
1.80615302116e-12
3.37112914271e-12
2.65963637567e-12
1.01628126135e-12
5.16033058702e-13
9.65446793771e-13
9.87434963181e-13
1.34648249169e-11
2.84378033371e-12
7.51842457701e-11
6.48863875777e-11
1.7996543717e-10
1.04016228038e-10
7.26006550189e-11
7.90223341051e-11
4.68687690756e-12
1.74078407458e-11
4.1749870857e-12
1.21025203757e-12
1.08829476033e-12
1.02949215605e-13
2.69938573498e-13
4.4162198609e-13
1.35809921642e-12
1.20146329133e-12
5.79962280465e-12
1.43210063058e-11
1.6932798519e-11
7.17338292798e-11
4.53789664715e-11
1.20487538805e-10
1.38134831172e-10
5.63193195539e-11
8.57959780604e-11
1.1810191675e-11
2.26808962071e-11
5.51627869811e-12
2.66214010402e-11
4.68387124536e-12
2.35284348071e-11
9.57764867186e-12
8.82510450802e-11
5.10673162052e-11
1.82970168186e-10
1.76031213017e-10
5.19177769568e-11
1.06085804592e-10
2.73367269232e-11
1.0748299871e-10
6.7048715381e-11
1.21975687451e-10
6.33500124944e-11
3.19380055481e-10
6.98762154029e-11
3.28052107127e-10
6.42809217992e-11
3.32791335739e-10
7.80633737528e-11
2.70223366693e-10
2.17770029389e-11
2.11813414354e-10
3.92297119581e-11
1.87877864644e-10
5.4947307873e-11
1.45266199103e-10
1.44317545063e-10
3.81695697608e-11
4.69008179438e-11
1.99421048858e-10
1.29214390067e-10
2.35825159308e-10
9.61968822513e-12
2.37461167753e-11
1.26451839454e-11
1.73842467016e-11
8.4799829377e-13
1.87660982046e-11
1.82540389241e-10
1.13413293275e-09
5.37399828858e-10
1.71426152635e-11
3.76979614486e-10
1.15607072442e-09
6.77842613341e-09
3.66829820169e-09
7.17195021005e-09
4.8049641366e-09
1.80114535016e-10
9.59536814707e-10
1.41838787134e-10
3.54926628463e-10
1.39142508898e-10
4.31090325276e-11
1.78660089773e-12
2.79794898102e-11
1.50251869751e-11
3.42810564439e-12
2.6357227458e-11
3.75321463805e-11
8.19294488667e-11
1.14795450581e-10
1.47622658273e-10
6.26534615295e-11
1.65039587366e-10
2.22947480074e-10
2.1823617195e-10
5.42938056726e-11
2.45698127142e-10
6.32385295452e-11
2.54167854116e-10
7.58551701512e-11
2.50402858132e-10
2.38600512194e-11
1.0233743692e-08
7.84189299071e-09
4.06975002905e-09
1.63082099192e-08
1.35235793585e-08
8.92618133263e-09
1.26910796957e-08
1.08758220222e-08
6.84391641451e-10
3.39492217546e-09
6.92866518653e-09
2.58376762209e-09
2.64597381385e-09
1.50243710456e-09
5.00653581433e-09
1.65771410975e-09
2.89350521046e-09
2.10908979558e-09
3.30701195424e-09
2.26779357977e-09
2.74526815587e-12
6.62775578474e-10
2.85953238844e-10
1.72055711538e-09
1.96394122545e-10
3.99957314471e-10
3.8681354082e-10
1.54490457759e-10
5.64564610964e-11
9.71989491352e-11
8.3834200672e-10
3.36765763006e-10
3.45586119961e-10
1.87261608565e-10
1.66158481581e-09
1.27068458705e-09
1.32352276568e-09
4.91259491388e-11
6.97228501243e-11
8.6515098684e-12
4.76822546126e-12
7.23548467403e-11
4.62421068278e-11
1.4649538548e-10
8.77840590692e-11
1.90581742926e-10
2.50634448777e-11
6.52463745756e-11
2.4021232035e-11
3.28400854658e-11
9.42890494793e-12
7.75638441259e-11
3.59644052382e-11
6.76829087631e-11
2.30229675833e-11
1.3774475304e-11
1.01400404794e-11
3.17623687324e-11
3.94331271528e-11
6.93788476385e-11
5.79273364351e-11
4.35687778821e-12
1.0093452229e-10
1.72526662305e-11
8.51355768685e-11
2.38274787335e-11
3.99053277118e-11
1.25886220967e-12
1.44103056369e-11
1.15304725196e-11
3.95707321801e-12
9.02538214783e-14
1.23082260292e-11
6.11982735348e-13
3.90306177368e-11
5.23108646366e-12
4.77033305759e-11
1.39333851849e-11
4.13092874923e-12
4.58923879879e-11
4.79848020386e-11
1.52070455922e-11
4.40500602091e-13
2.08277402266e-12
6.12974748699e-12
1.92618791009e-11
1.06282377127e-10
4.58714821448e-12
5.78938058886e-11
3.24689006212e-11
2.51718612704e-11
2.94799067487e-11
4.86518451847e-12
3.65910744339e-11
1.06744574823e-11
7.72442550791e-12
2.94090508269e-11
2.17824662275e-11
5.82274141417e-11
5.14912202179e-11
4.05571927346e-11
5.45619687935e-11
5.13053592369e-11
5.65087165365e-11
1.22463985042e-11
1.89186567169e-10
4.05767693852e-11
5.02247676872e-11
9.82158801432e-11
6.33275255626e-12
4.45221279282e-11
3.70510860973e-12
6.63969833348e-11
3.79787578687e-12
4.34586981194e-11
2.37675070144e-11
6.4019386182e-12
2.39430055452e-11
9.78284809313e-12
2.19672459912e-11
3.45736501066e-11
1.77796621068e-11
2.70080667209e-11
1.51244900791e-12
4.10139189867e-11
1.22774442445e-10
9.87441046483e-11
1.37826955436e-10
1.04255467153e-10
1.40080161064e-10
6.96915997667e-11
1.15091060296e-11
5.2573738473e-11
1.63754337328e-11
2.67156371111e-11
2.72922706282e-11
3.4299543453e-11
7.69819805915e-11
6.44842466299e-11
2.43090247189e-11
7.33937952027e-11
4.06322641536e-11
3.38412488238e-11
1.25735908633e-11
9.71232965374e-11
7.90503836583e-11
1.50165126526e-10
1.99679006242e-10
2.49339569525e-11
3.48557167804e-11
4.37021919575e-11
4.6732595244e-11
4.30634342573e-11
9.99153894539e-12
2.92817694856e-11
1.64427418676e-11
3.07333430907e-11
8.45580596861e-11
1.26869093685e-10
3.96705087023e-11
1.80489319446e-10
1.95340520627e-10
1.17647649918e-11
3.92965866654e-11
5.74312244604e-11
4.33229815175e-11
4.87650857796e-11
9.74791403458e-11
3.952657949e-11
1.02607235687e-10
5.32380011949e-11
1.08864819961e-10
1.62942815078e-10
7.13059990031e-12
4.72226174108e-11
1.0359530808e-10
4.41526698973e-11
8.79089611583e-11
1.97930402189e-11
1.15718571493e-10
6.24682766215e-11
1.86572911562e-10
3.38471478594e-11
1.03539511159e-10
4.85047722956e-11
1.27276949677e-10
2.75366176568e-11
5.54123574554e-11
1.21087023202e-10
1.98706959454e-11
3.36075388026e-11
4.3966000766e-11
2.10072157756e-11
6.99800452006e-12
3.28129789825e-11
2.22920885526e-11
5.38549844277e-11
2.67118666869e-10
1.41594487725e-10
2.77666240037e-11
2.58567409607e-10
1.09949990028e-08
1.05539966843e-08
8.44220896391e-09
1.48291348998e-08
1.90341478158e-09
1.36760010129e-09
7.11642008509e-10
3.1412601631e-08
1.90246530891e-08
9.56113180224e-09
1.14931791034e-08
1.52226282078e-10
1.07872342457e-11
7.88050095888e-11
6.82795239462e-11
5.60534333096e-11
8.62560135745e-11
2.74253114064e-11
7.78490721168e-11
8.55981595067e-11
1.19196468014e-10
4.21849165209e-11
1.34492780055e-10
2.02570686061e-10
1.46533898416e-10
2.06204948008e-10
2.10026640833e-11
9.09787399175e-12
3.97818299925e-11
9.05129116528e-11
3.95104253075e-11
4.5669193821e-12
8.16567038291e-11

