# vtk DataFile Version 3.0
File Name: Molecule/methanol/methanol_12.0-0.vtk
ASCII
DATASET UNSTRUCTURED_GRID
FIELD FieldData 1
TIME 1 1 double
0.0
POINTS 601 double
1.611 0.0 -0.359
1.582 -0.31 -0.356
1.475 0.0 -0.634
1.448 -0.29 -0.632
1.403 0.0 -0.933
1.377 -0.282 -0.93
1.498 -0.608 -0.348
1.369 -0.57 -0.624
1.3 -0.554 -0.923
1.36 -0.887 -0.334
1.24 -0.83 -0.611
1.174 -0.808 -0.91
1.173 -1.135 -0.315
1.066 -1.062 -0.594
1.004 -1.034 -0.893
0.945 -1.344 -0.292
0.852 -1.258 -0.572
0.796 -1.224 -0.872
0.682 -1.508 -0.266
0.605 -1.411 -0.548
0.557 -1.374 -0.849
0.393 -1.62 -0.238
0.335 -1.517 -0.521
0.294 -1.476 -0.822
0.089 -1.677 -0.207
0.051 -1.57 -0.493
0.017 -1.528 -0.795
-0.22 -1.677 -0.176
-0.239 -1.57 -0.464
-0.265 -1.528 -0.767
-0.524 -1.62 -0.146
-0.523 -1.517 -0.435
-0.542 -1.476 -0.739
-0.813 -1.508 -0.117
-0.793 -1.411 -0.408
-0.805 -1.374 -0.713
-1.075 -1.344 -0.091
-1.039 -1.258 -0.384
-1.044 -1.224 -0.689
-1.304 -1.135 -0.069
-1.253 -1.062 -0.363
-1.252 -1.034 -0.668
-1.49 -0.887 -0.05
-1.428 -0.83 -0.345
-1.422 -0.808 -0.651
-1.628 -0.608 -0.036
-1.557 -0.57 -0.332
-1.548 -0.554 -0.639
-1.713 -0.31 -0.028
-1.636 -0.29 -0.324
-1.625 -0.282 -0.631
-1.742 0.0 -0.025
-1.663 0.0 -0.322
-1.651 0.0 -0.629
-1.713 0.31 -0.028
-1.636 0.29 -0.324
-1.625 0.282 -0.631
-1.628 0.608 -0.036
-1.557 0.57 -0.332
-1.548 0.554 -0.639
-1.49 0.887 -0.05
-1.428 0.83 -0.345
-1.422 0.808 -0.651
-1.304 1.135 -0.069
-1.253 1.062 -0.363
-1.252 1.034 -0.668
-1.075 1.344 -0.091
-1.039 1.258 -0.384
-1.044 1.224 -0.689
-0.813 1.508 -0.117
-0.793 1.411 -0.408
-0.805 1.374 -0.713
-0.524 1.62 -0.146
-0.523 1.517 -0.435
-0.542 1.476 -0.739
-0.22 1.677 -0.176
-0.239 1.57 -0.464
-0.265 1.528 -0.767
0.089 1.677 -0.207
0.051 1.57 -0.493
0.017 1.528 -0.795
0.393 1.62 -0.238
0.335 1.517 -0.521
0.294 1.476 -0.822
0.682 1.508 -0.266
0.605 1.411 -0.548
0.557 1.374 -0.849
0.945 1.344 -0.292
0.852 1.258 -0.572
0.796 1.224 -0.872
1.173 1.135 -0.315
1.066 1.062 -0.594
1.004 1.034 -0.893
1.36 0.887 -0.334
1.24 0.83 -0.611
1.174 0.808 -0.91
1.498 0.608 -0.348
1.369 0.57 -0.624
1.3 0.554 -0.923
1.582 0.31 -0.356
1.448 0.29 -0.632
1.377 0.282 -0.93
1.907 0.0 0.656
1.883 0.295 0.656
1.883 0.148 0.911
1.883 -0.148 0.911
1.883 -0.295 0.656
1.883 -0.148 0.4
1.883 0.148 0.4
1.814 0.505 0.947
1.814 0.292 1.161
1.814 -0.0 1.239
1.814 -0.292 1.161
1.814 -0.505 0.947
1.814 -0.583 0.656
1.814 -0.505 0.364
1.814 -0.292 0.15
1.814 -0.0 0.072
1.814 0.292 0.15
1.814 0.505 0.364
1.814 0.583 0.656
1.701 0.805 0.949
1.701 0.656 1.206
1.701 0.428 1.398
1.701 0.149 1.499
1.701 -0.149 1.499
1.701 -0.428 1.398
1.701 -0.656 1.206
1.701 -0.805 0.949
1.701 -0.857 0.656
1.701 -0.805 0.363
1.701 -0.656 0.105
1.701 -0.428 -0.087
1.701 -0.149 -0.188
1.701 0.149 -0.188
1.701 0.428 -0.087
1.701 0.656 0.105
1.701 0.805 0.363
1.701 0.857 0.656
1.546 1.072 0.943
1.546 0.961 1.21
1.546 0.784 1.44
1.546 0.555 1.616
1.546 0.287 1.727
1.546 0.0 1.765
1.546 -0.287 1.727
1.546 -0.555 1.616
1.546 -0.784 1.44
1.546 -0.961 1.21
1.546 -1.072 0.943
1.546 -1.109 0.656
1.546 -1.072 0.368
1.546 -0.961 0.101
1.546 -0.784 -0.129
1.546 0.784 -0.129
1.546 0.961 0.101
1.546 1.072 0.368
1.546 1.109 0.656
1.354 1.301 0.953
1.354 1.202 1.235
1.354 1.043 1.488
1.354 0.832 1.699
1.354 0.579 1.858
1.354 0.297 1.957
1.354 0.0 1.99
1.354 -0.297 1.957
1.354 -0.579 1.858
1.354 -0.832 1.699
1.354 -1.043 1.488
1.354 -1.202 1.235
1.354 -1.301 0.953
1.354 -1.335 0.656
1.354 -1.301 0.359
1.354 -1.202 0.077
1.354 -1.043 -0.177
1.354 1.043 -0.177
1.354 1.202 0.077
1.354 1.301 0.359
1.354 1.335 0.656
1.128 1.499 0.945
1.128 1.418 1.223
1.128 1.285 1.481
1.128 1.105 1.709
1.128 0.886 1.899
1.128 0.634 2.045
1.128 0.36 2.14
1.128 0.073 2.181
1.128 -0.217 2.167
1.128 -0.499 2.099
1.128 -0.764 1.978
1.128 -1.0 1.81
1.128 -1.2 1.6
1.128 -1.357 1.355
1.128 -1.465 1.086
1.128 -1.52 0.801
1.128 -1.52 0.51
1.128 -1.465 0.225
1.128 -1.357 -0.044
1.128 1.285 -0.17
1.128 1.418 0.088
1.128 1.499 0.367
1.128 1.527 0.656
0.876 1.656 0.948
0.876 1.58 1.231
0.876 1.456 1.496
0.876 1.288 1.737
0.876 1.081 1.944
0.876 0.841 2.112
0.876 0.575 2.236
0.876 0.292 2.312
0.876 0.0 2.337
0.876 -0.292 2.312
0.876 -0.575 2.236
0.876 -0.841 2.112
0.876 -1.081 1.944
0.876 -1.288 1.737
0.876 -1.456 1.496
0.876 -1.58 1.231
0.876 -1.656 0.948
0.876 -1.682 0.656
0.876 -1.656 0.364
0.876 -1.58 0.08
0.876 1.58 0.08
0.876 1.656 0.364
0.876 1.682 0.656
0.602 1.771 0.951
0.602 1.698 1.238
0.602 1.579 1.51
0.602 1.417 1.758
0.602 1.216 1.976
0.602 0.982 2.158
0.602 0.721 2.3
0.602 0.441 2.396
0.602 0.148 2.445
0.602 -0.148 2.445
0.602 -0.441 2.396
0.602 -0.721 2.3
0.602 -0.982 2.158
0.602 -1.216 1.976
0.602 -1.417 1.758
0.602 -1.579 1.51
0.602 -1.698 1.238
0.602 -1.771 0.951
0.602 -1.795 0.656
0.602 -1.771 0.36
0.602 -1.698 0.073
0.602 1.698 0.073
0.602 1.771 0.36
0.602 1.795 0.656
0.314 1.841 0.947
0.314 1.773 1.232
0.314 1.661 1.502
0.314 1.508 1.751
0.314 1.318 1.974
0.314 1.096 2.164
0.314 0.846 2.317
0.314 0.576 2.429
0.314 0.292 2.497
0.314 -0.0 2.52
0.314 -0.292 2.497
0.314 -0.576 2.429
0.314 -0.846 2.317
0.314 -1.096 2.164
0.314 -1.318 1.974
0.314 -1.508 1.751
0.314 -1.661 1.502
0.314 -1.773 1.232
0.314 -1.841 0.947
0.314 -1.864 0.656
0.314 -1.841 0.364
0.314 -1.773 0.08
0.314 1.773 0.08
0.314 1.841 0.364
0.314 1.864 0.656
0.019 1.865 0.944
0.019 1.8 1.225
0.019 1.692 1.493
0.019 1.544 1.742
0.019 1.36 1.964
0.019 1.144 2.157
0.019 0.902 2.314
0.019 0.638 2.432
0.019 0.359 2.509
0.019 0.072 2.542
0.019 -0.216 2.531
0.019 -0.5 2.476
0.019 -0.772 2.378
0.019 -1.026 2.24
0.019 -1.256 2.065
0.019 -1.456 1.857
0.019 -1.622 1.62
0.019 -1.751 1.361
0.019 -1.838 1.086
0.019 -1.882 0.8
0.019 -1.882 0.511
0.019 -1.838 0.226
0.019 -1.751 -0.05
0.019 1.8 0.086
0.019 1.865 0.367
0.019 1.888 0.656
-0.276 1.864 0.656
-0.276 1.841 0.947
-0.276 1.773 1.232
-0.276 1.661 1.502
-0.276 1.508 1.751
-0.276 1.318 1.974
-0.276 1.096 2.164
-0.276 0.846 2.317
-0.276 0.576 2.429
-0.276 0.292 2.497
-0.276 -0.0 2.52
-0.276 -0.292 2.497
-0.276 -0.576 2.429
-0.276 -0.846 2.317
-0.276 -1.096 2.164
-0.276 -1.318 1.974
-0.276 -1.508 1.751
-0.276 -1.661 1.502
-0.276 -1.773 1.232
-0.276 -1.841 0.947
-0.276 -1.864 0.656
-0.276 -1.841 0.364
-0.276 -1.773 0.08
-0.276 1.773 0.08
-0.276 1.841 0.364
-0.564 1.795 0.656
-0.564 1.771 0.951
-0.564 1.698 1.238
-0.564 1.579 1.51
-0.564 1.417 1.758
-0.564 1.216 1.976
-0.564 0.982 2.158
-0.564 0.721 2.3
-0.564 0.441 2.396
-0.564 0.148 2.445
-0.564 -0.148 2.445
-0.564 -0.441 2.396
-0.564 -0.721 2.3
-0.564 -0.982 2.158
-0.564 -1.216 1.976
-0.564 -1.417 1.758
-0.564 -1.579 1.51
-0.564 -1.698 1.238
-0.564 -1.771 0.951
-0.564 -1.795 0.656
-0.564 -1.771 0.36
-0.564 -1.698 0.073
-0.564 1.698 0.073
-0.564 1.771 0.36
-0.838 1.682 0.656
-0.838 1.656 0.948
-0.838 1.58 1.231
-0.838 1.456 1.496
-0.838 1.288 1.737
-0.838 1.081 1.944
-0.838 0.841 2.112
-0.838 0.575 2.236
-0.838 0.292 2.312
-0.838 0.0 2.337
-0.838 -0.292 2.312
-0.838 -0.575 2.236
-0.838 -0.841 2.112
-0.838 -1.081 1.944
-0.838 -1.288 1.737
-0.838 -1.456 1.496
-0.838 -1.58 1.231
-0.838 -1.656 0.948
-0.838 -1.682 0.656
-0.838 -1.656 0.364
-0.838 -1.58 0.08
-0.838 1.58 0.08
-0.838 1.656 0.364
-1.09 1.527 0.656
-1.09 1.499 0.945
-1.09 1.418 1.223
-1.09 1.285 1.481
-1.09 1.105 1.709
-1.09 0.886 1.899
-1.09 0.634 2.045
-1.09 0.36 2.14
-1.09 0.073 2.181
-1.09 -0.217 2.167
-1.09 -0.499 2.099
-1.09 -0.764 1.978
-1.09 -1.0 1.81
-1.09 -1.2 1.6
-1.09 -1.357 1.355
-1.09 -1.465 1.086
-1.09 -1.52 0.801
-1.09 -1.52 0.51
-1.09 -1.465 0.225
-1.09 1.418 0.088
-1.09 1.499 0.367
-1.316 1.335 0.656
-1.316 1.301 0.953
-1.316 1.202 1.235
-1.316 1.043 1.488
-1.316 0.832 1.699
-1.316 0.579 1.858
-1.316 0.297 1.957
-1.316 0.0 1.99
-1.316 -0.297 1.957
-1.316 -0.579 1.858
-1.316 -0.832 1.699
-1.316 -1.043 1.488
-1.316 -1.202 1.235
-1.316 -1.301 0.953
-1.316 -1.335 0.656
-1.316 -1.301 0.359
-1.316 -1.202 0.077
-1.316 1.202 0.077
-1.316 1.301 0.359
-1.508 1.109 0.656
-1.508 1.072 0.943
-1.508 0.961 1.21
-1.508 0.784 1.44
-1.508 0.555 1.616
-1.508 0.287 1.727
-1.508 0.0 1.765
-1.508 -0.287 1.727
-1.508 -0.555 1.616
-1.508 -0.784 1.44
-1.508 -0.961 1.21
-1.508 -1.072 0.943
-1.508 -1.109 0.656
-1.508 -1.072 0.368
-1.508 -0.961 0.101
-1.508 0.961 0.101
-1.508 1.072 0.368
-1.663 0.857 0.656
-1.663 0.805 0.949
-1.663 0.656 1.206
-1.663 0.428 1.398
-1.663 0.149 1.499
-1.663 -0.149 1.499
-1.663 -0.428 1.398
-1.663 -0.656 1.206
-1.663 -0.805 0.949
-1.663 -0.857 0.656
-1.663 -0.805 0.363
-1.663 0.805 0.363
-1.776 0.583 0.656
-1.776 0.505 0.947
-1.776 0.292 1.161
-1.776 -0.0 1.239
-1.776 -0.292 1.161
-1.776 -0.505 0.947
-1.776 -0.583 0.656
-1.776 -0.505 0.364
-1.776 0.505 0.364
-1.845 0.295 0.656
-1.845 0.148 0.911
-1.845 -0.148 0.911
-1.845 -0.295 0.656
-1.845 -0.148 0.4
-1.776 -0.292 0.15
-1.776 0.292 0.15
-1.845 0.148 0.4
-1.868 -0.0 0.656
1.298 -0.294 -1.246
1.157 -0.653 -1.285
1.157 -0.426 -1.476
1.157 -0.148 -1.577
1.298 -0.0 -1.325
1.157 0.148 -1.577
1.298 0.294 -1.246
1.157 0.426 -1.476
1.157 0.653 -1.285
0.966 -0.996 -1.17
0.966 -0.842 -1.422
0.966 -0.626 -1.624
0.966 -0.363 -1.76
0.966 -0.074 -1.82
0.966 0.221 -1.8
0.966 0.499 -1.701
0.966 0.741 -1.53
0.966 0.927 -1.301
0.733 -1.199 -1.174
0.733 -1.066 -1.439
0.733 -0.876 -1.666
0.733 -0.638 -1.843
0.733 -0.366 -1.96
0.733 -0.074 -2.011
0.733 0.222 -1.994
0.733 0.506 -1.909
0.733 0.762 -1.761
0.733 0.978 -1.558
0.733 1.141 -1.31
0.468 -1.387 -1.032
0.468 -1.296 -1.314
0.468 -1.147 -1.571
0.468 -0.949 -1.791
0.468 -0.709 -1.965
0.468 -0.438 -2.086
0.468 -0.148 -2.148
0.468 0.148 -2.148
0.468 0.438 -2.086
0.468 0.709 -1.965
0.468 0.949 -1.791
0.468 1.147 -1.571
0.468 1.296 -1.314
0.733 1.242 -1.032
0.468 1.387 -1.032
0.18 -1.477 -1.031
0.18 -1.391 -1.313
0.18 -1.252 -1.574
0.18 -1.065 -1.802
0.18 -0.836 -1.989
0.18 -0.576 -2.128
0.18 -0.294 -2.214
0.18 0.0 -2.243
0.18 0.294 -2.214
0.18 0.576 -2.128
0.18 0.836 -1.989
0.18 1.065 -1.802
0.18 1.252 -1.574
0.18 1.391 -1.313
0.18 1.477 -1.031
-0.12 -1.473 -1.17
-0.12 -1.364 -1.441
-0.12 -1.207 -1.686
-0.12 -1.005 -1.897
[...]
CELL_DATA 1198
SCALARS cell_data_0 double
LOOKUP_TABLE default
1.89439502498e-09
1.59809548817e-09
7.9841504733e-10
5.71157526622e-11
1.41759335731e-10
4.38719902111e-10
1.11063545428e-11
5.77838833889e-10
1.43600654615e-11
2.54332101992e-11
1.64214994739e-10
1.90731950792e-10
1.21150711634e-10
7.60220572011e-11
6.949511415e-12
2.53310332665e-11
6.7252974882e-12
1.97491343499e-11
1.03919477028e-10
7.44363829564e-11
1.85400351119e-12
7.39666536626e-12
1.53639476014e-11
1.02920458325e-12
1.36270798902e-11
1.3876912594e-11
2.14673548183e-11
5.16211166935e-11
4.61655329832e-11
1.25021529855e-11
4.95878106526e-11
8.35482667478e-11
7.11936898151e-11
2.2708595511e-11
7.31796059479e-11
7.74642559666e-11
1.1389851288e-10
1.43086441733e-11
8.44026716109e-11
8.7424613577e-11
1.20319365917e-10
4.47139783403e-11
6.82461100751e-11
1.33253062829e-10
1.1590361199e-10
2.7832511538e-11
1.12244129992e-10
1.70889133684e-10
1.12284768522e-10
7.77284892002e-11
6.54096866146e-11
2.41999581692e-10
2.42698993978e-10
1.50226976469e-10
1.96596343552e-10
2.60537563809e-10
2.04713173877e-10
2.28685421732e-11
1.44457055405e-10
1.53695018319e-10
1.79135652435e-10
9.0545239093e-11
1.31032068432e-10
1.18174137344e-10
2.06806867711e-10
2.25951850506e-11
1.38400978169e-10
1.19234857869e-10
2.07586148244e-10
8.84638062862e-11
1.35341379396e-10
1.09514321876e-10
1.99725393622e-10
3.80005146043e-11
1.39470727896e-10
1.14543496827e-10
1.67668314406e-10
8.36537826395e-11
1.08120643577e-10
1.8394454469e-10
2.49661133165e-10
6.42714630533e-11
1.88272543678e-10
1.85706571497e-10
2.09099636918e-10
5.89204404741e-11
9.50521418446e-11
8.98997803288e-11
1.29413008623e-10
1.1145613243e-11
8.88681718004e-11
9.65432464701e-11
9.99127643455e-11
3.25617986914e-11
9.4337444833e-11
9.60282789938e-11
1.04205213233e-10
1.52282856689e-11
6.88982885069e-11
8.50356491898e-11
7.37285032302e-11
9.75666667171e-12
7.32323692684e-11
7.72164938794e-11
3.56123171099e-11
1.68539115241e-11
1.66684885464e-11
7.65152546982e-11
2.07227491014e-11
6.76128735001e-12
4.87783398618e-11
2.9187460707e-11
1.33433083689e-12
8.9384808462e-14
6.98313423398e-12
8.42154588318e-12
3.06254005256e-11
2.14694524804e-11
4.96582518174e-11
5.09449243441e-11
2.72179221825e-11
3.50359684261e-11
1.47118724083e-10
1.46618306541e-10
3.05962060968e-10
2.9563688963e-11
6.72020082955e-10
2.86615797253e-10
4.22794274992e-10
1.41374558669e-10
8.03686649392e-11
2.77172769754e-10
2.2838073477e-10
9.66377214498e-10
4.47246830994e-10
5.94848095422e-10
1.39792972171e-11
4.12543629736e-12
1.14641544286e-11
6.07722115715e-12
1.54560174093e-11
1.40027386719e-12
7.32712149158e-12
5.40570274884e-13
1.69351066441e-15
5.58977603459e-12
2.47042985859e-12
2.32404569823e-13
6.24957408096e-12
2.99843058864e-12
1.20221158301e-11
1.64073382336e-11
7.04913137078e-11
1.12332637121e-10
3.17465238005e-11
1.65439088166e-11
3.52090313295e-11
7.06930193757e-12
9.72951971626e-12
7.75159171589e-12
1.61892917571e-13
4.50159017563e-13
2.67763370981e-12
6.31969760675e-13
2.56515623773e-12
4.2371701417e-12
9.55411232269e-13
6.84019997382e-13
2.35313425481e-12
1.40012093894e-12
2.78940212241e-12
6.48967755678e-12
4.65999616867e-12
1.17920712835e-11
8.39131966118e-12
3.64488891802e-11
2.84297421073e-11
7.11613753475e-11
1.67245194367e-12
1.55026580631e-10
2.99383766984e-11
2.20090678835e-10
7.68754572523e-11
1.01086998083e-10
9.19245977104e-12
1.48797648084e-11
5.813900394e-12
2.40587551296e-12
1.64366630045e-13
7.60292806562e-13
1.4958471087e-12
5.12255836089e-13
1.09850335321e-12
1.50876846804e-12
1.94247499438e-12
8.76074011808e-13
2.29966240105e-12
1.54364371077e-12
1.75574104473e-12
3.6413401575e-14
1.92093500338e-12
2.87809012966e-12
1.46838269055e-12
1.13284813261e-12
8.90256161132e-13
2.39698715891e-12
4.47337968982e-12
7.51191981122e-12
3.83261849089e-12
9.04364963993e-12
3.67004552062e-12
4.14169006123e-11
2.62606215509e-11
8.09740866094e-11
1.50038424216e-10
1.26690098014e-10
3.53570849223e-11
3.70610184951e-13
4.26198993601e-12
2.42152869775e-12
4.70806593924e-12
5.0516301873e-12
2.67576907491e-12
7.26551112974e-13
1.89392216433e-13
8.72947369148e-13
7.9495282426e-13
6.28939969669e-14
9.52903601128e-13
2.41990120503e-13
5.86027568654e-13
2.07671675501e-12
3.41924087104e-13
2.48825215496e-13
1.27820238722e-12
5.17028188564e-13
4.64847501954e-13
2.13512408272e-13
4.89895571085e-14
1.99284573709e-12
1.96886421066e-12
1.20183473442e-12
1.99671927877e-12
9.60786736392e-13
4.81881194739e-12
4.18597126362e-12
4.65939254629e-12
1.4877800192e-11
2.28806431761e-12
2.17022800895e-11
4.55256100739e-12
8.4042407835e-11
1.31231868562e-10
1.49583405306e-10
1.19841847786e-11
4.52071014145e-12
5.37244115777e-12
2.24258197612e-12
1.33823985048e-12
1.48647332933e-12
3.1475341713e-12
7.75547474033e-13
1.02988632704e-12
3.17076858405e-13
1.13333873269e-12
6.45393698489e-13
5.05740547729e-13
1.93779502834e-13
7.27773137439e-13
1.21962794796e-12
1.61777459629e-12
2.2990158752e-12
1.70651341861e-12
3.28046274467e-13
1.3330592405e-12
3.11839661924e-13
5.98447350338e-13
1.38079713705e-12
2.07795139113e-12
1.531963446e-12
1.87458348192e-12
9.30930823364e-13
1.51888378753e-12
2.77450943447e-12
2.41217845752e-12
1.58103218473e-12
2.94009437411e-13
2.32804678745e-12
1.93706526777e-13
7.42511557365e-12
2.34997017153e-12
1.18220446716e-11
1.66501928769e-11
1.06135674567e-11
3.86828073787e-11
7.17892141246e-11
1.26585701816e-11
3.22027766748e-12
1.85077240732e-12
8.48427824859e-13
1.02708823809e-12
3.50753144021e-12
3.9191073063e-12
5.4814088383e-13
1.25676907081e-12
3.46719895536e-13
1.11631731569e-12
5.63355143899e-13
1.37524016768e-13
6.22154939617e-13
8.7195705899e-13
2.36211744005e-13
5.41804352258e-13
8.81660684395e-13
3.09820609181e-13
5.50084948785e-13
6.29557730464e-13
9.61574424967e-13
8.45356860428e-14
3.75090651779e-13
4.32759481748e-13
3.3636973515e-13
1.39107809876e-12
7.44712825181e-13
1.62208489079e-12
4.56104679336e-13
1.45565311625e-12
9.28436196694e-13
1.72509631041e-12
4.48162397482e-13
1.37783640781e-12
1.0783575067e-12
1.86703158072e-12
5.00264134043e-13
2.60257580464e-12
1.86558435357e-12
8.04218279352e-12
5.31792857124e-12
1.50854854605e-12
1.48852118533e-12
1.0688042119e-11
1.66582893525e-13
2.88967815856e-12
1.8144092056e-14
3.36288271693e-12
3.93260036816e-12
3.29960087787e-13
2.05551133537e-12
1.7049338991e-13
3.9441497764e-13
3.5403647484e-14
5.2955571501e-13
1.56493912518e-13
1.68043160406e-13
4.06867247803e-13
1.11508243703e-13
9.00846736521e-13
5.91443990001e-13
7.97454243341e-13
2.84991869597e-13
3.51874388832e-13
4.93914205851e-13
8.60458346676e-14
3.51434443201e-13
2.81016263681e-13
6.4453462968e-13
1.23124097351e-12
2.75942127396e-13
1.32177111669e-12
3.81069742581e-13
1.74467511996e-13
4.30159429281e-13
6.22772640167e-13
7.258895088e-13
1.28875334081e-12
6.99905805765e-13
7.75359474316e-13
3.37241040757e-12
2.35260408547e-12
2.00852143351e-12
2.38830160557e-14
2.23086691397e-12
2.60685542639e-12
8.04247620487e-13
7.90298103406e-13
9.48360038491e-13
4.85802627072e-13
1.08245659359e-12
7.17030186521e-13
1.68987863404e-12
2.77883924523e-12
1.18083333051e-13
7.41649920772e-13
2.26481588284e-13
1.39332615923e-12
1.19685725033e-13
2.56179181008e-13
1.45945550287e-15
8.63346724077e-13
3.71515444558e-13
4.7392186113e-13
1.07315366001e-14
4.44161611818e-13
2.78201081627e-13
6.09308372071e-13
4.41516245629e-13
4.55081991555e-13
4.56137621638e-13
3.43985394562e-13
8.20309311217e-13
4.62593201745e-13
9.21495781413e-13
2.01013334854e-13
8.46873638356e-13
1.65212217504e-13
7.273224099e-13
1.49812108811e-13
4.07139689756e-13
3.25444899146e-13
1.79786048839e-13
2.31911743701e-13
8.14169049884e-13
2.15736536297e-12
5.74848665859e-13
2.00487559799e-12
2.6098614812e-13
2.2427485329e-12
1.52038579564e-12
2.92128564454e-13
8.13388076932e-13
2.05141774134e-14
2.11029113169e-12
1.49198000082e-12
4.00185494948e-13
1.39865898882e-12
1.18209486523e-12
1.82354795507e-12
3.14870615328e-12
6.87702954123e-13
1.05056344968e-12
8.10589030457e-13
7.09068080066e-13
6.15283015129e-13
2.55422644491e-13
6.68335928067e-13
2.01863902814e-14
3.77095728055e-13
1.53642616103e-13
4.33831788745e-13
2.06683464671e-13
2.63506645585e-13
3.44693909591e-13
1.52781751743e-13
2.78445052262e-13
1.89693189659e-13
3.33633182529e-14
1.28580071179e-13
1.13653030149e-13
5.35541874857e-17
1.55756650277e-13
6.37187266102e-14
2.48261006373e-13
1.2396288569e-13
2.41876978607e-13
5.58751427292e-15
2.26339257262e-13
3.1449224981e-13
1.50032583387e-13
2.32506579192e-13
8.88813201252e-13
4.74661584545e-13
7.08607771531e-13
5.39833045472e-13
8.95619730925e-13
3.17586022612e-13
1.40742864392e-13
2.03519994124e-13
1.11611255749e-12
2.49265957376e-12
1.69612661769e-11
1.98093271315e-11
2.87066029687e-11
4.65537974892e-13
4.1239181538e-13
1.64959412087e-13
1.17788972786e-12
1.43108504626e-12
4.76903939462e-13
7.44505180044e-13
8.69903634358e-13
1.094767049e-14
1.28080926667e-13
9.51986819902e-13
1.09271918741e-12
5.00866681359e-13
2.62554150908e-13
6.17104145363e-13
9.07347190846e-13
8.07112473127e-13
6.61658473873e-13
3.83464298158e-13
4.96388602701e-13
8.03966887158e-14
3.27846626949e-13
2.87457698365e-15
1.55467831364e-13
1.47304028345e-14
1.27432527538e-13
1.41924189796e-13
4.253537225e-15
4.42193112595e-13
2.13081027256e-14
1.05645621202e-13
4.62034174532e-13
2.87120770787e-13
2.87228903516e-13
1.08149509979e-13
1.74861397868e-13
5.79471467203e-13
9.03166936092e-13
8.98588174836e-13
4.41946784442e-13
5.00961753767e-13
8.30245177412e-13
4.83978419234e-13
3.49482396972e-15
1.90782805546e-13
9.78287227e-14
2.17335847709e-12
1.87267803472e-11
3.18546832689e-11
4.02103853163e-11
1.73356275873e-11
3.27593026971e-12
1.3558901127e-12
1.96498998339e-13
1.05094992666e-12
5.65817351279e-13
7.85881844879e-14
1.99966766448e-13
5.21378222761e-14
6.08299925561e-14
4.44003800858e-13
2.61385294675e-13
1.05207120583e-14
3.95508725583e-13
1.04617798932e-13
3.19527668815e-13
8.4864138897e-14
2.166002366e-14
8.71226183403e-14
6.88098587443e-14
2.1210978643e-13
1.93072705905e-13
1.39663669797e-13
3.93386789968e-13
8.60787624117e-15
7.19777554263e-13
1.45014377825e-13
7.80383588899e-13
9.03066995747e-14
1.50223152195e-13
2.02761297402e-13
5.37195663528e-13
2.43638347238e-13
7.28926925247e-13
2.9958551478e-15
4.96491353476e-13
3.48766936365e-14
7.69278803969e-13
1.87699364443e-16
2.49535118438e-13
8.53507068588e-14
5.06655737602e-13
3.80075435944e-13
6.54913112699e-13
3.54265559163e-13
1.13426403108e-11
3.44710896603e-11
3.76011683423e-11
1.51245539777e-11
1.29204678925e-12
1.4786563714e-12
2.56065977459e-13
2.12461321539e-13
2.92401674097e-13
2.97745871742e-13
3.93594718015e-13
3.37351152919e-14
4.99986955653e-14
3.63382028065e-13
2.50979228275e-13
1.72598301473e-13
3.1622688988e-13
9.94752847204e-14
1.41139023076e-13
2.39217174291e-13
6.34149526432e-14
4.08167282334e-13
4.04348722548e-13
3.00051923334e-13
3.21603649888e-13
1.81836942477e-14
7.34577805261e-13
1.10318293411e-14
5.50730983805e-13
6.46578173679e-13
4.20993925641e-13
8.92697078423e-15
2.12970300926e-13
7.27439030269e-13
3.49750942177e-13
1.24284069836e-13
7.81163564697e-13
5.536562706e-13
8.32775871374e-13
8.41558664869e-14
4.33808889885e-14
1.46181763818e-12
2.40301753701e-12
3.39571065672e-12
4.18604224808e-12
2.02605952977e-11
4.97165126972e-11
1.63092818769e-11
1.7618994556e-11
4.42920646591e-12
2.0221765348e-12
5.74093583956e-14
1.36444757733e-12
6.12629539888e-13
3.23697029797e-13
1.57829967874e-13
1.45959169204e-13
3.09597743755e-13
2.19481661891e-13
8.01259384723e-14
2.30448322933e-13
1.18916246793e-14
8.03552364586e-14
2.84568776124e-13
3.80235104981e-13
1.58274663579e-13
1.30042702777e-13
3.17480160728e-13
2.98717386424e-13
6.38891715826e-15
2.62154339181e-13
8.80974606197e-13
5.80133308189e-13
8.04636749731e-13
2.49757980142e-13
2.69345219577e-13
5.30224867399e-13
3.09462885059e-13
3.59243677249e-14
1.76523616097e-13
1.10116790069e-13
5.81356222538e-14
9.65102312375e-14
1.25853213369e-13
1.84948483782e-12
4.36728569945e-12
5.6569333101e-12
5.89542866314e-12
1.73009408574e-11
3.90043777969e-11
1.52554890636e-11
5.52312765659e-12
1.72272764568e-12
2.51754958384e-12
2.15247234317e-12
5.03431486853e-13
5.9636147845e-14
2.03822446137e-13
3.33375578998e-14
1.36692916385e-13
1.96989022069e-13
5.39185392427e-13
2.68307093667e-13
2.9779444032e-14
7.86089017491e-14
4.1024880332e-13
2.7708523343e-13
7.78107046082e-13
6.3455767078e-13
5.16215654237e-13
1.4346523408e-13
1.81220560651e-13
3.43807117076e-14
2.19026041605e-13
3.12985439289e-13
5.94049964042e-13
7.67990512854e-13
2.89840022799e-14
9.42039327742e-15
4.99016228996e-14
5.72462334762e-13
4.26049019203e-13
2.45623487882e-13
7.44025142182e-12
2.13603894387e-12
3.40987428369e-12
3.38842524402e-12
7.34016452118e-11
2.32845713217e-11
1.46552394281e-11
3.08100005364e-12
2.47391473518e-12
3.11238397421e-12
1.00943567049e-12
1.91983641918e-13
9.17968334148e-14
2.69204515774e-13
5.66446949242e-13
2.33070543119e-13
4.15600306897e-13
1.25794032465e-13
4.59702998962e-15
5.23397904908e-13
9.69283780913e-14
6.77784908607e-14
5.17627265421e-13
1.20187336337e-13
3.4343819122e-13
5.16940502522e-13
1.04639827175e-13
5.7993221369e-13
1.77060481058e-13
1.08649841495e-13
4.97528792857e-13
8.86683764051e-13
3.73416922913e-12
1.45567663725e-12
1.26703581643e-11
1.66144877575e-11
7.9333659392e-12
9.90670741661e-11
1.18395793637e-10
1.1834117291e-11
2.29865538225e-11
1.33473482741e-11
1.19472052149e-11
7.30188545684e-12
3.39868401097e-12
3.42300377337e-13
7.83346444671e-13
4.34651888636e-13
6.04586425954e-13
4.94757941584e-13
4.93578961206e-13
3.87778755237e-13
4.2589798893e-13
3.09058526141e-13
6.22993193448e-13
5.08673981562e-13
4.72514708869e-13
4.29239970219e-13
8.05703597946e-13
2.94911292307e-13
3.66182450979e-12
7.53511320625e-12
1.07600455266e-11
1.64703800444e-11
8.6641896897e-12
2.66571058128e-11
3.02518768915e-11
8.69177806314e-12
1.76164730175e-11
2.0814306806e-11
3.29876449532e-12
5.49808375428e-12
1.42386088053e-12
9.05460093475e-13
3.36209524522e-14
2.051436242e-13
5.78826198057e-14
2.30894963052e-13
3.12058921502e-14
8.69408325466e-13
1.44850683588e-12
5.54794414752e-12
3.30094971148e-12
2.17897071448e-11
7.26159265618e-12
2.66147580784e-11
2.02571679409e-11
6.7772405243e-12
3.46811828661e-13
7.93684575824e-12
9.92877581143e-12
1.41256276912e-11
4.41063166491e-13
1.52857406991e-11
2.45533688709e-11
3.57021251876e-11
6.78080740913e-11
8.79330638054e-11
2.04274847085e-10
7.42661399925e-11
4.8364030568e-12
3.24752054423e-11
3.81571583115e-12
2.24784761108e-11
1.12966692955e-11
5.50532641678e-11
1.67289926779e-10
5.75836293829e-11
1.43443053056e-11
5.07923886117e-11
1.95775257106e-11
5.27524592911e-11
1.3108097568e-10
1.20933830509e-10
7.04026349115e-11
1.35636587583e-10
5.83593644949e-12
5.4631895049e-11
6.22838333374e-11
3.62035397777e-11
2.94670800498e-11
8.30127089537e-12
1.93530156801e-12
5.41906863709e-11
5.61637667022e-12
7.30148483113e-11
2.59407990931e-12
7.73997092021e-11
1.63639980755e-11
3.84681847606e-11
6.80121558649e-12
3.33471758621e-11
3.02942743093e-12
1.06076615193e-11
3.69219898284e-13
4.11746060805e-12
1.76220730815e-11
3.47109408302e-11
5.75619399582e-11
5.05511073901e-13
1.32436255154e-11
6.27224599439e-11
4.38240132107e-11
3.08547595743e-10
2.75435778404e-11
1.00722738929e-10
1.69061082883e-10
2.6114600653e-10
2.22110891387e-10
5.76857469048e-10
1.5249791946e-10
1.61705282389e-10
6.38271006524e-11
7.68126908555e-11
2.93164281201e-11
1.44669047342e-11
4.75607058242e-15
4.35119044234e-12
4.43455435811e-12
3.70004844787e-13
6.53474123189e-12
6.01268512553e-12
3.55298461395e-11
1.62959978973e-11
5.94074703969e-11
1.25353243254e-11
7.34394109822e-11
1.36993777507e-12
4.56103002789e-11
2.44637634749e-12
1.3621014052e-11
4.14348776427e-11
1.39697512326e-11
8.1781472114e-11
2.5350957538e-11
7.41354960344e-11
4.39988230721e-11
7.15570563537e-12
1.2135939815e-10
1.42748407684e-11
9.23679279437e-11
9.83546607794e-11
5.044069404e-09
5.35652057327e-09
1.01904327154e-09
1.09724747556e-09
6.24358229773e-10
8.2215093286e-10
1.14955677308e-09
5.22607507625e-10
2.72523225393e-10
5.25114187963e-09
4.57756964157e-09
4.41795358713e-09
1.09060915458e-09
6.76111044558e-10
5.00206407375e-10
7.13481151659e-10
1.11615881096e-09
8.25705467858e-10
1.12802471376e-09
3.01788689193e-10
7.97863434282e-11
2.01524256518e-11
1.59246714152e-10
3.28307412685e-11
3.32471499409e-11
2.92907633539e-10
5.5318135676e-10
5.98609257774e-10
1.59452048365e-10
7.63698822682e-11
2.25941745582e-10
1.81843204674e-10
5.07470219452e-10
1.26927485329e-10
1.35729852454e-10
5.719361843e-11
7.69639014112e-11
9.01346491196e-12
3.78500824078e-12
2.65606376253e-11
1.27904768328e-11
6.48393169998e-11
7.15790235346e-11
1.65706846819e-10
5.42211930634e-11
3.93729662486e-11
7.48283937784e-11
2.32425793219e-11
1.17628994573e-10
1.15873332808e-10
6.93215117904e-11
1.49432715428e-11
3.54357672694e-11
2.34295319216e-11
1.29064341425e-11
1.41864284217e-11
3.89273494464e-11
7.96827556337e-12
1.28071043666e-11
4.09791928929e-11
3.97314693743e-11
3.75145101214e-11
2.21218599874e-11
2.42911060169e-11
1.74902570607e-11
1.88841401464e-11
2.9487794643e-11
2.42143698085e-13
6.30392026392e-12
4.34387540402e-11
1.83796068182e-11
3.50595791686e-11
7.76038668365e-12
2.84346561312e-11
1.3963692844e-11
2.45620039811e-11
1.06399710958e-11
1.2919852376e-11
4.83168397698e-12
6.13510627918e-12
4.48866068139e-12
3.37101730602e-12
1.14758742526e-11
3.15257828201e-11
3.86900180016e-11
5.82042230888e-12
7.17564192403e-11
1.0212328355e-11
3.95311641077e-11
7.84816088491e-11
4.76659295772e-12
2.63578317082e-11
1.58826151801e-11
2.30248591112e-11
1.71878150947e-11
4.23289657728e-12
3.67596900071e-12
1.71181937185e-11
8.93558525902e-12
2.22114400894e-11
1.36786028105e-12
5.72795974696e-12
8.62944194792e-12
5.92605010137e-12
2.8905252013e-12
8.2720787686e-12
4.20997076119e-12
7.91035941043e-12
1.67874338486e-12
1.53840623047e-11
7.43417088526e-12
2.40952017114e-12
2.21991965708e-11
3.42265041418e-11
4.83881122731e-11
6.76490072081e-11
5.10397393809e-11
9.08081193498e-12
3.44325886999e-11
2.45311333704e-11
8.87382886229e-12
5.35747389614e-12
2.15682574583e-11
1.59053158177e-11
3.17640669258e-12
2.41221472444e-11
3.08890170831e-11
3.35977210999e-11
3.20822164505e-11
1.56104119287e-11
8.53079661016e-12
5.34531699765e-13
3.52965412563e-12
2.1880702617e-12
3.87642369803e-12
4.48707994601e-12
5.45317536248e-12
1.52648343074e-11
2.07589570762e-11
3.15635688517e-11
3.15108301312e-11
6.04382827943e-12
2.15950819518e-11
4.42870565615e-11
6.44064391221e-11
6.72936797681e-11
1.2887943282e-11
3.15417710464e-11
7.35037701816e-12
1.41687474669e-11
1.35306395183e-11
2.33044334234e-11
2.69514131702e-11
6.27461841695e-12
3.34508984946e-11
2.04978310369e-12
1.76855978825e-12
1.12129302705e-11
1.75047901801e-11
1.1535148486e-11
2.15580380259e-11
1.02113328279e-11
1.37726870227e-11
6.96823825922e-14
6.38364016058e-12
9.37910377174e-12
1.81223298343e-11
1.70708214817e-13
5.54897538407e-12
8.69361888096e-11
1.69031662802e-11
4.28312540722e-11
1.11394050345e-10
3.23288837065e-11
4.41014813364e-11
3.05024111234e-11
4.65388389671e-11
2.33681164891e-11
1.90603611457e-11
2.80882450973e-11
2.99726845956e-11
7.36611956869e-12
1.7646637588e-11
3.08302886686e-11
7.79453031007e-12
2.58310548278e-11
1.21338955561e-11
6.94389455434e-12
2.0707994671e-11
1.65535385112e-11
1.67366239797e-11
8.53376727499e-12
2.79308301091e-11
2.66834695395e-12
1.70619441346e-11
7.80911254681e-12
8.26710338959e-11
1.87435108553e-10
7.55679077332e-12
7.69028584227e-11
1.98173222958e-11
2.87924236764e-11
3.08773516285e-11
3.33239572966e-11
5.67690318362e-11
3.90243128297e-11
4.06182590216e-11
2.04515109182e-11
1.94917075432e-11
2.05258364038e-11
3.3382396512e-11
1.63194236977e-11
1.93120620331e-11
2.05072728945e-11
7.61618210498e-12
8.9057287177e-12
2.31362982903e-11
1.55537513055e-11
4.57058708546e-11
1.15292806748e-10
2.75305264544e-11
2.11986379255e-11
1.85130868723e-11
5.32779833697e-12
3.20532877872e-11
3.06958321756e-11
5.92493133981e-11
4.70734745227e-11
1.03195024035e-11
2.42973722044e-12
3.83267209893e-11
5.10730155757e-11