# vtk DataFile Version 3.0
File Name: Molecule/methanol/methanol_16.0-0.vtk
ASCII
DATASET UNSTRUCTURED_GRID
FIELD FieldData 1
TIME 1 1 double
0.0
POINTS 779 double
1.611 0.0 -0.359
1.588 -0.277 -0.357
1.475 0.0 -0.634
1.454 -0.26 -0.632
1.403 0.0 -0.933
1.382 -0.253 -0.931
1.52 -0.547 -0.35
1.39 -0.512 -0.626
1.32 -0.498 -0.925
1.409 -0.802 -0.339
1.286 -0.75 -0.615
1.219 -0.73 -0.914
1.257 -1.035 -0.324
1.144 -0.968 -0.601
1.081 -0.942 -0.901
1.07 -1.239 -0.305
0.969 -1.16 -0.584
0.91 -1.129 -0.884
0.851 -1.41 -0.283
0.764 -1.32 -0.564
0.711 -1.285 -0.864
0.608 -1.543 -0.259
0.536 -1.444 -0.541
0.489 -1.405 -0.842
0.346 -1.633 -0.233
0.291 -1.529 -0.516
0.251 -1.487 -0.818
0.073 -1.679 -0.206
0.036 -1.571 -0.491
0.002 -1.529 -0.793
-0.204 -1.679 -0.178
-0.223 -1.571 -0.465
-0.25 -1.529 -0.768
-0.477 -1.633 -0.151
-0.479 -1.529 -0.44
-0.499 -1.487 -0.743
-0.739 -1.543 -0.125
-0.724 -1.444 -0.415
-0.737 -1.405 -0.72
-0.982 -1.41 -0.101
-0.952 -1.32 -0.393
-0.959 -1.285 -0.698
-1.201 -1.239 -0.079
-1.157 -1.16 -0.372
-1.158 -1.129 -0.678
-1.388 -1.035 -0.06
-1.332 -0.968 -0.355
-1.329 -0.942 -0.661
-1.54 -0.802 -0.045
-1.474 -0.75 -0.341
-1.467 -0.73 -0.647
-1.651 -0.547 -0.034
-1.578 -0.512 -0.33
-1.568 -0.498 -0.637
-1.719 -0.277 -0.027
-1.641 -0.26 -0.324
-1.63 -0.253 -0.631
-1.742 -0.0 -0.025
-1.663 -0.0 -0.322
-1.651 -0.0 -0.629
-1.719 0.277 -0.027
-1.641 0.26 -0.324
-1.63 0.253 -0.631
-1.651 0.547 -0.034
-1.578 0.512 -0.33
-1.568 0.498 -0.637
-1.54 0.802 -0.045
-1.474 0.75 -0.341
-1.467 0.73 -0.647
-1.388 1.035 -0.06
-1.332 0.968 -0.355
-1.329 0.942 -0.661
-1.201 1.239 -0.079
-1.157 1.16 -0.372
-1.158 1.129 -0.678
-0.982 1.41 -0.101
-0.952 1.32 -0.393
-0.959 1.285 -0.698
-0.739 1.543 -0.125
-0.724 1.444 -0.415
-0.737 1.405 -0.72
-0.477 1.633 -0.151
-0.479 1.529 -0.44
-0.499 1.487 -0.743
-0.204 1.679 -0.178
-0.223 1.571 -0.465
-0.25 1.529 -0.768
0.073 1.679 -0.206
0.036 1.571 -0.491
0.002 1.529 -0.793
0.346 1.633 -0.233
0.291 1.529 -0.516
0.251 1.487 -0.818
0.608 1.543 -0.259
0.536 1.444 -0.541
0.489 1.405 -0.842
0.851 1.41 -0.283
0.764 1.32 -0.564
0.711 1.285 -0.864
1.07 1.239 -0.305
0.969 1.16 -0.584
0.91 1.129 -0.884
1.257 1.035 -0.324
1.144 0.968 -0.601
1.081 0.942 -0.901
1.409 0.802 -0.339
1.286 0.75 -0.615
1.219 0.73 -0.914
1.52 0.547 -0.35
1.39 0.512 -0.626
1.32 0.498 -0.925
1.588 0.277 -0.357
1.454 0.26 -0.632
1.382 0.253 -0.931
1.907 0.0 0.656
1.889 0.257 0.656
1.889 0.129 0.878
1.889 -0.129 0.878
1.889 -0.257 0.656
1.889 -0.129 0.433
1.889 0.129 0.433
1.837 0.441 0.91
1.837 0.255 1.097
1.837 -0.0 1.165
1.837 -0.255 1.097
1.837 -0.441 0.91
1.837 -0.509 0.656
1.837 -0.441 0.401
1.837 -0.255 0.215
1.837 -0.0 0.146
1.837 0.255 0.215
1.837 0.441 0.401
1.837 0.509 0.656
1.75 0.707 0.913
1.75 0.576 1.139
1.75 0.376 1.307
1.75 0.131 1.396
1.75 -0.131 1.396
1.75 -0.376 1.307
1.75 -0.576 1.139
1.75 -0.707 0.913
1.75 -0.752 0.656
1.75 -0.707 0.398
1.75 -0.576 0.172
1.75 -0.376 0.004
1.75 -0.131 -0.085
1.75 0.131 -0.085
1.75 0.376 0.004
1.75 0.576 0.172
1.75 0.707 0.398
1.75 0.752 0.656
1.632 0.947 0.909
1.632 0.849 1.146
1.632 0.693 1.349
1.632 0.49 1.505
1.632 0.254 1.603
1.632 0.0 1.636
1.632 -0.254 1.603
1.632 -0.49 1.505
1.632 -0.693 1.349
1.632 -0.849 1.146
1.632 -0.947 0.909
1.632 -0.981 0.656
1.632 -0.947 0.402
1.632 -0.849 0.165
1.632 -0.693 -0.038
1.632 -0.49 -0.194
1.632 0.49 -0.194
1.632 0.693 -0.038
1.632 0.849 0.165
1.632 0.947 0.402
1.632 0.981 0.656
1.483 1.163 0.912
1.483 1.081 1.156
1.483 0.948 1.376
1.483 0.771 1.563
1.483 0.558 1.708
1.483 0.319 1.803
1.483 0.064 1.845
1.483 -0.193 1.831
1.483 -0.441 1.762
1.483 -0.668 1.642
1.483 -0.865 1.475
1.483 -1.021 1.27
1.483 -1.129 1.036
1.483 -1.184 0.784
1.483 -1.184 0.527
1.483 -1.129 0.275
1.483 -1.021 0.041
1.483 -0.865 -0.164
1.483 0.948 -0.065
1.483 1.081 0.155
1.483 1.163 0.4
1.483 1.191 0.656
1.307 1.356 0.909
1.307 1.286 1.154
1.307 1.173 1.382
1.307 1.019 1.585
1.307 0.831 1.756
1.307 0.615 1.89
1.307 0.378 1.982
1.307 0.127 2.029
1.307 -0.127 2.029
1.307 -0.378 1.982
1.307 -0.615 1.89
1.307 -0.831 1.756
1.307 -1.019 1.585
1.307 -1.173 1.382
1.307 -1.286 1.154
1.307 -1.356 0.909
1.307 -1.379 0.656
1.307 -1.356 0.402
1.307 -1.286 0.157
1.307 -1.173 -0.071
1.307 1.173 -0.071
1.307 1.286 0.157
1.307 1.356 0.402
1.307 1.379 0.656
1.107 1.521 0.909
1.107 1.458 1.156
1.107 1.356 1.39
1.107 1.217 1.603
1.107 1.044 1.79
1.107 0.843 1.947
1.107 0.619 2.068
1.107 0.379 2.15
1.107 0.127 2.192
1.107 -0.127 2.192
1.107 -0.379 2.15
1.107 -0.619 2.068
1.107 -0.843 1.947
1.107 -1.044 1.79
1.107 -1.217 1.603
1.107 -1.356 1.39
1.107 -1.458 1.156
1.107 -1.521 0.909
1.107 -1.542 0.656
1.107 -1.521 0.402
1.107 -1.458 0.155
1.107 -1.356 -0.078
1.107 1.356 -0.078
1.107 1.458 0.155
1.107 1.521 0.402
1.107 1.542 0.656
0.887 1.656 0.911
0.887 1.598 1.161
0.887 1.502 1.399
0.887 1.371 1.62
0.887 1.208 1.818
0.887 1.016 1.988
0.887 0.801 2.128
0.887 0.566 2.233
0.887 0.319 2.301
0.887 0.064 2.33
0.887 -0.192 2.32
0.887 -0.444 2.272
0.887 -0.686 2.185
0.887 -0.911 2.062
0.887 -1.115 1.907
0.887 -1.293 1.722
0.887 -1.441 1.512
0.887 -1.554 1.282
0.887 -1.632 1.037
0.887 -1.671 0.784
0.887 -1.671 0.527
0.887 -1.632 0.274
0.887 -1.554 0.029
0.887 1.502 -0.088
0.887 1.598 0.15
0.887 1.656 0.4
0.887 1.676 0.656
0.651 1.76 0.909
0.651 1.706 1.157
0.651 1.618 1.394
0.651 1.496 1.617
0.651 1.344 1.82
0.651 1.165 2.0
0.651 0.962 2.152
0.651 0.739 2.273
0.651 0.501 2.362
0.651 0.253 2.416
0.651 0.0 2.434
0.651 -0.253 2.416
0.651 -0.501 2.362
0.651 -0.739 2.273
0.651 -0.962 2.152
0.651 -1.165 2.0
0.651 -1.344 1.82
0.651 -1.496 1.617
0.651 -1.618 1.394
0.651 -1.706 1.157
0.651 -1.76 0.909
0.651 -1.779 0.656
0.651 -1.76 0.402
0.651 -1.706 0.155
0.651 -1.618 -0.083
0.651 1.618 -0.083
0.651 1.706 0.155
0.651 1.76 0.402
0.651 1.779 0.656
0.403 1.831 0.907
0.403 1.779 1.154
0.403 1.695 1.392
0.403 1.579 1.616
0.403 1.434 1.822
0.403 1.261 2.006
0.403 1.066 2.165
0.403 0.85 2.296
0.403 0.619 2.397
0.403 0.376 2.465
0.403 0.126 2.499
0.403 -0.126 2.499
0.403 -0.376 2.465
0.403 -0.619 2.397
0.403 -0.85 2.296
0.403 -1.066 2.165
0.403 -1.261 2.006
0.403 -1.434 1.822
0.403 -1.579 1.616
0.403 -1.695 1.392
0.403 -1.779 1.154
0.403 -1.831 0.907
0.403 -1.848 0.656
0.403 -1.831 0.404
0.403 -1.779 0.157
0.403 -1.695 -0.081
0.403 1.695 -0.081
0.403 1.779 0.157
0.403 1.831 0.404
0.403 1.848 0.656
0.148 1.866 0.912
0.148 1.813 1.164
0.148 1.727 1.406
0.148 1.609 1.634
0.148 1.461 1.844
0.148 1.285 2.032
0.148 1.086 2.194
0.148 0.866 2.328
0.148 0.631 2.43
0.148 0.383 2.499
0.148 0.129 2.534
0.148 -0.129 2.534
0.148 -0.383 2.499
0.148 -0.631 2.43
0.148 -0.866 2.328
0.148 -1.086 2.194
0.148 -1.285 2.032
0.148 -1.461 1.844
0.148 -1.609 1.634
0.148 -1.727 1.406
0.148 -1.813 1.164
0.148 -1.866 0.912
0.148 -1.883 0.656
0.148 -1.866 0.399
0.148 -1.813 0.148
0.148 1.813 0.148
0.148 1.866 0.399
0.148 1.883 0.656
-0.11 1.866 0.912
-0.11 1.813 1.164
-0.11 1.727 1.406
-0.11 1.609 1.634
-0.11 1.461 1.844
-0.11 1.285 2.032
-0.11 1.086 2.194
-0.11 0.866 2.328
-0.11 0.631 2.43
-0.11 0.383 2.499
-0.11 0.129 2.534
-0.11 -0.129 2.534
-0.11 -0.383 2.499
-0.11 -0.631 2.43
-0.11 -0.866 2.328
-0.11 -1.086 2.194
-0.11 -1.285 2.032
-0.11 -1.461 1.844
-0.11 -1.609 1.634
-0.11 -1.727 1.406
-0.11 -1.813 1.164
-0.11 -1.866 0.912
-0.11 -1.883 0.656
-0.11 -1.866 0.399
-0.11 -1.813 0.148
-0.11 1.813 0.148
-0.11 1.866 0.399
-0.11 1.883 0.656
-0.365 1.831 0.907
-0.365 1.779 1.154
-0.365 1.695 1.392
-0.365 1.579 1.616
-0.365 1.434 1.822
-0.365 1.261 2.006
-0.365 1.066 2.165
-0.365 0.85 2.296
-0.365 0.619 2.397
-0.365 0.376 2.465
-0.365 0.126 2.499
-0.365 -0.126 2.499
-0.365 -0.376 2.465
-0.365 -0.619 2.397
-0.365 -0.85 2.296
-0.365 -1.066 2.165
-0.365 -1.261 2.006
-0.365 -1.434 1.822
-0.365 -1.579 1.616
-0.365 -1.695 1.392
-0.365 -1.779 1.154
-0.365 -1.831 0.907
-0.365 -1.848 0.656
-0.365 -1.831 0.404
-0.365 -1.779 0.157
-0.365 1.779 0.157
-0.365 1.831 0.404
-0.365 1.848 0.656
-0.613 1.779 0.656
-0.613 1.76 0.909
-0.613 1.706 1.157
-0.613 1.618 1.394
-0.613 1.496 1.617
-0.613 1.344 1.82
-0.613 1.165 2.0
-0.613 0.962 2.152
-0.613 0.739 2.273
-0.613 0.501 2.362
-0.613 0.253 2.416
-0.613 0.0 2.434
-0.613 -0.253 2.416
-0.613 -0.501 2.362
-0.613 -0.739 2.273
-0.613 -0.962 2.152
-0.613 -1.165 2.0
-0.613 -1.344 1.82
-0.613 -1.496 1.617
-0.613 -1.618 1.394
-0.613 -1.706 1.157
-0.613 -1.76 0.909
-0.613 -1.779 0.656
-0.613 -1.76 0.402
-0.613 -1.706 0.155
-0.613 1.706 0.155
-0.613 1.76 0.402
-0.849 1.676 0.656
-0.849 1.656 0.911
-0.849 1.598 1.161
-0.849 1.502 1.399
-0.849 1.371 1.62
-0.849 1.208 1.818
-0.849 1.016 1.988
-0.849 0.801 2.128
-0.849 0.566 2.233
-0.849 0.319 2.301
-0.849 0.064 2.33
-0.849 -0.192 2.32
-0.849 -0.444 2.272
-0.849 -0.686 2.185
-0.849 -0.911 2.062
-0.849 -1.115 1.907
-0.849 -1.293 1.722
-0.849 -1.441 1.512
-0.849 -1.554 1.282
-0.849 -1.632 1.037
-0.849 -1.671 0.784
-0.849 -1.671 0.527
-0.849 -1.632 0.274
-0.849 -1.554 0.029
-0.849 1.598 0.15
-0.849 1.656 0.4
-1.069 1.542 0.656
-1.069 1.521 0.909
-1.069 1.458 1.156
-1.069 1.356 1.39
-1.069 1.217 1.603
-1.069 1.044 1.79
-1.069 0.843 1.947
-1.069 0.619 2.068
-1.069 0.379 2.15
-1.069 0.127 2.192
-1.069 -0.127 2.192
-1.069 -0.379 2.15
-1.069 -0.619 2.068
-1.069 -0.843 1.947
-1.069 -1.044 1.79
-1.069 -1.217 1.603
-1.069 -1.356 1.39
-1.069 -1.458 1.156
-1.069 -1.521 0.909
-1.069 -1.542 0.656
-1.069 -1.521 0.402
-1.069 -1.458 0.155
-1.069 1.458 0.155
-1.069 1.521 0.402
-1.269 1.379 0.656
-1.269 1.356 0.909
-1.269 1.286 1.154
-1.269 1.173 1.382
-1.269 1.019 1.585
-1.269 0.831 1.756
-1.269 0.615 1.89
-1.269 0.378 1.982
-1.269 0.127 2.029
-1.269 -0.127 2.029
-1.269 -0.378 1.982
-1.269 -0.615 1.89
-1.269 -0.831 1.756
-1.269 -1.019 1.585
-1.269 -1.173 1.382
-1.269 -1.286 1.154
-1.269 -1.356 0.909
-1.269 -1.379 0.656
-1.269 -1.356 0.402
-1.269 -1.286 0.157
-1.269 1.286 0.157
-1.269 1.356 0.402
-1.445 1.191 0.656
-1.445 1.163 0.912
-1.445 1.081 1.156
-1.445 0.948 1.376
-1.445 0.771 1.563
-1.445 0.558 1.708
-1.445 0.319 1.803
-1.445 0.064 1.845
-1.445 -0.193 1.831
[...]
CELL_DATA 1554
SCALARS cell_data_0 double
LOOKUP_TABLE default
7.49624703932e-10
6.69235030581e-10
5.72775601482e-10
2.41911735298e-10
1.21316360254e-10
9.70380540914e-11
5.99051251499e-11
3.66544551057e-10
1.67653209069e-10
3.39928968273e-11
2.8344317589e-11
2.39720480777e-10
7.90540252918e-11
2.15549969409e-12
1.03407655704e-10
1.46617785271e-10
4.61571579495e-12
1.90756623235e-11
5.38107262309e-11
6.67969488034e-11
1.62673312749e-12
5.35494918061e-12
3.09737930567e-11
2.31651361882e-11
2.80055857243e-12
3.43853587569e-12
3.14249895678e-12
1.82889820924e-11
2.52458385996e-11
3.76896706278e-11
1.79507345296e-11
8.32786437675e-11
5.77163090091e-11
1.47157421612e-11
7.36515482112e-11
1.04875868589e-10
3.55466074849e-11
1.5483934864e-11
3.18279941242e-11
7.29704106829e-11
6.33213776513e-11
1.54331985177e-11
7.75756155914e-11
1.14193586282e-10
8.48790318238e-11
4.41586602376e-11
6.39613322129e-11
1.38465560632e-10
1.41387996794e-10
8.11395289535e-11
9.40559865991e-11
2.21719124716e-10
1.43571008489e-10
6.4000022821e-11
1.26703792224e-10
2.14723788185e-10
1.01967460943e-10
7.12703541938e-11
5.06938173921e-11
2.48017093339e-10
1.28585088623e-10
7.97639980417e-11
1.73906348959e-10
2.75314039832e-10
2.2758266282e-10
1.30855307357e-10
1.19639754799e-10
1.47075560295e-10
1.99303835183e-10
2.37058964454e-11
1.26087902495e-10
1.39187439111e-10
2.56403633118e-10
1.58035831798e-10
1.48256683488e-10
1.52621042296e-10
2.54619575935e-10
2.70686799827e-11
1.4083352279e-10
1.38488746502e-10
2.11177467783e-10
1.23340130902e-10
1.22357781014e-10
1.33888317618e-10
1.97067251408e-10
6.40086289377e-12
1.00498056091e-10
1.26660193619e-10
1.36471251089e-10
6.74360685818e-11
1.08283381857e-10
1.41817724477e-10
1.68282768341e-10
3.60410300256e-11
1.06172180573e-10
1.28274919792e-10
1.31826419692e-10
4.4218814846e-11
7.92999093208e-11
1.80971252335e-10
1.26758435673e-10
5.4303878277e-11
1.31738079205e-10
1.66678710332e-10
1.05654368039e-10
3.2200912375e-11
5.87456349223e-11
1.09221828286e-10
6.99169058861e-11
2.4546338529e-11
6.56897944004e-11
1.02613154617e-10
4.63133045161e-11
1.34428669417e-11
4.68460703394e-11
9.36176069044e-11
5.74327942559e-11
4.26512209294e-11
4.42875030251e-11
7.3277511563e-11
3.1028854881e-11
6.79055676599e-12
1.46603392776e-11
4.17565655717e-11
6.56145608101e-12
2.99862890112e-12
1.54312346087e-11
8.81077671239e-12
2.53730948025e-12
1.03062154341e-11
1.10738410813e-11
4.43240229554e-12
1.6871392582e-11
4.75440644185e-12
1.35236095229e-12
1.13009665796e-11
4.83867315363e-11
1.64821808181e-11
6.11142617754e-11
1.40772241986e-10
2.75628105661e-10
7.0529950154e-11
3.53568510619e-10
3.24217374032e-10
5.03550877552e-10
1.36647197208e-10
2.8258192582e-10
6.93199175621e-10
3.95075805488e-10
5.26087726913e-10
1.01749378093e-10
3.07643314798e-11
4.61226779235e-12
2.70111023601e-12
4.24242511452e-12
3.02150135885e-13
4.74240308777e-12
1.50899676171e-12
6.73867859429e-13
5.45975731496e-13
6.57214708136e-13
1.5629535366e-12
2.55203790646e-13
1.90740710131e-12
1.57166421013e-12
3.92483777944e-12
8.02637684208e-12
3.06308376618e-12
4.13459474998e-11
4.2666287351e-11
8.87386926089e-12
3.6252783986e-13
4.8305181406e-12
5.24987539276e-12
3.65760462316e-13
1.73267988384e-12
1.83370987939e-13
3.43468630269e-14
1.5558720448e-12
1.3923650083e-12
1.65657502465e-12
1.96496795177e-12
1.94839303311e-13
1.103545555e-13
6.83522704656e-13
1.05641122059e-12
3.00448145495e-13
1.04145753803e-12
4.46967242909e-12
7.456170634e-12
1.86206569211e-11
2.07811648021e-11
4.06093659561e-11
1.30774568765e-10
8.34463587151e-11
8.73082085589e-11
3.73494191549e-11
2.39793269845e-11
1.14492865332e-10
8.12203920289e-11
1.27637077498e-11
4.05818456209e-12
3.04158032525e-12
2.65682826169e-13
1.94513952952e-12
9.84189838079e-13
9.72241927041e-13
1.75538470557e-13
3.85987324361e-13
6.1575513168e-13
3.59485897676e-13
4.9942463372e-13
1.16018897384e-12
6.13766136033e-13
6.31044898212e-13
1.30412946583e-13
5.16809012834e-13
1.28087178424e-12
4.25294354226e-13
6.77544888057e-13
1.65746618023e-12
3.04668226745e-12
3.60524028872e-12
9.24061472917e-13
1.60299526199e-12
2.95802370447e-12
1.53223703865e-11
4.44871267911e-12
2.32064121838e-11
7.62982198473e-11
8.78068143369e-11
1.89324711634e-10
5.58714438894e-10
1.52400749101e-11
6.27693153022e-12
1.6197253095e-11
1.02170249372e-12
2.99077280584e-12
2.97627276182e-12
2.97182093829e-12
2.00157672682e-12
5.95749501459e-13
1.76944862596e-13
4.9751690133e-13
5.25781357743e-13
4.00651966919e-13
9.5137723852e-13
3.88416282182e-13
1.31452949332e-13
5.47439468618e-13
1.03442617281e-14
5.30913499639e-13
7.17577282289e-13
8.75470856455e-13
1.84539887371e-13
1.06386551917e-13
3.97515487322e-14
4.59341505259e-13
1.00974599069e-12
1.31913188032e-13
1.34825390737e-12
1.86618796703e-14
1.11747152536e-12
1.55245263354e-12
2.98522100681e-12
1.51954832486e-12
5.78258800553e-12
3.574292962e-12
3.63548084331e-11
8.2991944145e-11
1.30961014873e-11
6.69653792842e-11
1.74613034045e-10
1.67986969632e-11
1.50996208156e-12
3.95495277266e-12
2.41703856653e-13
1.34685993318e-12
1.42138693413e-12
1.60036337951e-12
5.12773272899e-13
2.63108156884e-13
3.91798490113e-13
6.13887433547e-13
4.91302227689e-13
4.52803741674e-13
5.24625237206e-14
3.06130308632e-13
1.00407493541e-12
1.2016280871e-12
9.0759464456e-13
1.71703943498e-13
5.59767596149e-13
3.59546473634e-13
1.77508924586e-13
5.47225053318e-13
5.55123765994e-13
6.34969112468e-13
4.81358191649e-13
2.795657151e-13
6.1104597215e-13
1.38529274702e-14
5.45787400483e-13
1.67763313241e-12
1.21640436085e-12
3.38550973024e-13
1.14581944386e-12
8.20641331906e-13
5.27652010425e-12
4.53459427397e-12
4.30506619725e-12
5.75080561205e-12
2.25289859222e-11
2.47347322337e-11
4.55496626691e-11
8.29672573826e-11
4.87460778245e-12
6.46083411292e-13
1.56378897951e-12
4.65475338088e-13
1.38574914632e-12
2.80050277939e-12
1.83124576816e-12
5.59411896667e-13
4.1342198643e-13
7.70266413052e-14
5.5935059455e-13
4.7814446184e-13
2.58928782131e-13
3.97685361076e-13
4.75099835197e-13
2.97310549058e-13
3.64605270312e-13
4.7801246908e-13
2.50602612915e-13
2.81766178901e-13
7.20795198731e-14
2.26745607554e-13
9.43063954091e-13
3.10799924534e-13
1.85971302616e-14
3.41319231358e-13
5.3998021556e-13
1.14995621114e-12
1.07812433382e-12
1.0910154783e-12
8.86648266539e-13
1.20759107448e-12
4.36478838862e-13
3.26564181771e-13
2.28129168177e-13
3.72712456842e-13
1.07778613781e-12
1.58166467991e-12
2.70314370909e-12
2.0749982744e-12
2.8959857308e-14
5.71763913474e-12
1.59166347405e-12
6.28648657493e-12
9.6825963227e-13
1.07104251916e-11
9.54561865685e-12
9.53754584521e-12
1.65122572771e-13
2.51336867363e-12
1.47116925936e-12
1.01562804048e-12
1.32615553969e-12
1.6187770765e-12
1.80194698806e-12
3.45469095086e-13
4.4193526183e-13
6.01118016316e-14
1.84194368709e-14
7.92404278623e-15
5.00025925919e-14
3.0587314035e-13
2.35964979075e-13
2.83335816238e-13
3.35760918176e-14
3.06683211559e-13
3.33013024922e-13
6.20099204471e-13
1.6644557924e-13
5.03734768602e-13
4.78634668036e-13
7.76193843129e-13
1.26009407499e-13
1.80234843687e-13
2.33750640014e-13
4.21570935297e-14
7.28650491784e-13
2.79306437257e-13
4.99948665661e-13
4.1406349668e-13
7.55266348596e-13
7.39742665605e-13
2.8200872889e-13
4.85880821911e-13
3.02335955896e-13
3.45955536221e-13
2.40646220544e-13
2.59808232062e-13
4.00019455045e-13
6.52874139268e-13
3.64048283442e-14
6.6317865109e-13
2.5784588836e-12
6.90438220603e-13
3.39909440696e-12
6.07653174543e-12
2.80176242578e-12
2.73229363628e-12
9.32379258549e-13
1.55467947259e-12
1.67269520911e-13
4.29664953734e-13
1.33703396858e-13
4.18927080176e-14
1.31576209969e-12
1.6645647847e-12
1.04398091913e-13
6.92180875583e-13
1.10343166785e-13
6.41824668454e-13
6.92433707493e-14
3.53251014439e-14
7.39520471657e-14
3.15133313541e-13
2.88881044999e-13
5.68593090679e-13
2.94062457941e-13
3.9550942952e-13
1.77052775903e-13
6.47705451937e-13
3.87389483061e-13
6.17047803404e-13
4.3505318998e-13
6.81867606327e-13
4.21923436952e-13
6.21496244446e-13
3.6335285179e-14
4.0852164545e-13
5.36108237403e-13
1.13809373716e-13
8.4412461029e-13
3.31868282075e-13
1.14874676951e-12
5.40285606354e-13
1.34980939998e-14
5.82454897397e-13
4.37896358452e-13
4.15538558963e-13
4.56812055357e-13
1.91919973778e-13
7.74243580459e-13
1.9866978641e-13
7.55620986825e-13
5.63868640749e-13
1.02062358757e-12
1.60350649778e-12
7.50056353262e-13
2.24370602731e-12
2.29351549587e-13
6.80219788504e-13
2.44504942108e-13
1.8350041278e-12
3.01366685233e-15
1.72828017319e-12
1.46392631784e-12
3.18418996046e-13
2.25713763896e-13
1.18103881418e-12
2.18288666424e-12
1.0144273871e-12
6.09694183085e-17
4.09490253989e-13
1.23731440223e-13
4.46845495996e-13
3.98343906469e-13
1.59497035791e-13
3.82422585713e-13
2.19389306229e-13
2.48391724415e-13
9.20629138647e-16
3.49246123153e-13
3.40998991733e-13
6.81721038631e-13
3.86603783929e-13
5.76223460551e-13
3.74208865838e-13
6.95496040103e-13
4.64824276787e-13
6.53802115677e-13
4.83956682029e-13
7.32047900463e-13
6.17537083728e-13
8.88928810344e-13
7.07839968345e-13
8.73044444339e-13
6.76221118471e-13
4.22165589484e-13
2.1266530465e-13
5.41061651217e-14
6.03314589589e-13
9.1087396414e-13
9.15490237865e-13
9.97747055998e-13
6.5522813511e-13
9.27965467848e-13
7.47907110675e-13
1.19802402216e-12
2.05583927787e-14
1.21759017736e-13
1.14462432811e-12
2.9018509936e-12
8.91921151867e-13
1.04518090456e-12
1.67799156849e-12
2.55440052235e-13
4.96027265196e-13
3.2161431509e-12
4.80518805658e-12
2.00075851936e-11
1.10236288687e-11
3.02909436402e-13
3.31300951631e-14
5.43281414053e-13
9.13735908101e-13
4.89610529229e-13
2.55869721352e-13
9.13188100338e-13
7.11435644806e-16
6.0881817543e-13
6.3407274091e-15
1.60465868132e-13
4.86586061159e-14
5.98827951266e-13
3.30234510699e-13
2.39110746084e-13
1.13425906734e-13
8.55453846399e-14
2.22961422614e-13
2.65961499347e-13
4.08797653174e-14
2.98998660284e-13
1.95598081936e-13
4.71526210101e-13
7.60140165269e-14
2.25008369396e-13
1.2361733087e-14
2.6639996222e-13
2.90957809497e-14
3.35394692337e-13
2.09279239781e-14
3.0073713564e-13
1.29215382868e-13
1.0028066473e-14
3.79443869986e-13
1.18543271015e-13
2.02146005827e-13
2.86043173685e-13
2.60668207355e-13
3.27379306418e-13
3.48142604659e-14
7.26375480997e-13
1.91420252926e-13
5.90225517701e-13
5.57866692114e-14
7.69363352501e-13
1.20586303133e-12
2.61170096551e-13
1.6044480788e-12
4.61313142222e-14
1.56719942047e-12
8.30813092582e-13
5.35164350763e-13
1.89414432534e-13
2.35489701943e-12
7.03429282886e-12
1.85554531525e-12
9.27509341508e-13
8.20881697668e-13
1.59198612376e-12
1.56976077e-12
5.6294622126e-13
1.00374351174e-12
1.10832575209e-13
6.49602032405e-13
2.22138675074e-13
2.92349489957e-13
2.68628158462e-13
1.07006687951e-13
3.02515891197e-13
1.31743389611e-13
3.4277421282e-13
1.68992110408e-13
2.62563684066e-13
6.03879998785e-13
4.71748281043e-13
3.75796024329e-13
4.20921963932e-13
4.80663159082e-13
6.29756976013e-13
5.8624390296e-13
5.71613255884e-13
7.19316964508e-13
6.51332479443e-13
5.77123421437e-13
5.48843776188e-13
5.55752853023e-13
6.56569631428e-13
7.30952508985e-13
5.12158478995e-13
8.10945775151e-13
5.75120958325e-13
6.64692642836e-13
4.65320876971e-13
2.67281452759e-13
6.33580569478e-13
2.38497211519e-13
6.42312127352e-13
1.47219429924e-13
5.42469164238e-13
2.83878438422e-14
7.23417679281e-13
1.3709249136e-14
6.42504209212e-13
2.08488210005e-13
6.68041021097e-13
6.73755975375e-13
2.92757039543e-12
7.23216487291e-12
5.60340786541e-13
3.12859976653e-13
5.27962387104e-12
3.88725877506e-12
5.50286271539e-13
8.95784357824e-13
4.09185754828e-13
1.55169600655e-12
1.39534572953e-13
9.84018284122e-13
3.60009624857e-14
3.35462391174e-13
8.31179165451e-14
4.69857595826e-13
9.78271843128e-14
4.09416351053e-14
1.4073181785e-13
1.92366771468e-13
3.14337567353e-13
2.08824443187e-13
3.95177632196e-13
4.40690706738e-13
5.64785042094e-13
2.83407629412e-13
1.5298714106e-13
1.6652144998e-13
4.50463196809e-13
2.11885280334e-13
4.88515770733e-13
2.80835762323e-13
4.33480844586e-13
3.04144825698e-13
4.53812396409e-13
2.68509058615e-13
4.40068406389e-13
2.0029849781e-13
7.56779122441e-13
3.09055570916e-13
4.34197811759e-13
3.05918621215e-13
3.29459752585e-13
5.36832195377e-13
1.49752787414e-13
2.34393161534e-13
8.50202697803e-14
3.40179427799e-13
1.4788635549e-13
1.08771721995e-13
3.63563601327e-13
2.02143564494e-13
4.70021684198e-13
4.58669621839e-13
4.1982866299e-12
1.23837536363e-11
8.88599327849e-12
7.97419429069e-12
8.39096605816e-12
5.7863041613e-12
5.70886457923e-13
7.41736513476e-13
4.23899027312e-13
6.96778128227e-13
4.21085757508e-13
6.00943431826e-13
1.34223225458e-13
1.29825328024e-13
4.07447835009e-13
4.90945884813e-13
2.75556905705e-13
1.01333391886e-14
2.96533863785e-13
4.80559055662e-14
7.53266382126e-14
1.02469184784e-15
1.34469568606e-14
2.40245959095e-13
1.58568286465e-14
2.46164692751e-13
6.59822179474e-14
5.06702413741e-13
1.58951620371e-13
4.20077872134e-13
3.19772175238e-13
5.48799309777e-13
2.11626575905e-13
3.7284264836e-13
3.93591884862e-16
7.61336405231e-13
6.22846985493e-13
1.15436809794e-12
4.80990600658e-13
4.3583155521e-13
1.62726911306e-13
5.50777526453e-13
1.85587065059e-13
2.11889080216e-13
4.60221095585e-13
6.72116423371e-14
7.67867218301e-14
1.7573655745e-13
3.18106090482e-13
3.87642321172e-13
2.64385214972e-13
2.79622720001e-14
1.45414689047e-13
1.12147746484e-12
5.9602493607e-13
4.87815452288e-12
9.28267464335e-12
1.84114788635e-11
1.7442400852e-11
2.00781434272e-11
6.31227339862e-12
1.03885720734e-13
1.69868138593e-12
2.95577181999e-12
6.21742371162e-13
1.35970785546e-13
1.40344138592e-13
2.89878225961e-13
1.82011922014e-16
2.06168778627e-13
9.9383573042e-14
5.72631809999e-14
1.28948515867e-13
9.41552423161e-14
8.82204670871e-15
1.35522749295e-13
8.48829429623e-14
3.89578134326e-13
1.90388797084e-13
4.35949516711e-13
1.01111777521e-13
3.85817725283e-13
2.92260547401e-13
5.20520769257e-13
2.89125692188e-13
4.41685885933e-13
3.70509614347e-14
6.7234422244e-13
2.93155850996e-13
2.65950265242e-13
9.27750743738e-13
1.72098430352e-13
9.50211672215e-14
1.3354264142e-13
4.75245810367e-13
7.91456251092e-14
3.11645385594e-13
3.24897382429e-13
3.19805908114e-13
3.61183865047e-13
6.4706545122e-14
1.47140617062e-14
1.21514801044e-13
7.99214513252e-13
9.03533196924e-14
2.51686823347e-12
2.69619680193e-12
3.71976933285e-12
1.03283248941e-11
3.53022494309e-11
2.88469081265e-11
1.91159206441e-11
5.54514446676e-12
2.77893471744e-13
2.43299398362e-12
2.88472991441e-13
2.98733602941e-13
7.21836393343e-14
7.44009344516e-14
4.92018960857e-14
1.38582905851e-14
8.96279364854e-14
7.56294630726e-14
8.19603491036e-14
5.48928588829e-14
6.78474880536e-14
2.94654946317e-14
1.3148180388e-13
6.09561107856e-14
3.92849165134e-13
2.13454539325e-13
2.58572090707e-13
5.28370981144e-14
2.94172860956e-13
2.97322314121e-13
3.16160584233e-13
1.3336169402e-13
7.9542068987e-14
7.95667690356e-13
3.20008438443e-13
9.11913852633e-13
2.51412270812e-13
2.14912829681e-13
2.32636002703e-14
1.6871548263e-13
2.75356926977e-13
1.65127731513e-14
1.09773902057e-13
5.38314274657e-14
3.32446655799e-14
2.96870020581e-14
6.86760405741e-13
1.94525786467e-12
5.06903753201e-13
1.23740948646e-12
6.39793166333e-12
1.23583954485e-11
5.17357479631e-11
3.57662167883e-11
1.87745073772e-11
2.03996876601e-12
1.90424864968e-12
2.15269739774e-12
5.25970097737e-13
2.38595463339e-13
3.5413181813e-14
4.42950002681e-14
5.0912863497e-14
7.35612425089e-14
2.30576718536e-14
4.81132127913e-14
6.42916282364e-15
4.24980090709e-14
1.43268340053e-13
6.38564634053e-15
3.89657981356e-13
6.16166699324e-15
4.65066796879e-13
8.15854369356e-14
2.05067778335e-13
2.11528960943e-13
1.80373044498e-13
4.35108190052e-14
1.59304075399e-14
1.42483478332e-13
1.76202075039e-13
5.79691616777e-13
6.35119879859e-13
3.66254833532e-13
1.50518142245e-13
3.67368567032e-15
1.65951389451e-13
1.57126824472e-13
1.15161443595e-13
1.54031668201e-13
3.90674030604e-14
3.44144224831e-12
2.93561276254e-12
3.75064662358e-12
2.14666566994e-12
2.6251280206e-11
4.30064368428e-11
4.66653881576e-11
1.85753626327e-11
3.53473115429e-13
2.1573342466e-12
1.68769421458e-12
1.44027801358e-13
2.52252622659e-13
8.68031470355e-14
3.69870418222e-16
5.69979650381e-16
5.12483471746e-14
1.53770472484e-14
7.76958855308e-14
1.82169950204e-13
1.51279966834e-13
1.52609833145e-13
4.9031570171e-13
6.50043159639e-13
2.07700028225e-13
7.98531231162e-14
4.75289872504e-13
2.77631423092e-13
4.29282340858e-13
9.33824304059e-14
2.16504778481e-13
3.64203249404e-13
2.143009026e-14
3.54140710351e-14
1.92258591808e-13
8.14228583532e-14
4.36197926907e-15
1.49533937838e-13
5.19605761828e-13
1.00895707195e-12
3.3880078259e-12
2.08509348956e-12
1.05659918641e-11
1.19081417461e-11
1.36284398365e-11
5.86912922889e-11
1.98966802575e-11
5.46235844988e-12
2.42320609983e-12
9.67275186869e-13
9.71520838007e-14
3.7748567392e-13
6.30796739492e-14
3.52744365124e-14
1.11451099665e-14
1.07649789183e-14
1.21789659886e-13
1.1713700942e-14
2.30590229009e-14
1.58266657675e-13
2.58448580691e-14
2.71760696107e-14
3.27718673735e-13
1.7172552859e-14
1.57585130413e-13
1.67417830226e-13
6.85700592038e-14
6.34537447438e-14
1.66587912784e-13
6.78551671381e-14
7.9940177623e-14
5.09197781768e-14
9.30638700646e-13
1.58201250548e-12
2.09338722764e-12
3.48143930503e-12
5.45813170182e-12
2.6172954489e-12
1.43682940797e-11
3.07562446903e-11
2.47403913523e-11
7.20827513456e-12
5.75440666024e-12
2.72424478747e-13
7.58453401368e-13
4.17071058561e-13
3.77308310726e-13
7.98272600893e-14
8.80969068135e-15
2.47523315198e-15
1.34068021887e-13
2.56317281848e-14
6.97874962741e-14
1.54022144063e-13
6.73832173971e-15
1.20588148747e-14
1.57360540655e-13
3.93069336869e-14
7.65460324989e-14
8.30726464797e-14
4.2111757665e-13
7.48571631276e-13
9.5071472178e-13
3.02899555122e-12
4.26156567178e-12
1.23899454452e-11
9.08554181885e-12
7.92112538885e-11
5.78965746722e-11
1.53478909598e-11
1.03615661176e-11
2.2605314483e-12
1.4754303508e-13
8.30672116216e-13
1.20170502729e-12
4.10357366359e-13
3.08493574597e-13
2.83024343618e-13
4.07919498294e-13
5.91760273434e-14
4.96325277714e-13
3.06752884783e-13
1.72113578766e-13
5.07044967344e-13
1.29762671946e-12
1.21737172747e-12
1.50709871229e-13
1.21970080631e-11
1.75447447753e-11
4.16069134759e-11
6.43040680159e-11
6.24610776098e-11
5.21011053181e-11
7.57273205391e-12
8.4435830199e-12
1.40863461043e-12
3.16194577958e-12
1.07978663373e-12
2.15495627782e-14
1.32229723364e-12
7.39133290511e-13
3.7811639555e-13
6.85017049871e-12
6.4867835746e-12
1.24348056838e-11
7.01884075384e-11
7.48840522678e-11
8.17347947193e-11
7.72152255801e-11
1.9586255533e-11
1.27434987839e-11
6.01143986949e-12
1.79238946406e-12
2.80653798393e-12
2.71656482177e-12
5.74162167568e-12
5.50027454418e-11
5.52971876832e-11
4.81517464121e-12
4.5426698832e-11
4.4396269883e-11
1.58412186338e-10
1.54577503451e-10
3.87195439766e-11
5.35534979669e-11
6.47160236155e-11
7.66325028242e-11
6.33583432518e-11
3.34921953845e-11
8.18113788582e-12
2.18533395231e-11
4.79821679428e-11
1.28000061991e-12
8.7139090653e-11
9.62218119664e-12
3.29571587696e-11
1.01331878924e-11
7.78970798765e-11
1.87822407008e-11
6.50679752943e-11
1.39183531754e-11
3.28517397493e-11
1.04505850208e-11
1.16729145854e-11
1.52981629362e-11
6.39871796603e-12
4.6762710509e-12
6.84383866572e-12
5.85609798856e-13
2.76416501264e-13
3.43742028251e-12
5.01694049725e-12
1.15123423229e-11
2.32864568584e-11
3.84273048474e-11
9.97745702075e-11
4.3083134674e-11
1.02769121554e-10
2.27590106803e-10
3.52440999329e-10
1.69987139171e-10
5.87216755089e-10
4.4197322326e-10
6.48829273942e-11
3.88057144215e-11
5.72175246065e-10
4.86014288748e-10
6.30939559024e-11
3.4442271093e-10
1.31214757496e-10
3.21971088408e-10
5.44175447892e-11
6.93033798439e-11
4.18745265473e-11
3.79496880204e-11
4.29401149719e-12
3.13415032538e-12
3.59026008258e-12
1.33531856388e-12
3.65868552597e-13
1.09744902044e-12
1.31692482817e-11
2.2154518621e-11
6.32542713693e-13
9.66525117008e-12
2.56477241884e-11
4.76864535189e-12
5.92911454456e-11
8.56240619799e-12
7.27385670968e-11
4.84092271474e-12
7.89080167358e-11