# vtk DataFile Version 3.0
File Name: Molecule/methanol/methanol_10.0-0.vtk
ASCII
DATASET UNSTRUCTURED_GRID
FIELD FieldData 1
TIME 1 1 double
0.0
POINTS 491 double
1.611 0.0 -0.359
1.574 -0.35 -0.355
1.475 0.0 -0.634
1.441 -0.328 -0.631
1.403 0.0 -0.933
1.369 -0.319 -0.929
1.466 -0.685 -0.344
1.339 -0.641 -0.621
1.271 -0.624 -0.92
1.291 -0.99 -0.327
1.175 -0.927 -0.604
1.111 -0.902 -0.904
1.056 -1.252 -0.304
0.956 -1.172 -0.583
0.898 -1.14 -0.882
0.773 -1.459 -0.275
0.691 -1.366 -0.556
0.639 -1.329 -0.857
0.453 -1.602 -0.243
0.391 -1.5 -0.526
0.348 -1.459 -0.828
0.11 -1.675 -0.209
0.07 -1.568 -0.494
0.036 -1.526 -0.797
-0.241 -1.675 -0.174
-0.258 -1.568 -0.462
-0.284 -1.526 -0.765
-0.583 -1.602 -0.14
-0.579 -1.5 -0.43
-0.596 -1.459 -0.734
-0.903 -1.459 -0.108
-0.878 -1.366 -0.4
-0.887 -1.329 -0.705
-1.187 -1.252 -0.08
-1.144 -1.172 -0.374
-1.146 -1.14 -0.679
-1.421 -0.99 -0.057
-1.363 -0.927 -0.352
-1.359 -0.902 -0.658
-1.597 -0.685 -0.039
-1.527 -0.641 -0.335
-1.519 -0.624 -0.642
-1.705 -0.35 -0.029
-1.629 -0.328 -0.325
-1.617 -0.319 -0.632
-1.742 0.0 -0.025
-1.663 0.0 -0.322
-1.651 0.0 -0.629
-1.705 0.35 -0.029
-1.629 0.328 -0.325
-1.617 0.319 -0.632
-1.597 0.685 -0.039
-1.527 0.641 -0.335
-1.519 0.624 -0.642
-1.421 0.99 -0.057
-1.363 0.927 -0.352
-1.359 0.902 -0.658
-1.187 1.252 -0.08
-1.144 1.172 -0.374
-1.146 1.14 -0.679
-0.903 1.459 -0.108
-0.878 1.366 -0.4
-0.887 1.329 -0.705
-0.583 1.602 -0.14
-0.579 1.5 -0.43
-0.596 1.459 -0.734
-0.241 1.675 -0.174
-0.258 1.568 -0.462
-0.284 1.526 -0.765
0.11 1.675 -0.209
0.07 1.568 -0.494
0.036 1.526 -0.797
0.453 1.602 -0.243
0.391 1.5 -0.526
0.348 1.459 -0.828
0.773 1.459 -0.275
0.691 1.366 -0.556
0.639 1.329 -0.857
1.056 1.252 -0.304
0.956 1.172 -0.583
0.898 1.14 -0.882
1.291 0.99 -0.327
1.175 0.927 -0.604
1.111 0.902 -0.904
1.466 0.685 -0.344
1.339 0.641 -0.621
1.271 0.624 -0.92
1.574 0.35 -0.355
1.441 0.328 -0.631
1.369 0.319 -0.929
1.907 0.0 0.656
1.878 0.328 0.656
1.878 0.164 0.939
1.878 -0.164 0.939
1.878 -0.328 0.656
1.878 -0.164 0.372
1.878 0.164 0.372
1.793 0.559 0.978
1.793 0.323 1.215
1.793 -0.0 1.301
1.793 -0.323 1.215
1.793 -0.559 0.978
1.793 -0.646 0.656
1.793 -0.559 0.333
1.793 -0.323 0.097
1.793 -0.0 0.01
1.793 0.323 0.097
1.793 0.559 0.333
1.793 0.646 0.656
1.654 0.887 0.978
1.654 0.723 1.262
1.654 0.472 1.473
1.654 0.164 1.585
1.654 -0.164 1.585
1.654 -0.472 1.473
1.654 -0.723 1.262
1.654 -0.887 0.978
1.654 -0.944 0.656
1.654 -0.887 0.333
1.654 -0.723 0.049
1.654 -0.472 -0.162
1.654 0.472 -0.162
1.654 0.723 0.049
1.654 0.887 0.333
1.654 0.944 0.656
1.465 1.168 0.983
1.465 1.037 1.286
1.465 0.828 1.542
1.465 0.558 1.733
1.465 0.247 1.843
1.465 -0.083 1.866
1.465 -0.406 1.799
1.465 -0.7 1.647
1.465 -0.941 1.421
1.465 -1.113 1.139
1.465 -1.202 0.821
1.465 -1.202 0.49
1.465 -1.113 0.172
1.465 -0.941 -0.11
1.465 1.037 0.025
1.465 1.168 0.328
1.465 1.213 0.656
1.232 1.41 0.977
1.232 1.303 1.283
1.232 1.13 1.557
1.232 0.902 1.786
1.232 0.627 1.958
1.232 0.322 2.065
1.232 0.0 2.102
1.232 -0.322 2.065
1.232 -0.627 1.958
1.232 -0.902 1.786
1.232 -1.13 1.557
1.232 -1.303 1.283
1.232 -1.41 0.977
1.232 -1.446 0.656
1.232 -1.41 0.334
1.232 -1.303 0.028
1.232 1.303 0.028
1.232 1.41 0.334
1.232 1.446 0.656
0.963 1.603 0.974
0.963 1.51 1.281
0.963 1.359 1.564
0.963 1.156 1.811
0.963 0.908 2.015
0.963 0.626 2.166
0.963 0.319 2.259
0.963 0.0 2.29
0.963 -0.319 2.259
0.963 -0.626 2.166
0.963 -0.908 2.015
0.963 -1.156 1.811
0.963 -1.359 1.564
0.963 -1.51 1.281
0.963 -1.603 0.974
0.963 -1.635 0.656
0.963 -1.603 0.337
0.963 -1.51 0.03
0.963 1.51 0.03
0.963 1.603 0.337
0.963 1.635 0.656
0.665 1.743 0.982
0.665 1.654 1.296
0.665 1.508 1.589
0.665 1.311 1.851
0.665 1.069 2.071
0.665 0.791 2.243
0.665 0.485 2.362
0.665 0.164 2.422
0.665 -0.164 2.422
0.665 -0.485 2.362
0.665 -0.791 2.243
0.665 -1.069 2.071
0.665 -1.311 1.851
0.665 -1.508 1.589
0.665 -1.654 1.296
0.665 -1.743 0.982
0.665 -1.774 0.656
0.665 -1.743 0.33
0.665 -1.654 0.015
0.665 1.654 0.015
0.665 1.743 0.33
0.665 1.774 0.656
0.347 1.831 0.978
0.347 1.747 1.291
0.347 1.61 1.585
0.347 1.424 1.85
0.347 1.195 2.08
0.347 0.929 2.265
0.347 0.636 2.402
0.347 0.323 2.486
0.347 0.0 2.514
0.347 -0.323 2.486
0.347 -0.636 2.402
0.347 -0.929 2.265
0.347 -1.195 2.08
0.347 -1.424 1.85
0.347 -1.61 1.585
0.347 -1.747 1.291
0.347 -1.831 0.978
0.347 -1.859 0.656
0.347 -1.831 0.333
0.347 -1.747 0.02
0.347 1.747 0.02
0.347 1.831 0.333
0.347 1.859 0.656
0.019 1.86 0.975
0.019 1.78 1.284
0.019 1.648 1.576
0.019 1.469 1.841
0.019 1.247 2.072
0.019 0.99 2.263
0.019 0.704 2.407
0.019 0.398 2.501
0.019 0.08 2.541
0.019 -0.24 2.528
0.019 -0.553 2.46
0.019 -0.85 2.341
0.019 -1.122 2.173
0.019 -1.363 1.962
0.019 -1.564 1.713
0.019 -1.72 1.433
0.019 -1.827 1.131
0.019 -1.881 0.816
0.019 -1.881 0.496
0.019 -1.827 0.18
0.019 1.78 0.027
0.019 1.86 0.337
0.019 1.888 0.656
-0.309 1.859 0.656
-0.309 1.831 0.978
-0.309 1.747 1.291
-0.309 1.61 1.585
-0.309 1.424 1.85
-0.309 1.195 2.08
-0.309 0.929 2.265
-0.309 0.636 2.402
-0.309 0.323 2.486
-0.309 0.0 2.514
-0.309 -0.323 2.486
-0.309 -0.636 2.402
-0.309 -0.929 2.265
-0.309 -1.195 2.08
-0.309 -1.424 1.85
-0.309 -1.61 1.585
-0.309 -1.747 1.291
-0.309 -1.831 0.978
-0.309 -1.859 0.656
-0.309 -1.831 0.333
-0.309 -1.747 0.02
-0.309 1.747 0.02
-0.309 1.831 0.333
-0.627 1.774 0.656
-0.627 1.743 0.982
-0.627 1.654 1.296
-0.627 1.508 1.589
-0.627 1.311 1.851
-0.627 1.069 2.071
-0.627 0.791 2.243
-0.627 0.485 2.362
-0.627 0.164 2.422
-0.627 -0.164 2.422
-0.627 -0.485 2.362
-0.627 -0.791 2.243
-0.627 -1.069 2.071
-0.627 -1.311 1.851
-0.627 -1.508 1.589
-0.627 -1.654 1.296
-0.627 -1.743 0.982
-0.627 -1.774 0.656
-0.627 -1.743 0.33
-0.627 1.743 0.33
-0.925 1.635 0.656
-0.925 1.603 0.974
-0.925 1.51 1.281
-0.925 1.359 1.564
-0.925 1.156 1.811
-0.925 0.908 2.015
-0.925 0.626 2.166
-0.925 0.319 2.259
-0.925 0.0 2.29
-0.925 -0.319 2.259
-0.925 -0.626 2.166
-0.925 -0.908 2.015
-0.925 -1.156 1.811
-0.925 -1.359 1.564
-0.925 -1.51 1.281
-0.925 -1.603 0.974
-0.925 -1.635 0.656
-0.925 -1.603 0.337
-0.925 1.603 0.337
-1.194 1.446 0.656
-1.194 1.41 0.977
-1.194 1.303 1.283
-1.194 1.13 1.557
-1.194 0.902 1.786
-1.194 0.627 1.958
-1.194 0.322 2.065
-1.194 0.0 2.102
-1.194 -0.322 2.065
-1.194 -0.627 1.958
-1.194 -0.902 1.786
-1.194 -1.13 1.557
-1.194 -1.303 1.283
-1.194 -1.41 0.977
-1.194 -1.446 0.656
-1.194 -1.41 0.334
-1.194 1.41 0.334
-1.427 1.213 0.656
-1.427 1.168 0.983
-1.427 1.037 1.286
-1.427 0.828 1.542
-1.427 0.558 1.733
-1.427 0.247 1.843
-1.427 -0.083 1.866
-1.427 -0.406 1.799
-1.427 -0.7 1.647
-1.427 -0.941 1.421
-1.427 -1.113 1.139
-1.427 -1.202 0.821
-1.427 -1.202 0.49
-1.427 -1.113 0.172
-1.427 1.168 0.328
-1.616 0.944 0.656
-1.616 0.887 0.978
-1.616 0.723 1.262
-1.616 0.472 1.473
-1.616 0.164 1.585
-1.616 -0.164 1.585
-1.616 -0.472 1.473
-1.616 -0.723 1.262
-1.616 -0.887 0.978
-1.616 -0.944 0.656
-1.616 -0.887 0.333
-1.616 0.887 0.333
-1.755 0.646 0.656
-1.755 0.559 0.978
-1.755 0.323 1.215
-1.755 -0.0 1.301
-1.755 -0.323 1.215
-1.755 -0.559 0.978
-1.755 -0.646 0.656
-1.755 -0.559 0.333
-1.755 0.559 0.333
-1.84 0.328 0.656
-1.84 0.164 0.939
-1.84 -0.164 0.939
-1.84 -0.328 0.656
-1.84 -0.164 0.372
-1.84 0.164 0.372
-1.868 0.0 0.656
1.283 -0.312 -1.278
1.122 -0.544 -1.457
1.122 -0.247 -1.605
1.283 -0.0 -1.362
1.122 0.083 -1.636
1.283 0.312 -1.278
1.122 0.402 -1.545
1.122 0.667 -1.345
1.122 -0.767 -1.212
0.907 -1.095 -1.059
0.907 -0.96 -1.354
0.907 -0.747 -1.599
0.907 -0.474 -1.775
0.907 -0.162 -1.866
0.907 0.162 -1.866
0.907 0.474 -1.775
0.907 0.747 -1.599
0.907 0.96 -1.354
0.648 -1.236 -1.227
0.648 -1.075 -1.519
0.648 -0.847 -1.761
0.648 -0.566 -1.94
0.648 -0.249 -2.043
0.648 0.083 -2.064
0.648 0.411 -2.001
0.648 0.712 -1.86
0.648 0.969 -1.647
0.648 1.165 -1.378
0.907 1.095 -1.059
0.648 1.288 -1.068
0.355 -1.423 -1.062
0.355 -1.315 -1.371
0.355 -1.141 -1.647
0.355 -0.91 -1.879
0.355 -0.633 -2.052
0.355 -0.325 -2.16
0.355 0.0 -2.197
0.355 0.325 -2.16
0.355 0.633 -2.052
0.355 0.91 -1.879
0.355 1.141 -1.647
0.355 1.315 -1.371
0.355 1.423 -1.062
0.041 -1.447 -1.225
0.041 -1.308 -1.524
0.041 -1.108 -1.787
0.041 -0.857 -2.001
0.041 -0.565 -2.155
0.041 -0.247 -2.244
0.041 0.083 -2.262
0.041 0.408 -2.208
0.041 0.715 -2.086
0.041 0.988 -1.901
0.041 1.215 -1.661
0.041 1.385 -1.378
0.041 1.491 -1.065
-0.28 -1.447 -1.225
-0.28 -1.308 -1.524
-0.28 -1.108 -1.787
-0.28 -0.857 -2.001
-0.28 -0.565 -2.155
-0.28 -0.247 -2.244
-0.28 0.083 -2.262
-0.28 0.408 -2.208
-0.28 0.715 -2.086
-0.28 0.988 -1.901
-0.28 1.215 -1.661
-0.28 1.385 -1.378
-0.28 1.491 -1.065
-0.594 -1.423 -1.062
-0.594 -1.315 -1.371
-0.594 -1.141 -1.647
-0.594 -0.91 -1.879
-0.594 -0.633 -2.052
-0.594 -0.325 -2.16
-0.594 0.0 -2.197
-0.594 0.325 -2.16
-0.594 0.633 -2.052
-0.594 0.91 -1.879
-0.594 1.141 -1.647
-0.594 1.315 -1.371
-0.594 1.423 -1.062
-0.887 -1.319 -0.904
-0.887 -1.236 -1.227
-0.887 -1.075 -1.519
-0.887 -0.847 -1.761
-0.887 -0.566 -1.94
-0.887 -0.249 -2.043
-0.887 0.083 -2.064
-0.887 0.411 -2.001
-0.887 0.712 -1.86
-0.887 0.969 -1.647
-0.887 1.165 -1.378
-0.887 1.288 -1.068
-1.147 -1.095 -1.059
-1.147 -0.96 -1.354
-1.147 -0.747 -1.599
-1.147 -0.474 -1.775
-1.147 -0.162 -1.866
-1.147 0.162 -1.866
-1.147 0.474 -1.775
-1.147 0.747 -1.599
-1.147 0.96 -1.354
-1.147 1.095 -1.059
-1.362 -0.887 -0.903
-1.362 -0.767 -1.212
-1.362 -0.544 -1.457
-1.362 -0.247 -1.605
-1.362 0.083 -1.636
-1.362 0.402 -1.545
-1.362 0.667 -1.345
-1.362 0.841 -1.063
-1.522 -0.541 -1.049
-1.522 -0.312 -1.278
-1.522 -0.0 -1.362
-1.522 0.312 -1.278
-1.522 0.541 -1.049
-1.621 -0.16 -1.014
-1.621 0.16 -1.014

CELLS 978 3912
3 0 1 2
3 2 1 3
3 2 3 4
3 4 3 5
3 1 6 3
3 3 6 7
3 3 7 5
3 5 7 8
3 6 9 7
3 7 9 10
3 7 10 8
3 8 10 11
3 9 12 10
3 10 12 13
3 10 13 11
3 11 13 14
3 12 15 13
3 13 15 16
3 13 16 14
3 14 16 17
3 15 18 16
3 16 18 19
3 16 19 17
3 17 19 20
3 18 21 19
3 19 21 22
3 19 22 20
3 20 22 23
3 21 24 22
3 22 24 25
3 22 25 23
3 23 25 26
3 24 27 25
3 25 27 28
3 25 28 26
3 26 28 29
3 27 30 28
3 28 30 31
3 28 31 29
3 29 31 32
3 30 33 31
3 31 33 34
3 31 34 32
3 32 34 35
3 33 36 34
3 34 36 37
[...]
CELL_DATA 978
SCALARS cell_data_0 double
LOOKUP_TABLE default
3.15223105836e-09
2.61544503893e-09
9.16455738279e-10
1.45347645502e-09
6.01048083899e-12
1.60458841146e-09
1.82409770709e-09
5.06005393363e-10
2.93760197985e-10
2.37198653358e-10
4.0921209482e-10
4.89837206075e-10
1.10495803037e-10
6.67351943087e-11
1.4899996499e-10
5.17044602977e-11
2.09797859049e-13
1.90596333879e-11
9.79625113695e-11
5.10863164376e-11
1.67041674413e-11
1.46554139625e-11
2.05264915269e-11
3.74764666556e-11
3.86744424811e-11
6.68496864009e-13
1.08504833535e-10
9.8262002916e-11
4.36683525792e-11
6.36367837206e-12
2.71200193425e-11
1.23311765646e-11
5.95886891221e-11
1.9054149131e-11
7.49013990136e-11
1.34902688544e-10
1.42262903744e-11
1.47274970243e-11
7.98406223712e-11
2.63842862504e-10
1.20263551388e-10
8.77398112842e-11
2.09113830575e-10
2.54454191062e-10
1.47497429377e-10
5.33314140733e-11
4.55693691416e-11
2.52050265287e-10
1.37385957012e-10
3.46796721568e-11
2.618415715e-10
2.83585350004e-10
1.51109138709e-10
1.89527934252e-11
1.23786201027e-10
1.56794296133e-10
1.19971435821e-10
5.73828862887e-13
1.4189911403e-10
1.34828791325e-10
1.09781963385e-10
1.30336949572e-11
1.2588115121e-10
1.18971373102e-10
1.34247156339e-10
1.84060743333e-11
1.32532859284e-10
1.2824740928e-10
1.51331296093e-10
5.16902826105e-12
1.46053756372e-10
1.47718278503e-10
1.37588700339e-10
1.08096798792e-11
1.45576178118e-10
1.39270748333e-10
1.23601220771e-10
1.52776007859e-12
1.16645522721e-10
1.40565628194e-10
3.22178176186e-11
1.29363428043e-11
7.0806602979e-11
1.57567710012e-10
5.03782727862e-11
3.28971725897e-11
1.14363494661e-10
1.18908659761e-10
7.23673743479e-11
1.70556286565e-11
3.57501024356e-11
4.19334393873e-11
4.55450871852e-11
3.35454550398e-12
3.91694326893e-11
3.9294471638e-11
1.56017270547e-11
4.7062075443e-12
1.18201903086e-11
1.16574569499e-11
2.54182742161e-12
3.5095166758e-12
8.54839076342e-13
4.40621370687e-11
1.98623920577e-11
1.31899359314e-11
6.86365935639e-11
2.06800796105e-10
2.08976084278e-10
7.05319485334e-11
6.92913579724e-10
4.82496401251e-10
5.42509384278e-10
1.42926501131e-10
5.13057019829e-10
4.47035024016e-10
1.83905243168e-11
1.54480592633e-09
1.70561447893e-09
1.60311072477e-09
8.88593065931e-12
3.32722628459e-12
6.88683726993e-12
2.47217648695e-11
3.03489895062e-11
1.76283533018e-11
3.53497908314e-12
2.58706318491e-12
1.64057279313e-12
4.3968001364e-12
1.96804771235e-12
4.07914490529e-12
7.04400406267e-12
1.18416651279e-11
5.045286202e-11
1.06357777877e-10
6.2498086673e-11
9.94209428364e-11
1.55813062435e-10
8.74018973465e-11
1.00083697759e-11
2.16743711045e-11
9.08668132197e-12
2.95246502168e-12
2.91810097067e-13
1.81744511568e-13
2.69787734446e-12
2.25129096584e-12
4.15199307569e-12
3.79112473398e-12
1.02120487366e-12
1.30207997665e-12
1.33838414525e-13
2.20090020821e-12
7.38977138755e-12
6.23721494506e-12
1.49311680642e-11
2.10744862662e-11
3.45068871648e-12
7.71308790933e-11
8.10360243139e-13
7.13320629306e-11
5.95578433714e-10
3.81456848197e-12
1.47500406083e-11
1.39242560817e-11
1.0186367831e-11
2.34795347205e-12
1.34186861783e-12
1.12112739668e-12
1.56283448731e-12
7.65125113724e-13
2.85563960618e-12
2.69002079785e-12
1.44250991811e-12
2.96442736619e-13
8.34895980342e-13
1.87665651253e-12
1.28601189706e-12
3.51392632437e-13
1.92922864017e-12
1.76398682577e-12
9.1038252825e-13
4.44694768458e-12
8.83541598478e-13
2.33959602219e-12
3.47200164589e-12
6.71250189388e-12
2.13355272182e-11
5.07843311516e-11
4.61689066553e-11
2.01381733351e-10
2.11292741736e-10
1.09217924211e-11
6.64708264876e-12
9.7905369342e-12
5.74892530903e-12
9.92571073159e-13
8.56446292139e-13
8.05100807173e-13
1.48767076237e-12
1.76476209616e-12
1.59855324018e-13
1.24873771593e-12
3.01707753182e-12
3.15080352591e-12
1.22988369061e-12
4.61969016152e-13
2.31159890202e-12
1.77766886442e-12
1.81098014333e-13
1.93722048782e-12
2.20311006965e-12
7.71994953081e-13
1.76540965602e-12
6.11821558917e-12
4.55479831209e-12
1.66142468992e-12
4.71119111879e-13
4.01583220413e-12
2.31194206159e-12
3.02994357059e-12
2.12997362109e-11
1.83018243387e-11
6.49274104838e-11
7.79821523664e-11
8.28877381163e-11
1.63829796784e-11
8.04236013784e-13
7.3203591146e-12
3.5763812679e-12
1.7532102748e-12
5.68325716245e-13
1.06872707456e-13
1.04093319278e-12
1.01473334516e-12
1.19697159406e-12
1.3298953633e-12
9.05062976133e-13
9.82175013063e-13
1.46908096e-12
1.33466040726e-12
1.45750316874e-12
1.08891755318e-12
1.03115913063e-12
2.40665956139e-12
6.78696396182e-13
5.99512616772e-15
2.74265132868e-13
8.89069768988e-13
1.21770814675e-12
7.98507620052e-14
6.81738933738e-13
3.83611721543e-14
6.58517249515e-13
1.17687917081e-12
3.61606865661e-12
4.54143594179e-12
3.7198121153e-12
2.26205797329e-12
1.5521461919e-13
1.73154686488e-12
3.88545153089e-13
1.83511919653e-12
3.07516810922e-12
8.82156798028e-12
2.74721706037e-12
3.91728058494e-12
4.28820340998e-12
2.80865170455e-12
3.11015848718e-13
1.86405366876e-12
2.56656161036e-14
3.25886206594e-13
2.53150845707e-13
2.43165425516e-13
7.14139366138e-13
1.6488377259e-13
9.12145503822e-13
1.00272720699e-12
1.16372646261e-12
8.3306255524e-13
1.37326235573e-12
4.75702257417e-13
1.60140457508e-12
6.64064677398e-13
1.14244689227e-13
5.66092207916e-13
7.05808101106e-14
2.04198619828e-13
7.76748949135e-13
2.46919178759e-14
1.04455201159e-12
8.55943070924e-13
1.09523928144e-12
1.61370911497e-12
4.84666639952e-13
3.74030789886e-12
5.92379014832e-12
1.31259557055e-12
2.6446310868e-12
5.43905912556e-12
2.43143814082e-12
8.76019955667e-13
1.72265306099e-12
5.02903602583e-12
5.4439329259e-12
5.00146445062e-13
3.88071917344e-12
4.0168025806e-12
2.01873304005e-12
1.51110720327e-13
2.15227224396e-13
2.96190134242e-15
1.46358964702e-12
6.47439283851e-14
2.48700767456e-13
1.78178540712e-13
1.41431107441e-12
4.91399012771e-13
6.83758129682e-13
4.62024170252e-13
1.01165927305e-12
1.26498244845e-12
9.97846769351e-13
1.47717911847e-12
8.65267060106e-13
1.18525332814e-12
5.64938363621e-13
5.15585486764e-13
1.04654590801e-13
2.89001683679e-13
2.61373668526e-13
5.41639261698e-13
9.73641617911e-13
5.82934954431e-13
5.13568075624e-13
7.75894494273e-13
3.16161445829e-12
5.98255708816e-13
3.42063060312e-12
2.98452398034e-12
3.74542307731e-12
6.89613706589e-12
2.24343326739e-12
2.09706253518e-12
1.33233105606e-12
7.27492339685e-12
4.69247338059e-12
1.85285821618e-12
3.27082438214e-13
2.33563736971e-12
2.70874937008e-12
2.44285733287e-12
8.25679281766e-13
1.0068619964e-12
6.24755319886e-13
6.08319041559e-13
1.14331201471e-12
4.37573563222e-13
1.43191587328e-13
5.03850299528e-13
7.88407790698e-13
2.50641309854e-13
5.5529251563e-13
3.79881882369e-13
2.76122921364e-13
2.03094318014e-13
2.92142419353e-13
1.67014994968e-13
4.21404580673e-14
3.1064032574e-15
3.14339448402e-13
8.30735507659e-14
6.31703339485e-14
2.25336171649e-13
3.75729569631e-13
2.61071280569e-13
2.99673993989e-13
2.47455497787e-14
4.47701454566e-13
1.75942198553e-12
5.45669764653e-13
1.44255884808e-12
2.41543140648e-13
2.14579911009e-12
1.09884319998e-12
1.22654578057e-12
1.79126330262e-12
4.47876964809e-12
4.14503076303e-12
1.7487686678e-11
2.59859457861e-11
2.49766982249e-12
1.42361373085e-12
2.14471722755e-12
1.90002053734e-12
8.43002283575e-13
9.7739471119e-13
1.15636388621e-12
1.87094574509e-12
2.2390492687e-13
1.02448648539e-12
3.52747991495e-13
2.45802127699e-12
1.60192889184e-12
1.27790184553e-13
1.2385587692e-13
1.47051815447e-12
6.78945265712e-13
3.10430550619e-13
2.22871739163e-13
7.38295150196e-13
6.56285337022e-13
5.5191957858e-13
4.67940059426e-13
4.15390775656e-14
1.3433512076e-13
4.17770043559e-14
6.74836362036e-13
2.60218977224e-13
4.97624332239e-13
8.42330641809e-13
2.09196311417e-13
5.61641568294e-14
1.24833551833e-12
2.53023624751e-12
9.29365656389e-13
8.26159347999e-13
1.00952582802e-12
6.93696523344e-13
1.63091505386e-12
5.2332232532e-14
2.71110430465e-13
2.78519911365e-12
5.04497053829e-13
2.60212221822e-11
3.55143547924e-11
1.23016604858e-12
3.41569794981e-12
4.54422995378e-12
4.24873295178e-13
3.12031733604e-12
2.47538856858e-12
1.67235088057e-12
3.07334808323e-13
2.83882555748e-12
2.40062733851e-13
3.07084783389e-12
4.59391554225e-13
1.49578722816e-12
3.58674842612e-13
6.48809339314e-13
2.59058403279e-13
3.79559606159e-13
4.56940707313e-13
6.47749368848e-14
8.02843515429e-13
3.28915508439e-13
8.32579780977e-13
2.27409708622e-13
7.07797867367e-13
1.00676139119e-15
1.73018486989e-13
2.71981654544e-13
1.48045652569e-13
5.47155826136e-13
4.98059619162e-13
1.4464100635e-12
1.37336039106e-12
2.94625231313e-12
2.74640156401e-13
2.94144253962e-12
6.41732385737e-14
1.09957536482e-12
2.18731808507e-12
1.44673139421e-12
9.24625518056e-12
5.67119756613e-13
1.29833087675e-11
1.84319863936e-11
6.64369240799e-14
1.31938655263e-11
1.78370932082e-11
4.94274847371e-12
3.99347573529e-13
1.47259951449e-12
3.68559450244e-12
2.41806777581e-13
3.09399680068e-12
5.83877664448e-13
1.50623218015e-12
2.52443361186e-13
1.99259473066e-13
3.44382135265e-13
8.97423411995e-13
6.34938788979e-13
9.76215230086e-13
5.48085525581e-13
3.45913650217e-13
6.36843712741e-13
8.90854570931e-13
3.98271538634e-13
3.35155397086e-13
2.06431178184e-13
3.27435333955e-13
1.88991302901e-14
1.80905820598e-13
4.64614268177e-13
3.23396011571e-12
1.67285917874e-13
3.28700841343e-12
1.53643525673e-12
5.57419097882e-13
4.69856156917e-12
1.76899278788e-11
1.35648760513e-11
8.09355074883e-12
1.12671771067e-11
1.28684449553e-11
2.38969247496e-11
3.78549515974e-13
3.86747295632e-12
1.72818133545e-12
2.07886156887e-12
2.98155690203e-13
2.21511061587e-12
1.25730541767e-13
1.24439613701e-12
1.18500111828e-13
5.48973310686e-13
1.33411374208e-12
7.14356862044e-13
4.12939691389e-13
4.63876860298e-13
4.64273842591e-13
2.7960920115e-13
7.95729772828e-13
4.45541141464e-13
5.46971752827e-13
9.19797131455e-13
7.96799523785e-13
1.22629396024e-12
2.84731567425e-14
2.88902460572e-13
1.02669487264e-12
1.15268297459e-12
3.44330531999e-12
1.48600782319e-13
2.17481573406e-11
3.36338772743e-11
1.47731053909e-12
9.04167609717e-12
3.39733801944e-11
2.1441693311e-11
1.80515964949e-12
5.40432595651e-12
1.38239220946e-12
9.21489720131e-13
4.17851841266e-13
1.24554619392e-12
4.91784897013e-13
1.30524120495e-12
7.10158527571e-14
1.97463392833e-12
1.17841977641e-12
1.50281207303e-13
1.77976226522e-13
1.08669582405e-12
9.5167204839e-13
9.51169346843e-13
9.30000932066e-14
1.79643455434e-12
8.69292011633e-13
7.26728064513e-13
8.53964657674e-13
3.09214080577e-13
5.70046781868e-12
2.77052805475e-13
1.99464217147e-11
3.21259505997e-11
2.77935189632e-11
2.6192166408e-11
4.07936548044e-11
1.79865950835e-11
2.62475222869e-12
5.90876323682e-12
6.87616071232e-13
6.08635522777e-14
6.69116251852e-13
1.29109866481e-12
3.22720890753e-13
7.7341617709e-13
2.25594524646e-13
3.15749310814e-13
9.35793323353e-13
7.8466032103e-13
8.61681166406e-13
4.89039038703e-13
6.42644317303e-13
1.31170025083e-12
2.68676584839e-12
4.31955938572e-12
4.31804536635e-12
1.15933751941e-11
3.55693606549e-11
3.80437344986e-11
3.12453614632e-11
4.05725842549e-11
1.45783958465e-11
3.33272481655e-12
5.0365649618e-12
8.25692488436e-13
4.49019772301e-13
1.97734013306e-13
1.63188864295e-14
1.26682022602e-13
1.96865926008e-13
3.2165833141e-13
4.05690604418e-13
1.5450170837e-12
3.96780636745e-12
9.51487999195e-13
1.76842071433e-11
2.91433816019e-11
2.44613311197e-11
3.12266871736e-11
3.53807171278e-11
1.36231302468e-11
2.08414667194e-12
6.57141871897e-12
2.06836501408e-12
8.03047973783e-12
1.62095338289e-12
6.70301932211e-12
3.21066524957e-12
1.390481799e-11
3.22434003355e-11
1.61077568182e-11
1.63386374993e-11
3.30100132343e-11
2.76107964322e-11
1.11610775272e-11
2.77688040137e-11
3.88460751025e-11
2.2700002788e-11
3.63997890306e-11
8.07737621973e-11
1.96336208722e-10
1.02592743099e-10
1.94414698851e-10
8.54188726329e-11
1.70605712585e-10
7.91228899838e-11
1.93778977609e-10
3.86763152908e-11
8.47444640226e-11
4.62477861107e-11
1.2918379667e-10
8.33563828858e-11
1.17510889547e-10
1.08569135587e-10
7.74044405781e-11
3.24410279467e-11
2.13768280411e-12
5.72356641361e-11
6.2537089643e-12
3.08646082823e-11
1.78850376238e-12
4.23128033235e-12
3.60900025701e-13
2.4319156233e-11
2.60355595001e-11
4.25602250039e-11
1.00064853863e-10
1.43116809908e-10
3.81893568768e-11
4.99176877321e-10
1.89778092549e-10
3.76428942126e-10
3.29164183515e-10
1.02962593528e-09
8.35283619784e-10
7.94573185179e-10
1.09988065504e-10
5.46067978387e-10
1.81928876909e-10
1.67526846279e-10
2.00510290966e-10
7.71368872904e-12
3.77084807882e-11
4.50449348661e-12
2.91213648626e-12
5.9458203085e-12
6.8809446969e-12
7.13560259858e-12
4.08297737784e-11
2.62450437525e-11
5.76560003093e-11
2.43666952586e-11
2.64071791024e-11
6.21859569284e-11
8.76935944318e-11
1.09358025272e-10
9.13244966093e-11
1.85567296873e-10
8.83826494276e-11
2.06534229458e-10
6.99850369359e-11
2.00441961924e-10
7.17161867203e-11
1.6846353333e-10
1.44523241223e-09
2.19768837635e-09
9.18074851103e-10
2.57726614765e-09
3.79412111866e-09
4.32018682959e-09
6.33033786112e-09
7.46531418253e-09
9.12846454402e-09
9.97369652741e-10
3.79165486514e-10
1.27426418217e-09
1.29675606961e-09
4.10558758411e-10
1.2896508664e-09
1.51639206702e-09
1.96522115868e-09
2.63604906136e-09
2.55011037376e-10
4.39066457966e-11
2.61494758938e-10
4.83978508733e-11
1.77760887377e-10
5.45883984539e-10
5.46802002691e-10
4.4347774511e-10
6.54315116366e-10
1.14099251655e-09
1.21402286339e-09
2.46766242618e-10
1.93572109219e-10
2.78980307288e-10
3.30133392792e-10
3.5858947707e-10
2.87072596518e-11
5.46253855211e-11
9.73787570524e-11
1.17471831006e-10
1.55154419816e-11
1.9716249811e-10
9.46815888288e-11
1.92898074183e-10
1.24203753868e-11
2.27448104365e-10
1.69613524376e-10
1.58692551361e-10
1.22408511278e-10
1.51221880323e-10
3.96277233547e-10
1.35320284456e-10
4.38832243713e-11
9.07003267464e-11
1.05027968316e-10
2.07541532143e-11
8.6332172822e-13
3.18155128448e-12
1.53322366235e-10
7.31081452402e-11
9.07163836067e-11
3.92884853998e-11
4.60972251404e-11
3.54113702982e-11
4.87532716542e-11
2.96642286056e-11
6.51287440262e-11
7.469625564e-12
2.17582649428e-11
1.02743731303e-11
4.57389608722e-12
3.698771392e-12
2.01046442451e-11
6.39477290277e-12
5.4386450354e-12
3.10035108673e-12
6.98637464745e-12
1.54158105579e-12
4.8635621635e-12
3.71770838004e-12
4.18164075409e-12
2.61026959694e-11
1.13985515672e-11
1.11805931305e-11
2.24019789692e-11
7.86936720812e-12
3.04042605793e-11
1.63576976374e-12
1.4367449536e-11
6.73256293755e-11
1.59434615045e-12
1.94893342905e-11
5.0437809659e-11
4.92637732044e-13
1.94572360157e-12
2.03895370269e-11
4.9504038172e-12
1.47135919103e-11
8.69648297511e-12
2.23499839752e-11
4.09205791446e-11
2.25558053665e-11
3.00893799953e-11
3.19770554176e-12
4.0856833685e-11
1.96818810611e-11
4.29221705419e-11
5.56704013104e-11
7.96633560201e-11
1.04103341116e-11
3.1577521124e-11
4.86276189294e-11
5.92115604679e-11
5.52852744568e-11
1.50930136372e-11
6.13357910293e-11
7.75283988839e-12
3.60543902788e-11
2.53240368006e-11
2.55484645683e-11
8.5200105356e-12
7.09825300548e-12
3.22217992242e-11
1.84625557523e-11
2.59313226566e-11
1.59228511834e-12
3.08446288723e-11
2.80663374551e-11
1.75055448212e-11
3.70513881696e-11
8.40734591693e-12
8.03427961155e-11
3.35091518094e-11
4.54005373458e-11
1.84135483023e-10
1.62840198635e-11
9.40491645388e-12
1.75920637776e-11
1.85093577047e-11
1.82188010838e-11
2.55076014788e-11
5.19750725824e-11
3.96108745644e-11
4.70247960288e-11
2.58136950578e-12
1.21576977997e-11
2.31483654347e-11
1.58140414775e-11
3.40029764256e-11
2.84100170909e-11
5.34027456024e-11
2.31737989317e-11
5.41568578779e-11
2.3358916622e-11
3.8260410658e-11
2.72396456536e-12
9.99772088445e-11
9.49051171576e-11
8.81514139938e-11
2.17932751919e-11
1.14993386869e-11
1.51948291384e-11
2.41246374417e-11
1.31004638794e-11
2.34382343e-11
4.35510995782e-11
3.76252504003e-13
3.38541809446e-11
9.75652632618e-12
2.45190182168e-12
5.01324200184e-15
4.76993683097e-12
1.13301823194e-11
6.63148236199e-12
5.58698790865e-12
5.22195319318e-11
3.04550055841e-11
9.61024493263e-11
7.58985422521e-11
4.00844781574e-11
7.63744332911e-11
1.95229523758e-11
6.15551250532e-11
8.06255065474e-11
1.31182125455e-11
8.72643205594e-12
8.22868238676e-11
6.07743131269e-11
6.48132415064e-11
2.1847482136e-11
9.75959693937e-11
1.11119169222e-10
5.59869001864e-11
1.51984243746e-10
5.51710850903e-11
1.6679529355e-11
3.32917359625e-11
1.03656799364e-11
3.74620252904e-11
1.97761130786e-11
6.13042195573e-11
4.85661988827e-11
9.07399570199e-11
5.97166248522e-11
5.45082713529e-11
4.33160751915e-11
7.97251391961e-11
5.35759867003e-11
4.99800327497e-11
3.8571638143e-11
1.38011268773e-10
7.69827188666e-11
1.12561748453e-10
2.60751041561e-11
9.87875736265e-11
3.39653912486e-11
1.36064178214e-10
4.50972227828e-11
8.83307008008e-11
2.35377096613e-11
9.79787571052e-11
9.84595482851e-12
2.14074982697e-11
1.06835499018e-11
1.0389785148e-11
1.22437171477e-11
1.92588321988e-11
2.17954852261e-11
1.67578914946e-11
9.94877765839e-11
7.20418026275e-10
1.26778543019e-09
2.44201488313e-10
4.90314372427e-09
2.924537817e-09
1.42422308132e-09
2.85084107117e-09
2.86856534081e-10
2.11555757521e-10
2.15287281778e-09
1.02136335794e-08
9.37081491514e-09
6.35166164031e-09
6.99137106668e-09
7.33768945535e-11
4.5016577408e-11
5.7395150204e-11
3.96888015616e-11
1.39338619183e-14
1.06210800042e-11
1.00657527566e-10
3.38815559657e-12
7.34530748408e-11
6.33058167735e-11
6.62794869529e-11
1.69870627615e-10
6.90278504694e-11
4.06467812285e-11
1.75463774246e-10
1.45995155424e-10
1.52444460262e-11
5.94012602134e-11
1.85123541235e-10
1.67297037473e-10
2.36751383751e-11
5.42921000227e-11
6.26792604957e-11
4.7894560244e-11

