# vtk DataFile Version 3.0
File Name: Molecule/methanol/methanol_4.0-0.vtk
ASCII
DATASET UNSTRUCTURED_GRID
FIELD FieldData 1
TIME 1 1 double
0.0
POINTS 181 double
1.611 0.0 -0.359
1.51 -0.576 -0.349
1.403 0.0 -0.933
1.311 -0.525 -0.924
1.219 -1.083 -0.32
1.046 -0.986 -0.897
0.773 -1.459 -0.275
0.639 -1.329 -0.857
0.226 -1.659 -0.221
0.141 -1.511 -0.807
-0.356 -1.659 -0.163
-0.389 -1.511 -0.754
-0.903 -1.459 -0.108
-0.887 -1.329 -0.705
-1.349 -1.083 -0.064
-1.294 -0.986 -0.664
-1.64 -0.576 -0.035
-1.559 -0.525 -0.638
-1.742 -0.0 -0.025
-1.651 -0.0 -0.629
-1.64 0.576 -0.035
-1.559 0.525 -0.638
-1.349 1.083 -0.064
-1.294 0.986 -0.664
-0.903 1.459 -0.108
-0.887 1.329 -0.705
-0.356 1.659 -0.163
-0.389 1.511 -0.754
0.226 1.659 -0.221
0.141 1.511 -0.807
0.773 1.459 -0.275
0.639 1.329 -0.857
1.219 1.083 -0.32
1.046 0.986 -0.897
1.51 0.576 -0.349
1.311 0.525 -0.924
1.907 0.0 0.656
1.83 0.532 0.656
1.83 0.266 1.116
1.83 -0.266 1.116
1.83 -0.532 0.656
1.83 -0.266 0.195
1.83 0.266 0.195
1.607 0.884 1.166
1.607 0.51 1.539
1.607 -0.0 1.676
1.607 -0.51 1.539
1.607 -0.884 1.166
1.607 -1.02 0.656
1.607 -0.884 0.145
1.607 0.884 0.145
1.607 1.02 0.656
1.255 1.33 1.171
1.255 1.054 1.617
1.255 0.636 1.933
1.255 0.132 2.076
1.255 -0.39 2.028
1.255 -0.86 1.794
1.255 -1.213 1.407
1.255 -1.402 0.918
1.255 -1.402 0.393
1.255 1.33 0.14
1.255 1.426 0.656
0.803 1.633 1.186
0.803 1.389 1.665
0.803 1.009 2.045
0.803 0.531 2.288
0.803 -0.0 2.373
0.803 -0.531 2.288
0.803 -1.009 2.045
0.803 -1.389 1.665
0.803 -1.633 1.186
0.803 -1.717 0.656
0.803 -1.633 0.125
0.803 1.633 0.125
0.803 1.717 0.656
0.288 1.793 1.182
0.288 1.572 1.666
0.288 1.223 2.068
0.288 0.776 2.355
0.288 0.266 2.505
0.288 -0.266 2.505
0.288 -0.776 2.355
0.288 -1.223 2.068
0.288 -1.572 1.666
0.288 -1.793 1.182
0.288 -1.868 0.656
0.288 -1.793 0.129
0.288 1.793 0.129
0.288 1.868 0.656
-0.25 1.793 1.182
-0.25 1.572 1.666
-0.25 1.223 2.068
-0.25 0.776 2.355
-0.25 0.266 2.505
-0.25 -0.266 2.505
-0.25 -0.776 2.355
-0.25 -1.223 2.068
-0.25 -1.572 1.666
-0.25 -1.793 1.182
-0.25 -1.868 0.656
-0.25 -1.793 0.129
-0.25 1.793 0.129
-0.25 1.868 0.656
-0.765 1.717 0.656
-0.765 1.633 1.186
-0.765 1.389 1.665
-0.765 1.009 2.045
-0.765 0.531 2.288
-0.765 -0.0 2.373
-0.765 -0.531 2.288
-0.765 -1.009 2.045
-0.765 -1.389 1.665
-0.765 -1.633 1.186
-0.765 -1.717 0.656
-1.217 1.426 0.656
-1.217 1.33 1.171
-1.217 1.054 1.617
-1.217 0.636 1.933
-1.217 0.132 2.076
-1.217 -0.39 2.028
-1.217 -0.86 1.794
-1.217 -1.213 1.407
-1.217 -1.402 0.918
-1.217 -1.402 0.393
-1.569 1.02 0.656
-1.569 0.884 1.166
-1.569 0.51 1.539
-1.569 -0.0 1.676
-1.569 -0.51 1.539
-1.569 -0.884 1.166
-1.569 -1.02 0.656
-1.792 0.532 0.656
-1.792 0.266 1.116
-1.792 -0.266 1.116
-1.792 -0.532 0.656
-1.868 0.0 0.656
1.323 -0.263 -1.192
1.056 -0.854 -1.231
1.056 -0.493 -1.592
1.056 -0.0 -1.724
1.323 0.263 -1.192
1.056 0.493 -1.592
1.056 0.854 -1.231
0.648 -1.228 -1.246
0.648 -0.94 -1.677
0.648 -0.509 -1.965
0.648 0.0 -2.067
0.648 0.509 -1.965
0.648 0.94 -1.677
0.648 1.228 -1.246
0.147 -1.421 -1.254
0.147 -1.158 -1.709
0.147 -0.756 -2.046
0.147 -0.263 -2.226
0.147 0.262 -2.226
0.147 0.756 -2.046
0.147 1.158 -1.709
0.147 1.421 -1.254
-0.386 -1.421 -1.254
-0.386 -1.158 -1.709
-0.386 -0.756 -2.046
-0.386 -0.263 -2.226
-0.386 0.262 -2.226
-0.386 0.756 -2.046
-0.386 1.158 -1.709
-0.386 1.421 -1.254
-0.887 -1.228 -1.246
-0.887 -0.94 -1.677
-0.887 -0.509 -1.965
-0.887 0.0 -2.067
-0.887 0.509 -1.965
-0.887 0.94 -1.677
-0.887 1.228 -1.246
-1.296 -0.854 -1.231
-1.296 -0.493 -1.592
-1.296 -0.0 -1.724
-1.296 0.493 -1.592
-1.296 0.854 -1.231
-1.562 -0.263 -1.192
-1.562 0.263 -1.192

CELLS 358 1432
3 0 1 2
3 2 1 3
3 1 4 3
3 3 4 5
3 4 6 5
3 5 6 7
3 6 8 7
3 7 8 9
3 8 10 9
3 9 10 11
3 10 12 11
3 11 12 13
3 12 14 13
3 13 14 15
3 14 16 15
3 15 16 17
3 16 18 17
3 17 18 19
3 18 20 19
3 19 20 21
3 20 22 21
3 21 22 23
3 22 24 23
3 23 24 25
3 24 26 25
3 25 26 27
3 26 28 27
3 27 28 29
3 28 30 29
3 29 30 31
3 30 32 31
3 31 32 33
3 32 34 33
3 33 34 35
3 34 0 35
3 35 0 2
3 36 37 38
3 36 38 39
3 36 39 40
3 36 40 41
3 36 41 42
3 36 42 37
3 38 37 43
3 38 43 44
3 38 44 45
3 39 38 45
3 39 45 46
3 39 46 47
3 40 39 47
3 40 47 48
3 40 48 49
3 41 40 49
3 37 42 50
3 37 50 51
3 37 51 43
3 43 51 52
3 43 52 53
3 44 43 53
3 44 53 54
3 44 54 55
3 45 44 55
3 45 55 56
3 46 45 56
3 46 56 57
3 47 46 57
3 47 57 58
3 47 58 59
3 48 47 59
3 48 59 60
3 49 48 60
3 51 50 61
3 51 61 62
3 51 62 52
3 52 62 63
3 52 63 64
3 53 52 64
3 53 64 65
3 54 53 65
3 54 65 66
3 55 54 66
3 55 66 67
3 56 55 67
3 56 67 68
3 57 56 68
3 57 68 69
3 57 69 70
3 58 57 70
3 58 70 71
3 59 58 71
3 59 71 72
3 60 59 72
3 60 72 73
3 62 61 74
3 62 74 75
3 62 75 63
3 63 75 76
3 63 76 77
3 64 63 77
3 64 77 78
3 65 64 78
3 65 78 79
3 66 65 79
3 66 79 80
3 67 66 80
3 67 80 81
3 68 67 81
3 68 81 82
3 69 68 82
3 69 82 83
3 70 69 83
3 70 83 84
3 71 70 84
3 71 84 85
3 72 71 85
3 72 85 86
3 72 86 87
3 73 72 87
3 75 74 88
3 75 88 89
3 75 89 76
3 76 89 90
3 76 90 91
3 77 76 91
3 77 91 92
3 78 77 92
3 78 92 93
3 79 78 93
3 79 93 94
3 80 79 94
3 80 94 95
3 81 80 95
3 81 95 96
3 82 81 96
3 82 96 97
3 83 82 97
3 83 97 98
3 84 83 98
3 84 98 99
3 85 84 99
3 85 99 100
3 86 85 100
3 86 100 101
3 87 86 101
3 89 88 102
3 89 102 103
3 89 103 90
3 90 103 104
3 90 104 105
3 91 90 105
3 91 105 106
3 92 91 106
3 92 106 107
3 93 92 107
3 93 107 108
3 94 93 108
3 94 108 109
3 95 94 109
3 95 109 110
3 96 95 110
3 96 110 111
3 97 96 111
3 97 111 112
3 98 97 112
3 98 112 113
3 99 98 113
3 99 113 114
3 100 99 114
3 101 100 114
3 103 102 104
3 105 104 115
3 105 115 116
3 106 105 116
3 106 116 117
3 107 106 117
3 107 117 118
3 108 107 118
3 108 118 119
3 109 108 119
3 109 119 120
3 110 109 120
3 110 120 121
3 111 110 121
3 112 111 121
3 112 121 122
3 113 112 122
3 113 122 123
3 114 113 123
3 114 123 124
3 116 115 125
3 116 125 126
3 117 116 126
3 117 126 127
3 118 117 127
3 119 118 127
3 119 127 128
3 120 119 128
3 120 128 129
3 121 120 129
3 121 129 130
3 122 121 130
3 123 122 130
3 123 130 131
3 124 123 131
3 126 125 132
3 126 132 133
3 127 126 133
3 128 127 133
3 128 133 134
3 129 128 134
3 130 129 134
3 130 134 135
3 131 130 135
3 133 132 136
3 134 133 136
3 135 134 136
3 135 136 18
3 135 18 16
3 135 16 131
3 131 16 14
3 131 14 124
3 124 14 12
3 124 12 114
3 114 12 101
3 101 12 10
3 101 10 8
3 101 8 87
3 87 8 73
3 73 8 6
3 73 6 4
3 73 4 60
3 60 4 49
3 49 4 1
3 49 1 41
3 41 1 0
3 41 0 42
3 42 0 34
3 42 34 50
3 50 34 32
3 50 32 61
3 61 32 30
3 61 30 74
3 74 30 28
3 74 28 88
3 88 28 102
3 102 28 26
3 102 26 24
3 102 24 104
3 104 24 115
3 115 24 22
3 115 22 125
3 125 22 20
3 125 20 132
3 132 20 18
3 132 18 136
3 137 138 139
3 137 139 140
3 141 137 140
3 141 140 142
3 141 142 143
3 138 144 145
3 139 138 145
3 139 145 146
3 140 139 146
3 140 146 147
3 140 147 148
3 142 140 148
3 142 148 149
3 143 142 149
3 143 149 150
3 144 151 152
3 145 144 152
3 145 152 153
3 146 145 153
3 146 153 154
3 147 146 154
3 147 154 155
3 148 147 155
3 148 155 156
3 149 148 156
3 149 156 157
3 150 149 157
3 150 157 158
3 151 159 160
3 152 151 160
3 153 152 160
3 153 160 161
3 153 161 162
3 154 153 162
3 154 162 163
3 155 154 163
3 155 163 164
3 156 155 164
3 156 164 165
3 157 156 165
3 157 165 166
3 158 157 166
3 160 159 167
3 160 167 168
3 161 160 168
3 161 168 169
3 162 161 169
3 162 169 170
3 163 162 170
3 163 170 171
3 164 163 171
3 164 171 172
3 165 164 172
3 165 172 173
3 166 165 173
3 168 167 174
3 168 174 175
3 169 168 175
3 169 175 176
3 170 169 176
3 171 170 176
3 171 176 177
3 172 171 177
3 172 177 178
3 173 172 178
3 175 174 179
3 176 175 179
3 176 179 180
3 177 176 180
3 178 177 180
3 178 180 21
3 178 21 23
3 178 23 173
3 173 23 25
3 173 25 166
3 166 25 27
3 166 27 29
3 166 29 158
3 158 29 31
3 158 31 150
3 150 31 33
3 150 33 143
3 143 33 35
3 143 35 141
3 141 35 2
3 141 2 137
3 137 2 3
3 137 3 138
3 138 3 5
3 138 5 144
3 144 5 7
3 144 7 151
3 151 7 9
3 151 9 159
3 159 9 11
3 159 11 13
3 159 13 167
3 167 13 15
3 167 15 174
3 174 15 17
3 174 17 179
3 179 17 19
3 179 19 180
3 180 19 21

CELL_TYPES 358
5
5
5
5
5
5
5
5
5
5
5
5
5
5
5
5
5
5
5
5
5
5
5
5
5
5
5
5
5
5
5
5
5
5
5
5
5
5
5
5
5
5
5
5
5
5
5
5
5
5
5
5
5
5
5
5
5
5
5
5
5
5
5
5
5
5
5
5
5
5
5
5
5
5
5
5
5
5
5
5
5
5
5
5
5
5
5
5
5
5
5
5
5
5
5
5
5
5
5
5
5
5
5
5
5
5
5
5
5
5
5
5
5
5
5
5
5
5
5
5
5
5
5
5
5
5
5
5
5
5
5
5
5
5
5
5
5
5
5
5
5
5
5
5
5
5
5
5
5
5
5
5
5
5
5
5
5
5
5
5
5
5
5
5
5
5
5
5
5
5
5
5
5
5
5
5
5
5
5
5
5
5
5
5
5
5
5
5
5
5
5
5
5
5
5
5
5
5
5
5
5
5
5
5
5
5
5
5
5
5
5
5
5
5
5
5
5
5
5
5
5
5
5
5
5
5
5
5
5
5
5
5
5
5
5
5
5
5
5
5
5
5
5
5
5
5
5
5
5
5
5
5
5
5
5
5
5
5
5
5
5
5
5
5
5
5
5
5
5
5
5
5
5
5
5
5
5
5
5
5
5
5
5
5
5
5
5
5
5
5
5
5
5
5
5
5
5
5
5
5
5
5
5
5
5
5
5
5
5
5
5
5
5
5
5
5
5
5
5
5
5
5
5
5
5
5
5
5
5
5
5
5
5
5
5
5
5
5
5
5
5
5
5
5
5
5
5
5
5
5
5
5
5
5
5
5
5
5

CELL_DATA 358
SCALARS cell_data_0 double
LOOKUP_TABLE default
1.37116702097e-08
3.78369387974e-08
3.89949761552e-08
1.34884434886e-08
3.85664776602e-10
3.47114001231e-10
1.86777670872e-10
1.20238870058e-12
3.19526340294e-11
4.11427733404e-10
5.46598239309e-10
5.2513034561e-10
3.92366244795e-10
5.31045641151e-10
1.1202168509e-10
2.02653646724e-10
3.61072196613e-10
9.76547501133e-10
5.0057541632e-10
5.50178480695e-10
9.67484103001e-11
4.44182951283e-10
1.43811395076e-11
5.80534480425e-10
4.3430543007e-10
5.15597850907e-10
4.02151134981e-10
3.91552314533e-11
9.70882174249e-11
3.60389229774e-11
2.8599564818e-10
3.823137247e-10
1.97100374108e-09
6.9068685816e-09
9.87692410848e-09
8.30419882749e-09
2.01389659091e-10
1.89576849115e-11
4.66964930898e-10
4.5163448197e-10
2.469700014e-11
2.42334017803e-10
3.95576385077e-12
2.56941929252e-11
1.45668713284e-10
7.72316679146e-11
2.13171968763e-10
5.14525742816e-12
7.20179470358e-10
5.84096826587e-11
3.20726487691e-10
2.92610704165e-10
4.16837835077e-11
3.8059333647e-11
2.21538062399e-11
1.70405848976e-11
1.42922286205e-11
1.89026360243e-11
1.35290223247e-11
1.44482504992e-11
1.11677424011e-10
8.3435148277e-11
2.58829746278e-11
6.67928351729e-11
2.33916211265e-10
2.82267747946e-10
3.5645065931e-10
2.2664910256e-10
5.81720356914e-10
9.26480956793e-10
1.00113728319e-10
7.39253569978e-11
1.30031069108e-11
3.97526784502e-12
1.76573125969e-11
2.50978568033e-12
5.36953960869e-12
1.06646480367e-11
2.65258936579e-11
2.60902970431e-11
7.59469207062e-12
1.64670226256e-11
1.8208029213e-11
7.00751177744e-11
3.67670929853e-11
3.29190208617e-11
1.71340744923e-11
6.73262004896e-11
2.05570332319e-10
2.64636688761e-11
1.65265159653e-10
2.33950214625e-10
8.38700879504e-11
1.89922156718e-11
9.27897277127e-12
1.28809373173e-12
1.04377818672e-12
2.91296985736e-12
1.16788056645e-12
2.43370994946e-11
7.39885593203e-13
1.81462787881e-11
2.70092570987e-13
2.65118041616e-11
1.29868280813e-12
4.69823899532e-13
2.4588198736e-12
1.09285294375e-11
3.64792434531e-11
1.89576995036e-11
2.57941255932e-11
5.6029896672e-11
1.7234288135e-11
6.19183257746e-11
2.13481823194e-11
6.34458589085e-11
3.32441187962e-11
1.86880600156e-12
7.3191096341e-12
1.38032408238e-11
1.12753046213e-11
1.63183068726e-12
3.17868998554e-11
7.35312926442e-13
3.64759295333e-11
8.67484696944e-12
7.98357694035e-12
8.18628866867e-12
1.55607388249e-11
5.65168221681e-12
4.10563900066e-12
5.16506749285e-12
1.77474978814e-13
4.88556862191e-11
3.99536245941e-12
9.11025415373e-12
1.48973827869e-11
1.95137290359e-12
1.44377672976e-11
4.66730214375e-11
1.1556341595e-10
2.40633939724e-10
1.70116492744e-10
2.60111993191e-11
2.6414438254e-11
3.21549258907e-11
1.31482250167e-11
2.01735465535e-11
7.9258102371e-11
3.24572741491e-11
8.42618665857e-11
6.20042154724e-11
4.79531664005e-11
4.67559534084e-11
8.26661434158e-12
3.57888054191e-11
9.50641154712e-13
2.48766752079e-11
1.92315732503e-11
2.98046837667e-11
5.86857016146e-11
3.17660820309e-12
2.50872377967e-12
4.36296224994e-11
1.45972712297e-11
1.26835420628e-12
8.38550077029e-11
2.98475853404e-10
8.09842907062e-12
9.47926005717e-11
1.68356601223e-11
1.19337073121e-11
5.38503291256e-11
9.83853602356e-11
7.73260799902e-12
7.50233762483e-11
4.71723949023e-11
1.17503486926e-11
6.53654483827e-11
2.95441501304e-11
4.42276835312e-11
1.00622448417e-11
4.48205884574e-11
5.62551608972e-11
3.47550694257e-11
5.92409972653e-11
7.68518257734e-11
6.25989963527e-11
1.04862071615e-10
1.20353116539e-10
5.01142708719e-11
5.23188384207e-11
6.62241711807e-11
4.63176096179e-12
6.13518316644e-11
2.17861327448e-11
5.87193091998e-11
2.62594810201e-11
2.20201180378e-11
3.54824432321e-11
1.0408234593e-10
1.69412631393e-10
1.32514946275e-10
1.35340366644e-10
9.54456554293e-11
9.02794252293e-11
3.53098852526e-11
9.97819135725e-11
4.00542371034e-11
8.08231249562e-11
9.72826171015e-11
1.67311597547e-10
2.70888644009e-10
4.32703008032e-11
2.29685227821e-10
7.81425295901e-10
6.03525358536e-10
8.92661612976e-10
6.76488181777e-10
7.0958445656e-10
4.9469352251e-10
5.96856896986e-10
5.07471422065e-10
2.53179125495e-11
6.64051774174e-11
2.15624116914e-10
9.8586167149e-11
1.65423532699e-11
1.60939225109e-10
7.39297472435e-10
8.79304626858e-10
1.1734224004e-08
1.51931646243e-08
1.48320963831e-08
1.24483890772e-09
1.84544535663e-09
6.96923304962e-10
7.12182489607e-11
4.09541876691e-10
2.31422176563e-10
1.15866508781e-11
1.7605603227e-11
2.37431195612e-11
7.79850026065e-11
2.62048979951e-10
1.7160594821e-10
5.68861331375e-11
5.78434666094e-10
8.59829235862e-10
7.69526293708e-10
7.7622805456e-10
8.22079077839e-10
5.69269057786e-10
8.36105980093e-10
2.57574712482e-08
8.25959487123e-08
8.11689241934e-08
1.6718270454e-08
1.92430059982e-08
4.91116695441e-09
7.79162183163e-09
2.45863615526e-09
3.33128202345e-08
1.70445720873e-08
1.63560009451e-08
1.78377210673e-08
6.78221429917e-09
1.17012151001e-08
1.49278407237e-09
1.08664059711e-10
4.70394439718e-10
2.30372696302e-10
1.32130118022e-11
4.8608820458e-10
4.99876556873e-09
2.38275612729e-09
5.28029960287e-09
6.38099561784e-10
2.29324041459e-11
2.65489075518e-10
5.40781625415e-10
1.93018424445e-10
4.86131466435e-10
6.65717946012e-10
3.77300819416e-10
1.8447362526e-10
4.21207089469e-10
8.57206363922e-10
1.25984461115e-10
1.04788723335e-09
1.62335631454e-10
7.38897883064e-10
1.45171307007e-10
2.80922132257e-10
5.57950001723e-10
7.43707795237e-10
2.99840138974e-10
5.80227792351e-10
4.30406501777e-12
2.31917799843e-11
1.0495464257e-09
1.00558891295e-10
1.24926958827e-09
1.26913745912e-10
1.53582241354e-09
2.77475617709e-10
5.49642730486e-11
7.69052432735e-10
3.59048144842e-10
1.89197032225e-10
3.86478292169e-10
7.53428575328e-10
1.4064180552e-11
5.99218024123e-10
1.10529068087e-09
2.31320431316e-10
1.13991661655e-09
3.14388976414e-10
3.18056391465e-10
1.31248297724e-10
1.02862508137e-10
1.38815382881e-10
1.94265298045e-10
1.1841488169e-10
3.85736418225e-10
1.00195811354e-09
8.04601232105e-10
7.75328488549e-10
1.61177436808e-10
4.77719925394e-11
3.25203250944e-10
1.41309558913e-10
2.41062147351e-10
1.09240606529e-11
6.62161925137e-10
1.40785377111e-09
8.73851077318e-09
1.4590539551e-08
5.86411060056e-09
1.68070050602e-08
1.01735421643e-08
2.18757837688e-09
1.74183855985e-08
4.41857061146e-09
1.05384450131e-10
1.62167047062e-10
2.44583454332e-13
3.84356948365e-10
8.5837503797e-11
3.28661531152e-10
1.54092240792e-10
4.03280402489e-10
3.83245948194e-10
7.6978389676e-10
5.54979778062e-10
4.45492750083e-10
1.66880619619e-10
3.65761927173e-10

