# vtk DataFile Version 3.0
File Name: Molecule/methanol/methanol_13.5-0.vtk
ASCII
DATASET UNSTRUCTURED_GRID
FIELD FieldData 1
TIME 1 1 double
0.0
POINTS 658 double
1.611 0.0 -0.359
1.585 -0.292 -0.356
1.475 0.0 -0.634
1.451 -0.274 -0.632
1.403 0.0 -0.933
1.38 -0.266 -0.93
1.51 -0.576 -0.349
1.38 -0.539 -0.625
1.311 -0.525 -0.924
1.386 -0.842 -0.336
1.265 -0.788 -0.613
1.198 -0.767 -0.912
1.219 -1.083 -0.32
1.108 -1.014 -0.598
1.046 -0.986 -0.897
1.012 -1.29 -0.299
0.915 -1.208 -0.579
0.857 -1.175 -0.878
0.773 -1.459 -0.275
0.691 -1.366 -0.556
0.639 -1.329 -0.857
0.508 -1.583 -0.249
0.443 -1.482 -0.532
0.398 -1.442 -0.833
0.226 -1.659 -0.221
0.179 -1.553 -0.505
0.141 -1.511 -0.807
-0.065 -1.684 -0.192
-0.094 -1.577 -0.478
-0.124 -1.534 -0.781
-0.356 -1.659 -0.163
-0.366 -1.553 -0.451
-0.389 -1.511 -0.754
-0.639 -1.583 -0.135
-0.631 -1.482 -0.425
-0.646 -1.442 -0.729
-0.903 -1.459 -0.108
-0.878 -1.366 -0.4
-0.887 -1.329 -0.705
-1.143 -1.29 -0.085
-1.102 -1.208 -0.378
-1.105 -1.175 -0.683
-1.349 -1.083 -0.064
-1.296 -1.014 -0.358
-1.294 -0.986 -0.664
-1.517 -0.842 -0.047
-1.453 -0.788 -0.343
-1.446 -0.767 -0.649
-1.64 -0.576 -0.035
-1.568 -0.539 -0.331
-1.559 -0.525 -0.638
-1.716 -0.292 -0.028
-1.639 -0.274 -0.324
-1.628 -0.266 -0.631
-1.742 -0.0 -0.025
-1.663 -0.0 -0.322
-1.651 -0.0 -0.629
-1.716 0.292 -0.028
-1.639 0.274 -0.324
-1.628 0.266 -0.631
-1.64 0.576 -0.035
-1.568 0.539 -0.331
-1.559 0.525 -0.638
-1.517 0.842 -0.047
-1.453 0.788 -0.343
-1.446 0.767 -0.649
-1.349 1.083 -0.064
-1.296 1.014 -0.358
-1.294 0.986 -0.664
-1.143 1.29 -0.085
-1.102 1.208 -0.378
-1.105 1.175 -0.683
-0.903 1.459 -0.108
-0.878 1.366 -0.4
-0.887 1.329 -0.705
-0.639 1.583 -0.135
-0.631 1.482 -0.425
-0.646 1.442 -0.729
-0.356 1.659 -0.163
-0.366 1.553 -0.451
-0.389 1.511 -0.754
-0.065 1.684 -0.192
-0.094 1.577 -0.478
-0.124 1.534 -0.781
0.226 1.659 -0.221
0.179 1.553 -0.505
0.141 1.511 -0.807
0.508 1.583 -0.249
0.443 1.482 -0.532
0.398 1.442 -0.833
0.773 1.459 -0.275
0.691 1.366 -0.556
0.639 1.329 -0.857
1.012 1.29 -0.299
0.915 1.208 -0.579
0.857 1.175 -0.878
1.219 1.083 -0.32
1.108 1.014 -0.598
1.046 0.986 -0.897
1.386 0.842 -0.336
1.265 0.788 -0.613
1.198 0.767 -0.912
1.51 0.576 -0.349
1.38 0.539 -0.625
1.311 0.525 -0.924
1.585 0.292 -0.356
1.451 0.274 -0.632
1.38 0.266 -0.93
1.907 0.0 0.656
1.885 0.281 0.656
1.885 0.141 0.899
1.885 -0.141 0.899
1.885 -0.281 0.656
1.885 -0.141 0.412
1.885 0.141 0.412
1.823 0.482 0.934
1.823 0.278 1.137
1.823 -0.0 1.212
1.823 -0.278 1.137
1.823 -0.482 0.934
1.823 -0.556 0.656
1.823 -0.482 0.377
1.823 -0.278 0.174
1.823 -0.0 0.099
1.823 0.278 0.174
1.823 0.482 0.377
1.823 0.556 0.656
1.72 0.77 0.936
1.72 0.627 1.182
1.72 0.409 1.365
1.72 0.142 1.462
1.72 -0.142 1.462
1.72 -0.409 1.365
1.72 -0.627 1.182
1.72 -0.77 0.936
1.72 -0.819 0.656
1.72 -0.77 0.376
1.72 -0.627 0.129
1.72 -0.409 -0.054
1.72 -0.142 -0.151
1.72 0.142 -0.151
1.72 0.409 -0.054
1.72 0.627 0.129
1.72 0.77 0.376
1.72 0.819 0.656
1.579 1.027 0.931
1.579 0.921 1.187
1.579 0.752 1.407
1.579 0.532 1.576
1.579 0.275 1.683
1.579 0.0 1.719
1.579 -0.275 1.683
1.579 -0.532 1.576
1.579 -0.752 1.407
1.579 -0.921 1.187
1.579 -1.027 0.931
1.579 -1.063 0.656
1.579 -1.027 0.38
1.579 -0.921 0.124
1.579 -0.752 -0.096
1.579 0.752 -0.096
1.579 0.921 0.124
1.579 1.027 0.38
1.579 1.063 0.656
1.403 1.254 0.932
1.403 1.165 1.195
1.403 1.022 1.433
1.403 0.831 1.634
1.403 0.601 1.79
1.403 0.343 1.893
1.403 0.07 1.938
1.403 -0.208 1.923
1.403 -0.475 1.848
1.403 -0.72 1.718
1.403 -0.932 1.538
1.403 -1.1 1.317
1.403 -1.217 1.066
1.403 -1.276 0.794
1.403 -1.276 0.517
1.403 -1.217 0.246
1.403 -1.1 -0.006
1.403 1.022 -0.121
1.403 1.165 0.117
1.403 1.254 0.38
1.403 1.284 0.656
1.196 1.449 0.935
1.196 1.37 1.204
1.196 1.241 1.453
1.196 1.068 1.674
1.196 0.856 1.858
1.196 0.613 1.998
1.196 0.348 2.09
1.196 0.07 2.13
1.196 -0.21 2.116
1.196 -0.483 2.05
1.196 -0.738 1.934
1.196 -0.966 1.771
1.196 -1.16 1.568
1.196 -1.312 1.332
1.196 -1.416 1.071
1.196 -1.469 0.796
1.196 -1.469 0.515
1.196 -1.416 0.24
1.196 -1.312 -0.021
1.196 1.241 -0.142
1.196 1.37 0.107
1.196 1.449 0.376
1.196 1.476 0.656
0.963 1.611 0.932
0.963 1.541 1.2
0.963 1.427 1.453
0.963 1.272 1.683
0.963 1.08 1.883
0.963 0.857 2.048
0.963 0.609 2.172
0.963 0.344 2.254
0.963 0.069 2.289
0.963 -0.208 2.277
0.963 -0.479 2.219
0.963 -0.736 2.115
0.963 -0.972 1.97
0.963 -1.18 1.787
0.963 -1.354 1.571
0.963 -1.49 1.329
0.963 -1.582 1.067
0.963 -1.629 0.794
0.963 -1.629 0.517
0.963 -1.582 0.244
0.963 -1.49 -0.018
0.963 1.427 -0.142
0.963 1.541 0.111
0.963 1.611 0.379
0.963 1.635 0.656
0.709 1.735 0.93
0.709 1.671 1.199
0.709 1.566 1.453
0.709 1.421 1.688
0.709 1.242 1.898
0.709 1.033 2.077
0.709 0.798 2.221
0.709 0.543 2.327
0.709 0.275 2.391
0.709 -0.0 2.413
0.709 -0.275 2.391
0.709 -0.543 2.327
0.709 -0.798 2.221
0.709 -1.033 2.077
0.709 -1.242 1.898
0.709 -1.421 1.688
0.709 -1.566 1.453
0.709 -1.671 1.199
0.709 -1.735 0.93
0.709 -1.757 0.656
0.709 -1.735 0.381
0.709 -1.671 0.113
0.709 1.671 0.113
0.709 1.735 0.381
0.709 1.757 0.656
0.439 1.819 0.937
0.439 1.754 1.211
0.439 1.649 1.472
0.439 1.505 1.714
0.439 1.326 1.932
0.439 1.116 2.119
0.439 0.879 2.272
0.439 0.622 2.387
0.439 0.35 2.462
0.439 0.07 2.494
0.439 -0.211 2.484
0.439 -0.488 2.43
0.439 -0.753 2.335
0.439 -1.0 2.2
0.439 -1.224 2.029
0.439 -1.42 1.826
0.439 -1.582 1.596
0.439 -1.707 1.343
0.439 -1.792 1.075
0.439 -1.835 0.796
0.439 -1.835 0.515
0.439 -1.792 0.236
0.439 -1.707 -0.032
0.439 1.754 0.1
0.439 1.819 0.375
0.439 1.84 0.656
0.16 1.861 0.936
0.16 1.799 1.21
0.16 1.696 1.472
0.16 1.555 1.716
0.16 1.38 1.936
0.16 1.174 2.127
0.16 0.941 2.286
0.16 0.688 2.408
0.16 0.419 2.491
0.16 0.141 2.533
0.16 -0.141 2.533
0.16 -0.419 2.491
0.16 -0.688 2.408
0.16 -0.941 2.286
0.16 -1.174 2.127
0.16 -1.38 1.936
0.16 -1.555 1.716
0.16 -1.696 1.472
0.16 -1.799 1.21
0.16 -1.861 0.936
0.16 -1.882 0.656
0.16 -1.861 0.375
0.16 -1.799 0.101
0.16 1.799 0.101
0.16 1.861 0.375
0.16 1.882 0.656
-0.122 1.861 0.936
-0.122 1.799 1.21
-0.122 1.696 1.472
-0.122 1.555 1.716
-0.122 1.38 1.936
-0.122 1.174 2.127
-0.122 0.941 2.286
-0.122 0.688 2.408
-0.122 0.419 2.491
-0.122 0.141 2.533
-0.122 -0.141 2.533
-0.122 -0.419 2.491
-0.122 -0.688 2.408
-0.122 -0.941 2.286
-0.122 -1.174 2.127
-0.122 -1.38 1.936
-0.122 -1.555 1.716
-0.122 -1.696 1.472
-0.122 -1.799 1.21
-0.122 -1.861 0.936
-0.122 -1.882 0.656
-0.122 -1.861 0.375
-0.122 -1.799 0.101
-0.122 1.799 0.101
-0.122 1.861 0.375
-0.122 1.882 0.656
-0.401 1.84 0.656
-0.401 1.819 0.937
-0.401 1.754 1.211
-0.401 1.649 1.472
-0.401 1.505 1.714
-0.401 1.326 1.932
-0.401 1.116 2.119
-0.401 0.879 2.272
-0.401 0.622 2.387
-0.401 0.35 2.462
-0.401 0.07 2.494
-0.401 -0.211 2.484
-0.401 -0.488 2.43
-0.401 -0.753 2.335
-0.401 -1.0 2.2
-0.401 -1.224 2.029
-0.401 -1.42 1.826
-0.401 -1.582 1.596
-0.401 -1.707 1.343
-0.401 -1.792 1.075
-0.401 -1.835 0.796
-0.401 -1.835 0.515
-0.401 -1.792 0.236
-0.401 1.754 0.1
-0.401 1.819 0.375
-0.671 1.757 0.656
-0.671 1.735 0.93
-0.671 1.671 1.199
-0.671 1.566 1.453
-0.671 1.421 1.688
-0.671 1.242 1.898
-0.671 1.033 2.077
-0.671 0.798 2.221
-0.671 0.543 2.327
-0.671 0.275 2.391
-0.671 -0.0 2.413
-0.671 -0.275 2.391
-0.671 -0.543 2.327
-0.671 -0.798 2.221
-0.671 -1.033 2.077
-0.671 -1.242 1.898
-0.671 -1.421 1.688
-0.671 -1.566 1.453
-0.671 -1.671 1.199
-0.671 -1.735 0.93
-0.671 -1.757 0.656
-0.671 -1.735 0.381
-0.671 -1.671 0.113
-0.671 1.671 0.113
-0.671 1.735 0.381
-0.925 1.635 0.656
-0.925 1.611 0.932
-0.925 1.541 1.2
-0.925 1.427 1.453
-0.925 1.272 1.683
-0.925 1.08 1.883
-0.925 0.857 2.048
-0.925 0.609 2.172
-0.925 0.344 2.254
-0.925 0.069 2.289
-0.925 -0.208 2.277
-0.925 -0.479 2.219
-0.925 -0.736 2.115
-0.925 -0.972 1.97
-0.925 -1.18 1.787
-0.925 -1.354 1.571
-0.925 -1.49 1.329
-0.925 -1.582 1.067
-0.925 -1.629 0.794
-0.925 -1.629 0.517
-0.925 -1.582 0.244
-0.925 1.541 0.111
-0.925 1.611 0.379
-1.158 1.476 0.656
-1.158 1.449 0.935
-1.158 1.37 1.204
-1.158 1.241 1.453
-1.158 1.068 1.674
-1.158 0.856 1.858
-1.158 0.613 1.998
-1.158 0.348 2.09
-1.158 0.07 2.13
-1.158 -0.21 2.116
-1.158 -0.483 2.05
-1.158 -0.738 1.934
-1.158 -0.966 1.771
-1.158 -1.16 1.568
-1.158 -1.312 1.332
-1.158 -1.416 1.071
-1.158 -1.469 0.796
-1.158 -1.469 0.515
-1.158 -1.416 0.24
-1.158 1.37 0.107
-1.158 1.449 0.376
-1.365 1.284 0.656
-1.365 1.254 0.932
-1.365 1.165 1.195
-1.365 1.022 1.433
-1.365 0.831 1.634
-1.365 0.601 1.79
-1.365 0.343 1.893
-1.365 0.07 1.938
-1.365 -0.208 1.923
-1.365 -0.475 1.848
-1.365 -0.72 1.718
-1.365 -0.932 1.538
-1.365 -1.1 1.317
-1.365 -1.217 1.066
-1.365 -1.276 0.794
-1.365 -1.276 0.517
-1.365 -1.217 0.246
-1.365 1.165 0.117
-1.365 1.254 0.38
-1.541 1.063 0.656
-1.541 1.027 0.931
-1.541 0.921 1.187
-1.541 0.752 1.407
-1.541 0.532 1.576
-1.541 0.275 1.683
-1.541 0.0 1.719
-1.541 -0.275 1.683
-1.541 -0.532 1.576
-1.541 -0.752 1.407
-1.541 -0.921 1.187
-1.541 -1.027 0.931
-1.541 -1.063 0.656
-1.541 -1.027 0.38
-1.541 -0.921 0.124
-1.541 0.921 0.124
-1.541 1.027 0.38
-1.682 0.819 0.656
-1.682 0.77 0.936
-1.682 0.627 1.182
-1.682 0.409 1.365
-1.682 0.142 1.462
-1.682 -0.142 1.462
-1.682 -0.409 1.365
-1.682 -0.627 1.182
-1.682 -0.77 0.936
-1.682 -0.819 0.656
-1.682 -0.77 0.376
-1.682 -0.627 0.129
-1.682 0.627 0.129
-1.682 0.77 0.375
-1.785 0.556 0.656
-1.785 0.482 0.934
-1.785 0.278 1.137
-1.785 -0.0 1.212
-1.785 -0.278 1.137
-1.785 -0.482 0.934
-1.785 -0.556 0.656
-1.785 -0.482 0.377
-1.785 -0.278 0.174
-1.785 0.278 0.174
-1.785 0.482 0.377
-1.847 0.281 0.656
-1.847 0.141 0.899
-1.847 -0.141 0.899
-1.847 -0.281 0.656
-1.847 -0.141 0.412
-1.847 0.141 0.412
-1.868 0.0 0.656
1.312 -0.277 -1.217
1.185 -0.619 -1.257
1.185 -0.404 -1.437
1.185 -0.14 -1.533
1.312 -0.0 -1.292
1.185 0.14 -1.533
1.312 0.277 -1.217
1.185 0.404 -1.437
1.185 0.619 -1.257
1.015 -0.949 -1.149
1.015 -0.802 -1.39
1.015 -0.596 -1.582
1.015 -0.346 -1.712
1.015 -0.071 -1.769
1.015 0.21 -1.75
1.015 0.476 -1.655
1.015 0.706 -1.493
1.015 0.884 -1.275
0.805 -1.151 -1.156
0.805 -1.023 -1.41
0.805 -0.841 -1.628
0.805 -0.612 -1.798
0.805 -0.351 -1.911
[...]
CELL_DATA 1312
SCALARS cell_data_0 double
LOOKUP_TABLE default
1.32381245739e-09
1.17338476384e-09
6.97426031418e-10
2.16376937663e-10
2.08891162892e-10
1.3604433544e-10
2.72776874134e-10
4.76549133081e-10
2.89097887889e-11
8.90287917793e-11
1.71836690495e-10
1.94183586061e-10
1.08591153434e-10
7.65507908493e-11
7.60135520794e-11
5.97714799012e-11
1.44144361022e-11
1.7055330963e-11
9.30337433182e-11
7.44444011468e-11
9.97330353666e-13
6.22822057471e-12
1.70782017267e-11
1.05181333748e-11
6.44907522029e-12
7.23870783637e-12
1.15628330771e-11
1.82921537142e-11
3.40617145733e-11
1.00970013374e-11
1.76781483627e-11
4.47098968076e-11
3.69699091935e-11
1.41577401559e-11
4.172813909e-11
7.34623344455e-11
6.06969728714e-11
1.80865223622e-12
8.38048537507e-11
1.31880946719e-10
6.3485626121e-11
4.38084551356e-11
7.27202216769e-11
1.01159738206e-10
1.15106374001e-10
3.29436679761e-11
6.8449867363e-11
1.6118217301e-10
7.54468625676e-11
3.84751810589e-11
9.67716159287e-11
1.78292293147e-10
1.09323323005e-10
8.78792502233e-11
6.29538760002e-11
2.23624238734e-10
1.70735552666e-10
7.79925618727e-11
1.67006960294e-10
2.53669751156e-10
2.4898994872e-10
1.18200138269e-10
1.45364104743e-10
1.56138893147e-10
2.539405176e-10
3.10455517654e-11
1.23221209897e-10
1.13810674995e-10
1.36767379787e-10
9.9687447488e-12
9.47156646822e-11
1.10009395456e-10
1.32039161323e-10
3.06841663091e-11
1.15160045827e-10
1.26192934667e-10
2.45267835723e-10
9.83631094516e-11
1.38597540142e-10
1.15744414634e-10
2.51525249965e-10
4.56949729287e-11
9.63384447273e-11
1.67498195556e-10
1.93187836814e-10
6.35921801223e-11
1.63077381805e-10
1.73319409995e-10
1.77475228588e-10
4.16443746612e-11
9.34183084549e-11
1.03223718282e-10
1.63132947505e-10
4.14092150555e-11
9.95878865994e-11
9.97809709474e-11
9.8290227212e-11
9.32673514916e-12
7.67017568719e-11
9.90925383901e-11
6.90677874697e-11
2.73827705962e-11
7.79859302515e-11
9.26601044759e-11
8.06652718439e-11
1.58637116655e-11
5.96710944924e-11
8.32915677072e-11
5.29317351658e-11
1.22944620798e-11
5.29355549011e-11
6.89338793353e-11
2.39241190049e-11
1.3820387082e-11
1.44903829467e-11
6.55008630057e-11
1.25089704463e-11
7.1511569664e-12
3.1022610999e-11
2.2228134775e-11
2.981654987e-12
2.40187514276e-12
3.62906015615e-13
6.16036843436e-12
2.65700704532e-11
2.56397759794e-11
6.75116061864e-11
3.79622556293e-11
3.80716100514e-11
2.34252084372e-11
1.14921762708e-10
1.3615116912e-10
2.61049093804e-10
3.68175672227e-11
5.58326157374e-10
3.15837358846e-10
3.54345727611e-10
3.87400720551e-11
6.91039597646e-11
3.73304454953e-10
2.77304981494e-10
7.5081863049e-10
1.63762191673e-10
2.81186153857e-10
1.03792259986e-11
3.54780967454e-12
8.69672210207e-12
4.30544344711e-12
1.22567051651e-11
1.09597708083e-13
4.84652679767e-12
4.57414073132e-13
4.68990472739e-13
3.67072701907e-12
2.28204985572e-12
8.37829748306e-13
6.48348962571e-12
6.83204475569e-13
7.70670317473e-12
1.037047602e-11
6.15841703892e-11
9.37838503079e-11
2.24892782178e-11
1.26158181441e-11
2.58473432109e-11
6.47288060356e-12
7.45660907066e-12
5.47167850517e-12
4.74941977054e-13
6.26126538776e-13
2.96226951932e-12
1.61043377244e-12
1.73755454133e-12
3.12153910968e-12
1.20217789203e-13
1.56237229295e-12
2.39836646191e-12
5.21315643741e-13
3.86271241348e-12
7.11070809282e-12
1.71797161493e-12
1.59887050514e-11
8.5744144332e-12
3.74365895248e-11
2.98264371195e-11
6.25749897343e-11
1.57568798311e-11
1.54180400822e-10
3.25745956552e-11
1.77153973296e-10
4.94439201836e-11
6.46463977536e-11
8.68319729656e-12
1.29211756012e-11
1.39811070412e-12
1.74894798685e-12
2.64517123386e-13
5.053335939e-13
9.82833102288e-13
9.38494785099e-14
5.16654387604e-13
1.42668999032e-12
1.5243558495e-12
2.03720001056e-13
1.73183241399e-12
6.61144882195e-13
1.27524246317e-12
2.98899731918e-13
6.34372774618e-13
1.25057064661e-12
3.15759960321e-13
7.57987049842e-13
1.79277326775e-12
2.0238406332e-12
3.66993913616e-12
1.89275547067e-12
7.84208191387e-12
1.3260106052e-11
1.26421781053e-11
4.80642865327e-11
1.6507801194e-11
7.53896658367e-11
1.51565902662e-10
1.41181890248e-10
3.48118296812e-11
6.63532872978e-12
3.21460379748e-12
1.20764847888e-12
1.21513516943e-12
2.79748603954e-12
2.80112679956e-12
1.15624319357e-12
6.95964787342e-14
5.41269901467e-13
1.00364849455e-12
5.62754562573e-13
1.0330764949e-12
7.66777044361e-13
4.46074897092e-13
6.77711037778e-13
6.17874784064e-13
1.31683921013e-12
1.26735096994e-12
6.97824483038e-13
3.92730046784e-13
2.05376669334e-13
3.93907121937e-13
3.14692517251e-13
6.71997034328e-13
1.74130355111e-13
2.95119658873e-13
8.02363494605e-13
3.26182722534e-13
4.43299476511e-13
3.13095050071e-12
6.78054261114e-13
2.05850160762e-12
2.361409333e-11
1.77531843718e-11
5.45496354648e-11
1.07465314045e-10
1.10972876186e-11
1.78199180388e-12
6.98764899078e-13
2.72763663565e-13
1.43183246601e-12
3.11622285613e-12
2.86011881921e-12
6.57620545603e-13
7.02931056927e-13
2.66990226367e-13
5.49910514632e-13
7.18994357345e-13
6.15355888656e-13
4.3988438189e-13
1.0944529811e-14
1.20948326413e-12
1.09760623814e-12
4.17415594152e-13
2.98526785879e-13
1.65723906719e-13
1.66881861083e-12
6.18114721684e-13
1.66762261354e-13
6.32833930846e-13
5.82890218757e-13
9.65091098612e-13
8.97465586692e-13
1.11338893242e-12
2.41670529996e-13
1.49400517211e-13
8.47756741858e-13
8.89315520668e-14
3.32017161576e-13
4.41656447969e-12
7.79460198931e-12
9.82907117033e-13
3.39861856854e-12
5.36329664939e-12
2.40399363262e-12
6.26394405193e-12
8.39179313103e-12
3.14004931652e-11
1.86448952883e-12
5.15825988594e-12
1.31790747751e-12
5.71111063496e-13
2.57714962544e-12
3.82443371214e-12
2.25236462159e-12
2.4733718666e-13
4.93909400329e-13
1.60521179582e-13
9.59117705351e-13
4.20315534399e-13
3.17785837476e-13
3.81637449447e-13
7.96788019873e-13
6.66008315435e-13
8.85523028612e-13
3.50578392291e-13
4.76744540564e-13
8.58026207665e-13
1.16515454248e-12
2.14484101978e-12
1.13541525998e-12
2.11393386715e-13
1.45691767119e-13
1.05215231813e-12
1.08645951979e-12
9.8497819896e-13
9.67045399153e-13
5.82935754666e-13
8.54600703088e-13
5.31940258817e-13
1.1748227037e-12
9.58583447617e-13
7.02781438284e-13
1.34675097696e-13
3.66688601875e-12
4.19932456682e-12
2.7766694207e-12
1.12183366751e-11
4.42949504596e-12
1.35788281499e-12
2.09279001486e-12
5.30982186415e-12
1.65871157024e-12
8.31135304321e-12
7.77133171794e-12
5.88610708374e-12
2.93164245343e-12
2.89867538242e-12
4.00291477227e-13
1.26095077539e-12
2.64783409646e-12
1.05344022548e-13
1.15439193763e-12
6.71589247442e-13
7.10112231331e-13
3.15135339088e-13
5.2327995301e-14
5.14724948168e-13
2.7380900679e-13
5.06560959966e-13
1.84130076791e-13
7.32063028709e-13
4.95185708184e-13
8.11542714262e-13
3.18660540739e-13
3.41316690498e-13
5.82381186896e-13
4.76976582355e-13
5.02662766615e-14
2.61661685006e-13
3.87332852635e-13
3.29267740129e-13
8.83202953303e-13
2.36895097841e-13
1.72608503545e-12
1.68751076916e-12
8.59083426623e-13
1.22062770701e-12
1.17114836837e-13
7.8570805762e-13
3.11462079875e-13
5.21622575262e-13
1.20269313634e-13
1.44578991504e-12
6.57595199081e-13
6.62756675091e-14
3.74806418126e-12
4.69577886019e-13
4.60378921053e-12
4.85492107027e-12
3.11681200919e-13
2.16935919596e-12
2.65811537192e-12
3.66341551528e-13
8.6396055941e-13
2.6140040636e-12
1.12553977002e-12
3.01720928957e-12
3.91652273605e-13
2.16635261885e-12
6.90376285561e-13
6.94234815972e-13
2.8565679635e-13
2.83001986406e-13
2.11209704365e-13
1.54906105107e-13
8.98141517423e-14
1.52393009228e-13
2.99445004455e-14
1.66037945111e-13
1.03598328195e-13
3.90181020694e-13
3.13896872654e-13
8.2460488801e-13
5.7259758194e-13
9.08584442634e-13
2.60419409916e-13
1.12219741383e-12
2.67915361655e-13
1.00057705602e-12
8.50991788773e-13
1.18751535387e-13
1.38932363449e-12
6.40181501709e-13
7.46012932558e-13
1.24430188565e-12
2.77066356931e-14
1.22549881717e-12
5.39881237471e-13
1.03339167656e-12
5.8585750478e-13
7.81604479386e-13
1.42306829857e-12
1.58517838012e-12
2.00976715013e-12
6.17332928531e-14
4.88923226489e-13
8.20522449951e-13
1.07991040826e-12
2.9221146671e-12
1.45841033131e-12
2.78465579671e-12
7.53324713656e-13
1.56244707306e-12
1.31940388776e-12
2.10516309955e-12
2.92762443641e-12
4.44664072384e-14
6.56606516298e-13
3.67308521727e-14
9.904077731e-13
5.22234288189e-14
1.43039735827e-13
4.21163250928e-14
7.17422475001e-15
1.24514993279e-13
1.27715900293e-13
2.20203420154e-13
2.51568944788e-13
3.19091971571e-13
2.82621943514e-13
4.12527119759e-13
2.40089202916e-13
7.17932274062e-13
2.75194365175e-13
7.02886881591e-13
7.58007564477e-14
1.11684828237e-12
3.12624242418e-13
1.02533221732e-12
3.44619039104e-13
5.52717697968e-13
6.27423954864e-13
2.15829027792e-12
1.09505921981e-12
1.53975799726e-12
9.52012748282e-14
7.93468596895e-13
9.80399062085e-14
1.69580596115e-12
2.38946360706e-14
4.25040790056e-13
2.55630990701e-13
3.04516138082e-12
8.71020281257e-13
1.23866055652e-12
9.7751858051e-13
1.33933848747e-12
5.49696456114e-12
8.46980682212e-12
1.09656570637e-11
7.27993054152e-12
3.25612912466e-13
7.58214522638e-13
9.60780036319e-13
8.6896636976e-13
2.21089027143e-12
1.9428868417e-13
1.20920029591e-12
4.23938055305e-13
7.01604141897e-13
4.5008498327e-13
3.22605152343e-13
3.84294800146e-14
2.2210862075e-13
8.98314624223e-14
2.98843737005e-13
3.93264946661e-13
7.97368825389e-13
2.49414365556e-13
7.42704306749e-13
2.86204774773e-13
9.86468636016e-13
5.97012316145e-13
1.07136853905e-12
6.73438294796e-13
1.19578917884e-12
8.68075458538e-13
1.49014335898e-12
1.33329687699e-12
1.2689495523e-12
9.73015664692e-13
1.62079444845e-12
9.18524784472e-13
9.52634214555e-13
2.44774941027e-12
1.67026820656e-12
1.32437594326e-12
1.30749949445e-12
9.48590967632e-13
1.01040126503e-12
1.61685931966e-12
7.92517933887e-13
4.86920755032e-13
1.76117731925e-13
9.92974885368e-13
1.37762022609e-12
3.56469589527e-12
6.53900035882e-12
2.04648696667e-12
7.66014145536e-12
1.48189656825e-11
1.59313073532e-12
3.04862962931e-13
4.3006506922e-13
5.82492632503e-13
1.51648099289e-12
1.19884867776e-13
2.37983890737e-13
8.78568489572e-13
5.45044442156e-14
1.43749842894e-14
4.12069874678e-13
5.38880712174e-13
4.82029741525e-13
1.15297459701e-13
6.97210181433e-13
7.91131672487e-13
8.11630429712e-13
7.13016180889e-13
1.93950830865e-13
7.21226970864e-13
5.26023194941e-14
7.18121188429e-13
6.17125262688e-14
7.60651428639e-13
1.86390001431e-13
6.00539383413e-13
1.93196182133e-13
9.81163831483e-13
3.11835423292e-13
1.2136288595e-13
1.6312012169e-12
1.39731882949e-13
4.15216080325e-13
1.48863875059e-12
1.95111941538e-14
6.90133531172e-13
8.45241834929e-13
1.50707968271e-13
3.43222253531e-14
1.07719720897e-12
1.27113784441e-13
6.02751213199e-13
6.27112988965e-13
4.83063212439e-13
8.42385386536e-14
2.43722308479e-12
8.59731436649e-12
1.02679497659e-11
3.06595025669e-12
2.19152494873e-12
1.88133208167e-11
3.28394538394e-12
1.45855066142e-12
9.39754355195e-13
1.75259609008e-12
7.30230221694e-13
1.37764854432e-13
1.24532051702e-13
2.59830124475e-13
1.59408554127e-13
1.98036408193e-13
2.40131621717e-13
4.56412034982e-13
2.52648086958e-13
4.81885590652e-13
7.84927796465e-14
1.13420696198e-13
1.30812952519e-14
3.27734937409e-13
1.75951333037e-13
4.10722234241e-13
4.08862678835e-13
8.47402414106e-13
6.44492127764e-13
7.47470543488e-13
6.42851682761e-13
1.33737756595e-12
5.00153043912e-13
1.19119815643e-12
3.31127293749e-13
5.70187994042e-13
2.34648387087e-13
1.02782160416e-12
7.31705402955e-13
1.27287221822e-12
6.66262366888e-13
4.24013453136e-13
3.70391440751e-13
1.11777314796e-12
1.77575115671e-13
3.77524824808e-13
3.03798218145e-13
3.00071878096e-13
1.19660486603e-12
3.78952304377e-13
7.39874208275e-12
9.00375250756e-12
2.42823277701e-11
7.81450653171e-12
1.62832395942e-11
2.99242679977e-12
3.53743237457e-13
1.37728072876e-12
5.77052148312e-13
1.56493570148e-13
9.44206334913e-14
7.07083583137e-14
1.17816835128e-13
2.75736503232e-13
2.26226856903e-13
3.49801725905e-13
3.1714515033e-13
5.35217250804e-14
3.06090867919e-13
9.87873947585e-14
2.95967641345e-13
8.16566657096e-14
1.43676801231e-13
2.40200056686e-13
1.25658284404e-13
1.50044258744e-13
6.45722699546e-13
2.43443945116e-14
2.29635998113e-13
3.91753152939e-13
4.40441741362e-13
9.78107049851e-13
4.34489610838e-13
2.66825443916e-14
1.7207160061e-14
7.61766904048e-13
5.77647796202e-13
2.69409400937e-13
7.27518616631e-13
1.88053781907e-13
6.84391321416e-13
3.59130729542e-13
2.84490472765e-13
8.85180029096e-13
2.19293944627e-12
1.20407070912e-12
7.60540779974e-12
1.8174875838e-12
1.65556858296e-11
2.10441474316e-11
4.84287184111e-12
5.40248208027e-13
6.09541021054e-13
6.82078623045e-13
2.85097160519e-13
2.34896721109e-13
1.69103989395e-13
7.8876822651e-14
6.50837587248e-15
5.49121121271e-14
4.49133263853e-14
3.27379117079e-13
9.99488397977e-14
2.70820762551e-13
1.88511578512e-13
3.76998130947e-13
3.34152638613e-13
2.87405203484e-13
1.50462974512e-13
6.54001915198e-13
9.53420145298e-13
6.54351355689e-13
5.45088763909e-13
9.60827054261e-14
1.67289486781e-13
4.26868225205e-13
8.06511126639e-15
4.22127567538e-13
2.82399211304e-13
3.42285188737e-13
2.05070867332e-13
2.98703436242e-14
5.80537235427e-13
2.08430238914e-13
1.1982562176e-13
2.57046628133e-12
3.95447669278e-12
1.87931933202e-13
1.32536064615e-11
2.43897593032e-12
5.15756190217e-13
6.0878361531e-11
1.94419868174e-11
6.6534124111e-12
9.90816452238e-13
1.06874433446e-12
3.38494069314e-13
4.48706549291e-13
1.30631670131e-13
7.04706928909e-14
1.56377964895e-14
1.07108622434e-13
6.5425868642e-14
7.312092605e-14
1.42991270944e-13
9.35947434757e-14
2.44162984728e-13
2.36839336458e-13
2.13280797912e-13
6.16558164071e-14
2.57548096193e-13
1.35645825882e-13
2.06682665667e-13
3.59368557884e-13
3.25410922246e-13
2.89326511868e-13
6.78431816613e-13
1.66537004284e-13
3.82097227838e-13
2.60582083837e-14
1.59310056842e-13
1.11212627732e-13
2.74284589705e-13
2.26082341131e-13
6.07443761215e-12
2.35851563558e-12
1.00826970454e-11
3.03346771965e-11
2.82636396408e-11
6.82884096862e-11
1.56950722151e-11
1.32738190993e-11
4.0932693427e-12
1.82079626642e-12
7.45925322918e-13
7.6300717062e-13
3.12112461628e-13
2.11164727875e-14
2.81071354062e-14
7.38242871084e-16
9.07578522849e-15
9.59778970102e-14
5.01955003288e-14
2.04989887541e-13
2.00372276901e-13
5.11769959183e-13
5.85121186828e-13
2.56809178855e-13
4.25110377148e-14
1.74255356951e-13
1.07065823907e-13
1.24641527974e-13
3.23607552431e-13
1.18080249181e-13
6.83909885227e-14
6.45157010708e-14
1.31902066506e-12
3.34470024648e-13
5.23712383596e-12
7.82101588448e-13
4.53263449224e-12
2.19011544565e-11
4.52993771829e-11
7.77441830535e-11
1.68607263738e-11
1.47688265651e-11
4.27779465484e-12
3.23680944204e-12
2.60899173929e-12
2.63488522491e-13
8.29540350739e-13
2.04964743979e-13
5.35453415739e-14
1.3353288203e-13
1.90847893352e-13
1.48055683437e-13
2.5327363021e-13
1.56132930532e-13
1.06636725986e-13
1.94295668062e-13
2.54799547713e-13
1.14797165176e-13
6.39319000043e-14
1.20578966231e-13
4.14509820387e-13
9.16386185898e-13
3.92444257059e-12
9.19880659919e-13
3.80974312638e-12
1.65128278033e-11
9.48412073673e-12
9.21312930811e-11
1.05531947083e-10
1.08194402403e-11
2.0760679226e-11
6.25598402117e-13
1.12842540371e-12
2.87601941206e-12
7.21209890183e-13
4.08432187041e-13
4.83119494492e-14
1.30063072551e-13
2.39451040085e-13
5.09569480803e-14
1.52853021717e-13
1.59606414465e-13
1.62807034313e-13
5.80735931493e-13
5.62311874689e-13
2.64905866976e-12
6.97629030298e-14
1.766816729e-11
2.8890075432e-11
4.15418510807e-11
1.34478647938e-10
1.34600886407e-10
4.40703773891e-11
2.87909207825e-11
1.55307986732e-11
8.72080158196e-12
7.8239277957e-12
2.98502132812e-12
1.66966881993e-12
5.37152248156e-12
1.72644761765e-12
2.97250470979e-12
7.59550592824e-12
9.32483226684e-12
9.99591942e-12
1.56221954483e-11
9.18514651716e-12
8.46643817727e-12
1.55729921297e-11
8.78321097985e-12
2.34710153045e-11
7.73408730475e-12
2.31504214408e-11
1.16042124177e-11
2.62202873696e-11
1.21590596907e-11
2.44378115809e-11
1.69500573352e-10
2.45539324906e-11
4.68795087628e-11
6.67846242947e-11
9.37536510405e-11
7.9472116836e-11
5.58753457689e-11
4.5369287781e-11
6.26498640212e-12
9.28767485805e-11
2.06999516633e-11
6.91645050414e-11
5.19614841735e-11
2.12384199319e-11
4.77098272853e-11
4.62124332733e-11
6.66981749839e-12
2.35863720681e-11
3.42098994985e-11
1.66480917134e-12
3.94378445698e-11
1.1064500904e-11
2.07396446325e-11
4.16392571212e-12
6.29054160398e-12
3.31884642589e-12
1.29394409057e-12
7.2201442182e-12
2.4779012838e-11
5.75302854384e-11
3.24326856198e-11
6.64052066549e-11
1.53537200037e-10
3.53696731467e-11
9.85550615164e-11
1.72570980935e-10
1.3827555191e-10
5.846354301e-11
1.46975532456e-10
2.65565556648e-10
1.95890790279e-10
5.11120897574e-10
1.73267495152e-10
1.86688264666e-10
8.05944615307e-11
9.32444543576e-11
2.22554096481e-11
1.22793000538e-11
6.7748599662e-12
3.98379037314e-12
1.34397587744e-12
1.4485453157e-12
1.99341256537e-12
1.59447170761e-12
1.81561755349e-11
1.01720502033e-11
4.74538409677e-11
1.45569237576e-11
6.07770730998e-11
1.11001703774e-11
4.44475775907e-11
9.48242608204e-12
6.51469473477e-12
4.36113155885e-11
1.28726635794e-11
7.82992342177e-11
1.49845579998e-11
7.76118644319e-11
1.88864050724e-11
7.09408647802e-11
5.00236326137e-11
8.78259451355e-11
8.63809990016e-11
7.10902363713e-11
4.38244000385e-11
3.91502502387e-09
4.16456389578e-09
4.45462404672e-10
6.47730592886e-10
4.58064898061e-10
5.8686932371e-10
8.70238312635e-10
4.21203871361e-10
1.49805967905e-10
4.09802941442e-09
3.54621923329e-09
3.50933634842e-09
5.93530263227e-10
3.59879120851e-10
2.922431019e-10
4.71970185329e-10
8.34179847255e-10
6.42476455634e-10
9.14049073333e-10
3.1581527889e-10
1.11700067932e-10
5.20063899475e-11
1.7152647087e-10
5.02770110692e-11
4.79245169529e-11
2.41856756573e-10
6.52150898681e-10
5.56663854921e-10
2.05763339877e-10
1.99048907739e-11
8.78514207571e-11
1.76021418505e-10
4.2401804953e-10
2.04209257249e-10
1.54672285359e-10
3.62707457505e-11
5.43458605305e-11
9.18940141991e-12
9.87885905271e-12
6.95543985764e-11
5.99219402922e-11
8.81419240883e-12
3.08820522976e-12
1.84897094501e-10
6.86258251926e-11
2.4723526449e-10
8.39617277099e-11
1.5350756566e-10
3.74617804668e-11
6.41784619401e-11
4.44355272335e-11
7.18976514766e-12
5.81309674367e-11
8.94963389781e-11
7.58608667602e-11
6.93169487986e-12
3.74629358617e-11
2.76997393365e-11
1.22815256605e-12
5.6526326902e-11
6.82449558692e-11
2.17470699069e-11
6.69746966161e-13
1.81916076212e-12
1.15602302584e-11
1.11266072364e-11
1.9302971653e-12
3.65774442959e-11
1.01528879859e-11
2.66616985755e-11
1.43780185251e-12
7.14921374378e-13
7.85429584974e-12
8.39566846174e-12
6.67751759057e-12
2.65590385177e-11
1.5904410636e-11
1.64214839025e-11
4.24765271258e-12
7.95143994942e-12
4.29951149317e-12
9.29237014011e-12
8.27411170603e-12
1.09146465716e-11
2.76258246364e-11
1.50615446022e-11
2.42053402529e-11
2.72874483623e-12
2.85444031913e-11
2.44950264438e-11
5.38933989512e-12
2.36977765128e-11
8.84220014334e-12
9.9459597405e-12
6.96824529965e-13
1.63399230769e-11
5.10859574411e-12
9.42056186011e-12
1.77156758846e-12
6.07063727114e-12
1.03331901825e-12
1.59391353108e-12
3.53449902112e-12
2.19925319579e-12
1.73948231396e-12
6.36171659455e-12
8.51096401141e-13
3.9115539668e-13
8.71241053294e-12
9.61770063902e-13
1.35080295873e-11
1.55371355942e-12
5.83674885563e-12
8.77801951424e-12
1.64594269536e-11
3.67014263886e-11
3.83611135888e-11
5.02069856466e-11
1.14796492974e-10
1.93148720776e-11
2.93754125592e-11
1.75242243832e-11
2.2099736608e-11
1.63383474902e-11
1.36899833518e-11
8.7752908337e-12
1.74911621553e-11
1.32399296935e-12
1.52135578985e-11
2.58918359891e-12
9.01889026476e-12
1.48940055172e-12
3.70551238822e-12
9.23981215245e-12
5.2908784022e-12
4.77865415367e-12
2.74695062953e-12
1.06138497633e-11
1.33148836343e-11
1.92056072156e-11
2.69888849276e-11
3.5761316803e-11
2.7752502931e-11
1.06402388517e-11
1.27521471755e-11
3.15795715904e-11
3.88044986374e-11
5.97830454392e-11
7.23510819629e-11
1.74843575994e-11
2.52918859077e-11
3.36573310353e-11
2.12422940545e-11
4.71595088284e-12
3.47445493094e-11