# vtk DataFile Version 3.0
File Name: Molecule/sphere_dip_C5/sphere_dip_C5_0-s4.vtk
ASCII
DATASET UNSTRUCTURED_GRID
FIELD FieldData 1
TIME 1 1 double
0.0
POINTS 578 double
0.675325404176 0.667374053247 0.154508497188
0.5 0.809016994375 0.0
0.5 0.809016994375 0.309016994375
0.5 0.809016994375 -0.309016994375
0.25 0.904508497187 -0.154508497188
0.25 0.904508497187 0.154508497188
0.0 1.0 0.0
0.25 0.829833901363 -0.417374053247
0.0 0.925325404176 -0.26286555606
0.0 0.850650808352 -0.525731112119
0.25 0.829833901363 0.417374053247
0.0 0.925325404176 0.26286555606
-0.25 0.829833901363 0.417374053247
-0.25 0.904508497187 0.154508497188
-0.5 0.809016994375 0.309016994375
-0.404508497188 0.654508497187 0.559016994375
-0.154508497188 0.675325404176 0.667374053247
-0.5 0.809016994375 -0.309016994375
-0.654508497187 0.559016994375 -0.404508497188
-0.675325404176 0.667374053247 -0.154508497188
-0.829833901363 0.417374053247 -0.25
1.0 0.0 0.0
0.925325404176 -0.26286555606 0.0
0.809016994375 -0.309016994375 -0.5
0.809016994375 0.0 -0.5
0.809016994375 0.309016994375 -0.5
0.667374053247 -0.154508497188 -0.675325404176
0.667374053247 0.154508497188 -0.675325404176
0.525731112119 0.0 -0.850650808352
0.850650808352 -0.525731112119 0.0
0.829833901363 -0.417374053247 0.25
0.904508497187 -0.154508497188 0.25
0.809016994375 0.0 0.5
0.809016994375 0.309016994375 0.5
0.667374053247 0.154508497188 0.675325404176
-0.559016994375 0.404508497188 -0.654508497187
-0.667374053247 0.154508497188 -0.675325404176
-0.809016994375 0.309016994375 -0.5
-0.850650808352 -0.525731112119 0.0
-0.675325404176 -0.667374053247 -0.154508497188
-0.675325404176 -0.667374053247 0.154508497188
-0.5 -0.809016994375 0.0
-0.829833901363 -0.417374053247 0.25
-0.925325404176 -0.26286555606 0.0
0.417374053247 -0.25 -0.829833901363
0.559016994375 0.404508497188 -0.654508497187
0.434016994375 0.452254248594 -0.731762745781
0.481762745782 0.529508497188 -0.606762745781
0.356762745782 0.577254248593 -0.684016994375
0.404508497188 0.654508497187 -0.559016994375
0.542374053247 0.202254248594 -0.75257965277
0.417374053247 0.25 -0.829833901363
0.684016994375 0.356762745782 -0.577254248593
0.279508497188 0.664916950682 -0.613195523811
0.154508497188 0.675325404176 -0.667374053247
0.077254248594 0.762988106264 -0.596552582683
-0.125 0.840242354857 -0.471552582683
-0.5 0.809016994375 0.154508497188
-0.587662702088 0.738195523811 0.231762745782
-0.675325404176 0.667374053247 0.0
-0.850650808352 0.525731112119 0.0
-0.356762745782 0.577254248593 0.684016994375
-0.309016994375 0.5 0.809016994375
-0.577254248593 0.684016994375 0.356762745782
-0.654508497187 0.559016994375 0.404508497188
-0.481762745782 0.529508497188 0.606762745781
-0.434016994375 0.452254248594 0.731762745781
-0.559016994375 0.404508497188 0.654508497187
-0.363195523811 0.375 0.819425447869
-0.488195523811 0.327254248594 0.742171199275
0.0 0.675325404176 0.667374053247
0.0 0.850650808352 0.525731112119
-0.285941275218 0.25 0.867171199275
-0.231762745782 0.375 0.856762745781
-0.417374053247 0.25 0.829833901363
0.363195523811 0.375 0.819425447869
0.285941275218 0.25 0.867171199275
0.417374053247 0.25 0.829833901363
0.340119804654 0.125 0.877579652769
0.471552582683 0.125 0.840242354857
0.394298334089 0.0 0.887988106264
0.525731112119 0.0 0.850650808352
-0.417374053247 -0.25 0.829833901363
-0.363195523811 -0.375 0.819425447869
-0.285941275218 -0.25 0.867171199275
-0.231762745782 -0.375 0.856762745781
0.154508497188 -0.5 0.809016994375
0.231762745782 -0.375 0.856762745781
0.077254248594 -0.375 0.856762745781
0.309016994375 -0.5 0.809016994375
0.285941275218 -0.25 0.867171199275
0.417374053247 -0.25 0.829833901363
0.340119804654 -0.125 0.877579652769
0.154508497188 -0.25 0.904508497187
0.363195523811 -0.375 0.819425447869
0.471552582683 -0.125 0.840242354857
0.613195523811 -0.279508497188 0.664916950682
0.667374053247 -0.154508497188 0.675325404176
0.809016994375 -0.309016994375 0.5
0.559016994375 -0.404508497188 0.654508497187
0.654508497187 0.559016994375 0.404508497188
0.452254248594 0.731762745781 0.434016994375
0.606762745782 0.481762745781 0.529508497187
0.404508497188 0.654508497187 0.559016994375
0.356762745782 0.577254248593 0.684016994375
0.559016994375 0.404508497188 0.654508497187
0.309016994375 0.5 0.809016994375
0.154508497188 0.675325404176 0.667374053247
0.613195523811 0.279508497188 0.664916950682
-0.375 0.819425447869 -0.363195523811
-0.279508497188 0.664916950682 -0.613195523811
-0.404508497188 0.654508497187 -0.559016994375
-0.309016994375 0.5 -0.809016994375
-0.154508497188 0.675325404176 -0.667374053247
-0.25 0.829833901363 -0.417374053247
-0.613195523811 -0.279508497188 0.664916950682
-0.559016994375 -0.404508497188 0.654508497187
-0.0772542485935 0.587662702088 -0.738195523811
-0.309016994375 -0.5 -0.809016994375
-0.154508497188 -0.675325404176 -0.667374053247
-0.404508497188 -0.654508497187 -0.559016994375
-0.25 -0.829833901363 -0.417374053247
0.0 -0.850650808352 -0.525731112119
-0.5 -0.809016994375 -0.309016994375
0.25 -0.829833901363 -0.417374053247
0.0 -0.925325404176 -0.26286555606
0.25 -0.904508497187 -0.154508497188
0.5 -0.809016994375 -0.309016994375
0.0 -1.0 0.0
0.829833901363 -0.417374053247 -0.25
0.654508497187 -0.559016994375 -0.404508497188
0.675325404176 -0.667374053247 -0.154508497188
0.309016994375 -0.5 -0.809016994375
0.404508497188 -0.654508497187 -0.559016994375
0.154508497188 -0.675325404176 -0.667374053247
0.819425447869 0.363195523811 -0.375
0.829833901363 0.417374053247 -0.25
0.840242354857 0.471552582683 -0.125
0.850650808352 0.525731112119 0.0
0.762988106264 0.596552582683 -0.077254248594
0.752579652769 0.542374053247 -0.202254248594
0.675325404176 0.667374053247 -0.154508497188
0.742171199275 0.488195523811 -0.327254248594
0.664916950682 0.613195523811 -0.279508497188
0.654508497187 0.559016994375 -0.404508497188
0.731762745781 0.434016994375 -0.452254248594
0.587662702088 0.738195523811 -0.231762745782
0.577254248593 0.684016994375 -0.356762745782
0.529508497188 0.606762745781 -0.481762745782
0.452254248594 0.731762745781 -0.434016994375
0.762988106264 0.596552582683 0.077254248594
0.675325404176 0.667374053247 0.0
0.0 0.962662702088 -0.13143277803
0.125 0.877579652769 0.340119804654
0.125 0.840242354857 0.471552582683
0.0 0.887988106264 0.394298334089
-0.125 0.840242354857 0.471552582683
-0.125 0.877579652769 0.340119804654
-0.125 0.952254248593 0.077254248594
-0.125 0.952254248593 -0.077254248594
-0.25 0.904508497187 0.0
-0.25 0.904508497187 -0.154508497188
-0.375 0.856762745781 -0.077254248594
-0.375 0.856762745781 0.077254248594
-0.5 0.809016994375 0.0
-0.375 0.856762745781 -0.231762745782
-0.5 0.809016994375 -0.154508497188
-0.125 0.914916950682 -0.208687026624
-0.125 0.877579652769 -0.340119804654
-0.25 0.867171199275 -0.285941275218
-0.684016994375 0.356762745782 0.577254248593
-0.613195523811 0.279508497188 0.664916950682
-0.738195523811 0.231762745782 0.587662702088
-0.809016994375 0.309016994375 0.5
-0.667374053247 0.154508497188 0.675325404176
-0.542374053247 0.202254248594 0.752579652769
-0.471552582683 0.125 0.840242354857
-0.596552582683 0.077254248594 0.762988106264
-0.525731112119 0.0 0.850650808352
0.829833901363 0.417374053247 0.25
0.742171199276 0.488195523811 0.327254248594
0.202254248594 0.752579652769 0.542374053247
0.327254248594 0.742171199275 0.488195523811
0.279508497188 0.664916950682 0.613195523811
0.077254248594 0.762988106264 0.596552582683
-0.840242354857 0.471552582683 -0.125
-0.925325404176 0.26286555606 0.0
-0.914916950682 0.208687026623 -0.125
-1.0 0.0 0.0
-0.904508497187 0.154508497188 -0.25
-0.819425447869 0.363195523811 -0.375
-0.667374053247 -0.154508497188 0.675325404176
-0.738195523811 -0.0772542485935 0.587662702088
-0.809016994375 -0.309016994375 0.5
0.356762745782 -0.577254248593 0.684016994375
0.434016994375 -0.452254248594 0.731762745781
0.481762745782 -0.529508497188 0.606762745781
0.404508497188 -0.654508497187 0.559016994375
0.529508497188 -0.606762745781 0.481762745782
0.606762745781 -0.481762745782 0.529508497188
0.654508497187 -0.559016994375 0.404508497188
0.452254248594 -0.731762745781 0.434016994375
0.577254248593 -0.684016994375 0.356762745782
0.5 -0.809016994375 0.309016994375
0.684016994375 -0.356762745782 0.577254248593
0.731762745781 -0.434016994375 0.452254248594
0.231762745782 -0.587662702088 0.738195523811
0.279508497188 -0.664916950682 0.613195523811
0.154508497188 -0.675325404176 0.667374053247
0.202254248594 -0.752579652769 0.542374053247
0.327254248594 -0.742171199275 0.488195523811
0.25 -0.829833901363 0.417374053247
0.077254248594 -0.762988106264 0.596552582683
0.125 -0.840242354857 0.471552582683
0.0 -0.850650808352 0.525731112119
0.375 -0.819425447869 0.363195523811
0.664916950682 -0.613195523811 0.279508497188
0.675325404176 -0.667374053247 0.154508497188
0.587662702088 -0.738195523811 0.231762745782
0.762988106264 -0.596552582683 0.077254248594
0.340119804654 -0.125 -0.877579652769
0.26286555606 0.0 -0.925325404176
0.285941275218 -0.25 -0.867171199275
0.208687026624 -0.125 -0.914916950682
0.154508497188 -0.25 -0.904508497187
0.363195523811 -0.375 -0.819425447869
0.231762745782 -0.375 -0.856762745781
0.13143277803 0.0 -0.962662702088
0.077254248594 -0.125 -0.952254248593
0.0 0.0 -1.0
0.154508497188 -0.5 -0.809016994375
0.077254248594 -0.375 -0.856762745781
0.0 -0.5 -0.809016994375
-0.077254248594 -0.375 -0.856762745781
0.0 -0.25 -0.904508497187
-0.154508497188 -0.25 -0.904508497187
-0.154508497188 -0.5 -0.809016994375
-0.231762745782 -0.375 -0.856762745781
-0.077254248594 -0.125 -0.952254248593
0.0 -0.675325404176 -0.667374053247
-0.13143277803 0.0 -0.962662702088
-0.208687026624 -0.125 -0.914916950682
-0.26286555606 0.0 -0.925325404176
-0.285941275218 -0.25 -0.867171199275
-0.340119804654 -0.125 -0.877579652769
-0.417374053247 -0.25 -0.829833901363
-0.363195523811 -0.375 -0.819425447869
-0.394298334089 0.0 -0.887988106264
-0.471552582683 -0.125 -0.840242354857
-0.525731112119 0.0 -0.850650808352
[...]
CELL_DATA 1152
SCALARS cell_data_0 double
LOOKUP_TABLE default
1.49167730155e-05
9.76418471891e-06
2.16976734539e-05
1.47602737979e-05
1.96650047557e-05
1.56498325136e-05
7.8754427672e-06
5.22432864605e-06
1.93290077469e-05
1.5582247477e-05
1.45857093398e-05
2.86722685302e-05
1.88696390737e-05
0.000112901407973
0.000177780100458
0.00014091896379
0.000165018721561
0.000125111627085
0.000146994650074
0.000269675745466
0.000187527967562
0.000172761183251
9.72780259154e-05
0.000102084604839
1.69187162091e-05
2.75739375245e-05
3.39478154895e-05
4.57732986799e-05
1.80732560909e-06
0.000118516208157
1.71041251039e-06
2.24390365035e-06
1.02580869927e-06
1.88067987097e-06
3.12356937009e-06
2.81824077337e-06
5.2369025973e-05
5.03674044183e-05
1.67135670478e-07
6.28649872422e-07
1.50492618615e-06
5.84765602502e-06
2.77116752345e-06
2.4917589231e-06
4.53018741867e-06
1.7203620974e-05
2.06705820388e-05
8.28005756889e-06
5.92252862891e-06
1.01941536504e-05
1.29855431628e-05
7.89688369564e-06
1.249161632e-05
1.21198757558e-05
1.42854501603e-05
1.71374768121e-05
1.90533406041e-05
1.5680709253e-05
9.21858168069e-06
1.48057093142e-05
2.07039349012e-05
1.72274461629e-05
1.3250066248e-05
1.8489407502e-05
2.39466053674e-05
1.63418078777e-05
1.76312090498e-05
1.87754246658e-05
1.84419524004e-05
1.47019821014e-05
1.33608881056e-05
2.0481474292e-05
1.38323882792e-05
1.69679885069e-05
1.56690070201e-05
2.02613096508e-05
1.04710376041e-05
2.00077249682e-05
3.07628936238e-06
1.11478769276e-05
4.45621454153e-06
9.38015471113e-06
2.74852123744e-07
4.36070544526e-06
3.0475393566e-06
1.68025301078e-05
2.08115895015e-05
8.9770432332e-06
7.44526918071e-06
1.33860078963e-05
2.0180752904e-05
1.41708016053e-05
9.94460816831e-06
2.16526547055e-06
4.15283519542e-06
1.64806978087e-05
1.8630678096e-05
2.79571717908e-05
2.78025721432e-05
2.40798700236e-05
9.70709592918e-06
1.4320167692e-05
2.40166765771e-05
1.80904605988e-05
2.44606845805e-05
9.79396663677e-06
3.37613854247e-05
2.49656113964e-05
1.92949465804e-05
1.05541842814e-05
1.53822209258e-05
1.80301553132e-05
2.24083688856e-05
8.46866422386e-06
1.50074305066e-05
6.17665970316e-06
3.61396686599e-06
1.56759633598e-06
1.77269755937e-06
6.94639802236e-06
1.66518333879e-05
1.02383943011e-05
6.27231934287e-06
6.16514219771e-06
3.45552058734e-06
1.7238390974e-06
1.45150207253e-06
2.86677044653e-06
6.27929341748e-07
1.72528185987e-06
9.03194328483e-07
2.95761178377e-06
2.53887251565e-06
1.96980557043e-06
1.96060241699e-07
1.78813665957e-06
8.83402309518e-07
1.92657287276e-06
1.20589957563e-06
2.20976589301e-06
2.06567718871e-06
4.84648465267e-06
1.82473895217e-06
1.69762996581e-06
1.31583302348e-06
5.93362075819e-06
1.13668396034e-05
1.53570442584e-06
1.95395432205e-06
3.75087005069e-06
2.03911914695e-06
3.72690011139e-06
8.96479251513e-06
5.49225583915e-06
3.44080538767e-06
6.99003568874e-06
5.06867991474e-06
3.9529857566e-06
1.24450772828e-05
1.35525794722e-05
7.46475436992e-06
7.58852372499e-06
6.26155851943e-06
6.16187853811e-06
6.22392722012e-06
7.56830895066e-06
6.15765408954e-06
7.20518748898e-06
1.11583204245e-05
1.01774442051e-05
6.90928994451e-06
8.05179821756e-06
2.95926959306e-06
5.13176443663e-06
2.49745029567e-06
3.94893793743e-06
3.02808288518e-06
5.42623088317e-06
4.22334562021e-06
4.54190692056e-06
2.05697297489e-06
3.52026204631e-06
1.45367610313e-06
2.88828487869e-06
1.71129600159e-06
1.6889409369e-06
7.95166226561e-07
6.76837578195e-09
1.98130956e-06
3.11964558035e-06
2.94901417124e-06
1.69411074174e-06
1.36132082889e-05
1.61064492636e-05
5.55135838135e-06
6.94992291348e-06
3.68102808069e-06
2.59345755686e-06
1.14110112492e-05
1.17992070602e-05
3.34170430441e-06
1.04294373024e-05
6.89044988468e-06
1.53128226178e-05
5.98274170433e-07
2.75774881295e-05
8.74663489853e-06
1.10094427057e-05
9.71066255153e-06
6.12469425335e-06
8.56725760607e-06
9.60595468593e-06
7.08573905429e-06
7.70728509564e-06
3.76166939548e-06
5.25782913171e-06
1.13090504588e-05
4.55704181868e-06
4.02325914565e-06
2.51461974451e-06
1.69777098987e-05
1.53340934492e-05
7.04898661294e-05
7.77242448028e-05
2.60092479484e-05
3.78935953973e-06
2.22647189329e-05
2.33123467246e-05
8.4111594817e-06
1.82652640547e-05
5.53166050813e-05
6.61439937735e-05
1.34595950491e-05
1.37138359193e-05
8.62617181043e-06
9.07262090229e-06
9.45058409401e-06
1.37469992803e-05
5.32196772622e-06
7.07776511836e-06
7.111053473e-06
9.41733076599e-06
6.00555898853e-06
9.65635572877e-07
1.05182183429e-06
8.04026493375e-06
8.91728299822e-07
5.38064881507e-06
1.09301438917e-05
1.12562213576e-05
3.55339395117e-06
6.58209104784e-06
7.81352546807e-07
9.09333722575e-06
7.61797003216e-06
5.43884413171e-06
1.52040276802e-06
7.19039395793e-06
4.77675583265e-06
8.35873761612e-06
4.20245975822e-06
5.50603193378e-06
1.16755087176e-05
4.35693761224e-06
4.46882769212e-06
2.95479724139e-05
2.72987142554e-05
3.11986411042e-05
2.23091831421e-06
3.24571222908e-06
2.36008482264e-06
7.26001989428e-06
4.45110353875e-05
2.46391222679e-05
3.19574130552e-05
2.52072708861e-05
1.86819500336e-05
1.09954412895e-05
9.1272406188e-06
1.64833099331e-05
1.77766733636e-05
7.08085112586e-06
4.81047699318e-06
6.37778009599e-06
1.76038209386e-05
1.18921241194e-05
9.31893038823e-06
1.1596241516e-05
5.98527834874e-06
8.89953348028e-06
1.79296175713e-05
7.69981221734e-06
1.98685232316e-05
1.41668539379e-05
1.58717076224e-05
1.07182890832e-05
1.96810484154e-05
1.34960909456e-05
1.33911297713e-05
1.57537342711e-05
1.06609378258e-05
1.74079605558e-05
1.9491498542e-05
1.73125586479e-05
2.15214471075e-05
2.41076832287e-05
3.5345547116e-05
1.64225609883e-05
9.19645218998e-06
1.50698102733e-05
3.47387581322e-05
6.87436423044e-06
2.26916233687e-05
2.78183222077e-05
2.10491576755e-05
2.44355004813e-05
2.25507613592e-05
2.93764279513e-05
3.00075318041e-05
2.39293893901e-05
1.77141868985e-05
1.80971150727e-05
1.36062254141e-05
2.4263962494e-05
2.23647145036e-05
2.61826701459e-05
2.89528655038e-05
1.45114084712e-05
4.25403502335e-05
4.53296415907e-05
2.97232152663e-05
1.46963822453e-05
1.31079107545e-05
1.59358455527e-05
1.55112894451e-05
1.61723605607e-05
9.41256303965e-06
3.44859254406e-06
1.72422720758e-06
8.22381149025e-06
8.17231805025e-06
1.32826862158e-05
7.14515822659e-06
3.38209541429e-06
3.35867275922e-06
2.24090886924e-07
4.03439944047e-05
5.49044995522e-05
2.61014983135e-05
1.30728696398e-05
5.19456437402e-06
3.52095910589e-06
6.41367896796e-06
5.32764588868e-06
5.87214096647e-06
1.08479616945e-05
8.00602442036e-06
1.14967717114e-05
1.15193970742e-05
3.16291016272e-05
2.4619862236e-05
4.82065119005e-06
1.47376067503e-05
5.14609712947e-06
5.43565759018e-06
3.88096942414e-06
7.60261150935e-06
2.41749649753e-05
2.49281916393e-05
1.03832498245e-05
1.29555411674e-05
1.26934798112e-06
6.23912208467e-06
1.07302986312e-05
7.16048052904e-06
1.26394863125e-05
8.73121066746e-07
1.43096758495e-05
5.82002685697e-06
2.23880363676e-06
5.98509096269e-06
3.78131692802e-07
1.7780379941e-06
5.10549240973e-07
1.26321963362e-08
8.3960155816e-08
3.68734917872e-07
8.09837480414e-07
3.12247670211e-07
3.36424691117e-06
8.48612057455e-06
9.27705134169e-06
5.34547356304e-06
2.23705787126e-05
1.20139526826e-05
1.01092679608e-05
1.0194188746e-05
4.97777567307e-06
6.80410194239e-08
1.19534102866e-06
1.45573417121e-06
1.99399245374e-06
4.028787989e-06
9.22921111956e-06
4.37371632195e-06
4.66381553405e-06
6.26763727888e-07
4.21586052164e-06
5.42793528591e-06
5.95401151626e-06
1.46371331248e-07
4.11214928567e-06
1.37126994099e-06
1.79063102038e-06
2.47256918112e-06
4.37660378078e-06
2.41693253519e-06
7.62200022478e-08
1.78664466941e-06
3.74952100202e-06
1.84349426024e-06
1.0801513623e-06
7.27033954546e-07
2.80626885495e-06
6.00792510139e-06
5.74626861948e-06
4.24542249896e-06
5.56220264958e-06
1.22419152307e-05
3.07597556275e-06
2.1712681464e-07
7.06786088139e-06
7.24046273896e-06
6.45486202513e-06
1.91084523639e-06
6.42963489605e-06
4.02928066172e-06
6.70442857835e-06
1.07354402418e-05
1.18735382847e-05
6.68853242501e-06
1.08884503458e-05
1.01421401115e-05
9.14492365505e-06
1.14236414998e-05
1.29913483215e-05
1.43079120561e-05
9.94907736751e-06
1.18742435083e-05
1.29395337491e-05
1.10977664328e-05
1.32157772775e-05
1.61412856652e-05
2.20430249704e-05
4.34117996193e-06
8.02302769596e-06
7.43838944599e-06
8.29906731204e-06
1.00163465345e-05
1.15267549641e-05
1.23811615765e-05
9.25495124363e-06
9.61434204858e-06
1.13045631337e-05
7.68472729722e-06
1.19321438556e-05
9.82056448231e-06
1.35016723232e-05
1.30932417356e-05
1.206343453e-05
7.67453677895e-06
9.34201801545e-06
7.7405318741e-06
8.59170143476e-06
7.8656273157e-06
9.78254238951e-06
7.44204184851e-06
9.47429353101e-06
6.39391631879e-06
6.92789558596e-06
4.37044567358e-06
5.77361299023e-06
8.30985132516e-06
9.30072705281e-06
7.30210161081e-06
6.01938212291e-06
8.92660754076e-06
9.77179990394e-06
8.79372554575e-06
8.90016535341e-06
4.06192543679e-06
4.37583199544e-06
2.85459678401e-06
3.41239615179e-06
1.34011728878e-05
1.30012531446e-05
1.64109605865e-05
1.69676695725e-05
6.62103099151e-06
1.56695696123e-07
4.66415585769e-08
9.54971659809e-06
1.19539976586e-05
3.67215334945e-06
8.91938609202e-06
3.48339717602e-07
1.1067563207e-05
1.24605684093e-06
6.10111487955e-07
4.03986163316e-06
3.12634827038e-06
4.10819788837e-06
1.36216671832e-06
3.56422956899e-06
5.14671978935e-07
6.64629665028e-07
1.16515078007e-06
1.16178703516e-05
1.31582715784e-06
8.06129713567e-07
1.00003563671e-07
3.8922079665e-06
2.0595706425e-05
9.72012220939e-06
6.50208867021e-06
5.10273043057e-06
5.65544308207e-06
6.30990080101e-07
3.95837459537e-06
3.49315834115e-06
7.5320781831e-06
4.30995593312e-07
4.09189405747e-06
5.5433675596e-07
2.43990898102e-05
1.80660096251e-06
2.00443932749e-06
1.07085016272e-06
2.06590459259e-05
3.98874635158e-06
1.71651722075e-06
2.95930238138e-06
2.83446935689e-06
3.64561724245e-06
3.22187854131e-06
3.03338727553e-06
1.1478067966e-05
3.71332107676e-06
2.47639910736e-06
1.70170893403e-06
1.89632753628e-06
1.34444307473e-05
4.78348735643e-06
4.68934750625e-06
1.07782480016e-05
4.04645617141e-06
3.25910582328e-05
5.98748936477e-05
4.39285745583e-05
3.31022354611e-05
1.54054036052e-05
6.05206067953e-06
4.6653019555e-06
5.52173433177e-06
5.8040078181e-06
4.7074344243e-06
8.29600999777e-06
4.86706024297e-06
4.14198339081e-06
2.77958184187e-06
7.10547026535e-06
1.15955749403e-05
2.09869451799e-05
4.00850452465e-06
1.17763261138e-05
4.2503594536e-06
3.28160879771e-06
1.42951958605e-06
1.50443948364e-05
7.56877928432e-06
9.37310526252e-06
4.29915593391e-06
3.59926410879e-06
1.22158951123e-05
8.21975483289e-06
2.3600695207e-05
1.0940827389e-05
1.44063871328e-05
1.27620018891e-05
9.9615440696e-06
1.18050728679e-05
1.56439813784e-05
7.68313353341e-06
1.16677811305e-05
7.21494954247e-06
1.06935830084e-05
7.61441645417e-06
8.12147827743e-06
1.28993667308e-05
1.68969461483e-05
7.83020908513e-06
2.6555843232e-05
1.90182737446e-05
1.85282422525e-05
1.90611864059e-05
7.69532066835e-06
1.08220176063e-05
1.00558120461e-05
4.81754810569e-06
7.05707011088e-06
1.40010832553e-05
8.97978386925e-06
7.0950576472e-06
2.26729697613e-06
6.26194148775e-06
6.54582146815e-06
3.03589063107e-06
4.0614036753e-06
2.15972382423e-06
2.31821560004e-06
3.48300831725e-06
7.06841677091e-07
3.59481261882e-06
4.64665483919e-06
3.00392222947e-06
2.40229077258e-06
2.34342195855e-06
3.2999542797e-06
4.71012524637e-07
9.53774236836e-07
8.47736467278e-06
3.07912250214e-06
3.64090940207e-06
1.39818229199e-05
3.08405027191e-06
4.11218555767e-06
2.80559723089e-05
2.94749566446e-05
1.79390352044e-06
1.65098149634e-06
1.71205665728e-06
2.44019131391e-06
1.70981400392e-06
1.7571855386e-06
1.89917528493e-06
2.44999433871e-06
4.30624079478e-06
1.61366242624e-06
1.5738315064e-06
1.88264724762e-06
4.01110650043e-07
9.39568138844e-07
2.27492865353e-07
1.71981272359e-06
1.5058676211e-06
2.4637801895e-06
2.01092690394e-06
1.51200319996e-06
1.10371765842e-06
2.37069507011e-06
2.02758385575e-06
2.18973602585e-06
1.19979451085e-06
2.09362908947e-06
2.99358864648e-06
1.44458484511e-06
8.01173606228e-07
8.48184530696e-07
4.63202784748e-07
9.41990911159e-07
7.57274844182e-07
1.44219236485e-07
1.96036099794e-06
9.89656119563e-07
4.71683148371e-07
2.1780570717e-06
1.57631709713e-06
1.54111848593e-06
4.53498047271e-06
8.46252383769e-06
5.04114317353e-06
3.66382182688e-06
7.74294863893e-06
7.3149467104e-06
6.01607078955e-06
6.55138621055e-06
1.30919771703e-05
1.6465382457e-05
3.95327852808e-06
3.84744616289e-06
4.32295842675e-06
4.401183304e-08
5.23748320489e-06
1.3101198523e-05
2.00383513575e-06
1.03301275029e-05
3.19028641317e-06
2.22354487135e-07
9.30989057519e-06
1.08596187557e-05
7.7483090888e-06
6.57216126394e-06
9.15306490833e-06
7.52906454446e-06
2.62636763048e-06
2.90753905294e-06
2.90177227626e-06
2.84417627814e-06
3.71228318283e-06
6.93398541985e-06
3.85276108032e-06
3.28227023742e-06
1.40956776883e-06
4.00029453745e-06
3.45678487774e-06
4.04724933904e-06
2.95521695583e-06
6.12484095125e-06
3.50273944508e-06
5.39825555785e-06
5.58837034508e-06
8.39401811588e-06
5.95695278443e-06
5.77878040836e-06
8.44910117475e-06
1.5709856249e-05
8.44375973314e-06
9.36266083417e-06
1.01318860981e-05
2.05517627818e-05
1.57900122883e-05
1.05039552522e-05
6.96659046037e-06
1.40592890902e-05
9.60119756224e-06
8.64523713953e-06
3.44942678118e-05
5.61549134348e-05
2.92540899829e-05
3.29669635402e-05
1.84658543151e-05
2.6874346096e-05
2.01579714098e-05
1.18988104855e-05
8.75601004891e-06
1.39499082187e-05
9.40400138282e-06
6.68051545107e-06
9.21575388627e-06
1.88207840001e-05
9.43779007436e-06
1.05590665316e-05
1.14991357976e-05
2.54206232105e-05
1.90835604142e-05
1.21208711166e-05
7.70988340823e-06
1.58733428948e-05
1.03118251695e-05
7.64442278007e-06
5.23949266659e-06
1.26433490036e-06
4.47867796052e-06
7.23921109289e-07
1.5289045018e-06
9.6334241039e-06
6.8192987483e-06
3.98457655005e-06
4.60178005348e-06
1.177757329e-05
8.10812267539e-06
5.05925696046e-06
8.75899622094e-06
9.04262387399e-06
1.40397954858e-06
1.02876219828e-06
2.43171578966e-06
6.72102501784e-06
7.89737217552e-07
1.59170894299e-06
2.10428098669e-06
6.95147513835e-06
1.06371155087e-06
8.13233436752e-07
8.80561198135e-07
1.45941181486e-06
1.81660253902e-06
9.52066970075e-06
1.14484597941e-06
2.88572632887e-07
5.92328126146e-06
7.55477624608e-06
6.35822314122e-06
5.28336333824e-06
2.13707563268e-06
4.97848026823e-06
9.23273499364e-08
1.57720657874e-06
2.59479215475e-06
1.26497906464e-05
1.5446154822e-06
1.5605677247e-09
3.1008581e-06
9.22251236189e-06
3.56361137149e-06
2.03614642406e-06
1.88489887892e-06
3.99048821165e-07
1.48507858482e-05
4.99207853268e-06
1.48095051122e-05
3.56060601375e-06
6.90722620367e-06
6.73147209384e-06
3.14009394649e-06
3.39236726643e-06
8.51385743387e-06
8.49209078017e-06
8.2596495208e-06
1.07965704565e-06
8.39536284914e-06
8.56680776517e-06
6.84038730859e-06
3.64732786334e-07
4.98897863291e-06
7.07772059787e-06
8.4392773062e-06
1.48745896859e-06
7.38787288391e-06
2.34513735609e-06
6.25637404096e-06
1.37687856276e-06
7.34098061376e-06
5.12759188369e-06
6.4464050454e-07
1.49513559635e-05
2.83740325008e-07
3.80474308318e-06
6.73713451861e-06
3.81072476803e-06
4.70625158797e-06
8.98530492054e-06
4.23468131893e-06
8.14903100328e-06
9.71307817686e-06
1.18535515272e-05
2.09853748257e-06
1.6816029612e-07
2.51661526688e-06
4.9959746089e-06
1.241827176e-05
7.84921982574e-06
1.78046098194e-07
7.09909603224e-06
2.08662599618e-06
1.63127261601e-06
3.80874668599e-06
9.56462930085e-07
8.5012406552e-08
1.65076627543e-06
2.35349371216e-06
2.34442665343e-06
4.87064578671e-06
6.92516664799e-06
4.85404805467e-06
2.89237789898e-08
4.74281751146e-06
6.51327843698e-06
5.39983466509e-06
1.17964185041e-06
2.25188354401e-06
3.9527668289e-06
5.49659741472e-06
5.39475185911e-08
3.80594889877e-06
3.89358203942e-06
2.14612538232e-07
3.22854051627e-06
5.89780863673e-06
3.12070110318e-06
2.65112338248e-06
1.18859625786e-07
2.22753082507e-06
1.74702776916e-06
4.32260900972e-06
4.63225692741e-06
5.56509345013e-06
4.13171090766e-06
4.70902634809e-06
2.22186133138e-06
2.76669871108e-06
3.22903977644e-06
3.35474810357e-06
1.53514473047e-07
6.22661291853e-09
2.83158348778e-06
3.49548397269e-06
4.34491549699e-06
3.62839053926e-06
3.74079391418e-06
6.06293610514e-06
5.32084305889e-06
6.98256050379e-06
1.6350663197e-06
3.50173136355e-06
4.02376490488e-06
5.87602615654e-06
2.47677063684e-06
4.78904374247e-06
3.97416841173e-06
3.11174862362e-06
1.26631813874e-06
3.47487247348e-06
9.5571052251e-07
9.17586533447e-06
6.14797959855e-06
1.27746984254e-05
1.98820079607e-05
1.76794446972e-06
7.723320876e-06
3.97059870109e-06
1.05803695504e-05
1.21568727962e-06
6.6804328024e-07
8.91120208344e-06
3.01134831655e-06
1.22863256252e-05
1.09000406384e-05
8.37060843154e-06
1.26626596984e-05
2.72190942405e-06
2.38660673525e-06
5.74371062896e-06
3.70500927841e-06
3.86979699573e-06
5.87370819615e-06
1.04101353672e-05
8.96511061835e-06
3.60598345601e-06
4.51591788811e-06
6.89244776267e-06
4.88679340809e-06
6.92397596125e-06
4.98931343979e-06
7.42384454083e-06
6.30798129117e-06
5.73202881405e-06
4.25198345278e-06
2.80054292902e-06
7.02202353039e-06
4.43347969606e-06
2.46148689895e-06
6.73321075318e-06
4.85648396984e-06
6.61259048801e-07
4.03690079905e-06
4.43687950216e-07
1.38448572544e-06
1.3602594388e-06
3.76774505813e-06
4.35956556716e-06
1.87010259021e-06
5.36149139038e-07
6.12736440147e-06
5.62219615906e-06
3.71788562951e-06
4.26100814248e-06
1.93490032588e-07
4.28670446656e-06
8.48496324108e-07
3.30306489932e-06
5.40921674402e-06
4.16361695758e-06
3.44861183835e-06
5.23067250312e-06
3.01212180008e-06
7.49537587884e-06
4.54385864062e-06
5.24927823817e-06
2.50019384357e-06
9.91883038197e-08
7.85745100733e-06
4.62343389769e-06
2.00257687457e-06
7.49561197087e-06
2.7914257436e-07
9.75847579447e-06
4.16043060554e-09
4.57264273919e-06
1.28454136995e-05
3.36914618051e-06
4.03843654928e-06
8.05757254894e-06
7.86067352515e-06
8.39421553346e-06
6.28633062272e-06
8.06343372019e-06
9.20251832209e-06
8.25796546458e-06
5.24340237689e-06
4.998313187e-06
7.45864585095e-06
8.97874594328e-06
7.92799312646e-06
8.36239550177e-06
8.03152552833e-06
1.72158281818e-06
1.18822517796e-05
6.08490796825e-06
4.13042251563e-06
6.35777017006e-06
6.88942027691e-06
1.86428581899e-06
8.48643864657e-07
8.86409009843e-07
2.78366108951e-07
1.07857455881e-06
7.33335118112e-08
3.04582713875e-06
4.32026669637e-06
7.45945838221e-06
1.86083890845e-05
7.94923709612e-06
3.9623695091e-06
4.50400916248e-06
1.11793174189e-05
3.16827164681e-06
5.42330564814e-06
2.06581029279e-06
2.71907070828e-06
2.65396148851e-06
4.86536898229e-06
5.9407999528e-06
4.43267809614e-06
6.03765752465e-06
3.82289424512e-06
5.14194538909e-06
3.98397850776e-07
4.35376698388e-06
3.24063106628e-06
6.55834995499e-06
4.18051513921e-06
4.28541206039e-06
4.17988452625e-06
3.42034494943e-06
1.69180941473e-06
4.40013577732e-06
1.45817441517e-06
1.18721152377e-05
8.24303638521e-06
1.09967692426e-05
1.19044472492e-05
4.34251089336e-06
6.35584112573e-06
6.80866259036e-06
6.27521707888e-06
1.2419133001e-05
1.20420368417e-05
6.86083037731e-06
1.20945992648e-05
1.33773032369e-05
6.26824988419e-06
1.69381217266e-06
6.34603260794e-06
1.27052380294e-05
3.18696304164e-06
6.68601076644e-06
3.84934469998e-07
3.0118653197e-06
7.3595742168e-06
1.42368476689e-05
1.09467557073e-05
1.17126023373e-05
1.04878930779e-05
6.77410833209e-06
6.35630322839e-06
7.47450344257e-06
1.56484723011e-05
1.38154241202e-06
5.43588888841e-07
2.20083519022e-07
2.46455810412e-05
7.84566275424e-05
1.65421121988e-05
5.47777720982e-05
9.7163544145e-05
4.75560434364e-05
1.51626070517e-05
2.76220559545e-05
1.84039743392e-06
1.16123554232e-05
9.73391279925e-06
7.94572688798e-06
1.08305411883e-05
5.88464879051e-06
2.90447140284e-06
2.14924081929e-06
5.15822758867e-06
1.80207773876e-06
1.2451982841e-05
9.59155033341e-06
1.52492815386e-06
6.05641621519e-06
4.1757565939e-07
5.48121469234e-06
7.43615059061e-06
7.83598686551e-06
8.38098188598e-07
6.64415528393e-06
9.55759562034e-06
7.18923635885e-06
7.26519165012e-06
6.01886151394e-06