# vtk DataFile Version 3.0
File Name: Molecule/sphere_cent/sphere_cent_0-s3.vtk
ASCII
DATASET UNSTRUCTURED_GRID
FIELD FieldData 1
TIME 1 1 double
0.0
POINTS 642 double
0.850650808352 -0.525731112119 0.0
0.840242354857 -0.471552582683 -0.125
0.887988106264 -0.394298334089 0.0
0.877579652769 -0.340119804654 -0.125
0.829833901363 -0.417374053247 -0.25
0.925325404176 -0.26286555606 0.0
0.867171199275 -0.285941275218 -0.25
0.914916950682 -0.208687026624 -0.125
0.904508497187 -0.154508497188 -0.25
0.819425447869 -0.363195523811 -0.375
0.856762745781 -0.231762745782 -0.375
0.809016994375 -0.309016994375 -0.5
0.962662702088 -0.13143277803 0.0
0.952254248593 -0.077254248594 -0.125
1.0 0.0 0.0
0.809016994375 -0.154508497188 -0.5
0.856762745781 -0.077254248594 -0.375
0.809016994375 0.0 -0.5
0.856762745781 0.077254248594 -0.375
0.904508497187 0.0 -0.25
0.904508497187 0.154508497188 -0.25
0.809016994375 0.154508497188 -0.5
0.856762745781 0.231762745782 -0.375
0.809016994375 0.309016994375 -0.5
0.952254248593 0.077254248594 -0.125
0.738195523811 -0.231762745782 -0.587662702088
0.738195523811 -0.077254248594 -0.587662702088
0.667374053247 -0.154508497188 -0.675325404176
0.667374053247 0.0 -0.675325404176
0.738195523811 0.077254248594 -0.587662702088
0.667374053247 0.154508497188 -0.675325404176
0.596552582683 -0.077254248594 -0.762988106264
0.596552582683 0.077254248594 -0.762988106264
0.525731112119 0.0 -0.850650808352
0.738195523811 0.231762745782 -0.587662702088
0.962662702088 0.13143277803 0.0
0.914916950682 0.208687026624 -0.125
0.925325404176 0.26286555606 0.0
0.867171199275 0.285941275218 -0.25
0.877579652769 0.340119804654 -0.125
0.829833901363 0.417374053247 -0.25
0.819425447869 0.363195523811 -0.375
0.887988106264 0.394298334089 0.0
0.840242354857 0.471552582683 -0.125
0.850650808352 0.525731112119 0.0
0.762988106264 0.596552582683 -0.077254248594
0.752579652769 0.542374053247 -0.202254248594
0.675325404176 0.667374053247 -0.154508497188
0.742171199275 0.488195523811 -0.327254248594
0.664916950682 0.613195523811 -0.279508497188
0.654508497187 0.559016994375 -0.404508497188
0.731762745781 0.434016994375 -0.452254248594
0.587662702088 0.738195523811 -0.231762745782
0.577254248593 0.684016994375 -0.356762745782
0.5 0.809016994375 -0.309016994375
0.684016994375 0.356762745782 -0.577254248593
0.606762745781 0.481762745782 -0.529508497188
0.559016994375 0.404508497188 -0.654508497187
0.481762745782 0.529508497188 -0.606762745781
0.529508497188 0.606762745781 -0.481762745782
0.404508497188 0.654508497187 -0.559016994375
0.434016994375 0.452254248594 -0.731762745781
0.356762745782 0.577254248593 -0.684016994375
0.309016994375 0.5 -0.809016994375
0.452254248594 0.731762745781 -0.434016994375
0.613195523811 0.279508497188 -0.664916950682
0.542374053247 0.202254248594 -0.752579652769
0.488195523811 0.327254248594 -0.742171199275
0.417374053247 0.25 -0.829833901363
0.471552582683 0.125 -0.840242354857
0.363195523811 0.375 -0.819425447869
0.375 0.819425447869 -0.363195523811
0.327254248594 0.742171199275 -0.488195523811
0.25 0.829833901363 -0.417374053247
0.279508497188 0.664916950682 -0.613195523811
0.202254248594 0.752579652769 -0.542374053247
0.154508497188 0.675325404176 -0.667374053247
0.231762745782 0.587662702088 -0.738195523811
0.125 0.840242354857 -0.471552582683
0.077254248594 0.762988106264 -0.596552582683
0.0 0.850650808352 -0.525731112119
0.762988106264 0.596552582683 0.077254248594
0.675325404176 0.667374053247 0.0
0.675325404176 0.667374053247 0.154508497188
0.587662702088 0.738195523811 -0.077254248594
0.587662702088 0.738195523811 0.077254248594
0.5 0.809016994375 0.0
0.5 0.809016994375 -0.154508497188
0.587662702088 0.738195523811 0.231762745782
0.5 0.809016994375 0.154508497188
0.5 0.809016994375 0.309016994375
0.375 0.856762745781 -0.231762745782
0.375 0.856762745781 -0.077254248594
0.25 0.904508497187 -0.154508497188
0.25 0.904508497187 0.0
0.375 0.856762745781 0.077254248594
0.25 0.904508497187 0.154508497188
0.125 0.952254248593 -0.077254248594
0.125 0.952254248593 0.077254248594
0.0 1.0 0.0
0.375 0.856762745781 0.231762745782
0.25 0.867171199275 -0.285941275218
0.125 0.877579652769 -0.340119804654
0.125 0.914916950682 -0.208687026624
0.0 0.925325404176 -0.26286555606
0.0 0.887988106264 -0.394298334089
0.0 0.962662702088 -0.13143277803
0.375 0.819425447869 0.363195523811
0.25 0.867171199275 0.285941275218
0.25 0.829833901363 0.417374053247
0.125 0.914916950682 0.208687026624
0.125 0.877579652769 0.340119804654
0.0 0.925325404176 0.26286555606
0.0 0.962662702088 0.13143277803
0.125 0.840242354857 0.471552582683
0.0 0.887988106264 0.394298334089
0.0 0.850650808352 0.525731112119
-0.125 0.840242354857 0.471552582683
-0.125 0.877579652769 0.340119804654
-0.25 0.829833901363 0.417374053247
-0.125 0.914916950682 0.208687026624
-0.25 0.867171199275 0.285941275218
-0.25 0.904508497187 0.154508497188
-0.125 0.952254248593 0.077254248594
-0.375 0.819425447869 0.363195523811
-0.375 0.856762745781 0.231762745782
-0.5 0.809016994375 0.309016994375
-0.125 0.952254248593 -0.077254248594
-0.25 0.904508497187 0.0
-0.25 0.904508497187 -0.154508497188
-0.375 0.856762745781 -0.077254248594
-0.375 0.856762745781 0.077254248594
-0.5 0.809016994375 0.0
-0.375 0.856762745781 -0.231762745782
-0.5 0.809016994375 -0.154508497188
-0.5 0.809016994375 -0.309016994375
-0.5 0.809016994375 0.154508497188
-0.125 0.914916950682 -0.208687026624
-0.125 0.877579652769 -0.340119804654
-0.25 0.867171199275 -0.285941275218
-0.25 0.829833901363 -0.417374053247
-0.125 0.840242354857 -0.471552582683
-0.375 0.819425447869 -0.363195523811
-0.587662702088 0.738195523811 0.231762745782
-0.587662702088 0.738195523811 0.077254248594
-0.675325404176 0.667374053247 0.154508497188
-0.587662702088 0.738195523811 -0.077254248594
-0.675325404176 0.667374053247 0.0
-0.675325404176 0.667374053247 -0.154508497188
-0.587662702088 0.738195523811 -0.231762745782
-0.762988106264 0.596552582683 0.077254248594
-0.762988106264 0.596552582683 -0.077254248594
-0.850650808352 0.525731112119 0.0
-0.077254248594 0.762988106264 0.596552582683
-0.202254248594 0.752579652769 0.542374053247
-0.154508497188 0.675325404176 0.667374053247
-0.327254248594 0.742171199275 0.488195523811
-0.279508497188 0.664916950682 0.613195523811
-0.404508497188 0.654508497187 0.559016994375
-0.452254248594 0.731762745781 0.434016994375
-0.231762745782 0.587662702088 0.738195523811
-0.356762745782 0.577254248593 0.684016994375
-0.309016994375 0.5 0.809016994375
-0.577254248593 0.684016994375 0.356762745782
-0.529508497188 0.606762745781 0.481762745782
-0.654508497187 0.559016994375 0.404508497188
-0.606762745781 0.481762745782 0.529508497188
-0.481762745782 0.529508497188 0.606762745781
-0.559016994375 0.404508497188 0.654508497187
-0.731762745781 0.434016994375 0.452254248594
-0.684016994375 0.356762745782 0.577254248593
-0.809016994375 0.309016994375 0.5
-0.434016994375 0.452254248594 0.731762745781
-0.664916950682 0.613195523811 0.279508497188
-0.752579652769 0.542374053247 0.202254248594
-0.742171199275 0.488195523811 0.327254248594
-0.829833901363 0.417374053247 0.25
-0.840242354857 0.471552582683 0.125
-0.819425447869 0.363195523811 0.375
-0.363195523811 0.375 0.819425447869
-0.488195523811 0.327254248594 0.742171199275
-0.417374053247 0.25 0.829833901363
-0.613195523811 0.279508497188 0.664916950682
-0.542374053247 0.202254248594 0.752579652769
-0.667374053247 0.154508497188 0.675325404176
-0.738195523811 0.231762745782 0.587662702088
-0.471552582683 0.125 0.840242354857
-0.596552582683 0.077254248594 0.762988106264
-0.525731112119 0.0 0.850650808352
0.077254248594 0.762988106264 0.596552582683
0.0 0.675325404176 0.667374053247
0.154508497188 0.675325404176 0.667374053247
-0.077254248594 0.587662702088 0.738195523811
0.077254248594 0.587662702088 0.738195523811
0.0 0.5 0.809016994375
-0.154508497188 0.5 0.809016994375
0.231762745782 0.587662702088 0.738195523811
0.154508497188 0.5 0.809016994375
0.309016994375 0.5 0.809016994375
-0.231762745782 0.375 0.856762745781
-0.077254248594 0.375 0.856762745781
-0.154508497188 0.25 0.904508497187
0.0 0.25 0.904508497187
0.077254248594 0.375 0.856762745781
0.154508497188 0.25 0.904508497187
-0.077254248594 0.125 0.952254248593
0.077254248594 0.125 0.952254248593
0.0 0.0 1.0
0.231762745782 0.375 0.856762745781
-0.285941275218 0.25 0.867171199275
-0.340119804654 0.125 0.877579652769
-0.208687026624 0.125 0.914916950682
-0.26286555606 0.0 0.925325404176
-0.394298334089 0.0 0.887988106264
-0.13143277803 0.0 0.962662702088
0.363195523811 0.375 0.819425447869
0.285941275218 0.25 0.867171199275
0.417374053247 0.25 0.829833901363
0.208687026624 0.125 0.914916950682
0.340119804654 0.125 0.877579652769
0.26286555606 0.0 0.925325404176
0.13143277803 0.0 0.962662702088
0.471552582683 0.125 0.840242354857
0.394298334089 0.0 0.887988106264
0.525731112119 0.0 0.850650808352
-0.471552582683 -0.125 0.840242354857
-0.340119804654 -0.125 0.877579652769
-0.417374053247 -0.25 0.829833901363
-0.285941275218 -0.25 0.867171199275
-0.208687026624 -0.125 0.914916950682
-0.154508497188 -0.25 0.904508497187
-0.363195523811 -0.375 0.819425447869
-0.231762745782 -0.375 0.856762745781
-0.309016994375 -0.5 0.809016994375
-0.077254248594 -0.125 0.952254248593
-0.154508497188 -0.5 0.809016994375
-0.077254248594 -0.375 0.856762745781
0.0 -0.5 0.809016994375
0.077254248594 -0.375 0.856762745781
0.0 -0.25 0.904508497187
0.154508497188 -0.25 0.904508497187
0.154508497188 -0.5 0.809016994375
0.231762745782 -0.375 0.856762745781
0.309016994375 -0.5 0.809016994375
0.077254248594 -0.125 0.952254248593
-0.231762745782 -0.587662702088 0.738195523811
-0.077254248594 -0.587662702088 0.738195523811
-0.154508497188 -0.675325404176 0.667374053247
0.0 -0.675325404176 0.667374053247
0.077254248594 -0.587662702088 0.738195523811
0.154508497188 -0.675325404176 0.667374053247
-0.077254248594 -0.762988106264 0.596552582683
0.077254248594 -0.762988106264 0.596552582683
0.0 -0.850650808352 0.525731112119
[...]
CELL_DATA 1280
SCALARS cell_data_0 double
LOOKUP_TABLE default
7.46709162881e-08
8.90447730726e-08
1.06282935426e-07
1.18675744505e-07
6.82597107609e-08
7.29909196165e-08
3.06579743122e-07
7.41558204964e-08
1.71177290292e-07
2.26132841269e-07
5.87003752566e-07
2.46949372519e-07
1.07222243254e-07
9.33461374923e-08
1.8728667596e-07
3.46525607625e-07
3.21815384704e-08
4.21831197277e-07
5.2382443453e-07
4.26901828377e-07
4.59440527294e-07
4.0822655069e-07
1.47006045345e-07
6.31675701007e-07
3.7185050101e-08
4.2886386216e-08
1.6919892776e-07
2.04881197464e-09
3.83557470926e-07
1.88965292574e-07
7.60882968327e-08
2.44966510078e-07
4.73670986036e-09
3.89630856814e-07
1.490739022e-07
4.17301921492e-07
2.03300552515e-07
3.15390522903e-07
1.20777637032e-08
4.27537191724e-07
2.468746825e-07
3.78743460457e-07
8.88807975275e-07
3.95866749408e-07
9.12895709459e-08
8.13126550448e-09
7.95899638357e-08
2.25822900885e-07
2.32851248493e-07
2.5104747678e-07
1.48310764051e-07
1.39442628721e-08
3.279056481e-07
6.06029141269e-07
4.33315779736e-07
3.85111084483e-07
1.07124883006e-07
2.08085760922e-07
4.49351383977e-08
7.65569465266e-08
9.02229158727e-09
1.70381222361e-07
1.86041454403e-07
5.79984501535e-07
6.04473329984e-07
2.27864963481e-07
1.64902054579e-07
2.59122073272e-07
1.4816913956e-08
1.97367187947e-07
3.2969104487e-07
1.40563686595e-07
2.99440708509e-08
1.49652176224e-07
6.22374817012e-09
2.04281071426e-07
3.86622141206e-08
3.05658834416e-07
3.82824547557e-07
1.05348934401e-07
3.11958264719e-08
1.0505918615e-07
6.04650902747e-08
1.86378872042e-07
2.64621829883e-07
1.64317039002e-07
4.98334806503e-07
1.85596664534e-07
2.10677263244e-08
1.2307537104e-07
9.77889399379e-07
3.6664716474e-07
3.60845776726e-07
2.94250469369e-07
3.06808625534e-07
2.81639234414e-08
9.22682562824e-08
1.16152950755e-07
8.68299701434e-08
1.60321925899e-07
3.43465387759e-07
5.39157214613e-07
4.43466636976e-07
3.3585932435e-07
9.56478751739e-09
3.58181469109e-08
8.8755107188e-07
1.17522346739e-07
2.85339881035e-08
2.27289402163e-07
7.93567076091e-08
1.0200678769e-06
5.06466060632e-07
1.78135257392e-08
3.46384933946e-07
3.01648297507e-07
5.41352565352e-07
4.65281452436e-07
3.0552365973e-07
1.41339361793e-07
3.34262708815e-07
1.51536969063e-07
5.87114206621e-07
8.27947968389e-08
2.60444430547e-07
1.28872111804e-08
3.34857495557e-08
4.65917350329e-07
8.02938735284e-07
3.84144798462e-07
2.45296342119e-07
4.76539506437e-07
1.63476991951e-07
3.27844099518e-07
2.17445118423e-07
1.35019896609e-08
4.60720862924e-08
1.64110454552e-07
2.92689804124e-07
3.00585679892e-08
4.96862944126e-08
3.85066955463e-07
2.31780059701e-07
1.14578946091e-07
1.80990379895e-07
2.46107508149e-07
1.34310618391e-07
1.93028156408e-08
3.60085613314e-07
4.13816465918e-07
4.10944825552e-07
4.72556678656e-08
6.47337454939e-08
4.37935912843e-08
8.78646180547e-07
2.13126682379e-07
1.66153036566e-07
4.10337271963e-07
1.93946127945e-07
3.33471897746e-08
4.46487053492e-07
2.87758176902e-08
3.07679777524e-07
1.4988669872e-07
2.9295360936e-07
5.39401310743e-07
4.42177318873e-07
2.79893055253e-07
6.77922082355e-08
1.47630425265e-07
4.82928597241e-07
2.28407378193e-07
3.25505216531e-08
2.46792934626e-07
1.6338256386e-07
1.0376399546e-06
4.12806324714e-07
9.46822546503e-08
2.81571283827e-08
1.61111250246e-08
4.2427100514e-08
7.18083241017e-08
1.41040034245e-08
2.36128660517e-07
9.46685063787e-08
1.60864552362e-07
6.56643365101e-07
1.62233547308e-07
1.79243115567e-07
2.12471874048e-07
1.77686933982e-07
8.26495092482e-08
8.12021764356e-08
3.09521497449e-07
2.73923170976e-07
4.54796967693e-08
1.95673876795e-07
3.14050961236e-07
1.10929249783e-07
2.03118182292e-07
9.52728155244e-08
1.56472184455e-07
7.42043175233e-07
2.17926724099e-07
2.32925965491e-07
1.11802275883e-08
6.24039896408e-08
7.48642009747e-07
6.86971155597e-07
2.47411604772e-07
2.46021754872e-07
7.66558786082e-08
6.61889284973e-07
8.87202034986e-07
7.57848308051e-07
5.33234138393e-07
2.37626608058e-07
2.21392596069e-07
7.86394475606e-07
3.72321863445e-07
2.17677025347e-07
2.00245129305e-07
2.15879186697e-07
7.51381947916e-07
7.75247847726e-07
3.00429768056e-08
1.52357998472e-07
9.0355705373e-08
3.18834895555e-07
4.65618744565e-07
3.99680606454e-07
2.73166012417e-07
8.13470667946e-08
1.57097945864e-07
2.68811066922e-07
1.73644651611e-07
4.59278135844e-08
9.95326889819e-08
2.45105264342e-08
7.45080487876e-07
7.29107005953e-07
1.45902205832e-07
8.02814830674e-08
2.54261778401e-08
9.68399798056e-08
6.42376372062e-08
1.34307925142e-07
1.35940264439e-07
9.77543346827e-08
1.75110673857e-07
5.8183318832e-07
3.63624586149e-08
7.5683217817e-08
5.27534260906e-08
2.2765294642e-08
2.57204017735e-07
7.92361860497e-08
2.65473500242e-07
1.04756795533e-07
1.18176034768e-07
6.22994224722e-08
1.33906372448e-07
1.02506084828e-07
7.72469424773e-08
4.7869028863e-07
4.89800565371e-07
1.04130078804e-06
2.34725389161e-07
3.83324836322e-07
2.25753746823e-07
5.06366082746e-08
6.53242584212e-07
8.83586406837e-07
3.83932641165e-08
1.35037155298e-07
6.9011119262e-08
6.18670164843e-07
8.15041343114e-07
6.3032130681e-07
5.4044428635e-07
2.36899395243e-07
2.38394466263e-07
6.74021405158e-07
2.68734285182e-07
2.13715801077e-07
3.27935347062e-08
1.03485470512e-08
5.80012729486e-07
5.69287721773e-07
1.27629113341e-07
1.12206753346e-07
4.48817602877e-08
3.65625860097e-07
4.67222044744e-07
3.6227900098e-07
2.78993695243e-07
1.79517834167e-07
2.08121475958e-07
2.03619857019e-07
1.35602169417e-07
4.13327331052e-08
1.11274675806e-07
2.77739343109e-08
6.80573374964e-07
4.97425773642e-07
1.65686188237e-07
2.3771312471e-07
2.86314497922e-08
1.66537879267e-08
1.51600559817e-07
2.10143504293e-07
2.01373340671e-07
2.02157092858e-07
7.85094973687e-08
4.26303981807e-07
2.81021017193e-08
1.35486880072e-07
1.60238237626e-07
1.28273985099e-07
2.56934521903e-07
3.56775086128e-08
3.43591408382e-07
1.61340648647e-07
1.67710117215e-07
7.60105358215e-08
3.23563238318e-07
4.25787701732e-07
3.57228555929e-07
4.55289103292e-07
2.13372124495e-07
5.66783367324e-07
2.60121123915e-07
3.4050751916e-08
1.64512732941e-07
2.47129789542e-07
3.91616265905e-07
3.71429343724e-07
2.61892496388e-07
3.18717306903e-07
5.31644019847e-07
6.34011588527e-07
8.51775144009e-07
6.3055218575e-07
8.72275895392e-07
3.82693335746e-07
3.19545543117e-07
2.39888807777e-07
1.4891815812e-07
5.49905580699e-07
5.51277333083e-07
5.61088999749e-07
7.05864703819e-08
4.01589057604e-07
5.71871735604e-08
1.00740616189e-07
1.49114293414e-07
1.35219617254e-07
1.3636905734e-07
2.32648722519e-08
3.26431381545e-07
5.96805921078e-08
3.20122324828e-07
5.4352763119e-07
3.91509851864e-07
1.99568845438e-07
9.39226859738e-08
2.14412197375e-07
5.12154504695e-07
5.14088439231e-08
2.58219357447e-07
2.55270167883e-07
1.57861405143e-07
2.33761901387e-07
5.38825422123e-07
3.44388808784e-07
3.46104190827e-07
4.88984239129e-08
1.06438514948e-07
3.50252306638e-07
9.59055674583e-08
1.66579523772e-07
1.94794681179e-07
7.67892820509e-09
4.64876060096e-07
5.94700283903e-07
2.77619607174e-07
1.46051034516e-07
2.98494966085e-07
4.46654232464e-08
1.52381482831e-07
2.23722781313e-07
1.70978598508e-07
1.05887128683e-07
7.56974484984e-08
1.80185237045e-07
8.34539388968e-08
1.40481244859e-07
1.47782463709e-07
3.4753447869e-07
3.03849994548e-07
1.11142404405e-07
4.24308283352e-07
4.3711861941e-07
3.81754811237e-07
5.2023427643e-07
5.83339114363e-07
4.11858737029e-07
5.89062694627e-07
4.29475738433e-08
2.091548953e-07
8.85965772521e-07
5.62541703068e-09
4.85791965572e-07
4.88064056409e-07
2.84088161018e-07
2.19286854976e-08
1.68706789013e-07
2.53695997479e-07
3.17718722806e-07
2.973099808e-07
5.12319110923e-07
6.05498211463e-07
4.79036877006e-07
5.70746724193e-07
1.74510776481e-07
1.60612944724e-07
4.11370843603e-07
5.40370393594e-08
2.87085245293e-07
7.23288873464e-08
1.27031131237e-07
8.70432929087e-07
3.41012360721e-07
5.43110254818e-08
1.07030951179e-07
1.60468392746e-07
2.80365031038e-07
3.20806058063e-07
8.27200369781e-08
8.1788680383e-08
5.21037551405e-08
8.29538866392e-09
6.62640572862e-07
1.58702459517e-07
2.54452141173e-07
3.07613731246e-07
3.97505462046e-07
7.85922308128e-07
6.7430542387e-07
4.56197725297e-07
6.48257497827e-07
3.1088492205e-07
3.63232658063e-07
7.28369259108e-08
1.13414928619e-07
5.25402819124e-08
3.83848638029e-07
9.21968027457e-08
5.11194126947e-07
2.41455354758e-07
8.1900554429e-08
2.57182076936e-07
1.30951636913e-07
9.30500881373e-08
4.99043859289e-07
1.09237324433e-07
1.09787216233e-07
1.05747670077e-07
4.77540399956e-08
2.61386756193e-07
2.0753765582e-07
2.51897641778e-08
7.79014683173e-08
1.97857016358e-07
3.92883568318e-07
1.3796940492e-07
1.68094243004e-07
4.10319235324e-07
1.20719363447e-07
4.21365286366e-08
6.86275697802e-07
1.77507942898e-07
2.4225607626e-07
1.73539925591e-07
4.59107809201e-09
6.96858440195e-09
2.2760042515e-08
1.04067262369e-07
2.57877245602e-07
2.25705047773e-07
2.5787783976e-07
9.74439714171e-08
1.48383852881e-07
5.40197199789e-08
2.00719117296e-08
4.14429784034e-07
2.22066266795e-07
9.42397470387e-08
4.37376218137e-08
2.9296174384e-08
4.23865734585e-08
9.20500884827e-09
2.33617670041e-07
2.12945170443e-08
2.53493781312e-08
3.48104164361e-08
5.016188651e-07
7.38439421632e-08
1.10464737893e-07
8.51700120702e-08
1.15748970026e-07
1.3299757346e-07
7.97557937579e-07
2.15860630231e-07
2.62803725711e-08
4.01559331066e-07
1.78519562061e-08
6.9598975608e-08
1.74605225024e-07
1.30546895688e-07
2.28746702272e-07
1.60367161522e-07
5.8403612307e-07
1.53192388914e-07
3.13727414127e-07
9.21216099787e-08
1.54985266707e-07
3.36120256615e-07
7.00463354863e-07
3.64373601625e-08
1.8264128291e-07
1.22801367859e-08
1.26269673165e-07
2.61911786762e-07
2.71369402183e-07
1.47351768933e-07
1.99955776852e-07
2.08805270331e-07
5.97680758799e-07
3.78396106543e-09
6.75127456153e-09
1.70427482967e-07
1.97486548643e-07
2.32035207493e-07
6.21150700484e-07
1.02799369934e-07
2.47209328579e-08
2.40986724539e-07
2.12859183811e-07
2.81825732398e-07
3.25809035723e-07
1.08854499216e-07
4.49832314096e-08
2.24597839245e-07
8.87757092324e-07
4.02934653865e-08
9.70183710636e-08
8.1735364848e-08
4.41566775471e-08
5.17933361508e-07
2.23049443571e-07
2.05960892103e-07
2.1309483847e-07
1.42374470965e-07
5.07138904644e-07
5.75658840347e-07
3.87348904162e-07
3.60003904856e-07
2.59710570825e-07
2.10577738243e-07
4.30276996423e-07
1.29575347216e-07
3.13855884273e-07
3.07933843817e-07
4.89545328554e-08
2.71742639548e-07
1.32624909969e-07
1.52388764229e-07
1.19613560149e-07
1.76841810599e-07
6.65725808438e-08
7.27463139728e-08
1.04550039861e-07
1.32171773048e-07
2.97810336022e-08
1.57858277003e-07
5.81038746843e-07
8.46753204129e-08
1.08262263385e-07
1.05017367626e-07
8.57193233524e-08
3.44662765266e-07
5.79229609911e-07
3.9584425453e-08
1.32127401955e-07
7.12764283965e-08
6.17799571824e-07
8.1593181767e-07
6.30530517772e-07
5.41207366222e-07
4.18389966852e-07
4.11120498679e-07
3.49593691821e-07
2.52943296072e-07
2.14785273598e-07
2.00462465917e-07
1.52291364634e-07
3.56218131895e-07
2.88591618317e-07
4.47115861805e-08
1.61865177854e-07
8.72056179271e-08
1.24812324644e-07
1.50803432348e-07
1.54219694178e-07
1.12738162853e-07
3.97260039145e-07
1.6023526457e-07
5.33676190107e-07
4.69685700763e-08
9.47933566479e-08
2.12877966726e-07
1.01634965366e-07
1.81634332675e-07
3.23014856551e-07
3.12988364243e-07
2.58928607633e-07
1.89156939628e-07
4.63433530399e-07
6.10995111109e-07
4.05640774992e-07
4.35381314737e-07
2.76220363496e-08
1.09196834101e-07
6.18412073203e-07
2.10864568407e-08
3.72315455246e-08
5.83922113701e-08
1.39008838205e-07
4.17034972404e-07
5.54961074787e-07
1.78355566693e-07
4.95392588177e-07
4.62143606754e-08
1.98494862627e-07
1.52086933689e-07
2.86278678263e-07
1.55051555688e-07
2.36902294962e-07
9.7069551102e-08
2.95543125028e-07
1.51783274582e-07
1.02533576917e-07
2.09642017109e-07
2.53456489467e-07
1.85113019569e-07
2.49238441543e-07
4.22715336747e-07
4.29624245549e-07
4.3103669085e-07
5.32176919284e-07
5.96194926182e-07
6.33011071658e-07
6.32529955696e-07
6.05948035092e-08
2.09982801701e-07
3.58033680975e-07
2.54687542841e-07
3.8227537669e-07
2.58624834264e-07
4.31486574935e-07
2.51860764402e-07
4.22237388399e-07
1.49388007736e-07
2.34269497005e-07
2.97390174283e-07
4.811800474e-07
5.74509260665e-07
4.78158699952e-07
5.72146648954e-07
2.292422637e-07
1.05809925444e-07
2.69063644614e-07
1.2399178972e-07
2.85101141115e-07
7.2433469237e-08
1.71787160478e-07
3.91402768639e-07
5.17452880613e-07
8.99519973455e-08
2.9564274954e-07
3.50451953513e-08
5.03806869335e-07
1.99106633251e-07
5.79100076376e-08
1.37488161826e-07
2.42466357994e-07
9.00960235198e-08
3.02102939566e-07
1.57916365022e-07
1.04622622612e-07
8.16299198042e-08
2.60701820746e-07
2.92935254363e-07
8.82724522702e-07
4.55743445966e-07
1.85767136538e-07
5.56391020176e-07
6.87515111453e-08
1.32527235888e-07
2.85217958048e-07
4.48502994941e-08
3.01242534195e-08
4.77822493974e-08
1.06810063688e-07
1.08374490457e-07
2.29112229171e-08
3.28722773894e-08
3.87073167878e-08
3.78366766078e-07
2.02896889658e-08
1.37272840848e-07
6.77570357958e-10
1.56723866205e-07
1.29446434153e-07
4.68988416086e-07
3.25706644448e-07
4.83685656771e-07
2.0157618228e-07
2.34930945286e-07
6.133763675e-07
1.9898709785e-07
1.96760186606e-07
3.18261428441e-08
5.78511452775e-08
5.90530457523e-07
4.94475358378e-08
2.08701296319e-07
7.87135991172e-08
8.92537563064e-08
1.46481240657e-07
3.23753745745e-07
1.62460176396e-07
2.69556177879e-07
1.45225221508e-07
2.07712669198e-07
5.25133535673e-07
2.38406049608e-07
1.00425315033e-07
1.69667365519e-07
8.86239063552e-08
6.14857367784e-07
4.93349914189e-07
1.43041747582e-08
2.75080599402e-08
8.95508877246e-08
2.72137542438e-07
5.75900998431e-07
4.42863902776e-07
5.17827835992e-07
1.05460743736e-07
3.14859416386e-08
3.76603821413e-07
9.22338771172e-08
2.72165923002e-07
4.24709941294e-07
3.84155254133e-07
7.72929094278e-08
2.67192821913e-07
9.65377142104e-08
6.03880441631e-08
6.67850335112e-08
2.36762701182e-07
7.0786681442e-08
9.70765234612e-08
7.16179454661e-08
1.61269295548e-08
2.30284897524e-07
8.39963364165e-07
4.11458552636e-08
2.37046403069e-07
2.28617675261e-07
2.86895939657e-08
5.68054569278e-07
5.79234056845e-07
4.2210687629e-07
3.05831680299e-07
4.24490731469e-07
5.58817347946e-07
8.51636130636e-07
5.24726240231e-07
7.56507378968e-07
1.04493761969e-07
1.21586119678e-07
4.02169691681e-07
2.15518327889e-07
3.30413901327e-07
1.91360237869e-07
1.36129713165e-07
5.60858414906e-07
6.81383052955e-07
1.64830064007e-08
3.01681714813e-07
2.03146076569e-08
1.40130462145e-07
4.62817429031e-07
2.54010934717e-07
2.14650123192e-07
5.75202472155e-08
3.41894238679e-08
7.29289036611e-07
2.50930627663e-07
1.16048102967e-07
8.29530051307e-08
2.71928285222e-08
3.77709203773e-07
5.65239650557e-07
4.48541162443e-08
4.18171303388e-08
1.44306171768e-07
2.11250749207e-07
3.14453599435e-07
2.00619287885e-07
3.65486735053e-07
2.1855599599e-08
7.96825634933e-08
3.36634962303e-07
1.00059179578e-07
9.2280606294e-08
6.80867037421e-08
8.92818184133e-08
3.1465598873e-07
7.01917710252e-07
2.10643300638e-07
3.16625265736e-07
1.48043513945e-07
1.42195588644e-07
4.64126583817e-07
4.2355909378e-07
2.61443579696e-07
4.78941959074e-08
2.50688209153e-07
2.28606307959e-07
2.5371363355e-07
8.75574063563e-08
4.98417626639e-08
2.11668211892e-07
6.51369310149e-07
4.15090413518e-07
9.33270344483e-09
2.86687445925e-08
1.90357574044e-07
3.36646738358e-07
4.57776635205e-07
6.64356257896e-07
4.09658420083e-07
2.6624325939e-07
2.53345390225e-07
3.98677501864e-07
4.26278974247e-07
2.82615267376e-07
4.85922197114e-07
6.36279852946e-07
1.75915117822e-07
5.00523158711e-07
2.48756638727e-07
1.59934279001e-07
1.7489661667e-07
1.60133379397e-08
7.39335337118e-08
1.31474912946e-07
4.51979872393e-08
2.37791966276e-07
2.8594720434e-07
8.575830036e-07
2.39507259286e-07
2.64786897796e-08
3.46994758741e-08
3.14381629517e-07
4.26725441574e-07
2.40726478302e-07
3.06341269767e-07
4.81245345627e-07
7.95092555414e-08
4.10552569415e-07
1.47088024303e-07
1.24459965131e-07
3.71406482468e-08
2.40917470252e-07
1.75399160635e-07
6.66260222999e-07
4.02691771971e-07
1.61984109373e-07
1.55873372692e-07
3.97821156303e-07
2.14824808132e-07
5.10798256926e-07
2.09832565572e-07
3.10418635476e-07
9.0506496715e-08
4.64499143466e-08
1.98306636526e-07
3.26461163116e-07
1.97849832162e-07
2.75955270526e-07
2.77826554572e-07
8.29724925784e-07
1.55392062346e-08
3.25348556233e-08
1.14629811557e-07
1.35154702207e-07
6.69638394678e-07
7.65801115098e-07
5.47881367559e-08
2.67162494803e-07
2.08293870165e-07
5.8900496034e-07
6.48482050651e-07
5.87580659632e-07
5.85913796047e-07
1.23199440796e-07
4.05713528286e-08
5.81530526339e-07
2.64403298152e-07
1.90110311805e-07
1.33520444735e-07
1.21657936127e-07
7.72225754618e-07
5.80636891025e-07
1.58993439252e-07
2.9750056861e-07
3.65963678148e-08
1.1687183816e-07
1.35038981632e-07
3.96304984803e-07
2.12050061704e-07
1.00076976718e-07
7.48399590744e-08
2.01540108973e-07
7.37421677221e-08
2.75432507023e-08
3.13543092022e-08
2.81474900504e-07
4.43514296196e-07
5.70154370599e-07
9.26762361964e-08
2.62980401738e-08
9.58079823385e-08
2.72341416058e-07
1.48188704867e-07
4.45038817542e-08
2.06817810585e-08
2.71670549386e-08
3.76371087613e-08
2.92392574773e-07
1.04894331014e-07
4.0083321264e-07
2.09266736825e-07
1.49549130033e-07
5.18050554715e-07
4.72210138235e-07
1.77003680614e-07
2.14947436469e-09
4.16845755931e-07
5.75704717295e-08
8.78172366664e-09
1.1121516472e-07
1.22395397929e-07
1.36273014672e-08
9.57088133999e-08
4.2547890355e-07
8.15318930831e-08
2.24581223842e-07
1.52896666798e-07
7.69122849398e-08
4.93787611469e-07
6.72139459674e-07
1.13044798826e-07
1.06220304114e-07
8.28449887291e-08
3.35997235378e-07
5.84518024263e-07
4.23730326551e-07
4.76039480785e-07
1.32468073866e-07
3.66391236521e-08
4.97517385094e-07
8.88768672848e-08
1.39747429859e-07
3.7544537633e-08
7.2860632178e-08
5.61224278106e-07
6.79742006934e-07
4.08527281893e-07
3.04631416609e-07
3.26659234667e-07
1.23017387973e-07
7.14452470903e-08
1.70917090211e-08
4.5072244074e-08
1.05735974553e-07
1.40621973891e-07
2.8144195153e-08
6.04927501266e-08
2.68587697324e-08
1.05825555471e-07
3.59544664472e-08
2.24126921574e-07
5.68262752619e-07
9.05124216328e-08
1.45688887383e-08
8.38454395287e-08
2.35073332326e-07
3.74906146713e-07
2.64476718997e-07
2.72222401762e-07
1.59298210145e-07
2.46709822147e-07
6.88864351538e-07
9.62898457691e-08
4.39828433038e-08
7.51236709511e-08
1.07727314222e-07
5.27587573771e-07
6.16017560843e-07
1.49132749255e-07
2.5495269508e-07
1.17723632851e-07
1.25060643985e-07
6.32863574777e-09
1.11589658832e-07
5.9992549009e-08
2.24663886298e-07
1.5923639816e-07
4.50299966296e-07
8.27686594562e-08
4.02551864374e-08
1.7182622522e-07
9.59364537876e-08
2.42798849689e-07
5.97603837429e-07
3.5485404642e-08
2.73514703343e-07
1.97565452856e-07
5.3493448848e-07
5.9655621854e-07
4.79565777321e-07
5.91385714873e-07
6.26247192568e-08
2.12374437148e-07
6.81753779368e-07
5.59443033858e-08
1.43209382676e-07
4.48693312286e-08
2.66133856129e-07
2.59122267418e-07
4.97488498245e-07
1.08826921526e-08
9.09509234054e-08
1.61556177982e-07
3.61784260689e-07
5.76303935702e-07
4.44542661155e-07
5.75441048072e-07
4.82012165552e-08
3.06881656718e-07
9.73469452678e-07
1.69958084253e-07
2.86697096127e-07
1.93371560411e-07
2.39609600401e-07
4.99900390455e-07
1.12972116749e-07
9.80123231479e-08
1.47408849671e-07
2.93743872191e-08
3.78927702428e-07
1.98201600834e-07
1.29792746747e-07
1.55129840506e-08
8.56290605146e-08
2.68504901171e-08
4.36352748938e-07
1.05831154074e-07
2.27966180803e-07
2.96561497411e-07
5.71145448287e-07
5.26271902622e-07
6.68759466283e-07
2.86484936569e-07
1.83935003548e-07
3.98053971235e-07
7.22875373475e-08
7.19437219519e-08
3.04346904989e-07
1.30723274778e-07
1.04283145679e-07
9.24091917926e-08
2.85598907635e-07
1.85535742484e-07
1.60529273464e-07
4.80293956438e-08
2.95326329651e-07
4.92991242634e-07
1.70653995944e-07
1.7342531636e-07
2.48821405418e-07
3.66049344681e-07
4.64433090383e-07
4.13880496916e-07
3.06854740408e-07
5.1896655044e-07
1.9413716716e-07
1.77168913411e-07