# vtk DataFile Version 3.0
File Name: Molecule/sphere_cent/sphere_cent_0-s2.vtk
ASCII
DATASET UNSTRUCTURED_GRID
FIELD FieldData 1
TIME 1 1 double
0.0
POINTS 162 double
0.850650808352 -0.525731112119 0.0
0.829833901363 -0.417374053247 -0.25
0.925325404176 -0.26286555606 0.0
0.904508497187 -0.154508497188 -0.25
0.809016994375 -0.309016994375 -0.5
1.0 0.0 0.0
0.809016994375 0.0 -0.5
0.904508497187 0.154508497188 -0.25
0.809016994375 0.309016994375 -0.5
0.667374053247 -0.154508497188 -0.675325404176
0.667374053247 0.154508497188 -0.675325404176
0.525731112119 0.0 -0.850650808352
0.925325404176 0.26286555606 0.0
0.829833901363 0.417374053247 -0.25
0.850650808352 0.525731112119 0.0
0.675325404176 0.667374053247 -0.154508497188
0.654508497187 0.559016994375 -0.404508497188
0.5 0.809016994375 -0.309016994375
0.559016994375 0.404508497188 -0.654508497187
0.404508497188 0.654508497187 -0.559016994375
0.309016994375 0.5 -0.809016994375
0.417374053247 0.25 -0.829833901363
0.25 0.829833901363 -0.417374053247
0.154508497188 0.675325404176 -0.667374053247
0.0 0.850650808352 -0.525731112119
0.675325404176 0.667374053247 0.154508497188
0.5 0.809016994375 0.0
0.5 0.809016994375 0.309016994375
0.25 0.904508497187 -0.154508497188
0.25 0.904508497187 0.154508497188
0.0 1.0 0.0
0.0 0.925325404176 -0.26286555606
0.25 0.829833901363 0.417374053247
0.0 0.925325404176 0.26286555606
0.0 0.850650808352 0.525731112119
-0.25 0.829833901363 0.417374053247
-0.25 0.904508497187 0.154508497188
-0.5 0.809016994375 0.309016994375
-0.25 0.904508497187 -0.154508497188
-0.5 0.809016994375 0.0
-0.5 0.809016994375 -0.309016994375
-0.25 0.829833901363 -0.417374053247
-0.675325404176 0.667374053247 0.154508497188
-0.675325404176 0.667374053247 -0.154508497188
-0.850650808352 0.525731112119 0.0
-0.154508497188 0.675325404176 0.667374053247
-0.404508497188 0.654508497187 0.559016994375
-0.309016994375 0.5 0.809016994375
-0.654508497187 0.559016994375 0.404508497188
-0.559016994375 0.404508497188 0.654508497187
-0.809016994375 0.309016994375 0.5
-0.829833901363 0.417374053247 0.25
-0.417374053247 0.25 0.829833901363
-0.667374053247 0.154508497188 0.675325404176
-0.525731112119 0.0 0.850650808352
0.154508497188 0.675325404176 0.667374053247
0.0 0.5 0.809016994375
0.309016994375 0.5 0.809016994375
-0.154508497188 0.25 0.904508497187
0.154508497188 0.25 0.904508497187
0.0 0.0 1.0
-0.26286555606 0.0 0.925325404176
0.417374053247 0.25 0.829833901363
0.26286555606 0.0 0.925325404176
0.525731112119 0.0 0.850650808352
-0.417374053247 -0.25 0.829833901363
-0.154508497188 -0.25 0.904508497187
-0.309016994375 -0.5 0.809016994375
0.0 -0.5 0.809016994375
0.154508497188 -0.25 0.904508497187
0.309016994375 -0.5 0.809016994375
-0.154508497188 -0.675325404176 0.667374053247
0.154508497188 -0.675325404176 0.667374053247
0.0 -0.850650808352 0.525731112119
0.417374053247 -0.25 0.829833901363
0.667374053247 -0.154508497188 0.675325404176
0.559016994375 -0.404508497188 0.654508497187
0.809016994375 -0.309016994375 0.5
0.404508497188 -0.654508497187 0.559016994375
0.654508497187 -0.559016994375 0.404508497188
0.5 -0.809016994375 0.309016994375
0.25 -0.829833901363 0.417374053247
0.829833901363 -0.417374053247 0.25
0.675325404176 -0.667374053247 0.154508497188
0.417374053247 -0.25 -0.829833901363
0.26286555606 0.0 -0.925325404176
0.154508497188 -0.25 -0.904508497187
0.309016994375 -0.5 -0.809016994375
0.0 0.0 -1.0
0.0 -0.5 -0.809016994375
-0.154508497188 -0.25 -0.904508497187
-0.309016994375 -0.5 -0.809016994375
0.154508497188 -0.675325404176 -0.667374053247
-0.154508497188 -0.675325404176 -0.667374053247
0.0 -0.850650808352 -0.525731112119
-0.26286555606 0.0 -0.925325404176
-0.417374053247 -0.25 -0.829833901363
-0.525731112119 0.0 -0.850650808352
0.904508497187 -0.154508497188 0.25
0.904508497187 0.154508497188 0.25
0.809016994375 0.0 0.5
0.809016994375 0.309016994375 0.5
0.829833901363 0.417374053247 0.25
0.667374053247 0.154508497188 0.675325404176
0.654508497187 0.559016994375 0.404508497188
0.404508497188 0.654508497187 0.559016994375
0.559016994375 0.404508497188 0.654508497187
-0.667374053247 -0.154508497188 -0.675325404176
-0.667374053247 0.154508497188 -0.675325404176
-0.809016994375 0.0 -0.5
-0.809016994375 -0.309016994375 -0.5
-0.809016994375 0.309016994375 -0.5
-0.904508497187 -0.154508497188 -0.25
-0.904508497187 0.154508497188 -0.25
-1.0 0.0 0.0
-0.829833901363 -0.417374053247 -0.25
-0.925325404176 -0.26286555606 0.0
-0.850650808352 -0.525731112119 0.0
-0.829833901363 0.417374053247 -0.25
-0.925325404176 0.26286555606 0.0
-0.154508497188 0.675325404176 -0.667374053247
-0.404508497188 0.654508497187 -0.559016994375
-0.309016994375 0.5 -0.809016994375
-0.559016994375 0.404508497188 -0.654508497187
-0.654508497187 0.559016994375 -0.404508497188
-0.417374053247 0.25 -0.829833901363
-0.675325404176 -0.667374053247 -0.154508497188
-0.675325404176 -0.667374053247 0.154508497188
-0.5 -0.809016994375 0.0
-0.5 -0.809016994375 -0.309016994375
-0.5 -0.809016994375 0.309016994375
-0.25 -0.904508497187 -0.154508497188
-0.25 -0.904508497187 0.154508497188
0.0 -1.0 0.0
-0.25 -0.829833901363 -0.417374053247
0.0 -0.925325404176 -0.26286555606
-0.25 -0.829833901363 0.417374053247
0.0 -0.925325404176 0.26286555606
-0.829833901363 -0.417374053247 0.25
-0.654508497187 -0.559016994375 0.404508497188
-0.809016994375 -0.309016994375 0.5
-0.404508497188 -0.654508497187 0.559016994375
-0.559016994375 -0.404508497188 0.654508497187
-0.667374053247 -0.154508497188 0.675325404176
-0.809016994375 0.0 0.5
-0.904508497187 0.154508497188 0.25
-0.904508497187 -0.154508497188 0.25
-0.559016994375 -0.404508497188 -0.654508497187
-0.404508497188 -0.654508497187 -0.559016994375
-0.654508497187 -0.559016994375 -0.404508497188
0.25 -0.829833901363 -0.417374053247
0.25 -0.904508497187 -0.154508497188
0.5 -0.809016994375 -0.309016994375
0.5 -0.809016994375 0.0
0.25 -0.904508497187 0.154508497188
0.675325404176 -0.667374053247 -0.154508497188
0.559016994375 -0.404508497188 -0.654508497187
0.654508497187 -0.559016994375 -0.404508497188
0.404508497188 -0.654508497187 -0.559016994375
0.154508497188 0.25 -0.904508497187
-0.154508497188 0.25 -0.904508497187
0.0 0.5 -0.809016994375

CELLS 320 1280
3 0 1 2
3 1 3 2
3 1 4 3
3 2 3 5
3 4 6 3
3 6 7 3
3 6 8 7
3 3 7 5
3 4 9 6
3 9 10 6
3 9 11 10
3 6 10 8
3 5 7 12
3 7 13 12
3 7 8 13
3 12 13 14
3 14 13 15
3 13 16 15
3 13 8 16
3 15 16 17
3 8 18 16
3 18 19 16
3 18 20 19
3 16 19 17
3 8 10 18
3 10 21 18
3 10 11 21
3 18 21 20
3 17 19 22
3 19 23 22
3 19 20 23
3 22 23 24
3 14 15 25
3 15 26 25
3 15 17 26
3 25 26 27
3 17 28 26
3 28 29 26
3 28 30 29
3 26 29 27
3 17 22 28
3 22 31 28
3 22 24 31
3 28 31 30
3 27 29 32
3 29 33 32
3 29 30 33
3 32 33 34
3 34 33 35
3 33 36 35
3 33 30 36
3 35 36 37
3 30 38 36
3 38 39 36
3 38 40 39
3 36 39 37
3 30 31 38
3 31 41 38
3 31 24 41
3 38 41 40
3 37 39 42
3 39 43 42
3 39 40 43
3 42 43 44
3 34 35 45
3 35 46 45
3 35 37 46
3 45 46 47
3 37 48 46
3 48 49 46
3 48 50 49
3 46 49 47
3 37 42 48
3 42 51 48
3 42 44 51
3 48 51 50
3 47 49 52
3 49 53 52
3 49 50 53
3 52 53 54
3 34 45 55
3 45 56 55
3 45 47 56
3 55 56 57
3 47 58 56
3 58 59 56
3 58 60 59
3 56 59 57
3 47 52 58
3 52 61 58
3 52 54 61
3 58 61 60
3 57 59 62
3 59 63 62
3 59 60 63
3 62 63 64
3 54 65 61
3 65 66 61
3 65 67 66
3 61 66 60
3 67 68 66
3 68 69 66
3 68 70 69
3 66 69 60
3 67 71 68
3 71 72 68
3 71 73 72
3 68 72 70
3 60 69 63
3 69 74 63
3 69 70 74
3 63 74 64
3 64 74 75
3 74 76 75
3 74 70 76
3 75 76 77
3 70 78 76
3 78 79 76
3 78 80 79
3 76 79 77
3 70 72 78
3 72 81 78
3 72 73 81
3 78 81 80
3 77 79 82
3 79 83 82
3 79 80 83
3 82 83 0
3 11 84 85
3 84 86 85
3 84 87 86
3 85 86 88
3 87 89 86
3 89 90 86
3 89 91 90
3 86 90 88
3 87 92 89
3 92 93 89
3 92 94 93
3 89 93 91
3 88 90 95
3 90 96 95
3 90 91 96
3 95 96 97
3 0 2 82
3 2 98 82
3 2 5 98
3 82 98 77
3 5 99 98
3 99 100 98
3 99 101 100
3 98 100 77
3 5 12 99
3 12 102 99
3 12 14 102
3 99 102 101
3 77 100 75
3 100 103 75
3 100 101 103
3 75 103 64
3 14 25 102
3 25 104 102
3 25 27 104
3 102 104 101
3 27 105 104
3 105 106 104
3 105 57 106
3 104 106 101
3 27 32 105
3 32 55 105
3 32 34 55
3 105 55 57
3 101 106 103
3 106 62 103
3 106 57 62
3 103 62 64
3 97 107 108
3 107 109 108
3 107 110 109
3 108 109 111
3 110 112 109
3 112 113 109
3 112 114 113
3 109 113 111
3 110 115 112
3 115 116 112
3 115 117 116
3 112 116 114
3 111 113 118
3 113 119 118
3 113 114 119
3 118 119 44
3 24 120 41
3 120 121 41
3 120 122 121
3 41 121 40
3 122 123 121
3 123 124 121
3 123 111 124
3 121 124 40
3 122 125 123
3 125 108 123
3 125 97 108
3 123 108 111
3 40 124 43
3 124 118 43
3 124 111 118
3 43 118 44
3 117 126 127
3 126 128 127
3 126 129 128
3 127 128 130
3 129 131 128
3 131 132 128
3 131 133 132
3 128 132 130
3 129 134 131
3 134 135 131
3 134 94 135
3 131 135 133
3 130 132 136
3 132 137 136
3 132 133 137
3 136 137 73
3 117 127 138
3 127 139 138
3 127 130 139
3 138 139 140
3 130 141 139
3 141 142 139
3 141 67 142
3 139 142 140
3 130 136 141
3 136 71 141
3 136 73 71
3 141 71 67
3 140 142 143
3 142 65 143
3 142 67 65
3 143 65 54
3 54 53 143
3 53 144 143
3 53 50 144
3 143 144 140
3 50 145 144
3 145 146 144
3 145 114 146
3 144 146 140
3 50 51 145
3 51 119 145
3 51 44 119
3 145 119 114
3 140 146 138
3 146 116 138
3 146 114 116
3 138 116 117
3 97 96 107
3 96 147 107
3 96 91 147
3 107 147 110
3 91 148 147
3 148 149 147
3 148 129 149
3 147 149 110
3 91 93 148
3 93 134 148
3 93 94 134
3 148 134 129
3 110 149 115
3 149 126 115
3 149 129 126
3 115 126 117
3 94 150 135
3 150 151 135
3 150 152 151
3 135 151 133
3 152 153 151
3 153 154 151
3 153 80 154
3 151 154 133
3 152 155 153
3 155 83 153
3 155 0 83
3 153 83 80
3 133 154 137
3 154 81 137
3 154 80 81
3 137 81 73
3 11 9 84
3 9 156 84
3 9 4 156
3 84 156 87
3 4 157 156
3 157 158 156
3 157 152 158
3 156 158 87
3 4 1 157
3 1 155 157
3 1 0 155
3 157 155 152
3 87 158 92
3 158 150 92
3 158 152 150
3 92 150 94
3 11 85 21
3 85 159 21
3 85 88 159
3 21 159 20
3 88 160 159
3 160 161 159
3 160 122 161
3 159 161 20
3 88 95 160
3 95 125 160
3 95 97 125
3 160 125 122
3 20 161 23
3 161 120 23
3 161 122 120
3 23 120 24

CELL_TYPES 320
5
5
5
5
5
5
5
5
5
5
5
5
5
5
5
5
5
5
5
5
5
5
5
5
5
5
5
5
5
5
5
5
5
5
5
5
5
5
5
5
5
5
5
5
5
5
5
5
5
5
5
5
5
5
5
5
5
5
5
5
5
5
5
5
5
5
5
5
5
5
5
5
5
5
5
5
5
5
5
5
5
5
5
5
5
5
5
5
5
5
5
5
5
5
5
5
5
5
5
5
5
5
5
5
5
5
5
5
5
5
5
5
5
5
5
5
5
5
5
5
5
5
5
5
5
5
5
5
5
5
5
5
5
5
5
5
5
5
5
5
5
5
5
5
5
5
5
5
5
5
5
5
5
5
5
5
5
5
5
5
5
5
5
5
5
5
5
5
5
5
5
5
5
5
5
5
5
5
5
5
5
5
5
5
5
5
5
5
5
5
5
5
5
5
5
5
5
5
5
5
5
5
5
5
5
5
5
5
5
5
5
5
5
5
5
5
5
5
5
5
5
5
5
5
5
5
5
5
5
5
5
5
5
5
5
5
5
5
5
5
5
5
5
5
5
5
5
5
5
5
5
5
5
5
5
5
5
5
5
5
5
5
5
5
5
5
5
5
5
5
5
5
5
5
5
5
5
5
5
5
5
5
5
5
5
5
5
5
5
5
5
5
5
5
5
5
5
5
5
5
5
5
5
5
5
5
5
5
5
5
5
5
5
5
5
5
5
5
5
5

CELL_DATA 320
SCALARS cell_data_0 double
LOOKUP_TABLE default
1.37109706232e-07
1.55069558689e-06
7.01905242919e-08
6.90942355461e-08
6.74989177864e-07
2.2864875436e-06
2.84758891514e-07
2.85251707873e-07
7.88845908157e-08
1.25360472728e-06
8.3821127206e-07
2.6936721058e-07
1.79989416594e-06
9.35112105504e-07
6.50105637089e-07
4.82796555692e-07
7.69662802353e-07
1.55352168688e-06
9.31928374867e-07
9.89349940591e-07
6.70037929353e-07
2.61734282434e-06
2.86457824654e-07
6.72644644711e-07
2.71603382156e-07
2.77610804204e-07
2.06149081085e-06
1.38861602811e-06
2.67785353008e-07
2.02092090254e-06
6.53424157217e-07
4.75291694774e-07
4.75241908463e-07
9.71806469852e-08
1.38702049345e-06
6.1544586343e-07
2.93622470409e-07
2.28360287919e-06
2.89902712276e-07
2.91358495685e-07
2.59492740538e-07
1.25286259517e-06
1.64047379031e-06
2.63820691144e-07
7.51297728046e-08
1.55143660011e-06
2.71693058938e-07
1.33929888328e-07
1.31885951518e-07
1.25186564884e-06
6.25395585944e-07
1.79842112302e-06
1.12816873113e-07
1.93438410308e-06
1.31183929679e-06
1.94005742285e-06
2.64713482658e-07
1.25217360853e-06
1.64085464012e-06
6.58890905311e-07
6.18272779155e-07
1.25080192311e-06
2.62741779236e-07
1.30049297383e-07
1.22576737874e-06
1.55450174437e-06
2.68383781743e-07
6.93924480001e-08
2.83336227561e-07
2.6164382571e-06
5.18398815847e-07
6.69562020241e-07
2.64489241852e-07
1.25038634077e-06
4.76916178827e-07
1.38919254068e-06
7.60996105987e-08
1.2533145653e-06
1.38665962386e-06
4.84627067509e-07
1.63341821777e-06
1.25405567112e-06
7.63899042501e-08
2.62237938128e-07
6.74547105072e-07
2.61379532929e-06
6.699170641e-07
6.75528409193e-07
7.54636111138e-08
1.55425801116e-06
7.72778823297e-07
6.9172865117e-08
9.92823632922e-07
6.37219290112e-07
6.81958647664e-08
1.29377154522e-07
4.72387811777e-07
1.25234596435e-06
2.62192547059e-07
9.32438143493e-07
1.62654950662e-06
3.07713477809e-06
1.08597439465e-07
1.30908619407e-06
2.62124689731e-07
2.01959400689e-06
4.77560313635e-07
6.58359422113e-07
2.69119172164e-07
2.78417713998e-07
1.80015567369e-06
1.30146795923e-07
1.29497572951e-07
1.55133436831e-06
2.70494689487e-07
9.3292757797e-07
2.8492623406e-07
2.61587879314e-06
9.75728644413e-07
1.62389926845e-06
2.62615471423e-07
2.26241760774e-06
1.45851032995e-06
2.72475370037e-07
2.6222666734e-07
9.92275165475e-08
1.80531840838e-06
8.4813482951e-07
8.37100543138e-07
1.25552631878e-06
1.79584160381e-06
9.3931360477e-07
9.6890351241e-07
1.24715994995e-06
9.77197436566e-07
2.92715116524e-07
1.80057339346e-06
9.53623303148e-08
2.49407469975e-06
1.38717245907e-06
2.63584077976e-07
2.78342658888e-07
1.39026357846e-06
1.63558428371e-06
4.8215312812e-07
9.71980221267e-08
1.38886353122e-06
6.16434393701e-07
2.91628689051e-07
3.07620009839e-06
1.62712933802e-06
1.3106191336e-06
2.60990549117e-07
9.35209400048e-07
8.37296347123e-07
2.6167660982e-07
9.3618018176e-07
1.25283858088e-06
2.60600130741e-07
4.73683188722e-07
8.39059290389e-07
9.34073181256e-07
6.57553003881e-07
2.61617898792e-07
1.62736888734e-06
2.61558265541e-06
5.14962310352e-07
6.79925176389e-07
7.75546095237e-08
2.79861501066e-07
1.63617432103e-06
1.38678431093e-06
1.38255558419e-06
2.80242047472e-07
9.89656940581e-07
4.75514256899e-07
4.84047425292e-07
1.5526769421e-06
7.19092128113e-08
6.93570036212e-08
5.12363762951e-07
1.24866025551e-06
9.70045145835e-07
2.83809752881e-07
7.91440863736e-08
1.25321980833e-06
4.73075020667e-07
1.38439433137e-06
6.247554202e-07
9.33019662245e-08
1.38540560454e-06
1.63183910151e-06
1.63893649629e-06
2.79154701528e-07
1.38905407416e-06
2.60937101874e-07
1.44685173467e-06
2.28385295917e-06
1.3083318762e-06
1.62635347962e-06
6.167061344e-07
1.252208999e-06
4.75719298402e-07
2.7055070437e-07
9.36708430946e-07
1.25414655658e-06
6.54159229695e-07
1.63562687874e-06
2.05538945876e-06
9.35072365526e-07
6.57290952923e-07
6.17304050057e-07
1.62632050311e-06
2.61482231411e-06
9.69361283519e-07
2.92602948683e-07
7.78102957215e-08
6.39619908065e-07
1.63691624213e-06
1.38725946186e-06
1.38762726512e-06
2.80824595088e-07
1.79553455752e-06
4.80556593836e-07
4.72645314829e-07
9.3418000933e-07
2.23109595704e-06
6.55635043466e-07
1.94083671766e-06
8.27492116238e-07
9.71959465637e-07
2.91342508128e-07
1.80351065688e-06
9.98319386761e-08
4.8329156917e-07
1.8021613983e-06
2.61397069524e-07
9.53227425067e-08
1.38600599581e-06
8.34472965723e-07
8.3479458636e-07
4.88994563767e-07
1.80097750927e-06
6.17071161237e-07
1.44532483949e-06
3.90381273858e-07
1.44359680684e-06
1.12682563249e-07
1.80030037961e-06
9.48533210127e-08
1.63616210462e-06
1.38320424121e-06
6.56437253627e-07
9.34473453861e-07
1.79992468086e-06
4.7321743241e-07
4.8296998266e-07
1.25024029704e-06
1.38781575756e-06
2.68699547922e-07
1.44608127687e-06
8.29295135171e-07
2.93947187885e-07
9.70396617908e-07
1.79841227847e-06
9.31662886556e-08
2.05549943518e-06
2.59544238537e-07
7.7643972349e-08
1.25297428127e-06
2.60818904616e-07
4.71778093013e-07
2.06148985383e-06
1.25146883341e-06
2.59989058246e-07
2.61704464694e-07
2.93356132923e-07
1.93548552227e-06
1.93857854567e-06
1.08102902451e-07
1.38693094549e-06
1.01675400836e-07
4.85932921086e-07
2.23603838496e-06
2.2238263126e-06
9.34035348978e-07
6.24489772872e-07
4.72742515545e-07
8.38306853707e-07
9.37060981511e-07
2.58530940954e-07
2.22655996778e-06
1.44148102781e-06
3.91779757777e-07
1.44353480259e-06
1.93497846971e-06
1.38817479383e-06
2.76314203697e-07
1.3661158201e-07
1.38642018674e-06
2.22856003789e-06
4.88290990547e-07
1.79797049972e-06
2.49666814306e-06
4.76486210388e-07
1.25307965803e-06
6.59159087857e-07
1.79853487818e-06
1.08459168052e-07
3.89961159332e-07
1.94174250227e-06
1.93780163346e-06
2.60124900001e-07
1.25366718362e-06
4.74149103563e-07
6.16244969547e-07
6.18331834051e-07
1.2499610577e-06
1.8048252592e-06
1.30330515156e-07

