# vtk DataFile Version 3.0
File Name: Molecule/sphere_cent/sphere_cent_0-s5.vtk
ASCII
DATASET UNSTRUCTURED_GRID
FIELD FieldData 1
TIME 1 1 double
0.0
POINTS 1399 double
0.7876303792 0.34174546599 -0.5121718049
0.71236109734 0.36498582363 -0.59904879332
0.75736761093 0.44751161337 -0.47518506646
-0.12958756089 0.92518043518 -0.35665717721
-0.25259211659 0.86244344711 -0.43866610527
-0.25940191746 0.90965938568 -0.32396629453
-0.13804230094 0.86092865467 -0.48980411887
-0.36741712689 0.85125023127 -0.37389010191
-0.082889899611 -0.38972049952 0.91704887152
-0.023869523779 -0.28533500433 0.95798200369
-0.15510603786 -0.27828454971 0.94737750292
-0.081719636917 -0.11914166808 0.98917651176
0.085107550025 -0.090802133083 0.99109482765
-0.0011019945377 0.0022632479668 0.99996221066
0.16685269773 -0.70303434134 -0.69134986401
0.074823319912 -0.77945929766 -0.62189477682
0.0050431312993 -0.7148052454 -0.6990032196
-0.077584326267 -0.78647130728 -0.61267834902
0.015515822917 -0.84629398584 -0.53195410967
-0.076945930719 0.78505754471 -0.6146067977
-0.21403582394 0.7907564044 -0.57343292236
-0.17258915305 0.6880107522 -0.7046508193
-0.30460241437 0.70624113083 -0.63890814781
-0.34784734249 0.78137326241 -0.51804804802
-0.44092443585 0.67359119654 -0.59303504229
-0.47802886367 0.74954462051 -0.45740863681
0.0018028724007 0.71354329586 -0.69990706444
0.080067552626 0.78539127111 -0.61380064487
0.00062537554186 0.84351062775 -0.53580611944
0.26795652509 0.94929599762 -0.16271048784
0.27053615451 0.96269035339 -0.0016633415362
0.40163421631 0.91207325459 -0.082169979811
0.40164452791 0.912548244 0.076917804778
0.2724981606 0.95013201237 0.14866185188
0.51626741886 0.85557287931 -0.0074269482866
0.24086593091 -0.37745910883 -0.89399170876
0.084842562675 -0.39923039079 -0.91289293766
0.1752435118 -0.28253823519 -0.94224452972
-0.00062622339465 -0.52348262072 -0.85191047192
-0.077549412847 -0.39915913343 -0.91356414557
0.0078667532653 -0.26897346973 -0.96307444572
-0.15249763429 -0.26721546054 -0.951420784
-0.15827547014 -0.50373470783 -0.84870392084
-0.2311476469 -0.39136046171 -0.89069402218
-0.071889534593 -0.13528105617 -0.98813438416
0.087759271264 -0.13617481291 -0.98657137156
-0.0063303411007 -0.00057976623066 -0.99975556135
-0.14129377902 -0.00024322232639 -0.98993343115
-0.21710841358 -0.13475240767 -0.96678906679
-0.28072807193 -0.00046850752551 -0.95968604088
-0.2896374464 -0.26760727167 -0.91894072294
-0.34024339914 -0.14999888837 -0.92829424143
-0.40731278062 -0.27595713735 -0.87065982819
-0.36924079061 -0.38643652201 -0.84517413378
-0.31371089816 -0.492074579 -0.81178832054
0.51591879129 0.56548380852 0.64345413446
0.63104116917 0.53120976686 0.56519162655
0.56878262758 0.63483971357 0.52260702848
0.59176802635 0.43060255051 0.68127858639
0.46919375658 0.4651619494 0.7499525547
-0.45330676436 0.47324797511 -0.75531572104
-0.52121198177 0.55732703209 -0.64629381895
-0.38991701603 0.59788060188 -0.699457407
-0.58816629648 0.43173989654 -0.6838285923
-0.64562392235 0.51379776001 -0.56495136023
-0.56359070539 0.62763494253 -0.53585457802
-0.70837891102 0.37738320231 -0.59645062685
-0.74664086103 0.46351838112 -0.47691190243
-0.69059282541 0.57629877329 -0.4358985424
-0.31168594956 0.49778088927 -0.80875551701
-0.37720289826 0.38007995486 -0.84456288815
-0.51788818836 0.3474419117 -0.78170847893
-0.43880903721 0.25627082586 -0.86124873161
-0.57149207592 0.21732927859 -0.79130655527
-0.63622909784 0.31394124031 -0.70450645685
-0.78155368567 0.51925587654 -0.34574618936
-0.79283428192 0.57203733921 -0.21017941833
-0.70060884953 0.65059316158 -0.29238700867
-0.85869830847 0.44327494502 -0.25512060523
-0.82340246439 -0.5644903779 0.029732901603
-0.71249616146 -0.70167005062 0.00284772343
-0.70797407627 -0.688606143 0.15659938753
-0.70713949203 -0.69115936756 -0.14802722633
-0.62042289972 -0.78035926819 -0.078087940812
-0.61819809675 -0.78185021877 0.080817915499
-0.51769578457 -0.85551929474 0.00080218818039
-0.61328113079 -0.75499272346 -0.23210784793
-0.51402789354 -0.84332239628 -0.15669241548
-0.51549339294 -0.80241507292 -0.29887953401
-0.59283035994 -0.7729074955 0.22615666687
-0.50518172979 -0.84855663776 0.15708716214
-0.4758027494 -0.82559049129 0.30317541957
-0.39848086238 -0.88983780146 -0.21994334459
-0.40400594473 -0.9095274806 -0.093504473567
-0.26691156626 -0.95301967859 -0.13577765226
-0.13863046467 -0.98796737194 -0.068512156606
-0.2537663877 -0.96657055616 0.0011516932864
-0.12878984213 -0.9886187315 0.070417225361
-0.024891003966 -0.99899715185 0.010374454781
-0.40373545885 -0.90958958864 0.094864875078
-0.38185799122 -0.89352589846 0.23623120785
-0.28265494108 -0.94565504789 0.15822388232
-0.12575508654 -0.97133851051 -0.19963343441
-0.016021870077 -0.99246239662 -0.1214228645
-0.79221963882 -0.57337605953 0.20873188972
-0.7174230814 -0.6314214468 0.29434588552
-0.77779430151 -0.53386968374 0.33152845502
-0.69921636581 -0.58825731277 0.40605098009
-0.85450059175 -0.45371431112 0.25029194355
-0.8498840332 -0.018283046782 0.52565914392
-0.91278880835 -0.078157052398 0.4008590281
-0.84112036228 -0.15245227516 0.5188305378
-0.89085972309 -0.22672478855 0.39349994063
-0.94779264927 -0.15554454923 0.27695074677
-0.81265300512 -0.28234362602 0.50966709852
-0.85291308165 -0.35493913293 0.38266301155
-0.91777801514 -0.3020067215 0.2572375834
-0.49698767066 -0.35933208466 -0.78974330425
-0.45009571314 -0.47798395157 -0.7542065382
-0.58429938555 -0.43820804358 -0.68287277222
-0.70327293873 -0.37037307024 -0.60681062937
-0.59558731318 -0.33314728737 -0.73042029142
-0.38478001952 -0.59026861191 -0.70869314671
-0.51471203566 -0.56615608931 -0.64383995533
-0.64490193129 -0.50215446949 -0.57530045509
-0.75389575958 -0.45143219829 -0.47722661495
-0.81025451422 -0.28929677606 -0.50950145721
-0.69142311811 -0.58846652508 -0.41811773181
-0.76974725723 -0.52482718229 -0.36260679364
-0.70303398371 -0.64705479145 -0.29499456286
-0.59823727608 -0.7078461051 -0.37559062243
0.2405423969 -0.61586791277 -0.74953442812
0.30690231919 -0.69895654917 -0.64595603943
0.44922077656 -0.67565435171 -0.58453190327
0.35018306971 -0.78104245663 -0.51693451405
0.21583375335 -0.78204715252 -0.58337783813
0.48441168666 -0.75617444515 -0.43975067139
0.39483621716 -0.83405405283 -0.38512161374
0.51948612928 -0.79617673159 -0.30985102057
0.25297784805 -0.86172413826 -0.43792140484
-0.073033429682 0.13476471603 -0.98814159632
0.0033267640974 0.26893824339 -0.96311849356
0.084726691246 0.13469827175 -0.9870300293
-0.15488684177 0.26713216305 -0.95108878613
-0.078880742192 0.39945450425 -0.91332608461
0.079317994416 0.39969879389 -0.91316062212
-0.0013911743881 0.52860188484 -0.84880828857
0.16051381826 0.27926620841 -0.94580185413
-0.23347872496 0.39162012935 -0.88998639584
-0.15746492147 0.50426447392 -0.84840023518
0.22092831135 0.37791469693 -0.89879602194
-0.22000986338 0.13427953422 -0.96620965004
-0.3576900661 0.13334299624 -0.92429417372
-0.30026558042 0.26360446215 -0.91670149565
-0.41073653102 0.024302141741 -0.91130912304
-0.48280629516 0.13232572377 -0.86564958096
-0.52315986156 0.024131599814 -0.8518576622
0.76397687197 -0.24451290071 0.59656399488
0.71009868383 -0.37636712193 0.59508305788
0.80889129639 -0.30956757069 0.49986073375
0.39199709892 -0.60194659233 0.69567090273
0.52306747437 -0.56621277332 0.63704830408
0.46854901314 -0.48579585552 0.7370904088
0.43829464912 -0.68589639664 0.58089059591
0.56792092323 -0.64509046078 0.51118725538
0.64815431833 -0.51620668173 0.55984193087
0.68512892723 -0.58792299032 0.43004220724
0.59945106506 -0.43764764071 0.66975045204
0.47626727819 -0.75565105677 0.4496448338
0.59860253334 -0.70789563656 0.37490713596
0.50018626451 -0.8091982007 0.30824837089
0.75580739975 -0.45335939527 0.47243496776
0.3258240521 -0.70265519619 0.63170236349
0.23070518672 -0.79670763016 0.55796915293
0.25430092216 -0.86230224371 0.43778389692
0.35077619553 -0.7834020853 0.51308393478
0.3798071146 -0.84430807829 0.37793460488
0.84439462423 -0.37749105692 0.38009727001
0.78284549713 -0.51752430201 0.3454194963
0.86282420158 -0.43666684628 0.25446948409
0.70336073637 -0.64614921808 0.29625400901
0.79311126471 -0.57091504335 0.21222403646
0.70734429359 -0.68892270327 0.15798924863
0.61148375273 -0.75556111336 0.23497666419
0.8647583127 -0.48664003611 0.12313129753
0.78891396523 -0.60961443186 0.075825437903
0.85367405415 -0.52056288719 -0.014363178983
0.91533750296 -0.4004021287 0.028006246313
0.92309564352 -0.35759317875 0.14159689844
0.96148467064 -0.27224585414 0.026749817654
0.96408843994 -0.21972031891 0.14923299849
0.91516762972 -0.30060464144 0.2685367167
0.94823849201 -0.15751737356 0.27576637268
0.98117917776 -0.087191306055 0.16996823251
0.88875597715 -0.23529818654 0.39334759116
0.98176950216 0.083086170256 0.16848011315
0.95048111677 0.14847995341 0.27302455902
0.96048015356 -0.0040446221828 0.2783100307
0.91375440359 0.071475923061 0.39991077781
0.91207247972 -0.083820842206 0.40136915445
0.85542160273 -0.0073373811319 0.51789563894
0.89474976063 0.21714796126 0.39015215635
0.84728747606 0.14086128771 0.51212257147
0.82189697027 0.27275139093 0.50004398823
0.84288364649 -0.16048376262 0.51360481977
0.9654302001 0.21463957429 0.14790979028
0.95889145136 0.28147232533 0.026533022523
0.92615777254 0.35055440664 0.13915713131
0.92045855522 0.2866692543 0.2656622231
0.87331134081 0.41825306416 0.24975897372
0.91785353422 0.39539024234 0.011513115838
0.86774122715 0.47668510675 0.13795121014
0.8603271246 0.34222632647 0.37771648169
0.79208385944 -0.074257142842 0.60500943661
0.78277140856 0.071951776743 0.61812382936
0.69334089756 0.15078704059 0.70455789566
0.70317429304 0.014642054215 0.71030676365
0.76248145103 0.2195584625 0.60854417086
0.61097854376 0.07344802469 0.78808629513
-0.36726659536 -0.84950989485 0.37858319283
-0.44532641768 -0.77603209019 0.44636499882
-0.33610829711 -0.78883224726 0.5144764781
-0.24807870388 -0.86347097158 0.43905377388
-0.4099919796 -0.70567196608 0.57767695189
[...]
CELL_DATA 2794
SCALARS cell_data_0 double
LOOKUP_TABLE default
6.96325097254e-09
5.69557522026e-11
3.21323294515e-09
9.90201794801e-09
5.51329116789e-09
2.75658758858e-08
3.15959061207e-09
2.81822894404e-09
6.2535032405e-09
2.36518812609e-09
1.85073979743e-08
8.79454811073e-09
1.15246870469e-08
6.82947253309e-10
8.40478128754e-09
6.12052704943e-09
7.3807035095e-09
2.40761221307e-08
1.80729007481e-08
7.4280776604e-09
3.98034201021e-08
1.84385620634e-08
3.22925121128e-08
2.53444208299e-08
1.45725934747e-08
4.1038465978e-08
2.9063868301e-08
2.42895439849e-08
2.94223755693e-08
2.32723273602e-08
2.43950580799e-08
2.55987063074e-08
2.2202126915e-08
7.04707603115e-09
2.46369415766e-08
2.22386016407e-08
1.23831836758e-08
2.368724493e-08
8.83399379224e-09
2.8328362104e-09
1.40197578914e-08
6.77141365134e-09
1.71019573856e-08
1.4571871194e-09
4.73928761555e-09
9.72173648033e-09
1.79397485272e-08
2.65921420982e-08
4.10834954397e-08
2.03814369854e-08
1.9613976965e-08
2.32888064491e-08
3.46496141354e-08
1.76519635935e-08
2.09059181167e-08
1.41617729245e-08
1.38474264201e-08
1.81370166476e-08
2.06198950093e-08
6.13819540929e-09
1.12512061495e-08
4.53588355928e-09
1.2684272222e-08
6.37197029448e-10
7.43803857485e-10
2.75082665302e-08
2.19761658332e-08
6.8557580043e-09
7.9368751827e-08
1.23172399119e-08
1.32424213598e-08
8.85303603202e-09
1.88405083334e-09
8.23892054738e-09
1.42047368812e-08
1.15378849123e-09
5.69542856777e-09
9.2095448511e-09
2.77982953196e-09
1.03267455498e-08
7.14732530734e-09
2.65998730689e-09
4.17154594964e-09
1.99856453208e-08
1.14517635204e-08
6.8437273397e-09
2.36448970264e-08
1.97440719811e-08
2.01343610433e-08
1.19390566617e-08
1.88626406842e-08
1.81533770385e-09
8.15103217744e-08
1.96746293416e-09
1.54976598959e-09
4.96531066396e-09
1.91957706083e-08
5.08241266957e-09
6.49831694271e-09
8.70519480416e-09
4.74144221967e-09
3.91223081446e-09
5.56911617233e-09
2.5518799759e-09
1.14569392836e-08
6.47069104055e-09
1.8996540625e-08
1.76341955683e-08
2.66965952566e-08
1.72940316171e-08
2.37673033261e-08
1.64702267663e-08
3.47798985284e-08
5.06743823236e-08
1.38530186064e-08
5.27830538529e-09
1.82757493257e-08
1.84561343627e-08
7.63208869026e-09
1.61251922308e-08
1.53649409023e-08
2.89363746097e-08
3.10180348636e-08
2.03867218203e-08
8.94842371258e-09
1.21208377148e-08
3.17288532412e-08
4.61369539965e-08
1.97753248917e-08
1.23995107406e-08
2.5515446005e-08
4.47398030241e-08
3.07726913694e-08
1.90658984017e-08
3.70314115713e-08
1.28785456731e-08
1.08712873321e-08
2.15371599136e-08
3.40530811565e-09
9.50879127481e-09
8.04716204102e-09
1.27765533318e-08
1.80543646045e-08
8.6689160144e-09
5.78996979283e-09
2.91808861118e-09
3.13621189866e-09
1.77522599077e-09
1.54455435614e-08
2.78414368747e-08
1.42729087627e-08
1.8032767296e-08
1.28925094318e-08
1.19522239194e-08
9.61014007665e-09
1.14300022856e-08
2.90818114705e-08
1.97766237366e-08
2.21985233034e-08
1.58385523676e-08
3.69902273223e-08
3.78229419057e-08
2.80797722403e-08
1.65134983425e-08
2.98476594963e-08
2.92354779319e-08
2.107527274e-08
5.62137940763e-10
4.58214067205e-09
7.81149352739e-09
2.92680510421e-09
1.00150371672e-08
2.37132185609e-09
1.98339530652e-08
1.83477528832e-08
3.00460328086e-08
2.02030830742e-08
1.04902365845e-08
1.57668570411e-08
1.43490492414e-08
6.18391918565e-09
6.54758610863e-09
2.22909631004e-08
2.72321561714e-08
2.2039662569e-08
5.91678085751e-09
4.35140392264e-10
6.84197760312e-09
3.40018563877e-09
1.29030572869e-08
5.87791170765e-09
4.81269743074e-09
2.1460066382e-08
1.80347308816e-08
1.20647913576e-08
9.27608533554e-09
1.22689183131e-09
9.85245186031e-09
1.75835753464e-08
5.35814898325e-09
7.13241352975e-09
4.40677530997e-09
1.52534343621e-09
9.06500985862e-09
8.64815396854e-09
1.3253627071e-09
3.09282216952e-09
7.14609582161e-09
1.2588053852e-08
1.54319520504e-09
4.04989026716e-09
2.85134010524e-09
7.81417976004e-09
1.96113188373e-09
9.24043650765e-09
1.1518401639e-09
2.15484588857e-09
1.57067404791e-09
2.16682454291e-09
1.13736572265e-09
1.46486107516e-09
1.2158336135e-08
3.50232485576e-09
1.61396017455e-09
6.1631570976e-09
8.27033967585e-10
9.8551860442e-09
1.76877823103e-09
9.03017559974e-10
5.59692517992e-10
1.51795330526e-09
8.50223097769e-09
5.72508621675e-09
1.0514571459e-09
2.73587277721e-09
2.64838976573e-09
2.11495823037e-09
5.95809484327e-11
4.94616116176e-09
6.19060628236e-09
1.06380736725e-08
1.2374343542e-08
8.61765419685e-09
1.08473808384e-08
2.32939201555e-10
3.22749427109e-09
1.86596426779e-09
2.96552443673e-09
2.13941639299e-09
7.65805533675e-09
5.51593451176e-09
2.38962100952e-09
5.92924567667e-09
3.27934827176e-09
9.77504120662e-09
4.98460142969e-09
1.13713424163e-08
1.21501383934e-08
2.69106535837e-08
4.911395127e-09
8.26333784366e-09
3.96559381467e-09
5.13347171129e-09
1.0129769545e-08
8.6637465472e-09
2.06511362738e-08
1.1854851409e-08
2.01254676317e-08
6.27913369831e-09
9.31523108326e-09
1.29809979714e-08
9.31998059328e-09
1.75350335995e-08
4.09370970177e-09
1.04635626421e-08
1.82333312732e-08
1.21505406688e-08
1.28767076958e-08
1.795972858e-08
1.14327256303e-08
1.36099630489e-08
1.94066321164e-08
1.26185614711e-08
9.02464724869e-09
1.2924020849e-08
9.48562443749e-09
7.64213022059e-09
5.45812044244e-09
7.05201978282e-10
4.74141653599e-09
3.0208447711e-09
7.6975433547e-10
6.09763859199e-09
7.68074463513e-09
1.06534801223e-08
2.02472033157e-08
2.12100974611e-08
3.11679267358e-09
1.40148111765e-09
8.07007706939e-10
6.34802876746e-09
5.19136842794e-10
3.01179509361e-08
2.2908534846e-09
4.34270535802e-09
3.69147447452e-08
1.69264293858e-09
1.25259139854e-08
1.58589952013e-08
1.04190566992e-08
2.28501531503e-09
5.3043076082e-09
5.64588922166e-09
1.32164317218e-08
9.71898796173e-09
6.83471797293e-09
5.47324464522e-10
4.9585844438e-09
1.43162779233e-08
1.02077099727e-09
3.35687603391e-09
1.14202570054e-08
3.27210527657e-09
9.29114744423e-09
2.08979816843e-09
8.1308863004e-09
4.86682356465e-09
3.44687825399e-09
8.11722420684e-09
3.38628739543e-09
6.3128344164e-09
1.00049818293e-08
4.56621805619e-09
1.81934086387e-09
1.1766737e-08
1.84392101035e-09
1.93923750294e-09
6.07704087273e-09
8.87439265005e-09
2.61274338109e-09
5.54759228663e-09
4.9990675022e-10
6.87791464736e-09
5.01326097121e-09
7.2378513873e-09
2.52045191097e-09
7.22520358946e-09
7.50808539137e-09
8.64115610994e-09
5.23439401949e-09
7.98444282335e-09
8.94990446796e-09
5.68718302076e-10
4.59836464203e-09
6.34613725117e-09
4.88599947356e-09
5.11777162076e-09
4.37943039067e-09
1.16126330232e-09
5.4922829855e-09
5.77024954262e-09
2.45913923916e-09
3.09071439486e-09
1.08534542157e-08
6.26870235993e-11
3.07356713512e-09
6.73307629149e-09
1.21115225839e-08
2.90995424645e-09
1.69014557864e-10
2.70533799561e-09
4.73982441338e-09
7.25940277903e-10
4.90197819379e-09
6.97077441044e-09
1.2988371377e-09
1.96462634829e-09
1.09072862622e-08
1.01854202771e-09
3.68329452599e-09
1.20899336723e-08
9.19941459459e-09
2.36082021435e-08
3.35988956403e-09
3.97345800674e-09
6.88748650808e-09
2.18913659474e-08
9.14962945367e-09
2.13167429229e-08
2.32047897105e-08
1.22133849923e-08
1.06128810149e-09
1.83945567983e-08
5.2030985845e-09
3.71042130695e-10
2.17134379213e-10
7.20192504094e-09
3.62318835362e-10
7.58487556201e-09
2.69953383591e-09
1.00944789544e-09
4.69181000521e-09
1.70427303509e-08
8.95603710049e-09
1.70643405249e-09
1.5978858729e-08
1.80382786803e-08
6.20510496623e-09
2.07061884638e-08
4.01201462036e-09
2.15057632703e-09
1.91219224728e-09
1.46928755539e-08
1.8130829666e-08
2.39654994898e-08
1.48840945463e-08
2.59716254147e-08
1.17636727396e-08
8.64457308202e-09
1.09419278862e-08
2.41231646516e-08
2.32368297724e-08
1.41466937522e-08
2.26346916703e-08
3.13544406282e-08
3.8417185956e-08
2.15157266433e-08
1.9080176118e-08
1.36094994344e-09
4.46162911699e-09
8.45984367894e-09
1.18968109523e-08
1.54176086643e-08
1.64700388527e-08
1.86656443557e-08
6.2351043153e-09
5.22195596948e-10
1.15054149355e-08
3.09498848933e-08
1.42683411141e-08
2.73315619544e-08
6.80435650549e-09
1.04733365679e-09
3.57617505193e-09
1.17553561306e-09
4.1724398797e-10
8.87896280428e-10
2.67748679138e-09
2.4897422477e-09
3.23877216592e-09
9.84389304721e-09
1.04790208813e-09
1.29210530121e-08
1.73863839755e-08
5.99110744061e-09
5.49151002875e-09
3.27840917354e-09
2.77816718287e-09
1.36579920809e-08
4.28207830694e-09
7.49638844448e-10
2.31288011799e-09
5.69064044379e-09
5.2330209824e-09
3.4304286424e-09
4.57822692711e-09
1.36959746199e-08
8.54958188188e-09
1.42682604703e-08
8.68695687759e-09
2.0991343466e-08
1.19162813665e-08
2.29519640116e-08
9.91018315501e-09
1.30748514636e-08
1.14029220851e-08
3.72764071045e-10
3.94489740454e-09
6.78913296976e-10
6.68159469558e-09
9.7118769068e-09
1.25976294931e-08
1.04542753381e-08
7.15278112468e-09
1.95678054782e-09
9.30328319225e-09
6.36661698625e-10
3.47663060476e-09
4.9689981532e-09
9.60263218258e-09
5.69065978073e-09
1.48019461153e-09
6.85457135478e-09
2.12096308495e-08
2.31330177971e-09
1.04543474037e-08
6.86508748218e-09
6.95048053974e-09
2.650297319e-09
1.35219329817e-08
5.4833968192e-09
3.82428620177e-09
7.13616732045e-09
2.71095453449e-09
3.77034315825e-09
8.79119669177e-09
6.69661793504e-10
1.86107506059e-08
2.06694051112e-09
6.30368553195e-10
1.0766106829e-08
7.05089949698e-09
1.52574184668e-09
2.85045724843e-09
1.40867399882e-08
8.19748115031e-09
1.95514185505e-09
1.3699175108e-08
3.98945125839e-09
3.08498862388e-09
2.03306658325e-08
4.58732491616e-08
2.26803895355e-09
2.94730383094e-09
1.41608111893e-08
7.90857370635e-09
2.77900245661e-09
4.40364461509e-09
1.19907785074e-08
1.97114085781e-08
7.39474382292e-09
1.56837489511e-08
3.27850831226e-08
2.85204416688e-08
2.35400494847e-08
6.22905270115e-09
4.84502056925e-09
1.19731042212e-08
7.27920389143e-09
5.08369952248e-09
1.31031812801e-08
1.85959423659e-08
2.17829771754e-09
8.42107193459e-09
3.53600854659e-09
6.93498073601e-09
1.81020836673e-08
1.48245690846e-08
1.32754155126e-08
3.03682610624e-08
7.96304436333e-09
1.18223084959e-08
1.23769559717e-08
1.20530839424e-08
1.88806824016e-08
8.56245267362e-09
2.14540833341e-08
1.67090317083e-08
1.69537320014e-08
7.39471335555e-09
1.30607704244e-08
2.33123700114e-08
1.10815451863e-08
5.48053393775e-09
2.11391191109e-08
6.79640487738e-09
9.84958729154e-09
1.22134922908e-09
7.41175704418e-09
1.09122821157e-08
4.9095122893e-10
6.6999684484e-09
8.93533308905e-09
7.99149928421e-09
5.89983724929e-09
2.48953011635e-09
2.11901422875e-09
2.38486267201e-09
6.42182094478e-09
1.63680331263e-09
4.924106561e-09
3.78126144317e-09
5.6039017982e-09
4.00017201415e-09
3.88832161842e-09
2.1272180569e-09
4.02152264704e-09
3.12379975723e-09
2.33859764023e-09
5.27529165065e-11
4.15427766815e-09
8.15982125871e-10
1.43296382217e-09
3.64172947272e-09
9.81167898148e-10
2.67053918962e-09
4.55482143666e-09
2.31958299416e-09
7.15724591952e-09
6.23353272695e-10
8.69132058021e-09
7.2127951361e-09
4.70956133364e-09
4.35922932858e-09
5.651556973e-09
6.11429420126e-09
8.2209394108e-09
2.4727458504e-09
5.04509276188e-09
5.78177098188e-09
9.0363929341e-09
3.66733218441e-09
7.09520612037e-09
6.91956100304e-09
5.79798180647e-09
9.57783480757e-09
6.21502189748e-10
8.62647011662e-09
3.50681769075e-09
2.41190653047e-09
5.51557043606e-10
4.5444973062e-09
5.99362184272e-09
1.91499930004e-09
3.75524635005e-09
7.29505818181e-09
7.40077874606e-10
3.71437721574e-09
3.31666039191e-09
5.91309268989e-09
3.95523176414e-10
3.598165037e-09
1.92217420429e-09
1.15073021228e-09
4.77191896592e-09
3.49433167188e-09
4.80308204902e-09
9.72303527659e-10
2.82040891874e-09
1.98769483318e-09
1.45144961673e-09
1.9012458474e-09
2.02654179894e-09
2.67157478693e-09
1.31141023945e-09
4.46529099561e-09
4.36692748698e-09
4.73587232856e-08
1.46864106467e-09
2.01746272e-09
4.58120772059e-09
2.76217528565e-09
1.93442984311e-09
4.38478550018e-09
5.83011197037e-10
3.77048754827e-10
5.72246074803e-09
4.64812421218e-09
9.54138173246e-09
1.03226955381e-08
1.63282706391e-09
1.52819079844e-09
1.15882489223e-08
2.95200471784e-09
1.0446342126e-09
4.91011826769e-09
3.12090247683e-08
9.19097749887e-09
4.66548478226e-09
1.92758658546e-08
8.79372319371e-11
3.57265937013e-09
1.27809678302e-08
3.24296461928e-09
3.64180232958e-09
1.45441483562e-08
3.89608541708e-09
1.49910230868e-08
1.57467707697e-08
8.34352109612e-09
3.29849702349e-09
4.36875972479e-09
8.14164625331e-09
1.25463012151e-09
7.6613016574e-09
6.1296660577e-09
1.59860044699e-09
7.68209467605e-09
9.00217189526e-11
1.24826199012e-08
5.85199469047e-10
1.67022289772e-08
5.64300928934e-09
1.44300530832e-09
2.14998790426e-09
5.71717589098e-09
5.64977340914e-09
3.20990452952e-09
7.77574778461e-09
5.04247162005e-09
5.94375747295e-09
2.06991990389e-09
3.40781375951e-09
4.28574966581e-09
3.68684292032e-09
1.56473427026e-10
1.32277629815e-09
4.22118586082e-09
2.30118024509e-09
2.05041889408e-09
4.24223218572e-09
2.25289433057e-09
5.09074431065e-09
4.19639799048e-09
2.41567612303e-09
2.90079920933e-09
5.99942545336e-09
2.29462434424e-09
4.47744100412e-09
1.00489377385e-08
3.63556509352e-09
4.3101801663e-09
3.53790829806e-09
1.15873047844e-08
8.07297465008e-09
6.66602919593e-09
8.37450717654e-09
4.90570923219e-09
4.97176073863e-09
1.13115402335e-08
3.80249848849e-09
5.42836709228e-09
8.9935881181e-10
2.53176548447e-09
5.99731505306e-09
5.2879080783e-09
7.41133513302e-10
3.28641316979e-09
7.26481935298e-10
2.69804289928e-09
5.31602128498e-09
7.1550236312e-10
1.4640478818e-09
3.67698729606e-09
2.20236059732e-09
4.09065699029e-09
6.77768133399e-09
3.70707097754e-10
5.02962750172e-09
8.94871824595e-09
4.54329155487e-09
3.5512125335e-09
4.93393734466e-10
5.96139409923e-10
5.50133019041e-09
2.01298626803e-09
1.72968283846e-09
2.06037436258e-11
5.02559548423e-09
4.08579897054e-09
4.36861140569e-09
4.7722996143e-10
9.82511621253e-10
3.89024848305e-09
1.10906532575e-08
9.31381840585e-09
9.79192036707e-09
9.17925524629e-09
5.80317662213e-09
3.81493575924e-09
4.9269761479e-09
6.97834302964e-09
1.97200700297e-09
4.5681343708e-09
3.27981806574e-09
1.09965732534e-09
5.57087485752e-09
7.07821289588e-09
7.96900907174e-09
4.21409009889e-09
3.35183874545e-09
2.22753717687e-09
3.97187956253e-09
1.57653945683e-10
3.29422728147e-09
2.90468528e-09
4.09235339939e-09
1.64419912677e-10
3.47159652807e-09
2.16397788405e-09
3.84349124319e-09
8.17078185012e-09
7.2057245847e-09
1.18568987688e-09
6.25212418966e-09
5.78297164139e-09
9.67961585743e-09
3.54045352217e-09
2.64346163276e-10
1.747210957e-09
4.66268239489e-09
1.62648576891e-09
7.50417915092e-10
2.98125842487e-09
2.13197081076e-10
8.1358714752e-10
9.76355558005e-10
1.39586815795e-09
4.71123145204e-09
1.53111984498e-09
2.83017227198e-10
3.28531835516e-09
7.15498103213e-10
5.97578378909e-09
1.01731900465e-08
3.31524577096e-09
5.07897449164e-09
6.53555940844e-11
1.4601655135e-09
1.71699219788e-09
3.66195499891e-09
4.17802907752e-09
5.77714271732e-10
6.23203088414e-09
9.22650948316e-10
2.41494366288e-09
2.46827819772e-09
1.85128279888e-09
1.7243005725e-09
9.44940321197e-09
4.58670164587e-09
1.62564860086e-09
4.9665041007e-09
5.55035527747e-09
2.4825953544e-10
8.77818839564e-09
4.16785980469e-09
9.50853036637e-09
1.05735735193e-08
8.64776243637e-09
9.22962242074e-09
4.94465914667e-09
1.12713072276e-08
1.72938657403e-09
1.57056095671e-08
8.43801847696e-10
3.30992725807e-10
3.69049102786e-10
4.39859924919e-09
1.77743321744e-09
1.00347155646e-10
1.88526966563e-09
1.24561522036e-09
1.54591175708e-09
4.11439320738e-10
2.06225745854e-09
8.13185274502e-10
5.65708970453e-10
3.82185022542e-09
6.2289921177e-09
6.04707036314e-09
4.07268916482e-09
6.11978498912e-09
6.1010741801e-09
2.29075436382e-09
1.11735808734e-09
5.80052168661e-09
5.72788206686e-09
5.80200580839e-09
2.27024506054e-09
7.33604835244e-09
7.20874122858e-09
1.90093134077e-09
4.6746026512e-10
3.2260321925e-10
2.66756600982e-09
6.67620756606e-09
2.6177256748e-09
2.7447357571e-09
6.90636616612e-09
1.53095374457e-09
2.71550420533e-09
3.41840036171e-09
1.80052371304e-09
4.66310150227e-09
4.53095671799e-09
2.58383033515e-09
1.7284736344e-09
3.64155767205e-09
1.47284531006e-09
2.60043710309e-09
3.27704904547e-09
3.68242095498e-09
5.28323100219e-11
3.96048637465e-09
1.46672215628e-09
6.75872292613e-09
3.4137910435e-09
3.63097439192e-09
4.16910073752e-09
1.79892511126e-09
1.27179632412e-09
4.43956442432e-09
4.85124221426e-09
7.74534123502e-10
4.82952409802e-09
1.11303838364e-08
5.4729045986e-09
1.51899387901e-09
7.40973754031e-09
5.43595844383e-09
9.61779855331e-10
6.16647811859e-09
6.84801995889e-09
5.4641834201e-09
3.24268195267e-09
7.03302612965e-09
4.42314609909e-11
2.07997952277e-09
1.83894807232e-09
2.08382842694e-09
2.6484164161e-09
2.75604331224e-09
1.04756855955e-09
3.11633161579e-09
3.57585705923e-09
3.20966759065e-09
8.72010496233e-10
5.49358778059e-09
2.50045475463e-09
3.62790394984e-09
6.55221869135e-10
2.7508725664e-09
9.56086809572e-10
2.66415430175e-10
2.38483873297e-09
1.30727954757e-09
3.49520488515e-09
4.28731939263e-10
2.45938689728e-09
6.03285210117e-10
7.05574292313e-10
4.9962767025e-09
4.74554988359e-09
7.18208155775e-09
6.41092565545e-09
1.12873085568e-08
6.02424688867e-09
2.47248626707e-09
4.76165614582e-09
2.07405145287e-10
1.59272597225e-08
1.34718932455e-09
6.65739917742e-09
3.82382524424e-09
1.27769039495e-08
3.12331808981e-09
1.98538332068e-09
1.18411597069e-09
2.26139661165e-09
5.76674883779e-09
3.41580162525e-11
4.26068314931e-09
1.92987516409e-10
3.46016388526e-09
2.48417750409e-09
8.22558780819e-10
5.70372122471e-10
1.4984731532e-08
1.15739389232e-08
9.10127007842e-09
3.23502346584e-09
4.79822803441e-09
1.29345239167e-09
4.9631505908e-09
1.85042264091e-09
4.15530336191e-09
7.1799513791e-10
3.54825705408e-09
8.65059565672e-10
2.01974320857e-09
5.30251195364e-10
4.93998461636e-09
6.36272210874e-09
1.27783864544e-08
2.77447765496e-09
4.35218615455e-09
7.66592464241e-09
3.83991809917e-10
2.11553914743e-09
9.38200359249e-10
2.50405104493e-09
3.71403074497e-09
7.57478683967e-10
4.18758692759e-09
1.32895764548e-10
6.59457445526e-10
4.49924878963e-09
1.62254093147e-09
1.55029511186e-11
7.04580954483e-10
5.99552478322e-09
6.87860358697e-09
4.18958630852e-09
5.22961914632e-09
1.39303039268e-09
8.65827725052e-09
3.63191352405e-10
3.13121111054e-09
6.0126526891e-09
4.32928634373e-09
4.71912091868e-10
3.74680557939e-09
4.04791506483e-09
2.76225731475e-09
9.09028258296e-11
2.17038101372e-09
2.45555569136e-09
1.85699274834e-09
1.15479435365e-09
2.01891084363e-09
2.37679220463e-09
2.60621922164e-09
3.40101782315e-10
3.45012787462e-09
3.76340970575e-09
9.151353367e-11
3.19193794166e-09
1.68979493629e-09
1.553530938e-10
3.41639550867e-09
1.98403403075e-09
4.96861624483e-10
1.70676992696e-09
9.82777423653e-10
1.1180520048e-09
1.55206742601e-09
1.06356458442e-09
3.15582130688e-09
1.78632898507e-09
3.40586428547e-10
2.43150970833e-09
2.82972808937e-09
4.10580238891e-09
1.55189785249e-09
1.20738436724e-09
3.0042832074e-09
2.30622494311e-09
8.57520316022e-11
3.36769978706e-09
4.88939847813e-09
2.14201369136e-09
6.45504125199e-09
5.30850639117e-09
2.38392664783e-09
3.46593661058e-09
2.85774471507e-09
2.64932268019e-09
4.42125535516e-09
1.68128383332e-08
7.06934507107e-09
9.50507138846e-09
7.73885047964e-09
1.47152286714e-08
1.64294698668e-09
1.93131456699e-09
8.44947796522e-10
4.01756515611e-09
8.26793332181e-10
5.42341315413e-09
3.28868753299e-09
3.74191792938e-09
3.8178847445e-09
4.66673546677e-09
4.94932255987e-09
2.05802375695e-08
3.43168004559e-09
2.88355081198e-09
6.7952091827e-09
3.84328789828e-09
4.28688644658e-10
1.80542045522e-10
3.51759027695e-09
6.49515834027e-10
4.30963440742e-10
4.55619104185e-11
1.79302785151e-09
2.40184867513e-10
7.18038672343e-09
2.87033042483e-09
5.07888526298e-09
5.94140528485e-09
6.23286745736e-09
3.50341083178e-09
4.867591176e-09
4.80483626041e-09
4.21906764446e-09
3.75670451404e-09
2.41239569703e-09
4.4434030338e-09
2.28335981671e-09
1.14039737324e-09
3.59922333047e-09
1.70423059799e-09
2.02951017647e-09
4.93665069198e-10
3.04573979498e-09
2.38682774147e-09
3.14950203478e-09
3.04698103928e-09
1.37416154765e-08
2.71981120965e-09
5.1749314626e-10
2.67217154967e-09
4.9024961511e-09