# vtk DataFile Version 3.0
File Name: Molecule/sphere_cent/sphere_cent_0-s2.vtk
ASCII
DATASET UNSTRUCTURED_GRID
FIELD FieldData 1
TIME 1 1 double
0.0
POINTS 162 double
0.85065078735 -0.52573114634 -2.2690307411e-09
0.86284852028 -0.43502771854 -0.25720086694
0.9610838294 -0.27609294653 6.5552689193e-05
0.95103728771 -0.15983994305 -0.26447436213
0.80900675058 -0.30901306868 -0.49999368191
0.99998736382 -2.1392114746e-09 3.7592252511e-07
0.85227286816 7.5050862506e-05 -0.5230628252
0.95103538036 0.15986897051 -0.26445966959
0.80900639296 0.30901372433 -0.49999392033
0.69232952595 -0.15888024867 -0.70380908251
0.69228124619 0.15892602503 -0.70384633541
0.52573114634 6.9694121585e-09 -0.85065078735
0.96110725403 0.2760129869 -0.00013291853247
0.86287927628 0.43496111035 -0.25721418858
0.85065078735 0.52573114634 9.4334930978e-09
0.7038872242 0.69224691391 -0.158892259
0.6865593791 0.58777433634 -0.42793032527
0.4999935329 0.8090069294 -0.30901280046
0.58772903681 0.42793554068 -0.68659424782
0.42790490389 0.6865748167 -0.58777350187
0.30901244283 0.49999344349 -0.80900716782
0.43506920338 0.25725007057 -0.86281388998
0.25729557872 0.8627782464 -0.43511259556
0.15903243423 0.7038872242 -0.69221556187
-2.7318694862e-08 0.85065078735 -0.52573108673
0.7039270997 0.69218200445 0.15899884701
0.52310281992 0.85224997997 5.5912382777e-06
0.49999383092 0.80900657177 0.3090133965
0.26442581415 0.95105183125 -0.15982925892
0.26445877552 0.95103603601 0.1598662585
-7.919167615e-07 0.99998736382 1.0191691935e-09
6.7304055847e-05 0.96109968424 -0.27603980899
0.25721335411 0.86291128397 0.43489730358
6.5256703238e-05 0.96110153198 0.27603414655
-1.9061672241e-09 0.85065078735 0.52573108673
-0.25719627738 0.86281889677 0.4350899756
-0.26447758079 0.95103561878 0.15984281898
-0.49999377131 0.80900651217 0.3090134263
-0.26451176405 0.95101934671 -0.15988013148
-0.52313023806 0.852232337 -1.429183726e-06
-0.49999392033 0.80900639296 -0.30901372433
-0.25720927119 0.86287969351 -0.4349630177
-0.70381170511 0.69232594967 0.15888437629
-0.70384687185 0.69228082895 -0.1589268446
-0.85065078735 0.52573108673 -3.5719802671e-09
-0.15889012814 0.70388561487 0.69224923849
-0.42793160677 0.68655598164 0.58777719736
-0.30901280046 0.4999935329 0.8090069294
-0.68659418821 0.58773076534 0.42793342471
-0.58777356148 0.42790478468 0.6865748167
-0.80900710821 0.30901247263 0.49999347329
-0.86281329393 0.43507045507 0.25724977255
-0.43511256576 0.25729554892 0.86277830601
-0.69221556187 0.15903241932 0.7038872242
-0.52573108673 -2.7903437783e-08 0.85065078735
0.15893273056 0.70392453671 0.69220006466
3.089475058e-06 0.52310150862 0.85225081444
0.30901309848 0.49999365211 0.80900681019
-0.15982919931 0.26442590356 0.95105183125
0.15986597538 0.26445844769 0.95103615522
7.5038713021e-09 -7.9597703007e-07 0.99998736382
-0.27603977919 6.7312859755e-05 0.96109968424
0.43489700556 0.25721338391 0.86291146278
0.27603417635 6.52446397e-05 0.96110153198
0.52573114634 -1.5240511075e-08 0.85065078735
-0.43509078026 -0.25719624758 0.86281853914
-0.15984253585 -0.26447740197 0.95103561878
-0.3090134263 -0.49999380112 0.80900657177
7.4063937063e-05 -0.52306324244 0.85227262974
0.15991191566 -0.26440998912 0.95104312897
0.30901372433 -0.49999392033 0.80900639296
-0.15888044238 -0.70380920172 0.69232934713
0.15892624855 -0.70384627581 0.69228136539
6.0789480116e-09 -0.85065078735 0.52573114634
0.43496340513 -0.25720953941 0.86287951469
0.69224709272 -0.15889184177 0.7038872242
0.5877738595 -0.4279306829 0.6865593791
0.80900675058 -0.30901309848 0.49999368191
0.42793574929 -0.68659424782 0.5877289772
0.68657386303 -0.58777409792 0.42790535092
0.49999344349 -0.80900716782 0.30901247263
0.25725004077 -0.86281388998 0.43506920338
0.86274719238 -0.43517664075 0.25729310513
0.70388752222 -0.69221609831 0.15903104842
0.43498766422 -0.25715607405 -0.86288255453
0.27611833811 2.1969267436e-06 -0.96107697487
0.15983696282 -0.26447623968 -0.95103722811
0.30901280046 -0.4999935627 -0.8090069294
-8.1434547994e-09 -1.8846344929e-08 -0.99998736382
-7.5432872109e-05 -0.52306264639 -0.85227292776
-0.15986901522 -0.26446002722 -0.95103526115
-0.30901375413 -0.49999389052 -0.80900639296
0.15888006985 -0.70380890369 -0.69232976437
-0.15892603993 -0.70384633541 -0.69228124619
-1.2744436617e-08 -0.85065078735 -0.52573108673
-0.27601289749 -0.00013325741747 -0.96110731363
-0.43496111035 -0.25721415877 -0.86287927628
-0.52573114634 -6.1789151573e-10 -0.85065078735
0.95103341341 -0.15984562039 0.26448276639
0.95102053881 0.15987934172 0.26450771093
0.85220181942 -1.7404974642e-05 0.52318179607
0.80900675058 0.30901309848 0.49999368191
0.86291611195 0.43491724133 0.25716543198
0.69229531288 0.15886121988 0.70384800434
0.68656265736 0.58776724339 0.42793399096
0.42784258723 0.68656754494 0.58782923222
0.58777213097 0.42779695988 0.68664598465
-0.69224685431 -0.1588922739 -0.70388716459
-0.69218242168 0.15899826586 -0.70392686129
-0.8522503376 4.9079699238e-06 -0.52310264111
-0.8090069294 -0.30901277065 -0.4999935329
-0.80900675058 0.30901309848 -0.49999365211
-0.95105779171 -0.15976202488 -0.26444044709
-0.9510358572 0.15986743569 -0.26445898414
-0.99998736382 -1.5321439673e-09 3.7933980934e-07
-0.86291438341 -0.43489173055 -0.25721263885
-0.96110141277 -0.27603381872 -6.663709064e-05
-0.85065078735 -0.52573114634 2.0790674071e-08
-0.86294591427 0.43485602736 -0.25716882944
-0.96109467745 0.27605965734 -0.00012858424452
-0.15892934799 0.70392346382 -0.6922019124
-0.42793250084 0.68655997515 -0.58777189255
-0.30901309848 0.4999936223 -0.80900675058
-0.58784621954 0.42789244652 -0.68652009964
-0.68664836884 0.58776903152 -0.4277972877
-0.43513172865 0.25724753737 -0.86278378963
-0.70388787985 -0.69224607944 -0.15889264643
-0.70392686129 -0.69218242168 0.15899828076
-0.52310264111 -0.852250278 5.2008977036e-06
-0.49999344349 -0.80900716782 -0.30901244283
-0.49999368191 -0.80900675058 0.30901309848
-0.26444020867 -0.95105791092 -0.15976086259
-0.26445898414 -0.95103591681 0.15986734629
3.8998479113e-07 -0.99998736382 6.6347061178e-09
-0.25716862082 -0.86294859648 -0.43485066295
-6.5358246502e-05 -0.96110147238 -0.27603450418
-0.25716850162 -0.86294531822 0.43485730886
-0.00012857024558 -0.96109467745 0.27605968714
-0.86285436153 -0.4350463748 0.25715279579
-0.6865593195 -0.58777028322 0.42793557048
-0.80900675058 -0.30901309848 0.49999368191
-0.42783877254 -0.6865683198 0.58783125877
-0.58775603771 -0.42786169052 0.68661767244
-0.69216990471 -0.15906532109 0.70392531157
-0.8522477746 -2.5162732982e-06 0.52310597897
-0.95106011629 0.15987230837 0.26437306404
-0.95103865862 -0.1599714458 0.26439252496
-0.58777344227 -0.42793086171 -0.6865593791
-0.42788550258 -0.68664312363 -0.58770984411
-0.68664443493 -0.5877738595 -0.42779693007
0.25715279579 -0.86285233498 -0.43505001068
0.26447582245 -0.95103645325 -0.15983994305
0.49999365211 -0.80900675058 -0.30901312828
0.52311700583 -0.85224044323 9.5249924925e-05
0.26439195871 -0.95103818178 0.15997651219
0.70384377241 -0.69230151176 -0.15885287523
0.58777409792 -0.42792892456 -0.68656003475
0.68656384945 -0.58783572912 -0.4278396666
0.42779773474 -0.686642766 -0.58777529001
0.15984109044 0.2644777298 -0.95103549957
-0.1599483788 0.26449218392 -0.95101422071
-8.6418663159e-07 0.52323746681 -0.85216861963

CELLS 320 1280
3 0 1 2
3 1 3 2
3 1 4 3
3 2 3 5
3 4 6 3
3 6 7 3
3 6 8 7
3 3 7 5
3 4 9 6
3 9 10 6
3 9 11 10
3 6 10 8
3 5 7 12
3 7 13 12
3 7 8 13
3 12 13 14
3 14 13 15
3 13 16 15
3 13 8 16
3 15 16 17
3 8 18 16
3 18 19 16
3 18 20 19
3 16 19 17
3 8 10 18
3 10 21 18
3 10 11 21
3 18 21 20
3 17 19 22
3 19 23 22
3 19 20 23
3 22 23 24
3 14 15 25
3 15 26 25
3 15 17 26
3 25 26 27
3 17 28 26
3 28 29 26
3 28 30 29
3 26 29 27
3 17 22 28
3 22 31 28
3 22 24 31
3 28 31 30
3 27 29 32
3 29 33 32
3 29 30 33
3 32 33 34
3 34 33 35
3 33 36 35
3 33 30 36
3 35 36 37
3 30 38 36
3 38 39 36
3 38 40 39
3 36 39 37
3 30 31 38
3 31 41 38
3 31 24 41
3 38 41 40
3 37 39 42
3 39 43 42
3 39 40 43
3 42 43 44
3 34 35 45
3 35 46 45
3 35 37 46
3 45 46 47
3 37 48 46
3 48 49 46
3 48 50 49
3 46 49 47
3 37 42 48
3 42 51 48
3 42 44 51
3 48 51 50
3 47 49 52
3 49 53 52
3 49 50 53
3 52 53 54
3 34 45 55
3 45 56 55
3 45 47 56
3 55 56 57
3 47 58 56
3 58 59 56
3 58 60 59
3 56 59 57
3 47 52 58
3 52 61 58
3 52 54 61
3 58 61 60
3 57 59 62
3 59 63 62
3 59 60 63
3 62 63 64
3 54 65 61
3 65 66 61
3 65 67 66
3 61 66 60
3 67 68 66
3 68 69 66
3 68 70 69
3 66 69 60
3 67 71 68
3 71 72 68
3 71 73 72
3 68 72 70
3 60 69 63
3 69 74 63
3 69 70 74
3 63 74 64
3 64 74 75
3 74 76 75
3 74 70 76
3 75 76 77
3 70 78 76
3 78 79 76
3 78 80 79
3 76 79 77
3 70 72 78
3 72 81 78
3 72 73 81
3 78 81 80
3 77 79 82
3 79 83 82
3 79 80 83
3 82 83 0
3 11 84 85
3 84 86 85
3 84 87 86
3 85 86 88
3 87 89 86
3 89 90 86
3 89 91 90
3 86 90 88
3 87 92 89
3 92 93 89
3 92 94 93
3 89 93 91
3 88 90 95
3 90 96 95
3 90 91 96
3 95 96 97
3 0 2 82
3 2 98 82
3 2 5 98
3 82 98 77
3 5 99 98
3 99 100 98
3 99 101 100
3 98 100 77
3 5 12 99
3 12 102 99
3 12 14 102
3 99 102 101
3 77 100 75
3 100 103 75
3 100 101 103
3 75 103 64
3 14 25 102
3 25 104 102
3 25 27 104
3 102 104 101
3 27 105 104
3 105 106 104
3 105 57 106
3 104 106 101
3 27 32 105
3 32 55 105
3 32 34 55
3 105 55 57
3 101 106 103
3 106 62 103
3 106 57 62
3 103 62 64
3 97 107 108
3 107 109 108
3 107 110 109
3 108 109 111
3 110 112 109
3 112 113 109
3 112 114 113
3 109 113 111
3 110 115 112
3 115 116 112
3 115 117 116
3 112 116 114
3 111 113 118
3 113 119 118
3 113 114 119
3 118 119 44
3 24 120 41
3 120 121 41
3 120 122 121
3 41 121 40
3 122 123 121
3 123 124 121
3 123 111 124
3 121 124 40
3 122 125 123
3 125 108 123
3 125 97 108
3 123 108 111
3 40 124 43
3 124 118 43
3 124 111 118
3 43 118 44
3 117 126 127
3 126 128 127
3 126 129 128
3 127 128 130
3 129 131 128
3 131 132 128
3 131 133 132
3 128 132 130
3 129 134 131
3 134 135 131
3 134 94 135
3 131 135 133
3 130 132 136
3 132 137 136
3 132 133 137
3 136 137 73
3 117 127 138
3 127 139 138
3 127 130 139
3 138 139 140
3 130 141 139
3 141 142 139
3 141 67 142
3 139 142 140
3 130 136 141
3 136 71 141
3 136 73 71
3 141 71 67
3 140 142 143
3 142 65 143
3 142 67 65
3 143 65 54
3 54 53 143
3 53 144 143
3 53 50 144
3 143 144 140
3 50 145 144
3 145 146 144
3 145 114 146
3 144 146 140
3 50 51 145
3 51 119 145
3 51 44 119
3 145 119 114
3 140 146 138
3 146 116 138
3 146 114 116
3 138 116 117
3 97 96 107
3 96 147 107
3 96 91 147
3 107 147 110
3 91 148 147
3 148 149 147
3 148 129 149
3 147 149 110
3 91 93 148
3 93 134 148
3 93 94 134
3 148 134 129
3 110 149 115
3 149 126 115
3 149 129 126
3 115 126 117
3 94 150 135
3 150 151 135
3 150 152 151
3 135 151 133
3 152 153 151
3 153 154 151
3 153 80 154
3 151 154 133
3 152 155 153
3 155 83 153
3 155 0 83
3 153 83 80
3 133 154 137
3 154 81 137
3 154 80 81
3 137 81 73
3 11 9 84
3 9 156 84
3 9 4 156
3 84 156 87
3 4 157 156
3 157 158 156
3 157 152 158
3 156 158 87
3 4 1 157
3 1 155 157
3 1 0 155
3 157 155 152
3 87 158 92
3 158 150 92
3 158 152 150
3 92 150 94
3 11 85 21
3 85 159 21
3 85 88 159
3 21 159 20
3 88 160 159
3 160 161 159
3 160 122 161
3 159 161 20
3 88 95 160
3 95 125 160
3 95 97 125
3 160 125 122
3 20 161 23
3 161 120 23
3 161 122 120
3 23 120 24

CELL_TYPES 320
5
5
5
5
5
5
5
5
5
5
5
5
5
5
5
5
5
5
5
5
5
5
5
5
5
5
5
5
5
5
5
5
5
5
5
5
5
5
5
5
5
5
5
5
5
5
5
5
5
5
5
5
5
5
5
5
5
5
5
5
5
5
5
5
5
5
5
5
5
5
5
5
5
5
5
5
5
5
5
5
5
5
5
5
5
5
5
5
5
5
5
5
5
5
5
5
5
5
5
5
5
5
5
5
5
5
5
5
5
5
5
5
5
5
5
5
5
5
5
5
5
5
5
5
5
5
5
5
5
5
5
5
5
5
5
5
5
5
5
5
5
5
5
5
5
5
5
5
5
5
5
5
5
5
5
5
5
5
5
5
5
5
5
5
5
5
5
5
5
5
5
5
5
5
5
5
5
5
5
5
5
5
5
5
5
5
5
5
5
5
5
5
5
5
5
5
5
5
5
5
5
5
5
5
5
5
5
5
5
5
5
5
5
5
5
5
5
5
5
5
5
5
5
5
5
5
5
5
5
5
5
5
5
5
5
5
5
5
5
5
5
5
5
5
5
5
5
5
5
5
5
5
5
5
5
5
5
5
5
5
5
5
5
5
5
5
5
5
5
5
5
5
5
5
5
5
5
5
5
5
5
5
5
5
5
5
5
5
5
5
5
5
5
5
5
5
5
5
5
5
5
5
5
5
5
5
5
5
5
5
5
5
5
5
5
5
5
5
5
5

CELL_DATA 320
SCALARS cell_data_0 double
LOOKUP_TABLE default
2.72556664143e-09
1.6899700464e-08
2.76099701613e-08
2.93487854254e-08
3.82923962065e-08
1.06578420278e-09
3.45875303491e-08
3.54882271571e-08
2.44042062296e-08
1.79645268493e-08
2.99567066554e-09
3.02738364444e-08
2.88278486338e-08
1.42808876713e-08
2.8291093639e-08
2.05710244455e-09
1.37248329462e-10
1.66607201848e-08
2.9776635873e-08
2.89682239937e-08
3.71582571016e-08
1.27245840942e-09
3.80651576307e-08
3.47125970096e-08
2.7303019478e-08
1.76360155811e-08
2.1179408422e-09
2.5607444939e-08
2.82199273252e-08
1.50875746618e-08
3.00847209673e-08
5.12387292114e-10
1.14274326128e-09
1.50699627846e-08
2.50170710992e-08
3.12806802562e-08
3.58602109372e-08
9.62109329244e-11
3.79157788644e-08
3.66913544915e-08
2.57685196472e-08
1.491343646e-08
8.39858146387e-10
2.87660060783e-08
2.88826204913e-08
1.50982929757e-08
2.72852542252e-08
3.55070182715e-10
3.77726299766e-09
1.40871813039e-08
2.50867979036e-08
2.60678770572e-08
3.73571426501e-08
2.68546570272e-09
3.54491774741e-08
3.84080964084e-08
2.61545231066e-08
1.33909811869e-08
1.32840225473e-10
2.66141368277e-08
2.64207120813e-08
1.58965791162e-08
2.75924516006e-08
3.47162807467e-11
8.10152168035e-10
1.49238831037e-08
2.81185200698e-08
2.73529929225e-08
3.70577141238e-08
2.18964070074e-10
3.73092553786e-08
3.7265511222e-08
3.263896893e-08
1.48075305177e-08
2.36475015335e-09
2.95110138257e-08
3.29117761239e-08
1.53154499403e-08
2.65536062492e-08
1.56250753457e-09
1.42197384286e-10
1.78341037076e-08
2.7837157041e-08
2.56156719127e-08
3.62988418811e-08
2.31112139516e-09
3.54286771025e-08
3.54259410154e-08
2.55381301429e-08
1.40379662356e-08
1.05799606921e-09
2.77484405416e-08
2.89066156557e-08
1.63709141581e-08
2.50627023238e-08
5.98648216075e-10
2.34971158838e-09
1.32030528012e-08
2.91707339536e-08
2.73104185206e-08
3.50195863833e-08
2.35305930129e-09
3.65947222977e-08
3.69113849188e-08
2.8354804957e-08
1.73427293038e-08
2.42508474023e-10
2.68357930355e-08
2.42979426065e-08
1.48912937064e-08
2.85858355713e-08
2.19206004184e-09
9.07770799136e-10
1.37258879632e-08
2.95938694092e-08
2.33996707066e-08
3.47591544887e-08
4.02446470815e-10
3.65684949859e-08
3.56359707498e-08
2.69665243632e-08
1.75089018051e-08
1.68044681849e-09
2.64666020664e-08
2.84191872963e-08
1.47229770614e-08
2.75383557641e-08
2.11568086746e-10
1.64626125548e-09
1.69922145136e-08
2.34520174736e-08
2.75969516996e-08
3.50523214337e-08
1.19135580979e-09
3.70713317313e-08
3.62306054407e-08
2.6293460455e-08
1.73975309708e-08
1.73144265269e-10
2.76408536669e-08
2.61055893222e-08
1.64261039634e-08
2.89674052197e-08
8.10925869979e-10
5.01103696691e-10
1.49415972377e-08
2.82036570162e-08
2.80576779798e-08
3.44875686126e-08
1.30278682212e-09
3.27825384318e-08
3.67880275183e-08
2.95015922783e-08
1.38739726563e-08
1.86016016333e-09
2.46723434601e-08
2.32204812522e-08
1.75594387699e-08
2.68120637156e-08
6.01297635625e-10
2.54432656285e-09
1.71546819851e-08
2.80538877493e-08
2.62759838105e-08
3.57599691376e-08
1.53135851099e-09
3.48010239808e-08
3.62736858754e-08
2.46627257507e-08
1.74934738471e-08
3.81226349046e-10
2.92019237358e-08
2.71461958653e-08
1.6991691087e-08
3.00771122298e-08
4.02077025041e-09
1.99915458093e-09
1.45782065321e-08
2.89787878783e-08
2.6107842682e-08
3.61443034965e-08
1.76994328979e-09
3.81143537335e-08
3.53465432434e-08
2.83175768749e-08
1.52430785242e-08
2.66210559055e-09
2.64254316764e-08
2.83394490992e-08
1.19361417604e-08
2.80091771694e-08
2.93359467457e-09
7.37795999832e-12
1.42156273423e-08
2.82874112799e-08
2.64298241758e-08
3.72663809653e-08
4.26143819261e-10
3.76720364268e-08
3.24398603325e-08
2.55893252885e-08
1.66294960116e-08
3.45497877161e-10
2.6973046769e-08
3.00411759024e-08
1.64913278321e-08
2.78807030167e-08
6.9627833478e-10
2.53555328108e-09
1.74943028995e-08
2.78976584482e-08
2.94391979169e-08
3.51438471949e-08
2.40588984636e-09
3.44762355931e-08
3.38253906214e-08
2.84782376106e-08
1.60304041999e-08
6.65280761334e-10
2.76380387057e-08
2.81696601065e-08
1.88198892509e-08
2.75791919307e-08
6.20875764477e-10
2.84975188931e-09
2.01003027236e-08
2.89743958263e-08
2.36080291585e-08
3.41182831394e-08
1.23295708131e-09
3.68571340786e-08
3.64475380076e-08
2.8855034822e-08
1.97050384454e-08
4.22149190489e-10
2.66422463486e-08
2.58364838159e-08
1.51113099773e-08
2.84678867077e-08
1.42125504464e-09
9.64563220427e-10
1.49448759809e-08
2.8523052808e-08
2.78155433523e-08
3.76483134549e-08
1.49363606336e-11
4.20850885169e-08
3.65701394945e-08
2.70189623411e-08
1.41032590973e-08
4.1097404141e-09
2.4409793837e-08
2.5063865944e-08
1.70125114053e-08
2.68964162899e-08
4.95444233945e-10
3.20970518672e-09
1.60171463241e-08
2.57142076572e-08
2.66798896551e-08
4.09108231388e-08
2.0146675488e-09
3.52995947178e-08
3.77431305612e-08
2.68875972565e-08
1.59470533019e-08
3.0574342482e-10
2.76421756595e-08
2.98016223781e-08
1.59724766315e-08
2.78223279217e-08
7.74989758281e-10
1.6633173975e-10
1.61876931916e-08
2.87273394485e-08
2.72285517111e-08
3.85358883822e-08
1.13134799674e-09
3.69529847849e-08
3.40261434861e-08
2.62462078708e-08
1.54061585114e-08
6.70885794835e-11
2.71145339479e-08
2.76861151898e-08
1.68578474461e-08
2.71875387259e-08
1.54226723374e-09
3.6453297727e-10
1.41072002406e-08
2.65506223011e-08
3.54310875155e-08
3.69562707438e-08
6.59030236511e-10
3.68040368553e-08
3.41808190911e-08
2.585749857e-08
1.68196920864e-08
6.93360043351e-10
2.9765096057e-08
2.91950752299e-08
1.48274109894e-08
2.999950315e-08
2.56993581851e-10
1.65295449459e-09
1.66869140557e-08
2.92709082349e-08
2.72518044867e-08
3.37370484148e-08
8.06809461647e-10
3.67679533833e-08
3.60323368631e-08
2.85876941339e-08
1.87444971895e-08
3.23384358391e-09
2.54769806678e-08
2.91058637872e-08
1.29950814336e-08
2.79901391201e-08
1.82020613049e-09

