# vtk DataFile Version 3.0
File Name: Molecule/sphere_test/sphere_test_0-s2.vtk
ASCII
DATASET UNSTRUCTURED_GRID
FIELD FieldData 1
TIME 1 1 double
0.0
POINTS 80 double
0.850650808352 -0.525731112119 0.0
0.809016994375 -0.309016994375 -0.5
1.0 0.0 0.0
0.809016994375 0.309016994375 -0.5
0.525731112119 0.0 -0.850650808352
0.525731112119 0.0 0.850650808352
0.309016994375 -0.5 0.809016994375
0.809016994375 -0.309016994375 0.5
0.5 -0.809016994375 0.309016994375
0.0 -0.850650808352 0.525731112119
0.309016994375 -0.5 -0.809016994375
0.0 0.0 -1.0
-0.309016994375 -0.5 -0.809016994375
0.0 -0.850650808352 -0.525731112119
-0.525731112119 0.0 -0.850650808352
0.809016994375 0.309016994375 0.5
0.850650808352 0.525731112119 0.0
0.309016994375 0.5 0.809016994375
-0.809016994375 -0.309016994375 -0.5
-0.809016994375 0.309016994375 -0.5
-1.0 0.0 0.0
-0.850650808352 -0.525731112119 0.0
-0.850650808352 0.525731112119 0.0
-0.309016994375 0.5 -0.809016994375
-0.5 0.809016994375 -0.309016994375
-0.5 -0.809016994375 -0.309016994375
-0.5 -0.809016994375 0.309016994375
0.0 -1.0 0.0
-0.809016994375 -0.309016994375 0.5
-0.309016994375 -0.5 0.809016994375
-0.809016994375 0.309016994375 0.5
0.5 -0.809016994375 -0.309016994375
0.309016994375 0.5 -0.809016994375
0.862668480416 0.433888564553 -0.259891913008
0.702046444776 0.69378047756 -0.16062203564
0.688190960236 0.587785252292 -0.425325404176
0.5 0.809016994375 -0.309016994375
0.587785252292 0.425325404176 -0.688190960236
0.425325404176 0.688190960236 -0.587785252292
0.259891913008 0.862668480416 -0.433888564553
0.16062203564 0.702046444776 -0.69378047756
0.0 0.850650808352 -0.525731112119
0.702046444776 0.69378047756 0.16062203564
0.525731112119 0.850650808352 0.0
0.5 0.809016994375 0.309016994375
0.26286555606 0.951056516295 -0.162459848116
0.26286555606 0.951056516295 0.162459848116
0.0 1.0 0.0
0.0 0.961938357784 -0.273266528913
0.259891913008 0.862668480416 0.433888564553
0.0 0.961938357784 0.273266528913
0.0 0.850650808352 0.525731112119
-0.259891913008 0.862668480416 0.433888564553
-0.26286555606 0.951056516295 0.162459848116
-0.5 0.809016994375 0.309016994375
-0.26286555606 0.951056516295 -0.162459848116
-0.525731112119 0.850650808352 0.0
-0.259891913008 0.862668480416 -0.433888564553
-0.702046444776 0.69378047756 0.16062203564
-0.702046444776 0.69378047756 -0.16062203564
-0.16062203564 0.702046444776 0.69378047756
-0.425325404176 0.688190960236 0.587785252292
-0.309016994375 0.5 0.809016994375
-0.688190960236 0.587785252292 0.425325404176
-0.587785252292 0.425325404176 0.688190960236
-0.862668480416 0.433888564553 0.259891913008
-0.433888564553 0.259891913008 0.862668480416
-0.69378047756 0.16062203564 0.702046444776
-0.525731112119 0.0 0.850650808352
0.16062203564 0.702046444776 0.69378047756
0.0 0.525731112119 0.850650808352
-0.162459848116 0.26286555606 0.951056516295
0.162459848116 0.26286555606 0.951056516295
0.0 0.0 1.0
-0.273266528913 0.0 0.961938357784
-0.433888564553 -0.259891913008 0.862668480416
-0.162459848116 -0.26286555606 0.951056516295
0.0 -0.525731112119 0.850650808352
0.162459848116 -0.26286555606 0.951056516295
0.425325404176 0.688190960236 0.587785252292

CELLS 156 624
3 0 1 2
3 1 3 2
3 1 4 3
3 5 6 7
3 6 8 7
3 6 9 8
3 7 8 0
3 4 10 11
3 10 12 11
3 10 13 12
3 11 12 14
3 0 2 7
3 2 15 7
3 2 16 15
3 7 15 5
3 15 17 5
3 14 18 19
3 18 20 19
3 18 21 20
3 19 20 22
3 23 19 24
3 23 14 19
3 21 25 26
3 25 27 26
3 25 13 27
3 26 27 9
3 21 26 28
3 26 29 28
3 26 9 29
3 30 20 28
3 28 20 21
3 14 12 18
3 12 25 18
3 12 13 25
3 18 25 21
3 13 31 27
3 31 8 27
3 31 0 8
3 27 8 9
3 4 1 10
3 1 31 10
3 1 0 31
3 10 31 13
3 4 11 32
3 11 23 32
3 11 14 23
3 3 33 2
3 2 33 16
3 16 33 34
3 33 35 34
3 33 3 35
3 34 35 36
3 3 37 35
3 37 38 35
3 37 32 38
3 35 38 36
3 32 37 4
3 4 37 3
3 36 38 39
3 38 40 39
3 38 32 40
3 39 40 41
3 16 34 42
3 34 43 42
3 34 36 43
3 42 43 44
3 36 45 43
3 45 46 43
3 45 47 46
3 43 46 44
3 36 39 45
3 39 48 45
3 39 41 48
3 45 48 47
3 44 46 49
3 46 50 49
3 46 47 50
3 49 50 51
3 51 50 52
3 50 53 52
3 50 47 53
3 52 53 54
3 47 55 53
3 55 56 53
3 55 24 56
3 53 56 54
3 47 48 55
3 48 57 55
3 48 41 57
3 55 57 24
3 54 56 58
3 56 59 58
3 56 24 59
3 58 59 22
3 51 52 60
3 52 61 60
3 52 54 61
3 60 61 62
3 54 63 61
3 63 64 61
3 63 30 64
3 61 64 62
3 54 58 63
3 58 65 63
3 58 22 65
3 63 65 30
3 62 64 66
3 64 67 66
3 64 30 67
3 66 67 68
3 51 60 69
3 60 70 69
3 60 62 70
3 69 70 17
3 62 71 70
3 71 72 70
3 71 73 72
3 70 72 17
3 62 66 71
3 66 74 71
3 66 68 74
3 71 74 73
3 17 72 5
3 72 73 5
3 68 75 74
3 75 76 74
3 75 29 76
3 74 76 73
3 29 77 76
3 77 78 76
3 77 6 78
3 76 78 73
3 6 77 9
3 9 77 29
3 73 78 5
3 78 6 5
3 16 42 15
3 42 44 15
3 44 79 15
3 79 17 15
3 44 49 79
3 49 69 79
3 49 51 69
3 79 69 17
3 24 57 23
3 23 57 41
3 22 59 19
3 19 59 24
3 29 75 28
3 28 75 68
3 68 67 28
3 67 30 28
3 30 65 20
3 65 22 20
3 41 40 23
3 23 40 32

CELL_TYPES 156
5
5
5
5
5
5
5
5
5
5
5
5
5
5
5
5
5
5
5
5
5
5
5
5
5
5
5
5
5
5
5
5
5
5
5
5
5
5
5
5
5
5
5
5
5
5
5
5
5
5
5
5
5
5
5
5
5
5
5
5
5
5
5
5
5
5
5
5
5
5
5
5
5
5
5
5
5
5
5
5
5
5
5
5
5
5
5
5
5
5
5
5
5
5
5
5
5
5
5
5
5
5
5
5
5
5
5
5
5
5
5
5
5
5
5
5
5
5
5
5
5
5
5
5
5
5
5
5
5
5
5
5
5
5
5
5
5
5
5
5
5
5
5
5
5
5
5
5
5
5
5
5
5
5
5
5

CELL_DATA 156
SCALARS cell_data_0 double
LOOKUP_TABLE default
8.26631755982e-06
6.69552634234e-06
1.88802243833e-05
7.22866595731e-05
4.88479726621e-05
3.96787091658e-05
1.24479688713e-05
0.000240341391944
0.000208566718081
0.000106191430658
0.000179259388141
1.6168257166e-05
3.01653996629e-05
1.37828114827e-05
4.54476096405e-05
4.9234103074e-05
0.000108458983683
9.58835790123e-07
6.49583403165e-06
1.36765931957e-05
9.83965708462e-06
0.000113663004541
1.15618954417e-05
1.38525129859e-05
5.01717536355e-06
2.00470080896e-05
1.93795723428e-05
4.43621830343e-05
4.07515058444e-05
3.08577991704e-05
1.63137525546e-05
0.000111295013698
1.38155694054e-06
5.98359215038e-07
5.0241423593e-06
4.64404636582e-06
2.26408980765e-06
6.32337961647e-08
1.04233505075e-05
0.000149465637547
0.000101775387244
6.80750252621e-06
9.21345861356e-05
8.54521480506e-05
5.33861615268e-05
0.000177941767327
5.42939369418e-07
3.63262218012e-06
4.35917244854e-06
6.11327335347e-06
4.50731705761e-06
1.19772808799e-05
4.67767177832e-06
9.76062520237e-06
6.50607645621e-06
1.80798764617e-05
2.19072377354e-05
1.43841965593e-05
1.12956841585e-05
4.46133137146e-06
4.99663295376e-06
3.53798054688e-06
5.37855703323e-06
4.74128382505e-06
9.09701421202e-06
2.6833100102e-05
2.03409037998e-05
1.40959573897e-05
7.8549606811e-06
3.1462378072e-05
1.63423670579e-05
1.02476398561e-05
4.770772509e-06
6.02463778474e-06
2.11715905725e-05
1.1393563965e-06
1.03839230362e-06
6.07348365172e-06
6.22938088335e-06
4.70827529657e-06
3.26636706717e-06
4.8179877098e-06
1.74506513756e-06
1.26361940967e-06
2.0585011814e-06
4.05953405765e-06
1.65488859133e-06
1.84730205423e-05
1.82043986467e-05
1.66375847628e-05
9.42914278545e-07
2.93558274291e-05
2.07790554352e-05
4.12933977968e-05
9.15813323563e-06
6.04533879647e-06
3.77368559457e-06
1.36766297751e-05
3.07470320718e-06
1.62642268931e-05
4.13000833188e-06
4.1910205229e-06
7.94670249264e-08
1.4488285395e-05
2.54776886264e-05
1.88827478872e-06
8.38666551684e-06
1.3778461431e-05
4.9937741865e-06
5.29135545204e-06
5.40376477964e-06
2.23082834968e-05
1.15331020325e-05
1.25517230568e-06
8.78859046658e-06
7.0151567071e-05
6.69569863226e-05
4.89797655086e-06
2.0467145418e-05
9.94913324052e-07
6.3299960662e-06
6.49459644267e-05
9.19377221865e-05
0.00014883571219
7.82110284148e-06
1.39423172654e-06
2.37332919068e-05
6.56805819791e-05
2.96552955411e-05
1.35379898546e-06
1.77189827896e-05
7.78998380366e-05
3.2521828867e-05
3.70234384679e-05
0.000133521512884
8.32776888509e-05
2.61585475129e-06
1.90328955037e-05
1.34470666198e-05
3.45551701543e-05
1.84593554998e-05
9.28378396887e-06
2.20157850885e-07
9.2395432897e-06
3.03242475572e-05
3.18230258089e-05
6.02154725781e-05
4.58794601006e-05
4.17007603701e-05
1.38852823663e-05
1.37003322818e-05
2.0629990546e-05
3.00650642253e-06
2.44978805352e-05
5.66161381639e-06
6.02833088315e-06

