# vtk DataFile Version 3.0
File Name: Molecule/sphere_excent/sphere_excent_0-s6.vtk
ASCII
DATASET UNSTRUCTURED_GRID
FIELD FieldData 1
TIME 1 1 double
0.0
POINTS 66 double
0.85065081 -0.52573111 0.0
0.80901699 -0.30901699 -0.5
1.0 0.0 0.0
0.80901699 0.30901699 -0.5
0.52573111 0.0 -0.85065081
0.85065081 0.52573111 0.0
0.5 0.80901699 -0.30901699
0.30901699 0.5 -0.80901699
0.0 0.85065081 -0.52573111
0.5 0.80901699 0.30901699
0.0 1.0 0.0
0.0 0.85065081 0.52573111
-0.5 0.80901699 -0.30901699
-0.5 0.80901699 0.30901699
-0.85065081 0.52573111 0.0
-0.80901699 0.30901699 0.5
0.30901699 -0.5 0.80901699
0.5 -0.80901699 0.30901699
0.80901699 -0.30901699 0.5
0.0 -0.85065081 0.52573111
0.30901699 -0.5 -0.80901699
0.0 0.0 -1.0
-0.30901699 -0.5 -0.80901699
0.0 -0.85065081 -0.52573111
-0.52573111 0.0 -0.85065081
0.80901699 0.30901699 0.5
0.30901699 0.5 0.80901699
-0.80901699 -0.30901699 -0.5
-0.80901699 0.30901699 -0.5
-1.0 0.0 0.0
-0.85065081 -0.52573111 0.0
-0.30901699 0.5 -0.80901699
-0.5 -0.80901699 -0.30901699
-0.5 -0.80901699 0.30901699
0.0 -1.0 0.0
-0.80901699 -0.30901699 0.5
0.5 -0.80901699 -0.30901699
-0.52573111 0.0 0.85065081
-0.43388856 -0.25989191 0.86266848
-0.27326653 0.0 0.96193836
-0.30901699 -0.5 0.80901699
-0.16245985 -0.26286556 0.95105652
-0.30901699 0.5 0.80901699
0.16245985 0.26286556 0.95105652
0.43388856 0.25989191 0.86266848
0.27326653 0.0 0.96193836
0.52573111 0.0 0.85065081
-0.25989191 0.86266848 0.43388856
-0.16062203 0.70204645 0.69378048
-0.4253254 0.68819096 0.58778525
-0.13795224 0.0 0.99043888
0.0 0.0 1.0
-0.22011703 -0.13279248 0.9663926
-0.08224247 -0.13307111 0.98768834
0.69378048 -0.16062203 0.70204645
0.85065081 0.0 0.52573111
0.69378048 0.16062203 0.70204645
0.08224247 0.13307111 0.98768834
0.22011703 0.13279248 0.9663926
0.13795224 0.0 0.99043888
-0.58778525 0.4253254 0.68819096
-0.43388856 0.25989191 0.86266848
-0.69378048 0.16062203 0.70204645
-0.16062203 -0.70204645 0.69378048
-0.25989191 -0.86266848 0.43388856
-0.4253254 -0.68819096 0.58778525

CELLS 128 512
3 0 1 2
3 1 3 2
3 1 4 3
3 2 3 5
3 5 3 6
3 3 7 6
3 3 4 7
3 6 7 8
3 5 6 9
3 6 10 9
3 6 8 10
3 9 10 11
3 10 12 13
3 10 8 12
3 13 12 14
3 13 14 15
3 16 17 18
3 16 19 17
3 18 17 0
3 4 20 21
3 20 22 21
3 20 23 22
3 21 22 24
3 0 2 18
3 2 5 25
3 5 9 25
3 9 26 25
3 9 11 26
3 24 27 28
3 27 29 28
3 27 30 29
3 28 29 14
3 8 31 12
3 31 28 12
3 31 24 28
3 12 28 14
3 30 32 33
3 32 34 33
3 32 23 34
3 30 33 35
3 15 29 35
3 15 14 29
3 35 29 30
3 24 22 27
3 22 32 27
3 22 23 32
3 27 32 30
3 23 36 34
3 36 17 34
3 36 0 17
3 34 17 19
3 4 1 20
3 1 36 20
3 1 0 36
3 20 36 23
3 4 21 7
3 21 31 7
3 21 24 31
3 7 31 8
3 37 38 39
3 38 40 41
3 16 41 40
3 40 38 35
3 35 38 37
3 42 43 26
3 26 43 44
3 44 45 46
3 46 45 16
3 26 44 25
3 13 47 10
3 10 47 11
3 11 47 48
3 47 49 48
3 47 13 49
3 48 49 42
3 15 49 13
3 11 48 26
3 48 42 26
3 39 50 42
3 42 50 51
3 41 52 38
3 38 52 39
3 39 52 50
3 52 53 50
3 52 41 53
3 50 53 51
3 51 53 16
3 53 41 16
3 18 54 16
3 16 54 46
3 25 55 2
3 2 55 18
3 18 55 54
3 55 56 54
3 55 25 56
3 54 56 46
3 51 57 42
3 57 43 42
3 43 58 44
3 58 45 44
3 43 57 58
3 57 59 58
3 57 51 59
3 58 59 45
3 45 59 16
3 16 59 51
3 46 56 44
3 44 56 25
3 42 60 61
3 60 62 61
3 60 15 62
3 61 62 37
3 40 63 16
3 63 19 16
3 19 64 34
3 34 64 33
3 33 65 35
3 65 40 35
3 33 64 65
3 64 63 65
3 64 19 63
3 65 63 40
3 37 62 35
3 62 15 35
3 42 61 39
3 39 61 37
3 15 60 49
3 49 60 42

CELL_TYPES 128
5
5
5
5
5
5
5
5
5
5
5
5
5
5
5
5
5
5
5
5
5
5
5
5
5
5
5
5
5
5
5
5
5
5
5
5
5
5
5
5
5
5
5
5
5
5
5
5
5
5
5
5
5
5
5
5
5
5
5
5
5
5
5
5
5
5
5
5
5
5
5
5
5
5
5
5
5
5
5
5
5
5
5
5
5
5
5
5
5
5
5
5
5
5
5
5
5
5
5
5
5
5
5
5
5
5
5
5
5
5
5
5
5
5
5
5
5
5
5
5
5
5
5
5
5
5
5
5

CELL_DATA 128
SCALARS cell_data_0 double
LOOKUP_TABLE default
5.92573474667e-07
5.02466060354e-07
1.46687068853e-07
4.15567607982e-07
1.12793306663e-07
2.33378419731e-07
5.84801434287e-08
7.23676065356e-08
1.94800046241e-06
5.6065216135e-07
7.59765257882e-07
2.67185283459e-06
2.49988349477e-06
1.51871928699e-07
4.91203429925e-07
3.94916907205e-06
6.33262624161e-06
8.0934928134e-06
5.03370251558e-07
5.07372747973e-08
8.02326410327e-09
4.62312878581e-08
3.99430745869e-08
2.98132708496e-06
3.81814873674e-06
3.55088999258e-07
1.20626320918e-05
1.3017915347e-05
1.58797062571e-08
4.19463153388e-07
1.1689095532e-08
1.88188925467e-08
2.79081348975e-07
2.80683593304e-08
1.98576701362e-07
3.38918029562e-07
2.30933949258e-06
6.94048389289e-07
9.00951436341e-07
5.02079133853e-07
3.7645203982e-06
1.00552779213e-06
1.22971760527e-06
1.24585657661e-07
1.44494969035e-08
1.50921544416e-07
2.02861206984e-07
3.72379392429e-07
2.96518419772e-07
8.23967551918e-07
1.41165202257e-07
1.08492487933e-07
2.26585673815e-07
3.12513950909e-07
1.51149430056e-07
4.73757188012e-08
3.27542216106e-08
4.02394790601e-08
5.9406337681e-08
4.34882407702e-06
1.08582029203e-05
2.8719671309e-06
7.01335313292e-06
9.6267010423e-07
2.500038869e-06
9.85553009071e-06
7.14801770944e-06
2.24268048082e-07
6.10342737146e-06
5.40059231784e-07
6.1203446516e-07
1.32256918314e-06
2.91224457844e-07
5.91335100357e-07
7.38460877796e-06
1.1162029281e-06
1.68350037166e-06
5.41544316586e-06
3.50028427635e-07
4.40942330589e-06
9.65958752009e-07
3.99399136846e-07
2.59717697572e-06
2.79891256239e-06
3.11200174322e-06
9.74798328841e-06
1.09951206505e-06
2.15593818989e-06
4.30464497953e-06
2.03170732099e-08
2.18333426639e-06
2.05293295795e-07
1.20883013812e-06
3.65665447615e-07
6.6177405666e-07
3.3207135559e-06
1.50256057263e-06
2.72848773276e-06
6.96119371003e-07
1.4661344707e-06
3.32490610781e-06
2.97473053259e-06
9.59135043468e-06
2.51376473962e-06
5.09571696642e-07
4.20662469175e-06
2.21424071483e-06
2.0022762349e-10
5.16636181253e-06
3.21038714863e-07
1.29976574939e-06
1.76797021292e-06
1.92146075176e-06
8.66837071831e-06
7.72734909792e-07
1.46136933709e-08
1.07038168205e-06
5.17626300078e-06
6.65065296173e-07
5.5027220547e-07
7.73683604693e-07
4.07877658696e-06
4.53787901478e-07
3.47700329415e-07
2.55270261131e-06
1.21370706823e-06
9.07421708136e-07
5.43733199621e-06

