# vtk DataFile Version 3.0
File Name: Molecule/sphere_excent/sphere_excent_0-s15.vtk
ASCII
DATASET UNSTRUCTURED_GRID
FIELD FieldData 1
TIME 1 1 double
0.0
POINTS 276 double
2.0 3.23606798 -1.23606798
2.10292445 3.40260323 0.0
3.40260323 2.10292445 0.0
2.0 3.23606798 1.23606798
1.05146222 3.80422607 -0.64983939
1.05146222 3.80422607 0.64983939
0.0 4.0 0.0
-1.05146222 3.80422607 -0.64983939
-2.10292445 3.40260323 0.0
-1.05146222 3.80422607 0.64983939
-2.0 3.23606798 -1.23606798
-2.0 3.23606798 1.23606798
0.0 3.40260323 -2.10292445
-3.40260323 2.10292445 0.0
3.40260323 -2.10292445 0.0
3.45067392 -1.73555426 -1.03956765
3.84775343 -1.09306612 0.0
3.80422607 -0.64983939 -1.05146222
4.0 0.0 0.0
-0.64983939 1.05146222 3.80422607
0.0 0.0 4.0
0.64983939 1.05146222 3.80422607
-3.23606798 1.23606798 -2.0
-3.40260323 0.0 -2.10292445
-4.0 0.0 0.0
-3.23606798 -1.23606798 -2.0
1.23606798 -2.0 3.23606798
1.70130162 -2.75276384 2.35114101
2.35114101 -1.70130162 2.75276384
2.75276384 -2.35114101 1.70130162
2.0 -3.23606798 1.23606798
-1.70130162 -2.75276384 2.35114101
-2.35114101 -1.70130162 2.75276384
-2.75276384 -2.35114101 1.70130162
-3.23606798 -1.23606798 2.0
-2.10292445 0.0 -3.40260323
-1.73555426 -1.03956765 -3.45067392
-2.77512191 -0.64248814 -2.80818578
-2.75276384 2.35114101 1.70130162
-2.35114101 1.70130162 2.75276384
-1.70130162 2.75276384 2.35114101
-3.23606798 1.23606798 2.0
-1.23606798 2.0 3.23606798
2.75276384 2.35114101 1.70130162
3.23606798 1.23606798 2.0
1.70130162 2.75276384 2.35114101
2.35114101 1.70130162 2.75276384
1.23606798 2.0 3.23606798
2.77512191 0.64248814 2.80818578
1.73555426 1.03956765 3.45067392
2.10292445 0.0 3.40260323
3.80422607 0.64983939 1.05146222
3.80422607 -0.64983939 1.05146222
3.40260323 0.0 2.10292445
3.23606798 -1.23606798 2.0
-2.10292445 0.0 3.40260323
-2.77512191 0.64248814 2.80818578
-2.77512191 -0.64248814 2.80818578
-3.40260323 0.0 2.10292445
3.84775343 1.09306612 0.0
3.5640261 -0.95470772 -1.54474954
3.23606798 -1.23606798 -2.0
3.36071154 -0.62573786 -2.07703396
3.65192997 -0.32929432 -1.59842821
3.40260323 0.0 -2.10292445
3.65192997 0.32929432 -1.59842821
3.85544506 0.0 -1.0656188
3.80422607 0.64983939 -1.05146222
3.23606798 1.23606798 -2.0
-1.09306612 0.0 3.84775343
1.09306612 0.0 3.84775343
-1.23606798 -2.0 3.23606798
-0.95470772 -1.54474954 3.5640261
-1.73555426 -1.03956765 3.45067392
-1.41421356 -0.54018151 3.70245917
-0.64983939 -1.05146222 3.80422607
-0.32896986 -0.53228441 3.95075336
0.0 -2.10292445 3.40260323
0.64983939 -1.05146222 3.80422607
0.0 -1.0656188 3.85544506
0.95470772 -1.54474954 3.5640261
0.32896986 -0.53228441 3.95075336
1.41421356 -0.54018151 3.70245917
1.73555426 -1.03956765 3.45067392
2.77512191 -0.64248814 -2.80818578
-3.40260323 -2.10292445 0.0
-3.84775343 -1.09306612 0.0
-2.0 -3.23606798 1.23606798
-1.05146222 -3.80422607 0.64983939
-1.03956765 -3.45067392 1.73555426
0.0 -3.84775343 1.09306612
0.0 -3.40260323 2.10292445
-3.80422607 -0.64983939 1.05146222
-3.45067392 -1.73555426 1.03956765
0.0 -4.0 0.0
1.05146222 -3.80422607 0.64983939
1.03956765 -3.45067392 1.73555426
-0.62573786 2.07703396 3.36071154
-0.64248814 2.80818578 2.77512191
0.0 2.82842712 2.82842712
0.0 2.10292445 3.40260323
0.0 3.40260323 2.10292445
0.64248814 2.80818578 2.77512191
0.62573786 2.07703396 3.36071154
-0.95470772 1.54474954 3.5640261
-0.32929432 1.59842821 3.65192997
-1.41421356 0.54018151 3.70245917
-1.73555426 1.03956765 3.45067392
0.62573786 -2.07703396 3.36071154
0.64248814 -2.80818578 2.77512191
0.0 -2.82842712 2.82842712
-0.64248814 -2.80818578 2.77512191
-0.62573786 -2.07703396 3.36071154
-1.8737194 -3.03174168 1.815962
-1.48699214 -2.40600382 2.82842713
-0.87403205 -3.16227766 2.28824561
-3.84775343 1.09306612 0.0
-3.45067392 1.73555426 1.03956765
-3.80422607 0.64983939 1.05146222
2.10292445 0.0 -3.40260323
2.28824561 0.87403205 -3.16227766
2.77512191 0.64248814 -2.80818578
2.82842713 1.48699214 -2.40600382
2.35114101 1.70130162 -2.75276384
1.54474954 3.5640261 -0.95470772
0.54018151 3.70245917 -1.41421356
1.03956765 3.45067392 -1.73555426
2.28824561 -0.87403205 3.16227766
2.77512191 -0.64248814 2.80818578
2.82842713 -1.48699214 2.40600382
0.30471214 -1.58610071 -3.65943097
-0.32896986 -0.53228441 -3.95075336
0.64983939 -1.05146222 -3.80422607
-0.64983939 -1.05146222 -3.80422607
0.0 0.0 -4.0
-0.55180897 0.0 -3.96175553
-0.88046811 -0.5311699 -3.86557039
-1.09306612 0.0 -3.84775343
-1.20503552 -1.056331 -3.6649767
-1.43291518 -0.52662148 -3.6972184
-1.23606798 -2.0 -3.23606798
-0.32896986 0.53228441 -3.95075336
-0.88046811 0.5311699 -3.86557039
-0.64983939 1.05146222 -3.80422607
-1.43291518 0.52662148 -3.6972184
-1.20503552 1.056331 -3.6649767
-1.73555426 1.03956765 -3.45067392
1.73555426 1.03956765 -3.45067392
0.64983939 1.05146222 -3.80422607
-2.80818578 -2.77512191 -0.64248814
-2.80818578 -2.77512191 0.64248814
-2.10292445 -3.40260323 0.0
-2.0 -3.23606798 -1.23606798
2.0 -3.23606798 -1.23606798
2.80818578 -2.77512191 -0.64248814
2.10292445 -3.40260323 0.0
2.80818578 -2.77512191 0.64248814
2.40600382 2.82842713 -1.48699214
2.05350177 2.25701685 -2.58631117
2.58631117 2.05350177 -2.25701685
2.25701685 2.58631117 -2.05350177
1.70130162 2.75276384 -2.35114101
2.75276384 2.35114101 -1.70130162
1.815962 1.8737194 -3.03174168
1.48699214 2.40600382 -2.82842713
1.23606798 2.0 -3.23606798
1.8737194 3.03174168 -1.815962
0.62573786 2.07703396 -3.36071154
0.9483453 2.4273006 -3.0346092
0.32456741 2.48095833 -3.12081748
0.0 2.10292445 -3.40260323
0.64248814 2.80818578 -2.77512191
-0.64248814 2.80818578 -2.77512191
0.32434517 3.13537217 -2.46256808
1.18401837 2.80923939 -2.58964758
0.87403205 3.16227766 -2.28824561
-2.35114101 1.70130162 -2.75276384
-2.75276384 2.35114101 -1.70130162
-1.70130162 2.75276384 -2.35114101
-1.70130162 -2.75276384 -2.35114101
-2.35114101 -1.70130162 -2.75276384
-2.75276384 -2.35114101 -1.70130162
-0.64248814 -2.80818578 -2.77512191
-1.03956765 -3.45067392 -1.73555426
0.0 -3.40260323 -2.10292445
-3.0346092 -0.9483453 -2.4273006
-2.07821484 -1.36908454 -3.13155403
-1.23606798 2.0 -3.23606798
1.43291518 0.52662148 -3.6972184
1.09306612 0.0 -3.84775343
0.88046811 0.5311699 -3.86557039
1.20503552 1.056331 -3.6649767
1.50015427 1.53445493 -3.3756459
0.95470772 1.54474954 -3.5640261
-2.81162812 0.0 -2.84512694
-3.12081748 -0.32456741 -2.48095833
-3.12081748 0.32456741 -2.48095833
-2.77512191 0.64248814 -2.80818578
2.46256808 -0.32434517 -3.13537217
1.93776657 -0.52480151 -3.45971734
2.28500664 -0.85209146 -3.17059692
1.73555426 -1.03956765 -3.45067392
2.58964758 -1.18401837 -2.80923939
2.06448648 -1.38461206 -3.13380679
2.35114101 -1.70130162 -2.75276384
1.50015427 -1.53445493 -3.3756459
1.815962 -1.8737194 -3.03174168
1.23606798 -2.0 -3.23606798
0.9483453 -2.4273006 -3.0346092
0.0 -2.10292445 -3.40260323
-0.30753628 -2.49114186 -3.11442349
0.64248814 -2.80818578 -2.77512191
1.48699214 -2.40600382 -2.82842713
1.18401837 -2.80923939 -2.58964758
1.70130162 -2.75276384 -2.35114101
2.05350177 -2.25701685 -2.58631117
-0.62573786 2.07703396 -3.36071154
0.55180897 0.0 -3.96175553
0.89919817 -0.5386045 -3.8602264
1.43291518 -0.52662148 -3.6972184
1.6134214 0.0 -3.66017368
-0.95470772 1.54474954 -3.5640261
-0.32929432 1.59842821 -3.65192997
-0.47591828 -1.83247993 -3.52356625
0.77782696 -1.81035942 -3.48103203
1.54474954 3.5640261 0.95470772
1.03956765 3.45067392 1.73555426
0.54018151 3.70245917 1.41421356
-1.03956765 3.45067392 1.73555426
-1.03956765 3.45067392 -1.73555426
3.45067392 -1.73555426 1.03956765
3.03174168 -1.815962 1.8737194
3.16227766 -2.28824561 0.87403205
-1.8737194 3.03174168 1.815962
-0.87403205 3.16227766 2.28824561
0.52480151 -3.45971734 -1.93776657
0.0 -3.84775343 -1.09306612
0.5386045 -3.8602264 -0.89919817
1.03956765 -3.45067392 -1.73555426
1.53445493 -3.3756459 -1.50015427
1.05146222 -3.80422607 -0.64983939
1.8737194 -3.03174168 -1.815962
1.38461206 -3.13380679 -2.06448648
0.85209146 -3.17059692 -2.28500664
0.32434517 -3.13537217 -2.46256808
-0.32434517 3.13537217 -2.46256808
-1.36908454 3.13155403 -2.07821484
-0.53228441 -3.95075336 0.32896986
-1.05146222 -3.80422607 -0.64983939
-1.58610071 -3.65943097 -0.30471214
-0.53228441 3.95075336 0.32896986
0.0 3.84775343 1.09306612
-0.54018151 3.70245917 1.41421356
3.86557039 0.88046811 -0.5311699
3.6649767 1.20503552 -1.056331
3.6972184 1.43291518 -0.52662148
3.45067392 1.73555426 -1.03956765
3.5640261 0.95470772 -1.54474954
3.3756459 1.50015427 -1.53445493
3.66017368 1.6134214 0.0
3.45971734 1.93776657 -0.52480151
3.3756459 -1.50015427 -1.53445493
2.75276384 -2.35114101 -1.70130162
2.82401774 -2.57581899 -1.17901667
3.16227766 2.28824561 -0.87403205
3.13380679 2.06448648 -1.38461206
3.03174168 1.815962 -1.8737194
2.26165272 -2.56636486 -2.07333026
2.82842713 -1.48699214 -2.40600382
-1.50015427 1.53445493 -3.3756459
-2.07821484 1.36908454 -3.13155403
-2.28500664 0.85209146 -3.17059692
-2.46256808 0.32434517 -3.13537217
-1.93776657 0.52480151 -3.45971734
-1.815962 1.8737194 -3.03174168
-2.58964758 1.18401837 -2.80923939

CELLS 548 2192
3 0 1 2
3 2 1 3
3 4 5 1
3 4 6 5
3 7 8 9
3 7 10 8
3 9 8 11
3 12 7 6
3 11 8 13
3 8 10 13
3 14 15 16
3 15 17 16
3 16 17 18
3 19 20 21
3 22 23 24
3 24 23 25
3 26 27 28
3 27 29 28
3 27 30 29
3 31 32 33
3 33 32 34
3 35 36 37
3 38 39 40
3 38 41 39
3 40 39 42
3 13 38 11
3 3 43 2
3 2 43 44
3 3 45 43
3 45 46 43
3 45 47 46
3 43 46 44
3 44 46 48
3 46 49 48
3 46 47 49
3 48 49 50
3 50 49 21
3 21 49 47
3 18 51 52
3 51 53 52
3 51 44 53
3 52 53 54
3 55 56 57
3 56 58 57
3 56 41 58
3 57 58 34
3 18 52 16
3 16 52 54
3 44 51 59
3 59 51 18
3 55 57 32
3 32 57 34
3 41 56 39
3 39 56 55
3 54 53 48
3 48 53 44
3 15 60 17
3 61 62 60
3 62 63 60
3 62 64 63
3 60 63 17
3 64 65 63
3 65 66 63
3 65 67 66
3 63 66 17
3 68 65 64
3 17 66 18
3 66 67 18
3 19 69 20
3 20 70 21
3 21 70 50
3 71 72 73
3 72 74 73
3 72 75 74
3 73 74 55
3 55 74 69
3 74 76 69
3 74 75 76
3 69 76 20
3 75 72 77
3 78 79 77
3 77 79 75
3 77 80 78
3 75 79 76
3 79 81 76
3 79 78 81
3 76 81 20
3 20 81 70
3 81 82 70
3 81 78 82
3 70 82 50
3 78 80 82
3 80 83 82
3 80 26 83
3 82 83 50
3 64 62 84
3 84 62 61
3 28 83 26
3 71 73 32
3 32 73 55
3 85 86 25
3 25 86 24
3 87 88 89
3 88 90 89
3 89 90 91
3 34 92 93
3 92 86 93
3 92 24 86
3 93 86 85
3 94 95 90
3 95 96 90
3 95 30 96
3 90 96 91
3 42 97 98
3 97 99 98
3 97 100 99
3 98 99 101
3 101 99 102
3 99 103 102
3 99 100 103
3 102 103 47
3 42 104 97
3 104 105 97
3 104 19 105
3 97 105 100
3 100 105 21
3 21 105 19
3 47 103 21
3 21 103 100
3 55 106 107
3 106 104 107
3 106 19 104
3 107 104 42
3 26 108 109
3 108 110 109
3 108 77 110
3 109 110 91
3 91 110 111
3 110 112 111
3 110 77 112
3 111 112 71
3 91 96 27
3 27 96 30
3 26 109 27
3 27 109 91
3 34 93 33
3 33 93 85
3 87 113 33
3 113 31 33
3 31 114 32
3 114 71 32
3 71 114 111
3 114 115 111
3 114 31 115
3 111 115 91
3 91 115 89
3 115 113 89
3 115 31 113
3 89 113 87
3 42 98 40
3 55 107 39
3 39 107 42
3 101 102 45
3 45 102 47
3 24 92 58
3 58 92 34
3 19 106 69
3 69 106 55
3 71 112 72
3 72 112 77
3 77 108 80
3 80 108 26
3 24 116 22
3 22 116 13
3 41 117 118
3 117 116 118
3 117 13 116
3 118 116 24
3 119 120 121
3 120 122 121
3 120 123 122
3 121 122 68
3 0 124 1
3 124 4 1
3 4 125 6
3 6 125 12
3 12 125 126
3 125 124 126
3 125 4 124
3 126 124 0
3 119 121 64
3 64 121 68
3 50 127 128
3 127 129 128
3 127 28 129
3 128 129 54
3 29 129 28
3 130 131 132
3 130 133 131
3 132 131 134
3 134 131 135
3 131 136 135
3 131 133 136
3 135 136 137
3 133 138 136
3 138 139 136
3 138 36 139
3 136 139 137
3 36 138 140
3 140 138 133
3 137 139 35
3 139 36 35
3 134 135 141
3 135 142 141
3 135 137 142
3 141 142 143
3 137 144 142
3 144 145 142
3 144 146 145
3 142 145 143
3 35 144 137
3 13 117 38
3 38 117 41
3 50 128 48
3 48 128 54
3 41 118 58
3 58 118 24
3 123 120 147
3 147 120 119
3 134 141 148
3 148 141 143
3 28 127 83
3 83 127 50
3 85 149 150
3 149 151 150
3 149 152 151
3 150 151 87
3 25 149 85
3 153 154 155
3 154 156 155
3 154 14 156
3 155 156 30
3 2 157 0
3 123 158 159
3 158 160 159
3 158 161 160
3 159 160 162
3 123 163 158
3 163 164 158
3 163 165 164
3 158 164 161
3 162 160 157
3 160 166 157
3 160 161 166
3 157 166 0
3 14 154 15
3 30 156 29
3 85 150 33
3 33 150 87
3 165 167 168
3 167 169 168
3 167 170 169
3 168 169 171
3 171 169 172
3 172 169 170
3 172 173 171
3 147 163 123
3 165 168 164
3 168 174 164
3 168 171 174
3 164 174 161
3 161 174 175
3 174 173 175
3 174 171 173
3 175 173 12
3 143 167 165
3 87 151 88
3 153 155 95
3 95 155 30
3 123 159 122
3 122 159 162
3 161 175 126
3 126 175 12
3 0 166 126
3 126 166 161
3 176 177 178
3 176 22 177
3 178 177 10
3 10 177 13
3 177 22 13
3 140 179 180
3 179 181 180
3 179 152 181
3 180 181 25
3 140 182 179
3 182 183 179
3 182 184 183
3 179 183 152
3 185 25 23
3 25 185 180
3 185 186 180
3 185 37 186
3 180 186 140
3 140 186 36
3 36 186 37
3 187 178 172
3 119 188 147
3 189 190 188
3 190 191 188
3 190 148 191
3 188 191 147
3 148 190 134
3 147 191 192
3 191 193 192
3 191 148 193
3 192 193 165
3 165 193 143
3 193 148 143
3 25 181 149
3 149 181 152
3 147 192 163
3 163 192 165
3 37 194 35
3 37 195 194
3 195 196 194
3 195 23 196
3 194 196 197
3 197 196 22
3 196 23 22
3 119 198 199
3 198 200 199
3 198 84 200
3 199 200 201
3 84 202 200
3 202 203 200
3 202 204 203
3 200 203 201
3 61 202 84
3 201 203 205
3 203 206 205
3 203 204 206
3 205 206 207
3 84 198 64
3 64 198 119
3 207 208 209
3 208 210 209
3 208 211 210
3 209 210 140
3 207 212 208
3 212 213 208
3 212 214 213
3 208 213 211
3 204 215 206
3 215 212 206
3 215 214 212
3 206 212 207
3 170 216 172
3 216 187 172
3 134 217 218
3 217 219 218
3 217 189 219
3 218 219 201
3 201 219 199
3 219 220 199
3 219 189 220
3 199 220 119
3 187 216 221
3 216 222 221
3 216 170 222
3 221 222 143
3 201 205 132
3 132 205 207
3 134 218 132
3 132 218 201
3 130 223 133
3 133 223 140
3 140 223 209
3 223 224 209
3 223 130 224
3 209 224 207
3 207 224 132
3 224 130 132
3 187 221 145
3 145 221 143
3 143 222 167
3 167 222 170
3 23 195 185
3 185 195 37
3 140 210 182
3 182 210 211
3 119 220 188
3 188 220 189
3 189 217 190
3 190 217 134
3 5 225 1
3 1 225 3
3 3 225 226
3 225 227 226
3 225 5 227
3 226 227 101
3 6 227 5
3 11 228 9
3 12 229 7
3 7 229 10
3 54 230 16
3 16 230 14
3 54 231 230
3 231 232 230
3 231 29 232
3 230 232 14
3 11 233 228
3 233 234 228
3 233 40 234
3 228 234 101
3 40 233 38
3 38 233 11
3 3 226 45
3 45 226 101
3 184 235 236
3 235 237 236
3 235 238 237
3 236 237 94
3 238 239 237
3 239 240 237
3 239 153 240
3 237 240 94
3 214 241 242
3 241 239 242
3 241 153 239
3 242 239 238
3 211 243 244
3 243 235 244
3 243 238 235
3 244 235 184
3 12 245 229
3 245 246 229
3 245 172 246
3 229 246 10
3 94 247 248
3 247 249 248
3 247 88 249
3 248 249 152
3 88 247 90
3 247 94 90
3 94 240 95
3 95 240 153
3 101 234 98
3 98 234 40
3 29 231 129
3 129 231 54
3 14 232 156
3 156 232 29
3 172 245 173
3 173 245 12
3 152 249 151
3 151 249 88
3 94 248 183
3 183 248 152
3 184 236 183
3 183 236 94
3 211 244 182
3 182 244 184
3 10 246 178
3 178 246 172
3 238 243 213
3 213 243 211
3 214 242 213
3 213 242 238
3 153 241 215
3 215 241 214
3 6 250 251
3 250 252 251
3 250 9 252
3 251 252 101
3 9 250 7
3 7 250 6
3 67 253 18
3 18 253 59
3 67 254 253
3 254 255 253
3 254 256 255
3 253 255 59
3 67 257 254
3 257 258 254
3 257 68 258
3 254 258 256
3 59 255 259
3 255 260 259
3 255 256 260
3 259 260 2
3 59 259 44
3 259 2 44
3 61 261 262
3 261 263 262
3 261 15 263
3 262 263 153
3 2 260 264
3 260 265 264
3 260 256 265
3 264 265 162
3 162 265 266
3 265 258 266
3 265 256 258
3 266 258 68
3 153 267 262
3 267 268 262
3 267 204 268
3 262 268 61
3 187 269 270
3 269 271 270
3 269 146 271
3 270 271 197
3 197 271 272
3 271 273 272
3 271 146 273
3 272 273 35
3 15 261 60
3 60 261 61
3 68 257 65
3 65 257 67
3 162 266 122
3 122 266 68
3 35 273 144
3 144 273 146
3 146 269 145
3 145 269 187
3 2 264 157
3 157 264 162
3 153 263 154
3 154 263 15
3 187 274 178
3 274 176 178
3 176 275 22
3 22 275 197
3 197 275 270
3 275 274 270
3 275 176 274
3 270 274 187
3 197 272 194
3 194 272 35
3 61 268 202
3 202 268 204
3 204 267 215
3 215 267 153
3 6 251 227
3 227 251 101
3 101 252 228
3 228 252 9

CELL_TYPES 548
5
5
5
5
5
5
5
5
5
5
5
5
5
5
5
5
5
5
5
5
5
5
5
5
5
5
5
5
5
5
5
5
5
5
5
5
5
5
5
5
5
5
5
5
5
5
5
5
5
5
5
5
5
5
5
5
5
5
5
5
5
5
5
5
5
5
5
5
5
5
5
5
5
5
5
5
5
5
5
5
5
5
5
5
5
5
5
5
5
5
5
5
5
5
5
5
5
5
5
5
5
5
5
5
5
5
5
5
5
5
5
5
5
5
5
5
5
5
5
5
5
5
5
5
5
5
5
5
5
5
5
5
5
5
5
5
5
5
5
5
5
5
5
5
5
5
5
5
5
5
5
5
5
5
5
5
5
5
5
5
5
5
5
5
5
5
5
5
5
5
5
5
5
5
5
5
5
5
5
5
5
5
5
5
5
5
5
5
5
5
5
5
5
5
5
5
5
5
5
5
5
5
5
5
5
5
5
5
5
5
5
5
5
5
5
5
5
5
5
5
5
5
5
5
5
5
5
5
5
5
5
5
5
5
5
5
5
5
5
5
5
5
5
5
5
5
5
5
5
5
5
5
5
5
5
5
5
5
5
5
5
5
5
5
5
5
5
5
5
5
5
5
5
5
5
5
5
5
5
5
5
5
5
5
5
5
5
5
5
5
5
5
5
5
5
5
5
5
5
5
5
5
5
5
5
5
5
5
5
5
5
5
5
5
5
5
5
5
5
5
5
5
5
5
5
5
5
5
5
5
5
5
5
5
5
5
5
5
5
5
5
5
5
5
5
5
5
5
5
5
5
5
5
5
5
5
5
5
5
5
5
5
5
5
5
5
5
5
5
5
5
5
5
5
5
5
5
5
5
5
5
5
5
5
5
5
5
5
5
5
5
5
5
5
5
5
5
5
5
5
5
5
5
5
5
5
5
5
5
5
5
5
5
5
5
5
5
5
5
5
5
5
5
5
5
5
5
5
5
5
5
5
5
5
5
5
5
5
5
5
5
5
5
5
5
5
5
5
5
5
5
5
5
5
5
5
5
5
5
5
5
5
5
5
5
5
5
5
5
5
5
5
5
5
5
5
5
5
5
5
5
5
5
5
5
5
5
5
5
5
5
5
5
5
5
5
5
5
5
5
5
5
5
5
5
5
5
5
5
5
5
5
5
5
5
5
5
5
5
5
5
5
5
5
5
5
5
5
5
5
5
5
5
5
5
5
5
5
5
5
5
5
5
5
5
5
5
5

CELL_DATA 548
SCALARS cell_data_0 double
LOOKUP_TABLE default
5.06409641142e-07
2.73535497541e-07
2.21374570186e-06
1.40472003404e-06
2.84730311602e-06
3.73633713825e-06
2.52247820258e-06
1.99551356839e-06
2.55017353153e-06
3.60547817199e-06
7.84888565805e-07
1.0472363059e-06
8.19306087768e-07
2.50607894405e-06
7.01211988421e-08
1.29569288786e-07
5.73184912985e-07
1.13477267313e-06
1.17013254206e-06
1.40117845622e-06
1.07918320789e-06
1.87074640524e-06
1.22509577008e-06
5.13928491404e-09
9.15196460236e-07
1.8034794045e-06
1.49988634673e-06
5.67559725573e-07
9.07108330371e-07
1.06609095348e-06
1.59936344577e-06
5.31053852126e-07
6.30791504047e-07
1.22017748787e-06
1.44395555227e-06
1.40899245357e-06
1.92933649833e-06
1.82114750937e-06
5.96571532675e-08
4.85535334372e-07
1.87064938039e-07
2.79165530677e-07
6.47171707973e-07
1.00538918691e-08
6.05223587206e-07
3.49925602209e-07
3.03127063607e-07
1.18038151835e-07
6.18798857664e-07
6.4550583633e-07
3.79925667328e-07
5.21621400793e-07
5.80301953163e-07
7.84875084673e-07
9.32635125307e-07
5.58605264906e-07
9.58130598796e-07
6.52228435152e-07
1.01005774298e-06
9.62582088411e-07
8.26228775044e-07
1.01667022643e-06
1.0081499166e-06
1.0355539924e-06
8.15153629575e-07
1.29731714253e-06
9.10837191778e-07
1.23605106267e-06
1.63478748967e-06
1.74803052244e-06
1.87978244048e-06
4.75324908939e-07
3.23080714215e-07
7.20733744635e-07
4.5597224163e-07
5.70255829288e-07
4.74646376968e-07
7.60371299713e-07
5.79832339475e-07
1.09853359625e-06
1.18004838756e-06
1.21245569667e-06
1.16862195158e-06
4.17636970188e-07
3.35688497335e-07
4.67272077326e-07
4.01494173565e-07
7.11505101822e-07
6.56066033853e-07
8.6416386444e-07
6.6858738824e-07
8.53939290476e-07
9.31754810097e-07
7.36184543129e-07
9.4555836906e-07
9.8779459193e-07
5.49357036632e-07
8.34665352181e-07
6.18095314271e-07
5.39809676489e-07
3.68182948576e-07
9.40187234169e-07
8.35440329613e-07
1.31433574239e-06
1.33581830481e-06
5.39297113752e-07
9.03752987715e-07
8.34961839896e-07
6.93411711033e-07
3.18623925187e-07
6.02984539263e-07
2.36753063282e-07
7.05095137309e-07
3.53925762026e-08
5.38275120013e-07
5.87723693807e-07
5.86186946743e-07
8.37222577688e-07
1.05480402569e-06
9.01265083066e-07
1.01208880591e-06
2.60894895677e-07
5.73751533687e-07
6.49799398946e-07
3.84761770455e-07
1.25166520428e-06
1.38605598553e-06
1.2560001919e-06
1.13796178767e-06
1.02723351982e-06
1.14274672144e-06
1.09559589012e-06
8.53346633598e-07
8.23452517933e-07
1.02838459686e-06
1.00685225724e-06
8.74069865179e-07
8.86122282516e-07
1.01024375009e-06
9.80259978613e-07
1.00637283944e-06
2.10936231247e-07
8.908567831e-07
7.50771166797e-07
1.2886725659e-06
2.18157248429e-07
1.25984094165e-07
9.43294634895e-08
4.1485246392e-09
2.39060246409e-07
8.15154883815e-07
1.00754652093e-06
1.00079064484e-06
6.52720922325e-07
8.58114114686e-07
7.56840584182e-07
8.03893131827e-07
5.5374714862e-07
4.97475628934e-07
4.46454808328e-07
1.54348472539e-06
7.81245803634e-07
1.43651142541e-06
1.64646385843e-06
9.21138168214e-07
1.65579460082e-07
9.23646988861e-07
8.56807645915e-07
4.88713840918e-07
5.25877936096e-07
5.85910535154e-07
4.15557959853e-07
9.75031766328e-07
1.61557256402e-08
1.33638350258e-06
1.25936681993e-06
7.30147064584e-07
1.04148291057e-06
5.64399697288e-07
2.86649085834e-07
3.90302063324e-07
2.5089880559e-07
3.06197657255e-07
6.6326413782e-07
6.41490703616e-07
3.05831752589e-07
4.21363209787e-07
1.38250800947e-07
3.37076196082e-07
1.16613751591e-07
1.50467147718e-06
1.47883045919e-06
7.21996620717e-07
6.80974048954e-07
3.94727768814e-07
3.71500747496e-07
4.78565388591e-08
2.93370896318e-07
7.84687610667e-07
6.49993705247e-07
2.39784709927e-07
1.06892697186e-07
3.89239413561e-07
3.85656740848e-07
4.16285040771e-07
9.34303307462e-08
4.067437652e-07
3.6977781907e-07
1.27752147071e-06
1.20338837794e-06
8.78196016313e-07
9.41905195991e-07
2.17383902421e-07
7.62605729994e-08
3.72279928372e-07
3.63869194302e-07
3.85473132817e-07
6.84515128264e-08
3.37535541594e-07
3.64157525169e-07
9.32389529266e-07
1.47099812111e-07
6.43821889828e-07
1.40681306651e-06
9.9079659553e-07
1.10130382514e-06
1.18500438667e-06
1.19664324761e-06
9.71493644893e-07
9.66641963407e-07
1.39232085259e-06
6.10157300779e-07
9.50129049047e-07
7.11886994245e-07
9.64124713275e-07
7.30642515095e-07
6.90014575539e-07
2.83837507772e-07
8.18030512265e-08
8.82434467851e-07
4.05682110864e-07
4.1267924774e-07
3.28903454647e-07
1.83443177753e-07
4.71010383992e-09
2.51009698718e-07
2.85827539792e-07
2.20365098407e-07
4.23013917359e-08
1.70278197506e-07
2.43595311596e-07
2.53849157584e-07
3.70840699958e-08
2.16004857405e-07
2.09514800779e-08
3.00477240701e-07
2.56122975039e-07
2.62505375416e-07
8.25306104807e-08
1.72495578236e-07
9.59182364334e-08
3.53932277363e-07
3.07258960464e-07
9.0555856768e-07
9.09759400773e-07
7.5378916682e-07
9.99951784643e-07
1.28901049668e-07
1.37838086279e-08
2.27401881706e-07
1.91160065034e-07
1.4830558883e-07
1.88596678362e-08
2.26056217507e-07
1.00363225819e-07
1.03350811741e-06
8.43141185651e-07
4.3026264935e-07
4.32936787713e-07
1.39542748212e-07
1.9132443118e-07
4.44720825597e-07
2.86782446945e-07
7.75455533056e-08
4.35907911956e-07
5.34998812018e-07
2.93455111069e-07
6.64755793913e-07
1.24716315011e-06
4.35547656919e-07
4.93056600445e-07
5.1639074988e-07
5.66985541833e-07
2.47590142103e-07
5.36654742932e-07
3.92911323648e-07
1.88972549894e-07
4.83219594718e-07
3.43905774175e-07
1.91534093722e-07
8.19684853476e-08
2.19122286573e-09
3.17042736326e-07
1.12888240949e-06
6.52906220807e-07
2.18124538687e-07
7.61745965676e-07
2.77775533173e-07
2.50286585279e-08
2.35307544919e-07
3.03281611836e-07
8.13888132021e-07
2.70323901092e-07
9.26520282183e-10
2.20848114253e-07
1.19917539358e-07
9.26147877753e-07
1.35009620008e-06
7.18131215423e-08
5.4343733724e-07
3.01541220601e-07
1.23548415739e-07
2.56222396392e-07
1.03035929366e-08
2.61977718517e-08
1.93670442858e-08
3.68727182201e-08
3.6298901671e-07
3.66791773877e-07
8.35058851613e-08
3.34645908097e-09
1.99009897319e-08
4.22507279544e-08
1.87970636012e-08
1.06489532028e-08
2.90922434276e-07
3.60656918761e-08
3.86069973487e-08
4.42266108774e-08
7.59408291235e-09
2.98673629251e-07
1.92076020516e-07
3.80036355427e-07
4.65467259738e-07
3.34290717429e-07
2.89978876459e-08
6.46064213669e-09
4.52867307402e-07
1.87397171181e-07
1.06076656685e-08
1.65900723829e-07
1.50030809257e-08
3.08601490214e-07
2.10547751839e-08
1.8081439399e-07
2.27928608938e-07
7.15026662481e-07
1.89824856943e-07
1.57012436133e-07
7.39573350659e-09
2.15723491707e-07
2.68306323486e-08
3.8977422525e-08
8.29653838547e-09
2.09164343891e-07
7.19461442226e-08
1.3600575833e-08
1.44490444316e-08
2.62144910499e-07
3.62169282963e-07
2.32459653325e-07
5.1154073129e-07
4.71954586077e-07
2.21583443153e-07
1.06598834287e-06
1.69135443398e-06
4.41191253224e-07
3.87851123853e-07
3.70800666208e-07
4.72458774192e-07
5.8847140557e-07
3.58820123746e-07
4.31178124151e-09
3.12311092527e-07
4.26786411743e-07
3.43389224852e-07
1.05153238324e-09
5.76157666299e-09
4.20350374505e-07
8.18354734267e-09
8.16228962742e-08
2.33336972126e-07
2.57982940258e-07
1.74234220054e-07
7.37065227489e-07
1.60163362805e-07
1.10871025821e-07
1.76089879964e-07
9.35234351181e-08
3.32391427238e-07
2.05137449479e-08
1.01561941648e-06
1.80883599871e-06
2.68801157828e-06
3.89685705704e-08
3.89668399397e-07
6.17519886518e-08
8.71197279972e-08
3.27047842951e-07
2.73585381342e-07
9.13859375385e-09
5.28049611072e-07
3.25564733727e-07
4.26286048197e-07
1.33216963597e-07
3.42189482195e-07
5.50695656462e-07
6.98734551395e-07
2.66466755537e-07
3.00491079521e-08
1.76386147801e-07
2.22996654094e-07
1.75435751669e-07
6.71681873537e-08
2.30928728302e-07
1.45372692933e-07
1.60607817547e-07
1.19047820549e-08
1.72483939465e-07
1.25138029764e-07
6.07456419722e-09
1.44026128256e-08
1.23744242651e-07
1.58488125687e-07
4.58866804167e-07
3.61710312908e-07
3.72500348748e-07
1.01036967751e-06
3.06429101257e-07
2.54693596099e-08
2.65728610401e-07
4.81717755329e-08
4.36188286294e-07
1.81834095543e-08
1.1057606735e-08
2.71468770664e-07
4.28053447289e-07
1.30919444262e-07
5.76592981835e-08
1.08390111621e-07
6.19523931292e-08
1.21863205624e-07
1.36171907787e-07
1.31789588608e-07
2.76717463021e-07
4.02006808926e-07
1.6398387109e-07
3.41217264337e-07
1.69553614111e-07
3.76296046027e-08
4.9775569195e-08
2.15335222884e-07
6.08750083951e-07
3.04976072679e-07
5.99180905098e-08
2.41623707687e-08
1.47416471481e-07
5.45511989267e-08
5.20248845278e-08
1.51571379394e-07
9.5957760273e-08
8.00867838318e-08
1.27626699264e-07
2.6536976684e-07
9.1360514766e-07
5.98831465902e-07
5.00537344821e-07
2.9610443396e-07
2.39920483907e-07
2.21678165301e-08
1.69796455855e-07
1.1386779042e-07
2.41486721369e-07
2.46284319649e-09
5.6934586962e-08
1.66269225228e-07
1.58754649379e-07
1.25934665717e-08
1.33644862991e-07
3.81226535584e-08
4.98176285067e-07
9.0201928071e-10
1.00671478016e-08
2.7661204286e-08
1.29448579709e-07
2.34200721827e-07
1.28185178241e-08
1.81863906053e-08
1.38019144967e-07
2.23553600594e-07
2.25852385453e-07
7.85686548562e-09
1.63855352844e-07
5.38642955521e-08
2.91906473272e-07
2.11508583527e-08
6.46736966866e-07
1.02702996438e-08
1.10911600849e-08
7.65535053768e-09
2.58926296036e-07
3.38274488389e-08
3.71444923224e-08
1.12043526748e-08
2.65323974985e-07
1.01700279064e-07
3.34526152601e-07
2.58488430824e-07
3.60506999807e-07
6.31698115265e-07
2.01748773772e-07
3.46347007891e-08
1.40728602582e-07
3.02200854583e-07
2.85868956134e-07
2.58182073929e-09
1.34007251034e-07
3.5035762552e-07
1.27008061086e-07
2.02770905147e-08
1.09226012117e-07
1.24322195041e-07
2.30586879669e-07
3.55462992952e-07
2.90055768267e-08
1.55212359266e-08
1.74482572146e-08
6.54466565344e-09
3.52665341135e-08
1.0300550371e-07
1.64086673379e-08
3.01542089829e-07
3.08148017717e-07
7.56066680481e-08
2.17905641596e-07
3.17158768151e-07
3.37184975413e-07
2.81333697784e-08

