# vtk DataFile Version 3.0
File Name: Molecule/sphere_excent/sphere_excent_0-s12.vtk
ASCII
DATASET UNSTRUCTURED_GRID
FIELD FieldData 1
TIME 1 1 double
0.0
POINTS 202 double
2.0 3.23606798 -1.23606798
2.10292445 3.40260323 0.0
3.40260323 2.10292445 0.0
2.0 3.23606798 1.23606798
1.05146222 3.80422607 -0.64983939
1.05146222 3.80422607 0.64983939
0.0 4.0 0.0
0.0 3.40260323 2.10292445
-1.05146222 3.80422607 0.64983939
-2.0 3.23606798 1.23606798
-1.05146222 3.80422607 -0.64983939
-2.10292445 3.40260323 0.0
-2.0 3.23606798 -1.23606798
0.0 3.40260323 -2.10292445
-3.40260323 2.10292445 0.0
3.40260323 -2.10292445 0.0
3.45067392 -1.73555426 -1.03956765
3.84775343 -1.09306612 0.0
3.80422607 -0.64983939 -1.05146222
4.0 0.0 0.0
3.80422607 0.64983939 -1.05146222
3.84775343 1.09306612 0.0
3.45067392 1.73555426 -1.03956765
3.23606798 1.23606798 -2.0
3.23606798 -1.23606798 2.0
3.23606798 1.23606798 2.0
3.23606798 -1.23606798 -2.0
2.0 -3.23606798 -1.23606798
2.75276384 2.35114101 -1.70130162
-0.64983939 1.05146222 3.80422607
0.0 0.0 4.0
0.64983939 1.05146222 3.80422607
-2.10292445 0.0 -3.40260323
-2.77512191 -0.64248814 -2.80818578
-2.77512191 0.64248814 -2.80818578
-3.40260323 0.0 -2.10292445
-3.23606798 1.23606798 -2.0
-4.0 0.0 0.0
-3.23606798 -1.23606798 -2.0
2.10292445 0.0 -3.40260323
2.77512191 -0.64248814 -2.80818578
1.73555426 -1.03956765 -3.45067392
2.35114101 -1.70130162 -2.75276384
1.23606798 -2.0 -3.23606798
3.40260323 0.0 -2.10292445
1.23606798 -2.0 3.23606798
1.70130162 -2.75276384 2.35114101
2.35114101 -1.70130162 2.75276384
2.75276384 -2.35114101 1.70130162
2.0 -3.23606798 1.23606798
-1.70130162 -2.75276384 2.35114101
-2.35114101 -1.70130162 2.75276384
-2.75276384 -2.35114101 1.70130162
-3.23606798 -1.23606798 2.0
-1.23606798 2.0 -3.23606798
-1.73555426 1.03956765 -3.45067392
-1.73555426 -1.03956765 -3.45067392
-1.70130162 2.75276384 2.35114101
-2.75276384 2.35114101 1.70130162
-2.35114101 1.70130162 2.75276384
-3.23606798 1.23606798 2.0
-1.23606798 2.0 3.23606798
0.64248814 -2.80818578 -2.77512191
-1.23606798 -2.0 -3.23606798
2.75276384 2.35114101 1.70130162
1.70130162 2.75276384 2.35114101
2.35114101 1.70130162 2.75276384
1.23606798 2.0 3.23606798
2.77512191 0.64248814 2.80818578
1.73555426 1.03956765 3.45067392
2.10292445 0.0 3.40260323
0.0 -3.40260323 -2.10292445
1.03956765 -3.45067392 -1.73555426
0.0 -4.0 0.0
1.70130162 -2.75276384 -2.35114101
3.80422607 0.64983939 1.05146222
3.80422607 -0.64983939 1.05146222
3.40260323 0.0 2.10292445
-0.64248814 2.80818578 -2.77512191
-2.10292445 0.0 3.40260323
-2.77512191 0.64248814 2.80818578
-2.77512191 -0.64248814 2.80818578
-3.40260323 0.0 2.10292445
0.0 2.10292445 -3.40260323
0.0 0.0 -4.0
1.09306612 0.0 -3.84775343
-0.64983939 1.05146222 -3.80422607
3.5640261 -0.95470772 -1.54474954
3.36071154 -0.62573786 -2.07703396
3.65192997 -0.32929432 -1.59842821
3.65192997 0.32929432 -1.59842821
3.85544506 0.0 -1.0656188
-1.09306612 0.0 3.84775343
1.09306612 0.0 3.84775343
-1.23606798 -2.0 3.23606798
-0.95470772 -1.54474954 3.5640261
-1.73555426 -1.03956765 3.45067392
-1.41421356 -0.54018151 3.70245917
-0.64983939 -1.05146222 3.80422607
-0.32896986 -0.53228441 3.95075336
0.0 -2.10292445 3.40260323
0.64983939 -1.05146222 3.80422607
0.0 -1.0656188 3.85544506
0.95470772 -1.54474954 3.5640261
0.32896986 -0.53228441 3.95075336
1.41421356 -0.54018151 3.70245917
1.73555426 -1.03956765 3.45067392
-3.40260323 -2.10292445 0.0
-3.84775343 -1.09306612 0.0
-1.05146222 -3.80422607 0.64983939
-2.0 -3.23606798 -1.23606798
-2.0 -3.23606798 1.23606798
-1.03956765 -3.45067392 1.73555426
0.0 -3.84775343 1.09306612
0.0 -3.40260323 2.10292445
-3.80422607 -0.64983939 1.05146222
-3.45067392 -1.73555426 1.03956765
1.05146222 -3.80422607 0.64983939
1.03956765 -3.45067392 1.73555426
-0.62573786 2.07703396 3.36071154
-0.64248814 2.80818578 2.77512191
0.0 2.82842712 2.82842712
0.0 2.10292445 3.40260323
0.64248814 2.80818578 2.77512191
0.62573786 2.07703396 3.36071154
-0.95470772 1.54474954 3.5640261
-0.32929432 1.59842821 3.65192997
-1.41421356 0.54018151 3.70245917
-1.73555426 1.03956765 3.45067392
0.62573786 -2.07703396 3.36071154
0.64248814 -2.80818578 2.77512191
0.0 -2.82842712 2.82842712
-0.64248814 -2.80818578 2.77512191
-0.62573786 -2.07703396 3.36071154
-1.8737194 -3.03174168 1.815962
-1.48699214 -2.40600382 2.82842713
-0.87403205 -3.16227766 2.28824561
-3.84775343 1.09306612 0.0
-3.45067392 1.73555426 1.03956765
-3.80422607 0.64983939 1.05146222
2.82842713 1.48699214 -2.40600382
2.28824561 0.87403205 -3.16227766
2.77512191 0.64248814 -2.80818578
2.35114101 1.70130162 -2.75276384
1.54474954 3.5640261 -0.95470772
0.54018151 3.70245917 -1.41421356
1.03956765 3.45067392 -1.73555426
0.64983939 -1.05146222 -3.80422607
2.28824561 -0.87403205 3.16227766
2.77512191 -0.64248814 2.80818578
2.82842713 -1.48699214 2.40600382
-0.64983939 -1.05146222 -3.80422607
0.30471214 -1.58610071 -3.65943097
-0.32896986 -0.53228441 -3.95075336
-0.55180897 0.0 -3.96175553
-0.88046811 -0.5311699 -3.86557039
-1.09306612 0.0 -3.84775343
-1.20503552 -1.056331 -3.6649767
-1.43291518 -0.52662148 -3.6972184
-0.32896986 0.53228441 -3.95075336
-0.88046811 0.5311699 -3.86557039
-1.43291518 0.52662148 -3.6972184
-1.20503552 1.056331 -3.6649767
1.73555426 1.03956765 -3.45067392
0.64983939 1.05146222 -3.80422607
-2.80818578 -2.77512191 -0.64248814
-2.80818578 -2.77512191 0.64248814
-2.10292445 -3.40260323 0.0
2.80818578 -2.77512191 -0.64248814
2.10292445 -3.40260323 0.0
2.80818578 -2.77512191 0.64248814
2.40600382 2.82842713 -1.48699214
2.05350177 2.25701685 -2.58631117
2.58631117 2.05350177 -2.25701685
2.25701685 2.58631117 -2.05350177
1.70130162 2.75276384 -2.35114101
1.815962 1.8737194 -3.03174168
1.48699214 2.40600382 -2.82842713
1.23606798 2.0 -3.23606798
1.8737194 3.03174168 -1.815962
0.62573786 2.07703396 -3.36071154
0.9483453 2.4273006 -3.0346092
0.32456741 2.48095833 -3.12081748
0.64248814 2.80818578 -2.77512191
0.32434517 3.13537217 -2.46256808
1.18401837 2.80923939 -2.58964758
0.87403205 3.16227766 -2.28824561
-2.35114101 1.70130162 -2.75276384
-1.70130162 2.75276384 -2.35114101
-2.75276384 2.35114101 -1.70130162
-1.03956765 -3.45067392 -1.73555426
-1.70130162 -2.75276384 -2.35114101
-2.35114101 -1.70130162 -2.75276384
-2.75276384 -2.35114101 -1.70130162
-0.64248814 -2.80818578 -2.77512191
-3.0346092 -0.9483453 -2.4273006
-2.07821484 -1.36908454 -3.13155403
1.43291518 0.52662148 -3.6972184
0.88046811 0.5311699 -3.86557039
1.20503552 1.056331 -3.6649767
1.50015427 1.53445493 -3.3756459
0.95470772 1.54474954 -3.5640261

CELLS 400 1600
3 0 1 2
3 2 1 3
3 4 5 1
3 4 6 5
3 1 5 3
3 3 5 7
3 5 6 7
3 6 8 7
3 7 8 9
3 6 10 8
3 10 11 8
3 10 12 11
3 8 11 9
3 12 10 13
3 13 10 6
3 9 11 14
3 11 12 14
3 15 16 17
3 16 18 17
3 17 18 19
3 19 20 21
3 20 22 21
3 20 23 22
3 21 22 2
3 15 17 24
3 21 2 25
3 26 16 27
3 2 22 28
3 28 22 23
3 29 30 31
3 32 33 34
3 33 35 34
3 34 35 36
3 36 35 37
3 37 35 38
3 39 40 41
3 40 42 41
3 40 26 42
3 41 42 43
3 27 42 26
3 44 40 39
3 45 46 47
3 46 48 47
3 46 49 48
3 24 48 15
3 50 51 52
3 52 51 53
3 54 55 34
3 34 55 32
3 32 56 33
3 9 57 7
3 9 58 57
3 58 59 57
3 58 60 59
3 57 59 61
3 14 58 9
3 43 62 63
3 3 64 2
3 2 64 25
3 3 65 64
3 65 66 64
3 65 67 66
3 64 66 25
3 7 65 3
3 25 66 68
3 66 69 68
3 66 67 69
3 68 69 70
3 71 72 73
3 72 27 73
3 43 74 62
3 74 72 62
3 74 27 72
3 62 72 71
3 70 69 31
3 31 69 67
3 27 74 42
3 42 74 43
3 19 75 76
3 75 77 76
3 75 25 77
3 76 77 24
3 13 78 12
3 79 80 81
3 80 82 81
3 80 60 82
3 81 82 53
3 83 54 78
3 19 76 17
3 17 76 24
3 25 75 21
3 21 75 19
3 84 85 41
3 41 85 39
3 79 81 51
3 51 81 53
3 54 83 86
3 60 80 59
3 59 80 79
3 24 77 68
3 68 77 25
3 26 87 16
3 16 87 18
3 26 88 87
3 88 89 87
3 88 44 89
3 87 89 18
3 44 90 89
3 90 91 89
3 90 20 91
3 89 91 18
3 20 90 23
3 23 90 44
3 18 91 19
3 91 20 19
3 29 92 30
3 30 93 31
3 31 93 70
3 94 95 96
3 95 97 96
3 95 98 97
3 96 97 79
3 79 97 92
3 97 99 92
3 97 98 99
3 92 99 30
3 98 95 100
3 101 102 100
3 100 102 98
3 100 103 101
3 98 102 99
3 102 104 99
3 102 101 104
3 99 104 30
3 30 104 93
3 104 105 93
3 104 101 105
3 93 105 70
3 101 103 105
3 103 106 105
3 103 45 106
3 105 106 70
3 44 88 40
3 40 88 26
3 47 106 45
3 94 96 51
3 51 96 79
3 107 108 38
3 38 108 37
3 73 109 110
3 111 109 112
3 109 113 112
3 109 73 113
3 112 113 114
3 53 115 116
3 115 108 116
3 115 37 108
3 116 108 107
3 27 117 73
3 73 117 113
3 117 118 113
3 117 49 118
3 113 118 114
3 61 119 120
3 119 121 120
3 119 122 121
3 120 121 7
3 7 121 123
3 121 124 123
3 121 122 124
3 123 124 67
3 61 125 119
3 125 126 119
3 125 29 126
3 119 126 122
3 122 126 31
3 31 126 29
3 67 124 31
3 31 124 122
3 79 127 128
3 127 125 128
3 127 29 125
3 128 125 61
3 45 129 130
3 129 131 130
3 129 100 131
3 130 131 114
3 114 131 132
3 131 133 132
3 131 100 133
3 132 133 94
3 114 118 46
3 46 118 49
3 45 130 46
3 46 130 114
3 53 116 52
3 52 116 107
3 111 134 52
3 134 50 52
3 50 135 51
3 135 94 51
3 94 135 132
3 135 136 132
3 135 50 136
3 132 136 114
3 114 136 112
3 136 134 112
3 136 50 134
3 112 134 111
3 61 120 57
3 57 120 7
3 79 128 59
3 59 128 61
3 7 123 65
3 65 123 67
3 37 115 82
3 82 115 53
3 29 127 92
3 92 127 79
3 94 133 95
3 95 133 100
3 100 129 103
3 103 129 45
3 37 137 36
3 36 137 14
3 60 138 139
3 138 137 139
3 138 14 137
3 139 137 37
3 23 140 28
3 39 141 142
3 141 140 142
3 141 143 140
3 142 140 23
3 0 144 1
3 144 4 1
3 4 145 6
3 6 145 13
3 13 145 146
3 145 144 146
3 145 4 144
3 146 144 0
3 39 142 44
3 44 142 23
3 43 147 41
3 41 147 84
3 70 148 149
3 148 150 149
3 148 47 150
3 149 150 24
3 24 150 48
3 48 150 47
3 151 152 63
3 63 152 43
3 43 152 147
3 152 153 147
3 152 151 153
3 147 153 84
3 84 153 154
3 153 155 154
3 153 151 155
3 154 155 156
3 151 157 155
3 157 158 155
3 157 56 158
3 155 158 156
3 56 157 63
3 63 157 151
3 156 158 32
3 158 56 32
3 84 154 159
3 154 160 159
3 154 156 160
3 159 160 86
3 156 161 160
3 161 162 160
3 161 55 162
3 160 162 86
3 55 161 32
3 32 161 156
3 86 162 54
3 162 55 54
3 14 138 58
3 58 138 60
3 70 149 68
3 68 149 24
3 60 139 82
3 82 139 37
3 143 141 163
3 163 141 39
3 84 159 164
3 164 159 86
3 47 148 106
3 106 148 70
3 107 165 166
3 165 167 166
3 165 110 167
3 166 167 111
3 38 165 107
3 27 168 169
3 168 170 169
3 168 15 170
3 169 170 49
3 28 171 2
3 2 171 0
3 143 172 173
3 172 174 173
3 172 175 174
3 173 174 28
3 143 176 172
3 176 177 172
3 176 178 177
3 172 177 175
3 28 174 171
3 174 179 171
3 174 175 179
3 171 179 0
3 15 168 16
3 16 168 27
3 49 170 48
3 48 170 15
3 107 166 52
3 52 166 111
3 178 180 181
3 180 182 181
3 180 83 182
3 181 182 183
3 183 182 78
3 78 182 83
3 13 184 78
3 78 184 183
3 163 176 143
3 178 181 177
3 181 185 177
3 181 183 185
3 177 185 175
3 175 185 186
3 185 184 186
3 185 183 184
3 186 184 13
3 83 180 86
3 86 180 178
3 111 167 109
3 109 167 110
3 27 169 117
3 117 169 49
3 143 173 140
3 140 173 28
3 175 186 146
3 146 186 13
3 0 179 146
3 146 179 175
3 54 187 188
3 187 189 188
3 187 36 189
3 188 189 12
3 12 189 14
3 189 36 14
3 110 190 73
3 190 71 73
3 63 191 192
3 191 193 192
3 191 110 193
3 192 193 38
3 63 194 191
3 194 190 191
3 194 71 190
3 191 190 110
3 33 195 35
3 195 38 35
3 36 187 34
3 34 187 54
3 38 195 192
3 195 196 192
3 195 33 196
3 192 196 63
3 63 196 56
3 56 196 33
3 71 194 62
3 62 194 63
3 54 188 78
3 78 188 12
3 85 197 39
3 39 197 163
3 85 198 197
3 198 199 197
3 198 164 199
3 197 199 163
3 164 198 84
3 84 198 85
3 163 199 200
3 199 201 200
3 199 164 201
3 200 201 178
3 178 201 86
3 201 164 86
3 38 193 165
3 165 193 110
3 163 200 176
3 176 200 178

CELL_TYPES 400
5
5
5
5
5
5
5
5
5
5
5
5
5
5
5
5
5
5
5
5
5
5
5
5
5
5
5
5
5
5
5
5
5
5
5
5
5
5
5
5
5
5
5
5
5
5
5
5
5
5
5
5
5
5
5
5
5
5
5
5
5
5
5
5
5
5
5
5
5
5
5
5
5
5
5
5
5
5
5
5
5
5
5
5
5
5
5
5
5
5
5
5
5
5
5
5
5
5
5
5
5
5
5
5
5
5
5
5
5
5
5
5
5
5
5
5
5
5
5
5
5
5
5
5
5
5
5
5
5
5
5
5
5
5
5
5
5
5
5
5
5
5
5
5
5
5
5
5
5
5
5
5
5
5
5
5
5
5
5
5
5
5
5
5
5
5
5
5
5
5
5
5
5
5
5
5
5
5
5
5
5
5
5
5
5
5
5
5
5
5
5
5
5
5
5
5
5
5
5
5
5
5
5
5
5
5
5
5
5
5
5
5
5
5
5
5
5
5
5
5
5
5
5
5
5
5
5
5
5
5
5
5
5
5
5
5
5
5
5
5
5
5
5
5
5
5
5
5
5
5
5
5
5
5
5
5
5
5
5
5
5
5
5
5
5
5
5
5
5
5
5
5
5
5
5
5
5
5
5
5
5
5
5
5
5
5
5
5
5
5
5
5
5
5
5
5
5
5
5
5
5
5
5
5
5
5
5
5
5
5
5
5
5
5
5
5
5
5
5
5
5
5
5
5
5
5
5
5
5
5
5
5
5
5
5
5
5
5
5
5
5
5
5
5
5
5
5
5
5
5
5
5
5
5
5
5
5
5
5
5
5
5
5
5
5
5
5
5
5
5
5
5
5
5
5
5
5
5
5
5
5
5
5
5
5
5
5
5
5
5
5
5
5
5
5
5
5
5
5
5

CELL_DATA 400
SCALARS cell_data_0 double
LOOKUP_TABLE default
1.4891090041e-06
5.99832618994e-07
2.30930112913e-06
1.05019427123e-06
1.18166547648e-06
7.38546644597e-07
6.40589333544e-07
1.01299935675e-06
1.15658546227e-06
4.27386205127e-07
1.17417156553e-06
9.13639636098e-07
5.51213744533e-07
9.90689597455e-07
5.75901246292e-07
4.90902562948e-07
1.01717426518e-06
1.12581196284e-06
1.76177501578e-06
6.19293419605e-07
7.41530330997e-07
1.20937965964e-07
6.87529587525e-07
2.92248082276e-07
7.34401558833e-07
2.15583040972e-06
5.8349392234e-07
5.10863048821e-07
8.66877575005e-07
1.29347545527e-06
2.38814317303e-06
3.20507192043e-06
1.8507655354e-06
5.39713769053e-07
5.31634892225e-07
3.09398119744e-06
3.30276508686e-06
2.45316769301e-06
3.70937494786e-06
1.42185763981e-06
1.89483664651e-06
1.49331547839e-06
1.16529541827e-06
1.52609205216e-06
1.99835957211e-06
1.19899503382e-06
1.59658979214e-06
2.0481545639e-06
2.53940404841e-06
2.0103389991e-06
1.44950818316e-06
6.23719089609e-08
8.88249163282e-07
1.34493895218e-06
1.50102627473e-06
1.29675998399e-07
4.86911345762e-06
1.76718487148e-06
2.54945962414e-06
1.42639383605e-06
1.94771380647e-06
1.97706808142e-06
1.93804078233e-06
2.42912391228e-06
1.71271985218e-06
1.9274159312e-06
1.85875893256e-06
1.9191915081e-06
1.87591884718e-07
1.5176910857e-06
1.3248609842e-06
2.54467191073e-08
8.05754961735e-08
4.22155281415e-07
1.90614499244e-06
1.82079962414e-06
9.23136646125e-07
3.27344865209e-06
1.29799717791e-06
2.10674728166e-06
6.47762551644e-08
5.98856020143e-07
2.47709608013e-06
1.75850340337e-07
8.74627497723e-07
5.50605414195e-08
1.27028117763e-07
2.74256335262e-06
8.15546829995e-07
4.42093255384e-07
6.82074532061e-07
9.59467370754e-09
4.01373830268e-06
3.56083320248e-06
1.22604011472e-06
1.14355043914e-06
3.57821313417e-06
1.07598217126e-06
1.30976350448e-06
1.29689157321e-06
1.23458360518e-06
1.12770727294e-06
1.32377693758e-06
7.72623257857e-07
1.10481470894e-06
6.20567262163e-07
8.77967220982e-07
3.77331942318e-07
4.74624696546e-07
8.09078274736e-08
5.63088727318e-07
2.34011691731e-07
3.32551514125e-07
2.74964983688e-07
1.53239247785e-07
1.23353170073e-06
1.57978020202e-06
1.95199808237e-06
4.79545558124e-07
6.4449889608e-07
5.302608445e-07
6.15751166524e-07
7.26344003413e-07
7.23778781861e-07
5.08019592968e-07
6.41241614734e-07
8.88949345039e-07
1.33255602355e-06
9.73839037552e-07
1.25074211486e-06
2.73600915597e-07
4.20547152573e-07
5.4726470132e-07
3.59463975625e-07
8.45000905303e-07
8.6804559278e-07
9.19420427515e-07
8.52837588036e-07
8.56305864767e-07
4.67995864045e-07
6.21307667069e-07
5.53115237965e-07
1.02637812734e-06
1.21038548023e-06
7.27062368361e-07
1.30355202896e-06
1.64695418694e-06
9.28015807327e-08
3.17059155566e-07
2.98405927402e-07
3.67630492718e-07
1.13267363309e-06
2.84133133099e-07
1.39501158831e-07
2.22294402883e-07
1.62568339393e-06
7.53484618393e-07
9.35685497734e-07
9.9491430733e-07
4.83473658633e-07
1.3835057855e-06
5.26558282517e-07
1.81346483731e-07
1.88188480242e-07
1.14293051624e-07
1.28233693268e-07
5.92138788603e-08
1.14733562877e-07
5.1086633855e-08
2.09103314093e-07
4.50858024725e-07
1.35912083795e-07
9.97620230789e-08
1.56242540815e-07
1.64236661368e-07
7.01088843591e-07
6.33070614921e-07
7.77587490875e-07
5.23291237679e-07
4.4871509175e-07
2.72319734261e-07
2.26888384427e-07
4.22143652282e-07
7.29591951457e-07
5.60489992177e-07
7.59174315506e-07
4.94619947379e-07
6.81840727657e-07
8.49199087183e-07
8.74743901261e-07
8.21499203287e-07
8.64306253639e-07
6.28677785146e-07
1.5341267057e-06
1.4262621247e-06
3.08249663113e-07
1.81887209158e-07
5.67608097349e-07
4.24647607006e-07
8.4644548273e-07
9.44293889607e-07
7.70624581411e-07
8.38297165515e-07
5.83594712399e-07
7.29044789504e-07
2.93019545195e-07
3.70084575693e-07
4.96253596129e-07
2.75108586561e-07
3.87930747068e-07
2.46302401733e-07
1.60920954057e-06
1.50059616074e-06
9.74830757186e-07
1.27829571116e-06
5.00855539591e-07
1.4027616867e-07
4.92144191431e-07
6.12571724434e-07
4.09704137702e-07
5.70001215114e-07
5.00413026612e-07
4.55575702884e-07
1.33116421428e-06
4.22655866991e-07
1.15012605392e-06
9.89872439358e-07
2.51664851796e-07
7.58554605581e-07
7.05438557298e-07
1.54260386867e-06
1.43247141903e-06
9.49352122995e-07
1.07140706838e-06
3.88786941099e-07
5.81113152149e-07
8.21140620076e-08
2.1168262435e-07
1.78195956664e-08
3.07197141081e-07
1.8669920059e-08
1.08339412605e-07
1.50247689523e-06
8.81477932291e-07
2.02250526268e-06
2.03784576279e-06
9.85213561812e-07
9.5341007295e-07
6.78099706397e-07
7.94595678671e-07
7.70365480995e-07
5.78999942851e-07
2.31352480092e-06
3.23377659811e-06
7.26931194766e-07
6.37651742373e-08
2.77187049783e-07
7.15343069277e-07
3.28495979811e-07
1.09542450234e-08
1.36497605747e-07
1.73654990482e-08
1.34079123549e-07
6.96808229897e-09
1.41951137043e-07
2.88546103534e-08
9.64495728601e-07
9.84385408059e-07
2.60735493273e-07
5.4577375811e-07
3.45808376852e-07
7.81226724382e-08
9.83353487924e-08
4.33462230557e-07
2.50676290477e-07
3.53204556185e-07
5.49606096183e-07
5.96905818638e-07
1.06312860155e-06
5.23437238794e-07
1.02201517207e-06
8.42360166125e-07
5.66024108647e-08
6.9216349963e-07
1.91742685694e-06
2.01504147838e-06
7.98380476157e-07
7.57347844058e-07
1.1741398949e-06
1.96964994206e-06
1.80451662353e-06
1.7217477348e-06
4.16729537171e-07
7.82252467844e-07
1.60398872216e-07
6.15228817849e-08
3.65788491474e-07
3.39249888802e-07
8.03627274554e-07
5.25462066454e-07
7.41314698478e-07
4.26194589114e-07
9.40681870602e-07
2.22247557737e-07
1.25777040345e-08
1.51217415381e-08
4.48511982876e-08
9.41631635387e-11
6.67767172182e-08
2.19038903165e-08
3.58261652991e-08
9.82972124848e-08
4.82925172483e-08
5.21554829853e-08
8.15639008918e-08
4.2798086133e-08
2.93625172675e-08
6.08022839547e-07
2.429693293e-07
1.03819761073e-06
8.0141843547e-07
3.76907772161e-07
5.31334918266e-07
6.29072226367e-08
3.14404537534e-09
3.16530856688e-07
2.65945078512e-07
1.2219021521e-06
1.33108994793e-06
7.41076539294e-07
1.0544001133e-06
5.86366690339e-07
6.51536139915e-08
7.62287342743e-09
2.47899934762e-07
3.42121636468e-08
8.30517917804e-09
1.9091069286e-08
2.33546069245e-07
8.44319122389e-08
1.60404002764e-06
7.74109099096e-07
8.33160082932e-08
7.50885186281e-07
2.16326104619e-07
2.69599623894e-07
2.3519473483e-07
1.96648401296e-07
9.6004004593e-08
6.43035304218e-08
6.26233797459e-08
1.43561298139e-07
1.51840139266e-07
8.27547525662e-08
1.17423746137e-07
1.59183587436e-08
1.6598820239e-07
1.19244913877e-08
7.00506969848e-07
1.01173477924e-07
1.41518916071e-06
1.19208997594e-07
2.42154991787e-07
1.57371482191e-07
1.21064063754e-06
5.10526789928e-08
5.14510172092e-07
3.12187793869e-07
9.0214230831e-07
4.09385869888e-07
7.12517319652e-07
9.21165833843e-07
5.72926696808e-08
4.84335012668e-08
3.18145071428e-07
6.46896858943e-07
1.02538437149e-06
7.22229240137e-07
4.1336314395e-07
1.06925678186e-06
1.2295856342e-06
9.38656913767e-07
1.22868726959e-06
1.17602098276e-06
3.06590206317e-07
1.75563244449e-08
3.15388668446e-07
2.87248962426e-07
1.48013744986e-06
1.47894520274e-06
2.65432284511e-07
9.42090363088e-09
3.29285754596e-07
6.53053705228e-08
8.18703774634e-07
1.73527621976e-06
2.48266551822e-07
2.34879255773e-07
2.86339806852e-07
5.60648104575e-08

