# vtk DataFile Version 3.0
File Name: Molecule/sphere_excent/sphere_excent_0-s4.vtk
ASCII
DATASET UNSTRUCTURED_GRID
FIELD FieldData 1
TIME 1 1 double
0.0
POINTS 54 double
0.85065081 -0.52573111 0.0
0.80901699 -0.30901699 -0.5
1.0 0.0 0.0
0.80901699 0.30901699 -0.5
0.52573111 0.0 -0.85065081
0.85065081 0.52573111 0.0
0.5 0.80901699 -0.30901699
0.30901699 0.5 -0.80901699
0.0 0.85065081 -0.52573111
0.5 0.80901699 0.30901699
0.0 1.0 0.0
0.0 0.85065081 0.52573111
-0.5 0.80901699 -0.30901699
-0.5 0.80901699 0.30901699
-0.85065081 0.52573111 0.0
-0.80901699 0.30901699 0.5
-0.30901699 0.5 0.80901699
-0.52573111 0.0 0.85065081
-0.30901699 -0.5 0.80901699
0.0 -0.85065081 0.52573111
0.30901699 -0.5 0.80901699
0.52573111 0.0 0.85065081
0.80901699 -0.30901699 0.5
0.5 -0.80901699 0.30901699
0.30901699 -0.5 -0.80901699
0.0 0.0 -1.0
-0.30901699 -0.5 -0.80901699
0.0 -0.85065081 -0.52573111
-0.52573111 0.0 -0.85065081
0.80901699 0.30901699 0.5
0.30901699 0.5 0.80901699
-0.80901699 -0.30901699 -0.5
-0.80901699 0.30901699 -0.5
-1.0 0.0 0.0
-0.85065081 -0.52573111 0.0
-0.30901699 0.5 -0.80901699
-0.5 -0.80901699 -0.30901699
-0.5 -0.80901699 0.30901699
0.0 -1.0 0.0
-0.80901699 -0.30901699 0.5
0.5 -0.80901699 -0.30901699
-0.27326653 0.0 0.96193836
-0.43388856 -0.25989191 0.86266848
-0.16245985 -0.26286556 0.95105652
0.0 0.0 1.0
0.16245985 0.26286556 0.95105652
0.43388856 0.25989191 0.86266848
0.27326653 0.0 0.96193836
-0.25989191 0.86266848 0.43388856
-0.16062203 0.70204645 0.69378048
-0.4253254 0.68819096 0.58778525
-0.13795224 0.0 0.99043888
-0.22011703 -0.13279248 0.9663926
-0.08224247 -0.13307111 0.98768834

CELLS 104 416
3 0 1 2
3 1 3 2
3 1 4 3
3 2 3 5
3 5 3 6
3 3 7 6
3 3 4 7
3 6 7 8
3 5 6 9
3 6 10 9
3 6 8 10
3 9 10 11
3 10 12 13
3 10 8 12
3 13 12 14
3 13 14 15
3 16 15 17
3 18 19 20
3 21 20 22
3 20 23 22
3 20 19 23
3 22 23 0
3 4 24 25
3 24 26 25
3 24 27 26
3 25 26 28
3 0 2 22
3 2 29 22
3 2 5 29
3 22 29 21
3 5 9 29
3 9 30 29
3 9 11 30
3 28 31 32
3 31 33 32
3 31 34 33
3 32 33 14
3 8 35 12
3 35 32 12
3 35 28 32
3 12 32 14
3 34 36 37
3 36 38 37
3 36 27 38
3 37 38 19
3 34 37 39
3 37 18 39
3 37 19 18
3 17 15 39
3 15 33 39
3 15 14 33
3 39 33 34
3 28 26 31
3 26 36 31
3 26 27 36
3 31 36 34
3 27 40 38
3 40 23 38
3 40 0 23
3 38 23 19
3 4 1 24
3 1 40 24
3 1 0 40
3 24 40 27
3 4 25 7
3 25 35 7
3 25 28 35
3 7 35 8
3 17 41 16
3 17 42 41
3 42 18 43
3 20 43 18
3 18 42 39
3 39 42 17
3 44 45 16
3 16 45 30
3 30 45 46
3 45 47 46
3 45 44 47
3 46 47 21
3 21 47 20
3 20 47 44
3 30 46 29
3 29 46 21
3 13 48 10
3 10 48 11
3 11 48 49
3 48 50 49
3 48 13 50
3 49 50 16
3 16 50 15
3 15 50 13
3 11 49 30
3 49 16 30
3 41 51 16
3 16 51 44
3 43 52 42
3 42 52 41
3 41 52 51
3 52 53 51
3 52 43 53
3 51 53 44
3 44 53 20
3 53 43 20

CELL_TYPES 104
5
5
5
5
5
5
5
5
5
5
5
5
5
5
5
5
5
5
5
5
5
5
5
5
5
5
5
5
5
5
5
5
5
5
5
5
5
5
5
5
5
5
5
5
5
5
5
5
5
5
5
5
5
5
5
5
5
5
5
5
5
5
5
5
5
5
5
5
5
5
5
5
5
5
5
5
5
5
5
5
5
5
5
5
5
5
5
5
5
5
5
5
5
5
5
5
5
5
5
5
5
5
5
5

CELL_DATA 104
SCALARS cell_data_0 double
LOOKUP_TABLE default
5.66057177461e-07
5.65999288941e-07
1.4068796909e-07
3.8315431121e-07
8.06247382697e-08
2.53055495772e-07
5.84550071726e-08
8.09298254682e-08
1.82233288256e-06
5.29219915039e-07
7.49961795556e-07
2.64389633986e-06
2.55950835089e-06
1.47955540891e-07
4.86101384316e-07
3.16784480212e-06
1.6231240339e-05
7.79014895484e-06
1.22722858343e-05
7.30117638097e-06
9.04839808608e-06
2.97811610247e-09
4.91251341283e-08
9.12476882194e-09
3.58288572994e-08
3.97326869579e-08
3.40790223045e-06
9.55619451292e-07
3.97925806047e-06
1.64538928785e-05
6.4623838853e-07
1.32196717826e-05
1.29083673213e-05
2.26923413658e-08
5.14538679988e-07
3.18872543903e-08
2.83879705062e-08
2.65328340694e-07
1.07702343388e-08
1.80978797211e-07
3.86047560115e-07
1.80545267083e-06
4.17743932298e-07
9.07603818876e-07
2.46708400457e-06
5.57694663908e-07
1.28821956516e-05
1.39278966763e-05
4.8313179589e-07
3.10209764431e-06
1.06580607356e-06
9.87241249308e-07
1.12616473945e-07
3.4299376385e-09
1.62060447601e-07
1.94189745192e-07
4.03826184227e-07
1.75724695697e-09
5.37652999209e-07
5.15059783055e-07
9.55897373393e-08
2.56443343256e-07
2.76688729463e-07
1.90987955877e-07
4.86217286847e-08
3.37725158595e-08
3.7001271571e-08
5.38979669541e-08
1.2978029866e-06
7.12382336128e-06
1.03985066872e-05
1.7775651645e-06
6.17606437962e-06
1.47330888589e-06
1.1136217613e-05
2.36387914795e-06
8.59356654153e-06
5.88898907167e-06
2.04505677598e-05
5.50997320591e-06
7.63874910075e-07
4.67721193324e-06
5.45547794056e-06
1.57689234702e-06
5.83689950621e-07
6.29729045523e-07
1.20544156737e-06
2.79512786448e-07
3.91958910253e-07
7.9328225688e-06
4.15340703169e-06
1.24023307824e-06
1.61286318688e-06
4.47660413429e-06
4.61141573037e-08
2.36911914885e-06
8.36598981795e-07
3.64297916449e-07
2.50293139932e-06
2.52507916152e-06
3.07011743973e-06
9.58948004539e-06
6.84408620469e-07
2.64157312259e-06

