# vtk DataFile Version 3.0
File Name: Molecule/sphere_excent/sphere_excent_0-s13.vtk
ASCII
DATASET UNSTRUCTURED_GRID
FIELD FieldData 1
TIME 1 1 double
0.0
POINTS 227 double
2.0 3.23606798 -1.23606798
2.10292445 3.40260323 0.0
3.40260323 2.10292445 0.0
2.0 3.23606798 1.23606798
1.05146222 3.80422607 -0.64983939
1.05146222 3.80422607 0.64983939
0.0 4.0 0.0
0.0 3.40260323 2.10292445
-1.05146222 3.80422607 0.64983939
-2.0 3.23606798 1.23606798
-1.05146222 3.80422607 -0.64983939
-2.10292445 3.40260323 0.0
-2.0 3.23606798 -1.23606798
0.0 3.40260323 -2.10292445
-3.40260323 2.10292445 0.0
3.40260323 -2.10292445 0.0
3.45067392 -1.73555426 -1.03956765
3.84775343 -1.09306612 0.0
3.80422607 -0.64983939 -1.05146222
4.0 0.0 0.0
3.80422607 0.64983939 -1.05146222
3.84775343 1.09306612 0.0
3.45067392 1.73555426 -1.03956765
3.23606798 1.23606798 -2.0
3.23606798 -1.23606798 2.0
3.23606798 1.23606798 2.0
3.23606798 -1.23606798 -2.0
2.0 -3.23606798 -1.23606798
2.75276384 2.35114101 -1.70130162
-0.64983939 1.05146222 3.80422607
0.0 0.0 4.0
0.64983939 1.05146222 3.80422607
-3.23606798 1.23606798 -2.0
-3.40260323 0.0 -2.10292445
-4.0 0.0 0.0
-3.23606798 -1.23606798 -2.0
2.35114101 -1.70130162 -2.75276384
1.23606798 -2.0 3.23606798
1.70130162 -2.75276384 2.35114101
2.35114101 -1.70130162 2.75276384
2.75276384 -2.35114101 1.70130162
2.0 -3.23606798 1.23606798
-1.70130162 -2.75276384 2.35114101
-2.35114101 -1.70130162 2.75276384
-2.75276384 -2.35114101 1.70130162
-3.23606798 -1.23606798 2.0
-1.23606798 2.0 -3.23606798
-1.73555426 1.03956765 -3.45067392
-2.77512191 0.64248814 -2.80818578
-2.10292445 0.0 -3.40260323
-1.73555426 -1.03956765 -3.45067392
-2.77512191 -0.64248814 -2.80818578
-1.70130162 2.75276384 2.35114101
-2.75276384 2.35114101 1.70130162
-2.35114101 1.70130162 2.75276384
-3.23606798 1.23606798 2.0
-1.23606798 2.0 3.23606798
2.75276384 2.35114101 1.70130162
1.70130162 2.75276384 2.35114101
2.35114101 1.70130162 2.75276384
1.23606798 2.0 3.23606798
2.77512191 0.64248814 2.80818578
1.73555426 1.03956765 3.45067392
2.10292445 0.0 3.40260323
0.0 -3.40260323 -2.10292445
1.03956765 -3.45067392 -1.73555426
0.0 -4.0 0.0
1.70130162 -2.75276384 -2.35114101
0.64248814 -2.80818578 -2.77512191
3.80422607 0.64983939 1.05146222
3.80422607 -0.64983939 1.05146222
3.40260323 0.0 2.10292445
-0.64248814 2.80818578 -2.77512191
-2.10292445 0.0 3.40260323
-2.77512191 0.64248814 2.80818578
-2.77512191 -0.64248814 2.80818578
-3.40260323 0.0 2.10292445
3.5640261 -0.95470772 -1.54474954
3.36071154 -0.62573786 -2.07703396
3.65192997 -0.32929432 -1.59842821
3.40260323 0.0 -2.10292445
3.65192997 0.32929432 -1.59842821
3.85544506 0.0 -1.0656188
-1.09306612 0.0 3.84775343
1.09306612 0.0 3.84775343
-1.23606798 -2.0 3.23606798
-0.95470772 -1.54474954 3.5640261
-1.73555426 -1.03956765 3.45067392
-1.41421356 -0.54018151 3.70245917
-0.64983939 -1.05146222 3.80422607
-0.32896986 -0.53228441 3.95075336
0.0 -2.10292445 3.40260323
0.64983939 -1.05146222 3.80422607
0.0 -1.0656188 3.85544506
0.95470772 -1.54474954 3.5640261
0.32896986 -0.53228441 3.95075336
1.41421356 -0.54018151 3.70245917
1.73555426 -1.03956765 3.45067392
2.77512191 -0.64248814 -2.80818578
-3.40260323 -2.10292445 0.0
-3.84775343 -1.09306612 0.0
-1.05146222 -3.80422607 0.64983939
-2.0 -3.23606798 -1.23606798
-2.0 -3.23606798 1.23606798
-1.03956765 -3.45067392 1.73555426
0.0 -3.84775343 1.09306612
0.0 -3.40260323 2.10292445
-3.80422607 -0.64983939 1.05146222
-3.45067392 -1.73555426 1.03956765
1.05146222 -3.80422607 0.64983939
1.03956765 -3.45067392 1.73555426
-0.62573786 2.07703396 3.36071154
-0.64248814 2.80818578 2.77512191
0.0 2.82842712 2.82842712
0.0 2.10292445 3.40260323
0.64248814 2.80818578 2.77512191
0.62573786 2.07703396 3.36071154
-0.95470772 1.54474954 3.5640261
-0.32929432 1.59842821 3.65192997
-1.41421356 0.54018151 3.70245917
-1.73555426 1.03956765 3.45067392
0.62573786 -2.07703396 3.36071154
0.64248814 -2.80818578 2.77512191
0.0 -2.82842712 2.82842712
-0.64248814 -2.80818578 2.77512191
-0.62573786 -2.07703396 3.36071154
-1.8737194 -3.03174168 1.815962
-1.48699214 -2.40600382 2.82842713
-0.87403205 -3.16227766 2.28824561
-3.84775343 1.09306612 0.0
-3.45067392 1.73555426 1.03956765
-3.80422607 0.64983939 1.05146222
2.82842713 1.48699214 -2.40600382
2.10292445 0.0 -3.40260323
2.28824561 0.87403205 -3.16227766
2.77512191 0.64248814 -2.80818578
2.35114101 1.70130162 -2.75276384
1.54474954 3.5640261 -0.95470772
0.54018151 3.70245917 -1.41421356
1.03956765 3.45067392 -1.73555426
2.28824561 -0.87403205 3.16227766
2.77512191 -0.64248814 2.80818578
2.82842713 -1.48699214 2.40600382
0.30471214 -1.58610071 -3.65943097
-0.32896986 -0.53228441 -3.95075336
0.64983939 -1.05146222 -3.80422607
-0.64983939 -1.05146222 -3.80422607
0.0 0.0 -4.0
-0.55180897 0.0 -3.96175553
-0.88046811 -0.5311699 -3.86557039
-1.09306612 0.0 -3.84775343
-1.20503552 -1.056331 -3.6649767
-1.43291518 -0.52662148 -3.6972184
-1.23606798 -2.0 -3.23606798
-0.32896986 0.53228441 -3.95075336
-0.88046811 0.5311699 -3.86557039
-0.64983939 1.05146222 -3.80422607
-1.43291518 0.52662148 -3.6972184
-1.20503552 1.056331 -3.6649767
1.73555426 1.03956765 -3.45067392
0.64983939 1.05146222 -3.80422607
-2.80818578 -2.77512191 -0.64248814
-2.80818578 -2.77512191 0.64248814
-2.10292445 -3.40260323 0.0
2.80818578 -2.77512191 -0.64248814
2.10292445 -3.40260323 0.0
2.80818578 -2.77512191 0.64248814
2.40600382 2.82842713 -1.48699214
2.05350177 2.25701685 -2.58631117
2.58631117 2.05350177 -2.25701685
2.25701685 2.58631117 -2.05350177
1.70130162 2.75276384 -2.35114101
1.815962 1.8737194 -3.03174168
1.48699214 2.40600382 -2.82842713
1.23606798 2.0 -3.23606798
1.8737194 3.03174168 -1.815962
0.62573786 2.07703396 -3.36071154
0.9483453 2.4273006 -3.0346092
0.32456741 2.48095833 -3.12081748
0.0 2.10292445 -3.40260323
0.64248814 2.80818578 -2.77512191
0.32434517 3.13537217 -2.46256808
1.18401837 2.80923939 -2.58964758
0.87403205 3.16227766 -2.28824561
-2.35114101 1.70130162 -2.75276384
-1.70130162 2.75276384 -2.35114101
-2.75276384 2.35114101 -1.70130162
-1.03956765 -3.45067392 -1.73555426
-1.70130162 -2.75276384 -2.35114101
-2.35114101 -1.70130162 -2.75276384
-2.75276384 -2.35114101 -1.70130162
-0.64248814 -2.80818578 -2.77512191
-3.0346092 -0.9483453 -2.4273006
-2.07821484 -1.36908454 -3.13155403
1.43291518 0.52662148 -3.6972184
1.09306612 0.0 -3.84775343
0.88046811 0.5311699 -3.86557039
1.20503552 1.056331 -3.6649767
1.50015427 1.53445493 -3.3756459
0.95470772 1.54474954 -3.5640261
-2.81162812 0.0 -2.84512694
-3.12081748 -0.32456741 -2.48095833
-3.12081748 0.32456741 -2.48095833
2.46256808 -0.32434517 -3.13537217
1.93776657 -0.52480151 -3.45971734
2.28500664 -0.85209146 -3.17059692
1.73555426 -1.03956765 -3.45067392
2.58964758 -1.18401837 -2.80923939
2.06448648 -1.38461206 -3.13380679
1.50015427 -1.53445493 -3.3756459
1.815962 -1.8737194 -3.03174168
1.23606798 -2.0 -3.23606798
0.9483453 -2.4273006 -3.0346092
0.0 -2.10292445 -3.40260323
-0.30753628 -2.49114186 -3.11442349
1.48699214 -2.40600382 -2.82842713
1.18401837 -2.80923939 -2.58964758
2.05350177 -2.25701685 -2.58631117
-0.62573786 2.07703396 -3.36071154
0.55180897 0.0 -3.96175553
0.89919817 -0.5386045 -3.8602264
1.43291518 -0.52662148 -3.6972184
1.6134214 0.0 -3.66017368
-0.95470772 1.54474954 -3.5640261
-0.32929432 1.59842821 -3.65192997
-0.47591828 -1.83247993 -3.52356625
0.77782696 -1.81035942 -3.48103203

CELLS 450 1800
3 0 1 2
3 2 1 3
3 4 5 1
3 4 6 5
3 1 5 3
3 3 5 7
3 5 6 7
3 6 8 7
3 7 8 9
3 6 10 8
3 10 11 8
3 10 12 11
3 8 11 9
3 12 10 13
3 13 10 6
3 9 11 14
3 11 12 14
3 15 16 17
3 16 18 17
3 17 18 19
3 19 20 21
3 20 22 21
3 20 23 22
3 21 22 2
3 15 17 24
3 21 2 25
3 26 16 27
3 2 22 28
3 28 22 23
3 29 30 31
3 32 33 34
3 34 33 35
3 27 36 26
3 37 38 39
3 38 40 39
3 38 41 40
3 24 40 15
3 42 43 44
3 44 43 45
3 46 47 48
3 48 47 49
3 49 50 51
3 9 52 7
3 9 53 52
3 53 54 52
3 53 55 54
3 52 54 56
3 14 53 9
3 3 57 2
3 2 57 25
3 3 58 57
3 58 59 57
3 58 60 59
3 57 59 25
3 7 58 3
3 25 59 61
3 59 62 61
3 59 60 62
3 61 62 63
3 64 65 66
3 65 27 66
3 67 27 65
3 68 65 64
3 63 62 31
3 31 62 60
3 19 69 70
3 69 71 70
3 69 25 71
3 70 71 24
3 13 72 12
3 73 74 75
3 74 76 75
3 74 55 76
3 75 76 45
3 19 70 17
3 17 70 24
3 25 69 21
3 21 69 19
3 73 75 43
3 43 75 45
3 55 74 54
3 54 74 73
3 24 71 61
3 61 71 25
3 26 77 16
3 16 77 18
3 26 78 77
3 78 79 77
3 78 80 79
3 77 79 18
3 80 81 79
3 81 82 79
3 81 20 82
3 79 82 18
3 20 81 23
3 23 81 80
3 18 82 19
3 82 20 19
3 29 83 30
3 30 84 31
3 31 84 63
3 85 86 87
3 86 88 87
3 86 89 88
3 87 88 73
3 73 88 83
3 88 90 83
3 88 89 90
3 83 90 30
3 89 86 91
3 92 93 91
3 91 93 89
3 91 94 92
3 89 93 90
3 93 95 90
3 93 92 95
3 90 95 30
3 30 95 84
3 95 96 84
3 95 92 96
3 84 96 63
3 92 94 96
3 94 97 96
3 94 37 97
3 96 97 63
3 80 78 98
3 98 78 26
3 39 97 37
3 85 87 43
3 43 87 73
3 99 100 35
3 35 100 34
3 66 101 102
3 103 101 104
3 101 105 104
3 101 66 105
3 104 105 106
3 45 107 108
3 107 100 108
3 107 34 100
3 108 100 99
3 27 109 66
3 66 109 105
3 109 110 105
3 109 41 110
3 105 110 106
3 56 111 112
3 111 113 112
3 111 114 113
3 112 113 7
3 7 113 115
3 113 116 115
3 113 114 116
3 115 116 60
3 56 117 111
3 117 118 111
3 117 29 118
3 111 118 114
3 114 118 31
3 31 118 29
3 60 116 31
3 31 116 114
3 73 119 120
3 119 117 120
3 119 29 117
3 120 117 56
3 37 121 122
3 121 123 122
3 121 91 123
3 122 123 106
3 106 123 124
3 123 125 124
3 123 91 125
3 124 125 85
3 106 110 38
3 38 110 41
3 37 122 38
3 38 122 106
3 45 108 44
3 44 108 99
3 103 126 44
3 126 42 44
3 42 127 43
3 127 85 43
3 85 127 124
3 127 128 124
3 127 42 128
3 124 128 106
3 106 128 104
3 128 126 104
3 128 42 126
3 104 126 103
3 56 112 52
3 52 112 7
3 73 120 54
3 54 120 56
3 7 115 58
3 58 115 60
3 34 107 76
3 76 107 45
3 29 119 83
3 83 119 73
3 85 125 86
3 86 125 91
3 91 121 94
3 94 121 37
3 34 129 32
3 32 129 14
3 55 130 131
3 130 129 131
3 130 14 129
3 131 129 34
3 23 132 28
3 133 134 135
3 134 132 135
3 134 136 132
3 135 132 23
3 0 137 1
3 137 4 1
3 4 138 6
3 6 138 13
3 13 138 139
3 138 137 139
3 138 4 137
3 139 137 0
3 133 135 80
3 80 135 23
3 63 140 141
3 140 142 141
3 140 39 142
3 141 142 24
3 24 142 40
3 40 142 39
3 143 144 145
3 143 146 144
3 145 144 147
3 147 144 148
3 144 149 148
3 144 146 149
3 148 149 150
3 146 151 149
3 151 152 149
3 151 50 152
3 149 152 150
3 50 151 153
3 153 151 146
3 150 152 49
3 152 50 49
3 147 148 154
3 148 155 154
3 148 150 155
3 154 155 156
3 150 157 155
3 157 158 155
3 157 47 158
3 155 158 156
3 47 157 49
3 49 157 150
3 158 47 46
3 14 130 53
3 53 130 55
3 63 141 61
3 61 141 24
3 55 131 76
3 76 131 34
3 136 134 159
3 159 134 133
3 147 154 160
3 160 154 156
3 39 140 97
3 97 140 63
3 99 161 162
3 161 163 162
3 161 102 163
3 162 163 103
3 35 161 99
3 27 164 165
3 164 166 165
3 164 15 166
3 165 166 41
3 28 167 2
3 2 167 0
3 136 168 169
3 168 170 169
3 168 171 170
3 169 170 28
3 136 172 168
3 172 173 168
3 172 174 173
3 168 173 171
3 28 170 167
3 170 175 167
3 170 171 175
3 167 175 0
3 15 164 16
3 16 164 27
3 41 166 40
3 40 166 15
3 99 162 44
3 44 162 103
3 174 176 177
3 176 178 177
3 176 179 178
3 177 178 180
3 180 178 72
3 72 178 179
3 13 181 72
3 72 181 180
3 159 172 136
3 174 177 173
3 177 182 173
3 177 180 182
3 173 182 171
3 171 182 183
3 182 181 183
3 182 180 181
3 183 181 13
3 156 176 174
3 103 163 101
3 101 163 102
3 27 165 109
3 109 165 41
3 136 169 132
3 132 169 28
3 171 183 139
3 139 183 13
3 0 175 139
3 139 175 171
3 46 184 185
3 184 186 185
3 184 32 186
3 185 186 12
3 12 186 14
3 186 32 14
3 102 187 66
3 187 64 66
3 153 188 189
3 188 190 189
3 188 102 190
3 189 190 35
3 153 191 188
3 191 187 188
3 191 64 187
3 188 187 102
3 192 35 33
3 32 184 48
3 48 184 46
3 35 192 189
3 192 193 189
3 192 51 193
3 189 193 153
3 153 193 50
3 50 193 51
3 64 191 68
3 46 185 72
3 72 185 12
3 133 194 159
3 195 196 194
3 196 197 194
3 196 160 197
3 194 197 159
3 160 196 147
3 159 197 198
3 197 199 198
3 197 160 199
3 198 199 174
3 174 199 156
3 199 160 156
3 35 190 161
3 161 190 102
3 159 198 172
3 172 198 174
3 51 200 49
3 49 200 48
3 51 201 200
3 201 202 200
3 201 33 202
3 200 202 48
3 48 202 32
3 202 33 32
3 133 203 204
3 203 205 204
3 203 98 205
3 204 205 206
3 98 207 205
3 207 208 205
3 207 36 208
3 205 208 206
3 36 207 26
3 26 207 98
3 206 208 209
3 208 210 209
3 208 36 210
3 209 210 211
3 98 203 80
3 80 203 133
3 211 212 213
3 212 214 213
3 212 68 214
3 213 214 153
3 211 215 212
3 215 216 212
3 215 67 216
3 212 216 68
3 68 216 65
3 65 216 67
3 67 217 27
3 27 217 36
3 36 217 210
3 217 215 210
3 217 67 215
3 210 215 211
3 179 218 72
3 218 46 72
3 147 219 220
3 219 221 220
3 219 195 221
3 220 221 206
3 206 221 204
3 221 222 204
3 221 195 222
3 204 222 133
3 46 218 223
3 218 224 223
3 218 179 224
3 223 224 156
3 206 209 145
3 145 209 211
3 147 220 145
3 145 220 206
3 143 225 146
3 146 225 153
3 153 225 213
3 225 226 213
3 225 143 226
3 213 226 211
3 211 226 145
3 226 143 145
3 46 223 158
3 158 223 156
3 156 224 176
3 176 224 179
3 33 201 192
3 192 201 51
3 153 214 191
3 191 214 68
3 133 222 194
3 194 222 195
3 195 219 196
3 196 219 147

CELL_TYPES 450
5
5
5
5
5
5
5
5
5
5
5
5
5
5
5
5
5
5
5
5
5
5
5
5
5
5
5
5
5
5
5
5
5
5
5
5
5
5
5
5
5
5
5
5
5
5
5
5
5
5
5
5
5
5
5
5
5
5
5
5
5
5
5
5
5
5
5
5
5
5
5
5
5
5
5
5
5
5
5
5
5
5
5
5
5
5
5
5
5
5
5
5
5
5
5
5
5
5
5
5
5
5
5
5
5
5
5
5
5
5
5
5
5
5
5
5
5
5
5
5
5
5
5
5
5
5
5
5
5
5
5
5
5
5
5
5
5
5
5
5
5
5
5
5
5
5
5
5
5
5
5
5
5
5
5
5
5
5
5
5
5
5
5
5
5
5
5
5
5
5
5
5
5
5
5
5
5
5
5
5
5
5
5
5
5
5
5
5
5
5
5
5
5
5
5
5
5
5
5
5
5
5
5
5
5
5
5
5
5
5
5
5
5
5
5
5
5
5
5
5
5
5
5
5
5
5
5
5
5
5
5
5
5
5
5
5
5
5
5
5
5
5
5
5
5
5
5
5
5
5
5
5
5
5
5
5
5
5
5
5
5
5
5
5
5
5
5
5
5
5
5
5
5
5
5
5
5
5
5
5
5
5
5
5
5
5
5
5
5
5
5
5
5
5
5
5
5
5
5
5
5
5
5
5
5
5
5
5
5
5
5
5
5
5
5
5
5
5
5
5
5
5
5
5
5
5
5
5
5
5
5
5
5
5
5
5
5
5
5
5
5
5
5
5
5
5
5
5
5
5
5
5
5
5
5
5
5
5
5
5
5
5
5
5
5
5
5
5
5
5
5
5
5
5
5
5
5
5
5
5
5
5
5
5
5
5
5
5
5
5
5
5
5
5
5
5
5
5
5
5
5
5
5
5
5
5
5
5
5
5
5
5
5
5
5
5
5
5
5
5
5
5
5
5
5
5
5
5
5
5
5
5
5
5
5
5
5
5
5
5
5
5
5
5
5
5
5
5
5
5

CELL_DATA 450
SCALARS cell_data_0 double
LOOKUP_TABLE default
8.63386246592e-07
3.55478835288e-08
5.52913484749e-07
9.28518109332e-07
3.48061745783e-07
2.19831806314e-06
2.087535624e-06
2.00245715335e-06
2.14594235268e-06
8.71010166145e-07
1.189615777e-06
6.88217406105e-07
1.01662212622e-06
2.04151982837e-07
5.63394422004e-07
1.0755343463e-06
6.24087824363e-07
2.59246971179e-07
6.93423984037e-07
7.04464857448e-07
9.79763896051e-07
1.81825478862e-06
1.41258988174e-06
1.31355040668e-06
5.05214869669e-07
2.25357365546e-07
2.31173663327e-08
1.21133475162e-06
1.61333530359e-06
1.0244286895e-06
3.8676358773e-07
1.07670741506e-06
1.62128709905e-06
1.36920226077e-06
1.18442589815e-06
1.16923755547e-06
2.1963130415e-06
1.44493608184e-06
8.2983057635e-07
5.92143740122e-07
1.14605013161e-06
1.5050598939e-06
2.50361981981e-06
1.24280319582e-06
1.02340610476e-06
8.1140090395e-07
1.13461808853e-06
1.19624160376e-06
1.15231203878e-07
5.73931306988e-07
6.27062051967e-07
1.11399576259e-06
5.78316475035e-07
3.19335025747e-08
1.14013130721e-06
2.55101091745e-07
4.3245054836e-07
6.02888968281e-07
5.79030884217e-07
4.26153623298e-06
3.57048346852e-06
2.89994158586e-06
3.30073637094e-06
9.9882055411e-07
9.3413508506e-07
1.22881511077e-06
2.12437384738e-06
4.46918354706e-07
6.104425001e-07
2.65533748336e-06
1.83993372435e-07
4.38163272319e-07
9.14399363269e-07
5.94409623092e-07
8.91608901109e-07
5.23398541012e-07
6.17333426278e-07
1.17885860593e-06
1.21548314172e-06
6.39200910352e-07
3.93006768523e-08
2.45560852657e-07
2.71752968887e-07
1.1807565173e-07
2.78605167205e-07
3.96258318634e-07
3.5295457043e-07
5.25655699528e-07
6.62340579895e-07
5.62128796529e-07
6.92792263747e-07
4.66911443891e-07
4.2071930367e-07
5.08940948872e-07
7.9479035833e-07
1.05155724557e-06
3.42211736283e-07
3.72640025716e-07
1.26369746435e-06
9.86670487762e-07
1.472532292e-06
1.86680705989e-07
2.25610848281e-07
2.27709882253e-07
4.04820343275e-07
6.13904145343e-07
4.87156743415e-07
2.75390183819e-07
5.31824741668e-07
1.54241380282e-07
2.09998904901e-07
3.0188845667e-07
6.02838187935e-08
1.34968039185e-07
1.28505147812e-07
8.7917366628e-08
1.35209613726e-07
4.42492262715e-07
3.0530696842e-07
1.00220367165e-07
5.52799061197e-07
5.6153165978e-08
2.15007963441e-08
3.92897496459e-07
3.5514979003e-07
6.33855846507e-07
2.64173673694e-07
1.09264271286e-06
1.08808488795e-06
1.43653869906e-06
7.39098724147e-07
4.80834976789e-07
3.93378624593e-06
1.07933070994e-06
1.15609109372e-06
1.57375244258e-06
1.21172907724e-08
8.12485549756e-07
1.72397452725e-06
9.8878492588e-07
1.15499177035e-06
1.69693404617e-06
1.16336447137e-06
7.31810323511e-07
4.71767186205e-08
1.70229137782e-08
5.59232643552e-07
4.84309046025e-07
3.6285729704e-07
4.67370403367e-07
4.12930404672e-07
6.86438986345e-07
6.29559392114e-07
8.2832221764e-07
4.55426890646e-07
5.63433154794e-07
5.53643548029e-07
3.74840365597e-07
8.49333745837e-07
8.68674087595e-07
9.96250091441e-07
7.2466984787e-07
9.7111324777e-07
1.15045744939e-06
9.59452743848e-07
1.01190356193e-06
8.69837296577e-07
8.39641349607e-07
6.29875140903e-07
7.48450716892e-07
5.22454015977e-07
3.83996163967e-07
3.81335133577e-07
9.91312490587e-08
4.97270790273e-07
2.61880210719e-07
1.35083238893e-06
1.23383597838e-06
6.11716474193e-07
4.2227213393e-07
2.9753243711e-07
2.47287532058e-07
9.67897951401e-07
9.31466705697e-07
4.8428874597e-07
7.28081150777e-07
8.24674747213e-07
5.62159047404e-07
4.88379922562e-07
2.6291942211e-07
5.39610012586e-07
3.17284412309e-07
1.38359919927e-06
1.29386073035e-06
1.35598511417e-06
1.2426521389e-06
5.11466034779e-07
8.97167014477e-07
9.01188804777e-07
5.31518724855e-07
8.36527237953e-07
9.00266162775e-07
5.94408970507e-08
1.66720273704e-08
2.14396453999e-07
3.98150712848e-07
9.40070401823e-07
1.93933196675e-08
1.32014181719e-06
1.33133894598e-06
6.2526990461e-07
9.5447398556e-07
4.99541062426e-07
3.91967513058e-07
1.57392052559e-07
2.9030360381e-07
5.1430647775e-08
1.84392469118e-07
1.24022286882e-07
5.44115192117e-07
1.30876575756e-07
2.68380540868e-08
2.90367945406e-07
2.93755857461e-07
1.20187738214e-07
1.77512015709e-06
1.11405472855e-06
9.99883108352e-07
1.0032690802e-06
8.03261557749e-07
8.3498577974e-07
8.49450579858e-07
8.35381710957e-07
4.89011681868e-08
6.85701595103e-07
7.771009219e-07
3.67863134811e-07
9.63513106213e-08
4.52590902361e-07
3.4148805228e-07
6.36432166933e-07
3.53651737093e-07
5.47523431943e-07
4.96889760821e-07
1.64216125563e-06
1.88580401839e-06
1.00075487956e-06
9.88684019524e-07
4.45848655926e-07
1.76678097697e-07
3.60974600207e-07
2.32871380448e-07
5.6151058017e-07
3.19157592903e-07
2.54831221296e-07
2.17810090716e-07
6.03767557008e-07
1.08141331934e-06
2.43082910684e-07
7.55189147071e-07
1.204275684e-06
1.42508943616e-06
1.43633305346e-06
1.6763434109e-06
1.7069543314e-06
6.316266253e-07
6.71730784518e-07
1.4973208804e-06
6.27978347835e-07
5.74586856703e-07
7.37246643138e-07
5.79713210734e-07
8.06557007403e-07
2.38591910202e-07
4.07165246833e-07
9.72574825199e-07
1.81591414849e-07
8.96533524487e-07
5.59718434773e-07
9.96433766344e-07
4.19414770081e-07
6.43399368098e-08
2.69661956975e-07
4.97454259908e-08
1.55580372603e-07
1.3013864438e-07
2.8121158149e-07
1.42186811506e-08
4.24500011147e-08
1.723041085e-07
1.27804799088e-07
9.20650134481e-08
1.158938448e-07
2.96450929926e-08
3.40843757906e-07
1.58635984788e-07
1.15747119622e-06
9.29718951571e-07
4.3515412035e-07
2.27346160237e-08
8.95047691444e-08
2.74593066031e-08
1.01508614996e-07
1.59222929566e-07
9.30314114452e-07
7.94974807703e-07
8.24938739401e-07
8.41140415635e-07
6.51039578356e-07
5.26312561689e-08
6.85439721127e-10
1.48638878565e-07
1.44153195796e-07
1.81995358325e-07
1.75523345614e-08
1.29945013885e-07
1.22003685164e-07
9.49994349493e-08
5.11910933418e-07
1.05431280032e-06
2.70139024242e-08
6.89407009587e-07
1.95884133492e-07
1.05088237495e-07
2.16270784718e-07
1.19729280032e-07
3.75041871838e-08
1.33131108865e-07
1.83430199359e-07
5.50397218726e-08
4.32912871702e-07
9.90320520818e-08
5.73370594848e-08
6.95065709114e-07
2.09507103093e-06
1.6875471379e-06
1.27207052279e-06
3.21239316132e-07
6.04363863737e-07
2.03850695014e-07
1.04044975566e-06
2.0194682836e-07
3.7846305607e-07
7.21616281462e-07
5.77920621451e-08
1.04839752799e-06
5.73957424005e-07
6.05754115553e-08
1.2178634519e-07
5.97112395105e-08
5.71674031302e-07
1.20811582402e-06
4.66484978262e-07
1.6404922604e-06
1.20131657372e-06
1.04285010501e-06
6.8501712526e-07
1.14493056956e-07
2.19568020628e-09
1.51702005174e-07
9.89807173274e-08
1.0258308919e-06
1.06467958214e-07
2.50155357079e-08
1.72948213001e-07
9.41867490921e-08
1.39590971604e-07
4.47537333434e-07
4.53486215605e-07
3.70504766677e-07
9.13878408894e-08
5.82288693724e-08
2.40373818657e-07
4.47349001791e-07
1.07227198606e-08
4.59217508141e-08
3.88779438746e-08
8.72430141125e-08
3.91984716545e-07
1.08944649463e-07
2.55151115074e-07
8.95450515391e-09
7.77802251028e-10
2.91501402653e-08
1.53130889458e-08
2.48609911058e-08
1.14514006183e-07
2.49448364266e-08
3.32921284338e-07
4.00104834127e-08
3.45915395712e-08
1.07686558183e-08
1.18092022638e-07
3.14289838816e-07
3.91003567125e-07
9.60562519984e-07
5.98146679947e-07
2.42725289988e-08
5.42749352903e-07
6.44349325873e-07
3.19167567932e-07
5.05391039033e-09
2.62683964368e-07
3.00291805365e-07
1.26470540364e-06
1.19520162345e-06
8.45811229398e-07
4.20843440491e-07
1.57158426092e-07
1.23972039367e-08
3.09506579449e-07
3.68189651137e-07
7.11620032583e-07
5.88847393989e-07
3.38975167322e-07
1.0588796445e-08
1.03537016098e-07
3.18125248931e-08
3.9551091796e-08
7.55791111863e-09
1.13834571653e-07
2.37533486098e-07
1.54043176214e-08
2.4845521203e-08
7.5562922973e-08
3.99154530948e-08
3.26499227142e-08
5.55830648762e-07
6.37717664442e-07
3.6042712149e-08
6.69480093699e-07
1.72708869635e-06
4.01793008101e-07
1.31174529169e-08
2.96211299826e-08
3.7724654006e-07
3.53104287914e-07
1.4274492796e-08
6.35059695372e-08
8.82157592008e-08
3.37657277619e-08
9.4410979564e-08
5.70168963848e-08
6.37447499866e-09
5.84981374414e-07
5.05187349074e-07
2.28089855252e-07
1.06141498619e-07
1.15436213673e-07
3.27970899277e-07

