# vtk DataFile Version 3.0
File Name: Molecule/sphere_excent/sphere_excent_0-s11.vtk
ASCII
DATASET UNSTRUCTURED_GRID
FIELD FieldData 1
TIME 1 1 double
0.0
POINTS 187 double
-1.23606798 2.0 -3.23606798
-3.23606798 1.23606798 -2.0
-2.0 3.23606798 -1.23606798
-3.40260323 2.10292445 0.0
-2.0 -3.23606798 -1.23606798
0.0 -3.40260323 -2.10292445
0.0 -4.0 0.0
-1.23606798 -2.0 -3.23606798
-3.23606798 -1.23606798 -2.0
2.0 3.23606798 -1.23606798
2.10292445 3.40260323 0.0
3.40260323 2.10292445 0.0
2.0 3.23606798 1.23606798
1.05146222 3.80422607 -0.64983939
1.05146222 3.80422607 0.64983939
0.0 4.0 0.0
0.0 3.40260323 2.10292445
-1.05146222 3.80422607 0.64983939
-2.0 3.23606798 1.23606798
-1.05146222 3.80422607 -0.64983939
-2.10292445 3.40260323 0.0
0.0 3.40260323 -2.10292445
3.40260323 -2.10292445 0.0
3.45067392 -1.73555426 -1.03956765
3.84775343 -1.09306612 0.0
3.80422607 -0.64983939 -1.05146222
4.0 0.0 0.0
3.80422607 0.64983939 -1.05146222
3.84775343 1.09306612 0.0
3.45067392 1.73555426 -1.03956765
3.23606798 1.23606798 -2.0
3.23606798 -1.23606798 2.0
3.23606798 1.23606798 2.0
3.23606798 -1.23606798 -2.0
2.0 -3.23606798 -1.23606798
2.75276384 2.35114101 -1.70130162
-0.64983939 1.05146222 3.80422607
0.0 0.0 4.0
0.64983939 1.05146222 3.80422607
-2.10292445 0.0 -3.40260323
-2.77512191 -0.64248814 -2.80818578
-2.77512191 0.64248814 -2.80818578
-3.40260323 0.0 -2.10292445
-4.0 0.0 0.0
2.10292445 0.0 -3.40260323
2.77512191 -0.64248814 -2.80818578
1.73555426 -1.03956765 -3.45067392
2.35114101 -1.70130162 -2.75276384
1.23606798 -2.0 -3.23606798
3.40260323 0.0 -2.10292445
1.23606798 -2.0 3.23606798
1.70130162 -2.75276384 2.35114101
2.35114101 -1.70130162 2.75276384
2.75276384 -2.35114101 1.70130162
2.0 -3.23606798 1.23606798
-1.70130162 -2.75276384 2.35114101
-2.35114101 -1.70130162 2.75276384
-2.75276384 -2.35114101 1.70130162
-3.23606798 -1.23606798 2.0
-1.73555426 1.03956765 -3.45067392
-1.73555426 -1.03956765 -3.45067392
-1.70130162 2.75276384 2.35114101
-2.75276384 2.35114101 1.70130162
-2.35114101 1.70130162 2.75276384
-3.23606798 1.23606798 2.0
-1.23606798 2.0 3.23606798
0.64248814 -2.80818578 -2.77512191
2.75276384 2.35114101 1.70130162
1.70130162 2.75276384 2.35114101
2.35114101 1.70130162 2.75276384
1.23606798 2.0 3.23606798
2.77512191 0.64248814 2.80818578
1.73555426 1.03956765 3.45067392
2.10292445 0.0 3.40260323
1.03956765 -3.45067392 -1.73555426
1.70130162 -2.75276384 -2.35114101
3.80422607 0.64983939 1.05146222
3.80422607 -0.64983939 1.05146222
3.40260323 0.0 2.10292445
-0.64248814 2.80818578 -2.77512191
-2.10292445 0.0 3.40260323
-2.77512191 0.64248814 2.80818578
-2.77512191 -0.64248814 2.80818578
-3.40260323 0.0 2.10292445
1.09306612 0.0 -3.84775343
1.73555426 1.03956765 -3.45067392
0.64983939 1.05146222 -3.80422607
0.0 0.0 -4.0
1.23606798 2.0 -3.23606798
0.0 2.10292445 -3.40260323
-0.64983939 1.05146222 -3.80422607
3.5640261 -0.95470772 -1.54474954
3.36071154 -0.62573786 -2.07703396
3.65192997 -0.32929432 -1.59842821
3.65192997 0.32929432 -1.59842821
3.85544506 0.0 -1.0656188
-1.09306612 0.0 3.84775343
1.09306612 0.0 3.84775343
-1.23606798 -2.0 3.23606798
-0.95470772 -1.54474954 3.5640261
-1.73555426 -1.03956765 3.45067392
-1.41421356 -0.54018151 3.70245917
-0.64983939 -1.05146222 3.80422607
-0.32896986 -0.53228441 3.95075336
0.0 -2.10292445 3.40260323
0.64983939 -1.05146222 3.80422607
0.0 -1.0656188 3.85544506
0.95470772 -1.54474954 3.5640261
0.32896986 -0.53228441 3.95075336
1.41421356 -0.54018151 3.70245917
1.73555426 -1.03956765 3.45067392
-3.40260323 -2.10292445 0.0
-3.84775343 -1.09306612 0.0
-1.05146222 -3.80422607 0.64983939
-2.0 -3.23606798 1.23606798
-1.03956765 -3.45067392 1.73555426
0.0 -3.84775343 1.09306612
0.0 -3.40260323 2.10292445
-3.80422607 -0.64983939 1.05146222
-3.45067392 -1.73555426 1.03956765
1.05146222 -3.80422607 0.64983939
1.03956765 -3.45067392 1.73555426
-0.62573786 2.07703396 3.36071154
-0.64248814 2.80818578 2.77512191
0.0 2.82842712 2.82842712
0.0 2.10292445 3.40260323
0.64248814 2.80818578 2.77512191
0.62573786 2.07703396 3.36071154
-0.95470772 1.54474954 3.5640261
-0.32929432 1.59842821 3.65192997
-1.41421356 0.54018151 3.70245917
-1.73555426 1.03956765 3.45067392
0.62573786 -2.07703396 3.36071154
0.64248814 -2.80818578 2.77512191
0.0 -2.82842712 2.82842712
-0.64248814 -2.80818578 2.77512191
-0.62573786 -2.07703396 3.36071154
-1.8737194 -3.03174168 1.815962
-1.48699214 -2.40600382 2.82842713
-0.87403205 -3.16227766 2.28824561
-3.84775343 1.09306612 0.0
-3.45067392 1.73555426 1.03956765
-3.80422607 0.64983939 1.05146222
2.82842713 1.48699214 -2.40600382
2.28824561 0.87403205 -3.16227766
2.77512191 0.64248814 -2.80818578
2.35114101 1.70130162 -2.75276384
1.54474954 3.5640261 -0.95470772
0.54018151 3.70245917 -1.41421356
1.03956765 3.45067392 -1.73555426
0.64983939 -1.05146222 -3.80422607
2.28824561 -0.87403205 3.16227766
2.77512191 -0.64248814 2.80818578
2.82842713 -1.48699214 2.40600382
-0.64983939 -1.05146222 -3.80422607
0.30471214 -1.58610071 -3.65943097
-0.32896986 -0.53228441 -3.95075336
-0.55180897 0.0 -3.96175553
-0.88046811 -0.5311699 -3.86557039
-1.09306612 0.0 -3.84775343
-1.20503552 -1.056331 -3.6649767
-1.43291518 -0.52662148 -3.6972184
-0.32896986 0.53228441 -3.95075336
-0.88046811 0.5311699 -3.86557039
-1.43291518 0.52662148 -3.6972184
-1.20503552 1.056331 -3.6649767
-2.80818578 -2.77512191 -0.64248814
-2.80818578 -2.77512191 0.64248814
-2.10292445 -3.40260323 0.0
2.80818578 -2.77512191 -0.64248814
2.10292445 -3.40260323 0.0
2.80818578 -2.77512191 0.64248814
2.40600382 2.82842713 -1.48699214
2.05350177 2.25701685 -2.58631117
2.58631117 2.05350177 -2.25701685
2.25701685 2.58631117 -2.05350177
1.70130162 2.75276384 -2.35114101
1.815962 1.8737194 -3.03174168
1.48699214 2.40600382 -2.82842713
1.8737194 3.03174168 -1.815962
0.62573786 2.07703396 -3.36071154
0.9483453 2.4273006 -3.0346092
0.32456741 2.48095833 -3.12081748
0.64248814 2.80818578 -2.77512191
0.32434517 3.13537217 -2.46256808
1.18401837 2.80923939 -2.58964758
0.87403205 3.16227766 -2.28824561

CELLS 370 1480
3 0 1 2
3 2 1 3
3 4 5 6
3 7 4 8
3 7 5 4
3 9 10 11
3 11 10 12
3 13 14 10
3 13 15 14
3 10 14 12
3 12 14 16
3 14 15 16
3 15 17 16
3 16 17 18
3 15 19 17
3 19 20 17
3 19 2 20
3 17 20 18
3 2 19 21
3 21 19 15
3 18 20 3
3 20 2 3
3 22 23 24
3 23 25 24
3 24 25 26
3 26 27 28
3 27 29 28
3 27 30 29
3 28 29 11
3 22 24 31
3 28 11 32
3 33 23 34
3 11 29 35
3 35 29 30
3 36 37 38
3 39 40 41
3 40 42 41
3 40 8 42
3 41 42 1
3 1 42 43
3 43 42 8
3 0 41 1
3 8 40 7
3 44 45 46
3 45 47 46
3 45 33 47
3 46 47 48
3 34 47 33
3 49 45 44
3 50 51 52
3 51 53 52
3 51 54 53
3 31 53 22
3 55 56 57
3 57 56 58
3 0 59 41
3 41 59 39
3 39 60 40
3 40 60 7
3 18 61 16
3 18 62 61
3 62 63 61
3 62 64 63
3 61 63 65
3 3 62 18
3 48 66 7
3 66 5 7
3 12 67 11
3 11 67 32
3 12 68 67
3 68 69 67
3 68 70 69
3 67 69 32
3 16 68 12
3 32 69 71
3 69 72 71
3 69 70 72
3 71 72 73
3 5 74 6
3 74 34 6
3 48 75 66
3 75 74 66
3 75 34 74
3 66 74 5
3 73 72 38
3 38 72 70
3 34 75 47
3 47 75 48
3 26 76 77
3 76 78 77
3 76 32 78
3 77 78 31
3 21 79 2
3 79 0 2
3 80 81 82
3 81 83 82
3 81 64 83
3 82 83 58
3 44 84 85
3 84 86 85
3 84 87 86
3 85 86 88
3 89 0 79
3 26 77 24
3 24 77 31
3 32 76 28
3 28 76 26
3 87 84 46
3 46 84 44
3 80 82 56
3 56 82 58
3 88 86 90
3 0 89 90
3 64 81 63
3 63 81 80
3 31 78 71
3 71 78 32
3 33 91 23
3 23 91 25
3 33 92 91
3 92 93 91
3 92 49 93
3 91 93 25
3 49 94 93
3 94 95 93
3 94 27 95
3 93 95 25
3 27 94 30
3 30 94 49
3 25 95 26
3 95 27 26
3 36 96 37
3 37 97 38
3 38 97 73
3 98 99 100
3 99 101 100
3 99 102 101
3 100 101 80
3 80 101 96
3 101 103 96
3 101 102 103
3 96 103 37
3 102 99 104
3 105 106 104
3 104 106 102
3 104 107 105
3 102 106 103
3 106 108 103
3 106 105 108
3 103 108 37
3 37 108 97
3 108 109 97
3 108 105 109
3 97 109 73
3 105 107 109
3 107 110 109
3 107 50 110
3 109 110 73
3 49 92 45
3 45 92 33
3 52 110 50
3 98 100 56
3 56 100 80
3 111 112 8
3 8 112 43
3 6 113 4
3 114 113 115
3 113 116 115
3 113 6 116
3 115 116 117
3 58 118 119
3 118 112 119
3 118 43 112
3 119 112 111
3 34 120 6
3 6 120 116
3 120 121 116
3 120 54 121
3 116 121 117
3 65 122 123
3 122 124 123
3 122 125 124
3 123 124 16
3 16 124 126
3 124 127 126
3 124 125 127
3 126 127 70
3 65 128 122
3 128 129 122
3 128 36 129
3 122 129 125
3 125 129 38
3 38 129 36
3 70 127 38
3 38 127 125
3 80 130 131
3 130 128 131
3 130 36 128
3 131 128 65
3 50 132 133
3 132 134 133
3 132 104 134
3 133 134 117
3 117 134 135
3 134 136 135
3 134 104 136
3 135 136 98
3 117 121 51
3 51 121 54
3 50 133 51
3 51 133 117
3 58 119 57
3 57 119 111
3 114 137 57
3 137 55 57
3 55 138 56
3 138 98 56
3 98 138 135
3 138 139 135
3 138 55 139
3 135 139 117
3 117 139 115
3 139 137 115
3 139 55 137
3 115 137 114
3 65 123 61
3 61 123 16
3 80 131 63
3 63 131 65
3 16 126 68
3 68 126 70
3 43 118 83
3 83 118 58
3 36 130 96
3 96 130 80
3 98 136 99
3 99 136 104
3 104 132 107
3 107 132 50
3 43 140 1
3 1 140 3
3 64 141 142
3 141 140 142
3 141 3 140
3 142 140 43
3 30 143 35
3 44 144 145
3 144 143 145
3 144 146 143
3 145 143 30
3 9 147 10
3 147 13 10
3 13 148 15
3 15 148 21
3 21 148 149
3 148 147 149
3 148 13 147
3 149 147 9
3 44 145 49
3 49 145 30
3 48 150 46
3 46 150 87
3 73 151 152
3 151 153 152
3 151 52 153
3 152 153 31
3 31 153 53
3 53 153 52
3 154 155 7
3 7 155 48
3 48 155 150
3 155 156 150
3 155 154 156
3 150 156 87
3 87 156 157
3 156 158 157
3 156 154 158
3 157 158 159
3 154 160 158
3 160 161 158
3 160 60 161
3 158 161 159
3 60 160 7
3 7 160 154
3 159 161 39
3 161 60 39
3 87 157 162
3 157 163 162
3 157 159 163
3 162 163 90
3 159 164 163
3 164 165 163
3 164 59 165
3 163 165 90
3 59 164 39
3 39 164 159
3 90 165 0
3 165 59 0
3 3 141 62
3 62 141 64
3 73 152 71
3 71 152 31
3 64 142 83
3 83 142 43
3 146 144 85
3 85 144 44
3 87 162 86
3 86 162 90
3 52 151 110
3 110 151 73
3 111 166 167
3 166 168 167
3 166 4 168
3 167 168 114
3 4 166 8
3 8 166 111
3 34 169 170
3 169 171 170
3 169 22 171
3 170 171 54
3 35 172 11
3 11 172 9
3 146 173 174
3 173 175 174
3 173 176 175
3 174 175 35
3 146 177 173
3 177 178 173
3 177 88 178
3 173 178 176
3 35 175 172
3 175 179 172
3 175 176 179
3 172 179 9
3 22 169 23
3 23 169 34
3 54 171 53
3 53 171 22
3 111 167 57
3 57 167 114
3 88 180 181
3 180 182 181
3 180 89 182
3 181 182 183
3 183 182 79
3 79 182 89
3 21 184 79
3 79 184 183
3 88 177 85
3 85 177 146
3 88 181 178
3 181 185 178
3 181 183 185
3 178 185 176
3 176 185 186
3 185 184 186
3 185 183 184
3 186 184 21
3 89 180 90
3 90 180 88
3 114 168 113
3 113 168 4
3 34 170 120
3 120 170 54
3 146 174 143
3 143 174 35
3 176 186 149
3 149 186 21
3 9 179 149
3 149 179 176

CELL_TYPES 370
5
5
5
5
5
5
5
5
5
5
5
5
5
5
5
5
5
5
5
5
5
5
5
5
5
5
5
5
5
5
5
5
5
5
5
5
5
5
5
5
5
5
5
5
5
5
5
5
5
5
5
5
5
5
5
5
5
5
5
5
5
5
5
5
5
5
5
5
5
5
5
5
5
5
5
5
5
5
5
5
5
5
5
5
5
5
5
5
5
5
5
5
5
5
5
5
5
5
5
5
5
5
5
5
5
5
5
5
5
5
5
5
5
5
5
5
5
5
5
5
5
5
5
5
5
5
5
5
5
5
5
5
5
5
5
5
5
5
5
5
5
5
5
5
5
5
5
5
5
5
5
5
5
5
5
5
5
5
5
5
5
5
5
5
5
5
5
5
5
5
5
5
5
5
5
5
5
5
5
5
5
5
5
5
5
5
5
5
5
5
5
5
5
5
5
5
5
5
5
5
5
5
5
5
5
5
5
5
5
5
5
5
5
5
5
5
5
5
5
5
5
5
5
5
5
5
5
5
5
5
5
5
5
5
5
5
5
5
5
5
5
5
5
5
5
5
5
5
5
5
5
5
5
5
5
5
5
5
5
5
5
5
5
5
5
5
5
5
5
5
5
5
5
5
5
5
5
5
5
5
5
5
5
5
5
5
5
5
5
5
5
5
5
5
5
5
5
5
5
5
5
5
5
5
5
5
5
5
5
5
5
5
5
5
5
5
5
5
5
5
5
5
5
5
5
5
5
5
5
5
5
5
5
5
5
5
5
5
5
5
5
5
5
5
5
5
5
5
5
5
5
5
5
5
5
5
5
5
5
5
5
5
5
5
5
5
5
5
5
5

CELL_DATA 370
SCALARS cell_data_0 double
LOOKUP_TABLE default
5.20461986516e-06
6.92841371411e-07
2.12416017041e-06
7.7722528326e-06
8.8234676736e-06
8.98167729708e-07
1.42768383442e-06
1.1037202611e-06
4.65412923681e-07
8.2149378838e-07
2.14969440597e-06
1.5734403922e-06
1.66433939741e-06
2.49027346253e-06
3.41714122708e-07
5.26792499053e-08
7.84323020849e-07
1.21176764581e-07
5.94999549095e-08
2.79615696997e-07
1.12922274794e-07
9.04048407045e-07
1.45929047427e-06
1.88806095297e-06
9.19865004512e-07
1.08342358097e-06
1.87153594456e-06
1.48918193877e-06
9.98298028747e-07
3.10711396376e-07
3.93865148133e-07
1.25530275471e-06
1.95422493686e-07
7.31426443951e-07
2.63890985857e-06
1.62293080466e-06
1.71389224744e-06
1.90329809372e-06
8.80290135004e-07
5.99039117627e-07
2.42690856e-07
2.5067357851e-06
3.89883314355e-06
1.80871022891e-06
2.92332739005e-06
2.58768785609e-06
1.93543614028e-06
2.01266206325e-06
1.38557286878e-06
5.01534610737e-07
8.49746129309e-07
3.96515033602e-07
5.28436031363e-07
6.72275674671e-07
1.03042112685e-06
2.74392423976e-06
1.87903073441e-06
1.68597254711e-06
2.11127140798e-06
1.82908516591e-06
6.9698836227e-08
2.55493831861e-07
2.17952402619e-07
1.01816271906e-06
8.96470701404e-07
1.38117484744e-06
2.00909470947e-06
1.99665100183e-06
1.85099295191e-06
1.54293138606e-06
2.32918936597e-06
2.32384143051e-06
1.57053660283e-06
2.91286041429e-06
1.47655939409e-06
2.07489445319e-06
1.94642141938e-06
1.92480459437e-06
7.1921539531e-07
1.68905864699e-06
1.03064486601e-07
2.52497565192e-07
2.40843296328e-07
1.22487379498e-07
2.18775766887e-06
1.99073017002e-06
5.85707772215e-07
1.17201626555e-06
9.84459997266e-07
1.43146511258e-06
1.02148729742e-06
1.42442274189e-06
5.62436068754e-07
2.64737640914e-06
3.28333071489e-07
8.99351157424e-07
2.31674375284e-07
1.87748064745e-07
2.66406044057e-06
4.43053156093e-06
2.85003037761e-06
4.07626429369e-06
3.11244853198e-06
3.32918393511e-08
5.03067420318e-07
1.55375270054e-08
7.72382552785e-09
2.20647899645e-06
2.22406039979e-06
8.67185265666e-07
5.28156686912e-07
2.7658895656e-06
3.45807174692e-06
1.0558598293e-07
8.5341557343e-07
1.76721765219e-06
1.20255904045e-06
1.32019872426e-06
1.21310633852e-06
9.87442872932e-07
1.18276948708e-06
9.38776680223e-07
8.87706749489e-07
9.02278949795e-07
1.12446650698e-06
9.47881849489e-07
9.14569853008e-07
1.24060313543e-06
1.13808479568e-06
8.12725701609e-07
8.98133091428e-07
1.75670251609e-06
1.77348202297e-06
1.88506176943e-06
8.25298605105e-07
8.05627056336e-07
6.74778719776e-07
8.25725582798e-07
6.6473981927e-07
5.85385591732e-07
6.65473534557e-07
6.39699595257e-07
7.36104492903e-07
6.39262016107e-07
6.89351833629e-07
6.24136752395e-07
3.3615520928e-07
3.81300063545e-07
2.69041389838e-07
4.38284463e-07
5.94051852652e-07
5.03680859945e-07
5.32846824216e-07
5.91669670691e-07
5.60196671669e-07
6.86091164434e-07
6.79688877142e-07
7.43595855361e-07
1.42841943623e-06
1.49517433579e-06
9.74062430246e-07
1.34919709519e-06
1.54276172175e-06
1.8005428262e-08
5.8270475333e-07
1.05724553976e-06
1.33898669994e-06
9.0771823244e-07
1.24177447477e-07
6.4648186528e-08
8.39987153978e-08
1.01341627225e-06
2.58378399631e-07
7.04819700648e-07
1.23692135817e-06
2.8740486477e-07
1.0920588706e-06
5.34686691332e-07
4.51075578569e-08
2.89055933056e-07
2.30763826277e-07
2.47295325589e-08
2.08358908898e-08
1.45189311934e-08
2.0904487089e-07
4.55467985084e-08
2.5577225472e-07
2.41726017803e-07
7.14386899326e-08
3.74359154107e-07
9.56423567797e-08
9.34595851644e-07
1.20525753505e-06
9.43228177668e-07
7.94517118602e-07
4.96783699323e-07
2.09566006095e-07
6.87471281825e-07
4.86677414815e-07
4.25686349655e-07
2.23872422315e-07
3.65166383263e-07
3.47408884116e-07
5.53221486443e-07
4.90073188859e-07
4.18801966791e-07
7.00394557138e-07
3.66691086646e-07
3.1194222458e-07
4.9101460333e-07
6.98165718487e-07
2.84977671412e-07
3.22041962833e-07
2.80696265082e-07
2.49419773168e-07
6.1792974932e-07
8.53238043395e-07
7.91097463927e-07
7.90687663161e-07
6.98812168711e-07
7.48222395643e-07
4.7860687825e-07
2.63168163208e-07
4.66765903946e-07
5.16252412944e-07
5.69118390772e-07
3.42410026921e-07
1.12514414758e-06
9.61554793036e-07
1.20209107566e-06
1.28810759137e-06
1.05741995291e-07
2.13758167345e-07
6.52270540643e-07
5.23237466821e-07
4.38302347162e-07
3.75305017611e-07
3.13063136816e-07
3.46372908108e-07
1.13475318134e-06
8.25667744925e-07
9.4665566422e-07
9.90595789589e-07
7.87587682856e-07
6.80324004567e-07
2.05362071284e-07
8.18366039023e-08
4.8198790707e-08
3.26324735026e-07
1.66509595215e-07
3.40654622233e-07
7.33843254496e-09
4.45931990233e-07
9.03490208917e-07
8.6987921387e-07
1.12711763518e-06
4.36145660562e-07
9.61626649412e-07
3.41091601562e-07
6.41858612993e-07
8.49515362447e-07
7.41857072762e-07
9.59669746788e-07
9.29041473427e-07
6.8445684965e-07
7.97773206739e-07
4.74288369047e-07
1.99205134606e-07
2.66750858996e-06
1.0240623866e-06
9.08040466115e-08
4.62729145365e-08
6.3883900602e-07
7.56370770313e-08
3.87853418015e-08
8.86145401771e-09
2.99805776836e-07
3.15180174969e-08
2.86560418549e-07
1.79714037603e-08
3.60509790015e-09
4.06593886638e-08
4.69310206669e-07
1.13882042341e-06
3.25257813077e-07
2.72439974857e-07
4.32645515703e-08
1.91839270494e-08
1.51018977573e-08
1.35349147438e-08
1.00301613257e-07
1.86993364619e-07
6.14541911797e-07
1.32258622358e-07
1.16915214629e-06
5.09575247872e-07
1.01317598857e-06
1.8896113625e-06
4.63702655948e-07
5.29452854998e-07
1.90057980612e-06
1.97072341301e-06
4.51939723595e-07
6.11476566235e-07
9.52146760019e-07
7.29864645787e-07
8.07005624001e-07
7.30447935276e-07
5.96087019795e-07
8.77399165814e-07
8.84512957289e-08
1.68564945337e-07
1.19426618722e-06
4.12836401591e-07
1.86993119569e-06
1.46090021399e-07
1.33767079376e-07
4.27429844607e-07
1.124497322e-07
6.90188137828e-07
3.81259056208e-07
2.32468745854e-07
1.54094284806e-07
2.69194163667e-08
4.75011219398e-08
3.66512802878e-08
1.4392746601e-07
1.98020861823e-08
3.09364076461e-07
3.39030840228e-09
4.78100079101e-08
8.70074106876e-08
7.98218296612e-08
2.71161218785e-08
9.948449114e-07
4.93979213388e-07
2.04752005908e-07
6.47722260672e-09
3.73375331067e-07
3.25949289229e-07
2.47930205256e-07
4.56811661536e-09
3.34878140472e-07
2.99981641386e-07
6.97057948332e-07
7.70399125758e-07
1.86009783661e-07
5.89557708538e-07
1.16454378182e-06
8.32329571378e-07
2.55176490891e-07
9.21154380974e-09
2.7943567414e-07
5.7822510904e-10
2.46806312948e-08
1.72479077911e-08
2.64173276057e-07
4.823155933e-08
7.38538776412e-07
4.74827413011e-07
1.03647931571e-06
1.40934469535e-06
1.98233213065e-07
4.08060737527e-08
1.79508033105e-07
1.28980173086e-08
3.11034612732e-07
5.09622788841e-07
4.46769718016e-07
2.53424803425e-07

