# vtk DataFile Version 3.0
File Name: Molecule/sphere_excent/sphere_excent_0-s8.vtk
ASCII
DATASET UNSTRUCTURED_GRID
FIELD FieldData 1
TIME 1 1 double
0.0
POINTS 83 double
0.85065081 -0.52573111 0.0
0.80901699 -0.30901699 -0.5
1.0 0.0 0.0
0.80901699 0.30901699 -0.5
0.52573111 0.0 -0.85065081
0.85065081 0.52573111 0.0
0.5 0.80901699 -0.30901699
0.30901699 0.5 -0.80901699
0.0 0.85065081 -0.52573111
0.5 0.80901699 0.30901699
0.0 1.0 0.0
-0.5 0.80901699 -0.30901699
-0.5 0.80901699 0.30901699
-0.85065081 0.52573111 0.0
-0.80901699 0.30901699 0.5
0.30901699 -0.5 0.80901699
0.5 -0.80901699 0.30901699
0.80901699 -0.30901699 0.5
0.0 -0.85065081 0.52573111
0.30901699 -0.5 -0.80901699
0.0 0.0 -1.0
-0.30901699 -0.5 -0.80901699
0.0 -0.85065081 -0.52573111
-0.52573111 0.0 -0.85065081
0.80901699 0.30901699 0.5
-0.80901699 -0.30901699 -0.5
-0.80901699 0.30901699 -0.5
-1.0 0.0 0.0
-0.85065081 -0.52573111 0.0
-0.30901699 0.5 -0.80901699
-0.5 -0.80901699 -0.30901699
-0.5 -0.80901699 0.30901699
0.0 -1.0 0.0
-0.80901699 -0.30901699 0.5
0.5 -0.80901699 -0.30901699
-0.52573111 0.0 0.85065081
-0.43388856 -0.25989191 0.86266848
-0.27326653 0.0 0.96193836
0.43388856 0.25989191 0.86266848
0.27326653 0.0 0.96193836
0.52573111 0.0 0.85065081
-0.25989191 0.86266848 0.43388856
0.0 0.85065081 0.52573111
-0.16062203 0.70204645 0.69378048
-0.4253254 0.68819096 0.58778525
-0.30901699 0.5 0.80901699
0.30901699 0.5 0.80901699
-0.13795224 0.0 0.99043888
-0.22011703 -0.13279248 0.9663926
-0.16245985 -0.26286556 0.95105652
-0.08224247 -0.13307111 0.98768834
0.69378048 -0.16062203 0.70204645
0.85065081 0.0 0.52573111
0.69378048 0.16062203 0.70204645
0.08224247 0.13307111 0.98768834
0.16245985 0.26286556 0.95105652
0.22011703 0.13279248 0.9663926
0.13795224 0.0 0.99043888
-0.58778525 0.4253254 0.68819096
-0.43388856 0.25989191 0.86266848
-0.69378048 0.16062203 0.70204645
-0.30901699 -0.5 0.80901699
-0.16062203 -0.70204645 0.69378048
-0.25989191 -0.86266848 0.43388856
-0.4253254 -0.68819096 0.58778525
0.25989191 0.86266848 0.43388856
0.68819096 0.58778525 0.4253254
0.4253254 0.68819096 0.58778525
0.58778525 0.4253254 0.68819096
0.16062203 0.70204645 0.69378048
-0.37503856 -0.38361373 0.84391148
-0.30125888 -0.26408275 0.91624418
-0.23867693 -0.38618739 0.89100652
0.23867693 0.38618739 0.89100652
0.37503856 0.38361373 0.84391148
0.30125888 0.26408275 0.91624418
-0.06914159 0.0 0.99760686
0.0 0.0 1.0
-0.11038499 -0.06670938 0.99164762
-0.04124839 -0.0667413 0.99691733
0.04124839 0.0667413 0.99691733
0.11038499 0.06670938 0.99164762
0.06914159 0.0 0.99760686

CELLS 162 648
3 0 1 2
3 1 3 2
3 1 4 3
3 2 3 5
3 5 3 6
3 3 7 6
3 3 4 7
3 6 7 8
3 5 6 9
3 6 10 9
3 6 8 10
3 10 11 12
3 10 8 11
3 12 11 13
3 12 13 14
3 15 16 17
3 15 18 16
3 17 16 0
3 4 19 20
3 19 21 20
3 19 22 21
3 20 21 23
3 0 2 17
3 2 5 24
3 23 25 26
3 25 27 26
3 25 28 27
3 26 27 13
3 8 29 11
3 29 26 11
3 29 23 26
3 11 26 13
3 28 30 31
3 30 32 31
3 30 22 32
3 28 31 33
3 14 27 33
3 14 13 27
3 33 27 28
3 23 21 25
3 21 30 25
3 21 22 30
3 25 30 28
3 22 34 32
3 34 16 32
3 34 0 16
3 32 16 18
3 4 1 19
3 1 34 19
3 1 0 34
3 19 34 22
3 4 20 7
3 20 29 7
3 20 23 29
3 7 29 8
3 35 36 37
3 33 36 35
3 38 39 40
3 40 39 15
3 12 41 10
3 10 41 42
3 42 41 43
3 41 44 43
3 41 12 44
3 43 44 45
3 14 44 12
3 43 45 46
3 37 47 45
3 36 48 37
3 37 48 47
3 48 49 50
3 50 49 15
3 17 51 15
3 15 51 40
3 24 52 2
3 2 52 17
3 17 52 51
3 52 53 51
3 52 24 53
3 51 53 40
3 54 55 45
3 56 39 38
3 55 54 56
3 56 57 39
3 39 57 15
3 40 53 38
3 38 53 24
3 45 58 59
3 58 60 59
3 58 14 60
3 59 60 35
3 61 62 15
3 62 18 15
3 18 63 32
3 32 63 31
3 31 64 33
3 64 61 33
3 31 63 64
3 63 62 64
3 63 18 62
3 64 62 61
3 35 60 33
3 60 14 33
3 45 59 37
3 37 59 35
3 14 58 44
3 44 58 45
3 42 65 10
3 10 65 9
3 9 66 5
3 5 66 24
3 9 67 66
3 67 68 66
3 67 46 68
3 66 68 24
3 9 65 67
3 65 69 67
3 65 42 69
3 67 69 46
3 36 70 71
3 70 72 71
3 70 61 72
3 71 72 49
3 49 72 15
3 15 72 61
3 61 70 33
3 70 36 33
3 24 68 38
3 46 69 43
3 43 69 42
3 36 71 48
3 48 71 49
3 55 73 45
3 45 73 46
3 46 73 74
3 73 75 74
3 73 55 75
3 74 75 38
3 47 76 45
3 45 76 77
3 50 78 48
3 48 78 47
3 47 78 76
3 78 79 76
3 78 50 79
3 76 79 77
3 77 79 15
3 79 50 15
3 77 80 45
3 80 54 45
3 38 75 56
3 56 75 55
3 54 81 56
3 81 57 56
3 54 80 81
3 80 82 81
3 80 77 82
3 81 82 57
3 57 82 15
3 15 82 77
3 46 74 68
3 68 74 38

CELL_TYPES 162
5
5
5
5
5
5
5
5
5
5
5
5
5
5
5
5
5
5
5
5
5
5
5
5
5
5
5
5
5
5
5
5
5
5
5
5
5
5
5
5
5
5
5
5
5
5
5
5
5
5
5
5
5
5
5
5
5
5
5
5
5
5
5
5
5
5
5
5
5
5
5
5
5
5
5
5
5
5
5
5
5
5
5
5
5
5
5
5
5
5
5
5
5
5
5
5
5
5
5
5
5
5
5
5
5
5
5
5
5
5
5
5
5
5
5
5
5
5
5
5
5
5
5
5
5
5
5
5
5
5
5
5
5
5
5
5
5
5
5
5
5
5
5
5
5
5
5
5
5
5
5
5
5
5
5
5
5
5
5
5
5
5

CELL_DATA 162
SCALARS cell_data_0 double
LOOKUP_TABLE default
6.77663578707e-07
5.67532838998e-07
1.34759267571e-07
4.90243048847e-07
1.635029081e-07
2.48472734012e-07
4.08866299193e-08
1.21283489307e-07
2.14413770135e-06
4.15623991412e-07
7.92356340026e-07
2.54806830737e-06
1.58149749023e-07
4.65794404892e-07
3.95145701356e-06
5.95172839791e-06
7.84797120981e-06
4.93916299369e-07
5.50849969706e-08
9.58062556964e-09
4.69083702095e-08
3.89250555374e-08
3.04190100406e-06
2.80597460786e-06
1.5166084772e-08
4.24457348669e-07
1.55198764937e-08
1.9679586825e-08
2.78646212539e-07
2.26073268957e-08
2.01865396141e-07
3.33578578262e-07
2.33979089112e-06
7.18250893179e-07
8.85932090287e-07
4.77746986945e-07
3.71250556486e-06
1.0139218062e-06
1.23476237192e-06
1.24024843955e-07
1.29576234681e-08
1.50322167347e-07
2.06008306244e-07
3.63875096507e-07
3.52888707285e-07
8.62217716534e-07
1.09312237253e-07
1.08142123387e-07
2.20836730497e-07
2.87315208395e-07
1.51643234755e-07
4.8019540005e-08
3.51014542664e-08
4.2275336822e-08
5.3969907511e-08
3.8781554118e-06
1.13426853006e-07
7.1638741347e-06
1.07350293607e-06
7.10441457841e-07
7.66205076106e-08
1.22605112337e-06
5.55180377454e-07
6.41726525562e-07
7.21749744515e-06
1.16730343139e-06
6.39185450445e-06
3.11603624637e-06
6.08660736758e-08
3.61710634266e-06
4.0298466167e-06
1.7061324346e-06
3.98787044982e-06
1.82610504513e-07
1.65868467209e-06
4.12385653189e-07
1.29077228523e-06
2.58882040502e-07
3.16082333557e-07
3.4041599575e-06
2.07269686644e-06
1.48883917268e-06
4.12097500577e-06
3.52521018031e-06
3.65105318227e-06
3.3235627641e-06
1.65933029067e-07
5.17563402557e-06
5.26059192283e-07
1.31760214288e-06
1.7023367254e-06
2.45056400405e-06
8.39610531728e-06
7.74358002298e-07
1.0066427963e-09
1.03315693772e-06
5.46131235833e-06
6.63205166749e-07
5.90815608754e-07
7.90858876509e-07
4.18647754712e-06
3.21105874125e-07
3.36434624384e-07
1.57931283994e-06
8.38912208167e-07
9.17128763273e-07
5.06759078911e-06
8.40932933904e-07
7.23772972889e-08
8.63273706271e-07
5.57349931042e-07
1.97808218651e-07
3.00701219311e-07
3.45299347454e-06
5.49616337415e-07
2.89644826611e-07
1.53116561101e-08
3.00753092877e-07
3.52169011472e-06
8.55196179317e-08
6.87752278792e-07
2.48864563132e-06
2.57823391591e-06
3.74090559316e-06
3.52659331819e-06
2.36252353504e-06
3.88866173073e-06
1.76160704273e-06
1.45400229911e-06
3.60893252342e-07
5.32031119494e-07
8.37770223875e-07
3.93928763457e-06
3.39327266786e-06
2.25030053023e-06
7.17620845795e-07
2.89897024862e-06
3.26101891682e-07
6.4090565158e-07
1.84719090314e-06
2.30470770238e-07
3.36865864396e-07
1.07358156244e-06
1.07228110306e-06
1.08780019573e-06
3.39984335629e-06
1.45542286513e-06
1.10687958459e-06
1.24041562116e-06
1.09498217903e-06
7.02382830276e-07
9.00663781592e-07
2.64484702059e-07
3.73054011212e-07
1.17444738809e-06
1.12753895535e-06
3.41222901548e-06
9.66897471959e-07
5.41192390581e-07
1.58968339985e-06
1.07456734967e-06
5.30904206541e-08

