# vtk DataFile Version 3.0
File Name: Molecule/sphere_excent/sphere_excent_0-s19.vtk
ASCII
DATASET UNSTRUCTURED_GRID
FIELD FieldData 1
TIME 1 1 double
0.0
POINTS 417 double
-1.70130162 -2.75276384 2.35114101
-2.35114101 -1.70130162 2.75276384
-2.75276384 -2.35114101 1.70130162
-3.23606798 -1.23606798 2.0
-2.75276384 2.35114101 1.70130162
-2.35114101 1.70130162 2.75276384
-1.70130162 2.75276384 2.35114101
-3.23606798 1.23606798 2.0
-1.23606798 2.0 3.23606798
3.40260323 2.10292445 0.0
2.75276384 2.35114101 1.70130162
3.23606798 1.23606798 2.0
2.35114101 1.70130162 2.75276384
2.77512191 0.64248814 2.80818578
1.73555426 1.03956765 3.45067392
1.23606798 2.0 3.23606798
-2.77512191 -0.64248814 2.80818578
-2.77512191 0.64248814 2.80818578
3.23606798 -1.23606798 2.0
3.40260323 0.0 2.10292445
3.36071154 -0.62573786 -2.07703396
3.65192997 -0.32929432 -1.59842821
3.5640261 -0.95470772 -1.54474954
3.80422607 -0.64983939 -1.05146222
3.40260323 0.0 -2.10292445
3.65192997 0.32929432 -1.59842821
3.85544506 0.0 -1.0656188
3.80422607 0.64983939 -1.05146222
4.0 0.0 0.0
-1.23606798 -2.0 3.23606798
-0.95470772 -1.54474954 3.5640261
-1.73555426 -1.03956765 3.45067392
-1.41421356 -0.54018151 3.70245917
-0.64983939 -1.05146222 3.80422607
0.0 -2.10292445 3.40260323
0.64983939 -1.05146222 3.80422607
0.0 -1.0656188 3.85544506
0.95470772 -1.54474954 3.5640261
-0.32896986 -0.53228441 3.95075336
0.32896986 -0.53228441 3.95075336
0.0 0.0 4.0
1.41421356 -0.54018151 3.70245917
1.73555426 -1.03956765 3.45067392
2.10292445 0.0 3.40260323
-0.62573786 2.07703396 3.36071154
-0.64248814 2.80818578 2.77512191
0.0 2.82842712 2.82842712
0.0 2.10292445 3.40260323
0.0 3.40260323 2.10292445
0.64248814 2.80818578 2.77512191
0.62573786 2.07703396 3.36071154
-0.95470772 1.54474954 3.5640261
-0.32929432 1.59842821 3.65192997
-0.64983939 1.05146222 3.80422607
0.64983939 1.05146222 3.80422607
-1.41421356 0.54018151 3.70245917
-1.73555426 1.03956765 3.45067392
1.23606798 -2.0 3.23606798
0.62573786 -2.07703396 3.36071154
0.64248814 -2.80818578 2.77512191
0.0 -2.82842712 2.82842712
0.0 -3.40260323 2.10292445
-0.64248814 -2.80818578 2.77512191
-0.62573786 -2.07703396 3.36071154
1.70130162 -2.75276384 2.35114101
-3.45067392 -1.73555426 1.03956765
-3.40260323 -2.10292445 0.0
-2.0 -3.23606798 1.23606798
-1.8737194 -3.03174168 1.815962
-1.48699214 -2.40600382 2.82842713
-0.87403205 -3.16227766 2.28824561
-1.03956765 -3.45067392 1.73555426
1.70130162 2.75276384 2.35114101
-1.09306612 0.0 3.84775343
-2.10292445 0.0 3.40260323
-3.45067392 1.73555426 1.03956765
-3.80422607 0.64983939 1.05146222
-3.84775343 1.09306612 0.0
-3.40260323 2.10292445 0.0
2.10292445 0.0 -3.40260323
2.28824561 0.87403205 -3.16227766
2.77512191 0.64248814 -2.80818578
2.82842713 1.48699214 -2.40600382
2.35114101 1.70130162 -2.75276384
1.05146222 3.80422607 -0.64983939
0.54018151 3.70245917 -1.41421356
0.0 4.0 0.0
0.0 3.40260323 -2.10292445
1.03956765 3.45067392 -1.73555426
1.54474954 3.5640261 -0.95470772
2.0 3.23606798 -1.23606798
2.28824561 -0.87403205 3.16227766
2.77512191 -0.64248814 2.80818578
2.82842713 -1.48699214 2.40600382
2.35114101 -1.70130162 2.75276384
0.30471214 -1.58610071 -3.65943097
-0.32896986 -0.53228441 -3.95075336
0.64983939 -1.05146222 -3.80422607
-0.64983939 -1.05146222 -3.80422607
0.0 0.0 -4.0
-0.55180897 0.0 -3.96175553
-0.88046811 -0.5311699 -3.86557039
-1.09306612 0.0 -3.84775343
-1.20503552 -1.056331 -3.6649767
-1.43291518 -0.52662148 -3.6972184
-1.73555426 -1.03956765 -3.45067392
-1.23606798 -2.0 -3.23606798
-0.32896986 0.53228441 -3.95075336
-0.88046811 0.5311699 -3.86557039
-0.64983939 1.05146222 -3.80422607
-1.43291518 0.52662148 -3.6972184
-1.20503552 1.056331 -3.6649767
-1.73555426 1.03956765 -3.45067392
1.73555426 1.03956765 -3.45067392
0.64983939 1.05146222 -3.80422607
-2.80818578 -2.77512191 -0.64248814
-2.10292445 -3.40260323 0.0
-2.80818578 -2.77512191 0.64248814
-2.0 -3.23606798 -1.23606798
2.0 -3.23606798 -1.23606798
2.80818578 -2.77512191 -0.64248814
2.10292445 -3.40260323 0.0
2.80818578 -2.77512191 0.64248814
3.40260323 -2.10292445 0.0
2.0 -3.23606798 1.23606798
2.05350177 2.25701685 -2.58631117
2.58631117 2.05350177 -2.25701685
2.25701685 2.58631117 -2.05350177
1.70130162 2.75276384 -2.35114101
2.75276384 2.35114101 -1.70130162
1.815962 1.8737194 -3.03174168
1.48699214 2.40600382 -2.82842713
1.23606798 2.0 -3.23606798
2.40600382 2.82842713 -1.48699214
1.8737194 3.03174168 -1.815962
0.62573786 2.07703396 -3.36071154
0.32456741 2.48095833 -3.12081748
0.9483453 2.4273006 -3.0346092
0.0 2.10292445 -3.40260323
0.64248814 2.80818578 -2.77512191
-0.64248814 2.80818578 -2.77512191
0.32434517 3.13537217 -2.46256808
1.18401837 2.80923939 -2.58964758
0.87403205 3.16227766 -2.28824561
-1.05146222 -3.80422607 0.64983939
1.05146222 -3.80422607 0.64983939
-2.35114101 1.70130162 -2.75276384
-2.75276384 2.35114101 -1.70130162
-1.70130162 2.75276384 -2.35114101
-3.23606798 1.23606798 -2.0
-1.70130162 -2.75276384 -2.35114101
-2.35114101 -1.70130162 -2.75276384
-2.75276384 -2.35114101 -1.70130162
-3.23606798 -1.23606798 -2.0
-0.64248814 -2.80818578 -2.77512191
-1.03956765 -3.45067392 -1.73555426
0.0 -3.40260323 -2.10292445
-3.0346092 -0.9483453 -2.4273006
-2.07821484 -1.36908454 -3.13155403
-2.77512191 -0.64248814 -2.80818578
1.43291518 0.52662148 -3.6972184
1.09306612 0.0 -3.84775343
0.88046811 0.5311699 -3.86557039
1.20503552 1.056331 -3.6649767
1.50015427 1.53445493 -3.3756459
0.95470772 1.54474954 -3.5640261
-3.12081748 -0.32456741 -2.48095833
-2.81162812 0.0 -2.84512694
-3.12081748 0.32456741 -2.48095833
-3.40260323 0.0 -2.10292445
-2.77512191 0.64248814 -2.80818578
2.46256808 -0.32434517 -3.13537217
1.93776657 -0.52480151 -3.45971734
2.28500664 -0.85209146 -3.17059692
2.77512191 -0.64248814 -2.80818578
1.73555426 -1.03956765 -3.45067392
2.58964758 -1.18401837 -2.80923939
2.06448648 -1.38461206 -3.13380679
2.35114101 -1.70130162 -2.75276384
1.50015427 -1.53445493 -3.3756459
1.815962 -1.8737194 -3.03174168
1.23606798 -2.0 -3.23606798
0.9483453 -2.4273006 -3.0346092
0.0 -2.10292445 -3.40260323
-0.30753628 -2.49114186 -3.11442349
0.64248814 -2.80818578 -2.77512191
1.48699214 -2.40600382 -2.82842713
1.18401837 -2.80923939 -2.58964758
1.70130162 -2.75276384 -2.35114101
2.05350177 -2.25701685 -2.58631117
-0.62573786 2.07703396 -3.36071154
0.55180897 0.0 -3.96175553
0.89919817 -0.5386045 -3.8602264
1.43291518 -0.52662148 -3.6972184
1.6134214 0.0 -3.66017368
-1.23606798 2.0 -3.23606798
-0.95470772 1.54474954 -3.5640261
-0.32929432 1.59842821 -3.65192997
-0.47591828 -1.83247993 -3.52356625
0.77782696 -1.81035942 -3.48103203
2.0 3.23606798 1.23606798
1.54474954 3.5640261 0.95470772
1.03956765 3.45067392 1.73555426
0.54018151 3.70245917 1.41421356
1.05146222 3.80422607 0.64983939
3.03174168 -1.815962 1.8737194
3.45067392 -1.73555426 1.03956765
3.16227766 -2.28824561 0.87403205
2.75276384 -2.35114101 1.70130162
-2.0 3.23606798 1.23606798
-1.8737194 3.03174168 1.815962
-1.03956765 3.45067392 1.73555426
-0.87403205 3.16227766 2.28824561
0.52480151 -3.45971734 -1.93776657
0.0 -3.84775343 -1.09306612
0.5386045 -3.8602264 -0.89919817
1.03956765 -3.45067392 -1.73555426
0.0 -4.0 0.0
1.53445493 -3.3756459 -1.50015427
1.05146222 -3.80422607 -0.64983939
1.8737194 -3.03174168 -1.815962
1.38461206 -3.13380679 -2.06448648
0.85209146 -3.17059692 -2.28500664
0.32434517 -3.13537217 -2.46256808
-0.32434517 3.13537217 -2.46256808
-1.36908454 3.13155403 -2.07821484
-1.03956765 3.45067392 -1.73555426
-0.53228441 -3.95075336 0.32896986
-1.05146222 -3.80422607 -0.64983939
-1.58610071 -3.65943097 -0.30471214
0.0 -3.84775343 1.09306612
-2.0 3.23606798 -1.23606798
-0.53228441 3.95075336 0.32896986
0.0 3.84775343 1.09306612
-0.54018151 3.70245917 1.41421356
-1.05146222 3.80422607 0.64983939
3.86557039 0.88046811 -0.5311699
3.6649767 1.20503552 -1.056331
3.6972184 1.43291518 -0.52662148
3.45067392 1.73555426 -1.03956765
3.84775343 1.09306612 0.0
3.5640261 0.95470772 -1.54474954
3.3756459 1.50015427 -1.53445493
3.23606798 1.23606798 -2.0
3.66017368 1.6134214 0.0
3.45971734 1.93776657 -0.52480151
3.23606798 -1.23606798 -2.0
3.3756459 -1.50015427 -1.53445493
2.75276384 -2.35114101 -1.70130162
2.82401774 -2.57581899 -1.17901667
3.45067392 -1.73555426 -1.03956765
3.16227766 2.28824561 -0.87403205
3.13380679 2.06448648 -1.38461206
3.03174168 1.815962 -1.8737194
2.26165272 -2.56636486 -2.07333026
2.82842713 -1.48699214 -2.40600382
-1.50015427 1.53445493 -3.3756459
-2.07821484 1.36908454 -3.13155403
-2.28500664 0.85209146 -3.17059692
-2.46256808 0.32434517 -3.13537217
-1.93776657 0.52480151 -3.45971734
-2.10292445 0.0 -3.40260323
-1.815962 1.8737194 -3.03174168
-2.58964758 1.18401837 -2.80923939
1.0656188 3.85544506 0.0
1.59842821 3.65192997 -0.32929432
1.59842821 3.65192997 0.32929432
2.10292445 3.40260323 0.0
-1.05146222 3.80422607 -0.64983939
-1.59842821 3.65192997 -0.32929432
-1.0656188 3.85544506 0.0
-1.59842821 3.65192997 0.32929432
-2.10292445 3.40260323 0.0
-1.54474954 3.5640261 -0.95470772
-2.07703396 3.36071154 -0.62573786
-1.54474954 3.5640261 0.95470772
-2.07703396 3.36071154 0.62573786
-0.54018151 3.70245917 -1.41421356
0.0 3.84775343 -1.09306612
-0.53228441 3.95075336 -0.32896986
-2.80818578 2.77512191 0.64248814
-2.82842712 2.82842712 0.0
-2.80818578 2.77512191 -0.64248814
-0.32896986 0.53228441 3.95075336
0.0 1.0656188 3.85544506
0.32896986 0.53228441 3.95075336
1.93776657 0.52480151 3.45971734
1.41421356 0.54018151 3.70245917
1.20503552 1.056331 3.6649767
0.55180897 0.0 3.96175553
0.88046811 0.5311699 3.86557039
1.09306612 0.0 3.84775343
1.6134214 0.0 3.66017368
-0.52480151 3.45971734 -1.93776657
-1.056331 3.6649767 -1.20503552
-1.53445493 3.3756459 -1.50015427
-3.36071154 0.62573786 -2.07703396
-3.80422607 0.64983939 -1.05146222
-3.84775343 0.0 -1.09306612
-4.0 0.0 0.0
-3.80422607 -0.64983939 -1.05146222
-3.36071154 -0.62573786 -2.07703396
-1.93776657 -0.52480151 -3.45971734
-2.46256808 -0.32434517 -3.13537217
-2.28500664 -0.85209146 -3.17059692
3.95075336 0.32896986 0.53228441
[...]
CELL_DATA 830
SCALARS cell_data_0 double
LOOKUP_TABLE default
1.27442473744e-06
2.18590028985e-07
2.18263022287e-06
1.9269187079e-06
2.25263799652e-06
9.62769928843e-07
1.01575178736e-06
1.90451094137e-06
1.88667931027e-06
9.79747645072e-07
1.80887484339e-06
1.29449752659e-06
2.15794063549e-07
1.35202307969e-07
1.5531833381e-07
2.18125121637e-07
1.80222091162e-07
1.0540170734e-07
1.379853602e-07
7.03539644631e-07
1.05899021011e-06
1.17043819487e-06
1.04604400615e-06
9.38715656839e-07
7.2315542058e-07
8.55311183638e-07
5.92907292884e-07
5.93042481809e-07
6.44273573539e-07
4.20339650189e-07
6.85194852951e-07
7.46813148035e-07
1.00177157034e-06
8.87013618769e-07
9.44211073496e-07
9.82354042963e-07
7.83080408858e-07
6.34758025746e-07
6.64256657396e-07
1.01609235651e-06
7.99144946755e-07
9.73679683395e-07
5.88789697049e-07
6.25793565888e-07
5.08562756746e-07
4.6032690062e-07
7.76810211939e-07
1.05261374874e-06
7.62487320438e-07
1.14581514022e-06
9.45042482138e-07
1.03642836226e-06
9.81392627076e-07
1.02518067479e-06
8.3429315383e-07
7.14595704001e-07
7.13865593792e-07
1.01526039615e-06
8.14416621168e-07
9.77759862986e-07
1.58116980144e-06
1.11656839165e-06
1.79166788828e-07
4.05267672354e-07
1.13910846658e-07
6.05809577016e-07
8.62226014016e-07
1.03947982748e-06
9.34980835006e-07
8.18944523523e-07
6.31213921572e-07
4.970754258e-07
5.0488399131e-07
5.5631709169e-07
1.13454265473e-07
1.80157117255e-06
1.39211054597e-06
1.82123562662e-06
1.06473198205e-06
1.0285383093e-06
5.92853055232e-07
5.40068845879e-07
4.71861024358e-07
5.50773951519e-07
1.20437897788e-06
7.25725877153e-07
2.74948802577e-07
5.19222951466e-07
1.06479424237e-07
6.08022291495e-07
9.51678533782e-07
2.37004170475e-07
9.73944964349e-08
2.43612780539e-07
3.16212413042e-07
8.07581888071e-07
8.90005939237e-07
6.92305008473e-07
7.55378129546e-07
1.01093289445e-07
8.36776248192e-07
7.96941761335e-07
3.28949839447e-07
2.03818850418e-08
3.64877195939e-07
2.80400906609e-07
3.2819447092e-07
1.76933985041e-08
1.2764100283e-07
8.52863802699e-07
3.02144047435e-07
1.56380069668e-08
2.99319801669e-07
3.27408815878e-08
4.42665834185e-08
3.9115978805e-08
3.90332408705e-08
1.35258957151e-06
1.56923256373e-06
1.83859372667e-06
5.51368258107e-07
4.26971760931e-07
6.40953940641e-07
5.40793482738e-10
8.54778805542e-07
8.63625124129e-07
1.83454270631e-07
2.07750912139e-07
1.4239473103e-07
9.97640542806e-07
3.64661171256e-07
9.50507179261e-07
2.64485227055e-07
7.66208198408e-08
2.12987247692e-07
2.22462184203e-07
2.85179175587e-07
3.45604241084e-08
2.56439020394e-07
2.23238907647e-07
1.84281653197e-07
1.05978548674e-07
1.87017768467e-07
1.56528202983e-07
2.76113482895e-07
4.15884384674e-08
1.9949581589e-09
4.74155934629e-09
1.90103280739e-08
1.17570125964e-07
8.97884781098e-08
1.31207747216e-07
4.40467098821e-07
2.12698565727e-07
1.61669512761e-08
2.20552291661e-08
2.10570109119e-07
2.04189386461e-07
3.53928563521e-08
3.77272089441e-08
1.14711486294e-07
6.50092038919e-09
1.95501356809e-07
1.08034031058e-06
3.00873984666e-07
2.51662872504e-07
3.41920153014e-07
1.930852368e-07
2.66849454131e-07
3.03366044356e-07
2.45651315278e-07
9.5843766397e-07
7.79336455571e-07
5.88984599247e-07
4.29778474343e-07
7.1155588548e-07
6.84053091256e-07
4.35478044501e-07
2.48070944529e-07
4.2299191886e-07
4.08023613767e-07
1.28114320009e-07
1.3206166044e-07
4.36789527504e-07
8.52157878402e-07
3.02278642412e-07
8.60253995607e-10
2.16506734832e-09
4.57878596496e-09
1.44796865966e-08
5.42720816967e-07
1.26474848566e-07
2.91921440514e-07
1.24169255711e-07
6.00443298812e-07
2.27886669003e-07
3.17011887363e-07
1.29245517474e-07
4.24552564173e-07
5.06348824549e-07
4.79653443374e-07
4.29253576556e-07
4.2097260173e-07
1.00182916124e-06
5.87364638587e-07
4.80034145338e-07
4.89830598605e-07
5.77753367094e-07
5.15563435608e-07
5.14461271491e-07
6.35808042632e-07
6.11524326502e-07
6.56984896363e-07
5.63556134055e-07
6.1981558001e-07
7.2589521934e-07
1.47928036043e-06
1.02237515141e-06
5.51835078393e-07
5.93881232356e-07
7.60096887647e-07
5.64552185926e-07
2.66145956964e-07
3.16371356895e-07
2.8698604992e-07
6.49267928052e-07
3.9594463516e-07
4.78487351118e-07
6.42270286693e-07
7.7668015179e-09
4.57828782263e-07
1.54905407013e-07
1.03875731477e-07
3.15838948366e-07
4.5282531271e-07
1.97239940927e-07
5.24038866867e-08
3.88572176085e-07
4.50664711039e-07
9.91119366497e-08
6.5248860162e-08
7.16203333501e-08
9.12974587117e-07
9.67511598818e-07
7.17437105033e-07
5.91715455008e-07
1.22015156672e-07
8.4965162912e-08
4.30075562636e-07
4.119195103e-07
1.00552673e-07
3.39639917745e-07
5.16311940702e-08
7.90394616888e-09
2.37521595108e-07
2.61247493689e-07
6.17504345299e-07
1.54210621444e-07
2.09824441248e-07
1.74521468211e-08
9.07662376193e-08
4.11485298563e-07
7.02229727528e-08
3.32261740395e-07
1.03794325212e-07
1.96418235635e-07
6.6258018294e-07
3.42313406853e-07
9.28901301677e-08
7.56210207951e-08
2.24892034799e-07
6.77011030283e-08
3.87200077e-07
5.95199154164e-07
2.05175416894e-07
7.79538747633e-07
3.63724809139e-07
7.39051500817e-07
1.01367152831e-06
3.49878631102e-07
3.73784455228e-08
4.20222334975e-08
4.12595571616e-07
1.17017476552e-07
5.40379029196e-08
5.70036289066e-07
3.15044456909e-07
2.40849916041e-07
7.38590569475e-08
3.51229580671e-07
8.94454178627e-08
1.86231777853e-07
1.40406682627e-07
1.26873506419e-07
2.25558801513e-07
5.79787208939e-08
5.35970365218e-09
2.4161270439e-07
2.55161881122e-07
2.54264894324e-07
4.18527608818e-07
1.61145115795e-07
1.55213954954e-07
1.39129382272e-07
4.75704814722e-07
7.74992413133e-07
1.90011483882e-07
3.18645639777e-07
3.19128883297e-08
1.00761276659e-07
2.01737636326e-08
1.51609019894e-07
2.4324051611e-07
2.95649380478e-07
2.64166348964e-07
5.29226926168e-07
3.91371026071e-07
3.45861624286e-07
9.32721976375e-08
3.03409845877e-07
5.06887616042e-08
1.17923873779e-07
1.87896320398e-07
2.73947060379e-07
3.00019715124e-08
3.97556031268e-07
4.08159993463e-07
4.67078953769e-08
4.35707416589e-07
1.66756687106e-07
3.0933683106e-07
6.84067869745e-07
1.57219717976e-07
1.39051102375e-07
8.08872768022e-08
5.17224687281e-08
1.50976716596e-07
1.01876820922e-07
1.62849032656e-07
1.14280251328e-07
1.88811707291e-08
1.97906958e-07
2.96131803436e-08
1.29819325008e-08
3.53421083179e-07
3.32791681534e-07
1.66072038392e-07
2.51966183971e-07
1.66991929082e-07
2.59576515224e-07
1.28741930691e-07
1.99917733013e-08
1.31621230345e-07
3.07778769324e-07
3.52659646927e-07
4.77665274876e-08
1.81526756747e-07
2.82095269161e-07
6.43703922421e-07
1.60851718991e-07
7.87908988101e-07
4.51364954561e-07
5.23792024054e-07
2.79118651426e-07
1.70410874836e-07
2.90692116794e-07
2.98117297976e-07
2.53154003431e-07
1.59007983142e-07
3.92766841108e-07
9.36364312546e-08
8.50652187663e-08
1.56942912104e-07
1.42024008094e-07
3.71939441749e-07
4.15946046947e-07
7.78055827251e-08
9.85110475461e-08
4.18241075642e-07
1.81251839394e-07
4.15767851703e-07
2.09596709804e-07
1.41405510398e-07
1.03868033047e-07
7.70493544794e-07
1.0328320789e-06
3.18963407814e-07
2.84638577184e-07
1.85522412212e-07
5.1222186896e-07
3.72502129439e-07
5.27133306645e-07
4.58781113518e-07
4.9080943094e-07
5.1029969005e-07
5.32269338126e-07
1.38713077917e-07
2.09711265455e-07
2.0690514894e-07
1.47332172881e-07
1.93347788099e-07
6.24482007747e-08
1.74235068596e-07
7.31402647301e-08
7.37260626356e-07
7.29860974111e-07
2.43131810623e-07
2.59650676488e-08
2.01216517673e-07
1.38077160871e-07
2.01967244736e-07
2.98051497497e-07
2.63140545856e-07
5.2671806937e-07
3.01995706823e-07
4.2805187416e-07
4.46892369735e-07
5.17542677577e-07
1.38643437616e-06
1.49891350625e-06
1.2547235132e-06
1.24487079742e-06
8.72019082161e-07
1.2160204523e-06
1.37944276486e-06
1.59709139034e-06
3.51949593429e-07
5.17820995779e-07
5.40540801859e-07
5.28864247585e-07
9.16588128505e-07
7.86882923756e-07
4.43791305322e-07
5.07836981087e-07
4.67404448639e-07
4.30463164503e-07
8.24103678711e-07
9.44551260456e-07
1.04119111861e-06
7.35680624373e-07
5.66352240035e-07
5.24064953159e-07
5.4828637306e-07
4.10333571023e-07
4.29533096342e-07
5.16573555843e-07
5.40008273879e-07
4.46308237212e-07
5.34910390054e-07
4.29909634946e-07
5.53501256239e-07
5.71449792032e-07
1.30941335193e-07
8.76336042177e-08
8.21555136463e-07
6.97477902445e-07
5.58790897108e-08
1.04794759558e-07
4.15109158329e-07
3.36359541669e-07
3.85890701977e-07
1.2956298099e-07
4.85748363995e-08
3.20755817455e-07
1.06745234245e-07
8.29506724471e-08
7.67091324074e-08
4.90515053782e-08
1.54291914654e-08
1.61222988608e-07
5.16303920594e-08
2.64232963956e-09
1.64588761888e-07
9.31825997672e-08
3.51692639848e-07
3.82415952282e-07
6.15562104743e-07
1.23651339757e-07
2.83323963703e-07
7.59045332227e-07
8.55984794873e-07
5.50237945071e-07
6.27840978873e-07
1.17387904871e-06
5.69043489408e-07
4.75206937339e-07
4.79578889768e-07
4.63446284861e-07
1.50348879048e-07
9.36713623984e-08
2.7697082805e-07
1.64507602848e-07
4.21578603346e-07
4.10487433394e-07
3.27420729207e-07
3.68737754614e-07
5.5966585826e-07
7.52144627438e-07
3.97923795747e-09
7.25476110183e-07
8.16277022573e-07
3.87837129231e-07
1.63720997285e-07
2.72046384548e-07
1.94746569419e-07
6.3352405642e-07
7.78089022115e-07
4.14975526836e-07
5.19698186422e-07
9.73327391451e-07
8.41436517083e-07
2.3980483092e-07
2.97679635649e-07
4.61751398334e-07
1.66547985345e-07
1.1646622701e-06
5.33456207045e-07
4.60933910601e-07
2.61647143953e-07
4.08228487003e-07
5.09006120731e-07
3.64702561676e-07
9.6446305714e-07
1.00851311653e-06
2.98820826548e-07
6.19254415353e-08
5.95954658773e-08
6.89496481008e-07
9.82699606455e-07
2.77604122542e-07
2.46407017647e-07
2.77516868329e-07
3.82283796454e-07
1.9829886181e-07
2.6610556942e-07
2.95587720545e-07
4.859014535e-07
2.34265099647e-07
1.65614188902e-07
1.27152700963e-07
6.00096144479e-07
4.81909455462e-07
2.06617185451e-07
3.53737304485e-07
4.31059869788e-07
7.64808586737e-08
7.4016330738e-08
1.07600255139e-07
1.61441627688e-07
1.27297330567e-07
1.60646201096e-07
5.95622858645e-07
8.80929491495e-08
2.24498261187e-08
2.10315819613e-07
1.8227834895e-07
2.54219734887e-07
1.95237740873e-07
4.74787198278e-07
4.08888783366e-07
4.81194821362e-07
4.13329472115e-07
6.28678934633e-07
4.09034414296e-07
6.26743831962e-07
3.76157203007e-07
1.30621081714e-07
3.19347325201e-07
2.01645283696e-07
3.00460394402e-07
1.68205264821e-07
9.19125117627e-07
8.90945563909e-07
1.3234060029e-08
2.99336766888e-07
2.15259751082e-07
1.00652754437e-07
3.88210538538e-08
7.8449946343e-08
1.88410191622e-07
1.56043555046e-07
3.05424698492e-07
2.50441406131e-07
2.44349079865e-07
3.60438531581e-07
3.81988934293e-07
4.03989374993e-07
1.61463729346e-07
2.39091047108e-07
3.50392573783e-07
2.87684759376e-07
1.2273434642e-06
5.90641674026e-07
2.89979708821e-07
2.44638488744e-07
4.37440104124e-08
2.23725349523e-08
3.75968008225e-08
3.42215843712e-08
9.06442980532e-08
6.80823589569e-08
6.78140301156e-08
1.3331842073e-08
2.56368696584e-07
3.92824437662e-07
2.69897621417e-09
4.96360644616e-08
1.98958153526e-07
1.17815580017e-07
2.85535410129e-07
2.1304268353e-07
1.57627835687e-07
2.45892861103e-07
3.10085343044e-07
1.13578733767e-07
4.63750833554e-07
5.9142253405e-07
1.21283627155e-07
7.54620679281e-08
2.28517102715e-07
9.09114530249e-09
5.29610209123e-07
1.17203611622e-06
4.16533519736e-07
5.46586339087e-08
4.66536223869e-08
2.54701004001e-07
3.81592401593e-07
3.15086167379e-07
4.09369375332e-07
2.9464747403e-07
6.82918254453e-08
3.22180860452e-07
8.69755018706e-07
1.33643050048e-07
1.40624888685e-07
2.80601841817e-07
1.92517432861e-07
3.78366552085e-08
1.95967445089e-07
2.14352048177e-07
5.23396595841e-07
4.79525944729e-07
1.64246006003e-07
4.80774677427e-07
1.19953740385e-07
4.97688325767e-07
2.87592307311e-07
1.01943363439e-07
9.62284778881e-08
2.55226675943e-07
2.48758305972e-07
8.41188557227e-08
5.37303226907e-07
9.16726654819e-08
1.12138665213e-07
2.17831605787e-07
7.16580006781e-08
3.84374905938e-08
1.93917005007e-07
4.87828394591e-07
4.79531669102e-07
2.72731292658e-08
5.16268951444e-08
2.34375386148e-07
5.864330503e-08
4.5242403146e-08
4.72951498289e-08
2.29489142482e-07
7.628461693e-08
6.52934206036e-08
3.19219088847e-07
2.25548842263e-07
2.07959478942e-07
4.5373706933e-08
5.33892294774e-08
5.41752094725e-07
1.61213487025e-07
3.36971087582e-07
5.27113856496e-07
5.50145728938e-07
3.3322465387e-07
4.88575517495e-07
4.6345994741e-07
5.94428986507e-08
7.99727307325e-08
4.9088660824e-08
1.16016170589e-07
8.00344124747e-08
2.17783193884e-07
1.49488378966e-07
2.0891830247e-07
5.29181325607e-07
2.31157298515e-07
6.16216394847e-08
6.76071568591e-08
2.45119428788e-07
2.54541108589e-07
2.50473096196e-07
1.96628820421e-07
3.18645810191e-07
3.55531911278e-07
6.24908525426e-07
6.69822225137e-07
5.27411844455e-07
4.86127911191e-07
7.06716394845e-08
4.93505239514e-08
9.95135122459e-08
3.35373210547e-07
3.00859341136e-07
3.26618869936e-07
1.26527053583e-07
7.83630011664e-09
1.44062824059e-07
1.36008288555e-07
3.48282467293e-07
3.40413403567e-07
5.10520459912e-07
4.90579230581e-07
8.18259762355e-08
1.27768583592e-07
2.00335895843e-07
2.30238577502e-07
2.31625457853e-07
1.73635352175e-07
3.11969793298e-07
1.21666763151e-07
1.01761768481e-07
7.533260103e-08
1.44656580168e-07
5.05445744392e-08
1.91246893172e-08
1.6250192584e-07
2.58902708309e-07
1.45661302996e-08
1.87239440231e-08
1.26062268927e-08
2.34593660317e-08
1.06507029771e-07
1.70737368691e-08
8.86708409331e-09
2.13099677212e-07
2.07101866718e-08
7.59581521444e-08
1.11130393553e-07
2.41578731039e-07
2.10732870393e-07
2.57312565544e-07
6.36201576265e-10
1.55271746474e-08
2.18378527776e-07
2.23911464881e-07
3.21561416897e-07
1.50199100955e-07
2.67177421839e-07
2.45559262572e-07
1.96836699496e-07
5.08734843985e-09
1.4620608809e-07
1.37979883155e-07
5.47046928385e-09
6.40207514787e-09
1.02381874172e-07
1.55336033373e-07
1.45043196816e-08
1.01557223296e-07
5.68897104398e-09
6.03693155267e-09
1.37566525321e-07
4.74748020708e-07
1.95965857526e-07
5.04899391259e-07
7.01378987476e-07
2.18836582399e-07
5.69856398395e-09
1.04306285873e-07
2.50977037042e-07
4.18880498095e-07
2.47054963865e-07
5.52219612239e-09
1.71609221883e-07
1.17622371814e-07
3.93749453699e-09
7.42571299276e-09
4.16761960637e-09
6.94750614657e-09
1.31459549212e-07
1.4708870896e-07
4.64488612076e-07
4.94805013608e-07
5.42162715288e-07
4.95439184273e-07
3.31546665882e-07
1.19723144167e-08
2.4437341453e-08
1.94398061961e-07
2.32800291193e-07
3.59295336447e-08
1.41628803117e-07
3.99320308017e-07
3.88880651884e-07
9.60282711103e-08
6.00904469739e-09
9.66887541691e-08
1.30936211114e-08
4.47970245774e-07
2.13706392024e-07
1.25975138787e-07
9.99241545741e-09
1.76722913966e-07
1.7363563935e-08
1.77991550759e-07
2.23144386254e-07
2.67924525947e-07
2.49415145525e-07
4.31205985568e-08
2.28528542253e-07
2.32716584024e-07
4.30606131253e-08
1.00939314452e-07
5.41841021945e-07
1.24744015803e-07
1.52187929635e-07
1.89302448179e-07
5.88515396203e-08
1.44179559978e-07
1.18937014292e-07
1.11336987514e-08
9.22534400538e-08

