# vtk DataFile Version 3.0
File Name: Molecule/sphere_excent/sphere_excent_0-s1.vtk
ASCII
DATASET UNSTRUCTURED_GRID
FIELD FieldData 1
TIME 1 1 double
0.0
POINTS 42 double
0.85065081 -0.52573111 0.0
0.80901699 -0.30901699 -0.5
1.0 0.0 0.0
0.80901699 0.30901699 -0.5
0.52573111 0.0 -0.85065081
0.85065081 0.52573111 0.0
0.5 0.80901699 -0.30901699
0.30901699 0.5 -0.80901699
0.0 0.85065081 -0.52573111
0.5 0.80901699 0.30901699
0.0 1.0 0.0
0.0 0.85065081 0.52573111
-0.5 0.80901699 0.30901699
-0.5 0.80901699 -0.30901699
-0.85065081 0.52573111 0.0
-0.30901699 0.5 0.80901699
-0.80901699 0.30901699 0.5
-0.52573111 0.0 0.85065081
0.30901699 0.5 0.80901699
0.0 0.0 1.0
0.52573111 0.0 0.85065081
-0.30901699 -0.5 0.80901699
0.30901699 -0.5 0.80901699
0.0 -0.85065081 0.52573111
0.80901699 -0.30901699 0.5
0.5 -0.80901699 0.30901699
0.30901699 -0.5 -0.80901699
0.0 0.0 -1.0
-0.30901699 -0.5 -0.80901699
0.0 -0.85065081 -0.52573111
-0.52573111 0.0 -0.85065081
0.80901699 0.30901699 0.5
-0.80901699 -0.30901699 -0.5
-0.80901699 0.30901699 -0.5
-1.0 0.0 0.0
-0.85065081 -0.52573111 0.0
-0.30901699 0.5 -0.80901699
-0.5 -0.80901699 -0.30901699
-0.5 -0.80901699 0.30901699
0.0 -1.0 0.0
-0.80901699 -0.30901699 0.5
0.5 -0.80901699 -0.30901699

CELLS 80 320
3 0 1 2
3 1 3 2
3 1 4 3
3 2 3 5
3 5 3 6
3 3 7 6
3 3 4 7
3 6 7 8
3 5 6 9
3 6 10 9
3 6 8 10
3 9 10 11
3 11 10 12
3 10 13 12
3 10 8 13
3 12 13 14
3 11 12 15
3 12 16 15
3 12 14 16
3 15 16 17
3 11 15 18
3 15 19 18
3 15 17 19
3 18 19 20
3 17 21 19
3 21 22 19
3 21 23 22
3 19 22 20
3 20 22 24
3 22 25 24
3 22 23 25
3 24 25 0
3 4 26 27
3 26 28 27
3 26 29 28
3 27 28 30
3 0 2 24
3 2 31 24
3 2 5 31
3 24 31 20
3 5 9 31
3 9 18 31
3 9 11 18
3 31 18 20
3 30 32 33
3 32 34 33
3 32 35 34
3 33 34 14
3 8 36 13
3 36 33 13
3 36 30 33
3 13 33 14
3 35 37 38
3 37 39 38
3 37 29 39
3 38 39 23
3 35 38 40
3 38 21 40
3 38 23 21
3 40 21 17
3 17 16 40
3 16 34 40
3 16 14 34
3 40 34 35
3 30 28 32
3 28 37 32
3 28 29 37
3 32 37 35
3 29 41 39
3 41 25 39
3 41 0 25
3 39 25 23
3 4 1 26
3 1 41 26
3 1 0 41
3 26 41 29
3 4 27 7
3 27 36 7
3 27 30 36
3 7 36 8

CELL_TYPES 80
5
5
5
5
5
5
5
5
5
5
5
5
5
5
5
5
5
5
5
5
5
5
5
5
5
5
5
5
5
5
5
5
5
5
5
5
5
5
5
5
5
5
5
5
5
5
5
5
5
5
5
5
5
5
5
5
5
5
5
5
5
5
5
5
5
5
5
5
5
5
5
5
5
5
5
5
5
5
5
5

CELL_DATA 80
SCALARS cell_data_0 double
LOOKUP_TABLE default
8.60362024286e-08
2.87648221341e-07
1.67585678322e-08
6.89105137484e-09
2.19392863472e-07
1.96628091133e-07
9.66796840808e-08
1.34670209047e-07
6.25620503476e-07
3.12536058516e-07
1.9818234664e-07
1.0910542684e-06
8.33799661707e-07
9.81537550295e-07
4.77112444842e-07
6.08750018201e-07
7.36431788412e-06
4.07607398948e-08
9.81648648873e-07
4.19213071765e-06
1.35875928741e-05
3.04404094997e-05
1.7007244657e-05
1.70072996957e-05
2.52190145616e-05
3.04404239707e-05
6.48724371867e-09
3.44721949136e-05
7.62582402001e-07
1.07330059738e-05
9.86689770831e-06
1.40991688711e-06
1.11763435727e-08
5.23926791777e-08
4.04186338278e-09
2.42276139554e-08
4.67714479563e-07
2.31655786006e-06
6.84913007526e-07
4.03656385495e-06
1.35091906878e-06
4.07827628098e-08
7.07506656271e-07
1.24041211299e-05
1.37901592224e-07
2.87648461978e-07
4.42197622323e-07
4.42203419484e-07
9.04374994659e-08
2.50370715137e-08
1.16219380896e-08
1.3270751114e-07
6.25619952713e-07
3.12538965434e-07
1.98178381927e-07
1.091051711e-06
1.35091560539e-06
4.07623406611e-08
7.07490487242e-07
1.24041623934e-05
9.88678218998e-06
1.38914207654e-06
2.11488592484e-06
2.11489086138e-06
4.17995142793e-08
2.50354355544e-08
3.543601154e-08
1.15435252795e-07
3.11071151166e-07
3.12538636304e-07
2.48487413706e-07
6.03376960686e-07
4.17991382074e-08
1.96629827428e-07
1.15434481811e-07
3.54363615306e-08
1.11763310393e-08
2.95514762893e-08
2.42261632158e-08
4.0401464802e-09

