# vtk DataFile Version 3.0
File Name: Molecule/sphere_dip_sim/sphere_dip_sim_0-s2.vtk
ASCII
DATASET UNSTRUCTURED_GRID
FIELD FieldData 1
TIME 1 1 double
0.0
POINTS 66 double
0.809016994375 -0.309016994375 -0.5
0.809016994375 0.309016994375 -0.5
1.0 0.0 0.0
0.525731112119 0.0 -0.850650808352
0.850650808352 0.525731112119 0.0
0.5 0.809016994375 -0.309016994375
0.309016994375 0.5 -0.809016994375
0.0 0.850650808352 -0.525731112119
0.5 0.809016994375 0.309016994375
0.0 1.0 0.0
-0.309016994375 0.5 0.809016994375
0.0 0.0 1.0
0.309016994375 0.5 0.809016994375
-0.525731112119 0.0 0.850650808352
0.525731112119 0.0 0.850650808352
-0.309016994375 -0.5 0.809016994375
0.309016994375 -0.5 0.809016994375
0.0 -0.850650808352 0.525731112119
0.309016994375 -0.5 -0.809016994375
0.0 0.0 -1.0
-0.309016994375 -0.5 -0.809016994375
0.0 -0.850650808352 -0.525731112119
-0.525731112119 0.0 -0.850650808352
0.809016994375 0.309016994375 0.5
0.0 0.850650808352 0.525731112119
-0.809016994375 -0.309016994375 -0.5
-0.809016994375 0.309016994375 -0.5
-1.0 0.0 0.0
-0.850650808352 -0.525731112119 0.0
-0.850650808352 0.525731112119 0.0
-0.309016994375 0.5 -0.809016994375
-0.5 0.809016994375 -0.309016994375
-0.5 -0.809016994375 -0.309016994375
-0.5 -0.809016994375 0.309016994375
0.0 -1.0 0.0
-0.809016994375 -0.309016994375 0.5
-0.809016994375 0.309016994375 0.5
0.5 -0.809016994375 -0.309016994375
0.5 -0.809016994375 0.309016994375
0.850650808352 -0.525731112119 0.0
0.961938357784 -0.273266528913 0.0
0.0 0.961938357784 0.273266528913
-0.259891913008 0.862668480416 0.433888564553
-0.26286555606 0.951056516295 0.162459848116
-0.5 0.809016994375 0.309016994375
-0.26286555606 0.951056516295 -0.162459848116
-0.525731112119 0.850650808352 0.0
-0.702046444776 0.69378047756 0.16062203564
-0.702046444776 0.69378047756 -0.16062203564
-0.16062203564 0.702046444776 0.69378047756
-0.425325404176 0.688190960236 0.587785252292
-0.688190960236 0.587785252292 0.425325404176
-0.587785252292 0.425325404176 0.688190960236
-0.862668480416 0.433888564553 0.259891913008
0.433888564553 -0.259891913008 0.862668480416
0.69378047756 -0.16062203564 0.702046444776
0.587785252292 -0.425325404176 0.688190960236
0.809016994375 -0.309016994375 0.5
0.425325404176 -0.688190960236 0.587785252292
0.688190960236 -0.587785252292 0.425325404176
0.862668480416 -0.433888564553 0.259891913008
0.702046444776 -0.69378047756 0.16062203564
0.951056516295 -0.162459848116 0.26286555606
0.951056516295 0.162459848116 0.26286555606
0.850650808352 0.0 0.525731112119
0.69378047756 0.16062203564 0.702046444776

CELLS 128 512
3 0 1 2
3 0 3 1
3 2 1 4
3 4 1 5
3 1 6 5
3 1 3 6
3 5 6 7
3 4 5 8
3 5 9 8
3 5 7 9
3 10 11 12
3 10 13 11
3 12 11 14
3 13 15 11
3 15 16 11
3 15 17 16
3 3 18 19
3 18 20 19
3 18 21 20
3 19 20 22
3 4 8 23
3 8 12 23
3 8 24 12
3 22 25 26
3 25 27 26
3 25 28 27
3 26 27 29
3 7 30 31
3 30 26 31
3 30 22 26
3 28 32 33
3 32 34 33
3 32 21 34
3 33 34 17
3 28 33 35
3 33 15 35
3 33 17 15
3 35 15 13
3 13 36 35
3 36 27 35
3 35 27 28
3 22 20 25
3 20 32 25
3 20 21 32
3 25 32 28
3 21 37 34
3 37 38 34
3 34 38 17
3 3 0 18
3 0 37 18
3 0 39 37
3 18 37 21
3 3 19 6
3 19 30 6
3 19 22 30
3 6 30 7
3 2 40 0
3 39 40 0
3 9 41 8
3 8 41 24
3 24 41 42
3 41 43 42
3 41 9 43
3 42 43 44
3 9 45 43
3 45 46 43
3 45 31 46
3 43 46 44
3 31 45 7
3 9 45 7
3 44 46 47
3 46 48 47
3 46 31 48
3 47 48 29
3 24 42 49
3 42 50 49
3 42 44 50
3 49 50 10
3 44 51 50
3 51 52 50
3 51 36 52
3 50 52 10
3 44 47 51
3 47 53 51
3 47 29 53
3 51 53 36
3 10 52 13
3 52 36 13
3 24 49 12
3 49 10 12
3 16 54 11
3 11 54 14
3 14 54 55
3 54 56 55
3 54 16 56
3 55 56 57
3 16 58 56
3 58 59 56
3 58 38 59
3 56 59 57
3 38 58 17
3 16 58 17
3 57 59 60
3 59 61 60
3 59 38 61
3 60 61 39
3 39 40 60
3 40 62 60
3 40 2 62
3 60 62 57
3 2 63 62
3 63 64 62
3 63 23 64
3 62 64 57
3 23 63 4
3 2 63 4
3 57 64 55
3 64 65 55
3 64 23 65
3 55 65 14
3 14 65 12
3 23 65 12
3 29 48 26
3 31 48 26
3 36 53 27
3 53 29 27
3 39 61 37
3 37 61 38

CELL_TYPES 128
5
5
5
5
5
5
5
5
5
5
5
5
5
5
5
5
5
5
5
5
5
5
5
5
5
5
5
5
5
5
5
5
5
5
5
5
5
5
5
5
5
5
5
5
5
5
5
5
5
5
5
5
5
5
5
5
5
5
5
5
5
5
5
5
5
5
5
5
5
5
5
5
5
5
5
5
5
5
5
5
5
5
5
5
5
5
5
5
5
5
5
5
5
5
5
5
5
5
5
5
5
5
5
5
5
5
5
5
5
5
5
5
5
5
5
5
5
5
5
5
5
5
5
5
5
5
5
5

CELL_DATA 128
SCALARS cell_data_0 double
LOOKUP_TABLE default
0.000365068263111
8.20057963617e-05
0.000186880758703
0.000171760244152
0.000239978990134
1.03062578317e-05
9.05308905828e-05
9.55525683056e-05
0.000237991788645
0.000147012455691
0.000263055688312
0.000211781261738
0.00021281711761
0.000213415468073
0.000265236355613
8.97944126067e-05
0.000229337548398
0.000280966015323
6.42557722008e-05
0.000219654909479
5.24741153464e-06
4.836787957e-05
2.08031192373e-05
2.18588113465e-05
1.27797057166e-05
9.12811521389e-05
7.15128582728e-06
1.28482755492e-05
1.8135468267e-06
6.49803783677e-05
8.07437251804e-05
8.60590642427e-07
7.26318284595e-05
3.15753002484e-06
6.22561801615e-05
5.09295637253e-05
3.2126233596e-05
8.41282963185e-05
1.31798781729e-05
8.08292016779e-05
8.60989838146e-05
6.64146567138e-05
5.69267712621e-05
1.44271657949e-05
6.58832655641e-05
6.89677360983e-05
6.94015085225e-06
7.23496763998e-07
6.24017987612e-05
7.54610654304e-06
0.000549158265469
9.88400978992e-07
0.000209736996634
0.000268140177902
0.000220537490279
5.62096578086e-05
9.38628775253e-05
0.000332581015559
4.2892617471e-05
3.48468218347e-06
8.64146516121e-07
1.65416399295e-07
2.26089060355e-05
0.000110109495325
1.43260572637e-05
2.18837232939e-07
2.38677010932e-05
0.000133048484569
1.16784931225e-05
4.29436878362e-05
0.000112983144965
8.99138059215e-06
1.91602584931e-05
1.20802373701e-05
2.13653364023e-06
6.39043889852e-06
0.000102779204743
1.09851049199e-05
0.000138882687291
5.64486282371e-06
2.21651250611e-05
1.59285595828e-05
0.000125368732473
2.49692825808e-05
2.0462987776e-05
5.28159731736e-05
4.9514132872e-05
1.22809386226e-05
2.59917259399e-05
4.67800714718e-05
0.000108265800316
0.000105733267131
2.14373058595e-05
1.57394779585e-05
1.57237691647e-05
7.22745004766e-06
2.09416007942e-05
2.11020981685e-06
3.31500194836e-06
6.43340164622e-06
1.30057090972e-05
1.73012016316e-06
2.87592134372e-06
1.31307150851e-06
1.99710294347e-07
0.000110203085222
0.000105251162674
8.58851556312e-07
3.05181210743e-05
2.8146123836e-06
1.91153631382e-05
6.43976275555e-07
8.96457042251e-07
4.9512895411e-06
1.15541322805e-05
6.41206182369e-05
5.10287628907e-06
2.1982161078e-08
1.09983656845e-05
9.59900659472e-06
5.58596286056e-05
4.99903750063e-06
1.79559670151e-06
6.03014709469e-05
9.6467420715e-05
4.40767502394e-05
0.000212305989156
2.42361092075e-06

