# vtk DataFile Version 3.0
File Name: Molecule/sphere_excent/sphere_excent_0-s26.vtk
ASCII
DATASET UNSTRUCTURED_GRID
FIELD FieldData 1
TIME 1 1 double
0.0
POINTS 285 double
-0.057180687785 1.7353198528 0.99152249098
-1.0897561312 1.4724963903 0.80126857758
-0.58874940872 1.216555357 1.4732040167
-1.6559761763 1.1123051643 0.14351849258
-1.670976758 0.67615228891 0.86555469036
0.64230906963 -1.1975263357 1.4672791958
0.01561940182 -1.7192109823 1.0217084885
0.81122791767 -1.6745331287 0.73323655128
0.35008734465 -1.191701889 -1.5658655167
-0.016287494451 -1.7244218588 -1.0124357939
-0.37163230777 -1.1167588234 -1.6139913797
1.5598584414 -0.40978300571 1.1822954416
1.5273025036 0.48783415556 1.1954313517
1.1788799763 0.051516480744 1.6135118008
-0.67784917355 -1.7878321409 -0.58602941036
0.023465091363 -1.9996410608 0.026783276349
-1.0006848574 -1.7285279036 0.082972116768
-0.77866756916 -1.6879093647 0.73797214031
-0.6726950407 -1.3075727224 1.3554881811
-1.9438849688 0.32790955901 0.33446195722
0.77851587534 -1.7151191235 -0.67110091448
1.0743967295 -1.6863082647 0.029570704326
-0.065381273627 1.997140646 -0.0048760250211
-0.55788826942 1.883590579 0.37373957038
0.17959460616 1.9625310898 0.32375878096
-0.53295004368 1.8897141218 -0.37988039851
-1.1015409231 1.6687252522 0.050872329623
-1.2367202044 1.4695757627 -0.55490040779
-0.066173680127 1.7717074156 -0.9222329855
0.20737679303 1.9276827574 -0.49046230316
1.0090748072 1.7157468796 0.19507735968
0.57556891441 1.8498879671 0.48949939013
1.1343301535 1.5151600838 0.63846421242
0.83262848854 1.5908380747 0.87870573997
0.98724043369 -0.081725426018 -1.7372879982
0.74937784672 -0.59219771624 -1.7565797567
0.50880497694 -0.10403638333 -1.9309655428
0.2014027983 -0.62000304461 -1.8901418447
0.032807227224 0.025278206915 -1.9984050989
0.92761838436 0.96446931362 -1.4860904217
1.1972231865 0.93256914616 -1.3026006222
1.0882490873 0.71853291988 -1.516302228
1.362128377 -0.40305799246 -1.407889843
1.5185453892 -0.17173039913 -1.2899742126
1.5249204636 -0.5262208581 -1.1820456982
-0.44553911686 0.65036827326 1.8377659321
-0.82101017237 0.4444963336 1.7682850361
-0.40243494511 0.22229193151 1.9457538128
-1.2312396765 -0.16545437276 1.5664840937
-0.98765432835 -0.68414592743 1.5986402035
-0.76209789515 -0.055467605591 1.8475416899
-0.43519794941 -0.52328306437 1.8802822828
-1.3954356909 0.40976533294 -1.3707966805
-1.1715396643 0.037134479731 -1.6190764904
-1.6053324938 0.070979326963 -1.1895489693
-1.3734630346 -0.33386018872 -1.4147706032
-1.4729527235 0.89375311136 -1.0142598152
-1.7034703493 0.51037889719 -0.91368567944
-1.2582291365 -1.1482938528 1.0478795767
-1.5816851854 -0.5070040226 1.1139335632
-0.2176823616 0.51519352198 -1.9181542397
0.29789119959 0.44754087925 -1.9263064861
-0.9322513938 -0.65427869558 -1.6420087814
-1.2902150154 -0.81814146042 -1.2904045582
1.8563374281 0.3686118722 0.64616113901
1.7011039257 0.7942262888 0.68876606226
1.3849041462 1.054979682 0.98240309954
0.91541957855 1.0655562878 1.4219448566
-0.56821167469 1.6802340746 -0.9223587513
1.9579699039 0.23564493656 -0.33085685968
1.9675453901 0.33284592628 0.12561045587
1.992305994 -0.16200231016 0.048147827387
-0.010972660035 0.88739258051 1.792158246
-0.025013698265 0.39937409759 1.9594597816
0.40877243876 0.47928261757 1.8978544474
0.27767190337 -0.011610146612 1.9804259539
-1.6469613314 -1.1093491316 0.23890458047
-1.3528755903 -1.3918591738 0.482267946
-1.633767128 -0.96072727442 0.63870215416
1.7925232649 -0.88110506535 -0.098556861281
1.6926599741 -0.9605371356 -0.45583951473
1.8893834352 -0.52552825212 -0.38957765698
1.669522047 -0.69766652584 -0.85130298138
-1.5319433212 -1.2843396664 0.048778660595
1.244721055 -1.1031420231 1.1051882505
1.0412557125 -0.59614604712 1.6000386477
1.3285769224 -1.4378999472 -0.40466877818
1.5519807339 -1.2606518269 -0.04399196431
1.4087426662 -1.362615943 0.39532250166
1.7516497374 -0.9285620451 0.26121297479
-1.9262701273 -0.52904582024 0.090853326023
-1.8109638691 -0.81651508808 0.22558659315
-1.8493700027 -0.5381206274 0.53772044182
-1.6597856283 -1.103394866 -0.15847317874
-0.040718756616 -1.2629617453 1.5502271652
0.4964248836 -0.54259473085 1.8598557711
0.71139425039 -0.097810022533 1.8666418791
-0.43390148878 -0.9484731555 1.7064493895
0.010746975429 -0.37730306387 1.9640277624
0.065793015063 -0.83427935839 1.8164894581
-1.6600664854 0.98546552658 -0.52193754911
-1.8564226627 -0.055293787271 0.7407079339
-1.5556194782 0.15061800182 1.2478054762
0.7453904748 1.7729541063 -0.54799199104
0.6384832263 1.8865433931 -0.1750921905
1.0615218878 1.6749989986 -0.25954979658
0.46900078654 1.7386405468 -0.86936354637
0.86013692617 1.5395126343 -0.94312077761
1.2739378214 1.2916460037 -0.84149485826
1.0944869518 1.5549048185 -0.61976623535
0.46107563376 1.4803494215 -1.2625069618
0.82478171587 1.2789446115 -1.2971482277
-1.966088891 -0.20773684978 0.30101850629
-1.9195791483 -0.51387172937 -0.22475494444
-1.8483396769 -0.76186150312 -0.041908740997
-1.8343571424 -0.73751592636 -0.29671931267
-1.8596432209 -0.51828318834 -0.52264565229
-1.8448280096 0.70973408222 -0.30331021547
-1.9989417791 -0.049863699824 0.021002179012
-1.9754375219 -0.30204421282 -0.077831596136
-1.9825742245 -0.10849201679 -0.23947951198
-1.939371109 -0.32446736097 -0.36478701234
-1.9608999491 0.050428800285 -0.38959738612
-1.9858129025 0.16451337934 -0.16847281158
-0.69585293531 -1.4906858206 -1.1373357773
-1.0462119579 -1.4812945127 -0.84368479252
-0.9254720211 -1.0912371874 -1.3966017962
-1.1588754654 -1.2009978294 -1.101639986
-1.454664588 -0.96870988607 -0.97220081091
-1.5253397226 -1.0960655212 -0.68703478575
-1.6399565935 -0.84163630009 -0.77566760778
-1.3293638229 -1.2324391603 -0.84489881992
-1.3434588909 -1.3561598063 -0.59641045332
-1.5501648188 -1.192997694 -0.41660657525
-1.397995472 -1.3850866556 -0.35663881898
-1.6917191744 -0.95142877102 -0.48129081726
-1.1085282564 -1.5687892437 -0.55613583326
-1.4741764069 -1.3405140638 -0.17184698582
-1.1781060696 1.0029335022 1.2671228647
1.3806426525 1.3744584322 -0.45213478804
1.3616045713 1.4641581774 -0.045096598566
1.6701154709 1.0612260103 -0.29026731849
1.5219789743 1.0775722265 -0.72191816568
-1.1348423958 0.22658407688 1.6309822798
-1.288341403 0.57102501392 1.4190000296
-0.88441050053 0.82092034817 1.5950448513
-1.5818948746 -0.63915473223 -1.0433229208
1.3590490818 1.4128816128 0.39339515567
-1.9458675385 0.45315045118 -0.074208185077
-1.9345201254 0.33664894104 -0.38001093268
-1.8389531374 0.55179286003 -0.55982917547
-1.8579009771 0.29923042655 -0.676902771
0.82350575924 0.74932593107 -1.6612087488
0.7362985611 0.50929272175 -1.7881873846
0.99686813354 0.51488286257 -1.6555877924
0.91537898779 0.28820225596 -1.7547228336
1.1123399734 0.29767602682 -1.6351208687
1.2377806902 0.4777571559 -1.4965507984
1.2814708948 0.16026605666 -1.5269210339
1.4017297029 0.3295058012 -1.3880237341
1.2868995667 0.69692647457 -1.3631737232
1.4416140318 0.53575342894 -1.2785582542
1.4065941572 0.79902005196 -1.1759982109
1.5530587435 0.31123703718 -1.221050024
1.6162281036 0.48050317168 -1.0752910376
1.7328619957 0.23091797531 -0.970928967
1.6130604744 0.071079105139 -1.1798686981
1.4563314915 0.099548436701 -1.3669124842
1.7193977833 -0.19783653319 -1.0019220114
1.2987139225 -0.13143269718 -1.5152195692
0.68277966976 0.21166592836 -1.8678541183
1.1192952394 -0.45558077097 -1.5934709311
0.13321134448 0.950522542 -1.7529382706
0.60029304028 1.0722441673 -1.5777271986
0.52470344305 0.7610527277 -1.7734595537
1.863483429 0.64867252111 0.32581010461
1.8715900183 0.69672501087 -0.10622245073
1.7507156134 0.94891643524 0.18485713005
1.5713828802 1.2280263901 0.15050248802
1.5784033537 1.1199878454 0.50385987759
1.69173944 0.78790259361 -0.71797215939
1.8488789797 0.57668989897 -0.49714455009
-0.078827321529 0.013635531999 1.9983437061
-0.34035632014 -0.15497381985 1.9645041227
0.45624822378 1.419981122 1.3323049545
0.41078615189 1.0407365561 1.6578296423
0.017046652734 1.328594923 1.4947926998
1.8715664148 0.0080892462283 -0.70504683256
1.7481390238 0.50496274233 -0.82993400097
1.8491142988 0.30681046844 -0.6968550086
-1.6436977386 -0.29522362351 -1.1003873348
-0.72739434242 -0.25224244595 -1.8447699547
-1.0085602999 -0.25477766991 -1.7078655958
-0.84190058708 0.022919949144 -1.813906908
-0.49151423573 0.06593631953 -1.935847044
-0.71132105589 0.27466735244 -1.8482871056
-0.97023457289 0.3006760776 -1.7228051424
-1.1295403242 0.53145831823 -1.5624357462
-1.8432132006 -0.18214814365 -0.75453549623
-1.7711288929 -0.38259598613 -0.84666401148
-1.888179183 -0.29011261463 -0.59214007854
-1.7607697248 -0.11102244258 -0.94190746546
-1.7826917171 0.15273025632 -0.89289593697
-1.8560723066 0.020909689367 -0.74443173409
-1.9062821865 -0.076559171081 -0.60003656149
-1.9449057579 -0.14975103736 -0.44137054682
-1.9141819477 0.12301896513 -0.56601655483
1.2726948261 -0.69993144274 -1.3748223782
1.028542757 -0.78523039818 -1.5249756575
1.1208819151 -1.0191559792 -1.3056099415
1.4076977968 -0.86993151903 -1.1230534315
0.80698764324 -1.1468037367 -1.4259470701
1.9496524334 0.0020280042663 0.44524419308
1.8955681324 -0.52680289745 0.35813096166
1.798879385 -0.013022517785 0.87342363596
1.8481132984 -0.35134792328 0.67723923922
-1.7409021854 -0.62121915817 -0.76380199194
-1.7716662884 -0.73536407948 -0.56593120098
1.4227949381 -1.1335047483 -0.82746016979
1.7224538326 -0.79199033976 0.63270825148
1.0543187857 0.5603941083 1.603328228
0.61471712589 -1.4980119467 -1.1736254692
1.9149309397 -0.57585251331 0.031274098903
0.96939224005 -1.3669387102 -1.0917129517
1.5519075394 0.83811432123 -0.94268739223
1.407466054 1.0061131716 -1.003113389
0.71109187603 0.73215574026 1.7198497057
0.82245129347 0.32690396905 1.7935487032
1.160964489 -1.4189310074 -0.7991310358
1.2374339104 -1.1657922268 -1.0533897877
-1.3342144489 -1.4882667065 0.068715341389
-1.2797478437 -1.5287270546 -0.15931600332
-1.2542210817 -1.5086071491 -0.38852077723
[...]
CELL_DATA 566
SCALARS cell_data_0 double
LOOKUP_TABLE default
1.32690153249e-05
7.00292677821e-06
1.18641925208e-05
5.67511727389e-06
1.28044498834e-05
2.05006301984e-06
1.84495993691e-06
8.07361626054e-06
9.66930860843e-06
4.57484256748e-06
2.01685138173e-06
5.92387245501e-06
7.31410719915e-06
1.79847258316e-06
6.29172799476e-06
2.22872273889e-06
2.58079451186e-06
1.86138611067e-06
3.57959578337e-06
7.39409569937e-06
4.11262137482e-06
2.36308903815e-06
4.59251648609e-05
3.41289974443e-05
2.0504094831e-06
2.42548939799e-07
6.56856853274e-07
1.25825886298e-06
3.22924491631e-06
2.94505076293e-06
4.66159130761e-07
9.5543426397e-06
1.43582906946e-05
1.23040570109e-05
6.6732435471e-05
3.95629071443e-05
1.48242552946e-05
9.31428407594e-06
1.11649061258e-05
2.32884209004e-06
1.72861840607e-06
3.23043587558e-06
2.86994675963e-06
6.79828385097e-06
6.98844267002e-06
4.85400601013e-06
1.65499658101e-05
1.46942644985e-05
1.0625877187e-05
1.04418758485e-05
2.90625123031e-05
7.13495720825e-05
3.44164967915e-05
2.684245016e-05
8.75119258861e-06
3.21543037844e-06
4.09089592085e-05
5.54023370411e-05
7.95236272557e-06
2.59638233e-05
2.07769037642e-06
8.95195274441e-06
1.04496862855e-05
3.45819059686e-05
3.90392209678e-06
2.2698058508e-05
1.45492623505e-06
1.14832682152e-06
3.032188855e-06
1.36539480748e-05
6.58641870436e-07
5.87965481728e-06
2.08960047625e-07
1.22101022239e-05
1.10492926311e-05
1.01727251269e-05
1.07638855787e-05
1.39502000883e-05
1.31864792762e-05
1.22950588741e-05
9.40478574156e-06
9.17880706852e-06
9.37782032289e-06
1.10475035136e-05
9.10119133688e-06
9.06811304596e-06
1.33464859616e-05
9.21825545682e-06
6.46182740112e-06
8.49887794113e-06
6.9125471952e-06
1.05468704858e-05
5.53744194535e-07
1.32975407399e-06
3.71194266961e-06
2.85694787559e-06
1.63123139264e-05
3.65355524974e-06
5.26490856788e-06
5.21282655779e-07
8.90042421295e-06
3.75238117957e-07
4.96356808263e-06
3.59540811175e-08
2.67163104689e-07
1.35561533987e-05
1.89533046929e-06
1.55577924782e-06
7.47709776759e-07
3.43407978836e-06
7.40604530091e-06
7.5392220907e-06
2.24396190393e-07
8.21459900917e-08
5.45349713382e-05
2.37731289052e-07
6.91874303127e-07
9.94781324525e-07
3.77831329507e-07
1.28305141733e-07
2.41021285442e-07
6.79949304536e-08
1.55903467841e-07
8.66170517949e-08
2.43682218211e-08
9.46467526316e-08
3.48528952089e-07
4.3100479143e-06
1.05024440826e-07
3.06191237723e-06
8.06054289978e-06
1.86340036482e-07
2.46674670016e-06
8.93673321455e-08
7.39298701868e-08
9.92964938951e-08
3.52070775248e-06
1.2963868537e-07
1.9597189446e-07
5.63215699804e-08
1.94966458413e-08
7.05515057596e-08
4.16385491437e-06
4.63370628249e-06
4.51587844576e-06
4.10000434262e-06
4.69423538809e-06
2.25721308205e-05
4.15553496172e-07
4.13391600868e-06
3.57702931948e-06
4.81939157275e-06
5.93745271845e-06
5.92797059512e-06
5.15099177383e-06
3.55491676814e-06
5.1470430213e-06
6.81348351581e-06
6.36491220983e-06
1.14995148956e-05
9.06667603358e-06
7.81070548791e-06
9.09601209512e-06
5.07588784117e-06
2.55348352785e-06
1.20143466341e-05
1.08284812662e-06
2.11618436516e-06
7.44405491614e-07
3.69249877728e-07
4.33554461499e-07
2.05170575721e-07
4.88625069402e-05
4.28089204587e-06
2.83126867492e-07
2.21966006335e-07
2.24968094976e-07
2.66488830437e-07
2.90170475615e-07
8.02991670466e-07
2.24892204291e-07
3.30856489197e-06
1.01250548511e-07
2.51561457032e-06
1.65235453258e-07
2.45311859837e-06
9.61999647368e-07
2.25910793713e-06
9.00882936673e-08
2.88930153264e-08
2.68518661073e-10
9.11720117393e-09
6.39895869691e-07
7.25939159624e-07
3.12121659069e-09
3.45191493788e-08
1.69978747447e-08
2.68228960555e-08
3.79549308222e-09
7.0432398857e-07
1.19996670671e-08
3.75507323057e-06
2.33494039138e-06
1.96805284537e-08
4.43556806617e-08
2.28161672193e-07
2.93824717174e-07
4.26848236717e-08
3.05714097924e-07
4.3017321372e-08
4.0218726638e-07
3.53651979076e-07
2.88746220999e-08
6.11075808491e-08
3.23184330006e-07
7.0206034762e-07
1.39023522374e-06
1.02869736003e-06
4.10277550817e-07
2.35920952056e-06
8.45242753251e-07
9.40090627802e-06
1.31459208609e-05
3.60917149912e-07
9.58986075428e-08
1.25861981524e-07
6.42029485675e-08
4.86386133048e-07
4.43982418329e-07
7.22165451407e-08
6.65027146934e-07
1.03359939002e-06
1.36903696559e-06
4.09406757918e-07
2.0087972152e-07
3.57169802654e-07
9.2728422565e-07
2.32661151984e-07
3.42626236211e-07
4.97042334355e-07
1.16841660578e-06
1.4162989381e-06
4.44820294726e-07
5.88232517653e-07
7.13425549524e-06
6.33616002632e-06
1.62447921482e-05
1.52771505034e-05
1.58928941421e-05
1.62203705911e-05
1.14324663143e-05
1.04046695827e-05
1.36506666401e-05
1.58228326218e-05
1.52990248265e-07
1.01126709427e-08
5.5254954276e-08
5.39217762095e-08
2.22600692217e-06
2.54428327414e-07
3.95198924589e-06
5.45556188136e-07
2.48702922405e-07
7.24565171461e-06
1.69081009927e-06
4.80666099762e-06
3.46557023617e-07
4.04151560333e-07
5.37430928506e-07
2.86351116137e-07
1.0372621538e-07
7.92932554631e-08
3.24696696972e-07
1.68100686307e-06
1.94043387521e-05
7.05756406529e-08
1.15504192652e-06
1.15930002368e-05
6.56769254821e-08
1.09419834767e-06
1.17938653592e-06
2.34268946564e-06
1.08056395213e-06
1.21397931899e-05
7.29188946987e-06
1.5483660143e-05
6.05065892038e-08
5.53939594172e-07
1.42154975006e-07
7.13589414358e-08
9.69134219673e-06
9.45044318579e-06
7.0772935221e-08
3.40032344138e-08
1.00195803871e-07
2.80716362057e-08
6.81057695988e-08
1.80159462921e-08
8.27597126224e-08
1.55452774652e-08
3.86759380195e-08
1.37663146658e-08
5.90250673674e-08
1.0741073704e-08
4.33426145152e-08
1.00581079793e-07
5.83863410301e-09
1.4911522624e-05
1.23247446735e-07
1.87429072131e-07
9.56035295967e-08
2.75229833718e-07
3.92171526926e-08
1.63544534485e-06
2.01153794072e-07
2.79759116995e-07
1.36241517277e-06
2.69050343083e-07
6.24552513035e-08
3.36925203324e-08
1.62232445334e-06
1.22921508568e-06
2.26810407616e-06
1.99800318282e-06
4.71328019292e-07
3.39525172903e-06
1.46110837216e-06
1.61915413521e-06
2.56183578234e-06
6.23063749571e-06
3.59780229958e-06
1.42570185215e-06
3.33912803332e-06
1.42061293278e-06
8.67974543541e-07
8.74416255116e-07
7.38156049888e-07
2.12744619329e-06
3.22785661964e-06
4.43247142047e-07
4.06928445135e-07
4.0660264651e-07
1.10483178952e-06
8.30016191565e-07
2.29098692266e-07
9.02493029981e-06
9.29171193434e-06
1.50528706862e-06
3.61580561958e-07
3.04651184684e-07
4.95786698793e-07
2.44248040673e-05
1.47351068652e-05
1.65258935213e-06
7.71370436745e-06
1.06741192338e-05
6.60749981941e-06
5.8689432273e-08
6.21340367329e-08
8.26623193467e-07
3.395833646e-06
5.28755944092e-06
5.66964434725e-06
4.34765509701e-06
5.0405906045e-06
6.77652464588e-06
2.14704646784e-05
1.53622654983e-05
1.13039835474e-05
4.42085822737e-06
5.1738495325e-06
2.05822994799e-05
3.39931178974e-05
3.48785852414e-06
2.49485522164e-06
1.4519121955e-07
6.46659368441e-06
9.3744120298e-07
3.0231577369e-06
6.2292156776e-07
8.50618806348e-07
8.31179123753e-07
6.47843925165e-08
2.20220209783e-07
8.44361282409e-06
7.31255094021e-06
5.80492711954e-11
3.85939250164e-08
8.27910933077e-08
1.05587160954e-07
6.01595901008e-08
7.08185430519e-07
1.55737781006e-06
3.39334712525e-07
5.73172097044e-07
3.78447171624e-08
4.42870774946e-08
4.16077688686e-08
4.11713797683e-08
5.0047681481e-07
1.04387530769e-05
7.8202892941e-06
4.79876155265e-08
2.85130539267e-08
2.62169118514e-06
1.25070940287e-06
4.24639478713e-06
6.77950455476e-06
1.19546751234e-06
1.27717418566e-06
1.95511385137e-06
1.99603745503e-05
8.48008332124e-08
1.38780590212e-07
3.39534634211e-07
8.94805999823e-06
2.58594473557e-05
3.90477172388e-06
4.28863095642e-06
3.38908077442e-06
1.11014523218e-07
1.36917550926e-07
4.92423523435e-08
4.52569602122e-06
7.93347705766e-08
1.98695068819e-07
6.50748014788e-08
2.78990566058e-07
5.9643500801e-07
6.06846998374e-08
3.89382062861e-07
8.16674797961e-07
2.47855464251e-07
3.94768938517e-07
2.22637420044e-05
3.09726365065e-05
3.75375929669e-06
5.66208210536e-07
1.44017583241e-06
1.03467783041e-05
2.65214833062e-05
3.37993663283e-06
2.31191678452e-06
3.97504412172e-08
5.51870625457e-06
1.91210590753e-06
6.54620894211e-06
2.77524171707e-06
6.27286046805e-07
5.4992309095e-07
8.24676199003e-07
1.73998240048e-07
2.18714656332e-06
2.87746511411e-06
4.45091485813e-06
1.37552723913e-07
2.5118708845e-07
1.07694010549e-07
3.52571543994e-06
1.00778749432e-07
1.38905605366e-05
6.81134536988e-06
1.81365999102e-06
6.75375462754e-06
3.25312345043e-06
8.40433195685e-06
1.76283054582e-07
3.36318456671e-06
2.48227993002e-06
8.41756983853e-08
9.37377158032e-08
2.91347216517e-06
2.82653996616e-07
1.40282113713e-07
6.01426377661e-07
3.8885803704e-07
2.75357805594e-06
2.47879109503e-06
2.90563231348e-06
3.04201451194e-06
6.84285032562e-06
5.86797295079e-08
1.30797061577e-07
4.31557993134e-07
1.55818992193e-06
4.02956918968e-07
4.10619986726e-07
5.99183118711e-08
3.56774536565e-07
8.32953221172e-08
7.56847152881e-08
6.17598787692e-08
3.61445158582e-07
9.16871987411e-08
8.37093731355e-08
1.11385198544e-05
3.91741441943e-06
2.6859492641e-06
9.54911943847e-07
4.88346662892e-08
3.03355062525e-07
3.87439141171e-07
2.04271970997e-06
3.35876049512e-06
6.79573617873e-08
3.47486234189e-08
1.02602146473e-07
1.35746193608e-07
2.50328062744e-07
1.6873135587e-07
3.87833275893e-07
3.55836409343e-07
2.68465443778e-07
2.9219157203e-07
9.7385199981e-06
1.07769543048e-05
4.32582676809e-08
4.83607738897e-08
2.87637758337e-07
2.99854425711e-07
3.12685040558e-07
5.01081560243e-08
1.55049465197e-05
4.577187795e-07
5.30911140806e-07
5.20615417924e-07
9.14167832785e-08
1.10758338644e-07
2.23752752886e-07
4.87115929117e-08
6.14763078954e-06
8.62157919414e-06
8.64918209815e-06
7.38552077176e-08
4.31402400128e-07
2.29333380246e-07
1.253345201e-06
4.95403057028e-07
1.07444094523e-06
1.86790474552e-05
1.65453004066e-05
6.68293330848e-07
1.06514213912e-05
1.55381674576e-06
3.67116657677e-06
4.96432373719e-08
6.27188678296e-06
2.4925592442e-08
1.14825864745e-05
6.57689992813e-06
3.2350516859e-06
3.95945929783e-06
1.45507994022e-07
4.59647371358e-08
4.06275811189e-08
5.52103225609e-06
4.77181261206e-06
3.2634500239e-08
3.21175045482e-08
5.99425794755e-06
8.57319653439e-06
4.01369334857e-08
5.2562153117e-08
1.78809200851e-07
6.27523975159e-08
9.32927618643e-06

