# vtk DataFile Version 3.0
File Name: Molecule/sphere_excent/sphere_excent_0-s17.vtk
ASCII
DATASET UNSTRUCTURED_GRID
FIELD FieldData 1
TIME 1 1 double
0.0
POINTS 159 double
0.004559318535 1.6875457764 1.0730600357
-1.0752440691 1.4820450544 0.80225557089
-0.64745563269 1.1420911551 1.5060304403
-1.6791350842 1.0826889277 0.079041883349
-1.6378724575 0.59872514009 0.97278034687
0.77367150784 1.0338727236 1.5263463259
0.066214300692 0.91072618961 1.7783697844
0.64778000116 -1.1046074629 1.535479188
0.012066344731 -1.7095842361 1.0378175974
0.88765746355 -1.6576362848 0.67776221037
0.4816981256 -1.2030950785 -1.523234129
-0.016675364226 -1.718583107 -1.0228164196
-0.58886009455 -1.0657995939 -1.5807580948
1.6248875856 -0.46454113722 1.0644590855
1.543615222 0.50666421652 1.1660343409
1.0979548693 0.072449840605 1.6678394079
0.93560284376 1.5641521215 0.82250976562
-0.81846958399 -1.7122231722 -0.6240054369
0.0043771862984 -1.9996513128 0.012972934172
-1.1592308283 -1.6261730194 0.064193636179
-0.86368626356 -1.6593743563 0.70700615644
-0.65884464979 -1.2256411314 1.4347538948
-1.9801635742 0.1845972389 0.11424633116
0.87539291382 -1.6534934044 -0.70286983252
1.1764348745 -1.6124632359 0.068574778736
0.0065438784659 1.9994157553 0.02128303051
-0.56688767672 1.883335948 0.36276361346
-0.53795158863 1.8886885643 -0.37529784441
-1.09466362 1.6735891104 0.018045449629
-1.1628257036 1.4791350365 -0.67563968897
0.023200424388 1.7312288284 -1.0004655123
0.28131133318 1.8883736134 -0.58733022213
0.55582213402 1.9086443186 -0.20241811872
0.55684161186 1.8840433359 0.37255617976
1.0540269613 1.6964902878 0.065705224872
1.6826361418 0.713747859 -0.81025564671
1.3677686453 1.1707892418 -0.87073528767
1.6775262356 1.0751883984 -0.15623749793
1.1669692993 0.97259503603 -1.3008067608
0.85191661119 1.3035929203 -1.2523263693
1.7813009024 -0.90638965368 0.02055061236
1.905559063 -0.37748888135 -0.47453293204
1.9867190123 -0.17458380759 0.14084883034
1.6108090878 -0.71116650105 -0.948361516
1.7446744442 -0.16178715229 -0.96407598257
1.9200681448 0.28738036752 -0.48007875681
1.090626955 0.019040474668 -1.6762846708
0.86184471846 -0.53451269865 -1.7239106894
0.55705046654 0.013431529514 -1.920758009
0.25952044129 -0.57760155201 -1.8966311216
-0.033979330212 0.055169157684 -1.9987193346
1.3634004593 -0.43187347054 -1.3980104923
1.1418424845 -0.96071428061 -1.3310539722
0.30925181508 0.9614084959 -1.7252711058
1.4493570328 0.69446134567 -1.1902890205
0.87129789591 0.89992928505 -1.5590342283
0.83738029003 0.47795006633 -1.7521966696
1.1524270773 0.57879149914 -1.5288032293
1.4022606611 0.33941406012 -1.385068059
1.673555851 0.30964455009 -1.0501441956
1.4849038124 -0.0070579308085 -1.3397482634
-0.88668960333 0.50657773018 1.7187539339
-0.59174519777 -0.0019562609959 1.9102212191
-0.41714179516 0.58744227886 1.8653821945
-1.1979702711 -0.0360808447 1.597055316
-0.95570212603 -0.58068013191 1.6568677425
-0.36020675302 -0.53272563219 1.8925259113
-1.0459564924 0.019523734227 -1.7046169043
-1.3628278971 -0.33458760381 -1.4247027636
-1.3731002808 0.36780583858 -1.4064700603
-1.6944717169 0.021341262385 -1.0627697706
-1.6149288416 -0.66671741009 -0.96969234943
-1.5756880045 0.7743781209 -0.95567679405
-0.98662948608 1.1767008305 -1.2798937559
-0.86450791359 0.52581048012 -1.7249698639
-1.3105148077 -1.1585739851 0.96720272303
-1.6210532188 -0.51003742218 1.0534315109
-0.36051943898 -0.44436860085 -1.9165282249
-0.58606827259 0.040312182158 -1.9117845297
-0.84629464149 -0.4691606462 -1.7466468811
-0.35159176588 0.54786199331 -1.8910502195
-0.55084979534 0.99450099468 -1.644508481
-1.3479880095 -0.9035757184 -1.1611764431
0.43942037225 0.47016406059 1.8931204081
1.8788055182 0.27585208416 0.62598782778
1.9280519485 0.52163898945 0.10296807438
1.7270790339 0.85716187954 0.53182756901
1.4272619486 1.3355308771 0.42383983731
1.3629374504 1.1160050631 0.94692504406
-0.28785854578 1.414350152 -1.3832213879
-0.5889403224 1.6506209373 -0.96287328005
0.4275175333 1.5475567579 -1.1879841089
-0.071702800691 0.29906496406 1.9760762453
0.21886321902 -0.038565866649 1.9870523214
-0.063593246043 -0.29704165459 1.9763156176
-1.7003068924 -0.89648038149 -0.55056637526
-1.8568376303 -0.5052639246 -0.54009503126
-1.6717244387 -1.0881533623 0.13952608407
-1.4177435637 -1.3506221771 0.40705919266
-1.6745138168 -0.94456499815 0.55004245043
1.687451005 -0.95745909214 -0.48552304506
1.3848595619 -1.1986991167 -0.80298513174
1.3811045885 -1.3941656351 -0.38245418668
-1.52310884 -1.2946097851 -0.04936183989
-1.3944550753 -1.3903099298 -0.3471210897
1.3268396854 -1.1538476944 0.94731032848
0.9600508213 -0.5499112606 1.66388309
1.7218055725 -0.85725963116 0.54709154367
1.4424580336 -1.328766942 0.39056915045
-1.8382916451 -0.74713587761 -0.24948225915
-1.7092293501 -1.0198129416 -0.19638745487
-1.8171452284 -0.82845324278 0.096264451742
-1.9230222702 -0.54668474197 0.055064905435
1.5574594736 -1.2519996166 -0.078495711088
-1.851095438 -0.56749022007 0.50118929148
-1.5608689785 -1.170265913 -0.43958720565
-0.020748335868 -1.1804949045 1.613555789
0.43882730603 -0.52203583717 1.8802195787
0.63354122639 -0.080195203424 1.8948060274
-0.42992994189 -0.89679265022 1.7350980043
0.10605254769 -0.80498218536 1.8276861906
-1.8388026953 -0.2210932821 -0.75450491905
-1.8794523478 0.23526807129 -0.63623708487
-1.934772253 0.055512569845 -0.49583747983
-1.9331845045 -0.28261893988 -0.42755258083
-1.7019044161 0.93752241135 -0.47341769934
-1.8997837305 -0.17378556728 0.58354777098
-1.4685018063 0.26865616441 1.3240410089
0.76719421148 1.7814393044 -0.4868837893
1.0807535648 1.6588882208 -0.28436815739
0.57489478588 1.72394526 -0.83471822739
0.91226005554 1.5162630081 -0.93222469091
1.0563015938 1.5867403746 -0.60390651226
-1.9795620441 -0.23760303855 0.14223906398
-1.9215151072 -0.494538486 -0.25099033117
-1.7983390093 0.46227294207 -0.73748320341
-1.8812639713 0.60516011715 -0.29667282104
-1.9966121912 -0.066391333938 -0.084000229836
-1.9699603319 -0.32634535432 -0.10975722224
-1.9763017893 -0.1476598531 -0.26406884193
-1.9829316139 0.12785324454 -0.22595541179
-0.76655006409 -1.455789566 -1.1366804838
-1.0950709581 -1.4683178663 -0.800337255
-1.0183403492 -1.1502273083 -1.2749501467
-1.1945004463 -1.2031207085 -1.0606153011
-1.5229634047 -1.0957562923 -0.69208943844
-1.4871014357 -0.96489787102 -0.92597305775
-1.3394572735 -1.2181299925 -0.84940624237
-1.3635920286 -1.3277312517 -0.6140050292
-1.1610660553 -1.5470789671 -0.50814050436
-1.1912475824 0.92366826534 1.3131334782
1.3880996704 1.3853555918 -0.39202192426
1.3987573385 1.4285590649 -0.05099677667
-1.0756300688 0.26243156195 1.6656016111
-1.2964919806 0.56807768345 1.413001895
-0.81755441427 0.82838660479 1.6252365112
-1.9608715773 0.37472775578 -0.12104266882
-1.9326044321 0.33069479465 -0.39339005947
-1.8669192791 0.51037836075 -0.50373649597

CELLS 314 1256
3 0 1 2
3 1 3 4
3 5 0 6
3 7 8 9
3 10 11 12
3 13 14 15
3 16 0 5
3 14 5 15
3 17 18 19
3 17 11 18
3 20 18 8
3 20 8 21
3 4 3 22
3 11 23 18
3 9 18 24
3 18 9 8
3 10 23 11
3 25 26 0
3 0 26 1
3 25 27 26
3 27 28 26
3 27 29 28
3 26 28 1
3 30 27 31
3 1 28 3
3 28 29 3
3 32 33 34
3 32 25 33
3 34 33 16
3 16 33 0
3 33 25 0
3 35 36 37
3 38 39 36
3 40 41 42
3 43 44 41
3 44 45 41
3 41 45 42
3 45 35 37
3 46 47 48
3 47 49 48
3 47 10 49
3 48 49 50
3 12 49 10
3 46 51 47
3 51 52 47
3 51 43 52
3 47 52 10
3 10 52 23
3 48 50 53
3 43 51 44
3 35 54 36
3 54 38 36
3 38 55 39
3 55 53 39
3 53 55 56
3 55 57 56
3 55 38 57
3 56 57 46
3 46 57 58
3 57 54 58
3 57 38 54
3 58 54 59
3 44 59 45
3 59 35 45
3 35 59 54
3 59 60 58
3 59 44 60
3 58 60 46
3 53 56 48
3 48 56 46
3 46 60 51
3 51 60 44
3 61 62 63
3 64 65 62
3 65 66 62
3 67 68 69
3 68 70 69
3 68 71 70
3 69 70 72
3 69 73 74
3 21 65 75
3 76 65 64
3 50 77 78
3 77 79 78
3 77 12 79
3 78 79 67
3 50 80 53
3 80 81 53
3 50 78 80
3 78 74 80
3 78 67 74
3 80 74 81
3 12 77 49
3 49 77 50
3 81 74 73
3 69 74 67
3 67 79 68
3 68 79 82
3 5 83 15
3 42 84 13
3 84 14 13
3 42 85 84
3 85 86 84
3 85 37 86
3 84 86 14
3 37 87 86
3 87 88 86
3 87 16 88
3 86 88 14
3 14 88 5
3 5 88 16
3 30 89 90
3 89 73 90
3 89 81 73
3 90 73 29
3 29 73 72
3 72 73 69
3 81 89 53
3 53 89 91
3 30 90 27
3 27 90 29
3 16 87 34
3 37 85 45
3 45 85 42
3 63 6 2
3 2 6 0
3 63 92 6
3 92 83 6
3 92 93 83
3 6 83 5
3 93 92 94
3 62 92 63
3 71 95 96
3 97 98 99
3 98 75 99
3 98 20 75
3 99 75 76
3 76 75 65
3 21 75 20
3 43 100 101
3 100 102 101
3 101 102 23
3 40 100 41
3 41 100 43
3 43 101 52
3 52 101 23
3 97 103 98
3 103 19 98
3 103 104 19
3 98 19 20
3 20 19 18
3 9 105 7
3 7 105 106
3 13 105 107
3 105 108 107
3 105 9 108
3 107 108 40
3 13 107 42
3 42 107 40
3 95 109 96
3 95 110 109
3 110 111 109
3 110 97 111
3 109 111 112
3 102 24 23
3 23 24 18
3 102 113 24
3 113 108 24
3 113 40 108
3 24 108 9
3 40 113 100
3 100 113 102
3 112 111 114
3 99 111 97
3 97 110 103
3 104 103 115
3 7 116 8
3 8 116 21
3 93 117 118
3 117 106 118
3 117 7 106
3 118 106 15
3 15 106 13
3 13 106 105
3 21 119 65
3 65 119 66
3 66 94 62
3 62 94 92
3 93 94 117
3 94 120 117
3 94 66 120
3 117 120 7
3 7 120 116
3 120 119 116
3 120 66 119
3 116 119 21
3 93 118 83
3 83 118 15
3 96 121 71
3 71 121 70
3 70 121 122
3 123 121 124
3 72 125 29
3 29 125 3
3 22 126 4
3 4 126 127
3 128 32 129
3 32 31 25
3 25 31 27
3 30 31 130
3 31 128 130
3 31 32 128
3 130 128 131
3 39 131 36
3 36 131 132
3 132 131 128
3 131 91 130
3 131 39 91
3 130 91 30
3 30 91 89
3 53 91 39
3 22 133 126
3 133 114 126
3 133 112 114
3 126 114 76
3 76 114 99
3 99 114 111
3 112 134 109
3 109 134 96
3 70 135 72
3 72 135 125
3 125 136 3
3 22 137 133
3 137 138 133
3 137 139 138
3 133 138 112
3 112 138 134
3 138 124 134
3 138 139 124
3 134 124 96
3 96 124 121
3 123 124 139
3 123 139 140
3 17 141 11
3 11 141 12
3 17 142 141
3 143 141 144
3 141 143 12
3 12 143 79
3 145 95 146
3 147 148 145
3 148 115 145
3 148 104 115
3 145 115 95
3 147 142 148
3 142 149 148
3 142 17 149
3 148 149 104
3 104 149 19
3 19 149 17
3 95 115 110
3 110 115 103
3 4 150 1
3 1 150 2
3 64 127 76
3 76 127 126
3 132 129 151
3 129 152 151
3 129 34 152
3 151 152 37
3 132 151 36
3 36 151 37
3 64 153 127
3 153 154 127
3 153 61 154
3 127 154 4
3 4 154 150
3 154 155 150
3 154 61 155
3 150 155 2
3 2 155 63
3 155 61 63
3 61 153 62
3 153 64 62
3 143 82 79
3 68 82 71
3 37 152 87
3 87 152 34
3 136 156 3
3 3 156 22
3 22 156 140
3 156 157 140
3 156 136 157
3 140 157 123
3 34 129 32
3 128 129 132
3 123 122 121
3 122 135 70
3 135 158 125
3 158 136 125
3 135 122 158
3 122 157 158
3 122 123 157
3 158 157 136
3 22 140 137
3 137 140 139
3 147 144 142
3 142 144 141
3 143 144 82
3 144 146 82
3 144 147 146
3 82 146 71
3 71 146 95
3 145 146 147

CELL_TYPES 314
5
5
5
5
5
5
5
5
5
5
5
5
5
5
5
5
5
5
5
5
5
5
5
5
5
5
5
5
5
5
5
5
5
5
5
5
5
5
5
5
5
5
5
5
5
5
5
5
5
5
5
5
5
5
5
5
5
5
5
5
5
5
5
5
5
5
5
5
5
5
5
5
5
5
5
5
5
5
5
5
5
5
5
5
5
5
5
5
5
5
5
5
5
5
5
5
5
5
5
5
5
5
5
5
5
5
5
5
5
5
5
5
5
5
5
5
5
5
5
5
5
5
5
5
5
5
5
5
5
5
5
5
5
5
5
5
5
5
5
5
5
5
5
5
5
5
5
5
5
5
5
5
5
5
5
5
5
5
5
5
5
5
5
5
5
5
5
5
5
5
5
5
5
5
5
5
5
5
5
5
5
5
5
5
5
5
5
5
5
5
5
5
5
5
5
5
5
5
5
5
5
5
5
5
5
5
5
5
5
5
5
5
5
5
5
5
5
5
5
5
5
5
5
5
5
5
5
5
5
5
5
5
5
5
5
5
5
5
5
5
5
5
5
5
5
5
5
5
5
5
5
5
5
5
5
5
5
5
5
5
5
5
5
5
5
5
5
5
5
5
5
5
5
5
5
5
5
5
5
5
5
5
5
5
5
5
5
5
5
5
5
5
5
5
5
5
5
5
5
5
5
5
5
5
5
5
5
5
5
5
5
5
5
5

CELL_DATA 314
SCALARS cell_data_0 double
LOOKUP_TABLE default
9.51185255809e-06
6.86657160409e-06
2.47039501543e-05
1.38454799059e-05
3.27452472186e-06
1.78938938222e-05
1.67281745613e-05
2.37511506604e-05
3.23956599224e-06
1.8738226195e-07
7.64581181323e-06
1.1709067447e-05
4.49902267549e-06
9.31219388941e-07
5.06973550192e-06
5.61724948485e-06
2.3059614364e-06
2.04218900673e-06
6.33449324735e-06
9.1491754335e-07
1.73622368975e-06
4.18534578474e-07
2.99034094419e-06
1.04901415338e-05
2.42458073799e-06
3.36974885668e-06
1.7818049308e-06
1.66021060733e-06
3.11469815084e-06
6.511044661e-06
3.97308020684e-06
9.17051367147e-06
5.52185978403e-07
7.88539291905e-07
7.67202670288e-07
1.09909000839e-06
1.01504168608e-06
9.56999295862e-06
1.10343842754e-05
8.2508694086e-08
2.78075491914e-07
8.84315486989e-08
7.64066954081e-07
1.02790506663e-05
2.05272817848e-07
4.67798035078e-07
1.8916587729e-07
2.42265532535e-08
4.51129311019e-06
5.42451497905e-07
2.3895128421e-06
3.85133024915e-07
2.44311672437e-07
1.75986782721e-06
1.92789443635e-05
3.41711176844e-05
1.58102191232e-05
6.73709732158e-05
7.49219022734e-05
3.80071192459e-05
1.69507448524e-05
2.50280850374e-05
8.00529247912e-06
1.42430762194e-05
1.10770351582e-05
4.07296666141e-05
2.07089056983e-05
4.89933951565e-05
2.79052159814e-05
3.13176986104e-05
2.3626596932e-05
8.82491936897e-06
2.29356373383e-05
2.03918242557e-05
9.69959400696e-06
2.03870811234e-05
4.92383702538e-08
8.51049229494e-07
5.192887095e-07
1.58153445399e-06
1.31446721385e-05
1.52195317195e-05
2.9695161374e-06
7.07660949479e-06
4.49339818595e-06
3.29621124095e-05
3.61004437074e-06
3.24827719637e-06
2.93881982712e-06
2.28499493157e-06
2.30464550773e-05
5.61979167366e-08
1.23986565921e-07
5.73017887841e-08
1.34361977529e-06
1.82074750407e-05
2.69945846466e-05
5.22400781967e-06
2.52301776598e-05
4.5994918547e-06
8.20806990542e-06
1.20595128709e-06
2.3360321759e-06
5.36800704083e-07
4.30884658169e-06
3.08380044731e-05
1.63280876062e-05
1.76311911153e-05
4.82271603071e-06
1.12037162831e-05
8.63941226815e-06
1.38575071781e-05
5.00949400178e-06
2.70052168558e-06
7.36268094794e-06
7.39953584283e-06
3.31000906361e-06
5.49821185389e-06
6.68163212298e-06
1.36852938554e-05
3.5926527588e-06
2.2066290459e-05
4.98650955293e-07
1.6912096994e-07
2.03855988996e-05
2.09088173697e-05
1.07346204896e-05
1.26892518815e-05
8.6354080726e-06
1.48572673747e-05
1.50076215484e-05
7.09217326374e-06
9.62134273813e-08
1.33763601742e-06
2.50388743008e-06
3.92907969342e-06
4.46880508311e-06
1.25322966975e-05
8.3164210922e-06
6.07756641416e-07
1.37596787336e-06
7.0969241841e-07
3.42857331837e-07
9.3752234043e-08
3.20930870176e-07
1.46756366941e-07
8.09380572226e-07
1.06025256835e-06
1.71538227077e-05
2.37446868661e-06
5.85742088754e-06
1.01795764384e-05
1.41767056414e-05
4.67196649261e-06
1.611768885e-06
2.02957270931e-06
6.82073364984e-07
2.87375517682e-06
7.14293536722e-08
4.14743259358e-06
4.33549334115e-06
4.73510495441e-06
1.04603598303e-08
2.09109738949e-05
3.32321164893e-07
3.90995152718e-06
3.76019299864e-08
4.26393257384e-07
7.37155357816e-08
2.53641906641e-07
4.0731057905e-08
9.91010115024e-07
1.34483121398e-05
6.79313573865e-07
2.42523977581e-07
1.01952823451e-05
1.41857439497e-05
1.2881194941e-05
9.15793528013e-06
1.0518797273e-05
1.26981459054e-05
1.36973050089e-05
1.77141327075e-05
1.35721727283e-05
8.00517135185e-06
6.59783395986e-06
1.66853692668e-05
2.60279126279e-05
1.66528733545e-05
1.88900890956e-05
1.78926192368e-05
1.65755490615e-05
1.16119068751e-05
1.13567266974e-05
1.49356665091e-05
7.15276725727e-06
9.23625495435e-06
1.49935742396e-05
1.26502997178e-05
1.6719074329e-05
2.36203450327e-05
2.2066761709e-05
2.83174829122e-06
3.69617464036e-06
4.99224775509e-06
6.56874512497e-06
4.66077768456e-07
6.45126610173e-07
7.03886514722e-07
8.16283733115e-06
6.50500637917e-07
4.01263427575e-07
4.43455143955e-06
3.09092696578e-06
1.59326521333e-05
1.13779704e-05
5.04222306515e-06
3.42179065961e-06
8.29748964433e-06
1.05898295138e-05
2.59177007338e-06
1.15678944981e-06
1.20879319964e-06
1.32528939288e-05
2.35497927205e-06
2.47566550234e-06
1.07064673581e-06
1.57805430044e-05
2.43874279588e-06
2.48979517712e-07
2.58597618257e-07
2.53527030375e-07
2.89469011762e-07
1.07714273536e-07
1.94904158935e-06
7.57021286033e-06
6.39601668397e-06
1.6070452272e-07
2.04219072679e-06
1.90649254184e-07
4.97249174442e-06
1.09142302367e-05
1.91411611558e-05
1.89645118466e-06
2.0574850109e-06
5.5855391057e-07
4.06344756372e-07
8.63399380598e-07
5.9859394527e-06
1.4626578915e-08
8.53267830328e-06
4.31612595181e-08
8.39830298666e-06
1.19627032971e-07
1.15014627676e-05
3.28514921931e-08
1.35342483536e-07
9.41277360912e-06
1.84628913176e-05
3.03003936084e-07
4.41986589298e-09
9.41614627044e-08
7.81087717812e-06
8.78286308448e-06
8.9068085161e-06
7.83353077052e-06
5.19929159457e-06
4.72687922164e-07
5.55880878962e-07
6.53807677566e-07
8.51037562223e-06
1.13506222055e-06
5.22322042541e-06
3.00611059052e-06
4.66163009687e-06
2.91273675884e-06
3.50497540091e-06
4.99950408519e-06
2.89398089775e-06
4.99302312765e-06
9.02450028174e-06
8.13512655479e-06
1.20749723965e-05
1.02937404107e-05
5.64759864094e-06
1.01309051014e-06
2.10791058056e-05
1.42620703845e-05
2.02518773209e-07
1.56821065234e-07
2.04679151461e-06
4.05055269672e-06
1.13962102534e-06
1.42178289145e-05
8.43394158038e-07
4.80085128774e-06
2.79066389007e-05
3.98811506482e-06
3.39951711501e-08
1.05031893559e-07
2.03913960086e-06
3.77875530887e-06
1.23791806542e-05
8.44361960432e-07
1.99967959248e-06
4.80391788023e-06
1.20458742983e-05
4.30154732626e-07
3.54821369476e-07
1.73606445683e-07
1.03795220965e-05
4.20086491475e-07
3.08279579122e-07
8.98053228861e-06

