# vtk DataFile Version 3.0
File Name: Molecule/sphere_excent/sphere_excent_0-s30.vtk
ASCII
DATASET UNSTRUCTURED_GRID
FIELD FieldData 1
TIME 1 1 double
0.0
POINTS 336 double
-0.12124367058 1.7325458527 0.99034589529
-1.0911259651 1.4759021997 0.79312926531
-0.58484566212 1.2356270552 1.4590883255
-1.6505087614 1.118412137 0.15726152062
-1.663236618 0.70083796978 0.86078238487
0.62180566788 -1.2156143188 1.4609640837
0.037844747305 -1.7036646605 1.0376811028
0.79433441162 -1.6771799326 0.74535161257
0.31616672873 -1.1847648621 -1.57954216
-0.0033536963165 -1.7107840776 -1.0289055109
-0.30952441692 -1.1788927317 -1.5846514702
1.5407129526 -0.41189387441 1.206807971
1.5394496918 0.45124581456 1.1933298111
1.1995081902 0.028937637806 1.5995821953
-1.9311331511 0.35703414679 0.37739476562
0.065395608544 -1.9940536022 0.030017485842
1.0330902338 -1.7115424871 0.031668957323
-0.52493923903 1.8777401447 0.43426376581
-1.1452460289 1.6350620985 0.07491401583
-1.2647767067 1.4650877714 -0.50067073107
0.14510896802 -0.65136814117 -1.8797644377
0.91903918982 0.9872481823 -1.4766477346
1.1937396526 0.93043416739 -1.3073369265
1.077714324 0.73539155722 -1.515822053
1.3605650663 -0.40760904551 -1.40805161
1.5186085701 -0.19526860118 -1.2866948843
1.5241526365 -0.52352029085 -1.1844406128
-0.45941048861 0.67258453369 1.8264210224
-0.81990206242 0.43034288287 1.7726093531
-0.42920604348 0.23708949983 1.9387207031
-0.65839612484 -1.3294434547 1.3411451578
-1.0149639845 -0.74891149998 1.550369978
-1.1805782318 -1.1307007074 1.1511371136
-1.5719753504 -0.51835846901 1.1221677065
-1.2483210564 -0.19709061086 1.5494344234
0.10088320076 0.039390295744 -1.9970772266
-0.16016069055 0.50111359358 -1.9292457104
0.30085340142 0.43917742372 -1.9277968407
-1.362172246 -0.36124002934 -1.4190658331
-0.98558223248 -0.67363637686 -1.6044616699
-1.271873951 -0.82232755423 -1.3061726093
1.8535089493 0.37339943647 0.65181905031
1.6938259602 0.78404092789 0.7178812027
1.3810679913 0.9995623827 1.0443469286
1.1116204262 0.58604365587 1.5543035269
1.9620175362 0.24305386841 -0.30144518614
1.970993638 0.30779618025 0.14250677824
1.9938424826 -0.15433177352 0.023864952847
-0.022450076416 0.89343655109 1.7890372276
-0.036757200956 0.41614413261 1.9558084011
0.39157122374 0.5095128417 1.893537879
0.30406373739 -7.9867430031e-05 1.9763222933
-0.77515953779 -1.6744600534 0.76360493898
-1.6407101154 -1.103659749 0.29783120751
-1.541133523 -1.2726746798 0.068774573505
-1.3025841713 -1.4564460516 0.4228976965
1.1901932955 -1.087890029 1.1821107864
1.0453385115 -0.60600960255 1.5936405659
1.2803431749 -1.4869940281 -0.38447073102
0.74060469866 -1.7415407896 -0.64598482847
1.5461069345 -1.2675200701 -0.050237875432
1.3807708025 -1.4006998539 0.36179360747
1.7445034981 -0.9450982213 0.25044798851
1.7915939093 -0.88212358952 -0.10893367231
1.6909556389 -0.99118620157 -0.3949444592
-1.9259432554 -0.51956045628 0.1425794363
-1.8091238737 -0.80626767874 0.27705925703
-1.8474895954 -0.51073348522 0.57025182247
-1.680277586 -0.89006596804 0.61879634857
-1.6408047676 -1.128457427 -0.18446071446
-1.7374700308 -0.98919528723 0.041970647871
-0.046680580825 -1.2829036713 1.533649087
0.50924038887 -0.55970549583 1.8512897491
0.74880421162 -0.12464153022 1.8501052856
-0.4399125874 -0.96511632204 1.6955018044
0.023349663243 -0.38668870926 1.9621266127
0.064667269588 -0.85213059187 1.8082511425
-0.37510439754 -0.55293536186 1.8843511343
0.81237274408 0.31941866875 1.7992522717
-1.457010746 0.93454873562 -1.0011204481
-1.6473406553 1.0055006742 -0.52445733547
-1.8445179462 -0.032830245793 0.77195954323
-1.560072422 0.14061491191 1.2434425354
-0.032335788012 1.7852151394 -0.89873749018
0.19349989295 1.9317840338 -0.48032546043
0.44408819079 1.7434617281 -0.87356758118
0.73816400766 1.7708348036 -0.56472510099
0.59005361795 1.8992731571 -0.20739936829
0.83878868818 1.5500943661 -0.94523203373
1.2626494169 1.3116253614 -0.82778900862
1.0860906839 1.5562337637 -0.63102763891
0.48010396957 1.4785654545 -1.2581703663
0.80734658241 1.2854496241 -1.3020830154
-1.9603610039 -0.18904420733 0.34802114964
-1.9180784225 -0.53016453981 -0.19965434074
-1.8541915417 -0.74868386984 -0.03621744737
-1.8311133385 -0.73355549574 -0.32974568009
-1.8564931154 -0.530559659 -0.52148276567
-1.6990582943 0.57273936272 -0.88521528244
-1.8368057013 0.73417395353 -0.2937759459
-1.9985916615 -0.033791292459 0.058724898845
-1.9766407013 -0.29963293672 -0.051961176097
-1.9857994318 -0.099957190454 -0.21525892615
-1.9422638416 -0.33106517792 -0.34318223596
-1.9633957148 0.065187387168 -0.37453752756
-1.9859032631 0.18886761367 -0.14004956186
-0.66349989176 -1.5007683039 -1.1431406736
-0.67040777206 -1.7876659632 -0.58850646019
-1.0236010551 -1.4847182035 -0.86473602057
-0.89406037331 -1.0976061821 -1.4121980667
-1.1386172771 -1.2025072575 -1.120926857
-1.4363331795 -0.97229909897 -0.9957587719
-1.5171742439 -1.1036522388 -0.69288820028
-1.6285197735 -0.85702782869 -0.78303599358
-1.3158581257 -1.235929966 -0.86077964306
-1.3315401077 -1.3642072678 -0.60454559326
-1.5404301882 -1.2025923729 -0.4249291122
-1.3960220814 -1.3864901066 -0.3586127758
-1.6865446568 -0.9667083025 -0.46985352039
-1.0727351904 -1.5904859304 -0.56290578842
-1.4740684032 -1.3422049284 -0.15972049534
-1.1754840612 1.0200443268 1.2557731867
1.1093468666 1.6324353218 -0.32158333063
1.3925089836 1.3653439283 -0.44311437011
1.3446575403 1.4796859026 -0.042380325496
1.6759309769 1.0270917416 -0.36525946856
1.5905622244 1.2064822912 -0.10581105947
1.5188803673 1.0963140726 -0.70080447197
-1.153914094 0.21047070622 1.6198823452
-1.2953667641 0.57747030258 1.4100288153
-0.89045786858 0.82304513454 1.5905641317
-0.79159492254 -0.0095152230933 1.836550355
-1.5653991699 -0.63916027546 -1.0680549145
1.3517985344 1.42544806 0.37431257963
1.0645104647 1.680919528 0.19840779901
-1.9374254942 0.49219590425 -0.045411292464
-1.9309103489 0.36516958475 -0.37207764387
-1.8279817104 0.58440023661 -0.56313854456
-1.8506826162 0.32523959875 -0.68472880125
0.80774432421 0.76919865608 -1.6600160599
0.70800435543 0.5113402009 -1.7991577387
0.98454993963 0.52349996567 -1.6602857113
0.89490026236 0.28906333447 -1.7651076317
1.1005344391 0.29024031758 -1.6444346905
1.2296408415 0.47914525867 -1.5028071404
0.95984745026 -0.091499224305 -1.7520648241
1.2744392157 0.13933244348 -1.534889102
1.4019811153 0.3182015717 -1.3904156685
1.281368494 0.699614048 -1.366997242
1.4448847771 0.53339082003 -1.2758357525
1.4037322998 0.80501711369 -1.1753377914
1.5607970953 0.29057651758 -1.2163131237
1.6302893162 0.46700742841 -1.0601168871
1.7461853027 0.20834548771 -0.95248103142
1.6188137531 0.043191496283 -1.1735323668
1.4568610191 0.07454264909 -1.3680727482
1.7164986134 -0.21565113962 -1.0033767223
1.2869077921 -0.15517020226 -1.5229866505
0.66948854923 0.1965187788 -1.8743834496
1.0992908478 -0.45564201474 -1.6066619158
0.13080964983 0.91199541092 -1.7747217417
0.49938231707 -0.11362507939 -1.9320532084
0.59154105186 1.0826483965 -1.5740764141
0.50433421135 0.76365989447 -1.7783310413
1.861552 0.64935463667 0.33606183529
1.881231308 0.67189872265 -0.096129149199
1.780185461 0.89622682333 0.16237185895
1.7016333342 0.97690719366 0.38545390964
1.5545562506 1.1179900169 0.57547998428
1.6929689646 0.80875599384 -0.69259858131
1.8490669727 0.59512764215 -0.47579857707
-0.082286544144 0.022191084921 1.9981517792
-0.35663074255 -0.15881918371 1.9612736702
1.5310519934 1.2782336473 0.1388246119
0.91288560629 1.0993173122 1.3988426924
0.45136639476 1.4194751978 1.3346446753
0.41298636794 1.0465204716 1.6535109282
0.0062676304951 1.3293125629 1.4941701889
0.77101123333 1.5457589626 1.0036736727
1.8731452227 -0.00043412868399 -0.70094203949
1.7590103149 0.50922143459 -0.8041023612
1.8607925177 0.31121554971 -0.6635671854
-1.6325391531 -0.30546846986 -1.1141591072
-1.6157596111 0.01939092949 -1.1781749725
-0.77284568548 -0.23980599642 -1.8288092613
-1.0293163061 -0.2776593864 -1.6919150352
-0.86113315821 0.012205836363 -1.8049952984
-1.1555690765 0.015463889576 -1.6321461201
-0.53236305714 0.08735948801 -1.9257677794
-0.72482925653 0.24666963518 -1.8474607468
-0.9900432229 0.30113792419 -1.7114539146
-1.1344722509 0.54533404112 -1.5541964769
-1.2663872242 0.25845760107 -1.5260212421
-1.8427273035 -0.173154369 -0.75787127018
-1.7684756517 -0.37869030237 -0.85387402773
-1.8900564909 -0.28970849514 -0.58632963896
-1.7546854019 -0.10888382792 -0.95353358984
-1.7722494602 0.17056901753 -0.91064476967
-1.8528206348 0.03885807097 -0.75180178881
-1.908246398 -0.066458128393 -0.59497028589
-1.948197484 -0.14700184762 -0.42753595114
-1.9137939215 0.14239120483 -0.56274694204
0.64175677299 -0.37349495292 -1.8553925753
1.2781118155 -0.69804781675 -1.3708233833
1.0244226456 -0.79229307175 -1.5240290165
1.122379303 -1.022477746 -1.301782608
0.7458140254 -0.6559792757 -1.730355978
1.4086794853 -0.87083005905 -1.1212719679
1.6541272402 -0.6713026762 -0.90145123005
0.79144239426 -1.1457549334 -1.4355037212
1.947578311 -0.021977949888 0.45430129766
1.9026563168 -0.49544551969 0.36633524299
1.7925412655 0.006444056984 0.88691812754
1.8388935328 -0.34776958823 0.70475131273
-1.7345592976 -0.62872469425 -0.77201527357
-1.7653003931 -0.74602043629 -0.57195931673
1.451469183 -1.0841574669 -0.84607416391
1.7395954132 -0.75028401613 0.64005672932
0.57789504528 -1.5083675385 -1.1792062521
1.9121947289 -0.58540081978 0.026579046622
1.9108335972 -0.49065867066 -0.32748100162
0.95098185539 -1.3710712194 -1.1025601625
1.5533970594 0.85298675299 -0.926905334
1.401247263 1.025647521 -0.99208915234
0.73013156652 0.73475056887 1.7106962204
1.1620521545 -1.4212706089 -0.79337954521
1.2325004339 -1.1749001741 -1.0490794182
-1.3299018145 -1.4912860394 0.084972821176
-0.96484994888 -1.7490698099 0.073470957577
-1.2727195024 -1.533754468 -0.16542358696
-1.2408174276 -1.5175546408 -0.3963727057
-1.0734776258 -1.6645755768 -0.27563282847
-0.79851013422 -1.8168164492 -0.24914830923
1.5387876034 0.66235941648 -1.0924589634
[...]
CELL_DATA 668
SCALARS cell_data_0 double
LOOKUP_TABLE default
1.27873487736e-05
7.35403302177e-06
3.57064147043e-06
9.75393365327e-05
5.65984797135e-06
4.33917342926e-06
1.62796016666e-05
4.1062469613e-06
5.02815356415e-06
6.33988803202e-06
9.58900427294e-05
1.18955164479e-05
3.52211551867e-06
7.61466093681e-06
6.57821383401e-06
1.02969325779e-05
8.32507981361e-05
2.61221492452e-05
1.8392957688e-07
1.02893683822e-06
7.07939346816e-06
8.36101507003e-06
1.04634770603e-05
8.7737089939e-06
6.98564469528e-06
7.13968024267e-06
7.33798629945e-06
5.68271911997e-06
8.00078538273e-07
3.56165219636e-06
8.30145285701e-06
9.63088449026e-08
1.95284732302e-06
1.22852187551e-06
1.45661732535e-06
1.19391658977e-06
1.08414066963e-05
1.12395898579e-06
1.36321547829e-06
8.81536426226e-07
3.55369139781e-07
1.10572244734e-05
9.90357508953e-06
7.3850355729e-06
7.98924443968e-06
1.05066466447e-05
1.15479450082e-05
7.79071992231e-06
5.91647476809e-06
8.08953338452e-06
8.50266387174e-06
8.23834370193e-06
8.11173799609e-06
1.07613462611e-05
8.44892312216e-06
6.59048163499e-06
7.75080365487e-06
6.05415770414e-06
1.85182713368e-05
7.84271297551e-06
1.65440298725e-06
3.62884513101e-06
4.97411210592e-06
6.00527666353e-06
4.19039315789e-07
2.90443390563e-07
3.71835374154e-07
9.49590287624e-06
4.17215399683e-07
7.24805093436e-06
2.75637755226e-05
2.56338953819e-08
6.27827596396e-06
5.50468454077e-06
5.66763813533e-07
3.173418612e-08
1.37362205573e-06
3.5914094498e-06
3.81363239925e-06
6.46678622575e-06
2.17860926562e-06
1.35132454574e-06
1.79063531831e-06
3.4397080573e-08
1.18525451563e-06
4.49490690926e-06
4.43333281572e-06
6.379073137e-10
4.18639982839e-06
1.68423936935e-07
1.90030685457e-05
2.34383634565e-07
1.02245915448e-07
1.18116642729e-05
2.79677091993e-07
1.55268012118e-07
2.98807324072e-07
1.07703376089e-07
2.28799372891e-07
7.84993435865e-08
2.91399605707e-07
4.03068992085e-07
2.25550556836e-07
8.63147538915e-08
6.17791074131e-06
6.73747362769e-06
7.66649763743e-06
4.83356461751e-06
2.76709297538e-07
6.58533911498e-07
6.33164505934e-08
7.864005879e-06
8.57538418939e-06
6.79369174495e-06
3.87538406494e-06
4.91934576707e-06
4.85653713007e-06
4.46825011689e-06
3.60430837531e-06
5.6742654368e-06
4.4110591203e-06
7.76454329005e-06
6.64129379029e-06
6.53791257319e-06
8.92018283397e-06
1.30055271729e-05
1.00234179733e-05
9.23302785882e-07
1.09238033356e-06
2.17844956897e-06
8.22451324346e-07
3.70697788005e-07
7.85542201148e-07
2.32769680619e-07
5.6744961019e-09
2.28121160662e-07
1.43468621133e-06
2.02079926855e-07
2.38597540058e-07
8.03407020189e-07
7.341861386e-07
1.38794716771e-07
2.71676756673e-08
2.26835083488e-08
6.74130571808e-08
2.53325996411e-07
9.60895150688e-08
1.30049915454e-06
1.34714721567e-07
2.97627905974e-06
2.38900669968e-07
4.9175448403e-08
7.15818253267e-08
5.74503545606e-07
6.52250225363e-07
7.79748718227e-08
1.62661550648e-07
4.78636926747e-08
4.4826795791e-07
3.22543088895e-07
4.03321645696e-07
1.91883371204e-07
7.84223352935e-06
9.19666477043e-06
3.98807826586e-07
5.87676294985e-07
5.40792712591e-07
7.01221754936e-07
5.60427224964e-07
6.12257854492e-07
3.03859155311e-07
1.61933179728e-06
1.47883093153e-06
1.10865087079e-07
8.81640500915e-08
3.90392655913e-07
1.03295137867e-06
3.49039049171e-06
1.20564742943e-06
3.70234782375e-06
7.48855879841e-05
4.42912432369e-05
3.74145211227e-05
6.50300418543e-05
2.27586265285e-05
2.31327570583e-05
2.01851558696e-05
3.63005322652e-06
2.70441051799e-05
2.94189914126e-05
2.16214562726e-05
3.57487587617e-05
4.79754015159e-06
5.53231632752e-06
1.25598358652e-05
9.46953811269e-06
1.51961088611e-05
1.29316490626e-06
1.70718635324e-07
5.85451314656e-06
5.41159499705e-06
5.73157959992e-06
7.89198154706e-06
7.77939385461e-06
6.28427252829e-06
7.10247906604e-06
4.16377866011e-06
4.90590832926e-06
5.25350820753e-06
6.39240290292e-07
2.60579890589e-06
2.26444670958e-06
7.20106154074e-06
2.09734013559e-06
4.15954368344e-06
3.57305669422e-06
6.58007323331e-06
4.6635075133e-06
4.66542454483e-06
3.14774144079e-06
2.30380318003e-06
7.48181083334e-07
1.69401940793e-07
2.88586368861e-07
7.12597990627e-08
2.37330952727e-07
7.22246876107e-06
1.83450920829e-05
2.92679637068e-08
1.3506162713e-06
8.94659301116e-06
1.15886534781e-07
1.39239478264e-06
1.64872662948e-09
8.01107614795e-06
2.38926922483e-05
6.55813834298e-06
8.78714341881e-06
6.658387848e-06
6.51110081972e-08
1.01591169078e-06
1.02817904268e-07
6.06151346997e-09
5.40151472894e-06
5.78150821778e-06
2.42637845105e-08
2.29390574719e-08
7.42007627249e-08
4.49975024742e-08
7.98570928013e-08
3.82273247374e-08
7.48704452237e-08
1.36718917094e-07
2.18847114146e-07
8.30062644879e-08
4.71413918658e-08
7.63526710027e-08
5.23419203929e-08
1.1287366779e-07
2.65323114299e-08
1.66629189485e-07
2.06795717469e-07
1.68469095501e-07
1.82717201241e-07
3.50945871299e-06
3.36388193108e-06
3.37704763432e-06
8.61335768823e-08
1.99772671166e-08
2.2540689491e-07
3.03397408234e-06
5.63898226258e-08
1.59366374318e-06
6.39039620644e-08
3.67335862155e-05
3.40579770994e-06
1.14296956463e-06
2.98848752354e-06
1.36030072838e-06
1.66104856863e-06
6.38456923688e-06
9.89250950002e-06
2.20862948828e-06
1.08142807259e-06
4.87258918473e-06
2.90096776901e-06
7.28874416125e-07
3.80890854923e-07
1.28882995622e-07
2.2835123529e-06
6.51071745242e-06
1.65451321961e-07
1.5273601323e-07
3.50212896255e-07
2.18916506525e-06
1.77285166074e-06
1.91615252084e-07
6.31898032568e-06
9.0508837654e-06
4.30168023322e-05
2.9137513696e-06
6.18239817396e-07
1.61002168686e-08
2.80436462521e-05
1.83223874376e-05
2.74997416314e-05
5.99959482672e-07
6.82935690413e-07
1.37170778173e-06
6.17658298435e-07
2.42594504891e-07
1.77453716417e-08
7.5163881542e-06
9.27897086509e-06
4.70035975545e-06
8.28742940496e-06
1.08164949343e-05
9.88553878375e-06
5.41830451313e-07
1.72800880064e-07
3.81358860835e-08
9.10384176675e-08
1.06371476524e-06
2.94716284694e-07
5.28057014619e-07
3.88106385359e-08
1.15412463667e-08
1.19534994421e-07
2.03780870245e-07
8.25707478063e-07
2.882717285e-06
8.69445660292e-07
1.1519929754e-06
6.08168863011e-07
9.36978329737e-09
1.69763277655e-07
1.21929947506e-05
1.58856529502e-05
1.89460222816e-07
3.55442530199e-09
8.2806468384e-08
9.50938778515e-08
1.67506441405e-07
2.89036824411e-07
2.13254347449e-07
1.12705928564e-07
2.85390527468e-07
1.1978312437e-07
2.44529113676e-08
1.3379339862e-07
1.07084836013e-08
4.95768282677e-06
4.33368576176e-06
8.64650285934e-08
7.00222236895e-08
3.40647393872e-07
7.65231556562e-07
1.22137559345e-07
5.54819675634e-08
9.63204422137e-07
1.11343617101e-06
3.96008220925e-06
5.7819426815e-07
2.32214263341e-07
1.94809770709e-07
1.39095815222e-05
2.78191293882e-05
4.8381834406e-06
6.34981889901e-09
8.39799026836e-08
9.93461631675e-08
6.03287958226e-08
3.80398112812e-08
8.96375374492e-08
2.1258194844e-07
1.27208596814e-08
4.75052122967e-07
5.96348805741e-06
5.96956441435e-06
2.28638761756e-07
1.77962360061e-07
1.84680038618e-07
2.75114011585e-07
7.04280388576e-07
5.14706574659e-07
1.14049216787e-06
7.26327139734e-06
2.51491114313e-07
7.08269399748e-06
5.59448112209e-06
7.98576971409e-06
8.74888289124e-06
6.89016093815e-07
9.32525681342e-07
1.65673038931e-06
3.27535366671e-06
3.52621589195e-06
1.38096022507e-08
5.03859556701e-08
4.21503676884e-07
6.29960895375e-07
6.99293035968e-07
6.12976038895e-06
3.03493476666e-07
2.13197513894e-07
8.18505468424e-06
1.10143155186e-05
7.13837155161e-06
5.56169176551e-06
6.08548974744e-06
2.59465604053e-06
7.44184768021e-06
1.82037868779e-06
2.10478979923e-05
3.21724254376e-05
9.37608974819e-07
1.52186945593e-06
8.92197264419e-06
5.28314774014e-06
4.6650286014e-06
8.55299234765e-07
6.62204085763e-06
1.17640320032e-07
4.61692367089e-08
5.03488363155e-06
1.77460463498e-05
4.48416838003e-07
1.16231322423e-05
3.59711656821e-08
5.65469451411e-06
4.29649479261e-08
1.04107688635e-08
6.47383721686e-09
5.29955298525e-06
1.28144950427e-07
5.79688078144e-06
4.53090988347e-06
5.43129776275e-07
3.12520772444e-06
1.9694674191e-06
1.07911141208e-06
1.18869034682e-06
1.17292321789e-06
5.60401143947e-06
2.07273882647e-06
2.36257818258e-07
2.30000105848e-07
2.80867151397e-07
3.08355280217e-07
4.64264016181e-07
2.6540755221e-07
5.50532108974e-07
4.83448103215e-07
3.27127869396e-06
5.31870479542e-07
8.00567830058e-06
1.16792355511e-05
4.61061371869e-08
3.14179535543e-08
4.55474585209e-06
9.48020299008e-06
5.34260526662e-06
1.20612082195e-07
6.07605743541e-06
1.10909514072e-06
1.20501224965e-06
2.59178453997e-08
1.73273625723e-07
6.63434333391e-06
2.69532168442e-06
7.39156718512e-06
1.35166606051e-05
4.71448993818e-06
6.77633456537e-08
5.51544227968e-06
7.27669872914e-06
2.75533921622e-05
1.41878938893e-05
1.70753186434e-05
1.43770697804e-05
1.71529874768e-05
4.45636598398e-06
8.59061651055e-08
1.94062681159e-07
2.05709124183e-07
2.85774136134e-07
1.11229576274e-07
5.15028909223e-07
3.96109562692e-07
1.01980863995e-05
6.32890305424e-06
5.63343370136e-06
5.39625589433e-08
3.20452856611e-08
3.40532992187e-06
4.4066189527e-06
2.39471734409e-07
2.32179886087e-08
7.73234545516e-06
8.4387078125e-06
2.17135772989e-08
9.50244441666e-09
6.60225578332e-06
6.03667301797e-08
2.7283506568e-07
4.98212788141e-06
4.71574552043e-08
9.54587684783e-07
5.4734168729e-06
1.89631170243e-05
7.33343373665e-06
7.53667931422e-06
4.09137475718e-06
9.21155797889e-07
8.48600765588e-07
9.02544302476e-07
8.99914121765e-07
1.55216506159e-06
9.56737459344e-07
3.44182563701e-06
2.35794962482e-06
2.49233416116e-06
3.31226836758e-06
6.35842810733e-07
1.52445996721e-05
7.41450094112e-06
2.04704634227e-07
1.75673298994e-07
6.94597143846e-07
5.40674145849e-08
3.21014437566e-07
5.79205397856e-06
2.52853403578e-07
3.63707469972e-07
5.60247178149e-06
1.43173730286e-07
9.36393900141e-08
5.40850006168e-07
3.65159330975e-07
6.34845013432e-08
1.80695990528e-07
3.03077804471e-07
6.74216282167e-06
1.13583436977e-05
1.10474725344e-06
2.38449967746e-07
1.18121438688e-06
5.43546634088e-06
1.76752766234e-06
1.60207376627e-07
4.34751967498e-07
4.09324947357e-07
5.22220320354e-07
4.70231985831e-07
1.26529451563e-06
1.13002240062e-06
8.48984211314e-07
1.53845770068e-06
7.28571692589e-06
8.17231567034e-06
4.28826107326e-06
3.75531502155e-06
4.47785262126e-06
5.04461719609e-06
5.538377157e-06
5.84031627361e-06
2.43027255936e-06
3.15588346851e-06
3.35649450176e-07
8.93286300284e-07
4.28348786381e-07
8.69182238091e-07
2.14190463513e-07
2.97403531672e-06
1.92800960488e-06
3.53230818876e-06
4.73906354688e-07
2.59621272714e-07
8.61468908312e-06
4.13910736184e-06
5.78458019036e-06
4.84755037884e-06
1.23854383176e-07
1.56447254506e-07
2.59646319212e-06
3.95652508619e-06
6.94462709844e-06
5.92963479687e-06
1.92231924579e-06
3.03205600796e-06
3.44993500212e-06
3.43768134993e-06
1.46652636675e-06
1.00239244919e-06
9.20483157594e-07
1.19492805643e-06
9.13245867764e-07
6.68111999495e-07
5.24990094769e-07
6.7325381199e-07
5.90568505342e-07
5.72557799885e-07
4.085993331e-06
4.94248344623e-06
3.24930528125e-07
2.9224227621e-07
1.23590581446e-07
2.22929893142e-07
1.23360863857e-06
2.5647371752e-07
1.39441589162e-06
7.0715027879e-07
5.06354415843e-06
8.74264109155e-07
5.529015572e-06
4.74607784217e-07
4.89202456368e-07
5.44611804849e-06
5.21270918133e-06
5.77692847554e-07
3.01990283929e-06
3.82691032791e-07
2.06393421115e-07
1.20168273653e-06
1.4268642136e-06
2.09864701717e-07
7.82382409937e-08
1.07504779083e-06
1.30785525885e-06
8.3562383578e-08
2.60879483335e-07
2.46165576138e-07
8.37352160001e-07
3.53802507899e-07
3.16213879253e-07
1.91758589946e-07
8.92917595823e-07
4.32466974528e-07
2.01258626975e-06
1.71416652371e-06
1.35011358982e-06
1.59368482721e-06
3.57754814189e-06
5.19190925141e-06
5.84601422929e-07
3.79812219846e-06
1.533404051e-05
1.20363417454e-05
1.6475014736e-06
4.00834308092e-06
1.96948581541e-06
1.36052976466e-06
2.14332516695e-06
1.30065425646e-06
3.45576871416e-05
2.78056625627e-05
4.10023936858e-06
5.94123205229e-06
6.47674324523e-07
1.54046675921e-06
1.48487018894e-06
9.28749501397e-07
5.7541128497e-07
1.25359839727e-06
9.57808494769e-07
1.32426562155e-07
3.79556497098e-07
1.91514658165e-07

