# vtk DataFile Version 3.0
File Name: Molecule/sphere_excent/sphere_excent_0-s6.vtk
ASCII
DATASET UNSTRUCTURED_GRID
FIELD FieldData 1
TIME 1 1 double
0.0
POINTS 59 double
-0.00038012425648 1.702858448 1.0488382578
-1.0362343788 1.5486240387 0.72479569912
-0.6154897809 0.99595689774 1.6214694977
-1.6193546057 0.61236661673 1.0012075901
-1.6993086338 1.0544409752 1.8197595637e-05
-1.0513790846 -0.00027510372456 1.7013533115
0.616302073 0.9972614646 1.6203366518
3.5180382838e-05 -0.00035079513327 1.9997967482
1.0514084101 -0.000135455688 1.7013353109
-0.61796122789 -0.99991345406 1.6178472042
0.61797124147 -0.99990403652 1.6178513765
1.1598808669e-06 -1.7013021708 1.051461339
1.6171417236 -0.61853885651 1.0009002686
0.99995678663 -1.6178531647 0.6179177165
1.7018362284 -1.0504683256 -0.00083012273535
0.59482306242 -1.0332446098 -1.6033421755
-1.3965156541e-05 -1.7013041973 -1.0514602661
-0.61757224798 -0.99970567226 -1.6182694435
-0.036580193788 0.018994724378 -1.9963786602
-1.0514276028 -0.00030470639467 -1.7013194561
1.9972053766 0.0022249445319 0.062195260078
1.6182938814 0.61478924751 1.0016813278
1.7004692554 1.052746892 -0.0015967715299
1.0324598551 1.5598256588 0.70666563511
-1.6178081036 -0.61809629202 -0.99991488457
-1.6193964481 0.61238670349 -1.0011312962
-1.9997955561 0.00013674139336 6.8072226895e-06
-1.7013030052 -1.0514599085 -1.5007078957e-07
0.00043881309102 1.7023625374 -1.0497118235
-0.61842209101 0.9957190156 -1.6206306219
-1.0354850292 1.5493578911 -0.72393941879
-0.99988245964 -1.6178662777 -0.61798095703
-0.99988925457 -1.6178599596 0.61796534061
9.2754344223e-06 -1.9997911453 -1.3627121007e-05
-1.6177774668 -0.61818361282 0.9999037981
0.99946397543 -1.6182999611 -0.61808586121
1.6041798592 -0.66613262892 -0.98505496979
0.5469224453 0.9725677371 -1.6585847139
0.016566589475 1.9996306896 -0.00018870428903
-0.53604310751 1.8981919289 0.33122819662
-0.53588664532 1.8983232975 -0.33086305857
-1.057600379 1.6973793507 9.7877105873e-05
1.007017374 1.6063975096 -0.63563877344
1.0536898375 1.6998945475 0.0080485669896
0.54664003849 1.8972235918 -0.31944939494
0.55052793026 1.8944803476 0.3285574913
1.6300038099 0.59783154726 -0.99210786819
1.3767712116 1.1625841856 -0.86788833141
1.1722420454 0.85162240267 -1.3785812855
0.8532140851 1.3603806496 -1.1921693087
1.069200635 0.027706285939 -1.6837861538
1.9026200771 -0.32454887033 -0.52424889803
1.7076694965 -0.017535410821 -1.0411292315
1.9076365232 0.30671611428 -0.5170712471
0.86930286884 -0.51540774107 -1.725651741
0.54977500439 0.00040431617526 -1.922655344
0.31908595562 -0.52890843153 -1.9019474983
1.3743605614 -0.34763327241 -1.4109779596
1.1626887321 -0.86745649576 -1.3764228821

CELLS 114 456
3 0 1 2
3 1 3 2
3 1 4 3
3 2 3 5
3 0 2 6
3 2 7 6
3 2 5 7
3 6 7 8
3 5 9 7
3 9 10 7
3 9 11 10
3 7 10 8
3 8 10 12
3 10 13 12
3 10 11 13
3 12 13 14
3 15 16 17
3 18 17 19
3 14 20 12
3 20 21 12
3 20 22 21
3 12 21 8
3 22 23 21
3 23 6 21
3 23 0 6
3 21 6 8
3 19 24 25
3 24 26 25
3 24 27 26
3 25 26 4
3 28 29 30
3 29 25 30
3 29 19 25
3 30 25 4
3 27 31 32
3 31 33 32
3 31 16 33
3 32 33 11
3 27 32 34
3 32 9 34
3 32 11 9
3 34 9 5
3 5 3 34
3 3 26 34
3 3 4 26
3 34 26 27
3 19 17 24
3 17 31 24
3 17 16 31
3 24 31 27
3 16 35 33
3 35 13 33
3 35 14 13
3 33 13 11
3 36 14 35
3 15 35 16
3 18 29 37
3 18 19 29
3 37 29 28
3 38 39 0
3 0 39 1
3 38 40 39
3 40 41 39
3 40 30 41
3 39 41 1
3 30 40 28
3 28 40 38
3 1 41 4
3 41 30 4
3 42 43 22
3 22 43 23
3 42 44 43
3 44 45 43
3 44 38 45
3 43 45 23
3 38 44 28
3 28 44 42
3 23 45 0
3 45 38 0
3 46 47 22
3 22 47 42
3 46 48 47
3 48 49 47
3 48 37 49
3 47 49 42
3 37 48 50
3 50 48 46
3 42 49 28
3 49 37 28
3 36 51 14
3 14 51 20
3 36 52 51
3 52 53 51
3 52 46 53
3 51 53 20
3 46 52 50
3 20 53 22
3 53 46 22
3 50 54 55
3 54 56 55
3 54 15 56
3 55 56 18
3 18 56 17
3 17 56 15
3 50 57 54
3 57 58 54
3 57 36 58
3 54 58 15
3 15 58 35
3 35 58 36
3 50 55 37
3 55 18 37
3 36 57 52
3 52 57 50

CELL_TYPES 114
5
5
5
5
5
5
5
5
5
5
5
5
5
5
5
5
5
5
5
5
5
5
5
5
5
5
5
5
5
5
5
5
5
5
5
5
5
5
5
5
5
5
5
5
5
5
5
5
5
5
5
5
5
5
5
5
5
5
5
5
5
5
5
5
5
5
5
5
5
5
5
5
5
5
5
5
5
5
5
5
5
5
5
5
5
5
5
5
5
5
5
5
5
5
5
5
5
5
5
5
5
5
5
5
5
5
5
5
5
5
5
5
5
5

CELL_DATA 114
SCALARS cell_data_0 double
LOOKUP_TABLE default
2.0012493234e-05
2.38541159516e-05
1.26246889566e-05
2.90485073119e-05
3.45078084665e-05
7.44724312303e-05
8.94594671164e-05
5.0597120068e-05
8.64443126494e-05
4.95238474002e-05
3.43640212363e-05
4.62461752249e-05
3.15692382977e-05
2.46031099111e-05
2.08376203472e-05
6.28687054609e-06
1.16908592133e-05
5.86017063245e-05
3.12350506526e-06
9.58580502054e-06
4.77801474047e-05
2.43333557091e-05
2.3492948838e-05
2.27136899605e-05
1.98305500397e-05
3.38192695483e-05
8.64768021246e-05
1.35570783363e-05
4.4121962085e-05
6.13509584285e-05
5.38626784589e-05
1.51275519974e-05
7.97433094496e-05
7.00862473668e-05
3.04245611912e-05
5.47298725456e-06
9.36868429126e-06
3.22180006677e-06
1.85569785416e-05
2.35679129213e-05
2.0768770799e-05
3.78313926823e-05
1.57927393724e-05
1.50641338987e-05
2.54736071993e-05
2.26810745063e-05
6.32090695935e-05
1.16679370348e-06
9.97502550296e-06
4.35875923166e-05
1.43577494819e-05
4.75720930059e-06
2.07010273268e-06
5.54937597083e-06
2.32025011749e-05
1.15029636099e-05
1.36441873334e-06
5.55360762913e-05
5.06068048096e-05
4.35227466696e-06
6.54735915373e-06
1.56199490903e-06
1.09509616658e-06
5.42682113679e-07
2.88270997862e-06
3.37698681039e-05
2.20765422481e-05
1.40030360488e-05
2.65668145034e-05
2.48588007533e-05
2.00901214331e-05
5.92780977971e-07
1.14853113095e-06
1.76821376877e-06
2.40455375367e-06
1.86305080267e-05
2.12230774426e-05
6.27026323209e-06
4.2793481413e-06
2.75506195604e-05
2.15057997387e-05
2.73176285279e-07
5.12521008511e-07
1.34141515131e-07
7.47243669827e-07
0.000142975556373
0.000138760662834
2.20848987379e-05
2.73563021916e-05
1.14652457942e-05
5.66598132616e-06
3.19182673548e-06
3.73439220513e-07
4.15536014675e-07
6.59624140174e-07
0.000135018665961
2.98500726854e-05
2.8132698702e-05
6.98807349838e-05
2.65525393753e-07
2.0507205481e-07
1.95667513053e-07
9.85936359461e-07
3.82195221482e-08
6.68846993035e-05
2.74262488079e-07
2.62864052578e-06
2.05649375327e-07
3.11156661299e-09
6.91716027229e-06
0.000132148029275
4.07019152036e-07
2.8107727091e-06
7.31373275553e-05

