# vtk DataFile Version 3.0
File Name: Molecule/sphere_excent/sphere_excent_0-s13.vtk
ASCII
DATASET UNSTRUCTURED_GRID
FIELD FieldData 1
TIME 1 1 double
0.0
POINTS 111 double
0.0041594710201 1.6950703859 1.0609996319
-1.0638018847 1.4971046448 0.79036980867
-0.64077931643 1.1058478355 1.5367174149
-1.6234527826 0.60050374269 1.0014103651
-1.696955204 1.0578886271 0.012389969081
0.71799081564 1.0214374065 1.559650898
0.090222813189 0.85902804136 1.8006612062
-0.61135393381 -1.1439217329 1.5197532177
0.0052149025723 -1.7061346769 1.0433403254
0.61730730534 -1.0035219193 1.616163373
0.15722605586 -0.077647142112 1.9904239178
1.0549160242 -0.0041549345478 1.6990801096
1.6079720259 -0.58664488792 1.0241156816
0.96915614605 -1.6338610649 0.61290055513
0.50940817595 -1.1660652161 -1.5424827337
-0.010663722642 -1.7119539976 -1.0338995457
-0.62919956446 -1.0592749119 -1.5734391212
1.5673578978 0.53912079334 1.1158584356
0.97155946493 1.5546468496 0.79477763176
-1.627276659 0.73609030247 -0.89804959297
-1.9965349436 0.069297350943 0.020709948614
-1.1254981756 1.4952508211 -0.70255672932
-0.90977632999 -1.6659923792 -0.62379050255
-0.00074951793067 -1.9992691278 0.005736364983
-1.212785244 -1.5825134516 0.1077927798
-0.93531984091 -1.6388950348 0.65951550007
-1.1675139666 -0.00097447744338 1.6222816706
-1.6354203224 -0.56103807688 0.99785131216
0.94494134188 -1.638045311 -0.64257878065
1.2301779985 -1.5647149086 0.13211201131
0.0029459195212 1.9996726513 0.0021336944774
-0.55774778128 1.887968421 0.35307350755
-0.55618017912 1.8884158134 -0.35299232602
-1.0854008198 1.6798062325 0.0069029130973
0.081436105072 1.7209584713 -1.0129003525
1.0069248676 1.6096721888 -0.62775170803
1.0702850819 1.6888535023 0.037567302585
1.6791385412 1.0772314072 -0.1060629338
0.55334979296 1.897574544 -0.30550092459
0.55814296007 1.8876245022 0.35293915868
1.6716967821 0.68265217543 -0.85645711422
1.3719824553 1.1644806862 -0.87279033661
1.1668878794 0.95939856768 -1.3106629848
0.82842808962 1.360930562 -1.2082988024
0.36338576674 0.97230958939 -1.7075401545
1.7273398638 -0.99895173311 0.031241208315
1.9075615406 -0.34949195385 -0.48728770018
1.9910063744 -0.10706312954 0.13044093549
1.6142799854 -0.73283219337 -0.92516940832
1.7389199734 -0.13853946328 -0.97775113583
1.9157061577 0.29684987664 -0.49180728197
1.0818091631 0.021489426494 -1.6819205284
0.86577361822 -0.52146887779 -1.7259163857
0.55661427975 0.013483697549 -1.9207897186
0.27912148833 -0.55601906776 -1.8999621868
-0.044613365084 0.050639320165 -1.9985246658
1.3668347597 -0.41157728434 -1.4006626606
1.1509879827 -0.92545133829 -1.3476649523
1.4383198023 0.69135463238 -1.2055486441
0.87553185225 0.90174484253 -1.5555230379
0.84567081928 0.48539340496 -1.746165514
1.1533484459 0.55370432138 -1.5373216867
1.4017496109 0.33992606401 -1.3854209185
1.6676223278 0.30164533854 -1.0619834661
1.472489357 0.0014219863806 -1.3533403873
-0.88593101501 0.50584417582 1.7199527025
-0.38388136029 0.56332206726 1.8795695305
-0.565079391 -0.0011503146961 1.9184885025
-0.90854281187 -0.53312397003 1.6964019537
-0.29814100266 -0.55861121416 1.8967522383
-1.0399112701 0.0068312333897 -1.7082635164
-1.3695737123 -0.3153283 -1.4227372408
-1.3764411211 0.34235537052 -1.4092452526
-1.7209988832 -0.0010136911878 -1.0181319714
-1.608248353 -0.68879884481 -0.96840274334
-0.94830799103 1.2202705145 -1.2640004158
-0.86156469584 0.50696593523 -1.7319885492
-1.3492002487 -1.1704915762 0.89617037773
-0.36915674806 -0.45871537924 -1.9115277529
-0.58357322216 0.030624357983 -1.9125947952
-0.83265805244 -0.45340710878 -1.7613230944
-0.35600167513 0.54847788811 -1.8899717331
-0.5862557292 0.99977868795 -1.6283564568
0.40296795964 0.48131868243 1.8984622955
1.8830554485 0.30060639977 0.60099202394
1.9249216318 0.53518992662 0.093169726431
1.7265648842 0.86237376928 0.52474749088
1.4308091402 1.3351546526 0.41340920329
1.3751627207 1.1181548834 0.92599487305
-0.32384127378 1.4097445011 -1.3810532093
-0.5645943284 1.6637603045 -0.95544457436
-0.078581117094 0.30844286084 1.9745694399
-1.7022408247 -0.92465049028 -0.49451208115
-1.893699646 -0.39587706327 -0.50563758612
-1.9210609198 -0.55062580109 0.017090976238
-1.3516212702 -1.2191450596 -0.8271188736
-1.3903125525 -1.3909765482 -0.36022773385
-1.6956404448 -1.0537832975 0.073982492089
-1.4203317165 -1.3598124981 0.36250525713
-1.702742219 -0.90864896774 0.52541148663
1.6961853504 -0.94508457184 -0.47939643264
1.3772925138 -1.2195401192 -0.78465682268
1.3992036581 -1.3872989416 -0.33189168572
-1.5542304516 -1.2536325455 -0.1087995097
-1.7227976322 -0.99337542057 -0.20918652415
1.3704285622 -1.1758871078 0.8586140275
1.7230367661 -0.86166101694 0.53785264492
1.4221071005 -1.3599280119 0.35338485241
-1.8416585922 -0.74158686399 -0.24218305945
-1.8236523867 -0.82000356913 0.021925322711
1.5700598955 -1.2316581011 -0.11946401

CELLS 218 872
3 0 1 2
3 1 3 2
3 1 4 3
3 5 0 6
3 7 8 9
3 10 9 11
3 11 9 12
3 9 8 13
3 14 15 16
3 12 17 11
3 18 0 5
3 17 5 11
3 19 20 4
3 21 19 4
3 22 23 24
3 22 15 23
3 25 23 8
3 25 8 7
3 26 3 27
3 3 20 27
3 3 4 20
3 16 15 22
3 15 28 23
3 13 23 29
3 23 13 8
3 14 28 15
3 30 31 0
3 0 31 1
3 30 32 31
3 32 33 31
3 32 21 33
3 31 33 1
3 34 32 30
3 1 33 4
3 33 21 4
3 35 36 37
3 35 38 36
3 38 39 36
3 38 30 39
3 36 39 18
3 30 38 34
3 34 38 35
3 18 39 0
3 39 30 0
3 40 41 37
3 37 41 35
3 42 43 41
3 41 43 35
3 35 43 34
3 43 44 34
3 45 46 47
3 48 49 46
3 49 50 46
3 46 50 47
3 50 40 37
3 51 52 53
3 52 54 53
3 52 14 54
3 53 54 55
3 16 54 14
3 51 56 52
3 56 57 52
3 56 48 57
3 52 57 14
3 14 57 28
3 53 55 44
3 48 56 49
3 40 58 41
3 58 42 41
3 42 59 43
3 59 44 43
3 44 59 60
3 59 61 60
3 59 42 61
3 60 61 51
3 51 61 62
3 61 58 62
3 61 42 58
3 62 58 63
3 49 63 50
3 63 40 50
3 40 63 58
3 63 64 62
3 63 49 64
3 62 64 51
3 44 60 53
3 53 60 51
3 51 64 56
3 56 64 49
3 26 65 3
3 3 65 2
3 2 65 66
3 65 67 66
3 65 26 67
3 26 68 67
3 68 69 67
3 68 7 69
3 67 69 10
3 10 69 9
3 9 69 7
3 70 71 72
3 71 73 72
3 71 74 73
3 72 73 19
3 19 73 20
3 72 75 76
3 7 68 77
3 27 68 26
3 74 71 16
3 55 78 79
3 78 80 79
3 78 16 80
3 79 80 70
3 55 81 44
3 81 82 44
3 55 79 81
3 79 76 81
3 79 70 76
3 81 76 82
3 16 78 54
3 54 78 55
3 82 76 75
3 72 76 70
3 70 80 71
3 71 80 16
3 5 83 11
3 83 10 11
3 47 84 12
3 84 17 12
3 47 85 84
3 85 86 84
3 85 37 86
3 84 86 17
3 37 87 86
3 87 88 86
3 87 18 88
3 86 88 17
3 17 88 5
3 5 88 18
3 34 89 90
3 89 75 90
3 89 82 75
3 90 75 21
3 21 75 19
3 19 75 72
3 82 89 44
3 44 89 34
3 34 90 32
3 32 90 21
3 18 87 36
3 36 87 37
3 37 85 50
3 50 85 47
3 66 6 2
3 2 6 0
3 66 91 6
3 91 83 6
3 91 10 83
3 6 83 5
3 10 91 67
3 67 91 66
3 74 92 93
3 93 94 20
3 20 94 27
3 22 95 16
3 16 95 74
3 74 95 92
3 95 96 92
3 95 22 96
3 74 93 73
3 73 93 20
3 97 98 99
3 98 77 99
3 98 25 77
3 99 77 27
3 27 77 68
3 7 77 25
3 48 100 101
3 100 102 101
3 101 102 28
3 45 100 46
3 46 100 48
3 48 101 57
3 57 101 28
3 97 103 98
3 103 24 98
3 103 96 24
3 98 24 25
3 25 24 23
3 22 24 96
3 94 99 27
3 92 96 104
3 13 105 9
3 9 105 12
3 12 105 106
3 105 107 106
3 105 13 107
3 106 107 45
3 12 106 47
3 47 106 45
3 92 108 93
3 108 94 93
3 92 104 108
3 104 109 108
3 104 97 109
3 108 109 94
3 102 29 28
3 28 29 23
3 102 110 29
3 110 107 29
3 110 45 107
3 29 107 13
3 45 110 100
3 100 110 102
3 94 109 99
3 99 109 97
3 97 104 103
3 103 104 96

CELL_TYPES 218
5
5
5
5
5
5
5
5
5
5
5
5
5
5
5
5
5
5
5
5
5
5
5
5
5
5
5
5
5
5
5
5
5
5
5
5
5
5
5
5
5
5
5
5
5
5
5
5
5
5
5
5
5
5
5
5
5
5
5
5
5
5
5
5
5
5
5
5
5
5
5
5
5
5
5
5
5
5
5
5
5
5
5
5
5
5
5
5
5
5
5
5
5
5
5
5
5
5
5
5
5
5
5
5
5
5
5
5
5
5
5
5
5
5
5
5
5
5
5
5
5
5
5
5
5
5
5
5
5
5
5
5
5
5
5
5
5
5
5
5
5
5
5
5
5
5
5
5
5
5
5
5
5
5
5
5
5
5
5
5
5
5
5
5
5
5
5
5
5
5
5
5
5
5
5
5
5
5
5
5
5
5
5
5
5
5
5
5
5
5
5
5
5
5
5
5
5
5
5
5
5
5
5
5
5
5
5
5
5
5
5
5
5
5
5
5
5
5

CELL_DATA 218
SCALARS cell_data_0 double
LOOKUP_TABLE default
1.69726504511e-05
1.68475398898e-05
1.11637659018e-05
2.36281210061e-05
2.21754256263e-05
6.81290040347e-05
3.57723078536e-05
5.5208871862e-06
2.13813595632e-05
2.30958767431e-05
1.50517957168e-05
2.6628257322e-05
3.24907793826e-05
3.52843039544e-05
9.29774245835e-07
1.40310491622e-05
3.48134355829e-06
1.31084707459e-05
1.8155741897e-05
1.42436472698e-05
2.07178896851e-05
1.83784475439e-05
1.11440109743e-05
3.19951050399e-06
4.06178593267e-06
1.31707974528e-05
1.75771466711e-06
7.85147250111e-06
7.51813152994e-07
2.23783133004e-06
1.25752066756e-06
3.70851240265e-06
2.24700742421e-05
1.32541898036e-05
2.24590039989e-05
3.40789778263e-06
5.18775773429e-07
6.44690806575e-07
8.80049242043e-07
1.28801465546e-06
2.20111821016e-05
1.54635361961e-05
2.87291404971e-07
4.83442759615e-07
2.50999561051e-06
2.87384835521e-06
8.17319995044e-08
1.59395488687e-07
1.78818816778e-05
2.27844223977e-05
2.5585380593e-05
1.713919426e-06
1.13010639631e-06
8.26911256491e-07
1.47771326102e-06
1.01736292268e-05
2.08030999506e-07
1.21874879525e-06
8.55771289046e-07
5.83243055806e-06
1.00102328283e-05
2.36105613552e-07
2.97258364934e-06
1.03928971277e-06
1.24542155207e-06
1.02771161218e-06
2.53600162251e-06
3.80728011075e-07
1.86999126108e-07
6.12271659212e-08
5.12950686259e-08
1.31379146949e-07
1.01788488516e-07
8.56234458459e-08
6.45685689055e-06
6.38883470864e-06
1.03357970113e-07
1.23301692454e-07
1.84786773389e-07
7.57117742416e-07
6.43282263244e-07
3.04722415963e-07
6.77132980687e-06
8.34888387713e-06
2.01173575727e-05
2.59289453388e-07
9.07344752099e-06
2.47701995158e-05
9.46351070977e-06
1.86231774565e-06
1.8440321235e-05
4.02372956937e-06
1.44993140589e-06
1.17623884093e-06
3.31928764708e-06
2.59418079965e-05
2.2084772063e-05
3.42542126015e-05
5.39184892227e-05
4.68736255437e-05
1.99152799114e-05
2.97341754283e-07
3.35909663095e-07
3.02809949533e-07
2.03259815105e-06
1.16852923638e-06
2.65570219806e-07
7.38332699179e-06
2.96136836254e-06
1.07484923467e-06
1.61942318869e-07
1.33706572494e-06
1.68447510508e-05
6.00114968355e-06
5.51260877856e-06
3.63655100426e-06
1.97833751384e-06
1.73725889634e-05
2.94700417602e-06
1.9963451916e-06
1.32934280291e-06
1.9505249281e-06
1.89825718398e-05
1.84047762482e-05
1.0412736185e-06
2.07766249856e-05
2.11049376763e-05
2.96800757172e-06
9.11061003743e-06
1.70672837979e-06
1.99137285904e-06
7.18935919623e-07
3.4798540611e-06
2.50229532187e-05
1.41508526923e-05
2.43109795839e-05
4.15047915925e-06
1.22783181583e-05
7.53584323031e-06
1.57475283433e-05
4.09753988336e-06
3.18154696987e-06
4.20310249453e-06
2.88312674882e-06
1.56484187447e-06
2.26809976788e-06
2.1251403676e-05
1.55906743399e-05
1.39339415209e-06
3.26870345914e-05
3.74962503721e-05
2.09832962684e-07
1.2740697353e-06
2.06788245277e-05
2.45098579982e-05
1.86719348034e-05
9.47119144761e-06
8.49883737956e-06
1.2484159281e-05
2.38900430139e-05
2.17074172297e-05
3.01746614336e-05
3.01372356599e-05
5.07587496731e-06
4.34556234761e-06
4.30843974982e-06
5.1736425029e-07
1.39546823533e-07
5.51301660167e-07
4.19157854913e-05
4.46717684768e-05
2.68240192135e-05
2.3166456491e-06
2.9892116162e-06
3.3872353287e-06
4.33334470276e-06
9.84299624484e-06
3.60437872755e-06
1.17296706174e-06
3.70283667641e-07
1.62681864413e-05
3.26311402369e-06
3.406829783e-06
3.28184247089e-07
1.87111195288e-05
8.98355290496e-07
5.12844129059e-07
1.44122063471e-06
3.77247013874e-06
3.47467747059e-07
3.01251494502e-06
6.55545071484e-08
6.41531013239e-06
5.08598969177e-06
2.1897997532e-06
1.40710470042e-06
1.67527243889e-06
1.27168310236e-05
6.020444172e-07
2.06786921317e-05
1.65292903816e-05
1.58586433172e-05
2.82454361312e-07
2.57744864277e-07
1.12609626682e-05
2.69406122339e-08
1.2293722711e-07
1.88285416347e-06
8.5189360875e-08
1.05189649159e-07
8.46123301443e-06
4.24003457825e-07
8.34433831705e-06
6.33846295137e-07
6.63044611605e-07
1.69359646353e-05
1.24188245099e-05
6.88913290148e-08

