# vtk DataFile Version 3.0
File Name: Molecule/sphere_excent/sphere_excent_0-s27.vtk
ASCII
DATASET UNSTRUCTURED_GRID
FIELD FieldData 1
TIME 1 1 double
0.0
POINTS 299 double
-0.063530065119 1.7373011112 0.98775792122
-1.0901868343 1.473180294 0.79942315817
-0.58723443747 1.2221868038 1.4692642689
-1.6544262171 1.1141248941 0.14730508626
-1.669491291 0.6828751564 0.86325889826
0.63820755482 -1.202737689 1.4647464752
0.015987595543 -1.720446825 1.0196505785
0.80687242746 -1.6752691269 0.73631423712
0.33775746822 -1.1894009113 -1.5708090067
-0.015054066665 -1.724952817 -1.0115100145
-0.35016593337 -1.1363201141 -1.6063634157
1.5537134409 -0.41018232703 1.1905133724
1.5307388306 0.47749829292 1.1938370466
1.1853699684 0.043958932161 1.6092611551
-0.6682715416 -1.7924420834 -0.58310687542
0.025417326018 -1.9996345043 0.028373509645
-0.98371338844 -1.7384632826 0.085193902254
-0.77171373367 -1.6904705763 0.74004012346
-0.67109078169 -1.3130683899 1.3509269953
-1.9404153824 0.33604225516 0.34695348144
0.76897144318 -1.7225854397 -0.66340702772
1.0640964508 -1.6928676367 0.029515383765
-0.079174876213 1.9972151518 -0.01465371903
-0.55466854572 1.8847365379 0.37324368954
0.16153550148 1.962895155 0.33970206976
-0.53722763062 1.888579607 -0.37952435017
-1.1013829708 1.668661952 0.056338723749
-1.2448124886 1.4691708088 -0.53909277916
-0.073458820581 1.7786548138 -0.90910857916
0.20418187976 1.9293355942 -0.48539927602
1.0144904852 1.7077292204 0.22433742881
0.58362591267 1.8440181017 0.50434243679
1.1218703985 1.5292606354 0.63012516499
0.81316655874 1.5878120661 0.89787715673
0.97942131758 -0.083877854049 -1.7416387796
0.74056875706 -0.59986752272 -1.7578268051
0.50668746233 -0.11437301338 -1.9310104847
0.19445963204 -0.62240791321 -1.8901590109
0.059746552259 0.031500421464 -1.9985084534
0.92582917213 0.97159487009 -1.4826436043
1.1971607208 0.92942035198 -1.3049538136
1.0855958462 0.72357040644 -1.5158394575
1.3619976044 -0.4036000967 -1.4078561068
1.5187453032 -0.17873768508 -1.288847208
1.5259553194 -0.52563220263 -1.1811108589
-0.4491494894 0.65659713745 1.8347117901
-0.81876945496 0.43946284056 1.7706744671
-0.4112072289 0.22646380961 1.9435738325
-1.2359105349 -0.17371734977 1.5617315769
-0.98907285929 -0.69251489639 1.5940703154
-0.77106130123 -0.063791319728 1.8436686993
-0.43983289599 -0.52579784393 1.8785312176
-1.2305651903 -1.1406271458 1.0824906826
-1.5791734457 -0.50933378935 1.1163487434
-0.19704279304 0.50843405724 -1.9231112003
0.29683610797 0.4444141686 -1.9272084236
-1.3699748516 -0.34156063199 -1.4162874222
-0.95253103971 -0.66138869524 -1.6282610893
-1.28452456 -0.81821978092 -1.2961549759
1.8551973104 0.3719291091 0.6479408145
1.700007081 0.79170495272 0.69450879097
1.3852943182 1.0376688242 0.99857199192
1.0722568035 0.56678444147 1.5857331753
-0.56188172102 1.6869899035 -0.91433948278
1.9592627287 0.2388562113 -0.32136231661
1.9688153267 0.32424348593 0.12980760634
1.9930490255 -0.15842700005 0.038066871464
-0.014608617872 0.88801723719 1.7918611765
-0.028022160754 0.40389174223 1.9585072994
0.4042763114 0.48227182031 1.8980946541
0.28099551797 -0.010942826048 1.9799689054
-1.6458637714 -1.1082721949 0.25043874979
-1.5345009565 -1.281181097 0.054189804941
-1.3377065659 -1.4112790823 0.45718330145
1.2275944948 -1.0984470844 1.1306606531
1.0429474115 -0.59913110733 1.597848773
1.3142426014 -1.4536761045 -0.3967640996
1.5510320663 -1.2617390156 -0.045389126986
1.400859952 -1.3751060963 0.38173633814
1.7493052483 -0.93403470516 0.25781562924
1.7922961712 -0.88115853071 -0.10335402936
1.6941379309 -0.96784943342 -0.43342813849
-1.9264371395 -0.52602553368 0.10486008227
-1.8102004528 -0.81355971098 0.24440996349
-1.8485919237 -0.5319685936 0.54634386301
-1.6525245905 -0.93239635229 0.62650048733
-1.651397109 -1.1143360138 -0.17076145113
-1.7523258924 -0.9622592926 0.025517379865
-0.042425554246 -1.269020319 1.5452810526
0.50048196316 -0.54703450203 1.8574700356
0.7182494998 -0.10001946241 1.8639124632
-0.43549627066 -0.95372718573 1.7031309605
0.01320502162 -0.38038691878 1.963430047
0.064323872328 -0.83898973465 1.8143738508
-1.4678058624 0.90287780762 -1.0143252611
-1.6563185453 0.99072754383 -0.52399921417
-1.8531035185 -0.049130752683 0.74985384941
-1.5577346087 0.14728686213 1.2454628944
0.46159261465 1.7402169704 -0.87053257227
0.74366867542 1.7722909451 -0.5528626442
0.62199795246 1.8909465075 -0.18436962366
0.85450732708 1.5420892239 -0.94411498308
1.2701722383 1.299364686 -0.83544331789
1.0917104483 1.5565333366 -0.62055850029
0.47009441257 1.479670763 -1.2603441477
0.81812274456 1.2811071873 -1.2994488478
-1.9646254778 -0.20291125774 0.31398046017
-1.9188518524 -0.52023392916 -0.21688857675
-1.8515933752 -0.75475507975 -0.04326390475
-1.8336375952 -0.73454928398 -0.31111696362
-1.8589004278 -0.52231961489 -0.52132332325
-1.7046210766 0.5285525322 -0.90067571402
-1.8427045345 0.71611577272 -0.30122485757
-1.998918891 -0.04604768008 0.031106511131
-1.975733161 -0.30154263973 -0.071829594672
-1.9834042788 -0.10657569021 -0.23338128626
-1.940161109 -0.32685512304 -0.35852557421
-1.961622715 0.053849555552 -0.38549616933
-1.985938549 0.17036153376 -0.1611469835
-0.68783545494 -1.4932451248 -1.1388818026
-1.0399868488 -1.4822137356 -0.84975218773
-0.91727221012 -1.0913505554 -1.4020166397
-1.1536602974 -1.2011766434 -1.106934309
-1.4495686293 -0.96950089931 -0.97906213999
-1.5239239931 -1.0973567963 -0.6880826354
-1.6368983984 -0.84652370214 -0.77688741684
-1.326261282 -1.2331815958 -0.84868705273
-1.3407870531 -1.3580521345 -0.59809464216
-1.5475184917 -1.1956472397 -0.41868391633
-1.3984572887 -1.3843518496 -0.35762262344
-1.6911611557 -0.95567595959 -0.47559523582
-1.1029729843 -1.5710555315 -0.56088322401
-1.4751732349 -1.339902997 -0.16839598119
-1.1775102615 1.0079785585 1.2637118101
1.0796031952 1.6574728489 -0.28576478362
1.3802406788 1.3740961552 -0.45468875766
1.3594332933 1.4660289288 -0.048186838627
1.6706833839 1.0604708195 -0.28995892406
1.5208092928 1.0853544474 -0.71304959059
-1.1397765875 0.2208724618 1.6283568144
-1.2903223038 0.57252979279 1.4166091681
-0.88624787331 0.8210529685 1.593949914
-1.577349782 -0.6383587122 -1.0506010056
1.3588988781 1.4160282612 0.38320580125
-1.9438587427 0.46303299069 -0.066538460553
-1.9336150885 0.34368097782 -0.37832778692
-1.83581388 0.56003391743 -0.56215041876
-1.8557953835 0.30564808846 -0.67981106043
0.8194205761 0.75522792339 -1.6606023312
0.72810763121 0.51031774282 -1.7912992239
0.99410057068 0.51743018627 -1.6564668417
0.90986418724 0.28870773315 -1.7575079203
1.1094484329 0.29574009776 -1.6374377012
1.2353761196 0.47870802879 -1.4982359409
1.2800174952 0.15430611372 -1.5287493467
1.4018019438 0.32691553235 -1.3885647058
1.2851490974 0.69756156206 -1.3644987345
1.4423984289 0.53578323126 -1.2776551247
1.4052166939 0.8002743721 -1.1768023968
1.5550576448 0.30547586083 -1.2199738026
1.620372057 0.47613799572 -1.0710699558
1.7371451855 0.22354875505 -0.96521395445
1.6146353483 0.063078634441 -1.178237319
1.456684947 0.092362813652 -1.3670808077
1.7175430059 -0.20297835767 -1.0042175055
1.2953826189 -0.13881072402 -1.517434597
0.67887973785 0.20677527785 -1.8698376417
1.1171212196 -0.45440709591 -1.5953640938
0.13200432062 0.93777686357 -1.7605742216
0.59725445509 1.0763524771 -1.5761525631
0.517750144 0.76253956556 -1.7749085426
1.8648583889 0.64397794008 0.32728847861
1.8743458986 0.69000715017 -0.10244056582
1.7513631582 0.9476864934 0.18510185182
1.5706826448 1.2290453911 0.14910364151
1.5772653818 1.1202247143 0.50662022829
1.6924294233 0.79324126244 -0.71051728725
1.849629283 0.58161300421 -0.48892143369
-0.080090694129 0.016172803938 1.9982759953
-0.34514263272 -0.15585170686 1.9636026621
0.92287683487 1.0721457005 1.4125702381
0.45746567845 1.4207841158 1.3311414719
0.411388129 1.0425770283 1.6564853191
0.015261705033 1.3284316063 1.4949454069
1.8715463877 0.0062128538266 -0.7051295042
1.7511627674 0.50578409433 -0.82305556536
1.8525096178 0.30869302154 -0.68711519241
-1.6401728392 -0.29674470425 -1.1051776409
-1.6124380827 0.047789722681 -1.1807337999
-0.74309450388 -0.24664266407 -1.8397059441
-1.014680028 -0.2592639327 -1.7035157681
-0.84612703323 0.019678737968 -1.8119984865
-1.1617569923 0.035307057202 -1.627419591
-0.50888860226 0.076847761869 -1.9320665598
-0.71494907141 0.26469662786 -1.8485615253
-0.97776049376 0.2995955348 -1.7186342478
-1.133358717 0.53375858068 -1.5590898991
-1.2833634615 0.24077232182 -1.5137896538
-1.8431391716 -0.17965734005 -0.75533658266
-1.7704640627 -0.38098424673 -0.8487829566
-1.8887168169 -0.29009783268 -0.59043085575
-1.7587810755 -0.10992645472 -0.94582420588
-1.7797435522 0.15764248371 -0.8981140852
-1.8550152779 0.025782333687 -0.7468418479
-1.9067546129 -0.074092112482 -0.59884107113
-1.9457185268 -0.14950861037 -0.4378503859
-1.9141080379 0.12773579359 -0.56519860029
1.2753704786 -0.69853174686 -1.373077631
1.0282649994 -0.78610730171 -1.5246932507
1.1222516298 -1.0198409557 -1.3039324284
1.4086710215 -0.87121939659 -1.120963335
1.6617128849 -0.69954419136 -0.86436396837
0.80300170183 -1.1463980675 -1.4285088778
1.9490962029 -0.0055855251849 0.44779866934
1.8978073597 -0.51754379272 0.36006560922
1.7974225283 -0.00658663176 0.87697267532
1.8452299833 -0.35211479664 0.68514871597
-1.7393965721 -0.62333780527 -0.76549047232
-1.7702283859 -0.73813474178 -0.56687021255
1.4316347837 -1.1161620617 -0.83592796326
1.7302707434 -0.77584969997 0.63310956955
0.6045576334 -1.5009118319 -1.1752794981
1.913854003 -0.5797008872 0.02780568786
1.8972817659 -0.51211988926 -0.36491584778
0.96443396807 -1.3675363064 -1.0953681469
1.5524209738 0.84219771624 -0.93823444843
1.4058279991 1.0116007328 -0.99990993738
0.71665841341 0.73156863451 1.7177538872
0.82633256912 0.32910591364 1.7912037373
1.1627072096 -1.4182368517 -0.79777812958
1.2354120016 -1.1691293716 -1.0521645546
-1.3336185217 -1.4885761738 0.07658533752
-1.2797392607 -1.5285476446 -0.16038554907
-1.2515329123 -1.5103305578 -0.39047199488
[...]
CELL_DATA 594
SCALARS cell_data_0 double
LOOKUP_TABLE default
1.3025056183e-05
6.88158805958e-06
1.1639959059e-05
5.479220098e-06
1.2280323756e-05
3.68487295602e-06
1.83279792789e-06
7.94658983332e-06
9.42772793668e-06
4.47931986722e-06
1.98472650507e-06
5.80783999186e-06
7.23959277597e-06
8.55920924577e-07
6.20487674199e-06
2.13638574844e-06
2.60054357221e-06
1.85709346697e-06
3.58130515166e-06
7.21289208673e-06
4.07737897434e-06
2.33539355913e-06
4.03270027453e-05
3.26505700345e-05
1.57180541432e-06
1.68141988778e-07
2.11883778592e-07
9.1733842521e-07
2.82023228512e-06
1.04312406853e-05
1.14643080083e-07
1.24354229372e-05
2.24483043928e-05
4.22527771658e-05
5.85545027906e-06
2.7339915993e-06
2.99666942991e-06
8.02491957972e-07
2.80974631893e-06
3.27790536577e-06
7.43718965694e-06
6.97858099169e-06
9.70726249103e-06
1.37782694947e-05
8.25112225656e-06
1.76672586145e-05
2.05944533162e-05
7.81977956473e-06
7.1601373634e-06
8.71739412814e-07
3.07529520795e-06
5.48757480605e-06
8.73380840418e-06
9.95405610321e-06
1.1185674134e-06
3.6429920519e-06
8.62373265601e-07
1.42181574666e-06
1.39169145411e-06
3.10760313066e-06
1.34576760805e-06
1.13164147397e-05
5.81613022313e-07
3.57023736079e-09
1.19671077971e-05
1.08222739609e-05
9.71112427597e-06
1.0091693697e-05
1.27895747178e-05
1.32822617799e-05
1.18907239022e-05
9.01025870374e-06
9.9193110366e-06
2.04752547013e-06
1.00683582063e-05
8.352387582e-06
2.16260419554e-05
1.24196720629e-05
9.68942941318e-06
6.84416688369e-06
1.62762942792e-05
7.04384901042e-06
1.17742431621e-05
8.0748792744e-07
1.60946746512e-06
3.75658740582e-06
5.4182192307e-06
3.55707909069e-06
5.59669857937e-06
3.40496167076e-07
9.26771097155e-06
1.1979687994e-07
5.14627104379e-06
1.80538228903e-07
1.23114310941e-07
1.40209866982e-05
1.94518381641e-06
1.59588673038e-06
1.20087987169e-05
3.51680921729e-06
2.89478194898e-06
6.93611794207e-07
8.36184502863e-06
3.02200553695e-06
2.93939192547e-07
1.06564944174e-06
2.87096622344e-07
6.43108718686e-07
4.71262692925e-07
9.60917747382e-06
7.03908417785e-06
1.30421621353e-07
1.69565591995e-07
2.35966896965e-06
1.80378463776e-07
9.31811533389e-07
5.32676083559e-06
1.33555659257e-07
3.31391883671e-07
2.50993513513e-06
2.32486104916e-06
5.26682444275e-06
1.13679962439e-05
1.10847192228e-05
1.70793093176e-05
2.15966459542e-06
1.94419728335e-06
2.79308569637e-07
1.06364898357e-05
2.80220323087e-06
6.53481318612e-06
8.17507537953e-06
7.52435976548e-06
5.23699925917e-06
5.0435738855e-08
3.98755078527e-07
6.93846323032e-07
4.25313650106e-06
3.60002781493e-06
6.67760048952e-06
4.30390318739e-06
4.30231978972e-06
5.71350917908e-06
5.58060566213e-06
4.30974225754e-06
5.08696403876e-06
5.9710385229e-06
1.23495591513e-05
1.01620900101e-05
1.15424092231e-05
5.71999206432e-06
1.6080168757e-07
2.35568661925e-06
9.94425685177e-06
1.18076077433e-06
2.102274154e-06
7.65102777879e-07
3.76932768448e-07
4.89894775342e-07
2.19380371518e-07
4.32701505269e-08
2.68640999359e-07
3.98740154948e-07
1.3052166547e-07
2.52167308404e-07
3.40471104789e-07
2.32898601487e-07
3.54754125798e-07
2.89523268582e-08
3.52571063654e-07
1.14920859192e-07
2.27828022616e-07
1.32966947532e-07
8.45788510572e-07
2.54734516206e-06
4.72274403979e-06
7.95600715798e-07
4.29743173034e-08
1.53108058327e-08
7.56270013668e-07
8.0910340408e-07
1.11115495271e-08
2.44656515441e-06
2.7446530855e-09
2.19415256932e-06
3.71051829751e-08
2.56044406085e-07
3.07425855048e-08
2.91849606732e-06
6.30300954572e-06
5.48225844471e-08
1.0531983102e-07
6.17606790675e-08
6.30689484539e-08
1.015972552e-07
6.4523703669e-08
5.35717462566e-08
1.24248289058e-06
1.08792931268e-06
1.47759166151e-08
5.93842603958e-08
1.04776552284e-07
7.34386403733e-07
1.62244820252e-06
1.05460929293e-06
1.06247203846e-07
3.03123298838e-06
1.89198259638e-06
1.33564867904e-05
1.46844953329e-05
1.67240167519e-06
1.19119031056e-06
1.46066503624e-06
1.94121749352e-06
2.37998494033e-06
3.80999188674e-06
3.27314893743e-06
1.69109446535e-06
1.0714724767e-06
1.25807154889e-06
7.53328449771e-07
1.28554564549e-05
1.72376988199e-05
1.35280399175e-05
4.23297180612e-05
4.17500796229e-05
1.60951125596e-05
2.23291248623e-05
9.33450677053e-07
4.98801282887e-07
1.13236187236e-06
1.54509454641e-05
1.01459795619e-05
1.31375036592e-05
9.46735416535e-06
1.52905691008e-05
1.111616463e-06
9.83768826116e-06
1.08689977641e-05
1.08461407141e-05
1.33937410118e-05
1.14183617469e-05
1.44337821143e-05
1.21903795288e-06
3.18222828452e-06
2.30803675086e-06
1.47831783228e-06
6.16603699142e-06
4.55846112279e-06
6.35475457071e-06
9.30928894981e-06
6.23110734926e-06
6.52885782827e-06
1.02330267665e-06
6.81362290411e-07
1.64453784963e-06
1.05232513477e-07
2.35261391027e-07
2.22172652501e-07
8.04843371122e-07
1.72857667251e-06
9.62079620732e-07
6.71113134216e-08
1.10734851442e-06
2.91600476968e-06
5.25593224097e-08
1.08569746766e-06
8.21462319547e-08
2.41416568249e-06
7.15348111909e-07
1.25611104414e-05
9.39880480856e-06
1.49725456839e-05
9.45994875492e-08
5.36085490368e-07
1.60065814829e-07
1.03391400928e-07
1.38743038038e-07
2.07539561773e-07
7.08102397343e-08
7.06145861785e-08
8.88644148074e-08
4.8302126282e-08
6.94024221923e-08
5.18802624864e-08
8.48356199563e-08
2.08257774026e-06
2.63388677441e-06
9.67889382989e-08
1.16515931747e-07
3.14109871378e-08
4.43654444781e-08
9.32595608817e-08
3.7120958491e-08
4.27661662959e-08
1.7878437983e-07
1.16477604842e-07
1.02901363921e-07
1.62408298191e-08
1.45685342775e-06
1.13445638605e-07
2.7944430081e-07
1.44069778691e-07
1.75327703317e-07
1.15715363606e-08
4.12576561275e-08
1.48294484841e-06
1.96055065942e-08
2.61373107053e-07
4.82656233974e-06
1.76178072852e-06
3.60176520149e-06
1.52427353017e-06
1.66605778071e-06
2.71889674479e-06
6.19216736569e-06
3.39895419698e-06
1.40413740879e-06
3.22816403352e-06
9.23068596252e-07
2.68214722652e-07
5.28699580389e-06
3.15231764847e-06
2.07179856928e-06
3.06552761635e-06
3.23958639916e-06
5.75967019102e-06
1.13283095475e-05
5.85753691208e-07
9.80867257371e-07
3.50765007508e-06
7.93346401135e-06
9.06074953936e-06
4.06265027504e-06
2.51283677289e-06
3.38387344966e-07
4.42806846623e-07
2.32730560486e-05
1.40983756097e-05
1.69816452685e-06
2.07961056729e-06
7.29979907745e-07
2.10644106788e-06
8.27517612448e-08
4.27509315026e-08
3.969927452e-07
3.36664408915e-06
4.22709706331e-06
6.3697352161e-06
5.16245497043e-06
5.96548382121e-06
7.39647589357e-06
5.77782840324e-07
4.46735954169e-07
4.36655000105e-07
3.37790222828e-09
4.64252167937e-07
2.78059294197e-06
4.08812638328e-06
7.25876678218e-06
7.34356267794e-06
7.73974976913e-06
2.91649919766e-06
7.39202754218e-07
3.41201758533e-06
7.41111174641e-07
1.11912264248e-06
5.3458795531e-07
1.2416530944e-05
7.62928521608e-06
8.65683065698e-06
8.30870190175e-06
1.15136409012e-06
5.10854767866e-06
2.59206725344e-06
8.73472408312e-08
7.05337586002e-08
3.41790810234e-07
7.69364858041e-07
4.03460154515e-07
2.7206669027e-07
2.53975068227e-08
5.49184757064e-08
9.11676160537e-09
1.75344250503e-08
2.69610993923e-07
6.69694193955e-06
5.97329244564e-06
1.0580895979e-07
9.75805358968e-08
1.18228374793e-07
1.25985870668e-07
1.23893339019e-08
1.16408401429e-07
1.19004988275e-06
1.24450765126e-06
4.82549421179e-06
1.06470000567e-06
1.16794186067e-07
1.18886508415e-06
9.25954757687e-06
2.48267457523e-05
8.65446782347e-06
4.57560020814e-06
4.54064098809e-07
1.16611514042e-07
1.16718251484e-07
6.10968710792e-09
5.09327741379e-07
3.50382520631e-08
1.8723620486e-07
8.945818086e-08
2.39811749899e-07
5.49567037466e-07
2.36406133996e-08
2.76254026101e-07
8.07140456694e-07
9.50596066978e-07
4.24889330112e-08
3.04211817192e-05
3.64610825806e-06
7.80544303444e-07
1.01517307068e-06
9.11678503228e-06
2.33642184255e-05
3.9445543427e-06
2.78051171861e-06
1.89070178266e-07
5.71019244035e-06
2.32033616658e-06
8.58557439957e-06
4.1115889009e-06
8.57293798432e-07
9.69570322005e-07
1.13414449703e-06
1.15358355362e-06
3.26110371134e-06
3.26792504406e-06
1.93271884192e-06
9.92882589125e-07
1.63385740658e-06
6.79845137878e-07
1.64389784664e-06
2.21047164752e-08
1.39418317115e-05
6.6132384031e-06
1.91455220226e-06
6.70619402553e-06
3.40436170844e-06
8.48507026092e-06
2.2770951574e-08
3.56376495066e-06
2.47233827287e-06
1.18014069213e-07
5.29697651999e-08
3.37641994925e-07
7.92471407696e-07
3.85524955535e-07
5.10378485922e-07
1.17920940107e-07
3.25035021145e-06
2.99560371758e-06
3.02267477673e-06
4.02553530123e-07
2.09557012796e-07
3.00954391136e-08
1.78458770169e-07
3.13653615573e-07
1.10481775659e-06
2.26694851682e-06
2.61805722766e-07
2.9081954592e-08
2.64571533949e-07
7.19115470319e-08
9.02968746949e-08
6.6935224161e-08
2.55646353547e-07
1.01898683892e-07
1.17675603242e-07
2.56451319756e-07
3.93246939357e-06
2.94240188186e-06
1.45770040521e-06
8.95438520748e-07
1.00377956094e-06
9.82377179062e-07
2.56175879746e-06
3.55513870383e-06
6.16615052219e-06
6.00211034781e-06
4.7880462431e-07
6.46189523452e-07
2.89894249819e-07
5.36335490943e-07
1.56449146098e-07
2.43645043497e-07
1.77744642282e-07
8.4979478655e-06
2.92735612902e-06
3.43235399179e-06
5.78871575593e-08
8.55764749849e-08
2.0748314936e-07
4.26008834204e-07
2.12544118274e-07
4.96375268693e-08
3.25218744014e-07
1.01963986754e-06
1.13943570596e-06
1.08183661299e-07
9.595480977e-08
2.9557614093e-07
4.90433005807e-08
8.45060444239e-07
2.50224700519e-06
1.06368360452e-06
8.40527163516e-08
4.52620544173e-07
2.82139628577e-08
9.73451609749e-07
5.91048137816e-07
9.69897624266e-07
2.32306661641e-06
2.16442323757e-06
6.18230451775e-07
6.73792524426e-08
1.86819437857e-07
1.54245699766e-07
1.73375480702e-07
6.20735278525e-08
4.23454044125e-07
3.87160749386e-07
1.74908314715e-07
8.34785646185e-07
1.20785817531e-07
1.10317811062e-07
9.68669375453e-08
1.00274834457e-06
8.99201555956e-07
9.49848602813e-08
9.03001019035e-08
1.9225600891e-06
2.73627389012e-06
2.85691063167e-08
7.03465539272e-09
1.362639424e-07
3.59776971128e-09
1.60258746828e-07
4.07516171941e-08
1.01480234771e-07
6.00376250826e-07
1.24973908817e-07
8.56734608195e-07
1.96172328927e-06
1.62458630439e-07
7.1194949852e-08
8.59185466633e-07
7.36560004408e-07
6.66522179176e-07
5.53746997063e-07
8.17699541719e-08
4.46078412423e-07
2.00042867599e-06
2.10813504801e-06
1.94056175621e-06
2.2376375967e-06
1.58520720692e-06
1.23002156019e-05
5.88433773419e-06
2.75268297168e-07
2.45329906508e-07
8.37474210167e-07
4.34430012946e-06
1.33065096614e-07
1.43028993019e-07
8.48338809044e-08
9.94005491546e-09
4.9586042663e-08
2.34298824374e-07
5.66715758009e-06
3.71432114448e-06
5.29592074388e-08
6.80553257695e-08
2.73548739757e-06
3.0079656773e-08
2.25345364633e-07
7.10746503615e-06
1.17058280077e-06
4.55374646571e-06
3.38142841057e-06
8.68101311787e-07
1.18077226078e-07
1.65536671626e-06
1.22393716908e-07

