# vtk DataFile Version 3.0
File Name: Molecule/sphere_excent/sphere_excent_0-s11.vtk
ASCII
DATASET UNSTRUCTURED_GRID
FIELD FieldData 1
TIME 1 1 double
0.0
POINTS 95 double
0.0024443264119 1.6998370886 1.0531834364
-1.0562934875 1.5079455376 0.77924859524
-0.62374722958 1.0824431181 1.5594613552
-1.6221495867 0.60277456045 1.0020471811
-1.6982502937 1.0560419559 0.0045813573524
0.672313869 1.0093535185 1.5855269432
0.11475779861 0.82502865791 1.814213872
-0.61701726913 -1.105856061 1.5452282429
0.0020037712529 -1.7037894726 1.0475640297
0.61650693417 -1.0011123419 1.6179558039
0.12285646796 -0.04400363192 1.9937025309
1.0537674427 -0.0012940601446 1.6999065876
1.6132948399 -0.6216095686 1.0054739714
1.0000257492 -1.6178416014 0.61788284779
1.7032568455 -1.048435688 0.0052955299616
0.52572381496 -1.140873313 -1.5554947853
-0.007750951685 -1.7078251839 -1.041118145
-0.62460792065 -1.0378296375 -1.5889841318
1.9931645393 -0.057918779552 0.12977468967
1.5874848366 0.56873184443 1.069268465
1.0022370815 1.544084549 0.77394574881
-1.6207463741 0.70898407698 -0.929697752
-1.9955201149 0.024555282667 0.0071331681684
-1.0927016735 1.5074009895 -0.72559976578
-0.96250969172 -1.6396403313 -0.61272549629
0.00078055489575 -1.9998813868 0.00076259952039
-0.9993802309 -1.620380044 0.61233299971
-1.690410614 -1.0595104694 0.031423617154
-1.6171677113 -0.62022131681 0.99922943115
-1.1386373043 0.00041352814878 1.6423085928
0.99641394615 -1.6216598749 -0.61477762461
1.6160832644 -0.75667619705 -0.901935637
0.0055509931408 1.9996705055 0.0012543310877
-0.55173480511 1.8908083439 0.34732100368
-0.55090087652 1.8909989595 -0.34734791517
-1.0773912668 1.6849418879 0.0026502027176
0.046824779361 1.7113004923 -1.0294418335
1.0065678358 1.6093702316 -0.62910151482
1.0650231838 1.69231987 0.029731251299
1.6877685785 1.0640927553 -0.060815326869
0.54970610142 1.897850275 -0.31025034189
0.55789387226 1.8888341188 0.34674203396
1.6616158485 0.66085839272 -0.89030218124
1.3737022877 1.1629501581 -0.87213039398
1.1664642096 0.94343447685 -1.3223882914
0.83649688959 1.359033823 -1.2048224211
0.40787726641 0.97221088409 -1.696423173
1.9078205824 -0.33750125766 -0.49671366811
1.7349289656 -0.11771746725 -0.9876691103
1.9133521318 0.29996570945 -0.4998395741
1.0766724348 0.022034345195 -1.6852089167
0.86768585443 -0.51680624485 -1.7263790369
0.55530083179 0.011575677432 -1.9211301804
0.28877463937 -0.54677414894 -1.901219964
-0.056035879999 0.048931434751 -1.9981528521
1.36738801 -0.39886242151 -1.4039640427
1.1537313461 -0.90757501125 -1.3578269482
1.4311722517 0.69441843033 -1.2122447491
0.8785238862 0.90100008249 -1.5543364286
0.84910470247 0.49151790142 -1.7428276539
1.1534854174 0.53415393829 -1.543992281
1.4031144381 0.33991038799 -1.3840067387
1.6676049232 0.2972343564 -1.063449502
1.4638594389 0.0053075174801 -1.3625640869
-0.87547302246 0.50603789091 1.7253767252
-0.35515534878 0.54800528288 1.8891382217
-0.56135010719 -0.0011921060504 1.9196853638
-0.87619835138 -0.51376265287 1.7226624489
-0.30471324921 -0.54524123669 1.8998202085
-1.0344688892 0.002550567966 -1.7116425037
-1.3755204678 -0.3172724545 -1.4164981842
-1.3762037754 0.32651051879 -1.4130755663
-1.714015007 -0.0037244809791 -1.0300773382
-1.6115796566 -0.69771891832 -0.95523494482
-0.91363853216 1.2582700253 -1.2486251593
-0.85780614614 0.49966105819 -1.7358698845
-0.37218612432 -0.47001835704 -1.9081343412
-0.58053416014 0.026662059128 -1.9136036634
-0.83640819788 -0.4719312191 -1.7546542883
-0.36048015952 0.54805886745 -1.8891433477
-0.61270773411 1.0025299788 -1.6160356998
0.38287845254 0.49512755871 1.8988323212
1.8839019537 0.31229230762 0.59368675947
1.9238687754 0.54169493914 0.084259018302
1.7263020277 0.8639241457 0.5230126977
1.4316577911 1.3371067047 0.40451583266
1.3817281723 1.1175189018 0.91718882322
-0.3264875114 1.4096559286 -1.3805949688
-0.5544321537 1.6698924303 -0.95064085722
-0.094739243388 0.29166176915 1.9762380123
-1.7142553329 -0.90971368551 -0.48320868611
-1.8978354931 -0.38183557987 -0.5014513731
-1.9217194319 -0.55345547199 0.0011015924392
-1.4050127268 -1.3880597353 -0.31387355924
-1.3609911203 -1.2152756453 -0.81813502312

CELLS 186 744
3 0 1 2
3 1 3 2
3 1 4 3
3 5 0 6
3 7 8 9
3 10 9 11
3 11 9 12
3 9 13 12
3 9 8 13
3 12 13 14
3 15 16 17
3 14 18 12
3 12 19 11
3 20 0 5
3 19 5 11
3 21 22 4
3 23 21 4
3 24 25 26
3 24 16 25
3 26 25 8
3 27 26 28
3 26 7 28
3 26 8 7
3 29 3 28
3 3 22 28
3 3 4 22
3 17 16 24
3 16 30 25
3 30 13 25
3 30 14 13
3 25 13 8
3 31 14 30
3 15 30 16
3 32 33 0
3 0 33 1
3 32 34 33
3 34 35 33
3 34 23 35
3 33 35 1
3 36 34 32
3 1 35 4
3 35 23 4
3 37 38 39
3 37 40 38
3 40 41 38
3 40 32 41
3 38 41 20
3 32 40 36
3 36 40 37
3 20 41 0
3 41 32 0
3 42 43 39
3 39 43 37
3 44 45 43
3 43 45 37
3 37 45 36
3 45 46 36
3 31 47 14
3 14 47 18
3 31 48 47
3 48 49 47
3 47 49 18
3 49 42 39
3 50 51 52
3 51 53 52
3 51 15 53
3 52 53 54
3 17 53 15
3 50 55 51
3 55 56 51
3 55 31 56
3 51 56 15
3 15 56 30
3 30 56 31
3 52 54 46
3 31 55 48
3 42 57 43
3 57 44 43
3 44 58 45
3 58 46 45
3 46 58 59
3 58 60 59
3 58 44 60
3 59 60 50
3 50 60 61
3 60 57 61
3 60 44 57
3 61 57 62
3 48 62 49
3 62 42 49
3 42 62 57
3 62 63 61
3 62 48 63
3 61 63 50
3 46 59 52
3 52 59 50
3 50 63 55
3 55 63 48
3 29 64 3
3 3 64 2
3 2 64 65
3 64 66 65
3 64 29 66
3 29 67 66
3 67 68 66
3 67 7 68
3 66 68 10
3 10 68 9
3 9 68 7
3 69 70 71
3 70 72 71
3 70 73 72
3 71 72 21
3 21 72 22
3 71 74 75
3 7 67 28
3 28 67 29
3 73 70 17
3 54 76 77
3 76 78 77
3 76 17 78
3 77 78 69
3 54 79 46
3 79 80 46
3 54 77 79
3 77 75 79
3 77 69 75
3 79 75 80
3 17 76 53
3 53 76 54
3 80 75 74
3 71 75 69
3 69 78 70
3 70 78 17
3 5 81 11
3 81 10 11
3 18 82 12
3 82 19 12
3 18 83 82
3 83 84 82
3 83 39 84
3 82 84 19
3 39 85 84
3 85 86 84
3 85 20 86
3 84 86 19
3 19 86 5
3 5 86 20
3 36 87 88
3 87 74 88
3 87 80 74
3 88 74 23
3 23 74 21
3 21 74 71
3 80 87 46
3 46 87 36
3 36 88 34
3 34 88 23
3 20 85 38
3 38 85 39
3 39 83 49
3 49 83 18
3 65 6 2
3 2 6 0
3 65 89 6
3 89 81 6
3 89 10 81
3 6 81 5
3 10 89 66
3 66 89 65
3 73 90 91
3 90 92 91
3 90 27 92
3 91 92 22
3 27 93 26
3 93 24 26
3 22 92 28
3 28 92 27
3 24 94 17
3 17 94 73
3 73 94 90
3 94 93 90
3 94 24 93
3 90 93 27
3 73 91 72
3 72 91 22

CELL_TYPES 186
5
5
5
5
5
5
5
5
5
5
5
5
5
5
5
5
5
5
5
5
5
5
5
5
5
5
5
5
5
5
5
5
5
5
5
5
5
5
5
5
5
5
5
5
5
5
5
5
5
5
5
5
5
5
5
5
5
5
5
5
5
5
5
5
5
5
5
5
5
5
5
5
5
5
5
5
5
5
5
5
5
5
5
5
5
5
5
5
5
5
5
5
5
5
5
5
5
5
5
5
5
5
5
5
5
5
5
5
5
5
5
5
5
5
5
5
5
5
5
5
5
5
5
5
5
5
5
5
5
5
5
5
5
5
5
5
5
5
5
5
5
5
5
5
5
5
5
5
5
5
5
5
5
5
5
5
5
5
5
5
5
5
5
5
5
5
5
5
5
5
5
5
5
5
5
5
5
5
5
5
5
5
5
5
5
5

CELL_DATA 186
SCALARS cell_data_0 double
LOOKUP_TABLE default
1.63567097038e-05
2.01814553387e-05
3.52246454317e-05
1.97884490422e-05
3.24583175866e-05
4.54884963079e-05
3.36441171987e-05
2.363480242e-05
1.32628840712e-05
4.74904613835e-05
6.40989900877e-05
4.05987591314e-05
2.29704569461e-05
1.94857570297e-05
2.76635509037e-05
4.13891018278e-05
4.94028292871e-05
5.26638431729e-06
1.04492177976e-05
4.2180211983e-06
0.000120964608112
2.31517137109e-05
1.63572536084e-05
1.73323154732e-05
1.47721307995e-05
2.94353200867e-05
1.11383466742e-05
1.57862352702e-05
8.5842389702e-06
7.53732957746e-05
4.78011538519e-06
7.60869367051e-05
7.14464396653e-05
3.15546357023e-06
3.04504803721e-06
1.39059212545e-06
1.98940332671e-06
3.85583814762e-07
1.39055225663e-06
1.96042991713e-05
2.79075885055e-05
2.96172711675e-05
7.74671829617e-07
1.50962362027e-06
1.88202161725e-06
1.38698282508e-06
3.08329828891e-06
1.70547525366e-05
1.43104906561e-05
6.57572286915e-06
2.73812235107e-06
4.43796280841e-06
2.19868409759e-06
1.34334322255e-07
7.27963805935e-07
1.63701440942e-05
2.20700044385e-05
3.6649253587e-05
2.91606124202e-05
1.63591892565e-06
1.10805845408e-06
6.90844017404e-07
3.22504382838e-06
1.15986838174e-05
9.64768868414e-08
1.68731526409e-05
5.48928503364e-07
3.35792294075e-05
1.10861866705e-05
3.03589970709e-07
2.77822831893e-06
1.55136219607e-05
3.33537115067e-05
7.84834054292e-06
7.37952159501e-07
2.57785810774e-06
9.34169569862e-08
9.06033596616e-08
3.94761405861e-08
1.7360327845e-07
1.41079895621e-08
2.75934303357e-08
8.705794431e-08
7.1592148104e-06
6.93082177691e-06
1.14235439746e-07
8.15616795992e-09
7.19921677793e-06
9.99234831875e-06
1.10638162457e-05
8.06567999642e-06
2.57405044817e-05
3.24503134224e-05
2.87450760488e-05
3.24876299931e-08
1.07093451729e-05
3.5484648904e-05
1.62765739068e-05
9.40309852159e-06
1.48495196132e-05
1.07388124319e-05
4.50427956581e-06
1.49190072735e-05
1.63124876937e-05
2.76530057265e-05
1.05655784672e-05
4.04803247405e-05
3.05989972455e-05
3.08088518066e-05
2.14489185442e-05
1.23849847278e-07
8.50759390718e-07
2.84986581167e-07
3.60531523708e-07
6.59065845633e-07
1.65929035062e-05
1.96080528264e-05
1.47889905399e-06
4.00787808568e-07
6.77057853629e-08
1.25731628109e-07
1.73906556726e-05
4.85739556149e-07
2.28105405013e-08
2.32330202184e-07
1.99837202721e-07
1.76943564799e-05
3.2497828963e-08
2.59720735423e-07
6.56796456193e-07
1.40987358562e-07
2.05210863326e-05
1.97492429983e-05
1.95332881079e-07
1.7317758229e-05
1.84762269109e-05
5.07890628067e-06
8.95352452982e-06
1.93627773406e-05
1.66308144528e-05
3.04588974459e-05
3.03129392187e-06
1.94014755038e-06
1.1619319997e-06
2.58050635361e-06
2.71971775885e-06
1.1971836853e-05
9.65582900761e-06
1.84250214965e-05
3.3063365355e-06
1.09811884919e-06
4.24415953942e-06
2.98094765807e-06
1.39890034542e-07
2.26714153054e-06
2.49546152679e-05
1.78554049998e-05
4.4836384392e-06
2.720189052e-06
6.7695372638e-07
3.24077457835e-05
2.72337366075e-05
2.13792294631e-05
2.34952150099e-05
1.54123022826e-05
2.0143847976e-05
2.23806575548e-05
6.36082893122e-06
2.27976223608e-05
3.76463108641e-06
5.76472909318e-07
3.52651466957e-07
4.44730949132e-05
2.42625908247e-07
8.13424071384e-05
1.8329692064e-06
3.58277646855e-06
7.29851470951e-05
3.12255052814e-07
1.49207955226e-06
6.31086463943e-07
2.86860327824e-07
1.46605996795e-07
4.32284143847e-05
8.40750709096e-07
3.98515332517e-07

