# vtk DataFile Version 3.0
File Name: Molecule/sphere_excent/sphere_excent_0-s18.vtk
ASCII
DATASET UNSTRUCTURED_GRID
FIELD FieldData 1
TIME 1 1 double
0.0
POINTS 171 double
0.0044939764775 1.6861717701 1.0752363205
-1.0780527592 1.4789460897 0.80447584391
-0.63605809212 1.1534990072 1.5026408434
-1.6751312017 1.0887873173 0.091108985245
-1.6488640308 0.60959857702 0.94688308239
0.78278493881 1.0355049372 1.5207191706
0.063412159681 0.92101925611 1.7733283043
0.64942395687 -1.1217553616 1.5226801634
0.012835510075 -1.7104126215 1.0364416838
0.87402826548 -1.6610016823 0.6881249547
0.47511702776 -1.2097123861 -1.5201135874
-0.017988165841 -1.7197184563 -1.0207926035
-0.55213141441 -1.0717320442 -1.5915905237
1.6270287037 -0.44419321418 1.070994854
1.5404956341 0.50331950188 1.1717507839
1.1040312052 0.08496195823 1.6636482477
0.92960435152 1.5647064447 0.82802933455
-0.79525882006 -1.7261896133 -0.61749053001
0.0062842732295 -1.9996830225 0.014577861875
-1.1462945938 -1.6358083487 0.058972142637
-0.85084849596 -1.6633322239 0.71340548992
-0.66491824389 -1.239574194 1.4204828739
-1.9770970345 0.21135254204 0.1538194418
0.86270594597 -1.6560230255 -0.71327406168
1.162951231 -1.6230117083 0.059142764658
0.0064624273218 1.9994277954 0.027758764103
-0.56849807501 1.8824343681 0.36487841606
-0.53384810686 1.8895329237 -0.3778243959
-1.0960408449 1.6726844311 0.020902395248
-1.1690711975 1.4762265682 -0.67157900333
0.0085840988904 1.7329351902 -0.99703890085
0.26805698872 1.8963928223 -0.5696041584
0.56299459934 1.9093770981 -0.18380202353
0.55515784025 1.8830221891 0.37994176149
1.044613719 1.7009378672 0.094633132219
1.6850222349 0.71897816658 -0.80131584406
1.3670449257 1.1723023653 -0.86995267868
1.6861684322 1.0614006519 -0.16084729135
1.167703867 0.97180241346 -1.3007494211
0.85386908054 1.2956525087 -1.2601230145
1.7895157337 -0.89091438055 0.01871070452
1.9052371979 -0.383441329 -0.47176241875
1.9856126308 -0.18487897515 0.14497935772
1.6098546982 -0.70950770378 -0.95098108053
1.7459236383 -0.1654676199 -0.96146327257
1.9212027788 0.28423219919 -0.47777760029
1.0748074055 -0.019587986171 -1.6861629486
0.85975325108 -0.53984117508 -1.7235220671
0.5567638278 0.012564074248 -1.9208811522
0.25436288118 -0.58223855495 -1.8961888552
-0.032821331173 0.056265663356 -1.9987177849
1.3631796837 -0.43592149019 -1.3970959187
1.1382985115 -0.96855825186 -1.3288402557
0.29996213317 0.95720213652 -1.7295461893
1.4483429193 0.72460854053 -1.1688976288
0.87086927891 0.89772772789 -1.56052351
0.81324243546 0.49121332169 -1.7562445402
1.1412402391 0.61070215702 -1.5236262083
1.692666173 0.30668926239 -1.0163143873
1.4906113148 -0.035722672939 -1.3304145336
-0.87216407061 0.50356405973 1.7273015976
-0.59888106585 -0.0010017435998 1.9080222845
-0.42281138897 0.59283912182 1.8624294996
-1.1977859735 -0.061084762216 1.5976984501
-0.96179878712 -0.59328919649 1.6490780115
-0.37163725495 -0.52916777134 1.8915493488
-1.0472280979 0.020663041621 -1.7038035393
-1.3679071665 -0.32933396101 -1.4208923578
-1.370300889 0.37207725644 -1.40795362
-1.6882172823 0.02423346974 -1.0718545914
-1.6243617535 -0.64504015446 -0.96850705147
-1.5606645346 0.78269076347 -0.97265911102
-0.99068045616 1.1704792976 -1.2827906609
-0.86479622126 0.53013688326 -1.7235275507
-1.3029521704 -1.1562747955 0.98055779934
-1.6138825417 -0.50589203835 1.066791296
-0.35888871551 -0.44317814708 -1.9170466661
-0.58666265011 0.041518971324 -1.911555171
-0.85884779692 -0.48795899749 -1.7368193865
-0.35103365779 0.54751241207 -1.8912688494
-0.54391002655 0.99389195442 -1.6472911835
-1.3473639488 -0.87893009186 -1.1831506491
0.44778904319 0.46972554922 1.8913179636
1.8775624037 0.27086085081 0.63208729029
1.9291437864 0.51711410284 0.10523813218
1.7274615765 0.85507714748 0.53398931026
1.4263246059 1.3357605934 0.42624759674
1.360394001 1.1154141426 0.95129591227
-0.27969792485 1.4153009653 -1.3841774464
-0.59528744221 1.6473795176 -0.9645435214
0.41600549221 1.5406315327 -1.2018610239
-0.070459984243 0.29877200723 1.9761809111
0.23062123358 -0.03281454742 1.9859851599
-0.062100738287 -0.29309850931 1.9770171642
-1.7016478777 -0.88911616802 -0.55922162533
-1.8502200842 -0.52201235294 -0.54914450645
-1.6671216488 -1.0938467979 0.15076653659
-1.4123011827 -1.3534066677 0.41644528508
-1.6682089567 -0.94970005751 0.56025463343
1.68656075 -0.95929080248 -0.48498380184
1.3842006922 -1.1956897974 -0.80859047174
1.3768242598 -1.3964396715 -0.39000540972
-1.5180448294 -1.3008930683 -0.041748158634
-1.3930718899 -1.39430058 -0.33696964383
1.3207252026 -1.1474589109 0.96441745758
0.97601389885 -0.55688071251 1.6527739763
1.7220349312 -0.85404634476 0.55122089386
1.4431375265 -1.3257263899 0.39865407348
-1.8379452229 -0.74824512005 -0.24866831303
-1.7084727287 -1.022097826 -0.19121941924
-1.8168413639 -0.82765704393 0.11155814677
-1.9232794046 -0.54584026337 0.054231524467
1.5555001497 -1.2547427416 -0.074182800949
-1.852850914 -0.56479662657 0.49773922563
-1.5623480082 -1.171615243 -0.43097782135
-0.024070380256 -1.1924532652 1.6048330069
0.44648352265 -0.51940196753 1.8790647984
0.64237719774 -0.08403980732 1.8916393518
-0.42742159963 -0.90350717306 1.7321937084
0.096428252757 -0.8052585721 1.8281641006
-1.8404631615 -0.21860381961 -0.75126951933
-1.8769097328 0.21595090628 -0.6532856226
-1.9401757717 0.036257229745 -0.4821049273
-1.9318478107 -0.2839319706 -0.43297484517
-1.6972830296 0.94244325161 -0.48012918234
-1.8953611851 -0.14998331666 0.60791409016
-1.4856902361 0.24000009894 1.3124674559
0.76307296753 1.7792854309 -0.50060963631
1.0814226866 1.6582541466 -0.28370589018
0.56178772449 1.7260177135 -0.83806043863
0.90723317862 1.519862771 -0.93127340078
1.0713387728 1.5767918825 -0.60278725624
-1.9779289961 -0.23832447827 0.16611392796
-1.9208936691 -0.49450269341 -0.25596815348
-1.7861062288 0.48144364357 -0.7579472065
-1.8737291098 0.62653207779 -0.30324912071
-1.9970021248 -0.068041391671 -0.07191310823
-1.971273303 -0.31913593411 -0.10846985877
-1.9770925045 -0.13354621828 -0.26851812005
-1.982998848 0.1308054775 -0.22315765917
-0.75890487432 -1.461917758 -1.1345204115
-1.0920548439 -1.4679299593 -0.8076210022
-1.0017609596 -1.1412752867 -1.2969335318
-1.1929420233 -1.2050580978 -1.0602215528
-1.5192699432 -1.1031056643 -0.68875962496
-1.4883859158 -0.96555918455 -0.92315995693
-1.3418475389 -1.2201300859 -0.84288263321
-1.3602384329 -1.333053112 -0.61002922058
-1.1606111526 -1.5489546061 -0.50315338373
-1.1869882345 0.93702822924 1.307783246
1.3834365606 1.3885505199 -0.39728951454
1.3937169313 1.433601141 -0.048655167222
-1.0836480856 0.26524013281 1.6599093676
-1.288906455 0.5650960803 1.4211435318
-0.83498907089 0.82630598545 1.6179178953
-1.9591765404 0.38046550751 -0.12451309711
-1.9346328974 0.32484546304 -0.38881188631
-1.8647857904 0.5107280612 -0.51098406315
1.0011329651 0.52386254072 -1.6503484249
0.96099942923 0.24945579469 -1.7356661558
1.1304161549 0.31266078353 -1.6199308634
1.2657586336 0.18958076835 -1.5367267132
1.2795568705 0.45400637388 -1.4684357643
1.4028087854 0.33923217654 -1.38456285
1.3085715771 0.65008509159 -1.3654916286
1.4361004829 0.51593214273 -1.2928299904
1.5434148312 0.33175650239 -1.2279542685
1.5744879246 0.51165753603 -1.1218965054
1.5946336985 0.14416395128 -1.1979233027
1.4464752674 0.16261281073 -1.37159729
1.3077427149 -0.0033520017751 -1.5126049519

CELLS 338 1352
3 0 1 2
3 1 3 4
3 5 0 6
3 7 8 9
3 10 11 12
3 13 14 15
3 16 0 5
3 14 5 15
3 17 18 19
3 17 11 18
3 20 18 8
3 20 8 21
3 4 3 22
3 11 23 18
3 9 18 24
3 18 9 8
3 10 23 11
3 25 26 0
3 0 26 1
3 25 27 26
3 27 28 26
3 27 29 28
3 26 28 1
3 30 27 31
3 1 28 3
3 28 29 3
3 32 33 34
3 32 25 33
3 34 33 16
3 16 33 0
3 33 25 0
3 35 36 37
3 38 39 36
3 40 41 42
3 43 44 41
3 44 45 41
3 41 45 42
3 45 35 37
3 46 47 48
3 47 49 48
3 47 10 49
3 48 49 50
3 12 49 10
3 46 51 47
3 51 52 47
3 51 43 52
3 47 52 10
3 10 52 23
3 48 50 53
3 43 51 44
3 35 54 36
3 54 38 36
3 38 55 39
3 55 53 39
3 53 55 56
3 55 38 57
3 44 58 45
3 58 35 45
3 53 56 48
3 51 59 44
3 60 61 62
3 63 64 61
3 64 65 61
3 66 67 68
3 67 69 68
3 67 70 69
3 68 69 71
3 68 72 73
3 21 64 74
3 75 64 63
3 50 76 77
3 76 78 77
3 76 12 78
3 77 78 66
3 50 79 53
3 79 80 53
3 50 77 79
3 77 73 79
3 77 66 73
3 79 73 80
3 12 76 49
3 49 76 50
3 80 73 72
3 68 73 66
3 66 78 67
3 67 78 81
3 5 82 15
3 42 83 13
3 83 14 13
3 42 84 83
3 84 85 83
3 84 37 85
3 83 85 14
3 37 86 85
3 86 87 85
3 86 16 87
3 85 87 14
3 14 87 5
3 5 87 16
3 30 88 89
3 88 72 89
3 88 80 72
3 89 72 29
3 29 72 71
3 71 72 68
3 80 88 53
3 53 88 90
3 30 89 27
3 27 89 29
3 16 86 34
3 37 84 45
3 45 84 42
3 62 6 2
3 2 6 0
3 62 91 6
3 91 82 6
3 91 92 82
3 6 82 5
3 92 91 93
3 61 91 62
3 70 94 95
3 96 97 98
3 97 74 98
3 97 20 74
3 98 74 75
3 75 74 64
3 21 74 20
3 43 99 100
3 99 101 100
3 100 101 23
3 40 99 41
3 41 99 43
3 43 100 52
3 52 100 23
3 96 102 97
3 102 19 97
3 102 103 19
3 97 19 20
3 20 19 18
3 9 104 7
3 7 104 105
3 13 104 106
3 104 107 106
3 104 9 107
3 106 107 40
3 13 106 42
3 42 106 40
3 94 108 95
3 94 109 108
3 109 110 108
3 109 96 110
3 108 110 111
3 101 24 23
3 23 24 18
3 101 112 24
3 112 107 24
3 112 40 107
3 24 107 9
3 40 112 99
3 99 112 101
3 111 110 113
3 98 110 96
3 96 109 102
3 103 102 114
3 7 115 8
3 8 115 21
3 92 116 117
3 116 105 117
3 116 7 105
3 117 105 15
3 15 105 13
3 13 105 104
3 21 118 64
3 64 118 65
3 65 93 61
3 61 93 91
3 92 93 116
3 93 119 116
3 93 65 119
3 116 119 7
3 7 119 115
3 119 118 115
3 119 65 118
3 115 118 21
3 92 117 82
3 82 117 15
3 95 120 70
3 70 120 69
3 69 120 121
3 122 120 123
3 71 124 29
3 29 124 3
3 22 125 4
3 4 125 126
3 127 32 128
3 32 31 25
3 25 31 27
3 30 31 129
3 31 127 129
3 31 32 127
3 129 127 130
3 39 130 36
3 36 130 131
3 131 130 127
3 130 90 129
3 130 39 90
3 129 90 30
3 30 90 88
3 53 90 39
3 22 132 125
3 132 113 125
3 132 111 113
3 125 113 75
3 75 113 98
3 98 113 110
3 111 133 108
3 108 133 95
3 69 134 71
3 71 134 124
3 124 135 3
3 22 136 132
3 136 137 132
3 136 138 137
3 132 137 111
3 111 137 133
3 137 123 133
3 137 138 123
3 133 123 95
3 95 123 120
3 122 123 138
3 122 138 139
3 17 140 11
3 11 140 12
3 17 141 140
3 142 140 143
3 140 142 12
3 12 142 78
3 144 94 145
3 146 147 144
3 147 114 144
3 147 103 114
3 144 114 94
3 146 141 147
3 141 148 147
3 141 17 148
3 147 148 103
3 103 148 19
3 19 148 17
3 94 114 109
3 109 114 102
3 4 149 1
3 1 149 2
3 63 126 75
3 75 126 125
3 131 128 150
3 128 151 150
3 128 34 151
3 150 151 37
3 131 150 36
3 36 150 37
3 63 152 126
3 152 153 126
3 152 60 153
3 126 153 4
3 4 153 149
3 153 154 149
3 153 60 154
3 149 154 2
3 2 154 62
3 154 60 62
3 60 152 61
3 152 63 61
3 142 81 78
3 67 81 70
3 37 151 86
3 86 151 34
3 135 155 3
3 3 155 22
3 22 155 139
3 155 156 139
3 155 135 156
3 139 156 122
3 34 128 32
3 127 128 131
3 122 121 120
3 121 134 69
3 134 157 124
3 157 135 124
3 134 121 157
3 121 156 157
3 121 122 156
3 157 156 135
3 22 139 136
3 136 139 138
3 146 143 141
3 141 143 140
3 142 143 81
3 143 145 81
3 143 146 145
3 81 145 70
3 70 145 94
3 144 145 146
3 57 158 55
3 55 158 56
3 56 158 159
3 158 160 159
3 158 57 160
3 159 160 46
3 46 160 161
3 160 162 161
3 160 57 162
3 161 162 163
3 57 164 162
3 164 165 162
3 164 54 165
3 162 165 163
3 54 164 38
3 38 164 57
3 163 165 166
3 165 167 166
3 165 54 167
3 166 167 58
3 58 167 35
3 35 167 54
3 58 168 166
3 168 169 166
3 168 59 169
3 166 169 163
3 59 168 44
3 44 168 58
3 163 169 161
3 169 170 161
3 169 59 170
3 161 170 46
3 56 159 48
3 48 159 46
3 46 170 51
3 170 59 51

CELL_TYPES 338
5
5
5
5
5
5
5
5
5
5
5
5
5
5
5
5
5
5
5
5
5
5
5
5
5
5
5
5
5
5
5
5
5
5
5
5
5
5
5
5
5
5
5
5
5
5
5
5
5
5
5
5
5
5
5
5
5
5
5
5
5
5
5
5
5
5
5
5
5
5
5
5
5
5
5
5
5
5
5
5
5
5
5
5
5
5
5
5
5
5
5
5
5
5
5
5
5
5
5
5
5
5
5
5
5
5
5
5
5
5
5
5
5
5
5
5
5
5
5
5
5
5
5
5
5
5
5
5
5
5
5
5
5
5
5
5
5
5
5
5
5
5
5
5
5
5
5
5
5
5
5
5
5
5
5
5
5
5
5
5
5
5
5
5
5
5
5
5
5
5
5
5
5
5
5
5
5
5
5
5
5
5
5
5
5
5
5
5
5
5
5
5
5
5
5
5
5
5
5
5
5
5
5
5
5
5
5
5
5
5
5
5
5
5
5
5
5
5
5
5
5
5
5
5
5
5
5
5
5
5
5
5
5
5
5
5
5
5
5
5
5
5
5
5
5
5
5
5
5
5
5
5
5
5
5
5
5
5
5
5
5
5
5
5
5
5
5
5
5
5
5
5
5
5
5
5
5
5
5
5
5
5
5
5
5
5
5
5
5
5
5
5
5
5
5
5
5
5
5
5
5
5
5
5
5
5
5
5
5
5
5
5
5
5
5
5
5
5
5
5
5
5
5
5
5
5
5
5
5
5
5
5
5
5
5
5
5
5

CELL_DATA 338
SCALARS cell_data_0 double
LOOKUP_TABLE default
9.59674587692e-06
6.30924467761e-06
2.29356031579e-05
1.30467876278e-05
3.23692453494e-06
1.70317042841e-05
1.65121214984e-05
2.2693728742e-05
2.72555550519e-06
1.69187436408e-07
7.56901876112e-06
1.11678438213e-05
3.93607537106e-06
8.85823073551e-07
5.13470958126e-06
5.52282448193e-06
2.31382047277e-06
2.0628095487e-06
6.42182082381e-06
9.33484047122e-07
1.76340757239e-06
4.39784607819e-07
3.01639806737e-06
1.40117087804e-05
2.40671269435e-06
3.41743514406e-06
1.74857614618e-06
1.68130987495e-06
3.02102224079e-06
6.49349432947e-06
3.9986578953e-06
9.02209933587e-06
5.46228307739e-07
8.1153951589e-07
7.66994029567e-07
1.10706284696e-06
1.03029808938e-06
9.36010597336e-06
1.00000849951e-05
6.91511176714e-08
2.98983023605e-07
9.6755636878e-08
8.04889501347e-07
9.37286733531e-06
1.00742912102e-07
3.87255741978e-07
3.82691534655e-07
3.20340270308e-07
4.55644702927e-06
5.41836664479e-07
2.14339904073e-06
4.06556760254e-07
7.63682142978e-06
1.98910325628e-05
6.9094782984e-05
2.51896432874e-05
9.5468826863e-06
1.60306764496e-05
5.07973019323e-05
1.6535746499e-05
6.73891531542e-06
1.9945025784e-05
1.02655340522e-05
1.95697421589e-05
2.77930302473e-07
6.50921319671e-07
2.00660336309e-07
3.19170580734e-06
1.28843301195e-05
1.4120707347e-05
8.56306940708e-06
7.47075547013e-06
3.82879362989e-06
2.46919576475e-05
3.67086117421e-06
3.27929725713e-06
3.68186131341e-06
3.04620677771e-06
2.43759754668e-05
7.21404462922e-09
5.23786337217e-06
3.91224760281e-06
2.79126723629e-06
1.76421251369e-05
1.77128880293e-05
3.30102907298e-07
2.43249185203e-05
4.43898105675e-06
8.06704138258e-06
1.02128831148e-06
1.41246972066e-05
3.16319064383e-05
1.33639709681e-05
3.88817585716e-05
1.91187639838e-05
2.93443361474e-06
1.48510355385e-05
1.04879397815e-05
8.14260635534e-06
1.48241075383e-05
8.38932259996e-06
5.44101971748e-06
9.64804671856e-06
1.0142663599e-05
4.94796932097e-06
6.99440441648e-06
8.8500107577e-06
1.30150080138e-05
3.45947633794e-06
2.42062057138e-06
7.32699262679e-07
4.17157850994e-07
1.92861128034e-05
2.42403748862e-05
7.54387342769e-06
8.44014836064e-06
8.54940132901e-06
1.05166664742e-05
1.96126021235e-05
7.87805091494e-06
2.31517312655e-05
1.22494632037e-06
2.17211420508e-06
3.93269102822e-06
4.16724804413e-06
1.2303715607e-05
8.02075161515e-06
3.35127629369e-07
5.33675515462e-07
8.8090939174e-07
1.09032447782e-06
7.5912890282e-07
3.55095055877e-07
1.91767213137e-07
7.67057541961e-07
9.19197315271e-07
1.84962191925e-05
2.47156142327e-06
5.96310935627e-06
9.95848359203e-06
1.30325483511e-05
4.22962364359e-06
7.83916977205e-06
4.92368190215e-06
9.62256059781e-06
9.64471590689e-07
3.20158980755e-06
1.60339721484e-05
3.44498065806e-07
3.45944007703e-07
2.79758382735e-07
1.23900461176e-05
8.30856534121e-07
3.75532650542e-06
5.03944107322e-07
7.21952810591e-06
5.80377434413e-06
7.93107077171e-06
4.36449573087e-07
6.30890068034e-07
1.20000796369e-05
7.30227757729e-07
2.6747991543e-07
1.09104776405e-05
1.3837156817e-05
1.25732956631e-05
9.41090903518e-06
1.01022182058e-05
1.18065037944e-05
1.40337162048e-05
1.73628931511e-05
1.24909923367e-05
1.29689625651e-05
1.36898772922e-05
2.22640716893e-05
3.48902682193e-05
2.05941378223e-05
1.74372471313e-05
1.69002352323e-05
1.72847096511e-05
1.17237721412e-05
6.88951929642e-06
1.30456933181e-05
9.6425159104e-06
1.00857377888e-05
1.58072463204e-05
2.35019746754e-05
3.17493622003e-07
9.4175261259e-08
4.54729921917e-06
3.14171080686e-06
4.0711832365e-06
4.55320756134e-06
6.44510718743e-06
5.47512741715e-07
3.19363854341e-07
1.05914420569e-06
1.62050164939e-05
4.19176966672e-06
1.4847289115e-07
2.91493143393e-06
4.03023771775e-07
8.47365912576e-06
6.52922606212e-06
3.75078920538e-06
9.11732071913e-08
1.36961216442e-05
1.22881169736e-05
2.97061137746e-06
1.32339194357e-06
1.31316602904e-06
1.21957621114e-05
2.60404901057e-06
2.56262607311e-06
1.14433606829e-06
9.95938026872e-06
1.04436743588e-05
6.12131535042e-07
8.26151368303e-07
3.8610993917e-07
4.95912487199e-07
2.66667175113e-07
2.60086548616e-06
7.29259115011e-06
6.52722048335e-06
1.50973662384e-07
3.17278944576e-06
8.2704244326e-06
1.08325137181e-05
9.0272298124e-06
1.33494157244e-05
2.24219575465e-06
2.52363108744e-06
7.51645913838e-07
4.53338261071e-07
9.75557374023e-07
5.44348484175e-07
1.35801774637e-07
2.75901319336e-08
1.0393573499e-07
8.55920345182e-06
1.2126179851e-07
8.35548233355e-09
1.20414820293e-07
6.62905808594e-08
8.88589982108e-06
1.88391303888e-05
2.85915327625e-07
7.39563767399e-08
8.28961276008e-08
7.77431481355e-06
8.5543234849e-06
8.43895054552e-06
7.33938952728e-06
4.83217957989e-06
4.62853021575e-07
6.04657482749e-07
8.20424120047e-07
7.9077276058e-06
1.22663161276e-06
5.40024875512e-06
4.56161823972e-06
4.70952469794e-06
3.70352632487e-06
4.32215074177e-06
5.15244855495e-06
5.96819250879e-06
5.67235104999e-06
9.06850420905e-06
3.91535597409e-06
4.49297328644e-06
1.06200892717e-05
6.34633522085e-07
1.25986680714e-06
1.905341859e-06
5.27450400949e-07
6.67611016818e-06
7.57696499736e-06
4.82746800636e-06
7.80768223101e-06
5.99720613605e-06
1.01183843528e-05
9.4618348571e-07
4.75123172808e-06
4.59090191538e-06
2.13764998196e-07
1.44500639126e-07
1.20058134099e-07
1.98148826788e-07
2.086470471e-06
7.14656616082e-06
1.50794429476e-06
1.05826356268e-06
4.90924000772e-06
1.53570732319e-07
5.17553882441e-07
4.25556208879e-07
8.35511846971e-08
3.87413559337e-08
3.81274135814e-07
5.82506163061e-08
3.19288851948e-08
1.43584002449e-05
1.8816091033e-05
5.95622988045e-06
3.90730248895e-08
4.01056876249e-06
1.97128933423e-06
1.96083402021e-06
3.25843602203e-08
4.28549727294e-06
1.54997599214e-06
3.39298859984e-06
3.33955869664e-08
4.41605577775e-08
1.24052223309e-06
1.1741745934e-07
6.28268872761e-06
1.28388640163e-06
3.6155111e-08
4.93422367819e-08
2.02897331811e-06
7.13938446099e-06
1.14555612724e-06
1.93565030068e-06
3.58213492364e-08
3.80004015357e-06
1.23650377875e-06
8.63368923418e-06
4.30729790566e-06
1.41667001904e-06
3.64709582963e-08
4.2370800858e-06
1.76540385758e-06
1.50040131168e-05
4.72862373233e-06
3.88798230518e-06
9.25533951848e-06

