# vtk DataFile Version 3.0
File Name: Molecule/sphere_excent/sphere_excent_0-s28.vtk
ASCII
DATASET UNSTRUCTURED_GRID
FIELD FieldData 1
TIME 1 1 double
0.0
POINTS 316 double
-0.085994511843 1.7361456156 0.98679119349
-1.0905183554 1.4740451574 0.79744875431
-0.58596485853 1.2273745537 1.4655359983
-1.6528501511 1.1159980297 0.15077936649
-1.6675994396 0.68939954042 0.86179471016
0.63334316015 -1.207578063 1.4628323317
0.016400100663 -1.7216635942 1.0175852776
0.80281442404 -1.6759166718 0.73923170567
0.32839637995 -1.1875398159 -1.5745165348
-0.01395693142 -1.725597024 -1.0103830099
-0.33339327574 -1.1524995565 -1.599124074
1.5486052036 -0.41071799397 1.1970379353
1.5344010592 0.46827185154 1.1931355
1.1908658743 0.037749122828 1.6055542231
-0.65921390057 -1.7967270613 -0.58033454418
0.027357865125 -1.9995957613 0.029994979501
-0.96764206886 -1.7475758791 0.086253046989
-0.76505625248 -1.692687273 0.74183517694
-0.66783607006 -1.3184634447 1.3475282192
-1.9371409416 0.34350654483 0.35816192627
0.75974327326 -1.7292724848 -0.65690714121
1.0537793636 -1.6993464231 0.029914746061
-0.089933075011 1.9976146221 -0.02022209391
-0.55267482996 1.885430336 0.37283712626
0.14562737942 1.9626752138 0.3517832756
-0.54191052914 1.8873984814 -0.37875208259
-1.1011273861 1.6686369181 0.061750225723
-1.2512183189 1.4689819813 -0.52440285683
-0.079321503639 1.7842680216 -0.89819324017
0.20091824234 1.9307311773 -0.48118418455
0.97230762243 -0.086249537766 -1.7455272675
0.73244458437 -0.60703837872 -1.7588629723
0.50546741486 -0.1244950071 -1.9307574034
0.18890789151 -0.62505120039 -1.8899368048
0.078039988875 0.035300187767 -1.9980943203
0.92368036509 0.97768074274 -1.4800415039
1.1963040829 0.92858177423 -1.3063333035
1.0829247236 0.72799408436 -1.5156530142
1.3617417812 -0.40469780564 -1.4077841043
1.5188132524 -0.18492436409 -1.2879297733
1.5257480145 -0.52479064465 -1.1817955971
-0.45266884565 0.66234529018 1.8317929506
-0.81792598963 0.43468046188 1.7723544836
-0.41837719083 0.23026035726 1.9417536259
-0.99984151125 -0.71734440327 1.5729813576
-1.2097797394 -1.1362980604 1.1130800247
-1.5766718388 -0.51216882467 1.118453145
-1.2402523756 -0.18156765401 1.5576683283
-0.18165774643 0.50439709425 -1.9261389971
0.29737791419 0.44217056036 -1.9276431799
-1.3669096231 -0.34874606133 -1.417552948
-0.96742260456 -0.66650909185 -1.6179322004
-1.2797006369 -0.81906586885 -1.3004773855
1.8543335199 0.37323260307 0.64955699444
1.6990864277 0.7891690135 0.69997650385
1.3849329948 1.0232253075 1.0149408579
1.0880362988 0.57384693623 1.5743652582
-0.55734968185 1.6925215721 -0.90718001127
1.9602843523 0.24076667428 -0.31368046999
1.9699412584 0.31724184752 0.13380855322
1.9934672117 -0.15634727478 0.031169345602
-0.017579557374 0.88914573193 1.7912933826
-0.031162509695 0.40803867579 1.9575996399
0.40117180347 0.48540374637 1.897982955
0.28405055404 -0.010488553904 1.979534626
-1.6433287859 -1.1061929464 0.27022138238
-1.5372097492 -1.2777166367 0.059759359807
-1.3259606361 -1.428794384 0.44075068831
1.2131323814 -1.0943090916 1.1512566805
1.0440852642 -0.60176461935 1.5960085392
1.3015575409 -1.4668018818 -0.3912550807
1.5497277975 -1.2632516623 -0.047091368586
1.3935501575 -1.3853315115 0.37237691879
1.7474339008 -0.93842828274 0.25482934713
1.7919458151 -0.88154298067 -0.10679385811
1.6940618753 -0.97597020864 -0.41687470675
-1.926368475 -0.52366292477 0.11828544736
-1.8097043037 -0.81087720394 0.25819659233
-1.8482197523 -0.52483093739 0.5546425581
-1.6662640572 -0.91368162632 0.62057828903
-1.6464374065 -1.1210095882 -0.177944839
-1.7462520599 -0.97348994017 0.031648475677
-0.04416647926 -1.2744753361 1.54086411
0.50389140844 -0.55139523745 1.8552508354
0.72451609373 -0.10234748572 1.8613797426
-0.43704822659 -0.95796138048 1.7004145384
0.015951381996 -0.38309645653 1.9629238844
0.063880741596 -0.8434638381 1.8123005629
-0.4129679203 -0.53599566221 1.8803246021
0.8204690814 0.32589265704 1.7942736149
-1.4639539719 0.91369467974 -1.0099058151
-1.6530842781 0.99571484327 -0.52484941483
-1.8499897718 -0.043411646038 0.75803935528
-1.5591239929 0.14458703995 1.244127512
0.4548368454 1.7418146133 -0.87096077204
0.7418372035 1.7717661858 -0.55698657036
0.60936182737 1.8946583271 -0.1923815012
0.84911412001 1.5447620153 -0.9446593523
1.2669146061 1.3049082756 -0.83177155256
1.0896123648 1.5569165945 -0.62333184481
0.4756064117 1.4792281389 -1.2589776516
0.81354445219 1.2827453613 -1.3008117676
-1.9631665945 -0.1981985122 0.32612723112
-1.9183892012 -0.5247656703 -0.21035942435
-1.8531913757 -0.7508983016 -0.042389284819
-1.8327640295 -0.7333047986 -0.3202636838
-1.8580249548 -0.52583700418 -0.52089709044
-1.7038726807 0.5448718071 -0.89290720224
-1.8406822681 0.72224378586 -0.29896295071
-1.9988498688 -0.042085617781 0.040764201432
-1.9760241508 -0.30106431246 -0.06541697681
-1.98422122 -0.10452342033 -0.22728709877
-1.9408911467 -0.32879188657 -0.35286524892
-1.9622631073 0.057462502271 -0.38169243932
-1.9859938622 0.17638680339 -0.15397292376
-0.67972517014 -1.4958587885 -1.1403480768
-1.0338922739 -1.4832007885 -0.85544347763
-0.90922385454 -1.0926707983 -1.4063211679
-1.1484673023 -1.2015279531 -1.1119691133
-1.4448411465 -0.97033381462 -0.98525249958
-1.5220040083 -1.0991764069 -0.6894119978
-1.6340153217 -0.85055536032 -0.77859121561
-1.3229498863 -1.2339832783 -0.85268127918
-1.3378764391 -1.3600525856 -0.60004800558
-1.545016408 -1.1980953217 -0.42093539238
-1.3982276917 -1.3844374418 -0.35810241103
-1.6898541451 -0.95967233181 -0.47228750587
-1.0974992514 -1.5735747814 -0.56461042166
-1.4753313065 -1.3401349783 -0.16524238884
-1.1768568754 1.0126042366 1.2606500387
1.0924699306 1.6465986967 -0.30299460888
1.3850921392 1.3701051474 -0.45103162527
1.3548822403 1.4701701403 -0.044182863086
1.6635143757 1.0612163544 -0.32259920239
1.6118619442 1.1776896715 -0.080570198596
1.5199688673 1.0908800364 -0.70682269335
-1.144498229 0.21673427522 1.6256361008
-1.2921744585 0.57414907217 1.4142796993
-0.88780069351 0.82142049074 1.5928863287
-0.7791621685 -0.038489650935 1.8409233093
-1.5731320381 -0.63811999559 -1.0571378469
1.3574556112 1.4191960096 0.37723454833
1.0372492075 1.6949734688 0.21199376881
-1.9417910576 0.4727871418 -0.059164404869
-1.932698369 0.35086026788 -0.37645801902
-1.8330494165 0.56816226244 -0.56313323975
-1.8539408445 0.31218627095 -0.68193346262
0.81534922123 0.76051390171 -1.660236001
0.72064274549 0.51096141338 -1.7941762209
0.99104136229 0.51972335577 -1.6575913429
0.90459299088 0.28898888826 -1.7601830959
1.1064816713 0.29390063882 -1.6397777796
1.2332602739 0.47917497158 -1.4998297691
1.2782974243 0.14891719818 -1.5307246447
1.4018720388 0.32411104441 -1.3891531229
1.2836837769 0.69818866253 -1.3655555248
1.4432142973 0.53526622057 -1.2769453526
1.404433012 0.80171555281 -1.1767575741
1.5570340157 0.30009040236 -1.218801856
1.6240456104 0.47253239155 -1.0671538115
1.7406531572 0.21754144132 -0.9603831768
1.6161221266 0.055792406201 -1.1766209602
1.4568691254 0.085839003325 -1.3673444986
1.7166198492 -0.20757512748 -1.0048692226
1.2923101187 -0.14508670568 -1.5194789171
0.6753885746 0.20232373476 -1.8715958595
1.1146782637 -0.45414167643 -1.597168684
0.13128876686 0.92744481564 -1.7663657665
0.59488528967 1.0792300701 -1.5751224756
0.51217514277 0.76335430145 -1.7762006521
1.8627221584 0.64878070354 0.33011713624
1.8765852451 0.6843393445 -0.099444456398
1.7638237476 0.92423415184 0.17220494151
1.6860078573 1.0091429949 0.36410853267
1.5642492771 1.1216819286 0.53624325991
1.6925109625 0.80005705357 -0.7035074234
1.8496359587 0.58723729849 -0.48274460435
-0.081428028643 0.018321398646 1.9982250929
-0.34894326329 -0.15623091161 1.9628584385
1.5524690151 1.2496627569 0.14478339255
0.91879141331 1.083586216 1.4066278934
0.45677998662 1.4212968349 1.3308159113
0.41197633743 1.0441336632 1.6552405357
0.012766635045 1.3285962343 1.4947975874
0.79062348604 1.5708870888 0.94148606062
1.8718868494 0.0040116142482 -0.70426976681
1.7540229559 0.50696438551 -0.81627613306
1.8556054831 0.31005555391 -0.6782797575
-1.6373159885 -0.29940515757 -1.1087337732
-1.6156572104 0.033709425479 -1.1775901318
-0.75524568558 -0.24281153083 -1.8355088234
-1.0200226307 -0.26519203186 -1.6994384527
-0.85095065832 0.016862710938 -1.8097618818
-1.157963872 0.02674420923 -1.6301106215
-0.52025842667 0.082961767912 -1.9290784597
-0.71856814623 0.25715631247 -1.848342061
-0.98345047235 0.29972669482 -1.7154343128
-1.134655118 0.53737533092 -1.5568606853
-1.2756712437 0.24939483404 -1.5193923712
-1.8429948092 -0.17730942369 -0.7562507391
-1.769762516 -0.37988060713 -0.85071760416
-1.889197588 -0.29008635879 -0.58889758587
-1.7571800947 -0.10941273719 -0.94886738062
-1.777009964 0.16221410036 -0.90276759863
-1.8541564941 0.030391395092 -0.74883806705
-1.9072439671 -0.071578316391 -0.59758621454
-1.9465441704 -0.14896173775 -0.43434724212
-1.9140071869 0.13257808983 -0.56441926956
1.277228117 -0.69787925482 -1.3717025518
1.0270967484 -0.78731733561 -1.5248397589
1.1228885651 -1.0206083059 -1.3027985096
1.4088841677 -0.87156271935 -1.1204481125
1.6564575434 -0.68792045116 -0.88348144293
0.79866337776 -1.1459308863 -1.4313207865
1.9485834837 -0.012107854709 0.45010361075
1.8997590542 -0.50915211439 0.36208790541
1.7957558632 -0.001335803885 0.88040083647
1.8428229094 -0.35131299496 0.69229948521
-1.7378144264 -0.62526512146 -0.76749801636
-1.7686179876 -0.74086469412 -0.56836205721
1.4394738674 -1.1027292013 -0.8413643837
1.7351266146 -0.76438868046 0.63470596075
0.59501230717 -1.503734827 -1.1766123772
1.913112402 -0.58233398199 0.026259940118
1.9036345482 -0.50259780884 -0.34796589613
0.95968651772 -1.3685183525 -1.0983117819
1.5529024601 0.84604871273 -0.93401533365
1.404265523 1.0168039799 -0.99687534571
0.72180318832 0.73199528456 1.7153991461
1.1633042097 -1.4186320305 -0.7962898016
1.2340475321 -1.1715893745 -1.050998807
-1.3325824738 -1.4891922474 0.081755556166
-1.2785383463 -1.529356122 -0.16161061823
[...]
CELL_DATA 628
SCALARS cell_data_0 double
LOOKUP_TABLE default
1.25494703148e-05
6.76308937313e-06
1.15292223789e-05
1.54441688968e-06
1.1654413016e-05
2.59464705881e-06
1.54364314655e-06
7.46028532971e-06
9.07868907719e-06
4.30814853062e-06
5.28983564567e-05
5.58438358481e-06
7.10618619224e-06
1.73059516988e-05
2.11502050132e-05
8.88638400696e-05
0.000126637957458
7.44534633832e-05
4.19453257121e-05
5.75190019384e-05
9.97207468374e-06
1.03763745877e-05
9.56442196324e-06
2.23922422162e-05
1.93024688351e-05
1.58730547996e-05
1.55793911005e-05
1.03873585124e-05
3.56060059693e-07
1.19882157136e-05
9.08626801741e-06
6.5325977748e-06
1.37637341462e-06
9.48363250818e-07
1.05464813897e-06
1.37930870696e-05
1.76237234294e-06
0.000110818262179
7.64311756522e-06
1.63801651392e-05
1.36794170287e-05
1.53115854096e-05
1.95457091676e-05
9.36044334743e-06
6.3684750118e-06
9.05718634197e-07
2.67251356155e-06
4.95539494832e-06
8.76952876443e-06
9.69244476599e-06
2.1655033473e-05
4.03009992143e-05
4.84314644425e-07
8.12240094767e-07
1.15515749511e-06
2.76164177516e-06
1.50705056428e-06
3.15092796658e-07
8.69440111503e-07
6.88096810841e-08
1.16605450914e-05
1.0497665277e-05
1.00284955918e-05
9.7738676191e-06
1.29412540849e-05
1.28285536629e-05
1.14995138456e-05
8.81249371615e-06
1.24295846298e-05
1.02485014342e-05
7.39408248499e-06
6.81204263192e-06
1.19142141401e-05
9.40280606582e-06
6.06470087942e-06
6.39715150479e-06
6.79143470554e-06
1.21200583775e-05
7.66200276372e-07
1.51774960666e-06
3.6453728929e-06
5.26457755315e-06
4.48948330971e-05
6.30572775874e-06
7.77771568954e-10
1.91212383134e-06
7.49172174999e-08
2.51562681828e-08
2.72819552767e-07
3.82130539807e-07
1.9078966313e-07
5.55530493824e-07
2.30162346283e-07
1.50782238377e-06
3.56348622038e-06
2.91923058364e-06
1.06884525679e-06
5.43362014163e-07
1.19772671969e-07
1.90874130763e-07
9.4522282868e-07
3.39892654015e-07
7.36848457817e-07
1.83011178266e-07
1.63591867042e-06
1.59087754303e-07
1.22213616433e-07
1.65332620983e-07
1.23564237667e-07
2.28618838627e-07
1.58810431223e-05
1.89144359911e-05
1.69830856172e-05
1.82298098993e-05
2.80492095456e-05
5.44023677095e-06
5.11481370964e-06
6.21631930978e-06
9.42455592702e-07
5.4774156811e-06
1.90838994144e-06
2.28358840835e-06
3.26288249963e-06
5.4937529729e-08
1.81422204044e-06
6.61248588438e-06
8.11311337135e-06
7.40483526777e-06
5.01255749995e-06
1.3655746484e-08
5.58548311179e-07
6.62321515732e-06
9.57242329318e-08
2.18429033368e-07
6.69473086021e-06
4.05495927368e-06
4.41239077727e-06
5.51895286462e-06
5.37900441684e-06
3.95188185981e-06
5.0713275557e-06
5.66648155537e-06
8.33847912318e-06
6.11546910315e-06
7.9680359726e-06
9.31868292299e-06
7.46939146051e-06
1.25452614906e-08
1.26593758383e-05
1.13409282682e-06
2.09824344265e-06
7.7511817024e-07
3.88976189692e-07
4.65761318161e-07
2.75576428263e-07
7.63399116392e-08
1.46193282862e-07
3.27328288675e-07
9.12571213665e-08
2.53507818323e-07
3.08378288948e-07
8.33345379337e-07
2.97521749933e-07
2.17647254118e-06
1.30782695496e-05
4.90154981514e-06
2.09112905496e-07
1.16606203357e-07
2.43603125103e-07
5.69786914079e-06
1.19757088516e-05
4.92755716589e-06
5.06412684262e-08
3.52338013488e-08
7.60243108249e-07
7.49369943662e-07
9.39986122285e-09
8.35304644848e-06
6.14030041839e-06
7.15282130353e-06
5.96252101686e-08
4.88717607402e-08
5.50339450056e-06
5.19685675136e-08
6.82398294625e-06
4.54784736881e-06
1.16172598095e-07
8.37467049167e-06
8.89857344224e-06
9.65607144842e-08
9.57668922619e-08
4.73206951398e-06
1.33940739604e-07
1.2064509499e-05
4.92098836411e-06
1.82132752728e-07
5.65531234235e-07
1.48033420693e-06
1.01959591807e-06
1.9527493e-06
6.63476279623e-07
2.71653547398e-06
3.25752096694e-06
6.60450978277e-07
6.56762962387e-07
2.08755685751e-06
1.90357678135e-06
1.42103021336e-06
8.56106084843e-06
2.10972877596e-06
1.07336067769e-05
1.17597996229e-05
2.96301299291e-06
9.7977830466e-07
1.3234011464e-06
1.60369686851e-05
3.42961756103e-05
1.93651039329e-06
2.34455777909e-05
4.00353960229e-07
2.3895295113e-05
1.51509543889e-05
1.03774395637e-05
1.3646279132e-05
1.52732922741e-05
1.06008737041e-05
1.34578604399e-05
1.1201936639e-05
1.11581832e-05
1.37955060666e-05
6.44537141912e-06
6.56285793195e-06
1.02107837561e-05
4.11915260948e-06
5.34392828107e-06
7.318391865e-06
6.18518781446e-06
6.65790499868e-06
1.01357503551e-05
5.33661183045e-06
1.9805496383e-05
1.91581649598e-05
1.66763977272e-05
9.29789872968e-06
1.71795048657e-07
1.38924875545e-07
1.84193150457e-07
3.21844565505e-08
5.64113294593e-07
5.48278227293e-08
1.09191204412e-06
5.39045073201e-08
7.15328517761e-08
1.02071673904e-06
2.74946979612e-08
2.15227790661e-06
8.99922310704e-07
1.17279658388e-05
9.43299973791e-06
1.73686303423e-05
9.56699667667e-08
2.47651043894e-07
1.72625838462e-07
1.02225393806e-07
5.36444623123e-08
5.11270932207e-08
1.02717746391e-07
6.12290569307e-08
1.19463742844e-07
9.2358660565e-08
7.1227117503e-08
6.07860236364e-08
8.6695206704e-08
1.06592128562e-07
1.59164189346e-07
1.24995190083e-07
1.14283959035e-07
1.03959777295e-07
6.02443133003e-08
9.81833385247e-08
3.93969232094e-08
8.13954960319e-08
1.87027080812e-07
1.79531307266e-07
9.51855634834e-06
4.2735945495e-07
3.42399215937e-06
1.26231134358e-07
2.46808826874e-07
3.15107634399e-07
1.29656530864e-06
1.14350857605e-07
4.62540210894e-08
1.71172665461e-06
1.2575536812e-07
2.88622938717e-06
2.04180858978e-06
3.46947199212e-07
3.43926724329e-06
1.46787398517e-06
1.64449858705e-06
2.70096045552e-06
5.26851479033e-06
3.20879350877e-06
1.35229609668e-06
3.5014265599e-06
1.70950165828e-07
6.33054274067e-08
7.85147736609e-08
7.05454674663e-08
1.56717482174e-06
3.06724809165e-06
1.03538204212e-07
5.27483893012e-08
5.30532084594e-06
1.79805870666e-07
2.21754007621e-07
1.71990683389e-07
2.0976668526e-07
9.08305867428e-06
5.27780393774e-06
3.923371689e-05
2.53494062772e-07
1.60295579824e-07
3.39789613545e-06
6.95542108596e-07
2.55113123808e-06
1.49744980606e-06
3.06243525715e-07
2.02114807404e-05
9.16438326453e-07
7.09402145732e-07
4.42063636548e-07
1.94193130684e-07
5.53813656099e-08
6.25796935458e-06
5.3656369235e-06
7.04164046379e-06
7.89682664662e-06
1.37406120102e-05
1.15995480488e-07
8.34902347031e-08
1.66604059363e-07
1.25129529746e-05
6.67825537274e-07
7.68665824868e-07
1.79955033391e-06
1.96953681837e-06
3.30375496527e-06
3.47845668849e-07
9.99835201202e-07
3.35618625271e-06
7.96716740696e-07
1.02071320098e-06
4.9239827003e-07
3.89734682281e-06
2.88438443919e-06
8.9865146725e-06
8.99875552812e-06
6.02227276105e-08
5.74536944459e-07
5.0275997669e-07
9.01997485471e-08
8.63132804199e-08
1.49738712182e-07
3.24149397469e-07
6.21205952982e-08
1.14254798837e-07
4.37075340046e-08
2.09863442995e-07
2.03495549183e-07
2.36841550921e-08
4.83012278861e-07
7.52076254759e-06
6.23256178098e-06
9.42990451703e-08
7.42288482611e-08
4.32359445728e-07
1.71540096827e-06
1.33848221064e-07
4.18808454889e-08
1.09981306971e-06
1.24272172097e-06
1.8000860644e-06
1.60206801173e-07
1.20468691796e-07
3.58137596773e-07
3.14741186919e-07
4.00017748159e-06
6.43377679979e-06
2.91219764745e-05
4.43763346045e-06
1.18474808133e-07
8.68100451258e-06
1.33856172847e-05
5.34707279781e-06
1.34431764163e-05
1.9118118322e-07
8.28405117625e-06
2.54968103138e-07
5.90937370222e-07
1.1868751728e-05
6.16560885689e-05
2.79997716541e-05
2.29381017183e-07
1.13950354089e-05
2.39118787702e-07
7.73795398518e-07
1.03421471686e-06
1.5125457272e-05
1.86253652741e-07
1.91278230738e-07
4.8618878734e-08
1.10632265167e-08
3.15142298532e-07
2.32254864073e-07
3.34478863404e-06
9.8102944136e-07
3.66656999901e-06
5.15924419361e-06
3.4268961456e-06
7.49393805047e-06
8.09864494105e-07
3.33922739443e-06
1.79452212527e-06
6.68113189299e-06
1.23434989983e-06
2.1170949261e-06
1.07813540651e-06
1.89976935812e-07
7.60493537292e-08
1.06945442906e-07
3.71766526555e-06
2.43083767316e-06
1.30607422213e-07
7.69108582547e-09
3.79899005646e-06
3.12039772097e-06
2.58430683622e-06
8.36128180536e-06
8.34881066867e-06
4.46530098213e-08
7.3318778018e-09
3.02031651627e-06
4.01241942425e-06
3.06294399941e-07
3.14074269006e-08
7.40357387674e-06
4.34274215095e-07
1.371002883e-06
1.76975073452e-06
4.39319708884e-07
8.89647169805e-09
3.95539756899e-07
1.92414874167e-08
4.60470059962e-08
4.62779944187e-08
3.79487358432e-07
5.98278031762e-06
1.11340238858e-05
3.38251106721e-07
4.19211907263e-06
3.14019722458e-06
1.64982821084e-06
9.20533592614e-07
1.0806767681e-06
1.05417122729e-06
2.69007296648e-06
3.81263989003e-06
2.54896685448e-07
1.95388355141e-07
1.23290887906e-08
3.31931436257e-07
4.60726749259e-07
2.96299416416e-08
1.59471431475e-07
2.3158746844e-07
1.18751346342e-07
4.52272719274e-07
4.61056756093e-07
5.53430837995e-07
4.04702916627e-07
5.4656576768e-07
5.22149854215e-07
1.02857571562e-06
5.29899748924e-07
5.78251680206e-08
4.24673097975e-07
1.02928613682e-06
1.17306406921e-06
6.50208831167e-08
6.92413058352e-06
5.18689169818e-08
4.81385973239e-08
1.1721473482e-07
6.37665621931e-08
1.04649338213e-07
8.97791258278e-08
1.28780151673e-07
1.71784267692e-07
4.35307251309e-07
1.2642733743e-06
7.89784261759e-06
6.94457497314e-06
6.54787572805e-06
6.45919348345e-06
1.40848068554e-07
1.99452218444e-07
1.8599510542e-07
2.39038823532e-07
1.8322369977e-07
3.71841316408e-07
3.2520719012e-07
5.78884975365e-06
5.38542599102e-06
2.58622565604e-07
8.29614145199e-08
8.19508596389e-08
1.90338420953e-07
1.92711350502e-07
1.05200831706e-07
9.6541499861e-08
1.42229721388e-07
1.8313268875e-07
4.29127700477e-08
2.45110299182e-08
3.28260320446e-07
2.29584373335e-07
2.58923536246e-07
2.20983093843e-07
4.57610270929e-08
8.1882807657e-07
8.30836704499e-08
5.62595965616e-07
1.76227378896e-06
1.96272781011e-07
1.13342683901e-07
9.0365620721e-07
8.53999337758e-07
8.18590103223e-07
7.8590764914e-07
1.27777376034e-06
7.70118752254e-07
3.03168344601e-06
2.25422321539e-06
2.43864343309e-06
3.37157305773e-06
1.46346164445e-06
1.53012363334e-06
6.20840320233e-07
7.35458481877e-07
2.39036202723e-07
1.73265530298e-06
7.87209650103e-07
1.930438496e-07
2.01942535258e-07
4.5923260594e-08
1.03313939439e-07
9.88389097621e-08
4.46442287531e-07
6.72146713588e-08
2.59534019551e-07
1.70586609419e-07
2.17133145417e-07
4.52720340992e-07
1.05068286361e-07
2.08019769534e-07
2.35482801344e-07
2.20874796211e-06
3.67451571942e-07
1.07325943203e-06
3.43727770169e-07
1.45555110872e-06
1.20830151012e-07
3.28597384212e-07
1.81009559563e-07
1.13928744018e-06
3.73939243054e-07
7.08367832571e-07
5.59239300831e-07
1.93919738405e-06
6.72369298139e-07
4.39845650096e-06
7.40212066224e-06
4.0836405271e-06
4.54123814357e-06
5.80072123854e-06
5.45148319139e-06
4.95058355476e-06
7.11221726502e-06
2.03700869368e-05
3.67460078777e-05
7.71443451768e-06
6.87610290227e-06
2.82098253029e-06
7.88490905376e-06
7.38881700295e-08
9.46132329906e-08
5.29775702357e-07
3.70309297633e-06
6.70632239937e-06
3.90015905771e-06
6.49687554944e-06
3.69569007375e-06
7.45947660867e-06
7.82236541946e-06
4.66356456958e-06
8.35232745839e-06
2.01473599031e-06
2.52803896238e-06
1.78208227981e-07
9.71311268358e-08
9.49256404255e-07
2.65280067478e-07
1.25810122811e-06
5.2519363265e-07
1.01234816449e-06
2.20822196757e-06
6.00763764363e-07
4.18758894505e-07
2.19611292705e-07
1.73118220748e-07
3.62717461751e-07
1.22607758306e-06
7.17539765506e-06
3.81361860251e-06
2.01030298127e-07
4.00207929423e-07

