# vtk DataFile Version 3.0
File Name: Molecule/sphere_excent/sphere_excent_0-s22.vtk
ASCII
DATASET UNSTRUCTURED_GRID
FIELD FieldData 1
TIME 1 1 double
0.0
POINTS 236 double
-0.027544721961 1.7151470184 1.0261566639
-1.0859771967 1.4722936153 0.80658179522
-0.60285705328 1.1887410879 1.4893807173
-1.6632329226 1.1039133072 0.12325105816
-1.6707023382 0.64622372389 0.88746339083
0.64931225777 -1.1695797443 1.4868019819
0.014456328005 -1.7144072056 1.0297797918
0.83503431082 -1.6695585251 0.71665555239
0.44019445777 -1.2114012241 -1.5254620314
-0.020410334691 -1.7229213715 -1.0152468681
-0.44521296024 -1.0871316195 -1.6172833443
1.5982211828 -0.40996915102 1.1280670166
1.5331715345 0.49610325694 1.1845613718
1.1344772577 0.096977964044 1.6411272287
-0.72361528873 -1.7651902437 -0.59833490849
0.015013034455 -1.9997640848 0.020817998797
-1.0815771818 -1.6779353619 0.060325093567
-0.81058233976 -1.6770125628 0.72846746445
-0.67503625154 -1.2803052664 1.3799105883
-1.9599514008 0.28523290157 0.2668633759
0.82009506226 -1.6741451025 -0.7189900279
1.1139639616 -1.6594926119 0.035526577383
0.0045620999299 1.9988870621 0.055187474936
-0.57417565584 1.8797250986 0.3701890111
-0.5262144804 1.8918099403 -0.37904039025
-1.1002967358 1.6697884798 0.031787130982
-1.1872014999 1.4679135084 -0.65921998024
-0.026386668906 1.7409368753 -0.98381465673
0.22731468081 1.9167846441 -0.52102005482
0.57996475697 1.9090147018 -0.13674943149
0.54264646769 1.8805395365 0.40867528319
1.0233389139 1.7097377777 0.1652944684
0.90838640928 1.5650424957 0.85112756491
1.1784476042 0.97424226999 -1.28888309
0.87322151661 1.2674382925 -1.2770258188
1.3155920506 1.2182221413 -0.87694758177
1.6381634474 -0.70602756739 -0.90136474371
1.7541956902 -0.18056058884 -0.94269061089
1.9035955667 -0.40680533648 -0.45908427238
1.945287466 0.1945464015 -0.41125267744
1.986385107 -0.19435702264 0.10958236456
1.0266125202 -0.075412072241 -1.7142709494
0.80032926798 -0.55593985319 -1.7456367016
0.53578460217 -0.057160168886 -1.9255700111
0.2304404825 -0.60533297062 -1.8917018175
-0.017674541101 0.032919533551 -1.9996410608
0.92651087046 0.92804807425 -1.5094680786
1.1013811827 0.68473172188 -1.522130847
1.3626741171 -0.41575950384 -1.4034347534
1.5123971701 -0.12542997301 -1.3011409044
1.5109652281 -0.54734998941 -1.1891304255
-0.43465948105 0.61825710535 1.8511446714
-0.84423351288 0.47605019808 1.7479957342
-0.35509884357 0.19006532431 1.9574714899
-1.2090739012 -0.12351995707 1.5868649483
-0.97816485167 -0.64330214262 1.6208406687
-0.71072101593 -0.014476682059 1.8675191402
-0.41022178531 -0.51965141296 1.8866784573
-1.1114932299 0.020862260833 -1.6607831717
-1.3777015209 -0.31587699056 -1.4148222208
-1.3731331825 0.39485579729 -1.3994531631
-1.6477527618 0.056743346155 -1.1301387548
-1.509214282 0.84392428398 -1.0033271313
-1.7409133911 0.49173858762 -0.84899550676
-0.9930844903 1.1604589224 -1.2909343243
-0.86286193132 0.61781024933 -1.6944745779
-1.2780495882 -1.149799943 1.0217068195
-1.5940718651 -0.50070869923 1.0990184546
-0.35686907172 -0.45225396752 -1.9149868488
-0.50449341536 0.037957478315 -1.9345949888
-0.89947897196 -0.59944653511 -1.6815179586
-0.29379674792 0.54749405384 -1.9006178379
0.33833128214 0.4660398066 -1.9143736362
-0.51609963179 0.9952788949 -1.6559624672
0.17243441939 1.0134460926 -1.715266943
-1.3213982582 -0.82952421904 -1.2497270107
1.8642017841 0.32400283217 0.64229851961
1.7113775015 0.80553036928 0.64678525925
1.3570717573 1.3944761753 0.45775571465
1.3537327051 1.1138697863 0.96263021231
0.8645414114 1.0237445831 1.4791952372
-0.26410204172 1.4163063765 -1.3869646788
-0.61805081367 1.6361643076 -0.9695546627
0.39636796713 1.4932643175 -1.2685258389
1.9567213058 0.38824373484 0.10894012451
0.015238089487 0.89601433277 1.7871748209
-0.02333173342 0.37169256806 1.9646649361
0.45079648495 0.47248512506 1.8891710043
0.26059222221 -0.01838119328 1.9826036692
-1.652153492 -1.1103726625 0.1907055527
-1.3849802017 -1.370770812 0.45023542643
-1.6489372253 -0.95885360241 0.60082930326
1.682472229 -0.96876507998 -0.4801684916
1.398637414 -1.175383091 -0.80961591005
1.3589030504 -1.4081119299 -0.41140431166
1.7940129042 -0.87914282084 -0.0198259186
-1.5244065523 -1.2939014435 -0.010354299098
1.3031870127 -1.124557972 1.0163207054
1.0222407579 -0.57914197445 1.6182881594
1.7102332115 -0.84451603889 0.59414327145
1.4363133907 -1.3238601685 0.42896673083
-1.6915136576 -0.92326104641 -0.52924603224
-1.7036358118 -1.0348265171 -0.16206344962
-1.8374840021 -0.75114315748 -0.24329355359
-1.8143266439 -0.82770520449 0.15236464143
-1.9251903296 -0.53842139244 0.060602083802
1.5519481897 -1.2600675821 -0.058573011309
1.7710498571 -0.88081949949 0.28360176086
-1.8546565771 -0.55031877756 0.50686132908
-0.033618520945 -1.2331858873 1.5739681721
0.47423020005 -0.52558201551 1.8704504967
0.67790931463 -0.091447591782 1.8792412281
-0.42776441574 -0.92685467005 1.7198207378
-0.0095142498612 -0.35567191243 1.9678170681
0.075267538428 -0.81596839428 1.8244105577
-1.6774711609 0.96356070042 -0.50732588768
-1.8737900257 -0.089072749019 0.6897456646
-1.5345952511 0.17632043362 1.2693526745
0.75254118443 1.7762553692 -0.52754211426
1.0715218782 1.6671249866 -0.26822409034
0.5088223815 1.733730197 -0.85626024008
0.88630890846 1.5298193693 -0.93448472023
1.0993278027 1.5554345846 -0.60966110229
0.61682355404 1.0317622423 -1.5971239805
-1.9718477726 -0.22733461857 0.24284413457
-1.9210498333 -0.49394005537 -0.25612875819
-1.855486989 -0.5158597827 -0.53863894939
-1.855353713 0.67881000042 -0.3092969656
-1.9984958172 -0.062586285174 -0.023612080142
-1.97382617 -0.30690532923 -0.097720816731
-1.9793280363 -0.11439996213 -0.26267293096
-1.9352604151 -0.31610420346 -0.39276334643
-1.9558591843 0.037690542638 -0.41454279423
-1.9845833778 0.14398056269 -0.19884462655
-0.72564017773 -1.4800043106 -1.1325554848
-1.0715790987 -1.4758789539 -0.82082533836
-0.95808446407 -1.1039839983 -1.3634853363
-1.1794862747 -1.202180624 -1.0783544779
-1.4778006077 -0.96495074034 -0.94022631645
-1.5234720707 -1.101302743 -0.68284767866
-1.6582937241 -0.80346441269 -0.77588540316
-1.3387602568 -1.2287433147 -0.83533835411
-1.3518143892 -1.3478486538 -0.59637445211
-1.5579965115 -1.1838830709 -0.41324025393
-1.3891713619 -1.3998363018 -0.33066901565
-1.1356477737 -1.5629884005 -0.51278275251
-1.4556251764 -1.3591444492 -0.17860026658
-1.1805372238 0.97671949863 1.2848800421
1.3762313128 1.386284709 -0.42504066229
1.3741905689 1.4527546167 -0.039556667209
1.6730773449 1.0609414577 -0.26407164335
1.5253324509 1.0179809332 -0.79015523195
-1.1122306585 0.25135809183 1.6427782774
-1.2814321518 0.56530064344 1.4274953604
-0.87145096064 0.8230882287 1.6011509895
-1.6056572199 -0.64424353838 -1.001891017
-1.9530928135 0.41376829147 -0.10593681782
-1.9367951155 0.31608080864 -0.38584116101
-1.8535596132 0.52091437578 -0.54023933411
-1.8666516542 0.26671585441 -0.66565942764
0.83572721481 0.72190779448 -1.6672809124
0.77392041683 0.50047451258 -1.7744373083
1.0022968054 0.50433337688 -1.6555707455
0.93925344944 0.2817016542 -1.7431428432
1.1227322817 0.30702394247 -1.6262396574
1.2532347441 0.46660140157 -1.4870589972
1.2810944319 0.18808820844 -1.5242618322
1.402158618 0.33609735966 -1.3859950304
1.2982633114 0.6867198348 -1.3574262857
1.4384878874 0.5256627202 -1.286195159
1.4319460392 0.79035651684 -1.1494560242
1.5454936028 0.33308678865 -1.2249314785
1.5926725864 0.51465749741 -1.0936990976
1.7035012245 0.28873378038 -1.0070506334
1.6066192389 0.1093237102 -1.185454011
1.4521756172 0.13465437293 -1.3681993484
1.3135159016 -0.080385684967 -1.5055034161
0.69818633795 0.23678734899 -1.8590247631
1.1232583523 -0.47632697225 -1.5840338469
0.56029969454 0.74449247122 -1.7694687843
1.8557721376 0.6730388999 0.31971719861
1.8562637568 0.73473131657 -0.10572463274
1.7450227737 0.95821857452 0.18912295997
1.5772936344 1.2205281258 0.15086975694
1.5874432325 1.1140605211 0.48850342631
1.6795904636 0.77757996321 -0.75599735975
1.8415088654 0.54964083433 -0.54920470715
-0.077932104468 0.0018580574542 1.9984500408
-0.32358333468 -0.15129865706 1.967741847
0.43873521686 1.4148538113 1.343108058
0.41478052735 1.0278189182 1.6653779745
0.02561981976 1.3355573416 1.4884207249
1.8323036432 0.29037329555 -0.74687576294
1.7335011959 0.50580173731 -0.85957336426
-1.6636710167 -0.30063462257 -1.0680403709
-0.71805626154 -0.24562759697 -1.8503797054
-0.83385545015 0.026822684333 -1.8176935911
-0.98468852043 -0.24411408603 -1.7230762243
-0.71279883385 0.30303397775 -1.843604207
-0.97787988186 0.28326389194 -1.7210794687
-1.8417685032 -0.19305038452 -0.75526612997
-1.7693716288 -0.39767625928 -0.8430082202
-1.8862786293 -0.28875431418 -0.59860962629
-1.7684165239 -0.11427117139 -0.92724591494
-1.7974305153 0.12289774418 -0.86787772179
-1.8609108925 0.003567490261 -0.73259943724
-1.9046896696 -0.084963947535 -0.60394442081
-1.9421949387 -0.14548954368 -0.45457080007
-1.9136186838 0.10783371329 -0.5711915493
1.2595057487 -0.71487337351 -1.3793079853
1.0131318569 -0.78490376472 -1.5352921486
1.1132181883 -1.0186355114 -1.3126888275
1.3965263367 -0.86026549339 -1.144117713
0.80856907368 -1.1436439753 -1.4278597832
1.9533605576 0.026819430292 0.42833903432
1.8657234907 -0.32695436478 0.64124470949
1.7989580631 -0.048215582967 0.87105256319
-1.7460410595 -0.60866439342 -0.7623051405
-1.776049614 -0.72010880709 -0.57178366184
1.0175842047 0.57210254669 1.6231079102
0.65636730194 -1.4883867502 -1.1630728245
1.9217193127 -0.54859215021 0.06499055028
0.99236607552 -1.3715096712 -1.06409657
1.5576765537 0.80875569582 -0.95778304338
1.4158318043 0.98891556263 -1.0087317228
0.68314617872 0.74627304077 1.7249410152
0.81263536215 0.30922353268 1.8010342121
1.1367752552 -1.4398494959 -0.79583108425
1.2503733635 -1.1324597597 -1.0737162828
-1.3258932829 -1.4968755245 0.026248615235
-1.2657176256 -1.5418049097 -0.14487671852
1.890656352 -0.54662424326 0.35553112626
-1.2668579817 -1.4973939657 -0.39109730721
-1.1385056973 -1.6263926029 -0.2379000783
1.528627634 0.66070538759 -1.1076446772
1.6339007616 0.66070139408 -0.94551467896

CELLS 468 1872
3 0 1 2
3 1 3 4
3 5 6 7
3 8 9 10
3 11 12 13
3 14 15 16
3 14 9 15
3 17 15 6
3 17 6 18
3 4 3 19
3 9 20 15
3 7 15 21
3 15 7 6
3 22 23 0
3 0 23 1
3 22 24 23
3 24 25 23
3 24 26 25
3 23 25 1
3 27 24 28
3 1 25 3
3 25 26 3
3 29 30 31
3 29 22 30
3 31 30 32
3 32 30 0
3 30 22 0
3 33 34 35
3 36 37 38
3 37 39 38
3 38 39 40
3 41 42 43
3 42 44 43
3 42 8 44
3 43 44 45
3 10 44 8
3 33 46 34
3 46 33 47
3 48 49 50
3 51 52 53
3 54 55 56
3 55 57 56
3 58 59 60
3 59 61 60
3 62 60 63
3 60 64 65
3 18 55 66
3 67 55 54
3 45 68 69
3 68 10 70
3 45 71 72
3 71 73 74
3 45 69 71
3 71 65 73
3 10 68 44
3 44 68 45
3 73 65 64
3 59 70 75
3 76 77 12
3 78 32 79
3 77 79 12
3 12 79 80
3 80 79 32
3 27 81 82
3 81 64 82
3 81 73 64
3 82 64 26
3 26 64 62
3 62 64 60
3 73 81 74
3 74 81 83
3 27 82 24
3 24 82 26
3 32 78 31
3 39 84 40
3 51 85 2
3 51 86 85
3 86 87 85
3 86 88 87
3 89 90 91
3 90 66 91
3 90 17 66
3 91 66 67
3 67 66 55
3 18 66 17
3 36 92 93
3 92 94 93
3 95 92 38
3 38 92 36
3 89 96 90
3 90 16 17
3 17 16 15
3 7 97 5
3 5 97 98
3 11 97 99
3 97 100 99
3 97 7 100
3 101 102 103
3 102 104 103
3 102 89 104
3 103 104 105
3 94 21 20
3 20 21 15
3 94 106 21
3 106 100 21
3 100 106 107
3 21 100 7
3 95 106 92
3 92 106 94
3 105 104 108
3 91 104 89
3 89 102 96
3 5 109 6
3 6 109 18
3 88 110 111
3 110 98 111
3 110 5 98
3 111 98 13
3 13 98 11
3 11 98 97
3 18 112 55
3 55 112 57
3 88 113 110
3 113 114 110
3 113 57 114
3 110 114 5
3 5 114 109
3 114 112 109
3 114 57 112
3 109 112 18
3 88 111 87
3 62 115 26
3 26 115 3
3 19 116 4
3 4 116 117
3 118 29 119
3 29 28 22
3 22 28 24
3 27 28 120
3 28 118 120
3 28 29 118
3 120 118 121
3 34 121 35
3 35 121 122
3 122 121 118
3 121 83 120
3 121 34 83
3 120 83 27
3 27 83 81
3 74 83 123
3 19 124 116
3 124 108 116
3 124 105 108
3 116 108 67
3 67 108 91
3 91 108 104
3 105 125 103
3 103 125 126
3 61 63 60
3 62 63 115
3 115 127 3
3 19 128 124
3 128 129 124
3 128 130 129
3 124 129 105
3 105 129 125
3 129 131 125
3 129 130 131
3 125 131 126
3 132 130 133
3 14 134 9
3 9 134 10
3 14 135 134
3 136 134 137
3 134 136 10
3 10 136 70
3 138 139 140
3 141 142 139
3 142 143 139
3 142 144 143
3 139 143 101
3 141 135 142
3 135 145 142
3 135 14 145
3 101 143 102
3 96 102 146
3 4 147 1
3 1 147 2
3 54 117 67
3 67 117 116
3 122 119 148
3 119 149 148
3 119 31 149
3 148 149 150
3 122 148 35
3 35 148 151
3 54 152 117
3 152 153 117
3 152 52 153
3 117 153 4
3 4 153 147
3 153 154 147
3 153 52 154
3 147 154 2
3 2 154 51
3 154 52 51
3 52 152 56
3 152 54 56
3 136 75 70
3 59 75 155
3 78 149 31
3 127 156 3
3 3 156 19
3 19 156 133
3 156 157 133
3 156 127 157
3 133 157 132
3 31 119 29
3 118 119 122
3 63 158 115
3 158 127 115
3 63 159 158
3 159 157 158
3 158 157 127
3 19 133 128
3 128 133 130
3 141 137 135
3 135 137 134
3 136 137 75
3 137 138 75
3 137 141 138
3 75 138 155
3 139 138 141
3 46 47 160
3 161 162 163
3 162 164 163
3 164 162 165
3 163 164 41
3 41 164 166
3 164 165 166
3 47 165 162
3 166 165 167
3 47 168 165
3 168 169 165
3 168 170 169
3 165 169 167
3 170 168 33
3 33 168 47
3 167 169 171
3 169 172 171
3 171 172 173
3 173 174 171
3 174 175 171
3 174 49 175
3 171 175 167
3 49 174 37
3 37 174 173
3 167 175 166
3 175 176 166
3 175 49 176
3 166 176 41
3 163 41 177
3 41 176 178
3 176 49 48
3 74 72 71
3 45 72 43
3 46 123 34
3 34 123 83
3 74 123 179
3 123 160 179
3 123 46 160
3 179 160 161
3 74 179 72
3 177 72 161
3 179 161 72
3 72 177 43
3 84 180 76
3 180 77 76
3 84 181 180
3 181 182 180
3 181 150 182
3 180 182 77
3 150 183 182
3 183 184 182
3 183 78 184
3 182 184 77
3 77 184 79
3 79 184 78
3 185 150 186
3 181 84 39
3 86 187 88
3 88 187 113
3 56 53 52
3 53 86 51
3 113 188 57
3 57 188 56
3 56 188 53
3 188 187 53
3 188 113 187
3 53 187 86
3 78 183 149
3 149 183 150
3 161 160 162
3 162 160 47
3 43 177 41
3 163 177 161
3 80 189 190
3 189 191 190
3 189 0 191
3 190 191 85
3 0 189 32
3 32 189 80
3 39 186 181
3 181 186 150
3 173 192 37
3 37 192 39
3 173 193 192
3 193 186 192
3 193 185 186
3 192 186 39
3 155 194 59
3 59 194 61
3 70 195 68
3 68 195 69
3 69 195 196
3 195 197 196
3 195 70 197
3 196 197 58
3 69 198 71
3 198 65 71
3 69 196 198
3 196 199 198
3 196 58 199
3 198 199 65
3 65 199 60
3 60 199 58
3 58 197 59
3 197 70 59
3 85 191 2
3 2 191 0
3 87 190 85
3 200 201 202
3 155 201 194
3 201 203 194
3 201 200 203
3 194 203 61
3 61 203 204
3 203 205 204
3 203 200 205
3 204 205 159
3 132 206 207
3 206 202 207
3 206 200 202
3 207 202 131
3 131 202 126
3 126 202 201
3 132 207 130
3 207 131 130
3 132 208 206
3 208 205 206
3 208 159 205
3 206 205 200
3 61 204 63
3 63 204 159
3 159 208 157
3 208 132 157
3 172 193 173
3 48 178 176
3 41 178 42
3 48 209 178
3 209 210 178
3 209 211 210
3 178 210 42
3 48 50 209
3 50 212 209
3 50 36 212
3 209 212 211
3 8 42 213
3 36 50 37
3 37 50 49
3 40 214 215
3 214 216 215
3 214 76 216
3 215 216 11
3 11 216 12
3 12 216 76
3 76 214 84
3 84 214 40
3 155 140 217
3 140 218 217
3 140 101 218
3 217 218 126
3 93 212 36
3 99 215 11
3 126 218 103
3 103 218 101
3 101 140 139
3 138 140 155
3 155 217 201
3 201 217 126
3 80 219 12
3 12 219 13
3 8 220 9
3 220 20 9
3 185 151 150
3 150 151 148
3 40 221 38
3 38 221 95
3 8 213 220
3 213 222 220
3 213 211 222
3 220 222 20
3 185 223 151
3 223 224 151
3 223 170 224
3 151 224 35
3 35 224 33
3 33 224 170
3 80 225 219
3 225 226 219
3 225 87 226
3 219 226 13
3 20 227 94
3 94 227 93
3 211 228 222
3 228 227 222
3 228 93 227
3 222 227 20
3 96 229 90
3 229 16 90
3 96 146 229
3 146 230 229
3 146 144 230
3 229 230 16
3 95 107 106
3 100 107 99
3 40 231 221
3 231 107 221
3 231 99 107
3 221 107 95
3 144 146 143
3 143 146 102
3 13 226 111
3 111 226 87
3 145 232 142
3 142 232 144
3 144 232 230
3 232 233 230
3 232 145 233
3 230 233 16
3 16 233 14
3 233 145 14
3 170 234 169
3 169 234 172
3 185 235 223
3 235 234 223
3 235 172 234
3 223 234 170
3 87 225 190
3 190 225 80
3 172 235 193
3 193 235 185
3 211 213 210
3 210 213 42
3 93 228 212
3 212 228 211
3 99 231 215
3 215 231 40

CELL_TYPES 468
5
5
5
5
5
5
5
5
5
5
5
5
5
5
5
5
5
5
5
5
5
5
5
5
5
5
5
5
5
5
5
5
5
5
5
5
5
5
5
5
5
5
5
5
5
5
5
5
5
5
5
5
5
5
5
5
5
5
5
5
5
5
5
5
5
5
5
5
5
5
5
5
5
5
5
5
5
5
5
5
5
5
5
5
5
5
5
5
5
5
5
5
5
5
5
5
5
5
5
5
5
5
5
5
5
5
5
5
5
5
5
5
5
5
5
5
5
5
5
5
5
5
5
5
5
5
5
5
5
5
5
5
5
5
5
5
5
5
5
5
5
5
5
5
5
5
5
5
5
5
5
5
5
5
5
5
5
5
5
5
5
5
5
5
5
5
5
5
5
5
5
5
5
5
5
5
5
5
5
5
5
5
5
5
5
5
5
5
5
5
5
5
5
5
5
5
5
5
5
5
5
5
5
5
5
5
5
5
5
5
5
5
5
5
5
5
5
5
5
5
5
5
5
5
5
5
5
5
5
5
5
5
5
5
5
5
5
5
5
5
5
5
5
5
5
5
5
5
5
5
5
5
5
5
5
5
5
5
5
5
5
5
5
5
5
5
5
5
5
5
5
5
5
5
5
5
5
5
5
5
5
5
5
5
5
5
5
5
5
5
5
5
5
5
5
5
5
5
5
5
5
5
5
5
5
5
5
5
5
5
5
5
5
5
5
5
5
5
5
5
5
5
5
5
5
5
5
5
5
5
5
5
5
5
5
5
5
5
5
5
5
5
5
5
5
5
5
5
5
5
5
5
5
5
5
5
5
5
5
5
5
5
5
5
5
5
5
5
5
5
5
5
5
5
5
5
5
5
5
5
5
5
5
5
5
5
5
5
5
5
5
5
5
5
5
5
5
5
5
5
5
5
5
5
5
5
5
5
5
5
5
5
5
5
5
5
5
5
5
5
5
5
5
5
5
5
5
5
5
5
5
5
5
5
5
5
5
5
5
5
5
5
5
5
5
5
5
5
5
5
5
5
5
5
5
5
5
5
5
5
5
5
5
5
5
5
5
5

CELL_DATA 468
SCALARS cell_data_0 double
LOOKUP_TABLE default
1.437791059e-05
7.56881197547e-06
1.34884345984e-05
5.92271058401e-06
1.48573404139e-05
2.72819544133e-06
2.12007617888e-07
5.86249719328e-06
9.58775022669e-06
4.99804165275e-06
1.08624858277e-06
1.07746401171e-05
5.8087402223e-06
3.76418617565e-06
7.13164343812e-06
2.17621643247e-06
2.58199835883e-06
2.17989579484e-06
3.72409821915e-06
9.21758251066e-06
4.48522598591e-06
2.7975366363e-06
1.70253503276e-06
1.55325181856e-06
2.6618510047e-06
4.78665947841e-06
3.64405651774e-06
3.06032662907e-07
6.11242521153e-05
0.000128125748758
0.000120362999342
3.50337212712e-05
9.12147652472e-05
7.41368192268e-05
6.94785607193e-05
6.51435093302e-05
7.75606759692e-08
2.52405541804e-08
9.11651901524e-06
1.19869218096e-05
1.55454905356e-05
8.12964776849e-06
2.38525069818e-06
5.18627342896e-07
2.61378394522e-07
4.60462026018e-05
1.21154593889e-05
1.25044500479e-05
1.13369754279e-06
3.66331335914e-06
4.03077974771e-06
4.06830590461e-06
3.38137261518e-06
3.7008282657e-06
4.29712077669e-05
3.64601390912e-05
3.54142312412e-05
1.51287887238e-06
1.17636475152e-06
3.14250239409e-06
4.21038855831e-06
9.45865894024e-06
7.16626627389e-06
0.000106363649097
0.000193596025393
7.81131946452e-05
0.000122578016953
4.02586413958e-05
3.55776273219e-05
2.73116474489e-05
3.33457016379e-05
6.65276481506e-05
4.37530752579e-05
2.55079325344e-06
5.03415299587e-05
1.34189626919e-05
1.84598309064e-05
2.17601153529e-05
1.25940930585e-05
1.31192657865e-06
1.42260487814e-06
3.04807011112e-06
3.77683107241e-06
1.1986401029e-05
7.04114557652e-06
6.10531406929e-06
1.11259548298e-05
3.07210990861e-05
3.32524490104e-05
7.72982637139e-07
2.50696863251e-06
5.27827446395e-06
9.81846868033e-06
1.03273550985e-05
5.71375774648e-06
2.99529569657e-06
4.62737276899e-06
4.89979328087e-07
3.29837147758e-07
1.49464732922e-07
3.52640872074e-08
2.84906445455e-05
1.65477729645e-05
5.18985591704e-05
3.45837768565e-05
1.5804529146e-05
6.04803455149e-06
2.33152667819e-05
3.46131926631e-05
4.46183228871e-07
6.79138196589e-07
3.39829044514e-07
5.86640434262e-07
4.06212124011e-06
1.73940445324e-05
8.51264924116e-06
1.22948347158e-05
3.53077818392e-06
1.13830357586e-05
5.77849742867e-06
8.23996573227e-06
6.41884090102e-06
1.88627963498e-05
1.69974685739e-05
1.32338223659e-05
2.00364359319e-05
1.08851580083e-05
9.61769663005e-06
1.09925136448e-05
8.12064093906e-06
2.2340241339e-05
5.54256600626e-07
1.50594265821e-06
4.04808573224e-06
5.71276129709e-06
3.20621542111e-07
3.61879479098e-06
5.06894187783e-06
7.00997813634e-06
3.944249348e-07
1.57001650996e-07
4.43175503728e-07
1.62344715933e-07
1.84980603288e-07
6.93840951631e-07
5.58371130695e-07
4.6670611028e-07
8.29665682086e-06
4.14392405324e-05
1.53975632495e-06
1.74456905889e-06
1.45717564831e-06
7.54444669089e-07
3.30149318374e-06
2.94259981394e-06
8.51771121977e-07
1.66623865244e-07
2.68830370465e-07
3.22897147329e-07
1.79325526225e-07
8.42826614104e-07
6.53098874859e-07
2.90208784077e-07
1.55924714429e-07
4.02546094084e-07
2.47475470431e-07
1.73915614529e-07
1.77845970983e-07
1.06439008541e-07
8.61048085337e-07
2.94330336396e-07
2.47540615669e-06
3.95543552206e-07
3.50893385949e-08
6.62301749378e-07
3.31826147239e-06
6.96920730233e-08
3.95891915159e-08
1.4363735699e-07
1.77954415672e-07
8.56611581401e-08
8.46845850569e-08
1.54911479337e-07
2.48946223992e-07
2.82875470893e-07
1.46224834652e-07
7.15936019861e-06
8.51569004373e-06
7.69197916586e-06
6.12727116988e-06
1.2687273727e-07
1.82213249409e-06
9.21552057637e-07
1.68047525771e-06
1.14668127738e-07
1.64815089903e-07
6.38122660053e-06
4.57886722689e-06
5.08924843195e-06
5.12979615371e-06
5.15429086734e-06
4.48525285214e-06
6.27828529337e-06
5.33545010431e-06
1.00537001822e-05
7.84733461538e-06
7.16287726363e-06
9.58382503822e-06
1.67347673073e-06
2.291397907e-07
1.32278461961e-07
4.56207597337e-06
5.33598269557e-06
6.23646484296e-06
8.56113943402e-06
7.21931092361e-06
3.48913192793e-06
1.169130914e-06
3.64124293586e-07
6.67122409442e-08
1.09918692906e-07
3.06683525742e-08
1.97182923356e-06
2.06099310675e-06
1.44280075761e-06
9.96641797572e-07
3.93124304519e-08
9.38214203964e-08
1.74329198347e-07
1.75379843395e-07
1.24274988854e-07
1.19709439815e-08
1.80509086209e-08
1.45133193719e-08
4.39311787758e-08
5.79300406495e-09
1.37009712544e-08
4.7898297046e-07
4.90560980317e-07
6.02787945177e-08
2.40499376433e-08
3.11982910248e-08
4.42914318632e-08
7.30623923819e-08
8.02318970998e-08
3.14311140687e-08
1.01110646409e-07
4.87831085972e-08
2.92830713322e-08
7.01192563821e-08
8.62393077371e-08
8.05457067656e-08
6.04215763619e-08
6.94889914287e-08
2.19526283307e-08
5.27356200067e-06
5.29814819089e-06
1.42276029964e-08
3.46799865577e-08
5.25211017989e-08
6.12051931508e-07
6.74943770616e-07
1.11221625793e-06
8.09180628274e-06
3.90746341074e-06
1.53534436086e-05
2.86839041291e-08
3.85966555431e-07
5.92182023257e-07
6.12549121058e-08
1.17477858184e-08
6.0223435189e-08
7.22638902042e-07
6.30484047721e-08
1.12701633792e-07
6.40978516169e-06
8.92788962966e-07
4.1722851275e-07
8.38635935685e-07
7.38349897293e-07
7.93760735437e-07
9.28960125958e-07
7.68396630809e-07
6.22928508915e-07
8.14483248105e-07
9.76912498343e-07
1.73516164195e-06
1.63560665546e-06
2.09495852223e-05
1.81973316989e-05
6.1429452032e-06
6.55824347726e-06
1.05767507747e-05
9.85081285668e-06
6.65236716521e-06
5.45206725415e-06
5.47674437798e-06
4.40098367354e-06
5.47329978642e-06
5.66693522662e-06
1.65841787487e-07
5.93223567439e-07
6.88193066346e-08
7.03197750752e-08
9.72087364673e-06
1.15192250892e-08
6.19545187377e-06
5.18510864959e-06
5.34066579894e-06
7.84156354531e-06
5.66560516384e-06
7.77635844169e-06
5.51414253928e-05
1.83295693797e-05
2.89982742908e-05
8.75405370838e-05
9.73563632512e-06
3.17106184558e-05
1.54529553597e-05
6.74112916786e-05
5.54382475193e-06
5.54390114375e-06
6.98634035905e-06
4.06239891471e-06
2.80900764556e-06
2.39059631672e-06
4.37538788991e-06
1.26284912474e-06
1.20293730626e-06
2.50866145859e-06
1.3811134673e-07
4.87846142041e-08
1.05222015885e-06
4.48581140296e-07
5.44596763665e-07
1.4928536592e-06
1.69408061558e-06
1.00743941925e-06
8.80815726999e-06
9.32845900872e-06
1.45796809829e-05
8.09508346244e-08
2.80433283243e-06
2.00715604598e-06
1.08540926966e-07
2.44540035298e-06
1.56501818077e-07
1.16668916527e-07
9.0756364169e-08
1.23530206975e-07
5.61194229289e-08
5.25143788262e-08
4.13358771896e-08
7.08818328613e-08
1.02933690316e-07
1.12505709601e-07
5.60193067608e-08
7.29865192017e-08
5.87487142792e-08
6.79715161863e-08
9.27172095099e-08
5.93853369566e-08
1.75268748513e-07
1.21653600078e-07
1.27132916756e-06
1.1952005969e-06
9.44506413295e-07
1.01243465618e-05
8.4545677674e-06
8.55860401103e-06
1.56554330996e-07
5.68591667341e-08
4.32393243191e-06
8.53823005108e-06
1.59901178237e-07
1.83384024841e-06
1.93557357961e-08
2.76319538004e-05
1.50911497912e-05
9.33541024455e-06
2.08378495006e-06
1.33272726585e-06
9.94163038128e-08
1.93142802322e-06
5.37402602092e-06
4.78366118489e-08
8.45659944803e-07
3.23502645839e-06
1.13209903426e-07
2.46092775042e-08
2.6166308584e-07
2.78016265282e-07
3.54173480011e-06
3.35971151266e-06
5.83965669373e-07
4.77599988002e-07
9.6416290881e-08
8.60434886583e-08
1.49467218295e-07
5.01112679888e-08
8.98412422349e-06
9.62961139125e-06
5.32815063116e-06
3.13507703762e-06
3.37912473342e-07
4.91603080982e-07
2.5784423023e-05
1.75654104327e-05
1.04119970298e-05
8.20461255998e-06
4.94017836883e-06
7.90822373041e-07
8.63646549073e-08
4.79175441844e-08
3.11905366754e-08
8.91109651829e-08
1.5150757551e-07
9.1833128451e-08
4.6835805218e-06
4.37032721416e-06
5.92628853481e-06
5.922454385e-06
1.68405317481e-05
1.83229627793e-05
5.5863725094e-06
1.46298835381e-05
1.70619846753e-05
4.69878116779e-06
5.94521392431e-07
5.92789917027e-07
2.12775400888e-07
1.51320021567e-07
1.10343008137e-07
1.30726585363e-07
1.2710442353e-05
9.32884252856e-07
3.16620501234e-06
3.69569546931e-07
4.39907077324e-07
5.10093399516e-07
1.56341971733e-07
1.82178910702e-07
1.0153087713e-05
1.37762882938e-05
6.30518580907e-08
7.62161675522e-08
5.42604552399e-08
2.6223369832e-08
4.68589695883e-08
5.09107639754e-08
3.05828792953e-07
2.08631081165e-07
4.79118046983e-08
4.65183603116e-08
5.07652696287e-08
2.98067876307e-08
3.30085170253e-08
2.49146768745e-08
5.87559992881e-06
4.1396606021e-06
6.70409526758e-07
7.90956486225e-07
4.33960105611e-06
1.52530056763e-05
6.65568112593e-06
5.13408535516e-06
1.08256101945e-06
3.34280567471e-06

