# vtk DataFile Version 3.0
File Name: Molecule/sphere_excent/sphere_excent_0-s8.vtk
ASCII
DATASET UNSTRUCTURED_GRID
FIELD FieldData 1
TIME 1 1 double
0.0
POINTS 74 double
-0.00016934923769 1.7025754452 1.049326539
-1.0448383093 1.5290300846 0.75227922201
-0.61345416307 1.0211926699 1.5999945402
-1.6201736927 0.6084549427 1.0020711422
-1.6989740133 1.0549650192 3.1086117815e-05
0.61405694485 0.99450838566 1.622819066
0.041555006057 -0.00049333501374 1.9976526499
1.0512109995 -0.00042871347978 1.7014422417
-0.61707663536 -1.0322636366 1.5942103863
6.5049935074e-06 -1.7013049126 1.0514574051
0.61735725403 -0.9998678565 1.6182521582
1.6155353785 -0.61961483955 1.0027666092
1.0000150204 -1.6178475618 0.61787450314
1.7027509212 -1.0491559505 0.00015999306925
0.5595856905 -1.0876096487 -1.5813355446
-0.001940240385 -1.702762723 -1.0493955612
-0.61774253845 -0.99878257513 -1.6187015772
-0.088812611997 0.050146769732 -1.994789958
-1.0164377689 0.0015523422044 -1.7172042131
1.9968334436 0.0037352826912 0.10996739566
1.6176817417 0.61227613688 1.0043051243
1.7009897232 1.0520197153 -0.0010963836685
1.0437655449 1.5381304026 0.73639506102
-1.6148571968 -0.65030366182 -0.97971117496
-1.7012993097 -1.0514661074 -1.9294725462e-06
-1.9999735355 8.9425520855e-05 -0.00058831309434
-1.616425395 0.64035189152 -0.98057323694
0.0001199147373 1.7017499208 -1.0506597757
-0.62281656265 0.9930126071 -1.6205682755
-1.044103384 1.530154109 -0.75079536438
-0.99967479706 -1.6182723045 -0.61758589745
-0.99984657764 -1.6182506084 0.61736512184
1.4004499462e-05 -1.9997950792 6.8408589868e-05
-1.6175029278 -0.61840319633 1.0001349449
-1.0769766569 -0.00029698727303 1.6813925505
0.99868947268 -1.619011879 -0.6177021265
1.6121665239 -0.70681077242 -0.94660174847
0.48382043839 0.97236412764 -1.6748861074
0.011378657073 1.9996458292 0.00018724954862
-0.54228615761 1.8951977491 0.33804661036
-0.54204529524 1.8954187632 -0.33721446991
-1.0651298761 1.6926420927 0.0002512857609
1.0066108704 1.6080884933 -0.63239920139
1.0573509932 1.6974978447 0.016350004822
0.54722738266 1.8975980282 -0.31620368361
0.55441808701 1.8920203447 0.33587399125
1.6403151751 0.62065148354 -0.95743572712
1.3755398989 1.1623197794 -0.87002688646
1.1668608189 0.90064096451 -1.3506410122
0.84773731232 1.3588422537 -1.1975120306
1.9045761824 -0.32694292068 -0.51582682133
1.7222114801 -0.069611802697 -1.012716651
1.909619689 0.30381381512 -0.51170009375
1.0708931684 0.02336060442 -1.6890134811
0.86984652281 -0.51321446896 -1.7262386084
0.55227065086 0.005996608641 -1.9218838215
0.30641651154 -0.5349522233 -1.9021664858
1.3691134453 -0.37209886312 -1.4096436501
1.1596851349 -0.88144266605 -1.3700717688
1.4207947254 0.7121745944 -1.2137272358
0.8777988553 0.90980494022 -1.5494253635
0.84914016724 0.50598406792 -1.7384624481
1.1519457102 0.49145266414 -1.5587089062
1.406221509 0.33657646179 -1.3815968037
1.6759568453 0.29243451357 -1.051140666
1.4455859661 0.0071264300495 -1.3816506863
-0.86730504036 0.51135629416 1.7279876471
-0.3184812367 0.52547073364 1.9030607939
-0.55121946335 -0.00054529652698 1.922542572
-0.86939013004 -0.5155351162 1.7257028818
-0.32025715709 -0.52930694818 1.9016772509
-1.3845199347 -0.31771287322 -1.4076288939
-1.384937048 0.31295320392 -1.4085047245
-1.703764081 -0.0039260205813 -1.0468815565

CELLS 144 576
3 0 1 2
3 1 3 2
3 1 4 3
3 0 2 5
3 5 6 7
3 8 9 10
3 6 10 7
3 7 10 11
3 10 12 11
3 10 9 12
3 11 12 13
3 14 15 16
3 17 16 18
3 13 19 11
3 19 20 11
3 19 21 20
3 11 20 7
3 21 22 20
3 22 5 20
3 22 0 5
3 20 5 7
3 23 24 25
3 26 25 4
3 27 28 29
3 28 26 29
3 29 26 4
3 24 30 31
3 30 32 31
3 30 15 32
3 31 32 9
3 24 31 33
3 31 8 33
3 31 9 8
3 34 3 33
3 3 25 33
3 3 4 25
3 33 25 24
3 16 30 23
3 16 15 30
3 23 30 24
3 15 35 32
3 35 12 32
3 35 13 12
3 32 12 9
3 36 13 35
3 14 35 15
3 17 28 37
3 17 18 28
3 37 28 27
3 38 39 0
3 0 39 1
3 38 40 39
3 40 41 39
3 40 29 41
3 39 41 1
3 29 40 27
3 27 40 38
3 1 41 4
3 41 29 4
3 42 43 21
3 21 43 22
3 42 44 43
3 44 45 43
3 44 38 45
3 43 45 22
3 38 44 27
3 27 44 42
3 22 45 0
3 45 38 0
3 46 47 21
3 21 47 42
3 48 49 47
3 47 49 42
3 42 49 27
3 49 37 27
3 36 50 13
3 13 50 19
3 36 51 50
3 51 52 50
3 50 52 19
3 19 52 21
3 52 46 21
3 53 54 55
3 54 56 55
3 54 14 56
3 55 56 17
3 17 56 16
3 16 56 14
3 53 57 54
3 57 58 54
3 57 36 58
3 54 58 14
3 14 58 35
3 35 58 36
3 55 17 37
3 36 57 51
3 46 59 47
3 59 48 47
3 48 60 49
3 60 37 49
3 37 60 61
3 60 62 61
3 60 48 62
3 61 62 53
3 53 62 63
3 62 59 63
3 62 48 59
3 63 59 64
3 51 64 52
3 64 46 52
3 46 64 59
3 64 65 63
3 64 51 65
3 63 65 53
3 37 61 55
3 55 61 53
3 53 65 57
3 57 65 51
3 34 66 3
3 3 66 2
3 2 67 5
3 67 6 5
3 2 66 67
3 66 68 67
3 66 34 68
3 67 68 6
3 34 69 68
3 69 70 68
3 69 8 70
3 68 70 6
3 6 70 10
3 10 70 8
3 18 71 72
3 71 73 72
3 71 23 73
3 72 73 26
3 26 73 25
3 25 73 23
3 18 72 28
3 28 72 26
3 8 69 33
3 33 69 34
3 23 71 16
3 16 71 18

CELL_TYPES 144
5
5
5
5
5
5
5
5
5
5
5
5
5
5
5
5
5
5
5
5
5
5
5
5
5
5
5
5
5
5
5
5
5
5
5
5
5
5
5
5
5
5
5
5
5
5
5
5
5
5
5
5
5
5
5
5
5
5
5
5
5
5
5
5
5
5
5
5
5
5
5
5
5
5
5
5
5
5
5
5
5
5
5
5
5
5
5
5
5
5
5
5
5
5
5
5
5
5
5
5
5
5
5
5
5
5
5
5
5
5
5
5
5
5
5
5
5
5
5
5
5
5
5
5
5
5
5
5
5
5
5
5
5
5
5
5
5
5
5
5
5
5
5
5

CELL_DATA 144
SCALARS cell_data_0 double
LOOKUP_TABLE default
1.96036804597e-05
2.19883607352e-05
2.50057314631e-07
3.24829920892e-05
4.41493029276e-05
3.37240247801e-05
4.43164683783e-05
2.83153339432e-05
2.15214495895e-05
2.12299768696e-05
8.86797258245e-06
2.14068310051e-05
0.000249375755742
3.2447060514e-06
1.46320720404e-05
2.49144659552e-05
2.46443161268e-05
9.48379244316e-06
2.14972390977e-05
2.00184051667e-05
3.16404176907e-05
6.26449915139e-05
6.47544033252e-05
6.94190880847e-05
8.00159721449e-05
9.19829661351e-05
3.19470528962e-05
5.57764386875e-06
9.76195756149e-06
3.09193230265e-06
1.9706584662e-05
2.42613465869e-05
1.88430336486e-05
1.24991625722e-05
1.34603505739e-05
2.38917152496e-06
2.40110468399e-05
2.01385799413e-05
1.81174347839e-05
6.13002128439e-05
1.48235401259e-05
5.41947186879e-06
1.08643626752e-06
6.15637401703e-06
1.51233228723e-05
1.33314580858e-05
1.14320800409e-06
0.000211898153262
4.58052590509e-05
4.22479268366e-06
5.92246613099e-06
1.55250781019e-06
1.11665675767e-06
3.97939482318e-06
2.57329173075e-06
4.52142898632e-05
2.17863616894e-05
1.18281537765e-06
1.18773489045e-05
2.10680816562e-05
1.4724247416e-05
4.05188300834e-07
1.17148418775e-06
1.79059968479e-06
2.68478114695e-06
1.82933172532e-05
2.1357722236e-05
6.72481549988e-06
4.23013582239e-06
1.75580588758e-05
1.80307997307e-05
1.89172820478e-07
3.32070760447e-07
2.46288488047e-05
2.90707590718e-05
6.8124212987e-06
2.78658734224e-06
1.29515628989e-06
7.02682690093e-07
1.05643545129e-06
1.89040759341e-05
1.60401484056e-05
1.65991451794e-05
2.65466834714e-07
4.153419425e-08
2.89582171662e-07
5.04792778676e-06
4.25901450185e-06
1.6056075245e-05
2.58060329271e-07
1.19306782385e-06
4.1392592712e-08
7.11528372772e-07
3.36604079737e-06
2.86805771145e-07
1.4850332275e-06
3.18781061864e-07
2.19323320158e-07
1.81113461716e-08
4.8041883793e-09
1.01420415538e-07
1.30926086616e-07
1.17945251145e-07
9.27138693308e-06
9.2364976844e-06
1.19090642305e-07
1.12750207625e-07
1.67685381577e-07
3.21821793526e-07
4.3103501553e-07
1.47418528577e-07
1.22962556781e-07
5.72696351095e-08
8.75881174734e-06
2.75028129874e-07
1.53581203774e-05
1.01786361795e-05
7.01223858541e-08
1.18765814472e-06
1.59627861391e-05
4.80515957519e-05
7.01872524753e-05
8.54669807621e-06
2.09181541116e-06
1.92974440533e-06
2.82349799492e-05
1.88062176131e-06
2.12675698787e-06
8.3111650069e-06
2.83855396631e-05
7.09647889375e-05
4.80601032675e-05
6.14199344057e-05
2.89479991196e-07
2.96784449801e-06
1.48420206374e-05
3.01395141081e-05
5.07776438496e-06
0.000120591046016
2.9768765087e-05
1.82602205448e-05
5.10574157729e-06
1.1274718548e-05
0.000138428758667

