# vtk DataFile Version 3.0
File Name: Molecule/sphere_excent/sphere_excent_0-s20.vtk
ASCII
DATASET UNSTRUCTURED_GRID
FIELD FieldData 1
TIME 1 1 double
0.0
POINTS 204 double
-0.0077288663015 1.6957267523 1.0565830469
-1.0826503038 1.4745022058 0.80688935518
-0.61708885431 1.1722255945 1.4966155291
-1.6683379412 1.0976588726 0.10928484797
-1.6639242172 0.62917608023 0.91044491529
0.65036350489 -1.149074316 1.5021299124
0.013825848699 -1.7122676373 1.0333559513
0.8521130085 -1.6660175323 0.70444655418
0.46405908465 -1.2206163406 -1.5148371458
-0.02003726922 -1.721637249 -1.0174695253
-0.49091157317 -1.080494523 -1.6079001427
1.6290761232 -0.41192123294 1.0817940235
1.536169529 0.49969688058 1.1793754101
1.1134319305 0.10528226197 1.6565223932
0.81999927759 1.0191299915 1.5072053671
-0.75549149513 -1.7485506535 -0.60692667961
0.01051729545 -1.9997045994 0.017798995599
-1.1207205057 -1.6540356874 0.052412267774
-0.82887178659 -1.6704844236 0.72260141373
-0.67232447863 -1.2623482943 1.397385478
-1.9688918591 0.25375458598 0.21792221069
0.8408356905 -1.6602350473 -0.73042333126
1.136959672 -1.6424536705 0.044812016189
0.0058833062649 1.9991550446 0.041350591928
-0.57141238451 1.8808472157 0.36859384179
-0.52859562635 1.890889883 -0.37966954708
-1.0983771086 1.6711217165 0.02652695775
-1.1795465946 1.4712569714 -0.66500747204
-0.012449533679 1.7374814749 -0.99006682634
0.24546773732 1.9083399773 -0.54179149866
0.573607862 1.9092125893 -0.15605941415
0.5501499176 1.8811836243 0.39509892464
1.0330820084 1.7059079409 0.13642023504
0.91861069202 1.5652185678 0.83964043856
1.6769798994 0.76632702351 -0.76619726419
1.362370491 1.1792771816 -0.86782175303
1.676032424 1.0632520914 -0.22490499914
1.1712341309 0.97117108107 -1.2979018688
0.86645025015 1.2762522697 -1.2725945711
1.8019760847 -0.86652910709 0.016525581479
1.9044393301 -0.39454016089 -0.46611884236
1.9834040403 -0.20158480108 0.15473222733
1.6083490849 -0.70852291584 -0.954433918
1.7489453554 -0.17418754101 -0.95440256596
1.9302579165 0.24305279553 -0.44991147518
1.0515995026 -0.06156642735 -1.7002909184
0.85404121876 -0.55449211597 -1.7217372656
0.55129247904 -0.024181120098 -1.9217754602
0.24414429069 -0.59390956163 -1.8936365843
-0.025370853022 0.044500160962 -1.9993290901
1.3617417812 -0.44773599505 -1.395029068
1.129750967 -0.98337203264 -1.3252854347
1.4505132437 0.76975113153 -1.1394343376
0.91493546963 0.90819716454 -1.5282731056
1.1165809631 0.64868795872 -1.5269856453
1.5016258955 -0.070042327046 -1.318140626
-0.85514801741 0.49432843924 1.7385494709
-0.6673938632 0.0003643836244 1.8836724758
-0.43123584986 0.60340005159 1.8573160172
-1.2008810043 -0.097524985671 1.5949321985
-0.97114747763 -0.61814767122 1.6350346804
-0.3925369978 -0.52316218615 1.889210701
-1.0734556913 0.020803455263 -1.6835604906
-1.3744921684 -0.32064151764 -1.4167776108
-1.3735288382 0.3817358017 -1.4027073383
-1.6669825315 0.035304844379 -1.0992747545
-1.5324598551 0.81056159735 -0.99418413639
-1.7605878115 0.48386484385 -0.80989027023
-0.99418056011 1.1625459194 -1.2877954245
-0.86312884092 0.56821531057 -1.7101051807
-1.2894501686 -1.1522980928 1.0035127401
-1.6026034355 -0.50128275156 1.0861712694
-0.35698539019 -0.44444805384 -1.9169738293
-0.55067640543 0.040107954293 -1.9205677509
-0.88138824701 -0.54323297739 -1.7071194649
-0.31427270174 0.54706913233 -1.8969242573
0.3780092001 0.47776249051 -1.9031847715
-0.52931922674 0.99378758669 -1.6525578499
0.22652040422 0.99626618624 -1.7174122334
-1.3384222984 -0.84587490559 -1.2191753387
0.4642136693 0.47159826756 1.8870159388
1.8753528595 0.26249307394 0.64307785034
1.9439737797 0.44198271632 0.10393910855
1.7190500498 0.82027357817 0.60574841499
1.3836355209 1.3713994026 0.4438816309
1.3561035395 1.1147758961 0.95829558372
-0.26896175742 1.4160046577 -1.3861250877
-0.60738396645 1.6413315535 -0.96741688251
0.40519201756 1.5112571716 -1.2425216436
0.042905375361 0.91515475512 1.774871707
-0.039237562567 0.34284800291 1.9687263966
0.24802944064 -0.024683337659 1.9841585159
-1.6289092302 -0.64033585787 -0.96763134003
-1.7011370659 -0.88298499584 -0.57085669041
-1.8413639069 -0.54062658548 -0.56244248152
-1.6591633558 -1.1030809879 0.17134948075
-1.3992351294 -1.3613775969 0.43406629562
-1.657605052 -0.95586842299 0.58095765114
1.6850850582 -0.96269333363 -0.48333394527
1.3815889359 -1.1916772127 -0.81897574663
1.3680226803 -1.401837945 -0.40199309587
-1.5087895393 -1.3120979071 -0.026804262772
-1.3878998756 -1.4031270742 -0.32164925337
1.3110851049 -1.1350363493 0.9932924509
1.00235641 -0.56954133511 1.6332486868
1.722702384 -0.84681975842 0.56018257141
1.4418050051 -1.3227409124 0.41349247098
-1.8378692865 -0.74916189909 -0.24649068713
-1.707478404 -1.0261346102 -0.17825688422
-1.8157476187 -0.82700669765 0.13493478298
-1.9241874218 -0.54244500399 0.055397979915
1.5521326065 -1.2592272758 -0.069071151316
-1.8548005819 -0.55745345354 0.4986179769
-1.5625263453 -1.1762728691 -0.41768836975
-0.029323183 -1.2143594027 1.5884562731
0.46075835824 -0.51968872547 1.8754674196
0.66033476591 -0.0886342749 1.8856317997
-0.4261739552 -0.91549700499 1.7263290882
-0.02997164987 -0.33264526725 1.9710419178
0.083611384034 -0.80888265371 1.8271759748
-1.6873185635 0.953078866 -0.4941264689
-1.8845989704 -0.1143797785 0.65275865793
-1.5141798258 0.20074625313 1.2887870073
0.75762718916 1.7769114971 -0.51785582304
1.0777487755 1.6615507603 -0.27668631077
0.53487467766 1.7304513454 -0.84663081169
0.89764755964 1.5250426531 -0.9319562912
1.0903127193 1.5632206202 -0.60530841351
0.61699801683 0.99189472198 -1.6207996607
-1.97476089 -0.23501420021 0.2077447027
-1.9202445745 -0.49357587099 -0.2625195086
-1.8629529476 0.65739202499 -0.30906832218
-1.9979182482 -0.066743709147 -0.047703407705
-1.9729075432 -0.31055304408 -0.1045223698
-1.9781323671 -0.11856681854 -0.26973125339
-1.9319682121 -0.30390313268 -0.41548025608
-1.9483057261 0.029440978542 -0.44530105591
-1.9836916924 0.13614186645 -0.21331390738
-0.74172085524 -1.4724215269 -1.132363081
-1.0822874308 -1.4705957174 -0.81606638432
-0.97683352232 -1.1206798553 -1.3351196051
-1.1878672838 -1.2041919231 -1.0669150352
-1.5156196356 -1.1119498014 -0.68271660805
-1.4885880947 -0.96473658085 -0.92372709513
-1.3417057991 -1.2248548269 -0.83624386787
-1.3552097082 -1.3419127464 -0.60185807943
-1.1532111168 -1.5574704409 -0.49344584346
-1.1825541258 0.95899528265 1.2960447073
1.3769961596 1.3922123909 -0.40670356154
1.3830355406 1.4441103935 -0.043399602175
-1.0987467766 0.26133930683 1.6503124237
-1.2815206051 0.56388121843 1.4281123877
-0.85790336132 0.82415926456 1.6079621315
-1.9561976194 0.3956592977 -0.11909690499
-1.9366770983 0.31564670801 -0.38654711843
-1.8594573736 0.51257795095 -0.52728354931
-1.8705869913 0.23136562109 -0.66547709703
0.83855646849 0.70790225267 -1.6719061136
0.79864853621 0.49281826615 -1.7646028996
0.99979352951 0.50480014086 -1.6570483446
0.95209997892 0.27215269208 -1.7377784252
1.1271054745 0.31379026175 -1.6218990088
1.2676814795 0.4568041563 -1.4775509834
1.2752962112 0.19455960393 -1.5284669399
1.4032855034 0.3374325633 -1.3845285177
1.3041695356 0.67016911507 -1.360004425
1.4378961325 0.51818341017 -1.2899054289
1.5428016186 0.33445960283 -1.2279508114
1.5800172091 0.5265827775 -1.1069674492
1.7063999176 0.29754945636 -0.99889224768
1.6032645702 0.12841659784 -1.1882269382
1.4482852221 0.15055300295 -1.3710530996
1.3166002035 -0.025729158893 -1.5051043034
0.70068520308 0.2504915297 -1.856263876
0.57095563412 0.73448812962 -1.7704350948
1.8512946367 0.68625670671 0.31814190745
1.8464925289 0.75815361738 -0.081386849284
1.7402921915 0.96631336212 0.19231912494
1.5803658962 1.2172402143 0.14599870145
1.5914888382 1.1112171412 0.48195141554
1.83101511 0.5252648592 -0.59616947174
-0.07934127003 -3.8087542634e-05 1.998490572
-0.32964649796 0.15843699872 1.9662886858
-0.32230523229 -0.14906050265 1.968367815
0.42294728756 1.4151427746 1.3476506472
0.42578464746 1.0140441656 1.671115756
0.0312381275 1.3456630707 1.4792125225
1.8311691284 0.29567685723 -0.74804449081
1.7219821215 0.51095271111 -0.87925559282
-1.6751015186 -0.30477115512 -1.0483007431
-0.73094677925 -0.23682112992 -1.8464796543
-0.82860189676 0.029796836898 -1.8200370073
-0.9734057188 -0.24097548425 -1.7300800085
-0.72742295265 0.29429978132 -1.8392996788
-0.96951931715 0.27858123183 -1.7267234325
-1.8401492834 -0.20408254862 -0.75566637516
-1.7599675655 -0.41624522209 -0.85210651159
-1.8878983259 -0.27432584763 -0.59868460894
-1.7720301151 -0.10788467526 -0.92114114761
-1.7986851931 0.1110356003 -0.86754858494
-1.8643289804 -0.0016316156834 -0.72343105078
-1.9032869339 -0.090548925102 -0.60712510347
-1.9418665171 -0.13643310964 -0.45868492126
-1.9130631685 0.1082380712 -0.57333654165

CELLS 404 1616
3 0 1 2
3 1 3 4
3 5 6 7
3 8 9 10
3 11 12 13
3 12 14 13
3 15 16 17
3 15 9 16
3 18 16 6
3 18 6 19
3 4 3 20
3 9 21 16
3 7 16 22
3 16 7 6
3 8 21 9
3 23 24 0
3 0 24 1
3 23 25 24
3 25 26 24
3 25 27 26
3 24 26 1
3 28 25 29
3 1 26 3
3 26 27 3
3 30 31 32
3 30 23 31
3 32 31 33
3 33 31 0
3 31 23 0
3 34 35 36
3 37 38 35
3 39 40 41
3 42 43 40
3 43 44 40
3 40 44 41
3 45 46 47
3 46 48 47
3 46 8 48
3 47 48 49
3 10 48 8
3 45 50 46
3 50 51 46
3 50 42 51
3 46 51 8
3 8 51 21
3 42 50 43
3 34 52 35
3 52 37 35
3 37 53 38
3 53 37 54
3 50 55 43
3 56 57 58
3 59 60 57
3 60 61 57
3 62 63 64
3 63 65 64
3 66 64 67
3 64 68 69
3 19 60 70
3 71 60 59
3 49 72 73
3 72 10 74
3 49 75 76
3 75 77 78
3 49 73 75
3 75 69 77
3 10 72 48
3 48 72 49
3 77 69 68
3 63 74 79
3 14 80 13
3 41 81 11
3 81 12 11
3 41 82 81
3 81 83 12
3 84 33 85
3 83 85 12
3 12 85 14
3 14 85 33
3 28 86 87
3 86 68 87
3 86 77 68
3 87 68 27
3 27 68 66
3 66 68 64
3 77 86 78
3 78 86 88
3 28 87 25
3 25 87 27
3 33 84 32
3 44 82 41
3 58 89 2
3 58 90 89
3 90 80 89
3 90 91 80
3 92 93 94
3 95 96 97
3 96 70 97
3 96 18 70
3 97 70 71
3 71 70 60
3 19 70 18
3 42 98 99
3 98 100 99
3 99 100 21
3 39 98 40
3 40 98 42
3 42 99 51
3 51 99 21
3 95 101 96
3 101 17 96
3 101 102 17
3 96 17 18
3 18 17 16
3 7 103 5
3 5 103 104
3 11 103 105
3 103 106 105
3 103 7 106
3 105 106 39
3 11 105 41
3 41 105 39
3 93 107 94
3 93 108 107
3 108 109 107
3 108 95 109
3 107 109 110
3 100 22 21
3 21 22 16
3 100 111 22
3 111 106 22
3 111 39 106
3 22 106 7
3 39 111 98
3 98 111 100
3 110 109 112
3 97 109 95
3 95 108 101
3 102 101 113
3 5 114 6
3 6 114 19
3 91 115 116
3 115 104 116
3 115 5 104
3 116 104 13
3 13 104 11
3 11 104 103
3 19 117 60
3 60 117 61
3 91 118 115
3 118 119 115
3 118 61 119
3 115 119 5
3 5 119 114
3 119 117 114
3 119 61 117
3 114 117 19
3 91 116 80
3 80 116 13
3 66 120 27
3 27 120 3
3 20 121 4
3 4 121 122
3 123 30 124
3 30 29 23
3 23 29 25
3 28 29 125
3 29 123 125
3 29 30 123
3 125 123 126
3 38 126 35
3 35 126 127
3 127 126 123
3 126 88 125
3 126 38 88
3 125 88 28
3 28 88 86
3 78 88 128
3 20 129 121
3 129 112 121
3 129 110 112
3 121 112 71
3 71 112 97
3 97 112 109
3 110 130 107
3 107 130 94
3 65 67 64
3 66 67 120
3 120 131 3
3 20 132 129
3 132 133 129
3 132 134 133
3 129 133 110
3 110 133 130
3 133 135 130
3 133 134 135
3 130 135 94
3 136 134 137
3 15 138 9
3 9 138 10
3 15 139 138
3 140 138 141
3 138 140 10
3 10 140 74
3 142 93 143
3 144 145 142
3 145 113 142
3 145 102 113
3 142 113 93
3 144 139 145
3 139 146 145
3 139 15 146
3 145 146 102
3 102 146 17
3 17 146 15
3 93 113 108
3 108 113 101
3 4 147 1
3 1 147 2
3 59 122 71
3 71 122 121
3 127 124 148
3 124 149 148
3 124 32 149
3 148 149 36
3 127 148 35
3 35 148 36
3 59 150 122
3 150 151 122
3 150 56 151
3 122 151 4
3 4 151 147
3 151 152 147
3 151 56 152
3 147 152 2
3 2 152 58
3 152 56 58
3 56 150 57
3 150 59 57
3 140 79 74
3 63 79 92
3 84 149 32
3 131 153 3
3 3 153 20
3 20 153 137
3 153 154 137
3 153 131 154
3 137 154 136
3 32 124 30
3 123 124 127
3 67 155 120
3 155 131 120
3 67 156 155
3 156 154 155
3 155 154 131
3 20 137 132
3 132 137 134
3 144 141 139
3 139 141 138
3 140 141 79
3 141 143 79
3 141 144 143
3 79 143 92
3 92 143 93
3 142 143 144
3 53 54 157
3 158 159 160
3 159 161 160
3 161 159 162
3 160 161 45
3 45 161 163
3 161 162 163
3 54 162 159
3 163 162 164
3 54 165 162
3 165 166 162
3 165 52 166
3 162 166 164
3 52 165 37
3 37 165 54
3 164 166 167
3 166 168 167
3 166 52 168
3 167 168 169
3 34 168 52
3 169 170 167
3 170 171 167
3 170 55 171
3 167 171 164
3 55 170 43
3 43 170 169
3 164 171 163
3 171 172 163
3 171 55 172
3 163 172 45
3 160 45 173
3 45 172 50
3 172 55 50
3 78 76 75
3 49 76 47
3 53 128 38
3 38 128 88
3 78 128 174
3 128 157 174
3 128 53 157
3 174 157 158
3 78 174 76
3 173 76 158
3 174 158 76
3 76 173 47
3 82 175 81
3 175 83 81
3 82 176 175
3 176 177 175
3 176 36 177
3 175 177 83
3 36 178 177
3 178 179 177
3 178 84 179
3 177 179 83
3 83 179 85
3 85 179 84
3 34 36 180
3 176 82 44
3 90 181 91
3 91 181 118
3 57 182 58
3 182 90 58
3 118 183 61
3 61 183 57
3 57 183 182
3 183 181 182
3 183 118 181
3 182 181 90
3 84 178 149
3 149 178 36
3 158 157 159
3 159 157 54
3 47 173 45
3 160 173 158
3 14 184 185
3 184 186 185
3 184 0 186
3 185 186 89
3 0 184 33
3 33 184 14
3 44 180 176
3 176 180 36
3 169 187 43
3 43 187 44
3 169 188 187
3 188 180 187
3 188 34 180
3 187 180 44
3 92 189 63
3 63 189 65
3 74 190 72
3 72 190 73
3 73 190 191
3 190 192 191
3 190 74 192
3 191 192 62
3 73 193 75
3 193 69 75
3 73 191 193
3 191 194 193
3 191 62 194
3 193 194 69
3 69 194 64
3 64 194 62
3 62 192 63
3 192 74 63
3 89 186 2
3 2 186 0
3 14 185 80
3 80 185 89
3 195 196 197
3 94 196 92
3 92 196 189
3 196 198 189
3 196 195 198
3 189 198 65
3 65 198 199
3 198 200 199
3 198 195 200
3 199 200 156
3 136 201 202
3 201 197 202
3 201 195 197
3 202 197 135
3 135 197 94
3 94 197 196
3 136 202 134
3 202 135 134
3 136 203 201
3 203 200 201
3 203 156 200
3 201 200 195
3 65 199 67
3 67 199 156
3 156 203 154
3 203 136 154
3 34 188 168
3 168 188 169

CELL_TYPES 404
5
5
5
5
5
5
5
5
5
5
5
5
5
5
5
5
5
5
5
5
5
5
5
5
5
5
5
5
5
5
5
5
5
5
5
5
5
5
5
5
5
5
5
5
5
5
5
5
5
5
5
5
5
5
5
5
5
5
5
5
5
5
5
5
5
5
5
5
5
5
5
5
5
5
5
5
5
5
5
5
5
5
5
5
5
5
5
5
5
5
5
5
5
5
5
5
5
5
5
5
5
5
5
5
5
5
5
5
5
5
5
5
5
5
5
5
5
5
5
5
5
5
5
5
5
5
5
5
5
5
5
5
5
5
5
5
5
5
5
5
5
5
5
5
5
5
5
5
5
5
5
5
5
5
5
5
5
5
5
5
5
5
5
5
5
5
5
5
5
5
5
5
5
5
5
5
5
5
5
5
5
5
5
5
5
5
5
5
5
5
5
5
5
5
5
5
5
5
5
5
5
5
5
5
5
5
5
5
5
5
5
5
5
5
5
5
5
5
5
5
5
5
5
5
5
5
5
5
5
5
5
5
5
5
5
5
5
5
5
5
5
5
5
5
5
5
5
5
5
5
5
5
5
5
5
5
5
5
5
5
5
5
5
5
5
5
5
5
5
5
5
5
5
5
5
5
5
5
5
5
5
5
5
5
5
5
5
5
5
5
5
5
5
5
5
5
5
5
5
5
5
5
5
5
5
5
5
5
5
5
5
5
5
5
5
5
5
5
5
5
5
5
5
5
5
5
5
5
5
5
5
5
5
5
5
5
5
5
5
5
5
5
5
5
5
5
5
5
5
5
5
5
5
5
5
5
5
5
5
5
5
5
5
5
5
5
5
5
5
5
5
5
5
5
5
5
5
5
5
5
5
5
5
5
5
5
5
5
5
5
5
5
5
5
5
5
5
5
5
5
5
5
5
5

CELL_DATA 404
SCALARS cell_data_0 double
LOOKUP_TABLE default
1.13638683328e-05
8.48253098718e-07
1.39416909001e-05
6.24849466232e-06
1.59161583305e-05
2.06770075427e-05
2.68055596295e-06
1.83566209199e-07
5.9080489513e-06
1.11153193023e-05
5.62678420561e-06
3.62355354151e-06
4.69656542147e-06
5.36377207583e-06
4.21687205124e-06
1.66924454828e-06
4.37966098357e-07
7.48103138531e-07
2.1980591034e-06
4.6202608319e-07
1.76101296883e-06
9.52488759004e-06
2.8659934501e-06
1.33118039061e-06
1.74587117016e-06
1.21535128577e-06
3.04632131011e-06
6.27241480185e-06
2.5011765431e-06
6.89977977747e-06
4.7528287301e-07
2.037736074e-05
2.91175631427e-06
1.03072446502e-06
1.15379105953e-05
1.8777030513e-06
1.89041071212e-05
2.52501075121e-05
2.17104511344e-05
4.52739497882e-05
3.35709828372e-05
8.01116679733e-05
9.68012578389e-05
3.74634361569e-05
5.92694430696e-05
3.84210399412e-05
1.63344777358e-05
4.86986580238e-06
5.44085410514e-06
4.19253136672e-06
1.68011297529e-05
7.28621068565e-06
1.70280290062e-05
1.53523929913e-05
8.21288573106e-06
2.57998777848e-06
6.26333040387e-08
5.33338925405e-07
1.24031668107e-05
1.33315813854e-05
4.16865434223e-07
1.09917872539e-06
6.44627786815e-07
1.91378768908e-06
4.22709415413e-07
3.62822362139e-07
2.87098166091e-05
2.0994444462e-05
4.82828084687e-07
1.42577403205e-05
2.42679367233e-05
6.44470887186e-05
1.49899695222e-05
5.52288496067e-05
1.64378495793e-05
2.42308137901e-06
4.35824956201e-06
1.0600953766e-05
8.33561642967e-06
1.32009730332e-05
2.79470808735e-06
3.99555530952e-06
4.62067583391e-07
8.73218289387e-07
3.71534777012e-07
6.68370519296e-06
5.25672487603e-06
9.06328641281e-06
1.3394508831e-07
2.36850431943e-06
1.41650703335e-05
1.06376347436e-05
2.13047020996e-05
2.48773028792e-05
2.16469884126e-05
6.14241463336e-05
1.00012387696e-06
1.56470725311e-06
3.93062525977e-06
4.28256384026e-06
1.17388982547e-05
8.07175957357e-06
3.11045895168e-06
2.18249263651e-07
5.39779706577e-07
1.43839814856e-06
2.88482299166e-06
3.69289359505e-05
3.82206702526e-05
6.38194355557e-07
6.69605069771e-07
3.88630816745e-07
2.47416209224e-06
5.47834991299e-06
9.95373299492e-06
1.09560520331e-05
5.10432793499e-06
1.02666620984e-05
2.39996996434e-06
1.43466759039e-05
3.31869877167e-05
4.26064436052e-05
4.29231210599e-05
1.38223463829e-05
7.94162449732e-09
4.63790863677e-07
1.95506678138e-07
5.84529619035e-07
5.38405924485e-07
8.73853781411e-08
1.7785860697e-07
2.30306848536e-06
1.81854190823e-06
1.65234413834e-06
2.51700073105e-07
7.18056728604e-07
6.96332063175e-07
3.96960841309e-07
2.20327103422e-07
1.35857906734e-05
1.24680548965e-05
9.32391287364e-06
1.62947836156e-05
1.82276157607e-05
1.77447079509e-05
1.71648474719e-05
8.23999186188e-06
1.33123899124e-05
1.48846994653e-05
2.00236676466e-05
1.64091917039e-05
1.40596474997e-05
1.84984621819e-05
1.37466777679e-05
5.71244615505e-06
8.60652516076e-06
8.4111068326e-06
9.20660736625e-06
1.48992323747e-05
7.61710398441e-06
6.48811925206e-06
4.26713314489e-06
6.20885222779e-06
5.29024087752e-07
1.33732993334e-07
3.34075260337e-07
5.94122954724e-06
1.91448303387e-07
5.47815692857e-07
2.4473116088e-08
3.69111768139e-07
2.7552854958e-07
6.78953051872e-09
1.87406537471e-07
1.9316016223e-07
6.06562909149e-06
1.33152689566e-05
4.5803254978e-07
1.36511591377e-06
1.18377059947e-06
7.12734404925e-07
2.96089799496e-06
2.66970147756e-06
9.02787064574e-07
9.15598057066e-08
1.07113799795e-05
2.6381450363e-07
4.01495848489e-06
4.06521662369e-06
4.38186135115e-07
1.05609892167e-07
3.08641236064e-06
2.71318359976e-07
2.07339585592e-07
8.52331386395e-08
3.60315056027e-06
8.05258818739e-06
1.32021915887e-05
7.15530717411e-07
4.1876073319e-06
3.36996565021e-08
4.61048470219e-08
1.30321480021e-06
1.07134811915e-06
9.64209978673e-06
9.27097836886e-08
1.92064679521e-07
2.20539907753e-07
9.01293475966e-06
4.67120490277e-08
1.17310973092e-07
1.56420414027e-07
1.87770051192e-07
4.16033319236e-07
6.75701170329e-07
1.1880519457e-05
2.39854182418e-07
5.56971453074e-06
8.77589428523e-06
8.6424665877e-06
6.3652485643e-06
1.99867267996e-07
1.50786415167e-06
1.0070455481e-06
1.39284806096e-06
3.57338643255e-07
7.9201393926e-07
6.15490721109e-06
4.09130806764e-06
3.75602746181e-06
4.65111202869e-06
4.88258463736e-06
4.8957557324e-06
6.51974955527e-06
5.81987473408e-06
1.05010230271e-05
7.9943892392e-06
5.11160814659e-06
1.00525417058e-05
6.45105819333e-06
1.47550556406e-05
1.78255385913e-06
5.91485851523e-06
4.31221481774e-06
2.21119365189e-06
1.69200948927e-06
3.10610891578e-06
6.95813180174e-06
1.14204363659e-06
1.19029989989e-07
2.35630929669e-06
2.19440255259e-06
4.00686049449e-08
6.91213243915e-08
1.8530782574e-07
3.23201628948e-07
3.36296038209e-06
1.55266394851e-08
5.99480972919e-08
2.81454996127e-06
2.27804336751e-06
1.44388957749e-07
3.9774297473e-06
1.9545688537e-05
9.52094537533e-08
3.04620326706e-06
4.82598334864e-06
3.6300585775e-08
5.26007695437e-08
4.39594860559e-07
4.65223242656e-07
4.01433562428e-08
5.55241240134e-08
3.87986430273e-08
5.06299336892e-08
4.90155608622e-08
1.80908298039e-06
3.85387202385e-08
2.75801678212e-06
1.15162467676e-07
3.72415174635e-08
4.77665646128e-08
1.89009359189e-06
8.03665398264e-08
9.62010528893e-06
6.29771212655e-08
2.4090769793e-08
6.60871566056e-09
2.22915981892e-08
7.58295687923e-08
1.50351505344e-07
1.77339564187e-08
9.84837589732e-09
8.37757825051e-10
4.84999673452e-07
1.12007412138e-06
1.71405972794e-05
1.01023272892e-05
1.00053741871e-06
6.50372865051e-07
5.83172243095e-06
3.3500408916e-07
2.6873698006e-07
7.62236411189e-08
3.28027622243e-06
5.95603589797e-06
3.94561522885e-07
1.18775632124e-05
1.05391307321e-05
4.91901897338e-07
1.36391091264e-05
1.1041525484e-05
1.80479811863e-07
1.75411151416e-07
2.75161678631e-07
4.6131899504e-07
2.05093677299e-07
2.65404192281e-07
1.98658579324e-07
6.58211546113e-07
1.51305884763e-06
1.09923689648e-06
4.8049758356e-06
1.50549519811e-07
1.18674607508e-05
1.04921688099e-05
1.75841272848e-05
1.43146128916e-05
8.41688324857e-06
1.38208105796e-05
9.22191112263e-06
7.30574299435e-07
1.01627421082e-06
2.48462470232e-06
2.33379342406e-06
1.60550254434e-06
4.51551835053e-06
5.76159811646e-08
1.98677496398e-06
7.0399000805e-06
4.21294628925e-06
1.70355561588e-07
2.52044055566e-07
7.43771431041e-06
3.73003415975e-06
7.89038289475e-06
3.72502958237e-07
4.892608773e-07
2.13739505637e-07
3.92297800818e-07
8.9463775103e-08
1.03385671311e-07
2.24665943028e-06
1.76494352448e-07
3.45647368654e-06
1.33545514652e-06
1.13981161025e-07
8.45839758744e-08
5.41461731954e-08
5.80964014955e-08
7.02466964218e-08
8.05422702029e-07
9.58414609991e-08
1.00905077279e-07
4.91377570713e-08
7.27744399583e-09
9.32976860722e-07
2.17913561797e-08
3.996529246e-08
1.76951554165e-06
4.2775010903e-06
1.69601910494e-06
1.30614491695e-05
7.86150266248e-06
1.14836191385e-05
1.26088944022e-05
1.40177624837e-08
1.35673865774e-05
3.4433730941e-07
6.79421597143e-08
2.65943169671e-09
1.00750648676e-07
5.71446788005e-08
3.03133046724e-08
1.09100504668e-08
4.27410376625e-08
2.87272613504e-06
3.17718671414e-08
1.25443011574e-08
2.93172847804e-08
6.13984515221e-06
9.65114514634e-06
7.63881552465e-06
2.01059941804e-06
3.25142923783e-06
3.40290748215e-08
2.74697647015e-08
2.37889816341e-08
4.34844507821e-08
4.3201528651e-08
3.29330024285e-08
4.74963033654e-06
2.10103283848e-06
8.71009567488e-08

