# vtk DataFile Version 3.0
File Name: Molecule/sphere_excent/sphere_excent_0-s25.vtk
ASCII
DATASET UNSTRUCTURED_GRID
FIELD FieldData 1
TIME 1 1 double
0.0
POINTS 273 double
-0.050330396742 1.7324578762 0.99674010277
-1.0891470909 1.4719992876 0.80300372839
-0.5908934474 1.2104011774 1.4772531986
-1.6575573683 1.1104707718 0.13932879269
-1.6719962358 0.66913658381 0.86886972189
0.64537876844 -1.1918164492 1.4706441164
0.015278871171 -1.7179838419 1.0237780809
0.81607484818 -1.673653245 0.72989273071
0.36622095108 -1.194914341 -1.5597730875
-0.017610915005 -1.7240480185 -1.0131220818
-0.40020915866 -1.0947408676 -1.6248751879
1.5671550035 -0.40929156542 1.1725255251
1.5284742117 0.49062362313 1.192794919
1.1710138321 0.060131467879 1.6185588837
-0.68801277876 -1.7829222679 -0.58904933929
0.02144879289 -1.9996631145 0.025270989165
-1.0184824467 -1.7179949284 0.079047098756
-0.78619837761 -1.6853774786 0.73580670357
-0.6739166975 -1.3015924692 1.360601902
-1.9475911856 0.31895381212 0.32049360871
0.78820455074 -1.7065476179 -0.68043100834
1.0844345093 -1.6796241999 0.030209721997
-0.048119693995 1.9965164661 0.0096685774624
-0.56213730574 1.8821355104 0.37397277355
0.20263069868 1.9612654448 0.30255270004
-0.52939093113 1.8907228708 -0.37984183431
-1.1015868187 1.6688330173 0.045445501804
-1.2272874117 1.4697098732 -0.57381635904
-0.057085804641 1.763047576 -0.93799167871
0.21059964597 1.925727725 -0.49656352401
1.0099117756 1.7146215439 0.19618090987
0.56413638592 1.8576828241 0.47173029184
0.85088038445 1.5850871801 0.87037831545
0.99581444263 -0.079827733338 -1.7324335575
0.7590419054 -0.58408355713 -1.755428195
0.51258569956 -0.093686424196 -1.9307957888
0.2092615366 -0.61752045155 -1.8903521299
-0.0078095877543 0.014546494 -1.9999409914
0.92876648903 0.95626938343 -1.4905617237
1.195653677 0.93961507082 -1.2987513542
1.0908592939 0.71268200874 -1.5171396732
1.3622522354 -0.40340971947 -1.4076687098
1.5182083845 -0.16372297704 -1.2913302183
1.5226010084 -0.52777814865 -1.1842851639
-0.44204223156 0.64354395866 1.8409631252
-0.82473170757 0.45041105151 1.7649115324
-0.39240959287 0.21688406169 1.9482372999
-1.2257829905 -0.15597514808 1.5715985298
-0.98580747843 -0.67512857914 1.6035243273
-0.75209128857 -0.046549454331 1.8517299891
-0.43003535271 -0.52130514383 1.8819842339
-1.3797446489 0.40651294589 -1.3889087439
-1.1536917686 0.027312947437 -1.6306524277
-1.6155382395 0.070599228144 -1.1750885248
-1.3766387701 -0.32551130652 -1.4132591486
-1.4798920155 0.8833322525 -1.0129796267
-1.7126004696 0.50537914038 -0.89876461029
-1.2629064322 -1.1482658386 1.0422410965
-1.5843780041 -0.50487738848 1.1110749245
-0.35658764839 -0.47018256783 -1.91079247
-0.47067287564 0.035239338875 -1.9434847832
-0.90565645695 -0.64566010237 -1.6617342234
-0.24698507786 0.52597510815 -1.9109847546
0.30200368166 0.45193475485 -1.9244756699
-1.2970567942 -0.81919175386 -1.282794714
1.8577494621 0.36330169439 0.64491027594
1.7028830051 0.79646348953 0.68148577213
1.3765314817 1.0693128109 0.9775673151
0.90598374605 1.0570677519 1.4332015514
-0.57667541504 1.671918273 -0.93147677183
1.9562209845 0.2307896018 -0.34302994609
1.9659352303 0.3428234756 0.12132950872
1.9910284281 -0.16790316999 0.061990246177
-0.0065211015753 0.8875131011 1.7920544147
-0.022481543943 0.39429229498 1.9604994059
0.41495326161 0.47655427456 1.8971290588
0.27404099703 -0.012583199888 1.9809138775
-1.6478513479 -1.1105029583 0.22685623169
-1.361037612 -1.3865392208 0.47451153398
-1.6375596523 -0.96052265167 0.6291834712
1.6639672518 -0.69903349876 -0.86066752672
1.6760933399 -0.98293703794 -0.47376522422
1.4322587252 -1.1489964724 -0.79103398323
1.3459359407 -1.4193586111 -0.41618096828
1.7933899164 -0.8802613616 -0.088307067752
1.8919383287 -0.50889307261 -0.39740219712
-1.5331238508 -1.2831254005 0.03914245218
1.265231967 -1.1081542969 1.0733835697
1.0386612415 -0.59254741669 1.6029902697
1.5525509119 -1.2599995136 -0.043648879975
1.4173880816 -1.3472130299 0.41488233209
1.7547322512 -0.92164373398 0.26520782709
-1.9261354208 -0.53309166431 0.076714076102
-1.8113102913 -0.82062226534 0.20088806748
-1.8512221575 -0.54135036469 0.52807766199
-1.673060894 -1.0815392733 -0.15551306307
-0.039062835276 -1.2564139366 1.5555481911
0.49168241024 -0.53812867403 1.8624018431
0.70376724005 -0.095854327083 1.8695943356
-0.43227848411 -0.94319295883 1.7097777128
0.0074653490447 -0.37360864878 1.9647259712
0.067519456148 -0.82954657078 1.8185920715
-1.6640092134 0.98011678457 -0.51935738325
-1.8601686954 -0.062311321497 0.73036015034
-1.5523575544 0.15512013435 1.2512016296
0.74671429396 1.7743295431 -0.54169178009
0.62490195036 1.891815424 -0.1649043262
1.0632272959 1.6736989021 -0.26036626101
0.47749346495 1.7373692989 -0.86710089445
0.86613482237 1.5371319056 -0.94141668081
1.278121829 1.2811354399 -0.85075443983
1.0969107151 1.5536296368 -0.6185760498
0.44688716531 1.4813460112 -1.2656568289
0.8349391818 1.2758399248 -1.2932540178
-1.9675338268 -0.21276909113 0.28746286035
-1.9205490351 -0.50538688898 -0.23442260921
-1.8423653841 -0.77537500858 -0.038324031979
-1.8343573809 -0.74338269234 -0.27372726798
-1.859885931 -0.51474547386 -0.52514064312
-1.8470933437 0.70294249058 -0.30523982644
-1.9989160299 -0.053492568433 0.010468902066
-1.9751158953 -0.30275908113 -0.083318017423
-1.9817364216 -0.11027205735 -0.24554701149
-1.9385023117 -0.32188558578 -0.37153726816
-1.9600567818 0.047196879983 -0.39416891336
-1.9856129885 0.15889753401 -0.17593972385
-0.70360571146 -1.4881945848 -1.1358149052
-1.0525501966 -1.4803863764 -0.83737027645
-0.93369156122 -1.0925176144 -1.3902173042
-1.1640846729 -1.2010344267 -1.0962967873
-1.4601376057 -0.96790415049 -0.96467918158
-1.5261390209 -1.0955717564 -0.68608427048
-1.6433653831 -0.83546495438 -0.77498710155
-1.3322268724 -1.2316911221 -0.84147143364
-1.3458805084 -1.3543374538 -0.59510993958
-1.5527052879 -1.1900779009 -0.41551232338
-1.3968600035 -1.3867954016 -0.35437628627
-1.6916607618 -0.94701462984 -0.48929461837
-1.1142799854 -1.5668407679 -0.54988098145
-1.471760869 -1.3425289392 -0.17609509826
-1.1786857843 0.99735701084 1.2709248066
1.3807663918 1.3751121759 -0.44943520427
1.3639392853 1.4620840549 -0.042365536094
1.6698800325 1.0619125366 -0.28893017769
1.5232087374 1.0679272413 -0.73298001289
-1.129665494 0.2326502353 1.6336849928
-1.2863126993 0.56950908899 1.4214336872
-0.88219434023 0.82108283043 1.5962003469
-1.5868330002 -0.64057534933 -1.0347819328
1.3569602966 1.4096498489 0.4101549089
-1.9478027821 0.44319701195 -0.082114458084
-1.9353126287 0.33009332418 -0.3816754818
-1.8427898884 0.54322248697 -0.55542987585
-1.8601878881 0.29301995039 -0.67327016592
0.82740938663 0.74289596081 -1.6621106863
0.74506986141 0.50775879622 -1.7849229574
0.99920046329 0.51213169098 -1.6550271511
0.9210780859 0.28738090396 -1.7518738508
1.1151096821 0.29973998666 -1.6328532696
1.2405741215 0.47617024183 -1.4947345257
1.2825142145 0.16680026054 -1.525359273
1.4016714096 0.33178967237 -1.3875368834
1.2890216112 0.6960991025 -1.3615915775
1.4408704042 0.53490227461 -1.2797552347
1.408996582 0.79788333178 -1.1738511324
1.5510653257 0.31729799509 -1.2220103741
1.6115125418 0.48591518402 -1.0798016787
1.7276263237 0.23998683691 -0.97770047188
1.6115120649 0.079702809453 -1.1813694239
1.4557667971 0.10744064301 -1.3668699265
1.7227967978 -0.19245249033 -0.99710249901
1.30230546 -0.12257312983 -1.5128382444
0.68700528145 0.21712893248 -1.8656384945
1.1211125851 -0.45794025064 -1.5914614201
0.13415983319 0.96597802639 -1.7440822124
0.60412895679 1.0664157867 -1.5800913572
0.53315883875 0.75864112377 -1.7718853951
1.8618929386 0.65390855074 0.32427507639
1.8684563637 0.70441752672 -0.10916329175
1.7498469353 0.9504378438 0.1851413101
1.5723843575 1.2266138792 0.1518111825
1.5803456306 1.1187188625 0.50048911572
1.6907570362 0.78273570538 -0.72582864761
1.8478466272 0.57115024328 -0.5067551136
-0.077896289527 0.01076971367 1.9983973503
-0.33560284972 -0.15415373445 1.965389967
0.45363599062 1.4182716608 1.3347557783
0.41053166986 1.0385004282 1.6593517065
0.01889231056 1.3292258978 1.494217515
1.8720661402 0.0093471184373 -0.70354646444
1.7449043989 0.50441116095 -0.83701890707
1.8453701735 0.3041446209 -0.70763385296
-1.6485701799 -0.29601249099 -1.0927656889
-0.70723980665 -0.2591599524 -1.8527528048
-0.8381601572 0.02595991455 -1.815664649
-1.0012531281 -0.25255611539 -1.7124137878
-0.70658963919 0.28940829635 -1.8472020626
-0.97641968727 0.29725238681 -1.7198650837
-1.1282167435 0.53524076939 -1.5620644093
-1.8431348801 -0.18463504314 -0.75411570072
-1.7716289759 -0.3848131597 -0.84459847212
-1.8875855207 -0.29024279118 -0.59396129847
-1.7630563974 -0.11269503087 -0.93742012978
-1.7871010303 0.14568777382 -0.88514757156
-1.8573211432 0.015692153946 -0.74143701792
-1.9058339596 -0.078927733004 -0.60115617514
-1.9441218376 -0.14965370297 -0.44485121965
-1.9141845703 0.11850000173 -0.56698089838
1.2693576813 -0.70224285126 -1.3766967058
1.0276647806 -0.78473329544 -1.525837183
1.1187148094 -1.0184947252 -1.3079720736
1.4060353041 -0.86810803413 -1.1264722347
0.81026017666 -1.1469871998 -1.4239845276
1.9502705336 0.010401016101 0.44224610925
1.893099308 -0.53645807505 0.3564735055
1.7999843359 -0.019519874826 0.87101984024
1.8516950607 -0.34817516804 0.66823083162
-1.7423037291 -0.61884999275 -0.76254850626
-1.7728303671 -0.73249852657 -0.56590151787
1.7102645636 -0.81436538696 0.63411557674
1.0450013876 0.5624909997 1.6085976362
0.62535268068 -1.4951384068 -1.1716175079
1.9164954424 -0.56997168064 0.037187054753
0.97442567348 -1.3668090105 -1.0871113539
1.5515706539 0.8334710598 -0.94727528095
1.409170866 1.0006078482 -1.0062097311
0.70581102371 0.73352795839 1.7214436531
0.81945508718 0.32439821959 1.7953668833
1.1576098204 -1.4212596416 -0.79997092485
1.2408162355 -1.1611847878 -1.0545642376
-1.3347380161 -1.4882229567 0.058835104108
-1.2784181833 -1.5300408602 -0.1579361558
-1.2567944527 -1.5069154501 -0.38682070374
-1.1161636114 -1.6373513937 -0.26618531346
1.5336580276 0.66172719002 -1.1000198126
1.6371563673 0.65760368109 -0.9418515563
1.8477618694 -0.30657553673 -0.70078247786
1.9500197172 -0.12797160447 -0.42408078909
-0.45147308707 1.5384895802 -1.1955059767
-0.26530951262 1.4000698328 -1.4028074741
-0.6302959919 1.3091487885 -1.3743946552
-0.81365180016 1.4323648214 -1.1342314482
-1.0174398422 1.1125674248 -1.3136942387
-0.48997214437 1.0372680426 -1.6343214512
-0.90571826696 1.5784152746 -0.82917439938
-1.1170655489 1.3251751661 -0.99783468246
0.56412625313 1.9130344391 0.14780433476
0.3054189384 1.9759925604 -0.043437805027
1.0473006964 1.1250849962 -1.279545188
1.2306953669 1.1250487566 -1.1043111086
1.0740470886 1.282900691 -1.0949878693
1.1496487856 1.4990286827 0.65651571751
1.3536330462 1.2882574797 0.71279877424
1.1458444595 1.3469851017 0.93330025673
-0.065124578774 1.2261285782 -1.5773963928
-0.36810776591 0.80361485481 -1.7915543318
0.26919692755 1.2663680315 -1.5242663622
0.07966132462 1.4590022564 -1.3653382063
0.18157362938 1.632173419 -1.1415219307
-0.11925441772 1.585662961 -1.2132292986
-1.2171705961 0.77603459358 -1.384054184
-0.95425701141 0.87950986624 -1.5215191841
-0.87281495333 0.65039926767 -1.6779723167
-0.57735353708 0.62052094936 -1.8112536669
-0.68619143963 0.83854401112 -1.6809397936
-0.76527273655 1.0626815557 -1.5116864443
1.5160208941 -0.98877179623 0.8495196104
1.3744026423 -1.2438238859 0.74999547005
1.5784424543 -1.0935595036 0.55909079313
-1.7723736763 -0.90619874001 -0.19327245653
-1.7616956234 -0.94646775723 0.013335682452
-0.507371068 0.42507022619 -1.8870936632
-0.77204525471 0.47872695327 -1.7814224958

CELLS 542 2168
3 0 1 2
3 1 3 4
3 5 6 7
3 8 9 10
3 11 12 13
3 14 15 16
3 14 9 15
3 17 15 6
3 17 6 18
3 4 3 19
3 9 20 15
3 7 15 21
3 15 7 6
3 22 23 24
3 0 23 1
3 22 25 23
3 25 26 23
3 25 27 26
3 23 26 1
3 28 25 29
3 1 26 3
3 26 27 3
3 30 31 32
3 32 31 0
3 33 34 35
3 34 36 35
3 34 8 36
3 35 36 37
3 10 36 8
3 38 39 40
3 41 42 43
3 44 45 46
3 47 48 49
3 48 50 49
3 51 52 53
3 54 53 52
3 55 51 56
3 18 48 57
3 58 48 47
3 37 59 60
3 59 10 61
3 37 62 63
3 37 60 62
3 10 59 36
3 36 59 37
3 54 61 64
3 65 66 12
3 66 67 12
3 12 67 68
3 28 69 25
3 70 71 72
3 44 73 2
3 44 74 73
3 74 75 73
3 74 76 75
3 77 78 79
3 78 57 79
3 78 17 57
3 79 57 58
3 58 57 48
3 18 57 17
3 80 81 82
3 81 83 82
3 84 81 85
3 85 81 80
3 77 86 78
3 78 16 17
3 17 16 15
3 7 87 5
3 5 87 88
3 83 21 20
3 20 21 15
3 83 89 21
3 89 90 21
3 90 89 91
3 21 90 7
3 84 89 81
3 81 89 83
3 92 93 94
3 79 93 77
3 77 95 86
3 5 96 6
3 6 96 18
3 76 97 98
3 97 88 98
3 97 5 88
3 98 88 13
3 13 88 11
3 11 88 87
3 18 99 48
3 48 99 50
3 76 100 97
3 100 101 97
3 100 50 101
3 97 101 5
3 5 101 96
3 101 99 96
3 101 50 99
3 96 99 18
3 76 98 75
3 55 102 27
3 27 102 3
3 19 103 4
3 4 103 104
3 105 106 107
3 22 29 25
3 28 29 108
3 29 105 108
3 29 106 105
3 108 105 109
3 110 109 111
3 111 109 105
3 109 112 108
3 109 113 112
3 19 114 103
3 114 94 103
3 114 92 94
3 103 94 58
3 58 94 79
3 79 94 93
3 92 115 116
3 117 115 118
3 53 56 51
3 55 56 102
3 102 119 3
3 19 120 114
3 120 121 114
3 120 122 121
3 114 121 92
3 92 121 115
3 121 123 115
3 121 122 123
3 115 123 118
3 124 122 125
3 14 126 9
3 9 126 10
3 14 127 126
3 128 126 129
3 126 128 10
3 10 128 61
3 130 131 132
3 133 134 131
3 134 135 131
3 134 136 135
3 131 135 137
3 133 127 134
3 127 138 134
3 127 14 138
3 137 135 95
3 86 95 139
3 4 140 1
3 1 140 2
3 47 104 58
3 58 104 103
3 111 107 141
3 107 142 141
3 107 30 142
3 141 142 143
3 111 141 110
3 110 141 144
3 47 145 104
3 145 146 104
3 145 45 146
3 104 146 4
3 4 146 140
3 146 147 140
3 146 45 147
3 140 147 2
3 2 147 44
3 147 45 44
3 45 145 49
3 145 47 49
3 128 64 61
3 54 64 148
3 149 142 30
3 119 150 3
3 3 150 19
3 19 150 125
3 150 151 125
3 150 119 151
3 125 151 124
3 30 107 106
3 105 107 111
3 56 152 102
3 152 119 102
3 56 153 152
3 153 151 152
3 152 151 119
3 19 125 120
3 120 125 122
3 133 129 127
3 127 129 126
3 128 129 64
3 129 130 64
3 129 133 130
3 64 130 148
3 131 130 133
3 38 40 154
3 155 156 157
3 156 158 157
3 158 156 159
3 157 158 33
3 33 158 160
3 158 159 160
3 40 159 156
3 160 159 161
3 40 162 159
3 162 163 159
3 162 164 163
3 159 163 161
3 164 162 39
3 39 162 40
3 161 163 165
3 163 166 165
3 165 166 167
3 167 168 165
3 168 169 165
3 168 42 169
3 165 169 161
3 42 168 170
3 170 168 167
3 161 169 160
3 169 171 160
3 169 42 171
3 160 171 33
3 157 33 172
3 33 171 173
3 171 42 41
3 174 63 62
3 37 63 35
3 38 175 113
3 113 175 112
3 174 175 176
3 175 154 176
3 175 38 154
3 176 154 155
3 174 176 63
3 172 63 155
3 176 155 63
3 63 172 35
3 71 177 65
3 177 66 65
3 71 178 177
3 178 179 177
3 178 143 179
3 177 179 66
3 143 180 179
3 180 181 179
3 180 149 181
3 179 181 66
3 66 181 67
3 182 143 183
3 178 71 70
3 74 184 76
3 76 184 100
3 49 46 45
3 46 74 44
3 100 185 50
3 50 185 49
3 49 185 46
3 185 184 46
3 185 100 184
3 46 184 74
3 149 180 142
3 142 180 143
3 155 154 156
3 156 154 40
3 35 172 33
3 157 172 155
3 68 186 187
3 186 188 187
3 186 0 188
3 187 188 73
3 0 186 32
3 32 186 68
3 70 183 178
3 178 183 143
3 170 167 189
3 167 190 191
3 190 183 191
3 190 182 183
3 191 183 70
3 148 192 54
3 54 192 53
3 61 193 59
3 59 193 60
3 60 193 194
3 193 195 194
3 193 61 195
3 194 195 52
3 60 194 196
3 194 197 196
3 194 52 197
3 197 52 198
3 52 195 54
3 195 61 54
3 73 188 2
3 2 188 0
3 75 187 73
3 199 200 201
3 148 200 192
3 200 202 192
3 200 199 202
3 192 202 53
3 53 202 203
3 202 204 203
3 202 199 204
3 203 204 153
3 124 205 206
3 205 201 206
3 205 199 201
3 206 201 123
3 123 201 118
3 118 201 200
3 124 206 122
3 206 123 122
3 124 207 205
3 207 204 205
3 207 153 204
3 205 204 199
3 53 203 56
3 56 203 153
3 153 207 151
3 207 124 151
3 166 190 167
3 41 173 171
3 33 173 34
3 41 208 173
3 208 209 173
3 208 210 209
3 173 209 34
3 41 43 208
3 43 211 208
3 43 80 211
3 208 211 210
3 8 34 212
3 80 43 170
3 170 43 42
3 72 213 214
3 213 215 216
3 213 65 215
3 216 215 11
3 11 215 12
3 12 215 65
3 65 213 71
3 71 213 72
3 148 132 217
3 132 218 217
3 132 137 218
3 217 218 118
3 82 211 80
3 219 216 11
3 118 218 117
3 117 218 137
3 137 132 131
3 130 132 148
3 148 217 200
3 200 217 118
3 68 220 12
3 12 220 13
3 8 221 9
3 221 20 9
3 182 144 143
3 143 144 141
3 72 222 85
3 85 222 84
3 8 212 221
3 212 223 221
3 212 210 223
3 221 223 20
3 182 224 144
3 224 225 144
3 224 164 225
3 144 225 110
3 39 225 164
3 68 226 220
3 226 227 220
3 226 75 227
3 220 227 13
3 20 228 83
3 83 228 82
3 210 229 223
3 229 228 223
3 229 82 228
3 223 228 20
3 86 230 78
3 230 16 78
3 86 139 230
3 139 231 230
3 139 136 231
3 230 231 16
3 84 91 89
3 72 214 222
3 214 91 222
3 214 219 91
3 222 91 84
3 136 139 135
3 135 139 95
3 13 227 98
3 98 227 75
3 138 232 134
3 134 232 136
3 136 232 231
3 232 233 231
3 232 138 233
3 231 233 16
3 16 233 14
3 233 138 14
3 164 234 163
3 163 234 166
3 182 235 224
3 235 234 224
3 235 166 234
3 224 234 164
3 75 226 187
3 187 226 68
3 166 235 190
3 190 235 182
3 210 212 209
3 209 212 34
3 82 229 211
3 211 229 210
3 219 214 216
3 216 214 213
3 170 236 80
3 80 236 85
3 170 189 236
3 189 237 236
3 189 70 237
3 236 237 85
3 85 237 72
3 237 70 72
3 28 238 69
3 239 240 238
3 240 241 238
3 240 242 241
3 238 241 69
3 243 240 239
3 69 241 244
3 241 245 244
3 241 242 245
3 244 245 27
3 27 245 55
3 245 242 55
3 69 244 25
3 25 244 27
3 70 189 191
3 191 189 167
3 106 246 30
3 246 31 30
3 106 247 246
3 247 24 246
3 247 22 24
3 246 24 31
3 31 24 0
3 0 24 23
3 39 248 249
3 248 250 249
3 248 113 250
3 249 250 110
3 113 248 38
3 38 248 39
3 149 251 252
3 251 253 252
3 251 32 253
3 252 253 67
3 67 253 68
3 68 253 32
3 239 254 243
3 243 254 255
3 174 254 256
3 254 257 256
3 254 239 257
3 256 257 112
3 32 251 30
3 251 149 30
3 22 247 29
3 29 247 106
3 110 250 109
3 109 250 113
3 112 258 108
3 108 258 28
3 28 258 259
3 258 257 259
3 258 112 257
3 259 257 239
3 174 256 175
3 256 112 175
3 149 252 181
3 181 252 67
3 39 249 225
3 225 249 110
3 28 259 238
3 238 259 239
3 51 260 198
3 260 261 198
3 260 242 261
3 198 261 262
3 62 255 174
3 174 255 254
3 62 263 255
3 263 264 255
3 263 262 264
3 255 264 243
3 243 264 265
3 264 261 265
3 264 262 261
3 265 261 242
3 242 260 55
3 55 260 51
3 87 266 11
3 11 266 219
3 87 267 266
3 267 268 266
3 267 90 268
3 266 268 219
3 90 267 7
3 7 267 87
3 95 269 137
3 137 269 117
3 95 270 269
3 270 116 269
3 270 93 116
3 269 116 117
3 93 270 77
3 77 270 95
3 117 116 115
3 116 93 92
3 196 271 60
3 60 271 62
3 196 272 271
3 272 263 271
3 272 262 263
3 271 263 62
3 262 272 197
3 197 272 196
3 51 198 52
3 197 198 262
3 219 268 91
3 91 268 90
3 243 265 240
3 240 265 242

CELL_TYPES 542
5
5
5
5
5
5
5
5
5
5
5
5
5
5
5
5
5
5
5
5
5
5
5
5
5
5
5
5
5
5
5
5
5
5
5
5
5
5
5
5
5
5
5
5
5
5
5
5
5
5
5
5
5
5
5
5
5
5
5
5
5
5
5
5
5
5
5
5
5
5
5
5
5
5
5
5
5
5
5
5
5
5
5
5
5
5
5
5
5
5
5
5
5
5
5
5
5
5
5
5
5
5
5
5
5
5
5
5
5
5
5
5
5
5
5
5
5
5
5
5
5
5
5
5
5
5
5
5
5
5
5
5
5
5
5
5
5
5
5
5
5
5
5
5
5
5
5
5
5
5
5
5
5
5
5
5
5
5
5
5
5
5
5
5
5
5
5
5
5
5
5
5
5
5
5
5
5
5
5
5
5
5
5
5
5
5
5
5
5
5
5
5
5
5
5
5
5
5
5
5
5
5
5
5
5
5
5
5
5
5
5
5
5
5
5
5
5
5
5
5
5
5
5
5
5
5
5
5
5
5
5
5
5
5
5
5
5
5
5
5
5
5
5
5
5
5
5
5
5
5
5
5
5
5
5
5
5
5
5
5
5
5
5
5
5
5
5
5
5
5
5
5
5
5
5
5
5
5
5
5
5
5
5
5
5
5
5
5
5
5
5
5
5
5
5
5
5
5
5
5
5
5
5
5
5
5
5
5
5
5
5
5
5
5
5
5
5
5
5
5
5
5
5
5
5
5
5
5
5
5
5
5
5
5
5
5
5
5
5
5
5
5
5
5
5
5
5
5
5
5
5
5
5
5
5
5
5
5
5
5
5
5
5
5
5
5
5
5
5
5
5
5
5
5
5
5
5
5
5
5
5
5
5
5
5
5
5
5
5
5
5
5
5
5
5
5
5
5
5
5
5
5
5
5
5
5
5
5
5
5
5
5
5
5
5
5
5
5
5
5
5
5
5
5
5
5
5
5
5
5
5
5
5
5
5
5
5
5
5
5
5
5
5
5
5
5
5
5
5
5
5
5
5
5
5
5
5
5
5
5
5
5
5
5
5
5
5
5
5
5
5
5
5
5
5
5
5
5
5
5
5
5
5
5
5
5
5
5
5
5
5
5
5
5
5
5
5
5
5
5
5
5
5
5
5
5
5
5
5
5
5
5
5
5
5
5
5
5
5
5
5
5
5
5
5
5
5
5
5
5
5
5
5
5
5
5
5
5
5
5
5
5

CELL_DATA 542
SCALARS cell_data_0 double
LOOKUP_TABLE default
1.35252732918e-05
7.12631514874e-06
1.21265455195e-05
5.83811564021e-06
1.32415531406e-05
3.67909424841e-06
1.8219424347e-06
7.7740767684e-06
9.7093840524e-06
4.6829480545e-06
1.84702693982e-06
6.0726483384e-06
7.28677568026e-06
1.79394755207e-06
6.32176450501e-06
2.49916822052e-06
2.02546516171e-05
2.661146286e-05
2.03248563005e-05
8.87348955848e-06
2.75210501746e-05
2.70575646825e-05
2.61577262534e-05
8.2500158851e-06
2.14511517688e-06
3.55640382722e-07
6.1208846063e-07
1.61590890383e-06
3.39623822319e-06
6.50859818621e-06
1.93147061994e-06
9.63296275363e-06
1.55428058648e-05
1.98383609961e-05
2.44433805894e-05
2.5695761481e-05
2.32422946327e-07
5.93047097155e-06
1.15590694634e-05
8.00571820319e-05
0.000151508652258
2.14766235402e-06
3.07929219431e-05
5.69130537431e-05
4.6707894573e-05
4.20378733636e-05
3.17612469104e-06
3.86466600835e-06
8.13847057446e-06
8.43330530716e-06
5.44831850896e-06
1.70124229724e-05
1.59758567466e-05
1.66871538008e-05
1.12143915288e-05
1.69436564531e-06
2.44681852597e-05
1.15823641216e-05
2.12691615324e-05
5.03801901603e-06
4.24514585468e-06
5.19287935566e-05
7.93505259214e-05
1.14893000484e-05
1.52434617212e-05
5.20005523356e-06
3.020424367e-06
5.61413255585e-06
9.70744631243e-06
1.22782123983e-05
2.39887422627e-05
4.08158885976e-06
1.5479958779e-05
1.58771899123e-06
1.19794016922e-06
3.25461598914e-06
1.0796311198e-05
3.33911395987e-05
8.19598707996e-07
1.18799441674e-06
4.03220708328e-06
1.23891096893e-05
1.12333175755e-05
7.99798914443e-06
9.18193964878e-06
1.30717855528e-05
1.33842561307e-05
1.29730487838e-05
1.08646869326e-05
8.72777986005e-06
8.29115204521e-06
9.7687914344e-06
8.24368023472e-06
8.9663554096e-06
1.19564490852e-05
9.96145469498e-06
7.08207768741e-06
8.26029569093e-06
7.25648759991e-06
1.13042147816e-05
4.84031542491e-07
1.24785450043e-06
3.80492634536e-06
5.47082849762e-06
2.93939010124e-05
4.72800293409e-06
6.23441023139e-06
1.08242713536e-07
2.09613751131e-05
1.54988956395e-07
6.20703131937e-06
1.98601278515e-07
2.54756432698e-07
1.59105855e-05
1.89216837508e-06
1.59173440473e-06
9.62727204482e-07
3.42974741094e-06
6.60128744765e-07
1.41190847715e-06
1.41947623028e-07
4.21618306453e-08
1.67392494914e-05
2.43432855718e-07
4.97054010567e-07
9.9987834548e-07
4.37579321523e-07
1.96089310765e-07
4.47465151387e-07
1.83725733972e-07
1.51825759334e-07
1.27848717575e-07
1.18700630704e-08
1.11346553909e-07
4.65271236196e-07
4.56841930806e-06
1.89196997571e-07
8.79917796058e-08
2.02223235719e-06
4.69685533223e-05
1.04356362841e-07
1.72067690382e-06
1.27311381955e-06
1.0320014357e-06
2.26080510247e-07
2.18976610965e-06
1.61269533117e-06
1.10879881998e-07
1.3041331082e-07
3.6949087095e-06
7.0215204511e-06
8.38218141481e-06
8.12283874365e-06
5.22938649087e-06
1.01851080889e-05
2.09702997309e-05
3.13254413491e-05
9.94491674312e-06
1.10572305418e-05
9.90367010078e-06
6.68646673647e-06
4.92145242162e-06
5.44334574085e-06
5.789142021e-06
5.65842029612e-06
4.92153476834e-06
6.7150498877e-06
5.85001722856e-06
9.98257687116e-06
7.64022721907e-06
9.91203539411e-06
9.7822380157e-06
3.29736152746e-05
4.83111456095e-07
1.73261185467e-05
8.15628477783e-07
2.0328250328e-06
6.38013876082e-07
2.80492880915e-07
2.95728237202e-07
1.96016429889e-07
6.3522181761e-05
5.1992105968e-06
2.8381354468e-07
1.31881281847e-07
2.34331303496e-07
2.60958864807e-07
2.49027265419e-07
7.46058729328e-07
2.09175213387e-07
3.09197561421e-07
2.99007509829e-10
9.58274515436e-08
1.4707852327e-07
1.28190406115e-07
1.26561817966e-07
2.68577109466e-07
9.86415134309e-08
2.89839842466e-08
1.79294744157e-08
2.32775036004e-08
5.803187069e-07
6.31191802823e-07
2.54649027278e-08
5.17219804504e-08
5.42190182316e-08
4.26736098851e-08
2.67228614563e-08
6.35142750433e-08
5.30564181447e-08
4.60454042967e-06
5.16348163667e-06
4.79262449176e-08
3.07360519932e-08
5.86087917962e-08
6.81003929552e-08
4.16466795001e-08
2.74173294376e-07
5.29517713098e-08
3.21416381348e-07
1.65898418222e-07
5.26930994921e-08
1.83732860439e-08
4.11653511146e-07
7.91605816982e-07
7.06928937341e-07
1.20633239596e-06
1.69765802831e-06
2.09623438521e-06
1.11743063026e-06
1.06734629822e-05
1.529775718e-05
3.33929016063e-07
9.95878262951e-08
1.28871805486e-07
4.74077714914e-08
5.1010406552e-07
3.78341878533e-08
4.55008419146e-08
7.10273880053e-08
1.22471007985e-06
1.42828999153e-06
6.5607161129e-07
5.12549067643e-07
3.76383943985e-07
1.07234213886e-06
4.96637561432e-07
3.34832862894e-07
5.41302754181e-07
1.03053908833e-06
1.86595258931e-06
5.36688674924e-06
4.6338234499e-07
7.5798816147e-06
7.35023927382e-06
1.38125773221e-05
9.20132657418e-06
6.29234424649e-06
1.1735994727e-05
1.06778302791e-05
5.00785333168e-06
5.74713513718e-06
6.58108837521e-06
2.89399964029e-06
3.81617565687e-06
4.35044825179e-08
6.57340917261e-08
1.30943041707e-06
1.91864575924e-08
2.83236332409e-05
3.15651206876e-05
2.01004131294e-05
5.29013329029e-06
3.07099158994e-05
1.67568810625e-05
5.76538464161e-06
6.26428449564e-06
1.97623110651e-07
1.54632462246e-06
6.55868271184e-06
3.48512416178e-06
8.70384448737e-06
2.04671258301e-07
1.14682066446e-05
7.31375457178e-05
5.10092285048e-05
1.19305093411e-05
6.58749273743e-08
1.79325825006e-05
1.19210246505e-06
1.01539644437e-05
2.18705770294e-08
1.18042143019e-06
1.17106828438e-06
2.32434242633e-06
2.85103872921e-05
1.10651131234e-05
8.36182324729e-06
9.56867011225e-06
4.08474745871e-08
1.86317062452e-07
1.35476226652e-07
5.41380214487e-08
5.1381995612e-06
4.5713596341e-06
1.00054858351e-07
9.58281293563e-09
1.25225147782e-07
6.02607601606e-08
6.41298084466e-08
9.45279245495e-09
6.28047789318e-08
2.81286314005e-08
3.53901730554e-08
5.68310245791e-08
5.22288975576e-08
7.01367970722e-08
5.33945948821e-08
1.00511377034e-07
7.70108147498e-09
7.43805266497e-06
1.95873956935e-07
1.88355687308e-07
1.45417763052e-07
6.68951401015e-08
1.1823827046e-06
1.4680868167e-06
1.22799093667e-06
2.39511507113e-07
1.49346162375e-06
2.41268833694e-07
1.20346879799e-06
5.5751544116e-08
1.89069447066e-06
1.36120342196e-06
2.13177485005e-06
2.27411010496e-06
6.0293937676e-07
3.30779452058e-06
1.41836007994e-06
1.54038617661e-06
2.47770383965e-06
6.18898757019e-06
3.55637289572e-06
1.41509945182e-06
3.24778838631e-06
5.7479710535e-08
2.52734541574e-07
2.52465418881e-07
5.11495477853e-07
2.64274553782e-05
2.63064175571e-06
3.45356890732e-07
3.98649844459e-07
1.55700761253e-07
2.19692044099e-07
3.7662981459e-08
2.66074986936e-07
9.1136856351e-06
9.2813726631e-06
4.03418645415e-06
2.54126968503e-06
3.39193904869e-07
2.63727629118e-06
4.20872477689e-06
8.69193481481e-07
3.20046787394e-06
9.88576838182e-06
1.11582782513e-05
8.77995862669e-06
7.5589770239e-08
3.94675332373e-08
1.49107266852e-09
3.79446879503e-06
6.16005179446e-06
5.68532581155e-06
4.58683519079e-06
5.8341083553e-06
6.80614550812e-06
1.41267811227e-05
4.06011420068e-05
1.59912136473e-05
1.13008276912e-05
2.36355586335e-05
4.96732064357e-06
1.66952336682e-05
6.38174256603e-06
8.89148187893e-06
2.38499953555e-06
1.00518493272e-07
3.41703188699e-06
1.01238901003e-06
3.05292079124e-06
5.50836585823e-07
5.33016374926e-07
8.60476930311e-07
3.03665341552e-08
1.88850890487e-07
7.91002591863e-06
7.74089506443e-06
9.51073613442e-07
7.50503671785e-07
4.04983541712e-08
1.00054941561e-07
1.20717308111e-08
2.58653421256e-07
6.4311133872e-07
1.98315987894e-07
6.16092436904e-08
3.24243344911e-08
4.1205879603e-08
3.9122106131e-08
2.63204740702e-08
7.07374766969e-08
1.03807094047e-05
5.45266688151e-06
2.78355728288e-08
2.68092016272e-08
2.92548491676e-06
1.2419246097e-06
2.34664328714e-05
7.13454720756e-06
3.23806687055e-07
1.25719543948e-06
1.85948899894e-06
1.80450198185e-06
1.05723825425e-07
1.35763845186e-07
2.8394481396e-07
3.22308457304e-07
4.43040507342e-06
4.29581543753e-06
4.79136053938e-06
2.69925411994e-08
1.08035314621e-07
1.36492828346e-06
7.89926518724e-08
2.38800795477e-08
4.81483927124e-08
1.95391087971e-07
1.23158217899e-06
2.56952240455e-07
5.85557989358e-07
1.77013188248e-06
1.76822592323e-07
7.62109250162e-07
2.29695713242e-06
1.98968568762e-06
2.78659539506e-05
1.24533361921e-05
7.65798656637e-06
5.073434927e-07
1.30513943893e-06
1.97013029158e-06
6.08642124087e-06
3.55117407318e-06
4.7357203393e-06
3.51620791683e-08
5.850169781e-06
2.18439935272e-06
7.14392167175e-06
5.742356076e-06
6.40983931096e-07
6.24295042531e-07
8.63824508787e-07
8.05681573674e-07
3.50463080642e-06
3.22471726596e-06
1.21614633877e-06
9.18313981659e-07
1.38652764166e-06
5.74626211618e-07
8.29203687768e-07
1.35111921539e-07
6.0046881705e-06
4.19771491063e-06
2.16781341753e-06
1.47555595508e-05
3.99744155732e-06
9.59103255731e-06
2.04766546506e-07
3.35861567967e-06
2.27016435572e-06
1.14436260301e-07
1.42114511109e-07
3.16246556111e-09
2.88736349561e-07
1.82027529463e-07
5.38886916277e-07
9.30893347435e-07
5.48065505204e-06
2.7978297669e-06
2.68686914172e-06
1.26714306614e-08
2.36763769406e-07
3.13725324111e-08
1.10311225608e-06
3.58192288725e-07
1.24570930713e-06
2.2746007728e-06
2.63530656473e-07
4.90609714884e-08
2.53084127152e-07
6.97082126252e-08
8.34515042287e-08
6.7334749175e-08
2.57916343858e-07
8.17643071659e-07
1.78873521814e-06
1.93296137438e-07
3.651175241e-06
2.38244994114e-06
9.1469346488e-07
4.85431903563e-07
1.53833538006e-07
2.48908357915e-08
1.92736786091e-06
2.35068315815e-06
3.15066980052e-07
3.34779418683e-07
4.16953072474e-08
5.09973111422e-08
1.42641321077e-07
9.35314595495e-08
3.66686089202e-07
2.94454479718e-07
8.95960613348e-08
2.02887642767e-07
8.34929425415e-06
1.20852732344e-05
3.89213771309e-08
3.70191618623e-08
2.05093064497e-07
1.73075320238e-07
2.22658357277e-07
4.40740497839e-08
2.59214089939e-06
3.73242545901e-07
9.25555832513e-07
4.09511249824e-07
9.98452113589e-08
1.043065618e-06

