# vtk DataFile Version 3.0
File Name: Molecule/sphere_excent/sphere_excent_0-s29.vtk
ASCII
DATASET UNSTRUCTURED_GRID
FIELD FieldData 1
TIME 1 1 double
0.0
POINTS 324 double
-0.10509423912 1.7347438335 0.9875574708
-1.0907566547 1.4750298262 0.79525029659
-0.58511936665 1.2317442894 1.462159276
-1.6512982845 1.1176941395 0.15399315953
-1.6654630899 0.6951931119 0.86099386215
0.62799870968 -1.2121297121 1.4613513947
0.016862628981 -1.7228541374 1.0155643225
0.79894781113 -1.6765075922 0.74203872681
0.321372509 -1.1860512495 -1.5772923231
-0.013021920808 -1.7263315916 -1.0090965033
-0.32013601065 -1.1661405563 -1.5923758745
1.5443228483 -0.41131216288 1.2023673058
1.5371845961 0.45947805047 1.1929807663
1.1954872608 0.032850965858 1.60240376
-0.65062338114 -1.8007179499 -0.57774174213
0.029282512143 -1.9995507002 0.031647067517
-0.95244675875 -1.7560218573 0.086617834866
-0.7586479187 -1.6948121786 0.74351096153
-0.66334998608 -1.3238434792 1.3445042372
-1.9340475798 0.35050293803 0.36827912927
0.75093495846 -1.7353096008 -0.65131902695
1.0435632467 -1.7056745291 0.030657984316
-0.53612279892 1.8790895939 0.40699920058
-1.124396801 1.6485738754 0.0690581128
-1.2566099167 1.4693813324 -0.51105457544
0.96585434675 -0.08878787607 -1.7489950657
0.72499519587 -0.61376768351 -1.7596913576
0.50470119715 -0.13425387442 -1.930354476
0.18474803865 -0.62799543142 -1.8894485235
0.09097507596 0.037766173482 -1.9975821972
0.92137426138 0.98284995556 -1.4780963659
1.1950883865 0.92910981178 -1.3070578575
1.0802826881 0.73191267252 -1.5156662464
1.3612549305 -0.40608274937 -1.4078520536
1.518758893 -0.1904015094 -1.2872222662
1.5250309706 -0.52401840687 -1.1830826998
-0.45611768961 0.66764450073 1.8290301561
-0.81845390797 0.43181279302 1.7728828192
-0.4242784977 0.23383115232 1.9401357174
-1.0088495016 -0.73627257347 1.5598421097
-1.1931667328 -1.1333757639 1.135196209
-1.5742799044 -0.51529723406 1.1203533411
-1.2443093061 -0.18952557445 1.5535155535
-0.16969041526 0.50220113993 -1.9280415773
0.29868003726 0.44052627683 -1.9278190136
-1.3643187284 -0.35530933738 -1.4184652567
-0.97809207439 -0.67040383816 -1.6102100611
-1.2755393982 -0.82048940659 -1.3037201166
1.8538478613 0.37359559536 0.65074473619
1.6962018013 0.78694283962 0.70897942781
1.3832496405 1.0106498003 1.0302562714
1.100851059 0.58027672768 1.5636351109
1.9612110853 0.24211899936 -0.30716460943
1.9706094265 0.31208181381 0.13816578686
1.9937044382 -0.15511539578 0.026638224721
-0.020211592317 0.8910946846 1.7902138233
-0.034115526825 0.41210275888 1.9567046165
0.39554184675 0.49819493294 1.8955658674
0.29404705763 -0.0048978398554 1.9777485132
-1.6418573856 -1.1049075127 0.2858197093
-1.5394974947 -1.2747895718 0.06471709162
-1.3149197102 -1.4429775476 0.42981871963
1.2007828951 -1.0907139778 1.1682283878
1.044878602 -0.6040506959 1.5946604013
1.2901461124 -1.4780198336 -0.38744667172
1.5480774641 -1.2651914358 -0.048762258142
1.3867661953 -1.3939154148 0.36607965827
1.7458728552 -0.94204521179 0.25234043598
1.791721344 -0.88187092543 -0.10850422829
1.6928004026 -0.98384433985 -0.40446081758
-1.9261813164 -0.5215678215 0.13088731468
-1.8093702793 -0.80844032764 0.26868161559
-1.8478970528 -0.51759558916 0.56259083748
-1.6748780012 -0.90012776852 0.61838269234
-1.6431595087 -1.1253311634 -0.18210247159
-1.7413277626 -0.98238444328 0.037095244974
-0.045810099691 -1.279384017 1.5367490053
0.50684612989 -0.55552816391 1.8532102108
0.73740255833 -0.11435087025 1.8551619053
-0.43856203556 -0.96172380447 1.6978940964
0.019415074959 -0.38515716791 1.9624780416
0.064066842198 -0.84784168005 1.8102689981
-0.39184501767 -0.54511380196 1.8828314543
0.81589889526 0.32261744142 1.7970231771
-1.460282445 0.92439436913 -1.0056226254
-1.6499992609 1.0008850098 -0.52491265535
-1.8471348286 -0.03800580278 0.76536512375
-1.5598556995 0.14239116013 1.2434937954
-0.055069312453 1.7817912102 -0.90663301945
0.19640721381 1.9314169884 -0.4806651473
0.44875797629 1.7428859472 -0.87228602171
0.74001508951 1.7713147402 -0.56079131365
0.5987226367 1.8972278833 -0.20000804961
0.84382492304 1.5474904776 -0.94498711824
1.26445508 1.308868885 -0.82935982943
1.0878267288 1.5566284657 -0.62706893682
0.47867274284 1.4788821936 -1.2582994699
0.81013506651 1.2841435671 -1.3016133308
-1.961741209 -0.1935762763 0.33746311069
-1.9181509018 -0.52793109417 -0.20472635329
-1.8539379835 -0.74916005135 -0.039846219122
-1.8319032192 -0.73311698437 -0.32608044147
-1.8572024107 -0.52855885029 -0.52103465796
-1.7017737627 0.55954873562 -0.88818138838
-1.8387007713 0.72830802202 -0.29649662971
-1.9987391233 -0.037997499108 0.049969136715
-1.9763246775 -0.30045709014 -0.058745540679
-1.9850207567 -0.10232241452 -0.22123453021
-1.94158566 -0.33019167185 -0.347779423
-1.9628483057 0.061248391867 -0.3780670166
-1.9859796762 0.18257409334 -0.14694288373
-0.67164647579 -1.4985185862 -1.141669631
-1.0279326439 -1.4842936993 -0.86070144176
-0.90143615007 -1.0949580669 -1.4096317291
-1.1433702707 -1.2020692825 -1.1166529655
-1.4404399395 -0.97126102448 -0.99080294371
-1.5197119713 -1.1013249159 -0.69103163481
-1.6312299967 -0.85400217772 -0.78068047762
-1.319467783 -1.2348899841 -0.85675287247
-1.3347588778 -1.3621587753 -0.60219657421
-1.5426595211 -1.2003914118 -0.42305091023
-1.3973935843 -1.3851807117 -0.35838806629
-1.6882513762 -0.96335691214 -0.47057214379
-1.0920464993 -1.576287508 -0.56764620543
-1.4749294519 -1.3409399986 -0.16231611371
-1.1761229038 1.0164262056 1.2580695152
1.1020733118 1.6385713816 -0.31412005424
1.3893904686 1.3672751188 -0.44663381577
1.3496420383 1.4750729799 -0.042609959841
1.6696894169 1.0414955616 -0.34875652194
1.5994871855 1.1948301792 -0.093583635986
1.519369483 1.094173193 -0.7030787468
-1.1492187977 0.21336273849 1.6228011847
-1.2938667536 0.57578390837 1.4120783806
-0.8891736269 0.82208174467 1.5917778015
-0.78593921661 -0.021162275225 1.8387200832
-1.5691456795 -0.63841575384 -1.0629376173
1.3547592163 1.4224225283 0.37499698997
1.0535484552 1.6867129803 0.20398893952
-1.9396213293 0.48259484768 -0.052125401795
-1.9317960739 0.35804310441 -0.37435984612
-1.8304567337 0.57631355524 -0.56337291002
-1.8522523642 0.31873175502 -0.68352031708
0.8114272356 0.76516342163 -1.660056591
0.71394437551 0.5112940073 -1.7967936993
0.98782116175 0.52174496651 -1.6588872671
0.89960479736 0.28910684586 -1.7627207041
1.1034914255 0.29213362932 -1.6421107054
1.2313672304 0.47929102182 -1.5013471842
1.2764153481 0.14405843616 -1.5327655077
1.40193367 0.32118231058 -1.3897733688
1.2824400663 0.69887149334 -1.3663734198
1.4440478086 0.53441768885 -1.2763550282
1.4039903879 0.80332064629 -1.1761900187
1.5589551926 0.29512131214 -1.2175705433
1.6273329258 0.46952790022 -1.0635082722
1.7436192036 0.21255791187 -0.9561907649
1.617515564 0.049180172384 -1.17504704
1.4569160938 0.079921916127 -1.3676818609
1.7163472176 -0.21178373694 -1.004457593
1.2894632816 -0.15051983297 -1.5213743448
0.67231810093 0.19819797575 -1.8731451035
1.1120415926 -0.45457267761 -1.5988974571
0.13092066348 0.91900718212 -1.7709721327
0.59302723408 1.0812442303 -1.5744675398
0.50776338577 0.76368689537 -1.7773369551
1.861751914 0.6503008604 0.33295819163
1.8788989782 0.67818450928 -0.097572207451
1.7735117674 0.90807700157 0.16592411697
1.6956336498 0.9900919199 0.37622699142
1.5581151247 1.1209206581 0.55842107534
1.6926232576 0.80520445108 -0.69748133421
1.8493366241 0.59178996086 -0.47866907716
-0.082087099552 0.020361600444 1.9981784821
-0.35299432278 -0.15749405324 1.9620183706
1.5403329134 1.2660654783 0.14165258408
0.9155703783 1.0925760269 1.402107358
0.45454806089 1.4207566977 1.3321849108
0.41256073117 1.04545784 1.6542732716
0.0097113251686 1.328938365 1.4944940805
0.77854168415 1.5579665899 0.97644406557
1.8724479675 0.001743190689 -0.70279747248
1.7566388845 0.50816911459 -0.80990844965
1.8583548069 0.31086361408 -0.67044788599
-1.6348087788 -0.30244660378 -1.1116318703
-1.6163369417 0.024950919673 -1.1771577597
-0.76493406296 -0.2406462431 -1.8319286108
-1.0248681307 -0.27149993181 -1.6955649853
-0.85606491566 0.014420589432 -1.8073750734
-1.1562715769 0.020464908332 -1.6315312386
-0.52765673399 0.08606788516 -1.927060008
-0.72189354897 0.25131639838 -1.8479294777
-0.98740971088 0.30035272241 -1.713091135
-1.134832263 0.54138612747 -1.5553210974
-1.2701730728 0.25474360585 -1.5233592987
-1.8428486586 -0.17514657974 -0.75711554289
-1.7690917253 -0.37915444374 -0.85241168737
-1.8896381855 -0.28997525573 -0.58754056692
-1.7558480501 -0.10913062841 -0.95136493444
-1.7745213509 0.16650575399 -0.90692442656
-1.8534324169 0.034740678966 -0.75047051907
-1.9077432156 -0.069033533335 -0.59628969431
-1.9473724365 -0.1481231153 -0.43090170622
-1.913898468 0.13747681677 -0.56361353397
1.2782090902 -0.69774633646 -1.3708719015
1.0252480507 -0.78880745173 -1.5253002644
1.1228948832 -1.0214865208 -1.3021138906
1.4088300467 -0.87135207653 -1.120680213
1.6545871496 -0.67872548103 -0.89474952221
0.79421263933 -1.1455142498 -1.4341472387
1.9480780363 -0.017554001883 0.45223930478
1.9013726711 -0.50178158283 0.36417582631
1.7941235304 0.0029580835253 0.88372915983
1.8407449722 -0.34970363975 0.6988055706
-1.7361912727 -0.62704879045 -0.76970750093
-1.7669476271 -0.74351006746 -0.57012176514
1.4460471869 -1.0922805071 -0.84443318844
1.7380151749 -0.75619620085 0.6371114254
0.58616048098 -1.5064332485 -1.1776608229
1.9125763178 -0.58415544033 0.026006741449
1.9079033136 -0.49566340446 -0.3360183239
0.95516848564 -1.3697679043 -1.1006885767
1.5532275438 0.84965282679 -0.93022286892
1.402739048 1.0214945078 -0.99424934387
0.72623240948 0.73315948248 1.7130306959
1.1629883051 -1.4197562933 -0.79480105639
1.2331366539 -1.1734586954 -1.0499603748
-1.3312265873 -1.4901777506 0.084900856018
-1.2763590813 -1.5309555531 -0.16312997043
-1.2452707291 -1.5144355297 -0.39456129074
-1.0756391287 -1.6615842581 -0.28377848864
1.5376169682 0.66214537621 -1.0942326784
1.6440019608 0.66049790382 -0.92776429653
1.8484338522 -0.32358321548 -0.69145381451
[...]
CELL_DATA 644
SCALARS cell_data_0 double
LOOKUP_TABLE default
1.21633388159e-05
6.09416964638e-06
1.21701480676e-05
6.54202977749e-07
1.09080279643e-05
6.42423439413e-05
8.33998505604e-05
0.000113962490535
2.02812711674e-05
3.96671461363e-06
4.62221703728e-05
7.76915985846e-06
1.05331157413e-05
8.02599854344e-06
4.05275020365e-06
2.3629578582e-06
2.52699606829e-05
7.75771908515e-05
4.43121942581e-05
6.86152651092e-05
4.66313124917e-05
2.5928241309e-06
8.46001234141e-06
7.45001065541e-06
6.39083337654e-06
8.61399680101e-06
1.80477734526e-05
7.69084916539e-06
3.99417651186e-05
3.86818919034e-06
5.7243609243e-06
2.41931689652e-05
1.13198146907e-05
8.60686892901e-06
1.64553531935e-05
1.8385173573e-05
9.12875949433e-06
5.60577213084e-06
8.80081774413e-07
2.29764137234e-05
8.85876692386e-05
7.32266467705e-06
7.57627357027e-06
4.32438482389e-06
3.2326110869e-05
1.11082891615e-07
8.72766700887e-07
8.42853465803e-07
2.95895691058e-06
1.6117787254e-06
7.28477716097e-07
9.1118230562e-07
3.36002323107e-07
1.15944566323e-05
1.02762122203e-05
7.56081681699e-06
7.34187673958e-06
9.68396392476e-06
1.14922340067e-05
1.06786296638e-05
7.06585086137e-06
7.50532919181e-06
8.71675909115e-06
7.38385437598e-06
7.9410258249e-06
9.76968023221e-06
7.7315855882e-06
5.95612356298e-06
7.51778388337e-06
5.61646957589e-06
2.08792292487e-05
4.61605615542e-07
1.33915299892e-06
3.47308490878e-06
5.29738723133e-06
1.18959258664e-05
3.32762324152e-06
1.98859896581e-06
2.95557693458e-07
1.12167954757e-06
4.29873775066e-07
6.10376509689e-07
2.43940779544e-06
1.91455838095e-06
1.51260177087e-06
8.36234858278e-07
2.50402371817e-06
2.0522856805e-06
1.12482336974e-06
3.25007537179e-07
8.99573795524e-08
7.17853571163e-06
7.43417786215e-07
1.05284319241e-06
4.72639028422e-06
3.46701292213e-06
2.21004994193e-06
1.71411049333e-06
7.40083812884e-06
7.4810293634e-06
4.04990774047e-06
2.00684839013e-07
2.57465357731e-05
8.45068592939e-07
1.56157982026e-05
4.33091253071e-07
7.85579799047e-07
6.26099307208e-07
7.45419324052e-08
4.66070261533e-08
9.82906452431e-08
3.20110336476e-08
3.07773160402e-07
2.67890846844e-07
9.50637366346e-06
1.36214453518e-07
1.26315222419e-07
6.719087182e-06
7.98069899701e-06
5.966473322e-06
5.31726418064e-06
2.88602512748e-07
6.74427304626e-07
4.00382312615e-06
5.33740144137e-07
9.29002079608e-07
6.876833417e-06
3.7266359805e-06
4.87393075909e-06
5.64339042796e-06
5.27179846152e-06
3.38787129066e-06
5.53342658891e-06
5.14571163491e-06
8.24437598511e-06
6.33605574168e-06
6.00949439704e-06
8.82966858431e-06
7.018169142e-06
3.19029165725e-07
4.97989944856e-06
1.06879483857e-06
2.13345461789e-06
7.95260861014e-07
3.89745973447e-07
4.20166087209e-07
2.58286784703e-07
3.65709826492e-08
5.07526713852e-06
1.71831629756e-07
2.72564390341e-06
2.19409006995e-07
2.39977642943e-07
9.88570549495e-07
8.26299425534e-07
2.61829982736e-07
4.01702644722e-07
3.19901094653e-07
1.98239570472e-07
1.21951439462e-07
2.02590266538e-07
3.5485256861e-09
1.41233486315e-05
3.40802017815e-07
1.24540014481e-08
3.80786505073e-08
5.75544370393e-07
6.19501429002e-07
7.70834411956e-08
9.76547572248e-07
2.23651682591e-06
7.60824577721e-07
9.21740430826e-08
8.69318194587e-08
2.00280947405e-06
5.61757533397e-07
1.46126273814e-06
2.28096866307e-06
2.53501293503e-07
4.3466137862e-07
5.43947404631e-07
7.34905066762e-07
6.58099547135e-07
3.09610228206e-06
5.28419783257e-07
4.09805261402e-07
2.50444074354e-06
6.94227590042e-07
1.1882979798e-06
1.68228986193e-06
1.24492720657e-06
2.01707610994e-06
9.63306590168e-06
2.26674628917e-05
1.46565007279e-05
2.10594991852e-06
2.51636177904e-06
2.43238893644e-05
4.26718172196e-05
1.40657126115e-05
3.4662405328e-05
2.58135454897e-05
1.42369657506e-06
2.06843592119e-05
1.38107987022e-05
4.38584204037e-05
4.41779847572e-05
2.08065540145e-05
1.11006449276e-05
1.28836354231e-05
9.07418733024e-06
4.5696099336e-07
1.74243931523e-05
6.20797404058e-06
5.94563924461e-06
7.33359457246e-06
7.63320150928e-06
6.3270300327e-06
6.10266244699e-06
4.35249119374e-06
4.78678968832e-06
5.61980097269e-06
8.49809138225e-06
1.11989270434e-05
1.21793549077e-05
1.60149095592e-05
6.40239813891e-07
5.53694892425e-06
3.99474952907e-06
6.54360390711e-06
4.88887357262e-06
5.52064040192e-06
2.00583156541e-06
1.38156026213e-06
4.14952676663e-08
1.50419308089e-07
2.78182411274e-07
2.55310290505e-07
2.7706855496e-07
1.46428473747e-07
1.0481579446e-06
5.47212555706e-08
1.09263180562e-06
1.60414235662e-07
2.32811854161e-08
1.23251051825e-06
1.10093588039e-07
2.38296587081e-06
6.79273625631e-06
7.95713035049e-06
9.26354419096e-06
1.60123815146e-05
5.78798017803e-09
1.77066298485e-07
7.67295999537e-08
8.55188710974e-09
3.07741117128e-07
3.90694754944e-07
3.56582711914e-08
1.82983341606e-09
9.07231030496e-08
8.37265337905e-08
4.42121141453e-08
1.36971278234e-08
2.71887478421e-06
3.79196568365e-06
5.80542474877e-08
1.04140952173e-07
2.61393796057e-06
7.70780729772e-08
4.89902638812e-08
7.67710636151e-08
2.82908831226e-08
2.98212684112e-06
1.52045773396e-07
1.49747778693e-07
5.4435333289e-08
9.82412033722e-06
2.1561627187e-06
8.43001538361e-06
6.40109206867e-08
1.27076531551e-05
3.32524713725e-07
7.87865033828e-06
7.36125248279e-08
1.63226794803e-06
1.42379268729e-05
1.30258253825e-06
2.17147870519e-06
2.9844820736e-07
2.49581706891e-06
1.35074537692e-06
1.13397684673e-05
2.89827717964e-06
5.6340473872e-06
1.19358508918e-05
3.4083555954e-05
1.76480725468e-05
1.02669043594e-06
7.13202732977e-07
3.3378489975e-07
1.94823720782e-07
2.24384828057e-06
3.02413992458e-06
3.7474612898e-08
7.72556277122e-08
6.09905838242e-07
4.91110461175e-07
2.90914020414e-07
2.9638014243e-07
6.8202039199e-06
8.34758121458e-06
6.06484679863e-07
6.29313198285e-06
2.21139623285e-07
5.25249535373e-08
1.07703685211e-05
5.5154790049e-06
3.67487090712e-07
5.88042279577e-07
2.21147032332e-05
3.10860794134e-06
2.98135691895e-07
2.40718466744e-07
1.30774339649e-07
1.04435722547e-06
7.915267315e-07
5.26234789235e-06
7.91063324193e-06
1.06763463306e-05
9.33570535802e-06
3.24733444593e-06
1.46559964968e-05
3.28925475201e-08
5.35676302095e-08
2.52980721245e-06
4.57700401493e-07
7.74078476771e-07
1.34575598066e-07
1.02149119364e-07
1.23214415628e-07
3.22368683387e-07
1.28180395874e-06
2.43194306306e-06
8.88893489148e-07
1.13329663881e-06
6.31478014018e-07
1.05521521666e-07
9.35094556244e-08
1.22896300621e-05
1.57917565389e-05
9.5079183881e-08
1.01264296859e-07
1.30855425383e-07
1.43880525181e-07
1.34081077957e-07
3.42781384637e-07
9.45486758372e-06
7.04723841173e-06
1.48453066186e-07
6.98364057393e-08
6.93768589335e-08
2.5943990941e-08
5.44084433952e-08
1.69395468803e-07
1.14513993598e-05
5.44167639125e-06
3.17488658327e-08
1.12874683484e-07
1.77113886352e-05
9.45944870195e-07
8.97481455646e-08
1.35421111825e-05
1.04090691985e-06
1.20747954884e-06
2.08145728872e-06
1.29405748959e-07
2.83807755094e-07
1.94050406132e-07
2.68682087672e-06
1.11812382131e-05
4.85605769782e-06
5.69929915199e-08
9.88261886414e-08
1.97806923829e-06
4.90299576908e-07
8.6437737558e-06
5.47038333293e-07
1.54409706337e-07
1.79399642531e-06
1.6910841926e-07
4.14865926676e-07
2.67294369114e-06
2.59763683734e-07
1.94577282713e-07
1.601261744e-07
3.80488715024e-07
5.42803877204e-07
1.4306030964e-06
7.42838483599e-06
8.89947874263e-07
4.84200978117e-07
1.27687806867e-06
9.28249227296e-07
1.55853225856e-06
9.57179942916e-07
2.02816824042e-06
9.22826629291e-07
1.47895978244e-06
3.53069051193e-06
3.86729843359e-06
1.08643363576e-05
1.16991909951e-05
2.78901566598e-06
3.19518065887e-06
2.22955632013e-06
2.79218452725e-06
5.20222515775e-06
1.06538121305e-06
9.37662963116e-07
1.62894579926e-06
2.36389025035e-07
3.58105109123e-06
2.25616839717e-06
5.43381656551e-07
1.2080459925e-06
8.43917574845e-07
2.06461142266e-06
1.73739396794e-06
4.57859492621e-06
1.33902409084e-06
7.61699464786e-07
7.13608570829e-07
2.64550891093e-06
3.94042138816e-08
3.54857598945e-07
5.57638610241e-08
1.69599508417e-06
6.49423268284e-06
1.70379959834e-05
1.66710388714e-06
1.08057457929e-05
5.25278013519e-08
6.7035149924e-06
7.72590928737e-06
5.79606402799e-06
1.52010251572e-08
6.38582295761e-06
1.45325701495e-06
2.41329202476e-06
2.68749196704e-07
3.80388687279e-06
2.92589837009e-06
1.73700768156e-06
9.93357852767e-07
1.16119440873e-06
1.08422038787e-06
2.75387733418e-06
3.69443566726e-06
2.21102528619e-07
1.69691791779e-07
2.49769686572e-07
2.86388217204e-07
4.07573683295e-07
1.99878592129e-07
5.18666599721e-07
4.90727875435e-07
1.90752278608e-07
4.12822825459e-07
8.23672146561e-07
1.32473421786e-06
1.06406247052e-06
1.41461559792e-06
6.95793556405e-06
1.14818605802e-05
7.92467753238e-06
4.98437954632e-07
7.44232834555e-06
1.02882607699e-06
1.12998385048e-06
6.56826581753e-06
1.70415998621e-06
9.653663039e-07
6.11590884856e-07
5.92091433475e-07
3.58445207856e-07
9.73330033802e-08
8.58384550929e-08
1.05686877296e-07
3.10875021333e-06
1.42087958741e-05
1.51562533791e-05
2.89403672912e-05
2.16822360604e-05
2.45478674915e-05
2.72428203491e-05
3.25781747683e-07
1.86796199913e-07
1.97956964736e-07
1.3838133631e-07
1.21292044254e-07
1.32798940319e-07
2.77472343748e-07
5.45502219801e-06
3.97516304882e-07
2.39675225704e-06
4.35020599821e-08
3.57508218634e-08
9.3732049873e-08
9.21557808096e-08
2.36865526503e-08
1.83899293026e-08
1.83442594199e-07
2.43213817958e-07
2.02600248028e-08
4.27542674365e-08
2.74070631275e-06
7.32481106839e-08
2.29718600093e-08
4.71551207475e-07
1.64425454722e-07
1.05573874277e-06
5.34154117713e-07
1.3962496314e-06
2.40728519631e-06
2.87036475933e-07
4.02547867446e-06
9.4022506563e-07
8.53639678304e-07
8.79543808721e-07
7.83616182795e-07
1.28987138571e-06
8.70690627551e-07
7.54725144901e-06
1.09223274549e-05
2.35877042867e-06
3.61859815559e-06
7.21669618106e-07
4.6077256541e-06
2.22324200856e-06
4.4346388025e-07
2.04128397519e-07
2.3809084452e-06
2.81371598559e-07
3.06493056114e-07
4.87656575455e-07
3.4923626827e-08
2.70314697616e-06
3.31491606879e-07
4.51862318536e-07
5.39912023272e-07
3.18817997012e-07
1.22894461911e-07
4.6515343957e-08
7.02458888504e-08
2.92909932136e-06
4.04352375637e-07
3.26833581755e-06
1.77866932922e-06
3.31856887387e-07
1.27101189475e-06
4.084031088e-07
3.17247090246e-06
1.96846466029e-07
4.65806131393e-07
3.86742292289e-07
5.66382331845e-07
4.92855394735e-07
8.68878002406e-07
7.743543414e-07
7.36897685104e-07
9.57401420725e-07
7.23111784277e-06
8.12455199394e-06
4.321899064e-06
4.13269621199e-06
4.82957299813e-06
4.81982889691e-06
5.86515401361e-06
5.86228502541e-06
1.77989997343e-06
5.70183844259e-06
3.09561440888e-06
6.98273943632e-06
8.92437401002e-06
5.16337093001e-06
7.98214914539e-06
6.32922915273e-06
3.43870534742e-06
4.47455948692e-06
1.28914310394e-05
1.3724851908e-05
4.25642583204e-06
6.71426662028e-06
5.35233077832e-06
5.14389251576e-06
5.83318525458e-06
4.30315730054e-06
2.69825264889e-06
3.70100541082e-06
9.16963403073e-08
1.84769483848e-07
4.04055334873e-07
3.17750734527e-07
6.42215100075e-07
3.820869521e-07
8.79791428398e-07
1.00476371339e-06
8.88188883936e-07
1.04374312742e-06
5.3764576949e-07
4.84652430976e-07
5.41339636679e-07
5.91854196244e-07
2.98768604849e-06
2.39394958875e-06
1.05214365439e-07
2.47670587253e-07
1.67271601847e-06
2.93114098319e-06
2.26025136783e-06
4.38294701321e-07
1.56597599918e-07
2.35601207669e-06
2.69428522071e-07
1.5611744437e-07
5.38531335872e-07
2.71360799524e-06
8.73358098964e-07
3.62376222059e-07
4.09342196644e-06
1.54542401278e-06
9.32631846304e-06
4.48384520261e-06
2.57627576376e-06
1.45158634751e-07
6.64657167936e-07
1.59723629028e-07
1.64317547612e-07
8.02198359312e-06
6.92485722732e-07
4.11499753975e-08
2.43739584548e-07
5.71938499882e-07

