# vtk DataFile Version 3.0
File Name: Molecule/sphere_cent/sphere_cent_0-s2.vtk
ASCII
DATASET UNSTRUCTURED_GRID
FIELD FieldData 1
TIME 1 1 double
0.0
POINTS 162 double
0.85065081 -0.52573111 0.0
0.86266848 -0.43388856 -0.25989191
0.96193836 -0.27326653 0.0
0.95105652 -0.16245985 -0.26286556
0.80901699 -0.30901699 -0.5
1.0 0.0 0.0
0.85065081 0.0 -0.52573111
0.95105652 0.16245985 -0.26286556
0.80901699 0.30901699 -0.5
0.69378048 -0.16062203 -0.70204645
0.69378048 0.16062203 -0.70204645
0.52573111 0.0 -0.85065081
0.96193836 0.27326653 0.0
0.86266848 0.43388856 -0.25989191
0.85065081 0.52573111 0.0
0.70204645 0.69378048 -0.16062203
0.68819096 0.58778525 -0.4253254
0.5 0.80901699 -0.30901699
0.58778525 0.4253254 -0.68819096
0.4253254 0.68819096 -0.58778525
0.30901699 0.5 -0.80901699
0.43388856 0.25989191 -0.86266848
0.25989191 0.86266848 -0.43388856
0.16062203 0.70204645 -0.69378048
0.0 0.85065081 -0.52573111
0.70204645 0.69378048 0.16062203
0.52573111 0.85065081 0.0
0.5 0.80901699 0.30901699
0.26286556 0.95105652 -0.16245985
0.26286556 0.95105652 0.16245985
0.0 1.0 0.0
0.0 0.96193836 -0.27326653
0.25989191 0.86266848 0.43388856
0.0 0.96193836 0.27326653
0.0 0.85065081 0.52573111
-0.25989191 0.86266848 0.43388856
-0.26286556 0.95105652 0.16245985
-0.5 0.80901699 0.30901699
-0.26286556 0.95105652 -0.16245985
-0.52573111 0.85065081 0.0
-0.5 0.80901699 -0.30901699
-0.25989191 0.86266848 -0.43388856
-0.70204645 0.69378048 0.16062203
-0.70204645 0.69378048 -0.16062203
-0.85065081 0.52573111 0.0
-0.16062203 0.70204645 0.69378048
-0.4253254 0.68819096 0.58778525
-0.30901699 0.5 0.80901699
-0.68819096 0.58778525 0.4253254
-0.58778525 0.4253254 0.68819096
-0.80901699 0.30901699 0.5
-0.86266848 0.43388856 0.25989191
-0.43388856 0.25989191 0.86266848
-0.69378048 0.16062203 0.70204645
-0.52573111 0.0 0.85065081
0.16062203 0.70204645 0.69378048
0.0 0.52573111 0.85065081
0.30901699 0.5 0.80901699
-0.16245985 0.26286556 0.95105652
0.16245985 0.26286556 0.95105652
0.0 0.0 1.0
-0.27326653 0.0 0.96193836
0.43388856 0.25989191 0.86266848
0.27326653 0.0 0.96193836
0.52573111 0.0 0.85065081
-0.43388856 -0.25989191 0.86266848
-0.16245985 -0.26286556 0.95105652
-0.30901699 -0.5 0.80901699
0.0 -0.52573111 0.85065081
0.16245985 -0.26286556 0.95105652
0.30901699 -0.5 0.80901699
-0.16062203 -0.70204645 0.69378048
0.16062203 -0.70204645 0.69378048
0.0 -0.85065081 0.52573111
0.43388856 -0.25989191 0.86266848
0.69378048 -0.16062203 0.70204645
0.58778525 -0.4253254 0.68819096
0.80901699 -0.30901699 0.5
0.4253254 -0.68819096 0.58778525
0.68819096 -0.58778525 0.4253254
0.5 -0.80901699 0.30901699
0.25989191 -0.86266848 0.43388856
0.86266848 -0.43388856 0.25989191
0.70204645 -0.69378048 0.16062203
0.43388856 -0.25989191 -0.86266848
0.27326653 0.0 -0.96193836
0.16245985 -0.26286556 -0.95105652
0.30901699 -0.5 -0.80901699
0.0 0.0 -1.0
0.0 -0.52573111 -0.85065081
-0.16245985 -0.26286556 -0.95105652
-0.30901699 -0.5 -0.80901699
0.16062203 -0.70204645 -0.69378048
-0.16062203 -0.70204645 -0.69378048
0.0 -0.85065081 -0.52573111
-0.27326653 0.0 -0.96193836
-0.43388856 -0.25989191 -0.86266848
-0.52573111 0.0 -0.85065081
0.95105652 -0.16245985 0.26286556
0.95105652 0.16245985 0.26286556
0.85065081 0.0 0.52573111
0.80901699 0.30901699 0.5
0.86266848 0.43388856 0.25989191
0.69378048 0.16062203 0.70204645
0.68819096 0.58778525 0.4253254
0.4253254 0.68819096 0.58778525
0.58778525 0.4253254 0.68819096
-0.69378048 -0.16062203 -0.70204645
-0.69378048 0.16062203 -0.70204645
-0.85065081 0.0 -0.52573111
-0.80901699 -0.30901699 -0.5
-0.80901699 0.30901699 -0.5
-0.95105652 -0.16245985 -0.26286556
-0.95105652 0.16245985 -0.26286556
-1.0 0.0 0.0
-0.86266848 -0.43388856 -0.25989191
-0.96193836 -0.27326653 0.0
-0.85065081 -0.52573111 0.0
-0.86266848 0.43388856 -0.25989191
-0.96193836 0.27326653 0.0
-0.16062203 0.70204645 -0.69378048
-0.4253254 0.68819096 -0.58778525
-0.30901699 0.5 -0.80901699
-0.58778525 0.4253254 -0.68819096
-0.68819096 0.58778525 -0.4253254
-0.43388856 0.25989191 -0.86266848
-0.70204645 -0.69378048 -0.16062203
-0.70204645 -0.69378048 0.16062203
-0.52573111 -0.85065081 0.0
-0.5 -0.80901699 -0.30901699
-0.5 -0.80901699 0.30901699
-0.26286556 -0.95105652 -0.16245985
-0.26286556 -0.95105652 0.16245985
0.0 -1.0 0.0
-0.25989191 -0.86266848 -0.43388856
0.0 -0.96193836 -0.27326653
-0.25989191 -0.86266848 0.43388856
0.0 -0.96193836 0.27326653
-0.86266848 -0.43388856 0.25989191
-0.68819096 -0.58778525 0.4253254
-0.80901699 -0.30901699 0.5
-0.4253254 -0.68819096 0.58778525
-0.58778525 -0.4253254 0.68819096
-0.69378048 -0.16062203 0.70204645
-0.85065081 0.0 0.52573111
-0.95105652 0.16245985 0.26286556
-0.95105652 -0.16245985 0.26286556
-0.58778525 -0.4253254 -0.68819096
-0.4253254 -0.68819096 -0.58778525
-0.68819096 -0.58778525 -0.4253254
0.25989191 -0.86266848 -0.43388856
0.26286556 -0.95105652 -0.16245985
0.5 -0.80901699 -0.30901699
0.52573111 -0.85065081 0.0
0.26286556 -0.95105652 0.16245985
0.70204645 -0.69378048 -0.16062203
0.58778525 -0.4253254 -0.68819096
0.68819096 -0.58778525 -0.4253254
0.4253254 -0.68819096 -0.58778525
0.16245985 0.26286556 -0.95105652
-0.16245985 0.26286556 -0.95105652
0.0 0.52573111 -0.85065081

CELLS 320 1280
3 0 1 2
3 1 3 2
3 1 4 3
3 2 3 5
3 4 6 3
3 6 7 3
3 6 8 7
3 3 7 5
3 4 9 6
3 9 10 6
3 9 11 10
3 6 10 8
3 5 7 12
3 7 13 12
3 7 8 13
3 12 13 14
3 14 13 15
3 13 16 15
3 13 8 16
3 15 16 17
3 8 18 16
3 18 19 16
3 18 20 19
3 16 19 17
3 8 10 18
3 10 21 18
3 10 11 21
3 18 21 20
3 17 19 22
3 19 23 22
3 19 20 23
3 22 23 24
3 14 15 25
3 15 26 25
3 15 17 26
3 25 26 27
3 17 28 26
3 28 29 26
3 28 30 29
3 26 29 27
3 17 22 28
3 22 31 28
3 22 24 31
3 28 31 30
3 27 29 32
3 29 33 32
3 29 30 33
3 32 33 34
3 34 33 35
3 33 36 35
3 33 30 36
3 35 36 37
3 30 38 36
3 38 39 36
3 38 40 39
3 36 39 37
3 30 31 38
3 31 41 38
3 31 24 41
3 38 41 40
3 37 39 42
3 39 43 42
3 39 40 43
3 42 43 44
3 34 35 45
3 35 46 45
3 35 37 46
3 45 46 47
3 37 48 46
3 48 49 46
3 48 50 49
3 46 49 47
3 37 42 48
3 42 51 48
3 42 44 51
3 48 51 50
3 47 49 52
3 49 53 52
3 49 50 53
3 52 53 54
3 34 45 55
3 45 56 55
3 45 47 56
3 55 56 57
3 47 58 56
3 58 59 56
3 58 60 59
3 56 59 57
3 47 52 58
3 52 61 58
3 52 54 61
3 58 61 60
3 57 59 62
3 59 63 62
3 59 60 63
3 62 63 64
3 54 65 61
3 65 66 61
3 65 67 66
3 61 66 60
3 67 68 66
3 68 69 66
3 68 70 69
3 66 69 60
3 67 71 68
3 71 72 68
3 71 73 72
3 68 72 70
3 60 69 63
3 69 74 63
3 69 70 74
3 63 74 64
3 64 74 75
3 74 76 75
3 74 70 76
3 75 76 77
3 70 78 76
3 78 79 76
3 78 80 79
3 76 79 77
3 70 72 78
3 72 81 78
3 72 73 81
3 78 81 80
3 77 79 82
3 79 83 82
3 79 80 83
3 82 83 0
3 11 84 85
3 84 86 85
3 84 87 86
3 85 86 88
3 87 89 86
3 89 90 86
3 89 91 90
3 86 90 88
3 87 92 89
3 92 93 89
3 92 94 93
3 89 93 91
3 88 90 95
3 90 96 95
3 90 91 96
3 95 96 97
3 0 2 82
3 2 98 82
3 2 5 98
3 82 98 77
3 5 99 98
3 99 100 98
3 99 101 100
3 98 100 77
3 5 12 99
3 12 102 99
3 12 14 102
3 99 102 101
3 77 100 75
3 100 103 75
3 100 101 103
3 75 103 64
3 14 25 102
3 25 104 102
3 25 27 104
3 102 104 101
3 27 105 104
3 105 106 104
3 105 57 106
3 104 106 101
3 27 32 105
3 32 55 105
3 32 34 55
3 105 55 57
3 101 106 103
3 106 62 103
3 106 57 62
3 103 62 64
3 97 107 108
3 107 109 108
3 107 110 109
3 108 109 111
3 110 112 109
3 112 113 109
3 112 114 113
3 109 113 111
3 110 115 112
3 115 116 112
3 115 117 116
3 112 116 114
3 111 113 118
3 113 119 118
3 113 114 119
3 118 119 44
3 24 120 41
3 120 121 41
3 120 122 121
3 41 121 40
3 122 123 121
3 123 124 121
3 123 111 124
3 121 124 40
3 122 125 123
3 125 108 123
3 125 97 108
3 123 108 111
3 40 124 43
3 124 118 43
3 124 111 118
3 43 118 44
3 117 126 127
3 126 128 127
3 126 129 128
3 127 128 130
3 129 131 128
3 131 132 128
3 131 133 132
3 128 132 130
3 129 134 131
3 134 135 131
3 134 94 135
3 131 135 133
3 130 132 136
3 132 137 136
3 132 133 137
3 136 137 73
3 117 127 138
3 127 139 138
3 127 130 139
3 138 139 140
3 130 141 139
3 141 142 139
3 141 67 142
3 139 142 140
3 130 136 141
3 136 71 141
3 136 73 71
3 141 71 67
3 140 142 143
3 142 65 143
3 142 67 65
3 143 65 54
3 54 53 143
3 53 144 143
3 53 50 144
3 143 144 140
3 50 145 144
3 145 146 144
3 145 114 146
3 144 146 140
3 50 51 145
3 51 119 145
3 51 44 119
3 145 119 114
3 140 146 138
3 146 116 138
3 146 114 116
3 138 116 117
3 97 96 107
3 96 147 107
3 96 91 147
3 107 147 110
3 91 148 147
3 148 149 147
3 148 129 149
3 147 149 110
3 91 93 148
3 93 134 148
3 93 94 134
3 148 134 129
3 110 149 115
3 149 126 115
3 149 129 126
3 115 126 117
3 94 150 135
3 150 151 135
3 150 152 151
3 135 151 133
3 152 153 151
3 153 154 151
3 153 80 154
3 151 154 133
3 152 155 153
3 155 83 153
3 155 0 83
3 153 83 80
3 133 154 137
3 154 81 137
3 154 80 81
3 137 81 73
3 11 9 84
3 9 156 84
3 9 4 156
3 84 156 87
3 4 157 156
3 157 158 156
3 157 152 158
3 156 158 87
3 4 1 157
3 1 155 157
3 1 0 155
3 157 155 152
3 87 158 92
3 158 150 92
3 158 152 150
3 92 150 94
3 11 85 21
3 85 159 21
3 85 88 159
3 21 159 20
3 88 160 159
3 160 161 159
3 160 122 161
3 159 161 20
3 88 95 160
3 95 125 160
3 95 97 125
3 160 125 122
3 20 161 23
3 161 120 23
3 161 122 120
3 23 120 24

CELL_TYPES 320
5
5
5
5
5
5
5
5
5
5
5
5
5
5
5
5
5
5
5
5
5
5
5
5
5
5
5
5
5
5
5
5
5
5
5
5
5
5
5
5
5
5
5
5
5
5
5
5
5
5
5
5
5
5
5
5
5
5
5
5
5
5
5
5
5
5
5
5
5
5
5
5
5
5
5
5
5
5
5
5
5
5
5
5
5
5
5
5
5
5
5
5
5
5
5
5
5
5
5
5
5
5
5
5
5
5
5
5
5
5
5
5
5
5
5
5
5
5
5
5
5
5
5
5
5
5
5
5
5
5
5
5
5
5
5
5
5
5
5
5
5
5
5
5
5
5
5
5
5
5
5
5
5
5
5
5
5
5
5
5
5
5
5
5
5
5
5
5
5
5
5
5
5
5
5
5
5
5
5
5
5
5
5
5
5
5
5
5
5
5
5
5
5
5
5
5
5
5
5
5
5
5
5
5
5
5
5
5
5
5
5
5
5
5
5
5
5
5
5
5
5
5
5
5
5
5
5
5
5
5
5
5
5
5
5
5
5
5
5
5
5
5
5
5
5
5
5
5
5
5
5
5
5
5
5
5
5
5
5
5
5
5
5
5
5
5
5
5
5
5
5
5
5
5
5
5
5
5
5
5
5
5
5
5
5
5
5
5
5
5
5
5
5
5
5
5
5
5
5
5
5
5
5
5
5
5
5
5
5
5
5
5
5
5
5
5
5
5
5
5

CELL_DATA 320
SCALARS cell_data_0 double
LOOKUP_TABLE default
1.97510959328e-08
6.77131983939e-08
5.30462079257e-09
2.90738966959e-09
2.14135401789e-07
1.94643148818e-07
1.53499857116e-07
1.55865230616e-07
1.59438379382e-08
3.27404013543e-09
9.09049240038e-08
5.64594250281e-08
1.08596662199e-07
4.94344660112e-08
6.42233417394e-08
4.66446777031e-08
3.23947217725e-09
5.56609394165e-08
1.36906038344e-08
8.60120137784e-09
2.11256694339e-07
2.5614667491e-07
1.53207644181e-07
2.14620919544e-07
5.78264393782e-08
9.17547545156e-09
8.389673029e-08
6.17713205819e-08
5.48553701538e-08
8.22308789847e-09
6.25829147945e-08
4.08394199516e-08
3.92156432685e-08
4.2097746816e-08
5.97122450857e-08
1.17750889419e-07
1.42038611334e-07
1.79708130964e-07
1.41235115694e-07
1.39423410226e-07
6.55044652512e-08
5.06919504823e-09
3.3388475832e-08
6.47939219367e-08
1.73047285844e-08
6.4383160596e-08
5.7920981824e-08
1.98667980132e-08
1.84049409028e-08
1.32171902573e-08
1.06285740534e-07
1.1074865577e-07
8.33982122328e-08
1.21261207266e-07
1.34102275065e-07
3.28387177329e-08
6.5694347018e-08
9.05322423399e-10
3.64704685803e-08
7.71325480271e-08
1.16250073457e-07
3.1916994007e-09
6.71176867039e-08
9.40248340331e-09
1.46499646517e-08
6.63954543684e-08
5.52274400798e-08
3.28677866324e-09
1.58015246794e-07
2.60274087462e-07
2.09084308617e-07
2.17145295228e-07
6.56186556241e-08
3.54800474733e-09
4.00332803255e-08
6.03874127644e-08
1.38147853643e-08
6.28986833123e-09
5.89326700117e-08
4.31956752533e-08
3.3942492676e-08
9.22159542446e-10
1.72512400508e-08
6.87224152624e-08
2.00685223598e-07
2.40238876529e-07
2.13460366115e-07
1.97135122727e-07
1.38372860888e-08
5.87415916153e-08
6.81219449927e-09
2.53100175024e-09
1.14331774098e-08
6.17460959022e-08
5.06397127227e-09
1.03406734019e-08
3.70665935661e-08
6.29130917329e-09
6.70095272759e-08
8.7739283095e-09
1.9209759588e-07
1.72472351328e-07
8.12045445575e-08
1.47194919108e-07
6.81763953294e-08
2.55516223004e-09
3.45581700542e-08
7.18255642713e-08
5.51070529537e-08
9.74524998968e-09
1.11712673052e-07
1.0229971542e-08
1.03882467069e-08
6.87250667972e-08
5.46345470936e-08
8.84005654295e-09
1.56498880429e-07
2.57949342787e-07
1.4968571989e-07
2.07835008076e-07
6.49814704345e-08
6.1050603361e-08
1.93035883223e-08
5.54571026207e-08
6.62115595914e-08
4.41970791072e-08
1.11886280252e-07
8.26661852534e-08
9.01733971532e-08
3.94358747706e-09
1.10790231278e-07
2.3214018905e-08
1.48025900985e-07
1.89232864719e-07
1.48998207178e-07
1.41639722135e-07
1.1274281444e-07
4.25583258105e-08
1.35319737333e-07
5.9753939256e-08
6.5577348306e-08
1.12486595927e-08
6.01428530937e-08
3.2562684407e-08
3.04659327484e-08
4.18840428785e-08
5.75168039772e-08
1.16920107906e-07
1.43546315058e-07
1.72734555446e-07
1.94075520079e-07
1.34545866752e-07
6.39349116809e-08
4.7638573058e-08
8.92064991565e-08
6.49283280824e-08
2.07335523246e-08
3.41323187882e-09
6.67091659888e-08
4.00397059306e-08
8.9222871419e-08
4.84489274385e-08
7.32538721356e-08
6.56761209658e-08
1.91010836669e-07
2.4040161026e-07
2.05609641708e-07
2.00185054676e-07
1.75072595729e-08
8.74798219503e-09
3.30333161914e-08
6.21052156352e-08
6.0822961446e-08
8.78809305716e-09
1.08938047361e-08
4.07611327061e-08
3.00796446698e-08
6.78753198994e-08
2.41744124234e-09
5.26623665422e-09
2.11037326402e-07
1.90836990477e-07
1.4851910355e-07
1.55851669244e-07
1.54958921242e-08
3.7976124555e-09
4.00285076465e-08
6.01476012248e-08
1.06248530136e-07
4.21788616134e-08
6.08861855192e-08
3.25210043714e-08
3.6907141887e-08
6.92376953054e-09
6.0360874464e-08
7.09129903952e-08
8.84437372578e-08
1.80485911211e-07
1.46619128177e-07
1.92097595309e-07
1.18728964364e-07
1.23487058997e-09
4.22367834585e-08
5.72848711505e-08
2.38933140499e-08
3.081071581e-09
6.1715918518e-08
3.33771368755e-08
8.2467132346e-08
4.78722607006e-08
7.41973133355e-08
1.15138114477e-07
1.91184371248e-07
2.41020896428e-07
1.48090440315e-07
1.41239977246e-07
1.80662178252e-08
5.80818352263e-08
3.73564624951e-08
6.33187581629e-08
6.01016488824e-08
1.02358785677e-08
1.10256907775e-07
2.87784278083e-08
3.816999674e-08
4.57485376019e-08
1.58265860373e-07
7.36341945444e-08
3.07513827447e-08
1.27679753662e-07
1.47545096663e-07
1.41131470534e-07
1.11175725679e-07
4.32629763962e-08
2.94183419859e-08
1.12730193951e-07
6.67271571673e-08
4.07413596208e-08
6.08746579443e-08
8.79267189069e-08
8.69619617202e-08
9.39484301961e-08
1.1122217733e-07
1.18848143951e-07
8.83740407535e-08
6.07941028379e-08
8.75851103241e-08
7.66584037865e-08
1.11390743687e-07
4.26514583461e-08
3.36841045174e-08
6.02324047187e-08
7.65286486761e-08
5.08250513504e-08
1.12746023189e-07
4.00421412818e-08
2.90875133161e-08
1.49560826734e-08
6.02205706862e-08
5.44641992808e-08
9.01852748044e-08
1.25082315536e-07
1.4067694821e-07
1.48193142805e-07
1.0978059953e-07
4.23722893783e-08
8.53024848479e-08
6.65319439971e-08
1.69493724547e-08
5.69034867837e-10
6.8762516971e-08
4.15758230174e-08
8.71194005952e-08
3.37297286827e-09
6.48262788979e-08
6.6117871272e-08
1.42308402149e-07
1.21956451135e-07
3.0689119526e-08
8.70417674549e-08
6.33868920765e-08
4.65880501182e-08
3.38848897335e-08
1.64010235247e-07
1.5956052687e-07
3.62500775378e-08
1.0471876104e-07
2.47591501335e-08
8.99546867336e-08
5.00200156864e-08
6.79933659999e-08
1.63449049718e-07
8.96188848418e-08
6.15231685733e-08
8.85227182822e-08
2.50981319478e-08
5.89367409347e-08
9.17924528391e-09
1.69395431119e-08
6.13785156706e-08
1.65154768487e-07
9.7593883808e-08
1.1276232983e-07
1.3596645274e-07
4.12516558887e-08
1.90371637643e-09
7.44064499214e-08
1.11936971723e-07
8.07161018026e-08
6.25191589719e-08
2.84404969928e-08
2.85128259885e-08
6.60546118389e-08
3.08947553032e-09
3.99549050013e-08
1.19259499322e-07
1.18127336406e-07
3.87032480901e-09
1.10515449539e-07
9.55872842158e-09

