# vtk DataFile Version 3.0
File Name: Molecule/sphere_dip_sim/sphere_dip_sim_0-s4.vtk
ASCII
DATASET UNSTRUCTURED_GRID
FIELD FieldData 1
TIME 1 1 double
0.0
POINTS 24 double
0.0 0.850650808352 0.525731112119
0.0 0.850650808352 -0.525731112119
-0.850650808352 0.525731112119 0.0
-0.525731112119 0.0 0.850650808352
0.0 -0.850650808352 0.525731112119
0.525731112119 0.0 0.850650808352
0.850650808352 -0.525731112119 0.0
0.525731112119 0.0 -0.850650808352
0.0 -0.850650808352 -0.525731112119
-0.525731112119 0.0 -0.850650808352
-0.688190960236 -0.26286555606 -0.425325404176
-0.688190960236 0.26286555606 -0.425325404176
-0.850650808352 0.0 0.0
-0.850650808352 -0.525731112119 0.0
-0.425325404176 -0.688190960236 -0.26286555606
-0.425325404176 -0.688190960236 0.26286555606
0.0 -0.850650808352 0.0
0.688190960236 -0.26286555606 -0.425325404176
0.850650808352 0.0 0.0
0.688190960236 0.26286555606 -0.425325404176
0.850650808352 0.525731112119 0.0
0.425325404176 0.688190960236 0.26286555606
0.26286555606 0.425325404176 0.688190960236
0.688190960236 0.26286555606 0.425325404176

CELLS 44 176
3 0 1 2
3 0 2 3
3 3 4 5
3 5 4 6
3 7 8 9
3 7 9 1
3 9 10 11
3 10 12 11
3 10 13 12
3 11 12 2
3 9 11 1
3 1 11 2
3 2 12 3
3 3 12 13
3 9 10 8
3 13 14 15
3 14 16 15
3 14 8 16
3 15 16 4
3 13 15 3
3 15 4 3
3 4 16 6
3 8 16 6
3 8 14 10
3 13 14 10
3 6 17 18
3 17 19 18
3 17 7 19
3 18 19 20
3 20 19 1
3 19 7 1
3 6 18 5
3 7 17 8
3 17 6 8
3 0 21 1
3 20 21 1
3 5 22 3
3 0 22 3
3 20 21 23
3 21 22 23
3 21 0 22
3 23 22 5
3 20 23 18
3 18 23 5

CELL_TYPES 44
5
5
5
5
5
5
5
5
5
5
5
5
5
5
5
5
5
5
5
5
5
5
5
5
5
5
5
5
5
5
5
5
5
5
5
5
5
5
5
5
5
5
5
5

CELL_DATA 44
SCALARS cell_data_0 double
LOOKUP_TABLE default
0.00113265512226
0.00183430933907
0.00104446385662
0.000144174287464
0.000728874107878
0.000992345722185
5.05409049673e-05
4.50453963636e-05
9.89981926688e-06
0.000289953954977
1.18400590314e-06
0.000312626860236
0.0012756820133
0.000467862483553
4.73575977895e-05
1.25094198336e-05
1.3214720342e-05
0.000180267916423
4.04408701728e-05
0.000386656648488
0.000112489583055
4.71038496833e-05
0.000605294911095
0.000101754058382
5.40885828682e-05
2.44301585111e-05
4.1609046673e-05
0.000114744565527
3.74893011448e-05
0.00012413291592
5.97039026754e-05
1.17603951857e-07
0.000697019985678
0.000265704736002
5.58524835398e-06
8.43605159541e-05
0.000729915245464
9.90553211636e-05
4.69525565297e-05
6.83665535763e-05
0.000139801341694
7.33578682142e-05
3.35988296254e-06
3.85491211237e-05

