# vtk DataFile Version 3.0
File Name: Molecule/methanol/methanol_5.0-0.vtk
ASCII
DATASET UNSTRUCTURED_GRID
FIELD FieldData 1
TIME 1 1 double
0.0
POINTS 240 double
1.611 0.0 -0.359
1.543 -0.475 -0.352
1.403 0.0 -0.933
1.341 -0.432 -0.927
1.345 -0.911 -0.332
1.16 -0.83 -0.909
1.032 -1.273 -0.301
0.876 -1.16 -0.88
0.631 -1.532 -0.261
0.51 -1.396 -0.844
0.173 -1.667 -0.216
0.093 -1.519 -0.802
-0.304 -1.667 -0.168
-0.341 -1.519 -0.759
-0.762 -1.532 -0.123
-0.758 -1.396 -0.718
-1.163 -1.273 -0.083
-1.124 -1.16 -0.681
-1.475 -0.911 -0.051
-1.408 -0.83 -0.653
-1.674 -0.475 -0.032
-1.589 -0.432 -0.635
-1.742 -0.0 -0.025
-1.651 -0.0 -0.629
-1.674 0.475 -0.032
-1.589 0.432 -0.635
-1.475 0.911 -0.051
-1.408 0.83 -0.653
-1.163 1.273 -0.083
-1.124 1.16 -0.681
-0.762 1.532 -0.123
-0.758 1.396 -0.718
-0.304 1.667 -0.168
-0.341 1.519 -0.759
0.173 1.667 -0.216
0.093 1.519 -0.802
0.631 1.532 -0.261
0.51 1.396 -0.844
1.032 1.273 -0.301
0.876 1.16 -0.88
1.345 0.911 -0.332
1.16 0.83 -0.909
1.543 0.475 -0.352
1.341 0.432 -0.927
1.907 0.0 0.656
1.852 0.452 0.656
1.852 0.226 1.047
1.852 -0.226 1.047
1.852 -0.452 0.656
1.852 -0.226 0.264
1.852 0.226 0.264
1.69 0.76 1.094
1.69 0.439 1.415
1.69 -0.0 1.533
1.69 -0.439 1.415
1.69 -0.76 1.094
1.69 -0.877 0.656
1.69 -0.76 0.217
1.69 -0.439 -0.104
1.69 0.439 -0.104
1.69 0.76 0.217
1.69 0.877 0.656
1.432 1.167 1.108
1.432 0.925 1.499
1.432 0.558 1.776
1.432 0.115 1.902
1.432 -0.343 1.859
1.432 -0.754 1.654
1.432 -1.064 1.315
1.432 -1.23 0.886
1.432 -1.23 0.426
1.432 -1.064 -0.003
1.432 1.167 0.203
1.432 1.252 0.656
1.091 1.484 1.113
1.091 1.283 1.531
1.091 0.969 1.87
1.091 0.568 2.102
1.091 0.116 2.205
1.091 -0.346 2.17
1.091 -0.777 2.001
1.091 -1.139 1.712
1.091 -1.4 1.33
1.091 -1.536 0.887
1.091 -1.536 0.424
1.091 -1.4 -0.018
1.091 1.484 0.198
1.091 1.553 0.656
0.688 1.705 1.112
0.688 1.528 1.538
0.688 1.248 1.904
0.688 0.882 2.184
0.688 0.457 2.36
0.688 0.0 2.42
0.688 -0.457 2.36
0.688 -0.882 2.184
0.688 -1.248 1.904
0.688 -1.528 1.538
0.688 -1.705 1.112
0.688 -1.765 0.656
0.688 -1.705 0.199
0.688 1.705 0.199
0.688 1.765 0.656
0.247 1.815 1.122
0.247 1.642 1.558
0.247 1.366 1.938
0.247 1.004 2.238
0.247 0.579 2.438
0.247 0.118 2.526
0.247 -0.351 2.496
0.247 -0.798 2.351
0.247 -1.194 2.099
0.247 -1.516 1.757
0.247 -1.742 1.345
0.247 -1.859 0.89
0.247 -1.859 0.421
0.247 1.815 0.19
0.247 1.874 0.656
-0.209 1.815 1.122
-0.209 1.642 1.558
-0.209 1.366 1.938
-0.209 1.004 2.238
-0.209 0.579 2.438
-0.209 0.118 2.526
-0.209 -0.351 2.496
-0.209 -0.798 2.351
-0.209 -1.194 2.099
-0.209 -1.516 1.757
-0.209 -1.742 1.345
-0.209 -1.859 0.89
-0.209 -1.859 0.421
-0.209 1.815 0.19
-0.209 1.874 0.656
-0.65 1.765 0.656
-0.65 1.705 1.112
-0.65 1.528 1.538
-0.65 1.248 1.904
-0.65 0.882 2.184
-0.65 0.457 2.36
-0.65 0.0 2.42
-0.65 -0.457 2.36
-0.65 -0.882 2.184
-0.65 -1.248 1.904
-0.65 -1.528 1.538
-0.65 -1.705 1.112
-0.65 -1.765 0.656
-0.65 -1.705 0.199
-0.65 1.705 0.199
-1.053 1.553 0.656
-1.053 1.484 1.113
-1.053 1.283 1.531
-1.053 0.969 1.87
-1.053 0.568 2.102
-1.053 0.116 2.205
-1.053 -0.346 2.17
-1.053 -0.777 2.001
-1.053 -1.139 1.712
-1.053 -1.4 1.33
-1.053 -1.536 0.887
-1.053 -1.536 0.424
-1.053 1.484 0.198
-1.394 1.252 0.656
-1.394 1.167 1.108
-1.394 0.925 1.499
-1.394 0.558 1.776
-1.394 0.115 1.902
-1.394 -0.343 1.859
-1.394 -0.754 1.654
-1.394 -1.064 1.315
-1.394 -1.23 0.886
-1.394 -1.23 0.426
-1.394 1.167 0.203
-1.652 0.877 0.656
-1.652 0.76 1.094
-1.652 0.439 1.415
-1.652 -0.0 1.533
-1.652 -0.439 1.415
-1.652 -0.76 1.094
-1.652 -0.877 0.656
-1.652 -0.76 0.217
-1.652 0.76 0.217
-1.814 0.452 0.656
-1.814 0.226 1.047
-1.814 -0.226 1.047
-1.814 -0.452 0.656
-1.814 -0.226 0.264
-1.814 0.226 0.264
-1.868 -0.0 0.656
1.122 -0.781 -1.188
0.783 -1.147 -1.212
0.783 -0.878 -1.615
1.122 -0.451 -1.519
0.783 -0.475 -1.885
1.122 -0.0 -1.639
0.783 0.0 -1.979
0.783 0.475 -1.885
1.122 0.451 -1.519
0.783 0.878 -1.615
1.122 0.781 -1.188
0.783 1.147 -1.212
0.355 -1.284 -1.432
0.355 -0.989 -1.811
0.355 -0.586 -2.074
0.355 -0.121 -2.192
0.355 0.358 -2.152
0.355 0.798 -1.959
0.355 1.152 -1.634
0.355 1.381 -1.211
-0.12 -1.383 -1.403
-0.12 -1.125 -1.781
-0.12 -0.767 -2.067
-0.12 -0.342 -2.234
-0.12 0.115 -2.268
-0.12 0.561 -2.166
-0.12 0.957 -1.937
-0.12 1.268 -1.602
-0.12 1.467 -1.19
-0.594 -1.44 -0.977
-0.594 -1.284 -1.432
-0.594 -0.989 -1.811
-0.594 -0.586 -2.074
-0.594 -0.121 -2.192
-0.594 0.358 -2.152
-0.594 0.798 -1.959
-0.594 1.152 -1.634
-0.594 1.381 -1.211
-1.022 -1.147 -1.212
-1.022 -0.878 -1.615
-1.022 -0.475 -1.885
-1.022 0.0 -1.979
-1.022 0.475 -1.885
-1.022 0.878 -1.615
-1.022 1.147 -1.212
-1.362 -0.781 -1.188
-1.362 -0.451 -1.519
-1.362 -0.0 -1.639
-1.362 0.451 -1.519
-1.362 0.781 -1.188
-1.58 -0.237 -1.148
-1.58 0.237 -1.148

CELLS 476 1904
3 0 1 2
3 2 1 3
3 1 4 3
3 3 4 5
3 4 6 5
3 5 6 7
3 6 8 7
3 7 8 9
3 8 10 9
3 9 10 11
3 10 12 11
3 11 12 13
3 12 14 13
3 13 14 15
3 14 16 15
3 15 16 17
3 16 18 17
3 17 18 19
3 18 20 19
3 19 20 21
3 20 22 21
3 21 22 23
3 22 24 23
3 23 24 25
3 24 26 25
3 25 26 27
3 26 28 27
3 27 28 29
3 28 30 29
3 29 30 31
3 30 32 31
3 31 32 33
3 32 34 33
3 33 34 35
3 34 36 35
3 35 36 37
3 36 38 37
3 37 38 39
3 38 40 39
3 39 40 41
3 40 42 41
3 41 42 43
3 42 0 43
3 43 0 2
3 44 45 46
3 44 46 47
3 44 47 48
3 44 48 49
3 44 49 50
3 44 50 45
3 46 45 51
3 46 51 52
3 46 52 53
3 47 46 53
3 47 53 54
3 47 54 55
3 48 47 55
3 48 55 56
3 48 56 57
3 49 48 57
3 49 57 58
3 50 59 60
3 45 50 60
3 45 60 61
3 45 61 51
3 51 61 62
3 51 62 63
3 52 51 63
3 52 63 64
3 52 64 65
3 53 52 65
3 53 65 66
3 54 53 66
3 54 66 67
3 55 54 67
3 55 67 68
3 55 68 69
3 56 55 69
3 56 69 70
3 57 56 70
3 57 70 71
3 61 60 72
3 61 72 73
3 61 73 62
3 62 73 74
3 62 74 75
3 63 62 75
3 63 75 76
3 64 63 76
3 64 76 77
3 65 64 77
3 65 77 78
3 65 78 79
3 66 65 79
3 66 79 80
3 67 66 80
3 67 80 81
3 68 67 81
3 68 81 82
3 69 68 82
3 69 82 83
3 69 83 84
3 70 69 84
3 70 84 85
3 71 70 85
3 73 72 86
3 73 86 87
3 73 87 74
3 74 87 88
3 74 88 89
3 75 74 89
3 75 89 90
3 76 75 90
3 76 90 91
3 77 76 91
3 77 91 92
3 78 77 92
3 78 92 93
3 79 78 93
3 79 93 94
3 80 79 94
3 80 94 95
3 80 95 96
3 81 80 96
3 81 96 97
3 82 81 97
3 82 97 98
3 83 82 98
3 83 98 99
3 84 83 99
3 84 99 100
3 85 84 100
3 87 86 101
3 87 101 102
3 87 102 88
3 88 102 103
3 88 103 104
3 89 88 104
3 89 104 105
3 90 89 105
3 90 105 106
3 91 90 106
3 91 106 107
3 92 91 107
3 92 107 108
3 93 92 108
3 93 108 109
3 94 93 109
3 94 109 110
3 95 94 110
3 95 110 111
3 96 95 111
3 96 111 112
3 97 96 112
3 97 112 113
3 98 97 113
3 98 113 114
3 99 98 114
3 99 114 115
3 100 99 115
3 102 101 116
3 102 116 117
3 102 117 103
3 103 117 118
3 103 118 119
3 104 103 119
3 104 119 120
3 105 104 120
3 105 120 121
3 106 105 121
3 106 121 122
3 107 106 122
3 107 122 123
3 108 107 123
3 108 123 124
3 109 108 124
3 109 124 125
3 110 109 125
3 110 125 126
3 111 110 126
3 111 126 127
3 112 111 127
3 112 127 128
3 113 112 128
3 113 128 129
3 114 113 129
3 114 129 130
3 115 114 130
3 117 116 131
3 117 131 132
3 117 132 118
3 118 132 133
3 118 133 134
3 119 118 134
3 119 134 135
3 120 119 135
3 120 135 136
3 121 120 136
3 121 136 137
3 122 121 137
3 122 137 138
3 123 122 138
3 123 138 139
3 124 123 139
3 124 139 140
3 125 124 140
3 125 140 141
3 126 125 141
3 126 141 142
3 127 126 142
3 127 142 143
3 128 127 143
3 128 143 144
3 129 128 144
3 129 144 145
3 130 129 145
3 130 145 146
3 133 131 147
3 132 131 133
3 134 133 148
3 134 148 149
3 135 134 149
3 135 149 150
3 136 135 150
3 136 150 151
3 137 136 151
3 137 151 152
3 138 137 152
3 138 152 153
3 139 138 153
3 139 153 154
3 140 139 154
3 140 154 155
3 141 140 155
3 142 141 155
3 142 155 156
3 143 142 156
3 143 156 157
3 144 143 157
3 144 157 158
3 145 144 158
3 145 158 159
3 146 145 159
3 148 147 160
3 133 147 148
3 149 148 161
3 149 161 162
3 150 149 162
3 150 162 163
3 151 150 163
3 151 163 164
3 152 151 164
3 152 164 165
3 153 152 165
3 154 153 165
3 154 165 166
3 155 154 166
3 155 166 167
3 156 155 167
3 156 167 168
3 157 156 168
3 157 168 169
3 158 157 169
3 158 169 170
3 159 158 170
3 161 160 171
3 148 160 161
3 162 161 172
3 162 172 173
3 163 162 173
3 163 173 174
3 164 163 174
3 165 164 174
3 165 174 175
3 166 165 175
3 166 175 176
3 167 166 176
3 167 176 177
3 168 167 177
3 169 168 177
3 169 177 178
3 170 169 178
3 170 178 179
3 172 171 180
3 161 171 172
3 173 172 181
3 173 181 182
3 174 173 182
3 175 174 182
3 175 182 183
3 176 175 183
3 177 176 183
3 177 183 184
3 178 177 184
3 179 178 184
3 179 184 185
3 181 180 186
3 172 180 181
3 182 181 187
3 183 182 187
3 184 183 187
3 185 184 187
3 186 185 187
3 181 186 187
3 186 180 24
3 186 24 22
3 186 22 185
3 185 22 20
3 185 20 179
3 179 20 18
3 179 18 170
3 170 18 16
3 170 16 159
3 159 16 14
3 159 14 146
3 146 14 12
3 146 12 130
3 130 12 10
3 130 10 115
3 115 10 100
3 100 10 8
3 100 8 85
3 85 8 6
3 85 6 71
3 71 6 4
3 71 4 58
3 71 58 57
3 58 4 1
3 58 1 0
3 58 0 49
3 49 0 50
3 50 0 59
3 59 0 42
3 59 42 40
3 59 40 60
3 60 40 72
3 72 40 38
3 72 38 86
3 86 38 36
3 86 36 101
3 101 36 116
3 116 36 34
3 116 34 131
3 131 34 32
3 131 32 147
3 147 32 30
3 147 30 160
3 160 30 28
3 160 28 171
3 171 28 26
3 171 26 180
3 180 26 24
3 188 189 190
3 191 188 190
3 191 190 192
3 193 191 192
3 193 192 194
3 193 194 195
3 196 193 195
3 196 195 197
3 198 196 197
3 198 197 199
3 190 189 200
3 190 200 201
3 192 190 201
3 192 201 202
3 192 202 203
3 194 192 203
3 194 203 204
3 195 194 204
3 195 204 205
3 197 195 205
3 197 205 206
3 199 197 206
3 199 206 207
3 200 208 209
3 201 200 209
3 201 209 210
3 202 201 210
3 202 210 211
3 203 202 211
3 203 211 212
3 204 203 212
3 204 212 213
3 205 204 213
3 205 213 214
3 206 205 214
3 206 214 215
3 207 206 215
3 207 215 216
3 208 217 218
3 209 208 218
3 209 218 219
3 210 209 219
3 210 219 220
3 211 210 220
3 211 220 221
3 212 211 221
3 212 221 222
3 213 212 222
3 213 222 223
3 214 213 223
3 214 223 224
3 215 214 224
3 215 224 225
3 216 215 225
3 218 217 226
3 218 226 227
3 219 218 227
3 219 227 228
3 220 219 228
3 221 220 228
3 221 228 229
3 222 221 229
3 222 229 230
3 223 222 230
3 223 230 231
3 224 223 231
3 224 231 232
3 225 224 232
3 227 226 233
3 227 233 234
3 228 227 234
3 228 234 235
3 229 228 235
3 230 229 235
3 230 235 236
3 231 230 236
3 231 236 237
3 232 231 237
3 234 233 238
3 235 234 238
3 235 238 239
3 236 235 239
3 237 236 239
3 237 239 25
3 237 25 27
3 237 27 29
3 237 29 232
3 232 29 31
3 232 31 225
3 225 31 33
3 225 33 216
3 216 33 35
3 216 35 207
3 207 35 37
3 207 37 199
3 199 37 39
3 199 39 198
3 198 39 41
3 198 41 43
3 198 43 196
3 196 43 2
3 196 2 193
3 193 2 191
3 191 2 3
3 191 3 188
3 188 3 5
3 188 5 7
3 188 7 189
3 189 7 9
3 189 9 200
3 200 9 11
3 200 11 208
3 208 11 13
3 208 13 217
3 217 13 15
3 217 15 226
3 226 15 17
3 226 17 233
3 233 17 19
3 233 19 21
3 233 21 238
3 238 21 23
3 238 23 239
3 239 23 25

CELL_TYPES 476
5
5
5
5
5
5
5
5
5
5
5
5
5
5
5
5
5
5
5
5
5
5
5
5
5
5
5
5
5
5
5
5
5
5
5
5
5
5
5
5
5
5
5
5
5
5
5
5
5
5
5
5
5
5
5
5
5
5
5
5
5
5
5
5
5
5
5
5
5
5
5
5
5
5
5
5
5
5
5
5
5
5
5
5
5
5
5
5
5
5
5
5
5
5
5
5
5
5
5
5
5
5
5
5
5
5
5
5
5
5
5
5
5
5
5
5
5
5
5
5
5
5
5
5
5
5
5
5
5
5
5
5
5
5
5
5
5
5
5
5
5
5
5
5
5
5
5
5
5
5
5
5
5
5
5
5
5
5
5
5
5
5
5
5
5
5
5
5
5
5
5
5
5
5
5
5
5
5
5
5
5
5
5
5
5
5
5
5
5
5
5
5
5
5
5
5
5
5
5
5
5
5
5
5
5
5
5
5
5
5
5
5
5
5
5
5
5
5
5
5
5
5
5
5
5
5
5
5
5
5
5
5
5
5
5
5
5
5
5
5
5
5
5
5
5
5
5
5
5
5
5
5
5
5
5
5
5
5
5
5
5
5
5
5
5
5
5
5
5
5
5
5
5
5
5
5
5
5
5
5
5
5
5
5
5
5
5
5
5
5
5
5
5
5
5
5
5
5
5
5
5
5
5
5
5
5
5
5
5
5
5
5
5
5
5
5
5
5
5
5
5
5
5
5
5
5
5
5
5
5
5
5
5
5
5
5
5
5
5
5
5
5
5
5
5
5
5
5
5
5
5
5
5
5
5
5
5
5
5
5
5
5
5
5
5
5
5
5
5
5
5
5
5
5
5
5
5
5
5
5
5
5
5
5
5
5
5
5
5
5
5
5
5
5
5
5
5
5
5
5
5
5
5
5
5
5
5
5
5
5
5
5
5
5
5
5
5
5
5
5
5
5
5
5
5
5
5
5
5
5
5
5
5
5
5
5
5
5
5
5
5
5
5
5
5
5
5
5
5
5
5
5
5
5
5
5
5
5
5
5
5
5
5
5
5
5
5
5
5
5
5
5
5
5
5
5

CELL_DATA 476
SCALARS cell_data_0 double
LOOKUP_TABLE default
3.45542809666e-08
2.79925268147e-08
1.55369700515e-08
2.85609178918e-09
1.95082698335e-09
2.01853941458e-09
3.94914631473e-10
1.30377014525e-10
1.35588798893e-10
3.67624460399e-10
1.30278716081e-10
4.9534140734e-12
7.73934764987e-11
1.11312996408e-10
3.16293842449e-11
1.1725763558e-10
1.18987678981e-10
3.0600317544e-10
5.98885556922e-10
3.04705686617e-10
3.45578639145e-10
4.38197378038e-10
1.35600018359e-10
1.98514009338e-10
3.31504011361e-10
9.95248658411e-11
4.66929423513e-10
1.58363594235e-10
6.27122128776e-11
1.47844904289e-10
5.87270936587e-11
8.98960642364e-11
6.94059464218e-11
6.87964389529e-11
3.35322018408e-12
6.88123360131e-11
5.70544586131e-11
1.62201685852e-10
1.0766751085e-09
2.17990981936e-09
1.54491128908e-09
5.75445699643e-09
3.11513823628e-08
5.22439171854e-08
7.90723283028e-10
4.43545820022e-10
5.33487489383e-10
1.74574416453e-10
1.08833262034e-09
2.78236894063e-10
7.64490170665e-11
9.90150418831e-11
1.64775555548e-10
4.05088068203e-10
1.75883501879e-11
4.38258672304e-10
8.69484620765e-10
1.44038078361e-09
6.66729059818e-09
1.15901015322e-08
1.54420501042e-08
5.97966766695e-10
1.76801188785e-09
1.16458453991e-12
3.46314508986e-10
6.67608124614e-11
9.86292093995e-13
1.19152115774e-10
4.63766977301e-11
5.57464874066e-11
5.6279810863e-11
2.44704814272e-11
1.23119330658e-10
6.19907071425e-11
4.30325548177e-10
3.91368930347e-10
7.94975511571e-10
1.0170294456e-09
2.2825025307e-09
5.85742895351e-09
7.98174278792e-09
1.02823856037e-10
2.3058877637e-10
7.01544304693e-11
1.96892005052e-11
1.30713027399e-11
2.56205833325e-11
8.86901941059e-12
2.96810639995e-11
2.18637108739e-11
2.87271350875e-11
3.48376940088e-12
3.93840406234e-13
3.11322718659e-12
3.20273060564e-12
7.40819258656e-11
3.13814512001e-11
1.13455504516e-10
1.35379180193e-11
4.87196629638e-10
3.22750103684e-10
4.58086874747e-10
1.14843936685e-10
3.53857942232e-10
5.01715392522e-10
1.7428255349e-10
1.11483041915e-11
3.99845521244e-12
2.27787817511e-11
9.74935434231e-12
7.7282752463e-12
2.91289855243e-12
1.50849018048e-11
8.79612008829e-12
9.60258414912e-12
5.64989171839e-12
5.46093226866e-12
7.27966881831e-12
1.22037836552e-12
5.71746028478e-12
4.54746896136e-12
1.16463670804e-12
1.33950456142e-11
5.95297074215e-11
3.61612483611e-11
1.24493969651e-10
7.43474544069e-11
1.27584149664e-10
1.46391089883e-10
8.41592891002e-11
2.01148597595e-10
2.28197849864e-10
1.9895600407e-12
9.57992081949e-12
2.27621952306e-11
6.59177098927e-12
5.52288162537e-12
5.24525441441e-12
3.5003356656e-12
3.68335636483e-12
7.7595989104e-13
1.84437980605e-12
4.97431647993e-13
2.95615371824e-12
1.5055158562e-12
6.18335439349e-12
1.75613356568e-12
3.73394754573e-12
2.14271253051e-12
5.74600510204e-12
5.38020395673e-12
2.55943407568e-11
1.62184399558e-11
4.1333194343e-11
4.82092305502e-12
8.13684022638e-11
3.71934583408e-11
9.37506839374e-13
3.57348234921e-11
6.89606327479e-12
2.73501899772e-11
1.34847494088e-11
2.83882684333e-12
3.75084715431e-12
2.13474186641e-12
1.20437937824e-11
1.14099492544e-11
1.42743325194e-12
8.72198711518e-12
6.72133441944e-12
1.20426300083e-11
6.98414571452e-12
1.03803950731e-11
5.45485869467e-12
9.03317046755e-12
9.8915651364e-12
5.4036012043e-12
3.112606625e-12
1.65693921133e-11
5.48141684506e-12
1.95393666999e-13
2.53807354935e-11
1.50138728033e-11
1.96050067755e-11
2.04404142458e-11
3.4824804036e-11
1.22425463754e-10
1.02804311575e-10
6.29182076118e-12
5.66905423264e-12
6.93961325476e-12
2.07939936703e-12
3.85469402024e-12
1.57106050852e-11
1.54904438212e-11
2.72837080497e-12
2.95581814558e-12
1.08722887587e-11
5.43214884218e-12
7.63830901161e-12
4.28402654758e-13
6.28844316435e-12
4.42487737389e-12
2.29165455244e-12
2.72449384682e-12
5.22968113489e-13
7.99592514716e-12
1.02760186984e-11
1.929630589e-11
1.75973536779e-11
2.34278529712e-11
3.0412746383e-11
2.32104274733e-12
1.64997174119e-11
1.76278512272e-11
2.71832809749e-11
8.15018112385e-11
1.08225946202e-11
1.59741650289e-11
2.9188347737e-11
5.63781703326e-12
6.1202538413e-12
1.63536215429e-12
7.060229493e-12
1.36747286708e-13
2.32413548614e-12
3.67338359799e-12
8.22090961276e-12
1.39436460912e-12
2.58965236595e-12
3.64383172545e-12
2.12850504174e-12
5.97973503299e-12
1.13942376238e-12
7.21439041831e-12
3.36821664817e-12
2.57441348986e-11
6.95999451011e-12
1.97631768695e-11
2.1286214793e-11
7.25129900284e-11
8.56278389239e-11
1.50944186758e-10
1.05496996172e-10
2.58555034943e-11
3.65298123346e-11
7.30118950409e-12
1.41243899953e-13
8.7958538566e-13
4.52793840848e-12
2.76124923728e-12
5.17027521317e-12
4.23857346494e-12
1.47825435392e-12
8.50457372131e-12
6.02151654327e-13
2.23808566623e-12
1.50449698174e-12
2.61104147184e-12
4.00236234334e-13
1.13508186895e-11
1.46030195305e-11
4.57104792767e-11
3.96771364946e-11
1.14213215658e-10
1.77633092771e-10
6.70245651904e-12
4.05493375847e-11
7.25626399882e-12
2.13484971857e-12
5.24581458815e-13
7.37010534416e-13
4.48866502191e-12
1.17348193306e-12
5.33613500777e-13
1.41441971745e-12
2.80438237384e-12
1.10420764778e-12
5.50487838842e-14
1.20568596929e-11
8.65314875426e-11
5.03122545785e-11
2.33625795951e-10
2.71544328831e-10
2.92890466977e-11
5.40003009234e-11
1.98370842236e-11
5.35375746362e-12
1.30137368255e-12
4.66928927112e-12
2.38194052785e-13
7.83943226149e-12
6.10388482532e-12
8.14969379809e-11
5.97855711528e-11
4.19880324732e-10
3.43172253072e-10
5.78491668522e-11
7.85382068081e-11
3.48187250875e-11
7.68967399028e-11
1.34380749852e-11
2.23767298794e-10
1.86777706124e-11
1.92505970877e-10
1.25677123167e-11
2.65471264931e-10
4.97611138859e-11
2.27777065825e-10
1.89548745149e-11
3.58752711872e-10
2.07798332465e-10
4.2590291383e-10
1.68762155485e-10
2.89636710013e-10
1.07900044444e-10
3.30291573958e-10
1.04915410756e-10
1.64166504166e-10
1.21036794643e-10
8.85877900212e-11
5.14104809121e-12
8.05429685359e-11
1.61870396602e-11
1.68678911183e-09
7.85836217626e-09
1.44138873856e-08
1.50551933502e-08
5.11166011433e-09
3.01448836848e-09
7.68852609104e-09
8.78962974316e-09
8.76714136979e-09
2.6849190634e-09
2.12610241052e-09
5.57773844296e-10
6.28413009906e-10
3.54633946471e-11
8.1572620094e-11
2.66822320356e-11
1.03931849498e-11
5.06739159934e-11
3.54230503646e-11
4.24510738432e-11
3.17608067913e-11
5.31601941318e-11
1.19922439576e-10
2.69292456837e-11
1.44535367093e-10
6.86142353575e-13
1.80990552927e-10
5.87532560303e-11
5.14815351238e-09
7.5825650018e-09
1.88139626337e-08
1.52163969591e-08
6.06158762839e-09
5.79739525756e-09
3.12380399259e-09
4.85024780981e-09
3.99153081327e-09
1.36536864916e-08
6.35224184227e-10
3.19854011893e-09
1.73229164587e-08
5.98888885757e-09
6.07892959847e-09
7.24506486347e-09
2.2638100387e-08
1.69644457843e-08
1.36945243365e-10
4.85652126859e-09
7.64611949756e-10
1.71209503735e-09
8.40185618483e-11
3.50558441712e-10
1.13848788101e-09
3.97378561693e-10
7.13859179544e-10
3.56661581488e-10
2.1162452544e-10
4.59570276423e-10
4.80458579322e-10
5.98417658686e-10
1.85640289263e-10
3.94685635111e-11
6.84768612708e-10
4.22739422296e-10
4.63667402454e-11
1.72890856444e-10
2.36085827865e-10
6.16179392438e-10
1.32443784784e-10
1.39284956648e-09
1.91504180923e-10
1.34653587979e-09
2.9383417765e-10
1.47116320488e-09
1.53208541755e-10
1.66211832891e-09
7.11260958984e-11
1.76036510455e-09
3.40372620326e-10
8.67506004347e-10
1.16530920846e-10
9.69963728638e-11
1.06507410383e-10
4.92875337485e-10
7.33136369466e-10
1.38971997743e-11
7.98927605103e-10
1.14316909127e-09
1.42001287184e-10
1.45663630428e-09
7.25714203214e-11
1.33018078995e-09
2.90081305908e-10
1.10734759059e-09
2.80032031294e-10
2.434264892e-11
5.61321490167e-11
5.11041209866e-10
1.01639600661e-10
3.24661504047e-10
7.61068252317e-10
8.78418558302e-10
1.94395890742e-10
9.68555775354e-11
4.1645115274e-10
1.71376022384e-10
1.50265447819e-10
6.78737127046e-10
2.3279634475e-10
6.54892116354e-10
1.20237492654e-10
3.81933862626e-10
1.56072770401e-10
2.67005921803e-10
9.14947528311e-11
2.3786883243e-10
1.14279046733e-10
1.34143359273e-10
2.52213027617e-11
2.37036506612e-10
1.23276927971e-10
2.44790728542e-10
1.08196148826e-10
9.33469091682e-11
5.83268640977e-09
4.18062172509e-09
9.92693483645e-09
7.12755825814e-09
1.80786041171e-08
1.72676856932e-08
2.56587346554e-08
2.65385261504e-08
5.36514184418e-09
6.56678751117e-09
2.12992759486e-09
3.51194186696e-09
3.38855781048e-09
5.23017277813e-09
1.48904868127e-10
6.13568147938e-11
8.80127004085e-11
1.72753453746e-10
4.67867685465e-11
4.80998998583e-12
1.73640043779e-10
1.92609694827e-10
4.03897770703e-10
1.06050938844e-10
4.43516344751e-10
2.30061245013e-10
2.34827017222e-10
2.81120355235e-10

