# vtk DataFile Version 3.0
File Name: Molecule/methanol/methanol_12.0-0.vtk
ASCII
DATASET UNSTRUCTURED_GRID
FIELD FieldData 1
TIME 1 1 double
0.0
POINTS 601 double
1.611 0.0 -0.359
1.582 -0.31 -0.356
1.475 0.0 -0.634
1.448 -0.29 -0.632
1.403 0.0 -0.933
1.377 -0.282 -0.93
1.498 -0.608 -0.348
1.369 -0.57 -0.624
1.3 -0.554 -0.923
1.36 -0.887 -0.334
1.24 -0.83 -0.611
1.174 -0.808 -0.91
1.173 -1.135 -0.315
1.066 -1.062 -0.594
1.004 -1.034 -0.893
0.945 -1.344 -0.292
0.852 -1.258 -0.572
0.796 -1.224 -0.872
0.682 -1.508 -0.266
0.605 -1.411 -0.548
0.557 -1.374 -0.849
0.393 -1.62 -0.238
0.335 -1.517 -0.521
0.294 -1.476 -0.822
0.089 -1.677 -0.207
0.051 -1.57 -0.493
0.017 -1.528 -0.795
-0.22 -1.677 -0.176
-0.239 -1.57 -0.464
-0.265 -1.528 -0.767
-0.524 -1.62 -0.146
-0.523 -1.517 -0.435
-0.542 -1.476 -0.739
-0.813 -1.508 -0.117
-0.793 -1.411 -0.408
-0.805 -1.374 -0.713
-1.075 -1.344 -0.091
-1.039 -1.258 -0.384
-1.044 -1.224 -0.689
-1.304 -1.135 -0.069
-1.253 -1.062 -0.363
-1.252 -1.034 -0.668
-1.49 -0.887 -0.05
-1.428 -0.83 -0.345
-1.422 -0.808 -0.651
-1.628 -0.608 -0.036
-1.557 -0.57 -0.332
-1.548 -0.554 -0.639
-1.713 -0.31 -0.028
-1.636 -0.29 -0.324
-1.625 -0.282 -0.631
-1.742 0.0 -0.025
-1.663 0.0 -0.322
-1.651 0.0 -0.629
-1.713 0.31 -0.028
-1.636 0.29 -0.324
-1.625 0.282 -0.631
-1.628 0.608 -0.036
-1.557 0.57 -0.332
-1.548 0.554 -0.639
-1.49 0.887 -0.05
-1.428 0.83 -0.345
-1.422 0.808 -0.651
-1.304 1.135 -0.069
-1.253 1.062 -0.363
-1.252 1.034 -0.668
-1.075 1.344 -0.091
-1.039 1.258 -0.384
-1.044 1.224 -0.689
-0.813 1.508 -0.117
-0.793 1.411 -0.408
-0.805 1.374 -0.713
-0.524 1.62 -0.146
-0.523 1.517 -0.435
-0.542 1.476 -0.739
-0.22 1.677 -0.176
-0.239 1.57 -0.464
-0.265 1.528 -0.767
0.089 1.677 -0.207
0.051 1.57 -0.493
0.017 1.528 -0.795
0.393 1.62 -0.238
0.335 1.517 -0.521
0.294 1.476 -0.822
0.682 1.508 -0.266
0.605 1.411 -0.548
0.557 1.374 -0.849
0.945 1.344 -0.292
0.852 1.258 -0.572
0.796 1.224 -0.872
1.173 1.135 -0.315
1.066 1.062 -0.594
1.004 1.034 -0.893
1.36 0.887 -0.334
1.24 0.83 -0.611
1.174 0.808 -0.91
1.498 0.608 -0.348
1.369 0.57 -0.624
1.3 0.554 -0.923
1.582 0.31 -0.356
1.448 0.29 -0.632
1.377 0.282 -0.93
1.907 0.0 0.656
1.883 0.295 0.656
1.883 0.148 0.911
1.883 -0.148 0.911
1.883 -0.295 0.656
1.883 -0.148 0.4
1.883 0.148 0.4
1.814 0.505 0.947
1.814 0.292 1.161
1.814 -0.0 1.239
1.814 -0.292 1.161
1.814 -0.505 0.947
1.814 -0.583 0.656
1.814 -0.505 0.364
1.814 -0.292 0.15
1.814 -0.0 0.072
1.814 0.292 0.15
1.814 0.505 0.364
1.814 0.583 0.656
1.701 0.805 0.949
1.701 0.656 1.206
1.701 0.428 1.398
1.701 0.149 1.499
1.701 -0.149 1.499
1.701 -0.428 1.398
1.701 -0.656 1.206
1.701 -0.805 0.949
1.701 -0.857 0.656
1.701 -0.805 0.363
1.701 -0.656 0.105
1.701 -0.428 -0.087
1.701 -0.149 -0.188
1.701 0.149 -0.188
1.701 0.428 -0.087
1.701 0.656 0.105
1.701 0.805 0.363
1.701 0.857 0.656
1.546 1.072 0.943
1.546 0.961 1.21
1.546 0.784 1.44
1.546 0.555 1.616
1.546 0.287 1.727
1.546 0.0 1.765
1.546 -0.287 1.727
1.546 -0.555 1.616
1.546 -0.784 1.44
1.546 -0.961 1.21
1.546 -1.072 0.943
1.546 -1.109 0.656
1.546 -1.072 0.368
1.546 -0.961 0.101
1.546 -0.784 -0.129
1.546 0.784 -0.129
1.546 0.961 0.101
1.546 1.072 0.368
1.546 1.109 0.656
1.354 1.301 0.953
1.354 1.202 1.235
1.354 1.043 1.488
1.354 0.832 1.699
1.354 0.579 1.858
1.354 0.297 1.957
1.354 0.0 1.99
1.354 -0.297 1.957
1.354 -0.579 1.858
1.354 -0.832 1.699
1.354 -1.043 1.488
1.354 -1.202 1.235
1.354 -1.301 0.953
1.354 -1.335 0.656
1.354 -1.301 0.359
1.354 -1.202 0.077
1.354 -1.043 -0.177
1.354 1.043 -0.177
1.354 1.202 0.077
1.354 1.301 0.359
1.354 1.335 0.656
1.128 1.499 0.945
1.128 1.418 1.223
1.128 1.285 1.481
1.128 1.105 1.709
1.128 0.886 1.899
1.128 0.634 2.045
1.128 0.36 2.14
1.128 0.073 2.181
1.128 -0.217 2.167
1.128 -0.499 2.099
1.128 -0.764 1.978
1.128 -1.0 1.81
1.128 -1.2 1.6
1.128 -1.357 1.355
1.128 -1.465 1.086
1.128 -1.52 0.801
1.128 -1.52 0.51
1.128 -1.465 0.225
1.128 -1.357 -0.044
1.128 1.285 -0.17
1.128 1.418 0.088
1.128 1.499 0.367
1.128 1.527 0.656
0.876 1.656 0.948
0.876 1.58 1.231
0.876 1.456 1.496
0.876 1.288 1.737
0.876 1.081 1.944
0.876 0.841 2.112
0.876 0.575 2.236
0.876 0.292 2.312
0.876 0.0 2.337
0.876 -0.292 2.312
0.876 -0.575 2.236
0.876 -0.841 2.112
0.876 -1.081 1.944
0.876 -1.288 1.737
0.876 -1.456 1.496
0.876 -1.58 1.231
0.876 -1.656 0.948
0.876 -1.682 0.656
0.876 -1.656 0.364
0.876 -1.58 0.08
0.876 1.58 0.08
0.876 1.656 0.364
0.876 1.682 0.656
0.602 1.771 0.951
0.602 1.698 1.238
0.602 1.579 1.51
0.602 1.417 1.758
0.602 1.216 1.976
0.602 0.982 2.158
0.602 0.721 2.3
0.602 0.441 2.396
0.602 0.148 2.445
0.602 -0.148 2.445
0.602 -0.441 2.396
0.602 -0.721 2.3
0.602 -0.982 2.158
0.602 -1.216 1.976
0.602 -1.417 1.758
0.602 -1.579 1.51
0.602 -1.698 1.238
0.602 -1.771 0.951
0.602 -1.795 0.656
0.602 -1.771 0.36
0.602 -1.698 0.073
0.602 1.698 0.073
0.602 1.771 0.36
0.602 1.795 0.656
0.314 1.841 0.947
0.314 1.773 1.232
0.314 1.661 1.502
0.314 1.508 1.751
0.314 1.318 1.974
0.314 1.096 2.164
0.314 0.846 2.317
0.314 0.576 2.429
0.314 0.292 2.497
0.314 -0.0 2.52
0.314 -0.292 2.497
0.314 -0.576 2.429
0.314 -0.846 2.317
0.314 -1.096 2.164
0.314 -1.318 1.974
0.314 -1.508 1.751
0.314 -1.661 1.502
0.314 -1.773 1.232
0.314 -1.841 0.947
0.314 -1.864 0.656
0.314 -1.841 0.364
0.314 -1.773 0.08
0.314 1.773 0.08
0.314 1.841 0.364
0.314 1.864 0.656
0.019 1.865 0.944
0.019 1.8 1.225
0.019 1.692 1.493
0.019 1.544 1.742
0.019 1.36 1.964
0.019 1.144 2.157
0.019 0.902 2.314
0.019 0.638 2.432
0.019 0.359 2.509
0.019 0.072 2.542
0.019 -0.216 2.531
0.019 -0.5 2.476
0.019 -0.772 2.378
0.019 -1.026 2.24
0.019 -1.256 2.065
0.019 -1.456 1.857
0.019 -1.622 1.62
0.019 -1.751 1.361
0.019 -1.838 1.086
0.019 -1.882 0.8
0.019 -1.882 0.511
0.019 -1.838 0.226
0.019 -1.751 -0.05
0.019 1.8 0.086
0.019 1.865 0.367
0.019 1.888 0.656
-0.276 1.864 0.656
-0.276 1.841 0.947
-0.276 1.773 1.232
-0.276 1.661 1.502
-0.276 1.508 1.751
-0.276 1.318 1.974
-0.276 1.096 2.164
-0.276 0.846 2.317
-0.276 0.576 2.429
-0.276 0.292 2.497
-0.276 -0.0 2.52
-0.276 -0.292 2.497
-0.276 -0.576 2.429
-0.276 -0.846 2.317
-0.276 -1.096 2.164
-0.276 -1.318 1.974
-0.276 -1.508 1.751
-0.276 -1.661 1.502
-0.276 -1.773 1.232
-0.276 -1.841 0.947
-0.276 -1.864 0.656
-0.276 -1.841 0.364
-0.276 -1.773 0.08
-0.276 1.773 0.08
-0.276 1.841 0.364
-0.564 1.795 0.656
-0.564 1.771 0.951
-0.564 1.698 1.238
-0.564 1.579 1.51
-0.564 1.417 1.758
-0.564 1.216 1.976
-0.564 0.982 2.158
-0.564 0.721 2.3
-0.564 0.441 2.396
-0.564 0.148 2.445
-0.564 -0.148 2.445
-0.564 -0.441 2.396
-0.564 -0.721 2.3
-0.564 -0.982 2.158
-0.564 -1.216 1.976
-0.564 -1.417 1.758
-0.564 -1.579 1.51
-0.564 -1.698 1.238
-0.564 -1.771 0.951
-0.564 -1.795 0.656
-0.564 -1.771 0.36
-0.564 -1.698 0.073
-0.564 1.698 0.073
-0.564 1.771 0.36
-0.838 1.682 0.656
-0.838 1.656 0.948
-0.838 1.58 1.231
-0.838 1.456 1.496
-0.838 1.288 1.737
-0.838 1.081 1.944
-0.838 0.841 2.112
-0.838 0.575 2.236
-0.838 0.292 2.312
-0.838 0.0 2.337
-0.838 -0.292 2.312
-0.838 -0.575 2.236
-0.838 -0.841 2.112
-0.838 -1.081 1.944
-0.838 -1.288 1.737
-0.838 -1.456 1.496
-0.838 -1.58 1.231
-0.838 -1.656 0.948
-0.838 -1.682 0.656
-0.838 -1.656 0.364
-0.838 -1.58 0.08
-0.838 1.58 0.08
-0.838 1.656 0.364
-1.09 1.527 0.656
-1.09 1.499 0.945
-1.09 1.418 1.223
-1.09 1.285 1.481
-1.09 1.105 1.709
-1.09 0.886 1.899
-1.09 0.634 2.045
-1.09 0.36 2.14
-1.09 0.073 2.181
-1.09 -0.217 2.167
-1.09 -0.499 2.099
-1.09 -0.764 1.978
-1.09 -1.0 1.81
-1.09 -1.2 1.6
-1.09 -1.357 1.355
-1.09 -1.465 1.086
-1.09 -1.52 0.801
-1.09 -1.52 0.51
-1.09 -1.465 0.225
-1.09 1.418 0.088
-1.09 1.499 0.367
-1.316 1.335 0.656
-1.316 1.301 0.953
-1.316 1.202 1.235
-1.316 1.043 1.488
-1.316 0.832 1.699
-1.316 0.579 1.858
-1.316 0.297 1.957
-1.316 0.0 1.99
-1.316 -0.297 1.957
-1.316 -0.579 1.858
-1.316 -0.832 1.699
-1.316 -1.043 1.488
-1.316 -1.202 1.235
-1.316 -1.301 0.953
-1.316 -1.335 0.656
-1.316 -1.301 0.359
-1.316 -1.202 0.077
-1.316 1.202 0.077
-1.316 1.301 0.359
-1.508 1.109 0.656
-1.508 1.072 0.943
-1.508 0.961 1.21
-1.508 0.784 1.44
-1.508 0.555 1.616
-1.508 0.287 1.727
-1.508 0.0 1.765
-1.508 -0.287 1.727
-1.508 -0.555 1.616
-1.508 -0.784 1.44
-1.508 -0.961 1.21
-1.508 -1.072 0.943
-1.508 -1.109 0.656
-1.508 -1.072 0.368
-1.508 -0.961 0.101
-1.508 0.961 0.101
-1.508 1.072 0.368
-1.663 0.857 0.656
-1.663 0.805 0.949
-1.663 0.656 1.206
-1.663 0.428 1.398
-1.663 0.149 1.499
-1.663 -0.149 1.499
-1.663 -0.428 1.398
-1.663 -0.656 1.206
-1.663 -0.805 0.949
-1.663 -0.857 0.656
-1.663 -0.805 0.363
-1.663 0.805 0.363
-1.776 0.583 0.656
-1.776 0.505 0.947
-1.776 0.292 1.161
-1.776 -0.0 1.239
-1.776 -0.292 1.161
-1.776 -0.505 0.947
-1.776 -0.583 0.656
-1.776 -0.505 0.364
-1.776 0.505 0.364
-1.845 0.295 0.656
-1.845 0.148 0.911
-1.845 -0.148 0.911
-1.845 -0.295 0.656
-1.845 -0.148 0.4
-1.776 -0.292 0.15
-1.776 0.292 0.15
-1.845 0.148 0.4
-1.868 -0.0 0.656
1.298 -0.294 -1.246
1.157 -0.653 -1.285
1.157 -0.426 -1.476
1.157 -0.148 -1.577
1.298 -0.0 -1.325
1.157 0.148 -1.577
1.298 0.294 -1.246
1.157 0.426 -1.476
1.157 0.653 -1.285
0.966 -0.996 -1.17
0.966 -0.842 -1.422
0.966 -0.626 -1.624
0.966 -0.363 -1.76
0.966 -0.074 -1.82
0.966 0.221 -1.8
0.966 0.499 -1.701
0.966 0.741 -1.53
0.966 0.927 -1.301
0.733 -1.199 -1.174
0.733 -1.066 -1.439
0.733 -0.876 -1.666
0.733 -0.638 -1.843
0.733 -0.366 -1.96
0.733 -0.074 -2.011
0.733 0.222 -1.994
0.733 0.506 -1.909
0.733 0.762 -1.761
0.733 0.978 -1.558
0.733 1.141 -1.31
0.468 -1.387 -1.032
0.468 -1.296 -1.314
0.468 -1.147 -1.571
0.468 -0.949 -1.791
0.468 -0.709 -1.965
0.468 -0.438 -2.086
0.468 -0.148 -2.148
0.468 0.148 -2.148
0.468 0.438 -2.086
0.468 0.709 -1.965
0.468 0.949 -1.791
0.468 1.147 -1.571
0.468 1.296 -1.314
0.733 1.242 -1.032
0.468 1.387 -1.032
0.18 -1.477 -1.031
0.18 -1.391 -1.313
0.18 -1.252 -1.574
0.18 -1.065 -1.802
0.18 -0.836 -1.989
0.18 -0.576 -2.128
0.18 -0.294 -2.214
0.18 0.0 -2.243
0.18 0.294 -2.214
0.18 0.576 -2.128
0.18 0.836 -1.989
0.18 1.065 -1.802
0.18 1.252 -1.574
0.18 1.391 -1.313
0.18 1.477 -1.031
-0.12 -1.473 -1.17
-0.12 -1.364 -1.441
-0.12 -1.207 -1.686
-0.12 -1.005 -1.897
[...]
CELL_DATA 1198
SCALARS cell_data_0 double
LOOKUP_TABLE default
1.85592099867e-09
1.6110555037e-09
8.386902275e-10
1.40854543846e-10
1.8018596755e-10
3.92740380642e-10
2.01719486379e-10
6.93591973613e-10
2.29056990085e-11
1.25083895193e-11
1.52422312245e-10
2.09496288166e-10
1.17261887695e-10
7.23329465524e-11
1.71046595195e-11
3.3666459008e-11
8.52336301748e-12
1.74597714426e-11
9.93527456933e-11
7.22431427314e-11
1.11971830925e-12
6.70589859576e-12
1.38466285343e-11
1.4307886037e-12
1.28837011928e-11
1.51207191934e-11
1.89016323291e-11
4.93602723939e-11
4.69666288091e-11
1.93295706487e-11
4.30842538591e-11
8.19576022576e-11
7.45617165292e-11
3.09614858976e-11
6.60810707708e-11
7.60238469893e-11
1.2004773474e-10
2.59051707615e-11
7.57219493708e-11
8.22214192735e-11
1.33060751458e-10
5.91830814217e-11
5.75732741297e-11
1.22952628975e-10
1.18128400338e-10
3.20672684709e-11
9.44504565315e-11
1.49341989825e-10
1.12621320348e-10
8.68307571597e-11
4.79051403835e-11
1.93246561928e-10
2.46039867702e-10
1.53850912847e-10
1.54570159166e-10
2.12303339786e-10
1.94552376379e-10
2.57385332966e-11
1.26923602438e-10
1.43500054573e-10
1.88180371487e-10
1.25212284429e-10
1.14260607551e-10
1.17901415324e-10
2.12232158315e-10
1.16570971528e-11
1.1110428417e-10
1.12571215508e-10
2.16532926806e-10
1.29538136956e-10
1.09163866908e-10
1.11001456722e-10
2.05006525115e-10
2.93284982098e-11
1.18767968337e-10
1.05514430522e-10
1.63503031766e-10
1.05141617466e-10
8.20911358537e-11
1.79248829346e-10
2.57819828232e-10
7.90122945829e-11
1.78718501289e-10
1.7845528797e-10
2.13946890762e-10
7.25944442403e-11
7.17641030533e-11
7.65226505069e-11
1.330189589e-10
1.20411939112e-12
7.40748556121e-11
8.60269646017e-11
1.08117307908e-10
4.64613699383e-11
7.87693834056e-11
8.67956677115e-11
1.10019529446e-10
2.36778295189e-11
5.7078494952e-11
7.67373509764e-11
7.65825632141e-11
1.62089886198e-11
6.32967716015e-11
7.05243136373e-11
3.60114790703e-11
2.01205677926e-11
9.22667211885e-12
7.11488041494e-11
2.02856731728e-11
7.3398463951e-12
4.55725850205e-11
2.68539422136e-11
2.11404779439e-12
1.3316203091e-12
6.67252350332e-12
7.39298042974e-12
2.99821728366e-11
2.39464014935e-11
5.1632196668e-11
5.10161939112e-11
2.45904670879e-11
3.27091863052e-11
1.4738449282e-10
1.52599020154e-10
3.05279809149e-10
3.45521571021e-11
6.77392002552e-10
2.8692673064e-10
4.17555550588e-10
1.5592719984e-10
7.76605173432e-11
1.65242626838e-10
2.10674677259e-10
9.43665753791e-10
5.35195684742e-10
6.86125248105e-10
1.42992601492e-11
4.44716834185e-12
1.15261553365e-11
5.9851446259e-12
1.59538003734e-11
1.07121892482e-12
7.52590690169e-12
6.53460746311e-14
4.79479671678e-13
5.38932972855e-12
2.60345115851e-12
3.29721084338e-13
6.16097915469e-12
2.85290274746e-12
1.0189043266e-11
1.37930972096e-11
6.97673421499e-11
1.11852243883e-10
2.87448645068e-11
1.42731864683e-11
3.59236915503e-11
8.01293332146e-12
9.04305977711e-12
7.32207373381e-12
5.06375611131e-14
1.01677046464e-12
3.10143668977e-13
7.81139342612e-15
5.41836687357e-12
5.05187118792e-12
6.30208365191e-13
2.70319658334e-12
2.97529962644e-12
3.69672989132e-13
2.61935429794e-12
4.13860384937e-12
7.1667451834e-12
1.27147517655e-11
9.56050658558e-12
3.37449141613e-11
2.12071875179e-11
6.56085389388e-11
3.09806267161e-12
1.58486613928e-10
3.40032039902e-11
2.28839186416e-10
8.18951726645e-11
1.03408416052e-10
1.09337742696e-11
1.36755459628e-11
4.71935896342e-12
4.8503649935e-13
1.10921788559e-12
8.24971043942e-13
2.15414055692e-12
1.15434978072e-12
1.18101499319e-12
2.50880133096e-12
2.34577180267e-12
3.16281531657e-12
1.95329820604e-12
1.87115764992e-12
6.04376489728e-13
2.81032816134e-13
3.59147227836e-12
4.03551547659e-12
3.21360902633e-13
3.15437461351e-12
2.36254922447e-12
4.74662039042e-12
4.41893755169e-12
5.35036495193e-12
2.33646509171e-13
8.93801132722e-12
5.77778576824e-12
4.178347347e-11
2.65889117807e-11
8.53282563567e-11
1.52884613384e-10
1.33048888736e-10
3.455151514e-11
2.35446624226e-13
4.04820139855e-12
5.41851876391e-12
1.85065418489e-12
4.81954413234e-12
3.31669332761e-12
7.54646071054e-13
7.41347630701e-13
9.62512929876e-13
1.87310275488e-12
6.83131080906e-13
2.57554089414e-13
2.39651364007e-12
1.71467900244e-13
2.48053842684e-12
4.20530614834e-12
9.20646075177e-13
9.21967946059e-13
1.90063827414e-12
1.76122808716e-14
2.54463838972e-12
2.38780121519e-12
1.89978175702e-12
9.02082469103e-13
1.42777451516e-12
3.35987636602e-12
1.15797190542e-12
3.94095378205e-12
2.43690548004e-12
4.57306445851e-12
1.35258159257e-11
3.52584749702e-12
2.08235845053e-11
3.51972441386e-12
8.24064406907e-11
1.28529952487e-10
1.47627958632e-10
1.4349253532e-11
8.87510384097e-12
6.0819235438e-12
4.42159785331e-12
7.66949332424e-13
1.68891199674e-12
4.65253943657e-12
1.06209644509e-12
1.21342439615e-12
7.59595622505e-13
1.59443040143e-12
1.12515516191e-12
1.0433060181e-13
4.88211909111e-13
7.98054962733e-14
2.89968690754e-12
3.80695850734e-12
3.02200275027e-12
1.22583235145e-12
1.40053623482e-12
3.6261451109e-13
6.47850034717e-13
2.63652480743e-12
3.60132916922e-13
1.51157929645e-12
7.17784182474e-13
1.38062968835e-12
2.3893946091e-12
4.27392127874e-12
1.22873231047e-12
1.01909921333e-12
2.28728957662e-12
9.21345760072e-13
3.01788587704e-12
1.88112098415e-12
6.70245855564e-12
1.32538973771e-12
1.02784876938e-11
1.57258073056e-11
1.13929235236e-11
4.26644507046e-11
7.60441361993e-11
1.29856673755e-11
2.35971316662e-12
7.35161082114e-13
1.72826659264e-12
3.07810030385e-12
3.45116997055e-12
4.9678318658e-12
6.91609868108e-13
1.59278838473e-12
4.61587717971e-13
1.46979540667e-12
6.65346327503e-13
3.27060748801e-13
3.36582104442e-13
8.07893290094e-13
5.63788767699e-14
1.00585507007e-12
1.40193625728e-13
2.74840858436e-13
7.03767768063e-13
1.40325443835e-12
1.02637946816e-12
8.46146977235e-13
1.75010183665e-13
3.97055682157e-13
1.61081711264e-12
3.11541985165e-12
2.5568548886e-12
5.24271810088e-13
5.18414806275e-13
1.00883444379e-12
1.79902081161e-12
4.14096215789e-13
4.60816599994e-13
2.666483759e-13
4.32213023233e-13
2.57315594247e-12
2.01875334225e-13
2.46707419368e-12
1.3585181147e-12
9.09690901713e-12
5.5771690423e-12
1.9623147536e-12
1.01790438874e-12
1.36272859102e-11
1.93652671059e-14
4.25333839113e-12
9.33980776746e-13
4.0045941653e-12
4.74263291958e-12
1.77365520479e-13
2.73118339439e-12
3.32906304382e-13
3.0960140309e-13
5.63680486713e-15
9.4082184475e-13
2.19491169948e-13
9.23408440094e-14
6.79174825828e-13
9.18736848514e-15
1.09466021411e-12
5.54349539605e-13
8.91477455852e-13
2.45609291725e-13
3.46001695665e-13
7.74963624679e-13
1.80548688744e-14
4.53422780457e-13
2.02250403418e-13
1.36341636269e-12
2.52916451017e-14
7.25915362178e-13
3.53543995724e-13
1.13118871627e-12
4.15310121893e-13
8.04156680268e-13
1.11384306874e-13
1.02546150533e-12
2.8512669465e-13
7.18046016862e-13
9.25471118184e-14
3.78544121045e-12
1.58674194955e-12
2.63559566121e-12
1.00296087752e-12
2.30261197527e-12
2.71249912595e-12
6.57622743897e-13
8.39035485806e-13
7.60524605168e-13
4.56229321511e-13
1.2851231428e-12
1.01864060715e-12
1.78360411885e-12
2.98913425401e-12
1.64864770518e-13
4.02526094231e-13
1.76521548722e-13
2.15111519003e-12
2.42858127971e-13
8.91194073092e-13
8.29842687552e-14
1.57696491534e-12
4.75053517556e-13
1.15041297339e-12
1.41226309663e-13
1.05365853101e-12
4.23918431603e-13
1.0895708594e-12
6.23440598915e-13
7.67761577702e-13
8.42600507142e-13
7.92097439243e-13
1.20834149834e-12
6.29862869028e-13
1.05089798266e-12
2.63312033519e-13
1.25729638943e-12
3.64721162313e-13
1.3062921284e-12
8.59493877376e-14
1.09495747508e-12
2.88154151247e-13
5.39817607496e-13
1.79101114718e-13
3.59653344258e-13
2.31814721133e-12
9.98335338816e-13
2.29823573358e-12
5.44931879041e-13
2.11197621494e-12
1.27141253617e-12
4.65796628966e-13
9.71159716565e-13
1.57344692365e-13
2.26403494561e-12
1.39919281009e-12
4.02061970369e-13
1.4661875664e-12
1.19897561372e-12
2.34258580008e-12
3.77319818722e-12
7.87717091379e-13
1.66469998947e-12
1.00107719415e-12
8.21173047256e-15
6.93968266416e-13
1.26420326413e-12
8.1370052744e-13
9.88900604907e-13
4.78932247599e-13
1.19270810582e-12
5.37837123869e-13
1.05731782743e-12
4.07365247721e-13
1.10314583173e-12
1.65091021091e-13
9.27514194846e-13
1.20816981157e-13
5.72655975227e-13
2.51298374037e-14
2.19374278713e-13
6.8203272378e-15
6.2411043556e-14
1.77880766121e-13
8.54684200102e-14
3.06031279231e-13
1.87830596131e-13
2.9384849051e-13
2.92170638573e-13
6.23513291203e-13
4.76912320744e-14
3.81030639173e-14
1.08850001945e-12
6.25872685701e-13
6.97150181979e-13
5.94683999477e-13
8.91651061323e-13
4.41890907558e-13
1.23776280032e-13
2.00625048559e-13
9.09381259291e-13
2.44820599088e-12
1.75032382835e-11
2.07461437023e-11
3.05016882085e-11
5.44578470017e-13
4.82890398143e-13
4.07030036636e-13
1.22909606287e-12
1.21246093572e-12
7.58417102108e-13
9.36759281774e-13
1.49957688476e-12
8.15505701081e-14
7.89494044967e-13
9.89306903159e-13
2.0426091225e-12
3.45345091196e-13
1.07160263281e-12
3.6051023647e-13
1.79630047367e-12
5.18655604957e-13
1.35841701158e-12
4.13621749728e-15
1.08512867409e-12
2.01969620678e-13
8.19233931369e-13
3.14375386104e-13
4.2887842517e-13
2.4957513278e-13
1.14054707095e-13
2.24126754846e-15
1.54257351879e-13
3.5329451138e-13
4.71082492871e-15
4.65995712739e-14
5.07620401222e-13
1.73673653607e-13
4.14303348935e-13
3.9583444575e-14
3.56733668381e-13
3.59784657539e-13
1.06130113135e-12
6.7870748706e-13
4.17818840485e-13
2.78612217312e-13
7.22328846604e-13
3.82059012325e-13
3.90834214618e-14
1.32589244327e-13
1.29002870892e-13
1.8308563348e-12
1.88619844819e-11
3.48047017475e-11
4.47433322084e-11
1.88769421055e-11
3.00686525215e-12
1.18232793224e-12
8.89855544671e-14
6.99350547881e-13
3.33149898776e-13
7.52569664407e-14
1.76946206016e-13
2.86852347376e-13
5.8444557128e-14
4.21008876262e-15
3.17012517888e-13
6.55368334296e-13
4.44133850247e-13
5.60907637817e-13
4.17605391736e-13
5.93609844988e-13
2.82110655078e-13
8.82049790234e-13
4.34052931049e-13
8.0906076794e-13
3.29528829115e-13
4.6478915626e-13
5.17942545173e-13
4.00880758486e-13
9.48819120112e-13
3.47648450773e-13
7.86256834279e-13
6.48393601726e-14
2.58713697874e-13
1.70146618711e-13
3.84600346225e-13
4.90222085293e-13
5.48034818854e-13
1.08626925382e-13
3.2001194459e-13
2.32746225857e-13
7.08523996578e-13
8.50031415102e-14
3.00804914746e-13
2.08253183588e-13
2.08155097967e-13
2.05368453623e-14
1.22481612405e-12
2.6833744182e-13
1.22459350602e-11
4.09212808237e-11
4.29640330855e-11
1.63785811492e-11
9.85093316897e-13
1.6217970374e-12
5.61292768959e-13
2.33089226724e-13
1.46367945915e-13
2.20190309133e-13
3.17123990693e-13
3.76331318381e-14
2.9703645093e-13
4.03219534614e-13
6.14231357418e-15
1.65971390159e-13
1.09930440783e-13
3.29184237133e-14
2.74879278024e-14
1.68797201642e-13
1.06111191405e-14
8.90197673719e-14
5.96403713894e-14
1.01621404595e-13
4.03925589198e-13
7.4258650911e-14
6.73730822309e-13
1.53690226396e-13
7.80533785814e-13
4.24160574222e-13
2.89246775958e-13
3.28372551982e-13
6.127330773e-13
6.22667172191e-13
3.16910271151e-13
3.65893809879e-13
6.74436684828e-13
6.83336651699e-13
7.1563032371e-13
1.14583899188e-13
2.26983874881e-14
1.04944098834e-12
1.48315657749e-12
2.72907522066e-12
3.4923592654e-12
2.50937178517e-11
5.67209742865e-11
2.20973731483e-11
1.91972637355e-11
4.26793771022e-12
9.17168234246e-13
1.34043428225e-12
8.15888955453e-13
5.49134717825e-13
2.69045828804e-13
1.91489158104e-13
5.02342010491e-14
3.52609085497e-13
1.66743094983e-13
8.98273508317e-14
1.20227199858e-13
1.97974720107e-13
6.1015443948e-14
3.1068817925e-13
3.43324963462e-13
4.36944380651e-13
1.50761358359e-13
4.12011135425e-13
2.73603403691e-13
3.29954272932e-13
4.75339175288e-13
5.49942155521e-13
8.4229494759e-13
1.26252367358e-12
3.20435383163e-13
6.79580277524e-16
6.07930250194e-13
1.51261874826e-13
2.61843971168e-13
2.2470690542e-13
4.79540086409e-15
4.61637491519e-15
1.53070054755e-13
1.97987857292e-14
1.51389447485e-12
4.01784929046e-12
6.38468233107e-12
5.79063857672e-12
1.83929165546e-11
4.27735203591e-11
1.29396195928e-11
4.98106455879e-12
2.37996300745e-13
4.09173992054e-12
2.68688469947e-12
5.62710266735e-13
2.43460069479e-14
1.2186186664e-13
1.446392488e-13
3.23451196803e-15
2.21868254624e-13
4.58342225597e-13
2.55204722608e-13
1.6799668789e-14
2.55028030436e-14
6.61828683092e-13
5.56950466025e-13
6.85193279058e-13
3.81615107073e-13
2.57804417587e-13
2.16013296885e-13
3.70898143569e-13
5.20507738912e-13
2.63768882155e-13
4.86940605672e-13
4.22892006362e-13
5.81257311679e-13
3.55967973996e-14
5.72052880416e-14
1.11190114546e-13
7.93861444007e-13
4.11191742807e-13
4.83467794921e-13
6.49873690112e-12
2.61956978546e-12
3.09805822594e-12
5.52300596008e-12
7.6084956453e-11
2.32651153803e-11
1.32621351442e-11
5.37942506998e-12
4.37327545739e-12
2.49104122421e-12
1.11034038481e-12
1.99636884275e-13
1.48533840307e-13
3.58477147589e-13
6.24272330993e-13
2.25473870771e-13
5.9877873075e-13
3.72078648134e-13
2.82550385456e-14
1.30130137508e-13
4.43828352051e-13
1.58137155893e-13
4.56461587501e-13
2.69949210574e-13
3.61409722574e-13
5.61311901152e-13
8.5559181053e-14
6.4372661785e-13
2.90174380256e-13
2.00866937872e-13
5.22103588598e-13
7.46217376937e-13
2.98617067215e-12
1.69042616548e-14
9.80728229335e-12
1.21616681223e-11
1.1710333892e-11
9.79158670914e-11
1.16851855342e-10
1.60109756329e-11
1.98249930133e-11
1.05382300412e-11
1.39462751193e-11
7.71302329105e-12
3.72625585967e-12
4.15001568649e-13
8.73272595342e-13
5.48637577048e-13
6.97246384511e-13
4.4152135026e-13
4.67216837036e-13
3.05106415907e-13
1.93047103901e-13
1.37753810685e-13
6.36604707903e-13
4.81544183028e-13
5.56770329391e-13
5.21752398952e-13
8.64892524838e-13
3.81377010554e-13
4.06299104606e-12
7.98710982908e-12
1.25195515315e-11
2.07277892307e-11
6.31295485433e-12
2.41194348526e-11
2.5666034886e-11
6.02789461141e-12
2.18826934702e-11
2.32429942236e-11
2.35722989217e-12
5.76111252071e-12
1.32473431911e-12
1.07137256745e-12
1.43914729515e-13
3.74543461154e-13
3.00910663448e-14
4.02528578081e-13
1.46329791308e-13
1.03968116612e-12
1.3589739851e-12
5.79549366339e-12
2.45679856371e-12
2.42505206427e-11
9.8265495855e-12
2.91797842104e-11
1.93314752953e-11
9.96727939877e-12
6.81936574241e-13
8.14894390677e-12
1.05237383644e-11
1.50058484364e-11
3.26496783129e-13
1.64109679813e-11
2.63237426945e-11
3.91942969564e-11
7.5103170708e-11
9.34744886115e-11
2.16639150031e-10
7.17873471786e-11
5.83872070642e-12
3.50205518641e-11
4.64285305382e-12
2.40147133369e-11
1.16917416836e-11
6.01639925544e-11
1.81719706171e-10
6.33174619154e-11
1.46701878995e-11
3.8829916686e-11
4.62526590434e-11
6.93248785993e-11
1.33263535472e-10
1.238201991e-10
6.99306710641e-11
1.29185957934e-10
2.57023025284e-12
5.17253389427e-11
6.68963176333e-11
3.38243492832e-11
2.50095278058e-11
6.36497780012e-13
5.90024940699e-12
5.31340940129e-11
4.2323129634e-12
7.28458598112e-11
8.89744404162e-12
7.4371132129e-11
1.14964797728e-11
3.68819064162e-11
6.31200812119e-12
3.26103723055e-11
2.38075723268e-12
9.40375228969e-12
3.57940649117e-13
3.69780207597e-12
2.06107350145e-11
3.93322676499e-11
6.32863375447e-11
1.58988903299e-12
1.34206241383e-11
6.46151369445e-11
4.13571167194e-11
2.89890855829e-10
4.94456349617e-11
8.40233580172e-11
1.73275811826e-10
2.54324393487e-10
2.14447270738e-10
5.69098270062e-10
1.48503270326e-10
1.57273363703e-10
6.4256741354e-11
7.89776143383e-11
2.9568446159e-11
1.34430872189e-11
6.6096612895e-13
2.43526225682e-12
4.27693878022e-12
2.21198878947e-13
5.32836808464e-12
5.40435129603e-12
3.37427554446e-11
1.55418774717e-11
5.80193664966e-11
9.57459981807e-12
7.1018948297e-11
3.14230674217e-12
4.25652120108e-11
4.380843355e-12
1.79607942597e-11
3.97638691763e-11
1.65065948651e-11
7.8515397613e-11
2.40133494291e-11
7.82722151999e-11
4.14233426615e-11
1.01942034581e-12
1.09100842843e-10
1.40666799159e-12
8.66577264733e-11
9.23695616623e-11
5.0949024739e-09
5.55912069064e-09
8.1390573249e-10
9.2165404022e-10
5.52409327137e-10
8.69661197331e-10
1.27144147605e-09
5.58397357294e-10
3.37064398208e-10
5.19851737478e-09
4.57601934071e-09
4.49910277077e-09
9.70941168015e-10
4.34138068621e-10
4.5273796666e-10
7.56827314079e-10
1.15028711858e-09
8.73557764534e-10
1.16045010644e-09
2.71832837073e-10
8.50855566692e-11
2.37832381698e-11
1.67509626334e-10
4.45726989088e-11
2.22039149641e-11
2.84647170948e-10
5.37369135024e-10
5.4686346126e-10
1.34796019361e-10
5.85896823865e-11
2.51012909971e-10
2.19699491127e-10
5.68390547753e-10
1.1957768573e-10
1.20543804685e-10
7.49159054881e-11
9.65364818048e-11
5.46416948438e-12
3.72370401798e-12
2.58117780119e-11
1.3080535867e-11
6.57045919957e-11
7.33521792487e-11
1.59514762573e-10
5.8859010573e-11
4.91463181241e-11
5.55088929309e-11
1.27640017965e-11
1.27800636479e-10
1.3058020941e-10
9.42450071085e-11
9.6268514286e-12
5.08968929643e-11
1.14127389462e-11
2.94175565449e-11
1.34607470164e-11
3.33791793356e-11
6.29726584421e-12
1.11263343752e-11
3.85970175516e-11
3.7208123944e-11
3.21145558235e-11
2.73304105064e-11
2.19173362172e-11
1.79807056109e-11
1.82373161438e-11
2.83814043361e-11
3.37170267617e-13
6.00540015168e-12
4.17646934724e-11
1.80202215926e-11
3.5312772603e-11
7.14262018779e-12
2.47774198399e-11
1.24696801815e-11
2.33536294823e-11
1.09414216335e-11
1.44526882508e-11
5.19609045813e-12
6.33750419499e-12
5.49036499441e-12
3.39035238261e-12
1.25735475281e-11
3.09314000651e-11
4.07025403798e-11
5.63921884747e-12
6.66709314787e-11
1.00460830107e-11
3.7738691067e-11
7.73592458046e-11
8.99414491909e-12
2.62326200586e-11
1.48143629014e-11
2.18057647848e-11
1.72979562812e-11
3.60845541368e-12
3.81338955804e-12
1.64456865633e-11
8.18738335414e-12
2.15498826891e-11
1.04637377598e-12
5.77525233692e-12
7.78877912942e-12
5.58454285085e-12
1.62080858893e-12
8.65371951314e-12
2.64572727738e-12
8.85464507529e-12
1.3522058967e-12
1.60543978545e-11
3.36873255151e-12
8.80735232131e-13
1.38923660937e-11
3.18168456999e-11
5.47536041946e-11
6.93376748395e-11
3.85219906773e-11
1.11255662892e-11
3.9433794659e-11
2.17771962221e-11
7.37379609573e-12
7.81714732326e-12
2.04875379187e-11
1.6617367959e-11
3.37126362106e-12
2.25867574122e-11
2.90614099223e-11
2.98727156212e-11
3.06892998708e-11
1.52017831404e-11
8.7580167378e-12
1.39135227768e-12
4.54583180697e-12
6.7114640922e-13
6.44276664356e-12
3.63931228132e-12
1.00509542801e-11
1.3816923791e-11
2.50329735925e-11
2.84187656572e-11
2.14345626175e-11
6.11000835718e-12
3.21550543074e-11
4.67865864861e-11
5.32056436961e-11
5.87871794332e-11
5.31179338537e-12
2.94449672931e-11
1.51564003511e-11
8.73281708326e-12
1.88552856721e-11
2.5816915486e-11
1.73842384531e-11
1.07766999522e-12
1.92394868354e-11
6.34935327315e-12
5.46892384267e-12
1.07226415156e-11
1.58957691497e-11
1.20131526451e-11
1.86223051207e-11
1.24151308474e-11
1.57634108198e-11
5.76961927708e-12
8.98116756288e-12
4.22776976425e-12
1.70038407445e-11
4.11620329627e-12
7.06671506988e-12
7.6807238068e-11
2.07486025609e-11
3.86810290126e-11
1.06593543353e-10
4.29599581468e-11
3.5175513173e-11
2.01253887547e-11
4.55161155479e-11
2.18484331719e-11
1.3420019325e-12
4.73886997013e-11
4.00674274477e-11
2.47465117758e-11
6.24094536074e-12
2.64574784535e-11
8.33251860518e-12
1.41155344063e-11
1.83070226844e-11
8.39132293941e-12
1.22268023804e-11
8.96266170437e-12
1.62514153678e-11
8.04751331686e-12
2.3724241792e-11
1.45102813491e-12
1.92427084123e-11
1.07268467028e-11
6.51445370799e-11
1.61695837448e-10
2.11084035815e-11
6.36017105186e-11
1.10058727772e-11
4.26876112333e-11
7.99927298676e-13
2.58658018752e-11
5.17692060205e-11
2.1097924485e-11
2.99811834917e-11
3.86892807212e-11
2.6562908179e-11
2.18853362582e-11
2.08060612382e-11
5.38737560295e-12
2.01238709259e-11
2.79357346378e-11
6.06758702653e-12
6.61090979771e-12
1.85161148901e-11
7.71664248512e-12
3.41225629859e-11
8.24585835433e-11
3.87616465185e-12
4.50119547013e-11
7.53573043284e-12
1.50651191893e-11
3.61569400298e-12
7.97469233458e-12
6.28374691364e-11
1.2425660095e-11
2.91427500452e-11
6.87127449208e-12
4.1290964799e-11
3.19829683232e-11