# vtk DataFile Version 3.0
File Name: Molecule/methanol/methanol_16.0-0.vtk
ASCII
DATASET UNSTRUCTURED_GRID
FIELD FieldData 1
TIME 1 1 double
0.0
POINTS 779 double
1.611 0.0 -0.359
1.588 -0.277 -0.357
1.475 0.0 -0.634
1.454 -0.26 -0.632
1.403 0.0 -0.933
1.382 -0.253 -0.931
1.52 -0.547 -0.35
1.39 -0.512 -0.626
1.32 -0.498 -0.925
1.409 -0.802 -0.339
1.286 -0.75 -0.615
1.219 -0.73 -0.914
1.257 -1.035 -0.324
1.144 -0.968 -0.601
1.081 -0.942 -0.901
1.07 -1.239 -0.305
0.969 -1.16 -0.584
0.91 -1.129 -0.884
0.851 -1.41 -0.283
0.764 -1.32 -0.564
0.711 -1.285 -0.864
0.608 -1.543 -0.259
0.536 -1.444 -0.541
0.489 -1.405 -0.842
0.346 -1.633 -0.233
0.291 -1.529 -0.516
0.251 -1.487 -0.818
0.073 -1.679 -0.206
0.036 -1.571 -0.491
0.002 -1.529 -0.793
-0.204 -1.679 -0.178
-0.223 -1.571 -0.465
-0.25 -1.529 -0.768
-0.477 -1.633 -0.151
-0.479 -1.529 -0.44
-0.499 -1.487 -0.743
-0.739 -1.543 -0.125
-0.724 -1.444 -0.415
-0.737 -1.405 -0.72
-0.982 -1.41 -0.101
-0.952 -1.32 -0.393
-0.959 -1.285 -0.698
-1.201 -1.239 -0.079
-1.157 -1.16 -0.372
-1.158 -1.129 -0.678
-1.388 -1.035 -0.06
-1.332 -0.968 -0.355
-1.329 -0.942 -0.661
-1.54 -0.802 -0.045
-1.474 -0.75 -0.341
-1.467 -0.73 -0.647
-1.651 -0.547 -0.034
-1.578 -0.512 -0.33
-1.568 -0.498 -0.637
-1.719 -0.277 -0.027
-1.641 -0.26 -0.324
-1.63 -0.253 -0.631
-1.742 -0.0 -0.025
-1.663 -0.0 -0.322
-1.651 -0.0 -0.629
-1.719 0.277 -0.027
-1.641 0.26 -0.324
-1.63 0.253 -0.631
-1.651 0.547 -0.034
-1.578 0.512 -0.33
-1.568 0.498 -0.637
-1.54 0.802 -0.045
-1.474 0.75 -0.341
-1.467 0.73 -0.647
-1.388 1.035 -0.06
-1.332 0.968 -0.355
-1.329 0.942 -0.661
-1.201 1.239 -0.079
-1.157 1.16 -0.372
-1.158 1.129 -0.678
-0.982 1.41 -0.101
-0.952 1.32 -0.393
-0.959 1.285 -0.698
-0.739 1.543 -0.125
-0.724 1.444 -0.415
-0.737 1.405 -0.72
-0.477 1.633 -0.151
-0.479 1.529 -0.44
-0.499 1.487 -0.743
-0.204 1.679 -0.178
-0.223 1.571 -0.465
-0.25 1.529 -0.768
0.073 1.679 -0.206
0.036 1.571 -0.491
0.002 1.529 -0.793
0.346 1.633 -0.233
0.291 1.529 -0.516
0.251 1.487 -0.818
0.608 1.543 -0.259
0.536 1.444 -0.541
0.489 1.405 -0.842
0.851 1.41 -0.283
0.764 1.32 -0.564
0.711 1.285 -0.864
1.07 1.239 -0.305
0.969 1.16 -0.584
0.91 1.129 -0.884
1.257 1.035 -0.324
1.144 0.968 -0.601
1.081 0.942 -0.901
1.409 0.802 -0.339
1.286 0.75 -0.615
1.219 0.73 -0.914
1.52 0.547 -0.35
1.39 0.512 -0.626
1.32 0.498 -0.925
1.588 0.277 -0.357
1.454 0.26 -0.632
1.382 0.253 -0.931
1.907 0.0 0.656
1.889 0.257 0.656
1.889 0.129 0.878
1.889 -0.129 0.878
1.889 -0.257 0.656
1.889 -0.129 0.433
1.889 0.129 0.433
1.837 0.441 0.91
1.837 0.255 1.097
1.837 -0.0 1.165
1.837 -0.255 1.097
1.837 -0.441 0.91
1.837 -0.509 0.656
1.837 -0.441 0.401
1.837 -0.255 0.215
1.837 -0.0 0.146
1.837 0.255 0.215
1.837 0.441 0.401
1.837 0.509 0.656
1.75 0.707 0.913
1.75 0.576 1.139
1.75 0.376 1.307
1.75 0.131 1.396
1.75 -0.131 1.396
1.75 -0.376 1.307
1.75 -0.576 1.139
1.75 -0.707 0.913
1.75 -0.752 0.656
1.75 -0.707 0.398
1.75 -0.576 0.172
1.75 -0.376 0.004
1.75 -0.131 -0.085
1.75 0.131 -0.085
1.75 0.376 0.004
1.75 0.576 0.172
1.75 0.707 0.398
1.75 0.752 0.656
1.632 0.947 0.909
1.632 0.849 1.146
1.632 0.693 1.349
1.632 0.49 1.505
1.632 0.254 1.603
1.632 0.0 1.636
1.632 -0.254 1.603
1.632 -0.49 1.505
1.632 -0.693 1.349
1.632 -0.849 1.146
1.632 -0.947 0.909
1.632 -0.981 0.656
1.632 -0.947 0.402
1.632 -0.849 0.165
1.632 -0.693 -0.038
1.632 -0.49 -0.194
1.632 0.49 -0.194
1.632 0.693 -0.038
1.632 0.849 0.165
1.632 0.947 0.402
1.632 0.981 0.656
1.483 1.163 0.912
1.483 1.081 1.156
1.483 0.948 1.376
1.483 0.771 1.563
1.483 0.558 1.708
1.483 0.319 1.803
1.483 0.064 1.845
1.483 -0.193 1.831
1.483 -0.441 1.762
1.483 -0.668 1.642
1.483 -0.865 1.475
1.483 -1.021 1.27
1.483 -1.129 1.036
1.483 -1.184 0.784
1.483 -1.184 0.527
1.483 -1.129 0.275
1.483 -1.021 0.041
1.483 -0.865 -0.164
1.483 0.948 -0.065
1.483 1.081 0.155
1.483 1.163 0.4
1.483 1.191 0.656
1.307 1.356 0.909
1.307 1.286 1.154
1.307 1.173 1.382
1.307 1.019 1.585
1.307 0.831 1.756
1.307 0.615 1.89
1.307 0.378 1.982
1.307 0.127 2.029
1.307 -0.127 2.029
1.307 -0.378 1.982
1.307 -0.615 1.89
1.307 -0.831 1.756
1.307 -1.019 1.585
1.307 -1.173 1.382
1.307 -1.286 1.154
1.307 -1.356 0.909
1.307 -1.379 0.656
1.307 -1.356 0.402
1.307 -1.286 0.157
1.307 -1.173 -0.071
1.307 1.173 -0.071
1.307 1.286 0.157
1.307 1.356 0.402
1.307 1.379 0.656
1.107 1.521 0.909
1.107 1.458 1.156
1.107 1.356 1.39
1.107 1.217 1.603
1.107 1.044 1.79
1.107 0.843 1.947
1.107 0.619 2.068
1.107 0.379 2.15
1.107 0.127 2.192
1.107 -0.127 2.192
1.107 -0.379 2.15
1.107 -0.619 2.068
1.107 -0.843 1.947
1.107 -1.044 1.79
1.107 -1.217 1.603
1.107 -1.356 1.39
1.107 -1.458 1.156
1.107 -1.521 0.909
1.107 -1.542 0.656
1.107 -1.521 0.402
1.107 -1.458 0.155
1.107 -1.356 -0.078
1.107 1.356 -0.078
1.107 1.458 0.155
1.107 1.521 0.402
1.107 1.542 0.656
0.887 1.656 0.911
0.887 1.598 1.161
0.887 1.502 1.399
0.887 1.371 1.62
0.887 1.208 1.818
0.887 1.016 1.988
0.887 0.801 2.128
0.887 0.566 2.233
0.887 0.319 2.301
0.887 0.064 2.33
0.887 -0.192 2.32
0.887 -0.444 2.272
0.887 -0.686 2.185
0.887 -0.911 2.062
0.887 -1.115 1.907
0.887 -1.293 1.722
0.887 -1.441 1.512
0.887 -1.554 1.282
0.887 -1.632 1.037
0.887 -1.671 0.784
0.887 -1.671 0.527
0.887 -1.632 0.274
0.887 -1.554 0.029
0.887 1.502 -0.088
0.887 1.598 0.15
0.887 1.656 0.4
0.887 1.676 0.656
0.651 1.76 0.909
0.651 1.706 1.157
0.651 1.618 1.394
0.651 1.496 1.617
0.651 1.344 1.82
0.651 1.165 2.0
0.651 0.962 2.152
0.651 0.739 2.273
0.651 0.501 2.362
0.651 0.253 2.416
0.651 0.0 2.434
0.651 -0.253 2.416
0.651 -0.501 2.362
0.651 -0.739 2.273
0.651 -0.962 2.152
0.651 -1.165 2.0
0.651 -1.344 1.82
0.651 -1.496 1.617
0.651 -1.618 1.394
0.651 -1.706 1.157
0.651 -1.76 0.909
0.651 -1.779 0.656
0.651 -1.76 0.402
0.651 -1.706 0.155
0.651 -1.618 -0.083
0.651 1.618 -0.083
0.651 1.706 0.155
0.651 1.76 0.402
0.651 1.779 0.656
0.403 1.831 0.907
0.403 1.779 1.154
0.403 1.695 1.392
0.403 1.579 1.616
0.403 1.434 1.822
0.403 1.261 2.006
0.403 1.066 2.165
0.403 0.85 2.296
0.403 0.619 2.397
0.403 0.376 2.465
0.403 0.126 2.499
0.403 -0.126 2.499
0.403 -0.376 2.465
0.403 -0.619 2.397
0.403 -0.85 2.296
0.403 -1.066 2.165
0.403 -1.261 2.006
0.403 -1.434 1.822
0.403 -1.579 1.616
0.403 -1.695 1.392
0.403 -1.779 1.154
0.403 -1.831 0.907
0.403 -1.848 0.656
0.403 -1.831 0.404
0.403 -1.779 0.157
0.403 -1.695 -0.081
0.403 1.695 -0.081
0.403 1.779 0.157
0.403 1.831 0.404
0.403 1.848 0.656
0.148 1.866 0.912
0.148 1.813 1.164
0.148 1.727 1.406
0.148 1.609 1.634
0.148 1.461 1.844
0.148 1.285 2.032
0.148 1.086 2.194
0.148 0.866 2.328
0.148 0.631 2.43
0.148 0.383 2.499
0.148 0.129 2.534
0.148 -0.129 2.534
0.148 -0.383 2.499
0.148 -0.631 2.43
0.148 -0.866 2.328
0.148 -1.086 2.194
0.148 -1.285 2.032
0.148 -1.461 1.844
0.148 -1.609 1.634
0.148 -1.727 1.406
0.148 -1.813 1.164
0.148 -1.866 0.912
0.148 -1.883 0.656
0.148 -1.866 0.399
0.148 -1.813 0.148
0.148 1.813 0.148
0.148 1.866 0.399
0.148 1.883 0.656
-0.11 1.866 0.912
-0.11 1.813 1.164
-0.11 1.727 1.406
-0.11 1.609 1.634
-0.11 1.461 1.844
-0.11 1.285 2.032
-0.11 1.086 2.194
-0.11 0.866 2.328
-0.11 0.631 2.43
-0.11 0.383 2.499
-0.11 0.129 2.534
-0.11 -0.129 2.534
-0.11 -0.383 2.499
-0.11 -0.631 2.43
-0.11 -0.866 2.328
-0.11 -1.086 2.194
-0.11 -1.285 2.032
-0.11 -1.461 1.844
-0.11 -1.609 1.634
-0.11 -1.727 1.406
-0.11 -1.813 1.164
-0.11 -1.866 0.912
-0.11 -1.883 0.656
-0.11 -1.866 0.399
-0.11 -1.813 0.148
-0.11 1.813 0.148
-0.11 1.866 0.399
-0.11 1.883 0.656
-0.365 1.831 0.907
-0.365 1.779 1.154
-0.365 1.695 1.392
-0.365 1.579 1.616
-0.365 1.434 1.822
-0.365 1.261 2.006
-0.365 1.066 2.165
-0.365 0.85 2.296
-0.365 0.619 2.397
-0.365 0.376 2.465
-0.365 0.126 2.499
-0.365 -0.126 2.499
-0.365 -0.376 2.465
-0.365 -0.619 2.397
-0.365 -0.85 2.296
-0.365 -1.066 2.165
-0.365 -1.261 2.006
-0.365 -1.434 1.822
-0.365 -1.579 1.616
-0.365 -1.695 1.392
-0.365 -1.779 1.154
-0.365 -1.831 0.907
-0.365 -1.848 0.656
-0.365 -1.831 0.404
-0.365 -1.779 0.157
-0.365 1.779 0.157
-0.365 1.831 0.404
-0.365 1.848 0.656
-0.613 1.779 0.656
-0.613 1.76 0.909
-0.613 1.706 1.157
-0.613 1.618 1.394
-0.613 1.496 1.617
-0.613 1.344 1.82
-0.613 1.165 2.0
-0.613 0.962 2.152
-0.613 0.739 2.273
-0.613 0.501 2.362
-0.613 0.253 2.416
-0.613 0.0 2.434
-0.613 -0.253 2.416
-0.613 -0.501 2.362
-0.613 -0.739 2.273
-0.613 -0.962 2.152
-0.613 -1.165 2.0
-0.613 -1.344 1.82
-0.613 -1.496 1.617
-0.613 -1.618 1.394
-0.613 -1.706 1.157
-0.613 -1.76 0.909
-0.613 -1.779 0.656
-0.613 -1.76 0.402
-0.613 -1.706 0.155
-0.613 1.706 0.155
-0.613 1.76 0.402
-0.849 1.676 0.656
-0.849 1.656 0.911
-0.849 1.598 1.161
-0.849 1.502 1.399
-0.849 1.371 1.62
-0.849 1.208 1.818
-0.849 1.016 1.988
-0.849 0.801 2.128
-0.849 0.566 2.233
-0.849 0.319 2.301
-0.849 0.064 2.33
-0.849 -0.192 2.32
-0.849 -0.444 2.272
-0.849 -0.686 2.185
-0.849 -0.911 2.062
-0.849 -1.115 1.907
-0.849 -1.293 1.722
-0.849 -1.441 1.512
-0.849 -1.554 1.282
-0.849 -1.632 1.037
-0.849 -1.671 0.784
-0.849 -1.671 0.527
-0.849 -1.632 0.274
-0.849 -1.554 0.029
-0.849 1.598 0.15
-0.849 1.656 0.4
-1.069 1.542 0.656
-1.069 1.521 0.909
-1.069 1.458 1.156
-1.069 1.356 1.39
-1.069 1.217 1.603
-1.069 1.044 1.79
-1.069 0.843 1.947
-1.069 0.619 2.068
-1.069 0.379 2.15
-1.069 0.127 2.192
-1.069 -0.127 2.192
-1.069 -0.379 2.15
-1.069 -0.619 2.068
-1.069 -0.843 1.947
-1.069 -1.044 1.79
-1.069 -1.217 1.603
-1.069 -1.356 1.39
-1.069 -1.458 1.156
-1.069 -1.521 0.909
-1.069 -1.542 0.656
-1.069 -1.521 0.402
-1.069 -1.458 0.155
-1.069 1.458 0.155
-1.069 1.521 0.402
-1.269 1.379 0.656
-1.269 1.356 0.909
-1.269 1.286 1.154
-1.269 1.173 1.382
-1.269 1.019 1.585
-1.269 0.831 1.756
-1.269 0.615 1.89
-1.269 0.378 1.982
-1.269 0.127 2.029
-1.269 -0.127 2.029
-1.269 -0.378 1.982
-1.269 -0.615 1.89
-1.269 -0.831 1.756
-1.269 -1.019 1.585
-1.269 -1.173 1.382
-1.269 -1.286 1.154
-1.269 -1.356 0.909
-1.269 -1.379 0.656
-1.269 -1.356 0.402
-1.269 -1.286 0.157
-1.269 1.286 0.157
-1.269 1.356 0.402
-1.445 1.191 0.656
-1.445 1.163 0.912
-1.445 1.081 1.156
-1.445 0.948 1.376
-1.445 0.771 1.563
-1.445 0.558 1.708
-1.445 0.319 1.803
-1.445 0.064 1.845
-1.445 -0.193 1.831
[...]
CELL_DATA 1554
SCALARS cell_data_0 double
LOOKUP_TABLE default
6.80021754017e-10
6.52433523207e-10
6.372552978e-10
4.83188379067e-10
1.90936445072e-10
2.98765546884e-11
2.30790383064e-10
4.96551416099e-10
1.6959166338e-10
1.96418771211e-12
2.34378561222e-11
2.77804968573e-10
8.2062081365e-11
9.17737430317e-12
9.40072270112e-11
1.52316520734e-10
5.23711757135e-12
1.49589802809e-11
5.21687683397e-11
6.87370811904e-11
2.84096100491e-12
3.89795782169e-12
2.93052633107e-11
2.2333286665e-11
2.45488579619e-12
3.18628409754e-12
2.28100153585e-12
1.80814154707e-11
2.7165491021e-11
3.73834241901e-11
1.92311970598e-11
7.61486680782e-11
5.89733207481e-11
1.11646156103e-11
6.90104656284e-11
9.82149432247e-11
3.64993053789e-11
1.52768422792e-11
3.59501727198e-11
7.43180700338e-11
6.79676983203e-11
1.13036935332e-11
8.43516568218e-11
1.01564020049e-10
8.96269934752e-11
3.77642493454e-11
6.04012936403e-11
1.15200540908e-10
1.49434794228e-10
6.76355059447e-11
1.04740210529e-10
1.93777839694e-10
1.55212347636e-10
4.92906621242e-11
1.31042160921e-10
1.59618457803e-10
1.02736227422e-10
4.05250104555e-11
4.07909972904e-11
1.87624898522e-10
1.38129663778e-10
7.09896417599e-11
1.77125226151e-10
2.43169031574e-10
2.45782865047e-10
1.21316092265e-10
1.23920866239e-10
1.40918093338e-10
2.16460960994e-10
2.378937829e-11
1.45066409814e-10
1.43879478657e-10
2.75041127877e-10
1.58871404394e-10
1.5351413013e-10
1.49569322075e-10
2.71378036164e-10
2.6771400042e-11
1.49754552055e-10
1.34373116355e-10
2.29643050538e-10
1.23870767176e-10
1.28760600952e-10
1.32776556512e-10
2.13798212358e-10
8.96865984663e-12
1.13750918988e-10
1.26877125572e-10
1.52969825029e-10
6.84513219278e-11
1.15240400586e-10
1.44360298547e-10
1.85179372823e-10
3.28829443046e-11
1.23014669211e-10
1.20454970444e-10
1.40919299372e-10
3.54691970758e-11
7.86203886178e-11
1.56854714978e-10
1.32416807452e-10
4.43084712332e-11
1.35938519526e-10
1.39943790467e-10
1.0903809959e-10
2.21710102673e-11
5.49624175791e-11
8.22817626949e-11
7.01267699037e-11
1.6292810486e-11
6.38877272159e-11
8.21983805092e-11
4.66152375697e-11
7.34816325096e-12
4.5687321146e-11
8.00729222589e-11
5.89469695567e-11
4.13880214784e-11
4.26693488706e-11
6.75896742693e-11
3.28104602295e-11
6.07428061705e-12
1.55456301017e-11
4.15952337458e-11
6.54757018524e-12
2.55935933512e-12
1.56843224211e-11
9.57914305744e-12
3.31839374898e-12
1.252620908e-11
1.28284705754e-11
4.73432418276e-12
1.51942034488e-11
1.05584557796e-11
4.43894660913e-12
1.02699464355e-11
4.76309925193e-11
2.20645028301e-11
7.12230698349e-11
1.52972536549e-10
2.87426074761e-10
5.73195923678e-11
3.90152004462e-10
2.95404059243e-10
5.21174133571e-10
9.70016123252e-11
2.90683875934e-10
5.61839097304e-10
3.97021404527e-10
4.58928755895e-10
9.17275443317e-11
1.1705800918e-10
4.6757003738e-12
2.43686979028e-12
4.73252179223e-12
7.13731886606e-13
5.37306488376e-12
1.34612580995e-12
6.06768406162e-13
1.58545692126e-14
7.95841498036e-13
1.22845303576e-12
8.72148016559e-13
2.64795089972e-12
3.86516787027e-13
3.52012524586e-12
8.65227309439e-12
6.59289853545e-13
4.4733379257e-11
4.655802668e-11
7.31507620331e-12
1.74573274806e-13
5.68104353722e-12
4.77403303779e-12
9.35210019573e-13
1.60193255298e-12
5.26085242116e-13
1.22250788494e-12
2.5974161161e-13
2.29335285252e-12
3.30652219775e-12
2.23296952227e-12
7.6540237503e-13
2.0543719086e-12
1.03512879165e-12
3.12289673011e-12
6.59860709282e-13
8.19280030356e-13
1.40413108425e-12
5.54803531031e-12
1.41950337707e-11
1.57361283441e-11
4.62352395531e-11
1.33691324248e-10
7.84753630201e-11
9.91264728672e-11
4.04790001048e-11
1.79850737649e-11
1.14758826528e-10
8.32314895364e-11
1.04093103344e-11
3.38595427473e-12
1.68001982017e-12
1.76958249163e-12
1.51547009916e-12
1.90245103905e-12
1.21896634116e-12
3.7370151666e-13
3.1825220524e-13
1.59503688057e-13
3.28315852761e-13
8.96983178956e-13
3.71171460084e-15
2.31942513136e-12
1.62789516456e-12
6.61228061731e-14
8.49298158148e-13
7.98626840919e-13
8.42382283476e-13
6.95690178254e-13
1.74967686839e-12
2.14275485903e-12
4.07509578558e-12
1.50425003005e-13
9.35020985986e-13
2.82278871235e-12
1.54232724034e-11
1.35687940653e-12
1.89437615213e-11
7.05294945065e-11
1.1254901221e-10
2.1252132327e-10
5.974985942e-10
1.82571506457e-11
1.06480264325e-11
1.85270553477e-11
1.18291298124e-12
4.87273908183e-12
7.14269272868e-13
2.94833712586e-12
3.0103224415e-12
9.24274339946e-13
2.31051284951e-13
1.0793629975e-12
1.53885435533e-12
4.68171613432e-13
4.19517212914e-13
1.4170113274e-12
2.22805561913e-12
2.90007935368e-12
8.92404571026e-13
2.19752567262e-12
9.3045358769e-13
1.05910578354e-12
1.03504018745e-12
4.03999404916e-13
1.40517547697e-13
1.29539484146e-12
7.03331818416e-13
2.92227526818e-12
2.43570359686e-12
2.31402115793e-13
1.27312439089e-12
6.40185024241e-13
4.44754772741e-12
2.10502166415e-12
3.72093637934e-12
4.96049804119e-12
3.60947038894e-11
7.12199818637e-11
2.92993988155e-11
7.94620940773e-11
1.95886858895e-10
1.80998226374e-11
8.72604711313e-13
4.08486230525e-12
1.82642628331e-12
4.54739770193e-13
1.78836198813e-12
3.03408253177e-12
8.02714693629e-13
3.53398539308e-13
7.07280012863e-13
7.05773808395e-13
3.14819608059e-13
2.9667636612e-13
9.30713639431e-13
7.84329913098e-13
5.42987991572e-13
1.76707260846e-12
1.99510769504e-13
3.79486317453e-14
1.08324245041e-12
2.5917377162e-12
1.07948657911e-12
9.14858875957e-13
2.19387299322e-12
1.86284513451e-12
1.66695854175e-12
1.50647587556e-12
1.63221853362e-12
7.23881239263e-13
1.50076798116e-12
1.13108349296e-12
9.45243422036e-13
1.53664082807e-12
5.50215953429e-13
2.98753385867e-13
5.24963961286e-12
3.7332831453e-12
2.29416086747e-12
5.00784011967e-12
2.18489451147e-11
2.26621583514e-11
5.13474085831e-11
8.6412438351e-11
4.75807095119e-12
1.87479881953e-12
1.42686868794e-12
1.95368963559e-12
2.9171824713e-13
2.82881056504e-12
2.77281372175e-12
6.30652787059e-13
8.092220403e-13
1.7170810411e-13
9.70731841838e-13
5.10482282399e-13
2.81135044911e-13
1.03037669014e-13
4.93529673354e-13
2.12107764986e-13
4.06417503298e-13
2.45903182459e-13
1.2017971063e-12
4.6695057748e-13
5.14107300531e-13
1.48208212683e-12
8.46407334702e-13
1.44551911211e-12
1.8976908982e-13
5.5559779946e-13
1.66884047642e-12
5.34660832479e-14
3.98830442763e-13
5.20962883794e-14
1.42925506732e-12
1.42917580155e-12
8.5351396605e-13
8.57729496484e-13
5.89620067629e-13
5.99402780858e-13
8.03846127364e-13
1.50800268154e-12
1.43073101622e-12
1.36313912313e-12
1.23608510867e-12
5.61616732019e-12
1.67297096845e-12
5.68626911115e-12
1.23244076041e-12
1.08827260315e-11
9.318693607e-12
9.41211414097e-12
4.72837988228e-13
1.99393813246e-12
1.57730135082e-12
2.41441588575e-12
9.90907529779e-15
1.82664463055e-12
2.57154735695e-12
3.98247873566e-13
7.42367091352e-13
2.01175641825e-14
1.9982153226e-13
1.46958546119e-13
2.29654041874e-15
6.29195140607e-13
4.33500422349e-13
6.8561189628e-13
2.7350762053e-13
2.87532997026e-13
2.02802008982e-13
1.36515042532e-12
1.07851237692e-12
8.80329703461e-13
2.15216901036e-14
7.74999409068e-13
3.63441148172e-13
1.38609367986e-12
6.41828112874e-13
1.4422266073e-12
6.13223422887e-14
7.32603343985e-13
3.44755185365e-12
3.17124340316e-12
1.31989296637e-12
6.88571262863e-13
2.52626565902e-13
7.06162135956e-13
4.5478999799e-13
7.34346046644e-14
3.39860929183e-13
7.45432918727e-14
8.77079409278e-13
3.97328121781e-14
6.00824412727e-13
1.14563177984e-12
2.13799455917e-12
1.05197997953e-12
3.61511567144e-12
6.34026804462e-12
2.52380401625e-12
2.15749917955e-12
4.06084746637e-13
1.71468887855e-12
1.80333588161e-13
5.00700014167e-13
5.72691814607e-13
7.64346830166e-13
1.56405517026e-12
2.23982517667e-12
1.72770629135e-13
8.45954420957e-13
1.2795520338e-13
9.37163811074e-13
2.72109113455e-13
2.46094742348e-13
3.6962239379e-14
6.27428218881e-13
4.31999630461e-13
9.91949060522e-13
6.34919854193e-13
1.15726813473e-12
3.51004453146e-13
1.16656878595e-12
3.80863747795e-13
1.23960325969e-12
1.13246902438e-12
1.70864016371e-12
1.77250647739e-12
1.76060885653e-12
1.12900901923e-12
7.83524034808e-13
5.22218149326e-13
2.0370890756e-12
1.08938050989e-12
4.18100342522e-13
8.95084292448e-13
2.30911315819e-12
1.39016512064e-12
1.94497609836e-13
4.02902239765e-13
5.37456506676e-14
1.08476212813e-12
2.65444433061e-14
9.44552365547e-13
4.96165066339e-13
1.10880613338e-12
8.00069071491e-14
9.36417404318e-13
1.57693430331e-12
6.62398481504e-13
2.50041665087e-12
2.65027742309e-13
7.22486116234e-13
2.19658752275e-13
2.11884059137e-12
1.41831571001e-14
1.79808149805e-12
1.24726288515e-12
5.38999280419e-13
5.12065654018e-14
8.36292218811e-13
2.48067138625e-12
1.51579957596e-12
8.61776424506e-14
5.96365910363e-13
9.95443408284e-14
4.89178748503e-13
5.25422524385e-13
1.11262039508e-13
5.13898891409e-13
1.915039167e-13
4.99886422623e-13
1.90021005783e-14
6.68834354678e-13
1.44354679687e-13
1.00593158194e-12
5.85724622132e-14
1.02734705891e-12
3.03455921453e-14
1.0350925277e-12
8.25175293814e-15
8.16139831053e-13
4.82688494374e-14
8.79749517603e-13
3.14815815575e-13
8.78296838258e-13
2.14609305298e-13
1.20930289823e-12
3.54821705643e-13
1.79680279763e-12
8.82506633749e-14
1.08968263745e-12
1.53543135749e-13
6.87375882958e-13
9.64384509789e-14
7.54794081128e-13
2.01395541306e-13
9.5934017821e-13
4.12207668853e-14
1.00672033647e-12
6.10132518267e-13
4.68028034756e-14
8.56785751531e-13
2.60362886471e-12
6.02936623109e-13
1.19588141124e-12
1.58261371683e-12
2.2980220244e-13
5.0406869122e-13
3.71772088142e-12
5.47842692967e-12
2.21975713669e-11
1.20943426486e-11
2.4964000364e-13
4.33238641517e-14
4.51510214281e-13
1.05027338181e-12
4.72402918626e-13
4.69559284123e-13
1.12165771362e-12
8.25818203799e-14
8.92566740997e-13
2.4261925623e-13
4.37748039343e-13
2.59629422335e-13
1.06337287893e-12
7.08095183634e-13
7.48072745956e-13
2.09186191253e-13
5.91149063134e-13
6.903200811e-13
7.99945193623e-13
6.21507704629e-13
8.01053723826e-13
9.41091847805e-13
9.16304526543e-13
8.71272578309e-13
7.24574674379e-13
8.01923537963e-13
5.82684062584e-13
6.01974164714e-13
6.20183585814e-13
5.93390968896e-13
3.82116625567e-13
5.34776011701e-13
1.20793397377e-13
6.02073454128e-13
1.02776133377e-14
6.71714283918e-13
1.29304126827e-13
2.66974334348e-13
1.46063934444e-13
4.74835764827e-13
5.88643428146e-13
7.07994924685e-13
4.66733120128e-13
4.39703870685e-13
6.03894848384e-13
1.57193084432e-12
2.23113387988e-13
1.38202977319e-12
2.05397836866e-14
1.55619206043e-12
8.37379601165e-13
5.38840463576e-13
6.79865850864e-14
2.32771215048e-12
7.04921809163e-12
2.79263196157e-12
9.49033039928e-13
8.69182530033e-13
1.63147323728e-12
1.59460565602e-12
5.68950757153e-13
9.97580912768e-13
7.58817946177e-14
5.19662154894e-13
2.27260821055e-13
5.26373321786e-13
3.55611738514e-13
3.74479455145e-13
4.63828037848e-13
1.36829296002e-13
4.94491386489e-13
1.64629101534e-13
4.56104091323e-13
3.82244514797e-13
6.13382893872e-13
2.08538315656e-13
5.52558133267e-13
3.41032278169e-13
5.47757960417e-13
4.48815857434e-13
6.54658853874e-13
8.59311671112e-13
7.0442479e-13
6.92410694932e-13
5.77111082603e-13
7.98048766132e-13
6.25969579997e-13
9.73234625237e-13
3.27914644211e-13
1.05373957728e-12
2.70242106964e-13
9.17095255e-13
1.38673784333e-13
5.05895105434e-13
3.83043195133e-13
3.79998273524e-13
2.73955189788e-13
1.44902291874e-13
2.06205959191e-13
6.31540320649e-14
4.19456132951e-13
3.88537102326e-14
8.14258159914e-13
1.76475041024e-13
6.50044799141e-13
7.31559568115e-13
3.04064429006e-12
7.7028227144e-12
1.03279357181e-12
4.53917141117e-13
4.93455963921e-12
4.15210975602e-12
6.1125798053e-13
9.7966694483e-13
3.70069614952e-13
1.62301061387e-12
1.96621946584e-13
1.08401225523e-12
9.42275027167e-14
1.65026852416e-13
2.06933604095e-13
8.154404515e-13
1.89964018319e-13
4.75976708056e-13
2.8444511826e-13
6.16203570351e-13
1.59120841195e-13
6.47516350998e-13
2.71271691393e-13
8.23264875853e-13
5.6632599691e-13
7.61878002266e-13
2.18633317333e-13
5.33332079625e-13
5.72546381194e-13
5.38285434267e-13
6.26178322731e-13
3.52977956891e-13
5.67101212608e-13
3.75410611858e-13
7.12259676957e-13
4.04954794381e-13
8.16901980751e-13
2.44503185016e-13
1.06309320521e-12
1.59615953036e-13
7.24257979666e-13
4.62252560457e-14
5.24276226148e-13
3.56596198626e-13
3.32597094224e-13
1.36451570864e-13
5.83775231192e-14
2.84354708544e-13
2.42940680087e-13
1.11352847501e-13
2.59607977409e-13
1.03042766163e-13
3.69814559601e-13
7.49049219461e-13
4.36942878811e-12
1.36271277063e-11
1.04522636358e-11
1.05677571975e-11
1.00431780897e-11
6.75367461273e-12
9.89681119085e-13
5.99492518718e-13
3.02062372303e-13
6.82387861117e-13
3.2280477953e-13
5.07210169219e-13
2.8377843088e-13
1.7853487218e-14
6.42694983485e-13
5.55885071392e-13
6.45518264312e-13
4.98303292581e-14
7.41075319534e-13
3.80032609235e-15
4.86734616246e-13
2.50925807614e-13
2.7656721713e-13
6.31710295293e-13
2.03885636919e-13
6.16700443319e-13
1.50626522135e-13
8.23533861435e-13
5.09245921637e-14
7.89190665995e-13
3.51094516809e-13
9.94536743185e-13
3.73320477711e-13
7.27239738809e-13
1.7805705652e-13
6.2838133172e-13
3.55681181902e-13
9.96171922635e-13
7.55200731958e-13
9.73004379368e-13
7.99134435828e-13
9.10580599494e-13
5.70158326925e-13
9.3862975874e-15
4.40013963545e-13
2.67733113133e-13
1.80556925213e-14
5.07534532264e-14
2.51068813834e-13
4.19676439649e-13
2.57628015392e-13
8.73102771927e-14
7.87814005001e-15
8.10847582517e-13
1.16813169327e-12
6.40735636894e-12
1.0813534131e-11
2.0596069539e-11
1.98255552878e-11
2.1616023784e-11
7.01236768957e-12
4.41083867393e-13
1.41716964464e-12
2.49648069109e-12
2.75346726482e-13
2.08253126276e-13
1.98831949513e-13
2.18570862543e-13
5.29282710468e-14
3.38558597994e-13
1.22179398434e-13
2.91519665596e-13
1.21481837004e-13
4.51411440373e-13
3.89803674662e-14
6.16514627451e-13
1.48506134791e-13
8.67524713136e-13
3.35778703194e-13
9.39980729956e-13
1.88789811048e-13
8.04615619011e-13
2.82341056351e-13
8.29951682494e-13
4.03857787823e-13
8.53120384396e-13
1.92831107346e-13
4.59631074324e-13
1.42316987468e-13
8.85551620765e-13
7.22023809301e-13
4.47593086309e-13
5.65504600302e-13
1.24978376443e-13
6.79191576434e-13
3.76542004347e-13
9.7133394065e-14
3.49652628638e-13
2.45703302119e-13
3.89793047913e-13
2.00242783e-14
5.61254743932e-14
1.70929634263e-13
7.48404358077e-13
1.56844974393e-14
2.49573164395e-12
3.09022139903e-12
2.61516027485e-12
1.05614540295e-11
3.77824600535e-11
3.21308489222e-11
1.96912637942e-11
5.75814069435e-12
2.63247767714e-13
1.43329370954e-12
1.00245204456e-14
2.85460902687e-13
8.3009614287e-14
9.22073804177e-14
1.05958375415e-13
1.27239768145e-13
1.72600326523e-13
7.71042078642e-14
1.4572961684e-14
1.89003758422e-13
2.87929889984e-14
2.28100480732e-13
2.73677457915e-14
1.50288982695e-13
2.54221870535e-13
3.50987269521e-14
5.18120470836e-13
1.83785147624e-13
1.07985392885e-13
2.05117902873e-13
6.8237905173e-14
9.95881254967e-14
3.54496800362e-13
3.76221568613e-13
4.96267440316e-13
1.46127052289e-12
7.53819548255e-13
3.43861186028e-13
6.51190967634e-13
1.6501514664e-13
3.04644680003e-13
3.98374082203e-14
1.33204650088e-13
1.01552789941e-13
6.20692697538e-14
9.52650243381e-14
6.2257628579e-13
2.01391422264e-12
4.87099492389e-13
1.38553158514e-12
8.23500331224e-12
1.46665840552e-11
5.75348721474e-11
4.08848352037e-11
1.95584806563e-11
1.74097319349e-12
8.15359506798e-13
8.49565197558e-13
1.50093790221e-13
3.32082917749e-14
1.21451664993e-14
8.0913814306e-14
1.13295921445e-13
1.60090108984e-13
2.95408143863e-14
1.44311208937e-13
4.41922371391e-14
9.58007619598e-14
2.56502292935e-13
1.79556510613e-14
3.24196420539e-13
1.50011106999e-14
4.88126847786e-13
1.52121262741e-13
4.72849888313e-13
2.39558079655e-13
5.90257489171e-13
1.50285715028e-13
1.19702265363e-13
2.14115409704e-13
3.31513476028e-13
2.88001028893e-13
2.3760465697e-13
4.00341179903e-13
8.51714957869e-14
6.8647208179e-14
2.45200702308e-13
2.04836344036e-13
1.77368568866e-13
2.06173661904e-13
1.11350326592e-13
2.62174802571e-12
1.76878953055e-12
2.68149726192e-12
2.69009803095e-12
2.96904671475e-11
5.16208305288e-11
5.41243282326e-11
1.88140358657e-11
1.4770111114e-12
7.96527600775e-13
1.41601091902e-13
3.17154255074e-13
3.05392592573e-14
2.66098558969e-14
4.37312303147e-14
5.27274553035e-14
1.96577001421e-14
3.54985123022e-15
1.70926547614e-13
1.21576257368e-13
1.71262999712e-13
2.08617191775e-13
4.80528827505e-13
7.5859664747e-13
1.24991458556e-13
3.32147419977e-13
3.03546776332e-13
9.74571535097e-14
5.25954934911e-13
3.95487283473e-13
1.56333544247e-13
4.52353149766e-13
3.02590066673e-14
6.60539124439e-15
2.08903541956e-13
1.1208951016e-13
5.60045431171e-14
2.46184199188e-13
5.62608323573e-13
6.67155789245e-13
2.94943994257e-12
2.19923938383e-12
1.10210920299e-11
1.09198542587e-11
1.71828042363e-11
6.82348182195e-11
2.10265135609e-11
7.49816999687e-12
1.22418769859e-12
1.13522800495e-12
5.29815134758e-13
3.22897160658e-15
6.06184491033e-14
1.4841033425e-14
3.64366758186e-14
6.59306717491e-14
1.73614895595e-13
5.75821916106e-14
3.05614048774e-15
7.27242406023e-14
7.30412982561e-15
8.24087583469e-14
4.93115626372e-13
8.18348880592e-14
1.29557104215e-14
2.39791980216e-13
6.36782668274e-14
1.36757582192e-13
2.25993839826e-13
1.45795942084e-14
1.72163006558e-14
2.0245876464e-13
1.11516756311e-12
1.30295788232e-12
2.2922644057e-12
2.65516239938e-12
5.79984506453e-12
2.78881779251e-12
1.78101410154e-11
3.76644092667e-11
2.55993868121e-11
8.9336288728e-12
4.29656408671e-12
1.8963765603e-12
1.20207007606e-12
5.22111368852e-14
2.47711839211e-13
1.54569547059e-13
1.23996788573e-13
6.09450928523e-14
1.95204722646e-13
6.5265413285e-14
5.15936762538e-14
7.49958389779e-14
7.72683625946e-14
7.44371640625e-14
1.72937211384e-13
2.17608064574e-14
1.68767441987e-13
1.81447734456e-13
2.50275989879e-13
5.92221772214e-13
1.64342771141e-12
1.50787388147e-12
1.82210567822e-12
1.30343228189e-11
8.5112930939e-12
9.04614809858e-11
6.80328164363e-11
1.73807074056e-11
1.26920021137e-11
3.60137351875e-13
1.68622486218e-12
1.1452076597e-12
9.33054520993e-13
4.98979301539e-13
1.19859305177e-13
1.56868378206e-13
2.71175089986e-13
1.46319474548e-14
3.49837791054e-13
1.82267906986e-13
1.39419779713e-14
5.88027069375e-13
9.17795446475e-13
1.64710302576e-12
1.63338253659e-12
1.20002456483e-11
2.07341110186e-11
4.74454608577e-11
7.40229636517e-11
7.05932729133e-11
5.78600443596e-11
8.6076756786e-12
7.872980442e-12
1.89106348893e-12
2.62910572825e-12
9.32557504529e-13
5.49036986547e-14
1.38010787308e-12
4.0660990619e-13
5.57352956074e-13
7.67390971318e-12
6.0918330065e-12
1.3156784098e-11
7.82985626143e-11
8.21719091096e-11
9.11145238896e-11
8.70335881423e-11
2.28461857448e-11
1.49272952436e-11
7.30960181374e-12
2.67597675153e-12
2.81999159718e-12
3.07709089348e-12
5.76969752292e-12
6.29030287775e-11
6.28530925058e-11
5.52312815503e-12
4.8775783094e-11
5.28585617711e-11
1.70171523657e-10
1.67048786473e-10
4.84845439253e-11
5.97655242315e-11
6.53882824032e-11
8.28888755391e-11
6.73065716141e-11
4.60116300581e-11
7.20982106604e-12
1.82445895015e-11
5.644097505e-11
1.4275255374e-13
9.69045309667e-11
1.37698438559e-11
3.85299707442e-11
9.15944583434e-12
8.53955120141e-11
1.69365975427e-11
6.74006994553e-11
1.34720501984e-11
3.52251374366e-11
1.0910035373e-11
1.33640378675e-11
1.76430067346e-11
6.80627855119e-12
4.80942154096e-12
7.50243551218e-12
5.42292538487e-13
3.47091820696e-13
3.81493039928e-12
5.01250352244e-12
1.14116282149e-11
2.03914649906e-11
3.25338591675e-11
1.02040837461e-10
5.09288816445e-11
1.21391058334e-10
2.21600978221e-10
3.6396273178e-10
1.93303941344e-10
6.70857655706e-10
4.74536815048e-10
1.03329309777e-10
3.99156292974e-11
6.09234591443e-10
4.9434235626e-10
5.79560660082e-11
3.56993001997e-10
1.32136649705e-10
3.40678544589e-10
5.82659616612e-11
7.15562088516e-11
4.13975213575e-11
3.85981967211e-11
4.14636613254e-12
3.449376752e-12
3.94571815768e-12
1.45644137908e-12
3.90076003655e-13
1.28778788231e-12
1.44112569276e-11
2.4128739448e-11
1.58109725406e-12
9.67603977461e-12
2.80982045513e-11
4.97394120342e-12
6.42098071261e-11
8.71058456063e-12
7.9029881959e-11
3.3344874786e-12
8.58432271124e-11