# vtk DataFile Version 3.0
File Name: Molecule/methanol/methanol_6.25-0.vtk
ASCII
DATASET UNSTRUCTURED_GRID
FIELD FieldData 1
TIME 1 1 double
0.0
POINTS 296 double
1.611 0.0 -0.359
1.554 -0.436 -0.353
1.403 0.0 -0.933
1.351 -0.397 -0.928
1.386 -0.842 -0.336
1.198 -0.767 -0.912
1.12 -1.191 -0.31
0.956 -1.085 -0.888
0.773 -1.459 -0.275
0.639 -1.329 -0.857
0.368 -1.627 -0.235
0.271 -1.482 -0.82
-0.065 -1.684 -0.192
-0.124 -1.534 -0.781
-0.499 -1.627 -0.149
-0.519 -1.482 -0.741
-0.903 -1.459 -0.108
-0.887 -1.329 -0.705
-1.251 -1.191 -0.074
-1.204 -1.085 -0.673
-1.517 -0.842 -0.047
-1.446 -0.767 -0.649
-1.684 -0.436 -0.031
-1.599 -0.397 -0.634
-1.742 0.0 -0.025
-1.651 0.0 -0.629
-1.684 0.436 -0.031
-1.599 0.397 -0.634
-1.517 0.842 -0.047
-1.446 0.767 -0.649
-1.251 1.191 -0.074
-1.204 1.085 -0.673
-0.903 1.459 -0.108
-0.887 1.329 -0.705
-0.499 1.627 -0.149
-0.519 1.482 -0.741
-0.065 1.684 -0.192
-0.124 1.534 -0.781
0.368 1.627 -0.235
0.271 1.482 -0.82
0.773 1.459 -0.275
0.639 1.329 -0.857
1.12 1.191 -0.31
0.956 1.085 -0.888
1.386 0.842 -0.336
1.198 0.767 -0.912
1.554 0.436 -0.353
1.351 0.397 -0.928
1.907 0.0 0.656
1.859 0.42 0.656
1.859 0.21 1.019
1.859 -0.21 1.019
1.859 -0.42 0.656
1.859 -0.21 0.292
1.859 0.21 0.292
1.72 0.709 1.065
1.72 0.409 1.365
1.72 -0.0 1.475
1.72 -0.409 1.365
1.72 -0.709 1.065
1.72 -0.819 0.656
1.72 -0.709 0.246
1.72 -0.409 -0.054
1.72 -0.0 -0.163
1.72 0.409 -0.054
1.72 0.709 0.246
1.72 0.819 0.656
1.495 1.106 1.058
1.495 0.902 1.412
1.495 0.588 1.675
1.495 0.204 1.815
1.495 -0.204 1.815
1.495 -0.588 1.675
1.495 -0.902 1.412
1.495 -1.106 1.058
1.495 -1.177 0.656
1.495 -1.106 0.253
1.495 -0.902 -0.101
1.495 0.902 -0.101
1.495 1.106 0.253
1.495 1.177 0.656
1.196 1.416 1.071
1.196 1.241 1.453
1.196 0.966 1.771
1.196 0.613 1.998
1.196 0.21 2.116
1.196 -0.21 2.116
1.196 -0.613 1.998
1.196 -0.966 1.771
1.196 -1.241 1.453
1.196 -1.416 1.071
1.196 -1.476 0.656
1.196 -1.416 0.24
1.196 1.416 0.24
1.196 1.476 0.656
0.838 1.651 1.063
0.838 1.506 1.446
0.838 1.273 1.783
0.838 0.966 2.055
0.838 0.603 2.246
0.838 0.205 2.344
0.838 -0.205 2.344
0.838 -0.603 2.246
0.838 -0.966 2.055
0.838 -1.273 1.783
0.838 -1.506 1.446
0.838 -1.651 1.063
0.838 -1.701 0.656
0.838 -1.651 0.249
0.838 1.651 0.249
0.838 1.701 0.656
0.439 1.794 1.065
0.439 1.658 1.454
0.439 1.439 1.803
0.439 1.147 2.094
0.439 0.798 2.314
0.439 0.409 2.45
0.439 0.0 2.496
0.439 -0.409 2.45
0.439 -0.798 2.314
0.439 -1.147 2.094
0.439 -1.439 1.803
0.439 -1.658 1.454
0.439 -1.794 1.065
0.439 -1.84 0.656
0.439 -1.794 0.246
0.439 1.794 0.246
0.439 1.84 0.656
0.019 1.843 1.061
0.019 1.713 1.448
0.019 1.503 1.798
0.019 1.222 2.094
0.019 0.884 2.323
0.019 0.505 2.474
0.019 0.102 2.54
0.019 -0.305 2.518
0.019 -0.699 2.409
0.019 -1.059 2.218
0.019 -1.37 1.954
0.019 -1.617 1.629
0.019 -1.789 1.258
0.019 -1.876 0.86
0.019 -1.876 0.452
0.019 -1.789 0.053
0.019 1.843 0.25
0.019 1.888 0.656
-0.401 1.84 0.656
-0.401 1.794 1.065
-0.401 1.658 1.454
-0.401 1.439 1.803
-0.401 1.147 2.094
-0.401 0.798 2.314
-0.401 0.409 2.45
-0.401 0.0 2.496
-0.401 -0.409 2.45
-0.401 -0.798 2.314
-0.401 -1.147 2.094
-0.401 -1.439 1.803
-0.401 -1.658 1.454
-0.401 -1.794 1.065
-0.401 -1.84 0.656
-0.401 -1.794 0.246
-0.401 1.794 0.246
-0.8 1.701 0.656
-0.8 1.651 1.063
-0.8 1.506 1.446
-0.8 1.273 1.783
-0.8 0.966 2.055
-0.8 0.603 2.246
-0.8 0.205 2.344
-0.8 -0.205 2.344
-0.8 -0.603 2.246
-0.8 -0.966 2.055
-0.8 -1.273 1.783
-0.8 -1.506 1.446
-0.8 -1.651 1.063
-0.8 -1.701 0.656
-0.8 -1.651 0.249
-0.8 1.651 0.249
-1.158 1.476 0.656
-1.158 1.416 1.071
-1.158 1.241 1.453
-1.158 0.966 1.771
-1.158 0.613 1.998
-1.158 0.21 2.116
-1.158 -0.21 2.116
-1.158 -0.613 1.998
-1.158 -0.966 1.771
-1.158 -1.241 1.453
-1.158 -1.416 1.071
-1.158 -1.476 0.656
-1.158 -1.416 0.24
-1.158 1.416 0.24
-1.457 1.177 0.656
-1.457 1.106 1.058
-1.457 0.902 1.412
-1.457 0.588 1.675
-1.457 0.204 1.815
-1.457 -0.204 1.815
-1.457 -0.588 1.675
-1.457 -0.902 1.412
-1.457 -1.106 1.058
-1.457 -1.177 0.656
-1.457 -1.106 0.253
-1.457 1.106 0.253
-1.682 0.819 0.656
-1.682 0.709 1.065
-1.682 0.409 1.365
-1.682 -0.0 1.475
-1.682 -0.409 1.365
-1.682 -0.709 1.065
-1.682 -0.819 0.656
-1.682 -0.709 0.246
-1.682 0.709 0.246
-1.821 0.42 0.656
-1.821 0.21 1.019
-1.821 -0.21 1.019
-1.821 -0.42 0.656
-1.821 -0.21 0.292
-1.821 0.21 0.292
-1.868 -0.0 0.656
1.21 -0.665 -1.121
0.966 -1.003 -1.153
0.966 -0.768 -1.505
1.21 -0.384 -1.402
0.966 -0.415 -1.74
1.21 -0.0 -1.505
0.966 0.0 -1.823
0.966 0.415 -1.74
1.21 0.384 -1.402
0.966 0.768 -1.505
1.21 0.665 -1.121
0.966 1.003 -1.153
0.648 -1.264 -1.148
0.648 -1.075 -1.519
0.648 -0.781 -1.813
0.648 -0.411 -2.001
0.648 0.0 -2.067
0.648 0.411 -2.001
0.648 0.781 -1.813
0.648 1.075 -1.519
0.648 1.264 -1.148
0.278 -1.36 -1.328
0.278 -1.15 -1.673
0.278 -0.855 -1.949
0.278 -0.497 -2.134
0.278 -0.101 -2.216
0.278 0.302 -2.189
0.278 0.682 -2.054
0.278 1.012 -1.821
0.278 1.267 -1.508
0.278 1.428 -1.137
-0.12 -1.483 -1.134
-0.12 -1.329 -1.505
-0.12 -1.085 -1.823
-0.12 -0.768 -2.067
-0.12 -0.397 -2.22
-0.12 -0.0 -2.272
-0.12 0.397 -2.22
-0.12 0.767 -2.067
-0.12 1.085 -1.823
-0.12 1.329 -1.505
-0.12 1.483 -1.134
-0.517 -1.36 -1.328
-0.517 -1.15 -1.673
-0.517 -0.855 -1.949
-0.517 -0.497 -2.134
-0.517 -0.101 -2.216
-0.517 0.302 -2.189
-0.517 0.682 -2.054
-0.517 1.012 -1.821
-0.517 1.267 -1.508
-0.517 1.428 -1.137
-0.887 -1.264 -1.148
-0.887 -1.075 -1.519
-0.887 -0.781 -1.813
-0.887 -0.411 -2.001
-0.887 0.0 -2.067
-0.887 0.411 -2.001
-0.887 0.781 -1.813
-0.887 1.075 -1.519
-0.887 1.264 -1.148
-1.205 -1.003 -1.153
-1.205 -0.768 -1.505
-1.205 -0.415 -1.74
-1.205 0.0 -1.823
-1.205 0.415 -1.74
-1.205 0.768 -1.505
-1.205 1.003 -1.153
-1.449 -0.665 -1.121
-1.449 -0.384 -1.402
-1.449 -0.0 -1.505
-1.449 0.384 -1.402
-1.449 0.665 -1.121
-1.602 -0.199 -1.081
-1.602 0.199 -1.081

CELLS 588 2352
3 0 1 2
3 2 1 3
3 1 4 3
3 3 4 5
3 4 6 5
3 5 6 7
3 6 8 7
3 7 8 9
3 8 10 9
3 9 10 11
3 10 12 11
3 11 12 13
3 12 14 13
3 13 14 15
3 14 16 15
3 15 16 17
3 16 18 17
3 17 18 19
3 18 20 19
3 19 20 21
3 20 22 21
3 21 22 23
3 22 24 23
3 23 24 25
3 24 26 25
3 25 26 27
3 26 28 27
3 27 28 29
3 28 30 29
3 29 30 31
3 30 32 31
3 31 32 33
3 32 34 33
3 33 34 35
3 34 36 35
3 35 36 37
3 36 38 37
3 37 38 39
3 38 40 39
3 39 40 41
3 40 42 41
3 41 42 43
3 42 44 43
3 43 44 45
3 44 46 45
3 45 46 47
3 46 0 47
3 47 0 2
3 48 49 50
3 48 50 51
3 48 51 52
3 48 52 53
3 48 53 54
3 48 54 49
3 50 49 55
3 50 55 56
3 50 56 57
3 51 50 57
3 51 57 58
3 51 58 59
3 52 51 59
3 52 59 60
3 52 60 61
3 53 52 61
3 53 61 62
3 53 62 63
3 54 53 63
3 54 63 64
3 54 64 65
3 49 54 65
3 49 65 66
3 49 66 55
3 55 66 67
3 55 67 68
3 56 55 68
3 56 68 69
3 56 69 70
3 57 56 70
3 57 70 71
3 58 57 71
3 58 71 72
3 58 72 73
3 59 58 73
3 59 73 74
3 60 59 74
3 60 74 75
3 60 75 76
3 61 60 76
3 61 76 77
3 62 61 77
3 65 64 78
3 65 78 79
3 66 65 79
3 66 79 80
3 66 80 67
3 67 80 81
3 67 81 82
3 68 67 82
3 68 82 83
3 69 68 83
3 69 83 84
3 70 69 84
3 70 84 85
3 70 85 86
3 71 70 86
3 71 86 87
3 72 71 87
3 72 87 88
3 73 72 88
3 73 88 89
3 74 73 89
3 74 89 90
3 75 74 90
3 75 90 91
3 75 91 92
3 76 75 92
3 80 79 93
3 80 93 94
3 80 94 81
3 81 94 95
3 81 95 96
3 82 81 96
3 82 96 97
3 83 82 97
3 83 97 98
3 84 83 98
3 84 98 99
3 85 84 99
3 85 99 100
3 85 100 101
3 86 85 101
3 86 101 102
3 87 86 102
3 87 102 103
3 88 87 103
3 88 103 104
3 89 88 104
3 89 104 105
3 90 89 105
3 90 105 106
3 91 90 106
3 91 106 107
3 91 107 108
3 92 91 108
3 94 93 109
3 94 109 110
3 94 110 95
3 95 110 111
3 95 111 112
3 96 95 112
3 96 112 113
3 97 96 113
3 97 113 114
3 98 97 114
3 98 114 115
3 99 98 115
3 99 115 116
3 100 99 116
3 100 116 117
3 101 100 117
3 101 117 118
3 102 101 118
3 102 118 119
3 103 102 119
3 103 119 120
3 104 103 120
3 104 120 121
3 105 104 121
3 105 121 122
3 106 105 122
3 106 122 123
3 107 106 123
3 107 123 124
3 107 124 125
3 108 107 125
3 110 109 126
3 110 126 127
3 110 127 111
3 111 127 128
3 111 128 129
3 112 111 129
3 112 129 130
3 113 112 130
3 113 130 131
3 114 113 131
3 114 131 132
3 115 114 132
3 115 132 133
3 116 115 133
3 116 133 134
3 117 116 134
3 117 134 135
3 118 117 135
3 118 135 136
3 119 118 136
3 119 136 137
3 120 119 137
3 120 137 138
3 121 120 138
3 121 138 139
3 122 121 139
3 122 139 140
3 123 122 140
3 123 140 141
3 124 123 141
3 124 141 142
3 125 124 142
3 125 142 143
3 127 126 144
3 127 144 145
3 127 145 128
3 128 145 146
3 128 146 147
3 129 128 147
3 129 147 148
3 130 129 148
3 130 148 149
3 131 130 149
3 131 149 150
3 132 131 150
3 132 150 151
3 133 132 151
3 133 151 152
3 134 133 152
3 134 152 153
3 135 134 153
3 135 153 154
3 136 135 154
3 136 154 155
3 137 136 155
3 137 155 156
3 138 137 156
3 138 156 157
3 139 138 157
3 139 157 158
3 140 139 158
3 140 158 159
3 141 140 159
3 141 159 160
3 142 141 160
3 142 160 161
3 143 142 161
3 146 144 162
3 145 144 146
3 147 146 163
3 147 163 164
3 148 147 164
3 148 164 165
3 149 148 165
3 149 165 166
3 150 149 166
3 150 166 167
3 151 150 167
3 151 167 168
3 152 151 168
3 152 168 169
3 153 152 169
3 153 169 170
3 154 153 170
3 154 170 171
3 155 154 171
3 155 171 172
3 156 155 172
3 156 172 173
3 157 156 173
3 157 173 174
3 158 157 174
3 158 174 175
3 159 158 175
3 159 175 176
3 160 159 176
3 161 160 176
3 161 176 177
3 163 162 178
3 146 162 163
3 164 163 179
3 164 179 180
3 165 164 180
3 165 180 181
3 166 165 181
3 166 181 182
3 167 166 182
3 167 182 183
3 168 167 183
3 168 183 184
3 169 168 184
3 169 184 185
3 170 169 185
3 171 170 185
3 171 185 186
3 172 171 186
3 172 186 187
3 173 172 187
3 173 187 188
3 174 173 188
3 174 188 189
3 175 174 189
3 175 189 190
3 176 175 190
3 177 176 190
3 177 190 191
3 179 178 192
3 163 178 179
3 180 179 193
3 180 193 194
3 181 180 194
3 181 194 195
3 182 181 195
3 182 195 196
3 183 182 196
3 183 196 197
3 184 183 197
3 184 197 198
3 185 184 198
3 186 185 198
3 186 198 199
3 187 186 199
3 187 199 200
3 188 187 200
3 188 200 201
3 189 188 201
3 189 201 202
3 190 189 202
3 191 190 202
3 191 202 203
3 193 192 204
3 179 192 193
3 194 193 205
3 194 205 206
3 195 194 206
3 195 206 207
3 196 195 207
3 197 196 207
3 197 207 208
3 198 197 208
3 198 208 209
3 199 198 209
3 200 199 209
3 200 209 210
3 201 200 210
3 201 210 211
3 202 201 211
3 203 202 211
3 203 211 212
3 205 204 213
3 193 204 205
3 206 205 214
3 206 214 215
3 207 206 215
3 208 207 215
3 208 215 216
3 209 208 216
3 210 209 216
3 210 216 217
3 211 210 217
3 212 211 217
3 212 217 218
3 214 213 219
3 205 213 214
3 215 214 220
3 216 215 220
3 217 216 220
3 218 217 220
3 219 218 220
3 214 219 220
3 219 213 26
3 219 26 24
3 219 24 218
3 218 24 22
3 218 22 212
3 212 22 20
3 212 20 203
3 203 20 18
3 203 18 191
3 191 18 16
3 191 16 177
3 177 16 14
3 177 14 161
3 161 14 12
3 161 12 143
3 143 12 10
3 143 10 125
3 125 10 108
3 108 10 8
3 108 8 92
3 92 8 6
3 92 6 76
3 76 6 77
3 77 6 4
3 77 4 1
3 77 1 62
3 62 1 63
3 63 1 0
3 63 0 46
3 63 46 64
3 64 46 78
3 78 46 44
3 78 44 42
3 78 42 79
3 79 42 93
3 93 42 40
3 93 40 109
3 109 40 38
3 109 38 126
3 126 38 144
3 144 38 36
3 144 36 162
3 162 36 34
3 162 34 178
3 178 34 32
3 178 32 192
3 192 32 30
3 192 30 204
3 204 30 28
3 204 28 213
3 213 28 26
3 221 222 223
3 224 221 223
3 224 223 225
3 226 224 225
3 226 225 227
3 226 227 228
3 229 226 228
3 229 228 230
3 231 229 230
3 231 230 232
3 222 233 234
3 223 222 234
3 223 234 235
3 225 223 235
3 225 235 236
3 227 225 236
3 227 236 237
3 227 237 238
3 228 227 238
3 228 238 239
3 230 228 239
3 230 239 240
3 232 230 240
3 232 240 241
3 234 233 242
3 234 242 243
3 235 234 243
3 235 243 244
3 235 244 245
3 236 235 245
3 236 245 246
3 237 236 246
3 237 246 247
3 238 237 247
3 238 247 248
3 239 238 248
3 239 248 249
3 240 239 249
3 240 249 250
3 241 240 250
3 241 250 251
3 242 252 253
3 243 242 253
3 243 253 254
3 244 243 254
3 244 254 255
3 245 244 255
3 245 255 256
3 246 245 256
3 246 256 257
3 247 246 257
3 247 257 258
3 248 247 258
3 248 258 259
3 249 248 259
3 249 259 260
3 250 249 260
3 250 260 261
3 251 250 261
3 251 261 262
3 253 252 263
3 253 263 264
3 254 253 264
3 254 264 265
3 255 254 265
3 255 265 266
3 256 255 266
3 256 266 267
3 257 256 267
3 257 267 268
3 258 257 268
3 258 268 269
3 259 258 269
3 259 269 270
3 260 259 270
3 260 270 271
3 261 260 271
3 261 271 272
3 262 261 272
3 263 273 274
3 264 263 274
3 264 274 275
3 265 264 275
3 266 265 275
3 266 275 276
3 267 266 276
3 267 276 277
3 268 267 277
3 268 277 278
3 269 268 278
3 269 278 279
3 270 269 279
3 270 279 280
3 271 270 280
3 271 280 281
3 272 271 281
3 274 273 282
3 274 282 283
3 275 274 283
3 275 283 284
3 276 275 284
3 276 284 285
3 277 276 285
3 278 277 285
3 278 285 286
3 279 278 286
3 279 286 287
3 280 279 287
3 280 287 288
3 281 280 288
3 283 282 289
3 283 289 290
3 284 283 290
3 284 290 291
3 285 284 291
3 286 285 291
3 286 291 292
3 287 286 292
3 287 292 293
3 288 287 293
3 290 289 294
3 291 290 294
3 291 294 295
3 292 291 295
3 293 292 295
3 293 295 27
3 293 27 29
3 293 29 288
3 288 29 31
3 288 31 281
3 281 31 33
3 281 33 272
3 272 33 35
3 272 35 37
3 272 37 262
3 262 37 39
3 262 39 251
3 251 39 41
3 251 41 241
3 241 41 43
3 241 43 232
3 232 43 45
3 232 45 231
3 231 45 47
3 231 47 229
3 229 47 2
3 229 2 226
3 226 2 224
3 224 2 3
3 224 3 221
3 221 3 5
3 221 5 222
3 222 5 7
3 222 7 233
3 233 7 9
3 233 9 11
3 233 11 242
3 242 11 252
3 252 11 13
3 252 13 15
3 252 15 263
3 263 15 273
3 273 15 17
3 273 17 19
3 273 19 282
3 282 19 21
3 282 21 289
3 289 21 23
3 289 23 294
3 294 23 25
3 294 25 295
3 295 25 27

CELL_TYPES 588
5
5
5
5
5
5
5
5
5
5
5
5
5
5
5
5
5
5
5
5
5
5
5
5
5
5
5
5
5
5
5
5
5
5
5
5
5
5
5
5
5
5
5
5
5
5
5
5
5
5
5
5
5
5
5
5
5
5
5
5
5
5
5
5
5
5
5
5
5
5
5
5
5
5
5
5
5
5
5
5
5
5
5
5
5
5
5
5
5
5
5
5
5
5
5
5
5
5
5
5
5
5
5
5
5
5
5
5
5
5
5
5
5
5
5
5
5
5
5
5
5
5
5
5
5
5
5
5
5
5
5
5
5
5
5
5
5
5
5
5
5
5
5
5
5
5
5
5
5
5
5
5
5
5
5
5
5
5
5
5
5
5
5
5
5
5
5
5
5
5
5
5
5
5
5
5
5
5
5
5
5
5
5
5
5
5
5
5
5
5
5
5
5
5
5
5
5
5
5
5
5
5
5
5
5
5
5
5
5
5
5
5
5
5
5
5
5
5
5
5
5
5
5
5
5
5
5
5
5
5
5
5
5
5
5
5
5
5
5
5
5
5
5
5
5
5
5
5
5
5
5
5
5
5
5
5
5
5
5
5
5
5
5
5
5
5
5
5
5
5
5
5
5
5
5
5
5
5
5
5
5
5
5
5
5
5
5
5
5
5
5
5
5
5
5
5
5
5
5
5
5
5
5
5
5
5
5
5
5
5
5
5
5
5
5
5
5
5
5
5
5
5
5
5
5
5
5
5
5
5
5
5
5
5
5
5
5
5
5
5
5
5
5
5
5
5
5
5
5
5
5
5
5
5
5
5
5
5
5
5
5
5
5
5
5
5
5
5
5
5
5
5
5
5
5
5
5
5
5
5
5
5
5
5
5
5
5
5
5
5
5
5
5
5
5
5
5
5
5
5
5
5
5
5
5
5
5
5
5
5
5
5
5
5
5
5
5
5
5
5
5
5
5
5
5
5
5
5
5
5
5
5
5
5
5
5
5
5
5
5
5
5
5
5
5
5
5
5
5
5
5
5
5
5
5
5
5
5
5
5
5
5
5
5
5
5
5
5
5
5
5
5
5
5
5
5
5
5
5
5
5
5
5
5
5
5
5
5
5
5
5
5
5
5
5
5
5
5
5
5
5
5
5
5
5
5
5
5
5
5
5
5
5
5
5
5
5
5
5
5
5
5
5
5
5
5
5
5
5
5
5
5
5
5
5
5
5
5
5
5
5
5
5
5
5
5
5
5
5
5
5
5
5
5
5
5
5
5
5
5
5
5
5
5
5
5
5
5
5
5
5
5
5
5
5
5
5
5
5
5
5
5
5
5
5
5
5
5

CELL_DATA 588
SCALARS cell_data_0 double
LOOKUP_TABLE default
2.41318118238e-08
1.19594942066e-08
4.08228455927e-09
9.11328394633e-09
3.60742472276e-10
2.49428603519e-09
5.92643463435e-10
4.74422189827e-10
4.30015216924e-12
4.88335181802e-11
2.14737752421e-10
2.4651427881e-10
3.09530058521e-10
2.58769007072e-11
8.71510737028e-11
1.93699377814e-10
3.92820735443e-10
3.43720565732e-10
2.6767477845e-10
5.70490978998e-11
3.06182327027e-10
7.42527648043e-11
3.20261597552e-10
3.16849421439e-11
3.48812719723e-10
7.22299109722e-11
3.2666171335e-10
4.2025455106e-11
1.93149922866e-10
3.03816202907e-11
1.65298753065e-10
1.12029304849e-10
5.93472034965e-11
2.16980569913e-10
1.86544066478e-10
2.3431006331e-10
8.52513728236e-11
1.23465255581e-10
1.01626296749e-10
5.99439024726e-11
2.49345746435e-11
1.01857685379e-10
9.07576381835e-10
2.01326816585e-09
5.92194893104e-11
1.50459845037e-09
2.00780481297e-08
2.53127842487e-08
3.46831403491e-10
9.69225960394e-11
5.40222162034e-10
3.29623606986e-10
1.44243128069e-09
2.00134120122e-10
4.38395902827e-11
3.5844346719e-11
1.11430514412e-11
2.04514495166e-10
2.19011609714e-10
1.34692859223e-10
4.46541843364e-10
1.3553100087e-11
1.8378994133e-09
1.42225200529e-09
5.7950239448e-09
2.4701333285e-09
3.5087447629e-09
1.32537965665e-09
5.71403230415e-10
7.92303192613e-10
2.51470701537e-11
1.18854757678e-10
7.46599752257e-12
4.91977176269e-12
4.45679020778e-11
2.20514011002e-11
1.61317669719e-12
7.12945185892e-11
1.54049111293e-11
8.85893926581e-11
1.0801846462e-10
9.97225585802e-11
8.39991267824e-12
7.47791085504e-11
4.91236050791e-10
8.79191583667e-10
6.72683596272e-10
3.56877921321e-09
4.17456756492e-09
8.27614442377e-09
4.49592094614e-11
1.51885056614e-10
6.6161739833e-11
2.39447749192e-11
4.34316051696e-12
5.06815467956e-12
1.1668622703e-11
4.23024848849e-12
3.22483701535e-12
1.2383605757e-11
3.17035661512e-12
1.99978071789e-11
3.86148855418e-12
6.43832644381e-12
3.1253831854e-11
1.48258915862e-11
2.78542830728e-12
1.78343802155e-12
8.9983395047e-12
2.85833789753e-11
1.00233407602e-11
1.45389361149e-10
4.80648280398e-10
2.12635147811e-10
1.99042511979e-11
1.16425522901e-09
5.5029498454e-11
5.39707668646e-11
1.22574535457e-11
7.70581908811e-12
1.55254233697e-11
2.85807100936e-12
3.45425353277e-12
4.46249861572e-12
6.83975708226e-12
2.79970768485e-12
8.51019766907e-12
1.89917440522e-11
8.50481462058e-12
2.45822670638e-12
9.9107851933e-12
2.82809146636e-12
2.81356088493e-12
3.21817167719e-12
1.25313692882e-11
3.9967192782e-11
4.59814791652e-12
6.85227611687e-11
5.0684851217e-11
1.52309672826e-10
4.58758786274e-11
1.38011038372e-10
2.34674820486e-10
2.38755756419e-10
1.12439977201e-10
1.81564256973e-11
3.03623241714e-11
9.87949392727e-12
1.92115959261e-11
7.35872006335e-12
2.4327123287e-12
3.3712046916e-13
5.37585132446e-12
4.9914081162e-12
6.38179724135e-12
2.61656399627e-12
3.9866072266e-12
2.35695707616e-12
6.2726701103e-12
6.29576729132e-12
3.51481199648e-12
7.11130504861e-12
6.54399965321e-12
3.32074062811e-12
1.50555503756e-11
1.34952152375e-11
2.55263951295e-11
1.44344846496e-11
3.40493019106e-11
2.39036713199e-11
4.79349461869e-11
1.51776700057e-12
3.15384774273e-11
1.66564539672e-11
6.89003019781e-11
4.15828706654e-11
8.68471531221e-12
2.71512258931e-11
1.25011739848e-11
1.14768834428e-11
4.58012580434e-12
1.03681881787e-11
4.80958798182e-12
1.89668220435e-12
7.1313882451e-14
4.15001207304e-12
2.59929572017e-12
2.04453509014e-12
2.98789698575e-12
1.19920240547e-12
3.58275456487e-12
9.84547315391e-13
1.01703103257e-12
2.15091590495e-12
9.28779799473e-14
7.67674846775e-12
2.27077839964e-12
5.35382416104e-12
7.86469782965e-12
1.10087578184e-11
1.73984464848e-11
3.1590842622e-12
1.15343401267e-11
3.97808046205e-12
2.49023293877e-12
8.09601536266e-11
1.40025964903e-10
1.74088179675e-10
1.79273434533e-11
4.48754229222e-12
1.13132231974e-11
5.23052006315e-12
1.18355114913e-12
1.86029971429e-11
1.96209754112e-11
3.67937645954e-12
8.90532952619e-12
6.72560119152e-12
7.61140142567e-12
3.01234821987e-12
1.11397202813e-12
4.06532021596e-12
1.4009948998e-13
1.60386304652e-12
3.58147874209e-12
1.69407203079e-12
4.86246073622e-12
1.05356165316e-12
4.66454673148e-13
4.11499117481e-12
7.69919721042e-12
2.96278276514e-12
8.0518981646e-12
3.11123018177e-12
1.35278055922e-11
3.84839476278e-13
1.13245018197e-11
7.17880150211e-12
2.08059031909e-11
4.79505461249e-11
1.73621682114e-10
2.41759841177e-10
6.82724390964e-12
8.25711038054e-12
3.30848285863e-11
1.1016335846e-11
1.10134295754e-11
3.29776934569e-12
1.23090976458e-11
7.07130990757e-13
7.01552061669e-12
1.48075660008e-14
4.25410156139e-12
9.89798943725e-13
1.40921512167e-12
1.44476981769e-13
3.63393657375e-12
5.98698517471e-13
2.06751549947e-12
3.59528911968e-13
6.36380034491e-13
1.78804523736e-13
2.65302365722e-12
2.32861786572e-12
8.43600681838e-12
6.48962753525e-13
1.11076135009e-11
6.88036640191e-13
9.06758328644e-12
1.4185249665e-11
3.09416995673e-11
1.87559752217e-11
6.18980438081e-11
6.54920355269e-11
2.98316112517e-11
4.54739737433e-11
6.59476271969e-12
5.03684890272e-15
3.29967519941e-12
7.955983745e-12
2.51706800142e-13
4.60766166946e-12
1.89389434592e-12
4.45255477617e-12
3.0701874838e-12
1.79163656785e-12
4.85893851935e-12
6.85462459353e-12
5.82909902299e-12
1.32964535242e-12
6.02933983844e-12
2.34275943817e-12
6.86806968742e-12
1.03563937948e-12
8.40364723525e-12
4.16599268863e-12
4.48470262638e-13
5.77461738261e-12
5.06156107332e-11
4.62335676978e-11
1.19965481552e-10
9.82250090203e-11
4.15673826962e-11
5.33514792707e-11
7.02994020188e-12
5.78249477433e-12
3.30881743421e-12
5.31317695724e-12
1.36939015281e-12
4.94884735263e-12
2.75046880163e-12
3.03299726733e-12
6.07700397467e-13
2.36037137451e-12
2.08518960046e-12
7.97988067777e-13
4.19088533414e-12
1.63941345155e-12
5.55173188628e-12
3.47601958669e-12
6.03486999055e-12
8.91368295388e-12
6.0057405927e-11
2.45116093017e-11
1.57342098321e-10
1.386499825e-10
2.53802571404e-11
5.58568752334e-11
5.20308608759e-12
8.23041094378e-12
3.26435274571e-12
1.22307394362e-12
1.75512531663e-12
2.27088913803e-12
1.57616139004e-12
2.77976006985e-12
1.47620875955e-12
1.03035921605e-12
3.18130914312e-12
8.64329286028e-12
4.87263469458e-12
5.90775369495e-11
7.94126641129e-12
2.22318918017e-10
2.16480754508e-10
1.13806225089e-11
6.31044918172e-11
1.27527866332e-11
1.22980746073e-11
4.39380808664e-12
1.47619734516e-11
4.30410429094e-12
1.21776381598e-11
1.16206129204e-11
6.30175219208e-11
1.15891373605e-11
2.80489786195e-10
2.86912700746e-10
1.62081833029e-11
8.92590287046e-11
3.17307568876e-11
8.8147928844e-11
1.20051161952e-11
1.9505585847e-10
1.19729766797e-11
2.44722900894e-10
9.97984147068e-12
2.82165291307e-10
1.16126956594e-11
2.39852459001e-10
1.40237805109e-11
2.2056618246e-10
4.00304058479e-11
2.00287848758e-10
5.24178337203e-11
1.8332447104e-10
1.22931944558e-10
2.1596810585e-10
9.63549962769e-12
2.65895235038e-12
7.35050850872e-11
3.81687382279e-11
2.67039978504e-12
3.40041053853e-12
1.11250849066e-10
2.98607602188e-11
1.93087986009e-09
2.12550276938e-09
5.63908315039e-10
3.21589530432e-09
1.15426409093e-08
8.03567609333e-09
7.57828795005e-09
6.35309870606e-09
4.12388837519e-10
1.13686308656e-09
9.89794286412e-11
3.38107222986e-10
4.80231323766e-11
6.15732530364e-11
7.3723701339e-12
1.33322310151e-10
1.39070122911e-12
1.50602962507e-11
2.08155805802e-11
6.41593445897e-11
2.24186418609e-11
1.07037849578e-10
1.8212942469e-10
8.77141187497e-11
1.61046542066e-10
5.15360763441e-11
1.77659375499e-10
1.17606107098e-11
1.97130631171e-10
2.88723797977e-11
7.97110146059e-09
8.46154375755e-10
1.0189733545e-08
1.13514664178e-08
6.92914091676e-09
1.04601441239e-09
2.34770365304e-09
4.68496583383e-09
3.70087127267e-09
1.09844450529e-08
6.97611448466e-09
6.93057482515e-09
1.05444476333e-11
1.08515400033e-08
4.00139928385e-09
3.10679169982e-09
1.24398676106e-08
1.22281703251e-08
9.77344050343e-09
6.02862156328e-10
4.01349050379e-09
1.9250166259e-10
2.98612950016e-10
7.92786853272e-10
4.54836111205e-11
6.11610915514e-11
5.708315269e-10
4.0220870861e-10
4.31084664667e-10
2.1007239074e-09
6.80344870164e-10
9.18372702702e-10
4.25410845766e-10
7.95468251401e-10
5.46599135753e-10
1.81536128277e-09
3.7799805208e-10
6.62685934153e-10
3.60110170951e-11
8.6523126293e-12
1.73380588553e-11
2.74714290112e-10
7.29687634717e-11
5.32293024277e-11
2.45016491593e-10
3.03282387042e-11
1.55456522018e-10
2.25533882285e-11
3.69234905541e-11
4.90538317781e-11
7.04325146463e-12
7.21409824741e-11
7.8132743034e-11
3.19612494861e-11
1.84261126695e-10
5.55099502137e-11
6.47799262476e-11
9.28929793783e-12
7.89827134971e-11
6.97756617379e-11
1.84186278482e-10
3.81849234997e-11
3.59534213838e-10
4.63003810058e-11
2.52553492577e-10
3.77233518191e-11
2.16372352524e-10
7.59385823063e-11
1.23187973817e-10
8.9335174212e-12
1.29201979175e-10
4.28585659059e-11
2.81558794526e-10
4.02834433617e-11
1.7970290572e-10
3.70931492919e-11
4.74382399597e-11
2.75813126615e-11
2.06686399715e-11
1.18550899407e-10
1.54682837435e-11
1.42256476031e-10
2.31468850254e-10
2.29942222967e-10
6.55170029989e-11
1.32687646114e-11
5.2404298463e-12
8.42195719648e-11
6.64708336506e-12
2.45277851823e-11
5.29247402815e-11
2.0998060647e-10
3.8181295968e-11
2.32676632952e-11
1.57588927693e-10
1.08438935694e-10
2.67997908573e-10
3.84278731411e-10
3.32438339837e-10
3.48538159038e-11
4.3512322431e-11
5.03726786659e-11
9.4822981731e-11
1.30239621586e-11
8.7524104719e-11
2.39904233623e-11
3.01622398703e-11
3.42914902973e-10
2.46381272518e-10
5.28744949647e-11
8.95778679928e-11
1.30926907681e-10
2.62914379395e-10
1.53667049747e-10
8.32225591558e-11
2.10752019735e-10
1.03175779179e-10
2.23151603114e-10
2.02211048831e-10
1.31460423357e-10
1.63643632404e-11
1.79039848561e-10
2.78785439126e-11
2.15815667818e-10
4.24744855207e-12
2.04154526034e-10
3.97118673683e-11
2.6876514396e-10
3.63154458118e-11
1.54690724291e-10
8.20254837809e-11
6.29459296491e-11
6.22611221693e-11
5.17117457745e-11
9.414716628e-11
4.21564605443e-11
1.01685860988e-10
5.00874188033e-11
2.03525924669e-12
1.18001138045e-10
4.51976735278e-10
6.31123827097e-10
4.59475694952e-09
6.80653208412e-09
1.20658534362e-10
1.25218058367e-08
5.79620233198e-09
5.67022012561e-09
7.17914547036e-09
2.70406733308e-09
4.29256522916e-09
5.27480493705e-09
4.31893302589e-09
4.40465097497e-09
2.62978850954e-10
4.48982610822e-11
9.82282132665e-11
1.79535427453e-10
7.3897317533e-11
7.12161687205e-11
1.01714245191e-11
1.16038884584e-10
4.62636262883e-11
1.32962033802e-10
2.25764254e-11
1.03684842787e-11
1.9085048834e-10
3.91581259961e-11
1.64384665156e-10
1.3563614156e-10
6.8107912566e-12
1.23169307822e-10

