# vtk DataFile Version 3.0
File Name: Molecule/sphere_dip_12/sphere_dip_12_0-s5.vtk
ASCII
DATASET UNSTRUCTURED_GRID
FIELD FieldData 1
TIME 1 1 double
0.0
POINTS 58 double
0.850650808352 -0.525731112119 0.0
0.809016994375 -0.309016994375 -0.5
1.0 0.0 0.0
0.809016994375 0.309016994375 -0.5
0.525731112119 0.0 -0.850650808352
0.850650808352 0.525731112119 0.0
0.5 0.809016994375 -0.309016994375
0.309016994375 0.5 -0.809016994375
0.0 0.850650808352 -0.525731112119
0.5 0.809016994375 0.309016994375
0.0 1.0 0.0
0.0 0.850650808352 0.525731112119
-0.5 0.809016994375 0.309016994375
-0.5 0.809016994375 -0.309016994375
-0.850650808352 0.525731112119 0.0
0.309016994375 -0.5 -0.809016994375
0.0 0.0 -1.0
-0.309016994375 -0.5 -0.809016994375
0.0 -0.850650808352 -0.525731112119
-0.525731112119 0.0 -0.850650808352
0.809016994375 -0.309016994375 0.5
0.809016994375 0.309016994375 0.5
0.525731112119 0.0 0.850650808352
0.309016994375 0.5 0.809016994375
-0.809016994375 -0.309016994375 -0.5
-0.809016994375 0.309016994375 -0.5
-1.0 0.0 0.0
-0.850650808352 -0.525731112119 0.0
-0.309016994375 0.5 -0.809016994375
-0.5 -0.809016994375 -0.309016994375
-0.5 -0.809016994375 0.309016994375
0.0 -1.0 0.0
0.0 -0.850650808352 0.525731112119
-0.809016994375 -0.309016994375 0.5
-0.309016994375 -0.5 0.809016994375
-0.525731112119 0.0 0.850650808352
-0.809016994375 0.309016994375 0.5
0.5 -0.809016994375 -0.309016994375
0.5 -0.809016994375 0.309016994375
0.309016994375 -0.5 0.809016994375
0.559016994375 -0.404508497188 0.654508497187
0.404508497188 -0.654508497187 0.559016994375
0.654508497187 -0.559016994375 0.404508497188
-0.154508497188 -0.25 0.904508497187
0.0 0.0 1.0
0.0 -0.5 0.809016994375
0.154508497188 -0.25 0.904508497187
-0.154508497188 -0.675325404176 0.667374053247
0.154508497188 -0.675325404176 0.667374053247
-0.404508497188 0.654508497187 0.559016994375
-0.654508497187 0.559016994375 0.404508497188
-0.559016994375 0.404508497188 0.654508497187
-0.309016994375 0.5 0.809016994375
-0.154508497188 0.675325404176 0.667374053247
0.154508497188 0.675325404176 0.667374053247
0.0 0.5 0.809016994375
-0.154508497188 0.25 0.904508497187
0.154508497188 0.25 0.904508497187

CELLS 112 448
3 0 1 2
3 1 3 2
3 1 4 3
3 2 3 5
3 5 3 6
3 3 7 6
3 3 4 7
3 6 7 8
3 5 6 9
3 6 10 9
3 6 8 10
3 9 10 11
3 11 10 12
3 10 13 12
3 10 8 13
3 12 13 14
3 4 15 16
3 15 17 16
3 15 18 17
3 16 17 19
3 0 2 20
3 2 21 20
3 2 5 21
3 20 21 22
3 5 9 21
3 9 23 21
3 21 23 22
3 19 24 25
3 24 26 25
3 24 27 26
3 25 26 14
3 8 28 13
3 28 25 13
3 28 19 25
3 13 25 14
3 27 29 30
3 29 31 30
3 29 18 31
3 30 31 32
3 27 30 33
3 30 34 33
3 33 34 35
3 35 36 33
3 36 26 33
3 36 14 26
3 33 26 27
3 19 17 24
3 17 29 24
3 17 18 29
3 24 29 27
3 18 37 31
3 37 38 31
3 37 0 38
3 31 38 32
3 4 1 15
3 1 37 15
3 1 0 37
3 15 37 18
3 4 16 7
3 16 28 7
3 16 19 28
3 7 28 8
3 39 40 22
3 22 40 20
3 39 41 40
3 41 42 40
3 41 38 42
3 40 42 20
3 38 41 32
3 20 42 0
3 42 38 0
3 34 43 35
3 35 43 44
3 34 45 43
3 45 46 43
3 45 39 46
3 43 46 44
3 34 47 45
3 47 48 45
3 47 32 48
3 45 48 39
3 44 46 22
3 46 39 22
3 32 47 30
3 30 47 34
3 39 48 41
3 41 48 32
3 12 49 11
3 12 50 49
3 50 51 49
3 50 36 51
3 49 51 52
3 36 50 14
3 14 50 12
3 52 51 35
3 51 36 35
3 11 53 54
3 53 55 54
3 53 52 55
3 54 55 23
3 52 56 55
3 56 57 55
3 56 44 57
3 55 57 23
3 44 56 35
3 35 56 52
3 23 57 22
3 57 44 22
3 11 54 9
3 9 54 23
3 52 53 49
3 49 53 11

CELL_TYPES 112
5
5
5
5
5
5
5
5
5
5
5
5
5
5
5
5
5
5
5
5
5
5
5
5
5
5
5
5
5
5
5
5
5
5
5
5
5
5
5
5
5
5
5
5
5
5
5
5
5
5
5
5
5
5
5
5
5
5
5
5
5
5
5
5
5
5
5
5
5
5
5
5
5
5
5
5
5
5
5
5
5
5
5
5
5
5
5
5
5
5
5
5
5
5
5
5
5
5
5
5
5
5
5
5
5
5
5
5
5
5
5
5

CELL_DATA 112
SCALARS cell_data_0 double
LOOKUP_TABLE default
3.13831537757e-05
0.000110082533789
0.000139799791677
3.18028736598e-05
0.000294159676218
0.00189761353677
0.000933948404908
0.00164715392231
0.000968459399427
0.00112406145087
0.000294635875601
0.000582158559648
0.000639912129097
0.000528108031224
2.7088388316e-05
0.000342234465371
0.000859422383424
0.000834541769153
0.000340991090088
0.000690142147364
2.15872579003e-05
1.48099870618e-05
8.83998074882e-05
0.000294029374871
0.000448693473481
0.00041696768793
0.000295717148133
0.000268211875433
5.00196066189e-05
1.44790314946e-05
4.9565627785e-05
0.000209126404772
0.000275513075149
0.00039251366163
5.47219942287e-05
7.03789916646e-06
2.54990945394e-05
3.00183765249e-05
2.49042525334e-05
4.12168852289e-05
6.8833035991e-05
7.52057563137e-06
5.23875902262e-05
0.000266699856161
0.00016313691169
0.000133378568588
0.000369472206088
0.000253889574189
0.000163732923584
5.00393448899e-05
2.0289072898e-05
0.000464023103037
0.000344218776079
0.000394647957853
0.000298167640947
0.000262291547753
7.2421538841e-05
0.000167707065934
0.000437955132086
0.000950125625307
0.000680643768823
0.0004015230891
9.60281276627e-05
0.000134110500795
3.90178823015e-05
0.000144389332026
0.000376143191939
5.88329376099e-05
0.000363981930264
0.000113705592046
0.000366694681784
5.73334621945e-05
0.000115005054989
3.23691186499e-05
6.23082521418e-05
1.86517442379e-05
8.71499572122e-05
5.41346557478e-05
2.95736097273e-05
1.63343190815e-06
2.35189053376e-05
4.1013302502e-06
3.92034707319e-05
1.70877747667e-06
1.9393615496e-05
4.26935586346e-05
5.16747225579e-05
0.000248960348125
0.000139392288462
1.33883703909e-06
4.14979522793e-05
1.06974940542e-05
6.12849956597e-05
0.000235654156277
4.50687795426e-05
7.99189677839e-06
2.31738224524e-05
4.18586844981e-06
5.98152190008e-06
4.82520089769e-06
3.15210150278e-07
5.83394050709e-06
3.01180258326e-05
1.61373670841e-05
9.20436012866e-05
5.31180168483e-05
0.000201717274668
0.000112833991934
0.000243781775223
0.000199099458346
8.24262126738e-06
1.39141590484e-05

