# vtk DataFile Version 3.0
File Name: Molecule/sphere_dip_C5/sphere_dip_C5_0-s2.vtk
ASCII
DATASET UNSTRUCTURED_GRID
FIELD FieldData 1
TIME 1 1 double
0.0
POINTS 54 double
0.850650808352 -0.525731112119 0.0
0.809016994375 -0.309016994375 -0.5
1.0 0.0 0.0
0.809016994375 0.309016994375 -0.5
0.525731112119 0.0 -0.850650808352
0.850650808352 0.525731112119 0.0
0.5 0.809016994375 -0.309016994375
0.309016994375 0.5 -0.809016994375
0.0 0.850650808352 -0.525731112119
0.0 0.850650808352 0.525731112119
-0.309016994375 0.5 0.809016994375
0.309016994375 0.5 0.809016994375
0.0 0.0 1.0
-0.525731112119 0.0 0.850650808352
0.525731112119 0.0 0.850650808352
-0.309016994375 -0.5 0.809016994375
0.309016994375 -0.5 0.809016994375
0.0 -0.850650808352 0.525731112119
0.809016994375 -0.309016994375 0.5
0.5 -0.809016994375 0.309016994375
0.309016994375 -0.5 -0.809016994375
0.0 0.0 -1.0
-0.309016994375 -0.5 -0.809016994375
0.0 -0.850650808352 -0.525731112119
-0.525731112119 0.0 -0.850650808352
0.809016994375 0.309016994375 0.5
0.5 0.809016994375 0.309016994375
-0.809016994375 -0.309016994375 -0.5
-0.809016994375 0.309016994375 -0.5
-1.0 0.0 0.0
-0.850650808352 -0.525731112119 0.0
-0.850650808352 0.525731112119 0.0
-0.309016994375 0.5 -0.809016994375
-0.5 0.809016994375 -0.309016994375
-0.5 -0.809016994375 -0.309016994375
-0.5 -0.809016994375 0.309016994375
0.0 -1.0 0.0
-0.809016994375 -0.309016994375 0.5
-0.809016994375 0.309016994375 0.5
0.5 -0.809016994375 -0.309016994375
0.5 0.809016994375 0.0
0.25 0.904508497187 -0.154508497188
0.25 0.904508497187 0.154508497188
0.0 1.0 0.0
-0.25 0.904508497187 0.154508497188
-0.5 0.809016994375 0.309016994375
-0.25 0.904508497187 -0.154508497188
-0.5 0.809016994375 0.0
-0.675325404176 0.667374053247 0.154508497188
-0.675325404176 0.667374053247 -0.154508497188
-0.404508497188 0.654508497187 0.559016994375
-0.654508497187 0.559016994375 0.404508497188
-0.559016994375 0.404508497188 0.654508497187
-0.829833901363 0.417374053247 0.25

CELLS 104 416
3 0 1 2
3 1 3 2
3 1 4 3
3 2 3 5
3 5 3 6
3 3 7 6
3 3 4 7
3 6 7 8
3 9 10 11
3 10 12 11
3 10 13 12
3 11 12 14
3 13 15 12
3 15 16 12
3 15 17 16
3 12 16 14
3 14 16 18
3 16 19 18
3 16 17 19
3 18 19 0
3 4 20 21
3 20 22 21
3 20 23 22
3 21 22 24
3 0 2 18
3 2 25 18
3 2 5 25
3 18 25 14
3 5 26 25
3 26 11 25
3 26 9 11
3 25 11 14
3 24 27 28
3 27 29 28
3 27 30 29
3 28 29 31
3 8 32 33
3 32 28 33
3 32 24 28
3 30 34 35
3 34 36 35
3 34 23 36
3 35 36 17
3 30 35 37
3 35 15 37
3 35 17 15
3 37 15 13
3 13 38 37
3 38 29 37
3 37 29 30
3 24 22 27
3 22 34 27
3 22 23 34
3 27 34 30
3 23 39 36
3 39 19 36
3 39 0 19
3 36 19 17
3 4 1 20
3 1 39 20
3 1 0 39
3 20 39 23
3 4 21 7
3 21 32 7
3 21 24 32
3 7 32 8
3 6 40 5
3 5 40 26
3 6 41 40
3 41 42 40
3 41 43 42
3 40 42 26
3 43 41 8
3 8 41 6
3 26 42 9
3 42 43 9
3 43 44 9
3 9 44 45
3 43 46 44
3 46 47 44
3 46 33 47
3 44 47 45
3 33 46 8
3 8 46 43
3 45 47 48
3 47 49 48
3 47 33 49
3 48 49 31
3 45 50 9
3 9 50 10
3 45 51 50
3 51 52 50
3 51 38 52
3 50 52 10
3 45 48 51
3 48 53 51
3 48 31 53
3 51 53 38
3 10 52 13
3 52 38 13
3 31 49 28
3 28 49 33
3 38 53 29
3 53 31 29

CELL_TYPES 104
5
5
5
5
5
5
5
5
5
5
5
5
5
5
5
5
5
5
5
5
5
5
5
5
5
5
5
5
5
5
5
5
5
5
5
5
5
5
5
5
5
5
5
5
5
5
5
5
5
5
5
5
5
5
5
5
5
5
5
5
5
5
5
5
5
5
5
5
5
5
5
5
5
5
5
5
5
5
5
5
5
5
5
5
5
5
5
5
5
5
5
5
5
5
5
5
5
5
5
5
5
5
5
5

CELL_DATA 104
SCALARS cell_data_0 double
LOOKUP_TABLE default
0.00132716749031
0.00164678563696
0.00100556416114
0.000366798559351
0.00037144630244
0.000866356311894
0.000436115401747
0.000444392979885
0.000215635429217
0.00040881838926
0.000344078446349
0.000329139068314
0.000356078272305
0.000427322008217
0.00017091438727
0.000335210503672
0.000205142877403
0.000166582813936
0.000122589804559
3.3298656596e-05
4.87763665228e-05
6.94879197012e-05
4.21498327046e-05
4.8800530178e-05
0.000273178012038
2.44713620001e-06
5.59117673502e-05
0.000178456610613
5.24682659953e-05
0.000160906177038
0.000123060897381
0.000216772559074
2.02305706908e-05
2.69877292299e-05
0.00016934076396
6.39022177678e-05
3.15822003694e-05
1.760482589e-05
4.18631224126e-05
0.000246469602539
6.48635907485e-05
4.3216264815e-05
3.04574958553e-05
0.00012272894298
9.57260509676e-05
7.40894339775e-05
0.000190722522787
0.000164978400919
8.64568054551e-05
0.000128731799834
2.9903456185e-05
8.02943177915e-05
7.2250811418e-05
0.000219076874505
2.66521826868e-06
4.18855845764e-05
0.000117335974871
7.03652443899e-05
0.000692300737205
0.000838477020246
0.000971668583575
3.79226987347e-05
0.000211262480056
0.000286804378375
5.9006249765e-05
0.000241447222603
7.70523495485e-05
7.5033421034e-06
5.22914499238e-05
6.14904082787e-07
1.41815182047e-05
1.35581401557e-05
2.80367653966e-05
8.78898251541e-05
1.49396636371e-05
3.45952439383e-06
5.45071540932e-06
2.26706517433e-05
1.30705897534e-05
3.38066621393e-06
1.44366215578e-06
1.35559559501e-06
5.58824085952e-06
3.34967428642e-05
2.62491502216e-06
1.66201299391e-06
6.28293515779e-07
1.19560280264e-05
2.70201749157e-05
8.03820854632e-05
4.05411429071e-06
4.55727323603e-06
1.54656076085e-05
3.80492113343e-05
3.02590618195e-06
1.84110161163e-06
1.21333557984e-05
1.1289923961e-05
0.000116272480382
8.27989853772e-05
2.38238793168e-05
1.85531123056e-06
1.72415713216e-05
3.03504611809e-05

