# vtk DataFile Version 3.0
File Name: Molecule/sphere_dip_C5/sphere_dip_C5_0-s4.vtk
ASCII
DATASET UNSTRUCTURED_GRID
FIELD FieldData 1
TIME 1 1 double
0.0
POINTS 80 double
-0.525731112119 0.0 0.850650808352
-0.309016994375 -0.5 0.809016994375
0.0 0.0 1.0
0.309016994375 -0.5 0.809016994375
0.0 -0.850650808352 0.525731112119
0.525731112119 0.0 0.850650808352
0.809016994375 -0.309016994375 0.5
0.5 -0.809016994375 0.309016994375
0.850650808352 -0.525731112119 0.0
0.525731112119 0.0 -0.850650808352
0.309016994375 -0.5 -0.809016994375
0.0 0.0 -1.0
-0.309016994375 -0.5 -0.809016994375
-0.525731112119 0.0 -0.850650808352
1.0 0.0 0.0
0.809016994375 0.309016994375 0.5
0.850650808352 0.525731112119 0.0
0.5 0.809016994375 0.309016994375
0.309016994375 0.5 0.809016994375
0.0 0.850650808352 0.525731112119
-0.809016994375 -0.309016994375 -0.5
-0.809016994375 0.309016994375 -0.5
-1.0 0.0 0.0
-0.850650808352 -0.525731112119 0.0
-0.850650808352 0.525731112119 0.0
0.0 0.850650808352 -0.525731112119
-0.309016994375 0.5 -0.809016994375
-0.5 0.809016994375 -0.309016994375
-0.5 -0.809016994375 -0.309016994375
-0.5 -0.809016994375 0.309016994375
0.0 -1.0 0.0
-0.809016994375 -0.309016994375 0.5
-0.809016994375 0.309016994375 0.5
0.309016994375 0.5 -0.809016994375
0.5 0.809016994375 -0.309016994375
0.5 0.809016994375 0.0
0.25 0.904508497187 -0.154508497188
0.25 0.904508497187 0.154508497188
0.0 1.0 0.0
-0.25 0.904508497187 0.154508497188
-0.5 0.809016994375 0.309016994375
-0.25 0.904508497187 -0.154508497188
-0.5 0.809016994375 0.0
-0.675325404176 0.667374053247 0.154508497188
-0.675325404176 0.667374053247 -0.154508497188
-0.404508497188 0.654508497187 0.559016994375
-0.309016994375 0.5 0.809016994375
-0.654508497187 0.559016994375 0.404508497188
-0.559016994375 0.404508497188 0.654508497187
-0.829833901363 0.417374053247 0.25
0.829833901363 -0.417374053247 -0.25
0.925325404176 -0.26286555606 0.0
0.904508497187 -0.154508497188 -0.25
0.809016994375 -0.309016994375 -0.5
0.809016994375 0.0 -0.5
0.904508497187 0.154508497188 -0.25
0.809016994375 0.309016994375 -0.5
0.667374053247 -0.154508497188 -0.675325404176
0.667374053247 0.154508497188 -0.675325404176
0.654508497187 0.559016994375 -0.404508497188
0.559016994375 0.404508497188 -0.654508497187
0.404508497188 0.654508497187 -0.559016994375
0.417374053247 0.25 -0.829833901363
0.5 -0.809016994375 -0.309016994375
0.675325404176 -0.667374053247 -0.154508497188
0.654508497187 -0.559016994375 -0.404508497188
0.0 0.5 0.809016994375
-0.154508497188 0.25 0.904508497187
0.154508497188 0.25 0.904508497187
0.0 -0.5 -0.809016994375
0.154508497188 -0.675325404176 -0.667374053247
-0.154508497188 -0.675325404176 -0.667374053247
0.0 -0.850650808352 -0.525731112119
-0.25 -0.904508497187 -0.154508497188
-0.25 -0.829833901363 -0.417374053247
0.0 -0.925325404176 -0.26286555606
-0.404508497188 -0.654508497187 -0.559016994375
0.25 -0.829833901363 -0.417374053247
0.25 -0.904508497187 -0.154508497188
0.404508497188 -0.654508497187 -0.559016994375

CELLS 156 624
3 0 1 2
3 1 3 2
3 1 4 3
3 2 3 5
3 5 3 6
3 3 7 6
3 3 4 7
3 6 7 8
3 9 10 11
3 11 12 13
3 14 15 6
3 14 16 15
3 6 15 5
3 16 17 15
3 17 18 15
3 17 19 18
3 15 18 5
3 13 20 21
3 20 22 21
3 20 23 22
3 21 22 24
3 25 26 27
3 26 21 27
3 26 13 21
3 23 28 29
3 29 30 4
3 23 29 31
3 29 1 31
3 29 4 1
3 31 1 0
3 0 32 31
3 32 22 31
3 31 22 23
3 13 12 20
3 20 28 23
3 30 7 4
3 11 26 33
3 11 13 26
3 33 26 25
3 34 35 16
3 16 35 17
3 34 36 35
3 36 37 35
3 36 38 37
3 35 37 17
3 38 36 25
3 25 36 34
3 17 37 19
3 37 38 19
3 38 39 19
3 19 39 40
3 38 41 39
3 41 42 39
3 41 27 42
3 39 42 40
3 27 41 25
3 25 41 38
3 40 42 43
3 42 44 43
3 42 27 44
3 43 44 24
3 40 45 19
3 19 45 46
3 40 47 45
3 47 48 45
3 47 32 48
3 45 48 46
3 40 43 47
3 43 49 47
3 43 24 49
3 47 49 32
3 46 48 0
3 48 32 0
3 24 44 21
3 21 44 27
3 32 49 22
3 49 24 22
3 8 50 51
3 50 52 51
3 50 53 52
3 51 52 14
3 53 54 52
3 54 55 52
3 54 56 55
3 52 55 14
3 53 57 54
3 57 58 54
3 57 9 58
3 54 58 56
3 14 55 16
3 55 56 16
3 56 59 16
3 16 59 34
3 56 60 59
3 60 61 59
3 60 33 61
3 59 61 34
3 56 58 60
3 58 62 60
3 58 9 62
3 60 62 33
3 34 61 25
3 61 33 25
3 8 51 6
3 51 14 6
3 63 64 7
3 64 8 7
3 9 57 10
3 57 53 10
3 53 65 10
3 53 50 65
3 50 64 65
3 50 8 64
3 65 64 63
3 33 62 11
3 11 62 9
3 46 66 19
3 19 66 18
3 46 67 66
3 67 68 66
3 67 2 68
3 66 68 18
3 2 67 0
3 0 67 46
3 18 68 5
3 68 2 5
3 10 69 11
3 69 12 11
3 10 70 69
3 70 71 69
3 70 72 71
3 69 71 12
3 28 73 29
3 73 30 29
3 28 74 73
3 74 75 73
3 74 72 75
3 73 75 30
3 12 76 20
3 76 28 20
3 12 71 76
3 71 74 76
3 71 72 74
3 76 74 28
3 72 77 75
3 77 78 75
3 77 63 78
3 75 78 30
3 30 78 7
3 7 78 63
3 10 79 70
3 79 77 70
3 79 63 77
3 70 77 72
3 63 79 65
3 65 79 10

CELL_TYPES 156
5
5
5
5
5
5
5
5
5
5
5
5
5
5
5
5
5
5
5
5
5
5
5
5
5
5
5
5
5
5
5
5
5
5
5
5
5
5
5
5
5
5
5
5
5
5
5
5
5
5
5
5
5
5
5
5
5
5
5
5
5
5
5
5
5
5
5
5
5
5
5
5
5
5
5
5
5
5
5
5
5
5
5
5
5
5
5
5
5
5
5
5
5
5
5
5
5
5
5
5
5
5
5
5
5
5
5
5
5
5
5
5
5
5
5
5
5
5
5
5
5
5
5
5
5
5
5
5
5
5
5
5
5
5
5
5
5
5
5
5
5
5
5
5
5
5
5
5
5
5
5
5
5
5
5
5

CELL_DATA 156
SCALARS cell_data_0 double
LOOKUP_TABLE default
0.000363131178681
0.000407573791931
0.000178497209454
0.000341476594968
0.000202018283483
0.000180719014692
6.87385374006e-05
8.22535664691e-05
0.00011524085606
0.000173499884106
8.4550722378e-05
2.4063955256e-05
0.000112000283209
4.91250386704e-06
0.000115539224781
1.98355210343e-05
0.000167313443202
5.11141685681e-05
5.09145434823e-06
2.09567641856e-05
1.51863630679e-05
0.000623841903714
1.66310991828e-05
8.97155753332e-05
1.63255701773e-05
9.77964627469e-05
5.32909053826e-05
0.000139844606881
5.14699823225e-05
0.00014257861657
5.21043009461e-05
6.53363449503e-05
3.44184721894e-05
0.000128448688555
2.98328107082e-06
8.90551372573e-05
7.94872059587e-05
0.000124787841633
0.000685617476908
2.59553938129e-05
9.48213510829e-08
2.31535962806e-05
4.32924669894e-06
3.8456911391e-05
3.01815775669e-06
0.000442733664383
0.000371809201586
3.85411827981e-05
0.000120629147439
0.000191044905053
0.000106814507691
0.000114831736416
6.51946487492e-05
4.15047142467e-05
3.94081831135e-05
0.000392211397343
0.000552039147961
4.28154273903e-05
3.89740491348e-05
1.470799905e-05
2.35427556649e-05
1.82272025449e-05
5.29212867467e-05
1.94828274296e-05
4.856122392e-05
3.60766179317e-05
5.69179563585e-05
2.14410750637e-05
1.10798335079e-06
5.03642870256e-06
1.89175973437e-05
0.000106780079336
5.87818572604e-05
6.66350827349e-07
8.96898845269e-06
2.69412053432e-05
2.29273962329e-05
6.41524727468e-06
7.25319969297e-06
4.32798332147e-06
7.46364170644e-06
5.64774021274e-06
1.04699767682e-05
2.46012781213e-07
1.09539208853e-05
1.66854804165e-06
1.07020694435e-06
1.63580472898e-05
4.57136813308e-06
1.62965216862e-05
2.53114768165e-07
5.07734146504e-06
2.50517862006e-05
3.15163238973e-06
4.71200395853e-06
4.49464570707e-06
1.5642390876e-05
4.30271780853e-06
2.85881058759e-06
1.83814611394e-05
1.05249210521e-05
0.000344199699266
0.000304418256269
3.22053480934e-05
3.24077121213e-05
1.02992592308e-05
2.50138759324e-05
5.30653232777e-05
2.25382943594e-05
0.000151740037714
4.92008594836e-05
4.76520001375e-05
5.9871210792e-06
5.93913267959e-05
3.32900702351e-05
4.70542090589e-05
4.3936750666e-05
5.84117192935e-05
1.10894864732e-05
0.000103570730922
0.000162288687071
8.9534618311e-05
0.00017929006058
9.2656728184e-05
0.000161305347995
0.000197748019847
3.78356237327e-05
5.28082781596e-05
1.14162322091e-05
2.0101074934e-06
4.18841689404e-05
1.56780717376e-05
2.60871614943e-06
3.83262095687e-06
9.66385703859e-06
1.36278387366e-06
4.36282700152e-05
7.44493983336e-06
3.25074103895e-05
1.12378272028e-05
1.67865110146e-05
1.73643736271e-06
4.19068265589e-05
9.34549732781e-06
4.44035829584e-05
8.73890375575e-07
5.82133237505e-06
7.74407911473e-06
7.86250802168e-06
1.01638842119e-05
1.17626912703e-05
1.29274397453e-06
4.64639769124e-06
4.5048114666e-05
6.97653137838e-05
8.07837945053e-05

