# vtk DataFile Version 3.0
File Name: Molecule/sphere_cent/sphere_cent_0-s5.vtk
ASCII
DATASET UNSTRUCTURED_GRID
FIELD FieldData 1
TIME 1 1 double
0.0
POINTS 231 double
1.70130162 -1.05146222 0.0
1.72533696 -0.86777713 -0.51978383
1.92387672 -0.54653306 0.0
1.90211303 -0.3249197 -0.52573111
1.38756095 -0.32124407 -1.40409289
1.38756095 0.32124407 -1.40409289
1.70130162 0.0 -1.05146222
1.05146222 0.0 -1.70130162
1.90211303 0.3249197 -0.52573111
1.72533696 0.86777713 -0.51978383
1.92387672 0.54653306 0.0
1.70130162 1.05146222 0.0
1.40409289 1.38756095 -0.32124407
1.37638192 1.17557051 -0.85065081
0.86777713 0.51978383 -1.72533696
1.17557051 0.85065081 -1.37638192
0.85065081 1.37638192 -1.17557051
0.32124407 1.40409289 -1.38756095
0.51978383 1.72533696 -0.86777713
0.61803399 1.0 -1.61803399
0.0 1.70130162 -1.05146222
1.40409289 1.38756095 0.32124407
1.05146222 1.70130162 0.0
0.0 1.92387672 -0.54653306
0.52573111 1.90211303 -0.3249197
0.0 2.0 0.0
0.52573111 1.90211303 0.3249197
0.0 1.92387672 0.54653306
0.51978383 1.72533696 0.86777713
0.0 1.70130162 1.05146222
-0.51978383 1.72533696 0.86777713
-0.52573111 1.90211303 0.3249197
-1.0 1.61803399 0.61803399
-0.52573111 1.90211303 -0.3249197
-1.05146222 1.70130162 0.0
-1.0 1.61803399 -0.61803399
-0.51978383 1.72533696 -0.86777713
-1.40409289 1.38756095 0.32124407
-1.40409289 1.38756095 -0.32124407
-1.70130162 1.05146222 0.0
-0.32124407 1.40409289 1.38756095
-0.85065081 1.37638192 1.17557051
-1.37638192 1.17557051 0.85065081
-1.72533696 0.86777713 0.51978383
-1.61803399 0.61803399 1.0
-1.17557051 0.85065081 1.37638192
-1.38756095 0.32124407 1.40409289
-0.86777713 0.51978383 1.72533696
-1.05146222 0.0 1.70130162
0.32124407 1.40409289 1.38756095
0.0 1.05146222 1.70130162
-0.61803399 1.0 1.61803399
0.61803399 1.0 1.61803399
-0.3249197 0.52573111 1.90211303
-0.54653306 0.0 1.92387672
0.3249197 0.52573111 1.90211303
0.86777713 0.51978383 1.72533696
0.54653306 0.0 1.92387672
1.05146222 0.0 1.70130162
-0.86777713 -0.51978383 1.72533696
-0.3249197 -0.52573111 1.90211303
-0.61803399 -1.0 1.61803399
0.0 0.0 2.0
0.0 -1.05146222 1.70130162
0.3249197 -0.52573111 1.90211303
0.61803399 -1.0 1.61803399
-0.32124407 -1.40409289 1.38756095
0.32124407 -1.40409289 1.38756095
0.0 -1.70130162 1.05146222
0.86777713 -0.51978383 1.72533696
1.38756095 -0.32124407 1.40409289
1.17557051 -0.85065081 1.37638192
1.61803399 -0.61803399 1.0
0.85065081 -1.37638192 1.17557051
0.51978383 -1.72533696 0.86777713
1.0 -1.61803399 0.61803399
1.37638192 -1.17557051 0.85065081
1.72533696 -0.86777713 0.51978383
1.40409289 -1.38756095 0.32124407
0.86777713 -0.51978383 -1.72533696
0.54653306 0.0 -1.92387672
0.3249197 -0.52573111 -1.90211303
0.61803399 -1.0 -1.61803399
0.32124407 -1.40409289 -1.38756095
0.0 -1.05146222 -1.70130162
-0.32124407 -1.40409289 -1.38756095
0.0 -1.70130162 -1.05146222
-0.3249197 -0.52573111 -1.90211303
-0.86777713 -0.51978383 -1.72533696
-0.54653306 0.0 -1.92387672
-1.05146222 0.0 -1.70130162
1.90211303 -0.3249197 0.52573111
1.90211303 0.3249197 0.52573111
1.61803399 0.61803399 1.0
1.70130162 0.0 1.05146222
1.72533696 0.86777713 0.51978383
1.38756095 0.32124407 1.40409289
1.37638192 1.17557051 0.85065081
1.0 1.61803399 0.61803399
0.85065081 1.37638192 1.17557051
1.17557051 0.85065081 1.37638192
-1.38756095 -0.32124407 -1.40409289
-1.38756095 0.32124407 -1.40409289
-1.70130162 0.0 -1.05146222
-1.61803399 -0.61803399 -1.0
-1.61803399 0.61803399 -1.0
-1.90211303 -0.3249197 -0.52573111
-1.90211303 0.3249197 -0.52573111
-2.0 0.0 0.0
-1.72533696 -0.86777713 -0.51978383
-1.92387672 -0.54653306 0.0
-1.70130162 -1.05146222 0.0
-1.72533696 0.86777713 -0.51978383
-1.92387672 0.54653306 0.0
-0.32124407 1.40409289 -1.38756095
-0.85065081 1.37638192 -1.17557051
-0.61803399 1.0 -1.61803399
-0.86777713 0.51978383 -1.72533696
-1.17557051 0.85065081 -1.37638192
-1.37638192 1.17557051 -0.85065081
-1.40409289 -1.38756095 -0.32124407
-1.40409289 -1.38756095 0.32124407
-1.05146222 -1.70130162 0.0
-1.0 -1.61803399 -0.61803399
-1.0 -1.61803399 0.61803399
-0.51978383 -1.72533696 -0.86777713
-0.52573111 -1.90211303 -0.3249197
0.0 -1.92387672 -0.54653306
0.0 -2.0 0.0
-0.52573111 -1.90211303 0.3249197
-0.51978383 -1.72533696 0.86777713
0.0 -1.92387672 0.54653306
-1.72533696 -0.86777713 0.51978383
-1.37638192 -1.17557051 0.85065081
-1.61803399 -0.61803399 1.0
-0.85065081 -1.37638192 1.17557051
-1.17557051 -0.85065081 1.37638192
-1.38756095 -0.32124407 1.40409289
-1.70130162 0.0 1.05146222
-1.90211303 0.3249197 0.52573111
-1.90211303 -0.3249197 0.52573111
-1.17557051 -0.85065081 -1.37638192
-0.61803399 -1.0 -1.61803399
-0.85065081 -1.37638192 -1.17557051
-1.37638192 -1.17557051 -0.85065081
0.51978383 -1.72533696 -0.86777713
0.52573111 -1.90211303 -0.3249197
1.0 -1.61803399 -0.61803399
1.05146222 -1.70130162 0.0
0.52573111 -1.90211303 0.3249197
1.40409289 -1.38756095 -0.32124407
1.17557051 -0.85065081 -1.37638192
1.61803399 -0.61803399 -1.0
1.37638192 -1.17557051 -0.85065081
0.85065081 -1.37638192 -1.17557051
-0.3249197 0.52573111 -1.90211303
0.0 1.05146222 -1.70130162
1.78201305 -0.47735386 -0.77237477
1.68035577 -0.31286893 -1.03851698
1.82596499 -0.16464716 -0.7992141
1.61803399 0.61803399 -1.0
1.51587084 0.907981 -0.9368597
1.20300191 1.41421356 -0.74349607
1.0 1.61803399 -0.61803399
1.41421356 0.74349607 -1.20300191
1.29315558 1.02675088 -1.12850842
1.02675088 1.12850842 -1.29315558
1.12850842 1.29315558 -1.02675088
0.9368597 1.51587084 -0.907981
-0.74349607 1.20300191 1.41421356
-1.12850842 1.29315558 1.02675088
-1.29315558 1.02675088 1.12850842
-1.02675088 1.12850842 1.29315558
-0.907981 0.9368597 1.51587084
-0.16464716 0.7992141 1.82596499
0.0 0.5328094 1.92772253
0.16464716 0.7992141 1.82596499
-0.16448493 0.26614221 1.97537668
0.16448493 0.26614221 1.97537668
1.02675088 -1.12850842 1.29315558
1.12850842 -1.29315558 1.02675088
1.29315558 -1.02675088 1.12850842
1.12850842 1.29315558 1.02675088
1.02675088 1.12850842 1.29315558
1.29315558 1.02675088 1.12850842
-0.7992141 -1.82596499 -0.16464716
-0.5328094 -1.92772253 0.0
-0.7992141 -1.82596499 0.16464716
1.97537668 -0.16448493 -0.26614221
2.0 0.0 0.0
1.68035577 0.31286893 -1.03851698
1.82596499 0.16464716 -0.7992141
1.78201305 0.47735386 -0.77237477
1.92772253 0.0 -0.5328094
1.97537668 0.16448493 -0.26614221
1.03851698 1.68035577 -0.31286893
1.03851698 1.68035577 0.31286893
0.77237477 1.78201305 -0.47735386
0.7992141 1.82596499 -0.16464716
0.5328094 1.92772253 0.0
0.7992141 1.82596499 0.16464716
0.77237477 1.78201305 0.47735386
0.16448493 -0.26614221 -1.97537668
0.16464716 -0.7992141 -1.82596499
-0.16464716 -0.7992141 -1.82596499
0.0 -0.5328094 -1.92772253
-0.31286893 -1.03851698 -1.68035577
-0.47735386 -0.77237477 -1.78201305
-0.16448493 -0.26614221 -1.97537668
0.0 0.0 -2.0
1.97537668 -0.16448493 0.26614221
1.97537668 0.16448493 0.26614221
1.92772253 0.0 0.5328094
-1.02675088 1.12850842 -1.29315558
-1.29315558 1.02675088 -1.12850842
-1.12850842 1.29315558 -1.02675088
0.75007714 0.76722747 -1.68782295
0.71645759 0.26331074 -1.8486092
0.44023406 0.26558495 -1.93278519
0.60251776 0.5281655 -1.83248835
0.3249197 0.52573111 -1.90211303
0.27590449 0.0 -1.98087776
0.16448493 0.26614221 -1.97537668
0.47735386 0.77237477 -1.78201305
-0.16448493 0.26614221 -1.97537668
0.0 0.5328094 -1.92772253
-0.16464716 0.7992141 -1.82596499
0.16464716 0.7992141 -1.82596499
-0.47735386 0.77237477 -1.78201305
-0.31286893 1.03851698 -1.68035577
0.31286893 1.03851698 -1.68035577

CELLS 458 1832
3 0 1 2
3 1 3 2
3 4 5 6
3 4 7 5
3 8 9 10
3 10 9 11
3 11 9 12
3 9 13 12
3 5 14 15
3 5 7 14
3 16 17 18
3 16 19 17
3 18 17 20
3 11 12 21
3 12 22 21
3 18 23 24
3 18 20 23
3 24 23 25
3 26 27 28
3 26 25 27
3 28 27 29
3 29 27 30
3 27 31 30
3 27 25 31
3 30 31 32
3 25 33 31
3 33 34 31
3 33 35 34
3 31 34 32
3 25 23 33
3 23 36 33
3 23 20 36
3 33 36 35
3 32 34 37
3 34 38 37
3 34 35 38
3 37 38 39
3 29 30 40
3 30 41 40
3 30 32 41
3 32 37 42
3 37 43 42
3 37 39 43
3 42 43 44
3 45 46 47
3 45 44 46
3 47 46 48
3 29 40 49
3 40 50 49
3 40 51 50
3 49 50 52
3 51 47 53
3 47 54 53
3 47 48 54
3 52 55 56
3 55 57 56
3 56 57 58
3 48 59 54
3 59 60 54
3 59 61 60
3 54 60 62
3 61 63 60
3 63 64 60
3 63 65 64
3 60 64 62
3 61 66 63
3 66 67 63
3 66 68 67
3 63 67 65
3 62 64 57
3 64 69 57
3 64 65 69
3 57 69 58
3 58 69 70
3 69 71 70
3 69 65 71
3 70 71 72
3 65 67 73
3 67 74 73
3 67 68 74
3 73 74 75
3 72 76 77
3 76 78 77
3 76 75 78
3 77 78 0
3 7 79 80
3 79 81 80
3 79 82 81
3 82 83 84
3 83 85 84
3 83 86 85
3 87 88 89
3 89 88 90
3 0 2 77
3 2 91 77
3 77 91 72
3 92 93 94
3 91 94 72
3 10 95 92
3 10 11 95
3 92 95 93
3 72 94 70
3 94 96 70
3 94 93 96
3 70 96 58
3 11 21 95
3 21 97 95
3 21 98 97
3 95 97 93
3 98 28 99
3 28 49 99
3 28 29 49
3 99 49 52
3 93 100 96
3 100 56 96
3 100 52 56
3 96 56 58
3 90 101 102
3 101 103 102
3 101 104 103
3 102 103 105
3 104 106 103
3 106 107 103
3 106 108 107
3 103 107 105
3 104 109 106
3 109 110 106
3 109 111 110
3 106 110 108
3 105 107 112
3 107 113 112
3 107 108 113
3 112 113 39
3 20 114 36
3 114 115 36
3 114 116 115
3 36 115 35
3 116 117 118
3 117 102 118
3 117 90 102
3 118 102 105
3 35 119 38
3 119 112 38
3 119 105 112
3 38 112 39
3 111 120 121
3 120 122 121
3 120 123 122
3 121 122 124
3 123 125 126
3 125 127 126
3 125 86 127
3 126 127 128
3 124 129 130
3 129 131 130
3 129 128 131
3 130 131 68
3 111 121 132
3 121 133 132
3 121 124 133
3 132 133 134
3 124 135 133
3 135 136 133
3 135 61 136
3 133 136 134
3 124 130 135
3 130 66 135
3 130 68 66
3 135 66 61
3 134 136 137
3 136 59 137
3 136 61 59
3 137 59 48
3 48 46 137
3 46 138 137
3 46 44 138
3 137 138 134
3 44 139 138
3 139 140 138
3 139 108 140
3 138 140 134
3 44 43 139
3 43 113 139
3 43 39 113
3 139 113 108
3 134 140 132
3 140 110 132
3 140 108 110
3 132 110 111
3 90 88 101
3 88 141 101
3 88 142 141
3 101 141 104
3 142 143 141
3 143 144 141
3 143 123 144
3 141 144 104
3 142 85 143
3 85 125 143
3 85 86 125
3 143 125 123
3 104 144 109
3 144 120 109
3 144 123 120
3 109 120 111
3 86 145 127
3 145 146 127
3 145 147 146
3 127 146 128
3 147 148 146
3 148 149 146
3 148 75 149
3 146 149 128
3 147 150 148
3 150 78 148
3 150 0 78
3 148 78 75
3 128 149 131
3 149 74 131
3 149 75 74
3 131 74 68
3 7 4 79
3 4 151 79
3 4 152 151
3 79 151 82
3 152 153 151
3 153 154 151
3 153 147 154
3 151 154 82
3 152 1 153
3 1 150 153
3 1 0 150
3 153 150 147
3 82 154 83
3 154 145 83
3 154 147 145
3 83 145 86
3 89 117 155
3 89 90 117
3 156 114 17
3 17 114 20
3 152 157 1
3 1 157 3
3 152 158 157
3 158 159 157
3 158 6 159
3 157 159 3
3 6 158 4
3 4 158 152
3 160 161 9
3 9 161 13
3 13 162 12
3 12 162 163
3 160 164 161
3 164 165 161
3 164 15 165
3 161 165 13
3 15 166 165
3 166 167 165
3 166 16 167
3 165 167 13
3 16 166 19
3 19 166 15
3 13 167 162
3 167 168 162
3 167 16 168
3 162 168 163
3 15 164 5
3 5 164 160
3 163 168 18
3 168 16 18
3 41 169 40
3 40 169 51
3 42 170 32
3 32 170 41
3 42 171 170
3 171 172 170
3 171 45 172
3 170 172 41
3 45 171 44
3 44 171 42
3 41 172 169
3 172 173 169
3 172 45 173
3 169 173 51
3 51 173 47
3 173 45 47
3 53 174 51
3 51 174 50
3 53 175 174
3 175 176 174
3 175 55 176
3 174 176 50
3 53 177 175
3 177 178 175
3 177 62 178
3 175 178 55
3 50 176 52
3 176 55 52
3 62 177 54
3 54 177 53
3 55 178 57
3 178 62 57
3 73 179 65
3 65 179 71
3 73 180 179
3 180 181 179
3 180 76 181
3 179 181 71
3 76 180 75
3 75 180 73
3 71 181 72
3 181 76 72
3 99 182 98
3 98 182 97
3 99 183 182
3 183 184 182
3 183 100 184
3 182 184 97
3 100 183 52
3 52 183 99
3 97 184 93
3 184 100 93
3 126 185 123
3 123 185 122
3 126 186 185
3 186 187 185
3 186 129 187
3 185 187 122
3 129 186 128
3 128 186 126
3 122 187 124
3 187 129 124
3 3 188 2
3 2 188 189
3 6 190 191
3 190 192 191
3 190 160 192
3 191 192 8
3 3 193 188
3 193 194 188
3 193 8 194
3 188 194 189
3 160 190 5
3 5 190 6
3 189 194 10
3 194 8 10
3 8 192 9
3 192 160 9
3 163 195 12
3 12 195 22
3 22 196 21
3 21 196 98
3 163 197 195
3 197 198 195
3 197 24 198
3 195 198 22
3 24 199 198
3 199 200 198
3 199 26 200
3 198 200 22
3 26 199 25
3 25 199 24
3 22 200 196
3 200 201 196
3 200 26 201
3 196 201 98
3 24 197 18
3 18 197 163
3 98 201 28
3 201 26 28
3 81 202 80
3 84 203 82
3 82 203 81
3 84 204 203
3 204 205 203
3 204 87 205
3 203 205 81
3 84 206 204
3 206 207 204
3 206 142 207
3 204 207 87
3 81 205 202
3 205 208 202
3 205 87 208
3 202 208 209
3 142 206 85
3 85 206 84
3 209 208 89
3 208 87 89
3 87 207 88
3 207 142 88
3 189 210 2
3 2 210 91
3 189 211 210
3 211 212 210
3 211 92 212
3 210 212 91
3 91 212 94
3 94 212 92
3 92 211 10
3 10 211 189
3 118 213 116
3 116 213 115
3 118 214 213
3 214 215 213
3 214 119 215
3 213 215 115
3 119 214 105
3 105 214 118
3 115 215 35
3 215 119 35
3 8 193 159
3 159 193 3
3 6 191 159
3 159 191 8
3 14 216 15
3 15 216 19
3 80 217 7
3 7 217 14
3 80 218 217
3 218 219 217
3 218 220 219
3 217 219 14
3 80 221 218
3 221 222 218
3 221 209 222
3 218 222 220
3 14 219 216
3 219 223 216
3 219 220 223
3 216 223 19
3 209 224 222
3 224 225 222
3 224 155 225
3 222 225 220
3 155 226 225
3 226 227 225
3 226 156 227
3 225 227 220
3 155 228 226
3 228 229 226
3 228 116 229
3 226 229 156
3 220 227 223
3 227 230 223
3 227 156 230
3 223 230 19
3 155 224 89
3 89 224 209
3 116 228 117
3 117 228 155
3 19 230 17
3 230 156 17
3 156 229 114
3 229 116 114
3 209 221 202
3 202 221 80

CELL_TYPES 458
5
5
5
5
5
5
5
5
5
5
5
5
5
5
5
5
5
5
5
5
5
5
5
5
5
5
5
5
5
5
5
5
5
5
5
5
5
5
5
5
5
5
5
5
5
5
5
5
5
5
5
5
5
5
5
5
5
5
5
5
5
5
5
5
5
5
5
5
5
5
5
5
5
5
5
5
5
5
5
5
5
5
5
5
5
5
5
5
5
5
5
5
5
5
5
5
5
5
5
5
5
5
5
5
5
5
5
5
5
5
5
5
5
5
5
5
5
5
5
5
5
5
5
5
5
5
5
5
5
5
5
5
5
5
5
5
5
5
5
5
5
5
5
5
5
5
5
5
5
5
5
5
5
5
5
5
5
5
5
5
5
5
5
5
5
5
5
5
5
5
5
5
5
5
5
5
5
5
5
5
5
5
5
5
5
5
5
5
5
5
5
5
5
5
5
5
5
5
5
5
5
5
5
5
5
5
5
5
5
5
5
5
5
5
5
5
5
5
5
5
5
5
5
5
5
5
5
5
5
5
5
5
5
5
5
5
5
5
5
5
5
5
5
5
5
5
5
5
5
5
5
5
5
5
5
5
5
5
5
5
5
5
5
5
5
5
5
5
5
5
5
5
5
5
5
5
5
5
5
5
5
5
5
5
5
5
5
5
5
5
5
5
5
5
5
5
5
5
5
5
5
5
5
5
5
5
5
5
5
5
5
5
5
5
5
5
5
5
5
5
5
5
5
5
5
5
5
5
5
5
5
5
5
5
5
5
5
5
5
5
5
5
5
5
5
5
5
5
5
5
5
5
5
5
5
5
5
5
5
5
5
5
5
5
5
5
5
5
5
5
5
5
5
5
5
5
5
5
5
5
5
5
5
5
5
5
5
5
5
5
5
5
5
5
5
5
5
5
5
5
5
5
5
5
5
5
5
5
5
5
5
5
5
5
5
5
5
5
5
5
5
5
5
5
5
5
5
5
5
5
5
5
5
5
5
5
5
5
5
5
5
5
5
5
5
5
5
5
5
5
5
5
5
5
5
5
5
5

CELL_DATA 458
SCALARS cell_data_0 double
LOOKUP_TABLE default
1.76926817471e-08
6.75036771722e-08
8.23927225999e-08
1.07473961274e-08
6.80291888299e-08
1.66129141101e-08
2.53233079173e-08
7.14764411485e-08
1.08067293135e-07
5.98103602114e-08
3.37207992562e-08
4.98254761692e-08
2.48302894497e-08
3.2266386508e-08
9.16638694191e-08
2.60986368307e-08
1.55564098707e-08
1.23807411117e-08
6.14042100524e-09
2.00774652354e-08
5.16747100411e-08
3.58326001188e-08
3.33824221793e-09
4.57874873624e-08
1.63954150904e-08
8.07732157693e-08
1.24479352733e-07
1.1917975086e-07
1.07342062686e-07
2.14328734831e-08
2.42118396304e-08
8.7982391821e-09
2.47010032084e-09
7.2286331338e-09
3.11736916162e-08
1.46138852218e-08
1.79509905416e-08
2.34141011846e-08
3.66097888952e-08
1.19296223642e-08
9.69984800397e-09
2.87731819761e-08
1.9224151078e-08
4.36064141931e-08
3.37771186463e-08
3.25885503252e-08
3.26172143748e-08
2.42187065302e-08
7.95375872056e-09
1.22373960653e-08
3.11534965454e-09
2.69025633559e-08
4.37057814051e-08
3.27896788534e-08
1.29756355994e-08
5.14209591801e-08
1.69779749262e-09
1.52686785932e-08
5.06840780598e-08
1.45756463937e-08
4.20540149332e-08
1.03321388697e-07
1.1249528669e-07
7.60093080419e-08
1.21112219868e-07
1.49299639815e-08
2.19508006228e-08
2.12472220099e-08
1.25976342245e-08
1.32274558245e-09
8.62011622669e-09
2.59779359379e-08
1.2978021332e-08
2.25271289344e-08
9.77085811519e-09
9.23005875706e-10
2.48039836644e-08
1.56501361182e-08
2.10962485308e-08
9.91065864489e-09
6.19283809844e-10
9.26346458138e-09
3.23177840031e-08
3.47304782057e-09
1.86785138584e-08
4.80171678579e-08
6.59485555844e-08
3.31800722951e-08
6.01204810127e-09
1.97098553507e-09
9.08454989732e-10
5.34525750156e-08
7.46896796079e-09
1.75423188587e-08
5.34811355484e-08
1.05360128632e-08
1.26736489266e-07
1.29651450728e-07
4.20554564165e-08
9.02574247763e-09
1.47889168631e-08
2.35068125929e-08
2.39876990307e-08
1.05131249234e-08
1.4097336422e-08
2.81130180491e-08
2.49754857085e-08
2.24635463209e-08
8.46644627879e-09
3.01176852149e-09
6.36339610291e-11
3.39229068425e-08
4.55335454681e-10
1.44963286373e-08
4.73234991739e-08
2.09251975095e-08
5.83310300207e-09
1.3682217074e-08
1.08269577017e-08
4.25364576006e-08
3.11196846493e-08
6.90450521418e-08
1.09081076952e-07
7.73927477019e-08
6.96482408245e-08
3.4915785106e-08
1.45223058933e-08
1.6867122968e-08
2.64956737359e-08
4.27550518899e-08
1.08761440049e-08
2.43705695013e-08
2.51172450536e-08
1.23704058095e-08
2.48094767153e-08
3.57158847161e-08
2.56759969503e-08
3.27578421772e-08
2.13946497435e-08
2.57925348056e-08
9.60432139787e-09
3.43176217686e-08
2.62750035184e-08
1.01878933673e-08
2.23416749885e-08
1.19733649344e-08
6.40445364244e-09
1.01242833084e-08
6.10128659752e-09
1.07852860403e-08
8.6287957258e-09
6.82999183007e-09
2.70464905961e-08
2.83120168743e-08
3.39885394393e-08
1.65599909645e-08
2.93349509951e-08
3.03016496998e-08
2.4530258714e-08
3.76350215397e-08
7.09481758502e-08
7.1686954735e-08
6.51046012615e-08
6.51205847671e-08
2.20574378907e-08
2.83115449699e-08
2.32326449626e-08
5.33549456559e-09
1.25981284028e-09
6.75486247404e-08
1.20518146185e-08
3.28748059441e-08
3.0946231797e-08
4.56004913332e-08
4.85740343564e-10
1.27018096657e-08
4.05185847764e-08
1.05911393994e-07
8.96065747405e-08
5.71085524738e-08
8.10967290652e-08
4.47657921357e-09
4.72173945823e-10
1.64425990174e-08
4.30395381666e-08
4.79568478309e-08
8.82082663127e-09
2.53294921885e-08
3.86517690265e-08
1.56628267218e-08
1.45592646779e-08
2.88624865725e-08
6.49461601786e-08
2.75219059902e-08
6.69945412354e-08
7.2012969235e-08
5.02275648248e-08
4.96114300875e-08
4.65941590719e-08
1.36901580542e-08
5.8770523486e-08
2.90668956609e-08
2.2703882567e-08
1.68864265066e-08
1.49023906284e-08
8.79966952577e-09
1.06230807079e-08
1.68014741372e-08
7.19969787078e-09
8.51119967938e-08
6.72510900885e-08
2.82790493957e-08
9.19403728907e-08
1.29898865492e-10
2.50999464747e-08
4.51110223677e-08
4.73442645669e-08
4.38587761262e-08
1.80027356832e-08
4.16270974056e-08
4.90075356026e-09
6.37560747738e-09
3.999805859e-08
7.14466298991e-09
3.04520942607e-08
2.28749149617e-07
3.89760618293e-07
3.41032974983e-07
2.6366105123e-07
9.94447728515e-08
1.5682238654e-07
4.7848468824e-08
1.26985280811e-07
9.93293899771e-08
1.01527324445e-07
7.90781046225e-08
1.15189342802e-10
1.03734531137e-07
6.47822866015e-09
1.58853810146e-07
1.53269239283e-08
3.67004305576e-08
2.51606746018e-08
5.21760836455e-08
4.65911158927e-10
3.11681120947e-08
2.33390546452e-08
4.80230377549e-08
6.77069028565e-08
6.32939217248e-09
2.3288573474e-08
3.80507764105e-08
1.68336116081e-08
2.52445762647e-08
1.82361029506e-08
1.90646533333e-08
2.26187669823e-08
1.88263508647e-08
2.18813476314e-08
2.41794024153e-08
1.6051794641e-08
3.21076740892e-08
5.27886219653e-08
3.44410167721e-08
5.421078066e-09
2.71099830613e-08
3.34354623339e-08
1.39114454697e-08
4.68799006112e-09
1.30324344227e-08
3.03806711504e-08
2.30724980241e-08
3.6554329611e-08
1.9246260587e-08
2.34132051751e-08
3.92275887933e-08
1.99053284492e-08
2.82501930807e-08
1.86336820823e-08
1.99369962012e-08
2.02871655062e-08
1.82384550561e-08
1.89091887164e-08
2.39597243138e-08
3.35650372339e-08
4.22476683142e-08
3.14673260718e-08
2.14033450799e-08
1.30955154931e-08
1.62380706595e-08
2.48224206374e-08
2.41411806631e-08
3.79819717847e-08
1.86247341086e-08
1.80860742143e-08
2.89050480897e-08
2.18077301002e-08
7.47495249528e-09
7.99791318982e-09
2.66412971177e-08
2.39728280058e-08
2.82689687051e-08
2.46074707958e-08
1.04284571025e-08
1.16168019423e-09
4.45334936802e-08
1.32265068278e-08
4.04603579332e-08
4.97046068013e-08
4.94103998069e-09
8.39350790674e-10
4.49179548395e-09
8.22351055468e-09
5.61249256569e-09
3.47671986527e-09
4.15350437329e-08
1.65849840702e-08
3.86852417241e-08
4.30229424746e-08
9.89844980856e-09
8.31242665774e-09
3.77933444461e-09
1.3071566974e-08
6.18328686603e-09
5.38622263868e-09
5.85774706012e-08
3.16145221447e-09
6.42654270488e-08
4.90761874836e-08
2.41025418611e-08
1.20500294663e-08
3.64934587563e-09
3.34572521684e-09
2.58994365039e-08
2.265603485e-09
1.90834627989e-08
1.4631868249e-08
2.82916960855e-08
2.99505638876e-08
2.5615532581e-08
1.61721872615e-08
2.86216682218e-08
1.67118602684e-08
5.63193543623e-09
1.12644799766e-08
4.70471255197e-09
2.25111364112e-08
2.30963109868e-08
8.75997210158e-09
4.35540120895e-09
1.83897630805e-08
1.28584967199e-08
3.10421478233e-08
2.91590869445e-08
1.2206792864e-08
3.52370113624e-08
2.01557899416e-08
2.77943241313e-08
1.99721626138e-08
2.17917232337e-08
1.1836730425e-08
1.7300076991e-08
1.4446026802e-09
2.09424126423e-08
1.07540728592e-08
2.95015310562e-08
3.83600023405e-08
4.71813278446e-08
1.89424790655e-08
5.4344464368e-08
4.00744035148e-08
2.80439359633e-09
1.42031082454e-08
2.66958084953e-08
2.58928478214e-08
2.76799580277e-08
3.90913605532e-09
2.23184858776e-08
2.8991891639e-08
5.05822837386e-09
5.09110037839e-08
2.9137575589e-08
2.20396903611e-08
2.20971150746e-08
1.51292746155e-08
1.74679633781e-08
5.25902311874e-08
4.6929538312e-08
1.55102926681e-08
2.5472168579e-08
4.12565623753e-08
5.74696819736e-08
7.05916252801e-09
1.88317406353e-08
1.87272472331e-08
1.45677172434e-08
3.92875869571e-08
3.55886152794e-08
2.50657117207e-08
2.41999284086e-08
3.06577962884e-08
1.61585661031e-09
1.17699783189e-08
1.26767228101e-08
4.23759693098e-08
1.50889276996e-08
4.05340565306e-08
4.2422701668e-08
7.79654947539e-10
2.47508373602e-09
1.88676024476e-08
2.16940380889e-08
2.59057919318e-08
2.05827932172e-08
1.34543471592e-08
2.81670453322e-08
3.75753554496e-09
3.87238537106e-08
1.67263979324e-08
1.51134643015e-08
2.09270829361e-08
1.34476803029e-09
1.32902298357e-09
2.97728061659e-08
1.34829652929e-08
1.3249069352e-08
1.42528652061e-08
6.53897970528e-10
2.63901164035e-08
6.52079185827e-09
3.56600790627e-09
2.12099771362e-08
2.6295191616e-08
7.12315916496e-09
1.08147524217e-08
2.83443054913e-09
1.54752059301e-10
9.86108046003e-09
8.01956616463e-09
3.54645036161e-09
5.17728379715e-09
2.01716509774e-08
2.53083123247e-08
6.41574411992e-09
5.2216026482e-09
1.55206039437e-08
1.97698179041e-09
1.17278849572e-08
8.08781886053e-09
2.19664430063e-08
2.95784423709e-08
5.52756741963e-09
1.64983023523e-08
2.53484951583e-08
2.802955695e-08
2.27686720539e-08
1.45398098365e-08
2.17507194193e-09

