# vtk DataFile Version 3.0
File Name: Molecule/sphere_cent/sphere_cent_0-s35.vtk
ASCII
DATASET UNSTRUCTURED_GRID
FIELD FieldData 1
TIME 1 1 double
0.0
POINTS 1696 double
0.92856311798 -0.14764763415 -0.34045472741
0.96552377939 -0.10963501036 -0.2341786325
0.93149638176 -0.23800170422 -0.27502450347
0.86749845743 0.48539739847 -0.10874135047
0.87565457821 0.4367378056 -0.20599125326
0.82031267881 0.53136026859 -0.21145416796
-0.98154741526 -0.16786883771 -0.091595239937
-0.94793051481 -0.28502821922 -0.14205205441
-0.96238672733 -0.27133199573 -0.012064743787
-0.78425115347 -0.50744479895 -0.35559812188
-0.7522238493 -0.59769964218 -0.27697145939
-0.82707303762 -0.50513035059 -0.24653181434
-0.84797203541 0.31212183833 0.42734566331
-0.87877237797 0.35149604082 0.322478652
-0.91268146038 0.23644968867 0.33329641819
-0.32862359285 0.91481661797 -0.23455823958
-0.24109655619 0.95768666267 -0.15716527402
-0.23099391162 0.93357414007 -0.27262452245
-0.86249434948 -0.25025650859 -0.43982544541
-0.83318001032 -0.17611385882 -0.52422559261
-0.78925991058 -0.28563457727 -0.54335325956
-0.79908192158 -0.57587653399 -0.17023512721
0.64299631119 0.49492478371 0.5844348073
0.59846526384 0.44948878884 0.66308516264
0.68966245651 0.38535925746 0.61303216219
-0.5594522953 -0.28879925609 0.77690815926
-0.46152102947 -0.35726696253 0.81190210581
-0.45636087656 -0.25892856717 0.85066068172
-0.25519225001 0.3684335649 0.89390206337
-0.28441223502 0.26848775148 0.92000567913
-0.18014241755 0.30406078696 0.93536323309
-0.77432334423 -0.58088296652 0.25098156929
-0.73316550255 -0.65706312656 0.17522992194
-0.68701004982 -0.66676080227 0.2888662219
0.1663107425 -0.11384170502 0.97935217619
0.17018163204 0.014295610599 0.98528140783
0.070027425885 -0.049603287131 0.99628973007
0.45678833127 0.78771799803 -0.41312369704
0.40314346552 0.85132205486 -0.3357257545
0.49405321479 0.81898611784 -0.29135915637
0.082057580352 -0.085029698908 -0.99283856153
-0.033872440457 -0.085816636682 -0.99574005604
0.031683258712 0.014216287993 -0.99938976765
-0.83093118668 0.44845116138 -0.32929590344
-0.89476388693 0.32537779212 -0.30561631918
-0.88289642334 0.41368892789 -0.22215329111
-0.93087631464 0.31290370226 -0.18856821954
0.10863452405 0.6322157383 0.76709294319
0.1619810164 0.51768094301 0.83983671665
0.2222610414 0.60281169415 0.76625227928
0.62815731764 -0.34411919117 -0.69785493612
0.53992801905 -0.33635815978 -0.77153849602
0.60113191605 -0.25023108721 -0.75893414021
0.57200217247 -0.44458812475 -0.68843650818
0.95843321085 -0.0051710740663 0.28520730138
0.97590470314 0.083795771003 0.20102722943
0.94205224514 0.12160423398 0.31252777576
0.5163038373 0.54317808151 0.66207939386
0.52048504353 0.46344134212 0.71711021662
0.6189532876 0.70267307758 -0.3503972888
0.69925111532 0.64554154873 -0.30711168051
0.67831432819 0.61495184898 -0.40204754472
0.46963515878 0.14247633517 -0.87089449167
0.35856339335 0.14545848966 -0.92158150673
0.4018278718 0.23512624204 -0.88476276398
0.29933750629 0.24747905135 -0.92124450207
0.14141450822 0.0048908311874 -0.98962891102
0.098235860467 0.11648841202 -0.98832887411
0.20583859086 0.15849633515 -0.96532100439
0.11839450151 0.23633342981 -0.96428138018
0.31932196021 0.38914364576 -0.86381137371
0.21695353091 0.40715613961 -0.88715624809
0.27017873526 0.48931586742 -0.82919937372
0.69557964802 0.70172315836 0.15403610468
0.60185831785 0.79368436337 0.088440999389
0.61550343037 0.76112478971 0.20426417887
0.51063251495 0.85886991024 0.032386604697
0.50388753414 0.85316175222 0.13379251957
0.80529522896 0.59172588587 0.03540558368
0.78428822756 0.60090565681 0.15425272286
0.85452699661 0.50599455833 0.11718717217
0.86557078362 -0.021968238056 0.50032877922
0.91026455164 0.060238849372 0.40952408314
0.8545575738 0.092167757452 0.5110887289
0.89155608416 0.17151191831 0.41910788417
0.25096637011 0.96042412519 0.11930985749
0.23680253327 0.97138607502 0.0049458411522
0.14398796856 0.98751097918 0.063707664609
0.10247794539 0.99310898781 -0.051236495376
0.01947388798 0.99960488081 0.017961347476
-0.68846988678 0.29731348157 -0.66088682413
-0.65755957365 0.191325441 -0.72870546579
-0.73858237267 0.17909640074 -0.64989936352
-0.69915515184 0.072966240346 -0.71119344234
-0.5812317729 0.27177459002 -0.76662272215
-0.57537055016 0.15237346292 -0.80353474617
0.43601721525 0.77450782061 0.45816066861
0.36996483803 0.83866071701 0.39940756559
0.32227888703 0.80907309055 0.49143838882
0.82815384865 0.51597779989 0.21879372001
0.72468501329 0.64187467098 0.2503413558
0.41989579797 0.87871819735 -0.22616909444
0.2968326807 0.0072141326964 -0.95444476604
0.39355707169 0.019799590111 -0.9187296629
0.35551798344 -0.080812223256 -0.93107694387
0.51200938225 0.0078341430053 0.85894244909
0.50740265846 -0.12922896445 0.85197371244
0.60465198755 -0.082731820643 0.79213768244
0.57455551624 -0.22226311266 0.78765034676
0.4411945641 -0.23976075649 0.8647685647
0.66506838799 -0.1625341028 0.72868651152
0.55889695883 -0.36173352599 0.74613320827
0.6458646059 -0.29002925754 0.70564484596
0.78635448217 -0.33121472597 0.52096688747
0.75386822224 -0.44241437316 0.48481750488
0.82895433903 -0.38447025418 0.40621101856
0.7972548604 -0.48804450035 0.35418355465
0.86152899265 -0.42651304603 0.27539667487
0.69287544489 -0.036793902516 0.71961730719
0.61571061611 0.033277925104 0.78724581003
-0.089364886284 0.033276468515 -0.9954174161
-0.0070678098127 0.10994523764 -0.99388694763
-0.20774869621 0.61689198017 0.75913280249
-0.15223816037 0.5365408659 0.82998639345
-0.080970302224 0.58955675364 0.80357342958
-0.052614599466 0.48876601458 0.87081301212
0.25985711813 0.37893220782 0.88798874617
0.31216275692 0.27584347129 0.90905278921
0.3482363224 0.36127594113 0.8649353385
0.35822528601 0.16408826411 0.91909080744
0.41389620304 0.23057478666 0.88056695461
-0.14055465162 0.49581626058 -0.85694682598
-0.090248964727 0.41772431135 -0.90408080816
-0.20246142149 0.41555052996 -0.88666832447
-0.040900193155 0.5226405859 -0.85152190924
0.23159202933 0.8672811985 0.44066271186
0.14602179825 0.91614365578 0.37332764268
0.095208920538 0.88308644295 0.45933753252
0.048068039119 0.91714119911 0.39564281702
0.21291486919 0.80980277061 0.54649281502
0.89559656382 -0.25240549445 -0.36580005288
-0.55966615677 0.58945381641 -0.58254671097
-0.57901489735 0.64563989639 -0.49782019854
-0.46130642295 0.68918895721 -0.55873465538
-0.66067820787 0.54552835226 -0.51565366983
-0.38525336981 0.65063339472 -0.65440750122
-0.34214225411 0.73040151596 -0.59082138538
-0.1344190985 0.69717293978 0.70403671265
-0.13582901657 0.77348101139 0.61911946535
-0.22777841985 0.7092025876 0.66720867157
0.28518277407 0.018448924646 0.95828700066
0.24847249687 0.11480236053 0.9617587328
0.40362620354 -0.14009089768 0.9041262269
0.10739580542 0.71587008238 0.6898778677
0.017470818013 0.69187372923 0.72166973352
0.39560174942 0.4233956039 0.81485432386
0.28746441007 0.43472576141 0.85326749086
0.81428545713 -0.52861636877 0.23962852359
0.78942984343 0.043471999466 0.61193048954
-0.061921913177 0.32444408536 -0.94383335114
0.025308391079 0.39094159007 -0.91998821497
0.2409799546 0.91435801983 0.32488676906
-0.94843631983 0.0089845489711 0.31680619717
-0.91910165548 -0.082879595459 0.38465860486
-0.900636971 0.011234295554 0.43439900875
-0.44050747156 -0.87414348125 -0.20261791348
-0.4626211822 -0.88110625744 -0.098217718303
-0.52961230278 -0.83074736595 -0.1712539047
-0.36197754741 -0.92232650518 -0.13511779904
-0.43178284168 -0.68408507109 0.58779269457
-0.3905004859 -0.61632966995 0.68345504999
-0.49891006947 -0.59735327959 0.6279078722
-0.46476075053 -0.53863453865 0.70253306627
-0.56988108158 -0.49843338132 0.65328919888
0.42136207223 -0.61471831799 0.66663831472
0.4716154933 -0.65363448858 0.59179461002
0.5288143158 -0.57050269842 0.62780225277
0.52823525667 -0.72950077057 0.43425402045
0.61612397432 -0.68098706007 0.39488750696
0.58430492878 -0.62857484818 0.51329183578
0.68559932709 -0.58981406689 0.42541074753
-0.091674387455 0.37972149253 0.92052459717
0.015531854704 0.41513478756 0.90961194038
-0.091603554785 0.59257698059 -0.79991930723
0.051657050848 0.59948462248 -0.79870140553
0.013702764176 0.68777018785 -0.72552871704
0.13581715524 0.66620218754 -0.73323446512
-0.27601212263 0.67680639029 -0.68246990442
-0.33914637566 0.58026355505 -0.74040657282
-0.21997779608 0.61967283487 -0.7532556057
-0.15411803126 0.69374084473 -0.70309859514
0.71325665712 -0.46631759405 -0.52307903767
0.63831371069 -0.51282405853 -0.57369667292
0.67121726274 -0.41988426447 -0.61081153154
-0.58979976177 0.55205607414 0.58932638168
-0.58897173405 0.46596571803 0.66023892164
-0.51012724638 0.54099822044 0.66856211424
-0.95645111799 0.11825866997 0.26677373052
-0.918802917 0.1162270233 0.37720176578
-0.98021322489 0.012208026834 0.19755840302
-0.96491140127 -0.09918281436 0.24169902503
-0.35193523765 -0.9010232687 -0.25354021788
0.91791510582 -0.049551218748 0.39367750287
0.93401759863 -0.13499464095 0.33000358939
0.88725036383 -0.12980858982 0.44164007902
-0.24748195708 0.77414751053 0.58256793022
0.30352944136 -0.64334022999 0.70244008303
0.36983734369 -0.68887025118 0.62342137098
-0.17621380091 0.4062987268 0.89649689198
0.11682771891 0.42585670948 0.89709573984
0.056865546852 0.49442785978 0.86733919382
0.13855454326 0.52835327387 -0.83761137724
0.20176574588 0.58844649792 -0.78297168016
-0.30868390203 0.64489793777 0.69914698601
-0.32434177399 0.55618858337 0.76471453905
-0.42230635881 0.62765270472 0.65382438898
-0.33436724544 0.70986831188 0.61988770962
0.2549110055 -0.66559016705 -0.70139360428
0.36180540919 -0.6180010438 -0.69742804766
0.30439117551 -0.71130526066 -0.63347142935
0.41986495256 -0.69272768497 -0.58538275957
0.42628967762 -0.76302284002 -0.48564860225
0.33243000507 -0.76295125484 -0.55439740419
0.47644639015 -0.79495197535 -0.37533032894
0.36766263843 -0.8416454792 -0.39551591873
0.81595164537 -0.051102485508 -0.57584857941
0.80929160118 -0.15854841471 -0.56549632549
[...]
CELL_DATA 3388
SCALARS cell_data_0 double
LOOKUP_TABLE default
5.0692559465e-09
9.10954663927e-09
1.10696507633e-08
1.05825162416e-08
1.05332356782e-08
3.1536231829e-09
2.98156330483e-09
2.48413530666e-09
6.41355996774e-09
9.27890543526e-09
2.76289938742e-09
1.97507306105e-09
7.19160956553e-09
2.35494475719e-09
1.03752944381e-09
9.17282627448e-09
7.28475680362e-10
1.77270243152e-08
3.49596317095e-09
1.16342613272e-08
2.14853739087e-09
1.95495438135e-09
1.8037872888e-09
1.07155478992e-08
3.47424351699e-09
5.89897395636e-09
7.40319490281e-09
2.6562815217e-09
1.18670749973e-08
4.21105429566e-09
1.12761156033e-08
7.08583206399e-10
2.37276180436e-09
1.32304076968e-09
5.37268328996e-09
6.37180422953e-09
3.8339416489e-09
1.8639631501e-09
8.4679011683e-09
1.07985773099e-08
2.74727007006e-09
3.8926725614e-10
1.3520566491e-08
2.82654454362e-10
5.43338657852e-10
3.81594194781e-09
9.41792521956e-09
2.18818646239e-09
1.52139706638e-08
2.42834431576e-11
1.54058362316e-08
3.14395089234e-09
1.81888197108e-08
1.33749891904e-08
5.04405813671e-09
6.96923563546e-09
9.16929997115e-09
1.4825767238e-09
5.72399899379e-09
4.42518182352e-09
1.75899767657e-09
4.44063446228e-09
7.61807365544e-10
2.07293631482e-09
7.07744100151e-09
5.00588599922e-09
1.17054587026e-09
1.66269246062e-09
1.35808679154e-08
5.32908182736e-10
1.09650324296e-08
3.54264443627e-09
1.76249601299e-09
4.50492380915e-09
3.83327232791e-10
6.99160703341e-09
5.2757777942e-09
1.8762758959e-09
5.37500452342e-09
5.61960616266e-09
4.24193068898e-09
3.88824058051e-09
2.37180570136e-09
6.78236332606e-09
7.21982889915e-09
6.33540410025e-09
6.60495830628e-09
2.1007326197e-10
3.12255627991e-10
7.80527834889e-09
8.33954406067e-09
1.22867342091e-08
7.33017107595e-09
1.04078219611e-08
3.97220232831e-09
2.29877100231e-09
5.55423812934e-09
3.28087931609e-10
2.14310897883e-09
3.70264636001e-09
1.46171292556e-08
3.58798777273e-09
6.81555230144e-09
1.03865049804e-08
6.74039851425e-09
5.78636092181e-10
2.73044051942e-09
5.89842306429e-09
2.8608699424e-09
6.77404581357e-09
5.86534885402e-09
8.85652308194e-10
4.80890565412e-09
1.52138163726e-09
2.69963726847e-09
1.15057297951e-08
7.16504942961e-09
1.3150855941e-09
3.93244448744e-09
9.73084130377e-09
2.59018929409e-10
8.99598313653e-09
3.44259770904e-09
2.17240179235e-09
3.35191602838e-09
1.12626627836e-09
4.04187591666e-09
3.96728754119e-09
7.22789058555e-09
1.44952654029e-09
1.21363315277e-08
9.55403095877e-09
6.5083068075e-09
7.32162636008e-09
3.85393067939e-09
3.78894563935e-09
7.67842741253e-09
6.25590122809e-09
4.22994169632e-09
1.30431316756e-08
8.15567393244e-09
1.01475460573e-08
1.09883901578e-09
1.26140300077e-09
1.59651447855e-09
2.93478096973e-09
1.26933646213e-09
6.59251666501e-09
4.07745499005e-09
9.57756011914e-09
4.71684446205e-09
4.69100743997e-09
8.98805520542e-10
7.19585145e-09
6.21270143143e-09
4.59043274385e-10
7.70977045369e-09
1.46209275924e-09
9.00053983637e-09
7.59049950728e-10
1.66036190641e-09
1.46186523515e-09
7.7405003593e-09
1.74049047266e-09
2.27199186991e-09
9.37828767882e-09
3.25421481454e-10
1.11801817546e-08
1.25496451723e-08
9.03247069341e-09
1.36755338252e-08
5.77050502828e-09
1.22575662929e-10
6.10433560638e-09
2.97140275383e-10
2.7040683903e-09
5.09466837161e-09
1.90202232492e-09
1.02414796517e-09
7.20045829098e-09
1.09232970509e-08
1.3375620356e-08
7.2479378954e-09
7.31902140078e-09
1.50174662342e-09
6.74639143849e-10
8.96205866165e-10
5.73942015744e-09
3.16124309992e-09
6.36642912878e-10
8.13083590553e-10
5.43411532391e-09
9.85459376121e-10
2.04837058565e-09
2.3417220285e-09
2.00027223242e-09
1.12138253631e-09
9.38742424593e-10
9.05862321091e-10
6.98761853203e-09
3.65919613616e-09
9.65612751292e-09
5.55009141918e-09
1.12043402497e-08
1.77349865574e-10
7.72367664612e-09
1.11612081444e-08
1.1382181043e-08
5.52176596083e-09
9.172627972e-09
5.43181359061e-09
2.24201616257e-09
1.57134179536e-09
1.13602662493e-09
5.84453685825e-10
5.32912440743e-09
9.08258202035e-09
7.03255514455e-09
6.44620160175e-09
3.82460063755e-09
1.40796380589e-09
7.05703694158e-09
2.38409209287e-09
1.11378572977e-09
7.36460162771e-10
2.47720442571e-10
3.9168748021e-09
6.68026399582e-09
3.54621826865e-09
1.224265641e-09
1.19398218391e-08
1.02342776081e-09
6.38201017336e-11
6.20451722025e-09
2.07235242011e-09
2.70408231314e-09
3.72593322061e-09
2.03298570424e-10
7.84275020516e-09
7.10577173203e-09
4.15905823126e-09
2.94655664017e-09
7.77465429437e-09
3.85839535616e-10
2.67672824562e-09
1.48725212442e-10
3.20990185079e-09
3.05898500246e-09
7.07639360076e-10
1.38948359401e-08
1.03971862838e-08
3.79916727012e-09
4.99880228787e-09
5.83180193066e-09
6.0599352516e-09
8.53975955372e-10
3.12269382148e-09
8.7156327327e-10
1.0453398366e-08
1.78756011085e-09
3.67302709434e-09
4.99899043841e-09
3.52746714702e-09
2.83968207015e-10
2.75756828037e-09
1.8726126435e-09
3.38199946996e-09
5.33793367048e-09
8.83283719562e-09
3.95287362486e-09
6.40461787212e-09
1.17953445244e-09
4.08414837197e-09
3.38115328796e-09
2.99026986958e-09
1.24252300393e-09
5.01104766572e-09
1.03043561364e-09
1.05093251318e-09
9.9161797364e-10
5.4207016762e-10
1.7859882475e-09
8.4207703045e-09
2.99136468466e-09
4.38172270128e-09
7.11299205991e-09
1.76499024712e-08
2.43380533671e-09
4.08123005745e-09
3.8197972804e-09
6.69873322134e-10
1.99049573245e-09
7.08355657505e-09
3.16758004889e-09
1.55849601298e-09
6.08392132655e-09
3.33370001613e-10
5.79473554446e-10
5.5973056068e-09
9.9004463692e-09
9.5368746222e-09
7.25217682298e-10
1.29164992657e-09
6.1372421674e-10
1.02196866144e-09
7.06012484145e-10
1.10866223736e-09
1.87986546102e-09
4.72937577386e-09
8.12525987454e-09
5.7087562505e-09
4.48293044371e-10
6.51162356325e-09
1.59909748332e-09
1.17068451993e-08
1.24089556452e-08
1.13995368419e-08
6.30030178386e-09
2.12726051475e-09
1.37774255718e-08
8.45271232681e-09
8.12199329916e-09
3.9114524738e-09
4.37188268054e-09
7.49129435144e-10
4.55095087901e-10
2.15040430603e-09
1.34217917419e-08
1.85885594782e-09
5.666375303e-09
5.63095894734e-09
1.73297945484e-09
1.04610474594e-09
1.08649300408e-10
1.10529842831e-08
3.9685007059e-09
9.14535316792e-09
2.62863088971e-09
3.10290160494e-09
4.62161231801e-09
3.13190270977e-09
1.95956572359e-09
1.15358127551e-09
3.92426577284e-09
9.76804375734e-10
3.73186637264e-09
9.57614794823e-10
1.6497141826e-08
1.46779914323e-08
9.13896866628e-09
5.80579755894e-09
8.1085125518e-09
7.37365538559e-10
5.66111360746e-09
9.06663534194e-10
2.53166156388e-09
5.09999497039e-10
4.66107575365e-09
2.7987513476e-09
5.2459149482e-09
1.66313165867e-09
9.55384524412e-10
5.61731525189e-09
9.10478888082e-09
6.33243221575e-09
1.97037175579e-10
2.4586100376e-11
8.7116320453e-10
1.54228368424e-08
1.52106302963e-09
4.74375897447e-09
4.08422719354e-09
2.84767409305e-09
2.86167660597e-09
1.11818775553e-09
4.10188932624e-09
4.32002952364e-09
6.63173840031e-11
4.18123557942e-09
5.33617982439e-09
5.11782145696e-09
5.95442242393e-11
1.64594433423e-09
2.15399303488e-09
1.33460404742e-09
2.88086874479e-10
1.20991481633e-09
2.19090350564e-09
5.66985716247e-09
3.69016737346e-09
2.30203284211e-09
5.71651690025e-09
6.6039411857e-09
3.03565336595e-09
3.86462918278e-09
1.83322759109e-09
4.35241110089e-09
2.45583275653e-09
3.53746009698e-10
4.34214306477e-09
3.86160004467e-09
4.89574631012e-09
3.50480150052e-09
1.0487099588e-09
1.55546349088e-09
9.63814271068e-10
4.31935876336e-09
8.83632275166e-10
1.88025660238e-09
3.9985756231e-09
3.3333697382e-09
9.15673469645e-10
7.64183917598e-09
4.57130680748e-09
6.24147925558e-09
5.98788916295e-10
4.20539079193e-09
1.14209281468e-09
3.18130363886e-09
1.08826656869e-08
9.3019596329e-09
7.43795579555e-09
2.10813375829e-09
3.32026387298e-09
7.44912011515e-09
1.57534307021e-08
5.24336152345e-09
2.77006402613e-10
9.43439338245e-09
5.34483334439e-09
3.89512988544e-10
8.28698344328e-09
2.33641456162e-09
6.36143164216e-09
7.91714289787e-09
3.86043981256e-09
1.86280134081e-09
3.24039729327e-09
2.14961477645e-09
2.03870840752e-09
2.91883623116e-09
1.85591966052e-09
4.9187373755e-09
7.01396252814e-09
1.98312390852e-09
4.19208226253e-09
3.82877065199e-09
6.41085618749e-10
6.30722527693e-10
4.2043741101e-09
3.08563461806e-09
2.61747351097e-09
2.18549862555e-09
1.04977784468e-09
2.47226395639e-09
1.10548179688e-09
1.31674591929e-09
4.56978599461e-09
2.59517900818e-09
8.11533313467e-09
6.5733203632e-10
6.84766761603e-09
1.18395131728e-09
4.58907625734e-09
5.52564280517e-09
7.67918391165e-09
5.89579036246e-09
6.44615190477e-09
3.93734941634e-10
2.01700490876e-09
2.42050686086e-09
3.09747621786e-09
6.43342773388e-09
3.50280677986e-09
2.52329471357e-09
2.96792219893e-11
1.1045582881e-09
1.97714536657e-09
6.39039832864e-09
2.99456978448e-09
1.29433556382e-09
2.2965154698e-09
1.96901438054e-09
3.3083022575e-09
4.2851713948e-09
2.31941738581e-09
1.04269401551e-09
3.84860349217e-09
1.17055482956e-09
5.69765928044e-09
3.70904821261e-09
1.2058950089e-09
4.97116707567e-09
5.58425198357e-09
3.05375626534e-09
1.74157020778e-08
6.94331825839e-09
4.43603408704e-09
5.89690223398e-09
5.08042435689e-09
1.26815662216e-10
4.48086064113e-09
3.69703311406e-09
2.51537760915e-09
3.48813101531e-09
9.66737231988e-11
2.17655332723e-09
2.09825459374e-09
1.32796949398e-09
1.19363413701e-08
1.39980555853e-09
2.45464730061e-09
3.31308728477e-09
3.20819562185e-09
1.60373403078e-09
2.94557880225e-11
4.04823995322e-10
2.10711012727e-09
2.0857811079e-09
3.31676555839e-09
2.56352692664e-09
5.52061060161e-09
3.22302986629e-09
1.02538442621e-09
5.89337734567e-09
2.76751306481e-09
7.77820675586e-10
8.10256857768e-11
4.23707710407e-09
1.15660661984e-09
1.45584057618e-09
8.85041902295e-09
4.73717629115e-09
2.16717425336e-09
1.20388585447e-09
3.18266447642e-09
5.51788184541e-10
8.63732457445e-09
7.60432428475e-09
2.96223171488e-09
7.1800751435e-09
7.81681203763e-09
9.02530820338e-09
1.46660074532e-10
2.06709328816e-09
2.86455924292e-09
1.48456940707e-08
2.75413051002e-09
4.28522803144e-09
1.70277172836e-08
8.84525709406e-09
5.44330773187e-09
3.9512206932e-11
5.03312223976e-09
1.94883423749e-08
5.51095891263e-09
1.67711707494e-09
4.32937942963e-09
5.34001502874e-09
4.8543200042e-09
5.54920139445e-09
6.14989160149e-10
2.23236644382e-09
8.169163283e-09
1.09596268733e-08
4.24823311154e-09
8.27743775283e-10
7.31176829649e-09
5.15473801865e-09
1.88913193844e-09
6.93953681225e-09
1.51272328535e-09
3.24947626202e-09
2.0859132236e-09
1.92169409152e-09
5.70561649103e-10
2.27415322242e-09
4.39268938075e-09
4.48060869928e-09
4.13643972199e-09
2.20497508988e-09
1.64654759825e-09
1.33994200099e-08
4.68234388614e-09
4.09057742242e-09
6.87924540972e-10
4.23672551835e-10
5.64114603224e-09
1.02955331151e-08
8.51680343514e-10
2.69311044578e-09
2.72021106888e-09
1.76068426884e-09
9.03083213262e-10
5.85252962272e-10
7.48433333095e-09
3.74764812226e-09
8.16657587453e-09
8.12489592892e-09
3.02218355825e-09
2.22033517291e-09
3.5095460325e-09
2.39847860845e-09
3.15015366972e-09
1.4519788498e-09
1.67761404396e-09
3.51151714862e-09
4.11482581883e-09
4.0645792856e-09
2.80199103037e-09
3.89544896565e-09
1.79080751197e-09
1.22433801762e-09
2.35479445712e-09
1.19703613562e-09
2.30604924746e-09
1.12805040983e-09
2.34605718869e-09
1.17699580507e-09
5.64536210542e-09
2.2782556264e-09
5.51963762753e-09
2.13886847612e-09
1.00810518349e-08
9.12629837778e-09
5.77404862192e-10
4.19208424826e-10
3.6452854803e-09
2.24765028689e-09
6.88722862052e-09
1.40291791373e-11
3.90551607612e-09
6.40996687757e-10
5.92307018237e-10
1.352255871e-09
6.62036270653e-09
4.97327575343e-09
5.81847277174e-09
3.99615465525e-09
3.25363028129e-11
4.70761940621e-09
8.59024259366e-11
4.60473096386e-09
2.54355097377e-10
3.640884263e-10
3.35316301154e-09
3.78387194489e-09
2.4138481156e-09
1.11035052755e-09
3.23493187466e-09
1.48897913711e-11
3.41583047184e-09
8.47358275565e-10
1.73567741038e-09
3.22813742621e-09
9.57661561173e-09
2.23609494056e-09
1.89701370788e-09
3.13864864771e-09
1.84124425992e-09
6.68509537012e-09
9.4438318805e-10
1.4633538733e-09
3.10791539745e-09
4.2002160301e-09
5.82269198613e-09
7.51570151904e-10
5.49079441391e-09
3.58633144418e-09
3.38465740131e-09
3.77586192426e-09
2.06014415436e-10
3.10974279419e-09
2.12723523808e-09
1.13592541433e-09
3.33428002609e-09
1.39243218887e-09
4.03703720053e-09
2.23520567956e-09
3.42479620563e-09
1.6456649295e-09
2.22366778252e-09
5.91362135354e-09
5.0292279196e-10
6.14122263457e-09
2.60802801701e-09
5.23806114662e-09
2.98063351423e-09
2.91767166476e-09
3.36840485899e-09
6.33439350957e-10
1.11803635941e-09
1.06233406472e-09
3.33039043391e-09
1.56706641387e-09
2.29838582801e-09
4.94751710286e-09
2.515246294e-09
1.39130737647e-09
2.46563787486e-09
9.44367515585e-10
1.03053488772e-08
1.63930375328e-09
1.84559792318e-09
7.21010348681e-09
1.61223331246e-09
9.6265306203e-10
1.21776728851e-09
1.91825094459e-09
1.88922392788e-09
7.33555219983e-10
1.77784804746e-09
2.67351508313e-10
4.82247871465e-09
4.55772661169e-09
6.5360061124e-09
1.52914599246e-09
3.48928510972e-09
7.49301979069e-09
5.6781616545e-09
1.18209353415e-08
1.80411609408e-09
4.17311400897e-09
3.2799193349e-09
7.25804110898e-10
2.30518424967e-09
2.67420403971e-09
2.11240115054e-09
7.00694781998e-09
6.07833621506e-10
4.34309704777e-09
8.85761149769e-09
7.25528917839e-09
2.29288557008e-09
3.40729680261e-09
1.84578705601e-09
3.3981075854e-10
2.49670457772e-09
7.3619994216e-09
4.71545451777e-09
3.16994121616e-10
2.76266618647e-10
4.52222575642e-10
1.88313609582e-09
6.24583541492e-10
6.1277479056e-10
1.21279453015e-08
2.39546490903e-09
3.8091153096e-09
1.14538233038e-08
4.41910323577e-09
7.50594679388e-10
7.8214306571e-09
3.16669777415e-09
4.96292152554e-09
1.87092467646e-09
1.0467896995e-09
3.47455691658e-09
4.47378820419e-09
3.43123692943e-09
3.59297103214e-09
4.12119573053e-09
1.30503927596e-09
6.29092986981e-09
7.82545896781e-09
2.2164728187e-09
4.03694419795e-10
2.55237740178e-09
7.14424917893e-10
3.41594161155e-09
7.62436682691e-09
2.99233745343e-09
1.42702632694e-09
6.8383225097e-10
4.56460832563e-09
5.75299779511e-09
2.06033427841e-09
2.10784564832e-09
5.43248789803e-09
9.10655447538e-10
1.63505529719e-09
2.9525570731e-09
4.97632662144e-09
1.35151318647e-09
1.04341388157e-09
2.91659438734e-09
5.02494848355e-09
2.80572905484e-09
4.70667824411e-09
3.44938503787e-09
2.58599695233e-09
1.93272204031e-09
1.02968914338e-09
4.09475348932e-11
1.73407504684e-09
3.18769273643e-09
6.54475786493e-10
1.3515198524e-09
3.93282394163e-09
5.78769024843e-09
2.05204645949e-09
2.69309956445e-09
3.7751629178e-09
8.72146316244e-09
1.08504218486e-08
1.69261813066e-09
5.90476000402e-09
1.52674387661e-09
7.09481032364e-10
1.03667471487e-09
3.68964293015e-10
2.47341257677e-09
6.05656314682e-09
3.29036421147e-09
1.68094664681e-09
1.90763126009e-09
6.90953258905e-09
6.13718625265e-09
7.36775142725e-10
8.50059103366e-10
2.87334698816e-09
2.94817544567e-09
3.63236180875e-09
1.59447520626e-09
1.7143343023e-11
1.393575601e-09
3.33551919238e-09
6.85595589828e-09
2.76421634499e-09
2.16944418675e-09
3.86090240325e-09
1.65862696203e-10
2.35696511772e-10
4.60215092274e-09
4.38131013159e-09
4.72932741187e-09
3.30213440661e-09
1.29735683891e-08
4.05645925883e-09
7.52054070618e-09
3.41737774621e-11
3.56643797408e-09
2.27815073073e-09
3.09804548263e-09
2.11027602175e-09
7.57748206057e-10
1.42184857855e-08
8.90743730163e-10
1.41668747504e-09
2.61960178225e-09
3.28129766484e-09
2.53237540879e-09
1.93656611355e-09
6.48362066923e-11
1.57393085363e-09
3.12863614297e-09
1.23850174364e-09
1.82101902184e-10
8.72468853645e-11
4.12930679111e-09
1.03179544182e-09
5.28649794719e-10
9.9605084644e-09
8.71878732836e-09
2.42009872955e-09
6.28721664941e-09
5.57631910212e-09
1.66672576388e-10
3.66669358162e-09
1.23720786474e-08
3.78629636761e-09
5.6545442175e-09
3.9329545287e-09
1.12426706799e-09
5.26324864361e-11
7.40157094002e-09
3.67905229505e-09
1.42513281486e-09
4.22227151378e-09
7.93115027191e-10
2.38338447988e-09
6.91404458479e-09
5.13194511206e-09
1.64985693874e-10
8.15661181327e-09
7.69439884746e-09
2.5949551152e-09
9.72478961862e-10
8.69596118857e-09
2.66266007071e-09
3.72730836355e-09
1.1175665895e-09
7.73702381064e-10
2.05070442586e-09
1.28486872676e-09
5.04613650696e-09
1.47973031426e-09
2.07753346298e-09
1.17571387244e-09
1.05875519579e-08
4.7998025623e-09
1.80655412631e-09
4.39475716812e-09
8.52412112897e-09
1.28654178831e-09
4.4402367324e-10
1.12913062538e-09
2.20602365557e-10
1.06153356631e-10
1.56908440582e-08
2.19043575342e-10
3.6334117983e-09
3.13830028985e-09
5.58050224413e-09
5.78100754035e-10
3.49868894759e-09
4.05852111194e-09
2.11884050604e-09
2.40864693183e-10
2.16048845111e-10
4.7524764625e-09
2.7736018747e-09
4.10439582129e-10
1.31619817489e-09
2.58129414931e-09
1.77691708536e-10
1.98023748894e-09
7.67354666576e-10
8.71526014933e-09
1.72107165583e-09
2.66027466613e-09
1.94111645522e-09
1.93599333807e-10
2.44631764112e-09
1.47629921228e-09
4.67150110725e-10
2.23789037167e-09
1.48933318879e-09
6.79308062823e-09
8.8808462546e-09
2.12063113221e-10
2.05203870828e-09
3.26268893608e-09
2.82035025076e-09
1.32333661636e-09
2.0370109331e-09
7.11334952234e-10
1.62124091716e-09
2.12696417977e-09
3.86888636502e-09
1.69756235072e-09
1.00950440222e-09
4.53706234794e-09
1.36360980953e-09
3.62016485325e-09
2.06848224852e-09
2.09632308869e-10
1.88915789072e-09
7.76383588258e-09
2.94909572634e-09
2.86388607094e-09
2.30615728153e-09
8.46455461927e-09
1.12308675926e-08
3.38321725194e-09
1.34168972821e-10
4.6709250991e-12
3.07877361053e-10
9.4113276575e-09
1.75900475565e-09
6.75408555441e-09
5.0916617586e-09
2.52913170896e-09
5.66681683062e-09
7.03901167516e-09
2.28687858157e-09
1.20856900001e-09
2.31644131497e-09
7.88217442427e-10
3.33347519837e-09
7.89677852149e-09
6.80666492734e-09
1.76941710829e-09
3.10503349263e-09
4.92426074314e-09
6.92796529754e-11
3.35279006465e-09
2.492521932e-09
5.91739682194e-09
3.46767700114e-09
4.98995861683e-09
8.14499482892e-09
5.17163139295e-09
5.51911092488e-09
1.21562098053e-08
9.29767803002e-09
1.18043382371e-08
1.3635109476e-08
1.08138427531e-08
3.57182707232e-09
2.76036556059e-09
5.07203157343e-09
2.05427260504e-09
6.72721455142e-09
9.16631046461e-09
4.76288331915e-09
4.7835503618e-09
1.09660573232e-09
5.34735387021e-09
1.6369568205e-09
3.37945931475e-09
4.54271613506e-09
3.27507714776e-10
3.09889542122e-09
2.79457225705e-09
4.31732667272e-09
2.48909644728e-09
2.72815222693e-09
4.37577391464e-09
3.14862810381e-09
1.98299865819e-09
3.63405088594e-11
4.10066885823e-09
2.64752430226e-09
5.87053346047e-09
7.56685970724e-09
8.49809895996e-10
6.67984400604e-09
4.55306600494e-12
5.01524222937e-09
1.842557124e-09
2.59065907905e-09
2.86923339534e-09
2.34809028426e-09
1.2948490389e-09
1.68286624134e-09
2.33316396479e-10
6.89231210889e-10
1.02426222644e-09
1.0975531635e-09
3.00657508214e-09
1.08646241508e-08
4.60491273112e-09
2.14210429456e-09
4.54040960841e-09
3.57389170817e-09
2.67316639123e-09
1.10250842701e-09
2.50872068414e-09
4.76585473675e-09
5.2907623929e-09
2.08097884168e-09
3.97345566342e-09
3.97743009441e-09
1.52566865816e-09
8.22904789629e-10
3.83929077237e-09
3.29272359962e-09
6.33974855363e-09
2.11840660106e-09
4.6934481914e-09
2.69828422778e-09
7.31031579126e-09
2.22700592193e-09
5.87817673879e-09
1.43094124982e-09
7.24962640627e-10
8.17247878466e-10
1.05315702299e-09
4.74188734983e-09
1.492635392e-09
4.42636775977e-09
3.72087945032e-09
4.87231124909e-09
1.430980241e-09
2.568312752e-09
3.49999715777e-09
2.23491441516e-09
3.82628294511e-10
4.33700497298e-09
9.78974724997e-10
7.26663621726e-09
8.48508819684e-10
6.20530440729e-09
9.58629612629e-09
2.12988169354e-09
1.77788662188e-09
6.85609971187e-09
2.00310611848e-09
3.48287551582e-10
8.08318206047e-10
2.90171694003e-09
2.49248021404e-09
2.75676478053e-09
9.89513315551e-10
4.34587252757e-09
6.69474165069e-09
3.01540007866e-09
1.22981405447e-09
3.17196234679e-09
5.30500271983e-09
7.09987250569e-10
3.06220105157e-10
9.0901869507e-10
2.11651633576e-09
1.91184425611e-09
1.64118224373e-09
1.31084682153e-09
1.81073319695e-09
3.15628998072e-09
1.44426600318e-09
1.92874031872e-10
7.83779001919e-11
2.3528206206e-10
1.42572269281e-09