# vtk DataFile Version 3.0
File Name: Molecule/sphere_cent/sphere_cent_0-s25.vtk
ASCII
DATASET UNSTRUCTURED_GRID
FIELD FieldData 1
TIME 1 1 double
0.0
POINTS 556 double
0.054088573903 -0.25033706427 0.96638703346
-0.132057935 -0.3258318305 0.9355160594
0.077019751072 -0.41879466176 0.90452736616
-0.61230438948 0.58584541082 0.52853935957
-0.50225353241 0.50560539961 0.70120835304
-0.44307687879 0.63617968559 0.63138628006
-0.33171638846 0.52862256765 0.78130608797
-0.1920748204 -0.97361296415 0.11933337152
-0.0064982674085 -0.99962574244 0.026065934449
-0.0037333047949 -0.9722725749 0.23384422064
-0.49798586965 -0.79108428955 0.35500895977
-0.43518835306 -0.70736426115 0.55545133352
-0.621922791 -0.63224130869 0.46200972795
0.18551442027 -0.97258841991 0.1397241354
-0.94288611412 -0.06522628665 -0.32422158122
-0.9240874052 0.14557760954 -0.35261842608
-0.86453956366 0.048853300512 -0.50018793344
-0.83752304316 0.26760789752 -0.4761531353
0.54369747639 -0.83361637592 0.096771739423
0.68014013767 -0.70216399431 0.21007728577
0.52125525475 -0.79100984335 0.31975522637
-0.31784591079 0.47642290592 -0.81964176893
-0.40674233437 0.31107828021 -0.85883402824
-0.49944707751 0.45658943057 -0.7357891202
0.33117622137 -0.52301537991 -0.78462672234
0.24303671718 -0.67261600494 -0.69893211126
0.12118038535 -0.55027258396 -0.82606524229
0.33947020769 -0.91299974918 -0.22594068944
0.32284849882 -0.84689325094 -0.42180532217
0.50625187159 -0.78912740946 -0.34538194537
0.21411062777 0.89741051197 -0.38562583923
0.046501226723 0.96080458164 -0.27228680253
0.25865057111 0.94611644745 -0.19396311045
0.81240421534 -0.031193289906 -0.58173877001
0.70090997219 -0.1449509263 -0.69830781221
0.7069658637 0.063731975853 -0.7043671608
0.85877501965 0.50768709183 -0.067879587412
0.94499701262 0.32656818628 0.0039955601096
0.90594035387 0.37669625878 -0.19319796562
0.81664007902 -0.51169604063 -0.26625981927
0.70121574402 -0.67301928997 -0.23517152667
0.68823075294 -0.58354747295 -0.43001538515
0.83287328482 -0.54961967468 -0.063052803278
0.92014604807 0.064820207655 -0.38606607914
0.97666966915 -0.054392978549 -0.20767045021
0.91739332676 -0.12941646576 -0.37559625506
0.97019731998 0.16711518168 -0.17540679872
0.93994259834 -0.24024029076 -0.24225264788
0.82247298956 0.15823119879 -0.54632163048
0.89147645235 0.26522216201 -0.36722138524
0.78763979673 0.34008342028 -0.51359367371
0.97496634722 -0.21646052599 -0.050941698253
0.99919307232 -0.027316432446 0.0034098140895
-0.84183984995 -0.2508738637 0.47521734238
-0.7444459796 -0.16081646085 0.64727479219
-0.84654444456 -0.05321276933 0.52937978506
0.5564070344 -0.81686484814 -0.15175352991
0.69227206707 -0.7212215066 -0.022933723405
-0.58780223131 -0.48480096459 0.64699453115
-0.74810826778 -0.4673832655 0.46787837148
-0.71198034286 -0.34242013097 0.61290764809
-0.58099746704 -0.29271271825 0.75878226757
-0.76365804672 0.15646512806 -0.62620848417
-0.56385451555 0.27196797729 -0.77957451344
-0.39308544993 -0.50498062372 -0.7682711482
-0.20511518419 -0.53845661879 -0.81719619036
-0.258718431 -0.65975677967 -0.70546752214
-0.071699038148 -0.66190677881 -0.74606275558
0.82074940205 0.43809461594 -0.36668542027
0.55448621511 -0.025399053469 -0.83170610666
0.58277100325 0.20975786448 -0.78506821394
0.70516055822 0.26232749224 -0.65876066685
0.57099419832 0.42041891813 -0.70492887497
-0.83753633499 0.30999583006 0.44993308187
-0.81673830748 0.15491819382 0.55580145121
-0.72796332836 0.3529920876 0.58725184202
-0.74076879025 0.017892600968 0.67146116495
-0.68963927031 0.17839770019 0.70104420185
-0.91922682524 0.1949789077 0.34167283773
-0.4162337482 -0.65889191628 -0.62644189596
0.80812615156 0.53957813978 -0.23598559201
0.6935005784 0.58934575319 -0.41420677304
-0.16886588931 -0.23791836202 -0.95648998022
-0.30534264445 -0.36340376735 -0.88014364243
-0.36156210303 -0.17509268224 -0.91574835777
-0.49638479948 -0.30049824715 -0.81441223621
-0.56310731173 -0.078159227967 -0.82271498442
-0.30425196886 -0.18453417718 0.9338003993
-0.11731433123 -0.12827669084 0.98471271992
-0.25106137991 0.022344036028 0.96730411053
-0.042739674449 0.085925996304 0.99531191587
-0.99718683958 -0.06201088801 0.039769064635
-0.96189171076 -0.26815840602 0.052488129586
-0.95855998993 -0.15337996185 0.23746246099
-0.9848228693 -0.12686501443 -0.11843940616
-0.94167125225 -0.29703274369 -0.15510933101
-0.67508876324 -0.21997334063 -0.70418477058
-0.61721009016 -0.41334289312 -0.66974681616
-0.76342380047 -0.47303703427 -0.43924918771
-0.76885026693 -0.31306162477 -0.55748021603
-0.62894195318 -0.53557753563 -0.56229865551
-0.8677945137 -0.29196745157 -0.39931917191
-0.74607354403 -0.60672140121 -0.27421668172
-0.84137076139 -0.47479495406 -0.25452241302
-0.24100732803 -0.013957721181 -0.97022235394
-0.87258666754 0.39021447301 0.29218688607
-0.56009072065 0.80879348516 -0.17928305268
-0.45005697012 0.8922419548 -0.035950884223
-0.36838582158 0.90053737164 -0.23071055114
-0.55862617493 0.81794798374 0.1356651336
-0.64537513256 0.76180422306 -0.010735292919
-0.69916135073 0.69042104483 -0.18005938828
-0.60844731331 0.7198972106 -0.33325454593
-0.78366839886 0.44860288501 0.42819041014
-0.69564723969 0.69614380598 0.17406234145
-0.58918398619 0.73972821236 0.32113096118
-0.47166419029 0.81941276789 -0.32568386197
-0.98849058151 0.12105578184 0.086814053357
-0.99240195751 0.053525079042 -0.10896897316
-0.94094330072 0.29977083206 0.15586940944
-0.96369367838 0.26529058814 0.011414965615
-0.43978053331 -0.76110935211 -0.47668474913
-0.2942904532 -0.77339309454 -0.56141847372
-0.30273634195 -0.86066305637 -0.40928721428
0.95283943415 -0.24426530302 0.1782245487
0.89137732983 -0.25918608904 0.37141743302
0.87848865986 -0.40093028545 0.25944727659
0.91513377428 -0.38324975967 -0.12499446422
0.92711752653 -0.37058371305 0.05558373034
-0.30637067556 0.85889923573 -0.41041362286
-0.17869624496 0.93337106705 -0.31126630306
-0.23279613256 0.96225380898 -0.13850858808
-0.10785194486 0.86499202251 -0.48987695575
-0.42061471939 0.843090415 0.3342255652
-0.44982302189 0.75511974096 0.4768422842
-0.2700189054 0.86746513844 0.41781553626
-0.24489293993 0.79506623745 0.55484032631
-0.076892726123 0.86316394806 0.49881315231
0.36582624912 -0.89112776518 0.26841312647
0.18605314195 -0.91770714521 0.35095703602
0.32942521572 -0.8150447011 0.47659301758
0.12400405109 -0.82554930449 0.55051577091
-0.28255400062 0.77375721931 -0.56690353155
-0.44795826077 0.76831334829 -0.45717844367
0.21403083205 -0.70996469259 0.67067742348
-0.13818047941 0.70966142416 -0.69004005194
0.15218096972 -0.56275087595 0.81251883507
0.046706810594 -0.70469564199 0.70682394505
-0.0068614408374 -0.89819931984 -0.43938612938
0.15505592525 -0.9351400733 -0.31827768683
-0.0057256277651 -0.97286474705 -0.2311347872
0.14068189263 -0.98318636417 -0.11592151225
-0.12621472776 -0.98446691036 -0.11850764602
-0.16440948844 -0.93636327982 -0.31001293659
-0.83795571327 -0.14567753673 -0.52583289146
-0.74983018637 -0.044873323292 -0.6601139307
-0.78720027208 -0.60314142704 -0.12856337428
-0.86528998613 -0.5007365942 0.018324479461
-0.71429747343 -0.69977045059 -0.0029551605694
-0.6681085825 -0.73028457165 -0.14221273363
-0.55935108662 -0.82868671417 -0.0055131125264
-0.15980733931 -0.85130560398 -0.49968606234
0.48841097951 0.82446986437 0.2855809629
0.45955327153 0.76772499084 0.44647756219
0.59611672163 0.71623343229 0.36281049252
0.55709588528 0.6516097784 0.51481741667
0.4027171731 0.67937773466 0.61332970858
0.68385446072 0.59219253063 0.42619001865
0.51960062981 0.56368935108 0.64207947254
0.64916229248 0.513463974 0.56118428707
0.6036721468 0.42215931416 0.67627763748
0.76481568813 0.43527337909 0.47490862012
0.71459144354 0.35418087244 0.60321348906
0.81525969505 0.27344185114 0.5103983283
-0.45651680231 -0.38773918152 0.80070334673
-0.45221987367 -0.23383414745 0.86051481962
-0.32924902439 -0.33537495136 0.88254863024
-0.30322915316 -0.51086717844 0.80384874344
0.36842378974 -0.92487955093 0.094106391072
0.42776831985 -0.90229189396 -0.052958764136
0.28737175465 -0.95730006695 -0.031018041074
-0.14177757502 -0.91992396116 0.36503565311
0.018866846338 -0.91014534235 0.41389623284
-0.073884986341 -0.84325969219 0.53118628263
0.72626924515 0.15526491404 0.66941666603
-0.13593794405 0.27515816689 0.95145368576
-0.32324039936 0.27755767107 0.90468841791
-0.22625467181 0.1638763696 0.96020454168
-0.38716444373 0.14438034594 0.91060459614
-0.49714770913 0.26414400339 0.82613044977
0.90284579992 0.38813686371 0.1847089678
0.87143367529 0.34732738137 0.34618774056
0.95438659191 0.24707566202 0.16775485873
0.72507297993 0.63140684366 0.27475008368
0.60597538948 0.76562780142 0.215473786
0.78210985661 0.51020622253 0.35776922107
-0.39988350868 0.39571964741 0.82673370838
-0.23754966259 0.40076977015 0.8847591877
-0.77990651131 -0.56882882118 0.25951763988
-0.66058140993 -0.69252043962 0.28928926587
-0.76554942131 -0.52860981226 0.36474558711
-0.62954831123 -0.76334995031 0.14450663328
-0.74352842569 -0.65311956406 0.14344577491
0.15319208801 -0.26501452923 -0.95199513435
0.23011806607 -0.40463453531 -0.88489413261
0.020099081099 -0.38535669446 -0.92248350382
0.55163753033 0.66100847721 -0.50863933563
0.58878594637 0.72054743767 -0.3661647141
0.46231889725 0.76984781027 -0.43998241425
0.41962331533 0.69104975462 -0.58844965696
0.49781316519 0.81916636229 -0.28460741043
-0.11522115767 0.28715136647 -0.950761199
-0.31976366043 0.17470338941 -0.93104106188
-0.24110604823 0.37566834688 -0.89466923475
-0.40209057927 0.00077190925367 -0.91561084986
-0.47186541557 0.13448026776 -0.87133347988
0.49236518145 0.02630719915 0.86980050802
0.5689997077 0.18821181357 0.80049800873
0.43240985274 0.23532499373 0.87025254965
0.45698389411 -0.26538926363 0.8488855958
0.31855231524 -0.27955922484 0.90570706129
0.36535677314 -0.46439802647 0.80658906698
0.37814947963 -0.12653124332 0.91706550121
0.21738834679 -0.13433760405 0.96679377556
0.30665358901 0.012679146603 0.95164334774
[...]
CELL_DATA 1108
SCALARS cell_data_0 double
LOOKUP_TABLE default
3.38198189984e-08
3.89544682479e-09
2.40138039495e-08
7.87820408994e-08
7.91551465351e-08
3.81367584399e-08
3.70320026737e-08
1.62909916316e-09
3.34405841249e-08
1.53917669773e-08
7.24042652842e-09
6.23572854208e-08
9.49030265686e-08
2.48994603655e-08
1.2694234815e-09
1.21692838801e-08
6.81718383967e-10
9.14982891232e-09
3.70582142372e-08
2.68375903858e-08
2.37318217874e-08
4.59221786326e-09
1.60607779533e-08
2.76841545965e-08
1.32482185613e-08
7.82570317677e-08
1.31664716997e-08
9.65289174515e-08
1.28449269269e-08
6.18490312789e-08
2.41939925033e-08
2.83008949403e-08
1.55869956639e-07
2.73731834734e-08
3.35626367745e-08
1.34558585307e-08
1.58247400016e-08
2.42602068168e-08
4.14612777134e-08
2.14018987483e-08
4.44373451281e-08
4.95466832449e-08
2.25706858213e-08
3.35397682876e-08
2.09810986546e-08
8.55383765734e-09
2.6163278898e-08
1.53061565351e-09
4.33492157071e-09
5.98729963303e-08
2.96050636638e-08
3.28348888446e-08
4.21651445373e-08
2.98283367522e-08
4.4846568231e-08
5.5338845798e-08
2.06930728105e-08
8.31392275097e-09
1.68445598093e-08
1.7964484561e-08
3.21511786067e-08
2.46915962004e-08
3.34120243551e-08
1.17193265396e-08
1.22293093259e-07
7.78294969229e-08
1.01619585953e-07
2.59067581806e-08
6.84358518658e-08
3.13171435566e-08
9.00367135109e-08
8.61810925891e-08
1.01698294119e-07
1.2102935013e-07
4.03523279179e-08
6.04293979382e-08
7.4626585198e-08
7.05737781911e-08
2.72090241586e-08
1.91357948268e-08
3.57620377478e-08
1.32727112509e-07
8.66518853085e-08
3.08515819731e-08
1.27785658073e-08
1.0550507076e-07
2.88780358045e-08
8.99069606979e-09
4.00134793301e-08
2.39596081614e-08
1.77238285349e-08
1.12866148759e-08
4.02030831415e-08
1.78605410766e-08
4.45919349729e-08
1.06892806307e-07
2.73447919183e-08
3.34084349929e-08
6.94244576978e-09
1.01833037901e-08
5.54838195086e-08
6.59925190423e-09
2.19283938198e-08
1.40987388729e-09
2.05211309195e-09
2.35281482473e-08
3.84314083983e-08
1.19655666445e-08
8.45715567426e-08
9.31414695348e-08
7.64607467795e-08
1.05444352425e-07
9.78760437551e-08
9.80995706071e-08
3.27739231283e-08
4.21259639098e-09
4.00585040198e-08
9.36452569377e-08
1.11769232473e-07
1.75638518383e-07
3.30084500847e-08
5.67994885205e-08
1.52249385842e-08
5.48008969959e-08
1.94089913089e-08
2.70508137863e-08
3.66991422836e-08
6.44374393159e-09
5.51080642243e-08
2.83460067495e-08
3.3415512835e-09
1.8504443763e-08
8.98621245626e-08
4.28538612764e-08
1.08874228244e-07
3.3974158449e-08
4.47169420622e-08
3.24358391528e-08
5.10497039142e-08
6.61387286081e-08
4.21598826366e-10
7.73247312674e-08
1.19852819078e-08
4.05170376293e-08
3.89795014579e-08
3.05671120088e-08
9.99441403135e-08
1.74325831994e-08
2.64719472302e-11
4.17731001325e-08
3.7147115592e-08
1.0267451841e-08
1.05475639672e-08
2.04887198456e-08
2.18461788833e-08
1.86363313633e-08
1.86605881028e-09
1.4899411925e-08
3.46002718313e-09
5.83670303384e-09
3.88979736831e-09
1.60807993584e-08
2.8332589531e-08
2.24964732093e-08
9.68999352802e-09
5.2324471667e-08
2.35752815474e-09
6.83152754229e-09
3.86862918853e-08
7.2608698508e-09
2.81578804064e-09
2.76115982629e-08
1.51602567749e-09
1.0805694813e-08
1.27003122476e-08
1.58839774545e-08
1.70630118457e-08
3.2724404625e-08
3.29299750065e-08
5.92616554019e-08
2.72240771719e-08
3.51816519486e-08
1.34685812562e-08
3.19465042422e-08
6.57034271841e-09
9.41827539447e-09
3.85271962222e-08
3.28468651065e-08
3.3157998434e-08
7.71427544342e-08
2.23140408941e-08
9.03499964437e-09
1.48448411431e-08
7.50012168937e-09
1.18072094447e-08
3.58727295046e-08
1.30612584264e-08
9.90499443647e-09
1.09760087585e-08
1.5020549218e-08
4.69933966374e-08
4.77801016715e-08
5.85065955219e-08
1.82478856495e-08
3.57800462948e-08
5.21475012316e-08
6.52084054354e-08
7.79645216217e-08
1.77879887247e-08
4.62057729096e-09
1.65992437833e-08
8.30458840158e-08
4.66266226905e-08
2.80316670455e-08
4.90520613844e-08
1.1300566517e-08
4.22147039362e-09
1.73577146374e-08
3.02563020128e-09
1.04891337308e-07
5.20905055754e-08
2.33342274161e-08
5.88651890365e-08
4.59367773722e-10
3.13330594705e-08
2.8045380995e-08
1.92694117536e-09
3.71985028081e-08
4.08413169715e-08
8.5796003676e-08
9.43786061774e-08
4.41910092688e-09
5.0831562546e-09
2.57586909813e-08
1.78172145892e-08
2.48430352664e-08
2.4294309054e-08
2.38007347344e-08
2.15507903762e-08
2.41441660707e-08
5.57068410951e-09
1.23349777576e-09
2.68161352637e-09
6.57555291925e-09
3.73654072799e-09
2.2255508707e-09
6.32901949639e-09
2.50085841919e-08
3.1316946711e-08
1.13690005713e-08
3.15125185285e-08
2.69149442695e-08
3.47355335509e-08
1.42202352221e-07
4.21348460884e-08
5.09592067797e-09
5.85381196257e-09
1.3225885043e-08
2.28296147176e-08
8.19587161239e-09
2.10230839261e-08
5.68297995761e-09
8.42465412944e-09
1.48727985409e-08
3.53474607794e-09
1.21952210692e-09
9.06294968577e-10
2.14503419535e-08
4.09335752205e-09
8.92291702095e-09
3.27261220205e-08
5.97907816509e-08
1.89962162049e-08
2.0191400564e-09
2.30253690518e-09
5.23193060525e-08
6.6599144626e-08
3.95847690027e-09
1.94529174203e-08
1.82531046073e-08
1.35849780084e-09
1.97733758816e-08
1.72369168799e-08
1.16917492678e-08
9.86191202797e-09
1.9511252279e-08
1.4691383132e-08
1.16294347186e-08
1.34462997947e-08
1.81135551824e-08
7.53898520441e-09
5.12744160592e-08
2.89355982717e-08
4.21696525661e-08
1.07495536694e-08
8.3085547592e-09
6.8787817639e-09
4.62082587051e-08
9.04947931983e-09
6.58302535474e-09
1.18909636095e-09
5.48759117361e-08
2.04318948436e-08
2.55121357342e-09
2.44590045253e-08
2.57735480752e-08
7.58453593591e-08
3.89111547062e-08
4.55137907753e-08
3.95728497067e-09
6.99320615556e-09
1.3383105136e-09
5.32280664377e-09
8.81974386272e-10
9.19321000188e-09
1.92563448395e-08
5.3078264591e-08
1.72725750509e-08
2.64618908499e-08
2.43351582193e-08
2.34881517384e-08
6.99015492685e-09
1.22819565522e-08
1.17718428435e-08
6.75296463868e-08
2.36509889622e-08
5.95656576033e-08
2.54903691256e-08
2.05881356865e-08
3.70014158678e-08
7.82270596065e-09
5.13592519916e-09
1.98980909368e-08
1.20825842367e-08
3.00351982677e-08
5.04443607703e-09
1.02236111795e-08
1.43119815394e-08
2.05165663802e-08
3.84660082798e-09
6.09219787411e-09
1.88766408064e-08
1.45186399616e-08
3.42252787932e-08
5.58693166933e-08
9.12811922224e-09
1.72751714865e-08
1.72327168717e-08
3.34881095726e-08
3.07354356298e-08
7.9978822557e-09
2.85744313546e-08
1.54177122133e-08
1.92692679169e-08
2.94273681177e-08
1.53518446665e-08
3.50638779818e-08
1.62273563621e-08
2.56405037824e-08
1.37276527162e-09
9.66057688049e-09
7.25687716668e-09
3.24030486116e-08
7.90193073171e-09
2.10080756122e-08
7.52089940268e-08
5.7986556308e-08
7.78576023686e-09
9.24600579043e-09
6.28410811988e-09
3.69316717678e-09
3.06074528047e-09
6.28473340464e-10
6.49982594109e-09
5.27578908662e-09
3.08040805776e-08
2.20334726205e-08
1.56149578259e-08
9.50732716626e-09
5.89430260695e-09
1.53669332512e-08
7.14807466195e-09
1.71369321155e-09
2.0104220071e-08
6.95616544502e-10
5.7720034546e-09
7.26960580131e-09
9.986072293e-09
1.89990506273e-08
1.55834584511e-08
1.0052438512e-08
6.92449509201e-08
9.72200227887e-09
1.0292035089e-08
1.15449928688e-08
1.32958083054e-08
3.51179762508e-08
1.60814231048e-08
4.60056584674e-08
1.06281315607e-08
6.44101089204e-09
1.69828135757e-08
2.14308470087e-08
3.81272430485e-08
7.65087206853e-09
8.98864871962e-09
2.34328650023e-08
1.39100399018e-08
2.31683989883e-08
9.12996494728e-09
1.29244999447e-08
4.54834380331e-09
5.75898891313e-09
1.6659999881e-09
2.2578994741e-08
4.325017183e-09
1.57486017751e-08
1.41224143773e-08
8.27244745366e-10
9.64718636403e-09
8.98738739985e-11
1.17107841793e-08
2.32480159097e-08
8.84074786331e-10
1.08695165195e-08
6.06019053145e-09
1.7387151753e-08
3.66262849916e-09
1.19839803113e-08
3.14414535411e-09
3.4543184851e-08
2.99369600459e-08
2.45888494065e-08
8.90307150351e-09
6.05836073328e-09
1.11405411482e-08
2.30781492279e-08
1.72275728585e-08
7.08399450814e-09
2.83954209428e-09
6.45129710728e-09
9.52946341095e-08
1.72548206755e-08
1.52698372766e-08
1.48994515538e-08
1.05314899636e-08
7.69857575894e-09
3.20343956944e-08
5.36352532062e-09
7.06026460443e-09
2.57920754216e-08
3.20417785904e-08
1.65352708715e-08
1.50676588153e-08
1.72226415058e-08
1.09376597486e-08
1.53093285545e-08
6.05907097148e-09
1.805387888e-08
4.8821187464e-09
1.71441156639e-08
3.4878546596e-09
2.9204705942e-09
1.35190421536e-08
4.81426532158e-09
8.94957751083e-09
8.42497703876e-09
2.17145153582e-08
2.15263005352e-08
6.75717333034e-09
1.03863981253e-08
2.26271088089e-08
2.8307331974e-08
5.87008279136e-09
3.12295809174e-08
1.1230914317e-08
1.48517581655e-08
8.90709743921e-10
2.13272942589e-08
3.45060099439e-09
1.87894255725e-08
1.84400787385e-08
2.50134507102e-08
1.73766229571e-09
4.70407565878e-08
2.63044298534e-08
8.96268115296e-09
1.67076518867e-08
9.35199656736e-11
1.11906902163e-08
1.90571935347e-08
1.03521559625e-08
9.31489313366e-09
1.69285694714e-08
4.92791253913e-09
9.32028399538e-09
1.33580314021e-08
6.02750950153e-09
8.34709679501e-09
5.7997163633e-09
6.94871389783e-09
2.93634146345e-08
8.35425896966e-10
1.18828489983e-08
1.74692802073e-09
1.02811442521e-08
2.41589573739e-08
3.90091449896e-08
2.38170215489e-09
3.52579183845e-08
2.16335624812e-08
3.34873942509e-08
3.80089144149e-09
1.64951056834e-08
2.04893602313e-08
2.5079853112e-08
1.64340255602e-08
5.19774185543e-09
6.21252226153e-09
1.28211680265e-08
3.31096453276e-08
6.56859892571e-09
6.76196793849e-09
1.00042101941e-08
1.85573335891e-08
1.49392816761e-08
1.43402751557e-09
1.17218494291e-08
1.80859283873e-08
1.98842310247e-08
2.2155823536e-09
5.73975439422e-09
1.80784494475e-08
1.95862529236e-08
1.5872065379e-08
1.40807544411e-08
3.03764208092e-09
5.10368800842e-09
4.7547561487e-09
2.26941727168e-09
1.10209448235e-08
2.07267984149e-08
1.80815668185e-08
3.56601296532e-09
8.84405733046e-10
8.34684052789e-09
1.2481519725e-08
2.60472269001e-08
2.82112432015e-08
2.90532612235e-08
3.32249546346e-08
1.43657447253e-08
1.3180742935e-08
1.55435945407e-08
1.18051941628e-08
6.03142470263e-09
1.22312471714e-08
1.09541698242e-08
2.26740945864e-08
2.28749728913e-08
9.14275104623e-09
1.73996024923e-08
1.00862501334e-08
5.52695829942e-09
3.59037138394e-09
1.15751516414e-08
6.4675291031e-09
1.80462225221e-08
1.3842601826e-08
8.40617174426e-09
2.59711741436e-09
7.320166294e-10
1.7153998073e-08
5.9335718833e-09
1.27497540936e-09
2.00350646355e-08
3.18335658821e-08
2.18709919134e-08
1.0849763581e-08
8.46502687492e-09
2.27355597724e-08
1.64640839314e-08
3.45078381232e-09
2.02089734917e-08
8.50151682727e-09
5.37082602041e-08
2.81415822655e-08
1.13283207906e-08
1.92867459512e-08
1.8730411743e-08
7.12299599648e-09
3.33444253526e-08
9.14875519076e-09
1.32125721805e-08
3.0765202662e-08
7.34909328953e-09
1.31172465195e-08
3.29075965702e-08
1.83943983959e-08
2.53428972071e-09
9.09292294783e-09
6.29588298819e-09
1.31171259344e-08
2.04827545773e-08
2.44524329611e-08
1.51488870153e-09
8.16381096643e-09
1.99100393447e-08
1.48558952849e-08
2.64866135514e-08
1.03584065144e-08
2.81101441028e-09
2.20926682411e-08
1.20025720179e-08
2.26650330993e-09
3.30280462994e-08
2.07047167757e-08
3.69036265807e-08
2.01759563923e-08
8.09368133528e-09
1.51838728161e-08
1.05044626055e-08
9.43831467584e-09
2.10468088605e-08
5.71553305136e-09
9.74290615147e-09
2.67116656965e-08
2.10196557161e-08
2.65152049833e-08
3.44005773363e-09
8.9083867497e-10
4.54479887291e-09
2.72501565346e-09
1.50162306944e-08
1.67782627108e-09
2.12642990874e-08
1.30484439683e-08
2.05828033388e-08
8.06688513285e-09
1.66268709008e-09
7.63188832046e-09
9.23707453687e-09
3.10927385459e-09
2.72924833104e-08
6.61174352581e-09
1.9373161492e-08
4.09889260531e-09
1.16423214061e-08
2.14074773476e-08
5.30688527864e-09
2.11005082604e-08
3.99918735494e-09
5.16832709566e-09
5.58340985625e-09
1.0526600429e-08
5.20952823864e-09
2.9220796079e-10
4.03904058831e-08
1.9688952489e-08
2.36608572748e-08
1.64374068951e-08
2.22306369074e-08
2.24750661751e-08
1.00809134895e-08
1.19749652683e-08
2.2194813173e-08
2.21050045199e-08
3.11207957724e-08
1.08462975893e-09
2.94589165891e-08
8.26246105369e-09
3.13323882457e-08
4.05994508319e-09
1.15902108809e-08
1.99152001397e-10
1.2812055031e-08
1.19300556384e-08
3.31488673067e-08
2.25692943617e-08
4.98804065553e-09
5.09650596986e-09
1.15677204438e-09
1.67274675823e-08
2.47839613836e-08
1.43245455354e-09
5.16715617817e-09
2.58733356604e-09
2.98469833498e-08
9.85081175101e-09
4.60607392676e-10
9.94133368335e-09
2.47236262456e-08
1.5653545469e-10
6.07110013045e-08
1.26742720282e-08
2.37261973318e-08
6.98000171512e-09
1.65593986303e-08
5.11008273264e-09
2.56263955995e-08
8.86798438055e-08
4.70428735939e-09
1.12155702196e-08
2.20891950355e-08
3.07818261015e-08
2.21754783875e-09
1.17356957929e-08
3.48354682955e-08
1.20540388427e-08
4.14884046983e-09
2.67368764085e-10
8.04816575116e-09
7.03614545783e-09
2.92411470576e-09
3.0715615633e-08
5.88453560432e-09
2.22585934807e-08
5.32172537627e-10
5.77515991822e-09
2.05416904363e-08
2.38165668836e-08
1.65827112887e-08
1.40976473819e-08
3.10410624291e-09
1.01258877035e-09
4.30275155296e-09
4.54142238167e-08
4.30044630205e-10
3.51681422484e-09
6.4666909847e-09
3.65697001085e-09
1.69980609812e-08
2.0348980211e-08
5.62449948384e-08
1.38432353379e-08
1.10782896617e-08
8.5137377472e-09
2.36570826137e-09
1.78692498051e-08
5.77752088237e-10
1.08252856935e-08
6.10289260517e-09
1.13694434009e-08
1.37044097943e-08
4.01867549304e-09
7.83219279575e-09
8.219342663e-09
2.98580785538e-08
3.51746854543e-08
1.22616128205e-08
6.43443343427e-08
1.00097466779e-08
1.43860986928e-08
5.08873117489e-10
1.64389756745e-08
4.58608169255e-08
1.35015670515e-08
1.18136376547e-08
1.90656533819e-08
1.88567323164e-10
2.26503912288e-09
5.97250949695e-09
1.43737162748e-09
4.56088783465e-09
1.0202383399e-08
3.53469099459e-10
3.35430384456e-09
7.80511025574e-09
2.6306670052e-08
1.4340058208e-08
8.85970174747e-09
6.66223409044e-09
1.65180592757e-10
2.56122848318e-09
2.84942958454e-09
1.57786208273e-08
2.57780214007e-08
1.22178195733e-08
1.84475078621e-08
6.28858920054e-09
1.52239556119e-08
3.92821918624e-09
1.09778727418e-08
5.82580457848e-09
1.38595025986e-09
2.08658622793e-08
1.36063832985e-08
2.88017970247e-09
6.1588769454e-09
7.23241676415e-09
1.17785055423e-08
9.36342979348e-09
2.13684328375e-08
1.97777884288e-09
4.40799067261e-09
8.42780942361e-09
2.27361046063e-08
1.53801310888e-09
8.3775254813e-09
2.63605354789e-08
3.58378127643e-08
5.19438710314e-08
1.39636866094e-08
1.28340597618e-08
5.28614166432e-08
8.26218321984e-09
7.24597282677e-09
2.99960100311e-08
1.45034323028e-08
1.22358242831e-09
6.17719256411e-09
4.28722782293e-09
2.10431176026e-08
1.32875648089e-08
6.0837260929e-09
8.06687659585e-09
3.7946422429e-08
3.15956570215e-09
3.20050434271e-08
1.31728676102e-08
2.78550116128e-08
2.97765362298e-08
2.50749064326e-08
3.83890046814e-09
9.87080993283e-09
2.48954087025e-08
6.51845707707e-11
4.32108726676e-09
1.47811709107e-08
5.21088688212e-09
1.35648274653e-08
1.00733190693e-08
1.55955212502e-08
8.59306004164e-09
2.11242124895e-08
1.41744213602e-08
1.02750352053e-08
4.18968582328e-10
1.4091027709e-08
1.84507640239e-08
4.4221768244e-09
2.44009122548e-08
2.41561211075e-09
6.88521892466e-09
2.3537572257e-09
2.20061106736e-08
2.50200922119e-08
6.40886860368e-09
2.01175251276e-08
1.98097123915e-08
1.42336311713e-08
9.03644843328e-09
1.12941726451e-08
6.74683555061e-09
7.93880673675e-09
8.08291933914e-09
2.4038294659e-09
6.88079459548e-09
9.61922027917e-09
1.35565124573e-08
6.44501190593e-08
3.49594087374e-08
1.31662769046e-08
1.88671628174e-08
1.55232985665e-08
5.48156688985e-09
1.45785027278e-08
3.13785235175e-08
3.35077562654e-09
1.84937461142e-08
3.18816484774e-09
7.55114832866e-09
1.34999108359e-08
2.99630607667e-08
1.45192255633e-08
3.9515539417e-09
1.22137811662e-08
7.10883388086e-09
3.00618403898e-09
1.13516357198e-08
3.16883672882e-09
5.17310800742e-09
8.15198235012e-09
2.28798637976e-08
5.52721763312e-09
1.22097373877e-08
6.95786147564e-09
8.91565520107e-09
6.04491499682e-09
6.26364079851e-09
2.47701116269e-09
3.9115805473e-09
1.6311581138e-08
5.68317415832e-09
1.35816474389e-09
1.13708059395e-09
7.67535386182e-09
2.29295397887e-08
5.51288525236e-09
5.45841823454e-09
8.6820895434e-09
8.3143869199e-09
1.03929678859e-08
1.68354022249e-08
2.01098262613e-08
1.22246905055e-08
4.59255274661e-08
5.28608773263e-09
1.51787506894e-08
6.40143309263e-10
5.16744790341e-09
3.98192632389e-09
1.08148371056e-08
1.52016719764e-08
3.05776367954e-08
2.23102499336e-08
2.537248385e-08
1.03920316041e-08
8.71044695561e-10
1.23453717107e-08
3.98353400548e-09
8.01729822178e-09
6.55724345339e-09
2.38694750672e-08
9.58597063933e-09
5.44194301978e-09
3.83788304189e-09
1.80885361368e-08
3.22774125568e-09
2.75458044932e-08
9.52412593159e-09
7.72014309753e-10
2.29254745986e-08
1.11073673642e-08
7.2349875993e-09
6.19675390615e-09
3.18411740626e-09
1.40440031012e-09
1.00707229155e-08
8.89285385152e-09
7.65890164903e-09
2.54703108164e-09
1.3939378977e-10
7.74336275921e-10
2.51386589221e-09
4.67887144709e-09
1.30793125689e-08
6.43892861967e-09
1.16069985319e-10
1.07061149688e-08
1.80932839386e-08
3.05088408197e-09
5.19612210176e-09
3.14910491723e-09
1.30729814773e-08
4.87853271425e-10
2.59539815773e-08
3.05320146467e-09
1.60590148988e-08
4.68452819043e-10
9.50391928514e-09
6.60656175401e-09
1.33696169829e-09
1.90072005889e-09
1.27973513363e-08
9.61751439234e-09
2.01350955591e-08
1.63999933414e-08
2.58893011192e-08
1.26152162228e-08
5.62584446269e-09
2.66426507406e-09
1.54640505331e-08
2.73978066662e-09
8.49386579961e-09
4.54197258575e-09
8.43361976018e-09
2.1685901167e-08
3.14629327691e-08
1.46300060958e-08
6.19474215577e-09
1.49770911457e-09
9.60661963708e-09
1.80695596169e-08
8.31327322663e-09
3.42427052103e-09
1.65946564026e-08
2.78027079483e-09
1.10316273424e-08
6.85374424526e-08
4.08815905421e-08
1.84964375378e-08
3.03344406399e-08
2.72440407483e-08
1.18191894191e-08
6.83313151666e-09
3.03555204946e-08
1.35265220306e-08
5.40712643914e-09
9.74554690069e-09
3.85450077386e-09
1.16171753489e-08
7.93450978199e-09
9.75912639744e-09
1.04166753136e-08
7.00638188491e-08
1.0955934919e-08
3.34141453923e-09
5.39747445076e-09
2.17866479916e-08
2.75696975487e-08
5.31018822177e-08
2.84066666482e-08
3.19071743145e-09
3.72200807667e-08
9.26182227357e-08
1.85651099834e-08
1.74757829764e-08
7.02269711083e-09
3.7635570701e-09
1.27421329862e-09
3.7496270584e-09
2.57983959613e-09
6.00936928281e-09
1.28057877478e-09
4.24821441728e-09
1.11168615148e-08
5.51511644582e-09
1.48995776855e-08
3.52663909959e-08
9.39937367152e-09
3.61348733691e-10
5.82359242228e-09
7.91883001383e-09
5.49346018096e-09
5.305280024e-09
1.03763113339e-08
8.78138708879e-10
6.43878707091e-09
4.74966122375e-09
2.68487286863e-09
1.16963408351e-10
1.2238375669e-09
2.1133424915e-09
2.02611088814e-08
1.91616876991e-08
7.17725009491e-09
9.94377322813e-09
1.2059306455e-08
8.40806775925e-09
1.24945143212e-08
1.78139863643e-08
8.56159334009e-09
2.62227290285e-10
1.56491405233e-08
5.87763263787e-09
8.19685834863e-09
2.75114123905e-09
1.32252274177e-09
1.00543191995e-09
1.63385917647e-08
2.77352638256e-08
1.01943153502e-09
1.23974099227e-08
2.70009101781e-08
1.58454858526e-08
9.25365037893e-09
1.70174080513e-09
9.65411675874e-10
1.45145814067e-08
1.98896768246e-08
1.39890915629e-08
2.441680991e-08
7.87668327066e-09
5.25582077429e-09
4.79432533707e-09
2.47255050416e-09
5.38195447612e-09
6.25306870459e-09
2.06200907479e-09
2.45583028861e-09
4.13074747668e-09
8.74629547518e-10
4.91940107544e-09
3.15637000036e-09
1.56323421316e-08
9.55233633106e-09
8.31577739019e-09
4.52459472442e-09
1.10027937531e-09
1.1534120259e-09
9.22031203854e-09
2.41898035717e-08
1.14091523608e-08
2.72372692646e-08
1.09658999902e-08
3.74886068589e-09
2.86486152432e-09
4.14415511094e-09
8.03201343891e-09
3.94126054069e-11
2.07327564016e-08
1.49537268642e-08
7.96369926864e-09
8.99800684239e-09
2.12588009833e-09
5.65165830518e-09
1.89388091752e-10

