# vtk DataFile Version 3.0
File Name: Molecule/sphere_dip_C5/sphere_dip_C5_0-s2.vtk
ASCII
DATASET UNSTRUCTURED_GRID
FIELD FieldData 1
TIME 1 1 double
0.0
POINTS 69 double
0.850650808352 -0.525731112119 0.0
0.809016994375 -0.309016994375 -0.5
1.0 0.0 0.0
0.809016994375 0.309016994375 -0.5
0.525731112119 0.0 -0.850650808352
0.850650808352 0.525731112119 0.0
0.5 0.809016994375 -0.309016994375
0.309016994375 0.5 -0.809016994375
0.525731112119 0.0 0.850650808352
0.309016994375 -0.5 0.809016994375
0.809016994375 -0.309016994375 0.5
0.5 -0.809016994375 0.309016994375
0.0 -0.850650808352 0.525731112119
0.309016994375 -0.5 -0.809016994375
0.0 0.0 -1.0
-0.309016994375 -0.5 -0.809016994375
0.0 -0.850650808352 -0.525731112119
-0.525731112119 0.0 -0.850650808352
0.809016994375 0.309016994375 0.5
0.5 0.809016994375 0.309016994375
0.309016994375 0.5 0.809016994375
-0.809016994375 -0.309016994375 -0.5
-0.809016994375 0.309016994375 -0.5
-1.0 0.0 0.0
-0.850650808352 -0.525731112119 0.0
-0.850650808352 0.525731112119 0.0
-0.309016994375 0.5 -0.809016994375
-0.5 0.809016994375 -0.309016994375
-0.5 -0.809016994375 -0.309016994375
-0.5 -0.809016994375 0.309016994375
0.0 -1.0 0.0
-0.809016994375 -0.309016994375 0.5
-0.309016994375 -0.5 0.809016994375
-0.525731112119 0.0 0.850650808352
-0.809016994375 0.309016994375 0.5
0.5 -0.809016994375 -0.309016994375
0.0 0.850650808352 -0.525731112119
0.25 0.829833901363 -0.417374053247
0.5 0.809016994375 0.0
0.25 0.904508497187 -0.154508497188
0.25 0.904508497187 0.154508497188
0.0 1.0 0.0
0.0 0.925325404176 -0.26286555606
0.25 0.829833901363 0.417374053247
0.0 0.925325404176 0.26286555606
0.0 0.850650808352 0.525731112119
-0.25 0.829833901363 0.417374053247
-0.25 0.904508497187 0.154508497188
-0.5 0.809016994375 0.309016994375
-0.25 0.904508497187 -0.154508497188
-0.5 0.809016994375 0.0
-0.25 0.829833901363 -0.417374053247
-0.675325404176 0.667374053247 0.154508497188
-0.675325404176 0.667374053247 -0.154508497188
-0.154508497188 0.675325404176 0.667374053247
-0.404508497188 0.654508497187 0.559016994375
-0.309016994375 0.5 0.809016994375
-0.654508497187 0.559016994375 0.404508497188
-0.559016994375 0.404508497188 0.654508497187
-0.829833901363 0.417374053247 0.25
0.154508497188 0.675325404176 0.667374053247
0.0 0.5 0.809016994375
-0.154508497188 0.25 0.904508497187
0.154508497188 0.25 0.904508497187
0.0 0.0 1.0
-0.154508497188 -0.25 0.904508497187
0.0 -0.5 0.809016994375
0.154508497188 -0.25 0.904508497187
0.404508497188 0.654508497187 0.559016994375

CELLS 134 536
3 0 1 2
3 1 3 2
3 1 4 3
3 2 3 5
3 5 3 6
3 3 7 6
3 3 4 7
3 8 9 10
3 9 11 10
3 9 12 11
3 10 11 0
3 4 13 14
3 13 15 14
3 13 16 15
3 14 15 17
3 0 2 10
3 2 18 10
3 2 5 18
3 10 18 8
3 5 19 18
3 18 20 8
3 17 21 22
3 21 23 22
3 21 24 23
3 22 23 25
3 26 22 27
3 26 17 22
3 24 28 29
3 28 30 29
3 28 16 30
3 29 30 12
3 24 29 31
3 29 32 31
3 29 12 32
3 31 32 33
3 33 34 31
3 34 23 31
3 31 23 24
3 17 15 21
3 15 28 21
3 15 16 28
3 21 28 24
3 16 35 30
3 35 11 30
3 35 0 11
3 30 11 12
3 4 1 13
3 1 35 13
3 1 0 35
3 13 35 16
3 4 14 7
3 14 26 7
3 14 17 26
3 7 26 36
3 36 37 7
3 7 37 6
3 6 38 5
3 5 38 19
3 6 39 38
3 39 40 38
3 39 41 40
3 38 40 19
3 6 37 39
3 37 42 39
3 37 36 42
3 39 42 41
3 19 40 43
3 40 44 43
3 40 41 44
3 43 44 45
3 45 44 46
3 44 47 46
3 44 41 47
3 46 47 48
3 41 49 47
3 49 50 47
3 49 27 50
3 47 50 48
3 41 42 49
3 42 51 49
3 42 36 51
3 49 51 27
3 48 50 52
3 50 53 52
3 50 27 53
3 52 53 25
3 45 46 54
3 46 55 54
3 46 48 55
3 54 55 56
3 48 57 55
3 57 58 55
3 57 34 58
3 55 58 56
3 48 52 57
3 52 59 57
3 52 25 59
3 57 59 34
3 56 58 33
3 58 34 33
3 45 54 60
3 54 61 60
3 54 56 61
3 60 61 20
3 56 62 61
3 62 63 61
3 62 64 63
3 61 63 20
3 64 62 33
3 33 62 56
3 20 63 8
3 63 64 8
3 32 65 33
3 33 65 64
3 32 66 65
3 66 67 65
3 66 9 67
3 65 67 64
3 9 66 12
3 12 66 32
3 64 67 8
3 67 9 8
3 19 68 18
3 68 20 18
3 19 43 68
3 43 60 68
3 43 45 60
3 68 60 20
3 27 51 26
3 26 51 36
3 25 53 22
3 22 53 27
3 34 59 23
3 59 25 23

CELL_TYPES 134
5
5
5
5
5
5
5
5
5
5
5
5
5
5
5
5
5
5
5
5
5
5
5
5
5
5
5
5
5
5
5
5
5
5
5
5
5
5
5
5
5
5
5
5
5
5
5
5
5
5
5
5
5
5
5
5
5
5
5
5
5
5
5
5
5
5
5
5
5
5
5
5
5
5
5
5
5
5
5
5
5
5
5
5
5
5
5
5
5
5
5
5
5
5
5
5
5
5
5
5
5
5
5
5
5
5
5
5
5
5
5
5
5
5
5
5
5
5
5
5
5
5
5
5
5
5
5
5
5
5
5
5
5
5

CELL_DATA 134
SCALARS cell_data_0 double
LOOKUP_TABLE default
5.30127586295e-05
1.89294949473e-05
4.49047194301e-05
0.000117298617308
0.000132609152915
2.04713224903e-05
1.99824421711e-06
0.000214327782628
0.000182984044312
0.000144068100433
5.04275413429e-05
7.43519100416e-05
0.000177993081681
0.000122503957202
0.000110918349868
4.24242142894e-05
1.87585945111e-05
0.000241260724981
0.000117023947573
0.000199646565052
0.000179632951155
0.000272692943875
0.00027851457321
0.000231738714237
0.000174579553115
0.000212556274365
5.79057196624e-05
2.93981578629e-05
2.31950069939e-05
2.69427556308e-07
4.99836783453e-05
6.13175944058e-06
0.000151513258315
0.000121995330558
0.000198365491088
0.000159707562558
9.91704402948e-05
1.09886994044e-05
0.000304960445741
0.000332452632095
6.87801390245e-05
0.000246784192882
3.05905354144e-06
3.14539277917e-05
2.28182458036e-06
6.12612731984e-05
0.000105332153713
0.000110148739157
7.51089437566e-05
4.32221270698e-05
3.16426338672e-05
3.06279442052e-05
3.6659131747e-05
2.11968136535e-05
1.36357891508e-05
6.56464155216e-08
9.43927383512e-05
7.1118528268e-05
1.32571419689e-05
1.51731473961e-05
2.50602613045e-05
3.67270208033e-07
6.09738804717e-06
1.72588748699e-05
1.87137867382e-05
3.33993334268e-05
8.1403681499e-06
5.2280180785e-06
1.13427312148e-05
1.46617683317e-05
1.72515308661e-05
1.34014817177e-05
7.38380861216e-06
8.21669657671e-06
8.40329408398e-06
6.28718431339e-06
3.73853881687e-05
2.81023668934e-07
2.21489879385e-05
8.89192151212e-06
2.00853113888e-05
3.32133299772e-05
2.30716582526e-05
4.42227873482e-05
6.33542215957e-05
9.37456785733e-05
1.54753654205e-05
1.45177624899e-05
1.11863350258e-05
2.56809039138e-05
1.18000857149e-05
1.64623118366e-05
1.6958324121e-05
4.9504202875e-05
4.17551574483e-05
6.17564282977e-05
8.8317937713e-05
2.04147789126e-05
0.000119135471628
9.18845956145e-05
8.20897419121e-06
7.45637618919e-05
6.06371635522e-06
3.17552281997e-05
2.13299118691e-07
5.63318993512e-05
0.000106421546294
1.49724891142e-05
0.000226388603118
0.000153398569393
0.000145496161104
0.000218198042805
0.00014050196583
0.000225799595214
3.34473175285e-05
9.96300204711e-06
4.65851875732e-05
0.000114874776919
8.16126655479e-05
6.8641640595e-05
0.000237926517379
0.000173281469981
1.17976738814e-05
2.63916385401e-05
1.09837004016e-05
1.37723376102e-05
3.19274929028e-07
5.07826127816e-06
6.78103043532e-05
1.45310649708e-05
0.000156927153823
0.000153796505868
2.11445438128e-06
9.71612507554e-05

