# vtk DataFile Version 3.0
File Name: Molecule/sphere_dip_C5/sphere_dip_C5_0-s5.vtk
ASCII
DATASET UNSTRUCTURED_GRID
FIELD FieldData 1
TIME 1 1 double
0.0
POINTS 355 double
-0.5 -0.809016994375 -0.309016994375
0.0 -1.0 0.0
-0.5 -0.809016994375 0.309016994375
0.5 0.809016994375 0.309016994375
0.25 0.904508497187 0.154508497188
0.25 0.829833901363 0.417374053247
0.0 0.925325404176 0.26286555606
0.0 0.850650808352 0.525731112119
-0.25 0.829833901363 0.417374053247
-0.25 0.904508497187 0.154508497188
-0.5 0.809016994375 0.309016994375
-0.154508497188 0.675325404176 0.667374053247
-0.404508497188 0.654508497187 0.559016994375
-0.309016994375 0.5 0.809016994375
-0.654508497187 0.559016994375 0.404508497188
-0.559016994375 0.404508497188 0.654508497187
-0.809016994375 0.309016994375 0.5
-0.675325404176 0.667374053247 0.154508497188
-0.829833901363 0.417374053247 0.25
-0.850650808352 0.525731112119 0.0
0.154508497188 0.675325404176 0.667374053247
0.0 0.5 0.809016994375
0.309016994375 0.5 0.809016994375
0.404508497188 0.654508497187 0.559016994375
-1.0 0.0 0.0
0.525731112119 0.0 0.850650808352
0.417374053247 -0.25 0.829833901363
0.667374053247 -0.154508497188 0.675325404176
0.559016994375 -0.404508497188 0.654508497187
0.309016994375 -0.5 0.809016994375
0.404508497188 -0.654508497187 0.559016994375
-0.154508497188 -0.25 -0.904508497187
-0.417374053247 -0.25 -0.829833901363
-0.26286555606 0.0 -0.925325404176
-0.809016994375 -0.309016994375 0.5
-0.559016994375 -0.404508497188 0.654508497187
-0.667374053247 -0.154508497188 0.675325404176
-0.417374053247 -0.25 0.829833901363
-0.525731112119 0.0 0.850650808352
-0.667374053247 0.154508497188 0.675325404176
-0.809016994375 0.0 0.5
0.0 0.25 0.904508497187
0.154508497188 0.25 0.904508497187
-0.154508497188 0.25 0.904508497187
-0.077254248594 0.125 0.952254248593
0.077254248594 0.125 0.952254248593
0.0 0.0 1.0
0.231762745782 0.375 0.856762745781
-0.26286555606 0.0 0.925325404176
-0.340119804654 0.125 0.87757965277
0.340119804654 0.125 0.87757965277
0.417374053247 0.25 0.829833901363
0.26286555606 0.0 0.925325404176
-0.309016994375 -0.5 0.809016994375
-0.231762745782 -0.375 0.856762745781
-0.340119804654 -0.125 0.87757965277
-0.154508497188 -0.25 0.904508497187
-0.077254248594 -0.125 0.952254248593
0.0 -0.5 0.809016994375
0.0 -0.25 0.904508497187
0.077254248594 -0.125 0.952254248593
0.340119804654 -0.125 0.87757965277
0.154508497188 -0.25 0.904508497187
0.231762745782 -0.375 0.856762745781
0.850650808352 -0.525731112119 0.0
0.829833901363 -0.417374053247 -0.25
0.925325404176 -0.26286555606 0.0
0.904508497187 -0.154508497188 -0.25
0.809016994375 -0.309016994375 -0.5
1.0 0.0 0.0
0.809016994375 0.0 -0.5
0.904508497187 0.154508497188 -0.25
0.809016994375 0.309016994375 -0.5
0.667374053247 -0.154508497188 -0.675325404176
0.667374053247 0.154508497188 -0.675325404176
0.525731112119 0.0 -0.850650808352
0.850650808352 0.525731112119 0.0
0.829833901363 0.417374053247 -0.25
0.675325404176 0.667374053247 -0.154508497188
0.654508497187 0.559016994375 -0.404508497188
0.5 0.809016994375 -0.309016994375
0.559016994375 0.404508497188 -0.654508497187
0.404508497188 0.654508497187 -0.559016994375
0.309016994375 0.5 -0.809016994375
0.417374053247 0.25 -0.829833901363
0.0 -0.850650808352 -0.525731112119
0.0 -0.925325404176 -0.26286555606
0.0 -0.850650808352 0.525731112119
-0.25 -0.829833901363 0.417374053247
-0.404508497188 -0.654508497187 0.559016994375
-0.154508497188 -0.675325404176 0.667374053247
0.25 -0.829833901363 -0.417374053247
0.25 -0.904508497187 -0.154508497188
0.5 -0.809016994375 -0.309016994375
0.5 -0.809016994375 0.0
0.25 -0.904508497187 0.154508497188
0.5 -0.809016994375 0.309016994375
0.675325404176 -0.667374053247 -0.154508497188
0.675325404176 -0.667374053247 0.154508497188
0.417374053247 -0.25 -0.829833901363
0.559016994375 -0.404508497188 -0.654508497187
0.309016994375 -0.5 -0.809016994375
0.654508497187 -0.559016994375 -0.404508497188
0.404508497188 -0.654508497187 -0.559016994375
0.154508497188 -0.675325404176 -0.667374053247
0.26286555606 0.0 -0.925325404176
0.154508497188 0.25 -0.904508497187
0.0 0.0 -1.0
0.0 0.5 -0.809016994375
0.154508497188 0.675325404176 -0.667374053247
-0.154508497188 0.675325404176 -0.667374053247
-0.309016994375 0.5 -0.809016994375
0.0 0.850650808352 -0.525731112119
0.125 0.840242354857 -0.471552582683
0.279508497188 0.664916950682 -0.613195523811
0.25 0.829833901363 -0.417374053247
0.375 0.819425447869 -0.363195523811
0.5 0.809016994375 -0.154508497188
0.675325404176 0.667374053247 0.0
0.5 0.809016994375 0.0
0.375 0.856762745781 -0.231762745782
0.375 0.856762745781 -0.077254248594
0.25 0.904508497187 -0.154508497188
0.25 0.904508497187 0.0
0.375 0.856762745781 0.077254248594
0.125 0.952254248593 -0.077254248594
0.125 0.952254248593 0.077254248594
0.0 1.0 0.0
0.25 0.867171199275 -0.285941275218
0.125 0.877579652769 -0.340119804654
0.125 0.914916950682 -0.208687026624
0.0 0.925325404176 -0.26286555606
0.0 0.887988106264 -0.394298334089
0.0 0.962662702088 -0.13143277803
-0.125 0.952254248593 0.077254248594
-0.125 0.952254248593 -0.077254248594
-0.25 0.904508497187 0.0
-0.25 0.904508497187 -0.154508497188
-0.375 0.856762745781 -0.077254248594
-0.375 0.856762745781 0.077254248594
-0.5 0.809016994375 0.0
-0.375 0.856762745781 -0.231762745782
-0.5 0.809016994375 -0.154508497188
-0.5 0.809016994375 -0.309016994375
-0.125 0.914916950682 -0.208687026624
-0.125 0.877579652769 -0.340119804654
-0.25 0.867171199275 -0.285941275218
-0.25 0.829833901363 -0.417374053247
-0.125 0.840242354857 -0.471552582683
-0.375 0.819425447869 -0.363195523811
-0.587662702088 0.738195523811 0.077254248594
-0.587662702088 0.738195523811 -0.077254248594
-0.675325404176 0.667374053247 0.0
-0.675325404176 0.667374053247 -0.154508497188
-0.434016994375 0.452254248594 0.731762745781
-0.417374053247 0.25 0.829833901363
-0.542374053247 0.202254248594 0.75257965277
-0.154508497188 0.5 0.809016994375
-0.231762745782 0.375 0.856762745781
-0.077254248594 0.375 0.856762745781
0.154508497188 -0.5 0.809016994375
0.154508497188 -0.675325404176 0.667374053247
0.0 -0.675325404176 0.667374053247
-0.154508497188 -0.5 0.809016994375
-0.279508497188 0.664916950682 -0.613195523811
0.925325404176 0.26286555606 0.0
0.231762745782 -0.375 -0.856762745781
0.340119804654 -0.125 -0.87757965277
0.154508497188 -0.25 -0.904508497187
0.077254248594 -0.125 -0.952254248593
0.0 -0.5 -0.809016994375
-0.13143277803 0.0 -0.962662702088
-0.394298334089 0.0 -0.887988106264
-0.434016994375 0.452254248594 -0.731762745781
-0.356762745782 0.577254248593 -0.684016994375
-0.481762745782 0.529508497188 -0.606762745781
-0.559016994375 0.404508497188 -0.654508497187
-0.404508497188 0.654508497187 -0.559016994375
-0.606762745781 0.481762745782 -0.529508497188
-0.529508497188 0.606762745781 -0.481762745782
-0.654508497187 0.559016994375 -0.404508497188
-0.452254248594 0.731762745781 -0.434016994375
-0.577254248593 0.684016994375 -0.356762745782
-0.363195523811 0.375 -0.819425447869
-0.488195523811 0.327254248594 -0.742171199275
-0.587662702088 -0.738195523811 -0.231762745782
-0.434016994375 -0.452254248594 0.731762745781
-0.529508497187 -0.606762745782 0.481762745781
-0.404508497188 -0.654508497187 -0.559016994375
-0.481762745782 -0.529508497188 -0.606762745781
-0.309016994375 -0.5 -0.809016994375
-0.559016994375 -0.404508497188 -0.654508497187
-0.529508497188 -0.606762745781 -0.481762745782
-0.606762745781 -0.481762745782 -0.529508497188
-0.654508497187 -0.559016994375 -0.404508497188
-0.452254248594 -0.731762745781 -0.434016994375
-0.577254248593 -0.684016994375 -0.356762745782
-0.684016994375 -0.356762745782 -0.577254248593
-0.731762745781 -0.434016994375 -0.452254248594
-0.809016994375 -0.309016994375 -0.5
-0.819425447869 -0.363195523811 -0.375
-0.742171199275 -0.488195523811 -0.327254248594
-0.829833901363 -0.417374053247 -0.25
-0.664916950682 -0.613195523811 -0.279508497188
-0.752579652769 -0.542374053247 -0.202254248594
-0.675325404176 -0.667374053247 -0.154508497188
-0.077254248594 0.125 -0.952254248593
0.0772542485935 0.375 -0.856762745781
-0.154508497188 0.25 -0.904508497187
-0.231762745782 0.375 -0.856762745781
-0.208687026624 0.125 -0.914916950682
-0.340119804654 0.125 -0.877579652769
-0.285941275218 0.25 -0.867171199275
-0.417374053247 0.25 -0.829833901363
-0.471552582683 0.125 -0.840242354857
-0.543831351044 0.773606259093 -0.270389870079
-0.543831351044 0.773606259093 -0.115881372891
-0.587662702088 0.738195523811 -0.231762745782
-0.631494053132 0.702784788529 -0.193135621485
-0.71915675522 0.631963317965 -0.115881372891
-0.71915675522 0.631963317965 0.038627124297
-0.762988106264 0.596552582683 -0.077254248594
0.077254248594 -0.25 0.904508497187
0.077254248594 -0.375 0.856762745781
0.0 -0.375 0.856762745781
-0.327254248594 0.742171199275 -0.488195523811
-0.75257965277 0.542374053247 -0.202254248594
-0.829833901363 0.417374053247 -0.25
-0.742171199276 0.488195523811 -0.327254248594
-0.708748301726 0.577784788529 -0.240881372891
-0.698339848231 0.523606259093 -0.365881372891
-0.809016994375 0.309016994375 -0.5
-0.664916950682 0.613195523811 -0.279508497188
-0.621085599637 0.648606259093 -0.318135621485
-0.850650808352 -0.525731112119 0.0
-0.675325404176 -0.667374053247 0.154508497188
-0.829833901363 -0.417374053247 0.25
-0.654508497187 -0.559016994375 0.404508497188
0.809016994375 -0.309016994375 0.5
0.738195523811 -0.231762745782 0.587662702088
0.529508497188 -0.606762745781 0.481762745782
0.654508497187 -0.559016994375 0.404508497188
0.452254248594 -0.731762745781 0.434016994375
0.577254248593 -0.684016994375 0.356762745782
0.731762745781 -0.434016994375 0.452254248594
0.829833901363 -0.417374053247 0.25
0.75257965277 -0.542374053247 0.202254248594
-0.077254248594 -0.375 -0.856762745781
0.077254248594 -0.375 -0.856762745781
0.0 -0.25 -0.904508497187
-0.154508497188 -0.5 -0.809016994375
-0.231762745782 -0.375 -0.856762745781
-0.154508497188 -0.675325404176 -0.667374053247
0.0 -0.675325404176 -0.667374053247
[...]
CELL_DATA 706
SCALARS cell_data_0 double
LOOKUP_TABLE default
0.000529928663319
0.000164878095832
0.000307612680996
0.000120027192328
0.000161516750151
0.000335304171809
0.000166431774175
0.00013672328631
0.000295744065531
0.000166378541717
0.000207952123113
0.000141242625659
0.000307780038062
0.000185696448037
8.32384322796e-05
0.000250099654005
0.000189442986726
0.000185533653525
0.000108873134999
0.000181875877247
8.18128306458e-05
1.20405353346e-05
5.95887491707e-05
9.10842727024e-05
7.5878998154e-06
0.00032692475787
6.57494426299e-05
5.97618150184e-05
4.96875564749e-05
4.02076445607e-05
1.19319820642e-05
3.8389207153e-05
6.56553911001e-05
6.24518341617e-05
5.40235929965e-05
4.67027486733e-05
2.43397527704e-05
3.06426806772e-05
2.53209974061e-05
4.76286344398e-05
6.88008821351e-05
3.76486690929e-05
3.352767893e-05
2.71679627307e-05
2.84758037368e-05
4.95164336177e-05
2.07468387791e-05
5.1955714729e-05
5.58138321899e-05
5.79956997216e-05
4.33167176558e-05
4.16514830588e-05
3.84972636913e-05
3.73291041498e-05
4.25684539442e-05
5.30794737164e-05
5.11408797003e-05
4.33317428826e-05
2.79363849255e-05
4.51712409308e-05
4.98576766991e-05
4.0192251835e-05
4.5222339779e-05
6.34424920202e-05
6.08876765404e-05
5.69314068674e-05
5.29898451826e-05
3.49659749491e-05
3.15225136178e-05
2.69171896084e-05
4.50774011934e-05
5.08491268992e-05
4.92064858498e-05
4.61132789811e-05
4.90348754321e-05
4.4320437535e-05
2.96127720272e-05
4.12725273745e-05
2.2434935987e-05
5.25365462114e-06
2.31556409362e-05
1.23405215084e-05
2.53482322609e-05
1.25502062325e-06
2.265964367e-05
2.04119629888e-05
3.08395173047e-05
1.06836648912e-05
2.35469164271e-05
2.61906755092e-05
1.50015348193e-05
9.0769341483e-06
2.66910712011e-05
4.3955008154e-05
3.75110353348e-05
1.42521959036e-05
2.23846940128e-05
4.7842140326e-05
3.23584903966e-05
1.52796677696e-05
2.29892205586e-05
2.18347810941e-05
9.49875986129e-05
0.000150206465812
1.58208319632e-06
6.29391509397e-05
6.39827670267e-06
4.35538014527e-05
3.4314874594e-05
3.34893409702e-05
1.70990759239e-06
6.56676490237e-06
0.000115307467078
1.4852119982e-05
0.000122824518836
1.25063242301e-05
1.7156592824e-05
2.21171906247e-05
0.000118059659704
6.04937674995e-06
2.59836317193e-05
1.40455144206e-05
1.74361013975e-05
7.77716248177e-06
1.86359240603e-05
4.16088544657e-05
7.52595162633e-05
7.40520803819e-05
0.000169959976723
0.000212777870012
0.000392518991382
0.000175817870842
8.7655491999e-05
4.94741131688e-05
2.96654397232e-05
0.000222503976001
0.000160016512421
0.000103981081477
0.000217399274824
4.49126155768e-05
7.90355926244e-05
0.000191535009824
0.000260184615315
0.000119202907428
0.00010792960629
0.000140408999451
0.000154574201938
8.35132590174e-05
5.11577607632e-05
4.24570793679e-05
8.8678580426e-05
2.26947843164e-05
7.44693037766e-06
2.69110514471e-06
5.36939687644e-05
1.94852035363e-05
1.38751296119e-05
4.7099646381e-06
3.05137002502e-05
3.34724330606e-06
5.90361169225e-06
3.90046958833e-06
2.46527247456e-05
1.79294904363e-05
2.25673525944e-05
5.88538781839e-06
1.83960619831e-05
1.47320839921e-05
2.35561048606e-05
4.76995848048e-06
9.46377490773e-07
2.07501692715e-05
4.48417108235e-05
8.34094490447e-06
6.04553035911e-07
2.47692740595e-05
2.27356477534e-05
2.16304321264e-05
2.00039326766e-06
1.2262144174e-05
2.23255511974e-05
4.41224994603e-05
1.05190463621e-05
1.46043785558e-05
1.38406821997e-05
2.14283821418e-05
2.37071397424e-06
1.24781834752e-05
5.09979537528e-07
9.87572602987e-05
3.85304125598e-05
4.23186110663e-05
9.14845624522e-05
8.78202198208e-07
3.28493007514e-06
9.23672945105e-06
1.77506685973e-05
8.16860106034e-06
4.62920492471e-06
1.62651728001e-05
1.39805406978e-05
9.85573171575e-06
2.1658950505e-06
7.14274567108e-06
2.09602595076e-05
2.86156079161e-05
3.15242498856e-05
1.47184978462e-06
5.95717179581e-06
2.53939817609e-05
2.04091857207e-05
3.47963787613e-05
1.30752914505e-05
1.08004529035e-05
2.08643451479e-05
2.15480716603e-05
4.77569104978e-06
2.83257368296e-06
1.19065481298e-05
9.68349093723e-06
1.66267662629e-06
3.6312365764e-06
5.18690979243e-06
2.91510457755e-05
1.38483114535e-05
1.58218309717e-05
3.52555370689e-06
1.78181446149e-05
7.08220258419e-06
6.80801956046e-05
3.47620892951e-05
2.36510312593e-05
3.00751312846e-05
1.1961699485e-05
2.8767959353e-05
1.23367399617e-05
1.4728774158e-05
1.62162248076e-05
1.93226409953e-05
2.51351418224e-05
2.14442636046e-05
2.08498623936e-05
2.77537002595e-05
3.02286626919e-05
1.98825113753e-05
2.03505724105e-05
2.98273577729e-05
3.26689435026e-05
2.11591073758e-05
4.24542329437e-05
1.82711241975e-05
1.30813712708e-05
2.33212944452e-05
1.14590746862e-05
1.23632359321e-05
3.26467811991e-05
4.3497593297e-05
1.77452053376e-05
2.91217532003e-06
3.24906273054e-07
6.97032511501e-06
3.61508893633e-05
2.90896524806e-05
5.42419062136e-07
5.65307996905e-05
1.7933876333e-05
2.36101298471e-05
7.58296707736e-05
4.95338532041e-06
1.8751530153e-05
4.41490845359e-06
1.06720979693e-05
8.10060094412e-07
1.2893832602e-06
1.06796948381e-06
1.79497713561e-06
1.49067612634e-06
1.44464069397e-06
1.44711961568e-07
4.95803562485e-07
4.64877290346e-07
9.87594237009e-06
1.01024525256e-05
1.5612551215e-06
7.80691178864e-05
1.86190670282e-05
5.52308202247e-05
4.77186597731e-05
3.56933995695e-05
2.82405531805e-05
2.07952196801e-05
8.89761632944e-07
9.23824798587e-07
1.13348313681e-06
3.45689492439e-07
7.00562941496e-07
7.06247151566e-08
1.92518063461e-08
9.88427035931e-07
1.74172675498e-06
1.88693939343e-05
7.14972472204e-07
2.87720677687e-05
3.00499729413e-05
2.62372094637e-07
3.02968516361e-05
6.13295676459e-05
4.33190116304e-06
2.26186456682e-07
9.19842361958e-07
7.70593341709e-07
3.07373396849e-07
1.27742857979e-06
1.24227442081e-06
6.27929996155e-07
3.89479529717e-07
1.23735247253e-07
7.71602849406e-07
1.5440068817e-05
3.42288903766e-07
8.83056088554e-05
6.13783934336e-05
3.24566016316e-06
7.5268975058e-05
8.49852097761e-06
4.29705666458e-05
7.08074766474e-05
4.4144720623e-05
8.98439726376e-06
4.67312513338e-06
5.86529985405e-06
3.65047146961e-06
7.36131696281e-06
1.06056733356e-05
4.75998372375e-06
7.24921634728e-06
3.33895090138e-06
3.77350135262e-06
6.38271304495e-06
8.41610239928e-06
4.18761266088e-06
1.43920710149e-05
6.61444862692e-06
3.55071847562e-06
3.11344092548e-06
1.24360904651e-05
1.1986429698e-05
2.46754660002e-06
2.31897874488e-06
1.29293443151e-05
1.11599440809e-05
1.12893306564e-06
1.30880385869e-06
6.32062105524e-06
1.73092891563e-05
2.83865627949e-06
2.6564865026e-05
1.28944471913e-05
3.23293300888e-05
3.36258702603e-05
3.70164050027e-05
3.71322816591e-05
4.92140648091e-05
3.71154350507e-05
1.48824698893e-05
2.30444159598e-05
1.69706724206e-05
1.6849926933e-05
1.68219546272e-05
1.45279244328e-05
3.02333431464e-05
3.31747693084e-05
2.06930551993e-05
1.48465470947e-05
2.8296754378e-05
2.57020905992e-05
1.44774576594e-05
1.38792473823e-05
9.94928042392e-06
1.41393607098e-07
8.39410797407e-07
5.60401993386e-06
3.6442956824e-06
4.50748806639e-07
6.18862819466e-08
6.89960584327e-06
6.96676490013e-07
3.69141562258e-08
7.17770192531e-09
3.64214185659e-07
1.08014421572e-05
1.07661468738e-06
1.32156997851e-06
1.13141063555e-06
8.57990044144e-07
1.05486130632e-06
9.37654743019e-07
8.01687015946e-07
9.32732749077e-07
3.65376317785e-07
1.23042543685e-05
6.93402833979e-07
2.28042287979e-07
1.92057174051e-06
1.4759935267e-06
6.85790717586e-06
6.11535521088e-06
3.09073276215e-06
1.70490704155e-05
6.48903610676e-06
9.55994771736e-06
2.03395683689e-05
2.36517151448e-05
2.09403112739e-05
8.41263810491e-06
4.20102304837e-06
6.67049883107e-06
6.56451159046e-06
1.91993810185e-05
5.91426693193e-06
2.79136884252e-06
3.38290722433e-05
1.4024843365e-05
7.5240302045e-06
3.05807286368e-06
2.29236894642e-05
8.0445853902e-06
1.07416478652e-05
7.13282040776e-06
5.65622475372e-06
8.72073592765e-06
9.7981759166e-06
7.35573914342e-06
5.9392588674e-06
1.49096139438e-05
1.76704363956e-05
1.26731931018e-05
1.14341523498e-05
5.95882484147e-06
5.4359949081e-06
2.00698624346e-05
2.35654345232e-06
4.28989211689e-06
1.06551873728e-05
4.88045372907e-06
1.37392813604e-06
3.29726170549e-06
2.58857559187e-06
1.34144529723e-06
4.46021151168e-06
7.69663960264e-07
9.96549518295e-07
5.15762970744e-06
1.30017415479e-05
4.98214653173e-06
3.54106188287e-09
1.10481866062e-06
1.77798610866e-06
1.99671077855e-06
4.87784164063e-06
4.57437961541e-06
1.42193473192e-07
8.62221350661e-08
2.21499918288e-06
5.24039750901e-07
2.01669171515e-07
2.43377376122e-06
1.93737197744e-06
1.02458967526e-06
3.67615903231e-06
8.10187347744e-06
7.59559739342e-07
2.49008856872e-06
4.22022916631e-06
2.56194962712e-06
8.98127096287e-07
2.12009244368e-06
4.44218043613e-06
5.44324944178e-06
8.17417729171e-06
7.78627719088e-06
6.37059581413e-06
9.83620791739e-06
9.23643136464e-06
3.68494538395e-06
3.0143698263e-06
1.70844274392e-06
5.93143018043e-06
2.28493223727e-05
2.42383108994e-05
1.27385100683e-05
1.89660107892e-05
1.20427656355e-05
6.2673992129e-06
1.46685422836e-05
2.70179676758e-05
9.96524448185e-06
8.79433565505e-06
1.38319527845e-05
1.09662950325e-05
3.37037063915e-06
4.15676800136e-07
4.69342013991e-07
7.52405499163e-07
2.26471438859e-06
5.02572454852e-06
4.72637714011e-06
8.96887048715e-06
1.03447768963e-05
1.02634152707e-05
1.31972850679e-05
1.54326509185e-05
1.65555077864e-05
1.49475442088e-05
1.28881918717e-05
1.66193278395e-05
1.40540465842e-05
1.69095210822e-05
2.91195254432e-05
3.15662250733e-05
4.11346416364e-06
6.06785998048e-07
6.18150457345e-06
6.91240978612e-06
4.7601592691e-06
4.91829200023e-07
3.97181033388e-07
6.45123861379e-06
5.42081160235e-06
5.85933978907e-07
1.28782013729e-06
4.43097140869e-07
7.75222740108e-06
1.63683226894e-06
1.05081685856e-06
4.79079225402e-06
1.42386767032e-06
1.14997852032e-06
8.5768988588e-07
8.75049222944e-07
1.18196685911e-07
4.83800984125e-07
1.11877831299e-06
5.71524516904e-08
4.7832557085e-07
7.0234938293e-07
8.19410244443e-06
6.38054674662e-07
1.19935851299e-06
1.68715951302e-06
1.437338598e-07
5.39818753449e-06
1.44412543493e-06
9.6321701476e-08
5.82396651039e-07
1.26940297256e-07
1.468011636e-06
1.13616164882e-07
1.27124514706e-06
1.29090055389e-06
5.76130336724e-07
1.58053927732e-06
3.62311325575e-08
5.44735233196e-06
4.27237140448e-06
1.58169482885e-06
2.40377008463e-07
2.27685913672e-06
4.26708339215e-07
3.58365308112e-07
2.64252464323e-07
1.52783795856e-06
3.37463011564e-07
1.65880488858e-07
7.81660591813e-06
1.40382991389e-09
1.26214824904e-06
4.32589398664e-08
1.04462466139e-07
1.77940004835e-06
1.795276441e-06
7.34207782381e-07
8.31511307733e-06
3.29596515363e-06
2.71841447042e-06
1.45774042584e-07
4.33137037824e-07
1.22999719991e-05
8.48114497676e-07
1.56549047248e-05
1.26128923625e-05
2.07997757438e-06
2.27746909961e-07
4.73968528898e-06
6.56094459271e-06
7.22839223973e-07
1.87843825927e-06
2.85889349029e-06
3.92132100815e-06
4.1880837776e-07
9.25759737784e-07
6.32247193416e-06
8.500719786e-07
5.58553657943e-08
1.49351498202e-07
5.61046115308e-06
8.62151896154e-07
2.93541960934e-06
8.91012096223e-06
1.11226494257e-05
7.65883767104e-06
6.71252540558e-06
4.51201950303e-06
2.12039813738e-05
1.84831632522e-05
1.54642254139e-05
1.96110626302e-05
1.92795556175e-05
1.58958349535e-05
1.14617418939e-05
2.56295682239e-05
2.5085308295e-05
2.10875444145e-05
2.07639562766e-05
2.94381289725e-07
1.05947309415e-06
3.35940528044e-06
1.81411957236e-06
5.41606875094e-05
4.54093630199e-05
4.44910109182e-05
7.02405032902e-05
2.32961608196e-06
1.86083889161e-05
1.10669885323e-05
2.47886475519e-06
1.75105920104e-07
1.11802204452e-05
7.69795426002e-06
1.01724359337e-05
1.70596400454e-05
4.6024030057e-06
5.51035020791e-06
4.65013243325e-06
2.50643043453e-06
4.38074655801e-06
2.92569362137e-05
2.54746165217e-05
9.0814203633e-07
3.4240472736e-06
4.58648929496e-06
1.27428827133e-05
7.68768719324e-06
4.97015572771e-06
1.17611334012e-07
1.34354974168e-07
9.99626827148e-07
3.00237265424e-08
6.10388182886e-07
8.01190477992e-07
1.27601247209e-06
2.91779302297e-06
1.49879646436e-06
1.68551868797e-08
4.64460265875e-07
1.08711017558e-06
3.5688421419e-07
7.51940739059e-07
3.42897327895e-07
1.02221272477e-06
9.17718452989e-07
2.31607368673e-08
3.19026951442e-07
3.56866332575e-06
3.56539650425e-06
1.96257972892e-08
3.21612864727e-07
1.60060524137e-07
9.3952757953e-08
5.56154830852e-08
9.24641709032e-07
3.50695101381e-06
8.72578082539e-07
4.3697740954e-08
1.71760210426e-06
3.62114264487e-06
9.1245472211e-06
1.28965175766e-08
3.4111138541e-05
4.81135621545e-05
3.54104960698e-05
2.45006705911e-05
2.51809309212e-05
3.60295312384e-05
7.63769144031e-07
9.69866063417e-07
3.53684067964e-07
6.84219441556e-07
1.73580376244e-06
9.61588182631e-07
1.81661316693e-06
6.25640445377e-07
1.40680677627e-06
7.25113112449e-06
1.77199472698e-05
3.28299961097e-06

