# vtk DataFile Version 3.0
File Name: Molecule/sphere_dip_C5/sphere_dip_C5_0-s4.vtk
ASCII
DATASET UNSTRUCTURED_GRID
FIELD FieldData 1
TIME 1 1 double
0.0
POINTS 254 double
-0.5 -0.809016994375 -0.309016994375
0.0 -1.0 0.0
-0.5 -0.809016994375 0.309016994375
-0.850650808352 -0.525731112119 0.0
-0.809016994375 -0.309016994375 0.5
0.5 0.809016994375 0.309016994375
0.25 0.904508497187 0.154508497188
0.25 0.829833901363 0.417374053247
0.0 0.925325404176 0.26286555606
0.0 0.850650808352 0.525731112119
-0.25 0.829833901363 0.417374053247
-0.25 0.904508497187 0.154508497188
-0.5 0.809016994375 0.309016994375
-0.154508497188 0.675325404176 0.667374053247
-0.404508497188 0.654508497187 0.559016994375
-0.309016994375 0.5 0.809016994375
-0.654508497187 0.559016994375 0.404508497188
-0.559016994375 0.404508497188 0.654508497187
-0.809016994375 0.309016994375 0.5
-0.675325404176 0.667374053247 0.154508497188
-0.829833901363 0.417374053247 0.25
-0.850650808352 0.525731112119 0.0
0.154508497188 0.675325404176 0.667374053247
0.0 0.5 0.809016994375
0.309016994375 0.5 0.809016994375
0.404508497188 0.654508497187 0.559016994375
-1.0 0.0 0.0
0.525731112119 0.0 0.850650808352
0.417374053247 -0.25 0.829833901363
0.667374053247 -0.154508497188 0.675325404176
0.559016994375 -0.404508497188 0.654508497187
0.309016994375 -0.5 0.809016994375
0.809016994375 -0.309016994375 0.5
0.404508497188 -0.654508497187 0.559016994375
0.654508497187 -0.559016994375 0.404508497188
0.5 -0.809016994375 0.309016994375
0.0 -0.850650808352 0.525731112119
0.850650808352 -0.525731112119 0.0
0.0 -0.5 -0.809016994375
-0.154508497188 -0.25 -0.904508497187
0.154508497188 -0.25 -0.904508497187
-0.309016994375 -0.5 -0.809016994375
0.0 -0.850650808352 -0.525731112119
-0.417374053247 -0.25 -0.829833901363
-0.26286555606 0.0 -0.925325404176
0.904508497187 -0.154508497188 0.25
1.0 0.0 0.0
0.904508497187 0.154508497188 0.25
0.809016994375 0.0 0.5
0.809016994375 0.309016994375 0.5
0.925325404176 0.26286555606 0.0
0.829833901363 0.417374053247 0.25
0.850650808352 0.525731112119 0.0
0.667374053247 0.154508497188 0.675325404176
0.675325404176 0.667374053247 0.154508497188
0.654508497187 0.559016994375 0.404508497188
0.559016994375 0.404508497188 0.654508497187
0.417374053247 0.25 0.829833901363
-0.525731112119 0.0 -0.850650808352
-0.667374053247 -0.154508497188 -0.675325404176
-0.667374053247 0.154508497188 -0.675325404176
-0.809016994375 0.0 -0.5
-0.809016994375 -0.309016994375 -0.5
-0.809016994375 0.309016994375 -0.5
-0.904508497187 -0.154508497188 -0.25
-0.904508497187 0.154508497188 -0.25
-0.829833901363 -0.417374053247 -0.25
-0.925325404176 -0.26286555606 0.0
-0.829833901363 0.417374053247 -0.25
-0.925325404176 0.26286555606 0.0
-0.559016994375 0.404508497188 -0.654508497187
-0.675325404176 -0.667374053247 -0.154508497188
-0.559016994375 -0.404508497188 0.654508497187
-0.667374053247 -0.154508497188 0.675325404176
-0.417374053247 -0.25 0.829833901363
-0.525731112119 0.0 0.850650808352
-0.667374053247 0.154508497188 0.675325404176
-0.809016994375 0.0 0.5
-0.559016994375 -0.404508497188 -0.654508497187
-0.404508497188 -0.654508497187 -0.559016994375
0.5 0.809016994375 0.0
0.0 0.25 0.904508497187
0.154508497188 0.25 0.904508497187
-0.154508497188 0.25 0.904508497187
-0.077254248594 0.125 0.952254248593
0.077254248594 0.125 0.952254248593
0.0 0.0 1.0
0.231762745782 0.375 0.856762745781
-0.26286555606 0.0 0.925325404176
-0.340119804654 0.125 0.87757965277
0.340119804654 0.125 0.87757965277
0.26286555606 0.0 0.925325404176
-0.309016994375 -0.5 0.809016994375
-0.231762745782 -0.375 0.856762745781
-0.340119804654 -0.125 0.87757965277
-0.154508497188 -0.25 0.904508497187
-0.077254248594 -0.125 0.952254248593
0.0 -0.5 0.809016994375
0.0 -0.25 0.904508497187
0.077254248594 -0.125 0.952254248593
0.340119804654 -0.125 0.87757965277
0.154508497188 -0.25 0.904508497187
0.231762745782 -0.375 0.856762745781
-0.762988106264 0.596552582683 -0.077254248594
-0.742171199276 0.488195523811 -0.327254248594
0.829833901363 -0.417374053247 -0.25
0.925325404176 -0.26286555606 0.0
0.904508497187 -0.154508497188 -0.25
0.809016994375 -0.309016994375 -0.5
0.809016994375 0.0 -0.5
0.904508497187 0.154508497188 -0.25
0.809016994375 0.309016994375 -0.5
0.667374053247 -0.154508497188 -0.675325404176
0.667374053247 0.154508497188 -0.675325404176
0.525731112119 0.0 -0.850650808352
0.829833901363 0.417374053247 -0.25
0.675325404176 0.667374053247 -0.154508497188
0.654508497187 0.559016994375 -0.404508497188
0.5 0.809016994375 -0.309016994375
0.559016994375 0.404508497188 -0.654508497187
0.404508497188 0.654508497187 -0.559016994375
0.309016994375 0.5 -0.809016994375
0.417374053247 0.25 -0.829833901363
0.0 -0.925325404176 -0.26286555606
-0.25 -0.829833901363 0.417374053247
-0.404508497188 -0.654508497187 0.559016994375
-0.154508497188 -0.675325404176 0.667374053247
0.25 -0.829833901363 -0.417374053247
0.25 -0.904508497187 -0.154508497188
0.5 -0.809016994375 -0.309016994375
0.5 -0.809016994375 0.0
0.25 -0.904508497187 0.154508497188
0.675325404176 -0.667374053247 -0.154508497188
0.675325404176 -0.667374053247 0.154508497188
0.417374053247 -0.25 -0.829833901363
0.559016994375 -0.404508497188 -0.654508497187
0.309016994375 -0.5 -0.809016994375
0.654508497187 -0.559016994375 -0.404508497188
0.404508497188 -0.654508497187 -0.559016994375
0.154508497188 -0.675325404176 -0.667374053247
0.26286555606 0.0 -0.925325404176
0.154508497188 0.25 -0.904508497187
0.0 0.0 -1.0
0.0 0.5 -0.809016994375
0.154508497188 0.675325404176 -0.667374053247
-0.154508497188 0.675325404176 -0.667374053247
-0.309016994375 0.5 -0.809016994375
0.0 0.850650808352 -0.525731112119
0.125 0.840242354857 -0.471552582683
0.279508497188 0.664916950682 -0.613195523811
0.25 0.829833901363 -0.417374053247
0.375 0.819425447869 -0.363195523811
0.5 0.809016994375 -0.154508497188
0.675325404176 0.667374053247 0.0
0.375 0.856762745781 -0.231762745782
0.375 0.856762745781 -0.077254248594
0.25 0.904508497187 -0.154508497188
0.25 0.904508497187 0.0
0.375 0.856762745781 0.077254248594
0.125 0.952254248593 -0.077254248594
0.125 0.952254248593 0.077254248594
0.0 1.0 0.0
0.25 0.867171199275 -0.285941275218
0.125 0.877579652769 -0.340119804654
0.125 0.914916950682 -0.208687026624
0.0 0.925325404176 -0.26286555606
0.0 0.887988106264 -0.394298334089
0.0 0.962662702088 -0.13143277803
-0.125 0.952254248593 0.077254248594
-0.125 0.952254248593 -0.077254248594
-0.25 0.904508497187 0.0
-0.25 0.904508497187 -0.154508497188
-0.375 0.856762745781 -0.077254248594
-0.375 0.856762745781 0.077254248594
-0.5 0.809016994375 0.0
-0.375 0.856762745781 -0.231762745782
-0.5 0.809016994375 -0.154508497188
-0.5 0.809016994375 -0.309016994375
-0.125 0.914916950682 -0.208687026624
-0.125 0.877579652769 -0.340119804654
-0.25 0.867171199275 -0.285941275218
-0.25 0.829833901363 -0.417374053247
-0.125 0.840242354857 -0.471552582683
-0.375 0.819425447869 -0.363195523811
-0.587662702088 0.738195523811 0.077254248594
-0.587662702088 0.738195523811 -0.077254248594
-0.675325404176 0.667374053247 0.0
-0.675325404176 0.667374053247 -0.154508497188
-0.434016994375 0.452254248594 0.731762745781
-0.417374053247 0.25 0.829833901363
-0.542374053247 0.202254248594 0.75257965277
-0.154508497188 0.5 0.809016994375
-0.231762745782 0.375 0.856762745781
-0.077254248594 0.375 0.856762745781
0.154508497188 -0.5 0.809016994375
0.154508497188 -0.675325404176 0.667374053247
0.0 -0.675325404176 0.667374053247
-0.154508497188 -0.5 0.809016994375
-0.279508497188 0.664916950682 -0.613195523811
0.231762745782 -0.375 -0.856762745781
0.340119804654 -0.125 -0.87757965277
0.077254248594 -0.125 -0.952254248593
-0.13143277803 0.0 -0.962662702088
-0.394298334089 0.0 -0.887988106264
-0.819425447869 -0.363195523811 -0.375
-0.434016994375 0.452254248594 -0.731762745781
-0.356762745782 0.577254248593 -0.684016994375
-0.481762745782 0.529508497188 -0.606762745781
-0.404508497188 0.654508497187 -0.559016994375
-0.606762745781 0.481762745782 -0.529508497188
-0.529508497188 0.606762745781 -0.481762745782
-0.654508497187 0.559016994375 -0.404508497188
-0.452254248594 0.731762745781 -0.434016994375
-0.577254248593 0.684016994375 -0.356762745782
-0.363195523811 0.375 -0.819425447869
-0.488195523811 0.327254248594 -0.742171199275
-0.417374053247 0.25 -0.829833901363
-0.471552582683 0.125 -0.840242354857
-0.587662702088 -0.738195523811 -0.231762745782
-0.434016994375 -0.452254248594 0.731762745781
-0.529508497187 -0.606762745782 0.481762745781
-0.684016994375 -0.356762745782 -0.577254248593
-0.481762745782 -0.529508497188 -0.606762745781
-0.529508497188 -0.606762745781 -0.481762745782
-0.606762745781 -0.481762745782 -0.529508497188
-0.654508497187 -0.559016994375 -0.404508497188
-0.452254248594 -0.731762745781 -0.434016994375
-0.577254248593 -0.684016994375 -0.356762745782
-0.731762745781 -0.434016994375 -0.452254248594
-0.742171199275 -0.488195523811 -0.327254248594
-0.664916950682 -0.613195523811 -0.279508497188
-0.752579652769 -0.542374053247 -0.202254248594
-0.077254248594 0.125 -0.952254248593
0.0772542485935 0.375 -0.856762745781
-0.154508497188 0.25 -0.904508497187
-0.231762745782 0.375 -0.856762745781
-0.208687026624 0.125 -0.914916950682
-0.340119804654 0.125 -0.877579652769
-0.285941275218 0.25 -0.867171199275
-0.543831351044 0.773606259093 -0.270389870079
-0.543831351044 0.773606259093 -0.115881372891
-0.587662702088 0.738195523811 -0.231762745782
-0.631494053132 0.702784788529 -0.193135621485
-0.71915675522 0.631963317965 -0.115881372891
-0.71915675522 0.631963317965 0.038627124297
0.077254248594 -0.25 0.904508497187
0.077254248594 -0.375 0.856762745781
0.0 -0.375 0.856762745781
-0.327254248594 0.742171199275 -0.488195523811
-0.75257965277 0.542374053247 -0.202254248594
-0.708748301726 0.577784788529 -0.240881372891
-0.698339848231 0.523606259093 -0.365881372891
-0.664916950682 0.613195523811 -0.279508497188
-0.621085599637 0.648606259093 -0.318135621485

CELLS 504 2016
3 0 1 2
3 3 2 4
3 5 6 7
3 6 8 7
3 7 8 9
3 9 8 10
3 8 11 10
3 10 11 12
3 9 10 13
3 10 14 13
3 10 12 14
3 13 14 15
3 12 16 14
3 16 17 14
3 16 18 17
3 12 19 16
3 19 20 16
3 19 21 20
3 16 20 18
3 9 13 22
3 13 23 22
3 22 23 24
3 5 7 25
3 7 22 25
3 7 9 22
3 25 22 24
3 18 20 26
3 27 28 29
3 28 30 29
3 28 31 30
3 29 30 32
3 31 33 30
3 33 34 30
3 33 35 34
3 30 34 32
3 35 33 36
3 32 34 37
3 38 39 40
3 38 41 39
3 41 38 42
3 39 43 44
3 39 41 43
3 37 45 32
3 46 47 45
3 47 48 45
3 47 49 48
3 45 48 32
3 46 50 47
3 50 51 47
3 50 52 51
3 47 51 49
3 32 48 29
3 48 53 29
3 48 49 53
3 29 53 27
3 52 54 51
3 54 55 51
3 54 5 55
3 51 55 49
3 49 56 53
3 56 57 53
3 56 24 57
3 53 57 27
3 58 59 60
3 59 61 60
3 59 62 61
3 60 61 63
3 62 64 61
3 64 65 61
3 64 26 65
3 61 65 63
3 66 67 64
3 66 3 67
3 64 67 26
3 63 65 68
3 65 69 68
3 65 26 69
3 68 69 21
3 70 60 63
3 3 71 2
3 4 72 73
3 72 74 73
3 73 74 75
3 75 76 73
3 76 77 73
3 76 18 77
3 73 77 4
3 4 77 26
3 26 77 18
3 26 67 4
3 4 67 3
3 58 43 59
3 43 78 59
3 43 41 78
3 42 79 41
3 5 54 80
3 18 76 17
3 81 82 23
3 83 84 81
3 84 85 81
3 84 86 85
3 81 85 82
3 82 87 23
3 23 87 24
3 86 84 88
3 84 89 88
3 84 83 89
3 88 89 75
3 24 87 57
3 87 90 57
3 87 82 90
3 57 90 27
3 82 85 90
3 85 91 90
3 85 86 91
3 90 91 27
3 92 93 74
3 93 94 74
3 93 95 94
3 74 94 75
3 75 94 88
3 94 96 88
3 94 95 96
3 88 96 86
3 95 93 97
3 95 98 96
3 98 99 96
3 96 99 86
3 86 99 91
3 99 100 91
3 99 101 100
3 91 100 27
3 101 102 100
3 102 28 100
3 102 31 28
3 100 28 27
3 49 55 25
3 25 55 5
3 24 56 25
3 25 56 49
3 21 103 68
3 68 104 63
3 21 69 20
3 20 69 26
3 37 105 106
3 105 107 106
3 105 108 107
3 106 107 46
3 108 109 107
3 109 110 107
3 109 111 110
3 107 110 46
3 108 112 109
3 112 113 109
3 112 114 113
3 109 113 111
3 52 115 116
3 115 117 116
3 115 111 117
3 116 117 118
3 111 119 117
3 119 120 117
3 119 121 120
3 117 120 118
3 111 113 119
3 113 122 119
3 113 114 122
3 119 122 121
3 42 123 0
3 0 123 1
3 36 124 1
3 1 124 2
3 2 124 125
3 124 126 125
3 124 36 126
3 125 126 92
3 42 127 123
3 127 128 123
3 127 129 128
3 123 128 1
3 129 130 128
3 130 131 128
3 130 35 131
3 128 131 1
3 129 132 130
3 132 133 130
3 132 37 133
3 130 133 35
3 1 131 36
3 131 35 36
3 114 112 134
3 112 135 134
3 112 108 135
3 134 135 136
3 108 137 135
3 137 138 135
3 137 129 138
3 135 138 136
3 108 105 137
3 105 132 137
3 105 37 132
3 137 132 129
3 136 138 139
3 138 127 139
3 138 129 127
3 139 127 42
3 114 140 122
3 140 141 122
3 140 142 141
3 122 141 121
3 121 143 144
3 143 145 144
3 143 146 145
3 144 145 147
3 147 148 144
3 148 149 144
3 148 150 149
3 144 149 121
3 121 149 120
3 149 151 120
3 149 150 151
3 120 151 118
3 118 152 116
3 152 153 116
3 152 80 153
3 116 153 52
3 118 154 152
3 154 155 152
3 154 156 155
3 152 155 80
3 156 157 155
3 157 158 155
3 157 6 158
3 155 158 80
3 156 159 157
3 159 160 157
3 159 161 160
3 157 160 6
3 80 158 5
3 158 6 5
3 118 151 154
3 151 162 154
3 151 150 162
3 154 162 156
3 150 163 162
3 163 164 162
3 163 165 164
3 162 164 156
3 150 148 163
3 148 166 163
3 148 147 166
3 163 166 165
3 156 164 159
3 164 167 159
3 164 165 167
3 159 167 161
3 6 160 8
3 160 161 8
3 161 168 8
3 8 168 11
3 161 169 168
3 169 170 168
3 169 171 170
3 168 170 11
3 171 172 170
3 172 173 170
3 172 174 173
3 170 173 11
3 171 175 172
3 175 176 172
3 175 177 176
3 172 176 174
3 11 173 12
3 173 174 12
3 161 167 169
3 167 178 169
3 167 165 178
3 169 178 171
3 165 179 178
3 179 180 178
3 179 181 180
3 178 180 171
3 165 166 179
3 166 182 179
3 166 147 182
3 179 182 181
3 171 180 175
3 180 183 175
3 180 181 183
3 175 183 177
3 174 184 12
3 12 184 19
3 174 185 184
3 185 186 184
3 185 187 186
3 184 186 19
3 17 188 14
3 14 188 15
3 15 188 189
3 188 190 189
3 188 17 190
3 189 190 75
3 15 191 13
3 13 191 23
3 15 192 191
3 192 193 191
3 192 83 193
3 191 193 23
3 31 194 195
3 194 196 195
3 194 97 196
3 195 196 36
3 36 196 126
3 196 197 126
3 196 97 197
3 126 197 92
3 146 198 145
3 198 182 145
3 198 181 182
3 145 182 147
3 111 115 50
3 50 115 52
3 46 110 50
3 50 110 111
3 31 195 33
3 33 195 36
3 35 133 34
3 34 133 37
3 136 199 134
3 199 200 134
3 199 40 200
3 134 200 114
3 114 200 140
3 200 201 140
3 200 40 201
3 140 201 142
3 40 199 38
3 38 199 136
3 142 201 39
3 39 201 40
3 136 139 38
3 38 139 42
3 44 202 39
3 39 202 142
3 58 203 43
3 43 203 44
3 37 106 45
3 45 106 46
3 62 204 64
3 204 66 64
3 146 205 206
3 205 207 206
3 205 70 207
3 206 207 208
3 70 209 207
3 209 210 207
3 209 211 210
3 207 210 208
3 211 209 63
3 63 209 70
3 208 210 212
3 210 213 212
3 210 211 213
3 212 213 177
3 146 214 205
3 214 215 205
3 214 216 215
3 205 215 70
3 70 215 60
3 60 215 216
3 216 217 60
3 217 58 60
3 71 218 2
3 218 0 2
3 92 219 125
3 219 220 125
3 219 72 220
3 125 220 2
3 2 220 4
3 220 72 4
3 72 219 74
3 219 92 74
3 78 221 59
3 59 221 62
3 79 222 41
3 41 222 78
3 79 223 222
3 223 224 222
3 223 225 224
3 222 224 78
3 79 226 223
3 226 227 223
3 226 0 227
3 223 227 225
3 78 224 221
3 224 228 221
3 224 225 228
3 221 228 62
3 0 226 42
3 226 79 42
3 62 228 204
3 228 229 204
3 228 225 229
3 204 229 66
3 225 230 229
3 230 231 229
3 230 71 231
3 229 231 66
3 225 227 230
3 227 218 230
3 227 0 218
3 230 218 71
3 66 231 3
3 231 71 3
3 142 232 141
3 232 233 141
3 232 234 233
3 141 233 121
3 234 235 233
3 235 143 233
3 235 146 143
3 233 143 121
3 142 202 232
3 202 236 232
3 202 44 236
3 232 236 234
3 44 237 236
3 237 238 236
3 237 216 238
3 236 238 234
3 44 203 237
3 203 217 237
3 203 58 217
3 237 217 216
3 234 238 235
3 238 214 235
3 238 216 214
3 235 214 146
3 52 153 54
3 54 153 80
3 177 239 176
3 239 240 176
3 239 241 240
3 176 240 174
3 174 240 185
3 240 242 185
3 240 241 242
3 185 242 187
3 187 243 186
3 243 244 186
3 243 103 244
3 186 244 19
3 19 244 21
3 244 103 21
3 75 190 76
3 76 190 17
3 23 193 81
3 81 193 83
3 15 189 89
3 89 189 75
3 83 192 89
3 89 192 15
3 92 197 93
3 93 197 97
3 101 245 246
3 245 247 246
3 245 98 247
3 246 247 97
3 97 247 95
3 247 98 95
3 97 194 102
3 102 194 31
3 101 246 102
3 102 246 97
3 98 245 99
3 245 101 99
3 146 206 198
3 206 248 198
3 206 208 248
3 198 248 181
3 181 248 183
3 248 212 183
3 248 208 212
3 183 212 177
3 103 249 68
3 249 104 68
3 103 243 249
3 243 250 249
3 243 187 250
3 249 250 104
3 104 251 63
3 63 251 211
3 104 252 251
3 252 253 251
3 252 241 253
3 251 253 211
3 104 250 252
3 250 242 252
3 250 187 242
3 252 242 241
3 211 253 213
3 253 239 213
3 253 241 239
3 213 239 177

CELL_TYPES 504
5
5
5
5
5
5
5
5
5
5
5
5
5
5
5
5
5
5
5
5
5
5
5
5
5
5
5
5
5
5
5
5
5
5
5
5
5
5
5
5
5
5
5
5
5
5
5
5
5
5
5
5
5
5
5
5
5
5
5
5
5
5
5
5
5
5
5
5
5
5
5
5
5
5
5
5
5
5
5
5
5
5
5
5
5
5
5
5
5
5
5
5
5
5
5
5
5
5
5
5
5
5
5
5
5
5
5
5
5
5
5
5
5
5
5
5
5
5
5
5
5
5
5
5
5
5
5
5
5
5
5
5
5
5
5
5
5
5
5
5
5
5
5
5
5
5
5
5
5
5
5
5
5
5
5
5
5
5
5
5
5
5
5
5
5
5
5
5
5
5
5
5
5
5
5
5
5
5
5
5
5
5
5
5
5
5
5
5
5
5
5
5
5
5
5
5
5
5
5
5
5
5
5
5
5
5
5
5
5
5
5
5
5
5
5
5
5
5
5
5
5
5
5
5
5
5
5
5
5
5
5
5
5
5
5
5
5
5
5
5
5
5
5
5
5
5
5
5
5
5
5
5
5
5
5
5
5
5
5
5
5
5
5
5
5
5
5
5
5
5
5
5
5
5
5
5
5
5
5
5
5
5
5
5
5
5
5
5
5
5
5
5
5
5
5
5
5
5
5
5
5
5
5
5
5
5
5
5
5
5
5
5
5
5
5
5
5
5
5
5
5
5
5
5
5
5
5
5
5
5
5
5
5
5
5
5
5
5
5
5
5
5
5
5
5
5
5
5
5
5
5
5
5
5
5
5
5
5
5
5
5
5
5
5
5
5
5
5
5
5
5
5
5
5
5
5
5
5
5
5
5
5
5
5
5
5
5
5
5
5
5
5
5
5
5
5
5
5
5
5
5
5
5
5
5
5
5
5
5
5
5
5
5
5
5
5
5
5
5
5
5
5
5
5
5
5
5
5
5
5
5
5
5
5
5
5
5
5
5
5
5
5
5
5
5
5
5
5
5
5
5
5
5
5
5
5
5
5
5
5
5
5
5
5
5
5
5
5
5
5
5
5
5
5
5
5
5
5
5
5
5
5
5
5
5
5
5
5
5
5
5
5
5
5
5
5
5
5
5
5
5
5
5
5

CELL_DATA 504
SCALARS cell_data_0 double
LOOKUP_TABLE default
6.09905839819e-05
6.39792576314e-05
2.29076404866e-05
7.2767763083e-06
1.9824484868e-06
6.17829861465e-07
1.71597017627e-06
3.11046857794e-06
4.8860455992e-06
2.62101910073e-05
2.47237697415e-05
1.19052259512e-06
5.80255561897e-06
2.99403389311e-05
2.97141677134e-05
1.21675951637e-05
2.09849511935e-05
1.18653031792e-06
1.14391020986e-05
2.83458159726e-05
5.58921231088e-05
4.88064862102e-05
7.31997568543e-07
3.96810766678e-05
2.81205760046e-05
2.891337367e-05
9.19083062159e-06
5.81615891754e-05
5.87843302737e-05
5.37709410902e-05
4.53227815822e-06
2.45060018162e-05
4.82142822487e-05
0.000128505154383
7.04924232706e-05
6.17055261593e-05
0.000122701227958
0.000119000101361
0.000119887794059
0.000132248179326
2.81726683314e-05
6.26337356448e-05
2.91775458526e-05
0.000171323849403
0.000239939115182
0.000252646381851
0.000101778222624
0.000154561292151
0.000229582210582
9.10295999881e-05
0.000229130779842
5.91970040957e-05
0.000112124359186
0.000168050960763
6.37869125674e-06
0.000247060984898
0.000320199101644
0.000221025287613
0.000142503067133
0.000105289323573
0.000150931957689
9.03331964731e-05
7.78164402123e-05
0.000282543033051
0.000447757729203
0.000319224969636
0.00028812225912
0.000214238768197
0.000258265176074
9.70080117033e-05
0.000260032164803
0.000275337332688
0.000258220978965
0.000130716270671
0.000247050549992
0.0003079063341
0.000127057065818
0.000212416539329
0.000336390766342
0.000100520387629
4.15583763525e-05
5.97297261365e-05
5.22042008617e-05
4.34924370562e-05
4.82509779431e-05
1.98162675787e-05
3.94586781388e-05
4.95578370784e-05
5.74772963805e-07
0.000132432862454
0.000160008368322
0.000127983425036
9.42580033426e-05
2.65195672896e-05
6.02399800097e-05
0.000122069082149
2.99100469724e-05
4.70702635624e-05
2.50709818265e-05
3.12382864041e-05
2.91564080475e-05
2.94813531092e-05
4.91482675288e-05
3.76588357865e-05
4.47139586389e-05
5.03392073918e-05
5.00140839742e-05
3.21370442173e-05
3.94995418727e-06
4.67666063846e-05
5.16645897677e-05
2.90698921407e-05
5.66500463142e-05
4.94328603839e-05
4.40741858024e-05
3.73840757686e-05
3.57077925276e-05
4.42817324068e-05
4.95493016924e-05
3.26472396093e-05
3.10733674798e-05
5.07991929439e-05
5.70422832173e-05
4.49236027817e-05
5.31399078233e-05
3.61357817392e-05
3.8028523138e-05
2.89315045079e-05
4.38050144319e-05
4.7535965409e-05
5.54627955031e-05
3.599753099e-05
5.12779428073e-05
4.58930125541e-05
3.16978212736e-05
3.67677309933e-05
1.55651026729e-05
5.38572491321e-05
2.00455200973e-05
5.46353996689e-06
5.81068237546e-05
6.82989963022e-05
4.35175172025e-05
3.55205912188e-05
1.55441249726e-05
6.7981218015e-06
1.04048871295e-05
3.15221083306e-05
1.35504670057e-05
8.79727380149e-08
3.18740738919e-05
2.26485652904e-05
1.28440462798e-05
2.53383771864e-06
1.37804076259e-05
2.74991575602e-05
4.8081262477e-06
5.94697640435e-06
2.25327814735e-05
1.7416153386e-05
2.29367219179e-05
7.90631264169e-06
1.62338933952e-05
2.03600222993e-05
1.85315933276e-05
5.67771929616e-06
8.96850453479e-06
1.2023464555e-05
4.29740766344e-06
1.18708114857e-05
4.95117775049e-05
4.95259972896e-05
3.27109787759e-05
3.98192875747e-05
3.19115038151e-05
4.22898749297e-05
3.41707433574e-07
8.57346219818e-06
5.86611659327e-06
8.74345384102e-06
1.10027881147e-05
1.84000473325e-05
3.01959929805e-05
1.44779568332e-05
7.72650826307e-06
1.15863312846e-05
1.87643575782e-07
3.05160557547e-05
3.9411960398e-05
2.78566691722e-05
2.75273067092e-05
8.85124279999e-06
8.43784831023e-06
4.58193169122e-05
1.31328129845e-05
7.89251095597e-06
4.35244593366e-06
4.49807387624e-05
1.46539792649e-05
3.51370978772e-06
7.15597196286e-06
6.06500160712e-07
4.81287359992e-05
5.00431843315e-06
1.54136560724e-06
8.59052537198e-06
2.43607458126e-05
1.00226821549e-05
5.75844777149e-05
1.84090940787e-05
2.34798613198e-05
7.92838915054e-06
2.53117718879e-05
1.42485316326e-05
7.08416645007e-06
2.7909821664e-06
1.6436842359e-06
1.13262417989e-05
1.04172289197e-05
6.24903039074e-07
9.29520267883e-07
1.09595765656e-05
8.69334991026e-06
3.85648621344e-06
5.24849243796e-06
9.3256357544e-07
6.64328162345e-06
4.84254445661e-07
1.07294748846e-06
2.60661596379e-06
2.14501282358e-06
1.80202480873e-06
5.04965491928e-07
3.44088312321e-06
1.02882347508e-06
1.25919670857e-06
4.60652591467e-06
2.00771743057e-06
4.5222328635e-06
1.19348571915e-05
6.83473806689e-06
1.46251423391e-06
5.9728272369e-07
1.92979500652e-07
1.45741812509e-07
2.98008958469e-07
2.95258511004e-07
8.47196322429e-07
3.12209891828e-07
1.10662640124e-07
2.90830414277e-06
2.58572580749e-07
8.19556535581e-07
5.02275064491e-07
1.65570729198e-07
3.40587427948e-06
7.56123161183e-06
1.13498412583e-05
7.59472181433e-06
8.01062789167e-07
1.71917718265e-06
2.81135983553e-06
3.13855423505e-07
2.88146504237e-06
1.64820539963e-06
4.2424235594e-06
3.48147763211e-06
3.86301599197e-06
1.49961362029e-06
3.77929686095e-07
6.12171198158e-06
1.57443471659e-06
4.61115684778e-06
4.35014434523e-06
2.61806139465e-06
5.34749367887e-07
8.49380335564e-07
1.88528680163e-06
4.51605538577e-07
8.1836285091e-06
1.70509662195e-05
1.01846751107e-05
1.7674249637e-07
1.0569967491e-05
1.48255773174e-05
2.29651063293e-05
1.16713305911e-05
2.62457685006e-05
3.71479082382e-05
1.92878633556e-05
1.29078230914e-05
1.6701001321e-05
2.0521518851e-05
5.47522460915e-05
4.57085126196e-05
3.20980947774e-05
4.53803829134e-07
4.48045004014e-06
1.32698425123e-05
1.16881129249e-05
1.64081720416e-05
2.09922807195e-05
1.00658917888e-05
2.04833546245e-05
1.51672074685e-05
2.64168063233e-05
2.42401817494e-05
2.2246974686e-05
2.75197363123e-05
2.99819192883e-05
3.2646993409e-05
2.05363378962e-05
1.83448300597e-05
2.35839602395e-05
2.98173374792e-05
2.4490627382e-05
9.70616914157e-06
2.5733353697e-05
4.46140960105e-05
3.56821465117e-05
2.34479889196e-05
7.11372775095e-06
1.95699516961e-05
1.77752517016e-05
3.85267284e-05
3.2389773649e-05
8.52223680445e-05
3.46590361766e-05
2.25804319621e-05
3.25936954499e-06
1.26850787916e-05
1.29239265407e-05
1.4836560852e-05
6.52237823577e-06
1.51335072108e-05
2.91721041562e-05
3.68345851193e-05
4.31368477314e-05
4.43399355289e-05
3.69184465576e-05
8.68173813151e-05
4.33020433231e-05
1.3905130222e-05
3.63093262159e-05
1.08272416193e-05
4.53891276569e-06
4.09017485885e-06
2.6456726211e-05
2.74433958386e-05
6.18467836089e-05
5.9505068394e-06
9.0764132042e-07
3.77913937706e-05
3.45880981217e-05
3.31013816977e-05
1.48232325078e-06
2.26198117318e-05
3.28386251937e-05
6.58705829555e-05
8.78224973282e-05
3.16169595652e-05
1.91301446733e-06
2.31713297088e-05
1.68540376227e-06
5.56175678896e-06
1.02880757357e-05
4.27961231521e-05
4.98840039301e-05
0.000190144784629
0.000171317825827
0.00015930041231
8.35292360615e-05
2.98873758474e-05
7.34351233553e-06
2.78009280802e-05
3.05910004101e-05
2.97810560006e-05
2.14142231046e-05
4.286273407e-05
4.91200723201e-05
2.97104184902e-05
2.94738700439e-05
4.67024880166e-05
7.73095235845e-05
1.69066915524e-05
1.34883401755e-05
9.50748714686e-08
6.16944784661e-07
1.70769546182e-07
7.02193353111e-07
9.97974428978e-08
1.19135065847e-07
1.72128750045e-06
7.75994381114e-07
1.59469437285e-07
7.54590629588e-07
1.02202869042e-06
1.0436098853e-05
5.28292426048e-06
2.41544494441e-06
8.68444813028e-06
9.05814494874e-07
1.22693495538e-06
2.25267211266e-05
6.44166801281e-07
2.03365278361e-06
8.9964220159e-06
1.98272817921e-05
3.0469062852e-07
1.28911691137e-06
1.19788854702e-06
9.67903828781e-06
5.0600670364e-05
3.10984441164e-05
2.5258001487e-05
1.64870445799e-06
6.97810966801e-07
1.27326278877e-05
8.46197733398e-07
2.06331309856e-06
1.31225041247e-05
1.33771396246e-05
1.04496371275e-05
7.99332628712e-07
1.31433076727e-06
2.57276332353e-07
4.98400773629e-07
2.05943131003e-07
2.49439847226e-05
1.01878315822e-07
1.75188968193e-06
7.46655116431e-06
1.21976555247e-05
3.7042670075e-05
3.83772216384e-07
1.04468753635e-06
2.63309818498e-05
5.21410548039e-06
5.35718418321e-05
3.78836168678e-05
2.40839044276e-06
3.25536350711e-07
7.46564298219e-08
2.38564853884e-07
4.47604225847e-06
5.06628437002e-06
4.48308142511e-07
8.26384487654e-06
1.22219343677e-05
9.06300517979e-06
4.21171889681e-07
9.43573806286e-06
2.39100086968e-06
1.18528532975e-06
2.049028247e-05
2.60478637043e-05
2.06716147679e-05
2.27591268149e-05
3.58527829882e-05
3.45040661864e-05
4.61500861818e-05
3.64938372109e-05
1.9679941816e-05
2.15551578131e-05
1.34200679479e-05
3.22614344489e-07
1.20973897439e-05
8.5177078913e-06
3.34879989218e-05
3.88067958141e-05
2.33550141988e-05
1.80133325287e-05
2.59087083265e-05
2.21075549182e-05
2.0735892368e-05
1.9531463657e-05
4.10286159653e-06
2.05091036507e-07
2.95287073658e-05
6.91896336299e-06
2.34732145356e-05
1.10304460143e-05
2.77543423231e-05
1.56105918988e-05
2.52878750895e-05
2.54367371635e-05
3.18496595729e-07
7.10337509303e-08
1.63580667128e-06
3.2000350491e-07
3.31248293983e-06
3.06178847499e-05
3.30818847813e-07
9.70929840597e-09
2.9922724272e-07
1.1090669554e-05
2.99495884572e-07
6.83439692281e-08
1.63610832018e-06
1.36826242617e-07
1.02070527062e-05
1.65014774993e-08
2.57363797488e-07
1.57817088855e-06

