# vtk DataFile Version 3.0
File Name: Molecule/sphere/sphere_0-s2.vtk
ASCII
DATASET UNSTRUCTURED_GRID
FIELD FieldData 1
TIME 1 1 double
0.0
POINTS 42 double
0.0 0.850650808352 0.525731112119
0.0 0.850650808352 -0.525731112119
-0.850650808352 0.525731112119 0.0
-0.525731112119 0.0 0.850650808352
-0.850650808352 -0.525731112119 0.0
0.850650808352 -0.525731112119 0.0
0.809016994375 -0.309016994375 -0.5
1.0 0.0 0.0
0.809016994375 0.309016994375 -0.5
0.525731112119 0.0 -0.850650808352
0.850650808352 0.525731112119 0.0
0.5 0.809016994375 -0.309016994375
0.309016994375 0.5 -0.809016994375
0.309016994375 -0.5 -0.809016994375
0.0 0.0 -1.0
-0.309016994375 -0.5 -0.809016994375
-0.525731112119 0.0 -0.850650808352
0.525731112119 0.0 0.850650808352
-0.809016994375 -0.309016994375 -0.5
-0.309016994375 0.5 -0.809016994375
-0.5 -0.809016994375 -0.309016994375
-0.309016994375 0.5 0.809016994375
0.309016994375 0.5 0.809016994375
0.0 0.0 1.0
-0.309016994375 -0.5 0.809016994375
0.309016994375 -0.5 0.809016994375
0.0 -0.850650808352 0.525731112119
0.809016994375 -0.309016994375 0.5
0.5 -0.809016994375 0.309016994375
0.0 -0.525731112119 -0.850650808352
0.16062203564 -0.702046444776 -0.69378047756
-0.16062203564 -0.702046444776 -0.69378047756
0.0 -0.850650808352 -0.525731112119
-0.286230563367 -0.950095300354 0.124060408023
-0.259891913008 -0.862668480416 -0.433888564553
0.0 -1.0 0.0
-0.425325404176 -0.688190960236 -0.587785252292
0.259891913008 -0.862668480416 -0.433888564553
0.286230563367 -0.950095300354 0.124060408023
0.5 -0.809016994375 -0.309016994375
0.702046444776 -0.69378047756 -0.16062203564
0.425325404176 -0.688190960236 -0.587785252292

CELLS 80 320
3 0 1 2
3 3 2 4
3 5 6 7
3 6 8 7
3 6 9 8
3 7 8 10
3 10 8 11
3 8 12 11
3 8 9 12
3 11 12 1
3 10 11 0
3 11 1 0
3 9 13 14
3 14 15 16
3 7 10 17
3 16 18 2
3 18 4 2
3 1 19 2
3 19 16 2
3 16 15 18
3 18 20 4
3 9 6 13
3 9 14 12
3 14 19 12
3 14 16 19
3 12 19 1
3 3 21 2
3 0 21 2
3 0 21 22
3 21 23 22
3 21 3 23
3 22 23 17
3 3 24 23
3 24 25 23
3 24 26 25
3 23 25 17
3 17 25 27
3 25 28 27
3 25 26 28
3 27 28 5
3 0 22 10
3 10 22 17
3 26 24 4
3 4 24 3
3 13 29 14
3 29 15 14
3 13 30 29
3 30 31 29
3 30 32 31
3 29 31 15
3 17 27 7
3 5 27 7
3 20 33 4
3 4 33 26
3 20 34 33
3 34 35 33
3 34 32 35
3 33 35 26
3 15 36 18
3 36 20 18
3 15 31 36
3 31 34 36
3 31 32 34
3 36 34 20
3 32 37 35
3 37 38 35
3 37 39 38
3 35 38 26
3 39 40 38
3 40 28 38
3 40 5 28
3 38 28 26
3 39 41 6
3 6 41 13
3 5 40 6
3 6 40 39
3 13 41 30
3 41 37 30
3 41 39 37
3 30 37 32

CELL_TYPES 80
5
5
5
5
5
5
5
5
5
5
5
5
5
5
5
5
5
5
5
5
5
5
5
5
5
5
5
5
5
5
5
5
5
5
5
5
5
5
5
5
5
5
5
5
5
5
5
5
5
5
5
5
5
5
5
5
5
5
5
5
5
5
5
5
5
5
5
5
5
5
5
5
5
5
5
5
5
5
5
5

CELL_DATA 80
SCALARS cell_data_0 double
LOOKUP_TABLE default
6.1185673378e-05
0.000113082889229
1.02257356928e-05
6.87650376715e-06
1.51664503233e-06
7.20178518163e-06
5.06484978815e-06
4.18018766053e-06
2.14216928736e-06
4.50832806239e-06
3.44812781071e-05
1.39855023909e-05
0.000161418181172
3.45085947787e-06
5.48563872003e-05
7.89101577309e-06
9.34937481914e-06
0.000179531090312
0.00015520009439
2.27383229212e-06
9.46795010639e-05
0.000145166349679
6.20272485163e-06
0.000122656939044
0.000111260810625
0.00011441709912
0.000149715209224
5.48050469481e-05
4.94859210429e-05
0.000231364200468
0.00019751830146
0.000184333062404
0.00015276968286
0.000189325672896
6.06553096782e-05
0.000145429184335
5.5004422728e-05
4.50231148449e-05
3.56466680083e-05
1.93957230919e-05
6.84241957403e-05
0.000123642378227
4.38987318168e-05
0.000102129781238
9.03335609002e-05
1.3977266465e-06
3.73797089226e-05
2.539618521e-06
4.58130617863e-05
2.18961630216e-06
3.95033858568e-05
9.40488148827e-06
7.47911791898e-05
5.45354388617e-06
4.30367328953e-05
2.6382420331e-06
6.95404903707e-05
7.86522591648e-07
9.32332437428e-07
5.97457501596e-05
2.49887980518e-06
3.51294460671e-06
4.76731447051e-05
2.78843735088e-05
7.35875004159e-05
1.58658240002e-06
0.000220395418865
6.37969532916e-07
0.000201813637067
5.84508941521e-06
4.31680224546e-06
3.86136832519e-06
0.000259669170864
7.9104528546e-05
1.36190791901e-06
0.000218629148431
3.67575231775e-05
1.6646170816e-06
0.000123785481039
4.35639967052e-05

