# vtk DataFile Version 3.0
File Name: Molecule/sphere/sphere_0-s3.vtk
ASCII
DATASET UNSTRUCTURED_GRID
FIELD FieldData 1
TIME 1 1 double
0.0
POINTS 93 double
0.850650808352 -0.525731112119 0.0
0.809016994375 -0.309016994375 -0.5
1.0 0.0 0.0
0.809016994375 0.309016994375 -0.5
0.850650808352 0.525731112119 0.0
0.5 0.809016994375 -0.309016994375
0.309016994375 0.5 -0.809016994375
0.0 0.850650808352 0.525731112119
0.0 0.850650808352 -0.525731112119
0.309016994375 -0.5 0.809016994375
0.5 -0.809016994375 0.309016994375
0.809016994375 -0.309016994375 0.5
0.0 -0.850650808352 0.525731112119
0.0 -0.525731112119 -0.850650808352
-0.309016994375 -0.5 -0.809016994375
0.0 0.0 -1.0
0.309016994375 -0.5 -0.809016994375
0.16062203564 -0.702046444776 -0.69378047756
-0.16062203564 -0.702046444776 -0.69378047756
0.0 -0.850650808352 -0.525731112119
0.525731112119 0.0 0.850650808352
-0.850650808352 -0.525731112119 0.0
-0.286230563367 -0.950095300354 0.124060408023
-0.5 -0.809016994375 -0.309016994375
-0.259891913008 -0.862668480416 -0.433888564553
0.0 -1.0 0.0
-0.425325404176 -0.688190960236 -0.587785252292
-0.809016994375 -0.309016994375 -0.5
0.259891913008 -0.862668480416 -0.433888564553
0.286230563367 -0.950095300354 0.124060408023
0.702046444776 -0.69378047756 -0.16062203564
-0.5 0.809016994375 -0.309016994375
-0.850650808352 0.525731112119 0.0
-0.525731112119 0.0 0.850650808352
-0.809016994375 0.309016994375 0.5
-0.809016994375 -0.309016994375 0.5
-1.0 0.0 0.0
0.69378047756 -0.16062203564 -0.702046444776
0.525731112119 0.0 -0.850650808352
0.433888564553 0.259891913008 -0.862668480416
0.16062203564 0.702046444776 -0.69378047756
0.433888564553 -0.259891913008 -0.862668480416
0.273266528913 0.0 -0.961938357784
0.162459848116 -0.26286555606 -0.951056516295
-0.525731112119 0.0 -0.850650808352
-0.273266528913 0.0 -0.961938357784
0.809016994375 0.309016994375 0.5
-0.69378047756 -0.16062203564 -0.702046444776
-0.809016994375 0.309016994375 -0.5
-0.950095300354 0.124060408023 -0.286230563367
-0.862668480416 -0.433888564553 -0.259891913008
-0.16062203564 0.702046444776 -0.69378047756
-0.663864736987 0.587191188171 -0.463130780147
-0.309016994375 0.5 -0.809016994375
-0.433888564553 0.259891913008 -0.862668480416
-0.688190960236 -0.587785252292 -0.425325404176
-0.702046444776 -0.69378047756 -0.16062203564
0.587785252292 -0.425325404176 -0.688190960236
0.162459848116 0.26286555606 -0.951056516295
-0.162459848116 0.26286555606 -0.951056516295
0.0 0.525731112119 -0.850650808352
-0.433888564553 0.259891913008 0.862668480416
-0.663864736987 0.587191188171 0.463130780147
-0.309016994375 0.5 0.809016994375
0.0 0.525731112119 0.850650808352
0.309016994375 0.5 0.809016994375
-0.162459848116 0.26286555606 0.951056516295
0.162459848116 0.26286555606 0.951056516295
0.0 0.0 1.0
-0.273266528913 0.0 0.961938357784
0.433888564553 0.259891913008 0.862668480416
0.273266528913 0.0 0.961938357784
-0.433888564553 -0.259891913008 0.862668480416
-0.162459848116 -0.26286555606 0.951056516295
-0.309016994375 -0.5 0.809016994375
0.0 -0.525731112119 0.850650808352
0.162459848116 -0.26286555606 0.951056516295
0.433888564553 -0.259891913008 0.862668480416
0.663864736987 0.587191188171 0.463130780147
-0.663864736987 -0.587191188171 0.463130780147
0.284672260142 -0.944922768973 -0.161501284767
0.383613732685 -0.843911474622 -0.375038567478
0.40617869999 -0.90878424002 -0.0955513933183
0.5 -0.809016994375 -0.309016994375
0.606825149272 -0.758652300163 -0.237086325351
0.515150102266 -0.856888066936 -0.0190581446808
0.468429850867 -0.757935420048 -0.453990499739
0.688190960236 -0.587785252292 -0.425325404176
0.641591214532 -0.518332565981 -0.56541318032
0.425325404176 -0.688190960236 -0.587785252292
0.37174803446 -0.601500955008 -0.707106781186
0.782888506207 -0.519553709322 -0.342271135182
0.346153014789 -0.783451698363 -0.516121620051

CELLS 182 728
3 0 1 2
3 1 3 2
3 2 3 4
3 4 3 5
3 3 6 5
3 4 5 7
3 5 8 7
3 9 10 11
3 9 12 10
3 11 10 0
3 13 14 15
3 16 17 13
3 17 18 13
3 17 19 18
3 13 18 14
3 20 11 2
3 0 11 2
3 21 22 12
3 23 24 22
3 24 25 22
3 24 19 25
3 22 25 12
3 14 26 27
3 14 18 26
3 18 24 26
3 18 19 24
3 26 24 23
3 19 28 25
3 25 29 12
3 30 0 10
3 29 10 12
3 17 28 19
3 8 31 7
3 7 31 32
3 33 34 35
3 34 36 35
3 34 32 36
3 35 36 21
3 1 37 3
3 37 38 3
3 38 39 3
3 3 39 6
3 6 40 5
3 5 40 8
3 38 41 42
3 41 43 42
3 41 16 43
3 42 43 15
3 44 45 14
3 15 45 14
3 4 46 2
3 2 46 20
3 44 47 48
3 47 49 48
3 47 27 49
3 48 49 32
3 27 50 49
3 50 36 49
3 50 21 36
3 49 36 32
3 8 51 31
3 51 52 31
3 51 53 52
3 31 52 32
3 53 54 52
3 54 48 52
3 54 44 48
3 52 48 32
3 27 47 14
3 44 47 14
3 27 55 50
3 55 56 50
3 55 23 56
3 50 56 21
3 38 37 41
3 37 57 41
3 37 1 57
3 41 57 16
3 38 42 39
3 42 58 39
3 42 15 58
3 39 58 6
3 15 59 58
3 59 60 58
3 59 53 60
3 58 60 6
3 15 45 59
3 45 54 59
3 45 44 54
3 59 54 53
3 6 60 40
3 60 51 40
3 60 53 51
3 40 51 8
3 33 61 34
3 61 62 34
3 61 63 62
3 34 62 32
3 63 62 7
3 7 62 32
3 63 64 7
3 7 64 65
3 63 66 64
3 66 67 64
3 66 68 67
3 64 67 65
3 63 61 66
3 61 69 66
3 61 33 69
3 66 69 68
3 65 67 70
3 67 71 70
3 67 68 71
3 70 71 20
3 33 72 69
3 72 73 69
3 72 74 73
3 69 73 68
3 74 75 73
3 75 76 73
3 75 9 76
3 73 76 68
3 9 75 12
3 74 75 12
3 68 76 71
3 76 77 71
3 76 9 77
3 71 77 20
3 20 77 11
3 77 9 11
3 65 78 7
3 7 78 4
3 4 78 46
3 78 70 46
3 78 65 70
3 46 70 20
3 74 79 12
3 12 79 21
3 21 79 35
3 79 72 35
3 79 74 72
3 35 72 33
3 15 43 13
3 16 43 13
3 21 56 22
3 23 56 22
3 23 55 26
3 26 55 27
3 28 80 25
3 80 29 25
3 28 81 80
3 81 82 80
3 81 83 82
3 80 82 29
3 83 84 82
3 84 85 82
3 84 30 85
3 82 85 29
3 29 85 10
3 30 85 10
3 83 86 87
3 86 88 87
3 86 89 88
3 87 88 1
3 1 88 57
3 88 90 57
3 88 89 90
3 57 90 16
3 30 91 0
3 0 91 1
3 1 91 87
3 91 84 87
3 91 30 84
3 87 84 83
3 16 90 17
3 90 89 17
3 89 92 17
3 92 28 17
3 89 86 92
3 86 81 92
3 86 83 81
3 92 81 28

CELL_TYPES 182
5
5
5
5
5
5
5
5
5
5
5
5
5
5
5
5
5
5
5
5
5
5
5
5
5
5
5
5
5
5
5
5
5
5
5
5
5
5
5
5
5
5
5
5
5
5
5
5
5
5
5
5
5
5
5
5
5
5
5
5
5
5
5
5
5
5
5
5
5
5
5
5
5
5
5
5
5
5
5
5
5
5
5
5
5
5
5
5
5
5
5
5
5
5
5
5
5
5
5
5
5
5
5
5
5
5
5
5
5
5
5
5
5
5
5
5
5
5
5
5
5
5
5
5
5
5
5
5
5
5
5
5
5
5
5
5
5
5
5
5
5
5
5
5
5
5
5
5
5
5
5
5
5
5
5
5
5
5
5
5
5
5
5
5
5
5
5
5
5
5
5
5
5
5
5
5
5
5
5
5
5
5

CELL_DATA 182
SCALARS cell_data_0 double
LOOKUP_TABLE default
3.71453604639e-05
2.28102122825e-05
6.77874401308e-06
3.95680397051e-06
2.7602763393e-06
3.45435547173e-05
2.26713980929e-05
4.6418626503e-05
4.25978997176e-05
1.06320353899e-05
2.11312512942e-06
1.88184580211e-06
4.02481662603e-05
3.64613251365e-05
3.41400536469e-05
5.23297609512e-05
5.32508782941e-06
1.18707124058e-05
2.29641134749e-05
2.57155455344e-05
1.17437361449e-05
1.6523218917e-06
7.47545097384e-05
3.11236015302e-05
4.56720815902e-05
4.51146066046e-05
8.25769257019e-06
9.57262957307e-07
8.24910482516e-06
3.38228829191e-06
1.0351873884e-05
1.55365096136e-06
2.38391504602e-05
3.77406229101e-05
3.29755528062e-05
2.1401420726e-05
2.13997407294e-05
1.31319375926e-05
3.09245640702e-05
3.89411060027e-05
2.27671490055e-05
6.01458813209e-07
5.10393998046e-07
2.23844659231e-06
1.53625118155e-05
1.9737864929e-06
4.29755250296e-07
1.60007181954e-06
6.86435679009e-07
3.00863704605e-06
1.25613480931e-05
4.2336204145e-05
2.218098729e-06
6.99225109149e-07
6.03711008884e-05
4.39208132678e-05
5.58105171143e-05
2.18627205231e-06
1.30730714526e-06
3.44617022974e-05
1.06362471775e-06
2.50106559342e-06
1.51136195357e-06
3.40894460834e-05
2.08442432385e-06
1.16735897672e-06
4.35397483581e-08
3.84848844365e-05
6.06710429592e-05
1.98937495227e-06
7.65077536456e-05
3.54989693917e-05
3.7974852963e-05
7.87782095614e-06
2.29537916453e-05
3.91658013999e-05
5.67540021441e-05
2.58073221738e-05
1.41504310323e-05
2.74831504399e-05
2.60867228378e-05
2.41520782832e-05
7.66757033332e-05
0.000227033735403
0.000144370370153
0.000131986859218
2.1732645542e-05
2.39237342525e-05
6.45215376448e-07
2.76172479651e-05
5.71885649334e-05
5.74036186419e-05
6.34492771365e-05
1.22724476748e-06
3.51047650933e-05
0.000170209095502
8.87483535049e-05
0.000178370658872
2.15619181709e-05
0.000313187434794
3.65344288944e-05
2.66994746438e-05
2.81718481417e-05
4.19371436115e-06
8.32893505736e-05
7.17750086719e-06
2.33231895461e-05
1.97234286768e-05
2.92009170607e-05
6.79058459133e-05
8.98671075414e-06
5.46423740761e-06
6.88436379087e-05
2.90889173491e-05
3.25992939558e-05
1.88278868586e-05
2.28528078123e-05
7.16062777885e-05
3.83070823553e-05
4.42371648629e-05
4.03928203442e-05
8.29612225354e-05
4.41168838077e-05
3.37963779125e-05
5.68422276276e-05
4.70024559055e-05
3.00661189448e-05
3.72487905256e-05
3.50369403655e-05
3.59481270221e-05
4.91106462803e-05
3.14272299556e-05
9.1086733861e-06
5.64292487396e-06
2.30883318769e-05
3.57722399175e-05
4.73393586302e-05
2.85922161075e-05
8.26333839172e-06
1.86754005484e-05
3.05003323355e-05
3.56139332619e-05
9.85798366362e-08
1.96522229201e-06
2.12527424118e-05
3.10513365684e-05
3.44966006354e-05
9.72763666645e-05
4.95652593536e-07
1.52773051807e-06
6.79798773104e-08
1.24264863856e-07
4.9196969046e-08
8.40709105463e-07
5.01295788657e-07
6.88712780658e-07
1.57378321613e-06
1.24751734938e-06
5.03862768174e-06
1.91957560269e-06
6.0584625569e-08
8.68231153899e-08
1.81528617176e-07
4.91160273512e-06
2.55931562439e-05
1.44706418274e-05
2.22419412234e-07
1.391411586e-05
2.88619542857e-06
1.62661466813e-05
4.08284226355e-06
2.56474216007e-07
1.02917744282e-07
6.0578122031e-07
1.01418089385e-06
7.38514189726e-07
7.44478126897e-07
6.83546198951e-07
4.28764980802e-08
5.38021784616e-08
1.72843705148e-07
4.36535422006e-08

