# vtk DataFile Version 3.0
File Name: Molecule/sphere/sphere_0-s1.vtk
ASCII
DATASET UNSTRUCTURED_GRID
FIELD FieldData 1
TIME 1 1 double
0.0
POINTS 24 double
0.0 0.850650808352 0.525731112119
0.0 0.850650808352 -0.525731112119
-0.850650808352 0.525731112119 0.0
-0.525731112119 0.0 0.850650808352
0.525731112119 0.0 0.850650808352
0.0 -0.850650808352 0.525731112119
0.850650808352 -0.525731112119 0.0
0.850650808352 0.525731112119 0.0
-0.850650808352 -0.525731112119 0.0
0.809016994375 -0.309016994375 -0.5
1.0 0.0 0.0
0.809016994375 0.309016994375 -0.5
0.525731112119 0.0 -0.850650808352
0.5 0.809016994375 -0.309016994375
0.309016994375 0.5 -0.809016994375
0.309016994375 -0.5 -0.809016994375
0.0 0.0 -1.0
-0.309016994375 -0.5 -0.809016994375
0.0 -0.850650808352 -0.525731112119
-0.525731112119 0.0 -0.850650808352
-0.809016994375 -0.309016994375 -0.5
-0.309016994375 0.5 -0.809016994375
-0.5 -0.809016994375 -0.309016994375
0.5 -0.809016994375 -0.309016994375

CELLS 44 176
3 0 1 2
3 0 2 3
3 0 3 4
3 3 5 4
3 4 5 6
3 7 0 4
3 8 5 3
3 3 2 8
3 6 9 10
3 9 11 10
3 9 12 11
3 10 11 7
3 7 11 13
3 11 14 13
3 11 12 14
3 13 14 1
3 7 13 0
3 13 1 0
3 12 15 16
3 15 17 16
3 15 18 17
3 16 17 19
3 6 10 4
3 10 7 4
3 19 20 2
3 20 8 2
3 1 21 2
3 21 19 2
3 8 22 5
3 22 18 5
3 19 17 20
3 17 22 20
3 17 18 22
3 20 22 8
3 18 23 5
3 23 6 5
3 12 9 15
3 9 23 15
3 9 6 23
3 15 23 18
3 12 16 14
3 16 21 14
3 16 19 21
3 14 21 1

CELL_TYPES 44
5
5
5
5
5
5
5
5
5
5
5
5
5
5
5
5
5
5
5
5
5
5
5
5
5
5
5
5
5
5
5
5
5
5
5
5
5
5
5
5
5
5
5
5

CELL_DATA 44
SCALARS cell_data_0 double
LOOKUP_TABLE default
4.79121111343e-05
0.000258201365218
0.00109121385652
0.000903528257045
0.000377770886677
0.000185126416657
7.15330950381e-05
5.24688843181e-05
5.53567867914e-06
2.58447733367e-06
2.18772152431e-06
2.35562414306e-06
1.9363064722e-06
2.82373046678e-06
2.99027304568e-06
1.40518888505e-06
5.28595344202e-06
1.02934893592e-05
5.2654113409e-06
2.45374412528e-07
0.000362653758672
4.40809189359e-06
0.00032008103585
0.000317373704652
3.75376080368e-07
9.28581580257e-06
3.3009180992e-06
2.45012221777e-06
1.4616760066e-05
0.000768308345745
1.33383244734e-06
3.89491819782e-06
0.000374363819844
3.79651514222e-07
0.000769216613164
5.11802090898e-06
3.305662881e-06
9.41077763247e-07
3.52702228255e-06
0.000367488753715
4.09189903207e-06
8.213782005e-07
3.17834373414e-06
3.36121257766e-08

