# vtk DataFile Version 3.0
File Name: Molecule/sphere_cent/sphere_cent_0-s1.vtk
ASCII
DATASET UNSTRUCTURED_GRID
FIELD FieldData 1
TIME 1 1 double
0.0
POINTS 42 double
0.85065078735 -0.52573108673 0.0
0.80892920494 -0.30898347497 -0.49994572997
0.99989145994 -9.9714245749e-09 4.1670162432e-07
0.8089287281 0.30898413062 -0.49994593859
0.52573108673 0.0 -0.85065078735
0.85065078735 0.52573114634 0.0
0.49994558096 0.80892938375 -0.30898311734
0.30898275971 0.49994543195 -0.80892956257
0.0 0.85065078735 -0.52573114634
0.49994587898 0.80892896652 0.3089838028
-8.3899965375e-07 0.99989140034 3.8027305749e-09
2.2204460493e-16 0.85065078735 0.52573108673
-0.49994584918 0.80892896652 0.3089838028
-0.49994596839 0.8089287281 -0.30898413062
-0.85065078735 0.52573114634 0.0
-0.30898311734 0.49994561076 0.80892938375
-0.80892956257 0.30898275971 0.49994543195
-0.52573108673 5.5511151231e-17 0.85065078735
0.30898344517 0.49994570017 0.80892914534
-1.689826945e-09 -8.4459253458e-07 0.99989140034
0.52573108673 2.7755575616e-17 0.85065078735
-0.3089838028 -0.49994584918 0.80892896652
0.30898413062 -0.49994596839 0.8089287281
0.0 -0.85065078735 0.52573108673
0.80892914534 -0.30898344517 0.49994570017
0.49994546175 -0.80892956257 0.30898275971
0.30898311734 -0.49994558096 -0.80892938375
1.0897897695e-08 -8.694914122e-09 -0.99989140034
-0.30898413062 -0.49994593859 -0.8089287281
2.2204460493e-16 -0.85065078735 -0.52573108673
-0.52573114634 0.0 -0.85065078735
0.80892908573 0.30898341537 0.49994564056
-0.80892938375 -0.30898308754 -0.49994558096
-0.80892914534 0.30898344517 -0.49994570017
-0.99989134073 8.5710043507e-09 4.1315800559e-07
-0.85065078735 -0.52573108673 4.4408920985e-16
-0.30898344517 0.49994564056 -0.80892908573
-0.49994546175 -0.80892956257 -0.30898275971
-0.49994570017 -0.80892914534 0.30898344517
4.2515640075e-07 -0.99989134073 4.2034709047e-09
-0.80892908573 -0.30898344517 0.49994567037
0.49994564056 -0.80892908573 -0.30898344517

CELLS 80 320
3 0 1 2
3 1 3 2
3 1 4 3
3 2 3 5
3 5 3 6
3 3 7 6
3 3 4 7
3 6 7 8
3 5 6 9
3 6 10 9
3 6 8 10
3 9 10 11
3 11 10 12
3 10 13 12
3 10 8 13
3 12 13 14
3 11 12 15
3 12 16 15
3 12 14 16
3 15 16 17
3 11 15 18
3 15 19 18
3 15 17 19
3 18 19 20
3 17 21 19
3 21 22 19
3 21 23 22
3 19 22 20
3 20 22 24
3 22 25 24
3 22 23 25
3 24 25 0
3 4 26 27
3 26 28 27
3 26 29 28
3 27 28 30
3 0 2 24
3 2 31 24
3 2 5 31
3 24 31 20
3 5 9 31
3 9 18 31
3 9 11 18
3 31 18 20
3 30 32 33
3 32 34 33
3 32 35 34
3 33 34 14
3 8 36 13
3 36 33 13
3 36 30 33
3 13 33 14
3 35 37 38
3 37 39 38
3 37 29 39
3 38 39 23
3 35 38 40
3 38 21 40
3 38 23 21
3 40 21 17
3 17 16 40
3 16 34 40
3 16 14 34
3 40 34 35
3 30 28 32
3 28 37 32
3 28 29 37
3 32 37 35
3 29 41 39
3 41 25 39
3 41 0 25
3 39 25 23
3 4 1 26
3 1 41 26
3 1 0 41
3 26 41 29
3 4 27 7
3 27 36 7
3 27 30 36
3 7 36 8

CELL_TYPES 80
5
5
5
5
5
5
5
5
5
5
5
5
5
5
5
5
5
5
5
5
5
5
5
5
5
5
5
5
5
5
5
5
5
5
5
5
5
5
5
5
5
5
5
5
5
5
5
5
5
5
5
5
5
5
5
5
5
5
5
5
5
5
5
5
5
5
5
5
5
5
5
5
5
5
5
5
5
5
5
5

CELL_DATA 80
SCALARS cell_data_0 double
LOOKUP_TABLE default
3.90232791493e-07
2.58012729688e-06
3.90226216578e-07
8.33730615505e-07
8.33698324535e-07
2.58010886259e-06
3.90226114629e-07
1.66695443789e-06
8.33691924016e-07
2.58010689258e-06
1.66696918083e-06
3.90209355029e-07
1.66696744825e-06
2.58010802998e-06
3.90237656938e-07
3.9022763084e-07
1.66697682433e-06
1.14009611025e-06
1.66697465522e-06
3.90208440877e-07
3.90244433554e-07
2.58010044082e-06
3.90216627299e-07
8.33725387956e-07
3.90225207395e-07
1.14010344499e-06
3.90221285765e-07
3.90224037962e-07
3.90231253188e-07
1.14007343234e-06
3.90234527837e-07
3.90224386614e-07
8.33699786172e-07
3.95742046736e-06
3.9024303931e-07
3.90224605503e-07
3.90233814547e-07
1.14008251913e-06
3.90220457963e-07
3.90218148073e-07
8.33705291477e-07
3.95739188523e-06
8.33699285499e-07
8.33720226949e-07
1.66698302949e-06
2.58008488528e-06
3.90229300225e-07
3.90228587882e-07
3.90233996452e-07
2.58006124824e-06
1.66696788491e-06
3.90248673573e-07
1.66698655641e-06
1.14007556479e-06
1.66698557138e-06
3.90208198197e-07
1.66696696454e-06
1.1400671532e-06
3.90233380895e-07
3.90230802249e-07
3.9021444498e-07
2.58006317769e-06
3.902453178e-07
3.90239358358e-07
1.66697975612e-06
1.14009515975e-06
1.66698798221e-06
1.66696639694e-06
1.6669710276e-06
1.1400543494e-06
3.90229518486e-07
3.90242474202e-07
3.90235881829e-07
2.58009514784e-06
3.90230346679e-07
3.90239754659e-07
3.90232994268e-07
2.58007629031e-06
3.90212201037e-07
1.66696744145e-06

