# vtk DataFile Version 3.0
File Name: Molecule/sphere_cent/sphere_cent_0-s11.vtk
ASCII
DATASET UNSTRUCTURED_GRID
FIELD FieldData 1
TIME 1 1 double
0.0
POINTS 146 double
0.85613596439 -0.51188409328 -0.051669113338
0.94690418243 -0.19207693636 -0.24919953942
0.99436175823 -0.028593918309 0.087676562369
0.3574026823 -0.51228064299 -0.78053015471
0.0083718989044 -0.53062212467 -0.84755766392
0.16868674755 -0.26146772504 -0.9503364563
-0.16360899806 -0.25331872702 -0.95344078541
-0.32671388984 -0.50598448515 -0.79812186956
0.011383445933 0.043729007244 -0.99883913994
-0.028199937195 -0.85448300838 -0.51692658663
-0.54998576641 -0.034537568688 -0.83295625448
0.48638385534 0.83445668221 0.25741043687
0.42273685336 0.69095367193 0.58636003733
0.6899484992 0.58964455128 0.41982078552
0.58861249685 0.42486637831 0.68771982193
0.2704077661 0.48690572381 0.83025616407
0.83849012852 0.27491047978 0.46972280741
0.7947062254 0.32844483852 -0.50659489632
0.68115967512 0.60126584768 -0.41665863991
0.88769388199 0.25920644403 -0.37308758497
0.57470911741 0.42679786682 -0.69755989313
0.41734683514 0.69402492046 -0.58654034138
0.26619082689 0.48155063391 -0.83452737331
0.47681152821 0.84045368433 -0.25496456027
0.54854780436 0.0087434863672 -0.83312529325
0.82441431284 0.15651668608 -0.53859436512
-0.32605701685 -0.49241030216 0.80694848299
-0.1670589298 -0.25816965103 0.95056825876
-0.56112718582 -0.2374355197 0.79159331322
-0.51725327969 0.0051444577985 0.85481965542
-0.014439897612 0.030910691246 0.99905252457
-0.0022669918835 -0.53146922588 0.84700673819
0.16024267673 -0.26409682631 0.95103484392
0.32311543822 -0.5195299387 0.79074597359
0.08719895035 -0.83168667555 0.54694098234
-0.80608445406 0.31316068769 0.5018824935
-0.85310041904 -0.002004414564 0.52178889513
-0.95259547234 0.15774331987 0.26029503345
-0.95223587751 -0.15958146751 0.26054665446
-0.99965310097 0.00037678523222 -0.019198169932
-0.80899518728 -0.3143722713 0.49406126142
-0.85088294744 0.52533793449 -0.0008303928189
-0.85132604837 -0.52463978529 -2.5840119633e-05
-0.036208488047 0.8587616086 0.5078138113
-0.24939474463 0.95593500137 0.15455795825
-0.497695297 0.81076198816 0.30777069926
0.045211680233 0.99872165918 -0.010161967017
-0.25329449773 0.95394772291 -0.16038939357
-0.52069079876 0.85378420353 -0.0049757105298
-0.50382840633 0.80276989937 -0.31866198778
-0.027037810534 0.86115276814 -0.50348556042
-0.41685172915 0.6836797595 0.59895420074
-0.67991012335 0.59141725302 0.4336643219
-0.57712703943 0.43296542764 0.69244468212
-0.29275342822 0.4822974503 0.82516980171
0.27141469717 -0.94727957249 -0.16996750236
-0.0065090954304 -0.99952495098 -0.018808368593
0.52410584688 -0.85043036938 0.012838246301
0.25897425413 -0.95173102617 0.1647503227
0.49598616362 -0.8028755784 0.33039942384
-0.50425946712 -0.80576503277 -0.3101760745
-0.52382457256 -0.85183805227 -0.0035790828988
-0.51021456718 -0.80648612976 0.29820090532
-0.27464872599 -0.94822871685 -0.15962272882
-0.27936881781 -0.94879841805 0.14749446511
-0.24852396548 -0.86445099115 0.43688470125
-0.029722565785 -0.96205157042 0.27127596736
-0.68083703518 -0.59338247776 0.42921194434
-0.44425836205 -0.68482375145 0.57759547234
-0.57728737593 -0.45424136519 0.67653405666
-0.18816237152 -0.71153324842 0.67697197199
-0.81040966511 -0.30726832151 -0.49859660864
-0.85228514671 -0.0017016901402 -0.52309441566
-0.94737458229 -0.15505865216 -0.28014618158
-0.94707101583 0.15587569773 -0.28074878454
-0.81131124496 0.30599099398 -0.49594634771
-0.42671525478 0.67680168152 -0.59982913733
-0.29909241199 0.50207155943 -0.81142663956
-0.5704100132 0.43447446823 -0.69509363174
-0.68613439798 0.58025807142 -0.43882015347
-0.6022413373 -0.43458926678 -0.66970920563
-0.44820100069 -0.68288910389 -0.57689207792
-0.68966758251 -0.58390170336 -0.42823565006
0.51901686192 0.0049690511078 0.85471713543
0.45324862003 -0.26007607579 0.85252410173
0.68960338831 -0.15816920996 0.70670175552
0.59704327583 -0.43562325835 0.6735149622
0.78787076473 -0.32599061728 0.52239125967
0.45389661193 -0.67284017801 0.58416563272
0.68744373322 -0.57560759783 0.44281002879
0.87724971771 -0.3989546299 0.265632689
0.71594983339 -0.67123734951 0.19130945206
0.87310278416 -0.047876507044 0.48443484306
0.70605373383 0.13397726417 0.69532877207
-0.26834833622 0.047283366323 -0.96222889423
-0.14916273952 0.28943404555 -0.94548392296
-0.40600866079 0.25787177682 -0.87681031227
0.41052728891 0.25237500668 0.87606501579
0.26948255301 0.022848792374 0.96263462305
-0.13363614678 0.68262213469 0.71848762035
0.13364389539 0.69719570875 0.70394128561
-0.0077737336978 0.49955824018 0.86621910334
-0.14246103168 0.27870193124 0.94963783026
0.13031159341 0.27602139115 0.95222783089
-0.016976486892 0.51432216167 -0.85734724998
0.13065175712 0.69601678848 -0.70557051897
-0.1398204565 0.69019854069 -0.71004921198
0.24550548196 0.87869262695 0.40886551142
0.24449430406 0.88272243738 -0.40044882894
0.13720938563 0.27765849233 -0.9508074522
0.27486687899 0.95269060135 0.12970082462
0.04175767675 0.96506845951 0.25884312391
0.45546409488 -0.6731069684 -0.58266997337
0.20132996142 -0.71375113726 -0.67101287842
0.27802991867 -0.84080165625 -0.46472159028
0.52884310484 -0.77176290751 -0.35243186355
0.28408890963 0.026793822646 -0.95815038681
0.39508193731 0.24862994254 -0.88447904587
0.46345821023 -0.26475185156 -0.84538555145
0.85241699219 0.51744246483 -0.026915565133
0.68215799332 0.72051644325 -0.12555758655
0.69725185633 0.70435619354 0.13126429915
0.49475580454 0.86902159452 -0.00042089098133
0.27381160855 0.95230019093 -0.13477599621
0.037542819977 0.96384209394 -0.26403459907
0.96246522665 0.26636010408 0.051787991077
0.94870448112 0.14755965769 0.27993103862
0.8749126792 0.42096012831 0.23821693659
0.67298448086 -0.20857636631 -0.70968538523
0.58257681131 -0.45336508751 -0.67455470562
0.76780807972 -0.37914580107 -0.51619064808
0.8393651247 -0.032206766307 -0.5398234129
0.95825028419 0.16202384233 -0.22849194705
0.66956412792 -0.59502249956 -0.44435691833
0.8319426775 -0.47016936541 -0.29459631443
0.71619433165 -0.66434258223 -0.21254199743
0.91188234091 -0.097710646689 -0.39830598235
0.91634559631 0.070944398642 -0.39404112101
0.96639668941 -0.010213109665 -0.25610417128
-0.69612777233 -0.16708514094 0.69833934307
0.54637491703 -0.81981879473 -0.17144465446
0.70747071505 -0.70617753267 -0.029817771167
-0.70402097702 -0.3773124814 0.60140997171
-0.70874106884 0.15047056973 -0.68916893005
-0.70354408026 0.36517432332 -0.60952222347
-0.5836019516 0.21263971925 -0.78390812874

CELLS 288 1152
3 0 1 2
3 3 4 5
3 4 6 5
3 4 7 6
3 5 6 8
3 7 4 9
3 6 7 10
3 11 12 13
3 12 14 13
3 12 15 14
3 13 14 16
3 17 18 19
3 17 20 18
3 20 21 18
3 20 22 21
3 18 21 23
3 24 20 25
3 26 27 28
3 29 27 30
3 26 31 27
3 31 32 27
3 31 33 32
3 27 32 30
3 33 31 34
3 35 36 29
3 35 37 36
3 37 38 36
3 37 39 38
3 36 38 40
3 39 37 41
3 41 37 35
3 40 38 42
3 38 39 42
3 43 44 45
3 46 47 44
3 47 48 44
3 47 49 48
3 44 48 45
3 49 47 50
3 45 48 41
3 48 49 41
3 45 51 43
3 45 52 51
3 52 53 51
3 52 35 53
3 51 53 54
3 35 52 41
3 41 52 45
3 54 53 29
3 53 35 29
3 9 55 56
3 57 58 55
3 57 59 58
3 55 58 56
3 58 59 34
3 60 61 42
3 42 61 62
3 60 63 61
3 63 64 61
3 63 56 64
3 61 64 62
3 56 63 9
3 9 63 60
3 62 64 65
3 64 66 65
3 64 56 66
3 65 66 34
3 62 67 42
3 42 67 40
3 62 68 67
3 68 69 67
3 68 26 69
3 62 65 68
3 65 70 68
3 65 34 70
3 68 70 26
3 26 70 31
3 31 70 34
3 34 66 58
3 58 66 56
3 71 72 10
3 71 73 72
3 73 74 72
3 73 39 74
3 72 74 75
3 39 73 42
3 42 73 71
3 75 74 41
3 74 39 41
3 50 76 49
3 77 78 76
3 78 79 76
3 76 79 49
3 49 79 41
3 79 75 41
3 7 80 10
3 10 80 71
3 7 81 80
3 81 82 80
3 81 60 82
3 80 82 71
3 60 81 9
3 9 81 7
3 71 82 42
3 82 60 42
3 83 84 85
3 84 86 85
3 84 33 86
3 85 86 87
3 33 88 86
3 88 89 86
3 88 59 89
3 86 89 87
3 59 88 34
3 34 88 33
3 87 89 90
3 89 91 90
3 89 59 91
3 90 91 0
3 87 90 92
3 2 90 0
3 2 92 90
3 87 92 85
3 92 93 85
3 92 16 93
3 85 93 83
3 8 94 95
3 94 96 95
3 94 10 96
3 95 96 77
3 10 94 6
3 6 94 8
3 83 93 97
3 14 93 16
3 33 84 32
3 32 84 98
3 57 91 59
3 77 96 78
3 43 99 100
3 99 101 100
3 99 54 101
3 100 101 15
3 54 102 101
3 102 103 101
3 102 30 103
3 101 103 15
3 30 102 29
3 29 102 54
3 15 103 97
3 103 98 97
3 103 30 98
3 97 98 83
3 22 104 105
3 104 106 105
3 104 77 106
3 105 106 50
3 43 100 107
3 12 100 15
3 15 97 14
3 14 97 93
3 22 105 21
3 21 105 108
3 83 98 84
3 32 98 30
3 54 99 51
3 51 99 43
3 50 106 76
3 76 106 77
3 77 104 95
3 95 104 109
3 11 110 107
3 110 111 107
3 110 46 111
3 107 111 43
3 3 112 113
3 112 114 113
3 112 115 114
3 113 114 9
3 24 116 117
3 116 109 117
3 116 8 109
3 117 109 22
3 8 116 5
3 5 116 118
3 3 113 4
3 4 113 9
3 11 107 12
3 12 107 100
3 24 117 20
3 20 117 22
3 43 111 44
3 44 111 46
3 9 114 55
3 55 114 115
3 22 109 104
3 95 109 8
3 119 120 121
3 120 122 121
3 120 23 122
3 121 122 11
3 23 108 123
3 108 124 123
3 108 50 124
3 123 124 46
3 2 125 126
3 125 127 126
3 125 119 127
3 126 127 16
3 24 128 118
3 128 129 118
3 128 130 129
3 118 129 3
3 130 128 131
3 131 128 24
3 119 125 132
3 132 125 2
3 24 118 116
3 5 118 3
3 119 121 127
3 13 121 11
3 16 127 13
3 13 127 121
3 23 120 18
3 18 120 119
3 50 108 105
3 21 108 23
3 46 124 47
3 47 124 50
3 2 126 92
3 92 126 16
3 23 123 122
3 110 123 46
3 11 122 110
3 110 122 123
3 3 129 112
3 112 129 133
3 130 134 133
3 134 135 133
3 134 0 135
3 133 135 115
3 0 134 1
3 1 134 130
3 131 136 130
3 130 136 1
3 131 137 136
3 137 138 136
3 137 132 138
3 136 138 1
3 131 25 137
3 25 19 137
3 25 17 19
3 137 19 132
3 1 138 2
3 138 132 2
3 17 25 20
3 25 131 24
3 132 19 119
3 119 19 18
3 40 139 36
3 36 139 29
3 115 140 55
3 140 57 55
3 0 141 135
3 141 140 135
3 141 57 140
3 135 140 115
3 69 142 67
3 67 142 40
3 40 142 139
3 142 28 139
3 142 69 28
3 139 28 29
3 29 28 27
3 26 28 69
3 75 143 72
3 72 143 10
3 78 144 79
3 144 75 79
3 75 144 143
3 144 145 143
3 144 78 145
3 143 145 10
3 57 141 91
3 91 141 0
3 10 145 96
3 96 145 78
3 130 133 129
3 112 133 115

CELL_TYPES 288
5
5
5
5
5
5
5
5
5
5
5
5
5
5
5
5
5
5
5
5
5
5
5
5
5
5
5
5
5
5
5
5
5
5
5
5
5
5
5
5
5
5
5
5
5
5
5
5
5
5
5
5
5
5
5
5
5
5
5
5
5
5
5
5
5
5
5
5
5
5
5
5
5
5
5
5
5
5
5
5
5
5
5
5
5
5
5
5
5
5
5
5
5
5
5
5
5
5
5
5
5
5
5
5
5
5
5
5
5
5
5
5
5
5
5
5
5
5
5
5
5
5
5
5
5
5
5
5
5
5
5
5
5
5
5
5
5
5
5
5
5
5
5
5
5
5
5
5
5
5
5
5
5
5
5
5
5
5
5
5
5
5
5
5
5
5
5
5
5
5
5
5
5
5
5
5
5
5
5
5
5
5
5
5
5
5
5
5
5
5
5
5
5
5
5
5
5
5
5
5
5
5
5
5
5
5
5
5
5
5
5
5
5
5
5
5
5
5
5
5
5
5
5
5
5
5
5
5
5
5
5
5
5
5
5
5
5
5
5
5
5
5
5
5
5
5
5
5
5
5
5
5
5
5
5
5
5
5
5
5
5
5
5
5
5
5
5
5
5
5
5
5
5
5
5
5
5
5
5
5
5
5
5
5
5
5
5
5

CELL_DATA 288
SCALARS cell_data_0 double
LOOKUP_TABLE default
7.44946695681e-07
8.28386529462e-07
3.12298314922e-07
2.88533710728e-07
3.14474722609e-07
2.10725021291e-06
1.76493749868e-06
4.57904932777e-07
6.61470397634e-07
4.86219593365e-07
1.83774795884e-08
2.01075437627e-07
2.97812246134e-08
1.15078980562e-07
3.13934816829e-07
3.25212853067e-07
1.96568562319e-06
4.94061394015e-07
1.09041576584e-06
4.74099012178e-07
3.30386346891e-07
2.5683385449e-07
6.06083634544e-07
7.60716507008e-07
2.19383546858e-06
3.41575263684e-07
1.92757598935e-07
7.95800166599e-07
4.46974411924e-07
2.89648035189e-07
8.23347212817e-07
4.45314465541e-07
3.17755827077e-07
6.05055145451e-07
3.11282376557e-07
3.79421483167e-07
6.03015634516e-07
9.05160585619e-07
8.14531249471e-07
2.78488239854e-07
3.11571964906e-07
1.03382303461e-06
4.08757196806e-07
1.43109256484e-07
1.69485351307e-07
1.14202384308e-07
1.06664799042e-06
6.96149749451e-07
1.6720627102e-06
1.94706395937e-06
1.6994682714e-06
3.23921284245e-07
6.27858368715e-08
1.45176114136e-07
1.13089459745e-06
1.14235692302e-06
9.85024804078e-07
1.64508739736e-07
1.80408785625e-07
5.62707750501e-07
3.77264913656e-07
1.15396174046e-06
1.63369545624e-06
2.26083212948e-07
2.90094426394e-07
5.36340612587e-07
9.82568844696e-08
9.17575281329e-07
8.33137277936e-07
3.80660487908e-07
2.88000738015e-07
4.802054868e-07
1.73080352698e-07
2.58772813514e-07
9.74031281334e-08
4.54999805421e-07
3.7183002663e-07
8.65230450512e-09
2.03676330634e-07
2.44320948943e-07
1.24394860061e-06
4.88790753966e-07
4.38625642131e-08
6.04012493143e-07
4.9755222314e-07
5.72756073463e-07
8.21350788682e-07
3.10371876871e-07
4.54911991542e-07
1.0080370237e-06
3.63050399944e-08
2.08358427392e-07
3.85428202691e-07
7.10584136698e-07
4.82904838754e-07
1.26252005678e-06
9.80719268722e-07
3.64817259355e-07
5.95553841742e-09
2.2032435989e-07
4.24348950652e-07
1.61683614928e-06
1.66245110501e-06
9.22824946362e-07
1.15904265419e-06
1.02220610543e-07
1.26094348129e-07
8.19250926323e-08
1.9216088666e-07
2.70532323691e-07
9.7423417029e-08
1.88907501794e-07
1.11180127532e-07
2.4223820266e-07
1.60006145914e-07
2.76589535382e-07
5.35772360692e-08
3.20747641715e-09
6.12071705368e-08
2.70561907215e-08
1.41502269284e-06
1.53031919407e-06
1.37247314668e-07
1.89340884769e-07
2.4526057883e-07
1.80624258268e-07
1.46840708481e-07
1.07968761459e-07
7.91450933289e-08
3.61612150878e-08
3.23878514537e-07
2.38142672e-07
3.64827654105e-08
2.38255513031e-07
4.86651721659e-08
1.29380965078e-07
5.13827427222e-08
4.72401070039e-08
1.42222460472e-07
7.68056190536e-08
6.89291257114e-09
7.16444813388e-09
2.65321443778e-07
1.14566756113e-08
4.43503523878e-07
6.36911088325e-08
9.93834431003e-07
1.36325615952e-06
3.69174920004e-09
1.072306933e-07
2.19911638218e-07
1.90396421354e-07
1.77922047575e-08
1.55308889197e-08
5.0359668529e-08
4.04204836493e-07
1.38552812649e-07
2.48643026363e-07
3.11216726995e-07
1.15393882482e-07
5.44582143458e-08
2.83085619641e-07
4.80453035244e-08
3.96022041267e-07
5.37496552372e-09
2.30261955954e-07
4.17106921998e-08
1.18423432573e-07
1.2399648061e-07
2.53114063685e-07
2.34582967447e-07
6.68574130501e-08
1.63020983053e-07
1.41900638809e-07
4.73895241797e-07
7.28249335741e-08
5.4051619407e-07
1.56630461461e-09
3.76336509257e-07
4.87039911064e-09
1.29630213132e-07
7.86035028599e-08
4.10591955983e-07
1.77734583534e-10
4.80237645526e-07
5.72534526696e-07
1.65872187245e-07
2.33544450637e-08
1.10467559425e-07
1.00071682377e-08
6.78269948895e-08
3.17865952593e-07
6.78636008299e-07
3.72051172474e-07
1.28916757099e-07
8.3453932072e-09
3.7703177217e-07
2.21085041311e-07
6.687541289e-08
2.79617987984e-08
7.76298386118e-08
1.44887168999e-08
3.90821163206e-07
1.97466155827e-07
5.11036079592e-08
1.87763707101e-07
9.1979368286e-08
1.07790331337e-07
3.07343510006e-07
2.6824558396e-08
1.63618758575e-07
4.67392790595e-07
2.95585495959e-07
3.22613934038e-07
4.26987782478e-07
2.16743147748e-07
9.11302027602e-09
7.61078292273e-07
2.5129194108e-08
7.80713144229e-08
2.69702482685e-07
7.98124455476e-08
1.28347418518e-08
3.25017831505e-07
5.14886363606e-08
1.07404322603e-07
1.69355895626e-07
1.05047162867e-07
2.74128485814e-07
1.22900381759e-07
1.1058885855e-08
1.76424036662e-07
1.94984379302e-07
6.23085723045e-08
5.1635169318e-07
2.34713902079e-08
3.70799421367e-07
2.88624403966e-07
3.00844761646e-07
7.12363948374e-07
7.01155564062e-07
6.4822629278e-07
2.08233147981e-07
4.22140165945e-07
2.56751905052e-07
6.60529551875e-08
1.37835762898e-07
4.40161206708e-07
2.41854728903e-07
1.57266697109e-07
3.48421382995e-08
2.08424144591e-08
4.94871290374e-07
9.04974160305e-08
4.84132129319e-08
9.44538774344e-08
9.12370938973e-07
2.84355296424e-06
5.64391030497e-08
4.80040445899e-07
2.37663611413e-07
1.03654035489e-07
1.65961584701e-07
5.28939513326e-09
2.04912381035e-08
4.5194711673e-07
8.54581267344e-08
2.75364904536e-07
9.15888736009e-08
1.79441433277e-07
2.96390706337e-08
1.06578488195e-07
7.67020441415e-07
3.89098498956e-08
2.69639246704e-07
2.56426129094e-07
5.04840970531e-08
3.26640297478e-07
1.65171051537e-07
1.28307056133e-07
7.34908139791e-08
5.87162632511e-08
7.61088055805e-08
7.24414896599e-08
2.31961764244e-08
1.75302544575e-08
1.88951194184e-07
6.8575008187e-07

