# vtk DataFile Version 3.0
File Name: Molecule/sphere_cent/sphere_cent_0-s0.vtk
ASCII
DATASET UNSTRUCTURED_GRID
FIELD FieldData 1
TIME 1 1 double
0.0
POINTS 12 double
0.850650808352 -0.525731112119 0.0
0.525731112119 0.0 -0.850650808352
0.850650808352 0.525731112119 0.0
0.0 0.850650808352 -0.525731112119
0.0 0.850650808352 0.525731112119
-0.850650808352 0.525731112119 0.0
-0.525731112119 0.0 0.850650808352
0.525731112119 0.0 0.850650808352
0.0 -0.850650808352 0.525731112119
0.0 -0.850650808352 -0.525731112119
-0.525731112119 0.0 -0.850650808352
-0.850650808352 -0.525731112119 0.0

CELLS 20 80
3 0 1 2
3 2 1 3
3 2 3 4
3 4 3 5
3 4 5 6
3 4 6 7
3 6 8 7
3 7 8 0
3 1 9 10
3 0 2 7
3 2 4 7
3 10 11 5
3 3 10 5
3 11 9 8
3 11 8 6
3 6 5 11
3 10 9 11
3 9 0 8
3 1 0 9
3 1 10 3

CELL_TYPES 20
5
5
5
5
5
5
5
5
5
5
5
5
5
5
5
5
5
5
5
5

CELL_DATA 20
SCALARS cell_data_0 double
LOOKUP_TABLE default
1.2490154527e-11
6.07270483899e-12
1.07155456383e-11
4.40399296892e-11
3.10069663088e-11
1.32330114748e-11
1.66375717457e-11
1.00216315281e-11
1.02374489094e-13
1.32790720694e-11
1.37972923017e-12
8.29279093312e-12
3.44094978205e-11
3.51524484434e-11
3.065857789e-11
5.91634163535e-13
1.4912297959e-11
1.54531905935e-11
2.370858284e-12
1.74244611795e-11

