# vtk DataFile Version 3.0
File Name: Molecule/sphere_cent/sphere_cent_0-s7.vtk
ASCII
DATASET UNSTRUCTURED_GRID
FIELD FieldData 1
TIME 1 1 double
0.0
POINTS 99 double
0.85057997704 0.52563023567 0.00039220467443
0.47778859735 0.83992040157 -0.25482809544
0.47464156151 0.84316551685 0.2498935163
0.052546046674 0.99811768532 -1.2560587493e-05
8.1348000094e-05 0.85079669952 -0.52535623312
0.00061868195189 0.85043495893 0.52589035034
-0.26509431005 0.48145696521 0.83471572399
0.24757018685 0.47579571605 0.84348350763
-0.0032372383866 0.062994994223 0.99761229753
-0.52587461472 -0.00050222582649 0.85052722692
0.51213747263 0.011025971733 0.85662221909
0.99629479647 -0.002639221726 0.074258513749
0.84080642462 0.25984221697 0.4716616869
0.5254805088 -0.00027933277306 -0.85066640377
0.76929551363 -0.36815494299 -0.52124887705
0.36512228847 -0.52332502604 -0.76934093237
0.51404035091 -0.78164976835 -0.35159119964
0.85048794746 -0.52328300476 -0.017345746979
-0.00031687718001 -0.85032743216 -0.52614790201
0.010108234361 0.064846031368 -0.99605280161
0.25397953391 0.47957575321 -0.83845716715
-0.28686541319 0.50343513489 -0.81238353252
0.95079046488 -0.16705459356 -0.26037248969
0.85044646263 -0.0088514871895 -0.5259155035
0.95361322165 0.1582095325 -0.25575178862
0.80525678396 0.31478556991 -0.50211024284
0.16591025889 -0.26118779182 -0.95081394911
0.0018987786025 -0.5282497406 -0.84906733036
-0.16423813999 -0.25976258516 -0.95151203871
-0.34138280153 -0.5118111372 -0.78811186552
-0.53162813187 -0.007350099273 -0.84505558014
0.68988788128 0.58797729015 0.42206767201
0.42184299231 0.690069139 0.58791637421
0.58737188578 0.4215169847 0.69065004587
0.67873430252 0.59903001785 -0.42473819852
0.57658928633 0.43346941471 -0.69242244959
0.42075681686 0.69092297554 -0.58747339249
-0.3279055953 -0.49890452623 0.80197441578
-0.16125430167 -0.25946804881 0.95219808817
0.00066792150028 -0.52794575691 0.84918701649
0.16490577161 -0.26142898202 0.95093399286
0.34572851658 -0.51567596197 0.78315067291
0.044364064932 -0.84040611982 0.53648298979
-0.80452394485 0.31591483951 0.50256085396
-0.85199719667 -0.0021597046871 0.52364999056
-0.80032151937 -0.32359516621 0.50430482626
-0.95233494043 0.15940013528 0.26021704078
-0.95172590017 -0.16135846078 0.2611541748
-0.99921262264 0.00049184524687 -0.032297886908
-0.85081273317 0.52546399832 0.00021786586149
-0.85103625059 -0.52510362864 0.00059554795735
-0.25870513916 0.95297002792 0.15784369409
-0.49906384945 0.80974280834 0.30814528465
-0.26104694605 0.95161670446 -0.16187150776
-0.52350270748 0.85210746527 -0.004031533841
-0.50718206167 0.79744291306 -0.32622155547
-0.42319098115 0.68521034718 0.59272056818
-0.68082278967 0.59240651131 0.43095067143
-0.57806229591 0.43294933438 0.69161468744
0.26621460915 -0.94992232323 -0.16373851895
-0.010604238138 -0.99965417385 -0.0089787729084
0.5267996788 -0.84989744425 -8.5417210357e-05
0.2630597651 -0.95074224472 0.1636775136
0.51006352901 -0.79019337893 0.33845719695
-0.50476968288 -0.8034954071 -0.31508353353
-0.5245847702 -0.85140776634 -0.0020241916645
-0.50489753485 -0.80809158087 0.30268901587
-0.27298521996 -0.94855487347 -0.16056898236
-0.27530971169 -0.94894528389 0.15406283736
-0.25385335088 -0.86360639334 0.43541449308
-0.023623410612 -0.96221011877 0.27144083381
-0.67798101902 -0.59686070681 0.42904931307
-0.44043692946 -0.68758064508 0.577290833
-0.58825129271 -0.44136407971 0.67762243748
-0.1853299886 -0.70985114574 0.67959886789
-0.81021755934 -0.30755290389 -0.49869889021
-0.85121512413 -3.4007403883e-05 -0.52488958836
-0.80816197395 0.30858868361 -0.50137859583
-0.94598662853 -0.15850487351 -0.28309857845
-0.94557905197 0.15939719975 -0.28389245272
-0.43020039797 0.67653852701 -0.5976960063
-0.58684778214 0.42584434152 -0.68864768744
-0.68887966871 0.57804143429 -0.4375641346
-0.60585522652 -0.43230113387 -0.66794276237
-0.44875240326 -0.68483400345 -0.57420706749
-0.69013434649 -0.58253312111 -0.4293422699
0.46108236909 -0.26975184679 0.84530282021
0.69225782156 -0.16019316018 0.70357871056
0.60545808077 -0.43184274435 0.66847455502
0.80093318224 -0.31557008624 0.50743800402
0.45301130414 -0.67431664467 0.58319163322
0.69071179628 -0.57346141338 0.4405092597
0.8659286499 -0.42404472828 0.26103788614
0.71100068092 -0.67881244421 0.18248109519
0.86238074303 -0.034779004753 0.50265711546
0.7116163373 0.12976638973 0.69033867121
-0.15476870537 0.29052436352 -0.94422471523
-0.27259814739 0.038161803037 -0.96157747507
-0.42130771279 0.25729957223 -0.86990785599

CELLS 194 776
3 0 1 2
3 1 3 2
3 1 4 3
3 2 3 5
3 5 6 7
3 6 8 7
3 6 9 8
3 7 8 10
3 11 0 12
3 13 14 15
3 14 16 15
3 14 17 16
3 15 16 18
3 13 19 20
3 20 21 4
3 14 22 17
3 17 22 11
3 14 23 22
3 23 24 22
3 23 25 24
3 22 24 11
3 25 23 13
3 13 23 14
3 11 24 0
3 24 25 0
3 15 26 13
3 13 26 19
3 15 27 26
3 27 28 26
3 27 29 28
3 26 28 19
3 29 27 18
3 18 27 15
3 28 29 30
3 2 31 0
3 0 31 12
3 2 32 31
3 32 33 31
3 32 7 33
3 31 33 12
3 7 32 5
3 5 32 2
3 33 7 10
3 25 34 0
3 0 34 1
3 25 35 34
3 35 36 34
3 35 20 36
3 34 36 1
3 20 35 13
3 13 35 25
3 1 36 4
3 36 20 4
3 37 38 9
3 9 38 8
3 37 39 38
3 39 40 38
3 39 41 40
3 38 40 8
3 41 39 42
3 8 40 10
3 43 44 9
3 9 44 45
3 43 46 44
3 46 47 44
3 46 48 47
3 44 47 45
3 48 46 49
3 49 46 43
3 45 47 50
3 47 48 50
3 3 51 5
3 5 51 52
3 3 53 51
3 53 54 51
3 53 55 54
3 51 54 52
3 55 53 4
3 4 53 3
3 52 54 49
3 54 55 49
3 52 56 5
3 5 56 6
3 52 57 56
3 57 58 56
3 57 43 58
3 56 58 6
3 43 57 49
3 49 57 52
3 6 58 9
3 58 43 9
3 16 59 18
3 18 59 60
3 16 61 59
3 61 62 59
3 61 63 62
3 59 62 60
3 17 61 16
3 62 63 42
3 64 65 50
3 50 65 66
3 64 67 65
3 67 68 65
3 67 60 68
3 65 68 66
3 60 67 18
3 18 67 64
3 66 68 69
3 68 70 69
3 68 60 70
3 69 70 42
3 66 71 50
3 50 71 45
3 66 72 71
3 72 73 71
3 72 37 73
3 71 73 45
3 66 69 72
3 69 74 72
3 69 42 74
3 72 74 37
3 45 73 9
3 73 37 9
3 37 74 39
3 39 74 42
3 42 70 62
3 62 70 60
3 75 76 30
3 30 76 77
3 75 78 76
3 78 79 76
3 78 48 79
3 76 79 77
3 48 78 50
3 50 78 75
3 77 79 49
3 79 48 49
3 21 80 4
3 4 80 55
3 21 81 80
3 81 82 80
3 81 77 82
3 80 82 55
3 77 81 30
3 55 82 49
3 82 77 49
3 29 83 30
3 30 83 75
3 29 84 83
3 84 85 83
3 84 64 85
3 83 85 75
3 64 84 18
3 18 84 29
3 75 85 50
3 85 64 50
3 10 86 87
3 86 88 87
3 86 41 88
3 87 88 89
3 41 90 88
3 90 91 88
3 90 63 91
3 88 91 89
3 63 90 42
3 42 90 41
3 89 91 92
3 91 93 92
3 91 63 93
3 92 93 17
3 89 92 94
3 11 92 17
3 12 94 11
3 11 94 92
3 89 94 87
3 94 95 87
3 94 12 95
3 87 95 10
3 19 96 20
3 96 21 20
3 19 97 96
3 97 98 96
3 97 30 98
3 96 98 21
3 30 97 28
3 28 97 19
3 10 95 33
3 33 95 12
3 41 86 40
3 40 86 10
3 17 93 61
3 61 93 63
3 21 98 81
3 81 98 30

CELL_TYPES 194
5
5
5
5
5
5
5
5
5
5
5
5
5
5
5
5
5
5
5
5
5
5
5
5
5
5
5
5
5
5
5
5
5
5
5
5
5
5
5
5
5
5
5
5
5
5
5
5
5
5
5
5
5
5
5
5
5
5
5
5
5
5
5
5
5
5
5
5
5
5
5
5
5
5
5
5
5
5
5
5
5
5
5
5
5
5
5
5
5
5
5
5
5
5
5
5
5
5
5
5
5
5
5
5
5
5
5
5
5
5
5
5
5
5
5
5
5
5
5
5
5
5
5
5
5
5
5
5
5
5
5
5
5
5
5
5
5
5
5
5
5
5
5
5
5
5
5
5
5
5
5
5
5
5
5
5
5
5
5
5
5
5
5
5
5
5
5
5
5
5
5
5
5
5
5
5
5
5
5
5
5
5
5
5
5
5
5
5
5
5
5
5
5
5

CELL_DATA 194
SCALARS cell_data_0 double
LOOKUP_TABLE default
1.24756602484e-06
5.96934994359e-07
9.72270677774e-07
7.80819246916e-07
3.1319607524e-06
2.87741245642e-06
2.79730676552e-06
3.54574048469e-06
2.57009144133e-06
2.20981144423e-06
1.56157715526e-06
2.51812826203e-06
2.86796739638e-06
1.07450019411e-06
3.6364303593e-06
7.7078667351e-07
1.04586491829e-06
1.49729304394e-06
8.65163343742e-07
1.08891710485e-06
1.51952004984e-06
4.84640673972e-07
1.96707601717e-07
2.0588253854e-07
3.46046035148e-08
3.5284023089e-08
8.03163027952e-07
6.95215506588e-07
2.74719571804e-07
9.30626501536e-08
9.12176972349e-07
1.10559472353e-06
4.4138373622e-07
1.43088222592e-06
5.50805796338e-07
5.35583196343e-07
2.0141341011e-06
2.00153491762e-06
1.78731034267e-06
9.36381728209e-07
2.40497862786e-07
1.42580204005e-06
3.26225477851e-07
1.27815559103e-07
1.55678702759e-07
1.05111744072e-06
1.9989760112e-07
9.72976475868e-07
5.38816279509e-07
5.3918911972e-07
4.72180750978e-07
1.46868454884e-07
5.34275118953e-08
1.95613393946e-07
7.44716676083e-07
6.48089160974e-07
2.01571060103e-07
1.07225999034e-07
6.66993879661e-08
3.75755560466e-07
1.13042546022e-06
7.39526207816e-07
7.55435368028e-07
1.54402195549e-07
1.27101978666e-07
2.6382193483e-08
1.77473394008e-07
9.50477225123e-07
7.90480167173e-07
1.02698469008e-06
1.21127755898e-06
7.03992126748e-07
3.57372630109e-08
1.17756763491e-06
2.59614676784e-07
9.71373338262e-07
9.488876235e-07
6.32733123611e-08
3.84623103957e-07
1.25428766395e-07
4.7857488624e-07
8.18692602258e-08
2.20940348614e-07
1.21064686447e-06
5.19281469563e-07
5.63310828168e-07
9.19797871817e-07
2.35141791961e-07
4.57142674549e-07
1.52274894797e-07
7.08098775797e-07
2.89271517996e-07
5.04251070351e-07
5.6558940092e-07
7.79545067154e-08
1.02020658171e-07
2.40270993843e-07
8.3767618548e-07
9.23853822805e-07
8.3302021958e-07
1.04904956737e-06
2.12229004156e-07
2.42767153305e-07
1.87833073446e-08
3.60315759626e-08
1.01231380717e-06
9.89388598522e-07
4.47778475236e-08
2.53810564757e-08
1.86958925608e-07
6.07350931344e-07
1.16679800345e-06
1.20212758149e-06
2.57651327546e-07
1.2859615964e-07
6.60006011152e-07
1.80193982431e-07
1.85917753655e-07
5.14479766716e-07
8.96335359468e-07
8.69033110458e-07
7.5835094725e-07
2.22243098655e-07
9.52280710573e-07
1.11394103426e-06
3.51123008272e-07
1.05465152855e-07
9.1872686502e-07
1.04950668199e-06
3.20536525086e-07
8.98615706183e-08
2.01793457362e-07
2.47199450056e-07
1.06760002104e-06
9.0990775079e-07
7.92974446101e-07
8.31673071728e-07
8.70518569666e-07
2.15971377472e-08
8.57340320643e-08
8.01079738653e-08
2.56765026567e-07
8.48565535054e-07
1.35413885977e-06
2.98755539545e-07
7.62252849282e-07
1.00992290677e-06
9.06369794928e-07
2.9878563931e-07
1.55125696165e-07
3.40395626543e-07
2.23618200019e-07
7.31703120694e-07
9.96786643659e-07
1.14706090617e-06
9.28477113207e-07
5.80944747223e-07
1.16818829775e-07
4.01056638507e-08
8.1769075773e-09
1.41230197928e-07
7.39634797774e-08
1.69952030892e-07
6.11019363005e-08
2.31626048486e-07
2.88710719318e-07
2.14467999817e-07
8.44569939966e-08
1.16195186134e-07
7.23633135515e-07
5.15633195067e-08
3.98839475536e-07
9.40784418757e-08
6.18586069599e-07
2.49810116454e-07
4.30808687182e-08
9.89518710615e-08
4.68245386693e-07
5.40670958408e-07
8.61174335791e-07
5.45689898526e-07
2.75736345068e-07
2.71865099132e-07
6.26753903746e-08
3.90523564151e-09
3.62457593731e-07
9.40205516179e-07
3.49529685114e-07
1.63459154515e-07
2.24115857665e-07
3.9592279566e-08
1.11048950373e-07
2.75250302568e-07
3.84072274857e-08

