# vtk DataFile Version 3.0
File Name: Molecule/sphere_cent/sphere_cent_0-s28.vtk
ASCII
DATASET UNSTRUCTURED_GRID
FIELD FieldData 1
TIME 1 1 double
0.0
POINTS 766 double
-0.59188073874 0.58911025524 0.54973769188
-0.49430733919 0.50912588835 0.70451486111
-0.44876202941 0.63401347399 0.62977933884
-0.33738353848 0.52744108438 0.77970677614
-0.86843001842 0.075128801167 -0.48961359262
-0.91450715065 0.15339024365 -0.3731008172
-0.84262782335 0.25831016898 -0.4724560082
-0.32411655784 0.47051548958 -0.82064169645
-0.40885710716 0.31523132324 -0.85643035173
-0.48458850384 0.4505161047 -0.74938422441
0.31259575486 -0.5232976675 -0.79247820377
0.24539898336 -0.67194879055 -0.69876140356
0.11976050586 -0.57729262114 -0.80733191967
0.92394274473 -0.12997280061 -0.3597509861
0.97252506018 -0.08409743011 -0.2150093019
0.94163817167 -0.23974952102 -0.23622091115
0.97559642792 -0.20815424621 -0.06405749172
-0.83930039406 -0.22731281817 0.49358686805
-0.7553730607 -0.1551476419 0.63650774956
-0.84107249975 -0.050315342844 0.53852039576
-0.71542471647 -0.33532458544 0.61296904087
-0.58043926954 -0.46315687895 0.66965728998
-0.57750087976 -0.30866247416 0.75566542149
-0.55948507786 0.27788469195 -0.78077548742
-0.19488324225 -0.5426247716 -0.81644678116
-0.07609397918 -0.65905898809 -0.74822735786
-0.26036137342 -0.6565824151 -0.70784497261
0.7921462059 0.33298712969 -0.51133549213
0.82191509008 0.43406903744 -0.36877131462
0.89248096943 0.27354419231 -0.35815370083
0.57248497009 0.23145887256 -0.78620874882
0.57671326399 0.41313436627 -0.70471340418
0.6973361969 0.27140495181 -0.66268640757
-0.81528764963 0.13874021173 0.56070154905
-0.74445492029 0.019942004234 0.66733896732
-0.39043861628 -0.52971994877 -0.75213503838
-0.4077295959 -0.66264492273 -0.62821364403
0.86048030853 0.50353014469 -0.077204547822
0.89263510704 0.39418178797 -0.21692019701
0.80812245607 0.53771197796 -0.24025762081
0.69803512096 0.58558177948 -0.41198512912
-0.29275026917 -0.1952355206 0.93592745066
-0.15636970103 -0.31080323458 0.93729507923
-0.11036773771 -0.15901222825 0.98097455502
-0.98256033659 -0.15651622415 -0.09841760993
-0.94694799185 -0.28799009323 -0.14195050299
-0.96318602562 -0.26452517509 0.031135560945
-0.77374064922 -0.49609902501 -0.39283150434
-0.74510389566 -0.61088013649 -0.267354846
-0.83178836107 -0.49356293678 -0.2536123991
-0.83860880136 0.30511182547 0.45109283924
-0.87815868855 0.37317243218 0.29914745688
-0.91849815845 0.20980271697 0.33471277356
-0.68532037735 0.69952303171 -0.20168283582
-0.5758009553 0.79704153538 -0.18138475716
-0.59719407558 0.72882139683 -0.33486187458
-0.79661279917 0.4313813746 0.42331168056
-0.46928825974 0.82206809521 -0.32235592604
-0.7322665453 0.35909408331 0.57832664251
-0.98760086298 0.13034373522 0.082884371281
-0.9417424798 0.29183870554 0.16674977541
-0.96382570267 0.2647972703 0.026405427605
-0.43210053444 -0.76105487347 -0.48381870985
-0.29537764192 -0.77114987373 -0.56394410133
-0.29998794198 -0.85818326473 -0.4165430963
0.94774508476 -0.24955777824 0.19531279802
0.88852131367 -0.26942908764 0.37125101686
0.88056379557 -0.40088716149 0.252712816
0.84432452917 -0.53264957666 -0.055397506803
0.91485923529 -0.38327926397 -0.1269159317
0.91792488098 -0.39162039757 0.048194140196
-0.3521271944 0.90172302723 -0.2498781234
-0.31023216248 0.85879600048 -0.40767523646
-0.20642435551 0.93385881186 -0.29153370857
-0.24194321036 0.95826530457 -0.15194033086
-0.41353026032 0.84331792593 0.34313043952
-0.44674903154 0.75373005867 0.48186156154
-0.2678334415 0.86865240335 0.41676536202
-0.24177488685 0.79865580797 0.55107957125
-0.086211182177 0.86415117979 0.49575081468
-0.32035019994 0.7636501193 -0.5600900054
-0.44832086563 0.77024781704 -0.45351278782
0.82262593508 -0.508667171 -0.2508712709
-0.55898141861 0.7590534687 0.33246022463
0.13485318422 -0.56999516487 0.81001794338
0.061788041145 -0.70897316933 0.70248425007
0.2056697309 -0.71257662773 0.67073774338
0.094562232494 -0.81743788719 0.5680616498
-0.0019784802571 -0.9005998373 -0.43455919623
0.14242091775 -0.93716704845 -0.31750351191
0.0033960826695 -0.9713460207 -0.23731015623
0.16000156105 -0.97594583035 -0.1459697485
-0.042704373598 -0.99882894754 0.016032163054
-0.10253017396 -0.98635029793 -0.12755532563
0.048760175705 -0.99639064074 -0.066941224039
-0.16099998355 -0.93567216396 -0.31388795376
-0.85970121622 -0.28442114592 -0.42405557632
-0.83294177055 -0.17108117044 -0.52602082491
-0.77205502987 -0.29945960641 -0.56015193462
-0.78658241034 -0.60049808025 -0.14129474759
-0.6735291481 -0.72577679157 -0.13973663747
-0.7032545805 -0.71001207829 -0.0019119268982
-0.57133948803 -0.82058411837 0.00018517335411
-0.15910325944 -0.85242432356 -0.49802401662
0.49037712812 0.82066386938 0.29323294759
0.46248006821 0.76469051838 0.44870662689
0.59617441893 0.71429282427 0.36654081941
0.55846720934 0.65011048317 0.51524919271
0.41280505061 0.68345665932 0.60152536631
0.68287134171 0.59103512764 0.42936882377
0.52191776037 0.5634983778 0.64037889242
0.64975100756 0.51212233305 0.56173086166
0.6032627821 0.42353466153 0.67577040195
0.76424139738 0.43226405978 0.47862884402
0.71292459965 0.35392189026 0.60535460711
0.81242662668 0.27646070719 0.51332944632
-0.45549473166 -0.39241239429 0.79905188084
-0.44850376248 -0.24758774042 0.85874897242
-0.32629030943 -0.34086427093 0.88164633512
-0.32083854079 -0.49986734986 0.80444693565
0.34955900908 -0.93086469173 0.1039442122
0.20596316457 -0.97104603052 0.12019000947
0.28753402829 -0.9570992589 -0.035286147147
0.41561108828 -0.90637242794 -0.071827448905
0.32384222746 -0.92359632254 -0.20149102807
-0.13668251038 -0.91549426317 0.37826034427
0.021736005321 -0.91094845533 0.41195097566
-0.060523286462 -0.85127037764 0.52104043961
-0.035517171025 -0.96562975645 0.25674843788
0.72818940878 0.16325631738 0.66558206081
-0.15090705454 0.27369379997 0.94980543852
-0.32283037901 0.27803263068 0.90468817949
-0.23196038604 0.1616152674 0.95919907093
-0.38276666403 0.14771391451 0.91194933653
-0.48426619172 0.26580372453 0.83356809616
-0.27482277155 0.038771230727 0.96048426628
0.72111988068 0.63486033678 0.27732461691
0.60922724009 0.76182633638 0.21992868185
0.86247682571 0.36076340079 0.35481768847
0.78158658743 0.50907844305 0.36051240563
-0.39994293451 0.39624166489 0.82645362616
-0.24623812735 0.40036404133 0.88259226084
-0.63920199871 -0.75650644302 0.13226576149
-0.056557893753 0.11800085008 0.99062997103
-0.77513277531 -0.58130007982 0.24738658965
-0.74029141665 -0.65284562111 0.15699186921
-0.67250692844 -0.68036067486 0.28975403309
0.5541908145 0.65856492519 -0.50903117657
0.59288918972 0.71743071079 -0.3656912446
0.46401932836 0.76911252737 -0.43947723508
0.42005962133 0.69486433268 -0.58366179466
0.50115203857 0.81535565853 -0.2897606194
-0.25177001953 -0.0061444155872 -0.96767002344
-0.38396269083 -0.012222511694 -0.9230735898
-0.33058181405 0.1553645581 -0.93082892895
-0.47369742393 0.1612560004 -0.86536550522
0.48546299338 0.033288422972 0.87359070778
0.57003319263 0.18864923716 0.79966944456
0.43881419301 0.2294484973 0.86872375011
0.45347881317 -0.26665481925 0.85042488575
0.31592148542 -0.28187307715 0.90592217445
0.3763460815 -0.44536951184 0.81200641394
0.37794980407 -0.12859977782 0.916860044
0.21434518695 -0.13657259941 0.96715241671
0.30711200833 0.0069088754244 0.95161813498
0.5121923089 0.33668985963 0.79012191296
0.63464671373 0.29146161675 0.71573913097
0.27336362004 0.52037316561 -0.8089774847
0.16213668883 0.6720122695 -0.72249817848
0.34953635931 0.61402434111 -0.70765465498
0.28622043133 0.72274672985 -0.62908673286
0.32581344247 0.80330258608 -0.49849513173
0.18334624171 0.804679811 -0.5646187067
0.2166262418 0.8955489397 -0.38854458928
0.060309194028 -0.22419439256 0.9723598361
0.054007288069 -0.083162419498 0.99507468939
0.16025370359 0.02383890748 0.98652607203
0.15327243507 -0.26252344251 -0.9526566267
0.2319714278 -0.12495563924 -0.9646615386
0.3098423183 -0.2564688623 -0.91553103924
0.36473944783 -0.10651004314 -0.92447209358
0.28645473719 0.015390237793 -0.9579629302
-0.11816676706 0.93247246742 0.34133192897
-0.1140383929 0.97510874271 0.19006946683
0.069845296443 0.97060263157 0.23015832901
-0.007255518809 0.99905538559 0.040061336011
0.36777934432 0.86202263832 -0.3488112092
0.29095467925 0.93477040529 -0.20346225798
0.24660685658 -0.39161503315 -0.88627535105
0.38634127378 -0.38166096807 -0.83969831467
0.44765931368 -0.24952112138 -0.85814201832
0.097761400044 0.87011319399 -0.4828055501
0.030244389549 0.78869003057 -0.61395978928
-0.050286583602 -0.52059704065 -0.85229635239
-0.15475539863 -0.41004526615 -0.89883571863
-0.34236174822 -0.15985122323 -0.92549991608
-0.25195032358 0.92681598663 0.27840730548
-0.28844031692 0.94950187206 0.12356459349
0.0034263483249 -0.21773529053 -0.97595626116
0.086649388075 -0.11356348544 -0.98973691463
-0.048816666007 -0.091929070652 -0.99441474676
0.016999946907 0.02039687708 -0.99962705374
0.68729692698 0.40893366933 -0.60026085377
0.7315890789 0.46967408061 -0.49405220151
0.62354999781 0.5340423584 -0.57092612982
-0.4386844933 -0.89692771435 0.05285558477
-0.48909115791 -0.8574243784 0.15928158164
-0.48401334882 -0.79512619972 0.36361399293
-0.38491377234 -0.87997859716 0.2782407701
-0.30165022612 -0.85611468554 0.41947668791
-0.82406049967 0.43657019734 -0.36093217134
-0.89169049263 0.31305930018 -0.32671043277
-0.87893974781 0.4180419445 -0.22936473787
-0.92716062069 0.32323300838 -0.18924058974
0.13337388635 0.7204939723 0.68049675226
0.083266817033 0.62013721466 0.7800514102
0.22973072529 0.61718827486 0.752407372
0.1711268425 0.51383107901 0.84057635069
0.29708087444 0.48471260071 0.82262951136
0.3309725821 -0.84469974041 -0.41999575496
0.27996489406 -0.77868705988 -0.56132727861
0.45419859886 -0.74910366535 -0.48219791055
0.41434147954 -0.68602979183 -0.59794253111
0.11911606789 -0.79947656393 -0.58866161108
0.16910117865 -0.86806964874 -0.46653607488
0.99952322245 -0.020024500787 0.015402608551
[...]
CELL_DATA 1528
SCALARS cell_data_0 double
LOOKUP_TABLE default
9.61836006891e-09
1.01497279179e-08
4.84360949819e-09
1.77875129894e-08
4.91238842155e-08
3.77573847799e-09
4.10004663466e-08
8.01479861597e-09
2.49513933983e-08
2.57768808199e-08
2.17710819348e-08
3.88792613571e-08
3.57589869355e-08
6.087985629e-08
5.12649317289e-08
2.22491180696e-08
1.04169776413e-08
3.58771643205e-09
3.11863537946e-08
5.57332832204e-08
3.20822660905e-09
2.18515154994e-08
1.61017742618e-08
2.0635619654e-09
1.31273400039e-08
2.93008570157e-09
1.78350537033e-08
6.30414456098e-09
1.1053042275e-08
4.86551242327e-09
1.10864823828e-08
4.86811070997e-09
5.6677851854e-08
1.33870324957e-08
2.08253669337e-08
3.80865492689e-08
5.53106171507e-08
2.87987753652e-08
3.63387077214e-08
8.80659134473e-09
3.71193783586e-08
9.47072056131e-08
1.25087858026e-08
3.66910630871e-08
3.26214565604e-10
6.28470301365e-08
7.22858717692e-08
1.68072575207e-08
1.50053940823e-08
7.60868225778e-08
1.58164824066e-08
2.82435480199e-08
2.99757377491e-08
1.23989280873e-09
1.07103547429e-08
4.88466577572e-08
7.81293962743e-09
2.132469114e-08
1.49558587108e-08
1.74769965501e-08
4.35172577039e-08
1.36946436131e-09
4.7415034435e-10
2.62841375446e-08
1.1183992719e-09
1.28803009475e-08
2.63587290456e-10
1.76828759009e-09
7.37619523733e-09
1.92566870098e-08
1.47358475522e-08
4.64143814099e-09
2.12077018859e-08
4.40040497784e-10
9.44664944197e-10
1.60582512174e-08
1.0562008929e-08
8.42403013265e-09
1.26088408266e-08
7.57347210338e-09
2.26933542243e-08
2.99575489229e-09
2.023562947e-08
9.12072864838e-09
9.89450273024e-09
5.92155812176e-09
5.79778668336e-09
2.58722557377e-08
2.1800836588e-08
5.28967087461e-09
2.93497629444e-09
7.08616945659e-09
4.086847882e-09
1.7494352579e-08
6.8228232565e-09
1.37428113287e-08
1.31617828255e-08
1.32552104741e-08
1.86122416686e-08
1.09231318458e-08
4.05995475658e-08
6.24194323727e-09
2.52992783456e-08
9.76749514793e-10
6.94655160298e-09
4.34187374944e-11
2.68868205468e-08
3.92382351014e-08
4.37322417389e-08
2.67747989101e-08
1.5824000591e-08
1.8141780753e-08
1.34905016774e-08
3.92240022394e-09
1.07053658049e-08
7.48287244405e-09
4.3237055016e-09
2.24344129481e-08
2.60279762895e-09
1.46925157018e-08
1.4623179367e-08
4.14367349041e-08
3.19655306284e-08
8.86007322815e-09
1.82033361428e-08
9.28562821136e-09
7.26860037644e-09
8.86019527618e-09
9.23800549562e-09
5.25495750899e-08
5.57508994713e-08
3.66995748759e-08
2.80318266399e-08
1.94864913418e-08
1.61736607233e-08
2.44963067965e-08
1.38344645148e-08
1.33946917976e-08
6.19983554512e-08
6.4544786822e-09
7.15523604268e-10
5.66840326015e-09
3.43684662356e-09
1.09746842918e-08
1.7333299886e-08
8.50976130889e-09
6.63074561653e-08
2.7655189094e-08
4.34825479271e-09
1.38504180192e-08
2.85584800622e-08
7.2065192544e-10
8.21596512842e-09
5.57371868793e-08
2.16524422643e-08
7.69963314342e-10
9.95618443823e-09
4.71743562511e-09
1.29348708291e-08
1.17434699061e-08
1.20410533657e-08
2.22429166931e-09
4.28634096878e-09
1.58441733424e-08
3.28851300598e-08
1.78332065186e-10
2.5649204821e-08
8.39734420666e-09
9.18631397868e-09
1.04038017039e-08
4.34506797502e-09
3.74536955055e-08
3.78751122195e-08
4.96170470566e-08
6.80726116964e-09
3.74212781039e-08
3.79573022955e-08
2.53636709304e-08
8.75114818557e-09
2.95962564156e-09
1.5160076532e-08
9.23581621211e-10
2.44825744591e-08
1.54431057403e-08
6.2461747159e-09
3.40125890127e-09
1.01373162191e-08
5.49222692454e-08
6.07466319386e-09
4.19860358287e-08
3.15606387656e-08
6.0950320226e-09
3.34507283191e-08
1.09235721662e-08
1.02774920876e-08
1.98851635963e-08
4.89022360673e-09
7.83804937654e-09
3.41250707564e-09
9.08768490685e-09
1.09779385511e-08
1.31131342258e-08
4.25589564555e-08
2.76693201783e-09
3.01596600015e-08
1.06765333485e-08
1.37661612347e-08
2.68875013398e-08
5.84048999751e-09
3.49122894956e-08
6.37508277767e-09
4.49181680269e-08
1.35262393889e-08
3.22931204682e-08
1.77170849423e-08
3.64936659401e-10
2.89543976615e-08
1.85461434912e-08
3.66255740383e-08
1.75621674012e-08
1.11947865311e-08
1.98616287033e-09
1.19707458532e-08
1.63486582468e-08
1.43720005036e-08
5.82231435864e-09
6.03071640968e-09
7.2026069184e-09
7.19293445158e-09
1.89498749133e-08
5.2284857038e-09
1.70771574981e-08
1.0788275299e-08
4.20705515429e-09
3.55157062605e-08
9.41782554291e-09
1.89850872681e-08
1.00530882456e-08
1.14693686808e-08
4.31007436414e-09
1.96955195928e-08
2.15356549349e-08
3.58287795119e-08
2.18528598063e-08
1.82786018731e-09
4.66858582211e-09
1.6261663321e-08
3.40238409939e-09
4.67390739457e-08
2.21014792269e-08
2.40385179014e-08
2.4188160286e-08
6.25930918635e-09
1.42345448094e-08
1.06622683621e-08
1.05528677331e-08
3.1997140843e-09
1.92721066013e-08
1.09740973603e-09
6.94271500793e-09
6.6281696913e-09
1.61412646202e-08
5.41328899331e-09
8.17224679177e-10
1.09552330523e-09
3.34966582379e-08
1.44481368448e-08
8.58635197922e-09
1.69892287128e-09
1.64670781833e-08
1.56875291018e-08
1.07051346192e-08
8.98798673418e-09
8.92943510921e-09
1.63255318805e-09
1.11708260662e-08
3.50893738568e-08
1.56949279797e-08
8.80729382241e-09
3.26803436236e-09
1.05812426087e-09
3.19357825192e-08
1.02689595183e-08
1.05413957508e-08
1.71630767774e-09
7.88701439833e-09
1.97040138281e-08
1.32755338453e-08
2.67426885686e-10
7.31609879638e-09
1.18851895748e-08
1.26373352413e-08
5.40858579692e-09
1.41987082719e-08
1.24878075587e-08
2.65158100699e-08
1.796922226e-08
1.04684824672e-08
2.40955972359e-08
2.71666619364e-09
6.42303782437e-09
3.26334749514e-09
2.03418704625e-09
1.42982964826e-09
1.4355021835e-08
1.6687699063e-08
5.28596155336e-09
1.08800102305e-08
2.15688480347e-09
5.92889899021e-09
2.94568569733e-08
1.10379141262e-09
2.02734554031e-08
8.45948981741e-09
2.49615446251e-08
6.77992155146e-09
1.66407236635e-08
1.33659362944e-08
1.65051287887e-08
2.65090482357e-08
1.29800686113e-08
5.0868246996e-08
2.07091632613e-08
3.68680503969e-09
1.37892609913e-08
8.55609297588e-09
2.21584542969e-08
8.10273183449e-09
2.22993207256e-08
6.10261893778e-09
2.18698006212e-09
1.13156655238e-08
1.93747458411e-08
2.32813672766e-08
8.15879487278e-10
2.50330823717e-09
2.80364556418e-08
6.33929742994e-09
1.1862848958e-08
2.69689352028e-09
9.8716895966e-09
8.96743062624e-10
1.50150326863e-08
1.73119179707e-08
2.13226583045e-09
1.80997116548e-08
1.13470839011e-08
1.78072585764e-08
2.29523060809e-08
2.15127862027e-08
1.31361905669e-08
2.27653526186e-09
1.50712007097e-09
2.10166993476e-08
3.19800717016e-08
1.52732924053e-08
3.05150368172e-09
5.9118533005e-09
8.55356958206e-09
3.05245976672e-09
4.26534449731e-11
1.15038091012e-09
1.36038172136e-08
1.96954410192e-08
1.57807570212e-08
3.09985457111e-09
2.08303397797e-10
1.76184518551e-08
1.76755517909e-09
1.50292588262e-08
1.44831723954e-08
1.40704125337e-09
9.16276323082e-09
5.97131363659e-09
1.35871155333e-08
1.4541296533e-08
1.08952104635e-08
9.93702803445e-09
2.53063150832e-08
1.49479594715e-08
1.48615505364e-08
6.07950303696e-09
1.51633991723e-09
1.39369807465e-08
8.8335447671e-09
7.91240800164e-09
9.00418106966e-09
1.10533087317e-08
5.54241863691e-09
3.09136336744e-09
3.82457151022e-09
1.1605914566e-08
1.67121513904e-08
2.22285286524e-08
4.52095482193e-09
6.80383331099e-09
5.1014351044e-09
1.05988205106e-08
1.45071011676e-08
2.67754904528e-09
2.18337448608e-08
1.63432618184e-08
2.36142893527e-08
1.02572995927e-08
3.71816494718e-09
1.44294767754e-09
1.18908414563e-09
1.10775938999e-08
3.14909785438e-09
5.42357523537e-09
1.36906856426e-08
3.71030172509e-09
4.33283199175e-09
2.44906483767e-08
4.87026845778e-09
1.9797828992e-09
1.95075437077e-08
1.64785849074e-08
2.1993080836e-08
4.66818248035e-09
9.38430066534e-09
1.30300301162e-08
4.5590998418e-09
4.71005411721e-09
1.40029225469e-08
1.16275661587e-08
9.50161099479e-10
2.62349758152e-08
1.13977581642e-08
4.18091048024e-09
2.4652226908e-09
1.05632679759e-08
1.63079705464e-08
5.12993119341e-09
2.51983695963e-08
7.91865782051e-09
1.70986472944e-08
1.09398809061e-08
2.38625024495e-08
3.38789252634e-08
1.0202503813e-08
1.59527849445e-08
3.01881195697e-10
2.18854463776e-08
2.96101670102e-09
1.07345659865e-08
4.70919310257e-08
1.11543201619e-08
9.85972373347e-09
1.95719901345e-08
5.92476815102e-09
1.42796295536e-08
1.35700888419e-08
3.30403800627e-09
2.09638261877e-08
4.79623568537e-09
2.7573511231e-08
7.97715901739e-09
9.59558335666e-09
1.07606596219e-08
1.14158915957e-08
9.00548498434e-09
1.63591024867e-08
2.23386806489e-08
3.83367980861e-09
4.12940954183e-09
1.93568423506e-08
4.87890204654e-09
1.81842329067e-08
2.36317184077e-08
5.18020677191e-09
1.53526236284e-08
6.40016109408e-09
8.60314054238e-09
1.33494909477e-08
8.6529227107e-09
1.13759403852e-08
3.760922549e-10
2.1010700153e-08
6.41851509593e-09
2.17251356577e-08
7.12963896183e-10
1.27290839206e-08
7.84140739669e-09
1.51343148645e-08
1.88369921578e-08
1.20562831239e-08
2.0300729812e-08
3.75090539948e-09
1.93278382105e-09
3.42420433572e-09
1.88392932749e-08
1.06128468646e-08
4.92018260031e-10
1.5296669129e-08
1.06440773207e-08
2.09239631693e-08
9.84617576536e-09
1.81286718703e-08
1.76301705686e-08
2.63111327477e-08
9.65673126872e-09
4.3698820579e-09
7.46273062708e-11
3.26772018717e-09
9.72017656004e-09
1.62684713219e-08
8.0368007382e-09
2.13384429253e-08
1.06065128621e-08
5.02265329273e-10
3.26812187727e-08
1.66431703455e-08
1.15504786627e-08
9.95982336325e-09
7.12130892718e-09
1.63083337986e-09
1.45344157699e-08
1.03471292574e-08
9.38662136962e-09
8.98373120603e-09
6.9862516051e-09
1.27518533916e-08
7.17686357001e-09
4.42996517355e-09
2.34994903046e-08
2.21669474362e-08
2.23400942969e-08
6.80368894241e-10
1.68250779468e-09
2.62054774264e-08
3.08395614542e-10
1.08050694706e-08
2.15534852846e-09
1.56713229075e-08
3.81035320589e-09
1.91205941697e-08
2.60597214891e-08
1.04139663456e-08
1.09911453384e-08
6.15996605089e-09
1.02851784449e-08
6.26027824058e-09
3.9078397071e-08
3.67376435611e-09
1.00463455138e-08
8.32761140157e-09
1.46259577633e-08
6.7255064741e-09
1.15148423744e-08
1.63494770511e-08
6.53422242113e-09
2.59363169146e-09
9.81830449094e-09
1.90997209889e-08
3.17006372726e-09
1.65197092975e-08
1.96758099485e-08
9.68695306459e-09
1.92790773411e-09
1.21661332312e-08
5.8918992485e-09
1.28623393914e-08
1.68502853749e-09
1.06790814224e-08
1.24918391599e-09
9.77127023e-09
4.22978373783e-09
1.05361573135e-08
5.70071252234e-09
5.88833971237e-09
1.12803446513e-08
1.74745223361e-08
1.02823111977e-08
1.99777936244e-08
1.51116391e-08
1.408024093e-08
8.49642533474e-09
1.64076805503e-08
9.81392407125e-09
1.27048258938e-08
1.30160453727e-08
3.01147398863e-09
8.73378405276e-09
6.94801292407e-09
8.26397269497e-09
1.59272078399e-08
2.4574355712e-08
7.53727862682e-09
1.93631062486e-08
1.69359649688e-08
2.17968294021e-08
6.65985759619e-09
5.1470740929e-09
7.73073859433e-09
1.41271162499e-08
1.95062622572e-08
1.13017443827e-08
5.17585792942e-09
1.48260396673e-08
7.41493290814e-09
5.80549085925e-09
6.56243712133e-09
6.02361685737e-09
1.3635117138e-08
2.16752410329e-08
1.64047909716e-08
2.41328244403e-09
1.38740118839e-08
1.34527136745e-08
2.8927734088e-09
1.80493469695e-08
4.72678466565e-09
5.54417753513e-09
2.23374604754e-08
1.82390393402e-09
1.18966573262e-08
3.97736025932e-09
1.25117497207e-08
4.10813768599e-09
9.9030953037e-09
1.27183694278e-08
6.46134826449e-09
5.38486174559e-09
3.39816210248e-08
5.11491663542e-09
1.08951683456e-08
1.45950952588e-08
6.13851029471e-09
5.6594628191e-09
1.79133089104e-08
1.40296514185e-09
1.97379691975e-08
2.75520745985e-09
6.19099807596e-09
7.28194064832e-09
7.39195717703e-10
3.37666917196e-09
9.5284216135e-09
1.01543101617e-08
2.10137502275e-10
6.39624043758e-09
1.02346552882e-08
1.81734299416e-08
4.87115175322e-10
1.15364466888e-09
1.12795516461e-08
1.37643081836e-08
3.74355359415e-09
1.45835974452e-08
6.14865803418e-09
1.31534707078e-08
3.23865614012e-09
4.3906898942e-09
1.20632730098e-08
1.67070893039e-09
1.28004687654e-09
4.94762479156e-09
4.66154073075e-09
1.31272976372e-09
2.56332923863e-08
1.29581773247e-08
4.92838744655e-09
3.81065770791e-09
1.89175061532e-08
1.79864721684e-09
9.18470977842e-09
8.55832503466e-09
2.11857033023e-09
1.30526050249e-08
1.2161487513e-08
9.48219097436e-09
1.62226954431e-08
1.96129050033e-08
7.6394581633e-09
6.24525329221e-09
1.31941719122e-08
7.29634481511e-09
2.85296050501e-09
2.36117363039e-10
1.83990192488e-08
4.7910475322e-09
2.01749012018e-08
6.13391217901e-09
8.54287908403e-09
3.44791086011e-09
3.63338515724e-09
9.80948799065e-09
2.09594334106e-09
2.93546195364e-11
1.40904826383e-08
1.99171734477e-08
1.48534237309e-08
1.42982572754e-08
6.83315460622e-09
2.38781597202e-08
2.25202391072e-08
8.1580028698e-09
4.6823208159e-08
1.27986626726e-08
4.14807959165e-09
1.37719246903e-08
4.63996473714e-09
1.18041790771e-08
2.00872797772e-08
2.52932560875e-08
1.96610734889e-08
1.01761416997e-09
1.69541455824e-08
1.01488302507e-08
2.12482633157e-08
1.8164907584e-08
1.63517271444e-08
2.04948921239e-09
3.13693715879e-09
1.0998588511e-09
8.67658799866e-09
6.38570515278e-09
1.41502328793e-08
2.58432013394e-08
4.3001827184e-09
2.45221700103e-09
3.09775930048e-09
1.33115641139e-08
1.34963969399e-08
8.77152947824e-09
1.97019176296e-08
6.30167399805e-09
1.80819271953e-08
1.21468382415e-08
1.62198447144e-08
1.3882173421e-08
2.09134479957e-09
1.11886974183e-08
1.72580563848e-08
5.58289701078e-09
7.19754554469e-09
2.60011126305e-08
1.03784730635e-08
1.29115775768e-08
5.25366784389e-08
1.66156315584e-10
1.4051737023e-09
1.87200509831e-08
6.02718378644e-10
1.01325179013e-08
1.22019083323e-08
7.90343570929e-09
2.08435599539e-08
1.16757436401e-08
4.16986295078e-09
1.084748738e-09
5.55777234745e-09
1.12458806293e-08
1.82365224112e-08
1.04222831976e-08
2.22472208575e-08
6.93486233662e-09
8.6129795434e-09
1.34943255686e-08
2.38198480225e-09
1.05766117741e-08
1.63819806363e-08
1.03196646298e-08
1.16753193631e-08
6.28577133067e-09
9.69115854475e-09
5.99571718368e-10
4.34922037731e-08
3.45608836237e-09
1.4867071454e-09
7.98170612916e-09
4.57382753146e-09
1.08782085871e-08
8.61683899482e-09
1.4825899868e-08
2.88121673378e-09
2.11505693299e-08
2.58368925785e-09
3.94166598985e-09
5.48023984665e-10
2.23878201567e-09
6.04647303295e-09
2.24604486282e-08
1.48647870631e-08
1.64048428535e-08
8.27201084233e-09
1.65762295893e-09
9.11576858545e-09
6.30514026883e-09
1.04821184627e-08
1.42420854054e-08
1.10538963329e-08
1.85001223021e-08
5.97171658739e-09
1.9806796565e-08
5.10934879338e-09
3.73855120767e-09
2.69430194611e-09
1.75029871926e-08
5.89049747861e-09
8.33186075946e-10
6.99971738169e-09
9.61563649504e-09
5.20874581443e-09
3.24371122932e-09
1.26852512968e-08
1.60662734692e-08
1.57723637667e-08
9.02921110632e-09
7.26438252375e-09
1.60129300743e-08
4.99346060028e-09
6.07441227221e-09
3.59153874763e-09
1.73042947923e-09
1.06298479006e-09
1.83289386539e-08
2.12958769991e-09
3.82114041926e-09
6.1919670726e-09
1.02754768045e-08
2.45722593851e-08
6.98678709561e-08
3.46383123298e-09
6.32875849482e-09
1.44901031312e-08
1.17621160671e-08
1.86983143194e-08
1.11137782264e-08
6.52454498086e-09
2.1147818145e-09
1.24831707718e-09
8.92287538957e-09
5.35882731557e-09
4.00966204678e-09
8.24742283284e-09
1.12676437605e-09
4.88638383528e-09
8.26573728668e-09
2.32391004007e-08
1.29823605078e-09
1.77981645896e-08
9.44684545565e-09
4.18999548829e-09
4.42474571962e-09
7.89739012433e-09
8.07089270206e-09
6.54867894045e-09
5.36944330519e-09
2.79777607306e-09
3.1594930424e-09
1.39683120947e-08
7.91817466148e-09
8.62120936511e-09
9.39313019549e-10
1.07533523344e-08
1.26749493251e-09
6.01727194311e-09
7.45810481045e-09
7.91709491071e-09
4.11580650391e-09
1.83176391207e-09
9.49950646304e-09
9.07950346523e-09
9.96416764813e-09
4.0224700356e-09
1.09658668655e-08
5.60908812838e-09
2.14060814544e-09
8.57692703865e-10
7.77553489347e-09
1.06655400755e-08
7.01285512895e-10
3.00093577183e-09
1.66862117099e-08
2.46255166535e-09
3.75827195267e-10
1.67551412115e-08
1.57822843544e-08
2.98553964917e-09
3.50688403293e-09
2.53454365701e-09
3.22798567234e-08
9.3429905551e-09
6.62412883799e-09
1.81674869606e-10
1.04071102733e-08
6.90967082676e-09
1.86710907149e-08
2.51405569149e-09
3.0440917485e-08
7.37276782198e-09
1.2814677858e-09
1.70743542824e-09
9.420456085e-09
1.22401013519e-08
2.19233216575e-08
1.24526027898e-08
7.44294401401e-09
3.49331526435e-08
6.64994749268e-09
3.92321044997e-09
5.3981209878e-09
2.68899997159e-09
7.27525906625e-09
1.23058627364e-09
2.98125113917e-10
1.57773242161e-09
8.80691846838e-09
1.04382280593e-09
4.77541866817e-09
5.68185380266e-09
1.59597265033e-08
2.35347271362e-09
6.24728324087e-09
6.01473646559e-09
1.97386391307e-08
9.96251584053e-09
1.1500372541e-08
1.12695822089e-08
5.88058649465e-09
1.50819472402e-09
1.04571117563e-08
2.09843751065e-08
9.62182529366e-09
1.11705112479e-08
1.11793645834e-08
9.80934176495e-09
2.2171116762e-09
7.84195168596e-09
6.09109903892e-09
3.72739446358e-09
4.65084724704e-09
1.84710115608e-08
3.15080169304e-08
9.27839346031e-09
3.13067253445e-09
1.21855921422e-08
4.54624458387e-09
1.32065443787e-08
4.08282759719e-10
1.28148451802e-09
8.07435615173e-10
1.2849188067e-08
2.0967028373e-09
4.63654628161e-09
4.06857604559e-09
7.54022873053e-09
8.49463879237e-09
4.11512318989e-09
1.19427310047e-09
6.04892137008e-09
6.24507284033e-09
7.49707530103e-09
4.29766063213e-09
1.07100274744e-08
1.6991662155e-08
2.50081614468e-08
3.13774398784e-08
8.55512310043e-09
2.96951025698e-09
6.23459997471e-09
1.21708836074e-08
4.04085385253e-09
3.92072450702e-09
1.34252818657e-10
7.67903604966e-09
3.01937185598e-08
1.61716562697e-08
1.90455275351e-09
1.17316266441e-08
1.41927459444e-08
8.31786760546e-09
1.00643273936e-08
5.70458437689e-09
6.55491187596e-09
7.06794716675e-09
1.2055612764e-09
1.65773308481e-08
1.06291069234e-08
1.12997843934e-08
1.58791527205e-08
7.70373974732e-09
1.44365481682e-08
2.20384073364e-09
9.64614059178e-10
2.04195428728e-09
1.04106916977e-08
3.83990516096e-09
3.16961118557e-09
5.0305080856e-09
2.548620492e-09
1.92222666046e-08
1.34153314714e-08
1.23295478128e-08
7.52729312831e-09
4.13202259058e-09
1.66946083161e-08
3.6122157471e-09
6.03636459753e-09
5.07819454022e-10
9.08931854011e-10
1.89869014234e-08
2.31119991598e-08
7.49477628122e-10
2.23740594341e-09
3.1318211176e-09
2.14116835829e-09
8.11805513148e-09
1.08701692298e-08
2.57910161678e-09
1.2071432377e-08
1.50645056184e-08
6.35900167745e-09
4.63756568758e-09
3.74755890738e-09
1.23898061676e-08
1.08075112217e-08
9.6689990688e-09
7.58498869877e-09
2.49324320277e-09
6.29569807338e-09
8.44713917712e-09
6.74792251524e-09
9.72877118658e-09
3.64608365757e-09
2.32567519234e-09
1.00824951516e-08
2.0317854734e-08
9.76688586536e-09
1.51317169301e-08
1.32834488943e-08
1.23745624123e-08
1.3578144219e-08
4.85099894144e-09
7.68117261736e-10
6.07642636456e-09
6.66979926299e-09
8.80433926697e-09
5.53256125206e-09
1.5064213305e-08
1.41196607674e-10
7.00354911609e-10
9.17749296946e-09
7.63407973121e-09
6.8214022494e-09
3.56928292659e-09
6.27311553658e-10
6.12901475659e-09
1.25382536514e-08
1.00697861227e-08
1.40094547601e-08
1.18549560025e-08
4.36379054975e-09
5.4632107535e-09
5.36075017129e-09
3.84471210475e-09
2.65901930232e-08
2.01781584409e-09
5.13328580567e-09
3.88817198028e-09
1.09549399958e-09
5.65140166419e-09
5.0212288826e-09
2.16856767642e-09
6.77207801151e-09
1.74729192108e-09
9.2286679187e-09
1.70862488027e-08
1.92714420874e-08
5.53563503015e-10
6.72356609023e-09
4.55602006202e-09
2.0054847928e-09
4.03985772233e-09
6.72492332029e-09
3.51597948164e-09
4.88072150834e-09
5.48032029606e-10
1.00875725629e-08
2.81286989744e-09
8.99598832756e-09
5.67504497966e-09
8.57097967787e-09
6.80199985394e-09
5.13808146052e-09
1.39319887096e-09
3.96245856219e-09
3.02317119785e-09
8.71281426398e-09
7.95527649798e-09
1.32144798447e-08
3.62646544529e-08
1.93067214222e-08
5.239575179e-08
1.13804091939e-08
3.9112131352e-09
9.82986994316e-09
1.55187034572e-08
1.39743429937e-08
4.24675031648e-09
1.09254420599e-08
1.44614560882e-08
7.55378538224e-09
4.92603093043e-09
8.14120962054e-09
1.24624769169e-08
1.46045139694e-08
1.65307014228e-08
1.91932312906e-08
2.63871809227e-08
2.65921930994e-08
1.04923289691e-08