# vtk DataFile Version 3.0
File Name: Molecule/sphere_cent/sphere_cent_0-s5.vtk
ASCII
DATASET UNSTRUCTURED_GRID
FIELD FieldData 1
TIME 1 1 double
0.0
POINTS 78 double
0.85070568323 0.52552372217 4.6222085075e-05
0.48478084803 0.8299857378 -0.27143216133
0.48085069656 0.83483445644 0.2637142241
0.030308164656 0.9981123805 0.00040354838711
0.00053904042579 0.85076004267 -0.52550959587
0.00053949089488 0.8505114913 0.52587550879
-0.28381636739 0.48924562335 0.82332116365
0.26182287931 0.48120543361 0.83519750834
-0.0020154339727 0.043569333851 0.99790388346
-0.52600830793 -0.00038322940236 0.85045564175
0.52531385422 0.00071884301724 0.85084486008
0.3454015255 -0.51222962141 0.78518098593
0.8083242774 -0.31025281549 0.50027698278
0.51022142172 -0.79149127007 0.33304050565
0.015792990103 -0.84597414732 0.52923536301
0.85088676214 -0.52528220415 -0.00083366048057
0.9977658391 -0.00049608922563 0.056027505547
0.83390176296 0.26278814673 0.48351749778
-0.52468413115 -0.0009087959188 -0.85123795271
-0.80981266499 -0.30838796496 -0.49895682931
-0.80878484249 0.30866014957 -0.50054180622
-0.99873936176 0.00054539181292 -0.044048666954
-0.85089236498 -0.52525645494 0.00095339701511
-0.85069656372 0.52561056614 0.00088984158356
-0.31080383062 0.50066590309 -0.80789506435
-0.50938951969 0.79252809286 -0.33274680376
-0.35420286655 -0.51647347212 -0.77820903063
-0.50531947613 -0.79994958639 -0.31995403767
0.00014925529831 -0.85029757023 -0.52623468637
0.52582514286 -0.00016213163326 -0.85051935911
0.77872884274 -0.3539018333 -0.51622927189
0.35250401497 -0.51722592115 -0.7784845233
0.50798934698 -0.79255515337 -0.33311381936
-0.00090113282204 0.055714476854 -0.99751532078
0.27219030261 0.48583513498 -0.82952338457
0.95095521212 -0.16385638714 -0.26198375225
0.85092103481 -0.0044448329136 -0.52525025606
0.95239269733 0.15975901484 -0.25964233279
0.80397701263 0.31679919362 -0.50288504362
0.16351944208 -0.26228395104 -0.95092254877
-6.4205210947e-05 -0.5268035531 -0.84984886646
-0.16379347444 -0.26219210029 -0.95097392797
0.6887524128 0.5876711607 0.42432621121
0.42417871952 0.68868207932 0.58783698082
0.58753919601 0.42419478297 0.68897849321
0.68009513617 0.59616404772 -0.42667788267
0.57942074537 0.43313843012 -0.69041460752
0.42368605733 0.6891708374 -0.58766019344
-0.33170986176 -0.50564217567 0.79608923197
-0.16202370822 -0.26245880127 0.95125085115
0.00034424322075 -0.52594822645 0.85042518377
0.16259458661 -0.26283121109 0.95101696253
-0.80291950703 0.31847003102 0.50352269411
-0.85133963823 -0.0015578919556 0.52467125654
-0.79590028524 -0.33004400134 0.50716286898
-0.95181155205 0.16063141823 0.26142024994
-0.95133644342 -0.16196829081 0.26216092706
-0.26198208332 0.95178377628 0.15988683701
-0.49946677685 0.8093354702 0.30852103233
-0.26339310408 0.95095676184 -0.16212779284
-0.52459734678 0.85144770145 -0.0022461910266
-0.42519110441 0.68667984009 0.58967351913
-0.68123364449 0.59304535389 0.42933729291
-0.58056640625 0.4327429533 0.68975526094
0.26389029622 -0.95092868805 -0.16179193556
-0.014098918065 -0.99963474274 -0.0032304001506
0.52512788773 -0.85101771355 0.00027956900885
0.26354551315 -0.95087611675 0.16224215925
-0.52527374029 -0.85101884604 -0.00066714186687
-0.50191295147 -0.80884718895 0.30591103435
-0.27202937007 -0.94873839617 -0.16121855378
-0.27248081565 -0.94894599915 0.1589628011
-0.25764831901 -0.86305308342 0.43437296152
-0.015040126629 -0.96191883087 0.27245381474
-0.67697370052 -0.59843254089 0.42850658298
-0.43814450502 -0.68954026699 0.57670766115
-0.58790951967 -0.44093742967 0.6782592535
-0.17909145355 -0.70814985037 0.68285387754

CELLS 152 608
3 0 1 2
3 1 3 2
3 1 4 3
3 2 3 5
3 5 6 7
3 6 8 7
3 6 9 8
3 7 8 10
3 10 11 12
3 11 13 12
3 11 14 13
3 12 13 15
3 15 16 12
3 16 17 12
3 16 0 17
3 12 17 10
3 18 19 20
3 19 21 20
3 19 22 21
3 20 21 23
3 4 24 25
3 24 20 25
3 24 18 20
3 25 20 23
3 18 26 19
3 26 27 19
3 26 28 27
3 19 27 22
3 29 30 31
3 30 32 31
3 30 15 32
3 31 32 28
3 29 33 34
3 33 24 34
3 33 18 24
3 34 24 4
3 30 35 15
3 15 35 16
3 30 36 35
3 36 37 35
3 36 38 37
3 35 37 16
3 38 36 29
3 29 36 30
3 16 37 0
3 37 38 0
3 31 39 29
3 29 39 33
3 31 40 39
3 40 41 39
3 40 26 41
3 39 41 33
3 26 40 28
3 28 40 31
3 33 41 18
3 41 26 18
3 2 42 0
3 0 42 17
3 2 43 42
3 43 44 42
3 43 7 44
3 42 44 17
3 7 43 5
3 5 43 2
3 17 44 10
3 44 7 10
3 38 45 0
3 0 45 1
3 38 46 45
3 46 47 45
3 46 34 47
3 45 47 1
3 34 46 29
3 29 46 38
3 1 47 4
3 47 34 4
3 48 49 9
3 9 49 8
3 48 50 49
3 50 51 49
3 50 11 51
3 49 51 8
3 11 50 14
3 8 51 10
3 51 11 10
3 52 53 9
3 9 53 54
3 52 55 53
3 55 56 53
3 55 21 56
3 53 56 54
3 21 55 23
3 23 55 52
3 54 56 22
3 56 21 22
3 3 57 5
3 5 57 58
3 3 59 57
3 59 60 57
3 59 25 60
3 57 60 58
3 25 59 4
3 4 59 3
3 58 60 23
3 60 25 23
3 58 61 5
3 5 61 6
3 58 62 61
3 62 63 61
3 62 52 63
3 61 63 6
3 52 62 23
3 23 62 58
3 6 63 9
3 63 52 9
3 32 64 28
3 28 64 65
3 32 66 64
3 66 67 64
3 66 13 67
3 64 67 65
3 13 66 15
3 15 66 32
3 67 13 14
3 27 68 22
3 22 68 69
3 27 70 68
3 70 71 68
3 70 65 71
3 68 71 69
3 65 70 28
3 28 70 27
3 69 71 72
3 71 73 72
3 71 65 73
3 72 73 14
3 69 74 22
3 22 74 54
3 69 75 74
3 75 76 74
3 75 48 76
3 74 76 54
3 69 72 75
3 72 77 75
3 72 14 77
3 75 77 48
3 54 76 9
3 76 48 9
3 48 77 50
3 50 77 14
3 14 73 67
3 67 73 65

CELL_TYPES 152
5
5
5
5
5
5
5
5
5
5
5
5
5
5
5
5
5
5
5
5
5
5
5
5
5
5
5
5
5
5
5
5
5
5
5
5
5
5
5
5
5
5
5
5
5
5
5
5
5
5
5
5
5
5
5
5
5
5
5
5
5
5
5
5
5
5
5
5
5
5
5
5
5
5
5
5
5
5
5
5
5
5
5
5
5
5
5
5
5
5
5
5
5
5
5
5
5
5
5
5
5
5
5
5
5
5
5
5
5
5
5
5
5
5
5
5
5
5
5
5
5
5
5
5
5
5
5
5
5
5
5
5
5
5
5
5
5
5
5
5
5
5
5
5
5
5
5
5
5
5
5
5

CELL_DATA 152
SCALARS cell_data_0 double
LOOKUP_TABLE default
8.8466992116e-07
7.76495068529e-07
1.31499002008e-06
1.23119992652e-06
1.00866921271e-06
1.49141949626e-07
4.16266937081e-07
1.18864752402e-07
6.50740232617e-07
1.43936229274e-06
7.08756836747e-07
7.08302437328e-07
3.17583424251e-07
4.72735357805e-07
4.29464097086e-07
6.28499822174e-07
1.02201806144e-06
4.93794451286e-06
2.92099308661e-06
2.80077205167e-06
2.26496441482e-06
4.44595784209e-06
2.96160690202e-06
9.96398705273e-08
7.60594283432e-07
4.16793387827e-06
3.02800605982e-06
3.39923273822e-06
1.19527083493e-08
1.56548584071e-06
2.29635655679e-06
2.844178469e-06
9.07763386453e-07
3.34321853872e-06
2.75709630674e-06
3.03597808541e-06
7.20165182015e-07
4.4033081546e-07
8.30246253346e-07
2.51726515686e-07
5.82926185589e-07
6.90436565566e-07
6.72453129153e-08
5.93416644566e-07
3.41520748985e-07
6.49544059571e-08
2.71804089646e-07
2.13891380274e-07
6.60099053072e-07
2.52201854791e-07
5.36887806661e-07
5.39029400286e-07
3.0389025714e-07
3.88640607876e-07
1.87003416301e-07
1.65366025686e-07
7.10151546435e-07
7.79332567803e-07
1.00563133443e-06
1.79405614238e-07
7.26067281358e-07
1.05434065299e-06
3.64203030578e-07
3.30918685246e-07
3.72207847631e-07
3.19498973156e-07
1.36325605211e-07
1.71050076415e-07
9.90071295252e-07
2.13246083726e-07
1.2103786903e-06
7.20503864057e-07
9.29655478703e-07
6.16733200165e-07
4.67246402397e-07
3.89824916803e-07
8.63548462289e-07
1.48606552231e-06
9.81863472057e-07
1.55661547346e-07
7.15764554496e-07
1.39168576754e-06
1.24979489394e-07
6.99147161963e-07
3.54451924234e-07
2.14630138163e-07
1.10709241152e-06
1.18197540242e-06
7.89172485672e-08
2.35406082238e-07
1.51645585464e-07
1.67135816811e-07
9.77963919923e-07
1.26249677175e-06
1.09990148648e-06
1.98030500316e-07
5.67869138089e-07
5.87968570397e-07
1.83122253845e-07
1.05376608063e-06
1.06161840662e-06
7.34446728954e-07
1.67744420403e-07
8.01851145912e-07
1.03854413428e-06
5.19922577262e-07
2.40583917759e-07
1.0139805231e-06
1.02931309185e-07
1.14821579865e-06
1.00997133947e-06
3.83621869757e-07
7.46184607199e-07
8.5990085303e-07
7.13979582743e-07
9.82683786372e-07
1.12268441637e-06
1.23423957712e-07
3.0519020776e-07
7.68077528114e-07
2.60317579118e-07
5.07952117078e-07
7.94404079378e-07
1.33234462506e-07
2.88207043733e-07
1.08237548492e-07
3.78733423408e-07
5.63414486937e-08
8.18040842909e-08
5.88592250255e-07
9.22865320558e-07
7.02523653397e-07
2.12321213299e-07
2.22614358389e-07
1.25171946146e-07
4.16798548695e-07
2.22941516439e-07
8.754801842e-07
3.80362382271e-07
5.99457934399e-08
6.66990990844e-07
2.7601191344e-07
1.59575802333e-07
2.46366139856e-07
4.36048006691e-07
4.42014725661e-07
8.68081922791e-07
3.3677519129e-07
4.80336369054e-07
1.28712824919e-07
1.15808792287e-07
1.60575184282e-07

