# vtk DataFile Version 3.0
File Name: Molecule/sphere_cent/sphere_cent_0-s36.vtk
ASCII
DATASET UNSTRUCTURED_GRID
FIELD FieldData 1
TIME 1 1 double
0.0
POINTS 1912 double
-0.78902345896 -0.50546127558 -0.34865799546
-0.75544095039 -0.5932623148 -0.27785027027
-0.8282033205 -0.50400418043 -0.24497783184
-0.32795286179 0.9149312377 -0.23525649309
-0.2496201098 0.95511978865 -0.15855710208
-0.23842902482 0.93218547106 -0.2719090879
-0.86267930269 -0.24810737371 -0.44074189663
-0.83340960741 -0.17452453077 -0.52439302206
-0.79206848145 -0.28127405047 -0.54167795181
-0.8040047884 -0.56877565384 -0.17259293795
0.64308422804 0.49475774169 0.58449399471
0.59813398123 0.45200273395 0.6617282033
0.68885916471 0.38518023491 0.61406928301
-0.55976206064 -0.28920090199 0.77654719353
-0.46093049645 -0.3533141613 0.81401073933
-0.46312096715 -0.2591509521 0.84733009338
-0.25591227412 0.36749187112 0.89410966635
-0.27775487304 0.2718963623 0.92130506039
-0.18052101135 0.30717116594 0.93433338404
-0.77423518896 -0.58081662655 0.25140893459
-0.73350137472 -0.65640491247 0.17627075315
-0.69518488646 -0.65615803003 0.29262077808
0.16141150892 -0.10783870518 0.98087823391
0.17167247832 0.013068310916 0.98503607512
0.071007743478 -0.048239938915 0.99628591537
0.082790777087 -0.079151786864 -0.99337512255
-0.033494181931 -0.085263609886 -0.99579536915
0.031364578754 0.013726189733 -0.99941366911
-0.88303411007 0.41383829713 -0.22135208547
-0.90013700724 0.3181309104 -0.29668015242
-0.93102115393 0.31247717142 -0.18856149912
0.95803701878 -0.0060329223052 0.28652054071
0.97562801838 0.081601507962 0.20341560245
0.94175875187 0.11983596534 0.31411492825
0.51739001274 0.54239165783 0.66188728809
0.52190941572 0.46407327056 0.71569269896
0.6223282218 0.69993114471 -0.35022473335
0.69984811544 0.64461505413 -0.30770969391
0.68015760183 0.61402583122 -0.40037208796
0.46182489395 0.14844433963 -0.8742827177
0.36469390988 0.1502032429 -0.91875267029
0.40099024773 0.23248940706 -0.88603293896
0.30037808418 0.2431640476 -0.9222125411
0.13516688347 0.0078587830067 -0.99071675539
0.099061273038 0.11557198316 -0.98834699392
0.20208142698 0.16445094347 -0.96540445089
0.12153533846 0.23408153653 -0.96452587843
0.31442469358 0.39002430439 -0.86536061764
0.21763673425 0.40527123213 -0.88789570332
0.25828048587 0.48388397694 -0.8358310461
0.59710794687 0.7977796793 0.08175085485
0.51494282484 0.85635787249 0.036227110773
0.50689816475 0.85169649124 0.13217534125
0.86741942167 -0.018859863281 0.49728739262
0.91057246923 0.058907590806 0.40905436873
0.85548782349 0.092620849609 0.50947809219
0.89204245806 0.16943816841 0.41894087195
0.24636389315 0.96178507805 0.11880720407
0.23183125257 0.97247314453 0.011812036857
0.14190736413 0.9878320694 0.063113279641
0.10465583205 0.9933937788 -0.041056424379
0.020689986646 0.9995905757 0.019789025187
-0.69425094128 0.29344019294 -0.65701299906
-0.65750420094 0.19143280387 -0.72872585058
-0.73819345236 0.17778967321 -0.65073132515
-0.69978314638 0.073307819664 -0.71054941416
-0.57862347364 0.26772707701 -0.77025562525
-0.57495850325 0.15315456688 -0.80369567871
0.43335458636 0.77533614635 0.45933386683
0.37908238173 0.83364832401 0.4013042748
0.3209964335 0.80945163965 0.49164187908
0.40274709463 0.85165882111 -0.33538481593
0.42275106907 0.87570720911 -0.23229326308
0.49023479223 0.82447093725 -0.28202405572
0.3016462028 0.0072570005432 -0.95334738493
0.38817366958 0.017250131816 -0.9213334322
0.35577112436 -0.078350201249 -0.93124896288
0.51251935959 0.0079896626994 0.85863363743
0.50613987446 -0.11569266766 0.85398942232
0.60264366865 -0.083219207823 0.79360246658
0.58026725054 -0.21584276855 0.78519970179
0.66112351418 -0.16259473562 0.73233127594
0.69147062302 -0.051549308002 0.71988242865
0.60522514582 0.034585788846 0.79472720623
-0.087599791586 0.031898524612 -0.99562615156
-0.0056944098324 0.10776846856 -0.99414986372
-0.20752464235 0.61718392372 0.75895595551
-0.15233154595 0.53689682484 0.82976341248
-0.080874100327 0.58768057823 0.8050236702
-0.051612101495 0.48948520422 0.87047034502
0.26199775934 0.37631267309 0.88859027624
0.31354743242 0.27701872587 0.90825474262
0.34646743536 0.3627358973 0.86508238316
0.35937175155 0.163310498 0.91880822182
0.41421946883 0.22790400684 0.88114970922
-0.13966098428 0.49622288346 -0.85687530041
-0.089536182582 0.41868963838 -0.90370810032
-0.19927872717 0.41750743985 -0.88649922609
-0.041986502707 0.52238798141 -0.85167735815
0.22098760307 0.86874675751 0.44285807014
0.14796774089 0.91548740864 0.37404355407
0.096244521439 0.88360953331 0.45818379521
0.049208834767 0.91731256247 0.39507734776
0.21584296227 0.81053829193 0.54439544678
0.93218070269 -0.23016451299 -0.27892917395
0.89875560999 -0.25104528666 -0.35913750529
0.92422139645 -0.15477287769 -0.3483158052
-0.13734020293 0.69932740927 0.70142591
-0.13825657964 0.7729703784 0.61922103167
-0.22954705358 0.70871692896 0.66712272167
0.10657401383 0.71522539854 0.69070321321
0.019923431799 0.69102424383 0.72251790762
0.10188706219 0.63687944412 0.76389575005
0.39016348124 0.42414364219 0.8171954155
0.29207977653 0.43577811122 0.85125797987
0.79695206881 0.040756788105 0.60217159986
-0.062872745097 0.32620257139 -0.94318121672
0.022525886074 0.39021474123 -0.92040961981
0.23877152801 0.91657489538 0.32046091557
0.26752284169 0.88155978918 0.3883292377
-0.43892398477 -0.87667280436 -0.19628088176
-0.46161296964 -0.88142281771 -0.10013310611
-0.52745938301 -0.83233493567 -0.17023663223
-0.36213332415 -0.92247915268 -0.1335607022
-0.43199494481 -0.68287724257 0.58909213543
-0.39666938782 -0.61734431982 0.67925769091
-0.49987208843 -0.59849476814 0.62605297565
-0.46933877468 -0.53993761539 0.6985861659
-0.56990820169 -0.49959725142 0.65237957239
0.42153707147 -0.61775141954 0.66380172968
0.47267070413 -0.65336740017 0.59131485224
0.52339750528 -0.57620978355 0.62756347656
-0.090033456683 0.38081297278 0.92024046183
0.014878839254 0.41607818007 0.90919882059
-0.09032150358 0.58664226532 -0.80459702015
0.051289316267 0.59953391552 -0.79869067669
0.019418636337 0.69007045031 -0.72336429358
0.13486070931 0.66687875986 -0.73285740614
-0.38464292884 0.63983654976 -0.66481798887
-0.2776144743 0.677298069 -0.68130397797
-0.33790445328 0.58044755459 -0.74086016417
-0.22187507153 0.62113386393 -0.75154221058
-0.15861518681 0.69588029385 -0.70023363829
0.71137487888 -0.46668931842 -0.52542632818
0.64258056879 -0.51174795628 -0.5701597333
0.67591458559 -0.4236010015 -0.60286706686
-0.58787637949 0.55284315348 0.59055358171
-0.58663356304 0.46716582775 0.66153639555
-0.51047670841 0.5435885191 0.66623783112
-0.95070415735 -0.0053086876869 0.30845358968
-0.98009908199 0.012681600638 0.19807867706
-0.9673602581 -0.095917396247 0.23403325677
-0.35412859917 -0.90049934387 -0.25236946344
0.9177094698 -0.048539213836 0.39429068565
0.93382292986 -0.12694260478 0.33418664336
0.8869022131 -0.12160222977 0.44514995813
-0.24845781922 0.77283447981 0.58391129971
0.30510789156 -0.64788049459 0.6978494525
0.37125113606 -0.69011956453 0.62120974064
-0.17732521892 0.40379780531 0.89745426178
0.11598528922 0.42822232842 0.89616298676
0.055719267577 0.4935695231 0.86791813374
0.15550507605 0.51332360506 0.84384429455
0.13909047842 0.52903556824 -0.83711510897
0.20138540864 0.58936530352 -0.78237038851
0.5794724226 -0.62095558643 0.52680271864
-0.30785256624 0.64529746771 0.69915103912
-0.3191922307 0.5568985939 0.76658344269
-0.42250391841 0.63194847107 0.64968782663
-0.33405980468 0.70946037769 0.62052756548
0.25568839908 -0.66501659155 -0.70167952776
0.35359466076 -0.62023431063 -0.69998508692
0.31643715501 -0.70470583439 -0.63442838192
0.41830667853 -0.6992661953 -0.57933348417
0.42449131608 -0.76552391052 -0.48336082697
0.33261802793 -0.76341998577 -0.5536775589
0.47364959121 -0.79687058926 -0.37486705184
0.36665952206 -0.84247195721 -0.39468857646
0.81591242552 -0.051102582365 -0.57590466738
0.80872505903 -0.15572974086 -0.56705665588
0.74264079332 -0.10171100497 -0.66153919697
0.85944283009 -0.091289445758 -0.50295877457
0.85589122772 -0.17248760164 -0.48736459017
-0.71958762407 0.015231259167 0.6942358017
-0.65870445967 -0.049044765532 0.75077748299
-0.64273142815 0.057577461004 0.76382422447
-0.49375420809 0.45637530088 -0.74019992352
-0.58744746447 0.42589077353 -0.68799722195
-0.53090542555 0.52068901062 -0.66860044003
-0.6750767231 0.41424769163 -0.60984635353
-0.61052298546 0.50002217293 -0.6141987443
-0.74337494373 0.34923627973 -0.57038259506
-0.70603018999 0.12562789023 0.69692099094
-0.51358085871 -0.025018317625 0.85763972998
-0.46067589521 -0.10172143579 0.88159132004
-0.42407438159 -0.0040906863287 0.90530651808
-0.45244514942 0.87965536118 0.14649754763
-0.47650453448 0.847843647 0.2326207757
-0.38434755802 0.89586991072 0.22277578712
-0.5416007638 0.82738405466 0.14866133034
-0.41488409042 0.85480922461 0.31166386604
-0.82080549002 0.50316411257 0.2704077363
-0.75343340635 0.59178739786 0.28655153513
-0.79909169674 0.56696635485 0.19983798265
-0.72021102905 0.66719269753 0.19013112783
-0.62356960773 0.70816373825 -0.33108076453
-0.70652639866 0.63415813446 -0.31408938766
-0.67910242081 0.70417237282 -0.20726147294
-0.66126072407 0.62358111143 -0.41685637832
-0.75283282995 0.55433136225 -0.35398218036
-0.94539189339 0.29418471456 0.14030325413
-0.9284080863 0.36646562815 0.060857903212
-0.96458095312 0.26091480255 0.039365176111
-0.9705760479 0.11615302414 -0.21089893579
-0.96692967415 0.20668001473 -0.14941169322
-0.94122767448 0.21828617156 -0.25776511431
-0.99020183086 0.084160730243 -0.11145581305
-0.98139929771 0.18717558682 -0.042654298246
-0.9523370862 0.2971226275 -0.068907774985
-0.98696440458 0.14887270331 0.061184808612
-0.9115691781 0.39414605498 -0.11651295424
0.98566055298 -0.028458146378 0.16623564065
0.97275531292 -0.098524555564 0.20982012153
0.98183858395 -0.14347957075 0.12408134341
-0.24993896484 -0.96112829447 -0.11728425324
-0.27324679494 -0.96125411987 -0.028874594718
[...]
CELL_DATA 3820
SCALARS cell_data_0 double
LOOKUP_TABLE default
3.30786822363e-09
3.16757514265e-11
8.2576046003e-09
2.6832634929e-10
4.98885703642e-10
7.98202073853e-09
2.41378931518e-09
7.14163289543e-09
5.01563185797e-09
9.36924923748e-10
6.74042381517e-09
3.52260974861e-09
1.23284912357e-09
3.038692912e-09
3.97541921313e-09
5.57425598681e-09
1.41042271339e-09
5.393802686e-09
4.41264395324e-09
6.21892397613e-09
3.47917646393e-09
5.33578502249e-09
9.66180890822e-10
6.5702202397e-09
1.02086187925e-08
1.04539950407e-08
3.69487894481e-09
7.01337249409e-09
1.19248005346e-08
5.33851608116e-09
3.62513728037e-09
3.06224621232e-09
3.81397747368e-09
8.38612692377e-09
3.12192787825e-09
5.00390460959e-09
7.38266863062e-09
4.41359570169e-09
5.14594496606e-09
2.61752197549e-09
4.77516385707e-09
8.75554367531e-09
3.37141432068e-09
2.40140209797e-09
8.2510446398e-09
4.43314663971e-09
9.98677016497e-09
8.59326262599e-10
4.43830474595e-09
2.54879925048e-09
2.45768317162e-09
2.99721302165e-09
1.20214594008e-08
8.56590401495e-10
7.87584307619e-09
2.02595265954e-09
9.36602760281e-10
7.79126145558e-10
6.50794567647e-09
2.63251408889e-09
3.26772108929e-09
2.26569925123e-09
8.06622288266e-09
1.12729728471e-08
7.98198047336e-09
1.39829550924e-08
1.31245835791e-08
5.1306120535e-09
1.27490413578e-09
2.13480385245e-09
5.93502138153e-09
6.30504840725e-09
2.5945847754e-09
1.47925487567e-09
4.14177004671e-10
8.12450867719e-10
7.29663531066e-09
1.70962183416e-10
3.0632635026e-09
2.97736637721e-09
2.50700654231e-09
2.71939398038e-09
7.26157405322e-09
1.22854668016e-10
4.50913904475e-09
9.63666707328e-09
5.1982262163e-09
4.64547334132e-09
3.69114035261e-10
9.37651177528e-09
1.98558875849e-09
4.38502031104e-09
8.6719395806e-09
5.96167278728e-09
1.54012810779e-08
1.29264607509e-08
5.78870028377e-10
5.30225240189e-11
3.0846535621e-09
2.28174347172e-10
7.05071485449e-09
1.43295840847e-08
2.2510489179e-09
8.47077122724e-09
1.09699868918e-10
1.53626735047e-09
1.31275860048e-09
4.59504420923e-10
8.95123234086e-09
1.2023418615e-08
6.60642963588e-10
1.26389144868e-08
9.26668975539e-10
7.2676758527e-09
8.70611335173e-09
3.56401773271e-09
1.26853595886e-08
6.42709615569e-09
4.25619286012e-09
8.82121581696e-09
5.08320462028e-09
5.96580398662e-09
1.50405074206e-08
2.16666492154e-09
1.40345508493e-09
7.00383149505e-09
1.36531992399e-09
6.98529301817e-09
1.24330730902e-08
1.05133021677e-08
8.99537617613e-10
2.73369976837e-10
4.14014869929e-09
5.53948036827e-09
3.84725121073e-09
7.98847422889e-10
4.70833868426e-09
8.74984583128e-09
5.58281119396e-09
1.15576129012e-10
1.39367101862e-08
1.917075206e-09
6.67770607175e-09
4.71172794613e-11
1.61978636477e-09
3.01804609289e-11
1.83370473581e-09
8.7005476113e-10
5.07640461415e-10
1.07596949833e-08
1.18871026865e-09
7.17839968612e-09
1.44295640673e-09
4.20264486752e-09
2.11084129243e-09
4.44521326283e-09
7.01918308288e-09
8.66227561508e-09
4.40253845633e-09
8.35146009835e-09
5.17402599649e-09
1.58510542747e-09
6.71092430806e-09
1.3119960109e-09
2.98872947028e-11
4.30535462334e-09
7.08608007201e-09
4.59229053934e-09
3.46517219477e-09
2.75426285644e-09
2.18405203718e-09
9.34193752204e-09
5.94418288045e-09
2.0025412566e-09
1.20372275437e-09
4.90872772737e-09
2.73927964539e-09
3.5254828363e-09
2.53567208916e-09
2.75298909756e-09
8.31309896678e-09
5.04170356669e-09
3.78683124821e-09
2.16983722484e-09
7.8880275284e-09
2.33254450838e-09
8.01660005311e-09
6.68737476665e-09
9.31544966887e-10
1.06497255889e-08
1.14683931643e-08
3.5682707749e-09
2.15876159248e-09
7.22686289012e-09
1.99934235897e-09
2.06029006128e-09
6.5423990615e-09
2.37579528356e-09
4.55080776516e-09
7.28274903395e-09
6.65059871091e-09
4.76720895262e-09
5.86888833057e-09
9.11113723707e-09
5.23186860802e-09
4.47763664001e-09
3.52380064278e-09
4.13081295836e-09
2.42186530311e-09
5.26547463777e-10
1.73374046676e-09
3.89129712448e-09
1.62821142819e-09
5.58821667397e-09
1.47850508114e-09
2.75212091169e-09
3.48987362346e-09
1.75267043868e-08
2.6290488945e-09
1.17531479075e-08
1.96945296586e-09
3.17362560539e-09
5.75929581274e-09
7.76101953337e-10
4.74515705472e-09
4.61431383149e-09
3.6328912531e-09
6.99552653667e-09
4.76682438558e-10
1.85722841426e-09
5.00947968942e-09
2.67140342385e-09
2.4496608155e-09
2.66109146343e-09
8.82041393341e-10
3.99573157596e-09
1.51633974133e-09
2.8970029953e-09
5.43652294078e-09
4.50364411187e-09
4.60392433497e-09
2.52278917147e-09
8.73654240291e-09
7.89672616828e-09
1.87769321811e-09
4.33638097795e-09
4.71542802347e-10
2.81149807498e-10
2.67560068629e-10
4.37587076497e-09
7.94917899177e-10
4.15639557187e-09
3.02051904733e-09
4.19762978016e-09
1.9619716067e-09
9.52992243471e-11
1.32929976624e-09
5.44510089748e-09
2.82606557877e-09
3.30338179461e-09
2.80111936763e-09
7.71205774003e-09
3.51622064184e-09
3.11871689404e-09
1.94149991694e-10
1.21138128623e-09
2.86255479202e-09
3.13029674084e-09
1.50369216365e-09
5.32832805732e-09
1.34422467444e-09
5.85622236991e-09
1.31198347895e-09
8.11851847133e-10
3.86805859474e-09
4.66565664362e-09
3.96921580325e-09
7.13768832696e-09
1.91109224118e-09
6.60934186989e-10
4.68692200266e-09
3.4421737389e-09
3.66383913042e-09
2.16924174272e-09
5.40029539166e-09
5.0875057782e-09
1.02376995847e-09
3.5200187629e-09
1.06904105643e-09
5.26508370995e-10
2.53454050299e-09
3.63975322118e-09
7.55782985585e-10
5.05556957661e-09
3.92854039608e-09
4.23404926e-09
3.35512966635e-09
4.98382995126e-09
3.81221139683e-09
6.95503130918e-10
2.96784545287e-09
2.62821139226e-09
5.56167204243e-10
2.34366234986e-09
2.44401499619e-09
6.57633825861e-09
2.45309501013e-09
3.60415887201e-09
6.42019156312e-09
3.81337534082e-09
9.07310911573e-10
1.76450520289e-09
1.81588080238e-09
8.45255465264e-10
2.91978934625e-09
2.265047467e-10
3.98260900081e-09
2.76264078315e-09
5.84725914968e-10
7.32523746637e-10
6.31349679988e-10
2.85240909162e-09
6.09078544866e-09
3.47942525049e-10
1.07139356994e-10
1.11855613408e-10
3.39751032734e-09
2.8964157786e-09
2.57317149388e-09
3.7716185883e-09
3.79320386006e-10
6.63353140143e-09
2.28304353034e-09
1.26459209981e-09
9.11539511463e-09
7.48552908082e-09
9.20919576237e-09
5.65130127828e-10
1.15217731057e-09
2.12197596628e-09
5.19324981048e-09
1.62977239905e-09
6.65470272974e-09
9.62098869746e-09
2.93904208246e-09
5.76387832899e-09
1.93961841204e-10
1.77418804015e-09
5.39606083577e-09
7.13368429749e-09
1.06959524732e-09
2.57088892442e-09
4.42893886891e-10
5.45348050814e-09
5.50545620625e-09
6.71740132464e-10
1.56117646116e-09
3.71639006919e-09
3.21747300232e-09
4.19822924312e-09
3.19713877854e-09
1.14058648924e-09
2.26778812334e-09
2.58512753083e-09
1.5400834645e-10
2.79740607331e-09
1.94533098959e-09
1.34879606093e-10
4.33979294799e-09
3.02716206858e-09
2.33403570707e-09
2.83007592919e-09
8.74506093983e-09
5.97887937398e-09
4.84839391414e-09
5.96137434785e-09
3.47415730886e-09
2.14011672555e-09
5.25979593002e-09
2.59595812858e-09
6.45836478334e-09
2.70972965683e-09
1.26549386752e-10
3.70150042303e-09
2.33114614622e-09
2.75162959631e-09
4.19272637015e-10
2.73763427066e-09
2.69448842905e-09
8.00308662167e-09
3.76823065532e-09
1.36380769195e-09
2.99842718578e-10
2.70330600062e-09
2.14622141071e-09
2.70671583465e-09
2.22583023967e-09
1.81362568293e-09
1.44757433632e-09
2.21772903406e-09
2.29722478749e-09
1.10529526903e-09
4.20121536186e-09
1.00630809051e-08
3.48191089186e-09
1.17641943136e-09
1.5167232787e-09
2.88665082933e-09
2.17161954098e-09
1.81699399676e-09
1.82590208903e-09
4.47465341866e-09
3.50780365496e-09
5.59362384769e-09
1.50892892097e-09
8.88899949548e-09
6.1202339399e-09
1.45285217092e-09
1.06815452446e-09
8.61681243594e-09
2.1108814774e-09
1.02162045418e-08
3.37120607611e-10
7.20317562006e-10
2.98804669118e-09
3.00279923317e-10
7.76721179539e-10
2.1794347051e-09
2.83100103169e-09
3.93993519931e-09
2.39812218979e-09
3.5654940337e-09
4.32639087883e-10
3.5878537868e-10
7.63141037978e-10
4.15364292815e-09
1.73633705061e-09
5.19751399454e-09
9.59908346742e-11
7.57086901494e-10
2.19708098725e-09
1.75389353674e-09
5.65039566159e-10
4.04720870515e-11
7.16411612158e-09
3.97000247632e-09
3.37819580962e-09
6.36708455326e-10
4.47137813167e-09
9.21150984961e-11
3.06283602707e-09
5.3066357049e-09
4.84219651305e-09
3.15636467957e-09
8.64879452458e-09
2.70773687484e-09
2.40761047252e-09
2.59752205936e-09
5.12124183407e-09
1.67280979739e-08
9.73769581251e-10
8.0649800333e-09
4.52282667575e-09
1.20150417516e-09
3.03121650244e-09
8.60480696359e-10
2.5018118367e-09
7.27726322159e-09
1.72275708146e-10
1.76551542227e-09
2.48086847689e-09
1.00071767707e-09
2.37043727397e-10
9.77673439223e-09
5.26743795796e-09
2.55408714276e-09
2.28510484901e-09
4.2627636553e-09
2.44496895528e-09
1.58095209949e-08
9.98698350154e-10
5.5230425946e-09
6.11613075624e-09
6.43027583147e-09
3.70084421337e-10
2.46865671153e-09
3.02853998541e-10
2.6204855467e-09
2.80236066602e-09
2.82593157209e-09
4.28181936603e-10
1.58270472578e-10
2.06077123829e-09
1.62421338598e-09
5.13920614825e-09
1.0784321236e-09
5.82756770518e-09
9.40525032403e-11
5.26451755763e-09
1.44006252928e-09
8.32530648712e-11
4.81374972051e-09
2.09199295435e-11
8.92867768965e-10
1.45370052534e-09
5.83685389566e-09
7.89829560483e-10
7.31981515852e-09
3.86549697167e-09
8.33656930996e-09
4.57168600678e-09
3.24373610044e-09
7.66212446392e-11
3.30133708794e-10
5.69683854237e-09
4.37837765032e-09
3.54416503193e-09
5.84755597211e-09
3.35641401425e-09
4.88476208467e-10
7.62102445414e-10
8.62354342894e-11
5.18367311479e-09
4.11643687371e-09
2.03621743258e-09
2.98278620008e-10
4.73016840129e-09
1.20764905557e-09
4.98899827465e-09
1.03707001116e-09
5.25529200522e-09
1.61468218031e-11
3.31580954395e-09
1.92332495969e-09
2.13126056449e-09
1.86311420336e-09
4.43957397072e-09
1.51268153042e-09
4.95885573851e-09
6.76348327085e-09
5.91649267198e-10
2.90149582275e-09
5.22273482891e-09
6.19162597686e-09
2.83270456048e-09
4.2373769103e-09
2.48876989362e-09
2.18364948741e-10
3.48947999217e-09
4.1178773789e-10
6.47355811557e-10
1.12169505006e-08
6.45632438226e-09
4.58438591276e-09
2.59182997395e-09
3.51307006027e-09
4.36250828704e-09
1.16989664985e-09
1.5643432757e-09
3.12874698416e-09
5.3707850316e-09
1.25212721809e-09
1.80304483382e-09
1.05026533363e-08
9.14854547997e-10
8.17183674189e-09
4.33880919214e-09
1.66257317396e-09
2.97861189265e-09
6.5018498054e-09
6.14678497507e-10
1.60786676862e-10
1.42774928158e-09
8.70569249813e-10
3.03737927862e-09
5.82591088068e-09
5.3290147066e-09
5.03585356678e-09
1.18842187109e-09
3.14326423286e-09
7.03305726125e-10
1.50592183592e-09
3.1299441685e-09
8.11436657957e-09
1.67207136769e-09
2.96213775711e-09
3.67293758135e-09
3.18221916095e-09
1.99631086295e-09
4.39852180714e-09
2.43788029404e-09
1.51038343064e-09
2.73332410571e-09
4.46013694491e-09
2.5456777673e-09
7.54383265624e-09
1.07212875369e-08
2.53128338503e-09
1.19295291296e-08
9.75229590853e-10
1.27319722274e-08
1.84213269423e-09
2.98317196214e-09
2.57934717992e-09
1.87431770338e-09
7.59976099705e-09
4.0033742721e-09
3.41825651898e-09
9.55879448497e-09
1.30794875483e-09
5.70387656535e-09
5.64163377313e-09
1.02124704836e-08
3.65961290424e-09
9.13520060137e-10
1.12478471878e-09
8.69533256502e-10
8.21184729973e-09
5.15882442579e-09
1.05330256316e-09
1.96490271011e-09
1.77976857678e-09
1.86990670858e-09
2.70399972525e-10
1.64849558606e-10
7.46478463868e-09
5.89309995896e-09
8.26001540863e-09
8.2751360193e-09
2.53432753604e-11
3.49894392304e-09
2.40642247698e-10
7.28476839774e-09
5.59525700761e-09
6.90381156831e-09
8.43346162586e-09
6.97571413919e-10
1.14116566702e-08
1.21655134511e-08
2.86830480345e-09
3.35766854019e-10
6.40550998234e-09
3.01167506021e-09
3.72950765046e-09
4.37627063789e-09
1.22328745804e-09
2.09092209129e-09
4.6864616424e-09
6.27726404976e-09
4.11144683006e-09
2.38866215536e-09
4.50094691845e-09
1.11313752831e-09
5.84173313756e-09
4.09903795286e-09
5.63667730824e-09
5.45977327449e-09
5.32873106941e-09
3.13796179778e-09
4.64065835724e-09
7.693132243e-09
5.66773485596e-09
3.5614365922e-09
5.95592106596e-09
4.57684301483e-09
1.25495923169e-10
3.04529103166e-09
3.20298546598e-09
3.48510424367e-10
2.85518128136e-09
5.02454985838e-10
3.09070353148e-09
4.25488786327e-09
6.38293622753e-11
5.39703031675e-09
2.83366549266e-09
8.83894255059e-09
5.39495681067e-09
4.99272563464e-09
1.34000164451e-09
8.4348758501e-10
1.36154157587e-10
1.77106162903e-09
5.55923403843e-09
1.94939772752e-09
2.24090305398e-09
2.32267218365e-09
7.89553221276e-09
1.55150291134e-09
3.2366894254e-09
2.15423675661e-09
2.71305666358e-09
4.35442235697e-09
1.69015033351e-10
3.83105872212e-09
5.09468869898e-09
4.16419606048e-09
2.2166463761e-09
4.43337343641e-09
6.02983386277e-10
2.75119737839e-10
2.98025844478e-09
4.31028823763e-09
8.23106372057e-09
1.96787979821e-09
1.85440632076e-10
2.10987593078e-09
4.31130262454e-09
1.5552943326e-09
2.24589293871e-09
1.51037446159e-09
5.52948328283e-09
3.47106893667e-09
4.70422020167e-09
9.29313946027e-09
6.72575956204e-09
4.84531025154e-09
3.23895006375e-09
9.58390976544e-10
1.44101342788e-10
1.54568377954e-09
4.92302102507e-09
2.81377930758e-09
8.37115618901e-10
1.23067190416e-10
1.64381497814e-09
9.2442461229e-10
9.54931785336e-10
1.34140724573e-08
3.10011038762e-09
6.19929762046e-09
1.05684204988e-09
2.53640446314e-09
1.62539457639e-09
3.08487213215e-11
1.21405446113e-09
1.82565097472e-09
2.97647416846e-09
1.49537546472e-09
3.8847233323e-09
4.15884501985e-09
2.79313943449e-10
7.81336261836e-09
5.91356693976e-09
5.19689262077e-09
3.78158096223e-09
4.52146454349e-09
4.42835323086e-09
8.42284327423e-09
1.480084363e-09
4.92231507879e-09
6.14134458546e-09
3.53584564964e-09
4.97162245158e-09
1.16163868864e-09
3.13756218126e-09
9.05206022323e-10
1.20837192838e-09
1.62063811994e-09
3.5898445472e-11
1.08185894461e-09
7.85712850341e-10
7.98898755635e-09
5.58335993111e-09
3.13441174809e-09
2.82138800703e-09
3.41107218195e-09
3.49241480723e-09
5.06205099337e-10
4.91561943572e-09
8.54937574914e-10
4.52795294938e-09
4.71079617152e-10
1.15635575724e-09
5.25916399743e-09
2.07882982302e-09
3.02226023597e-09
3.99534282521e-09
4.31418977414e-09
3.54482509984e-09
6.23293868095e-09
1.95934505419e-09
3.44846658935e-09
9.74895304547e-09
5.58656343723e-09
1.82769679328e-09
2.27165732573e-09
6.15679180131e-09
3.24698193989e-09
1.10269008559e-09
4.38757043399e-09
3.06272499296e-09
5.03899394919e-09
2.86016136103e-09
1.95881354438e-09
3.8400487067e-09
1.19989193725e-09
3.55615252486e-09
9.29727502873e-09
7.45154233088e-09
2.29096142412e-09
2.10281964232e-09
1.09230055889e-09
7.32521272787e-09
1.51405358085e-09
3.5352617772e-10
1.2211115155e-09
3.29755320629e-09
4.64040994899e-09
1.85656256654e-09
5.15942739025e-09
3.17452248618e-09
3.87166064167e-09
3.47942392961e-10
9.98364426938e-10
1.01610213561e-10
4.51044490128e-10
4.07001421634e-10
1.58045618362e-09
4.11231384402e-10
6.03225524586e-09
2.54814236166e-10
4.39106864435e-10
2.43937987205e-09
1.94239668093e-09
1.60012043265e-08
8.78576284614e-09
1.14140229069e-09
3.00027112165e-09
1.23673354205e-08
4.50023581682e-10
9.8004535904e-09
4.99896305435e-09
9.4453897242e-10
3.44460725322e-09
1.67258115029e-11
5.32527541582e-09
7.8104403103e-09
5.70278573964e-10
2.48113251381e-10
5.31110953091e-09
6.23896788352e-09
4.38972981249e-09
4.96766048531e-09
4.46208157157e-09
4.01679386793e-09
1.12955350835e-09
1.20124430215e-09
5.42262748935e-09
2.39591128812e-09
2.05065628988e-09
1.97852452417e-09
2.51892793286e-09
5.73443532367e-09
4.1622080553e-10
2.22927382226e-09
4.47479850475e-10
5.4077204926e-09
4.06664825076e-09
9.64702044046e-10
1.69130278345e-10
2.84673489534e-09
5.51953629399e-09
2.28819629369e-09
1.2134822593e-09
5.5430312448e-09
9.81653313241e-09
6.04389535905e-09
8.24341872296e-09
6.06105216279e-09
4.45950126248e-09
2.58100285096e-09
4.19624838299e-09
1.37348099444e-09
8.06842856568e-11
6.55191858316e-09
1.26851610779e-09
1.37776409546e-09
6.01992392441e-10
1.36033121461e-09
1.38849823659e-09
4.00825423461e-09
2.88078985699e-09
2.70128474521e-09
2.59655698978e-09
3.24351172378e-09
1.86367131163e-09
3.4398234568e-10
1.27419186141e-09
3.77618685423e-09
2.37820803063e-09
4.14762075166e-09
3.62852794149e-09
4.39703036069e-09
3.20973449258e-09
6.23572765247e-09
1.6674105531e-09
3.78991995988e-10
4.48202711388e-09
1.1946109824e-09
5.04499272133e-09
1.08074775524e-09
4.36472741671e-09
1.86662831246e-09
5.96487292592e-09
3.86616373045e-09
2.36160905447e-09
8.40538939497e-10
6.37380092686e-09
3.48567803937e-09
4.29814600229e-09
5.34073348922e-09
2.42975733857e-09
5.17962489395e-10
8.84347413796e-10
4.7492974393e-09
7.16671671128e-09
6.09286084535e-10
1.15778036844e-09
1.00528715596e-09
4.63468899246e-09
4.50561157641e-09
5.91367681893e-09
1.5250875128e-08
1.72514772118e-09
2.98037261104e-09
3.39404829311e-09
2.3704898625e-09
8.71992371063e-10
2.48072276404e-09
1.87298116696e-09
3.99799727965e-12
1.87631858128e-09
3.71129941549e-09
2.05622787651e-09
1.83889143116e-09
2.16689339994e-09
6.82913703819e-09
3.74734400473e-10
9.48320621949e-10
7.34836944669e-10
2.1219562096e-09
3.21345192125e-10
2.09544307662e-10
7.61230622807e-11
1.67834919365e-09
4.83100122668e-10
1.91085458608e-09
4.45958728009e-09
3.165629473e-10
1.33033096706e-09
5.27494385021e-10
1.03732567293e-09
1.64034456891e-09
4.91113867058e-09
6.80393909296e-09
2.91765971363e-09
5.31666660232e-09
8.92916952589e-10
2.79459805265e-09
2.4905000152e-09
2.69065315009e-10
2.05819952232e-09
2.77382809392e-09
4.68566130623e-10
5.19868530742e-09
6.19258677532e-09
7.14345669655e-09
1.38971222129e-09
4.17952916219e-09
2.48226644432e-09
1.76185514425e-10
1.40944718083e-09
1.90060184934e-10
4.14806605762e-09
2.62038481096e-09
1.55850251601e-09
5.09357433557e-10
2.47699332325e-09
3.39075487473e-09
3.54341058086e-09
6.19573775649e-09
2.84094585929e-09
2.96317246849e-09
8.53350159016e-10
3.02871948438e-09
4.42169793711e-09
4.18392979768e-09
1.78026112249e-09
2.60412816495e-09
2.72899828732e-09
5.93833011801e-10
1.54502863385e-09
4.34067731353e-09
3.06327565823e-09
3.73030921133e-09
1.16073826354e-09
3.54374114259e-09
8.29006153408e-09
6.71671328827e-10
3.02922775051e-09
9.71304808422e-10
6.00815195142e-10
3.0387660788e-09
4.91661019664e-09
4.99065596966e-09
5.88560443262e-09
1.68556836791e-11
2.02446213574e-09
3.4863467692e-10
3.50196548819e-09
5.6556975757e-09
2.13286085546e-09
2.91065174497e-09
1.54246677398e-09
1.63571865479e-09
8.91629952948e-09
7.41267650753e-09
5.97273779942e-09
2.12169462408e-09
1.60057847684e-09
2.57948281136e-10
2.25358734669e-09
1.49686279703e-09
5.9496668512e-09
3.57032121712e-09
1.89208595418e-09
1.26461245797e-09
4.16564361704e-09
5.56398536212e-10
1.21736772564e-09
3.38534112301e-09
4.41701110469e-09
2.55343024409e-09
1.29487364563e-09
2.47886857365e-09
2.14957058004e-09
3.60882317008e-10
2.39196976388e-09
2.01422590952e-09
1.64976141115e-10
3.52840060589e-10
6.55614005764e-10
1.82235689029e-09
2.54090889312e-09
1.45856764807e-09
3.72846480583e-09
2.51423369267e-10
3.43050081465e-09
1.46653950126e-09
2.01150818072e-09
4.81818507244e-09
3.04305693402e-10
2.4710532998e-09
6.74999967917e-09
2.43082204789e-10
5.93041402769e-10
2.90590557575e-09
1.25238354266e-09
9.39143883389e-10
9.27975436329e-10
6.19261404031e-10
2.39809476826e-09
4.79234329932e-09
4.1966437986e-09
5.86910006602e-09
5.01864585421e-10
3.46723452721e-09
1.82781791107e-10
4.80844838595e-10
2.46317788683e-09
8.92585572355e-10
2.92850721045e-09
7.79026085121e-09
3.21569618463e-09
1.37207624807e-09
4.07180245117e-09
3.16020494552e-09
6.58020355615e-10
8.80504541662e-10
1.48470521967e-09
4.75669678485e-10
3.55489286966e-09
2.02215581502e-09
2.36725406042e-10
3.64461351884e-09
9.32499092244e-10
5.54935929919e-10
4.24146461625e-10
1.19598526179e-09
1.44181641869e-09
5.34643523597e-10
3.52110433033e-09
2.82462365849e-09
4.63608491171e-11
4.05325796973e-09
3.14822595162e-09
1.59921192827e-09
4.92489728997e-09
2.59446497149e-09
2.65178503453e-10
9.01907812212e-09
1.30096979786e-09
8.35621316464e-09
2.62798597518e-10
3.27386563797e-09
1.44694198442e-09
1.17001411299e-08
8.71970830376e-09
1.57155886373e-09
9.10497080527e-10
3.6373737579e-12
1.45573052483e-09