# vtk DataFile Version 3.0
File Name: Molecule/sphere_cent/sphere_cent_0-s2.vtk
ASCII
DATASET UNSTRUCTURED_GRID
FIELD FieldData 1
TIME 1 1 double
0.0
POINTS 51 double
0.85076069832 0.52562022209 0.00011022548279
0.79957824945 0.32155770063 -0.50414532423
0.49980542064 0.80909353495 -0.30889043212
0.30877164006 0.49999761581 -0.80902034044
0.52579915524 -0.00017859411309 -0.8506500721
-2.7613602072e-08 0.85065078735 -0.52573114634
0.49415174127 0.81579530239 0.29507768154
-0.00019794979016 0.99992316961 -0.00013235304505
0.00028761909925 0.8506000042 0.52581012249
-0.4999358952 0.80893659592 0.30899301171
-0.4999473691 0.80892777443 -0.30898851156
-0.85065078735 0.52573114634 -4.0769148058e-09
-0.30897438526 0.49995625019 0.80893701315
-0.80892944336 0.3089825511 0.49994665384
-0.52573108673 -2.456071968e-08 0.85065078735
0.29481598735 0.49391630292 0.8159724474
-0.00013663212303 -0.00019869151583 0.9999230504
0.52581006289 0.00028981873766 0.85059905052
-0.30898693204 -0.49994766712 0.80892765522
0.30899459124 -0.49993574619 0.80893647671
9.9585006907e-09 -0.85065078735 0.52573102713
0.80881476402 -0.30908998847 0.50014579296
0.49996107817 -0.80892854929 0.30897524953
0.85077863932 -0.52551859617 -0.00018017771072
0.99765384197 -2.6332754715e-06 0.017326293513
0.81567692757 0.29432359338 0.49374178052
-0.52552229166 -0.00017822963127 -0.85077792406
-0.80909603834 -0.30890083313 -0.49978968501
-0.80892771482 0.3089773953 -0.49995997548
-0.9998922348 3.3120517173e-07 3.9723859118e-06
-0.85065078735 -0.52573108673 1.863833532e-08
-0.3090852499 0.50012874603 -0.8088157773
-0.50001215935 -0.80901134014 -0.3087630868
-0.49994692206 -0.80892831087 0.30898657441
1.7831592913e-06 -0.99989581108 -1.5913537936e-05
2.0601146389e-07 -0.8504884243 -0.52598905563
-0.80892914534 -0.30898344517 0.49994572997
-0.32207643986 -0.50429958105 -0.79914629459
0.49984893203 -0.8091853261 -0.30867227912
0.79843497276 -0.32230979204 -0.50420755148
0.32210129499 -0.50434851646 -0.79851031303
0.00017234317784 0.016458027065 -0.99825066328
0.9510756135 -0.16188833117 -0.26322764158
0.85100454092 -6.0060585383e-05 -0.52523082495
0.95111370087 0.16191914678 -0.26313409209
0.16196164489 -0.26324874163 -0.95107680559
7.9855926742e-06 -0.52516585588 -0.85102063417
-0.16188961267 -0.2632420063 -0.95106506348
0.68791496754 0.58776593208 0.42589062452
0.42591533065 0.68781983852 0.58781778812
0.58781057596 0.42588806152 0.6878464222

CELLS 98 392
3 0 1 2
3 1 3 2
3 1 4 3
3 2 3 5
3 0 2 6
3 2 7 6
3 2 5 7
3 6 7 8
3 8 7 9
3 7 10 9
3 7 5 10
3 9 10 11
3 8 9 12
3 9 13 12
3 9 11 13
3 12 13 14
3 8 12 15
3 12 16 15
3 12 14 16
3 15 16 17
3 14 18 16
3 18 19 16
3 18 20 19
3 16 19 17
3 17 19 21
3 19 22 21
3 19 20 22
3 21 22 23
3 23 24 21
3 24 25 21
3 24 0 25
3 21 25 17
3 26 27 28
3 27 29 28
3 27 30 29
3 28 29 11
3 5 31 10
3 31 28 10
3 31 26 28
3 10 28 11
3 30 32 33
3 32 34 33
3 32 35 34
3 33 34 20
3 30 33 36
3 33 18 36
3 33 20 18
3 36 18 14
3 14 13 36
3 13 29 36
3 13 11 29
3 36 29 30
3 26 37 27
3 37 32 27
3 37 35 32
3 27 32 30
3 35 38 34
3 38 22 34
3 38 23 22
3 34 22 20
3 4 39 40
3 39 38 40
3 39 23 38
3 40 38 35
3 4 41 3
3 41 31 3
3 41 26 31
3 3 31 5
3 39 42 23
3 23 42 24
3 39 43 42
3 43 44 42
3 43 1 44
3 42 44 24
3 1 43 4
3 4 43 39
3 24 44 0
3 44 1 0
3 40 45 4
3 4 45 41
3 40 46 45
3 46 47 45
3 46 37 47
3 45 47 41
3 37 46 35
3 35 46 40
3 41 47 26
3 47 37 26
3 6 48 0
3 0 48 25
3 6 49 48
3 49 50 48
3 49 15 50
3 48 50 25
3 15 49 8
3 8 49 6
3 25 50 17
3 50 15 17

CELL_TYPES 98
5
5
5
5
5
5
5
5
5
5
5
5
5
5
5
5
5
5
5
5
5
5
5
5
5
5
5
5
5
5
5
5
5
5
5
5
5
5
5
5
5
5
5
5
5
5
5
5
5
5
5
5
5
5
5
5
5
5
5
5
5
5
5
5
5
5
5
5
5
5
5
5
5
5
5
5
5
5
5
5
5
5
5
5
5
5
5
5
5
5
5
5
5
5
5
5
5
5

CELL_DATA 98
SCALARS cell_data_0 double
LOOKUP_TABLE default
1.50383817907e-06
2.74666954764e-06
8.45878223916e-08
1.35224889324e-06
1.37620981687e-06
2.64335807837e-06
1.31170518266e-06
3.49382907191e-07
1.15140802797e-06
2.59186111893e-06
4.93234602907e-07
3.51425748008e-07
1.22713576135e-06
1.12214975905e-06
1.58357070583e-06
4.00520234823e-07
2.72846585016e-07
2.45791993347e-06
8.70870840849e-08
1.19328858752e-06
3.18972048535e-07
3.28009769068e-06
8.2176749669e-07
8.16750213305e-07
4.32772622121e-07
2.43549482796e-06
5.11382667917e-07
4.08747927592e-07
1.70868645366e-08
5.4590743654e-07
2.9493502153e-07
3.11142365478e-07
1.1703694654e-06
2.49564429872e-06
5.13431952481e-07
4.45312852604e-07
5.0238977949e-07
2.58104252413e-06
1.17947212721e-06
3.5091173829e-07
1.31463910254e-06
2.00006928019e-06
9.70569803786e-07
3.73509469065e-07
1.39745563201e-06
1.91385204642e-06
3.68186955007e-07
3.3570820473e-07
1.15346162467e-08
2.91428583769e-06
4.53684140138e-07
1.65359966465e-07
8.60638043528e-07
1.30939017828e-06
9.74245222775e-07
1.23021602267e-06
9.56638645248e-07
2.14088941749e-06
7.40478718516e-08
2.68332215007e-07
8.5909919696e-07
1.11447043994e-06
4.24241272019e-07
8.65673473549e-07
9.47235866086e-08
2.21534863372e-06
4.46191338522e-07
1.80138506588e-06
4.24844037755e-07
4.04326791114e-07
7.67110567186e-07
5.11171608567e-07
3.57895692437e-07
7.54209929563e-07
4.07261098673e-07
1.1384236101e-06
4.87465670342e-07
1.95729841994e-07
1.11235052152e-06
4.00283665248e-07
7.5174492996e-07
5.05355708006e-07
7.92413425599e-07
3.61413387307e-07
1.17130798457e-06
1.12386403454e-06
1.96443996991e-07
9.00016640895e-07
1.33764888008e-07
5.064136124e-07
4.07198756557e-07
5.04931218108e-07
4.11809869463e-07
7.65730408554e-07
2.52077105105e-07
2.58264854474e-07
5.65880230905e-07
3.5284966102e-08

