# vtk DataFile Version 3.0
File Name: Molecule/sphere_excent/sphere_excent_0-s3.vtk
ASCII
DATASET UNSTRUCTURED_GRID
FIELD FieldData 1
TIME 1 1 double
0.0
POINTS 642 double
0.850650808352 -0.525731112119 0.0
0.864929335863 -0.484441642061 -0.131200378813
0.915043421233 -0.403355348617 0.0
0.924304600611 -0.358228793487 -0.131655371352
0.862668480416 -0.433888564553 -0.259891913008
0.961938357784 -0.273266528913 0.0
0.916244175191 -0.301258879093 -0.264082750659
0.966392597402 -0.220117027473 -0.132792476828
0.951056516295 -0.162459848116 -0.26286555606
0.843911474622 -0.375038567478 -0.383613732685
0.891006524188 -0.238676930319 -0.386187385588
0.809016994375 -0.309016994375 -0.5
0.990438881957 -0.137952242128 0.0
0.987688340595 -0.0822424652791 -0.133071104141
1.0 0.0 0.0
0.840177885327 -0.15643446504 -0.519258489728
0.912982492932 -0.0823235800317 -0.399607051702
0.850650808352 0.0 -0.525731112119
0.912982492932 0.0823235800317 -0.399607051702
0.963861263467 0.0 -0.266404701135
0.951056516295 0.162459848116 -0.26286555606
0.840177885327 0.15643446504 -0.519258489728
0.891006524188 0.238676930319 -0.386187385588
0.809016994375 0.309016994375 -0.5
0.987688340595 0.0822424652791 -0.133071104141
0.758652300163 -0.237086325351 -0.606825149272
0.78020437071 -0.08114185162 -0.620239582613
0.69378047756 -0.16062203564 -0.702046444776
0.702907030488 0.0 -0.711281734962
0.78020437071 0.08114185162 -0.620239582613
0.69378047756 0.16062203564 -0.702046444776
0.615642020874 -0.0810862934433 -0.78384304242
0.615642020874 0.0810862934433 -0.78384304242
0.525731112119 0.0 -0.850650808352
0.758652300163 0.237086325351 -0.606825149272
0.990438881957 0.137952242128 0.0
0.966392597402 0.220117027473 -0.132792476828
0.961938357784 0.273266528913 0.0
0.916244175191 0.301258879093 -0.264082750659
0.924304600611 0.358228793487 -0.131655371352
0.862668480416 0.433888564553 -0.259891913008
0.843911474622 0.375038567478 -0.383613732685
0.915043421233 0.403355348617 0.0
0.864929335863 0.484441642061 -0.131200378813
0.850650808352 0.525731112119 0.0
0.78384304242 0.615642020874 -0.0810862934433
0.792649229259 0.571251659136 -0.213022865649
0.702046444776 0.69378047756 -0.16062203564
0.783451698363 0.516121620051 -0.346153014789
0.702309846744 0.647411893882 -0.296004592578
0.688190960236 0.587785252292 -0.425325404176
0.757935420048 0.453990499739 -0.468429850867
0.606825149272 0.758652300163 -0.237086325351
0.601500955008 0.707106781186 -0.37174803446
0.5 0.809016994375 -0.309016994375
0.707106781186 0.37174803446 -0.601500955008
0.646577791798 0.51337544123 -0.564254211766
0.587785252292 0.425325404176 -0.688190960236
0.51337544123 0.564254211766 -0.646577791798
0.564254211766 0.646577791798 -0.51337544123
0.425325404176 0.688190960236 -0.587785252292
0.453990499739 0.468429850867 -0.757935420048
0.37174803446 0.601500955008 -0.707106781186
0.309016994375 0.5 -0.809016994375
0.468429850867 0.757935420048 -0.453990499739
0.647411893882 0.296004592578 -0.702309846744
0.571251659136 0.213022865649 -0.792649229259
0.516121620051 0.346153014789 -0.783451698363
0.433888564553 0.259891913008 -0.862668480416
0.484441642061 0.131200378813 -0.864929335863
0.375038567478 0.383613732685 -0.843911474622
0.383613732685 0.843911474622 -0.375038567478
0.346153014789 0.783451698363 -0.516121620051
0.259891913008 0.862668480416 -0.433888564553
0.296004592578 0.702309846744 -0.647411893882
0.213022865649 0.792649229259 -0.571251659136
0.16062203564 0.702046444776 -0.69378047756
0.237086325351 0.606825149272 -0.758652300163
0.131200378813 0.864929335863 -0.484441642061
0.0810862934433 0.78384304242 -0.615642020874
0.0 0.850650808352 -0.525731112119
0.78384304242 0.615642020874 0.0810862934433
0.711281734962 0.702907030488 0.0
0.702046444776 0.69378047756 0.16062203564
0.620239582613 0.78020437071 -0.08114185162
0.620239582613 0.78020437071 0.08114185162
0.525731112119 0.850650808352 0.0
0.519258489728 0.840177885327 -0.15643446504
0.606825149272 0.758652300163 0.237086325351
0.519258489728 0.840177885327 0.15643446504
0.5 0.809016994375 0.309016994375
0.386187385588 0.891006524188 -0.238676930319
0.399607051702 0.912982492932 -0.0823235800317
0.26286555606 0.951056516295 -0.162459848116
0.266404701135 0.963861263467 0.0
0.399607051702 0.912982492932 0.0823235800317
0.26286555606 0.951056516295 0.162459848116
0.133071104141 0.987688340595 -0.0822424652791
0.133071104141 0.987688340595 0.0822424652791
0.0 1.0 0.0
0.386187385588 0.891006524188 0.238676930319
0.264082750659 0.916244175191 -0.301258879093
0.131655371352 0.924304600611 -0.358228793487
0.132792476828 0.966392597402 -0.220117027473
0.0 0.961938357784 -0.273266528913
0.0 0.915043421233 -0.403355348617
0.0 0.990438881957 -0.137952242128
0.383613732685 0.843911474622 0.375038567478
0.264082750659 0.916244175191 0.301258879093
0.259891913008 0.862668480416 0.433888564553
0.132792476828 0.966392597402 0.220117027473
0.131655371352 0.924304600611 0.358228793487
0.0 0.961938357784 0.273266528913
0.0 0.990438881957 0.137952242128
0.131200378813 0.864929335863 0.484441642061
0.0 0.915043421233 0.403355348617
0.0 0.850650808352 0.525731112119
-0.131200378813 0.864929335863 0.484441642061
-0.131655371352 0.924304600611 0.358228793487
-0.259891913008 0.862668480416 0.433888564553
-0.132792476828 0.966392597402 0.220117027473
-0.264082750659 0.916244175191 0.301258879093
-0.26286555606 0.951056516295 0.162459848116
-0.133071104141 0.987688340595 0.0822424652791
-0.383613732685 0.843911474622 0.375038567478
-0.386187385588 0.891006524188 0.238676930319
-0.5 0.809016994375 0.309016994375
-0.133071104141 0.987688340595 -0.0822424652791
-0.266404701135 0.963861263467 0.0
-0.26286555606 0.951056516295 -0.162459848116
-0.399607051702 0.912982492932 -0.0823235800317
-0.399607051702 0.912982492932 0.0823235800317
-0.525731112119 0.850650808352 0.0
-0.386187385588 0.891006524188 -0.238676930319
-0.519258489728 0.840177885327 -0.15643446504
-0.5 0.809016994375 -0.309016994375
-0.519258489728 0.840177885327 0.15643446504
-0.132792476828 0.966392597402 -0.220117027473
-0.131655371352 0.924304600611 -0.358228793487
-0.264082750659 0.916244175191 -0.301258879093
-0.259891913008 0.862668480416 -0.433888564553
-0.131200378813 0.864929335863 -0.484441642061
-0.383613732685 0.843911474622 -0.375038567478
-0.606825149272 0.758652300163 0.237086325351
-0.620239582613 0.78020437071 0.08114185162
-0.702046444776 0.69378047756 0.16062203564
-0.620239582613 0.78020437071 -0.08114185162
-0.711281734962 0.702907030488 0.0
-0.702046444776 0.69378047756 -0.16062203564
-0.606825149272 0.758652300163 -0.237086325351
-0.78384304242 0.615642020874 0.0810862934433
-0.78384304242 0.615642020874 -0.0810862934433
-0.850650808352 0.525731112119 0.0
-0.0810862934433 0.78384304242 0.615642020874
-0.213022865649 0.792649229259 0.571251659136
-0.16062203564 0.702046444776 0.69378047756
-0.346153014789 0.783451698363 0.516121620051
-0.296004592578 0.702309846744 0.647411893882
-0.425325404176 0.688190960236 0.587785252292
-0.468429850867 0.757935420048 0.453990499739
-0.237086325351 0.606825149272 0.758652300163
-0.37174803446 0.601500955008 0.707106781186
-0.309016994375 0.5 0.809016994375
-0.601500955008 0.707106781186 0.37174803446
-0.564254211766 0.646577791798 0.51337544123
-0.688190960236 0.587785252292 0.425325404176
-0.646577791798 0.51337544123 0.564254211766
-0.51337544123 0.564254211766 0.646577791798
-0.587785252292 0.425325404176 0.688190960236
-0.757935420048 0.453990499739 0.468429850867
-0.707106781186 0.37174803446 0.601500955008
-0.809016994375 0.309016994375 0.5
-0.453990499739 0.468429850867 0.757935420048
-0.702309846744 0.647411893882 0.296004592578
-0.792649229259 0.571251659136 0.213022865649
-0.783451698363 0.516121620051 0.346153014789
-0.862668480416 0.433888564553 0.259891913008
-0.864929335863 0.484441642061 0.131200378813
-0.843911474622 0.375038567478 0.383613732685
-0.375038567478 0.383613732685 0.843911474622
-0.516121620051 0.346153014789 0.783451698363
-0.433888564553 0.259891913008 0.862668480416
-0.647411893882 0.296004592578 0.702309846744
-0.571251659136 0.213022865649 0.792649229259
-0.69378047756 0.16062203564 0.702046444776
-0.758652300163 0.237086325351 0.606825149272
-0.484441642061 0.131200378813 0.864929335863
-0.615642020874 0.0810862934433 0.78384304242
-0.525731112119 0.0 0.850650808352
0.0810862934433 0.78384304242 0.615642020874
0.0 0.711281734962 0.702907030488
0.16062203564 0.702046444776 0.69378047756
-0.08114185162 0.620239582613 0.78020437071
0.08114185162 0.620239582613 0.78020437071
0.0 0.525731112119 0.850650808352
-0.15643446504 0.519258489728 0.840177885327
0.237086325351 0.606825149272 0.758652300163
0.15643446504 0.519258489728 0.840177885327
0.309016994375 0.5 0.809016994375
-0.238676930319 0.386187385588 0.891006524188
-0.0823235800317 0.399607051702 0.912982492932
-0.162459848116 0.26286555606 0.951056516295
0.0 0.266404701135 0.963861263467
0.0823235800317 0.399607051702 0.912982492932
0.162459848116 0.26286555606 0.951056516295
-0.0822424652791 0.133071104141 0.987688340595
0.0822424652791 0.133071104141 0.987688340595
0.0 0.0 1.0
0.238676930319 0.386187385588 0.891006524188
-0.301258879093 0.264082750659 0.916244175191
-0.358228793487 0.131655371352 0.924304600611
-0.220117027473 0.132792476828 0.966392597402
-0.273266528913 0.0 0.961938357784
-0.403355348617 0.0 0.915043421233
-0.137952242128 0.0 0.990438881957
0.375038567478 0.383613732685 0.843911474622
0.301258879093 0.264082750659 0.916244175191
0.433888564553 0.259891913008 0.862668480416
0.220117027473 0.132792476828 0.966392597402
0.358228793487 0.131655371352 0.924304600611
0.273266528913 0.0 0.961938357784
0.137952242128 0.0 0.990438881957
0.484441642061 0.131200378813 0.864929335863
0.403355348617 0.0 0.915043421233
0.525731112119 0.0 0.850650808352
-0.484441642061 -0.131200378813 0.864929335863
-0.358228793487 -0.131655371352 0.924304600611
-0.433888564553 -0.259891913008 0.862668480416
[...]
CELL_DATA 1280
SCALARS cell_data_0 double
LOOKUP_TABLE default
5.06667571496e-06
8.78186374947e-06
7.68808818538e-06
1.91070881246e-06
3.15807760019e-06
5.58379269181e-06
3.55795473379e-06
3.27894511909e-06
4.53421839091e-06
9.38525043384e-06
7.6755814045e-06
5.10824844002e-06
2.68317831344e-06
6.00755854603e-06
4.52200397964e-06
2.96926576856e-06
7.43780556132e-06
1.55664436713e-05
8.9575202292e-06
1.13673341946e-05
7.60876834459e-06
8.37700630865e-06
1.71062768515e-06
6.80475662032e-06
2.74307668035e-06
3.55883941223e-06
2.73254239661e-06
1.87395786199e-06
3.46954010239e-06
3.66230827569e-06
9.74279717043e-07
2.39668835854e-06
3.68768589624e-06
1.29338885726e-05
9.66806180666e-06
1.05695212092e-05
1.68921954775e-05
3.34171059085e-05
1.74923983319e-05
2.0527463651e-05
1.16031044777e-05
2.22541114337e-05
1.22109316285e-05
1.36903731461e-05
1.02666478182e-05
1.70966567685e-05
1.42605868223e-05
5.72874172153e-06
1.88524878626e-06
1.09486632236e-05
7.23521744213e-06
9.24071822939e-06
1.50426187788e-05
2.96142043855e-05
1.37549358929e-05
1.64764971647e-05
5.72462337199e-06
1.01698963069e-05
3.84819968137e-06
7.87215669767e-06
1.00363419383e-05
1.74484889846e-05
1.0546406606e-05
6.01849381422e-06
7.78483361788e-06
1.72256672426e-05
8.33811474218e-06
9.92429954761e-06
1.40940429026e-05
2.90730341894e-05
1.75774032835e-05
1.31782423391e-05
1.03461275369e-05
2.02039632415e-05
8.78086909043e-06
1.41224411021e-05
1.49612109839e-05
2.88091811229e-05
1.51367561567e-05
1.4109412431e-05
2.14727353885e-05
4.63569308152e-05
3.12629035966e-05
2.23765747637e-05
4.10005741513e-05
8.54128871215e-05
4.92016368945e-05
4.29345533942e-05
3.95119852853e-05
7.93700023804e-05
3.98618506159e-05
4.46910682701e-05
3.1283285328e-05
7.6358774416e-05
5.39505449064e-05
3.40551717591e-05
1.67400356237e-05
4.94691822026e-05
2.72909250169e-05
3.69585612994e-05
5.6824843139e-05
8.80121498951e-05
4.16424455394e-05
3.88557796608e-05
3.34554287294e-05
6.11132965846e-05
2.22563916919e-05
4.23012607405e-05
2.70220159533e-05
5.43812804053e-05
2.78481484031e-05
3.04062896567e-05
4.28434721468e-05
8.28676183562e-05
4.46244601762e-05
3.85251025315e-05
3.54493156499e-05
7.89910532409e-05
3.98612837586e-05
4.55358149237e-05
3.30492057038e-05
5.31965752529e-05
2.77318049962e-05
2.26116919487e-05
3.70605412008e-05
6.08715375721e-05
3.32457702915e-05
2.4748051411e-05
2.02833682377e-05
4.32002927703e-05
1.63953629962e-05
2.65195087033e-05
3.03772767885e-05
6.96364088878e-05
3.83649591572e-05
3.17532840321e-05
2.38974345818e-05
4.32322796499e-05
1.61200226258e-05
2.42933187239e-05
2.80533223984e-05
4.80377017816e-05
2.5309425248e-05
1.4431462208e-05
2.07148347081e-05
4.74161608646e-05
2.49033562414e-05
2.40655293151e-05
2.49890720868e-05
5.26860801303e-05
2.12216186322e-05
2.87066891593e-05
2.92594747424e-05
6.32436520583e-05
3.79324337992e-05
2.40147633831e-05
2.00086082256e-05
3.68605053506e-05
1.77281371994e-05
1.26028812005e-05
2.73255885359e-05
5.04079963583e-05
2.97180188283e-05
1.89235410295e-05
1.79804709722e-05
5.28685795572e-05
2.82252511059e-05
3.31760390978e-05
1.93795884352e-05
3.5816031153e-05
2.29441061285e-05
1.38764344468e-05
3.96393203593e-05
6.91992658616e-05
3.34084113599e-05
2.88819890951e-05
9.52989934857e-06
2.74660558233e-05
1.36741588528e-05
1.14616366703e-05
2.37115519451e-05
5.23755065496e-05
2.70182664419e-05
1.88604664436e-05
2.79838549474e-05
4.77224798501e-05
1.99287435038e-05
1.92174376051e-05
1.49324625094e-05
2.90905290027e-05
1.37992451697e-05
7.9339173934e-06
1.57428860213e-05
2.73666907348e-05
5.41668112829e-06
1.39829755811e-05
5.76160431738e-06
1.19876610694e-05
4.88030360373e-06
3.00399277943e-06
8.6487963448e-06
1.68992623611e-05
8.54609467486e-06
5.52915044684e-06
3.22700598441e-06
9.94955368411e-06
3.2715889359e-06
4.55435258825e-06
5.49570663135e-06
1.06993580292e-05
4.31969015162e-06
4.3869020719e-06
3.64491666884e-06
1.14031409557e-05
5.31495057855e-06
5.68604130659e-06
1.88748124219e-05
4.4759480168e-05
3.75617461474e-05
1.25594258249e-05
5.78606458016e-06
2.55773851288e-05
1.60057827723e-05
1.32840403431e-05
1.22341652219e-05
2.7905890446e-05
2.00453518282e-05
9.32456447407e-06
1.67895866148e-05
3.52023922386e-05
1.72426670277e-05
1.73324874423e-05
1.53020621626e-05
2.84731915068e-05
1.54218476861e-05
1.33435889657e-05
2.59592992314e-05
4.29463217591e-05
1.44979347348e-05
2.43124098538e-05
1.12972407288e-05
2.25637878849e-05
1.42151124825e-05
5.46468961787e-06
7.02238902267e-06
1.43554749652e-05
6.28229970968e-06
6.18840776881e-06
1.30989578124e-05
2.50101533909e-05
1.6993262733e-05
7.82283212399e-06
3.33566909358e-06
8.26289034906e-06
4.68704694855e-06
3.31590610717e-06
8.3617112605e-06
1.42759821132e-05
1.10214528472e-05
2.28434608167e-06
1.0125118627e-08
1.71516809667e-06
1.67973405835e-06
2.3272941684e-06
1.80644263701e-06
4.75729507312e-06
2.1164827416e-06
1.00791146519e-06
3.79654535721e-06
3.16055953943e-06
3.05812180391e-06
4.92037321196e-06
3.69011945227e-07
2.35554601918e-08
1.54905718485e-06
2.12513545948e-06
2.44925338186e-06
2.45238354981e-06
3.89471826852e-06
3.13717957939e-06
1.48879964606e-06
1.99904889947e-07
1.00957854022e-06
3.40209208463e-06
3.82490609448e-06
4.28227872108e-06
4.68292473563e-06
5.87079714741e-06
1.48154300076e-06
3.23467314616e-06
1.47667299679e-06
6.52001646819e-07
2.10288964901e-07
1.30500476806e-06
1.66245860668e-07
7.95443520362e-07
1.37482881425e-06
3.39906932356e-06
1.73333086206e-06
2.44725641925e-07
4.34128266584e-07
9.50271393023e-07
7.89001220048e-07
6.84685555367e-07
5.60954107834e-06
5.6906396447e-06
4.58330185246e-06
5.61273213124e-06
4.24597604579e-06
4.98003586132e-06
4.24792409883e-06
5.4271355402e-06
3.4493631073e-06
2.82975587253e-06
2.28642483233e-06
3.43568554618e-06
5.26500711531e-06
5.385726595e-06
4.22905370304e-06
5.48818734541e-06
2.6791951193e-06
3.20331626676e-06
3.44635032331e-06
2.40535630368e-06
2.8683406198e-06
2.88737793966e-06
3.39424058165e-06
2.82142258613e-06
4.42014592606e-06
5.09057961641e-06
5.26443214789e-06
3.38409229729e-06
2.81079036796e-06
2.98722766319e-06
3.40580873632e-06
3.22051423839e-06
4.28729843147e-06
4.44379918695e-06
6.47323846122e-06
4.58176132206e-06
7.37188856164e-06
5.46042629872e-06
7.14016969219e-06
5.21502225112e-06
7.44729706269e-06
5.71819230953e-06
7.26061902746e-06
7.22967572321e-06
4.56555301255e-06
4.38934570019e-06
6.23505763582e-06
4.25299153248e-06
4.96267750682e-06
5.42203381722e-06
5.27111488429e-06
5.45120389176e-06
4.12970721603e-06
4.56121159674e-06
6.39430155755e-06
6.19572965941e-06
4.90746243121e-06
5.16297146397e-06
5.59561375211e-06
5.7243186416e-06
6.27147608222e-06
4.89251091765e-06
6.64201112075e-06
6.09950951631e-06
3.53639903598e-06
3.66426104684e-06
5.21814402366e-06
4.42676140409e-06
5.94856046708e-06
4.63937558352e-06
6.24300103888e-06
5.08788851062e-06
6.0710775389e-06
4.86830250328e-06
6.10045220523e-06
6.32334044296e-06
4.65060673895e-06
4.09753170275e-06
5.6599933188e-06
4.28427290181e-06
4.6855969703e-06
4.16943280547e-06
4.82795620641e-06
5.91197448774e-06
5.27954751113e-06
4.90315343793e-06
5.74926241362e-06
6.69198611412e-06
4.73339144577e-06
4.20866902966e-06
3.90292950842e-06
5.20679685995e-06
6.73603127135e-06
5.51501539051e-06
6.2174606556e-06
6.58157338336e-06
4.57856794102e-06
4.74313209227e-06
6.04261126933e-06
6.05589919249e-06
6.70904469314e-06
5.1646552129e-06
7.53498425064e-06
6.5177026344e-06
5.94066474249e-06
4.33069574726e-06
4.161660451e-06
6.65160056367e-06
7.21984057284e-06
6.4609811254e-06
7.88945734579e-06
8.02479534276e-06
3.29048074157e-06
3.1032863634e-06
3.7767830912e-06
4.50957466835e-06
3.71673847874e-06
2.87708568595e-06
3.02803516151e-06
4.41257725832e-06
3.37674585058e-06
3.06659977846e-06
2.6092116234e-06
3.04982635171e-06
4.42178833321e-06
4.13749982928e-06
3.87227093565e-06
4.27760302579e-06
6.25798451248e-06
7.47020821843e-06
8.60813720848e-06
8.38273482781e-06
9.2724293033e-06
9.70723722123e-06
7.88491424626e-06
1.00328234093e-05
6.82572124791e-06
6.10258150936e-06
4.62664022318e-06
6.36178477148e-06
7.71977790468e-06
7.3331455472e-06
7.19870147326e-06
5.5941055491e-06
5.68687952344e-06
5.90645338926e-06
6.21253908162e-06
4.68183877233e-06
6.169202578e-06
5.0521949438e-06
4.41381533774e-06
4.59185633769e-06
5.93170419685e-06
5.62536006419e-06
5.21864530539e-06
4.56176825795e-06
3.26933981607e-06
1.9549630904e-06
3.12283088945e-06
2.18063289268e-06
5.87446964098e-06
4.67786051703e-06
3.77841441415e-06
4.60128612446e-06
3.30123896549e-06
3.1862671699e-06
2.33860776987e-06
3.88114337365e-06
2.45025317152e-06
1.79308239962e-06
1.66782679677e-06
1.78449669764e-06
3.31912172286e-06
1.85069562137e-06
1.7724272781e-06
2.30085948022e-06
4.78468152016e-06
3.42526335824e-06
3.82589007451e-06
2.51787150756e-06
2.41610743848e-06
1.79593659149e-06
5.14550639331e-07
4.85148498323e-07
2.83981257969e-06
2.59698867478e-09
1.35433923049e-06
5.4605113875e-07
7.34844123041e-07
1.95081169671e-06
1.265134805e-06
6.18298624791e-07
3.80866862118e-07
2.24602530621e-06
9.59035278411e-07
2.09496410973e-06
7.5507716756e-07
2.0116824819e-09
6.19128979856e-08
2.632410905e-07
8.70963987753e-07
1.7252776556e-08
8.3083527626e-07
2.19635392998e-07
4.46883666341e-07
1.82221374874e-06
9.11830806004e-07
8.82524445558e-07
4.64102617777e-06
8.28686058538e-06
6.38191789197e-06
5.60960795976e-06
8.99730081755e-06
1.19251911449e-05
7.13365799292e-06
6.41906785566e-06
1.01739254197e-05
1.58297201341e-05
9.00925093806e-06
8.94960436976e-06
9.23355023848e-06
1.45352510089e-05
6.30656210214e-06
9.11792870044e-06
8.078310808e-06
1.39821124185e-05
6.57176644015e-06
9.41929411276e-06
8.83843218625e-06
1.72297554787e-05
1.13206084263e-05
9.86108270133e-06
1.31424771398e-05
2.5988905086e-05
1.6105621072e-05
1.35222554852e-05
9.88629290846e-06
9.3718491167e-06
4.81465514817e-06
2.98845051951e-06
1.7010578025e-06
1.64610653754e-06
9.88401865259e-08
2.11676295444e-06
1.10816628034e-07
3.8257165284e-08
2.64813533756e-07
2.76827439905e-07
9.04500748631e-08
2.73214015078e-09
1.79428456679e-07
2.29404143082e-07
5.48416018962e-06
5.04750326572e-06
3.38180548892e-07
4.93593014352e-06
1.96059833396e-07
2.60005479153e-07
4.01883802286e-07
1.4596586679e-06
5.08951853553e-07
3.31642649885e-07
1.22211878344e-06
1.4828076706e-06
6.04631572351e-06
5.68977108455e-06
5.26293157755e-06
1.2049321948e-06
1.401245376e-06
3.47221830555e-07
1.21588699875e-06
5.02535897363e-07
6.72892758354e-07
5.77530990622e-07
5.42723096309e-09
2.6593190134e-07
6.93391309757e-07
9.76202750215e-07
5.29700836612e-07
9.70461444361e-07
3.43475802615e-07
9.97631695266e-09
2.57044352754e-07
4.00072101842e-07
1.5295718111e-06
7.16815048709e-07
8.89112862943e-07
3.15845249966e-07
7.51226888115e-07
1.04505670073e-06
8.30251466916e-07
6.12478421997e-07
1.25096514528e-06
1.80314571679e-06
2.07425991798e-06
1.14631871906e-06
1.50624341046e-06
2.12244114455e-06
2.190189488e-06
2.23623119707e-06
1.39027696071e-06
2.12311416275e-06
2.33367859254e-06
2.23231413034e-06
1.1129854169e-06
9.32142880329e-07
9.52918449538e-07
5.24847566692e-07
6.12660710713e-07
7.45525507772e-07
5.56655538582e-07
6.27110648094e-07
1.74943955582e-06
1.73720548795e-06
1.77970244397e-06
4.49905843782e-07
1.05468564181e-06
1.34675379022e-06
8.19800054984e-07
1.69762946285e-06
2.32622481007e-06
2.58619780939e-06
2.39206481105e-06
3.16054790623e-06
2.75183218985e-06
3.24048616154e-06
3.52390504803e-06
3.35712892663e-06
2.39349976967e-06
2.55758872238e-06
2.14558371635e-06
3.06408765959e-06
3.87929838588e-06
4.20046387652e-06
3.71804404063e-06
4.76903904252e-06
1.08202566066e-05
1.04987725423e-05
9.29623584456e-06
5.50397086444e-07
1.07488874687e-06
1.14590326852e-06
8.68262696849e-07
7.96411906148e-07
5.0620190881e-06
5.39025395811e-06
4.65813330479e-06
8.87606451732e-07
9.56254071934e-07
1.54153245453e-06
1.19923286356e-06
1.82546829802e-06
1.79612075085e-06
2.18870630461e-06
2.59155454096e-06
1.84532004295e-06
3.34359912345e-06
2.70420106586e-06
3.91183711465e-06
2.62602871223e-06
3.76690076844e-06
3.4356246843e-06
3.84442763516e-06
4.54297532161e-06
2.29252602082e-06
2.59440212437e-06
3.54535159827e-06
2.45919965877e-06
1.64603238909e-06
6.62683489702e-07
3.67365490416e-09
2.18802283175e-06
1.88980444814e-06
2.17262815928e-06
2.44730878044e-06
2.75768672131e-06
1.631925186e-07
8.00833940672e-07
3.9193005829e-08
2.2615461717e-06
3.11910344255e-06
2.61503942487e-06
2.58764570568e-06
3.02981945142e-06
2.18477103427e-06
2.65823417772e-06
3.42667546255e-06
3.17882521382e-06
4.27202284441e-06
3.35441896153e-06
4.15561279337e-06
3.76717273984e-06
4.30220427106e-06
3.26878748239e-06
3.42335585932e-06
3.98347712157e-06
3.89969130053e-06
3.75604034907e-06
4.21596671223e-06
4.17554219718e-06
2.89449247612e-07
1.43917318552e-07
1.55521635246e-06
1.14438210332e-06
1.73058865219e-06
1.39325848879e-07
1.29668719622e-06
1.11404021254e-06
1.63018774987e-06
1.72670088097e-07
5.34587209314e-10
1.33968415407e-06
8.58896966876e-07
1.15237934217e-07
1.00163959986e-06
1.48016097598e-07
2.00070453939e-07
2.27353953659e-07
1.26608430566e-07
1.20693521195e-06
1.15534286062e-07
4.29393937852e-07
2.51993918616e-07
8.77132897108e-07
1.66623188032e-07
4.00628060783e-07
2.48960246016e-07
2.969469057e-07
9.12003859438e-07
1.52114896808e-07
6.11990246758e-07
3.81902951803e-08
8.38309996908e-08
2.72933721969e-07
9.51693912696e-07
5.64770992552e-07
8.87800505918e-07
3.94963162384e-07
1.76883787957e-07
8.21845589157e-07
8.63141423577e-07
3.34509102254e-07
4.40415986687e-08
1.23924894351e-07
3.35320600223e-07
3.88399912399e-08
1.51030002903e-07
1.77800780504e-08
2.94413224662e-07
3.68303868524e-07
7.62893320044e-07
1.17365523604e-06
6.50268773569e-07
1.02893222783e-07
1.56601024117e-07
7.0647873577e-07
4.59141837306e-07
1.2844543032e-07
1.50579454767e-07
6.12968039105e-07
1.03708183475e-06
6.27974320003e-07
6.36971849292e-07
4.46409013911e-07
5.65343911929e-06
5.59488183377e-06
1.48045400004e-06
4.6572365503e-06
1.6592169244e-06
9.49760657061e-07
9.43630735264e-07
4.34207220946e-07
1.95168584555e-06
1.59650394214e-06
1.69216208337e-06
1.25512496846e-06
4.8944551428e-06
5.99251024816e-06
8.9190851124e-07
5.16572661328e-06
2.01540344644e-06
2.18055706237e-06
1.78765558139e-06
1.74059174497e-06
2.16046373187e-06
1.54784187901e-06
1.14330168865e-06
9.29325903911e-07
1.60182756679e-06
9.94931535184e-07
1.07394294281e-07
1.01170517517e-06
6.68840058027e-07
3.18067765693e-07
2.3191778551e-07
2.75748779541e-07
1.20448362828e-06
1.07148314562e-06
8.78249318065e-07
1.24343764535e-06
7.10938106007e-07
4.23322358813e-07
1.33462570266e-06
7.55626685399e-07
8.1245201914e-07
4.69241147328e-07
6.07280433625e-07
1.196361344e-06
6.42619759199e-07
1.5184819495e-07
1.00704893001e-06
1.48987371842e-08
3.72842839975e-06
5.42561630667e-06
1.01696468973e-06
5.04712186938e-06
2.0761509923e-06
3.51765749693e-06
3.44179088721e-06
1.96797011889e-06
8.67218773196e-07
1.02740716919e-06
2.0970465317e-07
2.17453942149e-06
2.89414281556e-06
3.81264126854e-06
2.60720106137e-06
1.69832464133e-06
5.29125672886e-07
1.40284652312e-06
1.05931151302e-06
6.88398486834e-07
9.45861356022e-07
1.80308926217e-06
9.45381768179e-07
1.1735005742e-06
1.53336573476e-06
1.62415138722e-06
1.59668952993e-06
3.13688434908e-07
6.28799606878e-07
1.10771637843e-06
8.41270185259e-07
4.84332219949e-07
1.49839747756e-06
2.16893310536e-06
1.63139879581e-06
8.4260447144e-07
1.92181577705e-06
2.98420318144e-06
1.03734687298e-06
1.22132921694e-06
1.97071960355e-06
3.54375451101e-06
1.85130553588e-06
1.38609940689e-06
5.56247911986e-07
1.93807325024e-06
8.77913033981e-07
1.42298172385e-07
2.44852102543e-06
4.37935268333e-06
4.07087723769e-06
2.32286311903e-06
5.33774578446e-06
8.7198570326e-06
5.50548473956e-06
4.69493305408e-06
5.70952409672e-06
1.00920517871e-05
6.41521397287e-06
6.04307961627e-06
3.44911545304e-06
8.35804849397e-06
6.53136160613e-06
3.87074667282e-06
2.42741712641e-06
5.71268896447e-06
1.34155884047e-06
2.3197104736e-06
1.50457901924e-06
3.63089985822e-06
9.00471164117e-07
6.44350044251e-07
1.18773257092e-06
4.49676409882e-06
2.77304849574e-06
1.92952923252e-06
8.42986632464e-08
3.83724807772e-06
1.67713568569e-06
9.18899998261e-07
2.5454685985e-06
8.49297258846e-06
3.91417820023e-06
5.51923118022e-06
8.45376176545e-06
1.57767696387e-05
5.60945873775e-06
6.62285050005e-06
2.97897690048e-06
6.4653057362e-06
8.64464254855e-07
4.02421062869e-06
3.26645804178e-06
6.32259141761e-06
2.22027760064e-06
2.71756373224e-07
1.47609653315e-06
3.05499756431e-06
1.71904545799e-06
4.45803495155e-07
2.76669713442e-06
1.64064548944e-06
3.35927323528e-06
2.01524663463e-06
3.78463515905e-06
4.58243419417e-06
5.60880877951e-06
4.51269556909e-06
1.36138936769e-06
1.30663988564e-06
3.29653534553e-06
1.89230469245e-06
1.83164508222e-06
2.56864576089e-06
4.83844002051e-07
1.67913229719e-06
1.99859514893e-06
2.48077123668e-06
3.18865608918e-06
2.72660910769e-06
1.4014345777e-06
1.69586949629e-06
1.77298383718e-06
2.91707781265e-06
3.22922639783e-06
3.90473597207e-06
3.71881724102e-06
4.18024800461e-06
2.49538066751e-06
3.06505273464e-06
3.32464936621e-06
3.46339184391e-06
4.40945957084e-06
5.06397274627e-06
5.66685958175e-06
4.49589555828e-06
4.50022190376e-06
5.12551922449e-06
4.48263591053e-06
5.23605027239e-06
4.45984403826e-06
4.93394031203e-06
5.06109330065e-06
4.97756720629e-06
5.04323747255e-06
4.61139188297e-06
3.99923351826e-06
4.15540158038e-06
3.62343244258e-06
3.39473374353e-06
2.74401935115e-06
3.69360604492e-06
3.1306302881e-06
2.67915033796e-06
2.33039531305e-06
2.43373935221e-06
3.14424077137e-06
2.6509393313e-06
2.43255067349e-06
2.26978040544e-06
2.13123909494e-06
1.95930338408e-06
1.73242802717e-06
2.36760075014e-06
1.68131847521e-06
1.80285050628e-06
1.67344520103e-06
2.26828595566e-06
1.31594134026e-06
1.23963065067e-06
9.16713182795e-07
1.29638407022e-06
2.3563853265e-06
1.98069260436e-06
1.72946922394e-06
2.14529892528e-06
1.69243382777e-06
1.36173359832e-06
1.17991626806e-06
1.30491278931e-06
1.14238556856e-06
1.05011653882e-06
5.56310055243e-07
1.08732454747e-06
6.88671442807e-07
3.51422431418e-07
6.16225683127e-07
2.0007446174e-07
9.59083125993e-07
5.79922582375e-07
1.39817703488e-07
2.46742605009e-07
1.25527808398e-06
8.46228384206e-07
1.28652708721e-06
5.30966643887e-07
1.04436444181e-06
1.03101226941e-06
6.4208311233e-07
1.12834340007e-06
9.18013323192e-07
6.67785933896e-07
3.85891073811e-07
2.19690226555e-07
6.60760030686e-07
1.44921975379e-06
3.76597472067e-07
1.70626062358e-06
3.90078851668e-07
2.07954391385e-07
1.15953137651e-06
1.51011884816e-06
1.06636830249e-06
1.57154154809e-07
3.65878992619e-07
1.65678181207e-06
1.107407348e-06
3.01694296309e-07
2.36664921191e-07
4.57487371534e-07
1.60490771076e-06
2.29022053366e-07
4.29426130566e-07
6.11966825223e-08
4.20002956864e-07
5.08346183426e-07
5.12523969345e-07
5.36543969472e-07
3.41011531962e-07
2.03704932491e-07
5.84186573635e-07
4.21251340948e-07
3.46411442868e-07
2.53887395494e-07
4.42660718971e-07
6.08968135194e-07
4.99218532682e-07
4.05014373371e-07
6.95904758234e-07
1.93095218134e-07
2.71452930208e-07
3.90483659047e-07
4.34591455326e-07
4.89286510813e-07
5.51490462787e-07
3.63127218393e-07
7.83337970182e-07
3.67562942664e-07
3.95691201755e-07
1.99889692037e-06
2.06891469272e-06
2.84699878398e-06
3.21657039169e-07
1.39473924379e-06
2.00021856417e-06
1.58809265373e-06
2.14665695254e-07
5.40820425009e-07
7.42712647468e-07
7.99484268994e-07
6.65962029604e-07
3.69215615171e-07
4.23505912982e-07
7.16708603534e-07
5.42664459229e-07
1.11083331219e-06
1.30299996938e-06
1.31077542823e-06
8.47139844781e-07
8.02577320963e-07
7.10657048193e-07
3.61242444722e-07
3.84716335437e-06
4.16568399429e-06
9.36710038507e-07
3.52568735672e-06
8.70411267925e-07
1.08204008704e-06
7.98139769721e-07
8.13552852492e-07
9.70743704158e-07
1.3705082649e-06
9.68583669425e-07
9.28210917974e-07
3.55149890487e-06
3.89566110214e-06
7.02330322036e-07
2.92143271687e-06
4.46295775997e-07
5.22930682755e-07
1.91315216263e-06
7.77171868269e-07
1.72744498685e-06
2.48999525855e-07
1.0775751785e-06
1.60148276837e-07
1.51325406428e-06
7.10296712371e-07