# vtk DataFile Version 3.0
File Name: Molecule/sphere/sphere_0-s3.vtk
ASCII
DATASET UNSTRUCTURED_GRID
FIELD FieldData 1
TIME 1 1 double
0.0
POINTS 47 double
0.525731112119 0.0 -0.850650808352
0.688190960236 0.26286555606 -0.425325404176
0.850650808352 -0.525731112119 0.0
0.850650808352 0.525731112119 0.0
0.425325404176 0.688190960236 -0.26286555606
0.26286555606 0.425325404176 -0.688190960236
0.0 0.850650808352 -0.525731112119
0.0 0.850650808352 0.525731112119
0.26286555606 -0.425325404176 -0.688190960236
0.0 0.0 -0.850650808352
-0.26286555606 -0.425325404176 -0.688190960236
0.0 -0.850650808352 -0.525731112119
-0.525731112119 0.0 -0.850650808352
-0.850650808352 -0.525731112119 0.0
-0.26286555606 0.425325404176 -0.688190960236
0.26286555606 0.425325404176 0.688190960236
0.0 0.0 0.850650808352
0.525731112119 0.0 0.850650808352
0.26286555606 -0.425325404176 0.688190960236
0.688190960236 -0.26286555606 0.425325404176
0.425325404176 -0.688190960236 0.26286555606
0.0 -0.850650808352 0.525731112119
-0.425325404176 -0.688190960236 -0.26286555606
-0.425325404176 -0.688190960236 0.26286555606
0.0 -0.850650808352 0.0
-0.688190960236 -0.26286555606 0.425325404176
-0.26286555606 -0.425325404176 0.688190960236
-0.525731112119 0.0 0.850650808352
-0.850650808352 0.525731112119 0.0
0.425325404176 -0.688190960236 -0.26286555606
0.0 0.850650808352 0.0
-0.425325404176 0.688190960236 0.26286555606
-0.425325404176 0.688190960236 -0.26286555606
-0.688190960236 0.26286555606 -0.425325404176
-0.13143277803 0.637988106264 -0.606961036177
-0.556758182206 0.475528258147 -0.344095480118
-0.394298334089 0.212662702088 -0.769420884294
-0.394298334089 0.212662702088 0.769420884294
-0.688190960236 0.26286555606 0.425325404176
-0.556758182206 0.475528258147 0.344095480118
-0.26286555606 0.425325404176 0.688190960236
-0.13143277803 0.637988106264 0.606961036177
0.13143277803 0.637988106264 0.606961036177
0.0 0.425325404176 0.688190960236
-0.13143277803 -0.212662702088 0.769420884294
0.0 -0.425325404176 0.688190960236
0.13143277803 -0.212662702088 0.769420884294

CELLS 90 360
3 0 1 2
3 2 1 3
3 3 1 4
3 1 5 4
3 1 0 5
3 4 5 6
3 3 4 7
3 0 8 9
3 8 10 9
3 8 11 10
3 9 10 12
3 12 10 13
3 0 8 2
3 0 9 5
3 9 14 5
3 15 16 17
3 17 18 19
3 18 20 19
3 18 21 20
3 19 20 2
3 17 19 3
3 2 19 3
3 3 15 17
3 13 22 23
3 22 24 23
3 22 11 24
3 23 24 21
3 13 23 25
3 23 26 25
3 23 21 26
3 25 26 27
3 13 25 28
3 11 29 24
3 29 20 24
3 29 2 20
3 24 20 21
3 11 22 10
3 10 22 13
3 2 29 8
3 11 29 8
3 7 30 31
3 30 32 31
3 30 6 32
3 31 32 28
3 28 33 13
3 12 33 13
3 6 30 4
3 4 30 7
3 6 34 32
3 34 35 32
3 34 14 35
3 32 35 28
3 14 36 35
3 36 33 35
3 36 12 33
3 35 33 28
3 12 36 9
3 9 36 14
3 14 34 5
3 5 34 6
3 27 37 38
3 37 39 38
3 37 40 39
3 38 39 28
3 7 41 31
3 41 39 31
3 41 40 39
3 31 39 28
3 7 41 42
3 41 43 42
3 41 40 43
3 42 43 15
3 15 43 16
3 40 43 16
3 40 37 16
3 37 27 16
3 26 44 27
3 27 44 16
3 26 45 44
3 45 46 44
3 45 18 46
3 44 46 16
3 18 45 21
3 26 45 21
3 16 46 17
3 46 18 17
3 7 42 3
3 42 15 3
3 28 38 25
3 27 38 25

CELL_TYPES 90
5
5
5
5
5
5
5
5
5
5
5
5
5
5
5
5
5
5
5
5
5
5
5
5
5
5
5
5
5
5
5
5
5
5
5
5
5
5
5
5
5
5
5
5
5
5
5
5
5
5
5
5
5
5
5
5
5
5
5
5
5
5
5
5
5
5
5
5
5
5
5
5
5
5
5
5
5
5
5
5
5
5
5
5
5
5
5
5
5
5

CELL_DATA 90
SCALARS cell_data_0 double
LOOKUP_TABLE default
2.06106877448e-07
1.65314367998e-05
3.1518477843e-06
1.13714604821e-06
1.89419912687e-05
5.97040981359e-06
2.76357756036e-05
0.001962088231
0.0021030563857
0.000282010978983
0.00145426457304
3.77704110709e-05
0.000418812923663
0.00135444367886
0.00167170045983
0.000112880437341
9.08572697797e-05
7.29653148585e-05
4.34844770241e-05
1.35933699699e-05
0.000101586846148
2.07928778145e-05
0.00012554202344
0.000131996001707
0.00011557107653
0.000126163680789
1.20009638943e-06
1.25823118737e-05
4.44111421071e-05
4.11465230121e-05
6.14282651194e-05
4.18388160775e-05
5.95446222181e-06
2.04373001094e-05
2.61247518209e-05
2.93716170017e-07
0.000244293155234
0.000210525565666
0.000151227238181
0.000209217864968
3.58227479224e-05
5.30393403209e-06
2.17428193009e-05
2.25096476233e-05
1.87639680501e-05
1.63115724616e-06
1.63890816559e-05
3.54161382565e-06
6.6311303671e-06
6.21787205896e-07
5.97141304742e-05
9.28684836262e-07
0.000162140079021
4.35999411445e-05
4.68390732546e-05
2.33548131136e-06
0.00083541297723
0.00113824849857
7.14725161274e-05
4.69333096202e-06
3.97769935625e-05
1.71014902648e-05
1.42746408326e-05
4.52855376352e-05
7.90667050964e-06
3.70289939086e-05
3.15768402565e-05
5.0078198189e-05
1.18747452563e-05
2.15689537791e-05
1.6122728881e-05
3.20972684893e-06
0.000207355531267
0.000236564304514
0.000140302921504
6.23746646754e-05
0.0001251004871
0.000234488486191
5.26944472339e-05
3.34335069323e-05
4.02465383669e-05
0.000241720900508
2.72125792267e-05
3.11841182767e-05
0.00021791616558
9.89791322243e-05
2.52159786406e-05
4.86595094761e-05
2.18509502845e-05
6.08468994748e-05

