# vtk DataFile Version 3.0
File Name: Molecule/sphere/sphere_0-s1.vtk
ASCII
DATASET UNSTRUCTURED_GRID
FIELD FieldData 1
TIME 1 1 double
0.0
POINTS 19 double
0.0 0.850650808352 0.525731112119
0.0 0.850650808352 -0.525731112119
-0.850650808352 0.525731112119 0.0
-0.525731112119 0.0 0.850650808352
0.525731112119 0.0 0.850650808352
0.0 -0.850650808352 0.525731112119
0.850650808352 -0.525731112119 0.0
0.850650808352 0.525731112119 0.0
-0.525731112119 0.0 -0.850650808352
-0.850650808352 -0.525731112119 0.0
0.0 -0.850650808352 -0.525731112119
0.525731112119 0.0 -0.850650808352
0.688190960236 0.26286555606 -0.425325404176
0.425325404176 0.688190960236 -0.26286555606
0.26286555606 0.425325404176 -0.688190960236
0.26286555606 -0.425325404176 -0.688190960236
0.0 0.0 -0.850650808352
-0.26286555606 -0.425325404176 -0.688190960236
-0.26286555606 0.425325404176 -0.688190960236

CELLS 34 136
3 0 1 2
3 0 2 3
3 0 3 4
3 3 5 4
3 4 5 6
3 6 7 4
3 7 0 4
3 8 9 2
3 9 10 5
3 9 5 3
3 3 2 9
3 10 6 5
3 11 12 6
3 6 12 7
3 7 12 13
3 12 14 13
3 12 11 14
3 13 14 1
3 7 13 0
3 13 1 0
3 11 15 16
3 15 17 16
3 15 10 17
3 16 17 8
3 1 18 2
3 18 8 2
3 8 17 9
3 17 10 9
3 10 15 6
3 11 15 6
3 11 16 14
3 16 18 14
3 16 8 18
3 14 18 1

CELL_TYPES 34
5
5
5
5
5
5
5
5
5
5
5
5
5
5
5
5
5
5
5
5
5
5
5
5
5
5
5
5
5
5
5
5
5
5

CELL_DATA 34
SCALARS cell_data_0 double
LOOKUP_TABLE default
5.55388714405e-06
0.000112196717431
0.00105835135588
0.000884941322937
0.000377994947176
0.00042340728616
8.05035600433e-05
5.22449406965e-06
0.00120068052183
0.000179432597321
6.71874855826e-05
0.00113371603443
1.30960037646e-05
2.7853665621e-05
2.18609611195e-06
2.67036169634e-06
1.35345016429e-06
7.46225822343e-07
5.28284857261e-05
1.31653282014e-05
8.73247905447e-06
2.29558497997e-07
0.000319304965177
1.39223429427e-06
3.81135778095e-06
4.33166365914e-06
2.19980793088e-06
0.000566991044379
0.000550378764037
9.84899191362e-06
5.49357660583e-06
1.22981886964e-06
1.81142707995e-07
2.88299049896e-07

