# vtk DataFile Version 3.0
File Name: Molecule/sphere_cent/sphere_cent_0-s4.vtk
ASCII
DATASET UNSTRUCTURED_GRID
FIELD FieldData 1
TIME 1 1 double
0.0
POINTS 612 double
0.4244787991 0.67726260424 -0.59956741333
0.28724247217 0.51634556055 -0.8057166338
0.17346827686 0.68397390842 -0.70749437809
-0.53286606073 0.8449280858 0.0016030078987
-0.69160169363 0.70481199026 -0.14699277282
-0.70671641827 0.68984186649 0.15668326616
-0.53016781807 0.79610067606 -0.289575845
-0.46824756265 0.87274694443 -0.13185960054
-0.44437646866 0.66666227579 0.59476530552
-0.57781279087 0.43749928474 0.687512815
-0.31630700827 0.51288795471 0.79832237959
-0.51236504316 0.80013203621 0.30727422237
-0.67965352535 0.60029798746 0.41908371449
-0.85555481911 0.43843686581 0.27164170146
-0.14922186732 0.69502049685 0.70013457537
-0.0087943319231 0.50777298212 0.85955679417
0.48588141799 0.81342637539 0.3157069087
0.25367188454 0.86318904161 0.43646764755
0.43335962296 0.69603163004 0.56873106956
0.016545729712 0.8459199667 0.53044891357
0.14468738437 0.71791642904 0.67837119102
-0.70744025707 -0.17550942302 -0.6844599843
-0.81309479475 -0.28966277838 -0.50147610903
-0.8408228159 0.002187554026 -0.5384785533
0.80890643597 -0.30904784799 -0.50008898973
0.89134812355 -0.2520186305 -0.37677448988
0.86130028963 -0.42878332734 -0.27177461982
0.9306730628 -0.33568295836 -0.1429990828
0.95172375441 -0.1592938453 -0.2623501718
0.85225784779 -0.5190076828 -0.016294723377
0.98826479912 -0.096639618278 -0.11747346818
0.96171200275 -0.27315068245 0.016050698236
0.83134329319 -0.15681868792 -0.53286278248
0.91317349672 -0.082493782043 -0.39915773273
0.85223686695 0.00029954928323 -0.52315938473
0.91433161497 0.062860526145 -0.39856344461
0.96440315247 -0.00049833592493 -0.26433819532
0.98884397745 0.095849901438 -0.11304055899
0.95650058985 0.15383973718 -0.2445550561
0.99951672554 -0.00023406595574 0.028188737109
0.82280737162 0.14375773072 -0.54731631279
0.71852940321 0.094157502055 -0.6864618659
0.70504194498 0.0061621344648 -0.70925700665
0.71251922846 -0.086044803262 -0.69541960955
0.70483791828 -0.17714551091 -0.6844727397
0.93071430922 0.33336398005 -0.14550960064
0.96150815487 0.273586303 0.016874477267
0.88884705305 0.27059280872 -0.36706066132
0.86965602636 0.41663476825 -0.26126620173
0.79418355227 0.33254024386 -0.50745731592
0.70526725054 0.37264546752 -0.60272878408
0.75978428125 0.44940850139 -0.46964594722
0.64564687014 0.51691925526 -0.56202501059
0.58744084835 0.42967331409 -0.6856752634
0.46696150303 0.46123105288 -0.75379937887
0.22555521131 0.78823435307 -0.57086753845
0.46378964186 0.75918978453 -0.45590278506
0.28385898471 0.86169481277 -0.41904810071
0.12902536988 0.86421638727 -0.48628529906
0.080542393029 0.78579908609 -0.61318439245
0.00033990325755 0.85061228275 -0.52578812838
0.13616836071 0.92451190948 -0.35560250282
0.26275333762 0.94936329126 -0.16902111471
0.0018616328016 0.91268366575 -0.4087382853
0.01753237471 0.96096676588 -0.27538073063
-0.13025303185 0.92473590374 -0.35758256912
-0.25387474895 0.86316347122 -0.43642029166
-0.26034215093 0.91233944893 -0.31485942006
-0.12403999269 0.86467522383 -0.48674702644
-0.3828843534 0.84410732985 -0.3753438592
-0.40163999796 0.88313812017 -0.23974111676
-0.24354436994 0.38143578172 0.89158844948
-0.093316398561 0.28792485595 0.95136421919
-3.8263617171e-05 -9.8792515928e-06 0.99996763468
-0.10812367499 0.10379952937 0.98787403107
-0.095748089254 -0.12199416012 0.98780357838
-0.32630687952 0.13118602335 0.93391543627
-0.25342839956 -0.0024691545404 0.96588277817
-0.17769539356 0.26620572805 0.94630169868
-0.37648338079 0.20849952102 0.90151458979
-0.42019671202 0.28202348948 0.86036926508
0.26085054874 -0.00012337096268 0.96519351006
0.095437519252 0.11946333945 0.98793566227
0.099915854633 -0.10205747187 0.98866206408
0.35024932027 0.14079333842 0.92602676153
0.50848257542 -0.0046014329419 0.85830771923
-0.33493044972 -0.13372369111 0.93098443747
-0.16199673712 -0.26557719707 0.95038831234
-0.16330236197 -0.5362829566 0.8278554678
-0.082648515701 -0.40099233389 0.91234761477
-0.2398391515 -0.38046434522 0.89274358749
-0.00021375803044 -0.52452802658 0.85139256716
0.083075560629 -0.40038022399 0.91256719828
-0.016431139782 -0.27642816305 0.96052658558
0.16266188025 -0.53617191315 0.82812827826
0.26088553667 -0.38016444445 0.88716936111
0.33184590936 -0.50380015373 0.79725682735
0.17479944229 -0.27835646272 0.94394278526
0.00028373056557 -0.69171643257 0.72143042088
0.17408905923 -0.70647251606 0.68578135967
-0.17281384766 -0.70653879642 0.68600875139
0.34127479792 -0.15040513873 0.92747020721
0.14890678227 -0.18551497161 0.9695904851
0.45735991001 -0.2684057653 0.84752112627
-0.00037117578904 -0.70752298832 -0.70645141602
-0.17635303736 -0.68293660879 -0.7082592845
0.00050758488942 -0.53038805723 -0.84702825546
0.16898979247 -0.70115727186 -0.69263166189
0.075678139925 -0.78171092272 -0.61894881725
-0.078449703753 -0.78561574221 -0.6137253046
0.0050727343187 -0.85137689114 -0.52421712875
0.60980898142 0.70593255758 0.35974234343
0.7817517519 0.57343482971 0.24284648895
0.70007348061 0.69650971889 0.15628233552
0.67160695791 0.59804618359 0.43718007207
0.56533825397 0.64336895943 0.51590007544
-0.51952165365 0.019467001781 -0.85412842035
-0.61181378365 -0.076685763896 -0.78726834059
-0.61176681519 0.079207897186 -0.78704440594
-0.70524460077 -0.0010966508416 -0.70892977715
-0.69263064861 0.16598924994 -0.70141285658
-0.86011111736 -0.43573686481 -0.26402059197
-0.92758512497 -0.346062392 -0.13523040712
-0.94596678019 -0.17806483805 -0.26590466499
-0.98668938875 -0.090315692127 -0.13043707609
-0.86756503582 -0.48123773932 -0.12444556504
-0.91105091572 -0.40989115834 0.013928584754
-0.83442950249 -0.5490205884 0.01908143051
-0.96624046564 -0.25221964717 0.023163106292
-0.077434331179 0.78576034307 -0.61368918419
-0.21271754801 0.79199874401 -0.5722168684
-0.16503426433 0.68220961094 -0.71128195524
-0.30122748017 0.70442664623 -0.64268118143
-0.34694522619 0.78136008978 -0.51876288652
-0.44159728289 0.67124027014 -0.59524822235
-0.38048869371 0.59391099215 -0.70878767967
-0.4779034853 0.75356417894 -0.45095992088
-0.69510883093 0.65467894077 -0.2951926291
-0.26703804731 -0.8619954586 -0.43039995432
-0.12609611452 -0.86497861147 -0.48561394215
-0.13320323825 -0.92526882887 -0.35509356856
-0.0061340099201 -0.91532617807 -0.40257695317
0.0084141455591 -0.9640763402 -0.26570269465
-0.91942918301 -0.30094942451 0.25081342459
-0.86342614889 -0.44033297896 0.24339058995
-0.58080089092 -0.20920468867 -0.78599852324
-0.2174680382 -0.7907230854 -0.57205742598
-0.41931131482 -0.69032174349 -0.5884629488
-0.71482104063 -0.68154811859 -0.14965994656
-0.79274767637 -0.56975519657 -0.21592612565
0.13019858301 -0.92604351044 -0.35413634777
0.71343809366 -0.33586606383 -0.61400723457
0.64340704679 -0.57433521748 -0.50105112791
0.67716181278 -0.6052775383 -0.41622531414
0.48853644729 -0.75002419949 -0.44382196665
0.61270791292 -0.70486670732 -0.35675257444
0.78109508753 -0.57672089338 -0.2379039079
0.70308160782 -0.6953214407 -0.1475212276
0.77893096209 -0.44400858879 -0.44113060832
0.2375420928 -0.86431950331 -0.44178262353
0.21477584541 -0.79041957855 -0.57366621494
0.0014431177406 0.70760989189 -0.70641809702
-0.00086104136426 0.53352981806 -0.84465831518
0.66602295637 0.60814094543 -0.43086349964
0.56158185005 0.65509444475 -0.50609970093
0.59522688389 0.70947337151 -0.37719213963
0.50205540657 0.80678898096 -0.31120344996
0.52675807476 0.83461093903 -0.16065149009
0.64881563187 0.71426963806 -0.26167887449
0.66235387325 0.74062985182 -0.1097657606
0.52864539623 0.84880048037 -0.0064371163025
0.76747637987 0.60368204117 -0.21046604216
0.39249762893 0.88896584511 -0.23601914942
0.40283074975 0.91157352924 -0.082151673734
0.27011102438 0.96281415224 -0.00079577940051
0.40237769485 0.91221290827 0.077104501426
0.26684802771 0.95064675808 0.15811045468
0.13592551649 0.98773026466 -0.076997928321
0.13541151583 0.98772901297 0.077898025513
0.00022982463997 1.0000039339 0.00014143512817
0.51508551836 0.84347867966 0.15229690075
0.38606736064 0.89250332117 0.23318010569
0.13070732355 0.96888136864 -0.20992267132
0.016504397616 0.98998451233 -0.13929493725
0.12985500693 0.96339774132 0.2312721312
0.0092085748911 0.9152610302 0.40119609237
-3.7712161429e-06 0.98990088701 0.1417889148
-0.007893094793 0.96130365133 0.27474680543
-0.12343394011 0.86449617147 0.48691961169
-0.12962542474 0.92379909754 0.36029070616
-0.25373461843 0.86306852102 0.43666532636
-0.13516557217 0.96589946747 0.22076380253
-0.26267275214 0.91687762737 0.30055016279
-0.26649859548 0.95087373257 0.1574845463
-0.13491676748 0.98768359423 0.079165659845
-0.38093468547 0.84437799454 0.37671658397
-0.38994461298 0.89038807154 0.2348112613
-0.14438414574 0.98755270243 -0.058731302619
-0.27013540268 0.96271502972 0.013029618189
-0.26798719168 0.95564264059 -0.11998066306
-0.39132341743 0.91820597649 -0.05942492187
-0.39928174019 0.91313558817 0.082203298807
-0.51721543074 0.84126913548 0.15719617903
-0.78617483377 0.61303532124 -0.077696308494
-0.84939533472 0.52739918232 0.0018821478589
-0.06408791244 0.78253638744 0.61818021536
-0.20873852074 0.79308921099 0.57215768099
-0.34626504779 0.78164029121 0.51873618364
-0.29728257656 0.70187807083 0.64719575644
-0.4736700058 0.75460916758 0.45378148556
-0.64396780729 0.51518583298 0.56550574303
-0.75498509407 0.4536819458 0.47339913249
-0.70358484983 0.36307629943 0.6101115346
-0.80743044615 0.30625042319 0.50419467688
-0.86463207006 0.48587408662 0.1277654469
-0.58119505644 0.23023468256 0.77991938591
-0.70039123297 0.16742704809 0.69347560406
-0.54452580214 0.017414396629 0.83723247051
0.068547874689 0.62592154741 0.77643358707
0.23527470231 0.61341160536 0.75380682945
0.16196417809 0.51898986101 0.83940047026
0.31303346157 0.50419569016 0.80487567186
0.31663909554 -0.49418613315 -0.80954754353
0.24840945005 -0.38480216265 -0.88885378838
0.4368262887 -0.37786734104 -0.81580638885
[...]
CELL_DATA 1220
SCALARS cell_data_0 double
LOOKUP_TABLE default
2.51503747882e-07
4.93463436411e-07
1.31446474207e-07
5.54871752538e-07
3.73266796378e-07
5.79200665421e-07
6.01671065796e-07
2.96307852746e-07
3.23022595604e-07
3.43847187898e-07
1.60249904376e-08
2.29816491145e-08
5.81875539301e-08
1.10228566996e-07
6.70387781961e-08
7.10198036038e-08
1.34246246717e-07
4.5190565542e-08
7.41851392912e-08
3.92596200438e-08
3.35716819012e-08
2.56619527842e-08
1.84447300047e-08
2.74951228988e-08
6.9025361431e-10
5.41077224572e-08
4.79542222645e-08
4.2334986059e-08
3.82250591166e-08
2.30149396465e-08
6.3625304546e-08
8.99633956144e-09
3.92077206021e-08
3.0280861278e-08
2.86724373352e-08
3.76202024439e-08
2.37691874862e-07
1.70747882407e-07
8.42229697079e-08
9.10287894881e-08
1.62143729315e-08
1.48518606947e-08
1.65256411179e-08
3.39789687893e-08
1.85395936525e-07
1.46926784582e-08
1.87154990015e-08
4.51868188022e-08
3.85669962391e-08
6.84588111404e-09
2.5059643719e-08
9.68857232935e-09
3.76286211804e-08
3.14674726203e-09
1.27478427401e-08
1.34559742886e-08
1.43665507288e-07
2.79653416515e-07
2.34483812182e-08
1.01313010882e-07
6.33496314458e-08
2.0649335474e-08
1.61724988977e-07
1.15207492978e-07
1.40275583726e-07
1.26616763294e-07
1.20092784074e-07
4.25732851789e-08
1.31356164748e-08
1.528026537e-08
1.71675471462e-08
2.90501369798e-08
9.753694675e-09
1.77858182822e-08
6.78821464183e-08
7.23138693298e-09
1.17894850159e-08
4.95142842923e-09
1.33725971251e-09
8.09221197135e-08
1.09660574876e-07
1.42538739895e-07
1.11516679443e-07
3.44773086173e-08
8.95958093598e-08
7.00835310746e-08
5.3693533972e-08
8.33299819517e-08
1.03832019822e-07
4.00478880538e-08
1.45872742819e-07
9.7179143366e-09
2.09102807338e-08
1.80480512648e-08
1.02701227367e-08
1.82778469523e-07
1.07163276782e-07
3.35495741795e-08
1.29594499427e-08
2.36582490024e-08
8.77671017813e-08
5.07197508906e-08
5.89317215959e-08
2.96728518573e-09
6.94637008587e-08
9.38770134416e-09
6.70260157212e-08
5.22374070008e-08
9.0755474662e-08
3.30230855358e-08
1.8722085789e-08
1.82956154512e-08
2.47939271189e-08
1.12938348725e-08
6.68701710743e-09
1.35299423353e-08
2.17829816568e-08
1.72563067082e-09
1.34380352183e-08
4.77741745748e-09
6.1143663738e-09
2.03799576912e-08
4.17663474004e-08
7.90613863284e-08
1.09910664024e-08
2.19761953265e-08
5.60535046468e-08
4.11570460924e-08
1.57045532901e-07
2.84871192295e-08
7.43890747583e-08
1.00470879396e-07
1.79559052909e-08
1.56998575119e-08
2.74484203355e-08
3.11708588987e-08
8.20433390653e-08
2.45579838939e-08
2.56242254455e-08
1.02546691231e-07
1.04568946715e-07
6.37482952509e-08
1.19687477914e-07
3.38130470081e-08
9.69940883951e-09
8.12128137565e-08
1.01302767955e-07
1.35988225617e-07
1.00785589207e-08
8.44692110977e-09
8.88118947899e-09
2.21161970336e-08
3.03027263673e-08
7.61172018707e-09
4.83042517504e-08
5.82500027355e-08
1.15562185202e-09
1.18897418763e-07
3.5772069611e-08
2.53292158048e-08
4.53805557886e-08
5.2409648255e-08
7.9304394138e-08
8.84325032869e-09
3.05346924489e-10
1.43209238357e-08
3.08613056658e-08
1.69526278874e-08
4.01293234099e-09
2.57337610247e-08
2.55811101689e-08
2.91164634833e-09
4.06715362636e-08
1.8838794054e-08
2.93657915457e-08
9.63963370992e-09
3.14476879944e-08
4.97669998172e-08
1.22535916303e-07
2.04570034627e-09
2.87512231782e-09
3.93185474733e-08
5.31713291628e-08
7.58447665021e-08
1.52726956782e-08
9.62326133121e-08
1.40684908948e-07
2.56828319577e-07
3.82350977354e-08
3.57260898651e-09
5.18230269746e-08
2.03313400291e-08
1.06935327874e-08
6.14711450295e-08
1.19720604903e-08
2.52948759588e-08
4.89224466108e-08
5.51898234519e-08
5.40565152149e-08
5.56140264598e-08
4.20184281473e-08
6.85578696325e-08
1.37454810059e-08
2.79096682425e-09
4.48711342991e-08
3.1045988138e-08
4.08835505348e-08
3.22266687964e-08
4.90134310353e-08
2.44253804856e-08
7.45697465422e-08
3.78940510461e-08
2.26460640287e-08
3.00853123458e-08
1.44212443185e-08
2.22004653555e-08
5.61520790912e-08
1.18123142119e-08
8.67416157347e-09
2.79334095458e-09
6.91862849066e-09
4.22855513547e-08
3.33896677811e-08
8.85038991685e-08
1.28853293744e-07
3.25885873539e-08
3.56921501972e-08
4.3636085865e-09
1.86793743481e-08
2.38693551349e-09
1.59693476207e-08
1.225936501e-08
1.04649534395e-08
1.1590458299e-08
2.84956740346e-08
4.31733006606e-08
6.71109446417e-08
2.76609800021e-08
7.85864204417e-08
1.0717225775e-07
2.15881351196e-07
9.95331553608e-08
2.49333251945e-07
1.68938200886e-07
2.98724311722e-08
2.30930004479e-08
6.90316250197e-08
2.05340727055e-08
2.41789960447e-08
1.72393522603e-07
5.50681237185e-08
1.46881472953e-07
1.44777114546e-07
7.72104359172e-08
2.81340430357e-08
5.01307179331e-08
3.44319797911e-08
1.39685737547e-07
2.09949344784e-07
1.47176918705e-07
2.02028212899e-08
2.6989784271e-08
1.55462836357e-09
4.07933125098e-08
3.45814860644e-08
2.00089994099e-08
1.50545988786e-08
1.18209351736e-08
7.71078478345e-08
8.80535177173e-08
1.00240451889e-07
6.58058190609e-08
4.03222602863e-08
7.04134196453e-09
2.04826339055e-08
1.93943118145e-08
1.16781584128e-08
3.16744866505e-09
6.86413693774e-09
1.18503782397e-08
3.50016594622e-08
3.61621644366e-10
1.68840582465e-08
6.46635123834e-09
2.15289364773e-08
9.07345627126e-09
1.21380261132e-08
2.25091403805e-08
4.2249531457e-08
9.24374874715e-09
1.65213536703e-08
3.95299360284e-08
6.26894156604e-08
6.93610468489e-08
2.57031303842e-08
4.46358900967e-09
1.73473265481e-08
2.2744851378e-08
1.19584654783e-08
6.49912661762e-09
1.84573088474e-08
1.56014581141e-08
1.92892871467e-08
2.08493045856e-09
9.9949313481e-09
2.07392109286e-08
1.86015724979e-08
2.52511387682e-09
1.55361877895e-09
1.85443461402e-08
1.29170225953e-08
4.80586218071e-09
5.34208209562e-08
1.6264390748e-10
1.98647069309e-07
1.14730570874e-07
1.98858838781e-08
2.97134133532e-09
5.35614937405e-09
4.85646246813e-08
1.81145459393e-07
1.14442697992e-07
2.12728260077e-07
2.49901946534e-07
1.3676054928e-08
9.36376068434e-09
8.8239588492e-09
4.05548081409e-08
3.01959222251e-08
2.19795475205e-08
5.81884971285e-08
5.13486752496e-09
1.83552742092e-07
1.62114028979e-07
1.45237904787e-07
8.89639545175e-08
8.30753504569e-08
8.7692055337e-08
1.49962781107e-07
1.6030755109e-07
1.24465859649e-07
8.58224157099e-08
1.48713654135e-07
9.71047516589e-08
4.52099168423e-08
3.10031642269e-08
4.80470949595e-08
3.91410501567e-08
1.54664538856e-08
5.07231614125e-09
1.61646876898e-08
1.09261685533e-08
7.54391734452e-09
1.13693077789e-08
1.15075280301e-08
7.78907838792e-09
3.27544183344e-09
1.42728637983e-08
4.95882611218e-09
8.41070397176e-09
1.03595676743e-08
2.75068539462e-09
1.87629468028e-08
1.62410811906e-08
2.60253834321e-08
1.37894624967e-09
2.99513836055e-08
6.61840455788e-09
1.62221955239e-08
4.32434780433e-09
4.72859885237e-08
3.28605951633e-08
4.98876518492e-08
3.48718371682e-08
2.4506046064e-08
4.43562517551e-09
8.39690031864e-09
1.922116114e-08
2.50197297986e-08
1.73106284269e-08
4.03873549876e-08
2.27879476835e-08
3.60294449701e-08
5.28263653371e-09
4.62501531426e-09
5.17814878562e-08
1.60329634172e-08
5.53071995339e-09
1.02494760483e-08
4.30269097766e-09
1.86906542257e-08
2.18749508774e-08
1.54044643719e-09
2.34040286767e-09
1.94512677172e-08
1.41947184035e-08
6.59450549377e-09
1.05880994407e-09
8.86141592576e-09
6.69034829058e-09
2.07489454635e-09
2.48935435632e-08
1.48651768546e-08
1.70832475796e-09
8.62413790558e-09
3.808116558e-08
1.3028169545e-08
1.44932991884e-08
1.35959536199e-08
1.7057782399e-08
1.25460647962e-08
3.51357867032e-08
1.54287683097e-08
3.06122617737e-08
1.8433238035e-08
7.67929459318e-09
4.96622211318e-08
6.48318084342e-08
8.18393593789e-08
4.25292192015e-08
4.0240463517e-09
1.32617664159e-08
2.70107479938e-08
2.47160034086e-08
1.80398365035e-08
2.80530055913e-09
8.91720359375e-09
1.57722459448e-09
5.15346234321e-09
1.38380589873e-08
5.20071282551e-09
2.23325439533e-08
8.26636616049e-08
1.3536359848e-08
1.0357744816e-07
1.28412940059e-09
1.06721671679e-08
1.48543977934e-08
3.67322000726e-08
2.22279532488e-09
2.76020116763e-08
1.24369816915e-08
5.78876638687e-09
1.15824464582e-09
3.37606001905e-08
4.1935287045e-08
9.78661796565e-09
3.76450436855e-09
2.79605392292e-08
7.5568232563e-09
1.57086844764e-07
3.9384482136e-08
1.71395967213e-07
2.05973417042e-07
2.84005221095e-08
3.2441091115e-09
6.20494456959e-08
4.73045970837e-09
1.20773430454e-07
1.71453007371e-07
5.1794977933e-09
1.52267567489e-08
3.38922629257e-08
1.48737286654e-08
9.76404608044e-08
9.45515075842e-08
6.02426536218e-08
9.16421906449e-08
1.56193452541e-08
1.81786082675e-09
6.58525003855e-09
1.00655920038e-08
3.60599141875e-09
2.14321184283e-08
1.73982333158e-08
1.00094688145e-08
2.27248863672e-08
1.05454956264e-09
1.55313749516e-08
1.60166895959e-08
3.80330502404e-08
1.82132006302e-08
3.72294847033e-08
2.48196676671e-08
2.3809631847e-08
2.33783439383e-08
2.80149626594e-08
5.03170407658e-09
2.14949460253e-08
3.45059511863e-08
7.14194921377e-08
6.33939416737e-08
3.73023177687e-08
4.50518110629e-08
4.64784155103e-08
6.552721502e-08
2.46397458948e-08
1.89176749282e-08
1.1431131732e-08
3.82994121547e-08
7.11446553721e-09
3.09793637779e-09
1.36294039172e-08
6.78247721895e-11
1.45171187139e-08
7.34738232814e-09
2.8012631494e-08
1.6945158508e-09
1.45083880893e-08
1.59804737187e-08
1.66917725935e-08
3.76151290282e-08
1.71201244347e-07
1.24990550212e-08
5.73163845968e-08
4.0943919673e-09
4.91856810176e-09
1.11950988314e-08
2.80249561843e-08
1.02686283909e-08
1.42238415566e-08
1.03935080781e-08
1.63487730207e-08
8.38057420813e-09
8.0787861224e-09
3.04555443158e-08
7.02708505008e-08
8.0224270679e-08
1.32880783998e-07
1.02588272617e-07
1.63830881781e-08
2.15804972752e-08
7.93333823649e-09
2.24091168908e-09
4.44909877258e-09
1.08776932605e-08
1.52776670322e-08
6.61426663337e-09
2.58647778343e-09
4.85563788564e-09
4.80590810281e-10
1.31527646814e-08
3.51634899949e-09
2.71335301629e-09
2.19175393524e-08
4.61739053999e-08
1.96939646952e-08
1.62527822643e-09
2.28666912151e-08
1.40058392005e-08
1.76913957854e-08
2.6603581234e-09
2.54641888371e-08
1.53650689501e-08
1.88324076123e-08
6.94183874905e-09
1.50417799264e-08
2.89929040588e-08
1.78063523678e-08
6.25242050841e-09
2.22808663122e-08
2.07036439992e-08
2.99772333383e-08
9.91639536473e-08
6.8011030642e-08
6.05273379969e-08
1.86363173791e-08
7.49658073388e-08
9.71819887074e-08
1.95578882131e-07
9.30986877595e-08
9.57714139149e-08
4.17448454349e-08
1.50653552237e-08
1.82810769296e-08
2.5646287024e-08
1.428942157e-08
1.82843907766e-08
2.39454918273e-08
1.33368073652e-08
3.43111258035e-08
1.33818320769e-08
6.83563190111e-10
1.08241822049e-08
3.3936005599e-08
1.32736729191e-08
3.98613869296e-09
3.33017002937e-10
9.93523690404e-09
4.92022179471e-09
1.17148113147e-08
1.87383115474e-08
2.60130605081e-08
7.30961559922e-09
4.71556016918e-08
1.09291887195e-08
3.90533629019e-08
4.60179014058e-09
3.53899262459e-08
1.25896062621e-08
3.96969037482e-08
6.60835446855e-10
5.25299584008e-08
3.58583831096e-08
1.57602939504e-08
6.86662733623e-10
3.30006921249e-08
5.48953999181e-09
2.8598523145e-08
6.33639755814e-09
9.61156228082e-09
1.07393976526e-08
3.4595791417e-09
9.67889434062e-09
5.06006642141e-09
1.40579317193e-08
1.25429457614e-08
4.98589964916e-09
2.25110441831e-09
3.585549736e-09
9.51386564045e-09
1.38828485772e-09
2.24315442055e-09
5.94442442747e-09
2.42053846207e-08
5.04872031278e-09
3.57224167081e-08
6.61909981611e-09
2.43008542171e-08
2.32194518268e-10
7.59334101105e-09
3.51739523829e-10
3.34010926387e-08
4.99422993942e-10
4.5957532989e-08
5.85722195796e-09
2.46587942122e-09
2.57753474074e-09
6.1311282311e-10
2.90747905926e-08
3.77288572238e-08
1.04500256355e-08
1.34607393917e-08
1.6841368677e-08
1.97729605026e-08
1.71395193111e-08
1.09212046245e-08
2.12201877032e-08
1.01242491012e-08
7.42748285065e-09
1.71575870326e-09
7.43935572224e-09
8.4370375419e-09
3.34793181239e-09
7.89189943107e-09
2.16133187674e-08
4.57093308433e-08
2.01590830641e-09
1.35907841358e-08
2.85989876566e-10
8.09232303638e-09
2.0501768251e-09
2.89569423633e-08
3.29782570991e-09
8.55960157369e-09
1.13189946904e-08
4.65273037552e-08
2.75192941242e-08
6.73347760962e-09
6.30211143459e-10
2.22027651582e-08
3.78102010532e-09
2.52429475726e-08
5.38495910985e-09
2.97652607999e-09
4.01244218764e-08
7.35999599074e-09
5.41088749755e-09
1.31722482264e-08
3.77095271304e-08
4.03527444678e-10
2.57755355238e-09
1.02683324648e-08
1.98261551242e-08
4.3215280706e-08
1.01326977236e-08
1.60791735759e-08
2.95683457362e-08
1.55434834292e-09
2.14494700671e-11
2.95986716184e-10
3.90592840816e-09
2.40665036364e-09
1.77191596999e-10
3.9045549126e-09
1.76250232977e-10
8.29783298083e-09
1.5122366315e-08
3.89694985012e-08
1.53124997835e-09
6.74304872424e-09
1.15075106134e-09
1.33946847819e-08
1.0968513432e-08
8.83482789799e-09
1.16647761106e-09
9.02026996562e-09
5.49582239588e-09
2.91952065565e-09
1.43165964585e-08
7.32904783193e-09
2.32618410982e-09
5.26993249583e-09
5.94462359963e-09
3.80347703921e-09
1.13532286231e-08
8.30955472385e-09
5.61385022863e-09
3.0641302445e-09
4.55971020295e-08
2.31725019385e-08
7.32189326114e-09
2.51730404341e-08
5.0513345149e-09
1.85814960349e-08
5.39177307218e-09
5.37533513077e-09
2.02163078702e-09
2.61119405443e-08
7.98734684335e-09
2.74900185965e-08
1.67901911318e-09
1.32262883672e-08
1.79865069374e-08
3.2280369824e-09
1.19529698417e-08
3.99672575632e-08
4.8659976614e-08
3.14450818267e-08
1.30403705995e-08
1.61181872488e-08
3.56691172899e-08
1.16971268021e-08
3.83682471825e-09
8.84063853734e-10
2.01667319545e-08
9.32773528979e-10
2.26973618158e-08
2.11355485754e-08
1.44769721825e-10
2.27340276465e-08
5.89133048477e-08
5.76481473477e-08
6.41606357925e-09
5.65129034987e-08
1.69981608172e-08
2.77685833502e-08
3.6458476687e-08
3.82407725148e-08
2.39640072239e-08
9.47289321353e-09
8.15137359183e-09
4.12977567913e-09
1.51016882022e-08
1.35685529057e-08
2.34052767056e-09
2.93478697462e-08
5.81317583351e-09
2.02239559896e-08
1.66561752229e-08
2.22189092835e-08
3.33852695107e-08
9.43710606676e-09
1.28898732706e-08
4.5893193567e-08
6.04440059415e-09
8.3362266428e-09
7.08889540059e-09
1.42373862191e-08
9.59380492244e-09
3.93412520155e-09
1.54331341018e-08
6.41008176241e-09
1.63233641222e-08
9.29874221877e-09
2.58937935394e-08
1.69504906967e-10
6.22178371166e-08
2.97317357118e-08
3.39492260611e-08
2.30103314302e-08
2.30000927265e-08
2.82072434827e-08
2.16792985234e-08
1.06142980088e-08
8.69769266336e-09
1.22889460406e-08
1.8768822919e-09
6.65963278918e-10
7.91175250494e-09
1.13143832915e-08
2.7158832996e-09
6.42908528262e-10
1.76669180324e-09
1.18924751788e-08
2.18553015185e-09
1.65886707193e-09
1.73995894836e-09
6.44079124277e-09
4.06627392294e-08
3.43362509717e-08
4.67981026669e-08
1.76330055083e-08
1.74163573255e-08
1.99224576769e-08
2.27040139148e-08
7.55867659287e-09
5.21592436673e-08
2.23738606554e-08
3.984872186e-09
4.27872566535e-08
3.82296506572e-08
7.36257053084e-08
6.6915111656e-08
3.79890912403e-08
1.94738015991e-09
2.1370325532e-08
8.22308526157e-09
1.1175426444e-09
5.61583157133e-09
1.0157656149e-08
1.56788633905e-08
2.08537130513e-08
1.5307937046e-08
1.59319543919e-08
1.22195841747e-09
1.16983903469e-08
1.37947064088e-08
3.50607495279e-09
5.92971966902e-09
6.64327900769e-09
5.32938219249e-09
1.32685163111e-08
6.03955345122e-10
8.73316345418e-09
9.55725905566e-09
5.82104210227e-09
1.09555472115e-08
1.29341001227e-08
3.02143619381e-08
3.14528319617e-08
2.69382242961e-08
6.19822331938e-09
2.55147281732e-08
7.40375153025e-08
5.98221314834e-08
7.35422412289e-08
7.46743816403e-08
3.01322938768e-08
2.58618624052e-08
1.36503061391e-08
2.06767218835e-08
1.56735457842e-08
1.06364232184e-08
1.88523156559e-07
2.75269540576e-08
3.91095906858e-08
2.13238130525e-08
7.0973629363e-10
5.80016487094e-08
5.56272840179e-08
2.51355443407e-08
2.3371896909e-09
2.14350467704e-08
3.15376414413e-09
5.94733986093e-09
1.77657067903e-08
1.56545374231e-08
1.73772225514e-08
2.39509855389e-08
2.44327273145e-08
1.78644624037e-08
1.17859917393e-08
9.60275264899e-09
1.48929223006e-08
2.83660630636e-09
3.07891642261e-09
1.01017831177e-08
3.59988476473e-09
2.08346645846e-08
5.70088612263e-08
1.72000349967e-08
1.13041086374e-07
1.32018792761e-07
1.93470580598e-08
1.2387260834e-07
1.04292287687e-07
2.53578882389e-07
3.35688255779e-09
1.53995564309e-08
6.57801623894e-09
1.27945661578e-08
5.50840613587e-10
2.75330016706e-09
2.06525036959e-09
1.59119718378e-08
6.11934225153e-09
8.86574846128e-09
1.93911914705e-08
2.7220736901e-09
6.7995615405e-09
1.57421474192e-08
2.41038350149e-08
1.83306751578e-07
2.51538107275e-08
8.57280262043e-09
9.68189867945e-08
7.03934681939e-08
1.9545540179e-09
5.55777522914e-09
2.36409632475e-08
2.5319972759e-08
1.04423254299e-08
1.6966275056e-08
2.89831832919e-08
6.15925136992e-08
3.31297303914e-08
2.23365513301e-08
3.81057789497e-08
1.7261468913e-08
4.85067321553e-09
1.20956597317e-08
3.70447040035e-09
7.39416624469e-09
5.5880596632e-09
1.17252961674e-09
1.08784663041e-08
5.79932322395e-09
6.4641036337e-09
6.42599777719e-09
1.80335767138e-08
2.62465122682e-08
1.23816969568e-08
5.42865535306e-09
5.48854000885e-09
9.77481995264e-09
1.14454641341e-08
1.25008691002e-08
7.16346374125e-09
6.88589532254e-09
3.84265962309e-08
6.95731476213e-09
1.91938362923e-08
4.43006379607e-09
1.36001776237e-08
3.45433430679e-08
2.68021655694e-08
6.48512468424e-09
9.42851167345e-09
8.0821096621e-09
1.29384485184e-08
3.01719398285e-09
1.65276113827e-08
1.29311494282e-08
1.56480162933e-08
2.69097720262e-08
9.51846249949e-09
7.10842839307e-09
1.31430805432e-08
2.92226657451e-09
1.86720165606e-08
2.45659260973e-08
4.64333675576e-08
5.02860552979e-08
8.12358924127e-09
2.39672744921e-08
2.23018076877e-10
1.75031605574e-08
5.13701531118e-08
2.10754965332e-08
2.9016984808e-09
2.3939352196e-09
1.57295651094e-08
1.20457919657e-08
4.38359426981e-09
2.11594320451e-08
2.62187233568e-08
9.64113688865e-09
1.18246993344e-08
1.6041799812e-08
2.96086126009e-08
5.2892987884e-08
3.29812668236e-08
1.82101828057e-08
2.28340630502e-09
5.60579956344e-08
2.32114995147e-08
4.30591024722e-09
4.21825031049e-08
8.27044076551e-08
3.59501381319e-08
7.36894380201e-09
1.64557108404e-08
1.85485556314e-08
1.20173197029e-07
4.05475022636e-08
9.07141623904e-09
5.040034908e-09
1.06100177072e-08
4.06806423492e-09
1.02386740153e-08
3.89126678267e-11
1.3530669631e-08
2.45198705569e-08
2.73463187472e-08
3.12916755976e-09
1.6073086471e-08
6.68948141812e-10
1.71928548946e-09
2.89769169823e-09
1.59034973517e-08
4.3263433696e-10
3.23369821733e-08
2.11574729935e-08
1.37725374273e-08
1.01395496246e-08
8.29531498524e-09
3.56319331396e-09
9.5864523944e-10
2.06495588223e-08
1.05294245274e-07
2.68116397442e-08
1.92485732028e-08
2.16016626237e-07
3.0770579249e-08
1.12223765472e-08
2.28349838734e-08
1.28334967621e-08
4.91836399095e-08
4.03016750205e-08
3.42278043849e-08
3.35623304025e-08
4.93956427181e-08
3.58843927695e-09
9.4776341433e-09
2.97726815119e-08
3.20502354945e-08
1.19965832559e-08
8.20040759971e-09
8.15093448023e-09
9.79420302751e-09
1.95407567071e-08
5.03533567962e-10
4.08322579769e-08
1.80418257308e-08
1.88797712104e-08
9.60586494784e-09
1.72557404698e-08
1.28593407421e-08
2.52259218759e-09
1.21590223312e-08
1.05917886695e-08
9.88461639502e-09
9.18509310418e-10
1.06073261513e-08
6.57881697443e-09
3.36572078254e-09
1.12158003403e-09
1.62353172688e-08
1.33179803536e-08
1.31455194538e-08
1.24416289855e-10
1.43855162715e-08
1.24906283022e-08
1.17024516069e-08
3.43750864514e-09
1.14400754678e-08
5.6895705368e-09
1.46259652332e-08
9.48501932539e-10
1.264358934e-08
6.91256736324e-10
1.15808291783e-08
1.54528787331e-09
3.14234744779e-09
7.50671705127e-09
2.50217239689e-09
7.34596635056e-09
1.30442477061e-08
1.33803371801e-08
8.09159641849e-09
1.63813842104e-09
1.0445099071e-08
3.33478700672e-09
1.07262644103e-08
2.07629883598e-10
1.49175395869e-08
1.70457227113e-11
9.42754796776e-09
2.65090527488e-09
2.81393895861e-10
9.80214110925e-09
3.42893804533e-10
1.35181530099e-09
1.08101436617e-08
7.38805159427e-09
1.30360779716e-08
6.20268618783e-09
2.43499383983e-10
4.41123056733e-09
1.11013633405e-08
1.75276157005e-08
8.01609320705e-09
5.01416194287e-08