# vtk DataFile Version 3.0
File Name: Molecule/sphere_dip_12/sphere_dip_12_0-s5.vtk
ASCII
DATASET UNSTRUCTURED_GRID
FIELD FieldData 1
TIME 1 1 double
0.0
POINTS 717 double
0.809016994375 -0.309016994375 -0.5
0.850650808352 0.0 -0.525731112119
1.0 0.0 0.0
0.69378047756 -0.16062203564 -0.702046444776
0.69378047756 0.16062203564 -0.702046444776
0.809016994375 0.309016994375 -0.5
-0.525731112119 0.0 0.850650808352
-0.433888564553 -0.259891913008 0.862668480416
-0.273266528913 0.0 0.961938357784
-0.162459848116 -0.26286555606 0.951056516295
-0.702046444776 -0.69378047756 0.16062203564
-0.5 -0.809016994375 0.309016994375
-0.688190960236 -0.587785252292 0.425325404176
-0.425325404176 -0.688190960236 0.587785252292
-0.309016994375 -0.5 0.809016994375
-0.587785252292 -0.425325404176 0.688190960236
0.688190960236 -0.587785252292 -0.425325404176
0.587785252292 -0.425325404176 -0.688190960236
0.862668480416 -0.433888564553 -0.259891913008
0.16062203564 -0.702046444776 -0.69378047756
0.259891913008 -0.862668480416 -0.433888564553
0.0 -0.850650808352 -0.525731112119
0.484441642061 0.131200378813 -0.864929335863
0.643954748142 0.294754166588 -0.70600443598
0.433888564553 0.259891913008 -0.862668480416
0.587785252292 0.425325404176 -0.688190960236
-0.26286555606 0.951056516295 0.162459848116
-0.519258489728 0.840177885327 0.15643446504
-0.5 0.809016994375 0.309016994375
-0.702046444776 0.69378047756 0.16062203564
-0.707106781187 0.707106781187 0.0
-0.601500955008 0.707106781186 0.37174803446
-0.425325404176 0.688190960236 0.587785252292
-0.757935420048 0.453990499739 0.468429850867
-0.790569415042 0.572061402817 0.218508012224
-0.862668480416 0.433888564553 0.259891913008
-0.850650808352 0.525731112119 0.0
-0.688190960236 0.587785252292 0.425325404176
0.0810862934433 -0.78384304242 0.615642020874
-0.0768840702267 -0.622785464303 0.778605872826
-0.16062203564 -0.702046444776 0.69378047756
0.16062203564 -0.702046444776 0.69378047756
0.0 -0.850650808352 0.525731112119
0.259891913008 -0.862668480416 0.433888564553
0.433888564553 -0.259891913008 -0.862668480416
0.301258879093 -0.264082750659 -0.916244175191
0.358228793487 -0.131655371352 -0.924304600611
0.220117027473 -0.132792476828 -0.966392597402
0.162459848116 -0.26286555606 -0.951056516295
0.273266528913 0.0 -0.961938357784
0.137952242128 0.0 -0.990438881957
0.0822424652791 -0.133071104141 -0.987688340595
0.915043421233 -0.403355348617 0.0
0.924304600611 -0.358228793487 0.131655371352
0.864929335863 -0.484441642061 0.131200378813
0.375038567478 -0.383613732685 0.843911474622
0.433888564553 -0.259891913008 0.862668480416
0.224799542734 -0.134651124684 0.965056599484
0.162459848116 -0.26286555606 0.951056516295
0.0 0.0 1.0
0.525731112119 0.0 0.850650808352
0.484441642061 -0.131200378813 0.864929335863
0.615642020874 -0.0810862934433 0.78384304242
0.571251659136 -0.213022865649 0.792649229259
0.69378047756 -0.16062203564 0.702046444776
0.516121620051 -0.346153014789 0.783451698363
0.647411893882 -0.296004592578 0.702309846744
0.587785252292 -0.425325404176 0.688190960236
0.453990499739 -0.468429850867 0.757935420048
0.758652300163 -0.237086325351 0.606825149272
0.707106781186 -0.37174803446 0.601500955008
0.809016994375 -0.309016994375 0.5
0.309016994375 -0.5 0.809016994375
0.37174803446 -0.601500955008 0.707106781186
0.51337544123 -0.564254211766 0.646577791798
0.425325404176 -0.688190960236 0.587785252292
0.564254211766 -0.646577791798 0.51337544123
0.646577791798 -0.51337544123 0.564254211766
0.688190960236 -0.587785252292 0.425325404176
0.468429850867 -0.757935420048 0.453990499739
0.601500955008 -0.707106781186 0.37174803446
0.5 -0.809016994375 0.309016994375
0.757935420048 -0.453990499739 0.468429850867
0.237086325351 -0.606825149272 0.758652300163
0.296004592578 -0.702309846744 0.647411893882
0.213022865649 -0.792649229259 0.571251659136
0.346153014789 -0.783451698363 0.516121620051
0.383613732685 -0.843911474622 0.375038567478
0.783451698363 -0.516121620051 0.346153014789
0.843911474622 -0.375038567478 0.383613732685
0.862668480416 -0.433888564553 0.259891913008
0.309016994375 -0.5 -0.809016994375
0.15643446504 -0.519258489728 -0.840177885327
0.238676930319 -0.386187385588 -0.891006524188
0.0823235800317 -0.399607051702 -0.912982492932
0.0 -0.525731112119 -0.850650808352
-0.15643446504 -0.519258489728 -0.840177885327
-0.0823235800317 -0.399607051702 -0.912982492932
-0.238676930319 -0.386187385588 -0.891006524188
-0.309016994375 -0.5 -0.809016994375
-0.162459848116 -0.26286555606 -0.951056516295
-0.301258879093 -0.264082750659 -0.916244175191
-0.375038567478 -0.383613732685 -0.843911474622
-0.433888564553 -0.259891913008 -0.862668480416
-0.273266528913 0.0 -0.961938357784
-0.358228793487 -0.131655371352 -0.924304600611
-0.403355348617 0.0 -0.915043421233
-0.484441642061 -0.131200378813 -0.864929335863
-0.525731112119 0.0 -0.850650808352
0.840177885327 -0.15643446504 0.519258489728
0.78020437071 -0.08114185162 0.620239582613
0.850650808352 0.0 0.525731112119
0.78020437071 0.08114185162 0.620239582613
0.702907030488 0.0 0.711281734962
0.69378047756 0.16062203564 0.702046444776
0.758652300163 0.237086325351 0.606825149272
0.615642020874 0.0810862934433 0.78384304242
-0.433888564553 0.259891913008 -0.862668480416
-0.484441642061 0.131200378813 -0.864929335863
-0.643954748142 0.294754166588 -0.70600443598
-0.69378047756 0.16062203564 -0.702046444776
-0.809016994375 0.309016994375 -0.5
-0.69378047756 -0.16062203564 -0.702046444776
-0.643954748142 -0.294754166588 -0.70600443598
-0.809016994375 -0.309016994375 -0.5
0.26286555606 -0.951056516295 0.162459848116
0.134651124684 -0.965056599484 0.224799542734
0.0 -1.0 0.0
-0.238676930319 0.386187385588 -0.891006524188
-0.309016994375 0.5 -0.809016994375
-0.15643446504 0.519258489728 -0.840177885327
-0.0823235800317 0.399607051702 -0.912982492932
0.0 0.525731112119 -0.850650808352
0.162459848116 0.26286555606 -0.951056516295
0.0823235800317 0.399607051702 -0.912982492932
0.238676930319 0.386187385588 -0.891006524188
0.15643446504 0.519258489728 -0.840177885327
0.309016994375 0.5 -0.809016994375
-0.358228793487 0.131655371352 -0.924304600611
-0.301258879093 0.264082750659 -0.916244175191
-0.375038567478 0.383613732685 -0.843911474622
0.702907030488 0.0 -0.711281734962
0.615642020874 -0.0810862934433 -0.78384304242
0.615642020874 0.0810862934433 -0.78384304242
0.525731112119 0.0 -0.850650808352
0.51337544123 0.564254211766 -0.646577791798
0.688190960236 0.587785252292 -0.425325404176
0.453990499739 0.468429850867 -0.757935420048
0.37174803446 0.601500955008 -0.707106781186
0.425325404176 0.688190960236 -0.587785252292
0.296004592578 0.702309846744 -0.647411893882
0.259891913008 0.862668480416 -0.433888564553
0.16062203564 0.702046444776 -0.69378047756
0.237086325351 0.606825149272 -0.758652300163
0.0810862934433 0.78384304242 -0.615642020874
0.0 0.850650808352 -0.525731112119
-0.375038567478 0.383613732685 0.843911474622
-0.433888564553 0.259891913008 0.862668480416
-0.162459848116 0.26286555606 0.951056516295
-0.484441642061 0.131200378813 0.864929335863
0.433888564553 0.259891913008 0.862668480416
0.375038567478 0.383613732685 0.843911474622
0.162459848116 0.26286555606 0.951056516295
0.484441642061 0.131200378813 0.864929335863
0.273266528913 0.0 0.961938357784
-0.238676930319 -0.386187385588 0.891006524188
-0.0822424652791 -0.133071104141 0.987688340595
0.0761780342124 -0.396525177464 0.914857743445
0.0 -0.525731112119 0.850650808352
-0.840177885327 -0.15643446504 -0.519258489728
-0.707106781187 0.0 -0.707106781187
-0.840177885327 0.15643446504 -0.519258489728
-0.606825149272 -0.758652300163 -0.237086325351
-0.519258489728 -0.840177885327 -0.15643446504
-0.620239582613 -0.78020437071 -0.08114185162
-0.5 -0.809016994375 -0.309016994375
-0.525731112119 -0.850650808352 0.0
-0.519258489728 -0.840177885327 0.15643446504
-0.386187385588 -0.891006524188 -0.238676930319
-0.399607051702 -0.912982492932 -0.0823235800317
-0.26286555606 -0.951056516295 -0.162459848116
-0.266404701135 -0.963861263467 0.0
-0.399607051702 -0.912982492932 0.0823235800317
-0.133071104141 -0.987688340595 -0.0822424652791
-0.133071104141 -0.987688340595 0.0822424652791
-0.383613732685 -0.843911474622 -0.375038567478
-0.264082750659 -0.916244175191 -0.301258879093
-0.259891913008 -0.862668480416 -0.433888564553
-0.131655371352 -0.924304600611 -0.358228793487
-0.132792476828 -0.966392597402 -0.220117027473
0.0 -0.990438881957 -0.137952242128
0.0 -0.961938357784 -0.273266528913
0.0 -0.990438881957 0.137952242128
-0.783451698363 -0.516121620051 0.346153014789
-0.862668480416 -0.433888564553 0.259891913008
-0.843911474622 -0.375038567478 0.383613732685
-0.757935420048 -0.453990499739 0.468429850867
-0.809016994375 -0.309016994375 0.5
-0.646577791798 -0.51337544123 0.564254211766
-0.707106781186 -0.37174803446 0.601500955008
-0.758652300163 -0.237086325351 0.606825149272
-0.647411893882 -0.296004592578 0.702309846744
-0.69378047756 -0.16062203564 0.702046444776
-0.615642020874 -0.0810862934433 0.78384304242
-0.615642020874 0.0810862934433 0.78384304242
-0.702907030488 0.0 0.711281734962
-0.69378047756 0.16062203564 0.702046444776
-0.78020437071 0.08114185162 0.620239582613
-0.78020437071 -0.08114185162 0.620239582613
-0.850650808352 0.0 0.525731112119
-0.758652300163 0.237086325351 0.606825149272
-0.840177885327 0.15643446504 0.519258489728
-0.809016994375 0.309016994375 0.5
-0.840177885327 -0.15643446504 0.519258489728
-0.891006524188 0.238676930319 0.386187385588
-0.912982492932 0.0823235800317 0.399607051702
-0.951056516295 0.162459848116 0.26286555606
-0.963861263467 0.0 0.266404701135
-0.912982492932 -0.0823235800317 0.399607051702
-0.951056516295 -0.162459848116 0.26286555606
-0.987688340595 0.0822424652791 0.133071104141
-0.987688340595 -0.0822424652791 0.133071104141
-1.0 0.0 0.0
-0.891006524188 -0.238676930319 0.386187385588
-0.966392597402 0.220117027473 0.132792476828
-0.916244175191 -0.301258879093 0.264082750659
-0.966392597402 -0.220117027473 0.132792476828
[...]
CELL_DATA 1430
SCALARS cell_data_0 double
LOOKUP_TABLE default
7.75903134658e-05
5.49155538864e-05
5.73957014374e-05
2.09276461159e-05
0.00010238067183
0.000253106470707
0.000251171688214
0.000159755228743
0.000279967486831
0.000237515012336
0.000276176579258
3.35529084936e-05
4.91267831999e-05
1.69365630324e-05
1.77395107632e-05
0.000175099005448
5.53260034411e-05
6.35968098833e-05
0.000269816881865
3.31185428219e-05
5.50353224846e-05
5.69313677897e-05
0.000210766441662
6.2413965912e-05
4.93230354848e-05
1.83343269683e-05
6.12237035081e-05
5.79318392348e-05
5.63603503042e-05
7.4438793827e-05
7.35855282795e-05
8.11084874363e-05
7.98271060705e-05
4.61861074763e-05
1.68428381171e-05
6.60539684132e-06
2.891785639e-06
4.87288818249e-06
6.47081687811e-06
7.18109303991e-07
6.88014046925e-06
5.31395082639e-06
1.04793785185e-06
1.66767439954e-06
4.85377575229e-06
3.99566135722e-06
1.67446574021e-06
3.59672760464e-07
2.16004187773e-06
1.20410664993e-06
1.08779070716e-06
5.81002288092e-06
3.73480752679e-06
9.6378369404e-06
5.42210554131e-07
1.28184729675e-05
1.13978223247e-06
1.52296925195e-05
4.9553186348e-06
1.57844174943e-05
6.03685598256e-06
5.37310228796e-06
1.7951352816e-05
4.58489707252e-06
3.51928869133e-06
1.85059377857e-05
2.01975493807e-06
3.50914102624e-06
1.0252476678e-06
1.08135943362e-06
9.52750276883e-06
5.03635816074e-07
1.44846221897e-06
1.83325726574e-05
1.23142363403e-05
1.34503916104e-05
2.51707285274e-06
1.76261669587e-05
2.15421362671e-06
3.65892015666e-06
1.45640144006e-05
5.63680078882e-06
3.50281004393e-05
4.06310497067e-05
4.32525731312e-05
5.03057103597e-05
4.32562451612e-05
4.0160784941e-05
3.51866517956e-05
5.06080339857e-05
4.15486210897e-05
3.29146912888e-05
2.93022948895e-05
3.5660964788e-05
4.38686645632e-05
3.49181880152e-05
3.62254488092e-05
3.85938166741e-05
2.08413086875e-05
1.63109476921e-05
2.69659571506e-05
3.38593862859e-05
1.88154545457e-05
2.36415531858e-05
1.49943784041e-05
5.70893321855e-06
2.09470312124e-06
5.28476134868e-06
5.23672453759e-06
5.67085939992e-05
4.4855650036e-05
6.05438983525e-05
2.84071991451e-05
6.1732293959e-05
4.61332898759e-05
5.92272925449e-05
2.99660765022e-05
1.65748467371e-06
2.29721091062e-06
3.19615305659e-05
6.98948469592e-06
3.76113801163e-05
4.25201857621e-05
5.16545318765e-05
4.37641586734e-05
4.25877213631e-05
3.53548796891e-05
4.4896438383e-05
3.65129088888e-05
3.88239343165e-05
3.58910368986e-05
3.41237712229e-05
3.4751145297e-05
2.91222421521e-05
3.39230574659e-05
3.37316139785e-05
1.9291814695e-05
1.91257629626e-05
2.61624510877e-05
1.6948933141e-05
3.11612122507e-05
2.02975793299e-05
1.86111769044e-05
2.32797086457e-05
1.51530127609e-05
2.61746554532e-05
3.07300438968e-05
1.39912262424e-05
1.58614376524e-05
1.85633102437e-05
1.8151085119e-05
2.48962824866e-05
1.83282686434e-05
2.07967567527e-05
2.22963544032e-05
1.58356961468e-05
2.09671463447e-05
2.33394102114e-05
2.09587209836e-06
0.000106621080554
0.000147708398482
2.53823664546e-05
2.03717950234e-05
3.56396662372e-05
0.000118199589278
7.21205218006e-05
0.000160661100491
0.000172754417651
0.000119545253387
3.2986200811e-05
5.32563151306e-05
5.19868888651e-05
3.22627950368e-05
3.06331072427e-06
1.1799796836e-06
2.37767735979e-06
4.52808185437e-05
4.94078666705e-05
3.55319828347e-06
2.16818843681e-06
2.78474617118e-06
4.19299035611e-07
1.72192165322e-06
1.18173490661e-06
1.60809982248e-06
1.72000599319e-06
2.1489044372e-07
5.04158743448e-06
4.9561928994e-06
6.05093083034e-06
3.28584108329e-06
4.81468697241e-06
3.24656893078e-06
2.0850135895e-06
2.4218132553e-06
2.26234626112e-06
8.79082399153e-07
2.76542632932e-05
0.000216372421039
0.000127159611656
9.56990521702e-05
0.000161182469459
0.000121578721784
0.000112015344043
0.000295914286691
0.000382152494489
0.000204493045214
0.000254420871464
0.000186777438612
0.000130690444427
0.000146775684402
0.000185001902709
9.71509302867e-05
9.74363658084e-05
8.29768656887e-05
0.000107828481924
6.75844050775e-05
7.47585981106e-05
6.86516390526e-05
0.000153829426903
0.000145316185133
8.02383389283e-05
0.000162653172794
0.000274169857927
0.000187412302578
0.000162613878888
0.000134750205319
0.00011891845268
8.56459557203e-05
7.81509683855e-05
0.000173234919188
0.000174752079983
9.31693447036e-05
7.00360757116e-05
5.94493621e-05
4.31073628848e-05
4.66098940129e-05
4.32632712353e-05
2.79452324826e-05
1.97174334242e-05
9.90536008775e-07
3.87308197641e-05
6.52073860899e-06
1.65511684685e-06
8.218541764e-07
1.18809012789e-06
1.78269439478e-05
3.64328725948e-06
7.50621330683e-07
4.85240511216e-06
3.21343973846e-05
8.54033531305e-05
6.47899808278e-06
5.16453520272e-05
4.89016295013e-05
5.31774922051e-07
5.50872677088e-05
1.59336840445e-07
1.26563615041e-07
2.73291097979e-06
5.18421717414e-07
1.36238580225e-07
1.8870826715e-05
4.1696405144e-05
4.64169852196e-05
0.000133604488073
4.22572007e-05
0.000145943886686
0.000104590938266
0.000111685914584
0.000181835881388
6.29604503228e-06
6.08420337984e-05
8.47101114777e-05
7.14085022974e-05
7.82274048417e-05
2.7385492934e-05
2.05727575107e-05
9.98585031409e-05
4.13819382326e-05
0.000177932279186
0.000144543449979
0.000151302540786
0.000204256249253
0.000130063937994
0.000163640681246
0.00011658550843
0.00017706531175
5.31264392444e-05
0.000134132138286
0.000319087451269
0.0004359818276
0.000117569609637
0.000257508462277
0.000559511131523
0.000469841254585
0.00027777530319
0.000374162749341
0.000288743507783
0.000232802944526
0.000213309975634
0.000107423108144
0.00016250149659
6.70972205416e-05
0.00022922803019
0.000125868206854
0.000191010082804
7.79379704161e-05
0.000141515832971
0.000130663176902
8.68417444799e-05
5.09331365949e-05
6.43127210363e-05
0.000107737812527
1.54187621853e-06
0.000113739559903
0.000138628723789
6.80091107196e-05
9.99826081033e-05
9.00413898167e-05
9.79009615193e-05
1.63382376355e-06
3.2011277961e-05
1.96562126817e-05
4.61218900499e-05
2.4777787408e-05
1.36368389696e-05
1.60392781419e-05
6.90537261415e-08
1.09836657276e-05
1.03894935444e-05
1.54276884946e-05
5.65857540384e-08
2.61646705581e-07
9.96062324468e-06
1.84825947802e-05
2.11796785858e-05
2.01408786385e-05
1.67597514133e-05
1.66454183289e-05
2.64813911313e-05
1.94168767288e-05
1.01354760386e-05
1.19503514922e-05
1.30544167048e-05
1.23516851582e-05
1.22201123624e-07
4.12409947197e-06
3.67926594742e-06
3.53874060989e-07
1.49961695771e-05
1.05006342883e-06
2.61083212478e-05
6.72887492525e-06
1.74454267269e-05
8.14977417562e-05
3.67330800646e-06
6.63418872814e-06
6.94365831275e-06
4.89887858784e-06
3.73382052894e-06
6.52960368806e-06
7.48128629915e-05
3.10435483652e-05
4.88865875833e-05
2.29447154256e-06
4.10324969124e-06
3.60428214372e-05
5.74823050039e-05
4.00370572456e-05
3.81763496155e-05
7.39852956688e-05
9.12189761217e-06
3.07240664408e-06
5.33086547516e-07
2.52452203741e-05
6.8845677773e-06
2.16461530396e-05
2.28517199267e-06
2.72112669029e-06
3.74432897172e-07
7.34209822631e-06
5.83154739561e-06
5.83843129191e-06
3.46770267391e-07
7.2705451709e-06
2.52115384041e-06
1.17159168216e-06
4.03440222679e-08
3.3169998919e-06
1.71816364975e-06
3.30128642575e-06
2.61371972782e-08
1.18133453093e-06
1.62589759705e-06
3.37433650313e-06
5.92090609113e-07
1.96078017777e-06
1.92009493325e-06
2.17417145095e-06
4.55411297534e-07
1.2864864253e-06
4.63908515176e-07
4.37760612145e-05
4.10946658137e-05
5.12270952088e-05
4.42839281288e-05
3.98105586531e-05
2.99515200533e-05
2.81501146373e-05
3.51564344809e-05
2.6169509577e-05
2.59302342878e-05
2.92443023734e-05
3.64326816549e-05
3.09502358629e-05
3.95822405163e-05
4.24550812046e-05
4.11423042051e-05
2.9620196558e-05
9.05515138404e-06
2.81752159955e-05
1.63024503766e-05
2.57220573978e-05
2.37643126122e-05
6.62407499808e-06
2.98040225564e-05
4.46405011588e-05
2.18752588638e-05
3.47599587656e-05
4.15799914943e-05
3.90300983285e-05
3.17978022399e-05
2.55109907158e-05
2.31307745925e-05
3.25327710402e-05
2.10928176973e-05
2.07300782209e-05
2.21459147161e-05
3.21169833096e-05
2.40600901095e-05
1.80595519622e-05
1.18169401506e-05
1.57930108121e-05
5.99385097205e-06
7.52447884675e-06
3.4176593512e-06
6.14390466252e-06
2.61382408802e-06
2.23396415652e-06
3.43673860463e-06
5.86602721544e-06
2.38053981567e-06
1.30044392483e-05
3.50272458879e-05
2.51524301184e-05
2.54566092342e-05
6.44251065766e-06
3.57047955793e-05
3.11532267053e-05
2.12111507081e-06
3.45564952877e-05
7.61957781979e-06
7.16263879755e-06
1.04284328644e-05
4.7934900366e-06
2.34403853803e-05
9.7827472515e-06
8.50464319463e-06
1.52319785718e-05
1.52365423363e-05
8.22339516541e-06
1.18807590983e-05
1.05466587617e-05
2.04032925357e-05
2.1598993619e-05
1.34575465768e-05
1.4188018117e-05
9.77912534791e-06
4.56546478406e-05
7.69067763531e-05
4.25674053782e-05
6.09896729712e-05
5.16783789461e-05
2.84918351769e-05
1.7384669524e-05
1.30603939125e-05
3.68777278373e-05
4.61122119695e-05
2.9063637055e-05
2.92225348212e-06
6.10742930103e-05
3.62401088443e-05
1.28012652634e-05
4.05566848119e-05
1.59101097081e-05
3.27121687839e-05
3.01503663248e-05
2.43522161374e-05
3.70306842142e-05
6.5086160626e-05
4.01412843932e-05
4.16068821897e-05
3.74971630878e-05
3.85263797484e-05
4.24747242629e-05
2.83727924656e-05
4.19621044022e-05
3.9008676821e-05
3.83271683799e-05
3.01175759202e-05
4.37212608776e-05
4.00013880387e-05
3.87500852242e-05
4.36130913753e-05
1.47348736866e-05
1.67831600443e-05
1.64200626959e-05
2.08429440331e-05
2.82954679421e-05
2.33305208771e-05
1.6452253351e-05
2.22861243596e-05
3.21224192847e-05
3.51628330676e-05
3.90864355467e-05
3.69425716871e-05
2.96641076247e-05
2.78298526528e-05
3.22433357468e-05
2.34297300239e-05
2.4018303337e-05
2.81629169277e-05
3.18237416185e-05
3.12406373079e-05
2.80336483834e-05
2.45448202902e-05
2.28020228557e-05
2.56184114668e-05
1.99362977084e-05
2.03060558063e-05
2.22438737976e-05
2.50018572845e-05
2.5236632845e-05
1.30129354074e-05
1.65549427733e-05
1.7138902422e-05
2.50558526562e-05
2.81106944009e-05
2.21628710212e-05
2.07110183525e-05
2.27895770028e-05
2.67749777009e-05
2.88113744087e-05
2.50642834556e-05
1.932519594e-05
7.07716200912e-06
9.0938631774e-07
9.90604028885e-06
4.2780994032e-05
4.10266745355e-05
1.60345079388e-06
1.94968835296e-06
4.21946284094e-05
5.34109289202e-06
1.01466435603e-06
3.42365462761e-06
4.94943562669e-05
8.3438559941e-06
1.19212062614e-05
7.52158099035e-05
2.8737999265e-05
8.72382133268e-06
3.98653441493e-06
3.26258544028e-05
3.86554235456e-05
3.26729651848e-05
2.22369853831e-06
3.93170756661e-05
3.83731810303e-05
3.52119564621e-05
4.34409327841e-06
5.0927636796e-06
3.83732519071e-05
0.000108323803252
0.000110401284302
1.75093267229e-06
2.94618157207e-05
0.000116872508646
4.00346296302e-05
5.76496931917e-05
1.93955109603e-05
9.32681179414e-05
7.08356542851e-05
0.00020241658838
0.000134216800221
2.97711091053e-05
1.928417354e-05
5.01936359053e-06
4.25497021987e-08
4.29174835864e-06
2.34698637891e-05
2.53120052338e-05
3.94154943531e-06
2.26792131096e-06
1.9432903964e-07
2.46615567687e-05
2.55081838144e-05
4.84926422782e-06
8.6587402552e-06
9.98254147771e-07
1.17626138743e-05
1.29371164133e-05
7.73230516239e-07
5.79393336511e-06
1.15780058548e-05
4.87581001341e-06
3.04426569309e-05
1.85172979367e-05
1.51175279344e-05
8.27207193402e-07
1.62715629994e-06
1.00735119563e-05
4.93151338491e-06
1.23244838891e-05
5.82906657846e-06
1.23384741142e-05
1.08595054249e-05
3.85259224722e-06
1.44039903404e-05
6.26584574038e-06
5.8735689442e-06
1.12349388096e-05
4.24347190974e-06
2.76744201731e-05
2.62783388312e-05
1.17565932563e-05
1.29749669372e-05
1.44945293862e-05
4.44270061872e-07
2.5741084807e-05
5.31583196948e-06
1.28975326916e-05
1.37623295733e-05
2.49157082536e-06
4.24838056611e-06
2.02179575656e-05
6.37773319442e-06
1.49653518875e-05
2.05820164692e-05
2.2270856606e-05
1.60224461222e-06
9.26050116075e-07
1.9347635434e-05
8.02384115801e-06
6.03742815886e-06
2.29410797129e-05
1.47383127885e-05
2.71536782461e-05
3.08501202974e-06
2.62698811319e-05
1.81669386826e-05
2.71048589725e-05
1.78260838984e-06
1.20213338397e-06
2.6069546298e-05
7.7420504118e-06
5.29030280423e-06
1.28951839939e-05
1.15974991369e-05
1.72482914061e-05
1.84277429816e-06
4.3492900984e-05
1.38489030283e-05
1.28483362782e-05
3.67383488824e-06
5.35878342619e-05
1.61117251923e-05
1.52818758425e-05
4.35032952736e-06
1.28371054407e-05
1.38108129661e-05
1.48251839473e-05
3.12498240174e-06
1.12989833209e-05
1.01821446212e-06
2.5669666842e-05
2.10109932856e-05
6.89017817231e-06
3.52936054906e-06
1.66315913519e-05
1.21751455017e-05
2.73018161523e-05
7.57734230782e-06
2.01273362541e-05
1.16544908307e-05
1.10577256329e-05
1.95876408762e-05
1.38451765588e-05
5.54591755761e-06
2.99387735165e-05
3.45554158885e-06
1.85408304915e-06
3.95413757492e-06
2.32041183663e-05
2.65716482305e-05
2.50154232995e-05
3.07415305334e-06
1.31593904836e-05
2.95154220319e-05
2.04665750759e-05
6.36251632026e-06
8.15946103641e-06
1.00348597516e-05
3.02735228204e-05
1.0557139016e-06
1.37514121617e-05
7.69364996263e-06
3.91944249129e-06
3.79686381101e-05
7.1755348854e-05
7.42385819976e-05
0.000104483567995
0.000223040709
0.000126447350777
0.000150136606901
9.71046287291e-06
6.6340350943e-05
0.000276102870466
0.000415691708099
0.000176954185789
0.000334723028508
0.000184215513125
0.000250531807402
0.000173756160849
0.000300469399046
0.000175382529677
0.000238510142758
0.000129388075382
0.000253410554389
0.000148275141841
0.000178136634977
0.000233820878584
0.000174235805057
0.000169802865418
0.000194165871162
0.000102191591107
0.00016323763104
0.000113714380936
0.000129023018917
8.80588940869e-05
4.45200700867e-05
3.62006593789e-05
0.000134401030975
0.000184841820228
0.00010433169128
0.000113276816115
6.1988588775e-05
0.000111643200508
3.95226836135e-07
9.45908103139e-05
0.000167578203488
0.000123913085632
0.000158378626094
3.23474371638e-05
3.60500808894e-05
6.8400281373e-05
4.05026519643e-05
0.000133361998248
5.12020825397e-05
1.2739084056e-05
5.93520915582e-05
5.93750751111e-05
2.39360603258e-05
1.82261885508e-05
1.41995172233e-05
2.04384910523e-05
6.19432547545e-07
9.5848825946e-06
5.96412239028e-06
1.00875317459e-05
8.3925886029e-07
1.50684928975e-05
6.04442195976e-06
4.86571424668e-05
2.63327211472e-05
2.88442128271e-05
1.41094528266e-05
6.04884746175e-06
3.78029837116e-07
1.54417270546e-05
4.57215497704e-06
0.000111898253493
8.41730734401e-05
5.6299277385e-06
6.66024940419e-07
9.48110060004e-07
3.89982809676e-05
8.66200132392e-05
7.80875449978e-05
2.20354236341e-05
2.24819043964e-05
2.54229154804e-05
2.599475724e-05
3.69263207121e-05
3.57807530783e-05
4.23857432897e-05
4.15935339404e-05
1.8127317632e-05
1.65082530119e-05
1.77219163365e-05
1.54194112691e-05
1.74641961837e-05
1.4955682785e-05
2.1268488147e-05
1.93248366685e-05
2.00289136049e-05
1.68436762094e-05
2.23201485428e-05
1.68924286226e-05
1.44239916256e-05
1.55117214191e-05
1.95033529135e-05
1.75007468332e-05
4.30574915377e-05
4.62557063012e-05
2.39068274453e-05
1.9393427248e-05
1.89856281954e-05
2.08786590568e-05
4.09323618335e-05
4.10985968129e-05
1.8564796894e-05
1.63228731429e-05
1.46880312443e-05
1.7169317774e-05
1.50919685721e-05
1.4419656878e-05
1.59621605402e-05
1.80804628948e-05
4.0450295318e-05
3.67362560299e-05
1.36784714856e-05
1.35255262028e-05
1.64167487574e-05
1.37553668871e-05
1.5063041494e-05
1.18183453307e-05
1.26962961213e-05
1.34686271534e-05
2.13711670966e-05
2.46751408548e-06
4.25431656178e-06
2.47105987898e-05
2.49103658798e-05
1.78642998595e-06
3.487817546e-06
1.346760139e-06
1.24842525609e-05
5.67124456491e-07
4.86060582711e-07
2.27180283361e-06
3.59106986244e-07
1.31671578249e-06
2.12941090344e-06
1.13587988453e-06
9.8814871917e-07
3.32570357733e-06
5.91418914258e-06
3.32127470995e-06
1.00458393317e-06
5.00973032543e-07
1.26152303495e-06
6.2626454797e-07
1.09539204337e-05
1.1010206501e-06
3.32820326673e-06
9.48313030199e-07
3.98383353204e-06
2.34287849465e-06
4.97104821404e-07
1.59374871415e-06
5.49122660611e-06
2.39252088072e-06
6.84755513169e-06
6.21928133727e-07
4.77759604894e-07
1.94700591157e-06
2.30241029615e-06
4.73169128213e-06
9.88322464561e-06
4.34678211127e-06
4.75752515005e-06
3.20829685218e-05
3.5019169016e-05
3.81204032753e-06
2.70910381543e-06
1.50496637964e-05
3.86949053165e-05
4.53610207332e-06
2.63906959e-07
6.02110581879e-06
1.54954603688e-06
8.85883821862e-07
2.54129407792e-07
2.26843790438e-05
1.55176907544e-05
3.91160657746e-09
4.30157777091e-07
1.0253444641e-07
6.36275725994e-07
4.02229647502e-07
4.67125604116e-07
4.61162073569e-08
6.06463850208e-07
6.80592444912e-07
1.51229406957e-05
7.9908458562e-07
1.24067965657e-07
6.69166333598e-07
6.98535422052e-07
1.26524952081e-05
2.89667244418e-05
3.51811709103e-06
1.21183482237e-06
2.33429552349e-05
2.03229592607e-05
2.53836126983e-06
1.81521686228e-06
4.76751196793e-06
3.7938191831e-05
2.91181484137e-06
5.11404038049e-07
2.96548844211e-05
2.18214735131e-05
1.01940837553e-06
7.10842518483e-07
3.65284658008e-07
2.31961243739e-05
2.47126693188e-06
1.50619695753e-06
1.62051278198e-06
1.49280411042e-06
3.40811015791e-06
1.82644043429e-06
2.43071800141e-06
2.24510400932e-06
1.94906535995e-06
7.22757770074e-07
7.01918199691e-08
1.20557003246e-06
6.76676756871e-07
5.8764387317e-07
1.80810684123e-05
1.7895960675e-05
5.77218906333e-07
7.41936699811e-07
5.89096704421e-07
7.86183061375e-07
9.66272942233e-07
4.94962200002e-07
9.70573322486e-07
7.32686405935e-07
8.89578661377e-07
8.30754084219e-07
4.5343216404e-07
7.68924715249e-07
1.11749754301e-06
7.82775973593e-07
7.14068484946e-08
3.40028771461e-06
1.54506988305e-07
5.95447948485e-07
1.00652220868e-06
8.71665249763e-07
1.70417041561e-06
1.48353029697e-06
1.49655981879e-06
2.20350159168e-07
1.14176623808e-06
2.11809229495e-05
1.41902382116e-06
1.91798945056e-06
2.48336750117e-06
1.88621510736e-06
1.18680239293e-06
3.68856162659e-06
4.51319142774e-06
2.94199746336e-06
5.0184782472e-06
1.13577639695e-05
1.03730715846e-05
2.13292554317e-06
2.97718311931e-06
1.52177351711e-06
1.00332034083e-06
7.06339593481e-06
5.2750122947e-06
6.74552705001e-07
1.71986516712e-08
1.41431201062e-07
1.29437829173e-07
2.76823847417e-07
1.35816763588e-06
2.59667749043e-06
2.63932803526e-06
5.85925429678e-08
1.50109235072e-07
1.40007712228e-07
7.54861594049e-08
1.04771155616e-07
4.35548464371e-08
8.53561659846e-09
3.44179818916e-08
1.33009633934e-07
1.74382610577e-07
1.69288182159e-07
1.70346486193e-08
1.06146834759e-08
1.88788651079e-08
8.87171789056e-09
1.92160977136e-07
2.33544534693e-06
2.65804651111e-06
1.37123536957e-07
2.71297456992e-09
2.61766698159e-06
1.57632025847e-07
1.33052886831e-07
1.9829263763e-08
2.11953626282e-07
2.62572027443e-06
1.21318693962e-07
1.11427099367e-07
2.47463897e-06
9.19238677873e-08
4.25644459167e-07
1.68853397943e-07
4.09384070877e-06
3.21639088079e-09
4.23185040301e-06
2.90465910139e-08
2.13307037298e-06
2.94071725887e-08
4.20569687557e-06
1.26638852013e-07
3.64661674609e-07
2.1843975323e-06
2.24470379016e-08
7.17391831599e-08
2.16155381734e-06
3.1652438599e-07
3.30974476777e-07
7.22332608794e-08
1.44748841123e-06
2.30288267795e-06
1.43908266109e-06
3.26457468664e-08
1.08688811108e-06
2.28407270889e-06
1.35492809634e-06
4.07919106904e-08
3.23992168146e-08
1.05957630474e-06
2.30561527285e-06
2.13356236473e-07
1.26168391162e-06
4.60623382597e-07
3.56652855954e-07
1.4549249234e-07
1.23946247534e-06
1.40501422374e-06
1.19539566926e-06
6.47426001519e-08
7.09596053174e-07
1.40291320971e-06
1.18901683776e-06
2.7885708323e-08
1.80343550605e-07
6.71985035718e-07
1.27673401371e-06
6.94627267377e-08
6.46014621116e-07
2.56654868277e-08
3.52410162704e-07
1.61359269354e-07
1.26524239026e-06
3.2304844736e-06
1.06461483905e-06
1.79920535309e-08
1.75674397887e-06
3.26897893866e-06
9.81163775907e-07
5.21240917316e-08
6.91606077962e-09
1.75508677261e-06
2.98331159269e-06
3.2437082389e-08
1.92043226307e-06
2.47021748822e-08
5.73793617024e-07
8.3626367607e-07
3.65408580622e-06
1.24110323709e-05
4.02604849457e-06
3.3468395158e-06
3.54789485936e-06
1.62383107972e-05
3.23226458966e-06
4.46831626921e-06
1.61052371959e-05
1.84133722603e-05
1.59143539692e-05
2.53383027718e-06
1.53889863119e-05