# vtk DataFile Version 3.0
File Name: Molecule/sphere_dip_12/sphere_dip_12_0-s2.vtk
ASCII
DATASET UNSTRUCTURED_GRID
FIELD FieldData 1
TIME 1 1 double
0.0
POINTS 77 double
0.809016994375 -0.309016994375 -0.5
0.809016994375 0.309016994375 -0.5
1.0 0.0 0.0
0.525731112119 0.0 -0.850650808352
0.850650808352 0.525731112119 0.0
0.5 0.809016994375 -0.309016994375
0.309016994375 0.5 -0.809016994375
0.0 0.850650808352 -0.525731112119
0.5 0.809016994375 0.309016994375
0.0 1.0 0.0
-0.309016994375 0.5 0.809016994375
0.0 0.0 1.0
0.309016994375 0.5 0.809016994375
-0.525731112119 0.0 0.850650808352
0.525731112119 0.0 0.850650808352
-0.309016994375 -0.5 0.809016994375
0.309016994375 -0.5 0.809016994375
0.809016994375 0.309016994375 0.5
0.0 0.850650808352 0.525731112119
-0.525731112119 0.0 -0.850650808352
-0.809016994375 -0.309016994375 -0.5
-0.809016994375 0.309016994375 -0.5
-1.0 0.0 0.0
-0.850650808352 -0.525731112119 0.0
-0.850650808352 0.525731112119 0.0
-0.309016994375 0.5 -0.809016994375
-0.5 0.809016994375 -0.309016994375
-0.5 -0.809016994375 -0.309016994375
-0.5 -0.809016994375 0.309016994375
0.0 -1.0 0.0
0.0 -0.850650808352 -0.525731112119
0.0 -0.850650808352 0.525731112119
-0.809016994375 -0.309016994375 0.5
-0.809016994375 0.309016994375 0.5
-0.309016994375 -0.5 -0.809016994375
0.5 -0.809016994375 -0.309016994375
0.5 -0.809016994375 0.309016994375
0.309016994375 -0.5 -0.809016994375
0.850650808352 -0.525731112119 0.0
0.961938357784 -0.273266528913 0.0
0.433888564553 0.259891913008 -0.862668480416
0.0 0.961938357784 0.273266528913
-0.259891913008 0.862668480416 0.433888564553
-0.26286555606 0.951056516295 0.162459848116
-0.5 0.809016994375 0.309016994375
-0.26286555606 0.951056516295 -0.162459848116
-0.525731112119 0.850650808352 0.0
-0.16062203564 0.702046444776 0.69378047756
-0.425325404176 0.688190960236 0.587785252292
-0.688190960236 0.587785252292 0.425325404176
-0.587785252292 0.425325404176 0.688190960236
0.16062203564 -0.702046444776 0.69378047756
0.433888564553 -0.259891913008 0.862668480416
0.69378047756 -0.16062203564 0.702046444776
0.587785252292 -0.425325404176 0.688190960236
0.809016994375 -0.309016994375 0.5
0.425325404176 -0.688190960236 0.587785252292
0.688190960236 -0.587785252292 0.425325404176
0.259891913008 -0.862668480416 0.433888564553
0.862668480416 -0.433888564553 0.259891913008
0.702046444776 -0.69378047756 0.16062203564
0.433888564553 -0.259891913008 -0.862668480416
0.273266528913 0.0 -0.961938357784
0.162459848116 -0.26286555606 -0.951056516295
0.0 0.0 -1.0
0.0 -0.525731112119 -0.850650808352
-0.162459848116 -0.26286555606 -0.951056516295
-0.273266528913 0.0 -0.961938357784
-0.433888564553 -0.259891913008 -0.862668480416
0.951056516295 -0.162459848116 0.26286555606
0.951056516295 0.162459848116 0.26286555606
0.850650808352 0.0 0.525731112119
0.69378047756 0.16062203564 0.702046444776
-0.433888564553 0.259891913008 -0.862668480416
0.162459848116 0.26286555606 -0.951056516295
-0.162459848116 0.26286555606 -0.951056516295
0.0 0.525731112119 -0.850650808352

CELLS 150 600
3 0 1 2
3 0 3 1
3 2 1 4
3 4 1 5
3 1 6 5
3 5 6 7
3 4 5 8
3 5 9 8
3 5 7 9
3 10 11 12
3 10 13 11
3 12 11 14
3 13 15 11
3 15 16 11
3 4 8 17
3 8 12 17
3 8 18 12
3 19 20 21
3 20 22 21
3 20 23 22
3 21 22 24
3 7 25 26
3 25 21 26
3 26 21 24
3 23 27 28
3 27 29 28
3 27 30 29
3 28 29 31
3 23 28 32
3 28 15 32
3 28 31 15
3 32 15 13
3 13 33 32
3 33 22 32
3 33 24 22
3 32 22 23
3 34 27 20
3 34 30 27
3 20 27 23
3 30 35 29
3 35 36 29
3 0 35 37
3 0 38 35
3 37 35 30
3 2 39 0
3 0 39 38
3 3 40 1
3 1 40 6
3 9 41 8
3 8 41 18
3 18 41 42
3 41 43 42
3 41 9 43
3 42 43 44
3 9 45 43
3 45 46 43
3 45 26 46
3 43 46 44
3 26 45 7
3 7 45 9
3 44 46 24
3 46 26 24
3 18 42 47
3 42 48 47
3 42 44 48
3 47 48 10
3 44 49 48
3 49 50 48
3 49 33 50
3 48 50 10
3 33 49 24
3 24 49 44
3 10 50 13
3 50 33 13
3 18 47 12
3 47 10 12
3 31 51 15
3 15 51 16
3 16 52 11
3 11 52 14
3 14 52 53
3 52 54 53
3 52 16 54
3 53 54 55
3 16 56 54
3 56 57 54
3 56 36 57
3 54 57 55
3 16 51 56
3 51 58 56
3 51 31 58
3 56 58 36
3 55 57 59
3 57 60 59
3 57 36 60
3 59 60 38
3 3 61 62
3 61 63 62
3 61 37 63
3 62 63 64
3 37 65 63
3 65 66 63
3 65 34 66
3 63 66 64
3 34 65 30
3 30 65 37
3 64 66 67
3 66 68 67
3 66 34 68
3 67 68 19
3 38 39 59
3 39 69 59
3 39 2 69
3 59 69 55
3 2 70 69
3 70 71 69
3 70 17 71
3 69 71 55
3 17 70 4
3 4 70 2
3 55 71 53
3 71 72 53
3 71 17 72
3 53 72 14
3 14 72 12
3 12 72 17
3 25 73 21
3 73 19 21
3 19 68 20
3 68 34 20
3 38 60 35
3 35 60 36
3 36 58 29
3 29 58 31
3 37 61 0
3 0 61 3
3 3 62 40
3 62 74 40
3 62 64 74
3 40 74 6
3 64 75 74
3 75 76 74
3 75 25 76
3 74 76 6
3 64 67 75
3 67 73 75
3 67 19 73
3 75 73 25
3 6 76 7
3 76 25 7

CELL_TYPES 150
5
5
5
5
5
5
5
5
5
5
5
5
5
5
5
5
5
5
5
5
5
5
5
5
5
5
5
5
5
5
5
5
5
5
5
5
5
5
5
5
5
5
5
5
5
5
5
5
5
5
5
5
5
5
5
5
5
5
5
5
5
5
5
5
5
5
5
5
5
5
5
5
5
5
5
5
5
5
5
5
5
5
5
5
5
5
5
5
5
5
5
5
5
5
5
5
5
5
5
5
5
5
5
5
5
5
5
5
5
5
5
5
5
5
5
5
5
5
5
5
5
5
5
5
5
5
5
5
5
5
5
5
5
5
5
5
5
5
5
5
5
5
5
5
5
5
5
5
5
5

CELL_DATA 150
SCALARS cell_data_0 double
LOOKUP_TABLE default
3.95590520291e-05
0.000248842155101
6.41209180927e-05
1.3131341608e-05
0.000253322788213
0.000225584267944
3.54521892353e-05
2.7988509927e-05
4.91542756531e-05
0.000247987529581
0.000182643760271
0.000223073877333
5.18350464812e-05
8.78483644464e-05
1.48953151251e-07
4.75270468616e-05
3.39024289839e-05
7.86993001844e-05
0.000180838445899
3.12140963906e-05
0.000271768049824
0.000204774395483
4.29703873111e-05
0.000282365081693
0.000387362511017
0.0002841061409
0.000616971167398
5.83516863888e-05
0.000458187265831
0.000856463065465
0.000374777537387
0.000671055169565
0.000299729718145
0.000441827495877
3.02927906359e-05
0.000519726746295
0.000136037554424
0.000260666865746
0.000267883159516
0.000182260943005
5.21084410297e-05
0.000289662569588
0.000286904026589
6.19647526678e-05
3.69832674946e-05
0.000203601876818
0.000200088911554
0.000229377940978
7.03823650397e-07
4.25484688919e-05
2.4422449632e-05
4.41946632125e-06
3.6841697627e-06
0.000107674746049
4.36792719667e-06
2.5439079746e-06
2.00726320853e-05
0.000124697495398
7.45197747975e-06
2.55400908172e-05
0.00019796360234
2.49919096186e-05
1.88970820427e-05
5.47319246028e-07
0.000110589157166
1.01492666858e-05
0.000139771119478
1.91989506491e-05
2.1067702635e-05
2.89946114989e-05
1.44547059845e-05
0.000219616180458
1.95150970796e-05
8.48050429241e-06
2.87008849299e-06
2.2478836074e-05
0.000193358049393
0.000111464795872
0.00010106028987
0.000109020692837
1.95441822267e-05
1.75962415516e-05
9.00419259562e-06
1.38647779023e-06
6.66003101949e-06
7.46583519092e-06
1.00058980831e-06
5.50619801853e-06
5.10304535314e-07
2.11573509188e-06
2.3452197586e-05
2.95215733992e-07
7.78028315806e-06
9.20398867918e-05
9.43989822889e-05
0.00025501843844
5.51248380228e-06
0.000195720806941
6.86944386457e-05
0.000172189488562
2.35452857285e-05
9.76621296292e-05
9.86789241018e-05
0.000210276113475
2.44532345334e-05
1.76514782946e-05
0.00021240121886
1.52586968768e-06
7.69505221328e-05
3.31588571909e-06
0.00010049061387
1.49359736286e-06
2.01411684459e-05
8.27264267321e-06
2.34829201702e-05
1.07662165623e-06
2.34257301587e-06
9.78244220584e-06
1.37048517366e-06
3.17504631325e-05
4.84278186365e-06
5.33963897279e-06
3.6862806434e-06
1.26865032665e-05
4.48447128192e-05
2.27803896703e-05
5.57556140212e-05
0.00012964500469
6.00704389869e-05
0.000162024238846
0.000448487992168
0.000154496057572
6.00243122511e-06
3.17420283539e-05
4.80735499005e-05
1.87995996174e-06
0.000143039015294
0.000140373467012
0.000217775324991
0.000141564263438
0.000264245989206
1.08415949625e-05
0.000101801956778
8.0325244065e-05
0.000212426422049
1.72540053496e-06
3.46218163523e-06
7.96496073276e-05
0.000145711861526
0.000153449508662

