# vtk DataFile Version 3.0
File Name: Molecule/sphere_dip_sim/sphere_dip_sim_0-s2.vtk
ASCII
DATASET UNSTRUCTURED_GRID
FIELD FieldData 1
TIME 1 1 double
0.0
POINTS 95 double
0.809016994375 -0.309016994375 -0.5
0.809016994375 0.309016994375 -0.5
1.0 0.0 0.0
0.525731112119 0.0 -0.850650808352
0.850650808352 0.525731112119 0.0
0.5 0.809016994375 -0.309016994375
0.309016994375 0.5 -0.809016994375
0.0 0.850650808352 -0.525731112119
-0.525731112119 0.0 -0.850650808352
-0.809016994375 -0.309016994375 -0.5
-0.809016994375 0.309016994375 -0.5
-1.0 0.0 0.0
-0.850650808352 -0.525731112119 0.0
-0.850650808352 0.525731112119 0.0
-0.309016994375 0.5 -0.809016994375
-0.5 0.809016994375 -0.309016994375
-0.5 -0.809016994375 -0.309016994375
-0.5 -0.809016994375 0.309016994375
0.0 -1.0 0.0
0.0 -0.850650808352 -0.525731112119
0.0 -0.850650808352 0.525731112119
-0.809016994375 -0.309016994375 0.5
-0.309016994375 -0.5 0.809016994375
-0.809016994375 0.309016994375 0.5
-0.309016994375 -0.5 -0.809016994375
0.5 -0.809016994375 -0.309016994375
0.5 -0.809016994375 0.309016994375
0.309016994375 -0.5 -0.809016994375
0.850650808352 -0.525731112119 0.0
0.925325404176 -0.26286555606 0.0
0.5 0.809016994375 0.0
0.5 0.809016994375 0.309016994375
0.25 0.904508497187 -0.154508497188
0.25 0.904508497187 0.154508497188
0.0 1.0 0.0
0.25 0.829833901363 0.417374053247
0.0 0.925325404176 0.26286555606
0.0 0.850650808352 0.525731112119
-0.25 0.829833901363 0.417374053247
-0.25 0.904508497187 0.154508497188
-0.5 0.809016994375 0.309016994375
-0.25 0.904508497187 -0.154508497188
-0.5 0.809016994375 0.0
-0.675325404176 0.667374053247 0.154508497188
-0.675325404176 0.667374053247 -0.154508497188
-0.154508497188 0.675325404176 0.667374053247
-0.404508497188 0.654508497187 0.559016994375
-0.309016994375 0.5 0.809016994375
-0.654508497187 0.559016994375 0.404508497188
-0.559016994375 0.404508497188 0.654508497187
-0.829833901363 0.417374053247 0.25
-0.417374053247 0.25 0.829833901363
-0.667374053247 0.154508497188 0.675325404176
-0.525731112119 0.0 0.850650808352
0.154508497188 0.675325404176 0.667374053247
0.0 0.5 0.809016994375
0.309016994375 0.5 0.809016994375
-0.154508497188 0.25 0.904508497187
0.154508497188 0.25 0.904508497187
0.0 0.0 1.0
-0.26286555606 0.0 0.925325404176
0.417374053247 0.25 0.829833901363
0.26286555606 0.0 0.925325404176
0.525731112119 0.0 0.850650808352
-0.417374053247 -0.25 0.829833901363
-0.154508497188 -0.25 0.904508497187
0.0 -0.5 0.809016994375
0.154508497188 -0.25 0.904508497187
0.309016994375 -0.5 0.809016994375
0.417374053247 -0.25 0.829833901363
0.667374053247 -0.154508497188 0.675325404176
0.559016994375 -0.404508497188 0.654508497187
0.809016994375 -0.309016994375 0.5
0.404508497188 -0.654508497187 0.559016994375
0.654508497187 -0.559016994375 0.404508497188
0.829833901363 -0.417374053247 0.25
0.675325404176 -0.667374053247 0.154508497188
0.154508497188 -0.25 -0.904508497187
0.0 0.0 -1.0
0.0 -0.5 -0.809016994375
-0.154508497188 -0.25 -0.904508497187
-0.26286555606 0.0 -0.925325404176
-0.417374053247 -0.25 -0.829833901363
0.904508497187 -0.154508497188 0.25
0.904508497187 0.154508497188 0.25
0.809016994375 0.0 0.5
0.809016994375 0.309016994375 0.5
0.667374053247 0.154508497188 0.675325404176
0.654508497187 0.559016994375 0.404508497188
0.404508497188 0.654508497187 0.559016994375
0.559016994375 0.404508497188 0.654508497187
-0.417374053247 0.25 -0.829833901363
0.154508497188 0.25 -0.904508497187
-0.154508497188 0.25 -0.904508497187
0.0 0.5 -0.809016994375

CELLS 186 744
3 0 1 2
3 0 3 1
3 2 1 4
3 4 1 5
3 1 6 5
3 1 3 6
3 5 6 7
3 8 9 10
3 9 11 10
3 9 12 11
3 10 11 13
3 7 14 15
3 14 10 15
3 12 16 17
3 16 18 17
3 16 19 18
3 17 18 20
3 12 17 21
3 17 22 21
3 17 20 22
3 23 11 21
3 21 11 12
3 24 16 9
3 24 19 16
3 9 16 12
3 19 25 18
3 25 26 18
3 18 26 20
3 3 0 27
3 0 25 27
3 0 28 25
3 27 25 19
3 2 29 0
3 28 29 0
3 5 30 4
3 4 30 31
3 5 32 30
3 32 33 30
3 32 34 33
3 30 33 31
3 34 32 7
3 5 32 7
3 31 33 35
3 33 36 35
3 33 34 36
3 35 36 37
3 37 36 38
3 36 39 38
3 36 34 39
3 38 39 40
3 34 41 39
3 41 42 39
3 41 15 42
3 39 42 40
3 15 41 7
3 34 41 7
3 40 42 43
3 42 44 43
3 42 15 44
3 43 44 13
3 37 38 45
3 38 46 45
3 38 40 46
3 45 46 47
3 40 48 46
3 48 49 46
3 48 23 49
3 46 49 47
3 40 43 48
3 43 50 48
3 43 13 50
3 48 50 23
3 47 49 51
3 49 52 51
3 49 23 52
3 51 52 53
3 37 45 54
3 45 55 54
3 45 47 55
3 54 55 56
3 47 57 55
3 57 58 55
3 57 59 58
3 55 58 56
3 47 51 57
3 51 60 57
3 51 53 60
3 57 60 59
3 56 58 61
3 58 62 61
3 58 59 62
3 61 62 63
3 53 64 60
3 64 65 60
3 64 22 65
3 60 65 59
3 22 66 65
3 66 67 65
3 66 68 67
3 65 67 59
3 68 66 20
3 22 66 20
3 59 67 62
3 67 69 62
3 67 68 69
3 62 69 63
3 63 69 70
3 69 71 70
3 69 68 71
3 70 71 72
3 68 73 71
3 73 74 71
3 73 26 74
3 71 74 72
3 26 73 20
3 68 73 20
3 72 74 75
3 74 76 75
3 74 26 76
3 75 76 28
3 27 77 3
3 3 77 78
3 27 79 77
3 79 80 77
3 79 24 80
3 77 80 78
3 24 79 19
3 27 79 19
3 78 80 81
3 80 82 81
3 80 24 82
3 81 82 8
3 28 29 75
3 29 83 75
3 29 2 83
3 75 83 72
3 2 84 83
3 84 85 83
3 84 86 85
3 83 85 72
3 86 84 4
3 2 84 4
3 72 85 70
3 85 87 70
3 85 86 87
3 70 87 63
3 31 88 4
3 4 88 86
3 31 89 88
3 89 90 88
3 89 56 90
3 88 90 86
3 31 35 89
3 35 54 89
3 35 37 54
3 89 54 56
3 86 90 87
3 90 61 87
3 90 56 61
3 87 61 63
3 14 91 10
3 91 8 10
3 13 44 10
3 15 44 10
3 22 64 21
3 21 64 53
3 53 52 21
3 52 23 21
3 23 50 11
3 50 13 11
3 8 82 9
3 82 24 9
3 28 76 25
3 25 76 26
3 78 92 3
3 3 92 6
3 78 93 92
3 93 94 92
3 93 14 94
3 92 94 6
3 78 81 93
3 81 91 93
3 81 8 91
3 93 91 14
3 6 94 7
3 94 14 7

CELL_TYPES 186
5
5
5
5
5
5
5
5
5
5
5
5
5
5
5
5
5
5
5
5
5
5
5
5
5
5
5
5
5
5
5
5
5
5
5
5
5
5
5
5
5
5
5
5
5
5
5
5
5
5
5
5
5
5
5
5
5
5
5
5
5
5
5
5
5
5
5
5
5
5
5
5
5
5
5
5
5
5
5
5
5
5
5
5
5
5
5
5
5
5
5
5
5
5
5
5
5
5
5
5
5
5
5
5
5
5
5
5
5
5
5
5
5
5
5
5
5
5
5
5
5
5
5
5
5
5
5
5
5
5
5
5
5
5
5
5
5
5
5
5
5
5
5
5
5
5
5
5
5
5
5
5
5
5
5
5
5
5
5
5
5
5
5
5
5
5
5
5
5
5
5
5
5
5
5
5
5
5
5
5
5
5
5
5
5
5

CELL_DATA 186
SCALARS cell_data_0 double
LOOKUP_TABLE default
1.7434845307e-05
1.92952458722e-05
0.000102581864187
0.000132351230629
1.15082728837e-05
6.44465773343e-05
6.10400952048e-05
2.97151880086e-05
1.50305962093e-05
2.32760480236e-05
1.33926492299e-05
3.21800934169e-05
5.87773873332e-05
2.96258851909e-05
1.29161151453e-05
7.9454811289e-05
1.47725311583e-05
1.32450280138e-05
5.21935983583e-05
5.88602945165e-05
4.79864627484e-05
1.83195985518e-05
5.37240561306e-05
1.51608181777e-05
1.0217859954e-05
9.5338339645e-05
1.16906503217e-05
2.48603801859e-07
8.17679658415e-05
4.27255902184e-05
2.01275053573e-05
9.05502115974e-06
7.35334775678e-06
2.93375013852e-06
3.40697348789e-05
3.34310766497e-05
5.59704190804e-06
1.08182059043e-05
1.54797011239e-05
1.19765544533e-05
1.85148944552e-05
1.09719549078e-05
1.71313950128e-05
2.51598271861e-05
1.93435040473e-05
1.6377682682e-05
1.0503837196e-05
1.95698811533e-05
2.27413393776e-05
1.6566575639e-05
3.69711896363e-06
4.79345525866e-05
3.96632400177e-05
5.84177647011e-05
2.9481828709e-06
7.37990472993e-06
5.15433481555e-05
6.69887816121e-05
4.07270214219e-05
3.79698630635e-05
3.05130533592e-06
1.98243497198e-05
2.70493559154e-05
1.08961421773e-05
4.13864390146e-05
0.000111890663518
0.000104034880308
7.56268488549e-05
2.49170125378e-05
0.000101544243377
0.000101829997964
0.000106355422829
6.82900519705e-05
0.000163908367865
0.000154826783706
5.25471569116e-05
1.77697419095e-05
4.84621984014e-05
1.62412008555e-05
3.39832577016e-05
1.94093635379e-05
5.35805969775e-05
9.04244668451e-05
1.16641711801e-05
1.41938147345e-05
1.83787780292e-05
7.17460468862e-06
6.3501855628e-05
2.1512165255e-05
2.82440207587e-05
6.20887937334e-05
1.24189639376e-05
2.14277872518e-05
4.06106160724e-05
3.09091941231e-05
6.11625734414e-05
6.27402439273e-05
8.86927176801e-05
5.45212466236e-05
9.93686713532e-05
6.46800195714e-05
3.10148723076e-05
7.34676922532e-05
6.48416673136e-05
4.18023520837e-05
3.40663638305e-05
2.22448545051e-05
2.25149794523e-05
2.26642695698e-05
9.52023652434e-06
3.4856131241e-05
1.92626172019e-05
6.6960172506e-06
5.34464339163e-06
9.2956113237e-06
1.95923226392e-05
9.08028626079e-05
0.000161773129671
5.6331711312e-05
0.000175628409956
7.1090697128e-05
0.000126294768547
2.51685291167e-05
1.03534153223e-05
9.90593849943e-06
8.83538736165e-05
6.34826442371e-05
7.50214559108e-05
7.47336912041e-05
5.86008307516e-05
3.15999915776e-05
3.88103061145e-05
5.57538747142e-05
6.97996055097e-05
2.97975060594e-06
0.00010372010085
3.1320013549e-06
3.11438953612e-08
7.45530665849e-07
1.57905318865e-05
4.87564068803e-05
4.87528895505e-05
1.25197714663e-05
5.41179324253e-06
9.618408772e-07
1.26246180014e-05
3.68142168754e-05
3.83908841723e-05
2.18522757846e-06
1.49242486462e-06
1.05445351639e-05
3.37506211875e-06
7.24605118925e-06
2.0733210567e-05
2.44820577921e-05
4.94201219039e-06
3.50444845528e-06
3.71778256941e-06
3.23420854336e-06
1.00903588406e-05
2.56701835392e-05
7.8865898739e-06
3.04500129318e-05
3.556540254e-05
3.53074202547e-05
2.97492924318e-05
3.27858167077e-05
0.000110574551036
0.000194000509719
0.000161103551157
4.28464132977e-05
4.93035169858e-05
0.000134719770131
0.000129189573437
0.00014005624059
6.36878263446e-05
8.12686910736e-05
1.01828123091e-05
1.56388822747e-05
1.02510552917e-05
7.48218862025e-05
3.34728022763e-05
1.95135262125e-05
9.45487258198e-06
2.55796101967e-05
2.97436276301e-05

