# vtk DataFile Version 3.0
File Name: Molecule/sphere_dip_sim/sphere_dip_sim_0-s4.vtk
ASCII
DATASET UNSTRUCTURED_GRID
FIELD FieldData 1
TIME 1 1 double
0.0
POINTS 221 double
0.425325404176 0.688190960236 0.26286555606
0.0 0.850650808352 0.525731112119
0.26286555606 0.425325404176 0.688190960236
-0.688190960236 0.26286555606 -0.425325404176
-0.850650808352 0.0 0.0
-0.850650808352 0.525731112119 0.0
-0.26286555606 0.425325404176 -0.688190960236
-0.425325404176 0.688190960236 -0.26286555606
-0.850650808352 -0.525731112119 0.0
-0.425325404176 -0.688190960236 -0.26286555606
-0.425325404176 -0.688190960236 0.26286555606
0.0 -0.850650808352 0.0
0.0 -0.850650808352 -0.525731112119
0.0 -0.850650808352 0.525731112119
-0.26286555606 -0.425325404176 0.688190960236
-0.26286555606 -0.425325404176 -0.688190960236
-0.688190960236 -0.26286555606 -0.425325404176
0.425325404176 -0.688190960236 -0.26286555606
0.425325404176 -0.688190960236 0.26286555606
0.26286555606 -0.425325404176 -0.688190960236
0.0 0.850650808352 0.26286555606
-0.212662702088 0.769420884294 0.394298334089
0.0 0.850650808352 0.0
-0.212662702088 0.769420884294 0.13143277803
-0.212662702088 0.769420884294 -0.13143277803
-0.425325404176 0.688190960236 0.0
-0.637988106264 0.606961036177 -0.13143277803
-0.637988106264 0.606961036177 0.13143277803
-0.13143277803 0.637988106264 0.606961036177
-0.344095480118 0.556758182206 0.475528258148
-0.26286555606 0.425325404176 0.688190960236
-0.556758182206 0.475528258148 0.344095480118
-0.688190960236 0.26286555606 0.425325404176
-0.475528258148 0.344095480118 0.556758182206
-0.769420884294 0.394298334089 0.212662702088
-0.525731112119 0.0 0.850650808352
0.394298334089 -0.212662702088 0.769420884294
0.475528258148 -0.344095480118 0.556758182206
0.606961036177 -0.13143277803 0.637988106264
0.26286555606 -0.425325404176 0.688190960236
0.688190960236 -0.26286555606 0.425325404176
0.344095480118 -0.556758182206 0.475528258148
0.556758182206 -0.475528258148 0.344095480118
0.769420884294 -0.394298334089 0.212662702088
0.637988106264 -0.606961036177 0.13143277803
0.850650808352 -0.26286555606 0.0
0.850650808352 0.0 0.0
0.769420884294 -0.13143277803 0.212662702088
0.769420884294 0.13143277803 0.212662702088
0.688190960236 0.0 0.425325404176
0.606961036177 0.13143277803 0.637988106264
0.688190960236 0.26286555606 0.425325404176
0.525731112119 0.0 0.850650808352
0.26286555606 0.425325404176 -0.688190960236
0.344095480118 0.556758182206 -0.475528258148
0.688190960236 0.26286555606 -0.425325404176
0.425325404176 0.688190960236 -0.26286555606
0.212662702088 0.769420884294 -0.394298334089
0.13143277803 0.637988106264 -0.606961036177
0.0 -0.425325404176 0.688190960236
0.0 -0.425325404176 -0.688190960236
-0.13143277803 -0.212662702088 -0.769420884294
-0.394298334089 -0.212662702088 -0.769420884294
-0.26286555606 0.0 -0.850650808352
-0.525731112119 0.0 -0.850650808352
-0.769420884294 -0.13143277803 -0.212662702088
-0.769420884294 -0.394298334089 -0.212662702088
-0.850650808352 -0.26286555606 0.0
0.0 0.850650808352 -0.525731112119
-0.13143277803 0.637988106264 -0.606961036177
-0.394298334089 0.212662702088 -0.769420884294
-0.688190960236 -0.26286555606 0.425325404176
-0.769420884294 -0.394298334089 0.212662702088
-0.769420884294 -0.13143277803 0.212662702088
0.0 0.425325404176 -0.688190960236
0.769420884294 -0.26286555606 -0.212662702088
0.850650808352 -0.394298334089 0.0
0.769420884294 -0.394298334089 -0.212662702088
0.688190960236 -0.26286555606 -0.425325404176
0.212662702088 0.769420884294 0.13143277803
-0.212662702088 0.769420884294 0.26286555606
-0.318994053132 0.728805922265 0.328581945075
-0.318994053132 0.728805922265 0.197149167045
-0.425325404176 0.688190960236 0.26286555606
-0.318994053132 0.728805922265 0.065716389015
-0.425325404176 0.688190960236 0.13143277803
-0.53165675522 0.647575998207 0.197149167045
-0.53165675522 0.647575998207 0.065716389015
-0.278379091103 0.66308953325 0.434913296118
-0.384710442147 0.622474571221 0.369196907104
-0.491041793191 0.581859609192 0.303480518089
-0.450426831162 0.516143220177 0.409811869133
-0.597373144235 0.541244647162 0.237764129074
0.703704495279 -0.500629685133 0.172047740059
0.810035846323 -0.460014723104 0.106331351044
0.744319457308 -0.566346074148 0.065716389015
0.850650808352 -0.525731112119 0.0
0.810035846323 -0.328581945075 0.106331351044
0.53165675522 -0.647575998207 -0.065716389015
0.688190960236 0.0 -0.425325404176
0.769420884294 -0.13143277803 -0.212662702088
0.769420884294 0.13143277803 -0.212662702088
0.606961036177 -0.13143277803 -0.637988106264
0.606961036177 0.13143277803 -0.637988106264
0.525731112119 0.0 -0.850650808352
0.850650808352 0.26286555606 0.0
0.769420884294 0.394298334089 -0.212662702088
0.850650808352 0.525731112119 0.0
0.637988106264 0.606961036177 -0.13143277803
0.556758182206 0.475528258148 -0.344095480118
-0.13143277803 0.212662702088 0.769420884294
0.0 0.425325404176 0.688190960236
0.13143277803 0.212662702088 0.769420884294
0.0 0.0 0.850650808352
0.394298334089 0.212662702088 0.769420884294
0.26286555606 0.0 0.850650808352
0.637988106264 0.606961036177 0.13143277803
0.769420884294 0.394298334089 0.212662702088
0.556758182206 0.475528258148 0.344095480118
-0.606961036177 -0.13143277803 -0.637988106264
-0.606961036177 0.13143277803 -0.637988106264
-0.688190960236 0.0 -0.425325404176
-0.475528258148 -0.344095480118 0.556758182206
-0.606961036177 -0.13143277803 0.637988106264
-0.106331351044 0.810035846323 -0.065716389015
-0.106331351044 0.810035846323 -0.328581945075
-0.394298334089 0.212662702088 0.769420884294
0.197149167045 -0.106331351044 0.810035846323
0.460014723104 -0.106331351044 0.810035846323
0.810035846323 0.065716389015 0.106331351044
0.728805922265 0.197149167045 0.318994053132
0.810035846323 0.328581945075 0.106331351044
0.460014723104 0.106331351044 -0.810035846323
0.541244647162 0.237764129074 -0.597373144235
0.394298334089 0.212662702088 -0.769420884294
0.106331351044 0.810035846323 -0.460014723104
0.425325404176 0.688190960236 -0.13143277803
0.637988106264 0.606961036177 0.0
0.425325404176 0.688190960236 0.0
0.425325404176 0.688190960236 0.13143277803
0.212662702088 0.769420884294 -0.13143277803
0.212662702088 0.769420884294 0.0
0.106331351044 0.810035846323 -0.065716389015
0.106331351044 0.810035846323 0.065716389015
0.212662702088 0.769420884294 -0.26286555606
0.106331351044 0.810035846323 -0.328581945075
0.106331351044 0.810035846323 -0.197149167045
0.0 0.850650808352 -0.26286555606
0.0 0.850650808352 -0.394298334089
0.0 0.850650808352 -0.13143277803
-0.394298334089 0.0 0.850650808352
-0.26286555606 0.212662702088 0.769420884294
-0.26286555606 0.0 0.850650808352
-0.13143277803 0.0 0.850650808352
-0.460014723104 -0.106331351044 0.810035846323
-0.328581945075 -0.106331351044 0.810035846323
-0.394298334089 -0.212662702088 0.769420884294
-0.26286555606 -0.212662702088 0.769420884294
-0.197149167045 -0.106331351044 0.810035846323
-0.13143277803 -0.212662702088 0.769420884294
-0.328581945075 -0.318994053132 0.728805922265
-0.197149167045 -0.318994053132 0.728805922265
-0.065716389015 -0.106331351044 0.810035846323
-0.13143277803 -0.425325404176 0.688190960236
-0.065716389015 -0.318994053132 0.728805922265
0.065716389015 -0.318994053132 0.728805922265
0.0 -0.212662702088 0.769420884294
0.13143277803 -0.212662702088 0.769420884294
0.065716389015 -0.106331351044 0.810035846323
0.460014723104 -0.106331351044 -0.810035846323
0.394298334089 0.0 -0.850650808352
0.328581945075 -0.106331351044 -0.810035846323
0.394298334089 -0.212662702088 -0.769420884294
0.26286555606 0.0 -0.850650808352
0.26286555606 -0.212662702088 -0.769420884294
0.197149167045 -0.106331351044 -0.810035846323
0.13143277803 -0.212662702088 -0.769420884294
0.328581945075 -0.318994053132 -0.728805922265
0.197149167045 -0.318994053132 -0.728805922265
0.13143277803 0.0 -0.850650808352
0.065716389015 -0.106331351044 -0.810035846323
0.0 0.0 -0.850650808352
0.13143277803 -0.425325404176 -0.688190960236
0.065716389015 -0.318994053132 -0.728805922265
-0.065716389015 -0.318994053132 -0.728805922265
0.0 -0.212662702088 -0.769420884294
-0.065716389015 -0.106331351044 -0.810035846323
-0.13143277803 0.0 -0.850650808352
-0.197149167045 -0.106331351044 -0.810035846323
-0.541244647162 -0.237764129074 0.597373144235
0.475528258148 -0.344095480118 -0.556758182206
0.541244647162 -0.237764129074 -0.597373144235
0.556758182206 -0.475528258148 -0.344095480118
0.491041793191 -0.581859609192 -0.303480518089
0.66308953325 -0.434913296118 -0.278379091103
0.703704495279 -0.500629685133 -0.172047740059
0.597373144235 -0.541244647162 -0.237764129074
0.637988106264 -0.606961036177 -0.13143277803
0.810035846323 -0.460014723104 -0.106331351044
0.744319457308 -0.566346074148 -0.065716389015
0.53165675522 -0.647575998207 -0.197149167045
0.328581945075 0.106331351044 -0.810035846323
0.197149167045 0.106331351044 -0.810035846323
0.26286555606 0.212662702088 -0.769420884294
0.13143277803 0.212662702088 -0.769420884294
0.065716389015 0.106331351044 -0.810035846323
-0.065716389015 0.106331351044 -0.810035846323
0.0 0.212662702088 -0.769420884294
-0.13143277803 0.212662702088 -0.769420884294
-0.065716389015 0.318994053132 -0.728805922265
0.065716389015 0.318994053132 -0.728805922265
-0.197149167045 0.106331351044 -0.810035846323
-0.328581945075 0.106331351044 -0.810035846323
-0.26286555606 0.212662702088 -0.769420884294
-0.106331351044 0.810035846323 -0.197149167045
0.26286555606 -0.212662702088 0.769420884294
0.79748513283 -0.546038593134 0.0328581945075
0.691153781786 -0.586653555163 -0.0328581945075
0.637988106264 -0.606961036177 0.0
0.584822430742 -0.627268517192 -0.0985745835225
0.478491079698 -0.667883479222 -0.164290972537

CELLS 438 1752
3 0 1 2
3 3 4 5
3 6 3 7
3 8 9 10
3 9 11 10
3 9 12 11
3 10 11 13
3 10 13 14
3 15 9 16
3 15 12 9
3 12 17 11
3 17 18 11
3 11 18 13
3 19 17 12
3 0 20 1
3 1 20 21
3 20 22 23
3 24 7 25
3 25 7 26
3 27 26 5
3 1 21 28
3 28 29 30
3 31 32 33
3 29 33 30
3 27 5 34
3 31 34 32
3 33 32 35
3 1 28 2
3 36 37 38
3 36 39 37
3 38 37 40
3 39 41 37
3 41 42 37
3 41 18 42
3 37 42 40
3 18 41 13
3 39 41 13
3 40 42 43
3 42 18 44
3 45 46 47
3 43 47 40
3 48 49 47
3 47 49 40
3 40 49 38
3 49 50 38
3 49 51 50
3 38 50 52
3 51 50 2
3 5 26 3
3 7 26 3
3 32 34 4
3 34 5 4
3 53 54 55
3 56 54 57
3 54 58 57
3 54 53 58
3 39 59 13
3 15 60 12
3 61 15 62
3 63 62 64
3 65 4 3
3 16 66 65
3 66 67 65
3 66 8 67
3 65 67 4
3 68 69 7
3 69 6 7
3 6 70 3
3 71 72 10
3 8 72 10
3 4 73 32
3 32 73 71
3 71 73 72
3 73 67 72
3 73 4 67
3 72 67 8
3 62 15 16
3 8 66 9
3 16 66 9
3 53 74 58
3 74 69 58
3 74 6 69
3 58 69 68
3 45 75 46
3 76 75 77
3 76 45 75
3 77 75 78
3 0 79 20
3 23 80 20
3 20 80 21
3 21 80 81
3 80 82 81
3 80 23 82
3 81 82 83
3 25 84 24
3 24 84 23
3 23 84 82
3 84 85 82
3 84 25 85
3 82 85 83
3 83 85 86
3 85 87 86
3 85 25 87
3 86 87 27
3 27 87 26
3 25 87 26
3 21 88 28
3 88 29 28
3 21 81 88
3 81 89 88
3 81 83 89
3 88 89 29
3 83 90 89
3 90 91 89
3 90 31 91
3 89 91 29
3 29 91 33
3 31 91 33
3 83 86 90
3 86 92 90
3 86 27 92
3 90 92 31
3 31 92 34
3 27 92 34
3 44 93 42
3 42 93 43
3 43 93 94
3 93 95 94
3 93 44 95
3 96 76 94
3 76 97 94
3 76 45 97
3 94 97 43
3 43 97 47
3 45 97 47
3 98 44 18
3 78 99 100
3 99 101 100
3 99 55 101
3 100 101 46
3 78 102 99
3 102 103 99
3 102 104 103
3 99 103 55
3 46 101 105
3 101 106 105
3 101 55 106
3 105 106 107
3 107 106 108
3 106 109 108
3 106 55 109
3 108 109 56
3 30 110 111
3 110 112 111
3 110 113 112
3 111 112 2
3 2 112 114
3 112 115 114
3 112 113 115
3 114 115 52
3 107 116 117
3 116 118 117
3 116 0 118
3 117 118 51
3 51 118 2
3 0 118 2
3 64 119 120
3 119 121 120
3 119 16 121
3 120 121 3
3 14 122 10
3 10 122 71
3 71 123 32
3 35 123 32
3 22 124 23
3 124 24 23
3 24 125 7
3 7 125 68
3 35 126 33
3 30 126 33
3 30 111 28
3 28 111 2
3 113 127 115
3 127 128 115
3 127 36 128
3 115 128 52
3 52 128 38
3 128 36 38
3 46 129 47
3 129 48 47
3 48 130 49
3 130 51 49
3 51 130 117
3 130 131 117
3 130 48 131
3 117 131 107
3 46 129 105
3 129 131 105
3 129 48 131
3 105 131 107
3 2 114 50
3 52 114 50
3 56 109 54
3 55 109 54
3 104 132 103
3 132 133 103
3 132 134 133
3 103 133 55
3 55 133 53
3 133 134 53
3 68 135 58
3 57 135 58
3 56 136 108
3 136 137 108
3 136 138 137
3 108 137 107
3 107 137 116
3 137 139 116
3 137 138 139
3 116 139 0
3 138 136 140
3 56 136 140
3 140 141 138
3 141 79 138
3 140 142 141
3 142 143 141
3 142 22 143
3 141 143 79
3 0 139 79
3 138 139 79
3 57 144 56
3 56 144 140
3 57 145 144
3 145 146 144
3 145 147 146
3 144 146 140
3 57 135 145
3 135 148 145
3 135 68 148
3 145 148 147
3 140 146 142
3 146 149 142
3 146 147 149
3 142 149 22
3 35 150 126
3 150 151 126
3 150 152 151
3 126 151 30
3 30 151 110
3 151 153 110
3 151 152 153
3 110 153 113
3 35 154 150
3 154 155 150
3 154 156 155
3 150 155 152
3 156 157 155
3 157 158 155
3 157 159 158
3 155 158 152
3 156 160 157
3 160 161 157
3 160 14 161
3 157 161 159
3 152 158 153
3 158 162 153
3 158 159 162
3 153 162 113
3 14 163 161
3 163 164 161
3 163 59 164
3 161 164 159
3 59 165 164
3 165 166 164
3 165 167 166
3 164 166 159
3 167 165 39
3 59 165 39
3 159 166 162
3 166 168 162
3 166 167 168
3 162 168 113
3 14 163 13
3 163 59 13
3 104 169 170
3 169 171 170
3 169 172 171
3 170 171 173
3 172 174 171
3 174 175 171
3 174 176 175
3 171 175 173
3 172 177 174
3 177 178 174
3 177 19 178
3 174 178 176
3 173 175 179
3 175 180 179
3 175 176 180
3 179 180 181
3 19 182 178
3 182 183 178
3 182 60 183
3 178 183 176
3 60 184 183
3 184 185 183
3 184 61 185
3 183 185 176
3 61 184 15
3 60 184 15
3 176 185 180
3 185 186 180
3 185 61 186
3 180 186 181
3 19 182 12
3 182 60 12
3 181 186 187
3 186 188 187
3 186 61 188
3 187 188 63
3 63 188 62
3 61 188 62
3 3 121 65
3 16 121 65
3 64 120 70
3 70 120 3
3 14 160 122
3 160 189 122
3 160 156 189
3 122 189 71
3 71 189 123
3 189 154 123
3 189 156 154
3 123 154 35
3 16 119 62
3 64 119 62
3 19 177 190
3 177 191 190
3 177 172 191
3 190 191 78
3 104 169 102
3 169 191 102
3 169 172 191
3 102 191 78
3 19 190 192
3 78 190 192
3 192 193 19
3 193 17 19
3 77 194 78
3 78 194 192
3 77 195 194
3 195 196 194
3 195 197 196
3 194 196 192
3 77 198 195
3 198 199 195
3 198 96 199
3 195 199 197
3 192 196 193
3 196 200 193
3 196 197 200
3 193 200 17
3 104 170 132
3 170 201 132
3 170 173 201
3 132 201 134
3 173 202 201
3 202 203 201
3 202 204 203
3 201 203 134
3 173 179 202
3 179 205 202
3 179 181 205
3 202 205 204
3 134 203 53
3 203 204 53
3 181 206 205
3 206 207 205
3 206 208 207
3 205 207 204
3 208 209 207
3 209 210 207
3 209 74 210
3 207 210 204
3 74 209 6
3 208 209 6
3 204 210 53
3 210 74 53
3 181 187 206
3 187 211 206
3 187 63 211
3 206 211 208
3 63 212 211
3 212 213 211
3 212 70 213
3 211 213 208
3 70 212 64
3 63 212 64
3 208 213 6
3 213 70 6
3 78 100 75
3 46 100 75
3 77 198 76
3 96 198 76
3 22 143 20
3 143 79 20
3 68 148 125
3 148 214 125
3 148 147 214
3 125 214 24
3 22 149 124
3 149 214 124
3 149 147 214
3 124 214 24
3 113 168 127
3 168 215 127
3 168 167 215
3 127 215 36
3 167 215 39
3 39 215 36
3 95 216 94
3 94 216 96
3 96 216 199
3 216 217 199
3 216 95 217
3 199 217 197
3 95 218 217
3 218 219 217
3 218 98 219
3 217 219 197
3 98 218 44
3 95 218 44
3 197 219 200
3 219 220 200
3 219 98 220
3 200 220 17
3 17 220 18
3 220 98 18

CELL_TYPES 438
5
5
5
5
5
5
5
5
5
5
5
5
5
5
5
5
5
5
5
5
5
5
5
5
5
5
5
5
5
5
5
5
5
5
5
5
5
5
5
5
5
5
5
5
5
5
5
5
5
5
5
5
5
5
5
5
5
5
5
5
5
5
5
5
5
5
5
5
5
5
5
5
5
5
5
5
5
5
5
5
5
5
5
5
5
5
5
5
5
5
5
5
5
5
5
5
5
5
5
5
5
5
5
5
5
5
5
5
5
5
5
5
5
5
5
5
5
5
5
5
5
5
5
5
5
5
5
5
5
5
5
5
5
5
5
5
5
5
5
5
5
5
5
5
5
5
5
5
5
5
5
5
5
5
5
5
5
5
5
5
5
5
5
5
5
5
5
5
5
5
5
5
5
5
5
5
5
5
5
5
5
5
5
5
5
5
5
5
5
5
5
5
5
5
5
5
5
5
5
5
5
5
5
5
5
5
5
5
5
5
5
5
5
5
5
5
5
5
5
5
5
5
5
5
5
5
5
5
5
5
5
5
5
5
5
5
5
5
5
5
5
5
5
5
5
5
5
5
5
5
5
5
5
5
5
5
5
5
5
5
5
5
5
5
5
5
5
5
5
5
5
5
5
5
5
5
5
5
5
5
5
5
5
5
5
5
5
5
5
5
5
5
5
5
5
5
5
5
5
5
5
5
5
5
5
5
5
5
5
5
5
5
5
5
5
5
5
5
5
5
5
5
5
5
5
5
5
5
5
5
5
5
5
5
5
5
5
5
5
5
5
5
5
5
5
5
5
5
5
5
5
5
5
5
5
5
5
5
5
5
5
5
5
5
5
5
5
5
5
5
5
5
5
5
5
5
5
5
5
5
5
5
5
5
5
5
5
5
5
5
5
5
5
5
5
5
5
5
5
5
5
5
5
5
5
5
5
5
5
5
5
5
5
5
5
5
5
5
5
5
5
5
5
5
5
5
5
5
5
5
5
5
5
5
5
5
5
5

CELL_DATA 438
SCALARS cell_data_0 double
LOOKUP_TABLE default
4.14654648812e-05
2.49376079137e-05
4.81635271684e-05
9.09132358865e-05
0.000227458866164
0.000259892362851
0.000159942852225
7.63189469577e-05
3.56803529277e-05
5.065446847e-05
0.000247364554315
0.000182706317747
0.000127879014004
1.7889372515e-05
5.33731654145e-06
2.62929986698e-06
3.13079419085e-05
1.18242621285e-06
2.05999157536e-05
3.09227631261e-05
1.23225202914e-05
5.04694738452e-06
5.56111622708e-06
2.09354212263e-05
4.29722777455e-05
1.35170530287e-05
8.51815287768e-05
5.74653925695e-06
2.13559083118e-05
6.18942552113e-05
1.18068656403e-05
2.15164586385e-05
9.93188188607e-06
3.3447156104e-05
9.85256660138e-06
1.23629516979e-05
1.28214653004e-05
9.28069664157e-05
0.000241060730624
2.87549167539e-05
7.54023014864e-05
4.51699962701e-05
1.01078877789e-05
8.51396783996e-07
9.35034826635e-06
4.13755186617e-05
4.11132251577e-05
3.47622551551e-05
3.04503441416e-05
4.94706989591e-06
3.14449966006e-05
7.04489112157e-05
2.6407230161e-05
7.94382375795e-06
7.46222918017e-06
1.01825459881e-05
7.31456709392e-05
3.69108234527e-05
5.05056502705e-05
0.000101233147759
9.24854412665e-06
1.17964390035e-05
3.53205985868e-06
2.28237405248e-05
1.10794295498e-05
5.84423364564e-05
7.45091355188e-06
5.45152201394e-05
3.61993220506e-05
9.05901178392e-05
3.16791662732e-06
9.34184550119e-06
1.69403607718e-05
2.06487955732e-05
1.7150851029e-05
7.21290363603e-06
5.27321326805e-05
7.43934724424e-05
9.84328922143e-05
3.23306295083e-05
2.85294020893e-05
2.99648380991e-05
2.94816664702e-05
1.24216237732e-05
8.07857655897e-06
1.74812682941e-05
1.55674728692e-05
4.32666636557e-06
1.8293991446e-07
2.78810133702e-06
2.88731643355e-06
3.42250620315e-06
2.17089616342e-07
1.10443751671e-05
1.32265421953e-06
2.20555738003e-06
8.18968967502e-08
3.54950260795e-07
1.28880665999e-07
5.0605757882e-06
4.3610966886e-06
9.8781434954e-07
6.16086984847e-07
4.53600198833e-07
1.4305653254e-06
1.86262618554e-06
9.03363924609e-08
1.54294046631e-06
6.66064706099e-07
1.19337885638e-06
1.02253262112e-05
1.8075078511e-06
6.11292415161e-05
6.58655109099e-05
6.13619883241e-05
7.50016896892e-06
1.64556804256e-05
1.71693886404e-05
5.85702710356e-05
0.000117013842036
4.61393127906e-05
0.000116397327831
0.000101913514875
0.000114651158672
0.000302397621068
0.00020644745472
9.94718114808e-05
0.000100373276887
0.000136906887606
1.31239341577e-05
5.63705727032e-06
1.08878608727e-05
2.21201943657e-05
3.93239299673e-05
1.15737168692e-05
0.000150282005362
2.1843567013e-06
1.15128052665e-05
1.80068771968e-05
8.13235024627e-06
3.63914036467e-05
8.10468482879e-06
2.93407937276e-05
3.57778499671e-05
1.31507696279e-05
2.83750288793e-05
2.53266819851e-05
8.528727807e-07
1.07107880576e-05
2.89593633325e-05
4.98516492305e-05
5.96874064584e-05
7.16869206493e-05
0.000144067061736
0.000226300151466
7.70173853354e-05
6.75756649207e-05
7.4366103692e-05
0.000104857784746
6.10988710366e-05
3.7758070916e-05
5.88322242492e-05
3.18668374548e-05
5.04395685268e-05
2.14747650746e-05
2.31615899344e-05
2.85550768435e-05
1.50478753303e-05
3.18195417518e-06
1.05121174341e-05
4.71445643086e-05
1.54080713109e-05
1.54422875543e-05
2.69456207914e-05
8.70916316646e-07
9.55922139014e-07
4.30848580157e-06
4.04992777165e-05
1.93441028005e-05
1.63937860666e-05
2.12060668555e-05
3.58827154528e-05
4.16981836495e-05
2.99988713742e-05
2.22512031099e-05
1.08231090984e-05
3.80730682265e-06
8.93112405201e-06
4.70841237279e-06
2.27281819531e-05
7.06978217217e-06
3.0207590886e-07
1.47496977213e-05
9.05901819488e-06
9.65050717503e-06
1.47057305243e-05
1.92997466784e-05
9.61812342954e-06
6.89627026969e-06
2.08709528801e-05
2.83719768926e-05
1.23905755752e-05
3.07444265752e-05
1.97283482476e-05
3.24480590744e-06
7.19627031276e-06
8.38271352047e-06
9.29298375048e-06
1.85018896892e-05
3.09678516598e-05
3.48500949689e-05
1.02543139614e-05
5.8504523773e-05
7.44184512511e-05
9.61787875407e-05
2.68549298259e-05
3.37582267729e-05
0.000118555660927
0.000130180863428
6.76009221139e-05
4.85596881234e-05
5.09655920292e-05
1.20458662839e-05
9.62853581904e-06
1.0643585089e-05
1.82772049212e-05
1.84320175935e-05
4.60173746851e-06
4.37074634331e-05
6.83556811643e-05
4.99622490032e-05
5.2500547903e-05
5.31983688119e-05
0.000138133793233
9.63076354546e-05
7.20121808826e-05
1.40680038715e-05
5.34296121448e-05
1.37038942119e-05
2.58219356003e-05
6.25828462563e-05
0.000100679479748
7.76525737735e-05
3.60911525589e-05
4.06537143455e-05
4.76778942767e-05
7.12747441269e-05
5.56137899876e-05
2.38640991193e-05
4.11298670165e-05
1.78090075468e-05
9.72116064414e-05
7.34897123798e-05
0.000153054641311
5.9742431095e-05
9.92557469552e-05
4.2699011039e-05
9.40934087824e-05
1.25477934988e-05
6.00907321678e-05
1.04697551034e-05
4.57928579586e-06
2.97482482529e-06
2.10059803555e-05
1.69198936771e-05
2.53667680085e-05
4.85036776274e-05
4.50986264419e-05
1.1003414119e-05
1.40923615323e-05
1.45895674135e-05
2.16006781708e-05
2.06227859578e-05
2.77248216139e-05
4.33248222265e-05
4.13068074384e-05
4.109874293e-05
2.86425254656e-05
5.56368093372e-05
5.89109998535e-05
5.48345521747e-05
5.92936530288e-05
8.23668710832e-06
5.10520146142e-06
8.02508237515e-06
2.32990387026e-05
2.08389769788e-05
7.99829080454e-06
3.30147519843e-05
5.98143315645e-05
6.2477842165e-06
5.37243073767e-07
3.10587813447e-05
5.22033517001e-05
1.3265403211e-05
4.86030073205e-06
7.4499940943e-06
3.65884328339e-06
3.50270812561e-05
2.50319648219e-05
4.1223995355e-05
5.28840850916e-05
1.2410953654e-05
2.42489782369e-05
1.16297009056e-05
2.76695004833e-05
4.40165032721e-05
3.96781225293e-05
4.23637998848e-05
3.0063633084e-05
6.15233902204e-05
7.17802557134e-05
4.61674684397e-05
5.96170490986e-05
0.000194826070399
0.000122285371541
3.90392122653e-05
4.44380884513e-05
3.98465371347e-05
2.67295921215e-05
3.68479832094e-05
4.56076294796e-05
1.59726112975e-05
2.7668201989e-07
3.17800056095e-06
1.91768777305e-05
1.00878335497e-05
1.18658020458e-05
8.61937604515e-06
9.92549004914e-06
2.11114497647e-06
1.52778391845e-05
2.15394098619e-05
3.91481395192e-06
1.01346071254e-05
2.44454609793e-05
4.99667733415e-06
8.05717859298e-06
1.81692256015e-06
6.8770202328e-06
3.40445928059e-05
5.70562771806e-06
1.28351536685e-07
1.10971962422e-05
3.63104239138e-05
1.368039618e-05
2.1591506944e-05
7.44725795967e-06
2.66780820627e-05
2.7688759146e-06
2.9538931614e-06
1.27003961943e-06
6.97498537025e-07
2.31695611191e-06
1.50810275954e-05
7.52834967421e-06
1.60432470994e-05
9.52402799188e-06
1.91957352032e-06
2.50594375691e-05
2.53415944224e-05
3.99854384552e-05
4.79133156912e-06
6.63688768984e-06
4.02099734267e-07
3.71555698516e-06
8.76753289252e-06
4.79004134114e-05
1.69895752174e-05
1.97925610746e-05
1.04613134673e-05
4.12623791589e-06
2.26771533404e-05
4.49133589899e-05
1.85882611748e-05
3.06997509084e-05
4.06756714522e-05
1.89484120412e-05
5.27178728727e-05
5.51668178057e-05
3.64917549266e-05
4.68636381967e-06
1.67547851497e-05
4.44371205185e-05
2.08895188339e-05
3.80819793473e-05
5.24299745055e-05
3.46393078562e-05
4.08915221259e-05
3.20802919016e-05
2.61839427606e-05
4.63444474898e-05
1.41072852712e-05
7.82796770805e-07
6.81668025165e-06
3.15301376819e-05
7.36036617972e-06
1.47153664006e-05
3.70351580509e-05
1.03124782019e-05
4.72644532468e-07
3.15797612996e-06
9.77258124399e-06
9.00266438234e-06
2.21032907347e-05
8.25714299607e-06
3.1230414095e-05
7.5754890895e-06
1.86879346066e-05
2.83935125963e-07
1.91068273148e-05
1.85235794356e-05
2.17365883498e-05
8.50071721916e-07
5.42970875341e-05
3.10235587914e-05
3.25647933759e-05
1.5608457321e-05
2.95032086945e-05
1.08269389724e-05
1.03103445835e-05
5.60664422618e-06
9.16802138628e-06
5.00581113863e-06
6.66968203531e-06
5.3797639158e-06
5.14151858855e-06
1.44198601468e-07
2.86813712716e-07
4.95873548028e-08
3.39647801729e-05
7.2935525934e-05
1.46902281773e-05
1.48623440995e-05
4.43455625542e-07
2.10931991724e-05
1.04637438295e-05
1.55149660178e-06

