# vtk DataFile Version 3.0
File Name: Molecule/sphere_dip_C5/sphere_dip_C5_0-s3.vtk
ASCII
DATASET UNSTRUCTURED_GRID
FIELD FieldData 1
TIME 1 1 double
0.0
POINTS 642 double
0.850650808352 -0.525731112119 0.0
0.840242354857 -0.471552582683 -0.125
0.887988106264 -0.394298334089 0.0
0.877579652769 -0.340119804654 -0.125
0.829833901363 -0.417374053247 -0.25
0.925325404176 -0.26286555606 0.0
0.867171199275 -0.285941275218 -0.25
0.914916950682 -0.208687026624 -0.125
0.904508497187 -0.154508497188 -0.25
0.819425447869 -0.363195523811 -0.375
0.856762745781 -0.231762745782 -0.375
0.809016994375 -0.309016994375 -0.5
0.962662702088 -0.13143277803 0.0
0.952254248593 -0.077254248594 -0.125
1.0 0.0 0.0
0.809016994375 -0.154508497188 -0.5
0.856762745781 -0.077254248594 -0.375
0.809016994375 0.0 -0.5
0.856762745781 0.077254248594 -0.375
0.904508497187 0.0 -0.25
0.904508497187 0.154508497188 -0.25
0.809016994375 0.154508497188 -0.5
0.856762745781 0.231762745782 -0.375
0.809016994375 0.309016994375 -0.5
0.952254248593 0.077254248594 -0.125
0.738195523811 -0.231762745782 -0.587662702088
0.738195523811 -0.077254248594 -0.587662702088
0.667374053247 -0.154508497188 -0.675325404176
0.667374053247 0.0 -0.675325404176
0.738195523811 0.077254248594 -0.587662702088
0.667374053247 0.154508497188 -0.675325404176
0.596552582683 -0.077254248594 -0.762988106264
0.596552582683 0.077254248594 -0.762988106264
0.525731112119 0.0 -0.850650808352
0.738195523811 0.231762745782 -0.587662702088
0.962662702088 0.13143277803 0.0
0.914916950682 0.208687026624 -0.125
0.925325404176 0.26286555606 0.0
0.867171199275 0.285941275218 -0.25
0.877579652769 0.340119804654 -0.125
0.829833901363 0.417374053247 -0.25
0.819425447869 0.363195523811 -0.375
0.887988106264 0.394298334089 0.0
0.840242354857 0.471552582683 -0.125
0.850650808352 0.525731112119 0.0
0.762988106264 0.596552582683 -0.077254248594
0.752579652769 0.542374053247 -0.202254248594
0.675325404176 0.667374053247 -0.154508497188
0.742171199275 0.488195523811 -0.327254248594
0.664916950682 0.613195523811 -0.279508497188
0.654508497187 0.559016994375 -0.404508497188
0.731762745781 0.434016994375 -0.452254248594
0.587662702088 0.738195523811 -0.231762745782
0.577254248593 0.684016994375 -0.356762745782
0.5 0.809016994375 -0.309016994375
0.684016994375 0.356762745782 -0.577254248593
0.606762745781 0.481762745782 -0.529508497188
0.559016994375 0.404508497188 -0.654508497187
0.481762745782 0.529508497188 -0.606762745781
0.529508497188 0.606762745781 -0.481762745782
0.404508497188 0.654508497187 -0.559016994375
0.434016994375 0.452254248594 -0.731762745781
0.356762745782 0.577254248593 -0.684016994375
0.309016994375 0.5 -0.809016994375
0.452254248594 0.731762745781 -0.434016994375
0.613195523811 0.279508497188 -0.664916950682
0.542374053247 0.202254248594 -0.752579652769
0.488195523811 0.327254248594 -0.742171199275
0.417374053247 0.25 -0.829833901363
0.471552582683 0.125 -0.840242354857
0.363195523811 0.375 -0.819425447869
0.375 0.819425447869 -0.363195523811
0.327254248594 0.742171199275 -0.488195523811
0.25 0.829833901363 -0.417374053247
0.279508497188 0.664916950682 -0.613195523811
0.202254248594 0.752579652769 -0.542374053247
0.154508497188 0.675325404176 -0.667374053247
0.231762745782 0.587662702088 -0.738195523811
0.125 0.840242354857 -0.471552582683
0.077254248594 0.762988106264 -0.596552582683
0.0 0.850650808352 -0.525731112119
0.762988106264 0.596552582683 0.077254248594
0.675325404176 0.667374053247 0.0
0.675325404176 0.667374053247 0.154508497188
0.587662702088 0.738195523811 -0.077254248594
0.587662702088 0.738195523811 0.077254248594
0.5 0.809016994375 0.0
0.5 0.809016994375 -0.154508497188
0.587662702088 0.738195523811 0.231762745782
0.5 0.809016994375 0.154508497188
0.5 0.809016994375 0.309016994375
0.375 0.856762745781 -0.231762745782
0.375 0.856762745781 -0.077254248594
0.25 0.904508497187 -0.154508497188
0.25 0.904508497187 0.0
0.375 0.856762745781 0.077254248594
0.25 0.904508497187 0.154508497188
0.125 0.952254248593 -0.077254248594
0.125 0.952254248593 0.077254248594
0.0 1.0 0.0
0.375 0.856762745781 0.231762745782
0.25 0.867171199275 -0.285941275218
0.125 0.877579652769 -0.340119804654
0.125 0.914916950682 -0.208687026624
0.0 0.925325404176 -0.26286555606
0.0 0.887988106264 -0.394298334089
0.0 0.962662702088 -0.13143277803
0.375 0.819425447869 0.363195523811
0.25 0.867171199275 0.285941275218
0.25 0.829833901363 0.417374053247
0.125 0.914916950682 0.208687026624
0.125 0.877579652769 0.340119804654
0.0 0.925325404176 0.26286555606
0.0 0.962662702088 0.13143277803
0.125 0.840242354857 0.471552582683
0.0 0.887988106264 0.394298334089
0.0 0.850650808352 0.525731112119
-0.125 0.840242354857 0.471552582683
-0.125 0.877579652769 0.340119804654
-0.25 0.829833901363 0.417374053247
-0.125 0.914916950682 0.208687026624
-0.25 0.867171199275 0.285941275218
-0.25 0.904508497187 0.154508497188
-0.125 0.952254248593 0.077254248594
-0.375 0.819425447869 0.363195523811
-0.375 0.856762745781 0.231762745782
-0.5 0.809016994375 0.309016994375
-0.125 0.952254248593 -0.077254248594
-0.25 0.904508497187 0.0
-0.25 0.904508497187 -0.154508497188
-0.375 0.856762745781 -0.077254248594
-0.375 0.856762745781 0.077254248594
-0.5 0.809016994375 0.0
-0.375 0.856762745781 -0.231762745782
-0.5 0.809016994375 -0.154508497188
-0.5 0.809016994375 -0.309016994375
-0.5 0.809016994375 0.154508497188
-0.125 0.914916950682 -0.208687026624
-0.125 0.877579652769 -0.340119804654
-0.25 0.867171199275 -0.285941275218
-0.25 0.829833901363 -0.417374053247
-0.125 0.840242354857 -0.471552582683
-0.375 0.819425447869 -0.363195523811
-0.587662702088 0.738195523811 0.231762745782
-0.587662702088 0.738195523811 0.077254248594
-0.675325404176 0.667374053247 0.154508497188
-0.587662702088 0.738195523811 -0.077254248594
-0.675325404176 0.667374053247 0.0
-0.675325404176 0.667374053247 -0.154508497188
-0.587662702088 0.738195523811 -0.231762745782
-0.762988106264 0.596552582683 0.077254248594
-0.762988106264 0.596552582683 -0.077254248594
-0.850650808352 0.525731112119 0.0
-0.077254248594 0.762988106264 0.596552582683
-0.202254248594 0.752579652769 0.542374053247
-0.154508497188 0.675325404176 0.667374053247
-0.327254248594 0.742171199275 0.488195523811
-0.279508497188 0.664916950682 0.613195523811
-0.404508497188 0.654508497187 0.559016994375
-0.452254248594 0.731762745781 0.434016994375
-0.231762745782 0.587662702088 0.738195523811
-0.356762745782 0.577254248593 0.684016994375
-0.309016994375 0.5 0.809016994375
-0.577254248593 0.684016994375 0.356762745782
-0.529508497188 0.606762745781 0.481762745782
-0.654508497187 0.559016994375 0.404508497188
-0.606762745781 0.481762745782 0.529508497188
-0.481762745782 0.529508497188 0.606762745781
-0.559016994375 0.404508497188 0.654508497187
-0.731762745781 0.434016994375 0.452254248594
-0.684016994375 0.356762745782 0.577254248593
-0.809016994375 0.309016994375 0.5
-0.434016994375 0.452254248594 0.731762745781
-0.664916950682 0.613195523811 0.279508497188
-0.752579652769 0.542374053247 0.202254248594
-0.742171199275 0.488195523811 0.327254248594
-0.829833901363 0.417374053247 0.25
-0.840242354857 0.471552582683 0.125
-0.819425447869 0.363195523811 0.375
-0.363195523811 0.375 0.819425447869
-0.488195523811 0.327254248594 0.742171199275
-0.417374053247 0.25 0.829833901363
-0.613195523811 0.279508497188 0.664916950682
-0.542374053247 0.202254248594 0.752579652769
-0.667374053247 0.154508497188 0.675325404176
-0.738195523811 0.231762745782 0.587662702088
-0.471552582683 0.125 0.840242354857
-0.596552582683 0.077254248594 0.762988106264
-0.525731112119 0.0 0.850650808352
0.077254248594 0.762988106264 0.596552582683
0.0 0.675325404176 0.667374053247
0.154508497188 0.675325404176 0.667374053247
-0.077254248594 0.587662702088 0.738195523811
0.077254248594 0.587662702088 0.738195523811
0.0 0.5 0.809016994375
-0.154508497188 0.5 0.809016994375
0.231762745782 0.587662702088 0.738195523811
0.154508497188 0.5 0.809016994375
0.309016994375 0.5 0.809016994375
-0.231762745782 0.375 0.856762745781
-0.077254248594 0.375 0.856762745781
-0.154508497188 0.25 0.904508497187
0.0 0.25 0.904508497187
0.077254248594 0.375 0.856762745781
0.154508497188 0.25 0.904508497187
-0.077254248594 0.125 0.952254248593
0.077254248594 0.125 0.952254248593
0.0 0.0 1.0
0.231762745782 0.375 0.856762745781
-0.285941275218 0.25 0.867171199275
-0.340119804654 0.125 0.877579652769
-0.208687026624 0.125 0.914916950682
-0.26286555606 0.0 0.925325404176
-0.394298334089 0.0 0.887988106264
-0.13143277803 0.0 0.962662702088
0.363195523811 0.375 0.819425447869
0.285941275218 0.25 0.867171199275
0.417374053247 0.25 0.829833901363
0.208687026624 0.125 0.914916950682
0.340119804654 0.125 0.877579652769
0.26286555606 0.0 0.925325404176
0.13143277803 0.0 0.962662702088
0.471552582683 0.125 0.840242354857
0.394298334089 0.0 0.887988106264
0.525731112119 0.0 0.850650808352
-0.471552582683 -0.125 0.840242354857
-0.340119804654 -0.125 0.877579652769
-0.417374053247 -0.25 0.829833901363
-0.285941275218 -0.25 0.867171199275
-0.208687026624 -0.125 0.914916950682
-0.154508497188 -0.25 0.904508497187
-0.363195523811 -0.375 0.819425447869
-0.231762745782 -0.375 0.856762745781
-0.309016994375 -0.5 0.809016994375
-0.077254248594 -0.125 0.952254248593
-0.154508497188 -0.5 0.809016994375
-0.077254248594 -0.375 0.856762745781
0.0 -0.5 0.809016994375
0.077254248594 -0.375 0.856762745781
0.0 -0.25 0.904508497187
0.154508497188 -0.25 0.904508497187
0.154508497188 -0.5 0.809016994375
0.231762745782 -0.375 0.856762745781
0.309016994375 -0.5 0.809016994375
0.077254248594 -0.125 0.952254248593
-0.231762745782 -0.587662702088 0.738195523811
-0.077254248594 -0.587662702088 0.738195523811
-0.154508497188 -0.675325404176 0.667374053247
0.0 -0.675325404176 0.667374053247
0.077254248594 -0.587662702088 0.738195523811
0.154508497188 -0.675325404176 0.667374053247
-0.077254248594 -0.762988106264 0.596552582683
0.077254248594 -0.762988106264 0.596552582683
[...]
CELL_DATA 1280
SCALARS cell_data_0 double
LOOKUP_TABLE default
4.37281695872e-06
1.0630470389e-05
9.11560372718e-06
5.20216148224e-06
7.06496136047e-06
1.30639181666e-05
6.49929132044e-06
8.5683838151e-06
1.11335225791e-05
1.97137643919e-05
1.79589121111e-05
8.05303343399e-06
6.76287536831e-06
1.23220561927e-05
8.2031773157e-06
6.77137096163e-06
1.10847152949e-05
2.03906043992e-05
1.10750743186e-05
1.63959523369e-05
1.26058367038e-05
1.47198878253e-05
4.80422034532e-06
9.36589952802e-06
7.58740585982e-06
9.26402389331e-06
6.38360939881e-06
5.20979757917e-06
5.48192148966e-06
6.89596617603e-06
2.67677904161e-06
5.46021961214e-06
5.36441188983e-06
1.42460299925e-05
1.3651000016e-05
1.14835966522e-05
2.59303131061e-05
4.50602770182e-05
2.94062429938e-05
2.4799847919e-05
2.56567037441e-05
4.6546412127e-05
2.99788434439e-05
3.12286312524e-05
1.67336127442e-05
2.60359319471e-05
2.19510404389e-05
1.06497010537e-05
4.1013282996e-06
1.39815349806e-05
1.0298107649e-05
1.33456618124e-05
1.935451839e-05
2.62499694019e-05
1.20282447536e-05
1.4980636105e-05
9.42075358302e-06
1.44288996896e-05
6.18639646027e-06
1.1933534312e-05
1.23788329143e-05
1.99148759872e-05
1.00366322933e-05
1.35820449278e-05
1.75227882838e-05
3.33023153811e-05
1.6699559012e-05
2.23266202225e-05
2.45755641438e-05
4.28557794753e-05
2.4110678856e-05
2.14917187747e-05
1.68330363341e-05
2.8270415218e-05
1.22051164219e-05
2.06271837219e-05
2.17675439461e-05
3.05242371396e-05
1.49611283815e-05
1.59550157532e-05
2.79479586244e-05
7.1094810286e-05
5.27568962778e-05
3.97266817325e-05
6.68539021867e-05
0.000144110419372
7.95429536564e-05
8.22824416948e-05
6.9332712221e-05
0.000127265748886
7.641831236e-05
6.4139198664e-05
4.87549001596e-05
0.000108610867765
8.84107527591e-05
4.17560206056e-05
2.27152852934e-05
6.59443852107e-05
4.14000940163e-05
5.11778692074e-05
5.32633314499e-05
8.04967153557e-05
3.22332740324e-05
5.09482761499e-05
3.34962470043e-05
7.12166653054e-05
4.85720914613e-05
4.45193260337e-05
4.62362750474e-05
9.19103979677e-05
4.56670681472e-05
6.50280111351e-05
7.5133743215e-05
0.000124380512341
5.77992421778e-05
6.67209433232e-05
3.94339320686e-05
8.80853002827e-05
4.63113159052e-05
5.73062362804e-05
4.24918746125e-05
6.76047900338e-05
4.42488901069e-05
2.839796585e-05
5.86536512368e-05
8.58538833004e-05
4.37478190789e-05
4.35109470668e-05
4.61719956307e-05
8.47430016212e-05
3.3577713435e-05
5.58071720183e-05
4.5245915948e-05
8.95592454237e-05
4.75524421036e-05
4.64645552008e-05
3.29219929336e-05
5.43286144817e-05
2.35306151442e-05
3.30010559066e-05
3.59653260013e-05
4.75445931797e-05
2.63451695725e-05
1.50152371332e-05
2.80428406634e-05
6.62919320043e-05
3.97656816982e-05
3.98980130512e-05
3.77124853676e-05
7.92925889722e-05
3.18101778628e-05
5.17174857055e-05
5.10357075641e-05
0.000100546557057
7.40492901567e-05
3.49668960982e-05
2.70437257769e-05
4.34549579999e-05
2.83802267881e-05
1.23110604829e-05
4.95358804575e-05
7.65806852609e-05
5.36466798537e-05
2.49139680156e-05
1.84420758873e-05
5.61680003619e-05
3.10078890019e-05
4.37480986523e-05
2.89367829644e-05
4.71710081665e-05
4.12920117538e-05
1.45365273631e-05
6.70976823977e-05
0.000119589194205
5.72088253112e-05
6.52718285032e-05
1.59439548252e-05
4.50680282976e-05
2.38513936189e-05
2.22460102892e-05
4.95666796853e-05
9.38482541996e-05
4.94787971498e-05
3.14799561323e-05
5.34436038696e-05
8.23149924332e-05
3.44540434669e-05
3.8392188408e-05
2.17156682928e-05
3.45677097762e-05
1.68092088054e-05
9.26798856924e-06
2.09076648075e-05
3.10592183375e-05
3.85771462886e-06
2.10046341221e-05
9.13409972348e-06
1.71054478754e-05
8.44445367355e-06
2.98175699687e-06
1.55874103405e-05
2.99629625118e-05
1.77338278101e-05
1.27026191849e-05
7.13003778233e-06
1.68797981129e-05
4.53397418702e-06
1.20104416958e-05
1.31051059992e-05
1.67308837287e-05
6.12110538652e-06
8.12943875749e-06
2.47645808976e-06
9.76554802761e-06
3.70997709211e-06
6.19226102792e-06
3.34045568506e-05
7.58568942125e-05
7.7149306193e-05
1.99392399508e-05
7.84311462528e-06
3.99217823127e-05
2.68636621021e-05
2.84104700157e-05
2.80285649577e-05
4.58221990266e-05
3.63203277051e-05
1.36082064215e-05
2.05374206546e-05
3.93242293078e-05
1.99128588586e-05
2.19715349142e-05
2.10093568801e-05
3.66470462172e-05
2.37334641931e-05
1.78655961337e-05
4.56088571331e-05
7.38593993955e-05
2.36711553319e-05
5.27191368706e-05
2.46559864548e-05
4.13503433977e-05
2.85287527268e-05
1.07391773217e-05
1.4326502038e-05
2.64115723986e-05
1.15219910301e-05
1.16164998036e-05
2.64577339572e-05
4.5661145939e-05
3.37505553194e-05
1.47988697632e-05
5.57233942179e-06
1.31878189612e-05
8.38003967441e-06
6.49718366234e-06
1.31354114332e-05
1.85966157129e-05
1.71586796465e-05
5.14938538532e-06
4.28814802894e-07
2.41722907348e-06
4.1419104089e-06
5.89047761024e-06
6.02806831025e-06
1.33209563774e-05
9.01121004095e-06
1.41271605526e-06
8.04991572462e-06
5.63754951051e-06
7.03414543901e-06
8.80859106138e-06
1.705117908e-06
5.33751338872e-08
4.88405244031e-06
5.46312805541e-06
7.69660065012e-06
7.36752607764e-06
1.07856414839e-05
8.92445219946e-06
4.65240685128e-06
9.62954448366e-07
7.66500937886e-07
8.96680070665e-06
9.62078770785e-06
9.42931616323e-06
1.24202400275e-05
1.14294649004e-05
4.23816217193e-06
4.65849316781e-06
1.77128269993e-06
2.08581914099e-06
1.08886819174e-06
4.3747436024e-07
1.83103534828e-06
3.18692150928e-06
1.46244542796e-06
4.72883664286e-06
3.53117190895e-06
2.73143782393e-07
1.16383646089e-06
2.72063301332e-06
2.08405469704e-06
1.05662810269e-06
1.15630172287e-05
1.34578221697e-05
1.34168463016e-05
1.53182593364e-05
1.42969866947e-05
1.42867073917e-05
1.26855164644e-05
1.61677168145e-05
9.90517321329e-06
6.50691223799e-06
3.85411908409e-06
9.58741636392e-06
1.43214286218e-05
1.33622953487e-05
1.17500052095e-05
1.1694527853e-05
5.49982416487e-06
8.27086345285e-06
9.31155804909e-06
1.0615866546e-05
1.50467851237e-05
1.51773749752e-05
1.46671996891e-05
1.26834488449e-05
1.44408198217e-05
1.64819069213e-05
1.31282619173e-05
1.44115057492e-05
1.35875665024e-05
1.68103574026e-05
1.4477502508e-05
1.32080244272e-05
1.77354433761e-05
2.17580400956e-05
2.42101462162e-05
1.77637968022e-05
2.78974844166e-05
2.35847804804e-05
2.78956186708e-05
1.71040408628e-05
2.83755350451e-05
2.96637892208e-05
2.69317306634e-05
3.22873815364e-05
1.73723001337e-05
1.7857137626e-05
2.05038494736e-05
1.40602113084e-05
1.41947604535e-05
1.8488861935e-05
1.70400693333e-05
2.05127163461e-05
2.16612926601e-05
2.54997589836e-05
2.60671087912e-05
2.35598043334e-05
1.88918734154e-05
2.22221471932e-05
1.59324111391e-05
2.45136694848e-05
2.3538308225e-05
2.68687928613e-05
2.60711264271e-05
2.41790093113e-05
1.04282054351e-05
1.59847877084e-05
1.97072917969e-05
1.92153568035e-05
2.59088694499e-05
1.98527413612e-05
2.31733779386e-05
1.92187110043e-05
2.66880892652e-05
2.5064805102e-05
2.26446017379e-05
2.64835829535e-05
1.66590892621e-05
1.75133588655e-05
2.1706880916e-05
1.6093728571e-05
1.64415345559e-05
2.20339498751e-05
1.9250992229e-05
2.39934447165e-05
2.3447829986e-05
2.6194288963e-05
2.50790973668e-05
2.49907079911e-05
1.88529250226e-05
1.92641917571e-05
1.36526351498e-05
2.18848568176e-05
2.55142685973e-05
2.35836074488e-05
2.0648145948e-05
2.1614332177e-05
1.65941204616e-05
2.10660630694e-05
2.05696508604e-05
2.39531945739e-05
2.57850144692e-05
2.91915420157e-05
3.14291298797e-05
2.77016538808e-05
2.46799922662e-05
2.76179964873e-05
2.20963578317e-05
2.91462216585e-05
2.50442800009e-05
2.55272819819e-05
2.95535015359e-05
2.35316520919e-05
1.19081410748e-05
1.38025774832e-05
1.03549390492e-05
1.47538498973e-05
1.07646157873e-05
1.21344004417e-05
1.12525290116e-05
1.34393975149e-05
9.03180873244e-06
1.02038879247e-05
5.53584543245e-06
1.07633092272e-05
1.45428766139e-05
1.51066183286e-05
1.18809574439e-05
1.53586635759e-05
2.23535119675e-05
2.60664072199e-05
2.56087664306e-05
2.70564894638e-05
2.4972234969e-05
2.45397167599e-05
2.19956765957e-05
2.70322311032e-05
2.23638161761e-05
1.93431541059e-05
1.64089004588e-05
1.838961575e-05
2.45300466462e-05
2.22240419952e-05
2.03527202843e-05
1.75024658396e-05
1.29996347247e-05
1.49574656336e-05
1.77125332623e-05
1.22024392081e-05
1.77055416163e-05
1.25817982137e-05
1.17056545398e-05
1.14758303062e-05
1.64480324039e-05
1.3708947979e-05
1.24277442905e-05
1.24316232955e-05
6.99221687453e-06
4.41371249356e-06
7.24854008523e-06
3.76041971609e-06
1.2161784752e-05
1.14845950963e-05
1.03642296447e-05
1.33203664367e-05
1.10449742221e-05
1.06780947649e-05
7.42988082651e-06
1.28213595131e-05
7.08194990623e-06
5.15956957992e-06
3.81620322522e-06
5.34806063751e-06
8.68005470901e-06
5.38905807948e-06
5.08472788937e-06
4.517527051e-06
1.04786841058e-05
7.12781581058e-06
9.00186853944e-06
5.60475729764e-06
5.49725785578e-06
3.84466140781e-06
1.11874525442e-06
1.02074901964e-06
6.60102342078e-06
6.04778428965e-07
1.54637602697e-06
1.18852515252e-06
1.37765807304e-06
3.56594267506e-06
2.49029219046e-06
7.46924592618e-07
1.12615451511e-06
2.981129639e-06
2.48502810882e-06
3.30179186017e-06
2.19009526972e-06
1.73449567906e-08
4.37967490936e-07
7.60312684327e-07
2.19557020612e-06
8.85743503266e-08
1.00521386516e-06
3.13030943111e-07
1.43294720889e-06
4.21112019022e-06
1.57196883223e-06
2.16820650471e-06
1.3786121417e-05
1.77097189929e-05
1.24813262483e-05
1.47138607306e-05
1.85856680623e-05
2.55428111484e-05
1.85845941143e-05
1.5112928558e-05
2.18403587392e-05
3.00820741627e-05
1.8772274003e-05
1.98200429047e-05
2.02430508282e-05
2.64135611591e-05
1.48126748706e-05
1.6708210837e-05
1.92710916463e-05
2.79096560257e-05
1.72710677558e-05
1.96733499484e-05
2.01910008282e-05
3.3858193e-05
2.2910490639e-05
2.13361606175e-05
3.04985787806e-05
5.34788581929e-05
3.60305815127e-05
2.90288669861e-05
2.04733664836e-05
1.78651774047e-05
1.06782709755e-05
6.75318580626e-06
6.47413320217e-06
5.08280172855e-06
3.84992459986e-07
7.08390328273e-06
2.75101045753e-08
3.69949838474e-07
1.53810373182e-07
9.94069112291e-07
4.7388156807e-07
4.33027031897e-07
2.6677081043e-06
8.93613028256e-07
1.33946831051e-05
1.19135183319e-05
1.02231236696e-06
1.30254513063e-05
1.18132285233e-06
5.84401792996e-07
1.00910790448e-06
3.2177323624e-06
4.25926304297e-07
1.42644953694e-07
2.51261692405e-06
2.67785001581e-06
1.18562932814e-05
1.13997747021e-05
1.32187633717e-05
3.20895899844e-06
2.26084434342e-06
4.51332118513e-07
4.06342189754e-06
2.2841454726e-06
1.83141773683e-06
1.45336066429e-06
6.86963537225e-08
5.64068756161e-07
2.76513835748e-06
3.99619990349e-06
2.22416294236e-06
3.51251375534e-06
4.5700315414e-07
7.15540074617e-08
1.81350152579e-06
1.37569737493e-06
2.26441403878e-06
3.8121503072e-07
2.70009394407e-06
1.7634121334e-07
1.42838795437e-06
3.96522565539e-06
2.92790413174e-06
2.48595242955e-06
4.74790227516e-06
6.63392914744e-06
6.86340324825e-06
4.66773055753e-06
4.91763595315e-06
7.05919399979e-06
7.29462996561e-06
6.70622555145e-06
4.6344414969e-06
7.67731822079e-06
7.44947985628e-06
6.65202132441e-06
2.69005001336e-06
1.3193906648e-06
1.90552217221e-06
1.47761049527e-06
2.19473872589e-06
2.94601168387e-06
2.07147152174e-06
2.2494956675e-06
5.23700421537e-06
4.4538493513e-06
5.71115662549e-06
1.26189434483e-06
3.24529253861e-06
4.21487873865e-06
2.21300265772e-06
4.5809716742e-06
4.91892500286e-06
6.20771759631e-06
6.72000103422e-06
7.07285500431e-06
7.67436207388e-06
9.0202093032e-06
1.00570085168e-05
9.58277185603e-06
7.46577594506e-06
8.9820381986e-06
7.43683664136e-06
8.86098201633e-06
1.10275777148e-05
1.20604523771e-05
1.07019827215e-05
1.1228086979e-05
2.56290638228e-05
2.31432090653e-05
2.22519618746e-05
1.61075242418e-06
4.27792021014e-06
4.30720813805e-06
3.33464082327e-06
2.74727241318e-06
6.94315942323e-06
6.36989660317e-06
6.96955240179e-06
2.87229979362e-06
2.6124194182e-06
4.63229768734e-06
3.54977900927e-06
4.747219911e-06
4.56943788837e-06
7.34825889421e-06
7.86562047335e-06
6.00306598771e-06
1.16997726793e-05
1.30562978209e-05
1.16001892133e-05
8.95926988671e-06
1.33859930068e-05
1.76408988904e-05
1.41102317678e-05
1.32454403765e-05
7.2672239972e-06
1.01099819086e-05
9.52830786243e-06
8.03110386956e-06
4.11370710046e-06
1.14314423536e-07
1.12403978263e-06
6.46786682744e-06
7.634914808e-06
8.82505509257e-06
9.47080202422e-06
8.13575422674e-06
1.49728865401e-06
3.20738658237e-06
3.03125707934e-07
9.65234968025e-06
9.48987578329e-06
1.23793322389e-05
1.07589373913e-05
1.16459313629e-05
7.92225193767e-06
1.07807965344e-05
8.94764494563e-06
1.03955350473e-05
1.11141195987e-05
1.58207983375e-05
1.83139062167e-05
1.35772014547e-05
1.17985443835e-05
1.59857069054e-05
1.21588530957e-05
1.65922755431e-05
1.31046689019e-05
1.57852662695e-05
1.7798694674e-05
1.25428918739e-05
3.11497345379e-06
1.62344233043e-06
4.21745830963e-06
5.41835885606e-06
3.87400520592e-06
3.18210570918e-07
2.30976036962e-06
3.72615649327e-06
3.59584904576e-06
5.47335207714e-07
2.91101631072e-07
2.96190952451e-06
2.77852460117e-06
6.13427639667e-07
2.32282399789e-06
6.50655275547e-08
6.2489015781e-07
1.33647641306e-06
3.42283492085e-07
2.43344263328e-06
1.00960470065e-07
3.04858961528e-06
6.84020505479e-08
6.57096750002e-07
9.77603964355e-07
1.40916961291e-06
5.24129979619e-07
1.37093159525e-06
1.52250088501e-06
8.07122015317e-07
1.93869229233e-06
9.98114229033e-07
2.12403267689e-07
1.54132705239e-07
2.15340941155e-06
1.40572879061e-06
1.98854075923e-06
2.87712476867e-07
1.26946747175e-07
1.5507919626e-06
2.73072204097e-06
1.54849131252e-06
1.16981558891e-06
1.08039446002e-06
1.32744499773e-06
2.6912613837e-07
7.66652676329e-07
1.49400295514e-06
2.05399519409e-06
1.19009546244e-06
2.48265624668e-06
2.38641437512e-06
1.21277684199e-06
1.54856178146e-06
7.04538042561e-07
2.43697615318e-08
1.70070411304e-06
1.17488315721e-07
1.24850544989e-06
1.24514079406e-06
1.35679537712e-06
1.85091896747e-07
9.04394458449e-09
9.28813918285e-07
1.04186329521e-05
1.05271597362e-05
3.0396804592e-06
8.68029495795e-06
2.90376957245e-06
3.56591597322e-06
2.85008283537e-06
1.90634519892e-06
4.24131446174e-06
5.45376146494e-06
7.50966771384e-06
3.4673311255e-06
1.23672693553e-05
1.46288555596e-05
3.00564831948e-06
1.35673578765e-05
7.13518242368e-06
3.57833854626e-06
3.7289400718e-06
2.84925793461e-06
3.58310021459e-06
1.02059273022e-06
1.73266104333e-06
2.66551659263e-07
5.33882074843e-06
2.62186557795e-06
1.29503977015e-06
2.30080660708e-06
1.27068253905e-06
6.93544308347e-07
6.08332922543e-07
2.27550122521e-06
5.5797818789e-06
3.34989854267e-06
4.0108665618e-06
3.9673541936e-06
2.17205577738e-06
3.59233975734e-07
3.28120808007e-06
2.12608827004e-06
2.91173725511e-06
1.72021591256e-06
3.881229927e-06
4.58920223536e-06
2.79250190669e-06
4.49784023295e-07
3.07898806785e-06
8.82566427341e-07
8.95797223878e-06
9.71176481167e-06
2.38251411571e-06
8.37253878085e-06
4.38213182981e-06
6.16987566987e-06
6.43722780594e-06
2.6929476681e-06
2.74658105025e-06
3.28036070863e-06
1.36156708021e-06
5.57724928431e-06
5.15666276146e-06
6.86907444026e-06
4.90431452836e-06
4.40069603298e-06
3.6216593113e-06
4.34448327645e-06
3.82543194932e-06
2.29569062918e-06
1.86931006716e-06
1.83656532415e-06
5.34430114045e-07
1.39411859919e-06
3.68573961604e-06
2.57244435407e-06
3.94358648032e-06
8.51893688548e-08
1.65367431077e-06
2.11262114339e-06
9.27423298765e-07
4.81679388094e-07
5.01938656726e-06
5.79598616896e-06
4.79998829528e-06
1.79249447629e-06
3.58741614279e-06
4.86449466942e-06
8.72098355071e-08
1.68644753639e-06
3.3156192051e-06
5.93143445231e-06
5.06186081631e-06
1.55220762561e-06
3.23747218945e-07
1.07298989236e-06
8.64971998167e-07
1.86488780351e-07
7.13426865728e-06
1.12096884528e-05
9.74655105421e-06
7.04285131666e-06
1.12474430776e-05
1.89673475639e-05
1.27848383867e-05
1.18001212576e-05
1.34295877446e-05
2.08518119619e-05
1.71576451309e-05
1.2715123477e-05
8.09926825805e-06
1.65013322269e-05
1.52807138051e-05
8.89814002562e-06
4.36494635562e-06
6.69699072575e-06
1.7359668367e-08
4.10337363991e-06
1.51390415668e-06
6.58474223025e-06
2.4698937306e-06
8.34641710315e-07
1.83584564066e-06
1.06150146644e-05
8.66078343881e-06
6.20569547314e-06
4.3663922103e-07
8.44235795599e-06
5.38629312307e-06
3.45996854893e-06
6.46822478876e-06
1.75246535788e-05
1.02748202363e-05
1.10658240885e-05
1.75269280814e-05
2.62842821784e-05
8.12311151132e-06
1.05811092971e-05
7.73449916755e-06
1.53818067184e-05
4.96375789304e-06
9.13016940768e-06
5.75145723624e-06
1.21058613123e-05
3.22974164987e-06
3.87062525975e-06
6.18407734465e-06
5.94221689105e-06
4.76032714516e-06
2.09412043037e-08
8.07207798431e-06
6.10795147538e-06
9.16661161306e-06
6.64857896115e-06
9.92434802566e-06
1.06989309792e-05
1.26400317319e-05
1.05801239586e-05
3.98909321705e-06
2.62081990112e-06
8.47743431326e-06
1.86166155842e-06
5.26357605238e-06
5.35287523195e-06
1.21891289787e-06
4.10002083168e-06
5.65497977707e-06
6.76337422646e-06
7.52545103591e-06
8.13767312226e-06
3.57545782497e-06
3.80582340232e-06
2.62145117217e-06
6.56048993345e-06
9.13458216557e-06
1.11773144673e-05
8.68085943952e-06
1.13188807269e-05
5.25596299155e-06
7.48829104698e-06
8.48201822987e-06
8.8806137531e-06
1.17534489473e-05
1.43898978794e-05
1.7121389917e-05
1.28738366916e-05
1.18094587563e-05
1.47021731818e-05
1.19114292597e-05
1.5945166419e-05
1.38665027337e-05
1.63646763648e-05
1.63516892397e-05
1.35372185703e-05
1.15745418554e-05
1.28650153298e-05
1.15692968657e-05
1.21722130724e-05
1.15959003343e-05
1.06920044489e-05
8.39371174886e-06
1.13261105376e-05
8.89357195427e-06
8.54497180675e-06
6.49069003678e-06
8.31373091348e-06
8.80899237071e-06
8.69826384847e-06
8.2558929346e-06
6.41329797805e-06
8.50563181335e-06
1.01278397981e-05
7.68633070476e-06
9.05401451712e-06
7.55668095015e-06
8.84574693221e-06
7.42968092759e-06
8.61011104561e-06
5.72372840391e-06
6.06611395156e-06
2.58090090262e-06
5.65409590337e-06
8.94092670232e-06
9.38289519651e-06
7.06206298797e-06
7.61086274753e-06
3.94722358032e-06
4.64862571887e-06
3.64924543777e-06
5.56074530975e-06
5.36676842986e-06
4.88818410807e-06
2.25210961801e-06
4.48331906717e-06
2.36360716079e-06
2.86367060575e-07
9.27037227859e-07
3.03323377938e-07
3.66510036639e-06
2.24003902176e-06
1.78906768111e-08
2.5942915401e-07
1.38634106262e-06
2.28310568417e-06
4.87648731261e-06
1.21302630089e-06
4.27675847343e-06
4.56934777407e-06
2.72435412115e-06
4.66016859978e-06
3.48894990828e-06
2.21844715241e-06
1.43105164165e-07
5.30907456188e-07
5.40734699897e-07
2.54156963621e-06
1.09315580708e-06
4.52724045314e-06
2.84095910714e-06
1.18168151055e-06
4.54897557473e-06
3.8972138144e-06
4.04385228014e-06
7.92923754977e-07
1.19846258519e-06
3.87176124768e-06
4.33393282041e-06
1.69279188383e-06
1.90185255596e-06
2.00500809343e-06
3.91898630518e-06
1.3656420279e-06
1.90948390095e-06
8.36933453416e-07
3.01520267535e-06
1.95465869014e-06
1.17589574166e-06
1.46864239822e-06
3.61314572418e-08
4.52915448095e-07
7.15655675953e-07
4.12262362555e-08
1.21617913251e-06
1.58825802074e-06
3.12023098558e-06
1.95682086706e-06
1.46559368431e-06
1.39319144852e-06
1.44412158876e-06
1.32072735063e-06
2.08940451716e-06
1.45048573081e-06
1.12465646886e-06
1.28520876143e-06
7.87152986999e-07
3.20648561512e-07
8.1925365688e-07
3.58978476709e-07
1.42504860308e-06
6.70182455964e-06
8.94168364937e-06
8.06124486413e-06
3.25931363913e-07
2.60952177502e-06
3.41895442745e-06
5.09732244162e-06
8.71174220229e-07
1.32928005732e-06
1.68325294357e-06
2.09051322141e-06
8.59985834275e-07
7.23048960546e-07
1.82780565287e-06
2.07298256443e-06
1.40146596811e-06
2.61455275315e-06
4.22229685944e-06
3.63304581987e-06
2.95059547482e-06
3.19249457724e-06
4.03746725092e-06
2.50672425625e-06
1.02666402161e-05
1.00093724821e-05
3.36752212141e-06
9.31240459443e-06
3.07158604883e-06
3.60840947016e-06
1.21937156042e-06
2.89955699039e-06
3.0585563705e-06
3.94789902739e-06
3.12724869319e-06
1.83676758704e-06
7.76563061521e-06
7.344736699e-06
8.39211156773e-07
7.4683685939e-06
1.49573099744e-06
9.69289305359e-07
2.88592738068e-06
8.3018532086e-07
1.63627430531e-06
1.82343914212e-06
1.75035086335e-06
9.05516378161e-07
2.15462166766e-06
2.56049275986e-06