# vtk DataFile Version 3.0
File Name: Molecule/sphere_dip_C5/sphere_dip_C5_0-s2.vtk
ASCII
DATASET UNSTRUCTURED_GRID
FIELD FieldData 1
TIME 1 1 double
0.0
POINTS 162 double
0.850650808352 -0.525731112119 0.0
0.829833901363 -0.417374053247 -0.25
0.925325404176 -0.26286555606 0.0
0.904508497187 -0.154508497188 -0.25
0.809016994375 -0.309016994375 -0.5
1.0 0.0 0.0
0.809016994375 0.0 -0.5
0.904508497187 0.154508497188 -0.25
0.809016994375 0.309016994375 -0.5
0.667374053247 -0.154508497188 -0.675325404176
0.667374053247 0.154508497188 -0.675325404176
0.525731112119 0.0 -0.850650808352
0.925325404176 0.26286555606 0.0
0.829833901363 0.417374053247 -0.25
0.850650808352 0.525731112119 0.0
0.675325404176 0.667374053247 -0.154508497188
0.654508497187 0.559016994375 -0.404508497188
0.5 0.809016994375 -0.309016994375
0.559016994375 0.404508497188 -0.654508497187
0.404508497188 0.654508497187 -0.559016994375
0.309016994375 0.5 -0.809016994375
0.417374053247 0.25 -0.829833901363
0.25 0.829833901363 -0.417374053247
0.154508497188 0.675325404176 -0.667374053247
0.0 0.850650808352 -0.525731112119
0.675325404176 0.667374053247 0.154508497188
0.5 0.809016994375 0.0
0.5 0.809016994375 0.309016994375
0.25 0.904508497187 -0.154508497188
0.25 0.904508497187 0.154508497188
0.0 1.0 0.0
0.0 0.925325404176 -0.26286555606
0.25 0.829833901363 0.417374053247
0.0 0.925325404176 0.26286555606
0.0 0.850650808352 0.525731112119
-0.25 0.829833901363 0.417374053247
-0.25 0.904508497187 0.154508497188
-0.5 0.809016994375 0.309016994375
-0.25 0.904508497187 -0.154508497188
-0.5 0.809016994375 0.0
-0.5 0.809016994375 -0.309016994375
-0.25 0.829833901363 -0.417374053247
-0.675325404176 0.667374053247 0.154508497188
-0.675325404176 0.667374053247 -0.154508497188
-0.850650808352 0.525731112119 0.0
-0.154508497188 0.675325404176 0.667374053247
-0.404508497188 0.654508497187 0.559016994375
-0.309016994375 0.5 0.809016994375
-0.654508497187 0.559016994375 0.404508497188
-0.559016994375 0.404508497188 0.654508497187
-0.809016994375 0.309016994375 0.5
-0.829833901363 0.417374053247 0.25
-0.417374053247 0.25 0.829833901363
-0.667374053247 0.154508497188 0.675325404176
-0.525731112119 0.0 0.850650808352
0.154508497188 0.675325404176 0.667374053247
0.0 0.5 0.809016994375
0.309016994375 0.5 0.809016994375
-0.154508497188 0.25 0.904508497187
0.154508497188 0.25 0.904508497187
0.0 0.0 1.0
-0.26286555606 0.0 0.925325404176
0.417374053247 0.25 0.829833901363
0.26286555606 0.0 0.925325404176
0.525731112119 0.0 0.850650808352
-0.417374053247 -0.25 0.829833901363
-0.154508497188 -0.25 0.904508497187
-0.309016994375 -0.5 0.809016994375
0.0 -0.5 0.809016994375
0.154508497188 -0.25 0.904508497187
0.309016994375 -0.5 0.809016994375
-0.154508497188 -0.675325404176 0.667374053247
0.154508497188 -0.675325404176 0.667374053247
0.0 -0.850650808352 0.525731112119
0.417374053247 -0.25 0.829833901363
0.667374053247 -0.154508497188 0.675325404176
0.559016994375 -0.404508497188 0.654508497187
0.809016994375 -0.309016994375 0.5
0.404508497188 -0.654508497187 0.559016994375
0.654508497187 -0.559016994375 0.404508497188
0.5 -0.809016994375 0.309016994375
0.25 -0.829833901363 0.417374053247
0.829833901363 -0.417374053247 0.25
0.675325404176 -0.667374053247 0.154508497188
0.417374053247 -0.25 -0.829833901363
0.26286555606 0.0 -0.925325404176
0.154508497188 -0.25 -0.904508497187
0.309016994375 -0.5 -0.809016994375
0.0 0.0 -1.0
0.0 -0.5 -0.809016994375
-0.154508497188 -0.25 -0.904508497187
-0.309016994375 -0.5 -0.809016994375
0.154508497188 -0.675325404176 -0.667374053247
-0.154508497188 -0.675325404176 -0.667374053247
0.0 -0.850650808352 -0.525731112119
-0.26286555606 0.0 -0.925325404176
-0.417374053247 -0.25 -0.829833901363
-0.525731112119 0.0 -0.850650808352
0.904508497187 -0.154508497188 0.25
0.904508497187 0.154508497188 0.25
0.809016994375 0.0 0.5
0.809016994375 0.309016994375 0.5
0.829833901363 0.417374053247 0.25
0.667374053247 0.154508497188 0.675325404176
0.654508497187 0.559016994375 0.404508497188
0.404508497188 0.654508497187 0.559016994375
0.559016994375 0.404508497188 0.654508497187
-0.667374053247 -0.154508497188 -0.675325404176
-0.667374053247 0.154508497188 -0.675325404176
-0.809016994375 0.0 -0.5
-0.809016994375 -0.309016994375 -0.5
-0.809016994375 0.309016994375 -0.5
-0.904508497187 -0.154508497188 -0.25
-0.904508497187 0.154508497188 -0.25
-1.0 0.0 0.0
-0.829833901363 -0.417374053247 -0.25
-0.925325404176 -0.26286555606 0.0
-0.850650808352 -0.525731112119 0.0
-0.829833901363 0.417374053247 -0.25
-0.925325404176 0.26286555606 0.0
-0.154508497188 0.675325404176 -0.667374053247
-0.404508497188 0.654508497187 -0.559016994375
-0.309016994375 0.5 -0.809016994375
-0.559016994375 0.404508497188 -0.654508497187
-0.654508497187 0.559016994375 -0.404508497188
-0.417374053247 0.25 -0.829833901363
-0.675325404176 -0.667374053247 -0.154508497188
-0.675325404176 -0.667374053247 0.154508497188
-0.5 -0.809016994375 0.0
-0.5 -0.809016994375 -0.309016994375
-0.5 -0.809016994375 0.309016994375
-0.25 -0.904508497187 -0.154508497188
-0.25 -0.904508497187 0.154508497188
0.0 -1.0 0.0
-0.25 -0.829833901363 -0.417374053247
0.0 -0.925325404176 -0.26286555606
-0.25 -0.829833901363 0.417374053247
0.0 -0.925325404176 0.26286555606
-0.829833901363 -0.417374053247 0.25
-0.654508497187 -0.559016994375 0.404508497188
-0.809016994375 -0.309016994375 0.5
-0.404508497188 -0.654508497187 0.559016994375
-0.559016994375 -0.404508497188 0.654508497187
-0.667374053247 -0.154508497188 0.675325404176
-0.809016994375 0.0 0.5
-0.904508497187 0.154508497188 0.25
-0.904508497187 -0.154508497188 0.25
-0.559016994375 -0.404508497188 -0.654508497187
-0.404508497188 -0.654508497187 -0.559016994375
-0.654508497187 -0.559016994375 -0.404508497188
0.25 -0.829833901363 -0.417374053247
0.25 -0.904508497187 -0.154508497188
0.5 -0.809016994375 -0.309016994375
0.5 -0.809016994375 0.0
0.25 -0.904508497187 0.154508497188
0.675325404176 -0.667374053247 -0.154508497188
0.559016994375 -0.404508497188 -0.654508497187
0.654508497187 -0.559016994375 -0.404508497188
0.404508497188 -0.654508497187 -0.559016994375
0.154508497188 0.25 -0.904508497187
-0.154508497188 0.25 -0.904508497187
0.0 0.5 -0.809016994375

CELLS 320 1280
3 0 1 2
3 1 3 2
3 1 4 3
3 2 3 5
3 4 6 3
3 6 7 3
3 6 8 7
3 3 7 5
3 4 9 6
3 9 10 6
3 9 11 10
3 6 10 8
3 5 7 12
3 7 13 12
3 7 8 13
3 12 13 14
3 14 13 15
3 13 16 15
3 13 8 16
3 15 16 17
3 8 18 16
3 18 19 16
3 18 20 19
3 16 19 17
3 8 10 18
3 10 21 18
3 10 11 21
3 18 21 20
3 17 19 22
3 19 23 22
3 19 20 23
3 22 23 24
3 14 15 25
3 15 26 25
3 15 17 26
3 25 26 27
3 17 28 26
3 28 29 26
3 28 30 29
3 26 29 27
3 17 22 28
3 22 31 28
3 22 24 31
3 28 31 30
3 27 29 32
3 29 33 32
3 29 30 33
3 32 33 34
3 34 33 35
3 33 36 35
3 33 30 36
3 35 36 37
3 30 38 36
3 38 39 36
3 38 40 39
3 36 39 37
3 30 31 38
3 31 41 38
3 31 24 41
3 38 41 40
3 37 39 42
3 39 43 42
3 39 40 43
3 42 43 44
3 34 35 45
3 35 46 45
3 35 37 46
3 45 46 47
3 37 48 46
3 48 49 46
3 48 50 49
3 46 49 47
3 37 42 48
3 42 51 48
3 42 44 51
3 48 51 50
3 47 49 52
3 49 53 52
3 49 50 53
3 52 53 54
3 34 45 55
3 45 56 55
3 45 47 56
3 55 56 57
3 47 58 56
3 58 59 56
3 58 60 59
3 56 59 57
3 47 52 58
3 52 61 58
3 52 54 61
3 58 61 60
3 57 59 62
3 59 63 62
3 59 60 63
3 62 63 64
3 54 65 61
3 65 66 61
3 65 67 66
3 61 66 60
3 67 68 66
3 68 69 66
3 68 70 69
3 66 69 60
3 67 71 68
3 71 72 68
3 71 73 72
3 68 72 70
3 60 69 63
3 69 74 63
3 69 70 74
3 63 74 64
3 64 74 75
3 74 76 75
3 74 70 76
3 75 76 77
3 70 78 76
3 78 79 76
3 78 80 79
3 76 79 77
3 70 72 78
3 72 81 78
3 72 73 81
3 78 81 80
3 77 79 82
3 79 83 82
3 79 80 83
3 82 83 0
3 11 84 85
3 84 86 85
3 84 87 86
3 85 86 88
3 87 89 86
3 89 90 86
3 89 91 90
3 86 90 88
3 87 92 89
3 92 93 89
3 92 94 93
3 89 93 91
3 88 90 95
3 90 96 95
3 90 91 96
3 95 96 97
3 0 2 82
3 2 98 82
3 2 5 98
3 82 98 77
3 5 99 98
3 99 100 98
3 99 101 100
3 98 100 77
3 5 12 99
3 12 102 99
3 12 14 102
3 99 102 101
3 77 100 75
3 100 103 75
3 100 101 103
3 75 103 64
3 14 25 102
3 25 104 102
3 25 27 104
3 102 104 101
3 27 105 104
3 105 106 104
3 105 57 106
3 104 106 101
3 27 32 105
3 32 55 105
3 32 34 55
3 105 55 57
3 101 106 103
3 106 62 103
3 106 57 62
3 103 62 64
3 97 107 108
3 107 109 108
3 107 110 109
3 108 109 111
3 110 112 109
3 112 113 109
3 112 114 113
3 109 113 111
3 110 115 112
3 115 116 112
3 115 117 116
3 112 116 114
3 111 113 118
3 113 119 118
3 113 114 119
3 118 119 44
3 24 120 41
3 120 121 41
3 120 122 121
3 41 121 40
3 122 123 121
3 123 124 121
3 123 111 124
3 121 124 40
3 122 125 123
3 125 108 123
3 125 97 108
3 123 108 111
3 40 124 43
3 124 118 43
3 124 111 118
3 43 118 44
3 117 126 127
3 126 128 127
3 126 129 128
3 127 128 130
3 129 131 128
3 131 132 128
3 131 133 132
3 128 132 130
3 129 134 131
3 134 135 131
3 134 94 135
3 131 135 133
3 130 132 136
3 132 137 136
3 132 133 137
3 136 137 73
3 117 127 138
3 127 139 138
3 127 130 139
3 138 139 140
3 130 141 139
3 141 142 139
3 141 67 142
3 139 142 140
3 130 136 141
3 136 71 141
3 136 73 71
3 141 71 67
3 140 142 143
3 142 65 143
3 142 67 65
3 143 65 54
3 54 53 143
3 53 144 143
3 53 50 144
3 143 144 140
3 50 145 144
3 145 146 144
3 145 114 146
3 144 146 140
3 50 51 145
3 51 119 145
3 51 44 119
3 145 119 114
3 140 146 138
3 146 116 138
3 146 114 116
3 138 116 117
3 97 96 107
3 96 147 107
3 96 91 147
3 107 147 110
3 91 148 147
3 148 149 147
3 148 129 149
3 147 149 110
3 91 93 148
3 93 134 148
3 93 94 134
3 148 134 129
3 110 149 115
3 149 126 115
3 149 129 126
3 115 126 117
3 94 150 135
3 150 151 135
3 150 152 151
3 135 151 133
3 152 153 151
3 153 154 151
3 153 80 154
3 151 154 133
3 152 155 153
3 155 83 153
3 155 0 83
3 153 83 80
3 133 154 137
3 154 81 137
3 154 80 81
3 137 81 73
3 11 9 84
3 9 156 84
3 9 4 156
3 84 156 87
3 4 157 156
3 157 158 156
3 157 152 158
3 156 158 87
3 4 1 157
3 1 155 157
3 1 0 155
3 157 155 152
3 87 158 92
3 158 150 92
3 158 152 150
3 92 150 94
3 11 85 21
3 85 159 21
3 85 88 159
3 21 159 20
3 88 160 159
3 160 161 159
3 160 122 161
3 159 161 20
3 88 95 160
3 95 125 160
3 95 97 125
3 160 125 122
3 20 161 23
3 161 120 23
3 161 122 120
3 23 120 24

CELL_TYPES 320
5
5
5
5
5
5
5
5
5
5
5
5
5
5
5
5
5
5
5
5
5
5
5
5
5
5
5
5
5
5
5
5
5
5
5
5
5
5
5
5
5
5
5
5
5
5
5
5
5
5
5
5
5
5
5
5
5
5
5
5
5
5
5
5
5
5
5
5
5
5
5
5
5
5
5
5
5
5
5
5
5
5
5
5
5
5
5
5
5
5
5
5
5
5
5
5
5
5
5
5
5
5
5
5
5
5
5
5
5
5
5
5
5
5
5
5
5
5
5
5
5
5
5
5
5
5
5
5
5
5
5
5
5
5
5
5
5
5
5
5
5
5
5
5
5
5
5
5
5
5
5
5
5
5
5
5
5
5
5
5
5
5
5
5
5
5
5
5
5
5
5
5
5
5
5
5
5
5
5
5
5
5
5
5
5
5
5
5
5
5
5
5
5
5
5
5
5
5
5
5
5
5
5
5
5
5
5
5
5
5
5
5
5
5
5
5
5
5
5
5
5
5
5
5
5
5
5
5
5
5
5
5
5
5
5
5
5
5
5
5
5
5
5
5
5
5
5
5
5
5
5
5
5
5
5
5
5
5
5
5
5
5
5
5
5
5
5
5
5
5
5
5
5
5
5
5
5
5
5
5
5
5
5
5
5
5
5
5
5
5
5
5
5
5
5
5
5
5
5
5
5
5
5
5
5
5
5
5
5
5
5
5
5
5
5
5
5
5
5
5

CELL_DATA 320
SCALARS cell_data_0 double
LOOKUP_TABLE default
1.31279942653e-06
9.2536006994e-07
9.86678384514e-06
1.54081515962e-06
3.7288150203e-05
5.64739189526e-05
6.63159205184e-05
2.05987424165e-05
6.63508125999e-05
7.97079138911e-05
5.17280197884e-05
5.01724977555e-05
5.2961525729e-05
5.89470019921e-05
2.85089550375e-05
2.606056339e-05
7.60069561139e-06
6.72409813371e-05
6.05896251184e-05
6.72850153222e-05
0.00011630805982
0.000171078232969
8.70823603149e-05
0.000116689025347
5.29763150924e-05
9.63347972292e-05
6.29574354274e-05
7.97394387545e-05
0.000105354041792
0.000136574008839
6.20039026186e-05
0.000103939166847
9.7036547439e-05
0.000269419546979
0.000119621219271
0.000225255669364
0.000276999668273
0.000483487054243
0.000239183008361
0.000251458492696
0.000173129370191
0.000268994271141
0.000147195593696
0.000151758294523
0.000185935447431
0.000254536303471
0.000115954135865
9.25190137466e-05
4.71910886769e-05
0.00019449240321
0.000123854815723
0.000141635339388
0.00014772109928
0.000260956700406
7.95496642543e-05
0.000192156808848
7.47114714983e-05
0.00024329859452
0.000218957872678
0.000133239102877
6.25433706297e-05
0.000110382805513
7.74243675724e-05
3.9015974353e-05
2.47197902051e-05
2.27296150929e-05
1.63829940258e-05
3.06051699505e-05
1.68787961466e-05
2.36069948525e-05
2.46834076345e-05
3.943719543e-05
4.74895957665e-05
8.67771858552e-05
3.52992208093e-05
4.64737266335e-05
4.65880639806e-05
3.61392847661e-05
1.52425820376e-05
4.26209925958e-05
1.97835602147e-05
4.17899382772e-05
4.83283673436e-05
5.00262772001e-05
8.46430188871e-05
0.000117118937957
0.0001263512362
8.48243810577e-05
6.79858027916e-05
9.43144542293e-05
6.0375329804e-05
0.000101040437214
8.11735854829e-05
0.000106887972804
9.82903247124e-05
7.15647297855e-05
7.37937869863e-05
9.54828592189e-05
7.28169395149e-05
8.26315300524e-05
7.44792123916e-05
9.57100200541e-05
9.16579247889e-05
9.97158179189e-05
5.62900542829e-05
5.03137726319e-05
3.4543820822e-05
4.84002967729e-05
9.57962105111e-05
0.000105877134502
8.44036166746e-05
7.16272831042e-05
5.59211151436e-05
5.73319072026e-05
5.59141931183e-05
3.16878928683e-05
5.58399538654e-05
5.05676492104e-05
3.83742954923e-05
3.24705441295e-05
4.53616058925e-05
3.56416667707e-05
2.33251937853e-05
2.80838453316e-05
1.47486272662e-05
1.23807764785e-05
1.34480252845e-05
6.01399406384e-07
4.14851033414e-05
4.51427105131e-05
5.32033420217e-05
2.31325452982e-05
7.58499132665e-05
8.16025604932e-05
7.29580446779e-05
3.91766140698e-05
8.60677867378e-05
0.00011753877821
7.68915066514e-05
8.51808226316e-05
2.21807671609e-05
1.76255433597e-05
2.40611325238e-05
6.87438568114e-06
4.47517071862e-06
1.02241662584e-05
8.8322053515e-06
9.86594694741e-06
1.8468764452e-05
2.97481892052e-05
2.19518418949e-05
2.45453622522e-05
1.15417384943e-05
3.17575545926e-06
1.32550562116e-05
1.1984339977e-05
2.74760821607e-05
4.57703827917e-05
2.86884642589e-05
4.97291560435e-05
7.5023570295e-05
5.99739625627e-05
5.87560997144e-05
1.21516266912e-05
2.58269544583e-05
4.35070641384e-05
5.91976150272e-05
2.70786580509e-05
3.74209828814e-05
2.9936265549e-05
4.65218496253e-05
4.5089284214e-05
3.41494982472e-05
6.46666421204e-05
6.17826382596e-05
5.75303725095e-05
9.02085057779e-06
7.26749920089e-06
1.69312726192e-05
1.76633081055e-05
1.36639062638e-05
3.57467738976e-06
5.35630583832e-06
1.44612886639e-05
2.1789179768e-06
1.1651213093e-05
9.76786276439e-06
2.55616811812e-06
8.55104743154e-06
9.45143766312e-06
2.2908643278e-06
8.43363162224e-06
0.00013195413158
0.000130280045353
2.49064878622e-05
0.000113313575279
3.2832388736e-05
9.93910048953e-06
1.47410235106e-05
1.31677212054e-06
2.5498721812e-05
1.38643162378e-05
1.31786004231e-05
2.04608696957e-05
1.59689982799e-05
1.83051499589e-05
7.06447378077e-06
2.02751720316e-05
2.95168306489e-07
2.36222594449e-06
2.60727689207e-06
3.44974473342e-06
1.16834740655e-06
1.32450732875e-05
5.61805527729e-06
1.15054040386e-05
1.45069756404e-05
1.61877210439e-05
2.74801375328e-05
8.81537652295e-06
1.08783674758e-05
6.44369031361e-06
3.47087374666e-06
6.47715863989e-06
7.36058558713e-07
8.24007148973e-06
6.85710492541e-06
1.52742930957e-06
1.55943529313e-05
1.62161516492e-05
1.9879711697e-05
5.10707619717e-06
1.42947555713e-06
2.68175471284e-05
2.83708213532e-05
3.84537099381e-05
1.66834466398e-05
5.4090118654e-05
5.62905936755e-05
5.64513263164e-05
3.53598811623e-05
2.35583804305e-05
2.08104401972e-05
2.11730327263e-05
1.95780724718e-05
2.19100999607e-05
1.14385592706e-06
2.68001869471e-05
9.16539605869e-06
1.1266332393e-05
8.96334215364e-06
5.3254765549e-06
1.3238273761e-05
1.29974214122e-05
3.50101063934e-06
5.76771191699e-06
6.89347204539e-06
2.4442981533e-06
7.47071647591e-06
1.38290055958e-05
9.02188624004e-06
2.29584298937e-07
6.51170133686e-06
1.34600421837e-05
4.3029915977e-05
5.13513302731e-05
5.88316887793e-05
1.90629834318e-05
4.76701079409e-06
5.18664068182e-06
5.89095985478e-06
5.49108367306e-06
1.6899357903e-05
4.4463361085e-06
6.40779766287e-07
6.71461194913e-06
2.68761830252e-06
5.55902384215e-06
2.63571653258e-06
7.23215230951e-08
2.321910534e-06
2.43555793835e-06
1.4108455814e-06
1.50564609718e-06
1.0489528047e-05
1.12970080014e-05
1.45772065387e-05
1.38754487087e-05
5.96309144658e-05
4.85028785343e-05
3.09566597461e-05
3.82037084596e-05
8.23756023561e-06
7.54567270964e-07
2.02125045417e-06
1.50577096091e-05
1.26009975436e-05
4.13803856283e-06
1.10697654409e-07
2.12588821126e-06
4.18556350351e-05
2.81972937629e-05
5.25536029758e-06
3.63222296925e-05
5.14082122293e-05
4.07243399858e-05
1.27773190539e-05
3.80664491766e-05
5.75709063679e-06
6.9566072102e-07
1.49832949505e-05
6.43837363273e-06
6.17108576908e-06
5.94293478718e-06
1.13052391156e-05
1.8386566706e-05
2.93942263615e-05
2.60188712311e-05
1.72371609381e-05
3.51923076041e-05

