# vtk DataFile Version 3.0
File Name: Molecule/sphere_cent/sphere_cent_0-s1.vtk
ASCII
DATASET UNSTRUCTURED_GRID
FIELD FieldData 1
TIME 1 1 double
0.0
POINTS 42 double
0.85065078735 -0.52573108673 0.0
0.80892920494 -0.30898347497 -0.49994572997
0.99989145994 -9.9714245749e-09 4.1670162432e-07
0.8089287281 0.30898413062 -0.49994593859
0.52573108673 0.0 -0.85065078735
0.85065078735 0.52573114634 0.0
0.49994558096 0.80892938375 -0.30898311734
0.30898275971 0.49994543195 -0.80892956257
0.0 0.85065078735 -0.52573114634
0.49994587898 0.80892896652 0.3089838028
-8.3899965375e-07 0.99989140034 3.8027305749e-09
2.2204460493e-16 0.85065078735 0.52573108673
-0.49994584918 0.80892896652 0.3089838028
-0.49994596839 0.8089287281 -0.30898413062
-0.85065078735 0.52573114634 0.0
-0.30898311734 0.49994561076 0.80892938375
-0.80892956257 0.30898275971 0.49994543195
-0.52573108673 5.5511151231e-17 0.85065078735
0.30898344517 0.49994570017 0.80892914534
-1.689826945e-09 -8.4459253458e-07 0.99989140034
0.52573108673 2.7755575616e-17 0.85065078735
-0.3089838028 -0.49994584918 0.80892896652
0.30898413062 -0.49994596839 0.8089287281
0.0 -0.85065078735 0.52573108673
0.80892914534 -0.30898344517 0.49994570017
0.49994546175 -0.80892956257 0.30898275971
0.30898311734 -0.49994558096 -0.80892938375
1.0897897695e-08 -8.694914122e-09 -0.99989140034
-0.30898413062 -0.49994593859 -0.8089287281
2.2204460493e-16 -0.85065078735 -0.52573108673
-0.52573114634 0.0 -0.85065078735
0.80892908573 0.30898341537 0.49994564056
-0.80892938375 -0.30898308754 -0.49994558096
-0.80892914534 0.30898344517 -0.49994570017
-0.99989134073 8.5710043507e-09 4.1315800559e-07
-0.85065078735 -0.52573108673 4.4408920985e-16
-0.30898344517 0.49994564056 -0.80892908573
-0.49994546175 -0.80892956257 -0.30898275971
-0.49994570017 -0.80892914534 0.30898344517
4.2515640075e-07 -0.99989134073 4.2034709047e-09
-0.80892908573 -0.30898344517 0.49994567037
0.49994564056 -0.80892908573 -0.30898344517

CELLS 80 320
3 0 1 2
3 1 3 2
3 1 4 3
3 2 3 5
3 5 3 6
3 3 7 6
3 3 4 7
3 6 7 8
3 5 6 9
3 6 10 9
3 6 8 10
3 9 10 11
3 11 10 12
3 10 13 12
3 10 8 13
3 12 13 14
3 11 12 15
3 12 16 15
3 12 14 16
3 15 16 17
3 11 15 18
3 15 19 18
3 15 17 19
3 18 19 20
3 17 21 19
3 21 22 19
3 21 23 22
3 19 22 20
3 20 22 24
3 22 25 24
3 22 23 25
3 24 25 0
3 4 26 27
3 26 28 27
3 26 29 28
3 27 28 30
3 0 2 24
3 2 31 24
3 2 5 31
3 24 31 20
3 5 9 31
3 9 18 31
3 9 11 18
3 31 18 20
3 30 32 33
3 32 34 33
3 32 35 34
3 33 34 14
3 8 36 13
3 36 33 13
3 36 30 33
3 13 33 14
3 35 37 38
3 37 39 38
3 37 29 39
3 38 39 23
3 35 38 40
3 38 21 40
3 38 23 21
3 40 21 17
3 17 16 40
3 16 34 40
3 16 14 34
3 40 34 35
3 30 28 32
3 28 37 32
3 28 29 37
3 32 37 35
3 29 41 39
3 41 25 39
3 41 0 25
3 39 25 23
3 4 1 26
3 1 41 26
3 1 0 41
3 26 41 29
3 4 27 7
3 27 36 7
3 27 30 36
3 7 36 8

CELL_TYPES 80
5
5
5
5
5
5
5
5
5
5
5
5
5
5
5
5
5
5
5
5
5
5
5
5
5
5
5
5
5
5
5
5
5
5
5
5
5
5
5
5
5
5
5
5
5
5
5
5
5
5
5
5
5
5
5
5
5
5
5
5
5
5
5
5
5
5
5
5
5
5
5
5
5
5
5
5
5
5
5
5

CELL_DATA 80
SCALARS cell_data_0 double
LOOKUP_TABLE default
3.81738903875e-07
2.5542244301e-06
3.81741734225e-07
8.41682704728e-07
8.41645017957e-07
2.55420033045e-06
3.81722898263e-07
1.65793424219e-06
8.41662292204e-07
2.55420679809e-06
1.65795460287e-06
3.81722186019e-07
1.65795095767e-06
2.55419597482e-06
3.8171605032e-07
3.81738033589e-07
1.65793555096e-06
1.11465870491e-06
1.65794975078e-06
3.81707585375e-07
3.81739698028e-07
2.55419601701e-06
3.81725069446e-07
8.41668028648e-07
3.81743044524e-07
1.11464971578e-06
3.81718212237e-07
3.81718774126e-07
3.81762765475e-07
1.11462889057e-06
3.81741091291e-07
3.81712154103e-07
8.41668013211e-07
3.93106455671e-06
3.81768344313e-07
3.81723575923e-07
3.81747479989e-07
1.11463319553e-06
3.8173548755e-07
3.81710590746e-07
8.41675776021e-07
3.93103665259e-06
8.41643666436e-07
8.4166406968e-07
1.65793974919e-06
2.55418332798e-06
3.8176853427e-07
3.81727769305e-07
3.81747576722e-07
2.55415623865e-06
1.65791564262e-06
3.81771933403e-07
1.65795361614e-06
1.11463543275e-06
1.6579342015e-06
3.81726193201e-07
1.65793895942e-06
1.11462636033e-06
3.81753602221e-07
3.8171512954e-07
3.81752847343e-07
2.55415482549e-06
3.81742911059e-07
3.81721708053e-07
1.65795678448e-06
1.11463998543e-06
1.65795754013e-06
1.65793005099e-06
1.65794703228e-06
1.11460198698e-06
3.81748615667e-07
3.81746921257e-07
3.81749224826e-07
2.55419508512e-06
3.81736938667e-07
3.81738625526e-07
3.8173571781e-07
2.55417563014e-06
3.8174784282e-07
1.65792922505e-06

