# vtk DataFile Version 3.0
File Name: Molecule/sphere_excent/sphere_excent_0-s1.vtk
ASCII
DATASET UNSTRUCTURED_GRID
FIELD FieldData 1
TIME 1 1 double
0.0
POINTS 42 double
1.70130162 -1.05146222 0.0
1.61803399 -0.61803399 -1.0
2.0 0.0 0.0
1.61803399 0.61803399 -1.0
1.05146222 0.0 -1.70130162
1.70130162 1.05146222 0.0
1.0 1.61803399 -0.61803399
0.61803399 1.0 -1.61803399
0.0 1.70130162 -1.05146222
1.0 1.61803399 0.61803399
0.0 2.0 0.0
0.0 1.70130162 1.05146222
-1.0 1.61803399 0.61803399
-1.0 1.61803399 -0.61803399
-1.70130162 1.05146222 0.0
-0.61803399 1.0 1.61803399
-1.61803399 0.61803399 1.0
-1.05146222 0.0 1.70130162
0.61803399 1.0 1.61803399
0.0 0.0 2.0
1.05146222 0.0 1.70130162
-0.61803399 -1.0 1.61803399
0.61803399 -1.0 1.61803399
0.0 -1.70130162 1.05146222
1.61803399 -0.61803399 1.0
1.0 -1.61803399 0.61803399
0.61803399 -1.0 -1.61803399
0.0 0.0 -2.0
-0.61803399 -1.0 -1.61803399
0.0 -1.70130162 -1.05146222
-1.05146222 0.0 -1.70130162
1.61803399 0.61803399 1.0
-1.61803399 -0.61803399 -1.0
-1.61803399 0.61803399 -1.0
-2.0 0.0 0.0
-1.70130162 -1.05146222 0.0
-0.61803399 1.0 -1.61803399
-1.0 -1.61803399 -0.61803399
-1.0 -1.61803399 0.61803399
0.0 -2.0 0.0
-1.61803399 -0.61803399 1.0
1.0 -1.61803399 -0.61803399

CELLS 80 320
3 0 1 2
3 1 3 2
3 1 4 3
3 2 3 5
3 5 3 6
3 3 7 6
3 3 4 7
3 6 7 8
3 5 6 9
3 6 10 9
3 6 8 10
3 9 10 11
3 11 10 12
3 10 13 12
3 10 8 13
3 12 13 14
3 11 12 15
3 12 16 15
3 12 14 16
3 15 16 17
3 11 15 18
3 15 19 18
3 15 17 19
3 18 19 20
3 17 21 19
3 21 22 19
3 21 23 22
3 19 22 20
3 20 22 24
3 22 25 24
3 22 23 25
3 24 25 0
3 4 26 27
3 26 28 27
3 26 29 28
3 27 28 30
3 0 2 24
3 2 31 24
3 2 5 31
3 24 31 20
3 5 9 31
3 9 18 31
3 9 11 18
3 31 18 20
3 30 32 33
3 32 34 33
3 32 35 34
3 33 34 14
3 8 36 13
3 36 33 13
3 36 30 33
3 13 33 14
3 35 37 38
3 37 39 38
3 37 29 39
3 38 39 23
3 35 38 40
3 38 21 40
3 38 23 21
3 40 21 17
3 17 16 40
3 16 34 40
3 16 14 34
3 40 34 35
3 30 28 32
3 28 37 32
3 28 29 37
3 32 37 35
3 29 41 39
3 41 25 39
3 41 0 25
3 39 25 23
3 4 1 26
3 1 41 26
3 1 0 41
3 26 41 29
3 4 27 7
3 27 36 7
3 27 30 36
3 7 36 8

CELL_TYPES 80
5
5
5
5
5
5
5
5
5
5
5
5
5
5
5
5
5
5
5
5
5
5
5
5
5
5
5
5
5
5
5
5
5
5
5
5
5
5
5
5
5
5
5
5
5
5
5
5
5
5
5
5
5
5
5
5
5
5
5
5
5
5
5
5
5
5
5
5
5
5
5
5
5
5
5
5
5
5
5
5

CELL_DATA 80
SCALARS cell_data_0 double
LOOKUP_TABLE default
1.35943272641e-05
7.82296176192e-06
8.51647781927e-06
1.3174323209e-06
4.5645418633e-05
9.7970117804e-05
1.61731821116e-05
8.4043832894e-05
0.00010840848716
0.000260809298685
0.000131712860047
8.05441029348e-05
0.000271416458235
0.000599203177715
0.00014163381301
0.000377176691063
0.000184553343409
0.000376230098254
0.000309816745761
1.3552027807e-05
3.30636920406e-05
0.000120956669171
0.000100622934472
7.74034949947e-05
7.6377180646e-05
8.69906079999e-05
3.20613110449e-05
6.09002233789e-05
2.13182379441e-05
1.92485803485e-05
1.85097297075e-05
8.12166660052e-06
7.50103147356e-07
1.54223918842e-05
1.32498385826e-05
1.50922133337e-05
4.01542053502e-06
1.41432917594e-05
7.76081206889e-06
1.82244603781e-05
1.77580508047e-05
1.00780746753e-06
2.25290606689e-06
3.37403094483e-05
4.0608962457e-06
2.76161833501e-06
3.89682285909e-07
6.22830038222e-06
6.04792005936e-05
7.0853282011e-05
3.98711402957e-06
6.92890787937e-05
7.25883166065e-07
2.77597860155e-07
5.16551060262e-07
6.24623082887e-06
9.11407353451e-07
2.08642920351e-05
1.96745385929e-05
3.78353962859e-05
9.24913111331e-06
3.49610652143e-05
3.70858307236e-05
1.61295841573e-06
1.50549577642e-05
1.46238240156e-05
1.27356743026e-05
4.33475929873e-07
5.16550127113e-07
5.71611425666e-06
9.83109618687e-07
9.85287833787e-06
6.15584629959e-06
7.2710074869e-06
1.60839743322e-05
7.78413801308e-07
1.24613767798e-05
1.4398802683e-05
1.57946560428e-06
1.64391380435e-05

