# vtk DataFile Version 3.0
File Name: Molecule/sphere_excent/sphere_excent_0-s14.vtk
ASCII
DATASET UNSTRUCTURED_GRID
FIELD FieldData 1
TIME 1 1 double
0.0
POINTS 133 double
0.0028792773373 0.84923440218 0.52773445845
-0.49060794711 0.77352184057 0.39928936958
-0.33438667655 0.55606532097 0.76055121422
-0.32367238402 -0.57430332899 0.75209456682
0.0041022938676 -0.84883451462 0.52829378843
0.041595861316 -0.44452473521 0.89430397749
0.53530353308 -0.021844822913 0.84405469894
0.35523054004 -0.51908868551 0.77711594105
0.80680096149 -0.31098523736 0.50232356787
0.500259161 -0.80935645103 0.30727958679
0.84990173578 -0.52708417177 0.0056084441021
0.9952609539 -0.070819437504 0.064403645694
0.76057833433 0.29969578981 0.57381689548
0.51704949141 0.74144947529 0.42576867342
0.36794191599 0.53071147203 0.76184225082
-0.84115898609 -0.32368180156 -0.43288329244
-0.84735989571 -0.53090322018 0.0046684606932
-0.99585193396 -0.071637429297 0.042997535318
-0.5006788373 -0.80848836899 -0.30927988887
-0.49883332849 -0.81181412935 0.30329081416
-0.00025596225169 -0.99994677305 0.0032092090696
-0.018117114902 -0.87989652157 -0.47005668283
-0.80484622717 -0.31875190139 0.50059831142
-0.5913926959 -0.003262266051 0.80547714233
-0.82989752293 0.24439409375 0.49920880795
0.50553870201 -0.81074571609 -0.29424595833
0.80782496929 -0.39748424292 -0.43526896834
0.0011220931774 0.99987274408 0.0016709013144
-0.27728399634 0.94442528486 0.17631092668
-0.27439570427 0.94579511881 -0.17344123125
-0.53134649992 0.84702438116 -0.00096397520974
-0.47109690309 0.78299832344 -0.40442612767
0.008329898119 0.86305993795 -0.50172424316
0.27499350905 0.94864964485 -0.15637916327
0.28007471561 0.94225496054 0.18253670633
0.48350211978 0.87501388788 0.017380477861
0.48112756014 0.80459958315 -0.34611874819
0.59424960613 0.48383072019 -0.64219790697
0.40544086695 0.67882990837 -0.61180752516
0.65255570412 0.61554563046 -0.44070252776
0.95341527462 -0.18122808635 -0.24137671292
0.87036591768 -0.076100260019 -0.4865886569
0.96290892363 0.10743842274 -0.2465749234
0.52946352959 0.006429743953 -0.84858733416
0.42976027727 -0.2612002492 -0.86432361603
0.26907104254 0.010330194607 -0.96300107241
0.1236275062 -0.26550894976 -0.95589792728
0.28716865182 -0.54536604881 -0.78599226475
-0.047317881137 0.047305434942 -0.99739229679
0.68362885714 -0.20991382003 -0.69889503717
0.57248532772 -0.45921105146 -0.67878305912
0.41461017728 -0.70674920082 -0.57072794437
0.18834967911 0.46342036128 -0.86417847872
0.72076261044 0.33102789521 -0.60892796516
0.76311922073 0.46385741234 -0.44973349571
0.43987888098 0.45006009936 -0.77714002132
0.42312467098 0.23931869864 -0.87381374836
0.57871621847 0.28357648849 -0.76414138079
0.62069058418 0.10536362231 -0.77593439817
0.69426006079 0.17994989455 -0.69617390633
0.84053879976 0.15472860634 -0.5177347064
0.82686388493 0.32411283255 -0.45957306027
0.73856759071 -0.013862807304 -0.67273437977
-0.46642670035 0.27049723268 0.8412219882
-0.67195212841 0.54828095436 0.49655368924
0.0057444577105 0.53038859367 0.84760445356
-0.1682138294 0.30260241032 0.93704164028
-0.31614148617 -0.023289550096 0.9473875761
-0.44741770625 -0.26174423099 0.85483580828
-0.19452303648 -0.28646579385 0.93774539232
0.94141763449 0.14648911357 0.30316436291
0.96473324299 0.25902920961 0.049710467458
0.8578645587 0.43644472957 0.27100229263
0.84849792719 0.52899444103 -0.017044764012
-0.94902038574 0.11116666347 -0.29214990139
-0.71373707056 -0.11747680604 -0.68998908997
-0.77982211113 0.26251849532 -0.56729757786
-0.86574119329 0.4262009263 -0.26199918985
-0.95997494459 0.27966296673 0.0053358739242
-0.84383940697 0.53625756502 0.012856720015
-0.67081964016 0.55654966831 -0.48827520013
-0.46808260679 0.28188866377 -0.83632481098
-0.33452549577 0.52267193794 -0.78212141991
-0.71050238609 0.67572236061 -0.19601966441
-0.7035702467 0.6807937026 0.20282280445
-0.54185414314 0.051435649395 -0.83794349432
-0.42778256536 -0.28468737006 -0.85733300447
-0.59447473288 -0.43373787403 -0.67698305845
-0.30359017849 -0.52182596922 -0.79661166668
0.53556489944 0.83072882891 -0.15163223445
0.68479478359 0.70262032747 -0.19293606281
0.67842119932 0.73481762409 0.0020669242367
0.72046399117 0.66962832212 0.18008154631
0.54830741882 0.81513905525 0.18668700755
-0.84494262934 0.46258062124 0.26879140735
0.20087045431 -0.2529014349 0.94607299566
0.86283767223 0.42659240961 -0.27137392759
0.78253924847 0.56567656994 -0.25983333588
0.9020242095 0.26642560959 -0.33977031708
0.92956590652 0.33713051677 -0.14912000299
-0.12455891818 -0.0080559588969 0.99191194773
0.059136889875 -0.010931750759 0.99803525209
-0.035359233618 -0.1721227169 0.98381817341
0.11966421455 -0.73214536905 -0.66956073046
-0.14371091127 -0.72483599186 -0.67357611656
0.012778818607 -0.58998429775 -0.80691570044
-0.2001426816 0.28944224119 -0.93579310179
-0.31322184205 0.061882462353 -0.94733428955
-0.11295099556 -0.39237260818 -0.91168504953
-0.23318773508 -0.13833527267 -0.96204203367
-0.46171551943 -0.097838886082 -0.88163512945
0.47079581022 0.26921874285 0.83997642994
-0.1624032557 0.70948171616 -0.68543374538
-0.067115455866 0.52835100889 -0.84650295973
0.097557097673 0.68932425976 -0.71793210506
0.0071012498811 0.27732780576 0.96067863703
0.17097426951 0.27675938606 0.94548243284
-0.054790955037 0.13854944706 0.98882031441
0.1243903935 0.13279470801 0.98321980238
0.27765882015 0.38977262378 0.87806940079
-0.22304272652 0.13672694564 0.96506226063
0.34801802039 0.15121734142 0.92511934042
0.28213861585 -0.0037751866039 0.95929539204
-0.13736514747 -0.55136030912 -0.82282149792
0.056042633951 -0.4440523684 -0.89413642883
0.24680916965 -0.87942194939 -0.40503695607
0.76852744818 0.16299399734 -0.61868554354
0.79243689775 0.072166666389 -0.60533976555
0.71808069944 0.083961345255 -0.69075375795
0.64810705185 0.0042207483202 -0.76136034727
0.21633410454 -0.65763396025 -0.72062236071
0.071892671287 -0.81661498547 -0.57245337963
0.31449317932 -0.80050945282 -0.50962358713

CELLS 262 1048
3 0 1 2
3 3 4 5
3 6 7 8
3 7 9 8
3 7 4 9
3 8 9 10
3 10 11 8
3 8 12 6
3 13 14 12
3 13 0 14
3 15 16 17
3 16 18 19
3 18 20 19
3 18 21 20
3 19 20 4
3 16 19 22
3 19 3 22
3 19 4 3
3 23 24 22
3 24 17 22
3 22 17 16
3 15 18 16
3 25 9 20
3 25 10 9
3 20 9 4
3 26 10 25
3 27 28 0
3 0 28 1
3 27 29 28
3 29 30 28
3 29 31 30
3 28 30 1
3 31 29 32
3 32 29 27
3 33 34 35
3 33 27 34
3 27 33 32
3 32 33 36
3 13 34 0
3 34 27 0
3 37 38 39
3 39 38 36
3 36 38 32
3 26 40 10
3 10 40 11
3 26 41 40
3 41 42 40
3 40 42 11
3 43 44 45
3 44 46 45
3 44 47 46
3 45 46 48
3 43 49 44
3 49 50 44
3 49 26 50
3 44 50 47
3 50 26 51
3 45 48 52
3 26 49 41
3 53 37 54
3 37 55 38
3 55 52 38
3 52 55 56
3 55 57 56
3 55 37 57
3 43 56 58
3 57 53 59
3 57 37 53
3 41 60 42
3 61 60 53
3 52 56 45
3 45 56 43
3 49 62 41
3 23 63 24
3 24 63 64
3 2 65 0
3 0 65 14
3 2 66 65
3 2 63 66
3 63 23 67
3 23 68 67
3 68 69 67
3 68 3 69
3 3 68 22
3 22 68 23
3 11 70 8
3 70 12 8
3 11 71 70
3 71 72 70
3 71 73 72
3 70 72 12
3 12 72 13
3 17 74 15
3 15 74 75
3 76 74 77
3 74 78 77
3 74 17 78
3 77 78 79
3 76 80 81
3 82 80 31
3 31 80 83
3 80 77 83
3 80 76 77
3 83 77 79
3 24 78 17
3 31 83 30
3 30 83 84
3 42 71 11
3 85 75 76
3 76 75 74
3 86 87 75
3 86 88 87
3 75 87 15
3 15 87 18
3 18 87 88
3 36 89 90
3 89 91 90
3 89 35 91
3 90 91 73
3 73 91 92
3 91 93 92
3 91 35 93
3 92 93 13
3 35 89 33
3 33 89 36
3 13 93 34
3 34 93 35
3 36 90 39
3 73 92 72
3 72 92 13
3 1 64 2
3 2 64 63
3 1 84 64
3 84 94 64
3 84 79 94
3 64 94 24
3 95 7 6
3 79 84 83
3 30 84 1
3 61 54 96
3 54 97 96
3 54 39 97
3 96 97 73
3 42 98 99
3 98 96 99
3 98 61 96
3 99 96 73
3 39 54 37
3 53 54 61
3 61 98 60
3 60 98 42
3 67 69 100
3 101 102 95
3 102 5 95
3 102 69 5
3 95 5 7
3 7 5 4
3 5 69 3
3 24 94 78
3 78 94 79
3 42 99 71
3 71 99 73
3 73 97 90
3 90 97 39
3 103 104 105
3 82 81 80
3 81 85 76
3 88 104 18
3 104 21 18
3 48 106 52
3 48 107 106
3 107 81 106
3 107 85 81
3 106 81 82
3 88 86 108
3 46 109 48
3 48 109 107
3 109 110 107
3 109 86 110
3 107 110 85
3 85 110 75
3 110 86 75
3 14 111 12
3 12 111 6
3 32 112 31
3 112 82 31
3 52 113 114
3 113 112 114
3 113 82 112
3 114 112 32
3 52 114 38
3 38 114 32
3 66 115 65
3 115 116 65
3 66 117 115
3 117 118 115
3 117 101 118
3 115 118 116
3 116 119 65
3 65 119 14
3 67 120 63
3 63 120 66
3 66 120 117
3 120 100 117
3 120 67 100
3 117 100 101
3 14 119 111
3 119 121 111
3 119 116 121
3 111 121 6
3 116 118 121
3 118 122 121
3 118 101 122
3 121 122 6
3 46 108 109
3 109 108 86
3 6 122 95
3 95 122 101
3 101 100 102
3 102 100 69
3 88 123 104
3 104 123 105
3 82 113 106
3 106 113 52
3 105 124 47
3 47 124 46
3 46 124 108
3 105 123 124
3 108 124 123
3 108 123 88
3 21 125 20
3 125 25 20
3 25 51 26
3 50 51 47
3 59 58 57
3 57 58 56
3 60 126 53
3 53 126 59
3 60 127 126
3 127 128 126
3 127 62 128
3 126 128 59
3 62 127 41
3 41 127 60
3 59 128 58
3 128 129 58
3 128 62 129
3 58 129 43
3 43 129 49
3 129 62 49
3 47 130 105
3 130 103 105
3 103 131 104
3 131 21 104
3 21 131 125
3 131 132 125
3 131 103 132
3 125 132 25
3 25 132 51
3 132 130 51
3 132 103 130
3 51 130 47

CELL_TYPES 262
5
5
5
5
5
5
5
5
5
5
5
5
5
5
5
5
5
5
5
5
5
5
5
5
5
5
5
5
5
5
5
5
5
5
5
5
5
5
5
5
5
5
5
5
5
5
5
5
5
5
5
5
5
5
5
5
5
5
5
5
5
5
5
5
5
5
5
5
5
5
5
5
5
5
5
5
5
5
5
5
5
5
5
5
5
5
5
5
5
5
5
5
5
5
5
5
5
5
5
5
5
5
5
5
5
5
5
5
5
5
5
5
5
5
5
5
5
5
5
5
5
5
5
5
5
5
5
5
5
5
5
5
5
5
5
5
5
5
5
5
5
5
5
5
5
5
5
5
5
5
5
5
5
5
5
5
5
5
5
5
5
5
5
5
5
5
5
5
5
5
5
5
5
5
5
5
5
5
5
5
5
5
5
5
5
5
5
5
5
5
5
5
5
5
5
5
5
5
5
5
5
5
5
5
5
5
5
5
5
5
5
5
5
5
5
5
5
5
5
5
5
5
5
5
5
5
5
5
5
5
5
5
5
5
5
5
5
5
5
5
5
5
5
5
5
5
5
5
5
5
5
5
5
5
5
5
5
5
5
5
5
5

CELL_DATA 262
SCALARS cell_data_0 double
LOOKUP_TABLE default
3.1721341169e-05
5.26358776221e-05
6.73262456884e-05
4.38002955665e-05
3.85530525372e-05
1.51144738701e-05
1.7484698504e-06
5.14602263157e-05
2.53217024482e-05
1.16125961184e-05
1.37127687541e-06
9.90405057732e-06
1.45032805928e-05
4.33322401011e-05
1.54555205029e-05
1.94388801331e-05
3.88109032095e-05
3.39121866962e-05
3.50082091217e-06
1.72084288328e-05
1.09203317539e-05
3.5597241912e-07
1.00111927264e-05
3.79070415588e-06
8.01496468369e-06
2.28743233175e-05
6.66260753234e-06
8.25040471498e-06
3.19130837035e-06
3.64557344166e-06
1.82920949884e-06
4.65516023661e-06
3.45873377482e-05
2.54425343237e-05
3.05010387321e-06
3.62922262367e-06
2.42365456194e-05
2.58560689416e-05
1.41879035274e-05
8.05707460128e-06
5.183229657e-07
6.15161079233e-07
3.01929273105e-05
1.38275999769e-05
4.53459733105e-06
7.06252611118e-06
1.23319761119e-06
1.78048609674e-06
2.46689172194e-05
7.18468725894e-07
1.9525076167e-06
2.31814180156e-06
2.41151802771e-05
2.66080635223e-07
8.84320516021e-06
1.55382464631e-06
9.54525936609e-06
7.40999667529e-06
8.86787527324e-06
7.71511610643e-07
1.23974421548e-07
1.87032247004e-06
2.12632912027e-06
4.54302908567e-07
1.84147985383e-07
1.24541924573e-05
1.06620287561e-05
3.26226503396e-08
3.13254073156e-06
1.29827325486e-05
2.75620282376e-06
2.11761923349e-05
1.73414240297e-05
5.72075685689e-05
1.62894018634e-05
1.69349714892e-05
3.5895348444e-05
2.72462148823e-05
2.78438161091e-05
1.85288063518e-05
3.68071096832e-05
2.99400353252e-05
2.84803028957e-05
3.75681311338e-05
3.16349872749e-05
5.83542400826e-06
2.16590385929e-05
3.15610657018e-07
3.94737259396e-06
2.96597789473e-07
8.16945039509e-06
1.63650816378e-05
2.23075587233e-07
7.82198856846e-08
2.17327026812e-06
5.30022073752e-07
6.5628039796e-07
2.03447596357e-06
6.59630559007e-06
6.36698285298e-06
2.46771785394e-06
7.01602358131e-07
4.77722566664e-06
1.28895129194e-06
1.78234708853e-06
1.1900299421e-06
3.49898769576e-06
1.32859243022e-06
5.67205089071e-05
2.57295065662e-06
8.48737218619e-07
1.44853225063e-06
1.95514730703e-06
1.65010236216e-06
1.61967429986e-06
1.3308284341e-07
5.61361869109e-07
9.25745005241e-07
8.57826893313e-07
6.91687258803e-08
1.91595688941e-06
1.86473042812e-06
3.43973796121e-06
9.40036182734e-07
1.20899003784e-09
4.77302161676e-06
2.5105240005e-06
1.10893106701e-06
8.87943661572e-07
6.19190600875e-06
1.66443419481e-05
2.30021222535e-05
5.37617906294e-06
5.00020478562e-06
7.58498562896e-07
5.01513699881e-06
6.08331046116e-05
2.60969454246e-07
4.06082461665e-06
1.18261797012e-05
2.82303999508e-05
2.81305061479e-05
4.06133654081e-05
3.28262312103e-07
7.16301973062e-07
8.85844191317e-06
4.13525987517e-06
5.12230258512e-07
8.52786814324e-06
1.13134296102e-05
2.50224324319e-06
4.55237012326e-05
2.70152259935e-05
2.32849529092e-05
2.17480403455e-05
2.52251633209e-05
4.99592570862e-05
3.41559121606e-05
7.52875641726e-07
7.4327353901e-07
1.07839791377e-06
2.32295200949e-06
3.76400437913e-05
2.42110083351e-05
0.000288081536216
3.36606867691e-06
5.13097039785e-05
0.000133468399034
0.000206604629889
6.76427799046e-06
1.80212352559e-06
4.2266478963e-07
2.63725833277e-05
1.04120449995e-06
5.6152566946e-05
2.03665472337e-06
1.28427096421e-06
3.63102521289e-08
1.32049965424e-08
1.70244288999e-05
2.10886951094e-05
7.88944153396e-08
3.21970488701e-05
3.027534854e-05
3.24152236459e-05
2.39202039024e-06
2.39635361211e-05
1.79048865081e-05
2.70150823855e-07
5.08278100771e-05
3.43685959767e-05
7.07881578439e-05
2.81576734357e-05
2.35566592597e-05
1.86816829402e-05
6.66864149188e-06
1.30793655876e-05
1.94624627099e-05
2.6616345447e-05
3.5790932611e-05
2.49317481378e-05
1.52246490225e-06
2.46233061637e-05
2.30364422995e-05
1.94492799755e-05
2.84431075706e-05
9.06236343315e-06
7.02410052692e-06
1.79937775786e-05
2.09705338246e-05
2.20210505563e-05
2.62273925691e-05
2.7159563743e-05
1.0441399094e-05
5.99174430587e-05
5.65747543776e-05
4.51007832255e-05
4.6272513652e-05
3.06232819918e-05
3.40390260855e-05
8.43690407599e-05
0.000164479730013
7.77243643945e-07
1.74147251527e-06
0.000126995499232
4.43337241589e-05
7.8572812187e-05
0.000121230510359
0.000124891381573
6.15100741544e-05
2.32364665707e-05
2.91266571765e-06
1.32368599925e-05
4.91642460964e-07
8.36583316884e-06
4.36023391316e-07
1.35138908398e-06
6.53305925551e-06
7.40141350936e-07
2.29811558675e-10
4.07649171156e-06
3.67623532556e-06
9.02182349228e-06
1.55989503932e-06
4.64482904282e-06
6.13892020225e-08
4.50132781416e-06
4.61494811113e-06
9.18945622991e-06
9.75303511877e-06
3.92831428501e-05
8.60039281539e-05
9.37245119425e-05
5.83028416351e-05
7.971088633e-06
2.07627885965e-07
3.29839312204e-05
3.19267374433e-07
2.75360765797e-07
1.54425555426e-07
3.33227691103e-05
2.87380283635e-07

