# vtk DataFile Version 3.0
File Name: Molecule/sphere_excent/sphere_excent_0-s60.vtk
ASCII
DATASET UNSTRUCTURED_GRID
FIELD FieldData 1
TIME 1 1 double
0.0
POINTS 1553 double
0.4001802206 -0.45512071252 -0.79544657469
0.48600637913 -0.49393785 -0.72079890966
0.37778013945 -0.58963096142 -0.71386998892
0.80523407459 0.19173170626 -0.56110399961
0.8677265048 0.14798216522 -0.4744374454
0.82712525129 0.097302153707 -0.55256736279
0.86767154932 -0.067882925272 -0.49240240455
0.83555215597 -0.022728614509 -0.54846513271
0.87460893393 0.038694120944 -0.4831930697
-0.25410431623 -0.87430918217 -0.41353905201
-0.14881943166 -0.87720012665 -0.45648285747
-0.17538130283 -0.91894769669 -0.35325422883
0.59378969669 -0.12956640124 0.79408580065
0.54460096359 -0.33218932152 0.76937764883
0.6720238328 -0.23639281094 0.70177292824
0.91959536076 0.12664584816 0.3718778193
0.87976300716 0.055867660791 0.47208917141
0.94741213322 0.035666406155 0.31796756387
0.64127290249 0.42037034035 0.64164704084
0.58956128359 0.31947812438 0.7417781353
0.72300195694 0.27598771453 0.6331641674
0.10815631598 -0.27035430074 -0.9566630125
0.10878699273 -0.36927720904 -0.92293006182
0.011625254527 -0.30226278305 -0.95314377546
-0.18761360645 -0.38106018305 -0.90530776978
-0.12717851996 -0.45454022288 -0.88159412146
-0.21510390937 -0.44809576869 -0.86771768332
-0.19834896922 -0.515160501 -0.83381325006
-0.13298812509 -0.62162005901 -0.77195674181
-0.20378066599 -0.58637112379 -0.78399497271
-0.097317695618 -0.54742175341 -0.83116179705
0.013248991221 -0.52872097492 -0.84865021706
-0.0029326602817 -0.59321051836 -0.80500626564
0.84628969431 0.48126149178 0.22839710116
0.87569105625 0.46707898378 0.1223038137
0.81315529346 0.56134533882 0.15398570895
0.88507908583 0.34740936756 -0.30971434712
0.89203798771 0.38581612706 -0.23543049395
0.925137043 0.30248102546 -0.22938814759
0.85025948286 0.4322912693 -0.3003372848
0.84052532911 0.24194391072 -0.48474535346
-0.33133420348 -0.35571861267 -0.87388306856
-0.25752106309 -0.31282636523 -0.91423606873
-0.27508738637 -0.40436634421 -0.87224310637
-0.35584834218 -0.28289341927 -0.89068728685
0.013307240792 -0.38075181842 -0.92457824945
-0.44718301296 0.63271969557 -0.63220816851
-0.35600227118 0.67044985294 -0.65094769001
-0.3812866807 0.58730828762 -0.7139171958
-0.27561321855 0.61834001541 -0.73599606752
-0.26232227683 0.70362854004 -0.66036319733
-0.6096034646 0.031586732715 -0.7920691967
-0.68454509974 -0.032903589308 -0.72818803787
-0.68736600876 0.086359597743 -0.72116339207
-0.60638773441 0.1333065927 -0.78390932083
-0.53801327944 0.095020629466 -0.83744102716
-0.15873382986 -0.13437373936 -0.9781357646
-0.13323587179 -0.046391550452 -0.99000197649
-0.063169591129 -0.12330984324 -0.9903537631
-0.28802070022 -0.22511875629 -0.9307820797
-0.19023123384 -0.22409319878 -0.95581102371
-0.24814835191 -0.1511413157 -0.95685786009
-0.20901705325 0.55570822954 -0.80466681719
-0.3164537847 0.52355390787 -0.791043818
-0.28982329369 0.41331848502 -0.86322546005
-0.37410217524 0.43770748377 -0.8175971508
-0.075896494091 0.56055814028 -0.82462275028
-0.15533663332 0.62150782347 -0.76785743237
-0.31237009168 0.077197045088 -0.94681483507
-0.25047656894 0.15317164361 -0.95592826605
-0.23517106473 0.063768319786 -0.96986109018
-0.35260850191 -0.58106857538 0.73347175121
-0.30753466487 -0.48404142261 0.81917470694
-0.46605575085 -0.41714334488 0.78018665314
0.11223648489 -0.0064420462586 0.99366021156
0.054337572306 -0.096044279635 0.99388748407
0.14777122438 -0.09240141511 0.98468905687
-0.16547892988 -0.51634275913 0.84027087688
-0.20127615333 -0.62699323893 0.75255060196
-0.26165807247 -0.39768850803 0.87932771444
-0.50297349691 0.22573618591 0.83441656828
-0.50564301014 0.031443193555 0.86212599277
-0.40985748172 0.13646103442 0.90190422535
-0.38714039326 0.011726081371 0.92160898447
-0.6122558713 0.11231525242 0.78264629841
-0.36355239153 0.290294379 0.88518959284
-0.62155020237 0.30417567492 0.72183287144
-0.47113955021 0.39367416501 0.78928273916
-0.47397127748 -0.12431530654 0.87118244171
-0.62481838465 -0.10750734806 0.77331644297
0.28273874521 -0.38153669238 0.87979739904
0.3793105185 -0.46234697104 0.80026626587
0.39898705482 -0.30902457237 0.86329269409
0.24844965339 -0.50969362259 0.82363903522
0.30357062817 -0.63213050365 0.71290761232
0.12489362806 -0.60194808245 0.78859496117
0.18513704836 -0.42624312639 0.88542795181
0.41017207503 0.049345936626 -0.91063684225
0.50678610802 0.098380476236 -0.85635358095
0.48860400915 -0.017281051725 -0.8721383214
0.14282798767 -0.45371946692 -0.87960153818
0.21155259013 -0.39820569754 -0.89254754782
0.21475996077 -0.47517672181 -0.85307300091
0.30105140805 -0.53264945745 -0.79095387459
0.28080871701 -0.4631421864 -0.84055972099
0.59848147631 0.1182552129 -0.79205024242
0.58887380362 0.21853497624 -0.77811032534
0.6816906333 0.15469786525 -0.7150863409
0.520842731 0.1881518662 -0.83239865303
0.24446384609 -0.60815268755 -0.7551586628
-0.12532760203 -0.75416600704 -0.64461475611
-0.13682855666 -0.68963980675 -0.7111068368
-0.059745203704 -0.70420348644 -0.70746803284
0.04711791873 -0.44930797815 -0.89213955402
0.10753665119 -0.69481468201 -0.71109366417
0.13665047288 -0.6337608099 -0.76136207581
0.18944229186 -0.68071991205 -0.70760303736
-0.028842629865 -0.80118829012 -0.5976908803
-0.15153740346 -0.8143850565 -0.56018966436
0.37028989196 0.48603227735 -0.79160326719
0.37784910202 0.36308053136 -0.85167193413
0.30594038963 0.44626528025 -0.84089291096
-0.23780214787 -0.76407015324 -0.59970492125
-0.21521556377 -0.70528781414 -0.67546850443
-0.30898073316 -0.69709682465 -0.64698398113
-0.35182374716 -0.75268882513 -0.55647236109
-0.27070364356 -0.63885986805 -0.72012299299
-0.40244591236 -0.67231696844 -0.62131220102
-0.36289861798 -0.61646848917 -0.69877159595
-0.47941198945 -0.59488320351 -0.64518350363
-0.48202314973 -0.68440765142 -0.54704046249
-0.29376530647 -0.56465554237 -0.77127075195
-0.38686394691 -0.52391082048 -0.75884187222
-0.25042545795 -0.82313293219 -0.50963819027
-0.19300034642 -0.64971208572 -0.73527294397
-0.41716119647 0.57356673479 0.70491570234
-0.5708937645 0.46886283159 0.67379105091
-0.52397084236 0.58829206228 -0.6159517765
-0.50875610113 0.66364127398 -0.54842215776
-0.53675591946 0.18353368342 -0.82352745533
-0.58920061588 0.21984855831 -0.77750968933
-0.52994084358 0.27047264576 -0.80374473333
-0.60193872452 0.30188301206 -0.73927080631
0.77563965321 0.066153280437 0.62771236897
0.69019889832 -0.027449002489 0.72305101156
0.76398152113 -0.12211672217 0.63356208801
0.66815721989 0.15940278769 0.72670555115
-0.90420508385 0.10106225312 0.4149273634
-0.79755616188 0.23900136352 0.55376440287
-0.87506008148 0.28354167938 0.39218166471
-0.71342182159 0.37888073921 0.58925133944
-0.71823894978 0.16592484713 0.67515563965
-0.62699133158 0.3752745986 -0.68268090487
-0.69321727753 0.27890312672 -0.66457569599
-0.66031301022 0.19802504778 -0.72440701723
-0.41669416428 0.50413411856 -0.75644642115
-0.47448316216 0.5507786274 -0.6866902709
-0.50055199862 0.475887537 -0.72317773104
-0.56668764353 0.48666259646 -0.66483002901
-0.46557283401 0.42728886008 -0.77502000332
-0.43075403571 0.37572905421 -0.82053124905
-0.51127499342 0.35067343712 -0.78460866213
-0.55238038301 0.40385332704 -0.7292316556
-0.46105358005 0.30905005336 -0.83182537556
-0.47963434458 0.23541760445 -0.84529471397
-0.64452683926 0.43769839406 -0.62690657377
-0.41961699724 0.26736840606 -0.86742061377
-0.36096295714 0.33388492465 -0.8707600832
-0.9315148592 -0.35742813349 -0.067392863333
-0.89014172554 -0.44166046381 0.1122853905
-0.94322067499 -0.29221698642 0.15810064971
0.71500986814 0.34065377712 -0.61049550772
0.64430314302 0.40680366755 -0.6476085186
0.69646471739 0.41638383269 -0.58442103863
0.3943836391 -0.046943832189 -0.91773861647
0.29759883881 0.0070772375911 -0.95466387272
0.31804868579 0.12180748582 -0.94021242857
0.41641065478 0.13397939503 -0.89925217628
-0.11770995706 0.6473171711 0.75305986404
0.032655481249 0.71807408333 0.69519907236
-0.11721116304 0.7585439682 0.64103329182
0.0092373145744 0.60073721409 0.79942643642
0.018877534196 0.82808321714 0.56018763781
0.17287042737 0.76429080963 0.62118822336
0.18544912338 0.63065499067 0.75363200903
-0.26451146603 0.56462746859 0.78177452087
-0.24756319821 0.66083753109 0.70856684446
-0.14085148275 0.52720665932 0.83798992634
0.083039775491 -0.86949557066 -0.48682650924
0.10663281381 -0.81531691551 -0.56899052858
0.17621970177 -0.85155510902 -0.49359360337
0.2529116869 -0.81232094765 -0.52547925711
0.19670242071 -0.78247147799 -0.59062951803
0.26033985615 -0.85514831543 -0.44825264812
0.14882706106 -0.74397373199 -0.65140855312
0.060572348535 -0.75794225931 -0.64948570728
-0.73469603062 0.16649329662 -0.6576461792
-0.77480196953 0.077960379422 -0.62733197212
-0.82391178608 0.14475555718 -0.54789990187
0.40047830343 0.55277210474 -0.73078072071
0.46755936742 0.48651337624 -0.73804539442
0.31526359916 0.23052589595 -0.92049235106
0.30324313045 0.31467410922 -0.89937251806
0.37353289127 0.26832199097 -0.88787931204
0.20788308978 0.096583023667 -0.97336471081
0.22988148034 0.19441767037 -0.95354896784
0.13020403683 0.17022325099 -0.97676187754
0.034875545651 0.40886282921 -0.91191899776
0.13397017121 0.39610669017 -0.90837466717
0.10079281032 0.32496789098 -0.94032382965
0.43994063139 0.42072352767 -0.79337447882
0.46928837895 0.34479522705 -0.81295907497
0.51382672787 0.40431296825 -0.75664514303
0.43729910254 0.28424108028 -0.8531550169
0.54621976614 0.32457607985 -0.7721901536
0.59202384949 0.37293279171 -0.71444123983
0.61071920395 0.29763832688 -0.73378056288
0.50814783573 0.26940786839 -0.81803542376
0.66212677956 0.32231554389 -0.67653560638
0.55626839399 0.44675156474 -0.70070397854
0.68157666922 -0.26165026426 -0.68334662914
0.63444828987 -0.37658908963 -0.67499262094
0.57978105545 -0.31108668447 -0.75308310986
0.52259171009 -0.40309849381 -0.75126820803
0.57026618719 -0.47482132912 -0.67024958134
[...]
CELL_DATA 3102
SCALARS cell_data_0 double
LOOKUP_TABLE default
6.6697735693e-07
4.71354554389e-08
6.92435329849e-08
4.86386349531e-08
7.34989370411e-06
3.61241574003e-06
3.43550682978e-06
4.38855551134e-08
2.73425617043e-08
4.70540704232e-08
6.63598506703e-10
7.32729169667e-09
9.31180083869e-06
2.03231419234e-07
1.32135613745e-06
1.41447767589e-06
1.77001377774e-06
1.22889050777e-06
5.05650912846e-08
1.97976775625e-06
6.95484676381e-08
2.27399090857e-08
6.31167279858e-07
4.49795582175e-08
2.05708237697e-09
2.07386922366e-06
2.09618685786e-06
2.53128816234e-06
2.66585433391e-06
1.15430556275e-06
1.23664167052e-06
1.90066244175e-07
7.23019025364e-06
2.41078120917e-06
4.1150938535e-06
6.6340864418e-06
3.53440738356e-06
5.21205194566e-06
4.04061409927e-06
5.46397312595e-06
5.0330390766e-06
5.40760867698e-06
5.51548848507e-06
5.90062801853e-06
6.19328394548e-06
4.27805895592e-06
4.42053521274e-06
4.68387126189e-06
3.29757830361e-06
4.23817258093e-06
2.53194462066e-07
2.07016456878e-07
1.20380838761e-07
7.80992989457e-08
2.36990321253e-07
7.90083085419e-07
1.59523385556e-06
1.96143206881e-06
1.67069732034e-07
1.76544292812e-06
3.17583469568e-07
1.19934247238e-07
8.26968463512e-08
1.82059991866e-07
2.81732236716e-07
4.37075412528e-07
6.34888416454e-07
1.0541842529e-06
9.14686688203e-07
9.71263321024e-07
2.76933615048e-07
5.37238089134e-07
6.4572878053e-07
1.03574156752e-06
8.2000856293e-07
3.97734909101e-07
2.69455855828e-07
4.47292925003e-07
3.85538140634e-07
1.2223899191e-07
3.87551726054e-07
1.56603448456e-08
1.52877350046e-07
4.75218897122e-06
2.70260855964e-06
1.41686231117e-07
1.60186901695e-06
1.30735979043e-06
1.77159179579e-06
7.1915806179e-07
4.18090236621e-06
4.8167173139e-06
4.90827098055e-06
3.95771897101e-06
5.91261013259e-06
5.45815119855e-06
3.08661602707e-06
4.65315680438e-06
4.31548020212e-06
4.57336545065e-06
1.51815055583e-06
2.21625263641e-07
1.85500314162e-07
2.2055799273e-06
1.03579488892e-07
1.43430723147e-07
2.06695331336e-06
2.82657848519e-07
2.38433002545e-07
1.58234401044e-06
2.47216368274e-06
5.19761680135e-07
5.16478442244e-07
3.22951969851e-07
5.46238352738e-07
3.48653393602e-06
4.01135561647e-06
2.92241695062e-06
1.67362412783e-06
2.04985358342e-06
1.57074492172e-06
8.1941668243e-07
3.05450662687e-06
3.71517114837e-06
3.2623785121e-06
1.5370582425e-06
1.2020400706e-06
1.61834583052e-06
3.24412938018e-07
2.3887179285e-07
9.18138944352e-07
2.80351673124e-09
2.27977090543e-07
1.29397050405e-07
8.30657695146e-08
2.42403773327e-07
4.85971416786e-06
3.4969006486e-06
3.53581588502e-06
2.63991548161e-06
4.85609280344e-06
4.39295213288e-06
1.96346093502e-06
4.20624418136e-06
4.17125773988e-06
2.79731834395e-07
2.28503486476e-07
1.16637088585e-07
2.39659395754e-07
7.09384033844e-07
6.73310505114e-07
2.66698694741e-06
6.38703977966e-07
7.84009259687e-07
3.57815737488e-06
7.44871702517e-07
1.77210568508e-07
1.60753805055e-06
1.49302012232e-06
1.21516527639e-06
1.07449664093e-07
7.05531839985e-07
3.17980447639e-07
4.68197159579e-07
3.9713511416e-07
3.98946131466e-07
1.8642864529e-07
1.65434076139e-07
5.70521820577e-08
1.60542294337e-07
7.37473376821e-08
1.5464255585e-07
1.43474521299e-07
1.05958918749e-06
7.40004349734e-07
1.0048357989e-06
9.91667353376e-08
7.57762292055e-09
8.4687668701e-07
4.09405850422e-07
6.11906406301e-07
9.01263539868e-07
1.0272857395e-07
6.77645002226e-07
4.74343447887e-07
3.48255396989e-06
2.16773241508e-07
1.06989683701e-07
8.65777896993e-08
1.32599328106e-06
1.696512726e-06
1.69178598754e-06
2.66429415218e-06
1.63766294399e-05
1.90636273945e-05
3.33142243149e-07
7.97933976357e-06
4.50642719275e-06
5.08017447353e-06
9.34453261356e-06
9.50944521877e-06
5.92731965306e-06
2.88087126199e-06
2.0265110164e-06
6.63141109742e-08
3.39148351395e-07
3.12014946327e-07
3.52086768024e-07
2.6346049191e-07
2.87858228128e-08
4.4608340866e-07
1.46661931976e-07
1.16845704271e-06
1.5808071463e-06
9.37711731835e-11
3.59623140877e-08
1.88497916246e-06
1.54637479298e-07
1.0296913202e-05
4.92233218325e-07
2.76013659843e-08
5.00108347683e-06
1.82460027071e-06
2.21463153805e-06
6.47663712783e-06
5.83858283624e-07
7.46428022543e-06
1.7362210532e-07
1.52760890555e-07
1.3973378384e-07
5.60862227057e-07
1.04173018699e-06
8.26390513207e-06
4.68767379594e-06
6.494737769e-06
4.34566215084e-06
4.21460909093e-06
8.30586721561e-06
2.1504478372e-06
2.77191115463e-06
1.35147174634e-07
1.70425744575e-07
1.74825794855e-06
2.69482008976e-08
3.02948114616e-06
4.13896074359e-08
6.21746543057e-06
6.4414851435e-06
1.1688749313e-08
1.66253822846e-07
6.77808780999e-06
7.18653991288e-07
4.45328177025e-07
1.44076794677e-08
3.08436367312e-08
5.3729595151e-08
3.45780597843e-08
8.79013441876e-07
8.55401357221e-08
2.22754319079e-06
1.64971262878e-08
2.06422355042e-08
3.06235246535e-08
1.85573742618e-07
3.99594194278e-07
3.35491436689e-07
6.46867036695e-07
2.54826522475e-07
3.29508700682e-06
2.88813053561e-07
1.03269256644e-07
8.24915672664e-07
1.08240550953e-06
1.21115049329e-06
1.41202732068e-08
2.88612469842e-07
4.5765386747e-06
3.98435445761e-06
3.79762522443e-06
3.67997564498e-06
3.74734158371e-08
3.94913383451e-07
9.71220698656e-09
7.56020345467e-09
1.04148962906e-08
1.77173448514e-08
1.54537117386e-08
3.48132176665e-08
2.22267907026e-08
1.99589637475e-08
1.86047069514e-08
1.90008771178e-08
1.92363805807e-08
2.50782767397e-08
2.44531434436e-08
4.2273825031e-08
5.04105540965e-08
3.67202968902e-08
5.75843516997e-08
3.87239009656e-08
1.12811679524e-07
1.63647122097e-06
1.9454864262e-06
3.99349760151e-06
3.53647320109e-06
3.44053033622e-06
3.801764014e-06
2.78720773235e-06
2.85227439178e-06
3.57667478245e-06
2.55143538492e-06
1.46992316168e-06
1.68305392518e-06
1.32903656217e-06
2.32366634209e-06
4.23435479745e-06
2.08141516563e-08
2.05091350871e-07
5.14777565197e-08
1.21487749447e-08
9.45064582283e-07
3.49589377079e-06
5.11249938037e-07
1.10684052498e-06
1.02603514599e-06
5.44825872922e-07
8.98625283621e-07
3.75071764463e-08
1.17581292933e-07
3.42207359074e-07
1.58948173755e-07
5.86217448734e-06
7.11015051859e-07
1.54901392067e-07
1.52267284079e-07
2.66526745151e-07
1.8645844896e-07
1.90830439502e-07
2.31265008507e-07
3.37769007955e-07
2.51006825874e-07
2.61507964273e-07
1.17962384193e-07
1.41438692853e-07
3.07601783082e-07
2.95382319519e-07
2.8251843909e-07
7.21659458334e-08
4.55743022247e-07
5.56302017382e-07
2.96338068052e-07
3.11451498162e-07
2.97488663902e-07
3.71392654282e-07
1.88404558439e-07
3.45014490376e-07
1.02079797335e-07
1.44535673556e-07
7.74836375128e-08
1.38306943249e-06
1.40535658169e-07
1.5384119143e-07
6.21488554817e-08
1.37789460227e-07
7.27368515359e-08
1.01502866218e-07
3.61361786407e-08
1.38362124304e-07
1.43211237254e-07
1.25600423746e-07
4.45957276977e-08
1.09170740485e-07
1.86904916536e-08
2.40661082404e-08
4.60661621069e-08
2.94885671847e-08
5.54269668506e-07
4.25862132754e-08
6.03063603687e-08
8.20941105339e-08
8.06724033611e-07
5.16532793179e-06
5.85005879701e-06
3.87867040088e-06
5.1611330393e-06
2.13943739905e-07
2.84190944286e-07
4.39531907852e-07
2.11663463222e-07
3.27374721824e-07
3.28095338057e-07
6.90802905541e-07
3.41847298647e-07
3.46702001202e-07
1.22817659397e-07
2.41337395286e-07
2.07128578179e-07
7.75823501171e-09
1.38192942718e-08
1.87260144615e-08
1.09225191017e-07
5.82221910893e-09
2.2407165612e-07
2.25681388585e-08
1.71217000242e-08
3.54919512645e-08
5.83348611593e-09
2.83198773432e-08
6.61802586306e-10
3.1687182819e-08
2.29546432968e-08
4.88494705008e-09
8.05631695862e-08
1.99354121639e-06
3.15562429855e-06
3.84526539648e-06
3.360824549e-06
5.92831283886e-06
4.88459822451e-07
6.80683573424e-07
6.07081310521e-07
9.19520467974e-07
1.0642979428e-06
7.59930607252e-07
1.57842290035e-07
1.65954588765e-06
1.60874121152e-07
4.75668714723e-07
5.72012983917e-07
5.6030947192e-07
1.37845082278e-07
3.80972935333e-07
2.70600460646e-06
2.54040906417e-06
1.98130697666e-06
2.64659037455e-06
3.21672265908e-06
7.2581209043e-07
8.00248813182e-07
5.52034291597e-07
3.3454046477e-06
3.39063434718e-06
5.87184603114e-06
1.06732202865e-06
8.1166665334e-07
8.8679659482e-07
9.48883313548e-07
5.80617486777e-07
3.73014065551e-06
9.90176094579e-07
5.18259056244e-06
2.22501666994e-06
1.55517022924e-06
2.20013775784e-06
8.09408158553e-07
5.46660448585e-07
2.01876587569e-06
2.19017460847e-06
7.35562834753e-07
3.06709492087e-07
1.95913821808e-07
2.29155993259e-07
3.83713467023e-07
2.2320262381e-07
2.28423729031e-07
4.29632216597e-07
9.92226901211e-08
1.17248403087e-07
2.60271505759e-07
2.68518635995e-06
1.99988739921e-07
2.14197401236e-07
2.17732472758e-07
3.89183477426e-07
5.40305732245e-07
3.45159650338e-07
3.1133805377e-07
1.82794877276e-07
1.76827478938e-07
7.88054101479e-07
2.69873553464e-07
1.75363651125e-07
1.5321981286e-07
1.87478779429e-07
3.5997316566e-07
1.72253189007e-07
2.859519072e-06
2.37248936031e-06
2.57892539411e-06
8.11897548615e-07
3.39320301844e-06
3.43312520816e-06
2.00303356818e-06
1.54078920262e-06
1.49467634393e-07
7.33109034965e-07
1.40385983251e-07
1.59359799173e-07
2.17067842188e-07
3.88295646528e-07
3.2692181585e-07
4.12732524121e-07
3.55077257332e-07
4.06652315408e-07
7.40221390069e-07
2.71259861417e-06
6.72312564581e-07
1.29730119767e-08
3.06440490736e-08
1.9232824274e-06
2.10543465905e-06
2.39475154866e-07
2.8321467557e-06
3.11384332627e-06
2.03618077754e-06
6.49662857427e-07
8.19783426013e-07
3.23386357152e-06
3.03448095211e-06
1.5914667205e-07
2.80547208335e-06
6.76831340838e-07
1.14432268449e-07
1.60439739324e-07
1.09543719451e-07
1.43010960351e-07
1.31583103842e-07
4.1358820259e-08
1.90750225142e-07
2.79329513784e-07
1.36696315034e-07
2.05629306892e-07
3.32687456863e-06
5.26347741464e-08
2.67093975889e-07
1.74385887729e-07
1.55175347782e-07
5.41239675824e-07
7.43842248178e-07
6.9812733919e-08
1.69476932884e-06
2.57397928974e-06
6.79407277541e-08
1.47637868179e-08
1.64850193752e-06
4.58424199167e-08
3.42708153073e-07
6.5144746085e-07
1.18053787367e-06
3.86926240994e-06
2.34815874665e-07
1.15137543792e-06
3.57273628709e-06
4.24638290434e-07
3.76523469741e-07
3.20261589921e-07
3.93042095741e-06
1.29950877214e-07
2.26922876849e-07
1.90861128686e-07
1.10509962388e-06
1.13054030142e-06
2.25999984772e-07
4.92681307603e-07
8.42633936825e-07
3.1397541693e-06
5.17817349274e-07
6.48698094027e-07
1.04910122623e-06
6.74631271217e-07
3.37049049846e-06
2.47469161479e-07
2.37268799959e-06
2.87491404203e-06
3.13776167878e-07
3.24258363673e-07
2.98247320466e-07
1.54791877526e-06
3.04043275939e-06
1.74937434753e-06
9.09387089592e-07
2.04424997824e-06
2.99160398723e-06
1.59327862132e-06
6.54273510157e-07
3.37231517123e-07
2.09114509876e-06
2.42214585022e-06
4.99899666376e-07
1.76842943828e-06
2.55385205422e-07
2.78356547834e-07
1.47522091577e-06
3.53249953972e-07
7.19473918441e-07
2.09726459375e-06
3.24963630018e-06
2.60943988443e-06
1.19609593581e-06
2.75932319981e-06
4.39056761982e-06
3.3249945927e-06
6.12315995116e-07
1.68597897456e-06
2.92415121526e-07
2.51343158792e-07
6.89240122411e-08
1.24611542381e-06
1.62725057966e-06
1.95915398986e-07
3.97811601449e-08
1.36636965442e-06
3.61930653788e-06
4.56497688979e-06
2.85450137744e-06
2.47968239616e-06
1.16768796523e-06
1.83643317865e-06
2.25153160826e-06
3.14388048069e-06
1.31355110282e-07
8.08187364239e-07
2.78456287918e-06
2.72215340585e-07
9.08690132266e-07
2.01599822452e-08
3.26893398747e-07
3.00416339248e-06
2.83918973689e-08
1.98542133799e-08
1.25141361542e-07
6.31653785424e-08
7.4051635189e-08
1.56185788322e-07
8.75117122019e-08
9.5854395478e-08
1.48550354896e-07
1.72877829243e-07
9.90992841398e-07
9.13892674111e-07
3.64545545376e-07
8.7303034491e-06
1.20140423626e-07
7.49182625088e-06
3.83912609477e-07
2.6974887422e-07
2.47849776422e-07
4.17626793818e-07
2.67376907393e-07
1.534860532e-07
1.70303496718e-07
2.24241740089e-07
5.30009190867e-07
3.69991429709e-07
1.6102321875e-06
2.02413986546e-08
5.10804204433e-07
2.74226884853e-08
1.18173270876e-07
3.1030920615e-07
1.23781325152e-07
1.83895605626e-07
1.49595602161e-07
5.54944536949e-07
3.04591686274e-07
5.08853520159e-07
5.7133703045e-07
1.09059232832e-06
8.62544197726e-07
6.47560508976e-07
4.36442728154e-07
2.87515520605e-07
8.04928464625e-07
1.67163290167e-06
1.6389115418e-05
1.57091234047e-06
9.87509614309e-07
6.29732996578e-07
3.65384627734e-06
1.45471255322e-06
2.27877107053e-07
1.85330420101e-07
1.97053605489e-07
6.29282954497e-07
4.45219018871e-07
8.55158255041e-06
7.13113766678e-07
1.8728759e-07
1.23073243452e-07
7.74088261973e-07
6.7944625125e-07
1.93451598165e-07
2.08358826832e-06
2.47543517472e-06
3.01469698493e-07
1.88779887763e-07
2.80737510598e-07
1.79247395995e-06
1.27603451112e-06
3.5894762828e-06
3.07700614029e-06
1.84832038824e-06
1.47370848151e-07
9.46109726834e-07
5.02129350722e-08
3.5446903749e-06
9.7715100186e-07
3.69337875262e-07
2.90451683301e-07
2.3522562775e-07
2.36856442579e-07
9.51574499849e-08
9.67693654061e-07
1.77138748306e-07
3.17486381077e-06
2.26681055585e-06
3.21042820193e-06
8.5644049209e-07
8.67881558274e-07
2.10572594651e-06
4.414565713e-06
4.79982785313e-06
7.15148290278e-07
8.83348310378e-07
4.88595771814e-07
1.85926141888e-06
3.38122204283e-08
3.50005460522e-08
3.64702472848e-07
4.85966670434e-07
5.32582878814e-08
4.35142513207e-07
3.27961729242e-07
1.9127587693e-07
1.78194302894e-07
2.10555299161e-07
1.28039810875e-07
1.18888272645e-07
1.8885251821e-08
6.89725379531e-08
1.73825967969e-07
1.97462317975e-07
2.28803332901e-06
1.67896648329e-08
1.01817912531e-07
7.33570562065e-08
2.11309166546e-07
2.34331647151e-06
1.32626455974e-06
5.04984901189e-08
7.6823248981e-08
1.2852369174e-08
1.16951720369e-08
5.80181817649e-08
4.54198048111e-08
1.09523970532e-08
3.68821725134e-07
3.12556905333e-06
2.85324804955e-07
1.73936192043e-07
8.40948651049e-08
3.89594797072e-07
8.40157329205e-08
2.10837843772e-07
2.71397226743e-07
2.72892166876e-07
6.20428342436e-06
6.71082326078e-06
1.20556335297e-06
3.57452952557e-07
2.70982539825e-07
3.36879026281e-07
1.01157260527e-06
5.12524178787e-07
1.45068655591e-06
4.68217684915e-07
3.97619550475e-07
8.2574033354e-06
7.50672600517e-07
7.18748885804e-07
1.05849941594e-05
7.57729651044e-08
4.68594802594e-07
2.92730199262e-07
1.35768063733e-08
4.72573121985e-07
3.18277842768e-07
1.19063128352e-07
3.15436811247e-07
2.18034254346e-07
6.76912808807e-07
2.40251785168e-07
1.69128843328e-07
3.568053254e-06
2.64116048988e-06
2.4928601619e-06
1.30458345906e-06
1.43401229312e-06
1.70075124767e-06
1.22879359923e-06
5.22135090883e-06
6.60674463008e-06
4.17839596824e-06
2.94102664919e-06
3.25492170387e-06
2.15944946118e-06
1.62147129583e-06
1.56396977696e-06
2.27280160704e-06
2.4724575775e-06
3.68022522093e-06
3.9722942662e-06
5.23344082548e-06
4.36974441667e-06
3.54968593363e-06
2.97947403718e-06
3.07220168389e-06
3.22000870389e-06
2.61129973993e-06
2.98716946872e-06
3.2885590224e-06
4.11352986908e-06
3.56461389789e-06
4.42712281485e-06
2.26376167491e-06
3.09592677434e-06
4.0074015741e-06
9.98756233591e-07
1.00934819196e-06
1.00328068714e-06
1.95747039623e-06
1.95034790829e-06
1.51684099393e-06
2.14185084273e-06
1.56957068961e-06
7.2834116256e-08
2.39512802262e-06
8.7948741832e-07
6.36561961105e-07
4.23103167728e-07
4.73807440813e-07
2.44588402241e-06
4.71077015789e-07
1.51386775488e-06
2.38360187162e-06
1.63055378788e-06
1.6003267103e-06
2.26708464954e-06
9.01347539207e-07
4.5727761816e-07
1.63027915228e-07
8.66588953931e-07
3.3626714173e-06
5.48495749104e-06
1.77333066954e-05
2.40912654497e-06
3.42791867105e-06
6.51112187413e-06
3.43270333249e-06
1.02981459256e-06
8.0499562124e-07
2.26186027896e-06
7.45638476754e-07
2.9782050075e-08
3.27999840844e-07
2.49696683179e-07
1.22587454678e-06
5.7203076832e-07
9.44776122483e-07
1.77017519143e-06
1.66864546412e-05
6.39844124012e-06
2.55068178449e-06
2.28491318043e-06
1.38880071034e-06
6.56582980969e-07
1.85336707992e-06
4.12531064612e-07
1.26278061962e-06
1.01237822676e-06
3.22678946952e-07
1.4023557202e-06
1.02028103939e-07
1.85076208313e-07
1.09379525231e-06
1.6019348096e-06
1.19190492138e-06
2.50093192608e-08
1.29240322023e-06
1.67030079303e-07
6.10731226708e-07
4.31520893182e-08
3.49565143341e-08
5.72350180009e-08
5.8927581997e-07
9.03056180149e-08
8.49042864007e-08
9.75067348739e-07
1.13789303531e-07
5.66110544544e-08
1.52935530476e-06
1.19437142475e-07
6.61674468268e-08
1.03376335627e-07
1.02755134116e-07
1.11513976288e-07
8.75784037912e-08
2.04390306315e-07
2.44118452161e-07
4.5590546897e-09
6.54316495819e-09
6.28535112307e-10
4.63185492351e-10
2.07100236486e-07
3.82552511045e-08
1.44995310198e-09
2.15532957009e-09
2.9886753692e-07
1.23435157216e-06
2.15981263587e-07
2.26099336714e-07
2.92251414822e-06
1.81781367602e-06
7.72753181711e-06
5.70119712137e-06
3.16885223334e-06
2.5851219632e-06
1.49777190532e-05
2.4934653687e-05
9.97619098249e-06
1.0724304984e-05
1.13734643246e-06
6.58437279484e-06
5.81287809076e-08
1.05126949669e-07
1.776506769e-05
1.49683203628e-05
1.60025776523e-06
2.4828730064e-05
6.31208326563e-06
1.52640675326e-06
5.01611399515e-07
8.56817547299e-06
1.44596157392e-05
8.33598259623e-06
3.21164952276e-07
3.03064948264e-07
1.10814884514e-05
1.22827319856e-05
5.54300677639e-06
7.40438641874e-08
7.80675432446e-07
1.86277506336e-06
4.68223490632e-06
3.86408460238e-06
3.80518078726e-07
3.75544136381e-06
4.56936247081e-06
1.62517490133e-06
8.62310696909e-07
9.51633191491e-07
6.26932861983e-07
1.92381015463e-07
2.17865191023e-07
1.8126560446e-07
1.3127806989e-07
1.86700498264e-07
2.28529411853e-08
1.76525421005e-06
2.08434465878e-07
5.04230356302e-08
2.2099880675e-07
2.16971713725e-07
2.80321678824e-06
5.79727714255e-06
7.34426480056e-06
2.50895700002e-06
4.61777179335e-06
6.8908583536e-06
9.29365147415e-06
6.77997801831e-06
3.14995246559e-06
9.55966044528e-08
1.85395911673e-08
3.4898280103e-06
2.52490914716e-07
4.39233659947e-06
4.61344358018e-06
5.07667061106e-06
3.74056307841e-06
5.78229665934e-06
6.81262631405e-06
3.9291537782e-07
7.78704683727e-06
4.65152867318e-06
5.6708261871e-06
5.68642817305e-06
2.69616250269e-06
6.77137247067e-07
8.28564045952e-08
8.18022479451e-06
8.50665293233e-06
1.11657499208e-06
1.05510414817e-06
7.82780924793e-06
3.01539648501e-06
9.08691490424e-06
1.79294674513e-06
3.89408589252e-06
4.35037950615e-06
1.67095750649e-06
1.25607889556e-06
1.31569005053e-06
3.2080777822e-08
1.58485404862e-07
9.57038456843e-06
9.17499901673e-06
8.46523492331e-06
1.88769434222e-06
1.70619414792e-06
1.36775810132e-06
2.81679752716e-06
4.28138538226e-06
7.34981607134e-07
1.24152905113e-06
2.90785671186e-06
1.85571031467e-06
5.64638638958e-07
7.30544805714e-07
3.3134869034e-07
2.31902421115e-07
3.13784161681e-06
3.09009540131e-06
2.61492247534e-06
2.84392700252e-06
3.97288066373e-06
3.13943424727e-06
5.10154651275e-06
2.57851194913e-06
2.88015722326e-06
2.93937679502e-06
3.24859843781e-06
3.28056284301e-06
3.56443432768e-06
2.69640377353e-06
2.89509402012e-06
2.68959747667e-06
4.24062625215e-06
3.39437025009e-06
5.47570160903e-06
4.8914988427e-06
4.64356522147e-06
5.1182750696e-06
3.72117921369e-06
4.1889026366e-06
4.64710641388e-06
3.98883570597e-06
4.15257938588e-06
3.9356031829e-06
4.7530982288e-06
4.50553051948e-06
4.74561877724e-06
4.36533897832e-06
4.23668749436e-06
4.07521348789e-06
3.69921729744e-06
4.70887450612e-06
4.24815790247e-06
4.07404057867e-06
1.56025787018e-06
1.62271815622e-06
1.1124679523e-06
2.2949650052e-06
8.3609182219e-07
7.33517695811e-07
4.0087135072e-07
1.44749673205e-06
4.47613813278e-07
3.50967028558e-07
2.53953696536e-07
3.23610523373e-07
1.00162397799e-06
3.05773158561e-07
3.15580312332e-07
2.38741818735e-06
3.31692456278e-06
3.97345052826e-06
3.50349712955e-06
4.40830169737e-06
4.07548341908e-06
3.46275998858e-06
3.70314322183e-06
3.31144591725e-06
3.39166732014e-06
4.4999180828e-06
5.08167524761e-06
3.11724382142e-06
2.91451712852e-06
2.20140924263e-06
1.90178639491e-06
1.01802990128e-06
1.90500145843e-07
4.18110648782e-07
3.88961833813e-07
5.19213908732e-07
3.84078538436e-08
5.2341372673e-07
6.14346689773e-07
4.79269281416e-06
5.41905373465e-06
7.35760944742e-08
6.09878117171e-08
7.611757437e-08
1.42729850954e-07
1.97848206833e-07