# vtk DataFile Version 3.0
File Name: Molecule/sphere/sphere_0-s1.vtk
ASCII
DATASET UNSTRUCTURED_GRID
FIELD FieldData 1
TIME 1 1 double
0.0
POINTS 15 double
0.850650808352 -0.525731112119 0.0
0.525731112119 0.0 -0.850650808352
0.850650808352 0.525731112119 0.0
0.0 0.850650808352 -0.525731112119
0.0 0.850650808352 0.525731112119
-0.850650808352 0.525731112119 0.0
-0.525731112119 0.0 0.850650808352
0.525731112119 0.0 0.850650808352
0.0 -0.850650808352 0.525731112119
-0.525731112119 0.0 -0.850650808352
-0.850650808352 -0.525731112119 0.0
0.0 -0.850650808352 -0.525731112119
0.26286555606 -0.425325404176 -0.688190960236
0.0 0.0 -0.850650808352
-0.26286555606 -0.425325404176 -0.688190960236

CELLS 26 104
3 0 1 2
3 2 1 3
3 2 3 4
3 4 3 5
3 4 5 6
3 4 6 7
3 6 8 7
3 7 8 0
3 0 2 7
3 2 4 7
3 9 10 5
3 3 9 5
3 10 11 8
3 10 8 6
3 6 5 10
3 11 0 8
3 1 12 13
3 12 14 13
3 12 11 14
3 13 14 9
3 9 14 10
3 14 11 10
3 11 12 0
3 1 12 0
3 1 13 3
3 13 9 3

CELL_TYPES 26
5
5
5
5
5
5
5
5
5
5
5
5
5
5
5
5
5
5
5
5
5
5
5
5
5
5

CELL_DATA 26
SCALARS cell_data_0 double
LOOKUP_TABLE default
0.00144157298179
0.00149234377323
1.79302688736e-05
6.26072875625e-05
0.000184880701828
0.000504139685128
0.000199252825442
0.000137223015894
2.94483716412e-05
0.000193735629413
0.00105612986825
0.00114489016878
2.653123846e-06
0.000130183353458
1.98413763307e-05
3.86205141232e-05
0.000294332372003
1.65661321903e-07
4.14596282241e-06
0.000304424843475
0.000574776525019
3.50690649317e-06
5.64802351344e-06
0.000608886253808
0.0005644925359
0.000565637842071

