# vtk DataFile Version 3.0
File Name: Molecule/sphere/sphere_0-s2.vtk
ASCII
DATASET UNSTRUCTURED_GRID
FIELD FieldData 1
TIME 1 1 double
0.0
POINTS 18 double
0.0 0.850650808352 0.525731112119
0.0 0.850650808352 -0.525731112119
-0.850650808352 0.525731112119 0.0
-0.525731112119 0.0 0.850650808352
0.525731112119 0.0 0.850650808352
0.0 -0.850650808352 0.525731112119
0.850650808352 -0.525731112119 0.0
0.850650808352 0.525731112119 0.0
-0.525731112119 0.0 -0.850650808352
-0.850650808352 -0.525731112119 0.0
0.0 -0.850650808352 -0.525731112119
0.525731112119 0.0 -0.850650808352
0.26286555606 -0.425325404176 -0.688190960236
0.0 0.0 -0.850650808352
-0.26286555606 -0.425325404176 -0.688190960236
0.688190960236 0.26286555606 -0.425325404176
0.425325404176 0.688190960236 -0.26286555606
0.26286555606 0.425325404176 -0.688190960236

CELLS 32 128
3 0 1 2
3 0 2 3
3 0 3 4
3 3 5 4
3 4 5 6
3 6 7 4
3 7 0 4
3 8 9 2
3 1 8 2
3 9 10 5
3 9 5 3
3 3 2 9
3 10 6 5
3 11 12 13
3 12 14 13
3 12 10 14
3 13 14 8
3 8 14 9
3 14 10 9
3 10 12 6
3 11 12 6
3 13 8 1
3 11 15 6
3 6 15 7
3 7 15 16
3 15 17 16
3 15 11 17
3 16 17 1
3 7 16 0
3 16 1 0
3 1 17 13
3 11 17 13

CELL_TYPES 32
5
5
5
5
5
5
5
5
5
5
5
5
5
5
5
5
5
5
5
5
5
5
5
5
5
5
5
5
5
5
5
5

CELL_DATA 32
SCALARS cell_data_0 double
LOOKUP_TABLE default
4.49584957915e-06
0.000113291815621
0.00105442530685
0.000886097683028
0.000380006854778
0.000431645766595
9.29897177886e-05
5.05965004457e-06
2.1895109226e-05
0.00120058397593
0.000179748248271
6.73287279222e-05
0.0011323248163
1.48688460848e-05
6.91844782394e-07
0.000318889142119
5.95208668229e-07
2.30138068637e-06
0.000566385025763
0.000549911650402
1.13763140038e-05
9.71561370812e-06
1.34501729326e-05
2.49916997931e-05
1.63906096648e-06
3.25604174351e-06
4.97082578456e-06
1.74448176189e-06
5.1714864581e-05
1.33296789955e-05
1.53181535909e-06
1.78458911032e-07

