# vtk DataFile Version 3.0
File Name: Molecule/sphere_cent/sphere_cent_0-s1.vtk
ASCII
DATASET UNSTRUCTURED_GRID
FIELD FieldData 1
TIME 1 1 double
0.0
POINTS 42 double
0.850650808352 -0.525731112119 0.0
0.809016994375 -0.309016994375 -0.5
1.0 0.0 0.0
0.809016994375 0.309016994375 -0.5
0.525731112119 0.0 -0.850650808352
0.850650808352 0.525731112119 0.0
0.5 0.809016994375 -0.309016994375
0.309016994375 0.5 -0.809016994375
0.0 0.850650808352 -0.525731112119
0.5 0.809016994375 0.309016994375
0.0 1.0 0.0
0.0 0.850650808352 0.525731112119
-0.5 0.809016994375 0.309016994375
-0.5 0.809016994375 -0.309016994375
-0.850650808352 0.525731112119 0.0
-0.309016994375 0.5 0.809016994375
-0.809016994375 0.309016994375 0.5
-0.525731112119 0.0 0.850650808352
0.309016994375 0.5 0.809016994375
0.0 0.0 1.0
0.525731112119 0.0 0.850650808352
-0.309016994375 -0.5 0.809016994375
0.309016994375 -0.5 0.809016994375
0.0 -0.850650808352 0.525731112119
0.809016994375 -0.309016994375 0.5
0.5 -0.809016994375 0.309016994375
0.309016994375 -0.5 -0.809016994375
0.0 0.0 -1.0
-0.309016994375 -0.5 -0.809016994375
0.0 -0.850650808352 -0.525731112119
-0.525731112119 0.0 -0.850650808352
0.809016994375 0.309016994375 0.5
-0.809016994375 -0.309016994375 -0.5
-0.809016994375 0.309016994375 -0.5
-1.0 0.0 0.0
-0.850650808352 -0.525731112119 0.0
-0.309016994375 0.5 -0.809016994375
-0.5 -0.809016994375 -0.309016994375
-0.5 -0.809016994375 0.309016994375
0.0 -1.0 0.0
-0.809016994375 -0.309016994375 0.5
0.5 -0.809016994375 -0.309016994375

CELLS 80 320
3 0 1 2
3 1 3 2
3 1 4 3
3 2 3 5
3 5 3 6
3 3 7 6
3 3 4 7
3 6 7 8
3 5 6 9
3 6 10 9
3 6 8 10
3 9 10 11
3 11 10 12
3 10 13 12
3 10 8 13
3 12 13 14
3 11 12 15
3 12 16 15
3 12 14 16
3 15 16 17
3 11 15 18
3 15 19 18
3 15 17 19
3 18 19 20
3 17 21 19
3 21 22 19
3 21 23 22
3 19 22 20
3 20 22 24
3 22 25 24
3 22 23 25
3 24 25 0
3 4 26 27
3 26 28 27
3 26 29 28
3 27 28 30
3 0 2 24
3 2 31 24
3 2 5 31
3 24 31 20
3 5 9 31
3 9 18 31
3 9 11 18
3 31 18 20
3 30 32 33
3 32 34 33
3 32 35 34
3 33 34 14
3 8 36 13
3 36 33 13
3 36 30 33
3 13 33 14
3 35 37 38
3 37 39 38
3 37 29 39
3 38 39 23
3 35 38 40
3 38 21 40
3 38 23 21
3 40 21 17
3 17 16 40
3 16 34 40
3 16 14 34
3 40 34 35
3 30 28 32
3 28 37 32
3 28 29 37
3 32 37 35
3 29 41 39
3 41 25 39
3 41 0 25
3 39 25 23
3 4 1 26
3 1 41 26
3 1 0 41
3 26 41 29
3 4 27 7
3 27 36 7
3 27 30 36
3 7 36 8

CELL_TYPES 80
5
5
5
5
5
5
5
5
5
5
5
5
5
5
5
5
5
5
5
5
5
5
5
5
5
5
5
5
5
5
5
5
5
5
5
5
5
5
5
5
5
5
5
5
5
5
5
5
5
5
5
5
5
5
5
5
5
5
5
5
5
5
5
5
5
5
5
5
5
5
5
5
5
5
5
5
5
5
5
5

CELL_DATA 80
SCALARS cell_data_0 double
LOOKUP_TABLE default
3.81019668052e-07
2.54083561121e-06
3.81028352072e-07
8.32331317401e-07
8.32330005966e-07
2.54084945358e-06
3.81004692277e-07
1.64625922115e-06
8.32345046395e-07
2.5408372582e-06
1.64627321579e-06
3.81016074723e-07
1.64625419513e-06
2.54084044344e-06
3.80997816621e-07
3.81025845001e-07
1.64624356824e-06
1.11316350996e-06
1.64626128888e-06
3.81006362108e-07
3.81004969175e-07
2.54083695443e-06
3.81018608696e-07
8.32327232623e-07
3.81028023103e-07
1.1131523917e-06
3.81018392609e-07
3.81005713597e-07
3.81034244326e-07
1.11315771334e-06
3.81018026319e-07
3.8100710304e-07
8.3234774313e-07
3.90692071288e-06
3.81046074581e-07
3.8100148211e-07
3.81028395282e-07
1.11315789597e-06
3.81023684082e-07
3.81007504087e-07
8.32347081186e-07
3.90691769954e-06
8.32334423332e-07
8.32328802649e-07
1.64624171627e-06
2.54083563877e-06
3.81046782531e-07
3.81017508575e-07
3.81020516572e-07
2.54084366421e-06
1.64622899086e-06
3.81033093664e-07
1.64625397272e-06
1.11316874249e-06
1.64624996583e-06
3.81018148772e-07
1.64626359468e-06
1.1131524434e-06
3.81026785543e-07
3.81010414856e-07
3.81036031163e-07
2.54084087374e-06
3.81006081216e-07
3.81009466987e-07
1.64625603606e-06
1.11315252584e-06
1.64626775765e-06
1.64626192019e-06
1.6462642238e-06
1.1131625546e-06
3.81023183771e-07
3.81015540685e-07
3.8102731645e-07
2.54084453299e-06
3.8101235693e-07
3.8101932795e-07
3.81001402525e-07
2.54086595381e-06
3.81021314475e-07
1.64623864263e-06

