# vtk DataFile Version 3.0
File Name: Molecule/sphere_cent/sphere_cent_0-s3.vtk
ASCII
DATASET UNSTRUCTURED_GRID
FIELD FieldData 1
TIME 1 1 double
0.0
POINTS 249 double
0.809016994375 -0.309016994375 -0.5
0.904508497187 -0.154508497188 -0.25
0.850650808352 -0.525731112119 0.0
0.809016994375 0.309016994375 -0.5
0.809016994375 0.0 -0.5
0.525731112119 0.0 -0.850650808352
1.0 0.0 0.0
0.904508497187 0.154508497188 -0.25
0.850650808352 0.525731112119 0.0
0.654508497187 0.559016994375 -0.404508497188
0.5 0.809016994375 -0.309016994375
0.309016994375 0.5 -0.809016994375
0.559016994375 0.404508497188 -0.654508497187
0.404508497188 0.654508497187 -0.559016994375
0.25 0.829833901363 -0.417374053247
0.154508497188 0.675325404176 -0.667374053247
0.5 0.809016994375 0.0
0.5 0.809016994375 0.309016994375
0.25 0.904508497187 -0.154508497188
0.0 0.925325404176 -0.26286555606
0.0 1.0 0.0
0.25 0.904508497187 0.154508497188
0.0 0.850650808352 0.525731112119
-0.25 0.829833901363 -0.417374053247
-0.25 0.904508497187 -0.154508497188
-0.5 0.809016994375 -0.309016994375
-0.5 0.809016994375 0.0
-0.675325404176 0.667374053247 -0.154508497188
-0.675325404176 0.667374053247 0.154508497188
-0.850650808352 0.525731112119 0.0
-0.5 0.809016994375 0.309016994375
-0.654508497187 0.559016994375 0.404508497188
-0.309016994375 0.5 0.809016994375
-0.829833901363 0.417374053247 0.25
0.154508497188 -0.675325404176 -0.667374053247
0.0 -0.850650808352 -0.525731112119
-0.154508497188 -0.675325404176 -0.667374053247
0.654508497187 0.559016994375 0.404508497188
0.809016994375 0.309016994375 0.5
0.309016994375 0.5 0.809016994375
0.404508497188 0.654508497187 0.559016994375
-0.809016994375 -0.309016994375 -0.5
-0.809016994375 0.0 -0.5
-0.525731112119 0.0 -0.850650808352
-0.829833901363 -0.417374053247 -0.25
-0.904508497187 -0.154508497188 -0.25
-0.925325404176 -0.26286555606 0.0
-0.850650808352 -0.525731112119 0.0
-1.0 0.0 0.0
-0.809016994375 0.309016994375 -0.5
-0.904508497187 0.154508497188 -0.25
-0.829833901363 0.417374053247 -0.25
-0.925325404176 0.26286555606 0.0
0.0 0.850650808352 -0.525731112119
-0.154508497188 0.675325404176 -0.667374053247
-0.404508497188 0.654508497187 -0.559016994375
-0.654508497187 0.559016994375 -0.404508497188
-0.675325404176 -0.667374053247 -0.154508497188
-0.675325404176 -0.667374053247 0.154508497188
-0.5 -0.809016994375 0.0
-0.5 -0.809016994375 0.309016994375
-0.25 -0.829833901363 -0.417374053247
0.0 -0.925325404176 -0.26286555606
-0.25 -0.904508497187 -0.154508497188
0.0 -1.0 0.0
-0.829833901363 -0.417374053247 0.25
-0.904508497187 0.154508497188 0.25
-0.904508497187 -0.154508497188 0.25
-0.559016994375 -0.404508497188 -0.654508497187
-0.654508497187 -0.559016994375 -0.404508497188
-0.309016994375 -0.5 -0.809016994375
-0.404508497188 -0.654508497187 -0.559016994375
0.25 -0.829833901363 -0.417374053247
0.654508497187 -0.559016994375 -0.404508497188
0.559016994375 -0.404508497188 -0.654508497187
0.154508497188 0.25 -0.904508497187
0.0 0.5 -0.809016994375
-0.25 0.829833901363 0.417374053247
-0.559016994375 0.404508497188 0.654508497187
-0.417374053247 0.25 0.829833901363
-0.667374053247 0.154508497188 0.675325404176
-0.809016994375 0.309016994375 0.5
-0.525731112119 0.0 0.850650808352
-0.417374053247 -0.25 0.829833901363
-0.26286555606 0.0 0.925325404176
-0.154508497188 -0.25 0.904508497187
-0.309016994375 -0.5 0.809016994375
0.0 0.0 1.0
0.0 -0.5 0.809016994375
0.154508497188 -0.25 0.904508497187
0.309016994375 -0.5 0.809016994375
-0.154508497188 -0.675325404176 0.667374053247
0.154508497188 -0.675325404176 0.667374053247
0.0 -0.850650808352 0.525731112119
0.26286555606 0.0 0.925325404176
0.417374053247 -0.25 0.829833901363
0.525731112119 0.0 0.850650808352
0.667374053247 -0.154508497188 0.675325404176
0.559016994375 -0.404508497188 0.654508497187
0.809016994375 -0.309016994375 0.5
0.404508497188 -0.654508497187 0.559016994375
0.654508497187 -0.559016994375 0.404508497188
0.5 -0.809016994375 0.309016994375
0.25 -0.829833901363 0.417374053247
0.829833901363 -0.417374053247 0.25
0.675325404176 -0.667374053247 0.154508497188
0.925325404176 -0.26286555606 0.0
0.904508497187 -0.154508497188 0.25
0.904508497187 0.154508497188 0.25
0.809016994375 0.0 0.5
0.667374053247 0.154508497188 0.675325404176
-0.25 -0.829833901363 0.417374053247
-0.404508497188 -0.654508497187 0.559016994375
-0.809016994375 -0.309016994375 0.5
-0.559016994375 -0.404508497188 0.654508497187
-0.667374053247 -0.154508497188 0.675325404176
0.5 -0.809016994375 -0.309016994375
0.675325404176 -0.667374053247 -0.154508497188
0.5 -0.809016994375 0.0
0.25 -0.904508497187 0.154508497188
0.0 -0.925325404176 0.26286555606
0.856762745781 -0.077254248594 -0.375
0.856762745781 0.077254248594 -0.375
0.904508497187 0.0 -0.25
0.606762745781 0.481762745782 -0.529508497188
0.481762745782 0.529508497188 -0.606762745781
0.529508497188 0.606762745781 -0.481762745782
0.125 0.840242354857 -0.471552582683
0.375 0.856762745781 -0.077254248594
0.25 0.904508497187 0.0
0.375 0.856762745781 0.077254248594
0.125 0.877579652769 -0.340119804654
0.0 0.887988106264 -0.394298334089
0.0 0.925325404176 0.26286555606
-0.125 0.952254248593 0.077254248594
-0.125 0.87757965277 0.340119804654
-0.25 0.904508497187 0.154508497188
-0.375 0.856762745781 0.231762745782
-0.125 0.952254248593 -0.077254248594
-0.25 0.904508497187 0.0
-0.375 0.856762745781 -0.077254248594
-0.375 0.856762745781 0.077254248594
-0.5 0.809016994375 0.154508497188
-0.819425447869 0.363195523811 0.375
-0.154508497188 0.5 0.809016994375
0.0 0.5 0.809016994375
0.154508497188 0.5 0.809016994375
-0.231762745782 0.375 0.856762745781
-0.077254248594 0.375 0.856762745781
-0.154508497188 0.25 0.904508497187
0.0 0.25 0.904508497187
0.077254248594 0.375 0.856762745781
0.154508497188 0.25 0.904508497187
-0.077254248594 0.125 0.952254248593
0.077254248594 0.125 0.952254248593
0.231762745782 0.375 0.856762745781
-0.340119804654 0.125 0.87757965277
0.417374053247 0.25 0.829833901363
0.340119804654 0.125 0.87757965277
0.309016994375 -0.5 -0.809016994375
0.231762745782 -0.375 -0.856762745781
0.417374053247 -0.25 -0.829833901363
0.340119804654 -0.125 -0.87757965277
0.154508497188 -0.25 -0.904508497187
0.26286555606 0.0 -0.925325404176
0.077254248594 -0.125 -0.952254248593
0.0 0.0 -1.0
0.154508497188 -0.5 -0.809016994375
0.077254248594 -0.375 -0.856762745781
0.0 -0.5 -0.809016994375
-0.077254248594 -0.375 -0.856762745781
0.0 -0.25 -0.904508497187
-0.154508497188 -0.25 -0.904508497187
-0.154508497188 -0.5 -0.809016994375
-0.231762745782 -0.375 -0.856762745781
-0.077254248594 -0.125 -0.952254248593
0.231762745782 -0.587662702088 -0.738195523811
0.077254248594 -0.587662702088 -0.738195523811
-0.26286555606 0.0 -0.925325404176
-0.340119804654 -0.125 -0.87757965277
-0.417374053247 -0.25 -0.829833901363
0.529508497188 0.606762745781 0.481762745782
0.481762745782 0.529508497188 0.606762745781
0.606762745781 0.481762745782 0.529508497188
0.559016994375 0.404508497188 0.654508497187
-0.667374053247 0.154508497188 -0.675325404176
-0.856762745781 -0.077254248594 -0.375
-0.904508497187 0.0 -0.25
-0.856762745781 0.077254248594 -0.375
-0.309016994375 0.5 -0.809016994375
-0.356762745782 0.577254248593 -0.684016994375
-0.434016994375 0.452254248594 -0.731762745781
-0.481762745782 0.529508497188 -0.606762745781
-0.559016994375 0.404508497188 -0.654508497187
-0.684016994375 0.356762745782 -0.577254248593
-0.542374053247 0.202254248594 -0.75257965277
-0.417374053247 0.25 -0.829833901363
-0.5 -0.809016994375 -0.309016994375
-0.5 -0.809016994375 -0.154508497188
-0.375 -0.856762745781 -0.231762745782
-0.375 -0.856762745781 -0.077254248594
-0.25 -0.904508497187 0.0
-0.375 -0.856762745781 0.077254248594
-0.25 -0.904508497187 0.154508497188
-0.375 -0.819425447869 -0.363195523811
-0.25 -0.867171199275 -0.285941275218
-0.654508497187 -0.559016994375 0.404508497188
-0.742171199275 -0.488195523811 0.327254248594
-0.577254248593 -0.684016994375 0.356762745782
-0.819425447869 -0.363195523811 0.375
-0.731762745781 -0.434016994375 0.452254248594
-0.481762745781 -0.529508497187 0.606762745782
-0.809016994375 0.154508497188 0.5
-0.667374053247 0.0 0.675325404176
-0.809016994375 0.0 0.5
-0.809016994375 -0.154508497188 0.5
-0.856762745781 0.231762745782 0.375
-0.856762745781 0.077254248594 0.375
-0.904508497187 0.0 0.25
-0.856762745781 -0.077254248594 0.375
-0.856762745781 -0.231762745782 0.375
-0.867171199275 0.285941275218 0.25
-0.867171199275 -0.285941275218 0.25
-0.434016994375 -0.452254248594 -0.731762745781
-0.542374053247 -0.202254248594 -0.75257965277
-0.529508497188 -0.606762745781 -0.481762745782
-0.452254248594 -0.731762745781 -0.434016994375
-0.577254248593 -0.684016994375 -0.356762745782
-0.327254248594 -0.742171199275 -0.488195523811
0.25 -0.867171199275 -0.285941275218
0.25 -0.904508497187 -0.154508497188
0.375 -0.819425447869 -0.363195523811
0.375 -0.856762745781 -0.231762745782
0.125 -0.952254248593 -0.077254248594
0.375 -0.856762745781 0.0772542485935
0.542374053247 -0.202254248594 -0.75257965277
0.434016994375 -0.452254248594 -0.731762745781
0.404508497188 -0.654508497187 -0.559016994375
0.481762745782 -0.529508497188 -0.606762745781
0.577254248593 -0.684016994375 -0.356762745782
0.356762745782 -0.577254248593 -0.684016994375
0.75257965277 -0.542374053247 -0.202254248594
0.279508497188 -0.664916950682 -0.613195523811
-0.077254248594 0.125 -0.952254248593
-0.154508497188 0.25 -0.904508497187
-0.077254248594 0.375 -0.856762745781
-0.231762745782 0.375 -0.856762745781
-0.154508497188 0.5 -0.809016994375
-0.340119804654 0.125 -0.87757965277

CELLS 494 1976
3 0 1 2
3 3 4 5
3 5 4 0
3 6 7 8
3 7 3 8
3 3 9 8
3 8 9 10
3 11 12 5
3 5 12 3
3 10 13 14
3 13 15 14
3 13 11 15
3 10 16 8
3 8 16 17
3 10 14 18
3 18 19 20
3 17 21 22
3 19 23 24
3 24 23 25
3 26 27 28
3 26 25 27
3 28 27 29
3 30 31 32
3 30 28 31
3 28 33 31
3 28 29 33
3 34 35 36
3 17 37 8
3 8 37 38
3 39 40 22
3 22 40 17
3 41 42 43
3 41 44 45
3 44 46 45
3 44 47 46
3 45 46 48
3 49 50 51
3 50 52 51
3 50 48 52
3 51 52 29
3 53 54 23
3 54 55 23
3 23 55 25
3 55 56 25
3 25 56 27
3 56 51 27
3 56 49 51
3 27 51 29
3 47 57 58
3 57 59 58
3 58 59 60
3 61 35 62
3 63 62 64
3 47 58 65
3 33 29 52
3 66 52 48
3 67 48 46
3 65 46 47
3 68 69 41
3 70 36 71
3 36 35 61
3 41 69 44
3 69 57 44
3 44 57 47
3 35 72 62
3 0 73 74
3 34 72 35
3 5 75 11
3 75 76 11
3 11 76 15
3 76 54 15
3 15 54 53
3 22 77 32
3 77 30 32
3 32 78 79
3 78 80 79
3 78 81 80
3 79 80 82
3 82 83 84
3 83 85 84
3 83 86 85
3 84 85 87
3 86 88 85
3 88 89 85
3 88 90 89
3 85 89 87
3 86 91 88
3 91 92 88
3 91 93 92
3 88 92 90
3 87 89 94
3 89 95 94
3 89 90 95
3 94 95 96
3 96 95 97
3 95 98 97
3 95 90 98
3 97 98 99
3 90 100 98
3 100 101 98
3 100 102 101
3 98 101 99
3 90 92 100
3 92 103 100
3 92 93 103
3 100 103 102
3 99 101 104
3 101 105 104
3 101 102 105
3 104 105 2
3 2 106 104
3 106 107 104
3 106 6 107
3 104 107 99
3 6 108 107
3 108 109 107
3 108 38 109
3 107 109 99
3 38 108 8
3 8 108 6
3 99 109 97
3 109 110 97
3 109 38 110
3 97 110 96
3 60 111 112
3 111 91 112
3 111 93 91
3 112 91 86
3 113 114 115
3 114 83 115
3 114 86 83
3 115 83 82
3 116 117 118
3 117 105 118
3 117 2 105
3 118 105 102
3 64 119 120
3 119 103 120
3 119 102 103
3 120 103 93
3 6 106 1
3 1 106 2
3 4 121 0
3 0 121 1
3 4 122 121
3 122 123 121
3 122 7 123
3 121 123 1
3 7 122 3
3 3 122 4
3 1 123 6
3 123 7 6
3 12 124 3
3 3 124 9
3 12 125 124
3 125 126 124
3 125 13 126
3 124 126 9
3 13 125 11
3 11 125 12
3 9 126 10
3 126 13 10
3 53 127 15
3 15 127 14
3 18 128 10
3 10 128 16
3 18 129 128
3 129 130 128
3 129 21 130
3 128 130 16
3 21 129 20
3 20 129 18
3 16 130 17
3 130 21 17
3 14 131 18
3 131 19 18
3 14 127 131
3 127 132 131
3 127 53 132
3 131 132 19
3 20 133 21
3 21 133 22
3 20 134 133
3 134 135 133
3 134 136 135
3 133 135 22
3 22 135 77
3 135 137 77
3 135 136 137
3 77 137 30
3 20 138 134
3 138 139 134
3 138 24 139
3 134 139 136
3 24 140 139
3 140 141 139
3 140 26 141
3 139 141 136
3 26 140 25
3 25 140 24
3 136 141 137
3 141 142 137
3 141 26 142
3 137 142 30
3 24 138 19
3 19 138 20
3 19 132 23
3 132 53 23
3 30 142 28
3 142 26 28
3 81 78 31
3 31 78 32
3 33 143 31
3 31 143 81
3 32 144 22
3 144 145 22
3 145 146 22
3 22 146 39
3 32 147 144
3 147 148 144
3 147 149 148
3 144 148 145
3 149 150 148
3 150 151 148
3 150 152 151
3 148 151 145
3 149 153 150
3 153 154 150
3 153 87 154
3 150 154 152
3 145 151 146
3 151 155 146
3 151 152 155
3 146 155 39
3 87 153 84
3 153 156 84
3 153 149 156
3 84 156 82
3 82 156 79
3 156 147 79
3 156 149 147
3 79 147 32
3 39 155 157
3 155 158 157
3 155 152 158
3 157 158 96
3 152 154 158
3 154 94 158
3 154 87 94
3 158 94 96
3 159 160 161
3 160 162 161
3 160 163 162
3 161 162 5
3 5 162 164
3 162 165 164
3 162 163 165
3 164 165 166
3 159 167 160
3 167 168 160
3 167 169 168
3 160 168 163
3 169 170 168
3 170 171 168
3 170 172 171
3 168 171 163
3 169 173 170
3 173 174 170
3 173 70 174
3 170 174 172
3 163 171 165
3 171 175 165
3 171 172 175
3 165 175 166
3 159 176 167
3 176 177 167
3 176 34 177
3 167 177 169
3 169 177 36
3 36 177 34
3 70 173 36
3 36 173 169
3 166 175 178
3 175 179 178
3 175 172 179
3 178 179 43
3 172 174 179
3 174 180 179
3 174 70 180
3 179 180 43
3 40 181 17
3 17 181 37
3 40 182 181
3 182 183 181
3 182 184 183
3 181 183 37
3 184 182 39
3 39 182 40
3 37 183 38
3 183 184 38
3 96 110 184
3 184 110 38
3 39 157 184
3 184 157 96
3 49 185 42
3 42 185 43
3 45 186 41
3 41 186 42
3 45 187 186
3 187 188 186
3 187 50 188
3 186 188 42
3 50 187 48
3 48 187 45
3 42 188 49
3 188 50 49
3 189 190 54
3 54 190 55
3 189 191 190
3 191 192 190
3 191 193 192
3 190 192 55
3 55 192 56
3 56 192 193
3 193 194 56
3 194 49 56
3 49 194 185
3 194 195 185
3 194 193 195
3 185 195 43
3 43 195 196
3 195 191 196
3 195 193 191
3 196 191 189
3 197 198 57
3 57 198 59
3 197 199 198
3 199 200 198
3 199 63 200
3 198 200 59
3 63 201 200
3 201 202 200
3 201 203 202
3 200 202 59
3 203 201 64
3 64 201 63
3 59 202 60
3 202 203 60
3 197 204 199
3 204 205 199
3 204 61 205
3 199 205 63
3 63 205 62
3 62 205 61
3 93 111 203
3 203 111 60
3 64 120 203
3 203 120 93
3 206 207 58
3 58 207 65
3 60 208 58
3 58 208 206
3 65 207 209
3 207 210 209
3 207 206 210
3 209 210 113
3 113 210 114
3 210 211 114
3 210 206 211
3 114 211 86
3 86 211 112
3 211 208 112
3 211 206 208
3 112 208 60
3 81 212 80
3 212 213 80
3 212 214 213
3 80 213 82
3 82 213 115
3 213 215 115
3 213 214 215
3 115 215 113
3 81 216 212
3 216 217 212
3 216 66 217
3 212 217 214
3 66 218 217
3 218 219 217
3 218 67 219
3 217 219 214
3 67 218 48
3 48 218 66
3 214 219 215
3 219 220 215
3 219 67 220
3 215 220 113
3 81 143 216
3 143 221 216
3 143 33 221
3 216 221 66
3 66 221 52
3 52 221 33
3 113 220 209
3 220 222 209
3 220 67 222
3 209 222 65
3 65 222 46
3 46 222 67
3 70 223 180
3 223 224 180
3 223 68 224
3 180 224 43
3 43 224 41
3 224 68 41
3 68 223 71
3 71 223 70
3 71 225 68
3 225 69 68
3 71 226 225
3 226 227 225
3 226 197 227
3 225 227 69
3 61 228 36
3 36 228 71
3 71 228 226
3 228 204 226
3 228 61 204
3 226 204 197
3 69 227 57
3 227 197 57
3 72 229 62
3 229 230 62
3 72 231 229
3 231 232 229
3 231 116 232
3 229 232 230
3 230 233 62
3 62 233 64
3 64 233 119
3 233 234 119
3 233 230 234
3 119 234 102
3 102 234 118
3 234 232 118
3 234 230 232
3 118 232 116
3 74 235 0
3 0 235 5
3 5 235 161
3 235 236 161
3 235 74 236
3 161 236 159
3 237 238 73
3 73 238 74
3 73 239 237
3 239 116 237
3 74 238 236
3 238 240 236
3 238 237 240
3 236 240 159
3 116 239 117
3 239 241 117
3 239 73 241
3 117 241 2
3 2 241 0
3 241 73 0
3 159 240 176
3 240 242 176
3 240 237 242
3 176 242 34
3 34 242 72
3 72 242 237
3 116 231 237
3 237 231 72
3 5 164 75
3 75 164 166
3 166 243 75
3 243 244 75
3 244 245 75
3 245 76 75
3 244 246 245
3 246 247 245
3 246 189 247
3 245 247 76
3 189 246 196
3 246 248 196
3 246 244 248
3 196 248 43
3 43 248 178
3 248 243 178
3 248 244 243
3 178 243 166
3 76 247 54
3 247 189 54

CELL_TYPES 494
5
5
5
5
5
5
5
5
5
5
5
5
5
5
5
5
5
5
5
5
5
5
5
5
5
5
5
5
5
5
5
5
5
5
5
5
5
5
5
5
5
5
5
5
5
5
5
5
5
5
5
5
5
5
5
5
5
5
5
5
5
5
5
5
5
5
5
5
5
5
5
5
5
5
5
5
5
5
5
5
5
5
5
5
5
5
5
5
5
5
5
5
5
5
5
5
5
5
5
5
5
5
5
5
5
5
5
5
5
5
5
5
5
5
5
5
5
5
5
5
5
5
5
5
5
5
5
5
5
5
5
5
5
5
5
5
5
5
5
5
5
5
5
5
5
5
5
5
5
5
5
5
5
5
5
5
5
5
5
5
5
5
5
5
5
5
5
5
5
5
5
5
5
5
5
5
5
5
5
5
5
5
5
5
5
5
5
5
5
5
5
5
5
5
5
5
5
5
5
5
5
5
5
5
5
5
5
5
5
5
5
5
5
5
5
5
5
5
5
5
5
5
5
5
5
5
5
5
5
5
5
5
5
5
5
5
5
5
5
5
5
5
5
5
5
5
5
5
5
5
5
5
5
5
5
5
5
5
5
5
5
5
5
5
5
5
5
5
5
5
5
5
5
5
5
5
5
5
5
5
5
5
5
5
5
5
5
5
5
5
5
5
5
5
5
5
5
5
5
5
5
5
5
5
5
5
5
5
5
5
5
5
5
5
5
5
5
5
5
5
5
5
5
5
5
5
5
5
5
5
5
5
5
5
5
5
5
5
5
5
5
5
5
5
5
5
5
5
5
5
5
5
5
5
5
5
5
5
5
5
5
5
5
5
5
5
5
5
5
5
5
5
5
5
5
5
5
5
5
5
5
5
5
5
5
5
5
5
5
5
5
5
5
5
5
5
5
5
5
5
5
5
5
5
5
5
5
5
5
5
5
5
5
5
5
5
5
5
5
5
5
5
5
5
5
5
5
5
5
5
5
5
5
5
5
5
5
5
5
5
5
5
5
5
5
5
5
5
5
5
5
5
5
5
5
5
5
5
5
5
5
5
5
5
5
5
5
5
5
5
5
5
5
5
5
5
5
5
5
5
5
5
5
5
5
5
5
5
5
5
5
5
5
5

CELL_DATA 494
SCALARS cell_data_0 double
LOOKUP_TABLE default
1.9928526638e-06
5.22602971872e-07
1.80388716169e-06
9.96630731442e-07
4.73693174427e-07
9.55296705631e-07
1.08770479377e-06
3.69203647214e-06
2.3946608776e-06
8.97618479826e-07
2.73813543695e-06
5.65361267613e-07
1.18875106484e-06
3.69603809677e-07
1.33904118839e-08
3.59782474936e-08
8.32482157468e-07
1.22731287837e-06
1.7721053395e-07
4.20610624303e-08
4.52264604511e-07
2.12177152363e-06
1.42202105562e-06
1.46848433062e-07
1.55753527364e-06
1.77307478716e-06
8.74352806355e-07
2.61700669481e-06
2.06400931929e-06
2.92131612581e-06
1.24107679036e-06
1.99931635922e-07
1.3564112321e-06
2.70911267128e-08
7.05146534616e-07
3.45166419454e-07
1.79063055745e-06
1.51148472786e-08
2.61174578718e-07
1.94952416469e-06
3.97078248989e-07
1.48246874351e-06
9.80756015126e-07
1.66059981483e-06
1.50133674844e-07
6.70635292672e-08
1.1951662311e-06
2.45049270181e-06
5.96519003216e-07
1.22738340679e-06
6.19001951583e-07
2.46150046153e-07
1.59729157837e-06
6.59123607179e-07
1.55746086966e-06
2.6008682262e-07
1.55585520955e-07
5.17483021401e-07
1.58335619776e-07
1.77984251435e-06
1.01036709522e-06
1.53135594894e-06
8.45919794799e-08
4.12344756614e-07
1.29624705264e-06
5.66388548437e-07
3.25951132356e-07
3.56689383286e-06
1.04141711377e-06
2.89066779549e-07
1.55208849215e-06
6.25027166916e-07
4.55742725073e-06
2.63824442763e-06
2.55639575412e-06
2.11312809883e-07
9.57521410608e-07
1.00386919165e-06
1.04097620756e-06
1.34407055061e-06
9.5096902556e-07
2.6008273571e-07
1.42396916007e-06
2.41856454912e-06
1.20791506647e-06
5.38886227411e-07
7.32719340986e-07
1.43222887858e-06
6.4212970835e-07
1.47903408348e-06
1.5205996579e-06
3.77478694691e-08
1.56570303363e-06
2.61029777865e-06
2.2490183105e-06
7.11848140405e-08
1.86488411732e-06
1.33605369866e-06
1.51607237088e-06
6.39907996615e-07
1.15914761063e-06
1.29833804249e-06
1.44720395596e-06
2.54335345766e-07
5.38799660555e-07
1.39811147861e-06
1.81002254283e-06
5.28866580894e-07
1.7113725143e-06
1.1202830066e-06
2.85512224872e-07
3.94283265659e-07
1.09837449045e-06
1.86840725212e-06
2.01763797967e-06
3.27423049395e-07
1.00492573042e-06
1.36229896692e-06
8.49646674986e-07
2.1510513622e-06
1.33123926731e-06
1.99470966778e-07
1.01175609787e-06
2.22939080679e-06
6.21465780527e-07
2.08491735055e-06
8.57475539334e-07
1.08625422581e-06
1.45005712769e-06
6.53505958304e-07
1.79326974533e-07
8.46889847412e-07
1.99005175395e-07
4.15741968731e-07
9.32524714021e-07
8.88764949986e-07
6.57619413869e-08
3.34404292832e-07
7.52198150024e-07
1.16725345432e-06
1.26982930398e-06
5.0254787869e-07
4.86365309818e-07
1.4890143412e-06
3.65239843769e-07
3.17004914459e-07
4.03794543847e-07
2.25945655588e-07
5.62541337192e-07
7.95138553578e-08
4.941856936e-07
1.41629213251e-07
6.48059916442e-08
3.56246899142e-08
5.91295876157e-07
5.63399539503e-07
5.96955657457e-07
4.20144003016e-07
1.40170063141e-07
5.53192450714e-07
6.75288425254e-07
1.29657645491e-07
1.51599451217e-08
6.75298803336e-07
5.56602973346e-09
1.85755666995e-07
3.91217311811e-07
4.32102919231e-07
2.41668459953e-07
4.18834611579e-07
6.76069027028e-07
6.72583562249e-07
7.73535365754e-08
6.11585895059e-08
5.32596580244e-07
5.48747709242e-07
7.44085898645e-08
4.06771731594e-07
5.68614530145e-07
1.34647236749e-07
1.25063194304e-06
9.75930594289e-07
9.6504216545e-07
3.21066914096e-07
3.73011611616e-07
9.3268401797e-07
9.90653627589e-07
2.51105304288e-07
4.1303710823e-07
9.41695174815e-07
7.81221339098e-07
3.37064903256e-08
1.32271626545e-07
1.1972741524e-07
2.26349317066e-07
6.73702615931e-07
4.87454026349e-07
6.10634044426e-07
5.07887803197e-09
4.02223883228e-08
3.93622185716e-07
4.67393991201e-07
2.86789482529e-07
5.16372332525e-07
1.82501695723e-07
6.13629245229e-07
1.27011921627e-07
6.95400885207e-07
8.4258470916e-07
1.47569824761e-07
8.05184024206e-07
7.1323487064e-07
5.34494099231e-07
1.29576303534e-07
2.7991029235e-06
7.24712423552e-07
6.03629994399e-07
2.07456980311e-06
8.90885183824e-07
8.53405499648e-08
8.06664277977e-08
3.57321372688e-08
5.87107991867e-07
8.03622198402e-07
8.25021558218e-07
4.64100416365e-07
1.51296335799e-07
1.98064550191e-07
9.55356787523e-07
5.18243722718e-07
1.20234777148e-07
3.56641160595e-08
2.82450155959e-07
9.01787831739e-07
1.52006894228e-06
5.48782687693e-07
4.59410852228e-07
7.34942179211e-07
7.43688101806e-07
1.80529495253e-07
1.01889794633e-07
1.27788727505e-06
1.27624345185e-06
7.2569189789e-10
5.36759263456e-07
8.56900598477e-07
6.95775623511e-07
5.41576203167e-08
1.30130359811e-06
9.2569794133e-07
1.07858879564e-07
5.39365657563e-07
5.0267468912e-07
4.7102481447e-07
8.54735847409e-07
3.49189683833e-07
5.251213425e-07
6.01237261194e-07
3.20420263302e-07
7.34449450777e-08
8.85430362275e-09
1.66472104601e-07
2.91423388885e-07
3.65077957117e-07
1.18356091713e-07
3.20824215148e-07
1.97357020438e-07
2.77515237207e-07
1.16929331139e-06
2.07059299321e-07
7.99320300667e-09
3.99303525779e-08
8.3265534992e-08
3.1492170244e-07
4.65222126752e-07
4.26471831117e-07
4.80379109075e-07
3.0631126803e-07
1.98247330545e-07
2.95780159885e-07
1.62572263926e-06
4.44617857684e-07
6.40273243016e-07
5.0295154257e-07
6.35201692459e-07
2.11587746583e-07
4.20812702808e-07
6.13643004331e-07
1.2158746413e-06
5.14408845102e-07
1.17873172768e-07
7.57467594636e-07
2.42475459011e-07
3.410131253e-07
2.21050066206e-07
6.78248067162e-07
5.97129593607e-07
8.04149084176e-07
4.53656606498e-07
9.72843240454e-08
1.04707885268e-06
6.58668007636e-07
9.12443039746e-07
9.19711482063e-07
8.56510470404e-07
5.88304213229e-07
5.18127229429e-07
5.929200011e-07
3.31814772461e-07
7.17751647393e-07
6.03597771598e-07
5.65611441532e-07
1.75276317357e-07
3.36590917277e-07
3.09736363818e-07
1.8237611426e-07
7.04179689346e-07
5.66497493375e-07
4.49093105045e-07
8.36569981274e-08
2.75083101586e-07
2.92249542091e-07
1.09716081628e-06
1.0186019252e-06
5.36433020026e-07
1.08179049098e-06
1.12668540714e-06
2.98064587956e-07
1.7008478032e-07
3.61636341068e-07
5.75809301163e-07
1.92737960467e-07
5.42803191468e-07
9.14114617019e-07
7.66970643e-07
6.89576159258e-07
7.04288501348e-07
7.69833185898e-08
2.27340796376e-07
4.13602045424e-07
5.20435175951e-07
4.01808722852e-07
2.78379993493e-07
6.13932594993e-07
7.79769210854e-08
6.43656911151e-07
8.31525924215e-07
1.79319880646e-07
6.54178729335e-07
3.09676547271e-08
6.5435040157e-08
1.87430179648e-07
1.19228575022e-06
6.16764489907e-07
5.70301825683e-07
1.67626135413e-07
7.28396400647e-07
3.18592634051e-07
2.46521453573e-07
3.0616420562e-07
4.94638725975e-07
1.05505949526e-07
4.37943708411e-07
3.92445101731e-07
2.64464173259e-07
9.50947073107e-07
1.11190606173e-06
7.4621656838e-07
5.21043891465e-07
5.37956754535e-07
5.4511419694e-07
9.41045749882e-07
6.91097574373e-07
6.68403368655e-09
4.58854872796e-07
4.26823568956e-08
5.15587362929e-07
5.82316202481e-07
6.38600471634e-07
5.01163993244e-07
1.16500454446e-07
1.70106851219e-06
5.07296283147e-07
9.46601159944e-08
3.54299170569e-08
4.34863969026e-07
3.92627652333e-07
4.00087018251e-07
2.08386244772e-07
5.74837264665e-07
1.72640523667e-07
2.06796190748e-07
6.54275119769e-08
1.76413127068e-07
2.33153979222e-08
1.00027067319e-06
5.39140784758e-07
2.68956827519e-07
2.25589676875e-07
2.6966054384e-07
2.35253648704e-07
1.10896782894e-07
8.31584041012e-07
2.80465359719e-07
1.35518000377e-07
4.0882886269e-07
1.71566136634e-07
4.58555541517e-08
8.14130443225e-07
5.90196665085e-07
8.3397438657e-07
1.80249081939e-07
1.9402341367e-07
9.52329878648e-07
8.94744747325e-07
8.93024522756e-07
1.07705307186e-06
9.60474809512e-07
9.83826995833e-08
1.78032335935e-07
9.69458565277e-07
1.96178673949e-07
1.97183114141e-07
4.68273992577e-07
3.23359531017e-08
1.23847097721e-07
1.8569081842e-08
6.47100886309e-07
2.79795860855e-07
1.1979303376e-06
1.12348985969e-06
6.67704484238e-07
1.4628424553e-07
1.66728161715e-07
5.60484174963e-07
2.82130713885e-07
1.18128561831e-07
8.96487502153e-08
2.35252814435e-07
7.08094690629e-07
1.42909842986e-07
1.16805715188e-07
1.5272118865e-07
5.39868413302e-07
5.07614767429e-08
3.94520202023e-07
1.59319166991e-06
2.74759570105e-06
9.42319013992e-07
1.9973264158e-07
4.41128360564e-07
4.79763602056e-07
1.3116506007e-06
1.21823297153e-06
9.44118557669e-07
3.93732581079e-08
1.9636577037e-07
2.06139819032e-07
1.53392110097e-09
5.97386308173e-07
3.85458218679e-07
8.94859151185e-08
6.64987560882e-07
3.96292266931e-07
1.11916157193e-06
7.43927974031e-08
4.96403696386e-07
2.4598657439e-07
9.11040588889e-08
2.75554957481e-07
6.51999814532e-07
8.09115006257e-07
2.07833277117e-07
4.44806991422e-07
1.1201029601e-06
3.62920557098e-07
3.58648132571e-07
2.18765054971e-07
4.95080713614e-07
6.03182729892e-07
6.45910453022e-08
3.37917527427e-08
4.87254541126e-07
1.28650379193e-08
9.99558974707e-07
1.58399429325e-07
1.09632481751e-07
4.72686695373e-07
4.86148151138e-07
3.17022609838e-07
5.50363091022e-08
8.01531223171e-07
1.39634276758e-07
6.84576974719e-07

