# vtk DataFile Version 3.0
File Name: Molecule/sphere/sphere_0-s2.vtk
ASCII
DATASET UNSTRUCTURED_GRID
FIELD FieldData 1
TIME 1 1 double
0.0
POINTS 18 double
0.0 0.850650808352 0.525731112119
0.0 0.850650808352 -0.525731112119
-0.850650808352 0.525731112119 0.0
-0.525731112119 0.0 0.850650808352
0.525731112119 0.0 0.850650808352
0.0 -0.850650808352 0.525731112119
0.850650808352 -0.525731112119 0.0
0.850650808352 0.525731112119 0.0
-0.525731112119 0.0 -0.850650808352
-0.850650808352 -0.525731112119 0.0
0.0 -0.850650808352 -0.525731112119
0.525731112119 0.0 -0.850650808352
0.309016994375 -0.5 -0.809016994375
0.0 0.0 -1.0
-0.309016994375 -0.5 -0.809016994375
0.809016994375 0.309016994375 -0.5
0.5 0.809016994375 -0.309016994375
0.309016994375 0.5 -0.809016994375

CELLS 32 128
3 0 1 2
3 0 2 3
3 0 3 4
3 3 5 4
3 4 5 6
3 6 7 4
3 7 0 4
3 8 9 2
3 1 8 2
3 9 10 5
3 9 5 3
3 3 2 9
3 10 6 5
3 11 12 13
3 12 14 13
3 12 10 14
3 13 14 8
3 8 14 9
3 14 10 9
3 10 12 6
3 11 12 6
3 13 8 1
3 11 15 6
3 6 15 7
3 7 15 16
3 15 17 16
3 15 11 17
3 16 17 1
3 7 16 0
3 16 1 0
3 1 17 13
3 11 17 13

CELL_TYPES 32
5
5
5
5
5
5
5
5
5
5
5
5
5
5
5
5
5
5
5
5
5
5
5
5
5
5
5
5
5
5
5
5

CELL_DATA 32
SCALARS cell_data_0 double
LOOKUP_TABLE default
9.30383735437e-07
0.000120983621535
0.00106185943184
0.000887666130115
0.000372467531408
0.000425529008397
8.58022919226e-05
5.65219525635e-06
2.12511378852e-05
0.00120294488838
0.000183863889287
7.07033306915e-05
0.00115283665474
1.30134720711e-05
5.55086521421e-07
0.000364126147262
2.10756368176e-06
2.00537091892e-06
0.000629625653727
0.000602740392801
6.26505585797e-06
1.42727809022e-05
3.84392509973e-06
3.12713336499e-05
2.69116057928e-06
2.71070314513e-06
3.40722174131e-06
2.48479860179e-07
4.8481271472e-05
1.10035248572e-05
8.28188561476e-06
1.49139895918e-06

