# vtk DataFile Version 3.0
File Name: Molecule/sphere_dip_12/sphere_dip_12_0-s4.vtk
ASCII
DATASET UNSTRUCTURED_GRID
FIELD FieldData 1
TIME 1 1 double
0.0
POINTS 406 double
0.850650808352 0.525731112119 0.0
0.5 0.809016994375 -0.309016994375
0.5 0.809016994375 0.309016994375
-0.25 0.904508497187 -0.154508497188
-0.5 0.809016994375 0.0
-0.25 0.904508497187 0.154508497188
-0.5 0.809016994375 -0.309016994375
0.0 0.850650808352 -0.525731112119
0.0 1.0 0.0
0.154508497188 -0.675325404176 0.667374053247
0.0 -0.850650808352 0.525731112119
0.25 -0.829833901363 0.417374053247
0.809016994375 0.0 -0.5
0.809016994375 0.309016994375 -0.5
1.0 0.0 0.0
0.809016994375 -0.309016994375 -0.5
0.667374053247 -0.154508497188 -0.675325404176
0.667374053247 0.154508497188 -0.675325404176
0.654508497187 0.559016994375 -0.404508497188
0.559016994375 0.404508497188 -0.654508497187
0.404508497188 0.654508497187 -0.559016994375
0.309016994375 0.5 -0.809016994375
0.25 0.829833901363 -0.417374053247
0.154508497188 0.675325404176 -0.667374053247
-0.309016994375 0.5 0.809016994375
-0.154508497188 0.25 0.904508497187
0.0 0.5 0.809016994375
0.154508497188 0.25 0.904508497187
0.0 0.0 1.0
0.309016994375 0.5 0.809016994375
-0.417374053247 0.25 0.829833901363
-0.26286555606 0.0 0.925325404176
-0.525731112119 0.0 0.850650808352
0.417374053247 0.25 0.829833901363
0.26286555606 0.0 0.925325404176
-0.417374053247 -0.25 0.829833901363
-0.154508497188 -0.25 0.904508497187
-0.904508497187 -0.154508497188 -0.25
-0.904508497187 0.154508497188 -0.25
-0.809016994375 0.0 -0.5
-1.0 0.0 0.0
-0.809016994375 -0.309016994375 -0.5
-0.829833901363 -0.417374053247 -0.25
-0.925325404176 -0.26286555606 0.0
-0.850650808352 -0.525731112119 0.0
-0.809016994375 0.309016994375 -0.5
-0.829833901363 0.417374053247 -0.25
-0.925325404176 0.26286555606 0.0
-0.850650808352 0.525731112119 0.0
-0.154508497188 0.675325404176 -0.667374053247
-0.25 0.829833901363 -0.417374053247
-0.404508497188 0.654508497187 -0.559016994375
-0.559016994375 0.404508497188 -0.654508497187
-0.654508497187 0.559016994375 -0.404508497188
-0.675325404176 0.667374053247 -0.154508497188
-0.675325404176 -0.667374053247 -0.154508497188
-0.675325404176 -0.667374053247 0.154508497188
-0.5 -0.809016994375 0.0
-0.5 -0.809016994375 0.309016994375
-0.25 -0.904508497187 0.154508497188
-0.25 -0.829833901363 0.417374053247
0.0 -0.925325404176 0.26286555606
-0.829833901363 -0.417374053247 0.25
-0.654508497187 -0.559016994375 0.404508497188
-0.404508497188 -0.654508497187 0.559016994375
-0.309016994375 -0.5 0.809016994375
-0.559016994375 -0.404508497188 0.654508497187
-0.154508497188 -0.675325404176 0.667374053247
-0.667374053247 -0.154508497188 0.675325404176
-0.829833901363 0.417374053247 0.25
-0.904508497187 0.154508497188 0.25
-0.904508497187 -0.154508497188 0.25
-0.154508497188 -0.675325404176 -0.667374053247
-0.25 -0.829833901363 -0.417374053247
-0.404508497188 -0.654508497187 -0.559016994375
0.0 -0.850650808352 -0.525731112119
-0.654508497187 -0.559016994375 -0.404508497188
0.25 -0.829833901363 -0.417374053247
0.0 -0.925325404176 -0.26286555606
0.5 -0.809016994375 -0.309016994375
0.25 -0.904508497187 -0.154508497188
0.404508497188 -0.654508497187 -0.559016994375
0.154508497188 -0.675325404176 -0.667374053247
0.471552582683 0.125 -0.840242354857
0.613195523811 0.279508497188 -0.664916950682
0.417374053247 0.25 -0.829833901363
0.363195523811 0.375 -0.819425447869
-0.675325404176 0.667374053247 0.154508497188
-0.5 0.809016994375 0.309016994375
-0.731762745781 0.434016994375 0.452254248594
-0.809016994375 0.309016994375 0.5
-0.559016994375 0.404508497188 0.654508497187
-0.75257965277 0.542374053247 0.202254248594
-0.654508497187 0.559016994375 0.404508497188
-0.577254248593 0.684016994375 0.356762745782
-0.667374053247 0.154508497188 0.675325404176
-0.154508497188 0.675325404176 0.667374053247
0.208687026624 -0.125 -0.914916950682
0.077254248594 -0.125 -0.952254248593
0.13143277803 0.0 -0.962662702088
0.0 0.0 -1.0
0.0 -0.25 -0.904508497187
-0.077254248594 -0.125 -0.952254248593
0.0 -0.5 -0.809016994375
-0.13143277803 0.0 -0.962662702088
-0.208687026624 -0.125 -0.914916950682
0.840242354857 -0.471552582683 0.125
0.877579652769 -0.340119804654 0.125
0.829833901363 -0.417374053247 0.25
0.667374053247 0.154508497188 0.675325404176
0.525731112119 0.0 -0.850650808352
0.394298334089 0.0 -0.887988106264
0.340119804654 0.125 -0.877579652769
0.26286555606 0.0 -0.925325404176
0.208687026624 0.125 -0.914916950682
0.285941275218 0.25 -0.867171199275
0.154508497188 0.25 -0.904508497187
0.077254248594 0.125 -0.952254248593
0.231762745782 0.375 -0.856762745781
-0.077254248594 0.125 -0.952254248593
0.0 0.25 -0.904508497187
-0.208687026624 0.125 -0.914916950682
0.925325404176 0.26286555606 0.0
0.25 0.904508497187 0.154508497188
0.809016994375 0.309016994375 0.5
0.829833901363 0.417374053247 0.25
0.404508497188 0.654508497187 0.559016994375
0.25 0.829833901363 0.417374053247
0.154508497188 0.675325404176 0.667374053247
0.0 0.850650808352 0.525731112119
0.0 0.962662702088 0.13143277803
0.25 0.867171199276 0.285941275218
0.0 0.925325404176 0.26286555606
0.0 0.887988106264 0.394298334089
-0.125 0.840242354857 0.471552582683
-0.125 0.877579652769 0.340119804654
-0.25 0.829833901363 0.417374053247
-0.125 0.914916950682 0.208687026624
-0.25 0.867171199275 0.285941275218
-0.125 0.952254248593 0.077254248594
-0.375 0.819425447869 0.363195523811
-0.375 0.856762745781 0.231762745782
-0.077254248594 0.762988106264 0.596552582683
-0.202254248594 0.752579652769 0.542374053247
-0.327254248594 0.742171199275 0.488195523811
-0.279508497188 0.664916950682 0.613195523811
-0.404508497188 0.654508497187 0.559016994375
-0.452254248594 0.731762745781 0.434016994375
-0.606762745781 0.481762745782 0.529508497188
-0.529508497188 0.606762745781 0.481762745782
-0.481762745782 0.529508497188 0.606762745781
0.0772542485935 0.587662702088 0.738195523811
-0.0772542485935 -0.587662702088 0.738195523811
0.0 -0.5 0.809016994375
0.231762745782 -0.587662702088 0.738195523811
0.309016994375 -0.5 0.809016994375
0.363195523811 -0.375 0.819425447869
0.154508497188 -0.25 0.904508497187
0.208687026623 -0.125 0.914916950682
0.417374053247 -0.25 0.829833901363
0.525731112119 0.0 0.850650808352
0.471552582683 -0.125 0.840242354857
0.596552582683 -0.077254248594 0.762988106264
0.542374053247 -0.202254248594 0.752579652769
0.667374053247 -0.154508497188 0.675325404176
0.488195523811 -0.327254248594 0.742171199275
0.613195523811 -0.279508497188 0.664916950682
0.559016994375 -0.404508497188 0.654508497187
0.434016994375 -0.452254248594 0.731762745781
0.738195523811 -0.231762745782 0.587662702088
0.684016994375 -0.356762745782 0.577254248593
0.809016994375 -0.309016994375 0.5
0.356762745782 -0.577254248593 0.684016994375
0.481762745782 -0.529508497188 0.606762745781
0.404508497188 -0.654508497187 0.559016994375
0.529508497188 -0.606762745781 0.481762745782
0.606762745781 -0.481762745782 0.529508497188
0.654508497187 -0.559016994375 0.404508497188
0.452254248594 -0.731762745781 0.434016994375
0.577254248593 -0.684016994375 0.356762745782
0.5 -0.809016994375 0.309016994375
0.731762745781 -0.434016994375 0.452254248594
0.279508497188 -0.664916950682 0.613195523811
0.819425447869 -0.363195523811 0.375
0.742171199275 -0.488195523811 0.327254248594
0.417374053247 -0.25 -0.829833901363
0.363195523811 -0.375 -0.819425447869
0.285941275218 -0.25 -0.867171199275
0.231762745782 -0.375 -0.856762745781
0.309016994375 -0.5 -0.809016994375
0.154508497188 -0.25 -0.904508497187
0.154508497188 -0.5 -0.809016994375
0.077254248594 -0.375 -0.856762745781
-0.154508497188 -0.5 -0.809016994375
-0.077254248594 -0.375 -0.856762745781
-0.231762745782 -0.375 -0.856762745781
-0.309016994375 -0.5 -0.809016994375
-0.154508497188 -0.25 -0.904508497187
-0.285941275218 -0.25 -0.867171199275
-0.363195523811 -0.375 -0.819425447869
-0.417374053247 -0.25 -0.829833901363
-0.26286555606 0.0 -0.925325404176
-0.340119804654 -0.125 -0.877579652769
-0.394298334089 0.0 -0.887988106264
-0.471552582683 -0.125 -0.840242354857
-0.525731112119 0.0 -0.850650808352
0.925325404176 -0.26286555606 0.0
0.962662702088 -0.13143277803 0.0
0.914916950682 -0.208687026624 0.125
0.952254248593 -0.077254248594 0.125
0.904508497187 -0.154508497188 0.25
0.867171199275 -0.285941275218 0.25
0.856762745781 -0.231762745782 0.375
0.952254248593 0.077254248594 0.125
0.904508497187 0.0 0.25
0.904508497187 0.154508497188 0.25
0.856762745781 0.077254248594 0.375
0.856762745781 -0.077254248594 0.375
0.809016994375 0.0 0.5
0.856762745781 0.231762745782 0.375
0.809016994375 0.154508497188 0.5
0.809016994375 -0.154508497188 0.5
0.87757965277 0.340119804654 0.125
0.738195523811 -0.077254248594 0.587662702088
0.738195523811 0.077254248594 0.587662702088
0.667374053247 0.0 0.675325404176
0.738195523811 0.231762745782 0.587662702088
0.596552582683 0.077254248594 0.762988106264
-0.417374053247 0.25 -0.829833901363
-0.471552582683 0.125 -0.840242354857
-0.613195523811 0.279508497188 -0.664916950682
-0.667374053247 0.154508497188 -0.675325404176
-0.667374053247 -0.154508497188 -0.675325404176
-0.613195523811 -0.279508497188 -0.664916950682
-0.154508497188 0.25 -0.904508497187
-0.231762745782 0.375 -0.856762745781
-0.077254248594 0.375 -0.856762745781
-0.154508497188 0.5 -0.809016994375
-0.309016994375 0.5 -0.809016994375
0.0 0.5 -0.809016994375
-0.340119804654 0.125 -0.877579652769
-0.285941275218 0.25 -0.867171199275
-0.363195523811 0.375 -0.819425447869
0.904508497187 -0.154508497188 -0.25
0.667374053247 0.0 -0.675325404176
0.596552582683 -0.077254248594 -0.762988106264
0.596552582683 0.077254248594 -0.762988106264
0.231762745782 0.587662702088 -0.738195523811
0.13143277803 0.0 0.962662702088
0.394298334089 0.0 0.887988106264
-0.231762745782 -0.375 0.856762745781
-0.077254248594 -0.125 0.952254248593
0.0772542485935 -0.375 0.856762745781
-0.809016994375 -0.154508497188 -0.5
-0.667374053247 0.0 -0.675325404176
-0.809016994375 0.154508497188 -0.5
[...]
CELL_DATA 805
SCALARS cell_data_0 double
LOOKUP_TABLE default
0.000164681360754
4.29474750224e-06
1.87266360374e-05
7.43638762565e-06
1.33538582032e-05
1.71877591212e-05
2.62714402642e-05
3.71773059041e-05
3.48061911265e-05
7.5548420136e-06
3.59096016254e-05
2.17199864293e-05
2.10907516181e-05
1.2548063545e-05
0.000115346711428
0.000120724762456
7.33924556222e-05
0.000216892197343
0.000157041783911
0.000263396527533
7.48537130323e-05
3.73738269454e-05
7.05599037364e-05
8.08526634462e-05
2.28023530029e-05
4.01496962475e-05
2.46305461572e-05
1.78685553132e-05
6.89226616206e-05
4.55385748379e-05
7.02665846e-05
3.48242318335e-05
2.69000662181e-05
0.000322282041597
0.000789801642917
0.000778924942974
0.000357479638556
0.000319455030077
0.000489563693342
0.000194445715
0.000524905637686
0.000586353958658
0.000850578666129
0.000476617814728
0.000896645865138
0.0005968995532
0.000321489655291
0.000648946082546
0.000818527399672
0.000241513481744
2.85412199765e-06
2.20945570909e-05
0.000645839328266
0.000699332634132
0.000205408328034
0.000313408630557
0.000650897020736
0.000765673723075
0.00060729339994
0.00123879696301
0.000893976689651
0.000727162253526
0.000340740900227
0.000232182531558
0.000150360865851
0.000175290404656
0.000190241740628
0.000353265181311
0.000663495926956
4.42045335031e-05
8.59779242694e-05
0.00026621030895
0.000282683600099
0.000148145624235
9.98401220927e-06
6.14636691801e-05
2.59207266448e-05
4.46093586388e-05
4.97222945441e-05
6.58014350851e-05
2.58314187293e-05
2.72933168081e-05
5.88700647661e-05
6.97074739667e-05
4.37786038394e-05
0.000194817705583
0.000302532109968
5.22785058912e-06
5.42105807617e-05
1.45546031134e-05
3.30397822509e-06
4.52539340378e-05
1.79324942526e-05
7.13584198258e-06
2.1519354008e-05
1.1463778574e-05
9.76047650061e-06
3.12157524449e-06
1.8236826817e-05
3.30489411664e-05
9.35108605717e-08
6.00095158259e-05
1.79835351143e-05
0.000187852568619
0.000356974045117
8.61891920713e-05
9.17652777652e-05
0.000150482092591
0.000115867736586
7.96361553299e-05
8.23194356087e-05
7.33474291127e-05
7.76265208707e-05
7.63857438308e-06
4.39675844043e-05
3.42541563738e-05
4.87313709955e-05
5.28613237935e-05
4.10636515906e-05
6.88972418559e-05
7.23575360441e-05
7.72953898598e-05
5.0640870622e-05
7.48026792675e-05
8.24379819453e-05
7.36811830282e-05
7.89277834291e-05
4.62799641792e-05
5.31545215937e-05
8.24099959019e-05
7.50520941198e-05
6.33732195281e-05
4.86268802994e-05
1.58774695778e-05
4.67480762581e-06
6.2537309167e-05
0.00013367008256
0.000119484954292
9.05957091097e-05
0.000127905928967
9.60637367044e-05
5.64957778388e-05
3.55666794918e-06
7.73423366628e-06
2.83187228469e-05
1.59452205495e-05
2.16055151832e-06
1.5899662846e-06
2.72221545165e-05
2.54771691972e-05
9.14796383631e-07
2.88194892067e-06
5.3547608611e-06
1.7385946782e-06
5.77856884918e-07
4.76389645104e-07
4.2006024331e-06
2.83287535946e-07
7.51341977602e-07
1.09897765717e-06
3.9740990808e-06
3.24197568959e-07
2.59918451471e-05
3.77740913532e-05
2.94398654883e-05
2.26991630329e-05
8.83257502327e-05
5.50850431877e-05
0.000126395059052
6.73412146134e-05
8.16047575915e-05
0.000177973758997
0.00011737856811
3.29139641698e-05
4.3180449827e-05
1.08034090587e-05
6.30266514758e-05
7.59284346423e-05
0.000113728847951
9.88879405422e-05
4.93220995095e-05
9.60318329899e-05
0.000198110142197
0.000130083549276
0.000152792134148
0.000106046359699
8.26306599897e-05
0.000133503464601
0.000177129429924
9.65933065446e-05
0.000128521090711
0.00011835538229
0.000153145197354
5.95018066556e-05
7.14860075432e-05
0.000113779154102
2.96529896659e-05
0.000307567381144
0.000315842402288
0.000172148471406
0.000168533463631
0.000172384725752
0.000268686676907
0.000119966513047
0.000136488317679
5.65832195871e-05
7.93737486418e-05
3.60126627519e-05
3.76826142981e-05
2.7259790911e-06
3.18680776566e-06
5.29458448701e-06
6.19280628047e-06
1.30675334409e-05
1.30848697618e-05
2.72681699208e-05
5.23009059822e-06
2.27301549924e-06
2.74542337479e-06
3.32484104232e-06
1.43035358106e-05
1.4224340401e-06
5.57668014918e-06
3.55990491443e-06
5.24242204982e-06
3.49042831912e-06
4.04410986827e-06
3.00000554439e-06
4.75068528387e-06
1.13477788755e-06
2.71602718063e-07
1.61570593637e-05
1.41696401893e-06
2.92852811167e-06
1.11672391126e-06
1.34627260321e-06
1.96520602621e-05
2.36665269862e-05
1.35538837435e-05
2.08710572442e-05
2.14039068732e-06
2.56897195247e-06
3.14309030684e-06
2.40447913393e-05
3.16874513972e-07
1.76003897904e-05
5.60975773519e-08
6.94480641567e-07
5.06837773865e-08
3.4872570168e-05
4.18085794911e-05
3.29386291561e-05
5.30685413885e-05
4.14943579019e-05
6.04161012787e-05
5.28637642996e-05
7.28455107382e-05
5.17277422159e-05
5.74482918306e-05
3.52975395054e-05
7.41782381639e-05
5.37188152908e-05
2.47628711557e-05
1.50104324004e-05
3.95113930148e-05
5.6824604178e-05
4.46072999033e-05
4.54213380983e-05
2.93907589887e-05
0.000112832633533
0.000223250452982
0.000159785657889
0.000107655288196
2.07600501901e-05
3.45452569981e-05
3.55421635929e-05
3.25353200497e-05
0.000141040549241
0.000257049643353
0.000122116057039
0.000166815324587
0.000158917272235
0.000221306344622
9.81771214828e-05
0.000101925502214
6.49870377035e-05
0.000100814231653
2.90201695139e-05
9.23548882028e-05
3.82900110701e-05
6.94202854006e-05
4.64769485711e-05
7.17407186814e-05
1.48170000717e-05
4.03964096598e-05
3.74042763635e-05
3.51371110104e-05
3.6401625915e-05
0.00011284631901
0.000106059048728
7.54840409086e-05
3.77155185126e-05
2.9505667347e-05
3.09769357478e-05
1.02653527508e-05
2.77528717506e-05
3.70832915108e-05
3.43701236736e-05
1.69040466127e-05
3.20568243148e-05
4.5461183009e-05
3.15000232851e-05
3.88019649914e-05
2.9211545617e-05
5.41329419021e-05
3.77794401933e-05
4.3379350729e-05
0.000109102412498
7.48060240883e-05
7.38927772838e-05
4.52551191361e-05
5.4220948303e-05
6.29335256525e-06
4.28446770305e-05
3.02996697927e-05
5.86300365767e-05
5.93428674344e-06
5.85561088607e-05
5.27923034571e-05
4.2389962801e-05
4.82838580539e-05
5.31825992798e-05
5.65447538588e-05
3.76428226219e-05
5.26195290699e-05
4.79599856729e-05
3.88130444323e-05
3.16973665474e-05
3.09146565696e-05
5.88761573847e-06
1.60043625229e-06
3.55402653191e-05
3.1997415456e-05
2.12149266192e-05
2.4775364228e-05
2.09360906969e-05
1.91239971329e-05
2.06893003209e-05
1.70104279554e-05
3.0681552212e-05
4.14326195367e-05
2.60251293309e-05
1.61093621487e-05
7.50382355013e-07
2.46682600396e-05
3.65785330444e-05
2.84367581368e-05
3.19839532694e-05
2.82610697948e-05
4.26682084895e-05
8.70172002104e-05
9.432273169e-05
4.35815069432e-05
3.46123938241e-05
0.000119497699537
8.94268149603e-06
3.00134165949e-05
2.83506912234e-05
3.71267669662e-05
3.81863536111e-05
2.45252600736e-05
2.69543619388e-05
1.32590346404e-05
1.79000217303e-05
1.1334900068e-06
4.4886992411e-06
2.0038451876e-05
0.000124676947716
7.47694251431e-06
1.3119401652e-05
9.89602697428e-05
0.000287567011581
0.000167977829543
4.39294950227e-06
2.11531667999e-07
2.34748803498e-06
3.17643057433e-06
4.54172413153e-07
8.74885122098e-07
1.00566830408e-07
2.85391482333e-06
1.01804125615e-05
5.0995871538e-07
8.25656595273e-06
5.29196093158e-08
4.1489887924e-05
3.39772106474e-06
1.33234576956e-05
2.94190549102e-06
1.43000510699e-05
4.07777201321e-05
2.04960071973e-05
0.000103151064425
9.6471565167e-07
3.70231115259e-06
3.79706025003e-05
7.1501735684e-06
3.27401357877e-05
5.64576441268e-06
3.80305773019e-05
4.92386184091e-06
7.7219793943e-05
6.73449616535e-05
1.00169123811e-05
6.29026499318e-07
4.36279767749e-05
9.27408456271e-06
0.000292903592165
0.000343925035711
3.50347290051e-05
1.8236042477e-06
1.06171575894e-05
5.01999844837e-05
0.000140183922373
0.000106068608365
5.81861466794e-05
7.72368301909e-07
7.14321179408e-05
1.12485110512e-06
0.000277231393608
0.000289155289861
8.10479250223e-05
1.09258153824e-05
0.000108570720035
1.22245343961e-05
2.89447031465e-05
4.75315279916e-05
0.000120134382961
0.000136425953587
0.000169756658925
0.000155610300431
1.12464022501e-05
0.000181274744476
8.87728227092e-06
1.67820663132e-05
6.00946777843e-06
0.000111830958571
2.8804462754e-06
4.96803916011e-06
1.04031468278e-05
2.88443888007e-06
0.000124158222729
2.06002692017e-05
5.10807439402e-06
1.34506530087e-05
1.02183629269e-05
3.18013902073e-06
1.5498781892e-06
2.18833634004e-06
2.36439716283e-07
2.838783483e-07
1.53907872281e-07
3.92768844998e-07
1.52051351777e-05
1.50696470904e-05
8.46626418989e-07
6.02363561504e-07
7.59110327092e-07
6.76973348889e-07
5.51235675804e-06
1.7583131145e-05
1.41334866144e-06
5.09619984031e-07
6.45307326836e-09
5.59670358297e-05
0.000331838046983
0.000137893187007
1.57957443745e-05
1.71386607575e-05
1.76318120551e-05
1.94661112511e-05
3.59712741426e-05
3.03494202264e-05
5.30920004659e-06
1.09563525847e-05
1.53092006418e-05
3.03929764541e-05
3.2267986751e-05
4.12460293064e-05
5.37553716811e-05
1.1261232514e-05
0.000169381161335
0.000192972664996
1.63989597305e-05
2.05940934806e-05
9.85322036889e-06
8.40084245352e-06
6.19884638045e-06
0.000116313270853
6.6582078708e-05
1.07604388623e-05
9.68333794731e-06
8.41092569704e-06
5.27704847624e-06
1.16283046736e-06
2.34131542908e-06
4.31907349417e-06
1.03913252026e-06
3.18406989122e-05
1.01235583748e-06
5.174996157e-06
3.02306502196e-06
1.46811930944e-05
1.77825087258e-05
2.90979522943e-05
3.49755884795e-05
3.743200946e-05
2.44192727553e-05
1.16338111181e-05
1.89362558874e-05
1.88376525258e-05
1.90012495829e-05
1.99285107301e-05
5.36111849396e-07
5.15727266185e-06
3.97380319382e-06
5.97258481639e-06
2.85345097726e-06
1.3076881854e-06
4.26586217037e-07
4.73685251911e-06
5.27174410801e-07
2.69210963155e-06
3.07622782284e-06
2.59825208388e-07
4.20676125018e-06
2.08856342e-06
8.93210388441e-07
3.05474137382e-07
3.70631421669e-05
3.47501553198e-05
5.3546297168e-05
4.65566429578e-05
3.6396705213e-06
5.92047894545e-05
2.97165956944e-06
3.29263361593e-06
4.91037631175e-06
5.92333364506e-07
4.66545477719e-07
7.25298151369e-07
8.40277796797e-08
2.19593849442e-06
1.03841583096e-06
2.01829990848e-06
8.07665160639e-07
2.06485213888e-06
1.89858334653e-06
1.17584566747e-06
2.16236468035e-07
2.84896902493e-07
1.56378534585e-07
5.04560077274e-07
1.75109956445e-07
1.59454014171e-06
2.40825044726e-05
2.6181400895e-05
7.0408814679e-05
9.90278984391e-05
8.17873650178e-05
6.77500037494e-05
4.54860303522e-05
4.25587376037e-05
4.14251898261e-05
2.25473583207e-05
8.08500609442e-05
7.82273210426e-05
0.000360590013516
0.00043607621817
1.57618195034e-05
6.54967321642e-06
1.52337518502e-05
1.0638212326e-05
1.38696103847e-05
3.83368113945e-06
1.80778526096e-05
1.03415802317e-05
4.10970271137e-07
5.63107053063e-07
8.91473882236e-07
8.84393681387e-07
7.51079897332e-07
5.8305286893e-07
6.41102265289e-07
3.00823133998e-08
7.07512847283e-06
1.14316796812e-07
1.87430008418e-06
1.85963445143e-07
9.98484589753e-07
6.48971792175e-07
1.90933237768e-06
1.36713694035e-07
6.85656267721e-07
4.80742245283e-07
3.02291747953e-07
4.50808146064e-07
3.93742271626e-07
1.24379191381e-07
1.39028459794e-06
1.32375531652e-06
4.13877522093e-07
1.45223642931e-07
4.5223320618e-08
1.34896562497e-06
1.1923484025e-06
1.33833703463e-05
1.76611969312e-05
1.42601079527e-05
5.18854778582e-05
5.92705455513e-05
1.84553996814e-05
3.73031686979e-05
3.84194985972e-05
2.64273341824e-05
3.12790775073e-05
2.64911590158e-05
1.82649499811e-05
2.88210544806e-06
2.74537348178e-05
3.30875513223e-05
4.11889105567e-05
4.41155982293e-05
4.79584123215e-05
4.72073197842e-05
4.97963080401e-05
3.22766101856e-05
3.90486698025e-05
3.20878929246e-05
3.29345578903e-05
2.85111235751e-05
3.35866190677e-05
5.05119905861e-05
5.71214249775e-05
6.8103196726e-05
6.74431692724e-05
5.40891353651e-05
6.14740007008e-05
5.6387995985e-05
5.73652063363e-05
4.94528284877e-05
4.47301059541e-05
4.86190859889e-05
4.45984445689e-05
3.94530107287e-05
3.70816485481e-05
3.44442614941e-05
4.17515028678e-05
2.55065158319e-05
2.70211228981e-05
3.03330635387e-05
4.2106239533e-05
3.30300031938e-05
5.03437263095e-07
1.88705369529e-07
4.42668295405e-07
1.27391822789e-06
1.50804121365e-07
6.2840463818e-08
5.62366793806e-07
1.44500885851e-06
2.58677963098e-07
2.55540510038e-08
5.62706953527e-07
4.25076673036e-07
1.09412210755e-05
2.6367337023e-05
1.28343390587e-05
2.59469139378e-05
3.14829274558e-05
3.15197035437e-05
1.24474896885e-05
1.58015001252e-05
6.24916490406e-06
3.4215044794e-05
7.01026333083e-06
1.42845862961e-05
3.30701751138e-05
2.53793601001e-05
2.8107256847e-05
2.50852333204e-05
2.06888688083e-05
2.69210576108e-05
1.34264674963e-05
2.51818938025e-05
2.38550177927e-05
3.50394693326e-05
3.147195129e-05
1.69891804063e-05
2.06827654584e-05
5.81303516963e-07
2.9942717718e-05
2.88031904637e-05
3.5668179441e-05
2.10243440949e-07
3.36239095729e-06
2.15155496122e-07
1.70044392224e-06
4.04384569151e-07
3.00880652858e-06
9.327015604e-08
1.09156324874e-07
1.73159522403e-06
2.57737902865e-07
1.37460310937e-07
1.37291020465e-06
1.05443059516e-06
2.24623247485e-06
9.78654440502e-07
1.16828726585e-06
9.65155745064e-07
1.35678225676e-06
2.33425466969e-07
2.02360731901e-06
2.71478216918e-07
1.52137607342e-06
1.0050849282e-07
2.82873630561e-07
2.50699751226e-06
8.5431934846e-07
1.06423292137e-06
2.28547471033e-06
7.94598328463e-06
1.01936584206e-05
2.48057226455e-06
2.11108273442e-06
2.3497142081e-08
2.34801226598e-05
2.11857685917e-05
9.87961166348e-05
1.55935916478e-06
9.6656157757e-08
6.94120532141e-07
5.11248105445e-05
8.19471916701e-06
1.3924632274e-05
3.8356426958e-05
3.44014032817e-05
2.71246376994e-05
2.13235224868e-05
2.06234143154e-05
2.41161653693e-06
8.64557637787e-06
2.09525652802e-05
4.19484009181e-06
3.78395875337e-05
6.35091959623e-06
3.10829596976e-05
2.83051979129e-05
1.68032803984e-05
8.15970037564e-06
4.61879452221e-05
5.70807377368e-05
5.83448164927e-05
4.91898332998e-05
2.89271505559e-05
3.67247217917e-07
4.28709971043e-05
1.61087260993e-05
2.88279803122e-05
2.51969629442e-05
4.28564254675e-05
3.91707795597e-05
7.18909889793e-07
1.05602760542e-06
1.55016588825e-05
1.22347573289e-05
1.5108553424e-05
7.73362425396e-07
1.87651916794e-05
2.44572508626e-05
4.00528069027e-05
4.2013342499e-05
4.32511044301e-05
3.73662108146e-05
3.35151433203e-05
2.5346921745e-05
3.34267809677e-05
2.54512304232e-05
2.56140761942e-05
2.57556493297e-05
3.35975432354e-05
3.83550046966e-05
2.47411344755e-06
3.86266699226e-05
2.00116386349e-05
1.58031056473e-05
1.24092431204e-05
1.3220417867e-05
3.22502965929e-05
2.88957716964e-05
3.47883899907e-05
3.24430647925e-05
3.86241492506e-05
0.000107332706837

