# vtk DataFile Version 3.0
File Name: Molecule/sphere_excent/sphere_excent_0-s2.vtk
ASCII
DATASET UNSTRUCTURED_GRID
FIELD FieldData 1
TIME 1 1 double
0.0
POINTS 162 double
0.85065078735 -0.52573114634 -2.2690307411e-09
0.86284852028 -0.43502771854 -0.25720086694
0.9610838294 -0.27609294653 6.5552689193e-05
0.95103728771 -0.15983994305 -0.26447436213
0.80900675058 -0.30901306868 -0.49999368191
0.99998736382 -2.1392114746e-09 3.7592252511e-07
0.85227286816 7.5050862506e-05 -0.5230628252
0.95103538036 0.15986897051 -0.26445966959
0.80900639296 0.30901372433 -0.49999392033
0.69232952595 -0.15888024867 -0.70380908251
0.69228124619 0.15892602503 -0.70384633541
0.52573114634 6.9694121585e-09 -0.85065078735
0.96110725403 0.2760129869 -0.00013291853247
0.86287927628 0.43496111035 -0.25721418858
0.85065078735 0.52573114634 9.4334930978e-09
0.7038872242 0.69224691391 -0.158892259
0.6865593791 0.58777433634 -0.42793032527
0.4999935329 0.8090069294 -0.30901280046
0.58772903681 0.42793554068 -0.68659424782
0.42790490389 0.6865748167 -0.58777350187
0.30901244283 0.49999344349 -0.80900716782
0.43506920338 0.25725007057 -0.86281388998
0.25729557872 0.8627782464 -0.43511259556
0.15903243423 0.7038872242 -0.69221556187
-2.7318694862e-08 0.85065078735 -0.52573108673
0.7039270997 0.69218200445 0.15899884701
0.52310281992 0.85224997997 5.5912382777e-06
0.49999383092 0.80900657177 0.3090133965
0.26442581415 0.95105183125 -0.15982925892
0.26445877552 0.95103603601 0.1598662585
-7.919167615e-07 0.99998736382 1.0191691935e-09
6.7304055847e-05 0.96109968424 -0.27603980899
0.25721335411 0.86291128397 0.43489730358
6.5256703238e-05 0.96110153198 0.27603414655
-1.9061672241e-09 0.85065078735 0.52573108673
-0.25719627738 0.86281889677 0.4350899756
-0.26447758079 0.95103561878 0.15984281898
-0.49999377131 0.80900651217 0.3090134263
-0.26451176405 0.95101934671 -0.15988013148
-0.52313023806 0.852232337 -1.429183726e-06
-0.49999392033 0.80900639296 -0.30901372433
-0.25720927119 0.86287969351 -0.4349630177
-0.70381170511 0.69232594967 0.15888437629
-0.70384687185 0.69228082895 -0.1589268446
-0.85065078735 0.52573108673 -3.5719802671e-09
-0.15889012814 0.70388561487 0.69224923849
-0.42793160677 0.68655598164 0.58777719736
-0.30901280046 0.4999935329 0.8090069294
-0.68659418821 0.58773076534 0.42793342471
-0.58777356148 0.42790478468 0.6865748167
-0.80900710821 0.30901247263 0.49999347329
-0.86281329393 0.43507045507 0.25724977255
-0.43511256576 0.25729554892 0.86277830601
-0.69221556187 0.15903241932 0.7038872242
-0.52573108673 -2.7903437783e-08 0.85065078735
0.15893273056 0.70392453671 0.69220006466
3.089475058e-06 0.52310150862 0.85225081444
0.30901309848 0.49999365211 0.80900681019
-0.15982919931 0.26442590356 0.95105183125
0.15986597538 0.26445844769 0.95103615522
7.5038713021e-09 -7.9597703007e-07 0.99998736382
-0.27603977919 6.7312859755e-05 0.96109968424
0.43489700556 0.25721338391 0.86291146278
0.27603417635 6.52446397e-05 0.96110153198
0.52573114634 -1.5240511075e-08 0.85065078735
-0.43509078026 -0.25719624758 0.86281853914
-0.15984253585 -0.26447740197 0.95103561878
-0.3090134263 -0.49999380112 0.80900657177
7.4063937063e-05 -0.52306324244 0.85227262974
0.15991191566 -0.26440998912 0.95104312897
0.30901372433 -0.49999392033 0.80900639296
-0.15888044238 -0.70380920172 0.69232934713
0.15892624855 -0.70384627581 0.69228136539
6.0789480116e-09 -0.85065078735 0.52573114634
0.43496340513 -0.25720953941 0.86287951469
0.69224709272 -0.15889184177 0.7038872242
0.5877738595 -0.4279306829 0.6865593791
0.80900675058 -0.30901309848 0.49999368191
0.42793574929 -0.68659424782 0.5877289772
0.68657386303 -0.58777409792 0.42790535092
0.49999344349 -0.80900716782 0.30901247263
0.25725004077 -0.86281388998 0.43506920338
0.86274719238 -0.43517664075 0.25729310513
0.70388752222 -0.69221609831 0.15903104842
0.43498766422 -0.25715607405 -0.86288255453
0.27611833811 2.1969267436e-06 -0.96107697487
0.15983696282 -0.26447623968 -0.95103722811
0.30901280046 -0.4999935627 -0.8090069294
-8.1434547994e-09 -1.8846344929e-08 -0.99998736382
-7.5432872109e-05 -0.52306264639 -0.85227292776
-0.15986901522 -0.26446002722 -0.95103526115
-0.30901375413 -0.49999389052 -0.80900639296
0.15888006985 -0.70380890369 -0.69232976437
-0.15892603993 -0.70384633541 -0.69228124619
-1.2744436617e-08 -0.85065078735 -0.52573108673
-0.27601289749 -0.00013325741747 -0.96110731363
-0.43496111035 -0.25721415877 -0.86287927628
-0.52573114634 -6.1789151573e-10 -0.85065078735
0.95103341341 -0.15984562039 0.26448276639
0.95102053881 0.15987934172 0.26450771093
0.85220181942 -1.7404974642e-05 0.52318179607
0.80900675058 0.30901309848 0.49999368191
0.86291611195 0.43491724133 0.25716543198
0.69229531288 0.15886121988 0.70384800434
0.68656265736 0.58776724339 0.42793399096
0.42784258723 0.68656754494 0.58782923222
0.58777213097 0.42779695988 0.68664598465
-0.69224685431 -0.1588922739 -0.70388716459
-0.69218242168 0.15899826586 -0.70392686129
-0.8522503376 4.9079699238e-06 -0.52310264111
-0.8090069294 -0.30901277065 -0.4999935329
-0.80900675058 0.30901309848 -0.49999365211
-0.95105779171 -0.15976202488 -0.26444044709
-0.9510358572 0.15986743569 -0.26445898414
-0.99998736382 -1.5321439673e-09 3.7933980934e-07
-0.86291438341 -0.43489173055 -0.25721263885
-0.96110141277 -0.27603381872 -6.663709064e-05
-0.85065078735 -0.52573114634 2.0790674071e-08
-0.86294591427 0.43485602736 -0.25716882944
-0.96109467745 0.27605965734 -0.00012858424452
-0.15892934799 0.70392346382 -0.6922019124
-0.42793250084 0.68655997515 -0.58777189255
-0.30901309848 0.4999936223 -0.80900675058
-0.58784621954 0.42789244652 -0.68652009964
-0.68664836884 0.58776903152 -0.4277972877
-0.43513172865 0.25724753737 -0.86278378963
-0.70388787985 -0.69224607944 -0.15889264643
-0.70392686129 -0.69218242168 0.15899828076
-0.52310264111 -0.852250278 5.2008977036e-06
-0.49999344349 -0.80900716782 -0.30901244283
-0.49999368191 -0.80900675058 0.30901309848
-0.26444020867 -0.95105791092 -0.15976086259
-0.26445898414 -0.95103591681 0.15986734629
3.8998479113e-07 -0.99998736382 6.6347061178e-09
-0.25716862082 -0.86294859648 -0.43485066295
-6.5358246502e-05 -0.96110147238 -0.27603450418
-0.25716850162 -0.86294531822 0.43485730886
-0.00012857024558 -0.96109467745 0.27605968714
-0.86285436153 -0.4350463748 0.25715279579
-0.6865593195 -0.58777028322 0.42793557048
-0.80900675058 -0.30901309848 0.49999368191
-0.42783877254 -0.6865683198 0.58783125877
-0.58775603771 -0.42786169052 0.68661767244
-0.69216990471 -0.15906532109 0.70392531157
-0.8522477746 -2.5162732982e-06 0.52310597897
-0.95106011629 0.15987230837 0.26437306404
-0.95103865862 -0.1599714458 0.26439252496
-0.58777344227 -0.42793086171 -0.6865593791
-0.42788550258 -0.68664312363 -0.58770984411
-0.68664443493 -0.5877738595 -0.42779693007
0.25715279579 -0.86285233498 -0.43505001068
0.26447582245 -0.95103645325 -0.15983994305
0.49999365211 -0.80900675058 -0.30901312828
0.52311700583 -0.85224044323 9.5249924925e-05
0.26439195871 -0.95103818178 0.15997651219
0.70384377241 -0.69230151176 -0.15885287523
0.58777409792 -0.42792892456 -0.68656003475
0.68656384945 -0.58783572912 -0.4278396666
0.42779773474 -0.686642766 -0.58777529001
0.15984109044 0.2644777298 -0.95103549957
-0.1599483788 0.26449218392 -0.95101422071
-8.6418663159e-07 0.52323746681 -0.85216861963

CELLS 320 1280
3 0 1 2
3 1 3 2
3 1 4 3
3 2 3 5
3 4 6 3
3 6 7 3
3 6 8 7
3 3 7 5
3 4 9 6
3 9 10 6
3 9 11 10
3 6 10 8
3 5 7 12
3 7 13 12
3 7 8 13
3 12 13 14
3 14 13 15
3 13 16 15
3 13 8 16
3 15 16 17
3 8 18 16
3 18 19 16
3 18 20 19
3 16 19 17
3 8 10 18
3 10 21 18
3 10 11 21
3 18 21 20
3 17 19 22
3 19 23 22
3 19 20 23
3 22 23 24
3 14 15 25
3 15 26 25
3 15 17 26
3 25 26 27
3 17 28 26
3 28 29 26
3 28 30 29
3 26 29 27
3 17 22 28
3 22 31 28
3 22 24 31
3 28 31 30
3 27 29 32
3 29 33 32
3 29 30 33
3 32 33 34
3 34 33 35
3 33 36 35
3 33 30 36
3 35 36 37
3 30 38 36
3 38 39 36
3 38 40 39
3 36 39 37
3 30 31 38
3 31 41 38
3 31 24 41
3 38 41 40
3 37 39 42
3 39 43 42
3 39 40 43
3 42 43 44
3 34 35 45
3 35 46 45
3 35 37 46
3 45 46 47
3 37 48 46
3 48 49 46
3 48 50 49
3 46 49 47
3 37 42 48
3 42 51 48
3 42 44 51
3 48 51 50
3 47 49 52
3 49 53 52
3 49 50 53
3 52 53 54
3 34 45 55
3 45 56 55
3 45 47 56
3 55 56 57
3 47 58 56
3 58 59 56
3 58 60 59
3 56 59 57
3 47 52 58
3 52 61 58
3 52 54 61
3 58 61 60
3 57 59 62
3 59 63 62
3 59 60 63
3 62 63 64
3 54 65 61
3 65 66 61
3 65 67 66
3 61 66 60
3 67 68 66
3 68 69 66
3 68 70 69
3 66 69 60
3 67 71 68
3 71 72 68
3 71 73 72
3 68 72 70
3 60 69 63
3 69 74 63
3 69 70 74
3 63 74 64
3 64 74 75
3 74 76 75
3 74 70 76
3 75 76 77
3 70 78 76
3 78 79 76
3 78 80 79
3 76 79 77
3 70 72 78
3 72 81 78
3 72 73 81
3 78 81 80
3 77 79 82
3 79 83 82
3 79 80 83
3 82 83 0
3 11 84 85
3 84 86 85
3 84 87 86
3 85 86 88
3 87 89 86
3 89 90 86
3 89 91 90
3 86 90 88
3 87 92 89
3 92 93 89
3 92 94 93
3 89 93 91
3 88 90 95
3 90 96 95
3 90 91 96
3 95 96 97
3 0 2 82
3 2 98 82
3 2 5 98
3 82 98 77
3 5 99 98
3 99 100 98
3 99 101 100
3 98 100 77
3 5 12 99
3 12 102 99
3 12 14 102
3 99 102 101
3 77 100 75
3 100 103 75
3 100 101 103
3 75 103 64
3 14 25 102
3 25 104 102
3 25 27 104
3 102 104 101
3 27 105 104
3 105 106 104
3 105 57 106
3 104 106 101
3 27 32 105
3 32 55 105
3 32 34 55
3 105 55 57
3 101 106 103
3 106 62 103
3 106 57 62
3 103 62 64
3 97 107 108
3 107 109 108
3 107 110 109
3 108 109 111
3 110 112 109
3 112 113 109
3 112 114 113
3 109 113 111
3 110 115 112
3 115 116 112
3 115 117 116
3 112 116 114
3 111 113 118
3 113 119 118
3 113 114 119
3 118 119 44
3 24 120 41
3 120 121 41
3 120 122 121
3 41 121 40
3 122 123 121
3 123 124 121
3 123 111 124
3 121 124 40
3 122 125 123
3 125 108 123
3 125 97 108
3 123 108 111
3 40 124 43
3 124 118 43
3 124 111 118
3 43 118 44
3 117 126 127
3 126 128 127
3 126 129 128
3 127 128 130
3 129 131 128
3 131 132 128
3 131 133 132
3 128 132 130
3 129 134 131
3 134 135 131
3 134 94 135
3 131 135 133
3 130 132 136
3 132 137 136
3 132 133 137
3 136 137 73
3 117 127 138
3 127 139 138
3 127 130 139
3 138 139 140
3 130 141 139
3 141 142 139
3 141 67 142
3 139 142 140
3 130 136 141
3 136 71 141
3 136 73 71
3 141 71 67
3 140 142 143
3 142 65 143
3 142 67 65
3 143 65 54
3 54 53 143
3 53 144 143
3 53 50 144
3 143 144 140
3 50 145 144
3 145 146 144
3 145 114 146
3 144 146 140
3 50 51 145
3 51 119 145
3 51 44 119
3 145 119 114
3 140 146 138
3 146 116 138
3 146 114 116
3 138 116 117
3 97 96 107
3 96 147 107
3 96 91 147
3 107 147 110
3 91 148 147
3 148 149 147
3 148 129 149
3 147 149 110
3 91 93 148
3 93 134 148
3 93 94 134
3 148 134 129
3 110 149 115
3 149 126 115
3 149 129 126
3 115 126 117
3 94 150 135
3 150 151 135
3 150 152 151
3 135 151 133
3 152 153 151
3 153 154 151
3 153 80 154
3 151 154 133
3 152 155 153
3 155 83 153
3 155 0 83
3 153 83 80
3 133 154 137
3 154 81 137
3 154 80 81
3 137 81 73
3 11 9 84
3 9 156 84
3 9 4 156
3 84 156 87
3 4 157 156
3 157 158 156
3 157 152 158
3 156 158 87
3 4 1 157
3 1 155 157
3 1 0 155
3 157 155 152
3 87 158 92
3 158 150 92
3 158 152 150
3 92 150 94
3 11 85 21
3 85 159 21
3 85 88 159
3 21 159 20
3 88 160 159
3 160 161 159
3 160 122 161
3 159 161 20
3 88 95 160
3 95 125 160
3 95 97 125
3 160 125 122
3 20 161 23
3 161 120 23
3 161 122 120
3 23 120 24

CELL_TYPES 320
5
5
5
5
5
5
5
5
5
5
5
5
5
5
5
5
5
5
5
5
5
5
5
5
5
5
5
5
5
5
5
5
5
5
5
5
5
5
5
5
5
5
5
5
5
5
5
5
5
5
5
5
5
5
5
5
5
5
5
5
5
5
5
5
5
5
5
5
5
5
5
5
5
5
5
5
5
5
5
5
5
5
5
5
5
5
5
5
5
5
5
5
5
5
5
5
5
5
5
5
5
5
5
5
5
5
5
5
5
5
5
5
5
5
5
5
5
5
5
5
5
5
5
5
5
5
5
5
5
5
5
5
5
5
5
5
5
5
5
5
5
5
5
5
5
5
5
5
5
5
5
5
5
5
5
5
5
5
5
5
5
5
5
5
5
5
5
5
5
5
5
5
5
5
5
5
5
5
5
5
5
5
5
5
5
5
5
5
5
5
5
5
5
5
5
5
5
5
5
5
5
5
5
5
5
5
5
5
5
5
5
5
5
5
5
5
5
5
5
5
5
5
5
5
5
5
5
5
5
5
5
5
5
5
5
5
5
5
5
5
5
5
5
5
5
5
5
5
5
5
5
5
5
5
5
5
5
5
5
5
5
5
5
5
5
5
5
5
5
5
5
5
5
5
5
5
5
5
5
5
5
5
5
5
5
5
5
5
5
5
5
5
5
5
5
5
5
5
5
5
5
5
5
5
5
5
5
5
5
5
5
5
5
5
5
5
5
5
5
5

CELL_DATA 320
SCALARS cell_data_0 double
LOOKUP_TABLE default
1.3030721099e-08
1.53427963609e-08
1.60571018108e-09
3.78681586928e-09
1.75657140336e-08
2.43110554732e-08
1.30458218331e-08
2.79622258861e-08
3.01703511616e-09
6.2637611539e-09
1.91414171011e-09
5.38133116456e-09
4.52588556383e-09
1.34132292623e-08
3.68872978468e-09
6.17255645402e-09
1.79202077575e-08
1.65993654472e-08
1.97691160601e-08
1.5324340879e-08
1.74550070578e-08
4.01025245543e-09
1.27837893263e-08
1.65056280627e-08
1.12601112629e-08
5.08371661214e-09
4.74694879953e-09
4.80984975065e-09
1.32386957302e-08
6.47861417618e-09
1.14390695918e-08
7.65012970102e-10
4.96211738312e-08
2.45534394613e-08
1.87500845859e-08
5.8294141119e-08
1.27828831699e-08
3.59159831283e-08
9.55774417125e-09
2.61844084311e-08
3.63276871539e-09
9.21736460141e-09
1.21501107485e-08
6.39418041002e-09
9.02279217693e-08
3.84378683844e-08
4.1656892695e-08
1.14528022969e-07
7.92632531731e-08
1.0666349923e-07
5.02400705627e-08
8.43222980085e-08
7.59777268425e-08
3.56590757258e-08
4.05871329434e-08
1.12689686387e-07
3.20752503311e-08
2.24990673341e-08
7.29752080676e-09
2.33815471696e-08
7.05175308243e-08
5.3128892999e-08
4.01580249657e-08
3.72105494944e-08
3.30641793081e-07
2.77829847131e-07
1.71940800301e-07
6.35418457681e-07
7.58831414495e-08
3.65006801504e-07
7.80149749033e-08
1.32461760129e-07
5.23123338389e-08
4.92991939333e-09
4.32706790137e-08
5.50581311868e-08
7.61056620431e-07
3.52190152412e-07
1.21921943168e-07
1.71601202278e-07
3.53803661928e-07
5.42615180735e-07
9.19809146345e-07
9.18858730523e-07
1.63198036232e-07
1.19042479952e-06
2.01041754986e-06
2.03076334379e-06
4.16129564459e-07
1.11975263022e-06
1.18358726649e-06
8.92983307728e-07
4.23679636205e-07
1.44684456811e-06
8.99602952204e-07
1.1862557097e-06
6.25684923229e-07
1.11937158484e-06
1.37977516309e-06
1.18370488337e-06
1.59168245777e-07
1.58877103369e-06
2.02895177086e-06
2.01136485241e-06
4.5235803484e-07
5.4820314317e-07
1.03557849229e-07
4.49336279576e-07
2.10380918657e-07
1.44650080333e-06
1.97918591498e-06
1.5098392531e-06
5.08397043215e-07
1.12460479291e-06
2.928700121e-07
1.78983047949e-08
5.45369940019e-07
4.30234739273e-07
2.41009600635e-07
4.67756865927e-07
6.18631552125e-07
2.31185474455e-07
3.82174693705e-07
2.80162435031e-07
9.06205052878e-08
8.93379727886e-08
1.21542257112e-07
2.85500500718e-08
1.36961221385e-09
2.65817540908e-09
4.93925869019e-09
1.05502461805e-09
3.91581480152e-09
1.40791246892e-09
6.72096014615e-09
4.21468478678e-09
2.0371022276e-09
3.77268931781e-09
8.87936264541e-10
6.54118940572e-10
1.75102030516e-09
2.08733904296e-09
6.19953172442e-09
1.46121271578e-09
2.53570328514e-08
8.34649506453e-08
6.1635630434e-09
3.07318988671e-08
1.01796022267e-07
1.01172565289e-07
2.14359889584e-07
2.08470520281e-07
6.58638373014e-09
8.23331099389e-08
2.92895320604e-08
5.37292850988e-08
5.82491028724e-08
4.35357259051e-07
1.88056326257e-07
2.49666179634e-07
4.56264180702e-08
1.92513439603e-09
1.18782277984e-07
1.85324353984e-07
7.80525996395e-08
4.32254057726e-07
1.36773916085e-07
7.71361798252e-08
1.42548180138e-07
2.78182638562e-07
3.76985125941e-08
2.77346257504e-07
5.53683400091e-07
3.5592530566e-07
7.05201872154e-07
9.82998685265e-07
4.83615748762e-09
3.71411014347e-09
1.40315146475e-08
1.10315136918e-08
1.5624409291e-08
4.89555394322e-09
2.8494201765e-08
1.46338446228e-08
2.69856309566e-08
1.53991667419e-08
3.55414031263e-08
4.22830479888e-08
2.51463310844e-08
1.19838597214e-08
4.11830795417e-08
3.49308020967e-08
5.67829512915e-09
1.65002199235e-09
3.27998224518e-09
7.41264836498e-09
2.97050102581e-09
3.25963697635e-09
4.84879332801e-10
2.86304630574e-09
1.02918421496e-09
1.73810449691e-10
1.38870928028e-09
1.39225793547e-09
5.14772290368e-09
1.2274447516e-08
4.48930254792e-09
1.61707483988e-08
3.69762848458e-08
2.17544316046e-08
1.42575486006e-08
6.25461803641e-08
1.16741853948e-08
3.67125357827e-08
1.35804636414e-08
2.96860039386e-08
2.84585906591e-09
4.2237252527e-09
7.46226732462e-09
1.18465248317e-08
8.80363460218e-08
3.4585967386e-08
3.89694085298e-08
1.15532739504e-07
4.46168536498e-08
9.12627488494e-10
1.21305367566e-07
1.82700169839e-07
8.10401409758e-08
4.28537783496e-07
1.35636944999e-07
8.01001612422e-08
1.43239549399e-07
2.76403161186e-07
4.27618919157e-08
2.77396831838e-07
5.50548510798e-07
3.54018038099e-07
7.03560087841e-07
9.82911436236e-07
7.97969398694e-07
1.46638148049e-07
4.32451129917e-07
4.30935188129e-07
1.95173104918e-07
1.04982855288e-07
4.89987592882e-08
8.19552277306e-08
2.03831951536e-07
4.16381467367e-08
7.60402106421e-08
1.08061129536e-07
1.99152367084e-07
3.5795611328e-08
1.06228832156e-07
7.34019284559e-08
3.19949303974e-09
3.21864011887e-09
2.54228078288e-09
4.65616320075e-09
6.53833351508e-09
1.16975239826e-08
3.47622786547e-10
2.4851328623e-09
5.94271883903e-09
1.81665712177e-09
7.24102836117e-09
1.34027074744e-08
8.23547702969e-09
8.76008951627e-09
8.95098003399e-09
1.05504902466e-08
5.43328707707e-09
5.90481516884e-09
2.29297756301e-08
2.35201147172e-08
1.10661113837e-08
5.60068759164e-08
2.63751925174e-08
1.27501758933e-08
2.75352401681e-08
2.4005356501e-08
2.38459623304e-08
5.3872742695e-08
6.54788397967e-08
3.58774538132e-08
7.32841179864e-08
1.2683681352e-07
1.61081583967e-09
2.93525080814e-09
4.4805708366e-09
1.10975780211e-08
1.47681594257e-08
9.20955416754e-09
2.1234666024e-08
7.99431964754e-09
6.14528270211e-09
1.70124230047e-08
6.20326846594e-09
1.19630734645e-08
7.24401903631e-09
9.82863783e-09
1.45736234779e-08
8.31169375077e-09
1.70207879249e-09
1.20159152615e-09
5.58688640934e-09
1.96960266136e-09
8.66478805645e-10
1.01334125346e-09
5.07629930266e-09
5.06953418485e-09
4.33267399067e-09
3.9587453231e-09
3.1566782423e-09
2.27815686965e-09
1.67018747998e-09
7.01441010213e-09
4.66046887962e-09
2.40863481426e-09

