# vtk DataFile Version 3.0
File Name: Molecule/sphere_cent/sphere_cent_0-s3.vtk
ASCII
DATASET UNSTRUCTURED_GRID
FIELD FieldData 1
TIME 1 1 double
0.0
POINTS 346 double
0.808928967 3.27825e-07 -0.499945834
0.80892873 0.30898413 -0.49994594
0.90441009 0.15449206 -0.24997276
0.49994558 0.80892938 -0.30898312
0.49994573 0.808929175 3.4273e-07
0.85065079 0.52573115 0.0
0.24997237 0.90441039 -0.15449156
0.24997252 0.90441018 0.1544919
0.49994588 0.80892897 0.3089838
0.24997294 0.82978988 0.41735744
-4.19499827e-07 0.925271094 0.262865545
2.22044605e-16 0.850650787 0.525731087
-0.24997292 0.82978988 0.41735744
-0.24997334 0.90441018 0.1544919
-0.49994585 0.80892897 0.3089838
-0.15449156 0.6752982 0.66733024
-0.40446448 0.65443729 0.55895659
-0.67529832 0.66733006 0.1544919
-0.65443771 0.55895586 0.40446462
-0.82979017 0.41735695 0.24997272
-0.80892956 0.30898276 0.49994543
0.15449172 0.67529824 0.66733012
1.63915e-07 0.499945655 0.808929265
0.30898345 0.4999457 0.80892915
0.15449172 0.24997243 0.90441027
-1.68982695e-09 -8.44592535e-07 0.9998914
0.525731087 2.77555756e-17 0.850650787
-0.3089838 -0.49994585 0.80892897
1.6391e-07 -0.499945909 0.808928847
0.0 -0.85065079 0.52573109
0.30898312 -0.49994558 -0.80892938
-5.0664e-07 -0.49994576 -0.808929056
0.15449156 -0.24997279 -0.90441039
-0.15449206 -0.24997297 -0.90441006
-0.41735764 -0.24997297 -0.82978976
-0.262865568 -4.34745706e-09 -0.925271094
-0.30898413 -0.49994594 -0.80892873
-0.82979009 -0.41735709 -0.24997279
-0.850650787 -0.525731087 4.4408921e-16
-0.925271064 -0.262865539 2.06579003e-07
-0.80892915 0.30898345 -0.4999457
-0.90441024 0.15449173 -0.24997264
-0.82978997 0.4173573 -0.24997285
-0.925271064 0.262865577 2.06579003e-07
-0.5589563 0.40446454 -0.65443739
-0.65443756 0.55895609 -0.40446492
-0.66733015 0.15449172 -0.67529824
-0.49994546 -0.80892956 -0.30898276
-0.24997273 -0.82979017 -0.41735692
-0.24997252 -0.90441045 -0.15449138
-0.90441045 0.15449138 0.24997292
-0.808929324 -3.4273e-07 0.499945551
-0.999891341 8.57100435e-09 4.13158006e-07
-0.90441021 -0.15449172 0.24997304
-0.85065079 0.52573115 0.0
-0.82978994 -0.41735727 0.24997284
-0.4044648 -0.65443775 -0.55895574
-0.55895676 -0.40446451 -0.65443715
-0.65443742 -0.55895633 -0.40446417
-0.15449207 -0.67529836 -0.66732991
-0.67529812 -0.66733032 -0.15449138
0.40446438 -0.65443733 -0.55895641
0.24997282 -0.82978994 -0.41735727
0.15449156 -0.67529818 -0.66733024
-0.15449172 0.24997282 -0.90441024
-0.30898345 0.49994564 -0.80892909
-3.4273e-07 0.499945536 -0.808929324
0.15449139 0.24997271 -0.90441048
0.30898276 0.49994543 -0.80892956
-0.4173573 0.24997282 -0.82978994
-0.52573115 0.0 -0.85065079
0.41735761 -0.24997299 0.82978976
0.66733012 -0.15449172 0.67529824
0.55895664 -0.40446471 0.65443721
0.30898413 -0.49994597 0.80892873
0.80892915 -0.30898345 0.4999457
0.40446479 -0.65443777 0.55895575
0.6544373 -0.55895651 0.40446423
0.49994546 -0.80892956 0.30898276
0.15449207 -0.67529838 0.66732991
0.24997273 -0.82979018 0.41735692
0.82978997 -0.41735727 0.24997285
0.67529812 -0.66733033 0.15449138
0.85065079 -0.52573109 0.0
0.925271125 -0.26286555 2.08350812e-07
0.9044103 -0.15449173 0.24997306
0.99989146 -9.97142457e-09 4.16701624e-07
0.90441028 0.15449171 0.24997303
0.80892912 -1.5e-08 0.49994567
0.80892909 0.30898342 0.49994564
0.925271125 0.26286557 2.08350812e-07
0.82978994 0.41735729 0.24997282
0.66733009 0.15449171 0.67529821
0.24997294 0.82978988 0.41735744
0.40446467 0.65443734 0.55895648
0.15449173 0.67529824 0.66733012
-0.4999457 -0.80892915 0.30898345
-0.24997285 -0.82978997 0.41735727
-0.40446475 -0.6544375 0.55895621
-0.1544919 -0.67529832 0.66733003
-0.80892909 -0.30898345 0.49994567
-0.55895644 -0.40446465 0.65443732
-0.66733009 -0.15449172 0.67529823
-0.41735744 -0.24997292 0.82978988
-0.525731087 5.55111512e-17 0.850650787
0.49994564 -0.80892909 -0.30898345
0.67529821 -0.66733009 -0.15449172
0.49994555 -0.808929325 -3.45e-07
4.25156401e-07 -0.999891341 4.2034709e-09
0.24997294 -0.90441045 0.15449138
2.125782e-07 -0.925271066 0.262865547
0.8089292 -0.30898347 -0.49994573
0.85666977 -0.2317376 -0.37495919
0.82979 -0.41735728 -0.24997286
0.87753056 -0.34011141 -0.12498633
0.90441033 -0.15449174 -0.24997266
0.95215089 -0.07724587 -0.12498612
0.80892908 -0.15449157 -0.49994578
0.85666965 -0.07724571 -0.37495925
0.85666953 0.07724619 -0.3749593
0.90441021 1.6e-07 -0.24997271
0.95215078 0.07724603 -0.12498617
0.80892885 0.15449223 -0.49994589
0.66732991 0.15449207 -0.67529836
0.667330029 1.639125e-07 -0.675298312
0.52573109 0.0 -0.85065079
0.66733014 -0.15449173 -0.67529826
0.87753044 0.34011161 -0.12498638
0.85666941 0.2317381 -0.37495935
0.82978976 0.41735764 -0.24997297
0.73168294 0.43397045 -0.45220523
0.75254397 0.54234395 -0.20223226
0.65443715 0.55895676 -0.40446453
0.68394223 0.35672446 -0.57719184
0.60669645 0.48171077 -0.52945114
0.55895574 0.40446478 -0.65443775
0.48170996 0.52945109 -0.60669704
0.52945066 0.60669708 -0.48171043
0.40446417 0.65443741 -0.55895634
0.54234341 0.20223239 -0.75254427
0.32721848 0.74211375 -0.48815674
0.24997279 0.82979009 -0.41735713
0.27947778 0.66486776 -0.61314335
0.20223209 0.7525441 -0.54234374
0.15449138 0.67529811 -0.66733035
0.1249864 0.84022044 -0.47154414
0.07724569 0.76297445 -0.59653075
0.0 0.85065079 -0.52573115
0.67529834 0.66733006 0.1544919
0.249972445 0.904410285 1.7e-07
0.12498577 0.95215089 -0.07724578
0.12498584 0.95215079 0.07724595
-8.38999654e-07 0.9998914 3.80273057e-09
0.24997258 0.86710024 -0.28592435
0.12498619 0.87753059 -0.34011135
0.12498598 0.91484074 -0.20867857
-4.19499827e-07 0.925271094 -0.262865571
-2.09749914e-07 0.887960942 -0.394298361
-6.29249741e-07 0.962581247 -0.131432784
0.12498605 0.91484064 0.20867872
-6.29249741e-07 0.962581247 0.131432774
-0.12498688 0.91484064 0.20867872
-0.12498709 0.95215079 0.07724595
-0.12498712 0.95215073 -0.07724603
-0.24997337 0.90441012 -8e-08
-0.2499734 0.90441006 -0.15449206
-0.37495965 0.85666945 -0.07724611
-0.37495962 0.85666951 0.07724587
-0.499945909 0.808928847 -1.6391e-07
-0.37495968 0.85666939 -0.2317381
-0.49994594 0.80892879 -0.15449215
-0.49994597 0.80892873 -0.30898413
-0.12498691 0.91484058 -0.20867882
-0.1249867 0.87753043 -0.34011161
-0.24997319 0.86709991 -0.28592485
-0.24997298 0.82978976 -0.41735764
-0.12498649 0.84022028 -0.4715444
-0.37495948 0.81935925 -0.36317088
-0.58762211 0.73812945 0.07724587
-0.58762214 0.73812939 -0.07724612
-0.67529835 0.66733 -8.5e-08
-0.67529838 0.66732994 -0.15449207
-0.58762218 0.73812933 -0.2317381
-0.76297455 0.5965306 0.07724595
-0.76297459 0.59653055 -0.07724604
-0.3567238 0.57719145 0.68394299
-0.30898312 0.49994561 0.80892938
-0.52945109 0.60669657 0.4817106
-0.60669703 0.48171002 0.52945102
-0.48171041 0.52945074 0.606697
-0.55895634 0.40446419 0.65443741
-0.43396973 0.4522049 0.7316834
-0.4173571 0.24997281 0.82979008
-0.54234371 0.2022321 0.7525441
-0.15449148 0.49994563 0.80892932
-0.23173734 0.37495899 0.85666989
-0.0772457 0.37495902 0.85666983
-0.15449156 0.24997238 0.90441039
8e-08 0.249972405 0.90441033
0.07724594 0.37495904 0.85666977
-0.34011132 0.12498619 0.87753059
0.41735727 0.24997285 0.82978997
-0.23173785 -0.3749596 0.85666957
-0.34011149 -0.12498667 0.87753048
-0.1544919 -0.24997335 0.90441018
-0.15449182 -0.49994588 0.80892891
-0.07724587 -0.37495963 0.85666951
0.07724611 -0.37495966 0.85666945
8e-08 -0.24997338 0.90441012
0.15449206 -0.24997341 0.90441006
0.15449215 -0.49994594 0.80892879
0.2317381 -0.37495969 0.85666939
8.1955e-08 -0.67529835 0.667329969
0.34011157 -0.1249867 0.87753042
0.23173734 -0.37495919 -0.85666989
0.41735711 -0.24997279 -0.82979008
0.34011132 -0.1249864 -0.87753059
0.26286555 -4.34745706e-09 -0.925271095
0.07724579 -0.1249864 -0.95215089
1.08978977e-08 -8.69491412e-09 -0.9998914
-0.07724628 -0.37495936 -0.85666956
0.07724553 -0.37495928 -0.85666972
-2.5e-07 -0.24997288 -0.904410225
-0.07724602 -0.12498649 -0.95215073
0.23173734 -0.58762188 -0.73812981
0.15449131 -0.49994567 -0.80892922
0.07724553 -0.58762197 -0.73812965
-2.55e-07 -0.67529827 -0.667330075
-0.07724629 -0.58762206 -0.73812948
0.07724578 -0.76297448 -0.59653066
-0.07724603 -0.76297457 -0.5965305
2.22044605e-16 -0.850650787 -0.525731087
-0.4715444 -0.12498648 -0.84022028
0.57719168 0.68394258 0.35672426
0.75254413 0.54234367 0.20223236
0.65443748 0.55895619 0.40446472
0.73168329 0.4339698 0.45220518
0.45220527 0.73168315 0.43397014
0.52945107 0.60669676 0.4817106
0.40446466 0.65443733 0.55895647
0.48171047 0.52945095 0.60669693
0.60669688 0.48171037 0.52945106
0.55895627 0.40446456 0.65443739
0.35672405 0.57719151 0.68394281
0.43396986 0.45220513 0.73168327
0.68394268 0.35672399 0.57719151
0.54234368 0.20223228 0.75254409
-0.59653071 -0.07724577 -0.76297448
-0.59653065 0.07724586 -0.76297452
-0.66733021 9e-08 -0.67529821
-0.66733027 -0.15449154 -0.67529818
-0.73812977 -0.07724568 -0.58762191
-0.73812971 0.07724595 -0.58762194
-0.808929265 1.78815e-07 -0.499945641
-0.73812983 -0.23173731 -0.58762188
-0.80892932 -0.15449146 -0.49994561
-0.80892938 -0.30898309 -0.49994558
-0.85666987 -0.23173731 -0.37495908
-0.85666981 -0.07724568 -0.37495911
-0.90441036 -0.15449154 -0.24997258
-0.9044103 9.5e-08 -0.24997261
-0.85666975 0.07724595 -0.37495914
-0.95215085 -0.07724577 -0.12498608
-0.95215079 0.07724587 -0.12498611
-0.81935974 -0.36317009 -0.37495919
-0.86710022 -0.28592431 -0.24997269
-0.84022038 0.47154423 -0.12498642
-0.07724586 0.7629745 -0.59653064
-0.20223235 0.75254398 -0.54234388
-0.15449172 0.67529821 -0.66733012
-0.27947822 0.66486769 -0.61314336
-0.32721884 0.74211347 -0.48815712
-0.40446471 0.65443718 -0.55895661
-0.45220534 0.73168295 -0.43397037
-0.43396987 0.45220509 -0.73168324
-0.52945113 0.60669664 -0.48171076
-0.57719177 0.68394241 -0.35672453
-0.36317037 0.37495923 -0.81935951
-0.4881568 0.32721868 -0.74211366
-0.66486797 0.61314302 -0.27947849
-0.74211377 0.4881567 -0.32721889
-0.75254417 0.54234362 -0.20223246
-0.67529818 -0.66733022 1.7e-07
-0.67529824 -0.66733012 0.15449172
[...]
CELL_DATA 671
SCALARS cell_data_0 double
LOOKUP_TABLE default
5.86029098914e-07
1.18414724079e-06
5.57259277327e-07
1.43311256515e-06
1.67911538629e-06
1.4061933657e-06
1.04301544932e-07
8.56022954905e-07
4.44947878549e-07
3.34593575754e-07
1.29195012256e-06
1.06202981533e-06
5.08860213452e-07
2.9833171348e-06
4.15980959738e-07
1.24350052217e-06
1.82385644708e-07
5.05206128253e-06
3.2356109112e-06
4.10481171636e-07
4.95170396474e-07
1.67020217635e-06
8.47340876341e-07
5.23817667029e-08
1.78419335109e-06
3.93578121684e-06
1.37804865841e-07
7.2863877196e-08
7.76477570058e-07
2.73026973738e-07
1.41536687448e-06
9.90262233386e-07
7.20888304387e-07
1.147626806e-06
9.68797201825e-08
2.75828346609e-07
1.30675763079e-06
8.16573245689e-07
5.93213452918e-08
1.16097677174e-06
2.3961836469e-06
1.34282193499e-07
2.5575575837e-06
3.41526903411e-06
9.31435890561e-07
9.65141237697e-08
1.93271684766e-06
1.79932804838e-06
2.77813656243e-07
2.49566954913e-08
3.69655222184e-06
1.1745413942e-07
4.46935634298e-07
3.65495885236e-06
4.01273295201e-06
8.70664288291e-07
2.02729696661e-06
1.23566683148e-06
2.32977828047e-06
1.97055030766e-06
6.32834884444e-07
4.59423309041e-06
8.85102187151e-07
9.66012099033e-08
6.26152168063e-07
1.79808386955e-06
9.38463855188e-07
2.83023514308e-06
8.11381869695e-08
2.10410433065e-06
4.20035192068e-07
3.59275572e-06
3.21649813717e-06
1.92252821094e-06
4.17357025903e-06
1.7153164413e-06
6.55713738686e-08
1.03579178312e-06
3.69136265657e-06
2.87619615459e-06
1.48129760872e-06
6.1780827156e-07
1.80602688023e-06
2.56906071893e-06
5.03577790329e-07
1.1227743773e-06
4.7002205839e-06
1.00903372798e-06
2.31584708513e-06
1.22773171108e-06
3.27968394504e-07
3.32403840808e-06
2.07321607792e-06
1.34178855038e-06
6.87300173098e-07
1.63880304687e-06
1.23752188055e-06
3.73022078796e-06
9.83341505543e-07
3.39824459573e-06
1.78581304391e-06
6.61180337025e-08
4.06622019216e-06
7.15194102112e-07
2.97467972157e-07
1.29614417687e-07
1.5367337356e-06
8.36125637757e-07
4.29111590288e-07
2.01343804339e-06
3.06603919519e-09
5.99922902674e-07
8.53982371098e-07
6.58473814428e-07
5.80577245939e-07
4.56664504274e-08
1.10389771555e-07
1.0385384505e-07
9.7899076297e-07
3.31679992246e-06
1.36740677284e-06
2.80222470442e-07
3.03535638205e-06
3.52478930579e-06
5.29466434448e-07
5.45225400212e-07
2.42962752629e-06
1.66444406884e-06
5.94068615569e-07
2.37259254608e-07
4.93940895041e-07
2.21967526748e-07
3.83349664614e-07
3.03610289006e-07
3.11395096025e-07
1.10496329742e-06
2.50531291512e-07
3.01128078781e-07
4.37809042431e-08
3.45518698669e-07
7.43396482654e-07
1.13263878108e-06
3.10445620301e-07
2.04374848358e-06
3.47141361603e-07
7.76538498332e-07
8.1260905703e-07
8.44049048763e-07
2.99815476968e-07
3.91723321594e-06
1.1384430927e-06
9.27162616399e-07
9.08988738481e-08
2.53331550472e-06
2.24451233136e-06
3.26082760745e-06
4.22861737696e-07
7.20358453782e-07
2.56426682013e-06
1.59161858759e-07
6.50346702296e-07
4.95676086377e-07
4.22984430684e-07
3.65131307933e-07
2.56332655312e-07
6.94326557717e-07
9.61955068708e-07
9.89377199469e-08
7.63180336332e-08
1.78452637533e-07
6.48129081118e-07
1.11739472466e-06
3.96202728802e-07
9.95072853013e-07
1.71799599925e-06
8.38469655055e-08
2.52380867695e-07
5.36393903472e-07
5.34034921959e-07
3.15305955212e-07
1.66849895019e-07
4.54747849884e-07
5.51128407661e-07
2.07536658809e-07
3.98500684585e-07
1.58434937309e-07
3.7313505599e-07
2.783600989e-07
6.89220879213e-08
9.89693171626e-08
3.39856306323e-08
3.29062502743e-07
8.28174359108e-07
1.11718581429e-06
6.84512559768e-07
1.66585414756e-07
2.47341160559e-07
6.72499077339e-07
3.63127726232e-07
1.10201335223e-07
2.11619355103e-07
3.97839588039e-07
1.54731520294e-07
5.496025724e-07
4.77367280054e-08
7.40277229964e-07
2.52451139038e-07
7.13374924839e-07
7.87841141147e-08
1.48337981118e-07
8.69461804847e-08
2.00496232133e-07
3.78352859615e-07
2.36413810327e-07
1.20596714292e-07
6.47547394324e-07
1.03742741526e-07
1.02218623035e-06
9.13037705125e-07
1.12072089811e-06
7.65645122554e-07
7.86269067453e-07
7.41635057417e-07
3.63953692575e-07
4.97387476802e-07
3.9808815103e-07
6.88544163268e-07
5.07323363892e-08
3.85396476043e-08
6.09391931549e-07
4.77164660715e-07
5.16981441614e-07
3.18786698146e-07
5.94171114008e-07
3.19073235533e-07
3.18548147749e-07
1.27488294806e-06
1.86456510234e-07
4.73784725695e-07
3.70811698041e-07
1.39917621559e-07
1.83603599816e-07
2.96237308047e-07
7.30606097598e-07
2.65299588201e-07
8.18324155546e-08
1.63353571878e-07
2.19129107131e-08
9.13972393301e-07
1.4620248732e-07
6.3463710976e-07
4.21173774641e-07
4.40912469607e-08
7.59872763534e-07
7.72157682056e-07
4.47091650368e-07
5.48268835293e-07
2.42120984751e-06
9.14837231592e-07
2.09953143652e-08
2.85587140533e-08
4.4578621898e-07
1.02235461187e-06
6.9813734717e-07
1.10315883674e-06
2.79140355998e-06
1.41512842856e-06
4.78645226119e-07
3.98407459588e-06
8.68507399973e-07
1.93151659291e-06
1.0749003649e-06
1.95495150691e-07
1.08264290159e-06
4.48367038115e-07
2.49612165834e-06
1.15845814153e-07
9.78042565492e-07
2.90311852439e-07
1.85915501071e-07
5.71856546013e-08
6.99839425056e-07
9.19913218947e-07
1.28166409565e-06
2.80468322252e-06
3.33435548273e-06
2.42377041676e-06
3.49783654946e-06
7.60047372637e-07
8.48515061896e-08
2.12496471273e-06
1.34294985141e-06
3.45584358095e-06
1.41172409321e-07
6.1166078312e-07
4.57999716567e-07
1.90289176419e-07
1.4770112034e-06
1.2024528886e-06
1.36489154638e-06
8.86234914779e-07
2.18446160845e-06
2.01207890533e-07
6.49638576911e-07
7.55868623606e-07
8.62651899025e-07
6.00722055135e-07
1.84713753848e-07
2.07924180255e-07
3.9760352288e-07
5.65151458816e-07
7.26224796308e-07
7.33677056232e-08
9.54260893204e-07
6.10871491034e-07
3.22476424063e-07
6.07742446673e-07
6.08843275052e-07
2.56058788749e-06
1.25033123519e-06
1.59310530183e-06
6.0173231371e-07
1.08387573431e-07
3.82659200461e-07
3.01662020824e-07
1.000677431e-06
4.54363052518e-07
5.11841639914e-07
3.48866869242e-07
6.65996036866e-07
1.92157464066e-08
1.65932510246e-07
3.29482566418e-07
3.85673298684e-08
5.09105053028e-07
1.86099351653e-06
2.5427893262e-06
2.4091485769e-07
1.06641803421e-07
4.87374038504e-07
4.86902094751e-07
1.32244310911e-06
6.24583704212e-08
7.63433296814e-08
2.95142619155e-07
5.08030794745e-07
4.0926010897e-07
1.33395134495e-07
1.89723860817e-07
2.17086997576e-06
2.64127141595e-07
2.29547282897e-07
2.5814902006e-08
2.51078625035e-06
1.19828109245e-06
3.33952836991e-06
4.93902840293e-07
4.92771148645e-08
1.07034034219e-06
1.104443674e-06
5.53369746685e-07
2.75933638862e-07
3.41397266178e-06
1.04551452343e-06
7.58659656071e-07
1.4888694493e-07
1.91252350434e-06
3.8000147723e-07
7.38336652763e-08
7.98872126901e-07
3.74478769725e-07
6.09931699433e-07
9.20993962609e-07
7.52126260948e-07
8.31800880875e-07
8.67106739627e-07
3.34670003284e-08
3.04295837633e-07
1.79589983721e-08
3.94241574257e-07
2.18823174075e-07
2.02186240015e-07
9.45511883413e-07
1.51184889954e-06
2.96015300917e-07
2.49231009488e-08
1.48409578597e-06
1.70216352347e-07
3.89710364521e-07
2.68192670366e-06
1.70762778517e-06
1.00762845605e-06
1.98661803157e-07
2.66829953677e-07
1.68840539337e-07
3.9759254162e-07
3.13287317009e-07
8.78003550593e-08
3.84019140569e-07
1.37235174041e-07
1.67242083367e-07
5.71093389288e-07
2.38520344334e-07
5.75325365363e-07
1.23411046342e-06
4.22335410219e-07
2.46323859634e-07
3.9090344762e-08
7.19721570594e-08
1.53037735467e-07
1.00589925883e-07
3.414534538e-07
2.7619080006e-07
1.4465858345e-06
9.8407829464e-08
7.21642581824e-07
3.62270067514e-08
5.45240258997e-07
3.81298518955e-07
5.7484778471e-07
3.46378192561e-08
2.56783049918e-07
3.97587661124e-07
2.44188693772e-07
8.17692044086e-07
1.23093464788e-06
3.24972416879e-07
6.7523219934e-07
9.13614065136e-07
1.08709702548e-06
4.78830055447e-07
6.75721272219e-07
3.87675966649e-07
5.13868600595e-07
8.41709331943e-07
1.74231265125e-07
3.51152462619e-07
3.83277726455e-08
6.66149397383e-07
7.78709289677e-08
1.61497686816e-06
5.03282428352e-07
1.69487256941e-07
2.31764270266e-07
2.86074812916e-07
2.04785484856e-07
1.09863001185e-06
1.55535384262e-06
1.36226108403e-06
2.54688451781e-07
1.879751205e-07
1.40130869217e-07
7.86198682137e-07
3.93628043212e-07
5.6253502239e-08
5.37847975176e-07
2.0140345646e-07
1.29917032452e-06
6.40048251289e-07
1.9228719086e-06
5.19452639139e-07
8.94828918436e-07
1.48232713664e-07
9.62428981389e-08
1.68332461562e-08
6.87354181589e-07
4.55699124915e-07
1.09893073139e-07
1.64456367254e-07
8.04866760311e-07
7.96499242871e-07
5.96303239374e-07
2.66227853037e-07
1.84635087215e-06
8.24771288658e-07
3.75302549951e-07
2.35657192948e-07
5.18280759547e-07
1.1664948955e-07
2.10508661394e-07
3.40294909127e-07
7.68111729918e-07
1.15941258351e-06
1.64025973792e-07
1.81857275002e-07
5.26549785493e-08
9.60432381146e-08
4.31175917783e-08
1.44355147991e-07
5.65981477374e-07
6.37859470212e-07
4.92225829594e-07
5.33743922659e-07
2.54983152496e-07
4.33413709388e-07
5.72954318172e-07
3.40464835417e-07
1.21180637362e-07
1.50517119825e-07
9.32196948628e-08
2.01779269732e-07
1.01541724685e-06
8.12469287421e-07
1.01794749332e-06
2.59715372456e-07
3.22174326516e-08
5.24126838092e-08
5.2874661398e-08
8.06831819903e-07
2.64916195163e-07
3.03178216076e-08
2.23486253151e-07
1.27076538652e-06
4.23113895794e-07
4.06814740866e-07
8.93552178205e-07
7.55239062184e-07
1.06763830255e-06
1.36485145098e-06
3.80900328345e-08
7.44856245752e-08
3.92318812348e-07
2.6021823968e-08
2.05825930878e-07
1.36097628385e-08
8.22225157593e-07
1.31469739257e-06
5.24868322023e-08
1.37853149267e-07
2.02731985084e-07
4.89799357552e-07
5.31607667676e-08
1.04556422527e-06
2.84503685343e-07
3.17852389696e-07
4.28980878063e-06
1.09847957951e-06
2.29974070431e-06
2.00821196959e-06
1.84348409399e-06
3.83211199457e-07
2.86266935452e-07
2.54831144252e-07
4.04472465673e-07
8.27815246753e-07
1.49205044792e-06
1.40963378327e-06
3.11425238241e-08
5.92108994813e-07
2.95360829903e-08
1.14335281734e-06
8.6100371184e-07
4.54446088905e-07
4.19262776502e-07
1.75433283491e-07
1.01150285973e-06
1.2071029951e-06
9.32660194569e-07
1.69125282517e-07
2.69639141167e-07
3.31917100169e-07
1.52448833563e-07
3.75483257486e-07
4.35139980818e-07
2.52709065385e-07
7.02638650112e-07
2.06727526327e-06
2.2952321782e-07
6.29372348334e-08
2.23882277745e-07
7.69825413279e-07
4.83115900684e-07
1.17774426755e-06
1.02416065349e-07
3.30652431911e-07
5.05496878735e-07
7.28789234441e-07
1.34811453641e-06
1.72173152911e-06
1.68453479407e-07
3.96694024146e-07
1.73154923591e-07
3.2974450578e-07
6.27853553708e-07
1.73787155967e-08
5.42333245382e-07
1.05717358553e-07
1.47365001167e-06
1.78282580808e-07
2.16837272184e-07
1.68203238023e-07
6.56922306861e-07
2.10036755486e-08
1.25429712441e-07
2.3116280899e-07
2.34561523178e-07
2.11417777001e-07
3.3428468108e-07
1.65130803872e-06
4.98435060575e-07
3.08732862998e-07
4.29814602997e-07
7.16425098762e-07
8.9974446905e-07
1.77058706667e-06
1.33701382872e-06
2.0856431022e-06
5.00447107749e-06
2.54741468219e-07
1.33028246416e-06
3.24381587868e-06
2.39770058569e-06
8.34226167115e-07
6.98926203463e-07
3.4360376044e-06
1.08476746032e-06
6.83960876594e-07
1.44045679891e-06
1.83757832787e-06
2.76705497142e-07
5.52723304873e-07
1.05749586298e-06
8.62210810101e-07
7.18139194988e-07
1.38000522324e-07
7.5646885246e-08
1.42214552362e-07
1.53841258778e-06
7.39269128891e-07
2.04288351511e-07
3.70845261661e-07
8.13917211809e-07
6.63697975203e-07
3.41473772599e-06
3.09309584943e-07
2.26975129808e-06
2.10485022719e-06
3.94236016718e-07
2.83009681207e-06
3.93077173951e-07
6.48419290142e-07
5.82126606801e-07
1.44664509164e-07
1.58290610163e-07
4.40933547268e-07
8.18244971934e-08
6.35321544973e-07
1.49670366712e-06
1.1889502678e-06
1.33898947487e-06
1.85773111204e-07
7.46805756252e-07
5.31779977376e-07
1.08744379471e-07
5.12672584987e-08
2.32190266047e-07
2.63273939185e-06
5.13674755588e-07
1.03467912349e-06
1.77588164455e-07
5.06393022787e-07
2.4317831272e-07
7.15098135135e-08
2.13680524632e-07
1.94601125693e-07
2.89307336364e-06
1.33250572698e-06
2.97436926451e-07
6.18169571343e-08
6.0836528215e-08
5.78747322398e-07

