# vtk DataFile Version 3.0
File Name: Molecule/sphere_dip_12/sphere_dip_12_0-s3.vtk
ASCII
DATASET UNSTRUCTURED_GRID
FIELD FieldData 1
TIME 1 1 double
0.0
POINTS 172 double
1.0 0.0 0.0
0.809016994375 0.309016994375 -0.5
0.850650808352 0.525731112119 0.0
0.5 0.809016994375 -0.309016994375
0.5 0.809016994375 0.309016994375
0.0 1.0 0.0
0.809016994375 0.309016994375 0.5
0.309016994375 0.5 0.809016994375
0.0 0.850650808352 0.525731112119
0.0 0.925325404176 0.26286555606
-0.25 0.829833901363 0.417374053247
-0.25 0.904508497187 0.154508497188
-0.5 0.809016994375 0.309016994375
-0.25 0.904508497187 -0.154508497188
-0.5 0.809016994375 0.0
-0.5 0.809016994375 -0.309016994375
0.0 0.850650808352 -0.525731112119
-0.154508497188 0.675325404176 0.667374053247
-0.404508497188 0.654508497187 0.559016994375
-0.309016994375 0.5 0.809016994375
-0.654508497187 0.559016994375 0.404508497188
-0.559016994375 0.404508497188 0.654508497187
-0.309016994375 -0.5 0.809016994375
0.154508497188 -0.675325404176 0.667374053247
0.309016994375 -0.5 0.809016994375
0.417374053247 -0.25 0.829833901363
0.0 0.0 1.0
0.525731112119 0.0 0.850650808352
0.667374053247 -0.154508497188 0.675325404176
0.559016994375 -0.404508497188 0.654508497187
0.809016994375 -0.309016994375 0.5
0.404508497188 -0.654508497187 0.559016994375
0.654508497187 -0.559016994375 0.404508497188
0.5 -0.809016994375 0.309016994375
0.25 -0.829833901363 0.417374053247
0.0 -0.850650808352 0.525731112119
0.829833901363 -0.417374053247 0.25
0.417374053247 -0.25 -0.829833901363
0.309016994375 -0.5 -0.809016994375
0.154508497188 -0.25 -0.904508497187
0.0 -0.5 -0.809016994375
-0.309016994375 -0.5 -0.809016994375
-0.154508497188 -0.25 -0.904508497187
-0.417374053247 -0.25 -0.829833901363
-0.26286555606 0.0 -0.925325404176
-0.525731112119 0.0 -0.850650808352
0.925325404176 -0.26286555606 0.0
0.904508497187 -0.154508497188 0.25
0.904508497187 0.154508497188 0.25
0.809016994375 0.0 0.5
0.667374053247 0.154508497188 0.675325404176
-0.417374053247 0.25 -0.829833901363
-0.809016994375 0.309016994375 -0.5
-0.809016994375 -0.309016994375 -0.5
-0.154508497188 0.25 -0.904508497187
-0.309016994375 0.5 -0.809016994375
0.0 0.5 -0.809016994375
0.809016994375 -0.309016994375 -0.5
0.809016994375 0.0 -0.5
0.667374053247 -0.154508497188 -0.675325404176
0.667374053247 0.154508497188 -0.675325404176
0.525731112119 0.0 -0.850650808352
0.654508497187 0.559016994375 -0.404508497188
0.559016994375 0.404508497188 -0.654508497187
0.404508497188 0.654508497187 -0.559016994375
0.309016994375 0.5 -0.809016994375
0.25 0.829833901363 -0.417374053247
0.154508497188 0.675325404176 -0.667374053247
-0.154508497188 0.25 0.904508497187
0.0 0.5 0.809016994375
0.154508497188 0.25 0.904508497187
-0.417374053247 0.25 0.829833901363
-0.26286555606 0.0 0.925325404176
-0.525731112119 0.0 0.850650808352
0.417374053247 0.25 0.829833901363
0.26286555606 0.0 0.925325404176
-0.417374053247 -0.25 0.829833901363
-0.154508497188 -0.25 0.904508497187
-0.809016994375 0.0 -0.5
-0.904508497187 -0.154508497188 -0.25
-0.904508497187 0.154508497188 -0.25
-1.0 0.0 0.0
-0.829833901363 -0.417374053247 -0.25
-0.925325404176 -0.26286555606 0.0
-0.850650808352 -0.525731112119 0.0
-0.829833901363 0.417374053247 -0.25
-0.925325404176 0.26286555606 0.0
-0.850650808352 0.525731112119 0.0
-0.154508497188 0.675325404176 -0.667374053247
-0.25 0.829833901363 -0.417374053247
-0.404508497188 0.654508497187 -0.559016994375
-0.559016994375 0.404508497188 -0.654508497187
-0.654508497187 0.559016994375 -0.404508497188
-0.675325404176 0.667374053247 -0.154508497188
-0.675325404176 -0.667374053247 -0.154508497188
-0.675325404176 -0.667374053247 0.154508497188
-0.5 -0.809016994375 0.0
-0.5 -0.809016994375 -0.309016994375
-0.5 -0.809016994375 0.309016994375
-0.25 -0.904508497187 -0.154508497188
-0.25 -0.904508497187 0.154508497188
0.0 -1.0 0.0
-0.25 -0.829833901363 -0.417374053247
0.0 -0.925325404176 -0.26286555606
0.0 -0.850650808352 -0.525731112119
-0.25 -0.829833901363 0.417374053247
0.0 -0.925325404176 0.26286555606
-0.829833901363 -0.417374053247 0.25
-0.654508497187 -0.559016994375 0.404508497188
-0.809016994375 -0.309016994375 0.5
-0.404508497188 -0.654508497187 0.559016994375
-0.559016994375 -0.404508497188 0.654508497187
-0.154508497188 -0.675325404176 0.667374053247
-0.667374053247 -0.154508497188 0.675325404176
-0.667374053247 0.154508497188 0.675325404176
-0.809016994375 0.0 0.5
-0.809016994375 0.309016994375 0.5
-0.904508497187 0.154508497188 0.25
-0.904508497187 -0.154508497188 0.25
-0.829833901363 0.417374053247 0.25
-0.404508497188 -0.654508497187 -0.559016994375
-0.559016994375 -0.404508497188 -0.654508497187
-0.654508497187 -0.559016994375 -0.404508497188
-0.154508497188 -0.675325404176 -0.667374053247
0.25 -0.829833901363 -0.417374053247
0.25 -0.904508497187 -0.154508497188
0.5 -0.809016994375 -0.309016994375
0.5 -0.809016994375 0.0
0.25 -0.904508497187 0.154508497188
0.654508497187 -0.559016994375 -0.404508497188
0.559016994375 -0.404508497188 -0.654508497187
0.404508497188 -0.654508497187 -0.559016994375
0.829833901363 -0.417374053247 -0.25
0.675325404176 -0.667374053247 -0.154508497188
0.850650808352 -0.525731112119 0.0
0.154508497188 -0.675325404176 -0.667374053247
0.867171199276 -0.285941275218 -0.25
0.887988106264 -0.394298334089 0.0
0.471552582683 0.125 -0.840242354857
0.613195523811 0.279508497188 -0.664916950682
0.417374053247 0.25 -0.829833901363
0.363195523811 0.375 -0.819425447869
-0.675325404176 0.667374053247 0.154508497188
-0.577254248593 0.684016994375 0.356762745782
-0.731762745781 0.434016994375 0.452254248594
-0.75257965277 0.542374053247 0.202254248594
0.675325404176 -0.667374053247 0.154508497188
0.752579652769 -0.542374053247 0.202254248594
0.587662702088 -0.738195523811 0.231762745782
0.840242354857 -0.471552582683 0.125
0.762988106264 -0.596552582683 0.077254248594
0.26286555606 0.0 -0.925325404176
0.394298334089 0.0 -0.887988106264
0.208687026624 -0.125 -0.914916950682
0.13143277803 0.0 -0.962662702088
0.077254248594 -0.125 -0.952254248593
0.0 0.0 -1.0
0.0 -0.25 -0.904508497187
-0.077254248594 -0.125 -0.952254248593
-0.13143277803 0.0 -0.962662702088
-0.208687026624 -0.125 -0.914916950682
0.877579652769 -0.340119804654 0.125
0.587662702088 -0.738195523811 -0.0772542485935
0.340119804654 0.125 -0.877579652769
0.208687026624 0.125 -0.914916950682
0.285941275218 0.25 -0.867171199275
0.154508497188 0.25 -0.904508497187
0.077254248594 0.125 -0.952254248593
0.231762745782 0.375 -0.856762745781
-0.077254248594 0.125 -0.952254248593
0.0 0.25 -0.904508497187
-0.208687026624 0.125 -0.914916950682

CELLS 340 1360
3 0 1 2
3 2 3 4
3 3 5 4
3 2 4 6
3 4 7 6
3 4 8 7
3 5 9 4
3 4 9 8
3 8 9 10
3 9 11 10
3 9 5 11
3 10 11 12
3 5 13 11
3 13 14 11
3 13 15 14
3 11 14 12
3 16 13 5
3 8 10 17
3 10 18 17
3 10 12 18
3 17 18 19
3 20 21 18
3 18 21 19
3 8 17 7
3 22 23 24
3 24 25 26
3 27 25 28
3 25 29 28
3 25 24 29
3 28 29 30
3 24 31 29
3 31 32 29
3 31 33 32
3 29 32 30
3 24 23 31
3 23 34 31
3 23 35 34
3 31 34 33
3 30 32 36
3 37 38 39
3 38 40 39
3 40 41 42
3 42 41 43
3 44 43 45
3 46 0 47
3 36 47 30
3 0 48 47
3 48 49 47
3 48 6 49
3 47 49 30
3 6 48 2
3 2 48 0
3 30 49 28
3 49 50 28
3 49 6 50
3 28 50 27
3 7 50 6
3 51 45 52
3 45 43 53
3 54 55 56
3 44 45 51
3 54 51 55
3 57 58 0
3 58 1 0
3 57 59 58
3 59 60 58
3 59 61 60
3 58 60 1
3 1 62 2
3 2 62 3
3 1 63 62
3 63 64 62
3 63 65 64
3 62 64 3
3 3 64 66
3 64 67 66
3 64 65 67
3 66 67 16
3 3 66 5
3 66 16 5
3 19 68 69
3 68 70 69
3 68 26 70
3 69 70 7
3 19 71 68
3 71 72 68
3 71 73 72
3 68 72 26
3 7 70 74
3 70 75 74
3 70 26 75
3 74 75 27
3 73 76 72
3 76 77 72
3 76 22 77
3 72 77 26
3 26 77 24
3 24 77 22
3 53 78 45
3 45 78 52
3 53 79 78
3 79 80 78
3 79 81 80
3 78 80 52
3 53 82 79
3 82 83 79
3 82 84 83
3 79 83 81
3 52 80 85
3 80 86 85
3 80 81 86
3 85 86 87
3 16 88 89
3 88 90 89
3 88 55 90
3 89 90 15
3 55 91 90
3 91 92 90
3 91 52 92
3 90 92 15
3 15 92 93
3 92 85 93
3 92 52 85
3 93 85 87
3 84 94 95
3 94 96 95
3 94 97 96
3 95 96 98
3 97 99 96
3 99 100 96
3 99 101 100
3 96 100 98
3 97 102 99
3 102 103 99
3 102 104 103
3 99 103 101
3 98 100 105
3 100 106 105
3 100 101 106
3 105 106 35
3 84 95 107
3 95 108 107
3 95 98 108
3 107 108 109
3 98 110 108
3 110 111 108
3 110 22 111
3 108 111 109
3 98 105 110
3 105 112 110
3 105 35 112
3 110 112 22
3 109 111 113
3 111 76 113
3 111 22 76
3 113 76 73
3 73 114 113
3 114 115 113
3 114 116 115
3 113 115 109
3 116 117 115
3 117 118 115
3 117 81 118
3 115 118 109
3 116 119 117
3 119 86 117
3 119 87 86
3 117 86 81
3 109 118 107
3 118 83 107
3 118 81 83
3 107 83 84
3 41 120 121
3 120 122 121
3 120 97 122
3 121 122 53
3 41 123 120
3 123 102 120
3 123 104 102
3 120 102 97
3 53 122 82
3 122 94 82
3 122 97 94
3 82 94 84
3 104 124 103
3 124 125 103
3 124 126 125
3 103 125 101
3 126 127 125
3 127 128 125
3 127 33 128
3 125 128 101
3 57 129 130
3 129 131 130
3 129 126 131
3 130 131 38
3 57 132 129
3 132 133 129
3 132 134 133
3 129 133 126
3 38 131 135
3 131 124 135
3 131 126 124
3 135 124 104
3 46 136 0
3 0 136 57
3 57 136 132
3 136 137 132
3 136 46 137
3 132 137 134
3 61 138 60
3 138 139 60
3 138 140 139
3 60 139 1
3 1 139 63
3 139 141 63
3 139 140 141
3 63 141 65
3 16 89 13
3 13 89 15
3 87 142 14
3 14 142 12
3 15 93 14
3 14 93 87
3 12 143 18
3 143 20 18
3 20 144 21
3 144 116 21
3 116 144 119
3 144 145 119
3 144 20 145
3 119 145 87
3 87 145 142
3 145 143 142
3 145 20 143
3 142 143 12
3 73 71 21
3 21 71 19
3 116 114 21
3 21 114 73
3 19 69 17
3 17 69 7
3 22 112 23
3 23 112 35
3 27 75 25
3 25 75 26
3 146 147 32
3 32 147 36
3 33 148 32
3 32 148 146
3 36 147 149
3 147 150 149
3 147 146 150
3 149 150 134
3 151 152 37
3 37 152 61
3 39 153 37
3 37 153 151
3 151 153 154
3 153 155 154
3 153 39 155
3 154 155 156
3 42 157 40
3 40 157 39
3 39 157 155
3 157 158 155
3 157 42 158
3 155 158 156
3 104 123 40
3 40 123 41
3 38 135 40
3 40 135 104
3 156 158 159
3 158 160 159
3 158 42 160
3 159 160 44
3 44 160 43
3 43 160 42
3 134 137 149
3 137 161 149
3 137 46 161
3 149 161 36
3 36 161 47
3 47 161 46
3 7 74 50
3 50 74 27
3 52 91 51
3 51 91 55
3 41 121 43
3 43 121 53
3 134 150 133
3 150 162 133
3 150 146 162
3 133 162 126
3 126 162 127
3 162 148 127
3 162 146 148
3 127 148 33
3 101 128 34
3 34 128 33
3 35 106 34
3 34 106 101
3 57 130 37
3 37 130 38
3 61 59 37
3 37 59 57
3 61 152 138
3 152 163 138
3 152 151 163
3 138 163 140
3 151 164 163
3 164 165 163
3 164 166 165
3 163 165 140
3 151 154 164
3 154 167 164
3 154 156 167
3 164 167 166
3 140 165 141
3 165 168 141
3 165 166 168
3 141 168 65
3 156 169 167
3 169 170 167
3 169 54 170
3 167 170 166
3 166 170 56
3 56 170 54
3 65 168 56
3 56 168 166
3 156 159 169
3 159 171 169
3 159 44 171
3 169 171 54
3 54 171 51
3 51 171 44
3 16 67 56
3 56 67 65
3 55 88 56
3 56 88 16

CELL_TYPES 340
5
5
5
5
5
5
5
5
5
5
5
5
5
5
5
5
5
5
5
5
5
5
5
5
5
5
5
5
5
5
5
5
5
5
5
5
5
5
5
5
5
5
5
5
5
5
5
5
5
5
5
5
5
5
5
5
5
5
5
5
5
5
5
5
5
5
5
5
5
5
5
5
5
5
5
5
5
5
5
5
5
5
5
5
5
5
5
5
5
5
5
5
5
5
5
5
5
5
5
5
5
5
5
5
5
5
5
5
5
5
5
5
5
5
5
5
5
5
5
5
5
5
5
5
5
5
5
5
5
5
5
5
5
5
5
5
5
5
5
5
5
5
5
5
5
5
5
5
5
5
5
5
5
5
5
5
5
5
5
5
5
5
5
5
5
5
5
5
5
5
5
5
5
5
5
5
5
5
5
5
5
5
5
5
5
5
5
5
5
5
5
5
5
5
5
5
5
5
5
5
5
5
5
5
5
5
5
5
5
5
5
5
5
5
5
5
5
5
5
5
5
5
5
5
5
5
5
5
5
5
5
5
5
5
5
5
5
5
5
5
5
5
5
5
5
5
5
5
5
5
5
5
5
5
5
5
5
5
5
5
5
5
5
5
5
5
5
5
5
5
5
5
5
5
5
5
5
5
5
5
5
5
5
5
5
5
5
5
5
5
5
5
5
5
5
5
5
5
5
5
5
5
5
5
5
5
5
5
5
5
5
5
5
5
5
5
5
5
5
5
5
5
5
5
5
5
5
5
5
5
5
5
5
5
5
5
5
5
5
5

CELL_DATA 340
SCALARS cell_data_0 double
LOOKUP_TABLE default
2.01088942676e-05
1.90918836936e-05
4.00629759085e-05
4.48113977674e-05
4.02737040036e-05
9.85308492201e-05
0.000532168383251
0.000563959285603
0.000425115508961
0.000371325512429
0.000240458855622
8.78567487937e-05
2.26853221472e-06
1.00921072751e-05
1.0570548488e-05
5.43922716056e-06
2.64234266359e-05
9.93135329217e-05
8.26364291277e-05
0.000104973990788
3.52228224905e-06
0.000158927702179
1.28237189642e-05
1.24981655996e-05
0.000132673049422
0.000442038076873
0.000260341330716
0.000510573706523
0.00055735602816
0.000202494814419
0.000255299968549
0.000198339886667
5.76513855444e-05
0.000217151772003
6.87068205558e-05
5.8435411911e-05
5.71507099477e-05
7.69823116026e-05
0.000102021924708
0.000174695416547
0.000199435255809
0.000193898225025
0.000219456961397
0.000225421532778
0.000329360396711
0.000103086507873
0.000131417176215
0.000156788842455
0.000115637495181
8.21710686765e-05
0.000116625782227
0.000123918351085
8.59495676772e-05
0.000132330707323
8.24914942365e-05
7.73174834824e-05
7.50190457492e-05
0.000207529885034
0.00024144020532
0.000282677054276
0.000180038891436
0.000218545692975
3.54854007994e-05
6.09796295896e-05
1.2588339473e-05
4.97142320072e-05
9.46663204406e-05
2.69674300853e-05
2.8646460661e-05
1.46462760164e-05
4.95580016317e-05
6.48429847634e-05
7.54722025429e-05
2.55990930648e-05
2.34087545416e-05
5.28834355114e-05
5.85411973844e-05
3.84181408938e-05
1.99493679085e-05
3.91121092481e-05
4.72058386862e-05
7.67454664734e-05
8.66370716868e-05
4.94854503841e-05
1.73500926679e-06
3.62438664309e-05
5.57144082001e-06
6.5202452152e-05
1.93860796942e-05
2.68154275151e-05
5.15725140693e-05
1.4776464512e-05
2.58858781325e-05
5.49898381643e-05
1.54538841644e-05
6.73563905855e-05
0.000127296621843
5.43264009463e-06
0.000117967822539
0.000134831731471
3.38595822983e-05
3.54957552057e-05
1.3794688398e-05
3.51237613764e-05
1.61695492419e-05
1.37299432351e-05
4.71856989365e-06
8.77648957407e-06
1.575601578e-05
8.45300702293e-06
4.24340052948e-06
1.54481853527e-06
3.40153517006e-05
4.90559861099e-05
6.59865094365e-05
1.89113655031e-05
7.91909514627e-05
6.2419116573e-05
4.56681641006e-05
3.84970489366e-05
1.84650877622e-05
2.07303481948e-05
2.39793164214e-05
2.30959780486e-06
6.61492002283e-07
8.08723158811e-06
9.42982904273e-05
4.36563917487e-05
0.000117872515093
2.41380734285e-06
0.000321279420104
6.17590184728e-05
0.000103371905336
1.43756396239e-05
1.59238333508e-05
0.000252278648794
7.92042943106e-05
1.91886901878e-05
0.000285364869589
1.39522914366e-05
1.70195159443e-06
2.65130737377e-06
5.44734842547e-05
0.000121337066745
5.53818553984e-05
1.53585343018e-05
4.10320632411e-06
0.000138289085697
6.04991955214e-05
3.08711009292e-05
4.05563175482e-05
4.96541428409e-05
0.000196505962404
2.90491353269e-05
7.6429362556e-06
3.15327000151e-05
4.52859580087e-05
0.000118579398919
7.69303707895e-05
0.000310055706593
9.77530694188e-05
8.19928097708e-05
2.06935876041e-05
0.000263817739237
2.94366843593e-05
1.38332942296e-05
4.88994754951e-06
1.27354683975e-05
0.000131797017847
3.8047837124e-06
1.93324994062e-07
3.6568423133e-06
0.000101840092382
7.12791648572e-05
9.02139230272e-05
4.59658838374e-05
6.77407044522e-05
3.89874904951e-05
9.15436965205e-06
6.4891754415e-05
1.19985022149e-05
8.58528594084e-06
0.000109704324832
4.99171928e-06
8.83294710129e-06
1.63632082694e-05
7.07451957181e-05
0.000257431388922
5.36502280851e-05
2.39514461944e-06
1.0061028181e-05
0.000280724337892
2.44551035915e-05
5.00028774997e-05
4.81699504781e-05
0.000100428485132
9.96794475572e-05
0.000222681342621
0.000171917046027
0.000159774503217
3.60735161379e-05
2.93891023069e-05
3.24350537708e-05
7.06147661621e-05
0.000410525216708
5.69951939145e-05
8.04754411773e-05
9.73669966028e-05
0.000191673291551
4.66880998456e-05
5.56871121123e-05
5.05957642633e-05
5.96524168335e-05
3.0437831231e-05
2.92462241728e-05
4.61487059356e-05
5.91487564091e-05
3.96916942909e-05
1.83358708498e-05
6.54331024972e-06
2.4681999909e-06
5.3676013395e-06
7.52844384563e-06
5.56344939255e-06
1.0109587149e-05
7.94935157598e-05
7.01937542074e-05
8.53833814411e-06
6.77214995969e-06
1.37174370391e-06
5.37824568844e-05
1.49139623837e-06
6.17279039693e-07
1.35642448088e-06
5.74043819198e-05
5.29092411933e-06
1.22151684452e-05
3.36088049223e-05
2.6377811644e-05
1.01593315658e-06
1.7795161781e-05
2.58989865815e-05
4.90123402071e-05
3.29991329782e-05
0.000207741558441
0.000163552064504
4.76896601295e-05
3.96773165731e-05
0.000169257469736
0.000221757110355
5.30186278558e-05
0.000147972631171
0.000117684317379
0.000154057806578
8.1055450473e-05
4.69034395747e-05
0.000122066105722
0.00011775568723
4.43633309726e-05
1.08717074611e-05
4.69515274239e-05
5.36432576469e-05
0.000136251771694
0.000129501605535
6.14072863987e-05
1.02593749294e-05
7.0551588572e-05
7.11743784387e-05
3.37300899678e-05
8.02722771173e-05
4.51023510843e-05
6.96932581745e-06
5.63738248453e-05
7.62809555286e-05
8.1280204689e-05
8.4734688118e-05
0.000163181647008
0.000159382184523
3.45768325037e-05
3.44176349241e-05
6.27600276807e-05
5.70437922493e-05
4.50619381904e-05
0.000156275010537
5.3236016407e-05
4.25615534127e-05
7.92835893043e-05
9.56787362249e-05
0.000146820027695
0.000101767919786
0.000229882217547
0.000432369969438
0.00045120147673
0.000198002510507
0.000140598320064
0.000288790893442
0.000381676178955
0.000138847075417
0.00033404988203
5.92306902178e-05
5.75470351058e-05
0.000368789831109
8.17263795235e-05
0.000118089100399
0.000124998300892
7.58714373282e-05
2.2026683772e-05
7.53477202177e-07
2.39038906545e-08
1.5026690506e-05
4.54952002147e-05
9.18352301513e-06
6.04959858057e-05
3.52324785676e-05
5.5413050046e-05
3.33546204766e-05
5.11463785157e-05
6.92531232209e-05
1.58043098332e-05
1.89403219782e-05
3.64750315711e-05
2.12225935968e-05
6.77410232324e-05
5.0686616864e-06
6.75401967985e-05
7.27056836667e-05
0.000187589262796
0.000192525859617
6.7836493734e-05
0.000140150422399
5.53538117126e-05
1.01769020821e-06
4.17976437543e-05
5.49663650941e-05
0.000154061142619
0.000131767794428
8.37675794308e-05
0.000101144671755
0.000107774892564
8.43638527167e-05

