# vtk DataFile Version 3.0
File Name: Molecule/sphere_cent/sphere_cent_0-s3.vtk
ASCII
DATASET UNSTRUCTURED_GRID
FIELD FieldData 1
TIME 1 1 double
0.0
POINTS 100 double
0.850650808352 -0.525731112119 0.0
0.809016994375 -0.309016994375 -0.5
1.0 0.0 0.0
0.809016994375 0.309016994375 -0.5
0.525731112119 0.0 -0.850650808352
0.850650808352 0.525731112119 0.0
0.0 0.850650808352 0.525731112119
-0.5 0.809016994375 0.309016994375
-0.309016994375 0.5 0.809016994375
-0.809016994375 0.309016994375 0.5
-0.850650808352 0.525731112119 0.0
-0.525731112119 0.0 0.850650808352
-0.309016994375 -0.5 0.809016994375
0.0 0.0 1.0
0.309016994375 -0.5 0.809016994375
0.0 -0.850650808352 0.525731112119
0.525731112119 0.0 0.850650808352
0.809016994375 -0.309016994375 0.5
0.5 -0.809016994375 0.309016994375
0.688190960236 0.587785252292 -0.425325404176
0.5 0.809016994375 -0.309016994375
0.587785252292 0.425325404176 -0.688190960236
0.425325404176 0.688190960236 -0.587785252292
0.309016994375 0.5 -0.809016994375
0.0 0.850650808352 -0.525731112119
0.525731112119 0.850650808352 0.0
0.5 0.809016994375 0.309016994375
0.26286555606 0.951056516295 -0.162459848116
0.26286555606 0.951056516295 0.162459848116
0.0 1.0 0.0
-0.26286555606 0.951056516295 0.162459848116
-0.26286555606 0.951056516295 -0.162459848116
-0.525731112119 0.850650808352 0.0
-0.5 0.809016994375 -0.309016994375
0.0 0.525731112119 0.850650808352
0.309016994375 0.5 0.809016994375
-0.162459848116 0.26286555606 0.951056516295
0.162459848116 0.26286555606 0.951056516295
0.309016994375 -0.5 -0.809016994375
0.162459848116 -0.26286555606 -0.951056516295
0.0 0.0 -1.0
0.0 -0.525731112119 -0.850650808352
-0.162459848116 -0.26286555606 -0.951056516295
-0.309016994375 -0.5 -0.809016994375
0.0 -0.850650808352 -0.525731112119
-0.525731112119 0.0 -0.850650808352
0.688190960236 0.587785252292 0.425325404176
0.809016994375 0.309016994375 0.5
0.425325404176 0.688190960236 0.587785252292
0.587785252292 0.425325404176 0.688190960236
-0.309016994375 0.5 -0.809016994375
-0.425325404176 0.688190960236 -0.587785252292
-0.587785252292 0.425325404176 -0.688190960236
-0.688190960236 0.587785252292 -0.425325404176
-0.809016994375 0.309016994375 -0.5
-0.850650808352 0.0 0.525731112119
-0.809016994375 -0.309016994375 0.5
-0.951056516295 0.162459848116 0.26286555606
-0.951056516295 -0.162459848116 0.26286555606
-1.0 0.0 0.0
0.587785252292 -0.425325404176 -0.688190960236
0.688190960236 -0.587785252292 -0.425325404176
0.425325404176 -0.688190960236 -0.587785252292
0.5 -0.809016994375 -0.309016994375
0.162459848116 0.26286555606 -0.951056516295
-0.162459848116 0.26286555606 -0.951056516295
0.0 0.525731112119 -0.850650808352
0.951056516295 -0.162459848116 0.26286555606
0.951056516295 0.162459848116 0.26286555606
0.850650808352 0.0 0.525731112119
-0.69378047756 -0.16062203564 -0.702046444776
-0.69378047756 0.16062203564 -0.702046444776
-0.850650808352 0.0 -0.525731112119
-0.809016994375 -0.309016994375 -0.5
-0.951056516295 -0.162459848116 -0.26286555606
-0.951056516295 0.162459848116 -0.26286555606
-0.862668480416 -0.433888564553 -0.259891913008
-0.961938357784 -0.273266528913 0.0
-0.850650808352 -0.525731112119 0.0
-0.862668480416 0.433888564553 -0.259891913008
-0.961938357784 0.273266528913 0.0
-0.702046444776 -0.69378047756 -0.16062203564
-0.702046444776 -0.69378047756 0.16062203564
-0.525731112119 -0.850650808352 0.0
-0.5 -0.809016994375 -0.309016994375
-0.5 -0.809016994375 0.309016994375
-0.26286555606 -0.951056516295 -0.162459848116
-0.26286555606 -0.951056516295 0.162459848116
0.0 -1.0 0.0
-0.862668480416 -0.433888564553 0.259891913008
-0.688190960236 -0.587785252292 0.425325404176
-0.425325404176 -0.688190960236 0.587785252292
-0.587785252292 -0.425325404176 0.688190960236
-0.433888564553 -0.259891913008 -0.862668480416
-0.587785252292 -0.425325404176 -0.688190960236
-0.425325404176 -0.688190960236 -0.587785252292
-0.688190960236 -0.587785252292 -0.425325404176
0.26286555606 -0.951056516295 -0.162459848116
0.525731112119 -0.850650808352 0.0
0.26286555606 -0.951056516295 0.162459848116

CELLS 196 784
3 0 1 2
3 1 3 2
3 1 4 3
3 2 3 5
3 6 7 8
3 7 9 8
3 7 10 9
3 8 9 11
3 11 12 13
3 12 14 13
3 12 15 14
3 13 14 16
3 16 14 17
3 14 18 17
3 14 15 18
3 17 18 0
3 3 19 5
3 5 19 20
3 3 21 19
3 21 22 19
3 21 23 22
3 19 22 20
3 23 21 4
3 4 21 3
3 20 22 24
3 22 23 24
3 20 25 5
3 5 25 26
3 20 27 25
3 27 28 25
3 27 29 28
3 25 28 26
3 29 27 24
3 24 27 20
3 26 28 6
3 28 29 6
3 29 30 6
3 6 30 7
3 29 31 30
3 31 32 30
3 31 33 32
3 30 32 7
3 33 31 24
3 24 31 29
3 7 32 10
3 32 33 10
3 8 34 6
3 6 34 35
3 8 36 34
3 36 37 34
3 36 13 37
3 34 37 35
3 13 36 11
3 11 36 8
3 35 37 16
3 37 13 16
3 38 39 4
3 4 39 40
3 38 41 39
3 41 42 39
3 41 43 42
3 39 42 40
3 43 41 44
3 44 41 38
3 40 42 45
3 26 46 5
3 5 46 47
3 26 48 46
3 48 49 46
3 48 35 49
3 46 49 47
3 35 48 6
3 6 48 26
3 47 49 16
3 49 35 16
3 50 51 24
3 24 51 33
3 50 52 51
3 52 53 51
3 52 54 53
3 51 53 33
3 45 52 50
3 33 53 10
3 9 55 11
3 11 55 56
3 9 57 55
3 57 58 55
3 57 59 58
3 55 58 56
3 10 57 9
3 1 60 4
3 4 60 38
3 1 61 60
3 61 62 60
3 61 63 62
3 60 62 38
3 63 61 0
3 0 61 1
3 38 62 44
3 62 63 44
3 40 64 4
3 4 64 23
3 40 65 64
3 65 66 64
3 65 50 66
3 64 66 23
3 50 65 45
3 45 65 40
3 23 66 24
3 66 50 24
3 2 67 0
3 0 67 17
3 2 68 67
3 68 69 67
3 68 47 69
3 67 69 17
3 47 68 5
3 5 68 2
3 17 69 16
3 69 47 16
3 45 70 71
3 70 72 71
3 70 73 72
3 71 72 54
3 73 74 72
3 74 75 72
3 74 59 75
3 72 75 54
3 73 76 74
3 76 77 74
3 76 78 77
3 74 77 59
3 54 75 79
3 75 80 79
3 75 59 80
3 79 80 10
3 78 81 82
3 81 83 82
3 81 84 83
3 82 83 85
3 84 86 83
3 86 87 83
3 86 88 87
3 83 87 85
3 88 86 44
3 44 86 84
3 85 87 15
3 87 88 15
3 78 82 89
3 82 90 89
3 82 85 90
3 89 90 56
3 85 91 90
3 91 92 90
3 91 12 92
3 90 92 56
3 12 91 15
3 15 91 85
3 56 92 11
3 92 12 11
3 45 93 70
3 93 94 70
3 93 43 94
3 70 94 73
3 43 95 94
3 95 96 94
3 95 84 96
3 94 96 73
3 84 95 44
3 44 95 43
3 73 96 76
3 96 81 76
3 96 84 81
3 76 81 78
3 63 97 44
3 44 97 88
3 63 98 97
3 98 99 97
3 98 18 99
3 97 99 88
3 18 98 0
3 0 98 63
3 88 99 15
3 99 18 15
3 43 93 42
3 42 93 45
3 45 71 52
3 52 71 54
3 54 79 53
3 53 79 10
3 10 80 57
3 57 80 59
3 78 89 58
3 58 89 56
3 59 77 58
3 58 77 78

CELL_TYPES 196
5
5
5
5
5
5
5
5
5
5
5
5
5
5
5
5
5
5
5
5
5
5
5
5
5
5
5
5
5
5
5
5
5
5
5
5
5
5
5
5
5
5
5
5
5
5
5
5
5
5
5
5
5
5
5
5
5
5
5
5
5
5
5
5
5
5
5
5
5
5
5
5
5
5
5
5
5
5
5
5
5
5
5
5
5
5
5
5
5
5
5
5
5
5
5
5
5
5
5
5
5
5
5
5
5
5
5
5
5
5
5
5
5
5
5
5
5
5
5
5
5
5
5
5
5
5
5
5
5
5
5
5
5
5
5
5
5
5
5
5
5
5
5
5
5
5
5
5
5
5
5
5
5
5
5
5
5
5
5
5
5
5
5
5
5
5
5
5
5
5
5
5
5
5
5
5
5
5
5
5
5
5
5
5
5
5
5
5
5
5
5
5
5
5
5
5

CELL_DATA 196
SCALARS cell_data_0 double
LOOKUP_TABLE default
9.36138861476e-07
1.99893311102e-06
3.79176586972e-07
4.28521926891e-07
5.71560759283e-06
1.10512291556e-05
5.35461529325e-06
5.74082282619e-06
3.53137416429e-06
7.4967814633e-06
4.29183250811e-06
2.10838673088e-06
4.2232981316e-06
9.67540634645e-06
4.28865475306e-06
5.59781540604e-06
1.56286429659e-06
5.06162705448e-07
1.52203735962e-06
8.44150026448e-07
1.78410250008e-06
1.62725136744e-06
7.58279695812e-07
1.88035249592e-06
1.76714346808e-06
1.71475741798e-06
1.50332975693e-06
1.80167107995e-06
1.43627934536e-06
8.43792124431e-07
1.3541079537e-06
2.02336302864e-06
7.49744544982e-07
4.877817549e-07
1.38817057696e-06
1.37030269083e-06
7.30004598168e-07
3.33944293111e-07
9.94471213599e-07
2.09107977956e-07
9.03595464217e-07
5.10597891763e-07
9.40471024655e-09
7.69901677775e-07
1.94495026434e-07
5.39937867771e-07
3.57106640468e-07
4.2423199655e-08
2.18455879147e-07
5.18998329192e-08
1.1264483323e-06
5.78552757594e-07
8.54789541787e-07
4.99401483961e-07
1.63965351067e-07
8.13647427265e-07
3.6157138388e-08
7.08594598133e-07
4.44994759631e-07
8.74768692835e-09
2.10978949042e-07
3.43048489066e-07
6.91908874835e-07
1.92145893443e-07
9.26705323999e-07
6.22528885418e-07
8.00312428029e-07
1.01399054599e-06
1.05727002718e-07
6.56320474518e-07
4.84952321602e-08
1.70319370952e-07
9.52398171326e-07
8.68716094122e-07
2.06469786666e-07
1.09863004598e-06
2.16762696013e-07
2.38281171881e-07
3.72455393641e-07
2.96305329631e-07
4.39884422435e-07
1.6352383996e-06
1.96941637557e-07
2.04606795618e-07
3.00554402657e-07
6.70268223024e-07
2.21019836344e-07
2.45734050651e-07
7.56362626327e-07
3.23174139416e-07
1.13471761206e-06
1.30886500507e-08
7.85192448711e-07
4.90399921966e-07
7.29061982211e-08
4.30000506432e-07
1.11671847076e-06
4.14865729653e-07
1.87665753387e-07
6.40939022544e-07
8.17772540308e-07
3.54436430917e-07
5.627531492e-08
4.57919872605e-07
2.40653254258e-07
5.62806981925e-07
1.3916771945e-06
1.22003483307e-06
1.76610435479e-07
1.1482655211e-06
9.72718773597e-07
3.52678598932e-07
1.20572251115e-06
1.69848069426e-08
1.86858050376e-07
3.86092503699e-07
6.51242889237e-07
1.22654456083e-06
4.03025225802e-07
8.6288725776e-07
7.1956551445e-07
1.56360052018e-08
3.64130601755e-07
7.98297096884e-08
2.58455032905e-07
2.87538598633e-07
1.32143109356e-07
4.4072623905e-07
3.13462150998e-07
8.32189407742e-08
3.90856042032e-07
3.99050349703e-07
1.96484425785e-07
2.52584119125e-07
1.50317877395e-07
8.5542373712e-07
8.76191081311e-07
3.86247694513e-07
1.90892188767e-07
5.68996452582e-07
5.91014536803e-08
2.7579091025e-07
5.78595213936e-07
6.92351963737e-07
4.57806285448e-07
5.89124820573e-07
1.62988830703e-07
3.33846112567e-07
6.89321145452e-07
8.14770068894e-08
5.04268973123e-07
2.55553874199e-07
2.40372450231e-07
3.26406204144e-07
1.67087358951e-07
2.63249783285e-07
5.87536620546e-07
4.60244262585e-07
3.57952500887e-07
4.80150982596e-07
5.68753353739e-07
1.02262547861e-07
4.54037138003e-08
4.21615002031e-07
1.74163131378e-07
7.19304341261e-08
3.26183244995e-08
1.87811710561e-07
5.35783036955e-07
3.78291249796e-07
2.02665637235e-07
2.62727551628e-10
1.37727035453e-07
5.3664086404e-07
4.47251843526e-07
5.13723596076e-07
1.71408344192e-07
3.28565863054e-07
9.08354983023e-08
1.39677644833e-07
5.76831255681e-07
9.14480168169e-07
9.87956982215e-07
6.43363792062e-07
2.02670565344e-07
3.89922021826e-07
2.21253333527e-07
7.63955126768e-08
1.91215018039e-08
5.0388567742e-07
4.39916232257e-07
3.48810785671e-07
3.07792572077e-08
3.6779791837e-07
3.89107810518e-07
6.59540348803e-08

