# vtk DataFile Version 3.0
File Name: Molecule/sphere_dip_sim/sphere_dip_sim_0-s2.vtk
ASCII
DATASET UNSTRUCTURED_GRID
FIELD FieldData 1
TIME 1 1 double
0.0
POINTS 59 double
0.850650808352 -0.525731112119 0.0
0.809016994375 -0.309016994375 -0.5
1.0 0.0 0.0
0.809016994375 0.309016994375 -0.5
0.525731112119 0.0 -0.850650808352
0.850650808352 0.525731112119 0.0
0.5 0.809016994375 -0.309016994375
0.309016994375 0.5 -0.809016994375
0.0 0.850650808352 -0.525731112119
0.5 0.809016994375 0.309016994375
0.0 1.0 0.0
-0.309016994375 0.5 0.809016994375
0.0 0.0 1.0
0.309016994375 0.5 0.809016994375
-0.525731112119 0.0 0.850650808352
0.525731112119 0.0 0.850650808352
-0.309016994375 -0.5 0.809016994375
0.309016994375 -0.5 0.809016994375
0.0 -0.850650808352 0.525731112119
0.309016994375 -0.5 -0.809016994375
0.0 0.0 -1.0
-0.309016994375 -0.5 -0.809016994375
0.0 -0.850650808352 -0.525731112119
-0.525731112119 0.0 -0.850650808352
0.809016994375 0.309016994375 0.5
0.809016994375 -0.309016994375 0.5
0.0 0.850650808352 0.525731112119
-0.809016994375 -0.309016994375 -0.5
-0.809016994375 0.309016994375 -0.5
-1.0 0.0 0.0
-0.850650808352 -0.525731112119 0.0
-0.850650808352 0.525731112119 0.0
-0.309016994375 0.5 -0.809016994375
-0.5 0.809016994375 -0.309016994375
-0.5 -0.809016994375 -0.309016994375
-0.5 -0.809016994375 0.309016994375
0.0 -1.0 0.0
-0.809016994375 -0.309016994375 0.5
-0.809016994375 0.309016994375 0.5
0.5 -0.809016994375 -0.309016994375
0.5 -0.809016994375 0.309016994375
0.0 0.961938357784 0.273266528913
-0.259891913008 0.862668480416 0.433888564553
-0.26286555606 0.951056516295 0.162459848116
-0.5 0.809016994375 0.309016994375
-0.26286555606 0.951056516295 -0.162459848116
-0.525731112119 0.850650808352 0.0
-0.702046444776 0.69378047756 0.16062203564
-0.702046444776 0.69378047756 -0.16062203564
-0.16062203564 0.702046444776 0.69378047756
-0.425325404176 0.688190960236 0.587785252292
-0.688190960236 0.587785252292 0.425325404176
-0.587785252292 0.425325404176 0.688190960236
-0.862668480416 0.433888564553 0.259891913008
0.587785252292 -0.425325404176 0.688190960236
0.425325404176 -0.688190960236 0.587785252292
0.688190960236 -0.587785252292 0.425325404176
0.862668480416 -0.433888564553 0.259891913008
0.702046444776 -0.69378047756 0.16062203564

CELLS 114 456
3 0 1 2
3 1 3 2
3 1 4 3
3 2 3 5
3 5 3 6
3 3 7 6
3 3 4 7
3 6 7 8
3 5 6 9
3 6 10 9
3 6 8 10
3 11 12 13
3 11 14 12
3 13 12 15
3 14 16 12
3 16 17 12
3 16 18 17
3 12 17 15
3 4 19 20
3 19 21 20
3 19 22 21
3 20 21 23
3 2 24 25
3 2 5 24
3 25 24 15
3 5 9 24
3 9 13 24
3 9 26 13
3 24 13 15
3 23 27 28
3 27 29 28
3 27 30 29
3 28 29 31
3 8 32 33
3 32 28 33
3 32 23 28
3 30 34 35
3 34 36 35
3 34 22 36
3 35 36 18
3 30 35 37
3 35 16 37
3 35 18 16
3 37 16 14
3 14 38 37
3 38 29 37
3 37 29 30
3 23 21 27
3 21 34 27
3 21 22 34
3 27 34 30
3 22 39 36
3 39 40 36
3 36 40 18
3 4 1 19
3 1 39 19
3 1 0 39
3 19 39 22
3 4 20 7
3 20 32 7
3 20 23 32
3 7 32 8
3 10 41 9
3 9 41 26
3 26 41 42
3 41 43 42
3 41 10 43
3 42 43 44
3 10 45 43
3 45 46 43
3 45 33 46
3 43 46 44
3 33 45 8
3 10 45 8
3 44 46 47
3 46 48 47
3 46 33 48
3 47 48 31
3 26 42 49
3 42 50 49
3 42 44 50
3 49 50 11
3 44 51 50
3 51 52 50
3 51 38 52
3 50 52 11
3 44 47 51
3 47 53 51
3 47 31 53
3 51 53 38
3 11 52 14
3 52 38 14
3 26 49 13
3 49 11 13
3 17 54 15
3 15 54 25
3 17 55 54
3 55 56 54
3 55 40 56
3 54 56 25
3 40 55 18
3 17 55 18
3 25 56 57
3 56 58 57
3 56 40 58
3 57 58 0
3 25 57 2
3 0 57 2
3 31 48 28
3 33 48 28
3 38 53 29
3 53 31 29
3 0 58 39
3 39 58 40

CELL_TYPES 114
5
5
5
5
5
5
5
5
5
5
5
5
5
5
5
5
5
5
5
5
5
5
5
5
5
5
5
5
5
5
5
5
5
5
5
5
5
5
5
5
5
5
5
5
5
5
5
5
5
5
5
5
5
5
5
5
5
5
5
5
5
5
5
5
5
5
5
5
5
5
5
5
5
5
5
5
5
5
5
5
5
5
5
5
5
5
5
5
5
5
5
5
5
5
5
5
5
5
5
5
5
5
5
5
5
5
5
5
5
5
5
5
5
5

CELL_DATA 114
SCALARS cell_data_0 double
LOOKUP_TABLE default
0.000783199452016
0.00090174999725
0.00057480881472
0.000215364148491
0.000217938954011
0.000260437764623
8.68375858804e-05
9.41445298903e-05
0.000231545481782
0.000267108440143
7.71944607748e-05
0.000260731317515
0.000228054361682
0.000204316719418
0.000215491433581
0.000270967762178
9.91181775278e-05
0.000227899492313
0.000226797212026
0.000240267939341
9.45940963347e-05
0.000199000114754
0.00019539148206
0.000200042569311
8.08520302291e-05
0.000196090375607
0.00025335725399
0.000120753447114
0.00010063598688
5.86233205997e-05
1.77049533165e-05
2.70920936032e-06
6.09391708551e-07
0.000269233431403
0.000304450912041
9.43223178224e-05
2.55194388582e-05
2.45163553909e-05
1.40387592323e-05
1.65086278738e-06
2.80364104516e-06
5.13604120049e-05
3.39538357129e-05
0.000100268321917
6.25294087243e-05
1.33345330783e-05
2.1309217189e-07
9.54209532521e-05
5.64820836678e-05
3.82369331364e-05
6.42177063624e-06
1.67685305016e-07
9.6403353855e-06
3.89553037087e-06
0.000252699677531
0.000302176779592
0.00056221968379
4.36947495471e-05
0.000223862924543
0.000279869872926
0.00019944902194
7.02070174525e-05
5.51217071592e-05
4.52905074736e-05
2.02817077042e-07
1.58170426844e-07
8.97276869316e-06
1.85184825163e-05
1.01230601063e-06
2.15485574679e-06
0.000134189251571
2.49060070262e-05
0.000182685648448
1.87985691042e-05
1.87229361925e-05
8.90774546201e-07
9.87479389208e-05
4.36353015383e-06
9.09061754683e-07
3.36904579798e-06
1.62945491575e-05
7.22998085592e-06
2.34418357662e-05
2.14739741286e-06
1.37308380408e-06
6.36862226371e-06
1.97743450146e-05
4.35421850536e-07
1.78152392059e-06
1.51137155535e-06
3.41994887363e-05
2.77948937056e-05
8.43052936637e-06
7.60059172289e-06
2.6133313646e-05
5.81534219654e-06
1.89322176933e-05
4.79816299686e-07
7.99696350085e-06
3.59344692195e-07
1.02419138533e-05
4.53955102999e-06
3.88404410323e-06
4.79710327515e-07
3.53115823719e-06
1.27320530157e-05
3.20143587118e-05
0.000116053696107
8.60401027911e-06
0.000214886652589
2.2150668956e-06
4.27870880059e-06
3.68642836221e-05
4.40899402235e-06

