# vtk DataFile Version 3.0
File Name: Molecule/arg/arg_0.5-2.vtk
ASCII
DATASET UNSTRUCTURED_GRID
FIELD FieldData 1
TIME 1 1 double
0.0
POINTS 149 double
-3.403 0.327 1.604
-2.971 0.024 0.066
-2.981 -0.361 1.858
-2.549 -0.664 0.32
-2.984 0.046 0.042
-2.2 -0.483 -0.862
-2.216 -0.458 -0.889
-2.776 1.74 -0.497
-2.39 -0.269 -1.153
-2.211 1.177 -1.613
-2.622 1.932 -0.429
-1.982 1.439 -1.492
-1.81 1.654 -1.416
-2.495 2.657 0.67
-1.615 2.438 -0.879
-1.488 3.163 0.22
-3.186 2.284 1.521
-1.863 3.333 1.507
-2.53 2.972 2.328
-3.419 1.801 1.788
-2.717 2.558 2.345
-2.979 2.017 2.644
-3.408 0.559 1.798
-3.107 1.793 3.017
-3.095 0.593 3.027
-3.105 0.348 2.085
-3.1 0.088 1.867
-2.97 0.105 2.152
-2.978 0.383 3.085
-2.865 -0.346 2.113
-2.52 -0.7 2.425
-2.645 0.041 3.387
-1.592 -1.721 1.268
-2.003 -1.142 3.367
-0.984 -2.263 2.097
-2.487 -0.785 0.321
-0.96 -2.23 0.303
-1.943 -1.202 -0.738
-2.131 -0.618 -0.861
-2.114 -0.682 -1.181
-1.927 -1.264 -1.052
-2.312 -0.441 -1.376
-2.121 -0.506 -1.916
-1.682 -1.348 -1.746
-1.897 0.192 -2.527
-1.864 -0.768 -1.888
-1.57 0.147 -2.691
-2.011 1.039 -2.18
-1.198 0.386 -3.152
-1.348 1.496 -2.696
-1.72 1.257 -2.235
-1.479 1.817 -1.75
-1.107 2.057 -2.211
-1.319 2.584 -1.178
-0.816 3.013 -1.267
-0.543 2.537 -2.312
0.466 3.148 -0.891
-0.048 3.337 -3.001
0.699 3.415 -2.782
1.057 2.557 -0.305
0.892 2.689 -1.891
1.553 2.026 -1.234
0.737 2.845 0.68
1.539 1.918 0.039
1.22 2.206 1.024
0.406 3.093 0.833
1.112 2.426 2.108
0.748 2.699 2.276
-0.034 3.266 2.099
-0.687 3.194 3.654
0.006 2.617 4.044
-1.995 3.111 3.523
-0.58 2.815 3.881
-2.096 2.719 3.73
-1.061 1.806 4.483
-0.466 1.628 4.634
-2.128 2.66 3.763
-1.452 1.611 4.604
-2.373 2.347 3.982
-1.464 1.095 4.666
-0.48 1.041 4.705
-1.655 0.731 4.634
-0.333 0.517 4.869
-0.555 0.096 4.831
-0.878 -0.357 4.785
0.164 -1.171 5.088
0.507 -0.734 5.141
0.93 -2.454 3.923
1.043 -0.806 5.264
1.809 -2.089 4.099
1.037 -1.846 2.131
1.916 -1.481 2.307
1.061 -1.813 0.337
1.48 -1.078 0.031
2.335 -0.746 2.002
1.639 -0.712 -0.547
1.697 -0.118 0.66
1.842 0.216 0.134
1.085 -2.024 -1.812
2.201 -0.141 -1.444
1.67 -1.4 -2.657
-0.548 -1.409 -2.576
0.104 -0.811 -3.39
-0.822 -1.287 -2.506
-0.336 -0.591 -3.197
-0.616 -0.466 -3.125
-0.988 -0.705 -2.664
0.101 0.716 -4.098
0.516 0.418 -4.238
-0.398 1.946 -3.588
0.377 1.347 -4.4
0.117 1.987 -4.134
0.028 3.029 -3.665
0.9 3.106 -3.671
0.989 2.064 -4.14
0.819 3.383 -2.845
1.749 2.404 -3.353
1.668 2.681 -2.526
1.123 2.627 -2.01
2.133 1.624 -1.992
2.194 2.159 -2.516
2.042 0.907 -1.262
2.428 1.273 -2.257
2.342 0.599 -1.57
1.976 0.918 0.014
1.83 1.363 -3.817
1.863 2.209 -3.379
1.103 1.869 -4.167
1.884 1.434 1.198
2.541 0.959 2.592
1.842 1.579 2.299
0.651 1.408 4.781
1.35 0.788 5.074
0.82 0.891 4.947
-3.94 1.181 0.843
-1.891 3.826 2.497
-2.589 1.578 4.495
-1.092 -1.939 4.665
0.786 -2.653 -0.834
3.668 -0.309 3.703
2.756 0.481 5.071
2.756 -1.099 5.071
2.093 -0.513 -4.015
-0.027 -2.3585 3.01
-1.038 -2.101 3.381
-0.081 -2.1965 4.294
1.2465 1.4935 3.54
0.924 2.098 3.1715
0.3285 2.0125 4.4125

CELLS 294 1176
3 0 1 2
3 2 1 3
3 1 4 5
3 5 4 6
3 4 7 8
3 8 7 9
3 7 10 11
3 11 10 12
3 10 13 14
3 14 13 15
3 13 16 17
3 17 16 18
3 16 19 20
3 20 19 21
3 19 22 23
3 23 22 24
3 22 0 25
3 25 0 26
3 25 27 24
3 24 27 28
3 27 26 29
3 29 26 2
3 29 30 28
3 28 30 31
3 30 32 33
3 33 32 34
3 32 35 36
3 36 35 37
3 35 3 38
3 38 3 5
3 38 39 37
3 37 39 40
3 39 6 41
3 41 6 8
3 41 42 40
3 40 42 43
3 42 44 45
3 45 44 46
3 44 47 48
3 48 47 49
3 47 9 50
3 50 9 11
3 50 51 49
3 49 51 52
3 51 12 53
3 53 12 14
3 53 54 52
3 52 54 55
3 54 56 57
3 57 56 58
3 56 59 60
3 60 59 61
3 59 62 63
3 63 62 64
3 62 65 66
3 66 65 67
3 65 15 68
3 68 15 17
3 68 69 67
3 67 69 70
3 69 71 72
3 72 71 73
3 71 18 73
3 73 18 20
3 72 74 70
3 70 74 75
3 74 76 77
3 77 76 78
3 76 21 78
3 78 21 23
3 77 79 75
3 75 79 80
3 79 81 82
3 82 81 83
3 81 31 84
3 84 31 33
3 84 85 83
3 83 85 86
3 85 87 88
3 88 87 89
3 87 90 89
3 89 90 91
3 90 34 92
3 92 34 36
3 92 93 91
3 91 93 94
3 93 95 96
3 96 95 97
3 95 98 99
3 99 98 100
3 98 101 100
3 100 101 102
3 101 103 104
3 104 103 105
3 103 43 106
3 106 43 45
3 106 46 105
3 105 46 48
3 104 107 102
3 102 107 108
3 107 109 110
3 110 109 111
3 109 55 112
3 112 55 57
3 112 113 111
3 111 113 114
3 113 115 116
3 116 115 117
3 115 58 118
3 118 58 60
3 118 119 117
3 117 119 120
3 119 121 122
3 122 121 123
3 121 61 124
3 124 61 63
3 124 97 123
3 123 97 99
3 122 125 120
3 120 125 126
3 125 108 127
3 127 108 110
3 127 114 126
3 126 114 116
3 96 128 94
3 94 128 129
3 128 64 130
3 130 64 66
3 129 131 132
3 131 80 133
3 133 80 82
3 133 86 132
3 132 86 88
3 26 0 2
3 5 3 1
3 8 6 4
3 11 9 7
3 14 12 10
3 17 15 13
3 20 18 16
3 23 21 19
3 25 24 22
3 29 28 27
3 33 31 30
3 36 34 32
3 38 37 35
3 41 40 39
3 45 43 42
3 48 46 44
3 50 49 47
3 53 52 51
3 57 55 54
3 60 58 56
3 63 61 59
3 66 64 62
3 68 67 65
3 72 70 69
3 77 75 74
3 82 80 79
3 84 83 81
3 88 86 85
3 92 91 90
3 96 94 93
3 99 97 95
3 104 102 101
3 106 105 103
3 110 108 107
3 112 111 109
3 116 114 113
3 118 117 115
3 122 120 119
3 124 123 121
3 127 126 125
3 130 129 128
3 133 132 131
3 0 22 134
3 0 134 4
3 0 4 1
3 4 134 7
3 7 134 13
3 7 13 10
3 13 134 16
3 16 134 19
3 19 134 22
3 3 35 2
3 2 35 32
3 2 32 30
3 2 30 29
3 6 39 38
3 6 38 5
3 9 47 42
3 9 42 8
3 8 42 41
3 42 47 44
3 12 51 11
3 11 51 50
3 15 65 56
3 15 56 54
3 15 54 53
3 15 53 14
3 56 65 62
3 56 62 59
3 71 69 135
3 71 135 18
3 18 135 17
3 17 135 68
3 68 135 69
3 76 74 73
3 76 73 20
3 76 20 21
3 73 74 72
3 24 28 136
3 24 136 23
3 23 136 78
3 78 136 77
3 77 136 79
3 79 136 81
3 81 136 31
3 31 136 28
3 26 27 25
3 33 137 84
3 84 137 85
3 37 40 36
3 36 40 43
3 36 43 138
3 36 138 92
3 92 138 93
3 93 138 98
3 93 98 95
3 98 138 101
3 101 138 43
3 101 43 103
3 46 106 45
3 49 52 109
3 49 109 48
3 48 109 107
3 48 107 105
3 105 107 104
3 109 52 55
3 58 115 113
3 58 113 57
3 57 113 112
3 61 121 119
3 61 119 118
3 61 118 60
3 64 128 63
3 63 128 124
3 124 128 97
3 97 128 96
3 67 70 66
3 131 75 80
3 83 86 82
3 82 86 133
3 139 140 141
3 139 141 89
3 139 89 91
3 139 91 94
3 139 94 129
3 139 129 140
3 140 129 132
3 140 132 88
3 140 88 141
3 141 88 89
3 102 108 142
3 102 142 100
3 100 142 99
3 99 142 123
3 123 142 122
3 122 142 125
3 125 142 108
3 111 114 110
3 110 114 127
3 117 120 116
3 116 120 126
3 87 143 90
3 90 143 34
3 34 143 144
3 143 145 144
3 143 87 145
3 144 145 137
3 34 144 33
3 144 137 33
3 137 145 85
3 85 145 87
3 130 146 129
3 146 131 129
3 70 147 66
3 66 147 130
3 130 147 146
3 147 148 146
3 147 70 148
3 146 148 131
3 131 148 75
3 148 70 75

CELL_TYPES 294
5
5
5
5
5
5
5
5
5
5
5
5
5
5
5
5
5
5
5
5
5
5
5
5
5
5
5
5
5
5
5
5
5
5
5
5
5
5
5
5
5
5
5
5
5
5
5
5
5
5
5
5
5
5
5
5
5
5
5
5
5
5
5
5
5
5
5
5
5
5
5
5
5
5
5
5
5
5
5
5
5
5
5
5
5
5
5
5
5
5
5
5
5
5
5
5
5
5
5
5
5
5
5
5
5
5
5
5
5
5
5
5
5
5
5
5
5
5
5
5
5
5
5
5
5
5
5
5
5
5
5
5
5
5
5
5
5
5
5
5
5
5
5
5
5
5
5
5
5
5
5
5
5
5
5
5
5
5
5
5
5
5
5
5
5
5
5
5
5
5
5
5
5
5
5
5
5
5
5
5
5
5
5
5
5
5
5
5
5
5
5
5
5
5
5
5
5
5
5
5
5
5
5
5
5
5
5
5
5
5
5
5
5
5
5
5
5
5
5
5
5
5
5
5
5
5
5
5
5
5
5
5
5
5
5
5
5
5
5
5
5
5
5
5
5
5
5
5
5
5
5
5
5
5
5
5
5
5
5
5
5
5
5
5
5
5
5
5
5
5
5
5
5
5
5
5
5
5
5
5
5
5
5
5
5
5
5
5
5
5
5
5
5
5

CELL_DATA 294
SCALARS cell_data_0 double
LOOKUP_TABLE default
1.29566352375e-07
5.60921444989e-08
2.79584039148e-07
2.2388392087e-07
3.75582097664e-07
9.11722576006e-07
3.3843379761e-07
6.07121976145e-07
2.14273309367e-07
2.36220749727e-07
1.05532932552e-07
4.15852817576e-08
2.14175807377e-08
2.78056331792e-09
4.10555643323e-08
7.38152671685e-08
1.26412939594e-08
3.82887980348e-08
9.33445354658e-08
1.1927844708e-07
7.13016310111e-08
1.91797120073e-08
5.69450714951e-08
1.90648909647e-07
6.3007709194e-06
1.8597466655e-05
2.24767314315e-07
4.74242644326e-07
1.82820623861e-07
3.18048111156e-07
6.86250218665e-08
7.76986068771e-08
1.52575608752e-07
1.05869526076e-07
4.5584536259e-07
8.54537870239e-07
3.46357442778e-07
5.22919799042e-07
8.63118378499e-07
4.93098899937e-07
7.60685195605e-07
2.29013486936e-08
2.98648262272e-07
9.23799422986e-08
2.16183987207e-09
1.10657957632e-07
3.22122122508e-07
1.55083370756e-06
1.79034517207e-06
1.00615201102e-05
3.34380127637e-07
2.10984104637e-06
4.15402428241e-07
1.28601393216e-06
1.52909051724e-06
3.89611274463e-06
1.29728684547e-06
7.2951396625e-07
1.35817293096e-06
5.81088918936e-06
3.86206586626e-07
2.92497840215e-07
2.63867828447e-07
2.63294219873e-07
4.13248791822e-08
1.42227262117e-06
2.9916844465e-08
1.31355079316e-07
5.74115808819e-08
7.85744792665e-08
5.3975196078e-07
3.47074914471e-07
3.38424486322e-08
2.45268608764e-07
3.00157792125e-06
1.65461746237e-06
4.29608306091e-07
1.51612290351e-07
1.52956294618e-05
3.246032786e-05
6.20360785245e-06
5.24540052731e-05
1.20080527301e-05
5.5513900898e-06
5.98003558397e-07
5.85796799406e-06
4.40097396782e-07
8.1900517195e-07
2.72483368401e-06
3.92928920123e-06
5.38412616635e-06
1.35590520608e-06
1.41704413213e-07
1.98821577794e-07
3.10926827709e-07
5.30838243982e-07
2.43422558816e-08
4.69248484757e-07
7.1377548777e-07
8.1436596218e-07
1.34278914364e-05
2.49695686232e-06
2.55170479065e-06
2.87152006669e-06
1.04986022754e-05
7.72144191198e-06
1.15228995733e-05
3.66021813376e-06
5.61851494484e-07
1.1032968027e-06
9.89129368672e-06
1.88561138899e-06
6.9319645427e-07
1.94435862794e-06
1.78347536631e-07
9.05401076076e-07
9.90052144166e-07
3.84041662428e-06
5.51984461999e-06
4.14742570533e-06
1.78708287143e-05
1.25472029234e-05
3.28446770224e-07
7.77689736627e-07
2.06666240565e-06
1.0406360469e-05
1.43662368797e-06
9.25766731281e-07
7.4303997372e-05
6.4754967115e-07
1.18460478123e-07
1.07773234043e-06
1.10795512488e-06
5.7600766127e-08
2.67825448054e-07
2.29845655421e-07
1.68653887905e-07
5.1836770788e-07
5.94733736386e-07
1.13708151025e-07
8.65525464209e-08
1.44206572469e-07
9.92581260246e-08
6.00078208095e-06
2.72426994843e-06
3.53043709526e-07
8.23254796816e-08
2.47089336206e-07
3.69234523868e-07
4.048053592e-07
9.13857659551e-07
9.62745642454e-06
5.16427739777e-06
9.28007877099e-07
3.15972057747e-06
1.79013272629e-06
3.13358881058e-07
3.5884832588e-07
2.80709020879e-07
3.04822870903e-07
2.44495582672e-07
3.357972312e-06
3.67000467783e-06
2.43136352331e-06
2.58824411813e-07
1.73203641123e-07
1.09462949822e-05
4.91883818709e-06
1.12959220468e-05
4.41921937911e-06
4.37845704224e-06
5.39576469624e-08
7.10155716584e-06
3.05915971706e-06
7.88223543275e-08
8.70781967714e-08
4.05277475682e-08
7.79264565835e-08
2.91064239756e-07
6.2763448239e-07
1.30665192185e-08
1.23729596118e-08
1.25930218301e-07
9.59567894622e-09
6.39020962306e-08
1.50832621317e-08
5.7271492145e-07
2.60592576008e-08
1.2909495004e-07
2.49618296601e-09
8.59068675391e-07
1.812159243e-06
4.92186080872e-07
2.70430996781e-07
3.24036058306e-07
6.58316654224e-07
1.57082941276e-07
4.56525252329e-06
1.87254099353e-07
1.62574295096e-08
1.46693268824e-08
3.91728137812e-07
2.17823986407e-07
1.83388754927e-08
2.77979689332e-07
2.15383486155e-07
1.29203528403e-06
5.82408980944e-08
2.40038339447e-08
5.62826825916e-08
8.14240521426e-07
2.71980078937e-08
1.50843156036e-07
2.53314428331e-07
3.50462106914e-08
2.01362299981e-07
5.08502660713e-08
1.59153879114e-07
5.73856028737e-07
6.14613725053e-08
3.59344264079e-05
1.51722368244e-06
6.52026459174e-07
6.98247161885e-07
1.76830399315e-06
7.03903523413e-06
1.66460872179e-07
3.7879754599e-06
2.12921055945e-06
6.98879099995e-07
1.47780897779e-06
3.52464796419e-07
8.66380688075e-07
1.8198751912e-06
6.64124767437e-07
5.41241094979e-06
6.53806120898e-07
1.07438102033e-07
2.27200919998e-06
2.93742724159e-06
2.3279183209e-05
2.45219889123e-07
4.09773014156e-07
2.80368525234e-06
1.84313890707e-06
3.96163165972e-07
1.58400669502e-06
5.01982136502e-07
7.39343502118e-07
6.76300110289e-06
5.31138378908e-07
2.60169000462e-07
6.48878766055e-07
1.00307459895e-05
0.000114731118838
0.000169977494905
6.20708267567e-06
1.31537325656e-05
9.28446845316e-05
0.000122276688554
8.60771195226e-06
4.72164374922e-07
7.79705368506e-05
4.47090039935e-06
3.36411720462e-06
1.11640000064e-06
8.39090141309e-07
6.76594952957e-06
8.93810054248e-06
4.39821743542e-06
1.40064915883e-05
1.47514807732e-06
9.51793974785e-06
4.08053949813e-06
8.74837292171e-05
2.14445731795e-06
4.91057604668e-06
1.0476840835e-05
3.68925087315e-06
9.23369794252e-06
3.15548063213e-05
2.43339435129e-05
1.83942088172e-06
3.81511259707e-05
6.47382332124e-05
1.8026980754e-06
1.43429640326e-05
4.95244571626e-05
0.000261330130217
0.000187301715232
0.000173686949923
1.64327437873e-05
2.85134102314e-07
2.0614413019e-06

