# vtk DataFile Version 3.0
File Name: Molecule/arg/arg_5.0-2.vtk
ASCII
DATASET UNSTRUCTURED_GRID
FIELD FieldData 1
TIME 1 1 double
0.0
POINTS 976 double
-3.403 0.327 1.604
-3.45 0.103 1.078
-3.138 0.005 1.702
-3.183 -0.208 1.2
-2.981 -0.361 1.858
-3.028 -0.584 1.332
-3.298 -0.003 0.536
-3.038 -0.309 0.683
-2.876 -0.691 0.79
-2.971 0.024 0.066
-2.725 -0.284 0.235
-2.549 -0.664 0.32
-2.984 0.046 0.042
-2.617 -0.045 -0.207
-2.63 -0.024 -0.229
-2.351 -0.22 -0.527
-2.365 -0.198 -0.55
-2.2 -0.483 -0.862
-2.216 -0.458 -0.889
-3.25 0.578 -0.258
-2.686 0.062 -0.328
-2.904 0.498 -0.574
-2.48 -0.047 -0.742
-2.684 0.361 -0.973
-2.39 -0.269 -1.153
-2.617 0.185 -1.409
-3.173 1.207 -0.458
-2.84 1.014 -0.738
-2.625 0.846 -1.127
-2.55 0.723 -1.58
-2.776 1.74 -0.497
-2.515 1.451 -0.77
-2.319 1.256 -1.157
-2.211 1.177 -1.613
-2.622 1.932 -0.429
-2.434 1.563 -0.734
-2.291 1.743 -0.67
-2.16 1.459 -1.077
-2.01 1.647 -1.011
-1.982 1.439 -1.492
-1.81 1.654 -1.416
-2.666 2.281 -0.134
-2.046 2.135 -0.548
-2.085 2.448 -0.283
-2.622 2.533 0.247
-2.045 2.674 0.059
-1.659 2.787 -0.585
-1.614 3.039 -0.203
-2.495 2.657 0.67
-1.932 2.785 0.438
-1.488 3.163 0.22
-2.925 2.572 1.071
-2.251 2.77 1.005
-2.033 3.002 1.293
-2.411 2.928 1.645
-1.863 3.333 1.507
-2.279 3.251 1.894
-3.186 2.284 1.521
-2.634 2.694 1.361
-2.865 2.437 1.761
-2.64 2.674 2.039
-2.53 2.972 2.328
-3.419 1.801 1.788
-2.888 2.359 1.917
-3.122 1.876 2.185
-2.717 2.558 2.345
-2.979 2.017 2.644
-3.567 1.179 1.827
-3.202 1.735 2.161
-3.333 1.184 2.196
-3.094 1.732 2.585
-3.223 1.188 2.619
-3.107 1.793 3.017
-3.25 1.192 3.055
-3.408 0.559 1.798
-3.191 0.635 2.17
-3.084 0.647 2.593
-3.095 0.593 3.027
-3.105 0.348 2.085
-3.1 0.088 1.867
-2.97 0.105 2.152
-3.02 0.504 2.546
-2.901 0.29 2.606
-2.978 0.383 3.085
-2.865 -0.346 2.113
-2.52 -0.7 2.425
-2.789 -0.06 2.411
-2.48 -0.378 2.69
-2.828 0.19 2.745
-2.523 -0.123 3.02
-2.645 0.041 3.387
-2.46 -1.117 2.184
-2.148 -0.9 2.844
-2.09 -1.3 2.613
-2.003 -1.142 3.367
-1.937 -1.6 3.103
-2.268 -1.45 1.888
-1.906 -1.62 2.328
-1.726 -1.965 2.777
-1.967 -1.659 1.57
-1.617 -1.821 2.023
-1.396 -2.195 2.428
-1.592 -1.721 1.268
-1.257 -1.88 1.733
-0.984 -2.263 2.097
-2.026 -1.588 0.931
-1.351 -1.766 0.91
-1.757 -1.641 0.594
-1.133 -1.941 0.578
-1.555 -1.812 0.25
-0.96 -2.23 0.303
-1.437 -2.084 -0.068
-2.342 -1.257 0.596
-2.053 -1.332 0.28
-1.861 -1.491 -0.075
-1.784 -1.721 -0.435
-2.487 -0.785 0.321
-2.189 -0.889 0.022
-2.002 -1.032 -0.342
-1.943 -1.202 -0.738
-2.264 -0.668 -0.026
-2.322 -0.554 -0.027
-2.141 -0.611 -0.433
-2.203 -0.492 -0.433
-2.131 -0.618 -0.861
-2.114 -0.682 -1.181
-1.927 -1.264 -1.052
-2.312 -0.441 -1.376
-2.121 -0.506 -1.916
-2.042 -0.816 -1.214
-1.838 -0.886 -1.79
-1.682 -1.348 -1.746
-1.975 -0.256 -2.322
-1.864 -0.768 -1.888
-1.897 0.192 -2.527
-1.672 -0.441 -2.421
-1.57 0.147 -2.691
-1.996 0.646 -2.441
-1.495 0.306 -2.776
-1.602 0.798 -2.682
-1.198 0.386 -3.152
-1.328 0.981 -3.039
-2.011 1.039 -2.18
-1.619 1.224 -2.399
-1.348 1.496 -2.696
-1.72 1.257 -2.235
-1.479 1.817 -1.75
-1.107 2.057 -2.211
-1.346 2.153 -1.415
-1.642 2.007 -1.116
-1.319 2.584 -1.178
-1.615 2.438 -0.879
-0.816 3.013 -1.267
-1.111 2.259 -1.642
-0.623 2.675 -1.729
-0.543 2.537 -2.312
0.466 3.148 -0.891
-0.416 2.926 -1.599
0.331 3.005 -1.38
-0.131 2.956 -2.042
0.328 3.005 -1.907
-0.002 3.1 -2.533
0.456 3.148 -2.398
-0.048 3.337 -3.001
0.833 2.913 -0.61
0.619 2.806 -1.364
0.976 2.577 -1.092
0.892 2.689 -1.891
1.303 2.425 -1.576
1.057 2.557 -0.305
1.192 2.232 -0.796
1.553 2.026 -1.234
0.979 2.767 0.195
1.24 2.204 -0.113
1.167 2.404 0.362
1.539 1.918 0.039
1.462 2.128 0.539
0.737 2.845 0.68
0.936 2.478 0.823
1.22 2.206 1.024
0.406 3.093 0.833
0.71 2.572 1.142
0.419 2.789 1.277
0.841 2.425 1.643
0.539 2.651 1.783
1.112 2.426 2.108
0.748 2.699 2.276
0.011 3.456 0.651
0.142 3.058 1.218
-0.201 3.373 1.06
-0.01 3.117 1.656
-0.348 3.428 1.5
-0.034 3.266 2.099
-0.415 3.616 1.924
-0.504 3.599 0.465
-0.648 3.497 0.898
-0.789 3.55 1.341
-0.913 3.754 1.744
-1.038 3.495 0.311
-1.112 3.406 0.765
-1.247 3.461 1.209
-1.429 3.653 1.595
-1.502 3.118 0.685
-1.632 3.177 1.131
-0.05 3.403 2.531
0.304 2.919 2.221
0.288 3.057 2.654
0.729 2.855 2.766
-0.175 3.437 2.964
0.162 3.091 3.09
0.587 2.894 3.259
-0.395 3.364 3.353
-0.059 3.019 3.48
0.337 2.812 3.701
-0.687 3.194 3.654
-0.352 2.847 3.783
0.006 2.617 4.044
-1.13 3.18 3.766
-0.58 2.815 3.881
-1.094 2.799 4.011
-1.584 3.151 3.721
-1.62 2.766 3.959
-1.995 3.111 3.523
-2.096 2.719 3.73
-2.312 3.063 3.198
-2.464 2.664 3.352
-2.498 3.015 2.783
-2.679 2.608 2.871
-0.832 2.373 4.277
-0.242 2.183 4.431
-1.061 1.806 4.483
-0.466 1.628 4.634
-1.364 2.231 4.354
-1.452 1.611 4.604
-1.713 1.977 4.492
-1.735 2.528 4.103
-2.033 2.233 4.276
-2.128 2.66 3.763
-2.373 2.347 3.982
-2.496 2.611 3.374
-2.69 2.305 3.646
-2.791 2.388 2.985
-2.945 2.113 3.311
-1.464 1.095 4.666
-0.956 1.592 4.533
-0.968 1.074 4.596
-0.48 1.041 4.705
-1.655 0.731 4.634
-1.079 0.886 4.596
-1.26 0.541 4.565
-0.689 0.687 4.666
-0.881 0.322 4.633
-0.333 0.517 4.869
-0.555 0.096 4.831
-2.027 0.463 4.516
-1.383 0.368 4.531
-1.728 0.119 4.423
-1.114 -0.009 4.584
-1.476 -0.27 4.469
-0.878 -0.357 4.785
-1.3 -0.661 4.651
-2.342 0.241 4.242
-2.019 -0.087 4.169
-1.783 -0.487 4.202
-1.658 -0.914 4.34
-2.557 0.093 3.848
-2.219 -0.224 3.803
-1.993 -0.631 3.818
-1.903 -1.082 3.892
-2.301 -0.273 3.375
-2.078 -0.682 3.368
-0.557 -0.612 4.999
-0.228 -0.165 5.05
-0.202 -0.89 5.102
0.134 -0.447 5.155
0.164 -1.171 5.088
0.507 -0.734 5.141
0.37 -1.612 4.973
0.615 -0.976 5.092
0.811 -1.395 4.983
1.043 -0.806 5.264
1.249 -1.247 5.15
0.578 -1.993 4.725
1.008 -1.757 4.747
1.457 -1.629 4.901
0.77 -2.282 4.364
1.191 -2.031 4.405
1.649 -1.918 4.541
0.93 -2.454 3.923
1.343 -2.194 3.985
1.809 -2.089 4.099
1.044 -2.494 3.437
1.451 -2.232 3.524
1.923 -2.129 3.613
1.103 -2.399 2.949
1.506 -2.141 3.061
1.981 -2.034 3.126
1.1 -2.176 2.501
1.504 -1.93 2.635
1.979 -1.811 2.678
1.037 -1.846 2.131
1.444 -1.616 2.284
1.916 -1.481 2.307
0.647 -2.269 2.118
0.836 -1.714 1.711
0.512 -2.064 1.7
0.77 -1.662 1.233
0.47 -1.987 1.224
0.848 -1.697 0.757
0.525 -2.047 0.746
1.061 -1.813 0.337
0.67 -2.236 0.324
0.119 -2.499 2.107
0.075 -2.255 1.691
0.064 -2.164 1.215
0.088 -2.237 0.737
0.142 -2.466 0.313
-0.457 -2.497 2.099
-0.401 -2.253 1.685
-0.378 -2.162 1.209
-0.389 -2.235 0.73
-0.434 -2.464 0.306
-0.837 -2.059 1.682
-0.782 -1.983 1.207
-0.825 -2.042 0.728
1.48 -1.078 0.031
1.032 -1.487 0.709
1.333 -0.958 0.489
1.12 -1.273 1.146
1.358 -0.854 0.972
1.315 -1.197 1.595
1.553 -0.779 1.421
1.592 -1.27 1.999
1.893 -0.741 1.779
2.335 -0.746 2.002
1.639 -0.712 -0.547
1.476 -0.549 0.311
1.615 -0.229 -0.195
1.697 -0.118 0.66
1.842 0.216 0.134
1.696 -1.15 -0.796
1.805 -0.426 -1.067
1.856 -0.818 -1.29
2.201 -0.141 -1.444
2.256 -0.562 -1.683
1.615 -1.54 -1.111
1.784 -1.167 -1.572
2.179 -0.936 -1.985
1.405 -1.841 -1.462
1.595 -1.437 -1.886
1.977 -1.225 -2.321
1.085 -2.024 -1.812
1.309 -1.6 -2.199
1.67 -1.4 -2.657
0.689 -2.07 -2.126
0.955 -1.641 -2.48
-0.336 -0.591 -3.197
-0.669 -0.831 -2.739
-0.616 -0.466 -3.125
-0.95 -0.071 -3.189
0.128 -0.454 -3.788
-0.16 0.24 -3.931
0.27 -0.03 -4.081
0.101 0.716 -4.098
0.516 0.418 -4.238
-0.398 1.946 -3.588
-0.712 2.237 -2.975
-0.106 2.463 -3.53
-0.314 2.656 -3.124
0.028 3.029 -3.665
-0.135 3.18 -3.347
-0.202 2.855 -2.684
0.173 2.486 -3.833
0.85 2.546 -3.838
0.117 1.987 -4.134
1.267 2.733 -3.406
0.819 3.383 -2.845
1.204 2.948 -2.765
1.749 2.404 -3.353
0.902 2.914 -2.485
0.699 3.415 -2.782
0.749 2.956 -2.405
1.123 2.627 -2.01
1.688 2.19 -1.733
1.668 2.681 -2.526
2.133 1.624 -1.992
2.141 1.301 -1.585
2.428 1.273 -2.257
2.435 0.969 -1.874
2.042 0.907 -1.262
2.342 0.599 -1.57
1.911 1.516 -1.257
1.884 0.909 -0.851
1.768 1.444 -0.847
1.861 0.913 -0.411
1.75 1.425 -0.407
1.976 0.918 0.014
1.858 1.462 0.018
1.454 1.892 -0.826
1.449 1.855 -0.388
1.867 0.812 -0.4
1.753 0.215 -0.299
1.896 0.717 -0.83
1.788 0.151 -0.734
2.06 0.644 -1.234
1.942 0.027 -1.129
2.566 1.229 -2.871
2.241 1.687 -2.422
2.339 1.656 -2.857
2.194 2.159 -2.516
2.341 1.264 -3.459
2.179 1.681 -3.275
2.27 2.135 -2.856
1.83 1.363 -3.817
1.817 1.751 -3.528
2.146 2.154 -3.181
1.863 2.209 -3.379
1.605 0.935 -4.222
1.413 1.57 -3.947
1.254 1.267 -4.234
1.103 1.869 -4.167
0.979 1.632 -4.39
1.11 0.579 -4.381
0.902 1.014 -4.346
0.482 0.901 -4.245
0.705 1.435 -4.478
0.989 2.064 -4.14
1.404 2.01 -3.684
1.315 2.161 -3.664
2.007 0.383 0.735
1.733 -0.159 1.085
2.004 0.279 1.15
1.861 -0.287 1.473
2.124 0.139 1.536
2.068 -0.489 1.788
2.355 -0.024 1.857
2.675 -0.196 2.083
2.074 0.941 0.928
2.063 0.767 1.319
2.181 0.613 1.7
2.417 0.492 2.036
2.749 0.417 2.295
1.884 1.434 1.198
1.897 1.199 1.555
2.02 1.032 1.93
2.241 0.95 2.287
2.541 0.959 2.592
1.624 1.884 1.117
1.755 1.469 1.75
1.503 1.904 1.671
1.842 1.579 2.299
1.557 2.073 2.21
1.11 2.216 1.58
1.886 1.845 2.759
2.132 1.224 2.493
2.174 1.477 2.929
2.585 1.225 3.051
1.814 2.002 3.263
2.105 1.625 3.407
2.513 1.382 3.555
1.633 2.033 3.763
1.933 1.655 3.881
2.331 1.413 4.055
1.359 1.937 4.21
1.674 1.563 4.305
2.058 1.316 4.502
1.021 1.721 4.561
1.354 1.359 4.638
1.72 1.101 4.853
0.651 1.408 4.781
1.002 1.062 4.847
1.35 0.788 5.074
0.073 1.245 4.841
0.82 0.891 4.947
0.23 0.725 5.008
0.672 0.387 5.179
1.205 0.294 5.301
0.564 -0.173 5.245
1.099 -0.256 5.367
-1.834 2.927 0.971
1.396 -0.602 0.696
1.678 -0.195 -0.741
-0.988 -0.705 -2.664
-0.822 -1.287 -2.506
0.377 1.347 -4.4
0.9 3.106 -3.671
-2.913 1.955 -0.341
-3.327 1.641 -0.268
-3.327 2.032 -0.008
-2.913 2.297 -0.026
-3.327 2.292 0.383
-2.913 2.519 0.384
-3.327 2.384 0.843
-3.656 1.544 0.048
-3.656 1.916 0.37
-3.656 2.055 0.843
-3.656 1.916 1.316
-3.867 1.641 0.843
-3.867 1.411 1.241
-3.656 0.342 1.089
-3.656 0.609 1.504
-3.867 0.951 1.241
-3.867 0.721 0.843
-3.656 0.342 0.597
-3.867 0.951 0.445
-3.656 0.609 0.182
-3.656 1.057 -0.022
-3.867 1.411 0.445
-3.94 1.181 0.843
-2.457 -1.44 1.367
-2.786 -1.076 1.613
-2.786 -1.076 1.121
-2.457 -1.348 0.907
-2.786 -0.809 2.028
-2.215 0.2 -2.35
-2.215 -0.241 -2.149
-2.52 0.083 -1.912
-2.52 0.561 -1.912
0.827 3.098 -0.086
[...]
CELL_DATA 1948
SCALARS cell_data_0 double
LOOKUP_TABLE default
9.62089214389e-08
1.66586425231e-07
1.05650246444e-07
1.80810820426e-07
4.32758267465e-07
3.71115524007e-07
2.06033343697e-07
2.75525896558e-08
2.99171985863e-07
6.13733036943e-07
7.92270237786e-07
8.07952547866e-07
2.32942765781e-09
2.02090992082e-08
1.40111543365e-08
1.25830502133e-08
6.33109344542e-09
1.31873914726e-10
6.97822432677e-07
6.89841350706e-07
6.23300241142e-07
1.85055702463e-07
1.24657548404e-07
1.88686480834e-07
3.4186388829e-07
1.80558116663e-07
1.80562535349e-07
2.05207724148e-07
2.72076379261e-07
3.78650169957e-07
1.53677647927e-07
1.27222937937e-07
2.20115944182e-07
1.98277457345e-07
2.60342115295e-07
2.17024862872e-07
2.56464565677e-08
2.08250801139e-08
1.79621859557e-08
4.28975388435e-08
5.05121499664e-08
2.47541098678e-08
1.83002689837e-07
8.35277708956e-08
9.90441437626e-10
1.70403036041e-07
3.51022260295e-07
1.05565453656e-07
1.23124299207e-07
3.68500047769e-07
1.00555102584e-07
1.64221574679e-07
9.59545389472e-07
2.40935003034e-07
2.0528950158e-08
2.17710190273e-07
2.12866119778e-07
1.59192693015e-07
1.12405663413e-07
2.70550884151e-07
5.46672464924e-08
1.11574474911e-07
7.48028117313e-08
5.82163720863e-08
2.56125717155e-08
2.97576801353e-08
1.79639442298e-08
1.09326735668e-08
2.32842102381e-08
1.36181164291e-08
1.55613967423e-08
2.65934580519e-08
8.74323137257e-09
9.76113285135e-09
2.00497712555e-09
5.6565879043e-08
1.02381164561e-08
3.03870989577e-09
9.38928258549e-09
1.74587641031e-08
2.89261717028e-08
3.02134388124e-08
2.26257563458e-08
9.51917382029e-09
3.58619232823e-08
2.30758442026e-08
1.97908480076e-08
2.09007741453e-08
2.07271936814e-08
1.70208195214e-08
1.23024908703e-08
1.76450415183e-08
6.45488815036e-08
7.08600132226e-08
2.10180736608e-08
3.00449497894e-08
2.49408912698e-08
1.85252074756e-08
1.5175711839e-08
1.81953325654e-09
7.64923336715e-09
6.81630993103e-09
5.7399151079e-08
4.90239626206e-08
5.88109512439e-09
6.12034516643e-08
3.74429687308e-08
7.66245909453e-09
1.70540744421e-10
7.03809541872e-09
3.38107522631e-08
5.36210620539e-08
3.60861255038e-08
2.4063477861e-08
4.89708461242e-09
9.50040872422e-09
2.40390383378e-08
2.31046578976e-08
6.47432974261e-08
4.28150088722e-08
1.28690791753e-08
1.31503347033e-08
5.92725606277e-09
1.02486306405e-08
9.59862046735e-09
9.395228689e-10
2.1351421805e-09
1.75215350485e-09
1.09516652951e-08
9.62227590184e-09
6.44770175456e-08
6.83016976578e-08
1.51525162096e-08
1.65441974264e-08
4.02191411148e-07
3.59290107385e-07
4.81054475936e-08
1.06797120973e-07
2.2517465164e-07
4.28012824629e-08
1.44686049381e-08
6.01031459536e-08
2.78827973054e-09
4.82949175064e-08
5.84206929077e-08
7.51649873465e-08
8.08938072172e-08
3.19324357907e-09
1.32351721964e-08
1.06711939866e-07
4.62347154999e-08
2.05962014695e-08
6.59539155574e-08
2.33634390863e-10
9.13507346414e-11
1.27592221915e-07
1.83323677852e-07
3.29991508448e-07
5.41639018032e-08
4.39144327815e-08
1.32938085483e-07
3.31199221339e-07
2.37827450079e-07
5.76537830529e-09
9.58772673709e-10
2.3763593915e-09
3.4895378826e-09
5.42287263451e-08
2.19273553198e-07
2.82299250193e-09
1.07602368372e-07
1.28185074674e-07
1.54521971954e-08
1.48780801918e-08
5.77513412032e-09
2.84158231054e-08
1.47848565254e-08
7.87457686672e-09
1.53535258656e-08
1.25073667113e-08
1.44588684017e-08
1.71071180197e-08
7.49191931435e-09
1.41862891486e-08
1.39089685384e-08
3.29862779244e-09
2.99068788124e-09
2.07716745396e-09
9.12407754311e-09
1.68386264594e-08
4.72454932037e-09
3.40277753657e-09
1.63674207898e-09
3.12766834388e-09
7.20653108091e-09
1.01501696485e-08
6.1457365737e-09
3.77262916423e-09
3.45192140491e-09
3.7677155228e-09
5.23321566735e-09
6.78512787815e-09
5.73347950553e-09
5.91210823681e-09
5.04098516026e-09
5.2408258143e-09
4.7435344121e-09
1.70129068417e-09
7.86003593633e-08
6.40839442926e-08
4.28146497762e-09
2.98124953067e-09
6.8802698519e-10
6.85480911475e-08
9.77411255672e-09
3.88037541581e-09
8.76271152933e-09
7.30934393855e-09
6.35939326442e-09
1.27204138794e-08
7.61148800461e-09
1.94922437082e-08
2.47832224573e-08
4.22699128107e-08
3.97192687544e-08
3.16675408773e-08
4.23008621697e-08
2.93398694669e-08
1.83737820809e-08
1.87899767357e-09
5.15867420873e-09
1.06005927952e-09
3.85835251913e-09
1.07836439683e-09
1.99336178465e-09
1.67918811098e-09
2.30230371187e-09
4.13277510065e-09
2.78106764892e-09
8.23133153966e-10
6.51774753687e-08
9.72133270768e-08
1.3397008217e-08
1.25791655931e-08
5.64887869372e-09
1.3344976355e-08
1.83758165903e-08
1.94500059473e-08
1.72076877754e-08
2.17487101388e-08
3.74446952362e-08
5.5079352575e-08
6.17102078687e-08
4.15554712332e-08
4.14646842153e-08
2.20866411946e-08
3.29957656781e-08
2.29569090121e-08
1.1574175608e-08
1.58037345544e-08
1.12828927412e-08
2.0204322349e-08
9.8560189109e-09
4.74082691462e-09
1.93336596938e-09
2.76546867182e-09
1.19620268625e-09
5.75608376384e-09
1.46599146021e-09
2.48823359597e-09
1.76443597071e-09
1.74376286787e-09
1.86252807489e-09
1.79605115959e-08
5.84534685927e-09
3.46120425408e-08
2.65014274145e-08
4.22436644246e-08
2.64813226374e-08
5.98956810063e-08
5.20728323181e-08
3.83828842697e-08
3.84549114076e-08
1.16283045727e-08
3.73918746854e-08
2.88577847643e-08
1.52396494289e-08
1.35708908946e-08
1.02255017443e-08
2.90363132664e-08
1.72265713145e-08
6.24330012428e-08
1.11603105618e-08
1.84519054198e-09
4.16019935588e-10
2.26467954917e-08
3.25839357041e-08
3.34885111095e-08
2.79997407336e-08
3.02059017405e-08
2.67308073333e-08
3.62627527578e-08
4.66388475022e-08
6.61587741888e-08
6.0098858261e-08
7.94783754451e-08
7.28941703562e-08
5.31116368467e-08
6.56404558859e-08
4.38157134614e-08
3.45333802492e-08
2.08530990772e-08
1.7487818784e-08
3.1705444049e-09
7.57329310065e-10
3.30548198702e-08
3.86386873229e-08
7.0219292943e-08
6.61669672718e-08
8.35925318862e-08
8.13874639937e-08
5.55733234138e-08
6.80241309785e-08
8.97723993224e-08
8.1367999043e-08
1.14200334995e-07
9.08420411365e-08
8.60726544652e-08
1.1092917427e-07
6.55426036023e-08
3.76376195661e-08
3.45127576734e-08
4.7624425962e-08
7.16258059705e-08
8.78870493073e-08
9.61016495651e-08
7.43168423139e-08
6.92248375337e-09
1.41330420403e-07
2.09748188631e-07
1.62070920738e-07
1.70832651329e-07
9.75314159309e-08
1.2793170806e-07
5.95613488689e-08
1.90603422201e-07
3.28949891844e-07
2.38684245114e-07
1.9258322741e-07
2.07086075478e-07
2.3007646832e-07
3.60920104393e-07
1.81815995851e-08
1.57922445379e-07
2.47058597978e-07
5.58004712359e-08
1.1515706226e-07
1.88530287791e-07
4.2437091473e-07
1.84229273139e-07
2.42207868361e-09
2.18146753386e-07
5.2606966565e-08
2.27456259985e-07
1.5499234384e-07
1.62951946201e-06
2.16810799921e-06
3.10598947164e-06
1.70129241441e-06
2.16735790511e-06
8.47535985383e-07
5.4358172428e-07
2.51789069779e-07
1.10260727356e-06
1.04699069914e-06
1.14412235565e-06
1.67228464871e-06
1.63508806187e-06
1.6671954104e-06
3.69973983842e-06
2.70443622649e-06
1.94005056888e-06
3.13205000726e-06
2.50152352378e-06
2.36065451804e-06
1.80804918269e-06
2.43334613312e-06
2.4488978203e-06
8.77316065554e-08
1.34086065357e-07
1.60886881332e-06
9.95367342292e-07
4.00840274999e-07
2.61363755321e-07
3.35006318185e-08
8.43599833181e-08
6.36065317193e-07
6.44039818322e-07
8.30842582257e-07
4.05966555696e-08
5.28704598418e-07
5.91307831999e-07
4.49369088652e-07
2.74384169722e-07
1.78846917262e-07
1.22010551577e-07
1.8880342761e-07
4.28284490879e-06
8.41991238977e-08
5.8334887974e-08
7.15601530641e-07
7.83732302152e-07
1.02582400807e-06
1.91896996007e-06
1.83116506714e-08
1.08997299842e-06
1.17258267883e-06
1.07919796642e-06
7.39104292991e-07
1.02016348238e-06
5.68954430376e-08
8.20440873617e-07
6.16658023645e-07
1.08576914905e-08
2.07502236329e-06
1.34345546333e-06
1.37963730201e-06
3.61833407646e-09
1.07244912572e-08
2.25261254192e-08
9.59127440327e-09
6.27690892568e-09
1.57932516788e-08
2.01096837152e-08
1.36186306053e-08
1.0865481607e-08
1.60287520025e-08
7.64491692846e-08
2.49429570252e-09
1.19573345053e-08
9.55238966413e-09
1.12864037032e-08
4.60298837988e-10
3.98134334345e-09
5.78936898557e-08
4.36751167316e-08
1.35988807002e-08
2.21818968863e-08
4.50201486928e-08
3.99825381906e-09
3.43429595825e-08
4.0698449345e-08
2.05941273472e-08
1.55814909278e-08
1.4712604082e-08
2.35978702e-08
1.12820141081e-08
4.23645864771e-08
3.32710160319e-08
1.82509874579e-08
2.85621323508e-08
3.10710774796e-08
6.20510281256e-08
6.49957654206e-08
6.13331955053e-08
5.37557985518e-08
7.63109862752e-08
6.55675591498e-08
4.80600785686e-08
2.46958039243e-08
4.46391890609e-08
1.76785160881e-08
3.52880259673e-08
2.42926473023e-08
2.87138533074e-08
6.03367875726e-09
9.04997902588e-09
4.05393801345e-09
1.23576552726e-08
3.64974158364e-09
2.2968668089e-09
1.16424094035e-09
1.54106976637e-09
4.69555967854e-09
2.53003294549e-09
2.36581074036e-08
9.2903119183e-09
5.48144494945e-09
5.20298131868e-08
4.76024948852e-08
1.45293720814e-08
1.24938993918e-08
2.93993390145e-09
7.53145041056e-09
2.7046684673e-08
4.36031380918e-08
5.31640219092e-08
1.43455109864e-07
7.76175775701e-08
1.72755689397e-07
1.21094183166e-07
1.05634998361e-07
7.62375145276e-07
5.21397992123e-07
1.96200170213e-07
2.63099544746e-07
5.08157376816e-07
4.67357538064e-08
4.5446628586e-08
4.32877870625e-08
4.94997005117e-08
3.12565310209e-08
2.68930377517e-08
2.16684792751e-08
5.94098241895e-08
6.65260088157e-08
1.34577253816e-08
7.99340540339e-09
1.56318563283e-07
4.19542802057e-08
3.80101774854e-09
1.13561813508e-08
7.92703769961e-08
1.09433603223e-08
1.6506169212e-08
1.28304967953e-08
1.80099318791e-09
8.65327614948e-09
1.7165666395e-08
1.64687035836e-08
4.37183381656e-07
7.46786335602e-07
5.85510253976e-08
3.7414030637e-08
4.02221517995e-08
5.3929142706e-07
4.84866015642e-08
4.12095192872e-08
2.67537457183e-07
2.71473028917e-08
2.15987801163e-08
7.33654234776e-08
6.51353530432e-08
8.4666272725e-08
2.51307599027e-08
1.25932268711e-08
2.70155017126e-08
1.44724636307e-07
2.6657386346e-08
9.80766207961e-08
1.0021548879e-07
6.11381231983e-08
3.86717607403e-08
6.36807647085e-10
5.03581772787e-07
6.58730095911e-07
1.8428219398e-07
1.48446136893e-07
6.10027264689e-08
1.63469750436e-08
6.7907212794e-08
6.16267230835e-08
1.84018075866e-08
2.53442798869e-08
7.71662825747e-09
1.46196384212e-08
1.41214916597e-08
6.03321880363e-09
5.9462537337e-09
1.67205770437e-08
7.03612912777e-09
8.95887086888e-09
2.64413260908e-08
2.74485166655e-08
2.60681670023e-08
3.14131206766e-08
6.72683749533e-08
5.03008391237e-08
6.51023267542e-08
2.01119983146e-08
2.97350559873e-08
8.21120548016e-08
1.07454020726e-07
6.51156570819e-08
3.95848877514e-08
7.4955308259e-08
6.25888926263e-08
5.23442180856e-08
3.68025929075e-08
1.31305139255e-08
7.91740862578e-09
1.91475802152e-08
1.10605442532e-08
4.13605424254e-09
4.9959492318e-08
1.80771433004e-09
5.94849866696e-09
2.27416621662e-09
2.23904372906e-08
4.71574249568e-08
4.53014614466e-09
9.95464119685e-08
6.39967424669e-07
2.14712348164e-07
1.5224982001e-07
1.61215949246e-07
6.59103081228e-09
2.87088375251e-08
9.16015309084e-07
9.10770366892e-07
1.99113154364e-06
1.20816708992e-07
2.1066326449e-09
1.24095183254e-07
1.70609385869e-08
4.48398955631e-09
1.01835791843e-08
1.25095570644e-08
1.69643724357e-08
1.61770787529e-08
2.08656470944e-09
8.04059876778e-09
1.04352553624e-08
1.08529974304e-08
9.21535875055e-09
5.85774292572e-09
9.13842574038e-09
3.26218047963e-09
1.50040758154e-09
1.57141445813e-09
4.41130819432e-09
4.78470288275e-09
2.08817429121e-09
2.80566086711e-09
4.97658967254e-09
1.03390510226e-08
2.31912992431e-09
5.35162036551e-09
1.15616089439e-08
1.95355636992e-09
5.08607410036e-09
1.78504251108e-09
1.88432482951e-09
1.2604882415e-08
1.58279044381e-08
2.48243247599e-07
2.72581484615e-07
1.12635274959e-06
3.95670294233e-07
5.06724719873e-07
8.69786937903e-08
4.91078759423e-08
1.70863365606e-08
8.86844768613e-09
2.35623665002e-07
2.53304694954e-07
1.27299657976e-06
8.8917277076e-07
3.65388985029e-06
1.40990150909e-06
3.1734699024e-08
1.21092084789e-07
1.44629663695e-08
4.65652587526e-08
8.07569872546e-07
6.32573064252e-07
7.34029327211e-07
1.33708865645e-08
5.91732176163e-09
7.20748247341e-07
1.0084664215e-06
8.73521225456e-07
8.20382629809e-07
4.33125606253e-08
1.39117013784e-08
1.32905575701e-08
4.88819399145e-07
7.25624962414e-08
2.26930292834e-06
2.35410129941e-06
5.63281940503e-08
1.96091742039e-06
3.82267290768e-07
3.66641704071e-07
3.42551687062e-07
1.44449272956e-08
6.85978102499e-09
1.63932433589e-08
5.86682556998e-09
2.59943558521e-07
2.69705790868e-07
2.96063408355e-07
1.17921994188e-07
4.25222145009e-08
1.79769380725e-08
5.59729612497e-08
3.80992653467e-08
1.00644615187e-08
4.74806674516e-09
3.93079377583e-08
5.08225868472e-08
4.59801586612e-10
3.91879205246e-09
3.34778274666e-08
6.44524585513e-08
1.28539032019e-08
1.4225736855e-08
1.12444387151e-08
1.44691686042e-08
1.58054495007e-08
3.22676429685e-08
9.41523244395e-08
5.2694438034e-08
5.98399488194e-08
1.21990779457e-08
3.21929775767e-08
4.69821334062e-08
1.11302929119e-08
6.09442914829e-08
1.77789630842e-07
2.15425796243e-07
1.78379990168e-07
3.31974718344e-08
6.61566352902e-08
7.12399241416e-08
1.27163279972e-07
1.33189039996e-07
8.15671449902e-08
4.9464401213e-08
3.6965012023e-08
6.73190037974e-08
7.89796946035e-08
6.92396680704e-08
7.11037306893e-08
1.52177278826e-08
3.4561411819e-08
3.78364693167e-08
1.39068202911e-08
2.73279253885e-08
2.3536234421e-08
1.43647567071e-08
6.19950715191e-08
7.13260760373e-08
3.01727057769e-08
6.29482960164e-09
1.61471429034e-08
4.9634964048e-09
1.97462071851e-09
3.30902528655e-08
1.05929448854e-08
4.6974890616e-09
3.95613533127e-08
4.17934404568e-08
3.16750711019e-08
3.33359903061e-07
1.60724889817e-07
2.03960582554e-07
4.90122847575e-07
1.18696812933e-07
2.03136983815e-07
6.12753500116e-08
3.86539383473e-08
1.70346308761e-09
7.97993818831e-09
2.05262461787e-08
2.03890397135e-08
1.46438383233e-07
7.7278045873e-08
2.64791461852e-08
5.51570323302e-09
3.18502622144e-08
6.7019342671e-09
5.26213286496e-09
1.1248070325e-07
1.03185005904e-07
1.14523924808e-07
1.00363291404e-08
2.29011219567e-08
1.05761928269e-07
2.45181418628e-07
1.30627057906e-07
3.8880614083e-08
1.19403577336e-07
2.50459437957e-09
3.29392202866e-09
1.55498697092e-08
4.01922932136e-08
1.37795212118e-08
6.12236815061e-10
2.16582550838e-08
1.20457680777e-08
8.27658034416e-09
4.06201678685e-08
4.15183476356e-08
1.13006530139e-08
1.3825096371e-07
2.3043699173e-07
5.49682971013e-07
9.7714848651e-08
9.51381131884e-08
1.83577530238e-07
8.62405726262e-08
1.85851210149e-07
1.03168535461e-07
4.94803900794e-08
5.93445726259e-09
2.94173219522e-08
7.1682675554e-09
9.50446751288e-09
1.79903799746e-08
8.10256192019e-09
7.96838396312e-09
1.49827464364e-08
6.87557058193e-09
1.21260927131e-08
2.45280720132e-09
1.10177430208e-08
4.62498927645e-09
6.25652195295e-09
2.479851377e-09
3.02394439945e-09
1.20374168086e-07
4.39339858773e-08
5.44847075948e-08
1.71462117144e-09
3.32269769434e-09
7.88764999839e-09
2.23101992977e-08
1.91769893587e-08
3.39052377398e-09
7.00057862772e-09
7.07486315647e-10
8.42274166975e-09
9.42288168098e-09
7.31410775203e-09
8.04387397495e-09
1.00505914333e-08
3.46648560625e-09
1.34229661442e-07
1.25912316225e-07
4.97913938254e-07
4.06760179443e-10
3.85098304634e-09
3.50534649322e-07
3.32380753631e-08
2.38032381325e-07
2.63593587726e-07
3.25929030854e-09
1.53752443076e-07
1.35484701646e-09
1.73409676707e-09
2.93755591126e-09
3.27555558367e-09
4.08265695566e-09
4.22479986812e-09
3.84606194574e-09
4.04631180782e-09
5.7142417885e-09
5.36071920209e-09
4.61121240691e-09
3.33884537019e-09
4.24210944548e-09
4.74490433779e-09
4.13867959032e-09
4.93676663427e-09
3.36687698922e-09
1.1065132712e-08
8.95786853527e-09
3.83757201701e-09
1.68513262532e-07
3.10726465497e-07
7.15002799583e-08
9.22847625805e-09
6.69286560843e-09
8.1609712968e-09
2.32168385034e-09
3.74747449284e-09
7.20751165498e-09
8.80927057181e-09
7.59320103164e-09
1.29219691694e-09
1.78443316305e-08
1.19713851005e-08
1.33974305715e-08
3.70251395779e-09
7.30119558881e-09
6.92632032568e-09
2.77257680839e-09
3.46326617579e-09
1.32198496561e-10
1.9575244001e-09
5.59582773279e-09
8.26946404003e-08
3.1722371192e-07
1.09967900496e-08
1.25447793997e-08
1.11247707064e-08
1.88853513461e-08
2.80678379871e-09
1.48208405073e-09
2.47967444417e-09
1.60941270062e-09
4.39209248666e-09
2.54950882931e-09
2.29528687858e-08
2.25466157862e-08
6.18636363438e-08
3.34162883361e-09
2.99286838286e-08
5.43063087982e-08
2.68003184107e-08
3.91852757592e-08
1.01943451989e-08
9.11409144961e-10
5.03538448659e-09
1.05817064688e-08
7.11493480552e-09
3.48864269639e-09
1.45294846249e-08
3.33028587564e-08
9.8907314909e-09
1.91727338169e-08
2.9123497194e-08
2.05958387345e-08
2.32337896722e-08
1.68829493026e-08
2.46583344902e-08
1.25271697317e-08
1.16123922808e-10
2.24727275591e-09
3.41442567809e-08
1.54637258092e-08
3.8938652443e-08
7.46853863207e-08
5.61063319883e-08
3.98911966554e-08
4.07513292338e-08
1.79506511078e-08
1.91931469217e-09
1.32265533216e-08
2.10671069272e-08
2.91740025311e-08
7.00652529005e-08
5.98380203854e-08
5.14509093974e-08
4.90082761311e-08
3.53464881623e-08
4.66770132202e-08
3.75506906293e-08
2.56944374709e-08
4.29504806837e-09
3.43585446866e-09
2.13187148133e-08
3.37177304286e-08
5.08610898084e-08
1.69303363384e-08
6.6314881557e-09
5.83397816023e-09
9.93552693792e-09
9.36434901501e-09
9.68654244572e-09
9.3206850216e-09
7.3882149102e-09
5.26875763013e-09
4.60724513025e-09
2.82205013304e-09
2.46149206957e-09
1.4473030432e-09
4.63209851057e-09
6.11661083288e-09
1.05180154126e-08
1.01061027986e-08
8.69367055503e-09
8.52313396213e-09
1.12108021705e-08
1.15313452564e-08
1.3052272003e-08
1.20455863705e-08
1.14434331277e-08
5.79884795544e-09
8.76309294798e-09
7.50025366911e-09
9.10518279521e-09
7.24943325074e-09
5.58513166749e-10
2.23933123398e-09
1.84557471638e-08
9.53057112203e-09
2.06036346614e-08
8.80450789578e-09
3.46148582135e-09
5.08300052518e-09
5.30313872667e-09
4.05370339609e-09
1.5845757734e-09
9.26253359699e-09
1.79762406514e-10
1.30533653915e-09
7.62836991288e-09
5.43719899801e-09
1.04291333933e-08
2.3735769999e-08
1.81318445033e-08
2.20973724625e-08
2.16009815594e-08
2.59159954813e-08
1.11887302371e-08
1.16628499195e-08
1.17579816547e-08
1.7784846638e-08
1.44752549997e-08
3.98373040895e-09
2.61409365994e-09
1.38100358338e-10
2.09129429053e-08
1.71997042462e-08
1.97700763407e-08
1.61666334477e-08
1.47494140734e-08
4.1279665731e-09
1.05589161746e-08
2.35616947943e-08
1.80908398165e-08
1.40841761026e-08
5.18633188861e-09
5.824606346e-09
7.48206334844e-10
4.28205309411e-08
4.88534275838e-08
1.57088059517e-07
8.17380462928e-08
2.69496530004e-07
7.91842450805e-08
8.48764119694e-08
2.940508568e-09
3.23860271154e-08
4.46052405769e-08
1.54033382064e-08
1.50524927868e-08
1.10774093457e-08
5.13065875341e-09
1.04902313732e-09
7.72879251209e-09
2.33100606297e-08
8.18627134931e-09
3.67286323148e-08
1.24786780185e-08
1.67084370511e-08
1.86671181344e-09
6.93044010394e-09
4.48093753738e-09
5.14242773627e-09
5.72011371701e-09
1.95377873714e-09
2.0177065238e-09
1.71577884304e-08
3.1813072672e-08
5.08622130924e-08
8.90689840151e-08
2.63662604147e-08
6.26834808414e-08
4.39434621501e-08
5.91498808938e-09
2.50289989401e-08
3.76948133875e-08
4.85423628929e-08
4.82533863997e-08
4.97077676182e-08
4.76586659491e-08
5.20179694988e-08
1.99133099977e-09
4.22076284182e-08
6.20397928822e-08
5.91771917163e-08
1.523496388e-08
7.79739911394e-09
8.06706630365e-09
5.3552839747e-09
3.75357948173e-08
3.93806390716e-08
4.53716538486e-08
2.43224621208e-08
1.08955374257e-08
9.29698931714e-09
9.13586963785e-09
7.15877958277e-09
4.37772262015e-09
2.7526469621e-08
8.42920725073e-10
7.87149098154e-09
9.25823353683e-09
2.96371599302e-08
4.96092422775e-08
4.94805894126e-08
6.24599015816e-08
1.67332424869e-08
1.69820276092e-08
1.73286455322e-08
1.24427598591e-07
1.24486310477e-07
1.51334424456e-07
2.92426773278e-08
1.45875229959e-08
4.8847114717e-07
3.61709039172e-07
4.2705562246e-07
9.97725706982e-08
2.3653739727e-07
1.56768417403e-09
2.78853461109e-08
1.35405242528e-07
3.44419423826e-08
3.55932552127e-08
6.64271749794e-07