# vtk DataFile Version 3.0
File Name: Molecule/arg/arg_0.5-1.vtk
ASCII
DATASET UNSTRUCTURED_GRID
FIELD FieldData 1
TIME 1 1 double
0.0
POINTS 146 double
-3.403 0.327 1.604
-2.971 0.024 0.066
-2.981 -0.361 1.858
-2.549 -0.664 0.32
-2.984 0.046 0.042
-2.2 -0.483 -0.862
-2.216 -0.458 -0.889
-2.776 1.74 -0.497
-2.39 -0.269 -1.153
-2.211 1.177 -1.613
-2.622 1.932 -0.429
-1.982 1.439 -1.492
-1.81 1.654 -1.416
-2.495 2.657 0.67
-1.615 2.438 -0.879
-1.488 3.163 0.22
-3.186 2.284 1.521
-1.863 3.333 1.507
-2.53 2.972 2.328
-3.419 1.801 1.788
-2.717 2.558 2.345
-2.979 2.017 2.644
-3.408 0.559 1.798
-3.107 1.793 3.017
-3.095 0.593 3.027
-3.105 0.348 2.085
-3.1 0.088 1.867
-2.97 0.105 2.152
-2.978 0.383 3.085
-2.865 -0.346 2.113
-2.52 -0.7 2.425
-2.645 0.041 3.387
-1.592 -1.721 1.268
-2.003 -1.142 3.367
-0.984 -2.263 2.097
-2.487 -0.785 0.321
-0.96 -2.23 0.303
-1.943 -1.202 -0.738
-2.131 -0.618 -0.861
-2.114 -0.682 -1.181
-1.927 -1.264 -1.052
-2.312 -0.441 -1.376
-2.121 -0.506 -1.916
-1.682 -1.348 -1.746
-1.897 0.192 -2.527
-1.864 -0.768 -1.888
-1.57 0.147 -2.691
-2.011 1.039 -2.18
-1.198 0.386 -3.152
-1.348 1.496 -2.696
-1.72 1.257 -2.235
-1.479 1.817 -1.75
-1.107 2.057 -2.211
-1.319 2.584 -1.178
-0.816 3.013 -1.267
-0.543 2.537 -2.312
0.466 3.148 -0.891
-0.048 3.337 -3.001
0.699 3.415 -2.782
1.057 2.557 -0.305
0.892 2.689 -1.891
1.553 2.026 -1.234
0.737 2.845 0.68
1.539 1.918 0.039
1.22 2.206 1.024
0.406 3.093 0.833
1.112 2.426 2.108
0.748 2.699 2.276
-0.034 3.266 2.099
-0.687 3.194 3.654
0.006 2.617 4.044
-1.995 3.111 3.523
-0.58 2.815 3.881
-2.096 2.719 3.73
-1.061 1.806 4.483
-0.466 1.628 4.634
-2.128 2.66 3.763
-1.452 1.611 4.604
-2.373 2.347 3.982
-1.464 1.095 4.666
-0.48 1.041 4.705
-1.655 0.731 4.634
-0.333 0.517 4.869
-0.555 0.096 4.831
-0.878 -0.357 4.785
0.164 -1.171 5.088
0.507 -0.734 5.141
0.93 -2.454 3.923
1.043 -0.806 5.264
1.809 -2.089 4.099
1.037 -1.846 2.131
1.916 -1.481 2.307
1.061 -1.813 0.337
1.48 -1.078 0.031
2.335 -0.746 2.002
1.639 -0.712 -0.547
1.697 -0.118 0.66
1.842 0.216 0.134
1.085 -2.024 -1.812
2.201 -0.141 -1.444
1.67 -1.4 -2.657
-0.548 -1.409 -2.576
0.104 -0.811 -3.39
-0.822 -1.287 -2.506
-0.336 -0.591 -3.197
-0.616 -0.466 -3.125
-0.988 -0.705 -2.664
0.101 0.716 -4.098
0.516 0.418 -4.238
-0.398 1.946 -3.588
0.377 1.347 -4.4
0.117 1.987 -4.134
0.028 3.029 -3.665
0.9 3.106 -3.671
0.989 2.064 -4.14
0.819 3.383 -2.845
1.749 2.404 -3.353
1.668 2.681 -2.526
1.123 2.627 -2.01
2.133 1.624 -1.992
2.194 2.159 -2.516
2.042 0.907 -1.262
2.428 1.273 -2.257
2.342 0.599 -1.57
1.976 0.918 0.014
1.83 1.363 -3.817
1.863 2.209 -3.379
1.103 1.869 -4.167
1.884 1.434 1.198
2.541 0.959 2.592
1.842 1.579 2.299
0.651 1.408 4.781
1.35 0.788 5.074
0.82 0.891 4.947
-3.94 1.181 0.843
-1.891 3.826 2.497
-2.589 1.578 4.495
-1.092 -1.939 4.665
0.786 -2.653 -0.834
3.668 -0.309 3.703
2.756 0.481 5.071
2.756 -1.099 5.071
2.093 -0.513 -4.015
-0.027 -2.3585 3.01
-1.038 -2.101 3.381
-0.081 -2.1965 4.294

CELLS 288 1152
3 0 1 2
3 2 1 3
3 1 4 5
3 5 4 6
3 4 7 8
3 8 7 9
3 7 10 11
3 11 10 12
3 10 13 14
3 14 13 15
3 13 16 17
3 17 16 18
3 16 19 20
3 20 19 21
3 19 22 23
3 23 22 24
3 22 0 25
3 25 0 26
3 25 27 24
3 24 27 28
3 27 26 29
3 29 26 2
3 29 30 28
3 28 30 31
3 30 32 33
3 33 32 34
3 32 35 36
3 36 35 37
3 35 3 38
3 38 3 5
3 38 39 37
3 37 39 40
3 39 6 41
3 41 6 8
3 41 42 40
3 40 42 43
3 42 44 45
3 45 44 46
3 44 47 48
3 48 47 49
3 47 9 50
3 50 9 11
3 50 51 49
3 49 51 52
3 51 12 53
3 53 12 14
3 53 54 52
3 52 54 55
3 54 56 57
3 57 56 58
3 56 59 60
3 60 59 61
3 59 62 63
3 63 62 64
3 62 65 66
3 66 65 67
3 65 15 68
3 68 15 17
3 68 69 67
3 67 69 70
3 69 71 72
3 72 71 73
3 71 18 73
3 73 18 20
3 72 74 70
3 70 74 75
3 74 76 77
3 77 76 78
3 76 21 78
3 78 21 23
3 77 79 75
3 75 79 80
3 79 81 82
3 82 81 83
3 81 31 84
3 84 31 33
3 84 85 83
3 83 85 86
3 85 87 88
3 88 87 89
3 87 90 89
3 89 90 91
3 90 34 92
3 92 34 36
3 92 93 91
3 91 93 94
3 93 95 96
3 96 95 97
3 95 98 99
3 99 98 100
3 98 101 100
3 100 101 102
3 101 103 104
3 104 103 105
3 103 43 106
3 106 43 45
3 106 46 105
3 105 46 48
3 104 107 102
3 102 107 108
3 107 109 110
3 110 109 111
3 109 55 112
3 112 55 57
3 112 113 111
3 111 113 114
3 113 115 116
3 116 115 117
3 115 58 118
3 118 58 60
3 118 119 117
3 117 119 120
3 119 121 122
3 122 121 123
3 121 61 124
3 124 61 63
3 124 97 123
3 123 97 99
3 122 125 120
3 120 125 126
3 125 108 127
3 127 108 110
3 127 114 126
3 126 114 116
3 96 128 94
3 94 128 129
3 128 64 130
3 130 64 66
3 130 131 129
3 129 131 132
3 131 80 133
3 133 80 82
3 133 86 132
3 132 86 88
3 26 0 2
3 5 3 1
3 8 6 4
3 11 9 7
3 14 12 10
3 17 15 13
3 20 18 16
3 23 21 19
3 25 24 22
3 29 28 27
3 33 31 30
3 36 34 32
3 38 37 35
3 41 40 39
3 45 43 42
3 48 46 44
3 50 49 47
3 53 52 51
3 57 55 54
3 60 58 56
3 63 61 59
3 66 64 62
3 68 67 65
3 72 70 69
3 77 75 74
3 82 80 79
3 84 83 81
3 88 86 85
3 92 91 90
3 96 94 93
3 99 97 95
3 104 102 101
3 106 105 103
3 110 108 107
3 112 111 109
3 116 114 113
3 118 117 115
3 122 120 119
3 124 123 121
3 127 126 125
3 130 129 128
3 133 132 131
3 0 22 134
3 0 134 4
3 0 4 1
3 4 134 7
3 7 134 13
3 7 13 10
3 13 134 16
3 16 134 19
3 19 134 22
3 3 35 2
3 2 35 32
3 2 32 30
3 2 30 29
3 6 39 38
3 6 38 5
3 9 47 42
3 9 42 8
3 8 42 41
3 42 47 44
3 12 51 11
3 11 51 50
3 15 65 56
3 15 56 54
3 15 54 53
3 15 53 14
3 56 65 62
3 56 62 59
3 71 69 135
3 71 135 18
3 18 135 17
3 17 135 68
3 68 135 69
3 76 74 73
3 76 73 20
3 76 20 21
3 73 74 72
3 24 28 136
3 24 136 23
3 23 136 78
3 78 136 77
3 77 136 79
3 79 136 81
3 81 136 31
3 31 136 28
3 26 27 25
3 33 137 84
3 84 137 85
3 37 40 36
3 36 40 43
3 36 43 138
3 36 138 92
3 92 138 93
3 93 138 98
3 93 98 95
3 98 138 101
3 101 138 43
3 101 43 103
3 46 106 45
3 49 52 109
3 49 109 48
3 48 109 107
3 48 107 105
3 105 107 104
3 109 52 55
3 58 115 113
3 58 113 57
3 57 113 112
3 61 121 119
3 61 119 118
3 61 118 60
3 64 128 63
3 63 128 124
3 124 128 97
3 97 128 96
3 67 70 66
3 66 70 130
3 130 70 131
3 131 70 75
3 131 75 80
3 83 86 82
3 82 86 133
3 139 140 141
3 139 141 89
3 139 89 91
3 139 91 94
3 139 94 129
3 139 129 140
3 140 129 132
3 140 132 88
3 140 88 141
3 141 88 89
3 102 108 142
3 102 142 100
3 100 142 99
3 99 142 123
3 123 142 122
3 122 142 125
3 125 142 108
3 111 114 110
3 110 114 127
3 117 120 116
3 116 120 126
3 87 143 90
3 90 143 34
3 34 143 144
3 143 145 144
3 143 87 145
3 144 145 137
3 34 144 33
3 144 137 33
3 137 145 85
3 85 145 87

CELL_TYPES 288
5
5
5
5
5
5
5
5
5
5
5
5
5
5
5
5
5
5
5
5
5
5
5
5
5
5
5
5
5
5
5
5
5
5
5
5
5
5
5
5
5
5
5
5
5
5
5
5
5
5
5
5
5
5
5
5
5
5
5
5
5
5
5
5
5
5
5
5
5
5
5
5
5
5
5
5
5
5
5
5
5
5
5
5
5
5
5
5
5
5
5
5
5
5
5
5
5
5
5
5
5
5
5
5
5
5
5
5
5
5
5
5
5
5
5
5
5
5
5
5
5
5
5
5
5
5
5
5
5
5
5
5
5
5
5
5
5
5
5
5
5
5
5
5
5
5
5
5
5
5
5
5
5
5
5
5
5
5
5
5
5
5
5
5
5
5
5
5
5
5
5
5
5
5
5
5
5
5
5
5
5
5
5
5
5
5
5
5
5
5
5
5
5
5
5
5
5
5
5
5
5
5
5
5
5
5
5
5
5
5
5
5
5
5
5
5
5
5
5
5
5
5
5
5
5
5
5
5
5
5
5
5
5
5
5
5
5
5
5
5
5
5
5
5
5
5
5
5
5
5
5
5
5
5
5
5
5
5
5
5
5
5
5
5
5
5
5
5
5
5
5
5
5
5
5
5
5
5
5
5
5
5
5
5
5
5
5
5

CELL_DATA 288
SCALARS cell_data_0 double
LOOKUP_TABLE default
1.20131794287e-07
6.16997794523e-08
2.8791855562e-07
2.2391469998e-07
3.76156618303e-07
9.11585313542e-07
3.43656063787e-07
6.05256231498e-07
2.24583221256e-07
2.1200094135e-07
8.49546046938e-08
2.31436313318e-07
3.83831333691e-09
8.85572563817e-09
2.97522656121e-08
3.15312450514e-08
1.18083409169e-08
3.92536416872e-08
9.02832227691e-08
1.15227127235e-07
7.26889245571e-08
2.53517175935e-08
5.47136331817e-08
1.50583603661e-07
6.32802198616e-06
1.85209495136e-05
2.27492721766e-07
4.52471404445e-07
1.77541616399e-07
2.92297853052e-07
6.86746206576e-08
8.04085363375e-08
1.54570726211e-07
1.05076665026e-07
4.5932776777e-07
8.62039906907e-07
3.55900054159e-07
5.43941497831e-07
8.59850260142e-07
4.9175146562e-07
7.63855345039e-07
1.42924417767e-08
3.06280523102e-07
1.06958690002e-07
5.66403649624e-09
1.18381726944e-07
3.79524530568e-07
1.61671927651e-06
1.24514852584e-06
1.05682526206e-05
1.05458976198e-06
2.3896763768e-06
1.08896334533e-06
7.65052564401e-10
1.83587292138e-07
7.23546942416e-07
8.14146917485e-07
1.92368707659e-07
7.55125568565e-07
4.68425276727e-06
1.40533696583e-07
2.05566877236e-07
1.85105559824e-07
1.05021831549e-07
9.87633229026e-07
5.5295780646e-07
8.61729023327e-08
9.7529324669e-09
6.89323132187e-08
5.30609360769e-08
1.5244469095e-07
6.20146377097e-08
2.9848053133e-08
1.96855645121e-07
2.97142494506e-06
1.51866811359e-06
4.02105607894e-07
1.90073412481e-07
1.59768341916e-05
3.28833365945e-05
6.03181906781e-06
5.25520736806e-05
1.20942280576e-05
5.76562606531e-06
8.55041407461e-07
5.1678348876e-06
3.78190668227e-07
1.17857525142e-06
2.40070082578e-06
4.01426607707e-06
5.31765800085e-06
1.35599685282e-06
1.34693610038e-07
1.94464687897e-07
3.14724800215e-07
5.25362172609e-07
3.16903750116e-08
4.79291011001e-07
7.10642599052e-07
8.19962207129e-07
1.34379838296e-05
2.48610864098e-06
2.53631503865e-06
2.88618434821e-06
1.05030098204e-05
7.73058693635e-06
1.15578308317e-05
3.64573381508e-06
5.68172350382e-07
1.03612336512e-06
9.57265799857e-06
1.85827133598e-06
6.02025040221e-07
1.9792676433e-06
2.9627431591e-07
1.90909370037e-06
9.82842676309e-07
3.88108864011e-06
5.527658893e-06
4.06588331847e-06
1.78911103098e-05
1.25536478953e-05
3.20810300125e-07
7.63245430036e-07
1.77914756646e-06
3.66097490088e-06
1.44884058681e-06
1.08253625934e-05
6.89321403319e-05
6.44845582149e-05
6.71387179919e-07
2.74065749678e-07
1.10531949056e-06
1.04006395719e-06
6.84938664e-08
2.51707428765e-07
2.38236032444e-07
1.74780152859e-07
5.33696846556e-07
6.0644787734e-07
7.072109264e-08
1.13505557004e-07
1.44794218442e-07
9.41903032908e-08
6.03302860588e-06
2.72738043916e-06
3.47470064446e-07
8.36145278876e-08
2.46548364932e-07
3.67687133837e-07
4.04112002957e-07
9.03942202932e-07
9.51618130335e-06
4.49117534829e-06
1.02197974054e-06
1.49940879848e-06
7.88616640498e-07
2.29740711612e-07
3.62064174078e-08
2.09258629804e-08
3.08053521018e-07
2.48760324411e-07
3.19536964087e-06
2.10687683021e-06
2.61675009887e-06
2.54656850179e-07
1.70385487379e-07
1.09544522515e-05
4.91807561902e-06
1.13226912505e-05
4.42581954397e-06
4.46358343606e-06
7.60027956002e-08
7.09221804652e-06
9.34343563067e-06
6.60820559522e-07
8.39654692969e-08
6.65515920196e-08
7.79486237069e-08
2.65436357941e-07
6.59970818463e-07
1.35313048e-08
2.5918984996e-08
1.58761959866e-07
2.24432593011e-08
6.55907525274e-08
1.98236312744e-08
5.62173805684e-07
2.18230390131e-08
1.28616071467e-07
4.87083530128e-09
8.62040434134e-07
1.83023904658e-06
4.87769351191e-07
2.84177102615e-07
3.26044817759e-07
6.58829338787e-07
1.72000064845e-06
4.45916939177e-06
2.3382564528e-07
1.6574746743e-08
6.64589600388e-08
2.55728405777e-08
9.64634303457e-08
2.06336372914e-07
2.52544161278e-07
6.05894977778e-08
4.65606809591e-07
3.81963655203e-08
1.04051685821e-07
1.8365785319e-07
4.17825117914e-07
7.60517737513e-09
1.95086127552e-07
1.98854347143e-07
1.10711049772e-07
5.25501955274e-08
8.50781591295e-08
2.38969753142e-07
6.02062047042e-07
6.32454461721e-08
3.58880412782e-05
1.48578177864e-06
6.64286866393e-07
6.91793851742e-07
1.79319898868e-06
7.03149879892e-06
2.56987511891e-07
3.30605569875e-06
2.27671189562e-06
7.03858592149e-07
1.47201822428e-06
3.61882245653e-07
8.61659951277e-07
1.84451802178e-06
6.7086930238e-07
5.41967232393e-06
6.54804725318e-07
1.06627294777e-07
2.26296088209e-06
2.92713233619e-06
2.29769953862e-05
2.52782341614e-07
4.34424461861e-08
2.70934621777e-06
1.81212186743e-06
4.17490437571e-06
1.4656046924e-06
1.68300110258e-06
1.72912843249e-06
1.62124661344e-06
5.38984927978e-05
0.000222864662042
6.10596741835e-06
5.03614515267e-07
2.40573026326e-07
4.25579630595e-07
1.03637423205e-05
0.000117593806682
0.000175154981529
6.76429451022e-06
9.70829691089e-06
8.51049916628e-05
9.46466150691e-05
8.55290476116e-06
6.77343220894e-07
7.928133424e-05
4.44149955817e-06
3.36998888279e-06
1.13573289023e-06
1.1458684504e-06
6.65123250922e-06
8.90449961429e-06
4.36026260549e-06
1.40200076598e-05
1.47498227862e-06
9.61704303264e-06
4.09660743478e-06
8.71597441354e-05
2.20340649671e-06
5.0229796469e-06
1.05394497838e-05
3.45284105695e-06
9.20133871596e-06
3.15612874244e-05
2.43666011982e-05
1.73217495659e-06
3.81192314813e-05

