# vtk DataFile Version 3.0
File Name: Molecule/arg/arg_1.0-1.vtk
ASCII
DATASET UNSTRUCTURED_GRID
FIELD FieldData 1
TIME 1 1 double
0.0
POINTS 194 double
-3.403 0.327 1.604
-2.971 0.024 0.066
-2.981 -0.361 1.858
-2.549 -0.664 0.32
-2.984 0.046 0.042
-2.2 -0.483 -0.862
-2.216 -0.458 -0.889
-2.776 1.74 -0.497
-2.39 -0.269 -1.153
-2.211 1.177 -1.613
-2.622 1.932 -0.429
-1.982 1.439 -1.492
-1.81 1.654 -1.416
-2.495 2.657 0.67
-1.615 2.438 -0.879
-1.488 3.163 0.22
-3.186 2.284 1.521
-1.863 3.333 1.507
-2.53 2.972 2.328
-3.419 1.801 1.788
-2.717 2.558 2.345
-2.979 2.017 2.644
-3.408 0.559 1.798
-3.107 1.793 3.017
-3.095 0.593 3.027
-3.105 0.348 2.085
-3.1 0.088 1.867
-2.97 0.105 2.152
-2.978 0.383 3.085
-2.865 -0.346 2.113
-2.52 -0.7 2.425
-2.645 0.041 3.387
-1.592 -1.721 1.268
-2.003 -1.142 3.367
-0.984 -2.263 2.097
-2.487 -0.785 0.321
-0.96 -2.23 0.303
-1.943 -1.202 -0.738
-2.131 -0.618 -0.861
-2.114 -0.682 -1.181
-1.927 -1.264 -1.052
-2.312 -0.441 -1.376
-2.121 -0.506 -1.916
-1.682 -1.348 -1.746
-1.897 0.192 -2.527
-1.864 -0.768 -1.888
-1.57 0.147 -2.691
-2.011 1.039 -2.18
-1.198 0.386 -3.152
-1.348 1.496 -2.696
-1.72 1.257 -2.235
-1.479 1.817 -1.75
-1.107 2.057 -2.211
-1.319 2.584 -1.178
-0.816 3.013 -1.267
-0.543 2.537 -2.312
0.466 3.148 -0.891
-0.131 2.956 -2.042
0.328 3.005 -1.907
-0.048 3.337 -3.001
1.057 2.557 -0.305
0.892 2.689 -1.891
1.553 2.026 -1.234
0.737 2.845 0.68
1.539 1.918 0.039
1.22 2.206 1.024
0.406 3.093 0.833
1.112 2.426 2.108
0.748 2.699 2.276
-0.034 3.266 2.099
-0.687 3.194 3.654
0.006 2.617 4.044
-1.995 3.111 3.523
-0.58 2.815 3.881
-2.096 2.719 3.73
-1.061 1.806 4.483
-0.466 1.628 4.634
-2.128 2.66 3.763
-1.452 1.611 4.604
-2.373 2.347 3.982
-1.464 1.095 4.666
-0.48 1.041 4.705
-1.655 0.731 4.634
-0.333 0.517 4.869
-0.555 0.096 4.831
-2.342 0.241 4.242
-0.878 -0.357 4.785
-1.658 -0.914 4.34
0.164 -1.171 5.088
0.507 -0.734 5.141
0.709 -2.198 4.495
1.043 -0.806 5.264
1.588 -1.833 4.672
1.07 -2.477 3.273
1.949 -2.112 3.449
1.037 -1.846 2.131
1.916 -1.481 2.307
0.119 -2.499 2.107
0.77 -1.662 1.233
0.064 -2.164 1.215
1.061 -1.813 0.337
0.142 -2.466 0.313
-0.782 -1.983 1.207
1.48 -1.078 0.031
1.205 -1.217 1.373
1.436 -0.812 1.205
2.335 -0.746 2.002
1.639 -0.712 -0.547
1.697 -0.118 0.66
1.842 0.216 0.134
1.488 -1.753 -1.343
2.201 -0.141 -1.444
2.057 -1.14 -2.207
0.547 -2.053 -2.217
1.154 -1.428 -3.046
-0.548 -1.409 -2.576
0.104 -0.811 -3.39
-0.822 -1.287 -2.506
-0.336 -0.591 -3.197
-0.616 -0.466 -3.125
-0.988 -0.705 -2.664
0.101 0.716 -4.098
0.516 0.418 -4.238
-0.398 1.946 -3.588
0.377 1.347 -4.4
0.117 1.987 -4.134
0.028 3.029 -3.665
0.9 3.106 -3.671
0.989 2.064 -4.14
0.819 3.383 -2.845
1.749 2.404 -3.353
1.668 2.681 -2.526
0.699 3.415 -2.782
1.123 2.627 -2.01
2.133 1.624 -1.992
2.194 2.159 -2.516
2.042 0.907 -1.262
2.428 1.273 -2.257
2.342 0.599 -1.57
1.976 0.918 0.014
1.83 1.363 -3.817
1.863 2.209 -3.379
1.103 1.869 -4.167
1.884 1.434 1.198
2.541 0.959 2.592
1.842 1.579 2.299
1.814 2.002 3.263
2.513 1.382 3.555
1.359 1.937 4.21
2.058 1.316 4.502
0.651 1.408 4.781
1.35 0.788 5.074
0.82 0.891 4.947
-3.504 2.232 0.843
-3.504 1.707 -0.068
-3.94 1.181 0.843
-2.634 -1.288 1.367
0.675 3.275 -0.086
-1.198 3.606 3.478
-1.198 4.012 2.497
-2.179 3.606 2.497
-2.876 1.51 4.286
-0.744 -2.552 4.317
-0.744 -1.685 4.947
-1.656 -1.685 4.225
-0.744 -2.884 3.297
0.384 -2.884 3.297
0.438 -2.808 -0.834
-0.69 -2.808 -0.834
-0.69 -2.476 -1.854
1.35 -2.145 -0.834
0.799 2.522 4.049
3.668 -0.309 3.703
3.32 0.763 3.703
3.32 0.227 4.631
3.32 -0.845 4.631
3.32 -1.381 3.703
3.32 -0.845 2.775
3.32 0.227 2.775
2.408 0.227 5.353
2.408 -0.845 5.353
2.408 -1.712 4.723
2.923 0.206 -2.769
2.606 -0.584 -3.343
2.606 0.508 -3.698
1.775 -1.279 -3.309
1.775 -0.584 -4.137
0.749 -0.584 -4.137
0.3255 3.376 -2.8915
1.173 0.8905 -4.0275
1.4665 1.616 -3.992
0.8095 1.1435 -4.2025
0.7995 3.2605 -3.2265
0.426 3.2215 -3.336

CELLS 384 1536
3 0 1 2
3 2 1 3
3 1 4 5
3 5 4 6
3 4 7 8
3 8 7 9
3 7 10 11
3 11 10 12
3 10 13 14
3 14 13 15
3 13 16 17
3 17 16 18
3 16 19 20
3 20 19 21
3 19 22 23
3 23 22 24
3 22 0 25
3 25 0 26
3 25 27 24
3 24 27 28
3 27 26 29
3 29 26 2
3 29 30 28
3 28 30 31
3 30 32 33
3 33 32 34
3 32 35 36
3 36 35 37
3 35 3 38
3 38 3 5
3 38 39 37
3 37 39 40
3 39 6 41
3 41 6 8
3 41 42 40
3 40 42 43
3 42 44 45
3 45 44 46
3 44 47 48
3 48 47 49
3 47 9 50
3 50 9 11
3 50 51 49
3 49 51 52
3 51 12 53
3 53 12 14
3 53 54 52
3 52 54 55
3 54 56 57
3 57 56 58
3 57 58 59
3 56 60 61
3 61 60 62
3 60 63 64
3 64 63 65
3 63 66 67
3 67 66 68
3 66 15 69
3 69 15 17
3 69 70 68
3 68 70 71
3 70 72 73
3 73 72 74
3 72 18 74
3 74 18 20
3 73 75 71
3 71 75 76
3 75 77 78
3 78 77 79
3 77 21 79
3 79 21 23
3 78 80 76
3 76 80 81
3 80 82 83
3 83 82 84
3 82 85 86
3 86 85 87
3 85 31 87
3 87 31 33
3 86 88 84
3 84 88 89
3 88 90 91
3 91 90 92
3 90 93 92
3 92 93 94
3 93 95 94
3 94 95 96
3 95 97 98
3 98 97 99
3 98 99 100
3 100 99 101
3 97 34 99
3 99 34 102
3 99 102 101
3 101 102 36
3 100 103 104
3 104 103 105
3 104 105 96
3 96 105 106
3 103 107 108
3 108 107 109
3 107 110 111
3 111 110 112
3 110 113 112
3 112 113 114
3 113 115 114
3 114 115 116
3 115 117 118
3 118 117 119
3 117 43 120
3 120 43 45
3 120 46 119
3 119 46 48
3 118 121 116
3 116 121 122
3 121 123 124
3 124 123 125
3 123 55 126
3 126 55 59
3 126 127 125
3 125 127 128
3 127 129 130
3 130 129 131
3 129 132 133
3 133 132 61
3 133 134 131
3 131 134 135
3 134 136 137
3 137 136 138
3 136 62 139
3 139 62 64
3 139 109 138
3 138 109 111
3 137 140 135
3 135 140 141
3 142 128 141
3 141 128 130
3 108 143 106
3 106 143 144
3 143 65 145
3 145 65 67
3 145 146 144
3 144 146 147
3 146 148 147
3 147 148 149
3 148 150 149
3 149 150 151
3 150 81 152
3 152 81 83
3 152 89 151
3 151 89 91
3 26 0 2
3 5 3 1
3 8 6 4
3 11 9 7
3 14 12 10
3 17 15 13
3 20 18 16
3 23 21 19
3 25 24 22
3 29 28 27
3 33 31 30
3 102 34 32
3 102 32 36
3 38 37 35
3 41 40 39
3 45 43 42
3 48 46 44
3 50 49 47
3 53 52 51
3 59 55 57
3 57 55 54
3 61 132 58
3 61 58 56
3 64 62 60
3 67 65 63
3 69 68 66
3 73 71 70
3 78 76 75
3 83 81 80
3 86 84 82
3 91 89 88
3 104 96 95
3 104 95 98
3 104 98 100
3 108 106 105
3 108 105 103
3 111 109 107
3 118 116 115
3 120 119 117
3 124 122 121
3 126 125 123
3 130 128 127
3 133 131 129
3 137 135 134
3 139 138 136
3 145 144 143
3 152 151 150
3 153 154 155
3 155 154 4
3 155 4 0
3 155 0 22
3 155 22 19
3 155 19 153
3 153 19 16
3 153 16 13
3 153 13 154
3 154 13 10
3 154 10 7
3 154 7 4
3 0 4 1
3 3 35 156
3 3 156 2
3 2 156 30
3 2 30 29
3 30 156 32
3 32 156 35
3 6 39 38
3 6 38 5
3 9 47 42
3 9 42 8
3 8 42 41
3 42 47 44
3 12 51 11
3 11 51 50
3 15 66 157
3 15 157 54
3 15 54 53
3 15 53 14
3 54 157 56
3 56 157 60
3 60 157 63
3 63 157 66
3 158 159 160
3 158 160 72
3 158 72 70
3 158 70 159
3 159 70 69
3 159 69 17
3 159 17 160
3 160 17 18
3 160 18 72
3 77 75 74
3 77 74 20
3 77 20 21
3 74 75 73
3 24 28 161
3 24 161 23
3 23 161 79
3 79 161 78
3 78 161 80
3 80 161 82
3 82 161 85
3 85 161 28
3 85 28 31
3 26 27 25
3 162 163 164
3 162 164 165
3 162 165 166
3 162 166 90
3 162 90 163
3 163 90 88
3 163 88 86
3 163 86 87
3 163 87 164
3 164 87 33
3 164 33 165
3 165 33 34
3 165 34 97
3 165 97 166
3 166 97 93
3 166 93 90
3 93 97 95
3 167 168 169
3 167 169 113
3 167 113 170
3 167 170 100
3 167 100 101
3 167 101 168
3 168 101 36
3 168 36 37
3 168 37 40
3 168 40 43
3 168 43 169
3 169 43 117
3 169 117 115
3 169 115 113
3 100 170 103
3 103 170 107
3 107 170 110
3 110 170 113
3 46 120 45
3 49 52 123
3 49 123 48
3 48 123 121
3 48 121 119
3 119 121 118
3 123 52 55
3 62 136 134
3 62 134 133
3 62 133 61
3 65 143 64
3 64 143 139
3 139 143 109
3 109 143 108
3 68 71 171
3 68 171 146
3 68 146 67
3 67 146 145
3 146 171 148
3 148 171 150
3 150 171 71
3 150 71 76
3 150 76 81
3 84 89 83
3 83 89 152
3 172 173 174
3 172 174 175
3 172 175 176
3 172 176 177
3 172 177 178
3 172 178 173
3 174 179 180
3 175 174 180
3 175 180 181
3 176 175 181
3 176 181 94
3 176 94 96
3 176 96 177
3 177 96 106
3 177 106 178
3 178 106 144
3 178 144 173
3 173 144 147
3 173 147 149
3 173 149 174
3 174 149 179
3 179 149 151
3 179 151 91
3 179 91 180
3 180 91 92
3 180 92 181
3 181 92 94
3 182 183 184
3 183 185 186
3 184 183 186
3 186 185 187
3 186 187 122
3 186 140 184
3 184 140 137
3 184 137 182
3 182 137 138
3 182 138 111
3 182 111 112
3 182 112 183
3 183 112 185
3 185 112 114
3 185 114 187
3 187 114 116
3 187 116 122
3 125 128 124
3 124 128 142
3 131 135 130
3 130 135 141
3 132 188 58
3 58 188 59
3 140 189 190
3 189 191 190
3 189 122 191
3 190 191 142
3 142 191 124
3 191 122 124
3 140 190 141
3 141 190 142
3 127 192 129
3 129 192 132
3 132 192 188
3 192 193 188
3 192 127 193
3 188 193 59
3 59 193 126
3 193 127 126
3 122 189 186
3 186 189 140

CELL_TYPES 384
5
5
5
5
5
5
5
5
5
5
5
5
5
5
5
5
5
5
5
5
5
5
5
5
5
5
5
5
5
5
5
5
5
5
5
5
5
5
5
5
5
5
5
5
5
5
5
5
5
5
5
5
5
5
5
5
5
5
5
5
5
5
5
5
5
5
5
5
5
5
5
5
5
5
5
5
5
5
5
5
5
5
5
5
5
5
5
5
5
5
5
5
5
5
5
5
5
5
5
5
5
5
5
5
5
5
5
5
5
5
5
5
5
5
5
5
5
5
5
5
5
5
5
5
5
5
5
5
5
5
5
5
5
5
5
5
5
5
5
5
5
5
5
5
5
5
5
5
5
5
5
5
5
5
5
5
5
5
5
5
5
5
5
5
5
5
5
5
5
5
5
5
5
5
5
5
5
5
5
5
5
5
5
5
5
5
5
5
5
5
5
5
5
5
5
5
5
5
5
5
5
5
5
5
5
5
5
5
5
5
5
5
5
5
5
5
5
5
5
5
5
5
5
5
5
5
5
5
5
5
5
5
5
5
5
5
5
5
5
5
5
5
5
5
5
5
5
5
5
5
5
5
5
5
5
5
5
5
5
5
5
5
5
5
5
5
5
5
5
5
5
5
5
5
5
5
5
5
5
5
5
5
5
5
5
5
5
5
5
5
5
5
5
5
5
5
5
5
5
5
5
5
5
5
5
5
5
5
5
5
5
5
5
5
5
5
5
5
5
5
5
5
5
5
5
5
5
5
5
5
5
5
5
5
5
5
5
5
5
5
5
5
5
5
5
5
5
5
5
5
5
5
5
5
5
5
5
5
5
5
5
5
5
5
5
5
5
5
5
5
5
5
5
5
5
5
5
5
5
5
5
5
5
5

CELL_DATA 384
SCALARS cell_data_0 double
LOOKUP_TABLE default
1.15519832746e-08
2.88232165522e-07
2.92865641773e-07
2.3824434072e-07
1.05123351579e-06
1.28056626288e-06
2.95613256636e-07
5.46148727237e-07
3.36980328787e-07
2.21591811473e-07
2.13555968691e-07
6.43260020337e-09
1.43814841397e-08
2.16402979902e-08
1.36668147949e-08
9.56853999788e-08
4.0307265517e-09
2.67846829077e-08
1.06177861864e-07
1.01574507388e-07
5.99632714769e-08
8.24176856318e-09
1.43421629766e-08
2.40218765389e-07
8.81036455721e-06
1.29087056905e-05
1.70972353206e-07
8.94234389716e-08
1.71077255253e-07
3.7179672563e-07
1.51446848363e-07
1.38790556312e-07
2.19582204563e-07
1.08877286245e-07
1.94394351634e-07
5.38488238635e-07
4.75592559656e-07
4.24942604339e-07
7.01219871447e-07
4.79721944833e-07
7.47549378216e-07
1.01108834601e-07
1.3798857057e-08
3.33354311549e-07
2.41044661941e-07
1.77801537496e-07
3.62677951242e-07
1.12684838819e-06
9.12008893011e-07
4.61932404107e-08
1.28058961686e-06
6.65752394706e-07
9.43195949275e-07
3.95010518038e-07
2.27341709167e-07
2.02593241968e-07
1.47733921329e-06
9.27502334374e-07
4.4911911799e-07
2.19398044058e-07
4.92590651488e-06
6.19663455351e-08
3.91369790398e-08
5.2682246334e-08
1.40251535713e-07
1.94170722085e-07
9.08642030493e-08
2.98674690669e-08
1.94182320052e-08
1.76347956213e-09
8.2309046484e-08
6.03927502361e-09
3.93128416411e-08
4.32896231663e-08
5.79075594561e-08
1.26173821002e-07
7.06061931932e-08
4.81755033373e-07
4.54670001016e-06
2.41738390965e-07
4.18819566259e-09
1.20129789525e-06
4.71137049459e-06
2.30632893824e-06
1.91632328867e-06
8.25128789933e-07
7.814344756e-06
8.65357706694e-08
6.23043781462e-07
1.21336317589e-06
1.79646593358e-07
4.02842072988e-07
4.41288023392e-08
1.09705445775e-07
6.61546279841e-07
6.44391205026e-07
1.26814591197e-07
5.33480005728e-07
3.94404444882e-07
2.84358862076e-07
1.26343130443e-08
1.2951864236e-06
2.52537910683e-06
1.22437857505e-06
1.23252698393e-06
3.03451765583e-06
6.45064018838e-07
1.33660954483e-07
6.99063442246e-08
1.06874988151e-07
4.75895335061e-08
6.22525785815e-08
2.81574525474e-07
6.16669925839e-07
1.02978054595e-06
8.86181573939e-06
2.00581050264e-06
1.48169172271e-06
2.06210332667e-06
1.07220258368e-05
6.53738526712e-07
2.16940682892e-06
2.67934328345e-06
1.487775383e-07
4.72117785297e-07
9.35704569162e-06
4.27291713786e-07
3.62057773999e-07
4.15169490449e-07
1.66252512362e-06
5.52667497816e-08
9.52397072287e-07
2.0426880016e-06
4.8676660119e-06
2.87467150666e-06
1.79535674326e-06
1.6931360478e-06
2.45901594975e-07
8.56001408563e-07
1.45333587224e-08
8.52725135572e-07
3.43773893266e-07
8.68363676732e-06
2.61959770484e-06
5.46987415769e-06
2.48338768561e-06
2.26876034738e-06
1.79809628997e-07
8.01328011345e-08
1.79423417588e-07
8.83320585521e-08
9.46757600482e-08
1.04852611218e-07
3.4452480199e-07
7.42903658015e-08
3.22023698893e-07
4.48587777862e-07
1.03649976917e-07
1.22108707215e-07
1.4398256547e-07
2.60738658442e-08
4.07510604345e-06
1.89645682128e-06
2.8582888539e-07
3.80077960107e-07
4.2650709399e-08
2.30529038106e-07
3.41052387999e-07
3.93207556235e-07
3.30734971812e-07
4.80633946573e-06
1.04055586256e-07
7.20974935619e-07
1.04386601409e-08
3.84601965575e-07
3.5359798167e-07
1.21804922821e-06
1.00442638198e-08
3.93132874444e-08
7.25523672365e-08
2.74823600423e-08
5.92893652937e-08
1.58925402277e-07
4.38970502784e-07
3.8595585225e-07
7.39621572936e-08
3.6435798406e-07
2.02037867867e-06
3.5711608632e-07
1.53973574005e-07
6.49446070632e-06
1.86802402753e-07
6.1793636487e-06
3.03800085282e-06
4.26463802914e-06
6.98791673803e-08
5.26885645195e-07
8.8904024002e-08
9.89713439587e-08
1.8612397208e-07
2.60851365642e-07
1.4576069119e-07
4.00881815006e-08
2.65334051725e-08
2.53982559314e-08
3.54314157782e-09
7.37881673162e-08
4.52072343078e-09
1.70755976576e-07
1.72191814797e-07
5.70024319608e-08
9.11525907685e-08
6.3944177658e-08
4.6562062101e-08
1.88493080653e-08
2.11226355106e-06
1.49251014963e-07
1.47517211049e-07
1.92705455015e-08
8.03359102765e-07
1.68089552353e-06
4.81902247762e-07
2.76072285796e-07
2.69129622588e-07
4.64341987457e-07
4.191761282e-07
3.76247567544e-07
2.46468628439e-07
7.47020920125e-08
1.5819406472e-07
4.5687018876e-07
3.04399535803e-07
1.6536388663e-07
3.48285918401e-08
5.67653232807e-08
2.07517697695e-08
1.31054188095e-07
7.02947466379e-07
2.24481824621e-07
7.46590753543e-08
4.6304208116e-08
2.8751699213e-08
4.13460483107e-08
6.73003005089e-08
1.82338778855e-07
1.24432839336e-08
4.70533506069e-08
1.69785817874e-07
1.56626514077e-07
4.66348548172e-08
5.44990634571e-08
1.04974872864e-07
1.60330797866e-07
1.04375839015e-07
1.23953636466e-07
5.49406111059e-08
9.98539026975e-07
5.20169731328e-07
8.55495700352e-06
1.34812111663e-06
3.38224076065e-06
2.18539325767e-06
2.04620738748e-07
6.32854218923e-07
2.10659491093e-07
1.18849773482e-06
3.79270475096e-06
3.33062061066e-06
4.16882642905e-07
6.53374335184e-06
3.73888175128e-06
1.04884685975e-06
1.22224556909e-06
1.47198197094e-07
1.6272009241e-07
8.71156319893e-08
4.13929327155e-07
8.12557902417e-07
4.03254530611e-07
1.07361044326e-06
6.85371200737e-07
4.09622323125e-08
5.93898525492e-07
3.85949248049e-08
1.230332227e-07
1.40851730436e-07
1.2497183097e-08
5.80308403186e-07
5.37353788021e-07
8.60715080997e-07
6.0926117409e-08
6.19078277971e-07
3.18124652154e-07
5.86344224967e-07
3.83916692841e-06
3.33276441812e-07
2.24302065567e-07
6.28224252618e-07
1.26515459946e-07
2.18860508649e-06
1.07927789979e-06
3.69788980263e-09
1.82373567949e-07
1.95628938179e-07
3.83095593263e-07
1.13194391051e-06
1.43885971865e-05
2.56332730468e-06
7.65561818573e-06
9.58006653175e-06
1.79348065236e-06
2.69798246784e-07
1.19283309399e-07
4.72054888484e-08
4.60267859531e-08
1.6661326426e-07
9.76818187204e-07
1.14524340254e-06
1.15788593988e-07
1.36815691579e-07
8.39303463006e-07
4.12812632661e-07
8.52271403597e-07
5.90510820694e-07
4.14882804389e-06
6.10563945868e-06
7.14248140013e-06
1.15773004257e-05
3.3476485885e-06
2.92393392285e-07
5.24166004461e-07
2.93812314165e-08
3.31349719469e-06
5.79128772982e-06
3.93548239735e-06
8.52693024459e-06
3.19313019708e-06
7.91222284758e-07
2.50945806051e-07
4.12105465054e-08
2.84877345426e-06
6.37214296916e-06
5.5964493756e-06
2.60708967686e-07
5.81690191325e-08
2.80079710674e-07
8.25610383335e-08
4.02779031774e-07
2.00811230419e-06
2.1790810045e-08
6.66841684489e-07
1.45648188335e-06
1.62271223953e-06
9.17430226304e-07
3.60571861558e-07
1.48148272223e-07
8.32410941372e-09
3.3081053677e-07
1.64894868498e-07
1.0072435488e-07
7.77105465452e-06
5.16755293413e-07
6.85147248515e-06
2.89366311873e-06
6.6972999034e-07
3.15000762695e-06
1.70305858029e-06
1.19449142023e-06
2.89870723335e-06
2.04419616517e-06
3.07243569328e-06
2.32090590382e-06
2.79206890351e-06
4.73704376276e-07
8.59481705167e-06
2.27298334551e-06
2.24715028028e-05
0.000272310380236
0.000126747155429
7.46663068808e-05
9.46891983141e-05
0.000204712415884
4.21539569268e-07
3.21928657354e-06

