# vtk DataFile Version 3.0
File Name: Molecule/arg/arg_0.5-3.vtk
ASCII
DATASET UNSTRUCTURED_GRID
FIELD FieldData 1
TIME 1 1 double
0.0
POINTS 152 double
-3.403 0.327 1.604
-2.971 0.024 0.066
-2.981 -0.361 1.858
-2.549 -0.664 0.32
-2.984 0.046 0.042
-2.2 -0.483 -0.862
-2.216 -0.458 -0.889
-2.776 1.74 -0.497
-2.39 -0.269 -1.153
-2.211 1.177 -1.613
-2.622 1.932 -0.429
-1.982 1.439 -1.492
-1.81 1.654 -1.416
-2.495 2.657 0.67
-1.615 2.438 -0.879
-1.488 3.163 0.22
-3.186 2.284 1.521
-1.863 3.333 1.507
-2.53 2.972 2.328
-3.419 1.801 1.788
-2.717 2.558 2.345
-2.979 2.017 2.644
-3.408 0.559 1.798
-3.107 1.793 3.017
-3.095 0.593 3.027
-3.105 0.348 2.085
-3.1 0.088 1.867
-2.97 0.105 2.152
-2.978 0.383 3.085
-2.865 -0.346 2.113
-2.52 -0.7 2.425
-2.645 0.041 3.387
-1.592 -1.721 1.268
-2.003 -1.142 3.367
-0.984 -2.263 2.097
-2.487 -0.785 0.321
-0.96 -2.23 0.303
-1.943 -1.202 -0.738
-2.131 -0.618 -0.861
-2.114 -0.682 -1.181
-1.927 -1.264 -1.052
-2.312 -0.441 -1.376
-2.121 -0.506 -1.916
-1.682 -1.348 -1.746
-1.897 0.192 -2.527
-1.864 -0.768 -1.888
-1.57 0.147 -2.691
-2.011 1.039 -2.18
-1.198 0.386 -3.152
-1.348 1.496 -2.696
-1.72 1.257 -2.235
-1.479 1.817 -1.75
-1.107 2.057 -2.211
-1.319 2.584 -1.178
-0.816 3.013 -1.267
-0.543 2.537 -2.312
0.466 3.148 -0.891
-0.048 3.337 -3.001
0.699 3.415 -2.782
1.057 2.557 -0.305
0.892 2.689 -1.891
1.553 2.026 -1.234
0.737 2.845 0.68
1.539 1.918 0.039
1.22 2.206 1.024
0.406 3.093 0.833
1.112 2.426 2.108
0.748 2.699 2.276
-0.034 3.266 2.099
-0.687 3.194 3.654
0.006 2.617 4.044
-1.995 3.111 3.523
-0.58 2.815 3.881
-2.096 2.719 3.73
-1.061 1.806 4.483
-0.466 1.628 4.634
-2.128 2.66 3.763
-1.452 1.611 4.604
-2.373 2.347 3.982
-1.464 1.095 4.666
-0.48 1.041 4.705
-1.655 0.731 4.634
-0.333 0.517 4.869
-0.555 0.096 4.831
-0.878 -0.357 4.785
0.164 -1.171 5.088
0.507 -0.734 5.141
0.93 -2.454 3.923
1.043 -0.806 5.264
1.809 -2.089 4.099
1.037 -1.846 2.131
1.916 -1.481 2.307
1.061 -1.813 0.337
1.48 -1.078 0.031
2.335 -0.746 2.002
1.639 -0.712 -0.547
1.697 -0.118 0.66
1.842 0.216 0.134
1.085 -2.024 -1.812
2.201 -0.141 -1.444
1.67 -1.4 -2.657
-0.548 -1.409 -2.576
0.104 -0.811 -3.39
-0.822 -1.287 -2.506
-0.336 -0.591 -3.197
-0.616 -0.466 -3.125
-0.988 -0.705 -2.664
0.101 0.716 -4.098
0.516 0.418 -4.238
-0.398 1.946 -3.588
0.377 1.347 -4.4
0.117 1.987 -4.134
0.028 3.029 -3.665
0.9 3.106 -3.671
0.989 2.064 -4.14
0.819 3.383 -2.845
1.749 2.404 -3.353
1.668 2.681 -2.526
1.123 2.627 -2.01
2.133 1.624 -1.992
2.194 2.159 -2.516
2.042 0.907 -1.262
2.428 1.273 -2.257
2.342 0.599 -1.57
1.976 0.918 0.014
1.83 1.363 -3.817
1.863 2.209 -3.379
1.103 1.869 -4.167
1.884 1.434 1.198
2.541 0.959 2.592
1.842 1.579 2.299
0.651 1.408 4.781
1.35 0.788 5.074
0.82 0.891 4.947
-3.94 1.181 0.843
-1.891 3.826 2.497
-2.589 1.578 4.495
-1.092 -1.939 4.665
0.786 -2.653 -0.834
3.668 -0.309 3.703
2.756 0.481 5.071
2.756 -1.099 5.071
2.093 -0.513 -4.015
-0.027 -2.3585 3.01
-1.038 -2.101 3.381
-0.081 -2.1965 4.294
1.2465 1.4935 3.54
0.924 2.098 3.1715
0.3285 2.0125 4.4125
1.54425 1.53625 2.9195
1.383 1.8385 2.73525
1.08525 1.79575 3.35575

CELLS 300 1200
3 0 1 2
3 2 1 3
3 1 4 5
3 5 4 6
3 4 7 8
3 8 7 9
3 7 10 11
3 11 10 12
3 10 13 14
3 14 13 15
3 13 16 17
3 17 16 18
3 16 19 20
3 20 19 21
3 19 22 23
3 23 22 24
3 22 0 25
3 25 0 26
3 25 27 24
3 24 27 28
3 27 26 29
3 29 26 2
3 29 30 28
3 28 30 31
3 30 32 33
3 33 32 34
3 32 35 36
3 36 35 37
3 35 3 38
3 38 3 5
3 38 39 37
3 37 39 40
3 39 6 41
3 41 6 8
3 41 42 40
3 40 42 43
3 42 44 45
3 45 44 46
3 44 47 48
3 48 47 49
3 47 9 50
3 50 9 11
3 50 51 49
3 49 51 52
3 51 12 53
3 53 12 14
3 53 54 52
3 52 54 55
3 54 56 57
3 57 56 58
3 56 59 60
3 60 59 61
3 59 62 63
3 63 62 64
3 62 65 66
3 66 65 67
3 65 15 68
3 68 15 17
3 68 69 67
3 67 69 70
3 69 71 72
3 72 71 73
3 71 18 73
3 73 18 20
3 72 74 70
3 70 74 75
3 74 76 77
3 77 76 78
3 76 21 78
3 78 21 23
3 77 79 75
3 75 79 80
3 79 81 82
3 82 81 83
3 81 31 84
3 84 31 33
3 84 85 83
3 83 85 86
3 85 87 88
3 88 87 89
3 87 90 89
3 89 90 91
3 90 34 92
3 92 34 36
3 92 93 91
3 91 93 94
3 93 95 96
3 96 95 97
3 95 98 99
3 99 98 100
3 98 101 100
3 100 101 102
3 101 103 104
3 104 103 105
3 103 43 106
3 106 43 45
3 106 46 105
3 105 46 48
3 104 107 102
3 102 107 108
3 107 109 110
3 110 109 111
3 109 55 112
3 112 55 57
3 112 113 111
3 111 113 114
3 113 115 116
3 116 115 117
3 115 58 118
3 118 58 60
3 118 119 117
3 117 119 120
3 119 121 122
3 122 121 123
3 121 61 124
3 124 61 63
3 124 97 123
3 123 97 99
3 122 125 120
3 120 125 126
3 125 108 127
3 127 108 110
3 127 114 126
3 126 114 116
3 96 128 94
3 94 128 129
3 128 64 130
3 130 64 66
3 129 131 132
3 131 80 133
3 133 80 82
3 133 86 132
3 132 86 88
3 26 0 2
3 5 3 1
3 8 6 4
3 11 9 7
3 14 12 10
3 17 15 13
3 20 18 16
3 23 21 19
3 25 24 22
3 29 28 27
3 33 31 30
3 36 34 32
3 38 37 35
3 41 40 39
3 45 43 42
3 48 46 44
3 50 49 47
3 53 52 51
3 57 55 54
3 60 58 56
3 63 61 59
3 66 64 62
3 68 67 65
3 72 70 69
3 77 75 74
3 82 80 79
3 84 83 81
3 88 86 85
3 92 91 90
3 96 94 93
3 99 97 95
3 104 102 101
3 106 105 103
3 110 108 107
3 112 111 109
3 116 114 113
3 118 117 115
3 122 120 119
3 124 123 121
3 127 126 125
3 130 129 128
3 133 132 131
3 0 22 134
3 0 134 4
3 0 4 1
3 4 134 7
3 7 134 13
3 7 13 10
3 13 134 16
3 16 134 19
3 19 134 22
3 3 35 2
3 2 35 32
3 2 32 30
3 2 30 29
3 6 39 38
3 6 38 5
3 9 47 42
3 9 42 8
3 8 42 41
3 42 47 44
3 12 51 11
3 11 51 50
3 15 65 56
3 15 56 54
3 15 54 53
3 15 53 14
3 56 65 62
3 56 62 59
3 71 69 135
3 71 135 18
3 18 135 17
3 17 135 68
3 68 135 69
3 76 74 73
3 76 73 20
3 76 20 21
3 73 74 72
3 24 28 136
3 24 136 23
3 23 136 78
3 78 136 77
3 77 136 79
3 79 136 81
3 81 136 31
3 31 136 28
3 26 27 25
3 33 137 84
3 84 137 85
3 37 40 36
3 36 40 43
3 36 43 138
3 36 138 92
3 92 138 93
3 93 138 98
3 93 98 95
3 98 138 101
3 101 138 43
3 101 43 103
3 46 106 45
3 49 52 109
3 49 109 48
3 48 109 107
3 48 107 105
3 105 107 104
3 109 52 55
3 58 115 113
3 58 113 57
3 57 113 112
3 61 121 119
3 61 119 118
3 61 118 60
3 64 128 63
3 63 128 124
3 124 128 97
3 97 128 96
3 67 70 66
3 131 75 80
3 83 86 82
3 82 86 133
3 139 140 141
3 139 141 89
3 139 89 91
3 139 91 94
3 139 94 129
3 139 129 140
3 140 129 132
3 140 132 88
3 140 88 141
3 141 88 89
3 102 108 142
3 102 142 100
3 100 142 99
3 99 142 123
3 123 142 122
3 122 142 125
3 125 142 108
3 111 114 110
3 110 114 127
3 117 120 116
3 116 120 126
3 87 143 90
3 90 143 34
3 34 143 144
3 143 145 144
3 143 87 145
3 144 145 137
3 34 144 33
3 144 137 33
3 137 145 85
3 85 145 87
3 146 131 129
3 70 147 66
3 147 70 148
3 146 148 131
3 131 148 75
3 148 70 75
3 130 149 129
3 149 146 129
3 147 150 66
3 66 150 130
3 130 150 149
3 150 151 149
3 150 147 151
3 149 151 146
3 146 151 148
3 148 151 147

CELL_TYPES 300
5
5
5
5
5
5
5
5
5
5
5
5
5
5
5
5
5
5
5
5
5
5
5
5
5
5
5
5
5
5
5
5
5
5
5
5
5
5
5
5
5
5
5
5
5
5
5
5
5
5
5
5
5
5
5
5
5
5
5
5
5
5
5
5
5
5
5
5
5
5
5
5
5
5
5
5
5
5
5
5
5
5
5
5
5
5
5
5
5
5
5
5
5
5
5
5
5
5
5
5
5
5
5
5
5
5
5
5
5
5
5
5
5
5
5
5
5
5
5
5
5
5
5
5
5
5
5
5
5
5
5
5
5
5
5
5
5
5
5
5
5
5
5
5
5
5
5
5
5
5
5
5
5
5
5
5
5
5
5
5
5
5
5
5
5
5
5
5
5
5
5
5
5
5
5
5
5
5
5
5
5
5
5
5
5
5
5
5
5
5
5
5
5
5
5
5
5
5
5
5
5
5
5
5
5
5
5
5
5
5
5
5
5
5
5
5
5
5
5
5
5
5
5
5
5
5
5
5
5
5
5
5
5
5
5
5
5
5
5
5
5
5
5
5
5
5
5
5
5
5
5
5
5
5
5
5
5
5
5
5
5
5
5
5
5
5
5
5
5
5
5
5
5
5
5
5
5
5
5
5
5
5
5
5
5
5
5
5
5
5
5
5
5
5
5
5
5
5
5
5

CELL_DATA 300
SCALARS cell_data_0 double
LOOKUP_TABLE default
1.31649278564e-07
4.44912414158e-08
2.79650550127e-07
2.25879684849e-07
3.76192801144e-07
9.15721204325e-07
3.42548736179e-07
6.09742433451e-07
2.11402097986e-07
2.2635080027e-07
9.03465730338e-08
1.24310322485e-07
5.56606577351e-09
1.96569017828e-09
3.86496686259e-08
5.33070487275e-08
1.22646825e-08
3.6704825097e-08
9.24471095651e-08
1.07880785855e-07
7.0039983278e-08
2.59713970336e-08
4.96945734862e-08
1.73768154392e-07
6.3211693359e-06
1.84809022892e-05
2.24957067606e-07
4.79882414125e-07
1.83770750626e-07
3.23380250874e-07
6.7947449725e-08
7.97172682849e-08
1.50243957412e-07
1.05177601106e-07
4.7332618074e-07
8.5577800525e-07
3.47318427411e-07
5.22399308209e-07
8.56172151048e-07
4.8604935312e-07
7.65831913262e-07
1.47021302573e-08
2.90460707622e-07
9.84347510029e-08
5.08805419901e-09
1.10110685431e-07
3.74521339346e-07
1.60975838874e-06
1.32178553782e-06
1.03793539016e-05
1.27318859273e-07
2.17358976161e-06
2.46378662376e-07
6.38707159981e-07
5.64609866472e-07
1.27440983738e-06
1.11852081145e-06
4.01560706811e-07
9.27217160139e-07
2.40518793172e-06
1.52459785514e-07
5.07411470003e-08
3.96147011949e-08
1.66837060237e-07
8.5871342441e-08
1.73360221169e-07
1.05724470959e-07
8.48901410959e-08
5.49066948345e-09
6.84990795836e-08
3.51225539676e-07
1.88334686682e-07
1.81175164618e-08
2.43761545993e-07
2.96063532953e-06
1.60880832416e-06
4.48962114775e-07
1.59214427068e-07
1.50747062518e-05
3.23688185711e-05
6.27440564815e-06
5.24878705289e-05
1.20372496813e-05
5.50359386767e-06
4.21747790478e-07
6.23918742131e-06
3.95641966137e-07
8.65112383777e-07
2.66598303073e-06
3.92367669015e-06
5.38354569653e-06
1.36999977302e-06
1.40143794978e-07
1.9519674749e-07
3.13886647408e-07
5.23510384351e-07
3.23196341094e-08
4.76614210597e-07
7.15861738013e-07
8.23474574436e-07
1.3448691814e-05
2.49061168284e-06
2.50733159216e-06
2.89202780782e-06
1.0495480575e-05
7.71736893993e-06
1.15269187991e-05
3.66109112912e-06
5.82709604769e-07
1.14387413152e-06
9.82219239984e-06
1.87226198921e-06
6.78618981273e-07
1.93944506922e-06
3.63981694394e-07
3.74150220969e-07
1.06886106054e-06
3.83853013206e-06
5.45014016723e-06
4.1787046747e-06
1.78761810677e-05
1.25620998941e-05
3.40100842119e-07
7.9220443985e-07
2.57199305129e-06
1.25190633811e-05
8.92342581184e-07
3.78562009671e-06
8.02088175094e-05
1.93060020407e-07
4.54566527152e-08
8.57629707781e-07
1.12774370429e-06
6.94368560313e-08
2.40555301621e-07
2.35169134557e-07
1.58520655342e-07
5.07308232468e-07
5.76478978945e-07
1.01097787739e-07
9.44276887338e-08
1.4575490203e-07
8.85897492937e-08
6.00241432978e-06
2.77134305544e-06
3.47792500605e-07
8.48343686472e-08
2.47884501938e-07
3.70119169458e-07
4.07241324955e-07
9.12078648701e-07
9.50272074045e-06
5.02804813951e-06
1.15984641293e-06
6.23183489945e-07
9.30643034846e-07
1.39110112242e-07
2.27865983011e-07
2.10893927102e-07
2.8240668709e-07
2.28360544688e-07
3.43028532348e-06
3.91572835052e-06
2.39989753103e-06
2.64532792183e-07
1.7112992325e-07
1.09512408945e-05
4.91298593894e-06
1.12961865664e-05
4.49254809486e-06
4.37988298792e-06
8.86764887107e-08
7.10929566886e-06
2.30884283175e-06
1.61705540939e-07
8.70565984432e-08
5.01951055258e-08
7.83621808867e-08
2.74615109032e-07
6.42601547523e-07
1.38362204845e-08
6.39091742784e-11
1.43832609574e-07
2.25505219481e-09
5.95611542166e-08
1.37061303381e-08
5.7789033614e-07
2.07634062681e-08
1.27036610093e-07
1.38667558628e-09
8.60644475734e-07
1.80220917319e-06
4.90077504e-07
2.81874901475e-07
3.26961913793e-07
6.52642939256e-07
7.30088612048e-07
4.451545038e-06
2.20933249722e-07
1.90405732188e-08
2.05635472994e-07
7.15917249554e-07
1.43217643191e-07
8.07849790437e-08
2.48273347791e-07
1.85723581935e-07
8.02117463672e-07
5.38722537345e-08
5.9699262251e-08
1.1806162753e-07
1.780741251e-07
2.87076915084e-08
1.5777694364e-07
2.28093661849e-07
6.26560467608e-08
9.85978351229e-08
7.99345336776e-09
1.12702312404e-09
5.70555133921e-07
5.98174085952e-08
3.58440112216e-05
1.53098590558e-06
6.5322377598e-07
6.97337073565e-07
1.76819672238e-06
7.02992621505e-06
1.53060863514e-07
3.86261454493e-06
2.09793734194e-06
6.97365924816e-07
1.47951269045e-06
3.58321454136e-07
8.66624635028e-07
1.81793023918e-06
6.76998684181e-07
5.42203344834e-06
6.6181661929e-07
1.18535724812e-07
2.25854087706e-06
2.93051063438e-06
2.30782156061e-05
3.05759679909e-07
3.36817161682e-07
2.79793492322e-06
1.86861678121e-06
4.56797557757e-08
1.28459577319e-06
5.60426579901e-07
6.84363453745e-07
8.50011783522e-07
8.52991051047e-07
3.0935411525e-07
6.09317312711e-07
9.68195798509e-06
0.000113008745903
0.000167047430754
5.85805256057e-06
1.44991703465e-05
0.000100749551303
0.00013474145804
8.51975959491e-06
4.30127234807e-07
7.76052920806e-05
4.46675857038e-06
3.37478399727e-06
1.10352024483e-06
8.15122950375e-07
6.82986400914e-06
9.0287054987e-06
4.3673662407e-06
1.40027283042e-05
1.47167357951e-06
9.53617373364e-06
4.10425379492e-06
8.76774320357e-05
2.17531467101e-06
4.92857158163e-06
1.04810851454e-05
3.6746157102e-06
9.23105747525e-06
3.1559503176e-05
2.43098512412e-05
1.90606300346e-06
3.82344989518e-05
2.99262844476e-05
5.73061998571e-06
8.38835247159e-05
1.28669680827e-05
6.00451744262e-07
2.11787738116e-06
5.92997417485e-06
9.98669467239e-06
2.98793707609e-05
1.41533558813e-06
8.5481981603e-06
5.05472230124e-05
0.000151603030531
4.1021637243e-05
0.000118185206621
0.000228451176245

