# vtk DataFile Version 3.0
File Name: Molecule/arg/arg_8.0-16_06.vtk
ASCII
DATASET UNSTRUCTURED_GRID
FIELD FieldData 1
TIME 1 1 double
0.0
POINTS 1350 double
-3.403 0.327 1.604
-3.458 0.149 1.214
-3.138 0.005 1.702
-3.19 -0.164 1.33
-2.981 -0.361 1.858
-3.036 -0.538 1.468
-3.398 0.034 0.803
-3.133 -0.274 0.938
-2.976 -0.654 1.057
-3.231 -0.009 0.408
-2.974 -0.315 0.561
-2.809 -0.697 0.662
-2.971 0.024 0.066
-2.725 -0.284 0.235
-2.549 -0.664 0.32
-2.984 0.046 0.042
-2.617 -0.045 -0.207
-2.63 -0.024 -0.229
-2.351 -0.22 -0.527
-2.365 -0.198 -0.55
-2.2 -0.483 -0.862
-2.216 -0.458 -0.889
-3.183 0.343 -0.145
-2.753 0.07 -0.229
-2.923 0.323 -0.389
-2.57 0.022 -0.532
-2.724 0.253 -0.678
-2.446 -0.093 -0.847
-2.6 0.138 -0.992
-2.39 -0.269 -1.153
-2.559 -0.016 -1.312
-3.263 0.702 -0.308
-2.991 0.63 -0.528
-2.786 0.532 -0.805
-2.663 0.417 -1.12
-2.628 0.291 -1.452
-3.216 1.083 -0.43
-2.951 0.955 -0.632
-2.75 0.829 -0.899
-2.626 0.714 -1.214
-2.587 0.616 -1.556
-3.047 1.443 -0.495
-2.807 1.262 -0.688
-2.618 1.109 -0.95
-2.495 0.993 -1.265
-2.443 0.924 -1.611
-2.776 1.74 -0.497
-2.575 1.516 -0.689
-2.407 1.34 -0.951
-2.283 1.225 -1.266
-2.211 1.177 -1.613
-2.622 1.932 -0.429
-2.434 1.563 -0.734
-2.291 1.743 -0.67
-2.16 1.459 -1.077
-2.01 1.647 -1.011
-1.982 1.439 -1.492
-1.81 1.654 -1.416
-2.666 2.281 -0.134
-2.227 2.054 -0.482
-2.267 2.371 -0.214
-1.881 2.228 -0.637
-1.921 2.545 -0.369
-1.615 2.438 -0.879
-1.659 2.787 -0.585
-2.622 2.533 0.247
-2.227 2.6 0.132
-1.881 2.773 -0.023
-1.614 3.039 -0.203
-2.495 2.657 0.67
-2.111 2.713 0.516
-1.765 2.886 0.361
-1.488 3.163 0.22
-2.797 2.625 0.927
-2.251 2.77 1.005
-2.52 2.741 1.234
-2.033 3.002 1.293
-2.299 2.974 1.519
-1.863 3.333 1.507
-2.155 3.302 1.755
-3.035 2.497 1.22
-2.731 2.627 1.494
-2.507 2.861 1.775
-2.385 3.178 2.038
-3.186 2.284 1.521
-2.865 2.437 1.761
-2.64 2.674 2.039
-2.53 2.972 2.328
-3.419 1.801 1.788
-2.888 2.359 1.917
-3.122 1.876 2.185
-2.717 2.558 2.345
-2.979 2.017 2.644
-3.552 1.393 1.822
-3.202 1.735 2.161
-3.319 1.374 2.191
-3.094 1.732 2.585
-3.21 1.376 2.614
-3.107 1.793 3.017
-3.235 1.399 3.05
-3.548 0.964 1.825
-3.316 0.994 2.194
-3.206 1.001 2.617
-3.231 0.984 3.053
-3.408 0.559 1.798
-3.191 0.635 2.17
-3.084 0.647 2.593
-3.095 0.593 3.027
-3.105 0.348 2.085
-3.1 0.088 1.867
-2.97 0.105 2.152
-3.02 0.504 2.546
-2.901 0.29 2.606
-2.978 0.383 3.085
-2.865 -0.346 2.113
-2.52 -0.7 2.425
-2.789 -0.06 2.411
-2.48 -0.378 2.69
-2.828 0.19 2.745
-2.523 -0.123 3.02
-2.645 0.041 3.387
-2.483 -1.039 2.238
-2.249 -0.827 2.688
-2.214 -1.15 2.51
-2.072 -0.978 3.011
-2.036 -1.312 2.826
-2.003 -1.142 3.367
-1.962 -1.514 3.162
-2.359 -1.33 2.011
-2.096 -1.427 2.294
-1.914 -1.599 2.602
-1.826 -1.833 2.912
-2.159 -1.55 1.761
-1.905 -1.637 2.055
-1.716 -1.817 2.356
-1.606 -2.075 2.638
-1.897 -1.684 1.507
-1.655 -1.765 1.813
-1.457 -1.949 2.105
-1.318 -2.222 2.359
-1.592 -1.721 1.268
-1.365 -1.8 1.585
-1.156 -1.986 1.869
-0.984 -2.263 2.097
-1.926 -1.641 1.017
-1.351 -1.766 0.91
-1.664 -1.691 0.675
-1.133 -1.941 0.578
-1.457 -1.864 0.334
-0.96 -2.23 0.303
-1.327 -2.142 0.027
-2.203 -1.444 0.759
-1.923 -1.507 0.433
-1.726 -1.673 0.084
-1.631 -1.926 -0.256
-2.396 -1.15 0.52
-2.103 -1.231 0.209
-1.913 -1.387 -0.149
-1.843 -1.603 -0.519
-2.487 -0.785 0.321
-2.189 -0.889 0.022
-2.002 -1.032 -0.342
-1.943 -1.202 -0.738
-2.264 -0.668 -0.026
-2.322 -0.554 -0.027
-2.141 -0.611 -0.433
-2.203 -0.492 -0.433
-2.131 -0.618 -0.861
-2.114 -0.682 -1.181
-1.927 -1.264 -1.052
-2.312 -0.441 -1.376
-2.121 -0.506 -1.916
-2.042 -0.816 -1.214
-1.838 -0.886 -1.79
-1.682 -1.348 -1.746
-1.975 -0.256 -2.322
-1.864 -0.768 -1.888
-1.672 -0.441 -2.421
-1.897 0.192 -2.527
-1.57 0.147 -2.691
-1.996 0.646 -2.441
-1.495 0.306 -2.776
-1.602 0.798 -2.682
-1.198 0.386 -3.152
-1.328 0.981 -3.039
-2.011 1.039 -2.18
-1.619 1.224 -2.399
-1.348 1.496 -2.696
-1.72 1.257 -2.235
-1.631 1.561 -2.005
-1.259 1.801 -2.466
-1.479 1.817 -1.75
-1.107 2.057 -2.211
-1.346 2.153 -1.415
-1.642 2.007 -1.116
-1.319 2.584 -1.178
-1.091 2.821 -1.245
-1.159 2.356 -1.471
-0.94 2.583 -1.535
-1.087 2.175 -1.825
-0.858 2.412 -1.893
-0.852 2.322 -2.287
-0.816 3.013 -1.267
-0.676 2.767 -1.557
-0.583 2.604 -1.915
-0.543 2.537 -2.312
-0.229 3.384 -1.004
-0.488 2.934 -1.522
-0.105 3.176 -1.351
-0.228 2.93 -1.855
0.02 3.086 -1.745
-0.059 3.001 -2.236
0.134 3.123 -2.15
0.003 3.141 -2.63
0.229 3.284 -2.529
-0.048 3.337 -3.001
0.294 3.553 -2.848
0.466 3.148 -0.891
0.348 3.022 -1.277
0.313 2.987 -1.697
0.364 3.045 -2.112
0.497 3.193 -2.485
0.699 3.415 -2.782
0.833 2.913 -0.61
0.553 2.897 -1.196
0.905 2.671 -0.926
0.699 2.74 -1.539
1.067 2.504 -1.257
0.892 2.689 -1.891
1.303 2.425 -1.576
1.057 2.557 -0.305
1.12 2.33 -0.634
1.29 2.148 -0.952
1.553 2.026 -1.234
1.025 2.711 0.026
1.24 2.204 -0.113
1.21 2.35 0.201
1.539 1.918 0.039
1.507 2.071 0.37
0.916 2.809 0.362
1.106 2.444 0.521
1.398 2.17 0.706
0.737 2.845 0.68
0.936 2.478 0.823
1.22 2.206 1.024
0.406 3.093 0.833
0.701 2.629 1.02
0.405 2.851 1.157
0.756 2.48 1.392
0.466 2.698 1.526
0.897 2.411 1.765
0.584 2.646 1.91
1.112 2.426 2.108
0.748 2.699 2.276
0.102 3.399 0.689
0.198 3.058 1.115
-0.072 3.33 0.987
0.05 3.076 1.433
-0.206 3.335 1.311
-0.029 3.146 1.769
-0.293 3.414 1.643
-0.034 3.266 2.099
-0.327 3.561 1.96
-0.29 3.571 0.538
-0.421 3.483 0.852
-0.539 3.48 1.183
-0.636 3.563 1.511
-0.705 3.727 1.814
-0.721 3.587 0.398
-0.805 3.497 0.727
-0.904 3.494 1.065
-1.012 3.577 1.389
-1.123 3.742 1.679
-1.138 3.445 0.287
-1.176 3.371 0.629
-1.257 3.373 0.971
-1.376 3.453 1.292
-1.525 3.605 1.572
-1.488 3.12 0.569
-1.554 3.135 0.914
-1.681 3.207 1.233
-0.038 3.383 2.443
0.304 2.919 2.221
0.3 3.037 2.566
0.743 2.833 2.666
-0.112 3.436 2.794
0.225 3.091 2.918
0.658 2.893 3.065
-0.253 3.42 3.128
0.084 3.075 3.254
0.499 2.875 3.445
-0.449 3.338 3.421
-0.113 2.992 3.549
0.276 2.781 3.779
-0.687 3.194 3.654
-0.352 2.847 3.783
0.006 2.617 4.044
-1.016 3.185 3.753
-0.58 2.815 3.881
-0.962 2.805 3.996
-1.359 3.167 3.763
-1.359 2.784 4.008
-1.693 3.142 3.685
-1.746 2.755 3.917
-1.995 3.111 3.523
-2.096 2.719 3.73
-2.244 3.076 3.289
-2.384 2.678 3.458
-2.423 3.039 2.998
-2.593 2.636 3.121
-2.521 3.004 2.671
-2.706 2.595 2.741
-0.749 2.537 4.164
-0.16 2.345 4.321
-0.912 2.194 4.368
-0.321 2.009 4.521
-1.061 1.806 4.483
-0.466 1.628 4.634
-1.28 2.135 4.399
-1.452 1.611 4.604
-1.641 1.894 4.531
-1.543 2.398 4.242
-1.868 2.121 4.396
-1.833 2.577 4.025
-2.118 2.276 4.208
-2.128 2.66 3.763
-2.373 2.347 3.982
-2.409 2.64 3.473
-2.615 2.33 3.732
-2.655 2.52 3.176
-2.827 2.227 3.476
-2.849 2.307 2.894
-2.995 2.043 3.232
-1.464 1.095 4.666
-0.956 1.592 4.533
-0.968 1.074 4.596
-0.48 1.041 4.705
-1.655 0.731 4.634
-1.079 0.886 4.596
-1.26 0.541 4.565
-0.689 0.687 4.666
-0.881 0.322 4.633
-0.333 0.517 4.869
-0.555 0.096 4.831
-1.956 0.515 4.553
-1.383 0.368 4.531
-1.661 0.166 4.457
-1.114 -0.009 4.584
-1.407 -0.22 4.505
-0.878 -0.357 4.785
-1.219 -0.603 4.693
-2.226 0.322 4.369
-1.912 -0.012 4.286
-1.67 -0.408 4.326
-1.526 -0.822 4.484
-2.442 0.172 4.097
-2.112 -0.152 4.033
-1.88 -0.555 4.06
-1.772 -0.993 4.174
-2.586 0.075 3.76
-2.246 -0.241 3.721
-2.021 -0.649 3.731
-1.935 -1.103 3.791
-2.301 -0.273 3.375
-2.078 -0.682 3.368
-0.642 -0.546 4.955
-0.314 -0.097 5.005
-0.383 -0.749 5.065
-0.05 -0.304 5.117
-0.111 -0.96 5.11
0.227 -0.52 5.163
0.164 -1.171 5.088
0.507 -0.734 5.141
0.328 -1.528 5.007
0.615 -0.976 5.092
0.771 -1.314 5.015
1.043 -0.806 5.264
1.207 -1.163 5.184
0.496 -1.85 4.839
0.93 -1.621 4.855
1.375 -1.486 5.015
0.658 -2.122 4.593
1.084 -1.878 4.621
1.537 -1.757 4.769
0.805 -2.327 4.281
1.224 -2.073 4.326
1.684 -1.962 4.458
0.93 -2.454 3.923
1.343 -2.194 3.985
1.809 -2.089 4.099
1.026 -2.497 3.536
1.433 -2.234 3.618
1.905 -2.132 3.712
1.086 -2.453 3.142
1.491 -2.193 3.244
1.965 -2.088 3.318
1.109 -2.324 2.763
1.512 -2.07 2.884
1.988 -1.959 2.939
1.092 -2.118 2.42
1.496 -1.875 2.558
1.971 -1.753 2.596
1.037 -1.846 2.131
1.444 -1.616 2.284
1.916 -1.481 2.307
0.796 -2.146 2.122
0.866 -1.735 1.801
0.66 -1.991 1.794
0.779 -1.673 1.428
0.591 -1.907 1.421
0.784 -1.666 1.039
0.596 -1.899 1.033
0.88 -1.714 0.666
0.674 -1.97 0.659
1.061 -1.813 0.337
0.819 -2.113 0.328
0.482 -2.37 2.114
0.391 -2.182 1.787
0.347 -2.08 1.414
0.352 -2.073 1.026
0.406 -2.161 0.652
0.505 -2.337 0.32
0.119 -2.499 2.107
0.081 -2.292 1.78
0.065 -2.18 1.409
0.07 -2.173 1.021
0.096 -2.271 0.646
0.142 -2.466 0.313
-0.266 -2.524 2.101
-0.247 -2.313 1.776
-0.234 -2.2 1.405
-0.229 -2.193 1.016
-0.232 -2.292 0.641
-0.243 -2.491 0.308
-0.643 -2.443 2.098
-0.569 -2.244 1.773
-0.527 -2.137 1.402
-0.522 -2.13 1.014
-0.554 -2.224 0.638
-0.62 -2.41 0.304
-0.86 -2.09 1.772
-0.792 -1.997 1.401
-0.787 -1.99 1.013
-0.845 -2.07 0.637
1.343 -1.496 0.161
1.028 -1.535 0.641
1.242 -1.295 0.508
1.078 -1.33 0.996
1.248 -1.139 0.89
1.205 -1.217 1.373
1.361 -1.043 1.276
1.4 -1.205 1.737
1.57 -1.014 1.631
1.644 -1.296 2.058
1.857 -1.056 1.925
2.198 -1.164 2.131
1.48 -1.078 0.031
1.346 -0.978 0.409
1.331 -0.887 0.812
1.436 -0.812 1.205
1.652 -0.762 1.553
1.961 -0.739 1.826
2.335 -0.746 2.002
1.639 -0.712 -0.547
1.451 -0.719 0.207
1.594 -0.39 -0.313
1.526 -0.39 0.423
1.664 -0.072 -0.079
1.697 -0.118 0.66
1.842 0.216 0.134
1.696 -1.065 -0.74
1.721 -0.524 -0.905
1.773 -0.846 -1.081
1.914 -0.328 -1.213
1.966 -0.645 -1.386
2.201 -0.141 -1.444
2.256 -0.481 -1.629
1.664 -1.393 -0.979
1.744 -1.145 -1.299
1.937 -0.939 -1.601
2.226 -0.795 -1.858
1.546 -1.673 -1.249
1.636 -1.4 -1.545
1.831 -1.191 -1.843
2.112 -1.064 -2.117
1.348 -1.888 -1.533
1.457 -1.596 -1.804
1.654 -1.384 -2.098
1.923 -1.27 -2.389
1.085 -2.024 -1.812
1.217 -1.72 -2.058
1.418 -1.506 -2.348
1.67 -1.4 -2.657
0.772 -2.072 -2.068
0.932 -1.764 -2.291
1.137 -1.549 -2.578
1.371 -1.446 -2.902
0.431 -2.029 -2.284
0.62 -1.725 -2.489
0.83 -1.51 -2.772
1.043 -1.405 -3.11
0.082 -1.898 -2.448
0.302 -1.605 -2.638
0.517 -1.392 -2.919
0.708 -1.279 -3.267
-0.251 -1.687 -2.547
-0.001 -1.412 -2.728
0.218 -1.203 -3.008
0.389 -1.077 -3.362
-0.548 -1.409 -2.576
-0.272 -1.16 -2.755
-0.048 -0.954 -3.034
0.104 -0.811 -3.39
[...]
CELL_DATA 2696
SCALARS cell_data_0 double
LOOKUP_TABLE default
6.86947005273e-06
7.54926618882e-06
3.02496409067e-06
9.26147321187e-07
6.31178246768e-06
4.12139258334e-06
2.55616716996e-06
2.52235949977e-06
5.0732502994e-06
3.15387377634e-06
2.4206902764e-06
1.60631311965e-06
1.57042097685e-06
6.8162618088e-07
1.19943460173e-06
2.46434103443e-08
1.48685690856e-08
5.19634542751e-08
3.01545825982e-08
1.00792885378e-07
9.93322296584e-08
1.44691539585e-07
2.9477523363e-07
6.81658326966e-07
5.00238401441e-07
2.97608983309e-07
1.34742599735e-07
5.46711261282e-08
4.27640771696e-07
3.27249859262e-07
1.236778245e-06
1.04271545889e-06
6.06486275944e-07
1.35509071643e-07
1.92447863552e-07
3.11514928492e-08
6.17195103785e-08
9.1833983666e-08
1.1670447673e-06
4.3015544304e-07
1.8250215343e-07
3.59993473692e-08
1.51685609094e-11
1.72354566637e-08
9.46531931005e-08
1.60724401179e-07
5.26788521472e-07
4.19405702435e-07
3.33282479698e-07
4.18442620807e-07
2.12608123558e-07
8.60902962981e-08
1.78720872836e-07
2.39288084586e-07
4.44814976856e-07
3.06414630475e-07
5.95246477865e-07
4.36826673521e-07
2.76639825456e-07
3.47761648793e-08
1.92280230483e-07
7.0097070721e-07
3.94663715806e-07
3.38018652197e-07
2.55715194214e-07
1.90941533639e-07
7.13331967417e-07
1.09632852803e-06
1.47262948476e-06
1.3291451299e-06
8.71675275472e-07
9.89161382654e-07
4.82602990649e-07
7.39848597991e-07
2.36338902804e-06
2.35525847053e-06
1.84123486756e-06
3.11225825303e-06
2.47795876239e-06
3.29773092383e-06
3.22938949562e-06
3.43217144697e-06
4.51444332374e-06
5.13216942912e-06
4.34568043242e-06
2.79826498279e-06
3.79994514752e-06
5.53774396194e-06
5.82499577176e-06
6.72308741907e-06
4.17965092816e-06
5.34399177955e-06
7.13768434602e-06
7.42925119565e-06
7.69230499573e-06
7.35275990675e-06
7.28481638926e-06
9.11685609128e-06
6.80709748762e-06
5.49385154466e-06
6.71384550816e-06
5.08752766271e-06
6.61307388836e-06
6.1605414486e-06
3.45184503098e-06
2.11297792017e-06
3.73535105229e-06
7.00140161697e-06
5.01970955419e-06
7.82264359526e-06
5.77860870518e-06
7.15313761004e-06
4.52814358027e-06
4.17076783422e-06
8.61925399283e-06
7.28490362375e-06
9.10007927898e-06
1.05716422761e-05
7.51239817772e-06
5.10196686721e-06
5.66096221785e-06
4.50810395103e-06
8.14904724687e-06
5.19591871616e-06
4.38049820685e-06
1.18871639063e-06
7.16151409633e-07
1.88128223875e-07
1.74994301146e-06
1.97064658775e-06
1.55750937935e-06
1.53995443287e-06
8.96637017465e-07
2.34354425286e-07
1.98273145416e-06
3.88280987069e-06
6.62412944951e-06
7.29831074375e-06
5.22216533227e-06
5.64739206789e-06
4.2932613911e-06
5.26414576487e-06
1.11479716463e-05
4.33919401601e-06
1.67534085962e-06
4.10510893901e-07
2.88746854833e-06
1.06411614091e-05
6.37153855925e-06
5.33089150113e-06
1.35927084535e-07
6.00528243493e-07
1.25591884294e-05
9.57176995849e-06
7.40476055012e-06
1.73638552604e-06
7.91857852122e-07
4.47534802206e-06
4.21262946671e-06
3.13841240927e-06
2.3191725925e-06
1.47055183715e-06
4.1682857235e-06
5.35998543415e-06
1.75401541701e-06
9.97368748431e-07
1.57756710034e-06
1.35867916726e-06
1.5898486754e-06
1.19992379212e-06
3.94888840496e-07
2.7536241031e-07
1.86162041409e-08
2.10804682352e-07
3.50882707807e-07
1.49140383966e-07
3.16624360093e-07
3.60739807793e-09
1.10151011831e-07
1.65715966832e-07
1.06181634557e-07
1.09356982212e-07
4.6041384103e-08
9.88455527399e-08
5.37861753186e-08
1.3742897475e-07
8.65689681856e-08
1.04227819531e-08
1.08562678942e-07
2.50224770279e-07
2.13819327527e-07
3.32017101524e-07
2.08462307985e-07
4.18334674979e-07
1.13854158263e-07
1.40333892086e-07
7.58647284731e-08
2.05381878867e-07
2.75253711301e-07
3.86899180441e-07
1.0230066415e-06
5.0693864431e-07
9.00778952185e-07
6.02937311894e-07
1.1166426947e-06
1.20974602259e-06
1.11845193028e-06
8.32985051446e-07
5.6718852221e-07
9.99086401895e-07
7.58068758084e-07
1.49551506644e-06
1.41728178374e-06
1.86562435597e-06
1.97515486711e-06
2.36854886665e-06
1.95931839606e-06
2.61802398868e-06
2.03465304996e-06
3.14072575727e-06
1.95558953789e-06
2.97169298275e-06
3.0047559235e-06
2.7165904593e-06
2.37744686954e-06
2.62392985385e-06
2.19656642458e-06
1.76436945006e-06
1.65171873999e-06
1.18950008882e-06
7.93387713124e-07
9.40209255781e-07
1.1125632555e-06
1.3996344047e-06
1.46066523986e-06
1.57589899986e-06
9.00729264638e-07
1.14527686081e-06
1.2254203566e-06
1.4504587632e-06
1.45765015076e-06
2.36447935788e-06
2.03161444713e-06
1.41709944376e-06
1.62751789695e-06
9.62125232465e-07
1.26817690856e-06
8.96608606083e-07
1.27337914955e-06
2.2104022641e-06
3.9016384942e-06
6.03974404144e-06
1.68175228428e-06
1.07580391884e-06
1.04805471586e-06
1.39718584082e-06
1.48033388307e-06
1.56924061306e-06
1.50175518791e-06
2.18654327767e-06
2.24619132091e-06
4.39731883376e-06
1.45560058785e-06
1.71795995419e-06
2.44363566076e-06
2.37090902816e-06
3.09578273313e-06
2.98964235529e-06
1.17988247515e-06
1.24794165275e-06
1.34555403849e-06
1.70666370647e-06
2.10433458546e-06
2.35773817741e-06
9.15108621519e-07
9.72918340728e-07
9.29274475994e-07
1.03767180348e-06
1.11389826449e-06
1.20766431437e-06
1.1896378644e-06
1.24806637217e-06
8.39687666329e-07
9.16856933397e-07
1.30916514677e-06
9.53606078373e-07
5.26035751388e-07
8.4991848397e-07
1.286483883e-06
1.21613587911e-06
1.23820981071e-06
1.25918474707e-06
1.15199114972e-06
1.09949284644e-06
1.23106547318e-07
4.82562879539e-08
1.16800521281e-07
5.73296139593e-08
7.77360567516e-08
1.1316599609e-07
2.62479525658e-07
2.69914151913e-07
1.75432343084e-07
4.39067859955e-07
1.49879126685e-07
2.3689282064e-07
2.11725462012e-07
4.71838322967e-07
4.13906102164e-07
4.37604999184e-07
6.20953138218e-07
5.85472348098e-07
5.54338532186e-07
5.54886397847e-07
5.17673878901e-07
4.92240072012e-07
4.37505379233e-07
4.00129748947e-07
6.95062819078e-07
5.85723200989e-07
5.8328161495e-07
4.94463446324e-07
4.88218675708e-07
3.99864191042e-07
3.55066572517e-07
2.25569025655e-07
3.6486630202e-07
2.30747484404e-07
4.15655837532e-07
2.23860571287e-07
2.78643868152e-07
2.46658995928e-07
2.3930796965e-07
5.29833933989e-08
3.06918793964e-07
5.05476079457e-07
5.43447858287e-07
8.42392801589e-07
3.25990770656e-07
4.42757267971e-07
6.02963381324e-07
1.05234602006e-06
1.91451490851e-07
2.70733419138e-07
5.82517215048e-07
8.01746942685e-07
5.56999348207e-08
8.19971019574e-08
1.80538349418e-07
1.25666383537e-07
1.98278213379e-07
1.15076852084e-07
2.42903151463e-08
1.54251142458e-08
7.5259634842e-07
8.7668402432e-07
4.92859084608e-07
4.65216786804e-07
5.00582463705e-07
1.42738972349e-06
1.59551696161e-06
1.50741338857e-06
1.18240901228e-06
2.77948440323e-06
4.09982490794e-06
5.14502230993e-06
7.00522953197e-06
4.50162089052e-06
4.29906564454e-06
1.82730618616e-06
7.50568587514e-07
1.78619061174e-07
8.64582292749e-08
3.68950244095e-09
1.41898293595e-07
3.88650290053e-07
3.88720422626e-07
1.79591973016e-07
2.35899618773e-08
2.33136720662e-08
6.69951768367e-08
7.84869795743e-08
6.54398734018e-09
1.06463552459e-08
1.38787961804e-07
5.00361918832e-07
9.65584183454e-07
1.78852764743e-06
2.55178228921e-06
3.54568298294e-06
4.6937306764e-06
3.83441342195e-06
5.1477944493e-06
7.3873115644e-06
7.66574040506e-06
2.73961049804e-06
3.47796909513e-06
5.22938180732e-06
1.29140526986e-05
1.60227044449e-05
1.16460729118e-05
5.19629545467e-06
9.55286265873e-06
1.34341418655e-05
9.28611264743e-06
5.64951003192e-06
2.49818855808e-06
3.92806216597e-06
9.62640566099e-06
3.81924476028e-06
3.91977083019e-06
2.25314611358e-06
4.37377230106e-06
3.95610400011e-06
1.72827709035e-06
6.77356435912e-07
1.04371483027e-06
4.76063450374e-07
6.24953748118e-07
3.01334257528e-07
1.82133320606e-07
1.08673381513e-07
6.33477281862e-08
2.13906172253e-07
1.81881536057e-07
1.18088792344e-07
4.37554880148e-07
4.91893781389e-07
5.34108573187e-08
4.91977948803e-07
6.12958533889e-07
1.17137054098e-06
2.04637064892e-06
4.19884541455e-06
9.60830949164e-06
1.04652635097e-05
1.21085625946e-05
9.76057315958e-06
4.9983851521e-06
1.82462767322e-06
3.51323720291e-07
5.16812598849e-07
5.46776634113e-07
1.66709949337e-06
2.28002239615e-06
3.31864331388e-06
2.84085199941e-06
2.23874178314e-06
1.85227251597e-06
4.58079466529e-07
6.70808252851e-07
3.15592224669e-07
3.82726289884e-07
5.02763629048e-07
1.94187451777e-07
9.60093505914e-07
2.06813049864e-06
1.45060822548e-06
1.35467166411e-06
1.70382673949e-06
2.23593624988e-06
2.25298218467e-06
2.11490099961e-06
2.55516691337e-06
2.29757729665e-06
1.31712694652e-06
1.45846756586e-06
1.42859387699e-06
8.79843138675e-07
5.57825137746e-07
8.04010544934e-07
6.65619800827e-07
1.86163348073e-07
4.05592663058e-07
1.17547845814e-07
8.07125519408e-07
7.66122453401e-08
3.15422240015e-07
2.03480316762e-06
7.25009504882e-07
7.42639434511e-07
1.42874762592e-06
1.89634904241e-06
4.73961423841e-07
3.86437958333e-07
2.55459714501e-07
4.8551071678e-07
7.07724327822e-07
1.19102863737e-06
8.13316268316e-07
2.51057899757e-07
4.26393468386e-07
5.78371090715e-07
1.0099571578e-06
2.26895183907e-07
3.48878802884e-07
3.59262412017e-07
4.57693125345e-07
5.11953018958e-07
4.63991211482e-07
3.49712470451e-07
2.75274779555e-07
9.8645916874e-07
4.72133686633e-07
9.69599755652e-07
5.75314705155e-07
2.78219410733e-07
8.37732770084e-08
3.39478758208e-07
9.29813313509e-08
2.6791156178e-07
4.15585332366e-07
2.48228586853e-07
3.8607824887e-07
5.54724575635e-07
8.72022090722e-08
8.40941731728e-09
6.13461383717e-07
1.18705658494e-07
4.32551428215e-07
6.48324940231e-07
5.90268862031e-08
1.21858733126e-07
1.46120538449e-07
9.98398540577e-08
4.17262013357e-07
3.38723894539e-07
4.58030156831e-07
9.46683609854e-07
1.05601192573e-06
2.88760501521e-08
3.49242399754e-09
6.66528948728e-07
1.33126409224e-06
1.92131038888e-06
8.54713435942e-07
3.97933980467e-07
1.29342593631e-06
1.11503222124e-06
1.06430404187e-06
1.34199165837e-06
1.05538483606e-06
9.51473022471e-07
2.01545498834e-08
5.56421669302e-08
4.35948168689e-07
4.23524727727e-07
9.80302675027e-07
8.80258621802e-07
9.18776844637e-07
2.98752351744e-07
8.66974691833e-07
1.01508603262e-07
7.94084560795e-07
8.07450636822e-07
1.17802118889e-06
1.13767158712e-06
8.3020139803e-07
7.8077554128e-07
9.84023066099e-08
9.03858744898e-08
4.60375730859e-07
3.62452428946e-07
3.35867833081e-07
4.22088073482e-08
2.86757424705e-07
2.55035248103e-07
1.5504644394e-06
1.55527587313e-06
1.41947588072e-06
2.79783767633e-07
2.70229537792e-07
2.00892855093e-07
1.21239851793e-07
1.22010437222e-08
2.63544540285e-07
4.4015555547e-07
1.42516398155e-07
1.9141242115e-07
1.85134475698e-07
1.17834347531e-07
9.48698936006e-07
2.44916456001e-07
8.79622743765e-07
4.2985767209e-07
1.32416712364e-06
1.19795630172e-06
4.07323072691e-06
1.56458246981e-06
2.13929347047e-06
2.88592018755e-06
2.86987685796e-06
3.6735063964e-06
5.23616079545e-06
2.41245961162e-06
2.57380610789e-06
2.41473988816e-06
2.87552090929e-06
4.40155647968e-06
6.5527211184e-06
3.03219481909e-06
3.49775927575e-06
3.7278704093e-06
5.40170147948e-06
5.91814210164e-06
5.59993544704e-06
2.04906017666e-06
1.23801141972e-06
3.98397911987e-06
1.69144461467e-06
1.98272902001e-06
1.27126597535e-06
2.16537098371e-08
1.12897219675e-06
1.26650390667e-06
6.34047552087e-07
4.01997174879e-08
3.4621609636e-06
5.14396541645e-06
1.33107499643e-05
6.32968149148e-06
1.63698928641e-05
1.35903940582e-05
3.43208009746e-05
9.94656380081e-06
7.82751728833e-06
2.34844754196e-05
2.60766447899e-05
3.84543621073e-05
2.0541392235e-05
4.81335780929e-06
9.10385581853e-06
1.37253963848e-05
5.73501375999e-06
2.18078572673e-06
3.72930913252e-07
3.16553425849e-06
1.07357936424e-05
3.38071484672e-05
3.82655937031e-05
2.42909979142e-05
7.88034037314e-06
1.11082118627e-07
6.07734586747e-06
2.18748241543e-05
2.58407820554e-05
1.50040055494e-05
2.53964774138e-06
2.41607301578e-06
1.22802147706e-05
2.15974784855e-05
3.65826603961e-05
4.6325340997e-05
5.04416820773e-05
1.99857160066e-05
3.5513275334e-06
8.92981837498e-06
1.72847232176e-05
1.39293746727e-06
2.05921643702e-06
1.85141552176e-06
3.82956260944e-06
2.48662907663e-06
4.14569518722e-06
1.16524752763e-06
1.48844785801e-05
4.68442231682e-06
5.76182769428e-06
5.70470357774e-06
5.00278742752e-06
9.11703380503e-06
2.60004106614e-06
1.27746158983e-05
9.57234604485e-06
5.60302777962e-06
2.76668718449e-06
5.95619168093e-06
2.01753190951e-08
1.08170833453e-08
7.10303971008e-08
5.08874756051e-06
6.57859085764e-06
5.77812578975e-06
5.55569171052e-06
2.47470678711e-07
1.14938825816e-06
2.69013208016e-06
8.51855004051e-06
1.25971063339e-05
4.27777503771e-06
5.52085739594e-06
6.66750180295e-06
5.36992985353e-06
2.90965498673e-06
1.27449084695e-05
8.55498319192e-06
6.41146063132e-06
2.56336704248e-06
2.37924277362e-06
3.73161436549e-06
1.18793641695e-06
4.87020303933e-07
1.93458324955e-07
1.57412186582e-06
2.56350568997e-06
2.79996109615e-06
8.98535300706e-06
6.0310577788e-06
8.0148985507e-06
4.50676464618e-06
5.39664197281e-06
3.80796562885e-06
4.61965074291e-06
3.75315796852e-06
1.03669594479e-06
6.31414855271e-07
1.56516797932e-06
3.06489056225e-06
1.44942252472e-06
1.08581597545e-06
1.08187891676e-07
2.65461165191e-07
2.77269327859e-08
1.90516660135e-07
2.03820039607e-07
1.84655083346e-07
6.93302454794e-07
1.09142968246e-06
7.60014725098e-07
7.19644901869e-07
3.46974556832e-07
4.00935922346e-07
1.99546999626e-06
8.60362975618e-07
8.08467140801e-07
6.777013009e-07
7.155207409e-07
5.97438462136e-07
6.10324300764e-07
1.38577572148e-06
6.95341407097e-09
3.50420725635e-06
1.95333445428e-06
2.40933867056e-06
4.29773374693e-08
9.31212716572e-07
6.0080221359e-07
4.12761699325e-06
1.30272384381e-05
9.69491081552e-06
2.30171678908e-06
9.28276863938e-07
2.64325388759e-06
4.65599033952e-06
6.41240006275e-06
6.73788405797e-06
8.35653592904e-07
4.24722221155e-06
1.82684810705e-05
2.39839289662e-05
2.10374318028e-06
3.61060200432e-06
2.70958140962e-05
1.37417782964e-06
3.43736284498e-06
3.55262679074e-06
8.86313002485e-06
1.4543031787e-05
5.66989079765e-07
5.45829446421e-07
3.11430950027e-05
2.7455608463e-05
1.61158315326e-05
2.29598059224e-06
2.26583520847e-05
3.25770218206e-06
8.48007709156e-07
2.56756648363e-06
2.61043181022e-06
1.61083845319e-06
1.23067438495e-06
1.00194301438e-06
1.80338525469e-06
2.44201430349e-06
4.84065944316e-07
1.5156761233e-07
6.72388042414e-08
3.57044236895e-08
5.72658858177e-08
3.97311201029e-10
8.92672801266e-08
1.32400988369e-08
6.05966851111e-08
5.65989738676e-08
8.14085524912e-08
3.76649587439e-08
3.83818951715e-08
9.24410041582e-09
8.97291231793e-09
2.62339074102e-07
1.9642144531e-08
2.09354220626e-08
1.50905499784e-08
2.71356374479e-08
2.33275428526e-08
9.69381722392e-08
1.44552016062e-07
4.01888996144e-07
1.02740476029e-07
1.1455691157e-07
8.2615338412e-08
1.72097405251e-07
1.53918000024e-07
5.22577346897e-07
4.76184830959e-07
4.66579039016e-07
1.17662966249e-07
4.20423680406e-08
1.52879716642e-07
6.40983658406e-08
2.85479809742e-07
2.19004645076e-07
2.32617940139e-07
3.90870844463e-07
5.12019784954e-07
4.06613779793e-07
2.32987555613e-07
5.31293660523e-08
2.47086086187e-07
3.25492722539e-07
8.72520629483e-07
2.65190164873e-07
5.16180291425e-08
9.87295015223e-08
1.90151988706e-07
1.02128872187e-07
4.37514419535e-07
3.04497127927e-07
2.37295719852e-07
7.35746943244e-07
1.09236013902e-06
4.30004867682e-07
2.13963182875e-06
2.34950554955e-06
2.24068735359e-07
2.66893964412e-07
1.94906602383e-06
8.77128245017e-07
1.40924702537e-06
1.72432143598e-06
1.04388494217e-06
1.35879768821e-06
2.99607999521e-07
1.69975259628e-06
2.63073523057e-06
1.89514650936e-06
1.76218490257e-06
2.75585567706e-06
1.85112701479e-06
1.29278652573e-06
1.50731471471e-06
1.61643516591e-06
8.41574433793e-07
6.47564593851e-07
7.56602417318e-07
5.94426169095e-07
3.094536205e-07
2.91217188002e-07
3.00783285781e-07
1.4614346868e-07
4.70011891497e-06
4.31505801006e-06
7.75603095262e-08
9.11063303403e-07
1.54521770494e-05
4.66299012632e-06
1.15502043053e-07
2.42060630876e-09
1.46635296282e-07
2.28402655913e-07
8.18296835996e-06
1.52344654749e-06
6.02418731396e-09
2.78817488865e-08
9.09594006256e-09
3.28056574725e-08
5.34186092327e-08
1.27738526182e-07
1.27805656932e-06
1.05993769633e-06
2.04133634461e-07
2.88255441398e-07
6.55624361425e-07
8.35777104698e-07
6.12703135288e-08
8.29432903403e-08
3.86143590278e-08
1.80508629223e-07
6.46053547237e-07
6.33525672904e-07
2.4337669854e-07
1.12712943126e-07
8.01303374996e-09
5.88257778041e-10
1.00477110463e-06
8.07086856101e-07
2.15267864231e-08
3.21516769969e-07
2.64880797348e-07
1.61247445918e-07
9.09375589335e-07
7.1313110592e-07
2.01883015144e-09
1.75542738355e-07
2.84760279419e-07
7.91946298568e-08
3.69509553986e-07
7.68071222042e-08
1.54678391012e-07
9.31840301807e-07
7.01188614169e-07
8.53710645579e-07
1.83163752287e-07
1.33222158908e-07
9.39785805332e-08
9.44553580164e-08
1.07526584865e-06
6.94460914196e-07
3.06845524325e-06
3.26572288772e-06
3.85991808616e-06
3.34026943449e-06
3.11336939545e-06
2.45954598874e-06
1.61550604244e-06
1.63197748207e-06
3.05415144713e-06
3.10421194428e-06
1.38935811288e-06
8.32010375802e-07
8.44151699052e-07
1.18620739594e-06
1.99097175908e-06
1.48726118592e-06
1.27580355088e-06
1.27360537597e-06
2.24723151941e-06
2.31364598409e-06
2.51282906933e-06
3.08509141271e-06
2.59516582279e-07
2.68934272888e-06
9.26409369553e-07
1.33150445979e-05
1.38509028971e-05
7.70224150727e-06
7.35956765899e-06
1.06895513663e-07
5.32780263246e-07
5.4967999891e-07
3.72541734202e-07
5.01108127303e-07
5.93141697976e-07
8.74650006928e-07
9.20552456482e-07
6.5450161307e-07
4.68313775081e-08
8.61730613972e-07
9.29061906845e-07
5.66381732653e-07
3.36875073033e-07
1.77841886112e-07
1.8311785609e-07
1.44169785033e-07
1.3219452314e-07
2.80896658516e-08
3.06496714465e-08
5.42988251055e-07
4.55964402577e-07
7.57657187479e-07
6.39299689148e-07
2.27972014231e-06
2.21607134146e-06
9.76562923552e-07
8.60595013467e-07
1.52108003168e-07
2.76048913062e-06
1.54983679373e-06
3.64184873094e-06
2.49480836916e-06
2.09129446569e-06
3.45594757735e-06
2.04424005078e-06
9.42466536381e-07
8.60556724801e-07
2.43221073836e-06
1.29217661319e-06
1.19621570524e-06
3.60824946832e-06
1.90525513152e-06
2.6928153149e-06
1.72906949964e-06
1.25321937915e-06
1.05713075256e-06
8.47786079267e-07
7.92484005813e-07
1.22201114771e-06
9.68043279163e-07
2.11662060548e-06
3.58765372308e-07
8.54981342911e-07
8.00568822318e-07
1.04124900408e-06
1.09315970396e-06
8.33445180697e-07
4.6048821471e-07
7.66143212409e-07
2.50172524854e-07
9.52689176206e-07
1.01976545291e-07
3.40544019508e-07
1.55347604428e-06
1.15093326308e-06
7.44817543997e-07
2.24115503285e-07
1.8841700832e-07
3.5321558049e-07
3.38793962445e-07
1.13623027966e-07
3.15599592652e-07
7.7726631419e-07
2.44440177903e-07
3.45837311791e-07
7.68915107301e-07
2.67261580886e-07
2.82578384099e-07
2.61540595661e-07
3.64893985373e-07
2.05979224419e-06
2.00374071e-06
4.51553805025e-06
7.01522979415e-06
6.93320088372e-06
3.03647351209e-06
1.98210101725e-06
7.26181703949e-06
1.44797277237e-05
7.63819573527e-06
3.18511459169e-06
1.81118871494e-07
2.36353074849e-07
2.3248833066e-07
4.52632838678e-08
1.29316380991e-07
2.99549587785e-07
1.08659843395e-06
5.11484403251e-07
7.29197218927e-08
2.71414556806e-07
2.14924944464e-07
7.49579264187e-07
7.70553865338e-07
2.14291952589e-07
4.14696742516e-07
1.69409654689e-06
1.35608625902e-06
4.83983345466e-07
1.43585311984e-08
7.79266791215e-09
1.02586380344e-07
1.51647502334e-07
3.65241519332e-07
7.38245946175e-07
1.53855625077e-07
2.06594272756e-07
6.12484731148e-07
8.30038657775e-07
7.32925544351e-07
9.23729447484e-07
5.77019018083e-08
1.21520258738e-06
9.72536699758e-08
2.70211437973e-07
2.13836353474e-07
1.16429548843e-06
1.23531508578e-06
1.24700183576e-06
4.0511413457e-06
3.76053899591e-07
7.06129527023e-08
1.04383353705e-06
1.58863773361e-06
1.80368602614e-06
4.48551414405e-08
2.06126352728e-07
4.23148274377e-07
1.3253458465e-06
9.01974497743e-07
6.17594355872e-07
6.24714974971e-06
7.13146769757e-06
1.31394551529e-05
8.9882748299e-06
6.11575130296e-06
8.72555284144e-08
2.94134911975e-06
8.7654204338e-07
1.16246191937e-06
8.79193482828e-08
7.53487592944e-07
4.10483680382e-06
9.76756367583e-07
1.31531195707e-07