# vtk DataFile Version 3.0
File Name: Molecule/arg/arg_3.0-0.vtk
ASCII
DATASET UNSTRUCTURED_GRID
FIELD FieldData 1
TIME 1 1 double
0.0
POINTS 474 double
-3.403 0.327 1.604
-3.398 0.034 0.803
-2.981 -0.361 1.858
-2.976 -0.654 1.057
-2.971 0.024 0.066
-2.549 -0.664 0.32
-2.984 0.046 0.042
-2.471 -0.12 -0.363
-2.484 -0.099 -0.385
-2.2 -0.483 -0.862
-2.216 -0.458 -0.889
-3.255 0.893 -0.375
-2.57 0.022 -0.532
-2.781 0.681 -0.857
-2.39 -0.269 -1.153
-2.621 0.454 -1.509
-2.776 1.74 -0.497
-2.407 1.34 -0.951
-2.211 1.177 -1.613
-2.622 1.932 -0.429
-2.287 1.501 -0.894
-2.142 1.682 -0.83
-1.982 1.439 -1.492
-1.81 1.654 -1.416
-2.655 2.421 0.048
-2.046 2.135 -0.548
-2.075 2.574 -0.12
-1.615 2.438 -0.879
-1.647 2.927 -0.402
-2.495 2.657 0.67
-1.932 2.785 0.438
-1.488 3.163 0.22
-3.186 2.284 1.521
-2.137 2.872 1.156
-2.739 2.546 1.897
-1.863 3.333 1.507
-2.53 2.972 2.328
-3.419 1.801 1.788
-2.717 2.558 2.345
-2.979 2.017 2.644
-3.567 1.179 1.827
-3.133 1.725 2.369
-3.262 1.186 2.403
-3.107 1.793 3.017
-3.25 1.192 3.055
-3.408 0.559 1.798
-3.123 0.649 2.378
-3.095 0.593 3.027
-3.105 0.348 2.085
-3.1 0.088 1.867
-2.97 0.105 2.152
-2.978 0.383 3.085
-2.865 -0.346 2.113
-2.52 -0.7 2.425
-2.794 0.071 2.575
-2.491 -0.24 2.849
-2.645 0.041 3.387
-2.41 -1.24 2.09
-2.148 -0.9 2.844
-2.042 -1.418 2.522
-2.003 -1.142 3.367
-1.882 -1.734 2.999
-2.078 -1.605 1.676
-1.723 -1.769 2.124
-1.517 -2.136 2.544
-1.592 -1.721 1.268
-1.257 -1.88 1.733
-0.984 -2.263 2.097
-2.203 -1.444 0.759
-1.237 -1.838 0.739
-1.813 -1.578 0.259
-0.96 -2.23 0.303
-1.631 -1.926 -0.256
-2.487 -0.785 0.321
-2.08 -0.956 -0.154
-1.943 -1.202 -0.738
-2.189 -0.632 -0.224
-2.248 -0.516 -0.225
-2.131 -0.618 -0.861
-2.114 -0.682 -1.181
-1.927 -1.264 -1.052
-2.312 -0.441 -1.376
-2.121 -0.506 -1.916
-1.682 -1.348 -1.746
-1.897 0.192 -2.527
-1.864 -0.768 -1.888
-1.57 0.147 -2.691
-2.011 1.039 -2.18
-1.198 0.386 -3.152
-1.348 1.496 -2.696
-1.72 1.257 -2.235
-1.479 1.817 -1.75
-1.107 2.057 -2.211
-1.319 2.584 -1.178
-0.816 3.013 -1.267
-1.111 2.259 -1.642
-0.623 2.675 -1.729
-0.543 2.537 -2.312
0.466 3.148 -0.891
-0.306 2.923 -1.738
0.315 2.988 -1.555
-0.026 3.04 -2.368
0.4 3.085 -2.243
-0.048 3.337 -3.001
0.699 3.415 -2.782
1.057 2.557 -0.305
0.619 2.806 -1.364
1.192 2.232 -0.796
0.892 2.689 -1.891
1.553 2.026 -1.234
0.737 2.845 0.68
1.539 1.918 0.039
1.22 2.206 1.024
0.406 3.093 0.833
0.756 2.48 1.392
0.466 2.698 1.526
1.112 2.426 2.108
0.748 2.699 2.276
-0.152 3.531 0.588
0.05 3.076 1.433
-0.422 3.446 1.225
-0.034 3.266 2.099
-0.572 3.688 1.862
-0.865 3.557 0.357
-1.026 3.468 1.03
-1.261 3.713 1.639
-1.554 3.135 0.914
-0.08 3.426 2.677
0.695 2.881 2.933
-0.313 3.4 3.231
0.431 2.852 3.563
-0.687 3.194 3.654
0.006 2.617 4.044
-1.359 3.167 3.763
-0.58 2.815 3.881
-1.359 2.784 4.008
-1.995 3.111 3.523
-2.096 2.719 3.73
-2.423 3.039 2.998
-2.593 2.636 3.121
-0.832 2.373 4.277
-0.242 2.183 4.431
-1.061 1.806 4.483
-0.466 1.628 4.634
-1.543 2.398 4.242
-1.452 1.611 4.604
-1.868 2.121 4.396
-2.128 2.66 3.763
-2.373 2.347 3.982
-2.655 2.52 3.176
-2.827 2.227 3.476
-1.464 1.095 4.666
-0.48 1.041 4.705
-1.655 0.731 4.634
-0.882 0.784 4.614
-1.066 0.434 4.582
-0.333 0.517 4.869
-0.555 0.096 4.831
-2.14 0.383 4.441
-1.246 0.178 4.538
-1.7 -0.148 4.358
-0.878 -0.357 4.785
-1.429 -0.753 4.566
-2.498 0.133 3.99
-2.035 -0.382 3.936
-1.836 -1.037 4.053
-2.172 -0.468 3.371
-0.383 -0.749 5.065
-0.05 -0.304 5.117
0.164 -1.171 5.088
0.507 -0.734 5.141
0.44 -1.748 4.904
1.043 -0.806 5.264
1.319 -1.383 5.081
0.709 -2.198 4.495
1.588 -1.833 4.672
0.93 -2.454 3.923
1.809 -2.089 4.099
1.07 -2.477 3.273
1.949 -2.112 3.449
1.108 -2.263 2.644
1.987 -1.899 2.82
1.037 -1.846 2.131
1.916 -1.481 2.307
0.482 -2.37 2.114
0.798 -1.688 1.555
0.356 -2.104 1.542
0.806 -1.676 0.912
0.365 -2.092 0.898
1.061 -1.813 0.337
0.505 -2.337 0.32
-0.266 -2.524 2.101
-0.238 -2.226 1.532
-0.229 -2.214 0.888
-0.243 -2.491 0.308
-0.808 -2.019 1.528
-0.8 -2.007 0.885
1.48 -1.078 0.031
1.043 -1.422 0.814
1.323 -0.93 0.61
1.205 -1.217 1.373
1.436 -0.812 1.205
1.517 -1.238 1.905
1.797 -0.747 1.701
2.335 -0.746 2.002
1.639 -0.712 -0.547
1.476 -0.549 0.311
1.615 -0.229 -0.195
1.697 -0.118 0.66
1.842 0.216 0.134
1.684 -1.288 -0.895
1.805 -0.426 -1.067
1.846 -0.941 -1.379
2.201 -0.141 -1.444
2.245 -0.694 -1.778
1.488 -1.753 -1.343
1.67 -1.358 -1.78
2.057 -1.14 -2.207
1.085 -2.024 -1.812
1.309 -1.6 -2.199
1.67 -1.4 -2.657
0.547 -2.053 -2.217
0.827 -1.627 -2.562
1.154 -1.428 -3.046
-0.032 -1.836 -2.488
0.31 -1.432 -2.805
0.599 -1.22 -3.306
-0.548 -1.409 -2.576
-0.152 -1.05 -2.884
0.104 -0.811 -3.39
-0.822 -1.287 -2.506
-0.336 -0.591 -3.197
-0.616 -0.466 -3.125
-1.31 -1.347 -2.194
-0.988 -0.705 -2.664
-1.485 -0.767 -2.346
-0.251 0.008 -3.791
0.185 -0.248 -3.95
0.101 0.716 -4.098
0.516 0.418 -4.238
-0.398 1.946 -3.588
0.377 1.347 -4.4
0.117 1.987 -4.134
-0.106 2.463 -3.53
-0.202 2.855 -2.684
0.028 3.029 -3.665
0.9 3.106 -3.671
0.173 2.486 -3.833
0.85 2.546 -3.838
0.989 2.064 -4.14
0.819 3.383 -2.845
1.267 2.733 -3.406
1.204 2.948 -2.765
1.749 2.404 -3.353
1.668 2.681 -2.526
0.902 2.914 -2.485
0.749 2.956 -2.405
1.123 2.627 -2.01
2.133 1.624 -1.992
2.194 2.159 -2.516
2.042 0.907 -1.262
2.428 1.273 -2.257
2.342 0.599 -1.57
1.855 0.911 -0.632
1.44 1.861 -0.608
1.976 0.918 0.014
1.861 0.778 -0.544
1.751 0.201 -0.446
1.991 0.665 -1.105
1.878 0.074 -1.004
2.497 1.237 -3.182
2.232 2.14 -3.028
1.83 1.363 -3.817
1.863 2.209 -3.379
1.382 0.739 -4.338
1.103 1.869 -4.167
0.855 1.524 -4.455
1.404 2.01 -3.684
1.315 2.161 -3.664
2.073 0.663 0.819
1.861 -0.287 1.473
2.18 0.376 1.607
2.748 0.111 2.175
1.884 1.434 1.198
2.02 1.032 1.93
2.541 0.959 2.592
1.755 1.469 1.75
1.11 2.216 1.58
1.842 1.579 2.299
1.881 1.886 2.857
2.58 1.266 3.15
1.754 2.03 3.466
2.452 1.41 3.759
1.478 1.99 4.04
2.177 1.37 4.333
1.093 1.773 4.5
1.791 1.153 4.793
0.651 1.408 4.781
1.35 0.788 5.074
0.073 1.245 4.841
0.82 0.891 4.947
0.23 0.725 5.008
0.613 0.111 5.233
1.146 0.023 5.355
-1.909 1.923 -0.799
1.099 -1.46 1.828
-3.022 2.038 -0.231
-3.504 1.618 -0.113
-3.504 2.066 0.275
-3.022 2.419 0.247
-3.504 2.232 0.843
-3.504 2.066 1.411
-3.827 1.75 0.843
-3.827 1.466 1.336
-3.504 1.031 -0.198
-3.504 0.492 0.048
-3.827 0.896 0.35
-3.827 1.466 0.35
-3.94 1.181 0.843
-3.827 0.896 1.336
-3.827 0.612 0.843
-2.634 -1.246 1.071
-2.634 -1.246 1.663
-2.419 0.645 -2.059
-2.419 -0.001 -2.059
0.193 3.598 -0.086
-0.376 3.598 -0.655
-0.376 3.711 -0.086
-0.945 3.598 -0.086
-0.945 3.462 -0.682
-1.427 3.109 -0.654
0.675 3.275 -0.086
-0.333 3.709 2.497
-0.889 3.977 2.497
-0.889 3.843 3.084
-1.507 3.843 3.084
-1.507 3.468 3.554
-0.889 3.468 3.554
-1.507 3.843 1.91
-1.507 3.977 2.497
-2.063 3.709 2.497
-2.063 3.537 3.083
-2.204 1.508 4.671
-2.76 1.657 4.339
-2.76 1.053 4.426
-2.204 0.906 4.671
-2.76 0.497 4.173
-2.76 2.119 3.939
-3.145 1.508 3.874
-3.145 0.906 3.874
0.732 -2.729 3.297
0.137 -2.837 3.911
0.137 -2.945 3.297
0.137 -2.837 2.683
0.732 -2.608 2.693
0.137 -2.047 4.853
-0.497 -2.047 4.853
-0.497 -2.525 4.452
0.137 -2.525 4.452
-0.497 -2.837 3.911
-0.497 -2.945 3.297
-0.497 -2.837 2.683
-0.497 -1.461 5.066
-1.092 -1.149 4.877
-1.092 -1.753 4.756
-1.092 -2.266 4.414
-1.092 -2.608 3.901
-1.092 -2.729 3.297
-1.092 -2.608 2.693
-1.577 -1.735 4.312
-1.577 -2.164 3.883
-1.577 -2.321 3.297
-1.894 -1.461 3.837
1.271 -2.245 -0.834
1.271 -2.088 -0.248
0.786 -2.532 -0.23
0.786 -2.653 -0.834
0.786 -2.532 -1.438
0.191 -2.761 -0.22
0.191 -2.869 -0.834
0.191 -2.761 -1.448
0.191 -2.449 -1.989
-0.443 -2.761 -0.22
-0.443 -2.869 -0.834
-0.443 -2.761 -1.448
-0.443 -2.449 -1.989
-1.038 -2.532 -0.23
-1.038 -2.653 -0.834
-1.038 -2.532 -1.438
-1.038 -2.19 -1.951
-0.443 -1.971 -2.39
-1.038 -1.677 -2.293
-1.523 -2.245 -0.834
-1.523 -2.088 -1.42
1.588 -1.385 -0.294
-1.152 1.82 -2.825
-1.152 1.343 -3.239
-0.729 0.877 -3.763
-0.729 0.286 -3.645
0.159 3.677 -3.268
1.993 1.475 0.623
1.632 2.291 3.029
1.147 2.699 3.029
1.147 2.578 3.633
1.147 2.236 4.146
0.552 2.495 4.184
0.552 2.017 4.585
0.025 0.329 5.098
3.668 -0.309 3.703
3.558 0.315 3.703
3.558 0.003 4.243
3.558 -0.621 4.243
3.558 -0.933 3.703
3.558 -0.621 3.163
3.558 0.003 3.163
3.241 0.706 4.289
3.241 0.277 4.718
3.241 -0.309 4.875
3.241 -0.895 4.718
3.241 -1.324 4.289
3.241 -1.481 3.703
3.241 -1.324 3.117
3.241 -0.895 2.688
3.241 -0.309 2.531
3.241 0.277 2.688
3.241 0.706 3.117
3.241 0.863 3.703
2.756 1.15 4.307
2.756 0.808 4.82
2.756 0.295 5.162
2.756 -0.309 5.283
2.756 -0.913 5.162
2.756 -1.426 4.82
2.756 -1.768 4.307
2.756 -1.889 3.703
2.756 -1.768 3.099
2.756 -1.426 2.586
2.756 -0.913 2.244
2.161 1.067 4.858
2.161 0.589 5.259
2.161 0.003 5.472
2.161 -0.621 5.472
2.161 -1.207 5.259
2.161 -1.685 4.858
2.161 -1.997 4.317
1.527 0.003 5.472
1.527 -0.621 5.472
2.923 0.206 -2.769
2.823 0.774 -2.769
2.823 0.49 -2.277
2.823 -0.078 -2.277
2.823 -0.362 -2.769
2.823 -0.078 -3.261
2.823 0.49 -3.261
2.535 0.054 -1.712
2.535 -0.493 -1.962
2.535 -0.819 -2.468
2.535 -0.819 -3.07
2.535 -0.493 -3.576
2.535 0.054 -3.826
2.535 0.65 -3.74
2.093 -1.201 -3.068
2.093 -0.958 -3.615
2.093 -0.513 -4.015
2.093 0.056 -4.2
2.093 0.651 -4.137
1.55 -1.185 -3.63
1.55 -0.78 -4.075
1.55 -0.242 -4.343
1.55 0.357 -4.398
0.974 -1.185 -3.63
0.974 -0.78 -4.075
0.974 -0.242 -4.343
0.431 -0.513 -4.015

CELLS 944 3776
3 0 1 2
3 2 1 3
3 1 4 3
3 3 4 5
3 4 6 7
3 7 6 8
3 7 8 9
3 9 8 10
3 6 11 12
3 12 11 13
3 12 13 14
3 14 13 15
3 11 16 13
3 13 16 17
3 13 17 15
3 15 17 18
3 16 19 20
3 20 19 21
3 20 21 22
3 22 21 23
3 19 24 25
3 25 24 26
3 25 26 27
3 27 26 28
3 24 29 26
3 26 29 30
3 26 30 28
3 28 30 31
3 29 32 33
3 33 32 34
3 33 34 35
3 35 34 36
3 32 37 38
3 38 37 39
3 37 40 41
3 41 40 42
3 41 42 43
3 43 42 44
3 40 45 42
3 42 45 46
3 42 46 44
3 44 46 47
3 45 0 48
3 48 0 49
3 48 50 47
3 47 50 51
3 50 49 52
3 52 49 2
3 52 53 54
3 54 53 55
3 54 55 51
3 51 55 56
3 53 57 58
3 58 57 59
3 58 59 60
3 60 59 61
3 57 62 59
3 59 62 63
3 59 63 61
3 61 63 64
3 62 65 63
3 63 65 66
3 63 66 64
3 64 66 67
3 65 68 69
3 69 68 70
3 69 70 71
3 71 70 72
3 68 73 70
3 70 73 74
3 70 74 72
3 72 74 75
3 73 5 76
3 76 5 77
3 76 77 78
3 78 77 9
[...]
CELL_DATA 944
SCALARS cell_data_0 double
LOOKUP_TABLE default
4.02070979508e-05
3.05054050844e-05
3.64272439827e-05
3.65150652957e-05
2.78674430635e-06
2.25431129852e-06
1.93286513605e-06
1.79412046324e-06
4.99662284534e-05
1.44604431957e-05
3.60718072452e-05
4.09128194009e-05
5.89818206045e-05
4.59516476377e-05
1.4913436501e-05
6.36538907286e-05
2.06555673846e-05
1.0127556102e-05
8.19767348198e-06
1.48518349611e-05
2.84917961031e-05
2.46520138615e-05
5.02473903041e-05
4.61624632353e-05
2.49406842532e-05
1.15458832993e-05
5.28177022657e-06
1.94529979921e-05
2.99292581774e-05
5.79277999901e-06
2.1429234166e-05
6.9540425591e-05
7.11503131133e-05
9.98140941765e-05
4.17586929256e-05
1.6241745661e-05
3.14020716809e-05
3.68847336226e-05
2.48060143385e-05
2.24768027262e-05
1.88956367958e-05
2.02943938832e-05
9.6199877385e-06
1.01093036885e-05
1.35525366731e-05
1.42629856024e-05
8.99203362195e-06
8.16344506422e-06
2.39340431672e-05
2.07762282275e-05
2.42847579515e-05
2.70297634155e-05
1.35121475151e-05
1.27786067852e-05
1.97852920071e-05
1.84399322339e-05
1.26925942971e-05
2.0752650623e-05
1.7860830202e-05
2.1183328358e-05
2.51108491816e-05
2.48564424688e-05
2.2014519171e-05
2.79840183504e-05
4.57139964291e-05
2.55319545478e-05
2.04598842958e-05
1.14493779577e-05
2.16479878903e-05
1.2457550007e-05
6.5438374238e-06
2.5461709185e-05
7.84415965988e-06
1.05137463672e-05
1.08558379298e-05
1.0473675493e-05
1.31761739488e-05
1.35455921257e-05
9.45436007518e-06
1.13221136443e-05
4.46938097541e-05
5.27667237652e-05
2.51337186407e-05
3.14038640697e-05
7.91954381798e-05
0.000104196740634
3.33940327099e-05
3.79830180609e-05
5.21749923894e-05
5.03265808183e-05
6.34331947577e-05
7.99678300489e-05
9.34794067825e-05
6.50365150366e-05
5.41977527447e-05
2.8316507408e-05
0.00023767670644
9.8207524004e-05
1.00550118106e-05
5.8517243932e-06
1.00516415851e-05
3.06430050272e-05
0.000209236154127
8.3454066663e-05
9.49633186524e-05
0.000311698447841
0.000184962899834
0.000133387295808
3.80494994537e-05
3.63754949451e-05
4.95061687937e-05
5.83708548606e-05
0.000160941228238
0.000164854064218
0.000124580493359
0.000112515650149
9.6761162006e-05
4.41604039738e-05
9.8570064292e-05
7.99776009625e-05
5.08641462151e-05
3.33702678355e-05
8.58987489889e-06
1.97695513419e-05
4.41308504036e-05
4.61077134612e-05
1.04567534067e-05
7.95725435496e-05
8.24581189049e-05
0.000134430846486
5.41099471664e-05
8.7131298028e-05
8.05198381414e-05
6.30156695244e-05
2.4257709887e-05
2.28246756987e-05
4.35503797041e-05
5.98684907705e-05
7.45727061851e-05
5.99132384921e-05
4.84124081516e-05
3.86168388535e-05
5.3962436799e-05
6.3002752468e-05
9.43829833896e-05
8.63805487072e-05
7.97459651897e-05
4.56888393014e-05
3.84214319159e-05
4.35216131596e-05
7.27868032807e-05
8.30066672687e-05
3.59425350523e-05
2.37966756848e-05
2.27733679425e-05
4.43396323428e-05
4.48179580501e-05
4.82714936638e-05
4.01658519221e-05
9.47041655611e-05
7.75534126723e-05
6.07274069075e-05
7.50506961841e-05
7.02247486138e-05
4.06528621981e-05
3.81625633031e-05
4.42036862665e-05
4.60390543442e-05
4.31412913785e-05
1.47360808688e-05
9.41256192341e-06
3.03468721883e-05
2.90216192375e-05
1.4582196511e-05
5.31134800504e-06
9.45821883164e-06
1.24133922539e-05
1.30833596027e-05
1.28337920849e-05
1.30004141115e-05
1.13615105433e-05
1.00396804984e-05
2.66610757351e-05
7.33776587255e-05
3.67587236698e-05
1.18443189126e-05
3.39529395118e-05
3.50273327253e-05
5.43482331857e-05
5.05552784885e-05
1.73177874902e-05
4.68776856213e-05
4.66267514309e-05
5.67262471177e-05
3.080402543e-05
4.24614265793e-05
5.05559664317e-05
5.45530695083e-05
7.25404109422e-05
7.87750170171e-05
6.52344634196e-05
5.76881437005e-05
0.000116091174188
1.41268554651e-05
2.25749988314e-05
6.11651906383e-06
5.17095207976e-05
0.000213855106038
0.000186335332311
0.00027930899345
0.000312925619376
0.000272735657847
0.000276786122872
0.000102254379832
0.000243591614969
0.000417722045145
0.000294569030716
0.000240490041571
0.000425461686992
0.000426215825717
0.000385792303271
0.000356426793856
0.000205564125614
0.000172310406311
0.000357163902404
0.000391896026031
0.000208911703739
0.000177990434307
0.00017643349903
0.000239956512201
0.000250619994512
4.71679932062e-05
5.75448269105e-05
0.00017600067595
8.00225125118e-05
4.8165813337e-05
0.000131735085534
0.000122015412636
7.62371488004e-05
9.04940710685e-05
4.28595649206e-05
1.25245763418e-05
1.16823880173e-05
5.84294557427e-06
6.76138219367e-05
6.57151730658e-05
7.16732713673e-05
5.73009646296e-05
7.43609317241e-05
6.80589214832e-05
0.00031463015719
0.000175841533495
0.000245200911006
7.1456182811e-05
0.000184337941237
0.000145166101039
0.000215260289532
8.49039913915e-05
8.27004466545e-05
8.22580333535e-05
0.000130253789303
3.07434327306e-05
1.4948775603e-05
6.29622609395e-05
4.88214936002e-05
4.4499362339e-05
4.58302177673e-05
2.56520240245e-05
0.000180714813392
9.96051888219e-05
2.886845466e-05
2.09893430227e-05
0.000376727023377
0.000265907107876
0.000126098386948
2.39809010962e-05
0.000172720004097
0.000184993579397
0.000289053789131
0.00025610730882
0.000181928252713
0.000110641804609
5.85688709833e-05
3.57781158714e-05
4.62334239379e-05
3.0322955517e-05
4.41343089251e-05
1.48381250743e-05
5.26123676302e-05
3.7695309374e-05
1.04345576249e-05
7.10666748467e-06
6.28340326884e-06
1.62159458702e-05
0.000117466483314
4.0329845507e-05
8.00904964625e-05
0.000125274088331
3.00678566892e-05
9.75480082017e-05
0.000131096111302
0.000176868348521
0.000143905300332
0.000211568528665
0.000177240535458
0.00012550983226
0.000148821296841
0.000194733691406
0.000233084506376
0.000109210744904
7.24976908676e-05
4.02929088098e-05
1.76031560432e-05
9.09855967438e-07
3.08086863254e-06
1.43133795202e-05
1.7150559879e-05
1.97380393171e-05
3.17261290948e-05
4.58754228895e-05
1.90583155754e-05
5.21250692185e-06
2.59327721898e-05
3.54554688051e-05
9.96906080766e-06
3.41549477205e-05
3.7268244541e-05
4.89408931396e-05
2.3159023268e-05
6.76577074231e-06
1.00889582969e-05
2.62451736698e-05
5.84417909705e-06
1.45750498795e-05
7.99090969181e-05
3.57039401036e-05
1.18513319081e-05
2.19083804307e-05
2.73554941237e-05
1.58948939277e-05
2.94620892592e-06
1.76166031903e-05
5.6143901715e-06
1.78533904079e-05
6.95334667275e-06
2.24853790236e-05
2.79143408233e-05
1.07156156996e-05
1.31939139669e-05
1.65597300612e-05
1.30075570261e-05
3.01856732833e-05
3.01402895752e-05
2.58509486088e-05
2.07843321661e-05
3.4371043123e-05
3.53037084109e-05
6.77625623782e-05
4.57951726826e-05
2.90722422495e-05
2.58325383842e-05
2.14019142342e-05
1.84985684076e-05
7.91644950791e-06
7.20458149736e-06
1.09192004072e-05
1.46011510196e-05
6.30124499178e-05
7.20164425161e-05
2.28066291054e-05
1.64941636339e-05
2.65766083146e-05
1.25273242837e-05
1.3732107851e-05
1.21512054156e-07
3.59407473943e-05
8.17947307678e-05
3.83497797402e-05
5.43767817173e-05
6.10703451056e-05
2.32437113742e-05
4.76160944576e-05
7.21668301368e-05
6.60027155637e-05
8.834131583e-05
9.03437160219e-05
0.000107478221942
9.74675026753e-05
3.67888669876e-05
2.6978811804e-05
3.39904957342e-05
3.39339042656e-05
3.25375850318e-05
1.2116227904e-05
1.13252592901e-05
3.9655301348e-05
0.000122895476292
4.28094383073e-05
1.94181464441e-05
9.62452108e-06
1.02374313982e-05
4.2187672222e-06
2.87527867906e-05
3.44542387846e-05
0.000153737308162
0.000170295126971
0.000154793424182
7.41019280572e-05
0.000164149469103
0.000155527072924
9.51884143639e-05
0.000161318273992
0.000127017688452
9.83041744491e-05
0.000100011667351
4.17824309975e-05
4.62464092843e-05
7.88164180823e-05
5.64828063019e-05
4.19460866926e-05
8.22502026716e-05
0.000143918698155
3.28688382438e-05
4.21120140776e-05
4.62725387587e-05
5.62312555486e-05
0.00026653249023
0.000114962038362
0.000107695480711
3.10317587797e-05
5.56400642424e-05
8.90654728718e-05
7.36881667947e-05
4.54891822249e-05
2.58678929532e-05
2.5502200549e-05
9.15372854297e-05
9.24259221681e-05
9.45047565814e-05
1.0867151051e-05
9.39708273741e-06
9.28115977514e-06
8.90854556955e-06
8.36592763687e-06
9.58247798192e-06
8.27357937371e-06
9.07401852645e-06
8.65101858028e-06
8.09499861482e-06
9.34185870891e-06
8.51584660878e-06
7.46739063396e-06
7.3450443998e-06
6.95867885844e-06
6.80018765227e-06
6.87389362518e-06
7.1523151671e-06
8.04509795478e-06
2.13095351956e-05
2.69725764435e-05
1.43600736565e-05
1.18313768774e-05
1.92525686471e-05
1.00963479127e-05
3.47162329993e-05
2.67624961151e-05
1.78407472177e-05
7.35023584266e-06
3.24060762507e-05
1.9044645375e-05
1.20709981865e-05
8.34939652867e-06
1.42565260909e-05
1.26412822435e-05
2.69515145077e-05
5.8559139073e-05
4.97587756391e-06
5.73462817835e-06
2.78823815145e-05
4.14193138551e-05
2.5550393944e-06
4.4187177522e-06
2.39980625978e-05
1.76954220031e-05
2.56536840287e-05
1.41312257868e-05
3.00040959353e-05
9.33206994788e-06
8.74709427249e-06
2.20869426067e-05
3.61292173515e-05
4.04679629637e-05
3.25870166782e-05
3.89347831947e-06
3.41944195699e-07
5.96755286482e-05
6.67449442446e-05
4.44665676398e-05
7.02148084893e-05
2.9763985458e-05
3.45671807623e-05
4.62443795258e-05
6.14610945444e-05
5.80911634221e-05
1.21023293698e-05
4.10819113298e-05
1.03000417103e-05
1.15775312129e-05
9.5165194358e-06
1.07132423354e-05
4.50211254837e-05
2.69050006684e-05
8.79848516767e-06
5.83437750072e-05
4.92504732092e-05
6.72769190707e-05
1.22831608832e-05
0.00010817230134
0.000159594981692
0.000260630398544
3.40294947236e-05
3.28483729674e-05
5.28986627345e-05
4.52412664559e-05
2.39511384748e-05
1.66060908167e-05
0.000237514364088
0.00012617943795
2.09279227776e-05
1.26071156508e-05
1.2175589455e-05
1.20367882319e-05
1.1387093819e-05
1.11763283484e-05
1.20344702478e-05
1.21195752575e-05
1.25935896405e-05
1.16535332213e-05
1.12703791725e-05
3.57406078666e-05
0.000108875563734
4.95886117682e-05
1.07274191117e-05
3.20232224553e-05
3.26819986251e-05
3.78918231562e-05
2.09107714756e-05
2.58377220882e-05
1.08102059027e-05
9.38901018253e-06
1.47658880821e-05
4.26935917557e-06
9.04273557156e-06
6.94975511658e-05
5.97450128654e-05
7.77762642873e-05
7.44017277589e-06
1.41996412529e-05
6.95658926794e-05
7.73723194098e-05
6.30944361906e-05
1.00747837511e-05
9.73760231113e-06
2.23645713013e-05
1.32070435556e-05
5.10063757978e-05
9.89480147098e-05
1.33197020763e-05
1.27279667772e-05
1.34213093659e-05
1.13578109555e-05
1.31321143742e-05
1.46810621194e-05
1.28896581293e-05
2.78833266223e-05
1.99658352857e-05
3.03824943327e-05
3.0634693136e-05
4.00014608055e-05
2.9260061585e-05
3.15723042143e-05
4.31858403445e-05
6.41495614909e-05
4.81686503764e-05
0.000101161561968
2.55804281392e-05
2.70990647483e-05
1.88791855748e-05
5.84651819336e-05
4.45358025429e-05
2.11193202836e-05
2.35083712119e-05
1.23511562268e-05
3.70649757592e-05
5.14521622877e-06
0.000163483294973
0.000127426244691
0.000259512500218
0.000146891362555
0.000108190910957
6.18130707601e-05
6.68625299566e-05
5.58667716885e-05
4.37159936082e-05
8.71565940632e-06
1.48466134471e-06
2.65198941412e-06
6.05974126837e-05
4.70419778365e-05
7.50093858424e-05
2.6485892571e-05
4.7185435836e-05
3.11011890531e-05
3.37066156727e-05
7.48222162734e-06
1.51752272114e-06
5.1146001735e-06
1.85946460629e-06
4.03986247418e-06
5.25059150636e-06
1.22698163727e-05
8.31003731733e-06
7.19354766683e-06
2.07312116556e-05
3.4944230004e-06
1.4047340098e-05
1.15569891552e-05
2.08826681014e-05
6.16560819341e-06
2.44225101088e-05
8.61203343377e-06
2.95393244408e-06
0.000115377572322
9.6103031751e-05
8.8893840284e-05
0.000153737897179
7.52390923332e-05
0.000243396485994
8.14616676267e-05
3.45174068367e-05
8.0994484817e-05
3.12567203784e-05
4.46255328415e-05
0.000147455856165
0.000132803797677
3.99787232941e-05
1.06390170239e-05
1.45745204943e-05
3.72217750166e-05
2.54059742723e-05
1.10967128538e-05
5.8668187499e-05
1.8354102555e-05
2.27198181439e-05
2.02003282417e-05
2.2148366546e-05
3.93126366847e-05
3.22362235314e-05
3.34026148047e-05
3.03823934335e-05
2.76570845513e-05
2.5040813946e-05
2.88916694705e-05
3.19095671686e-05
2.96617590435e-05
2.78833676871e-05
2.55896159426e-05
2.50400538145e-05
2.76354773225e-05
3.07687652531e-05
2.83492614654e-05
2.82307606901e-05
2.60193888382e-05
2.61435346377e-05
2.82487254814e-05
2.97297178138e-05
3.06948341431e-05
3.01438114092e-05
2.74345347748e-05
2.74186178151e-05
3.6644883301e-05
3.4830262928e-05
5.49070693797e-05
1.03261928278e-05
5.75469774654e-06
2.52698840617e-05
2.62170898692e-05
2.64843770252e-05
4.02094543897e-05
5.61183524365e-05
3.28433639743e-05
0.000254611266822
0.000261780200578
0.000249064235619
2.51292079027e-05
1.19598153794e-05
0.000206254961031
0.000264378112253
4.87256660275e-05
8.706372242e-05
7.22064633298e-05
4.80664793969e-05
1.34833306136e-05
2.22017058595e-05
3.59008695898e-05
4.32936231956e-05
2.83123790529e-05
2.42435214144e-05
2.58065732591e-05
3.17364062307e-05
2.68816636576e-05
5.92819097533e-05
5.73026421327e-05
9.00170980063e-05
6.67477187346e-05
0.000192156241229
8.47133487884e-06
7.41354044627e-06
2.96452586091e-05
3.62963294703e-05
7.31797260116e-05
0.000113347580137
6.79074780174e-05
9.5011364621e-05
9.34918048473e-05
5.32525870438e-05
8.81264988558e-05
0.000106360732716
0.000363979807818
0.000305556876624
0.000222625089699
0.0003824140646
6.44823615092e-05
8.67984006618e-05
0.000268370914245
0.000356675517187
0.000779010529514
0.000715184374225
0.000309464568854
0.000374102338142
0.000135365316385
6.03758156867e-05
9.76029900585e-05
7.51447279166e-05
5.63994316001e-05
9.53503270721e-05
0.000105906181296
2.19109056459e-05
0.000315108685595
9.86278145247e-05
2.78023069619e-05
1.87435747097e-05
1.8432202868e-05
7.18877311152e-05
0.000134980008848
0.000284714816817
0.000186006280304
0.000371598052583
0.000386081139096
0.000114546650054
8.35294800071e-05
0.000100231588949
0.000225873690552
0.000151878117222
6.34411218171e-05
3.54835970508e-05
2.01476662589e-05
3.51287258199e-05
4.00724964623e-05
1.50648259605e-05
3.9576893172e-06
3.70834895266e-05
0.000195938269454
2.00861934595e-05
1.26429312584e-06
2.04974541165e-05
3.25269564493e-05
2.09132631383e-05
1.60292826548e-05
2.21397670275e-05
2.68742858214e-05
1.39593744573e-05
6.2735248231e-06
4.46871385788e-06
7.67666180922e-06
2.22446001127e-05
4.29653882683e-05
2.07599577344e-05
1.33762645316e-05
1.64586590931e-05
2.02640127111e-05
3.1866287876e-05
1.94038804493e-05
2.04935681584e-05
1.94815783306e-06
3.83041332896e-06
9.47412704164e-06
1.03677435935e-06
1.28956250273e-05
6.03990263934e-05
0.000194649831376
0.000183592121599
0.000208344438265
7.04499450998e-05
0.000162621999054
0.00011869352637
2.80895913762e-05
1.5454587173e-05
3.84947958679e-06
1.08651765311e-06
2.18681825438e-06
2.31514516687e-05
4.63301831837e-05
6.46701169749e-05
0.000123038552528
9.91464118006e-05
0.00017900019092
0.000114920454945
2.16144839521e-05
1.60042461483e-05
9.02711064764e-06
1.26007115606e-05
5.01785126782e-06
0.000116841272319
2.08498799428e-05
1.4052683835e-05
6.78627956042e-06
7.80199352593e-06
1.18458473888e-05
4.86917191488e-06
3.72045000818e-06
3.63689080488e-05
8.01065132943e-05
0.000164768254017
0.00031785745175
0.000375834370839
1.43682837087e-05
1.80169489063e-05
1.49225435564e-05
4.51800195099e-06
1.81372348323e-05
8.38166628665e-05
3.97140712726e-05
0.000173322594127
9.88381041513e-05
0.000125379858336
0.000502621054902
0.00017309882753
1.89483907492e-05
2.68911975712e-06
1.26275715797e-05
2.61737823666e-05
5.92441061345e-05
5.93195373739e-05
3.82884896385e-05
8.88809838846e-05
0.000144758978993
0.000289165273824
0.00025827079409
0.000320524317895
0.000139430475733
0.000234066553762
0.000103984357793
0.000100916209336
6.01229617008e-06
1.99318023217e-06
1.40092144328e-06
8.2485500986e-06
6.84233429269e-06
1.14412539533e-05
9.22473434452e-07
1.75259868307e-05
2.49728691523e-05
2.78962520214e-05
2.61282509234e-05
2.60510618298e-05
2.55201375796e-05
2.2645608118e-05
3.44185137773e-05
2.9621798249e-05
3.30063760629e-05
3.18292647161e-05
2.87692626263e-05
3.09240044766e-05
3.12485541706e-05
2.95874324554e-05
3.22922926701e-05
2.99562569545e-05
2.9253959421e-05
3.07605168523e-05
2.7792291118e-05
3.15734255878e-05
3.06431590801e-05
3.24836131018e-05
3.20639813309e-05
3.04787572992e-05
2.95448929524e-05
2.95513769327e-05
3.0731696532e-05
3.23565292101e-05
2.95024454863e-05
2.91236813224e-05
2.9811593118e-05
3.04357037757e-05
2.8713105224e-05
3.01357717664e-05
2.90591972215e-05
3.0659553444e-06
4.25139506441e-05
4.19251545672e-06
2.70585425552e-05
1.52715607259e-05
1.15209538751e-05
5.23151161222e-06
2.65523467157e-05
4.24235309345e-06
2.0853304885e-05
1.4822026712e-05
6.48503071389e-06
1.99497952613e-05
7.14360283777e-06
2.59952956801e-05
1.81546566824e-05
2.76918698146e-06
9.94373697344e-07
2.75096493302e-05
0.00011940858711
0.000130341075724
3.16403749873e-05
0.000326251506229
0.000205694462437
1.47832854151e-05
1.23868555043e-05
9.11789788696e-05
6.42957670559e-05
3.15217623341e-05
0.00010459453327
1.03586210753e-05
4.49120611762e-05
3.23046205996e-05
4.86409398686e-06
7.81095713459e-05
0.000139557104994
1.4177896316e-05

