# vtk DataFile Version 3.0
File Name: Molecule/arg/arg_0.5-4.vtk
ASCII
DATASET UNSTRUCTURED_GRID
FIELD FieldData 1
TIME 1 1 double
0.0
POINTS 158 double
-3.403 0.327 1.604
-2.971 0.024 0.066
-2.981 -0.361 1.858
-2.549 -0.664 0.32
-2.984 0.046 0.042
-2.2 -0.483 -0.862
-2.216 -0.458 -0.889
-2.776 1.74 -0.497
-2.39 -0.269 -1.153
-2.211 1.177 -1.613
-2.622 1.932 -0.429
-1.982 1.439 -1.492
-1.81 1.654 -1.416
-2.495 2.657 0.67
-1.615 2.438 -0.879
-1.488 3.163 0.22
-3.186 2.284 1.521
-1.863 3.333 1.507
-2.53 2.972 2.328
-3.419 1.801 1.788
-2.717 2.558 2.345
-2.979 2.017 2.644
-3.408 0.559 1.798
-3.107 1.793 3.017
-3.095 0.593 3.027
-3.105 0.348 2.085
-3.1 0.088 1.867
-2.97 0.105 2.152
-2.978 0.383 3.085
-2.865 -0.346 2.113
-2.52 -0.7 2.425
-2.645 0.041 3.387
-1.592 -1.721 1.268
-2.003 -1.142 3.367
-0.984 -2.263 2.097
-2.487 -0.785 0.321
-0.96 -2.23 0.303
-1.943 -1.202 -0.738
-2.131 -0.618 -0.861
-2.114 -0.682 -1.181
-1.927 -1.264 -1.052
-2.312 -0.441 -1.376
-2.121 -0.506 -1.916
-1.682 -1.348 -1.746
-1.897 0.192 -2.527
-1.864 -0.768 -1.888
-1.57 0.147 -2.691
-2.011 1.039 -2.18
-1.198 0.386 -3.152
-1.348 1.496 -2.696
-1.72 1.257 -2.235
-1.479 1.817 -1.75
-1.107 2.057 -2.211
-1.319 2.584 -1.178
-0.816 3.013 -1.267
-0.543 2.537 -2.312
0.466 3.148 -0.891
-0.048 3.337 -3.001
0.699 3.415 -2.782
1.057 2.557 -0.305
0.892 2.689 -1.891
1.553 2.026 -1.234
0.737 2.845 0.68
1.539 1.918 0.039
1.22 2.206 1.024
0.406 3.093 0.833
1.112 2.426 2.108
0.748 2.699 2.276
-0.034 3.266 2.099
-0.687 3.194 3.654
0.006 2.617 4.044
-1.995 3.111 3.523
-0.58 2.815 3.881
-2.096 2.719 3.73
-1.061 1.806 4.483
-0.466 1.628 4.634
-2.128 2.66 3.763
-1.452 1.611 4.604
-2.373 2.347 3.982
-1.464 1.095 4.666
-0.48 1.041 4.705
-1.655 0.731 4.634
-0.333 0.517 4.869
-0.555 0.096 4.831
-0.878 -0.357 4.785
0.164 -1.171 5.088
0.507 -0.734 5.141
0.93 -2.454 3.923
1.043 -0.806 5.264
1.809 -2.089 4.099
1.037 -1.846 2.131
1.061 -1.813 0.337
1.48 -1.078 0.031
1.916 -1.481 2.307
2.335 -0.746 2.002
1.639 -0.712 -0.547
1.697 -0.118 0.66
1.842 0.216 0.134
1.085 -2.024 -1.812
2.201 -0.141 -1.444
1.67 -1.4 -2.657
-0.548 -1.409 -2.576
0.104 -0.811 -3.39
-0.822 -1.287 -2.506
-0.336 -0.591 -3.197
-0.616 -0.466 -3.125
-0.988 -0.705 -2.664
0.101 0.716 -4.098
0.516 0.418 -4.238
-0.398 1.946 -3.588
0.377 1.347 -4.4
0.117 1.987 -4.134
0.028 3.029 -3.665
0.9 3.106 -3.671
0.989 2.064 -4.14
0.819 3.383 -2.845
1.749 2.404 -3.353
1.668 2.681 -2.526
1.123 2.627 -2.01
2.133 1.624 -1.992
2.194 2.159 -2.516
2.042 0.907 -1.262
2.428 1.273 -2.257
2.342 0.599 -1.57
1.976 0.918 0.014
1.83 1.363 -3.817
1.863 2.209 -3.379
1.103 1.869 -4.167
1.884 1.434 1.198
2.541 0.959 2.592
1.842 1.579 2.299
0.651 1.408 4.781
1.35 0.788 5.074
0.82 0.891 4.947
-3.94 1.181 0.843
-1.891 3.826 2.497
-2.589 1.578 4.495
-1.092 -1.939 4.665
0.786 -2.653 -0.834
3.668 -0.309 3.703
2.756 0.481 5.071
2.756 -1.099 5.071
2.093 -0.513 -4.015
-0.027 -2.3585 3.01
-1.038 -2.101 3.381
-0.081 -2.1965 4.294
1.2465 1.4935 3.54
0.924 2.098 3.1715
0.3285 2.0125 4.4125
1.54425 1.53625 2.9195
1.383 1.8385 2.73525
1.08525 1.79575 3.35575
1.8625 -1.785 3.203
2.7385 -1.199 3.901
2.792 -0.895 3.005
0.62625 2.05525 3.792
1.004625 1.946875 3.263625
0.706875 1.904125 3.884125

CELLS 312 1248
3 0 1 2
3 2 1 3
3 1 4 5
3 5 4 6
3 4 7 8
3 8 7 9
3 7 10 11
3 11 10 12
3 10 13 14
3 14 13 15
3 13 16 17
3 17 16 18
3 16 19 20
3 20 19 21
3 19 22 23
3 23 22 24
3 22 0 25
3 25 0 26
3 25 27 24
3 24 27 28
3 27 26 29
3 29 26 2
3 29 30 28
3 28 30 31
3 30 32 33
3 33 32 34
3 32 35 36
3 36 35 37
3 35 3 38
3 38 3 5
3 38 39 37
3 37 39 40
3 39 6 41
3 41 6 8
3 41 42 40
3 40 42 43
3 42 44 45
3 45 44 46
3 44 47 48
3 48 47 49
3 47 9 50
3 50 9 11
3 50 51 49
3 49 51 52
3 51 12 53
3 53 12 14
3 53 54 52
3 52 54 55
3 54 56 57
3 57 56 58
3 56 59 60
3 60 59 61
3 59 62 63
3 63 62 64
3 62 65 66
3 66 65 67
3 65 15 68
3 68 15 17
3 68 69 67
3 67 69 70
3 69 71 72
3 72 71 73
3 71 18 73
3 73 18 20
3 72 74 70
3 70 74 75
3 74 76 77
3 77 76 78
3 76 21 78
3 78 21 23
3 77 79 75
3 75 79 80
3 79 81 82
3 82 81 83
3 81 31 84
3 84 31 33
3 84 85 83
3 83 85 86
3 85 87 88
3 88 87 89
3 87 90 89
3 90 34 91
3 91 34 36
3 91 92 93
3 93 92 94
3 92 95 96
3 96 95 97
3 95 98 99
3 99 98 100
3 98 101 100
3 100 101 102
3 101 103 104
3 104 103 105
3 103 43 106
3 106 43 45
3 106 46 105
3 105 46 48
3 104 107 102
3 102 107 108
3 107 109 110
3 110 109 111
3 109 55 112
3 112 55 57
3 112 113 111
3 111 113 114
3 113 115 116
3 116 115 117
3 115 58 118
3 118 58 60
3 118 119 117
3 117 119 120
3 119 121 122
3 122 121 123
3 121 61 124
3 124 61 63
3 124 97 123
3 123 97 99
3 122 125 120
3 120 125 126
3 125 108 127
3 127 108 110
3 127 114 126
3 126 114 116
3 96 128 94
3 94 128 129
3 128 64 130
3 130 64 66
3 129 131 132
3 131 80 133
3 133 80 82
3 133 86 132
3 132 86 88
3 26 0 2
3 5 3 1
3 8 6 4
3 11 9 7
3 14 12 10
3 17 15 13
3 20 18 16
3 23 21 19
3 25 24 22
3 29 28 27
3 33 31 30
3 36 34 32
3 38 37 35
3 41 40 39
3 45 43 42
3 48 46 44
3 50 49 47
3 53 52 51
3 57 55 54
3 60 58 56
3 63 61 59
3 66 64 62
3 68 67 65
3 72 70 69
3 77 75 74
3 82 80 79
3 84 83 81
3 88 86 85
3 91 93 90
3 96 94 92
3 99 97 95
3 104 102 101
3 106 105 103
3 110 108 107
3 112 111 109
3 116 114 113
3 118 117 115
3 122 120 119
3 124 123 121
3 127 126 125
3 130 129 128
3 133 132 131
3 0 22 134
3 0 134 4
3 0 4 1
3 4 134 7
3 7 134 13
3 7 13 10
3 13 134 16
3 16 134 19
3 19 134 22
3 3 35 2
3 2 35 32
3 2 32 30
3 2 30 29
3 6 39 38
3 6 38 5
3 9 47 42
3 9 42 8
3 8 42 41
3 42 47 44
3 12 51 11
3 11 51 50
3 15 65 56
3 15 56 54
3 15 54 53
3 15 53 14
3 56 65 62
3 56 62 59
3 71 69 135
3 71 135 18
3 18 135 17
3 17 135 68
3 68 135 69
3 76 74 73
3 76 73 20
3 76 20 21
3 73 74 72
3 24 28 136
3 24 136 23
3 23 136 78
3 78 136 77
3 77 136 79
3 79 136 81
3 81 136 31
3 31 136 28
3 26 27 25
3 33 137 84
3 84 137 85
3 37 40 36
3 36 40 43
3 36 43 138
3 36 138 91
3 91 138 92
3 92 138 98
3 92 98 95
3 98 138 101
3 101 138 43
3 101 43 103
3 46 106 45
3 49 52 109
3 49 109 48
3 48 109 107
3 48 107 105
3 105 107 104
3 109 52 55
3 58 115 113
3 58 113 57
3 57 113 112
3 61 121 119
3 61 119 118
3 61 118 60
3 64 128 63
3 63 128 124
3 124 128 97
3 97 128 96
3 67 70 66
3 131 75 80
3 83 86 82
3 82 86 133
3 139 140 141
3 139 94 129
3 139 129 140
3 140 129 132
3 140 132 88
3 140 88 141
3 141 88 89
3 102 108 142
3 102 142 100
3 100 142 99
3 99 142 123
3 123 142 122
3 122 142 125
3 125 142 108
3 111 114 110
3 110 114 127
3 117 120 116
3 116 120 126
3 87 143 90
3 90 143 34
3 34 143 144
3 143 145 144
3 143 87 145
3 144 145 137
3 34 144 33
3 144 137 33
3 137 145 85
3 85 145 87
3 146 131 129
3 70 147 66
3 146 148 131
3 131 148 75
3 148 70 75
3 130 149 129
3 149 146 129
3 147 150 66
3 66 150 130
3 130 150 149
3 150 151 149
3 149 151 146
3 93 152 90
3 90 152 89
3 89 153 141
3 141 153 139
3 139 153 154
3 153 152 154
3 153 89 152
3 154 152 93
3 139 154 94
3 154 93 94
3 148 155 70
3 70 155 147
3 147 156 150
3 150 156 151
3 151 157 146
3 146 157 148
3 148 157 155
3 157 156 155
3 157 151 156
3 155 156 147

CELL_TYPES 312
5
5
5
5
5
5
5
5
5
5
5
5
5
5
5
5
5
5
5
5
5
5
5
5
5
5
5
5
5
5
5
5
5
5
5
5
5
5
5
5
5
5
5
5
5
5
5
5
5
5
5
5
5
5
5
5
5
5
5
5
5
5
5
5
5
5
5
5
5
5
5
5
5
5
5
5
5
5
5
5
5
5
5
5
5
5
5
5
5
5
5
5
5
5
5
5
5
5
5
5
5
5
5
5
5
5
5
5
5
5
5
5
5
5
5
5
5
5
5
5
5
5
5
5
5
5
5
5
5
5
5
5
5
5
5
5
5
5
5
5
5
5
5
5
5
5
5
5
5
5
5
5
5
5
5
5
5
5
5
5
5
5
5
5
5
5
5
5
5
5
5
5
5
5
5
5
5
5
5
5
5
5
5
5
5
5
5
5
5
5
5
5
5
5
5
5
5
5
5
5
5
5
5
5
5
5
5
5
5
5
5
5
5
5
5
5
5
5
5
5
5
5
5
5
5
5
5
5
5
5
5
5
5
5
5
5
5
5
5
5
5
5
5
5
5
5
5
5
5
5
5
5
5
5
5
5
5
5
5
5
5
5
5
5
5
5
5
5
5
5
5
5
5
5
5
5
5
5
5
5
5
5
5
5
5
5
5
5
5
5
5
5
5
5
5
5
5
5
5
5
5
5
5
5
5
5
5
5
5
5
5
5

CELL_DATA 312
SCALARS cell_data_0 double
LOOKUP_TABLE default
1.2584603696e-07
4.8139652676e-08
2.79475392589e-07
2.24990743327e-07
3.75100638909e-07
9.2322089575e-07
3.38627589098e-07
6.08519299115e-07
2.13322101616e-07
2.38999676189e-07
8.31946605789e-08
1.42960753252e-07
1.36242039252e-08
2.26228134788e-09
4.34083183732e-08
1.84152716005e-08
1.34633261891e-08
3.08459969897e-08
7.22926047767e-08
9.46990923882e-08
7.0148869768e-08
2.58716251466e-08
3.21396756534e-08
1.43299767018e-07
6.4161942044e-06
1.80946650869e-05
2.85753233752e-07
5.24606188972e-07
1.91703095935e-07
3.02474092613e-07
5.60545518931e-08
8.236545854e-08
1.53197863536e-07
1.10965635672e-07
4.76326476474e-07
8.18592117981e-07
3.57789667408e-07
5.17886434989e-07
8.5335457472e-07
4.88297261274e-07
7.65709884313e-07
1.32923637769e-08
2.9825038372e-07
1.00614509052e-07
7.15353596387e-10
1.08801021877e-07
3.74122417005e-07
1.60953569089e-06
1.25163030312e-06
1.04483217983e-05
1.4106792033e-07
2.18962526515e-06
2.51294485015e-07
5.2994966879e-07
3.4849438632e-07
8.1852150817e-07
1.12450065427e-06
3.21730290325e-07
9.09487048683e-07
1.25932208939e-06
8.34277120223e-08
9.31728717352e-08
4.13522591041e-09
1.59157303864e-07
2.39750824581e-07
4.24464110856e-07
2.89667979722e-08
5.15643736599e-08
3.9594303258e-08
6.16875762467e-08
2.25230316308e-07
5.79882128298e-08
3.66455261827e-09
1.89134613604e-07
2.86396377e-06
1.55616186783e-06
5.4880857999e-07
4.86873632586e-08
1.00867763155e-05
2.63495703598e-05
4.58222561978e-06
1.17043801864e-05
2.80323030116e-06
2.98324002286e-06
4.1651174327e-06
6.64927717255e-07
9.47872403084e-07
3.30815454587e-06
4.02769650958e-06
5.24648599502e-06
1.34742940187e-06
1.30181866844e-07
1.7328050461e-07
2.92812327936e-07
4.89599649822e-07
3.66893100744e-08
4.73218059188e-07
7.08479854707e-07
8.24015994987e-07
1.34495462265e-05
2.50219915437e-06
2.51999075826e-06
2.91148486744e-06
1.05033075283e-05
7.69447999405e-06
1.15523138228e-05
3.65086180381e-06
5.67896000352e-07
1.1186775102e-06
9.75775453126e-06
1.85937920592e-06
6.71696332038e-07
1.93805201566e-06
3.53932505867e-07
1.20636957682e-07
1.04389072543e-06
3.92665383038e-06
5.51844207114e-06
4.14861284627e-06
1.78940941844e-05
1.25664580328e-05
3.09446761391e-07
7.82049842762e-07
2.35605850783e-06
1.32627664261e-05
8.74633664002e-07
2.60008670247e-06
8.40972318566e-05
2.8841330658e-07
3.88354504481e-07
9.23839252628e-07
7.99496079709e-07
6.49256368739e-08
2.46042968105e-07
2.30776211678e-07
1.70714570795e-07
5.25974710902e-07
5.76784860384e-07
9.60922186237e-08
1.07829444326e-07
1.43061606314e-07
7.39316103312e-08
5.86982046764e-06
2.87913302338e-06
3.80247954279e-07
8.28401999629e-08
2.43601985262e-07
3.68181967043e-07
4.07045748713e-07
9.11869061226e-07
9.49652498836e-06
4.97794776161e-06
1.20128440892e-06
2.66951929572e-07
6.68050193501e-07
1.08411024432e-07
7.8839353719e-09
1.80344635476e-08
3.59336920296e-07
1.91465175372e-07
4.75248319111e-06
3.63378398905e-06
2.76016178146e-06
2.6263113405e-07
1.453467415e-07
1.09588977635e-05
4.90343191268e-06
1.13096746209e-05
4.46129124024e-06
4.40535892817e-06
7.89249194076e-08
7.1254483827e-06
1.5258399663e-06
2.58048540778e-08
9.72169394603e-08
5.08500578404e-08
7.75544539287e-08
2.67562136825e-07
6.41832381126e-07
1.38729776619e-08
2.92515012487e-09
1.50991986482e-07
4.38442103246e-09
6.55405458087e-08
5.43000489338e-08
6.21061342187e-07
2.09503498405e-08
1.22141596094e-07
7.59807441611e-10
8.52344520528e-07
1.80301161029e-06
4.87246182752e-07
2.92567201045e-07
3.25943774366e-07
6.53353173367e-07
8.61391260416e-07
4.431141438e-06
2.21644282915e-07
2.32877460515e-08
2.34542004991e-07
7.65636007643e-07
1.50438875857e-07
1.00364730741e-07
2.23585636205e-07
2.3156589296e-07
6.99530455725e-07
4.18451298153e-08
6.31044565085e-08
1.40214771743e-07
2.28635885535e-07
2.08257011677e-08
1.70827044802e-07
1.9914506026e-07
8.57060836584e-08
1.84507770044e-08
1.15140595058e-07
2.63270463374e-07
5.5890121046e-07
7.00967647074e-08
3.52364300039e-05
1.67677570246e-06
6.35204783637e-07
7.47398508813e-07
9.33863400781e-07
5.91513689736e-06
1.94625422158e-07
1.96452840689e-06
2.93994755416e-06
9.10306962534e-07
1.20376033338e-06
3.57192332753e-07
8.29673629437e-07
1.82030494479e-06
6.48163709093e-07
5.41310109078e-06
6.50808475616e-07
1.18983312175e-07
2.25343960199e-06
2.93408954537e-06
2.30542228542e-05
2.73996718708e-07
2.81036158859e-07
2.76942923786e-06
1.86554439822e-06
4.14601922041e-07
1.32033128209e-06
7.03143151191e-07
9.00201260136e-07
4.16393106186e-07
5.20642804945e-07
1.99133386529e-07
2.27809027577e-07
3.07513692508e-08
1.72719416118e-05
9.93475356204e-05
0.00013443834645
9.85751666084e-06
1.6584628306e-06
4.14190621389e-05
4.42784730381e-06
3.38288554218e-06
1.2714424082e-06
7.25211693968e-07
6.85375146826e-06
8.98726856332e-06
4.34246819819e-06
1.40003568107e-05
1.46066183988e-06
9.54449038599e-06
4.08380479228e-06
7.06025042727e-05
2.80867760151e-06
5.02607689698e-06
8.78403300533e-06
2.37289407218e-06
8.34466215847e-06
3.06565968358e-05
2.33037858706e-05
3.14395665314e-06
4.2608396694e-05
2.35350385023e-05
5.99386962482e-06
4.74679604396e-06
6.57548927484e-07
1.72364834776e-06
6.06103387455e-06
6.59255797773e-06
2.59719868597e-05
5.93331622551e-07
3.19815819223e-06
4.82266286817e-05
3.11761819872e-05
2.01746269392e-06
1.81634810418e-05
7.04258888128e-05
1.38355423547e-05
2.18733649587e-06
2.04063686868e-05
7.26401297887e-07
5.46372980783e-06
2.45382654823e-06
1.61802174358e-06
1.56358657952e-06
1.78770915012e-05
0.000154218463693
7.18897527102e-05
5.75825023996e-05
8.24890648764e-06
7.4447056735e-06
1.16537991553e-05
0.000126572651889
6.23477075835e-05

