# vtk DataFile Version 3.0
File Name: Molecule/arg/arg_4.5-16_06.vtk
ASCII
DATASET UNSTRUCTURED_GRID
FIELD FieldData 1
TIME 1 1 double
0.0
POINTS 758 double
-3.403 0.327 1.604
-3.45 0.103 1.078
-2.981 -0.361 1.858
-3.028 -0.584 1.332
-3.298 -0.003 0.536
-2.876 -0.691 0.79
-2.971 0.024 0.066
-2.549 -0.664 0.32
-2.984 0.046 0.042
-2.617 -0.045 -0.207
-2.63 -0.024 -0.229
-2.351 -0.22 -0.527
-2.365 -0.198 -0.55
-2.2 -0.483 -0.862
-2.216 -0.458 -0.889
-3.25 0.578 -0.258
-2.686 0.062 -0.328
-2.904 0.498 -0.574
-2.48 -0.047 -0.742
-2.684 0.361 -0.973
-2.39 -0.269 -1.153
-2.617 0.185 -1.409
-3.173 1.207 -0.458
-2.84 1.014 -0.738
-2.625 0.846 -1.127
-2.55 0.723 -1.58
-2.776 1.74 -0.497
-2.515 1.451 -0.77
-2.319 1.256 -1.157
-2.211 1.177 -1.613
-2.622 1.932 -0.429
-2.434 1.563 -0.734
-2.291 1.743 -0.67
-2.16 1.459 -1.077
-2.01 1.647 -1.011
-1.982 1.439 -1.492
-1.81 1.654 -1.416
-2.655 2.421 0.048
-2.046 2.135 -0.548
-2.075 2.574 -0.12
-1.615 2.438 -0.879
-1.647 2.927 -0.402
-2.495 2.657 0.67
-1.932 2.785 0.438
-1.488 3.163 0.22
-2.925 2.572 1.071
-2.137 2.872 1.156
-2.512 2.798 1.506
-1.863 3.333 1.507
-2.279 3.251 1.894
-3.186 2.284 1.521
-2.739 2.546 1.897
-2.53 2.972 2.328
-3.419 1.801 1.788
-2.888 2.359 1.917
-3.122 1.876 2.185
-2.717 2.558 2.345
-2.979 2.017 2.644
-3.567 1.179 1.827
-3.133 1.725 2.369
-3.262 1.186 2.403
-3.107 1.793 3.017
-3.25 1.192 3.055
-3.408 0.559 1.798
-3.123 0.649 2.378
-3.095 0.593 3.027
-3.105 0.348 2.085
-3.1 0.088 1.867
-2.97 0.105 2.152
-3.02 0.504 2.546
-2.901 0.29 2.606
-2.978 0.383 3.085
-2.865 -0.346 2.113
-2.52 -0.7 2.425
-2.794 0.071 2.575
-2.491 -0.24 2.849
-2.645 0.041 3.387
-2.46 -1.117 2.184
-2.148 -0.9 2.844
-2.09 -1.3 2.613
-2.003 -1.142 3.367
-1.937 -1.6 3.103
-2.268 -1.45 1.888
-1.906 -1.62 2.328
-1.726 -1.965 2.777
-1.967 -1.659 1.57
-1.617 -1.821 2.023
-1.396 -2.195 2.428
-1.592 -1.721 1.268
-1.257 -1.88 1.733
-0.984 -2.263 2.097
-2.026 -1.588 0.931
-1.237 -1.838 0.739
-1.646 -1.713 0.421
-0.96 -2.23 0.303
-1.437 -2.084 -0.068
-2.342 -1.257 0.596
-1.944 -1.402 0.106
-1.784 -1.721 -0.435
-2.487 -0.785 0.321
-2.08 -0.956 -0.154
-1.943 -1.202 -0.738
-2.189 -0.632 -0.224
-2.248 -0.516 -0.225
-2.131 -0.618 -0.861
-2.114 -0.682 -1.181
-1.927 -1.264 -1.052
-2.312 -0.441 -1.376
-2.121 -0.506 -1.916
-2.042 -0.816 -1.214
-1.838 -0.886 -1.79
-1.682 -1.348 -1.746
-1.975 -0.256 -2.322
-1.864 -0.768 -1.888
-1.672 -0.441 -2.421
-1.897 0.192 -2.527
-1.57 0.147 -2.691
-1.996 0.646 -2.441
-1.495 0.306 -2.776
-1.602 0.798 -2.682
-1.198 0.386 -3.152
-1.328 0.981 -3.039
-2.011 1.039 -2.18
-1.619 1.224 -2.399
-1.348 1.496 -2.696
-1.72 1.257 -2.235
-1.479 1.817 -1.75
-1.107 2.057 -2.211
-1.346 2.153 -1.415
-1.642 2.007 -1.116
-1.319 2.584 -1.178
-0.816 3.013 -1.267
-1.111 2.259 -1.642
-0.623 2.675 -1.729
-0.543 2.537 -2.312
0.466 3.148 -0.891
-0.416 2.926 -1.599
0.331 3.005 -1.38
-0.131 2.956 -2.042
0.328 3.005 -1.907
-0.002 3.1 -2.533
0.456 3.148 -2.398
-0.048 3.337 -3.001
0.699 3.415 -2.782
0.833 2.913 -0.61
0.619 2.806 -1.364
0.976 2.577 -1.092
0.892 2.689 -1.891
1.303 2.425 -1.576
1.057 2.557 -0.305
1.192 2.232 -0.796
1.553 2.026 -1.234
0.979 2.767 0.195
1.24 2.204 -0.113
1.167 2.404 0.362
1.539 1.918 0.039
1.462 2.128 0.539
0.737 2.845 0.68
0.936 2.478 0.823
1.22 2.206 1.024
0.406 3.093 0.833
0.71 2.572 1.142
0.419 2.789 1.277
0.841 2.425 1.643
0.539 2.651 1.783
1.112 2.426 2.108
0.748 2.699 2.276
0.011 3.456 0.651
0.142 3.058 1.218
-0.201 3.373 1.06
-0.01 3.117 1.656
-0.348 3.428 1.5
-0.034 3.266 2.099
-0.415 3.616 1.924
-0.504 3.599 0.465
-0.648 3.497 0.898
-0.789 3.55 1.341
-0.913 3.754 1.744
-1.038 3.495 0.311
-1.112 3.406 0.765
-1.247 3.461 1.209
-1.429 3.653 1.595
-1.502 3.118 0.685
-1.632 3.177 1.131
-0.05 3.403 2.531
0.304 2.919 2.221
0.288 3.057 2.654
0.729 2.855 2.766
-0.175 3.437 2.964
0.162 3.091 3.09
0.587 2.894 3.259
-0.395 3.364 3.353
-0.059 3.019 3.48
0.337 2.812 3.701
-0.687 3.194 3.654
-0.352 2.847 3.783
0.006 2.617 4.044
-1.13 3.18 3.766
-0.58 2.815 3.881
-1.094 2.799 4.011
-1.584 3.151 3.721
-1.62 2.766 3.959
-1.995 3.111 3.523
-2.096 2.719 3.73
-2.312 3.063 3.198
-2.464 2.664 3.352
-2.498 3.015 2.783
-2.679 2.608 2.871
-0.832 2.373 4.277
-0.242 2.183 4.431
-1.061 1.806 4.483
-0.466 1.628 4.634
-1.364 2.231 4.354
-1.452 1.611 4.604
-1.713 1.977 4.492
-1.735 2.528 4.103
-2.033 2.233 4.276
-2.128 2.66 3.763
-2.373 2.347 3.982
-2.496 2.611 3.374
-2.69 2.305 3.646
-2.791 2.388 2.985
-2.945 2.113 3.311
-1.464 1.095 4.666
-0.956 1.592 4.533
-0.968 1.074 4.596
-0.48 1.041 4.705
-1.655 0.731 4.634
-0.882 0.784 4.614
-1.066 0.434 4.582
-0.333 0.517 4.869
-0.555 0.096 4.831
-2.14 0.383 4.441
-1.383 0.368 4.531
-1.833 0.044 4.353
-1.114 -0.009 4.584
-1.587 -0.349 4.396
-0.878 -0.357 4.785
-1.429 -0.753 4.566
-2.498 0.133 3.99
-2.165 -0.188 3.934
-1.936 -0.593 3.956
-1.836 -1.037 4.053
-2.301 -0.273 3.375
-2.078 -0.682 3.368
-0.557 -0.612 4.999
-0.228 -0.165 5.05
-0.202 -0.89 5.102
0.134 -0.447 5.155
0.164 -1.171 5.088
0.507 -0.734 5.141
0.37 -1.612 4.973
0.615 -0.976 5.092
0.811 -1.395 4.983
1.043 -0.806 5.264
1.249 -1.247 5.15
0.578 -1.993 4.725
1.008 -1.757 4.747
1.457 -1.629 4.901
0.77 -2.282 4.364
1.191 -2.031 4.405
1.649 -1.918 4.541
0.93 -2.454 3.923
1.343 -2.194 3.985
1.809 -2.089 4.099
1.044 -2.494 3.437
1.451 -2.232 3.524
1.923 -2.129 3.613
1.103 -2.399 2.949
1.506 -2.141 3.061
1.981 -2.034 3.126
1.1 -2.176 2.501
1.504 -1.93 2.635
1.979 -1.811 2.678
1.037 -1.846 2.131
1.444 -1.616 2.284
1.916 -1.481 2.307
0.647 -2.269 2.118
0.836 -1.714 1.711
0.512 -2.064 1.7
0.77 -1.662 1.233
0.47 -1.987 1.224
0.848 -1.697 0.757
0.525 -2.047 0.746
1.061 -1.813 0.337
0.67 -2.236 0.324
0.119 -2.499 2.107
0.075 -2.255 1.691
0.064 -2.164 1.215
0.088 -2.237 0.737
0.142 -2.466 0.313
-0.457 -2.497 2.099
-0.401 -2.253 1.685
-0.378 -2.162 1.209
-0.389 -2.235 0.73
-0.434 -2.464 0.306
-0.837 -2.059 1.682
-0.782 -1.983 1.207
-0.825 -2.042 0.728
1.48 -1.078 0.031
1.032 -1.487 0.709
1.333 -0.958 0.489
1.12 -1.273 1.146
1.358 -0.854 0.972
1.315 -1.197 1.595
1.553 -0.779 1.421
1.592 -1.27 1.999
1.893 -0.741 1.779
2.335 -0.746 2.002
1.639 -0.712 -0.547
1.476 -0.549 0.311
1.615 -0.229 -0.195
1.697 -0.118 0.66
1.842 0.216 0.134
1.696 -1.15 -0.796
1.805 -0.426 -1.067
1.856 -0.818 -1.29
2.201 -0.141 -1.444
2.256 -0.562 -1.683
1.615 -1.54 -1.111
1.784 -1.167 -1.572
2.179 -0.936 -1.985
1.405 -1.841 -1.462
1.595 -1.437 -1.886
1.977 -1.225 -2.321
1.085 -2.024 -1.812
1.309 -1.6 -2.199
1.67 -1.4 -2.657
0.689 -2.07 -2.126
0.955 -1.641 -2.48
1.29 -1.444 -2.958
0.256 -1.974 -2.373
0.567 -1.556 -2.702
0.875 -1.352 -3.195
-0.171 -1.746 -2.529
0.186 -1.352 -2.841
0.466 -1.134 -3.344
-0.548 -1.409 -2.576
-0.152 -1.05 -2.884
0.104 -0.811 -3.39
-0.822 -1.287 -2.506
-0.408 -0.948 -2.806
-0.669 -0.831 -2.739
-0.336 -0.591 -3.197
-0.616 -0.466 -3.125
-1.31 -1.347 -2.194
-0.988 -0.705 -2.664
-1.485 -0.767 -2.346
-1.322 -0.31 -2.728
-0.95 -0.071 -3.189
-0.311 -0.212 -3.619
0.128 -0.454 -3.788
-0.16 0.24 -3.931
0.27 -0.03 -4.081
0.101 0.716 -4.098
0.516 0.418 -4.238
-0.411 1.252 -3.909
0.377 1.347 -4.4
0.11 1.626 -4.301
-0.398 1.946 -3.588
0.117 1.987 -4.134
-0.712 2.237 -2.975
-0.106 2.463 -3.53
-0.314 2.656 -3.124
0.028 3.029 -3.665
-0.135 3.18 -3.347
-0.202 2.855 -2.684
0.9 3.106 -3.671
0.173 2.486 -3.833
0.85 2.546 -3.838
0.989 2.064 -4.14
0.819 3.383 -2.845
1.267 2.733 -3.406
1.204 2.948 -2.765
1.749 2.404 -3.353
1.668 2.681 -2.526
0.902 2.914 -2.485
0.749 2.956 -2.405
1.123 2.627 -2.01
1.688 2.19 -1.733
1.962 2.454 -2.382
2.133 1.624 -1.992
2.194 2.159 -2.516
2.141 1.301 -1.585
2.428 1.273 -2.257
2.435 0.969 -1.874
2.042 0.907 -1.262
2.342 0.599 -1.57
1.911 1.516 -1.257
1.855 0.911 -0.632
1.743 1.428 -0.628
1.976 0.918 0.014
1.858 1.462 0.018
1.44 1.861 -0.608
1.861 0.778 -0.544
1.751 0.201 -0.446
1.991 0.665 -1.105
1.878 0.074 -1.004
2.497 1.237 -3.182
2.241 1.687 -2.422
2.29 1.662 -3.078
2.232 2.14 -3.028
1.83 1.363 -3.817
1.817 1.751 -3.528
1.863 2.209 -3.379
1.382 0.739 -4.338
1.413 1.57 -3.947
1.095 1.128 -4.316
1.103 1.869 -4.167
0.855 1.524 -4.455
0.482 0.901 -4.245
1.404 2.01 -3.684
1.315 2.161 -3.664
2.007 0.383 0.735
1.766 -0.192 1.22
2.031 0.236 1.284
1.991 -0.414 1.693
2.267 0.032 1.759
2.675 -0.196 2.083
2.074 0.941 0.928
2.088 0.713 1.449
2.326 0.528 1.931
2.749 0.417 2.295
1.884 1.434 1.198
1.926 1.135 1.68
2.158 0.967 2.172
2.541 0.959 2.592
1.624 1.884 1.117
1.755 1.469 1.75
1.503 1.904 1.671
1.842 1.579 2.299
1.557 2.073 2.21
1.11 2.216 1.58
1.886 1.845 2.759
2.132 1.224 2.493
2.174 1.477 2.929
2.585 1.225 3.051
1.814 2.002 3.263
2.105 1.625 3.407
2.513 1.382 3.555
1.633 2.033 3.763
1.933 1.655 3.881
2.331 1.413 4.055
1.359 1.937 4.21
1.674 1.563 4.305
2.058 1.316 4.502
1.021 1.721 4.561
1.354 1.359 4.638
1.72 1.101 4.853
0.651 1.408 4.781
1.002 1.062 4.847
1.35 0.788 5.074
0.073 1.245 4.841
0.82 0.891 4.947
0.23 0.725 5.008
0.672 0.387 5.179
1.205 0.294 5.301
0.564 -0.173 5.245
1.099 -0.256 5.367
-2.386 -0.309 -0.179
-1.834 2.861 0.759
0.558 2.832 -1.902
1.396 -0.602 0.696
1.678 -0.195 -0.741
-3.196 1.674 -0.347
-3.592 1.181 -0.113
-3.592 1.659 0.015
-3.196 2.092 -0.068
-3.592 2.009 0.365
-3.196 2.371 0.35
-3.592 2.137 0.843
-3.196 2.469 0.843
-3.592 2.009 1.321
-3.85 1.69 0.843
-3.85 1.435 1.283
-3.592 0.353 0.365
-3.85 0.672 0.843
-3.85 0.927 0.403
-3.592 0.703 0.015
-3.85 1.435 0.403
-3.94 1.181 0.843
-3.85 0.927 1.283
-2.722 -1.065 0.889
-2.722 -1.193 1.367
-2.722 -1.065 1.845
-2.326 -1.525 1.367
-2.215 0.056 -2.317
-2.52 0.083 -1.912
-2.52 0.561 -1.912
-2.215 0.588 -2.317
0.763 3.18 -0.086
0.367 3.414 -0.579
0.367 3.512 -0.086
0.367 3.414 0.407
-0.118 3.6 -0.587
-0.118 3.688 -0.086
-0.634 3.6 -0.587
-0.634 3.688 -0.086
-1.119 3.512 -0.086
-1.119 3.414 -0.579
-1.119 3.135 -0.997
-0.505 3.722 2.986
-0.505 3.826 2.497
-0.957 3.899 2.99
-0.957 3.634 3.417
-0.957 3.899 2.004
-0.957 3.991 2.497
-1.439 3.899 2.99
-1.439 3.634 3.417
-1.439 3.899 2.004
-1.439 3.991 2.497
-1.891 3.826 2.497
-1.891 3.722 2.986
-1.891 3.429 3.39
-1.891 3.722 2.008
-2.261 3.517 2.497
-2.261 3.375 2.979
-1.138 2.539 4.21
[...]
CELL_DATA 1512
SCALARS cell_data_0 double
LOOKUP_TABLE default
3.94003183691e-06
1.21952670036e-05
2.07373961786e-05
1.59363090081e-05
5.45681473127e-06
7.92757702714e-07
4.56782662285e-08
4.39878944482e-08
7.39056479062e-08
1.39643398973e-07
6.48680828869e-09
1.18611759535e-07
6.77330152861e-06
7.02160913585e-06
4.72489867704e-06
2.59195681538e-06
6.83062845585e-07
1.86578406609e-06
7.58065277519e-06
9.08551198107e-06
7.63759999787e-06
1.79700798505e-05
1.30615510153e-05
2.43842406959e-05
8.37763956606e-06
3.50251420782e-06
1.59358724119e-05
9.96923747798e-06
2.1260478201e-05
7.58143033318e-06
8.81183139424e-07
2.24870204159e-06
4.0128169868e-06
2.96503227814e-06
1.13880173594e-06
6.138336995e-07
9.75387813098e-06
6.76661295007e-06
3.45180400644e-06
2.8079364196e-06
6.18319759719e-06
1.59322532162e-06
1.96486264084e-06
1.593802902e-06
2.7836928533e-06
1.87709353018e-06
1.55995598358e-06
1.90705901217e-06
2.92306620957e-06
2.53623712041e-06
2.09762235353e-06
4.64196199317e-06
1.65480744805e-06
1.12084633895e-06
3.1290229549e-06
5.5609124896e-06
1.73238467244e-06
1.57690444415e-06
1.61879855568e-06
3.36984972614e-06
3.29536168389e-06
3.228613876e-06
3.27610218136e-06
5.05268998438e-06
5.87703211674e-07
5.32425674189e-08
5.20614190951e-07
4.52416332651e-07
3.47751425608e-07
7.11120121725e-07
1.47386578333e-06
4.95031241176e-07
1.21307573983e-06
5.37032947415e-07
2.4177061806e-08
4.14224408195e-07
1.3346877805e-06
2.08492487003e-06
3.51474712047e-06
3.19268394397e-06
1.07375916011e-06
1.63250352016e-06
2.08001279827e-06
1.98092881687e-06
9.0577562964e-07
1.20658203765e-06
1.55037875327e-06
1.37492360148e-06
5.17940013527e-07
1.11853189242e-06
1.26996440659e-06
7.16798034004e-07
9.56375691029e-07
1.6105790201e-06
1.11366345589e-06
2.06934801753e-07
8.40835949249e-07
7.42198644628e-07
8.2593262606e-07
8.6110333583e-07
4.1129615326e-07
1.10198995653e-06
1.28644905549e-06
8.6484972621e-07
2.80132823846e-07
5.24777358394e-07
5.39548884239e-07
6.14279158652e-07
6.08584062555e-08
2.03482702564e-07
6.07875907056e-07
5.19104946003e-07
1.28704555051e-06
1.62916840837e-06
1.33962161892e-06
1.46518480943e-06
1.11380026889e-06
1.24448221335e-06
1.20614366243e-06
1.67521770322e-06
1.63895634643e-06
1.36116059667e-06
1.5394075242e-06
2.77357182622e-06
2.01329161015e-06
2.57635311985e-06
2.47943203028e-06
3.74669437563e-06
2.48767249369e-06
3.59878888562e-06
6.69953384743e-06
8.09495053977e-06
3.41367354873e-06
2.76185347119e-06
2.26552330676e-06
2.23707159002e-06
4.62742437728e-06
5.80123337679e-06
6.78178234602e-06
8.35583038839e-06
6.90250562579e-06
3.08458906824e-06
4.52782426438e-06
8.55417935396e-07
2.38414194803e-06
1.64498941597e-06
5.08105338587e-06
1.07784272401e-05
1.1281532709e-06
1.55507642043e-06
2.55286176739e-06
5.89425784125e-06
3.26873254385e-06
3.92512992786e-06
4.00446919824e-06
5.10264848566e-06
2.45867744915e-06
2.13112687595e-06
2.11481895808e-06
2.20198395295e-06
1.86928972756e-06
1.79654083019e-06
2.04669970675e-06
1.88450245786e-06
1.22617223237e-06
1.1775817651e-06
1.46951984213e-06
1.09706393737e-06
1.23117601921e-06
1.49230140787e-06
7.5798509497e-07
5.38627442905e-07
3.08074196695e-07
3.32158675747e-07
3.51002624191e-07
2.13534775477e-07
6.10900035988e-07
4.79132832019e-07
4.33611507205e-07
4.03143405247e-07
3.3401184381e-07
1.28796678806e-07
5.39014142287e-07
4.1151148607e-07
3.90857385625e-07
2.09453358469e-07
1.6342829489e-07
9.42532115306e-08
2.96865508799e-07
2.82420430026e-07
2.7195780313e-07
1.44945751741e-07
6.90131078037e-08
3.31992866932e-07
6.05546090787e-07
1.05658021797e-06
2.27298086753e-09
1.58621675954e-06
5.75984608896e-07
3.05950032209e-08
2.20090045844e-06
6.53775857442e-08
1.46967249492e-07
2.21390794386e-07
4.68048729831e-09
4.15982397522e-08
1.52840038159e-07
1.41073081763e-07
2.86872007884e-08
1.42365652304e-07
5.79001944878e-07
3.65431594731e-07
2.79268509236e-08
5.74202470304e-08
4.109575594e-07
1.34672030092e-06
2.2846477428e-06
6.37492816975e-06
6.67274334803e-06
1.25126488256e-05
7.92691740753e-06
9.40276372076e-06
1.11745122937e-05
1.77998189057e-05
2.18165275979e-05
8.5484931275e-06
1.1798035102e-05
1.64439193985e-05
2.25986711642e-05
1.67141266462e-05
1.37102421809e-05
1.06752985597e-05
6.99995215447e-06
4.04931106402e-06
3.37589275825e-06
1.32395392591e-06
2.48900774058e-06
2.13421211692e-06
1.78870629806e-06
1.02720618929e-06
1.21341943129e-06
2.97016526528e-06
5.41508432628e-06
4.40058554807e-06
2.00042044282e-08
8.27713864892e-06
8.8531625356e-06
3.45968612592e-06
1.33642329123e-06
5.44433594627e-06
1.46191350551e-05
2.46731151511e-05
7.96553919863e-06
7.00730211533e-06
7.30405609067e-06
4.91381366697e-06
6.83323587239e-06
2.81146688043e-06
5.27623043426e-06
1.37747275671e-06
1.05150905338e-06
5.15596496497e-07
2.47436900838e-07
1.71128486235e-06
2.17660542767e-05
9.66976933684e-06
2.41489776532e-06
1.17136733321e-06
2.11327268509e-06
6.7145414362e-06
4.21257274841e-06
3.6580178411e-06
5.13359808264e-06
4.53970588066e-06
3.02590806562e-06
3.28228975053e-06
3.16621365201e-06
6.32408283267e-06
3.29453270091e-06
2.10488743066e-06
3.74283157833e-06
1.98945324521e-06
1.19325957504e-06
1.39337370547e-06
9.46630272484e-07
1.88857122903e-06
2.01986678181e-06
6.81687120844e-07
8.58308370511e-07
1.90429759549e-06
1.13008917402e-06
8.09488109371e-07
1.50456558428e-06
1.35689408738e-06
6.50993756274e-07
6.33845818637e-08
2.42829748596e-07
5.16227839198e-07
7.07510142535e-08
5.55790891551e-07
6.24673397543e-07
1.72626881262e-07
1.66125415837e-07
2.15898527869e-06
4.29456097504e-06
1.95743648021e-06
8.8796330903e-07
2.58063533479e-06
2.96338258009e-06
7.87904515679e-08
5.90665112002e-07
5.76307354527e-07
6.22644469754e-07
7.2616206159e-07
7.4808944376e-07
8.12725594501e-07
7.14225918529e-07
8.55948574989e-07
8.73734687133e-07
7.25648360991e-07
8.58633948711e-07
6.18373809037e-07
6.87961444985e-07
3.77142909602e-07
4.64631472094e-07
4.89505789058e-07
3.03627963799e-07
7.19685341785e-07
1.21101401694e-06
5.23269371688e-07
2.9323079049e-06
1.74924313798e-06
6.31327355879e-07
1.43765026112e-06
4.92269692319e-06
4.06233337417e-06
2.95369259582e-06
2.05320558953e-06
1.3553406063e-06
1.61361820106e-06
9.19003592784e-07
5.07126530162e-07
5.5998484065e-07
1.8893550564e-06
2.45290218596e-06
2.16668921027e-06
1.79466108016e-06
1.12216508884e-06
1.51609671386e-06
2.636428556e-06
3.75037187716e-06
2.0446105848e-06
1.82577723108e-06
4.45310780336e-07
4.58765428322e-08
1.17569027115e-06
1.26074995313e-08
2.20331758208e-06
6.320754517e-06
3.23768656214e-05
1.96134649563e-05
3.0249138472e-05
3.31318776129e-05
9.15920908684e-05
3.556195945e-05
1.89455919732e-05
6.38440806885e-05
7.51501257459e-05
4.89751226409e-05
4.36896716336e-05
1.97817891201e-05
2.83372209127e-05
0.000110200959648
5.71328595074e-05
1.22627413319e-05
9.6740155588e-06
5.0194481874e-05
3.16140494019e-05
3.89796795385e-05
4.33693423203e-05
1.5523718513e-05
1.49440682542e-05
1.49788267204e-05
2.3493134458e-07
3.00528192937e-06
4.23959681526e-05
3.95433962993e-05
2.33905338334e-05
1.90457626663e-05
2.56904778889e-05
2.01793413364e-05
1.20516270143e-06
8.91857475894e-06
1.49552058217e-05
1.70630410857e-05
2.8703050331e-05
1.87331752805e-05
1.38945430571e-05
8.52054217909e-06
5.98266480454e-06
1.25554977128e-05
1.26054683648e-05
7.05100062352e-06
1.55915818531e-07
6.35247133332e-06
5.46978967759e-06
3.81113052298e-07
5.58591995521e-07
2.96535067422e-08
3.39157533326e-06
2.68099612737e-05
1.57940284957e-05
1.6180694894e-05
2.46314420468e-05
2.33054418252e-05
1.3894378422e-05
1.43394280947e-05
2.6426984664e-05
2.33899670904e-06
3.12715248422e-06
3.20764139537e-06
4.98998849827e-06
2.00005621528e-05
9.96317060599e-06
1.26891554561e-05
7.99518383847e-06
2.29466517462e-07
1.3316645785e-06
1.0638357672e-06
3.13971983329e-06
5.95265888575e-07
2.47901612845e-07
8.69580677281e-09
2.75750895661e-05
2.82977454134e-06
1.80958721041e-06
1.67577890199e-05
1.20630882262e-05
4.09102916709e-06
7.28128605123e-07
5.76295305813e-06
7.85069669941e-06
1.72281957913e-05
1.54753076697e-05
1.46822089325e-05
3.23520966379e-05
1.53077459706e-06
4.30976908474e-06
5.95542595323e-05
2.42479544254e-05
1.05898749201e-05
5.90253005043e-06
1.09664200712e-05
3.87842049691e-06
2.87480514251e-06
3.98091047505e-06
1.58523207351e-06
1.00865648668e-06
1.93037911964e-06
3.50832598748e-06
4.0444351453e-06
1.65472921232e-06
1.56385411136e-06
3.61979715702e-06
3.42185208804e-07
2.27256683174e-07
2.24770208841e-07
1.02897424446e-07
4.76576354775e-07
1.21095893604e-06
8.1397129665e-08
5.88383815406e-07
4.87595289135e-07
8.83864991607e-07
5.1158685934e-07
1.03704649787e-06
2.94824193003e-06
2.03352046153e-06
5.08742306033e-07
5.05133762655e-07
8.63594572502e-07
1.95862287479e-06
2.48123665062e-06
3.88172564973e-06
4.52800571317e-06
3.35887615995e-06
1.56971097833e-06
3.05642482334e-06
4.95611405282e-06
1.934012486e-07
4.33606965791e-06
4.64651852993e-06
2.48582333072e-06
2.63370119286e-06
3.86040195055e-07
1.46128780457e-06
5.82811181078e-07
1.63418506268e-06
4.10699610851e-06
2.96470126262e-06
2.85496582595e-06
4.24430358377e-06
2.42726640272e-06
1.5756166051e-06
2.05607897028e-06
1.80664563912e-06
7.43372774196e-07
6.0605808085e-07
6.96671014172e-07
3.64002259592e-07
2.05334072484e-06
1.8304601362e-06
9.95187947002e-08
1.64466167614e-06
9.88475252039e-06
3.99803710959e-06
1.73446855616e-06
2.02943539189e-06
8.31998085514e-06
2.66511857237e-06
2.09482753801e-08
3.70905541072e-08
3.48853578465e-06
7.82937082312e-06
1.40171878264e-07
7.66234664814e-07
3.59491733518e-07
9.61354918178e-07
8.26120461182e-08
1.81317623015e-07
5.04761160124e-07
5.81683355958e-07
1.64326058731e-07
2.13841366566e-06
1.78025103076e-06
1.51912932981e-06
3.25819054555e-08
2.03936884085e-06
2.37959553315e-06
1.35727658718e-06
2.8923466735e-07
1.60253794139e-06
9.85691361349e-07
6.38046081567e-07
3.492604849e-06
4.72067201993e-06
1.36958307797e-07
8.02777188247e-08
6.6776319953e-08
7.84701599354e-07
1.16609344002e-06
1.55911997638e-06
8.628016098e-07
3.77367070162e-06
1.13429868999e-06
8.06272412593e-07
1.85964552504e-06
9.83305865483e-07
4.92298759442e-07
5.48436218128e-07
2.36326574036e-07
1.42629997253e-06
2.0367018488e-07
2.86139904074e-07
1.84065194428e-06
2.52278992474e-07
5.48076337938e-07
4.01478299783e-06
3.77590080307e-06
1.89159644268e-06
7.44034380171e-07
2.35980295862e-07
4.56022745057e-07
6.34994911147e-07
6.06595441621e-07
1.0169505363e-06
6.54523729752e-07
1.09057010582e-06
9.40059786488e-07
1.68433642918e-07
1.01918764393e-07
9.79121997798e-08
1.45141403624e-07
4.31095879569e-07
4.0869287641e-07
7.78090320947e-07
7.24993995177e-07
5.41827703101e-06
2.58975727614e-06
2.06643127369e-06
2.39296312728e-06
1.2401111804e-06
1.58122720605e-06
6.08103617377e-06
2.89542824829e-06
2.55801194718e-06
4.35995379706e-06
4.05559394265e-06
4.5970246216e-06
2.71908678409e-06
1.23396020146e-06
2.71929375038e-07
1.13150762874e-06
1.49335602264e-06
1.60492539763e-06
1.50289849649e-06
1.14455425216e-06
3.04135440707e-06
8.44510213689e-07
6.78169945446e-07
6.42163872879e-07
1.28307307026e-06
1.29995702331e-06
1.09844238121e-06
1.07017313586e-06
2.15988716296e-07
7.93484735616e-07
4.18406203107e-07
6.4208201407e-07
2.57775674822e-07
3.07209357856e-07
9.77715825219e-07
1.09975954159e-06
1.46043067782e-06
7.84988388541e-07
4.10439476267e-07
1.66734529822e-05
6.64311069833e-06
1.1175613587e-07
2.78329263504e-06
5.63295819474e-06
4.00973623309e-06
2.12139299587e-07
4.98331776347e-07
9.84915498128e-07
4.28236791777e-07
5.87597501115e-07
3.44521756181e-06
1.27251122222e-06
6.4799823382e-07
1.86344794497e-06
2.11609743969e-07
3.50792489814e-08
3.14208501884e-07
1.47584213574e-06
1.1728148384e-06
3.04220448979e-07
7.413307988e-07
1.39826774443e-06
2.0887723634e-06
1.38840248614e-06
3.21445286387e-07
8.39787882117e-07
1.21827478608e-06
3.40204620091e-06
8.48488329851e-06
4.07865301876e-07
8.88938873536e-07
2.8734200936e-05
3.51601467638e-05
3.66221515626e-05
5.20133624297e-07
1.54222017731e-07
4.81945238588e-07
2.13235461178e-06
7.15814865955e-06
7.53872643138e-06
1.3569315429e-05
6.82045670288e-06
7.33129212643e-06
7.48071950424e-06
8.80566538133e-06
1.4827388904e-05
6.00630782496e-06
6.01357502024e-06
2.95040619959e-06
7.07248873964e-07
4.69343376852e-06
1.75335114668e-06
1.45528117546e-06
5.97078667751e-07
4.86073056226e-06
4.01858080865e-07
4.54657200822e-06
7.71465527661e-06
2.47761470528e-06
2.18770358799e-06
1.12883198901e-06
7.72752911629e-07
1.57968841059e-06
3.01570541107e-06
3.12433685671e-06
2.08860011251e-07
1.54795134044e-07
1.38385391464e-07
2.44577906194e-08
2.87895870636e-08
1.71575438942e-07
1.91188111822e-07
2.41939447174e-07
4.29272016964e-08
1.29305860424e-07
1.13288427042e-07
1.14724677673e-07
1.25666486105e-07
8.56457576318e-08
7.6978036264e-08
1.05753926722e-07
1.61316658728e-07
7.29133988389e-08
1.05035790623e-07
6.36787275014e-08
1.55865821004e-09
1.1437173153e-07
3.5691232485e-06
3.5082391643e-06
4.24085314055e-06
9.07225054938e-07
2.47182640336e-06
5.14281148433e-07
9.32144634305e-07
3.69350780067e-07
1.16705918072e-06
1.37191895324e-06
1.61730157925e-07
1.32368333109e-06
1.04023500095e-06
9.68741580765e-07
5.48594806849e-06
2.56524628233e-06
5.07230187043e-06
3.89442550082e-07
7.87943789736e-08
1.44312914658e-06
1.68860015613e-06
5.0993103161e-06
8.86531431692e-07
8.30157412052e-07
2.42770613525e-06
1.93932534919e-06
5.03701884497e-06
3.52266935826e-08
4.86883563751e-08
7.63042535234e-07
4.84572692496e-06
4.32857486086e-06
4.01476325404e-06
3.84229267004e-06
6.22929100025e-07
1.45225848965e-06
2.11103767062e-07
3.91300726739e-07
2.61923855833e-07
2.56725873735e-07
4.07311513737e-07
4.67311683497e-07
3.77783725246e-07
4.3106270251e-07
9.78094178418e-08
2.82392669386e-07
1.26441858552e-07
2.98803872501e-07
2.0697411215e-08
3.4666133574e-07
1.33713836575e-07
1.65091489721e-06
1.21596026449e-06
1.12217598136e-06
1.1300328522e-06
1.13432679416e-06
1.17474411115e-06
7.84858839581e-07
1.57755625726e-06
8.4386411461e-07
1.69872330395e-06
7.59119897292e-06
4.83276734509e-06
3.30795694157e-06
7.09469409287e-08
1.61030969022e-06
7.81533088393e-06
4.54594319535e-08
1.3653934366e-07
6.19731033242e-08
1.08031520965e-07
5.59124604687e-08
9.77875753447e-08
1.03403976278e-07
2.58028375923e-09
1.09231033502e-06
7.84674707348e-07
1.16039342924e-07
1.146649025e-08
2.248269261e-07
9.96059254101e-08
3.99181988154e-07
7.23761140014e-08
2.33345003492e-07
3.21023568389e-07
4.39413366521e-07
4.72078600037e-07
1.17146367505e-06
1.73967023778e-06
1.80908273874e-06
1.04985778199e-06
1.15937531081e-06
5.38393973637e-07
5.90628958665e-06
1.50299497145e-06
1.10606470688e-06
8.53110318426e-08
8.03143359867e-07
1.82411064495e-06
1.09342360074e-06
1.53944584351e-06
1.27567391795e-08
1.06521196714e-07
1.03124444533e-07
4.31597742803e-08
1.67048512125e-08
8.15427844358e-08
1.68652043604e-07
1.23125918298e-07
1.11539864445e-07
4.45250869443e-08
1.54254349008e-08
5.98861065534e-10
8.6704430717e-08
8.65787685682e-08
4.43928523645e-08
8.11799030294e-08
6.21766289986e-09
1.64439508715e-09
1.98230303289e-09
8.7833363254e-09
7.92428342629e-07
2.99012174679e-06
3.4475968307e-06
1.12175002935e-06
1.63134530646e-06
6.81353955496e-07
1.16096178742e-06
3.14060446615e-07
4.0708913583e-08
1.16236003892e-09
1.966337815e-07
5.12320655929e-07
4.47551644681e-07
9.35117505413e-08
7.23554629622e-08
7.43673983872e-08
5.04246021987e-08
1.43344993662e-07
2.2965191649e-07
7.43483813377e-08
2.98178994399e-08
7.43795663788e-08
8.7894924396e-08
1.42557933421e-07
1.06837484872e-06
2.43664327479e-07
2.42122882612e-05
9.73596736451e-06
9.80081786012e-06
1.28507281363e-06
1.77595009369e-06
9.53177463688e-07
1.34457915485e-06
1.47392226076e-06
1.9532386371e-06
4.74952351968e-06
4.36661038106e-06
5.51732729966e-06
1.38586753219e-07
2.50845470144e-06
7.36142970077e-06
4.74637266914e-08
1.2724945013e-08
5.648527068e-08
3.04324885093e-08
2.19673723879e-08
2.90497015449e-08
4.42432308795e-08
1.94848630487e-08
7.51183898755e-08
5.58851795056e-08
1.2437818298e-08
1.52248592421e-08
3.48655040511e-08
2.99600056875e-08
1.74673048082e-07
1.33715239609e-07
2.45712320694e-08
2.81778712104e-08
1.1283195218e-08
1.39816552971e-07
1.17948099253e-07
5.93894092569e-07
1.65473410097e-06
4.68461571745e-07
2.68343412479e-07
3.11804709263e-07
2.41859160139e-06
2.54498705121e-06
2.99153194951e-06
5.6629595907e-06
1.19895291584e-06
5.98261505756e-06
3.42703071837e-06
3.6639150525e-07
1.7928015772e-06
9.10094009396e-07
5.5610681516e-06
1.09207161387e-05
5.65467566125e-06
6.93420155755e-06
1.74308555745e-06
6.2319758396e-07
8.94774665706e-07
4.15106821592e-07
5.69449843152e-07
1.26380197561e-06
5.60481384235e-07
3.15996677191e-07
5.68887520678e-06
4.38176875641e-06
4.4801251821e-06
1.69749185487e-06
6.31904647373e-07
6.18856637098e-06
8.0062331757e-06
3.76732771329e-06
1.98658182774e-06
2.02416530183e-06
2.50023488681e-06
4.27400363831e-06
2.89235735073e-06
2.96287467547e-06
1.56794269432e-06
1.36716379989e-06
3.80567199516e-07
4.81337006566e-07
3.51945365723e-06
2.10040147597e-06
4.09298863297e-06
1.04355197966e-06
2.3528658508e-06
1.00092548621e-06
5.52787728663e-07
1.38994390089e-07
8.62753525174e-07
4.30122299942e-07
5.17346031047e-07
1.39896315755e-07
1.48275956979e-07
9.79922847313e-09
1.20614249763e-08
5.21465468979e-09
2.74818213528e-08
5.11151978677e-08
5.95707364855e-08
7.80849211698e-08
8.91937881977e-08
6.43636070693e-08
6.8950243449e-08
5.46658273522e-08
2.9822682613e-08
3.98231997987e-08
1.21760884035e-08
1.99029299077e-08
3.57329197177e-09
9.18001076947e-09
1.50008771966e-08
9.03834781586e-09
1.56553465413e-08
1.85091400843e-08
2.72654180887e-08
6.22039313187e-11
1.80520680286e-08
3.27617487195e-08
4.39160358669e-08
2.76326937047e-08
4.62956071398e-08
2.39316773366e-08
3.1881507748e-08
8.20753152826e-08
1.18199244504e-06
5.54489636745e-07
1.12666074833e-06
4.70815429162e-07
5.27998088039e-07
1.1579068315e-07
3.1269113275e-07
8.55804777959e-07
9.49356741002e-07
1.15854240654e-06
7.94804493444e-07
7.37234780032e-07
8.32845022578e-07
5.25832614499e-07
1.22060938439e-06
9.11256122757e-06
4.20105870755e-06
5.92439584276e-06
1.42076166695e-06
2.07509485605e-06
2.58404790144e-06
1.26802788592e-06
5.41660382865e-06
2.77683303992e-06
2.67656637245e-06
2.86108690987e-06
3.94278359222e-06
1.04402249459e-05
6.58062181659e-06
3.20030463171e-06
2.3538337245e-06
1.41246569099e-06
1.96879578346e-06
1.42758553841e-06
1.32963106657e-05
1.82024885053e-05
1.50444240107e-06
2.24061682544e-06
8.29899422948e-08
3.44524856866e-08
1.48044077082e-07
5.09318637679e-07
1.82610877272e-06
3.22166800443e-07
4.47589231259e-07
4.1426364684e-07
2.36984384177e-07
9.44190293593e-07
1.26868999784e-06
8.10314615179e-07
6.07929831611e-07
4.79458646278e-07
3.18108517179e-07
5.78374480063e-07
1.43923850254e-06
8.18900334215e-07
5.40634443333e-07
4.71423815558e-07
3.14476156098e-07
2.66738718961e-07
1.73100911333e-07
4.02052474216e-07
1.21229524338e-06
6.27998041617e-07
5.05759195355e-07
3.62659318332e-07
2.92920301558e-07
1.99618624288e-07
1.50664035086e-07
8.00245008254e-08
5.69597732665e-07
1.14280879001e-06
5.85074984467e-07
4.45139117934e-07
3.38762322125e-07
2.48516811561e-07
1.79155523058e-07
1.03541603129e-07
5.34032335145e-08
2.7172439876e-08
4.57480864085e-07
7.89759212807e-07
3.98861703721e-07
3.28542090974e-07
2.21694717995e-07
1.37707535492e-07
7.27224019854e-08
3.48072013148e-08
8.80225484188e-08
3.70798275003e-07
5.86657429867e-07
3.82506649652e-07
2.48841627879e-07
1.15233653999e-07
1.19872083992e-07
2.08043536373e-07
3.55098611001e-07
4.49444988368e-07
2.93761524427e-07
8.7571283811e-08
4.73015910831e-07
6.39304337693e-07
7.29580641244e-08
1.81427541405e-06
2.96207281855e-06
1.3163047665e-06
5.31136408867e-07
1.46542553454e-06
4.22823640642e-05
4.55919715958e-05
8.48064770711e-05
2.42683430461e-05
3.20477806696e-05
5.75074707098e-06
1.57903034257e-05
1.27336107922e-05
1.05204493133e-05
1.22008221006e-06
4.88293219543e-07
5.66472183523e-07
7.49540331643e-07
2.66465314914e-07
1.94924420481e-06
2.44401771336e-06
5.1184752614e-07
1.51065067694e-07
3.31473799182e-07
1.72110046011e-06
9.26448049177e-07