# vtk DataFile Version 3.0
File Name: Molecule/arg/arg_2-16_06.vtk
ASCII
DATASET UNSTRUCTURED_GRID
FIELD FieldData 1
TIME 1 1 double
0.0
POINTS 314 double
-3.403 0.327 1.604
-3.398 0.034 0.803
-2.981 -0.361 1.858
-2.976 -0.654 1.057
-2.971 0.024 0.066
-2.549 -0.664 0.32
-2.984 0.046 0.042
-2.2 -0.483 -0.862
-2.216 -0.458 -0.889
-3.255 0.893 -0.375
-2.57 0.022 -0.532
-2.781 0.681 -0.857
-2.39 -0.269 -1.153
-2.621 0.454 -1.509
-2.776 1.74 -0.497
-2.407 1.34 -0.951
-2.211 1.177 -1.613
-2.622 1.932 -0.429
-1.982 1.439 -1.492
-1.81 1.654 -1.416
-2.495 2.657 0.67
-1.615 2.438 -0.879
-1.488 3.163 0.22
-3.186 2.284 1.521
-1.863 3.333 1.507
-2.53 2.972 2.328
-3.419 1.801 1.788
-2.717 2.558 2.345
-2.979 2.017 2.644
-3.408 0.559 1.798
-3.107 1.793 3.017
-3.095 0.593 3.027
-3.105 0.348 2.085
-3.1 0.088 1.867
-2.97 0.105 2.152
-2.978 0.383 3.085
-2.865 -0.346 2.113
-2.52 -0.7 2.425
-2.645 0.041 3.387
-2.268 -1.45 1.888
-2.003 -1.142 3.367
-1.726 -1.965 2.777
-1.592 -1.721 1.268
-0.984 -2.263 2.097
-2.203 -1.444 0.759
-0.96 -2.23 0.303
-1.631 -1.926 -0.256
-2.487 -0.785 0.321
-1.943 -1.202 -0.738
-2.131 -0.618 -0.861
-2.114 -0.682 -1.181
-1.927 -1.264 -1.052
-2.312 -0.441 -1.376
-2.121 -0.506 -1.916
-1.682 -1.348 -1.746
-1.897 0.192 -2.527
-1.864 -0.768 -1.888
-1.57 0.147 -2.691
-2.011 1.039 -2.18
-1.198 0.386 -3.152
-1.348 1.496 -2.696
-1.72 1.257 -2.235
-1.479 1.817 -1.75
-1.107 2.057 -2.211
-1.319 2.584 -1.178
-0.816 3.013 -1.267
-0.543 2.537 -2.312
0.466 3.148 -0.891
-0.131 2.956 -2.042
0.328 3.005 -1.907
-0.048 3.337 -3.001
0.699 3.415 -2.782
1.057 2.557 -0.305
0.892 2.689 -1.891
1.553 2.026 -1.234
0.737 2.845 0.68
1.539 1.918 0.039
1.22 2.206 1.024
0.406 3.093 0.833
0.756 2.48 1.392
0.466 2.698 1.526
1.112 2.426 2.108
0.748 2.699 2.276
-0.152 3.531 0.588
-0.034 3.266 2.099
-0.572 3.688 1.862
-0.865 3.557 0.357
-1.261 3.713 1.639
-0.175 3.437 2.964
0.587 2.894 3.259
-0.687 3.194 3.654
0.006 2.617 4.044
-1.359 3.167 3.763
-0.58 2.815 3.881
-1.359 2.784 4.008
-1.995 3.111 3.523
-2.096 2.719 3.73
-2.423 3.039 2.998
-2.593 2.636 3.121
-1.061 1.806 4.483
-0.466 1.628 4.634
-1.543 2.398 4.242
-1.452 1.611 4.604
-1.868 2.121 4.396
-2.128 2.66 3.763
-2.373 2.347 3.982
-2.655 2.52 3.176
-2.827 2.227 3.476
-1.464 1.095 4.666
-0.48 1.041 4.705
-1.655 0.731 4.634
-0.333 0.517 4.869
-0.555 0.096 4.831
-2.342 0.241 4.242
-0.878 -0.357 4.785
-1.658 -0.914 4.34
-0.383 -0.749 5.065
-0.05 -0.304 5.117
0.164 -1.171 5.088
0.507 -0.734 5.141
0.496 -1.85 4.839
1.043 -0.806 5.264
1.375 -1.486 5.015
0.805 -2.327 4.281
1.684 -1.962 4.458
1.026 -2.497 3.536
1.905 -2.132 3.712
1.109 -2.324 2.763
1.988 -1.959 2.939
1.037 -1.846 2.131
1.916 -1.481 2.307
0.119 -2.499 2.107
0.77 -1.662 1.233
0.064 -2.164 1.215
1.061 -1.813 0.337
0.142 -2.466 0.313
-0.782 -1.983 1.207
1.48 -1.078 0.031
1.078 -1.33 0.996
1.331 -0.887 0.812
1.4 -1.205 1.737
1.652 -0.762 1.553
2.335 -0.746 2.002
1.639 -0.712 -0.547
1.697 -0.118 0.66
1.842 0.216 0.134
1.664 -1.393 -0.979
2.201 -0.141 -1.444
2.226 -0.795 -1.858
1.348 -1.888 -1.533
1.923 -1.27 -2.389
0.772 -2.072 -2.068
1.371 -1.446 -2.902
0.082 -1.898 -2.448
0.708 -1.279 -3.267
-0.548 -1.409 -2.576
0.104 -0.811 -3.39
-0.822 -1.287 -2.506
-0.336 -0.591 -3.197
-0.616 -0.466 -3.125
-0.988 -0.705 -2.664
-0.251 0.008 -3.791
0.185 -0.248 -3.95
0.101 0.716 -4.098
0.516 0.418 -4.238
-0.398 1.946 -3.588
0.377 1.347 -4.4
0.117 1.987 -4.134
0.028 3.029 -3.665
0.9 3.106 -3.671
0.989 2.064 -4.14
0.819 3.383 -2.845
1.749 2.404 -3.353
1.668 2.681 -2.526
1.123 2.627 -2.01
2.133 1.624 -1.992
2.194 2.159 -2.516
2.042 0.907 -1.262
2.428 1.273 -2.257
2.342 0.599 -1.57
1.976 0.918 0.014
1.896 0.717 -0.83
1.788 0.151 -0.734
1.83 1.363 -3.817
1.863 2.209 -3.379
1.103 1.869 -4.167
2.073 0.663 0.819
1.861 -0.287 1.473
2.18 0.376 1.607
2.748 0.111 2.175
1.884 1.434 1.198
2.02 1.032 1.93
2.541 0.959 2.592
1.842 1.579 2.299
1.864 1.938 3.008
2.563 1.318 3.301
1.633 2.033 3.763
2.331 1.413 4.055
1.197 1.843 4.4
1.895 1.223 4.692
0.651 1.408 4.781
1.35 0.788 5.074
0.82 0.891 4.947
0.613 0.111 5.233
1.146 0.023 5.355
-3.741 1.924 0.843
-3.197 2.264 0.147
-3.741 1.553 0.199
-3.741 0.809 0.199
-3.741 0.437 0.843
-3.94 1.181 0.843
-2.871 -0.981 1.367
-2.307 -0.067 -2.173
0.367 3.512 -0.086
-0.376 3.711 -0.086
-1.12 3.307 -0.782
-0.505 3.826 2.497
-1.198 4.012 2.497
-1.198 3.826 3.191
-1.891 3.826 2.497
-1.891 3.597 3.203
-2.399 3.319 2.497
-1.895 1.207 4.74
-2.589 1.578 4.495
-2.589 0.836 4.495
-3.096 1.554 3.954
-3.096 0.86 3.954
0.518 -2.667 4.028
-0.18 -2.439 4.587
-0.18 -2.834 3.995
0.518 -2.834 3.297
-0.18 -2.973 3.297
-0.18 -2.834 2.599
0.518 -2.667 2.566
-0.18 -1.847 4.982
-0.878 -1.524 4.94
-0.878 -2.2 4.615
-0.878 -2.667 4.028
-0.878 -2.834 3.297
-0.878 -2.667 2.566
-1.47 -1.333 4.574
-1.47 -1.994 4.272
-1.47 -2.387 3.66
-1.47 -2.387 2.934
-1.865 -1.498 3.901
1.164 -2.311 -0.471
0.572 -2.591 -0.103
0.572 -2.758 -0.834
1.164 -2.311 -1.197
0.572 -2.591 -1.565
-0.126 -2.758 -0.136
-0.126 -2.897 -0.834
-0.126 -2.758 -1.532
-0.126 -2.363 -2.124
-0.824 -2.591 -0.103
-0.824 -2.758 -0.834
-0.824 -2.591 -1.565
-0.824 -2.124 -2.152
-1.416 -2.311 -0.471
-1.416 -2.311 -1.197
-1.416 -1.918 -1.809
-0.957 1.437 -3.446
-0.957 0.685 -3.554
1.907 1.65 0.623
0.933 2.637 3.76
1.525 2.409 3.029
0.933 2.17 4.347
0.235 1.817 4.714
3.668 -0.309 3.703
3.529 0.389 3.703
3.529 0.04 4.307
3.529 -0.658 4.307
3.529 -1.007 3.703
3.529 -0.658 3.099
3.529 0.04 3.099
3.134 0.776 4.4
3.134 0.227 4.876
3.134 -0.493 4.98
3.134 -1.154 4.678
3.134 -1.547 4.066
3.134 -1.547 3.34
3.134 -1.154 2.728
3.134 -0.493 2.426
3.134 0.227 2.53
3.134 0.776 3.006
3.134 0.981 3.703
2.542 1.209 4.434
2.542 0.742 5.021
2.542 0.066 5.346
2.542 -0.684 5.346
2.542 -1.36 5.021
2.542 -1.827 4.434
2.542 -1.994 3.703
2.542 -1.827 2.972
2.542 -1.36 2.385
1.844 0.389 5.388
1.844 -0.309 5.527
1.844 -1.007 5.388
1.844 -1.599 4.993
2.923 0.206 -2.769
2.759 0.566 -2.145
2.759 -0.154 -2.145
2.759 -0.515 -2.769
2.759 -0.154 -3.393
2.759 0.566 -3.393
2.298 -1.093 -2.769
2.298 -0.845 -3.532
2.298 -0.195 -4.004
2.298 0.607 -4.004
1.632 -1.006 -3.843
1.632 -0.368 -4.283
1.632 0.401 -4.377
0.892 -1.006 -3.843
0.892 -0.368 -4.283

CELLS 624 2496
3 0 1 2
3 2 1 3
3 1 4 3
3 3 4 5
3 4 6 7
3 7 6 8
3 6 9 10
3 10 9 11
3 10 11 12
3 12 11 13
3 9 14 11
3 11 14 15
3 11 15 13
3 13 15 16
3 14 17 18
3 18 17 19
3 17 20 21
3 21 20 22
3 20 23 24
3 24 23 25
3 23 26 27
3 27 26 28
3 26 29 30
3 30 29 31
3 29 0 32
3 32 0 33
3 32 34 31
3 31 34 35
3 34 33 36
3 36 33 2
3 36 37 35
3 35 37 38
3 37 39 40
3 40 39 41
3 39 42 41
3 41 42 43
3 42 44 45
3 45 44 46
3 44 47 46
3 46 47 48
3 47 5 49
3 49 5 7
3 49 50 48
3 48 50 51
3 50 8 52
3 52 8 12
3 52 53 51
3 51 53 54
3 53 55 56
3 56 55 57
3 55 58 59
3 59 58 60
3 58 16 61
3 61 16 18
3 61 62 60
3 60 62 63
3 62 19 64
3 64 19 21
3 64 65 63
3 63 65 66
3 65 67 68
3 68 67 69
3 68 69 70
3 70 69 71
3 67 72 73
3 73 72 74
3 72 75 76
3 76 75 77
3 75 78 79
3 79 78 80
3 79 80 81
3 81 80 82
3 78 83 84
3 84 83 85
3 83 86 85
3 85 86 87
3 86 22 87
3 87 22 24
3 84 88 82
3 82 88 89
3 88 90 89
3 89 90 91
3 90 92 93
3 93 92 94
3 92 95 94
3 94 95 96
3 95 97 96
3 96 97 98
3 97 25 98
3 98 25 27
3 93 99 91
3 91 99 100
3 99 101 102
3 102 101 103
3 101 104 103
3 103 104 105
3 104 106 105
3 105 106 107
3 106 28 107
3 107 28 30
3 102 108 100
3 100 108 109
3 108 110 111
3 111 110 112
3 110 113 114
3 114 113 115
3 113 38 115
3 115 38 40
3 114 116 112
3 112 116 117
3 116 118 117
3 117 118 119
3 118 120 121
3 121 120 122
3 120 123 122
3 122 123 124
3 123 125 124
3 124 125 126
3 125 127 126
3 126 127 128
3 127 129 128
3 128 129 130
3 129 131 132
3 132 131 133
3 132 133 134
3 134 133 135
3 131 43 133
3 133 43 136
3 133 136 135
3 135 136 45
3 134 137 138
3 138 137 139
3 138 139 140
3 140 139 141
3 140 141 130
3 130 141 142
3 137 143 144
3 144 143 145
3 143 146 147
3 147 146 148
3 146 149 148
3 148 149 150
3 149 151 150
3 150 151 152
3 151 153 152
3 152 153 154
3 153 155 154
3 154 155 156
3 155 157 158
3 158 157 159
3 157 54 160
3 160 54 56
3 160 57 159
3 159 57 59
3 158 161 156
3 156 161 162
3 161 163 162
3 162 163 164
3 163 165 166
3 166 165 167
3 165 66 168
3 168 66 70
3 168 169 167
3 167 169 170
3 169 171 172
3 172 171 173
3 171 71 174
3 174 71 73
3 174 175 173
3 173 175 176
3 175 177 178
3 178 177 179
3 177 74 180
3 180 74 76
3 180 145 181
3 181 145 182
3 181 182 179
3 179 182 147
3 178 183 176
3 176 183 184
3 183 164 185
3 185 164 166
3 185 170 184
3 184 170 172
3 144 186 187
3 187 186 188
3 187 188 142
3 142 188 189
3 186 190 188
3 188 190 191
3 188 191 189
3 189 191 192
3 190 77 193
3 193 77 81
3 193 194 192
3 192 194 195
3 194 196 195
3 195 196 197
3 196 198 197
3 197 198 199
3 198 200 199
3 199 200 201
3 200 109 202
3 202 109 111
3 202 203 201
3 201 203 204
3 203 119 204
3 204 119 121
3 33 0 2
3 7 5 4
3 12 8 10
3 10 8 6
3 18 16 15
3 18 15 14
3 21 19 17
3 24 22 20
3 27 25 23
3 30 28 26
3 32 31 29
3 36 35 34
3 40 38 37
3 136 43 42
3 136 42 45
3 49 48 47
3 52 51 50
3 56 54 53
3 59 57 55
3 61 60 58
3 64 63 62
3 70 66 68
3 68 66 65
3 73 71 69
3 73 69 67
3 76 74 72
3 81 77 79
3 79 77 75
3 84 82 80
3 84 80 78
3 93 91 90
3 102 100 99
3 111 109 108
3 114 112 110
3 121 119 118
3 140 130 129
3 140 129 132
3 140 132 138
3 138 132 134
3 187 142 141
3 187 141 139
3 187 139 144
3 144 139 137
3 182 145 143
3 182 143 147
3 158 156 155
3 160 159 157
3 166 164 163
3 168 167 165
3 172 170 169
3 174 173 171
3 178 176 175
3 181 179 177
3 181 177 180
3 185 184 183
3 193 192 191
3 193 191 190
3 202 201 200
3 205 206 207
3 208 209 210
3 207 208 210
3 205 207 210
3 210 209 29
3 210 29 26
3 210 26 205
3 205 26 23
3 205 23 206
3 206 23 20
3 206 20 17
3 206 17 14
3 206 14 207
3 207 14 9
3 207 9 208
3 208 9 6
3 208 6 1
3 208 1 209
3 209 1 0
3 209 0 29
3 1 6 4
3 5 47 3
3 3 47 44
3 3 44 211
3 3 211 2
3 2 211 37
3 2 37 36
3 37 211 39
3 39 211 44
3 39 44 42
3 8 50 49
3 8 49 7
3 16 58 13
3 13 58 212
3 13 212 52
3 13 52 12
3 52 212 53
3 53 212 55
3 55 212 58
3 19 62 18
3 18 62 61
3 83 78 213
3 83 213 214
3 83 214 86
3 86 214 215
3 86 215 22
3 22 215 21
3 21 215 64
3 64 215 65
3 65 215 214
3 65 214 67
3 67 214 213
3 67 213 72
3 72 213 75
3 75 213 78
3 216 217 218
3 218 217 219
3 218 219 220
3 220 219 221
3 220 221 97
3 220 97 95
3 220 95 92
3 220 92 218
3 218 92 90
3 218 90 88
3 218 88 216
3 216 88 84
3 216 84 85
3 216 85 217
3 217 85 87
3 217 87 219
3 219 87 24
3 219 24 221
3 221 24 25
3 221 25 97
3 101 99 93
3 101 93 94
3 101 94 96
3 101 96 104
3 104 96 98
3 104 98 106
3 106 98 27
3 106 27 28
3 222 223 224
3 223 225 226
3 224 223 226
3 224 226 113
3 224 113 110
3 224 110 222
3 222 110 108
3 222 108 102
3 222 102 103
3 222 103 223
3 223 103 105
3 223 105 225
3 225 105 107
3 225 107 30
3 225 30 226
3 226 30 31
3 226 31 35
3 226 35 38
3 226 38 113
3 33 34 32
3 227 228 229
3 230 227 229
3 230 229 231
3 230 231 232
3 233 230 232
3 234 235 236
3 228 234 236
3 228 236 237
3 229 228 237
3 229 237 238
3 231 229 238
3 232 231 238
3 232 238 239
3 235 240 241
3 236 235 241
3 237 236 241
3 237 241 242
3 238 237 242
3 238 242 243
3 239 238 243
3 241 240 244
3 242 241 244
3 242 244 41
3 242 41 243
3 243 41 43
3 243 43 239
3 239 43 131
3 239 131 232
3 232 131 233
3 233 131 129
3 233 129 127
3 233 127 230
3 230 127 125
3 230 125 227
3 227 125 123
3 227 123 228
3 228 123 120
3 228 120 234
3 234 120 118
3 234 118 235
3 235 118 116
3 235 116 114
3 235 114 240
3 240 114 115
3 240 115 244
3 244 115 40
3 244 40 41
3 245 246 247
3 248 245 247
3 248 247 249
3 247 246 250
3 247 250 251
3 247 251 252
3 249 247 252
3 249 252 253
3 250 254 255
3 251 250 255
3 252 251 255
3 252 255 256
3 253 252 256
3 253 256 257
3 255 254 258
3 255 258 259
3 256 255 259
3 256 259 260
3 257 256 260
3 257 260 157
3 257 157 155
3 257 155 153
3 257 153 253
3 253 153 151
3 253 151 249
3 249 151 248
3 248 151 149
3 248 149 146
3 248 146 245
3 245 146 137
3 245 137 134
3 245 134 246
3 246 134 135
3 246 135 250
3 250 135 254
3 254 135 45
3 254 45 258
3 258 45 46
3 258 46 259
3 259 46 51
3 259 51 260
3 260 51 54
3 260 54 157
3 51 46 48
3 137 146 143
3 57 160 56
3 60 63 165
3 60 165 261
3 60 261 59
3 59 261 262
3 59 262 161
3 59 161 159
3 159 161 158
3 161 262 163
3 163 262 261
3 163 261 165
3 165 63 66
3 71 171 169
3 71 169 70
3 70 169 168
3 74 177 175
3 74 175 174
3 74 174 73
3 77 190 263
3 77 263 76
3 76 263 180
3 180 263 186
3 180 186 145
3 145 186 144
3 186 263 190
3 89 91 264
3 89 264 265
3 89 265 82
3 82 265 81
3 81 265 193
3 193 265 194
3 194 265 196
3 196 265 264
3 196 264 266
3 196 266 198
3 198 266 200
3 200 266 267
3 200 267 109
3 109 267 100
3 100 267 91
3 91 267 266
3 91 266 264
3 117 119 203
3 117 203 111
3 117 111 112
3 111 203 202
3 268 269 270
3 268 270 271
3 268 271 272
3 268 272 273
3 268 273 274
3 268 274 269
3 270 269 275
3 270 275 276
3 270 276 277
3 271 270 277
3 271 277 278
3 271 278 279
3 272 271 279
3 272 279 280
3 273 272 280
3 273 280 281
3 273 281 282
3 274 273 282
3 274 282 283
3 274 283 284
3 269 274 284
3 269 284 285
3 269 285 275
3 275 285 286
3 275 286 287
3 276 275 287
3 276 287 288
3 277 276 288
3 277 288 289
3 278 277 289
3 278 289 290
3 278 290 291
3 279 278 291
3 279 291 292
3 280 279 292
3 280 292 293
3 281 280 293
3 281 293 294
3 288 287 295
3 288 295 296
3 289 288 296
3 289 296 297
3 290 289 297
3 290 297 298
3 291 290 298
3 291 298 124
3 291 124 126
3 291 126 292
3 292 126 128
3 292 128 293
3 293 128 130
3 293 130 294
3 294 130 142
3 294 142 282
3 294 282 281
3 282 142 189
3 282 189 283
3 283 189 192
3 283 192 284
3 284 192 195
3 284 195 285
3 285 195 197
3 285 197 286
3 286 197 199
3 286 199 287
3 287 199 295
3 295 199 201
3 295 201 204
3 295 204 296
3 296 204 121
3 296 121 297
3 297 121 122
3 297 122 298
3 298 122 124
3 299 300 301
3 299 301 302
3 299 302 303
3 299 303 304
3 302 305 306
3 303 302 306
3 303 306 307
3 303 307 308
3 304 303 308
3 307 306 309
3 307 309 310
3 307 310 311
3 308 307 311
3 309 312 313
3 310 309 313
3 310 313 311
3 311 313 164
3 311 164 183
3 311 183 308
3 308 183 304
3 304 183 178
3 304 178 300
3 304 300 299
3 300 178 179
3 300 179 301
3 301 179 147
3 301 147 148
3 301 148 302
3 302 148 305
3 305 148 150
3 305 150 152
3 305 152 306
3 306 152 309
3 309 152 154
3 309 154 312
3 312 154 156
3 312 156 162
3 312 162 313
3 313 162 164
3 167 170 166
3 166 170 185
3 173 176 172
3 172 176 184

CELL_TYPES 624
5
5
5
5
5
5
5
5
5
5
5
5
5
5
5
5
5
5
5
5
5
5
5
5
5
5
5
5
5
5
5
5
5
5
5
5
5
5
5
5
5
5
5
5
5
5
5
5
5
5
5
5
5
5
5
5
5
5
5
5
5
5
5
5
5
5
5
5
5
5
5
5
5
5
5
5
5
5
5
5
5
5
5
5
5
5
5
5
5
5
5
5
5
5
5
5
5
5
5
5
5
5
5
5
5
5
5
5
5
5
5
5
5
5
5
5
5
5
5
5
5
5
5
5
5
5
5
5
5
5
5
5
5
5
5
5
5
5
5
5
5
5
5
5
5
5
5
5
5
5
5
5
5
5
5
5
5
5
5
5
5
5
5
5
5
5
5
5
5
5
5
5
5
5
5
5
5
5
5
5
5
5
5
5
5
5
5
5
5
5
5
5
5
5
5
5
5
5
5
5
5
5
5
5
5
5
5
5
5
5
5
5
5
5
5
5
5
5
5
5
5
5
5
5
5
5
5
5
5
5
5
5
5
5
5
5
5
5
5
5
5
5
5
5
5
5
5
5
5
5
5
5
5
5
5
5
5
5
5
5
5
5
5
5
5
5
5
5
5
5
5
5
5
5
5
5
5
5
5
5
5
5
5
5
5
5
5
5
5
5
5
5
5
5
5
5
5
5
5
5
5
5
5
5
5
5
5
5
5
5
5
5
5
5
5
5
5
5
5
5
5
5
5
5
5
5
5
5
5
5
5
5
5
5
5
5
5
5
5
5
5
5
5
5
5
5
5
5
5
5
5
5
5
5
5
5
5
5
5
5
5
5
5
5
5
5
5
5
5
5
5
5
5
5
5
5
5
5
5
5
5
5
5
5
5
5
5
5
5
5
5
5
5
5
5
5
5
5
5
5
5
5
5
5
5
5
5
5
5
5
5
5
5
5
5
5
5
5
5
5
5
5
5
5
5
5
5
5
5
5
5
5
5
5
5
5
5
5
5
5
5
5
5
5
5
5
5
5
5
5
5
5
5
5
5
5
5
5
5
5
5
5
5
5
5
5
5
5
5
5
5
5
5
5
5
5
5
5
5
5
5
5
5
5
5
5
5
5
5
5
5
5
5
5
5
5
5
5
5
5
5
5
5
5
5
5
5
5
5
5
5
5
5
5
5
5
5
5
5
5
5
5
5
5
5
5
5
5
5
5
5
5
5
5
5
5
5
5
5
5
5
5
5
5
5
5
5
5
5
5
5
5
5
5
5
5
5
5
5
5
5
5
5
5
5
5
5
5
5
5
5
5
5
5
5
5
5
5
5
5
5
5
5
5
5
5
5
5
5
5
5
5
5
5
5
5
5
5
5
5
5
5
5
5
5
5
5
5
5
5
5
5
5
5
5
5
5
5
5
5
5
5
5
5

CELL_DATA 624
SCALARS cell_data_0 double
LOOKUP_TABLE default
1.15984886262e-06
1.03791668335e-06
1.32236377138e-06
5.6753203305e-07
2.75562568673e-06
2.00845829654e-06
7.30339048182e-07
5.30731222893e-07
9.53319561606e-07
1.17349098195e-06
5.64261985243e-08
1.47354008016e-07
8.06753419947e-07
1.35131255602e-06
6.78442372002e-07
1.72798018293e-07
1.64942104867e-06
7.87326581427e-07
5.45155349642e-07
2.29051213641e-07
6.62862259308e-08
2.74122605048e-07
2.53802641902e-07
9.88583199042e-08
1.97908197673e-09
3.58759569804e-08
7.74906460835e-08
2.75848424132e-08
6.69072010371e-08
3.69913346521e-09
1.11404128366e-07
7.54411453506e-08
3.94396654356e-06
4.48472827094e-06
1.31736335543e-06
6.5701947915e-07
8.44976499378e-07
7.98338241107e-07
1.55318325986e-06
9.38774456455e-08
1.59821390899e-07
2.4843908712e-07
2.37019625308e-07
2.60921319512e-07
4.53282401385e-08
1.70699133389e-08
6.05537545181e-07
8.80066470407e-07
9.32726326326e-07
8.30822821927e-07
1.04460175575e-06
1.14703611943e-06
3.60155812455e-07
9.15098169092e-07
6.57404658171e-07
1.88428582759e-08
4.81640083672e-07
2.17339400864e-07
1.02987146261e-06
4.7981993278e-08
3.54677671786e-06
1.08920560494e-06
8.87178248753e-07
3.70981822486e-06
3.25214821483e-06
5.13553656584e-07
1.06480808034e-06
2.07188102482e-06
3.9858147457e-07
2.64211376727e-07
3.18172640545e-07
7.04134594493e-08
2.86632521141e-07
6.18343900892e-07
8.11398627118e-08
3.48238381146e-07
8.86868072071e-07
9.58817052291e-08
1.03477435053e-07
3.70156821779e-07
5.50805278087e-06
3.60497992763e-06
1.99890811788e-06
6.9479380409e-07
2.7290753128e-07
3.38805725865e-07
7.94068395927e-08
3.5878547212e-07
9.16357571526e-08
2.6832958784e-07
2.55332089926e-06
3.18980194589e-07
3.12918281683e-07
4.54546940395e-08
5.65155156375e-08
2.06994708446e-07
1.16251962264e-07
9.14966228203e-08
2.72198138782e-08
1.053935649e-07
2.92209714584e-07
3.76913871654e-07
1.24842680395e-07
2.82845117093e-07
1.58051121409e-07
8.18408188894e-07
1.17511557382e-06
3.04958015129e-06
1.9219548235e-07
3.36671316011e-09
2.00996151646e-07
1.78894223063e-08
3.08686611445e-07
5.51369290068e-07
1.4341848775e-06
4.96825007917e-06
8.31515449908e-06
9.49414281381e-06
8.37925023812e-06
6.69770154961e-06
6.53737471238e-06
1.17360156393e-06
2.87593345035e-06
6.4404761114e-06
9.81876303703e-07
2.76483269788e-06
1.05526608785e-05
4.37313421257e-06
3.64566534258e-06
2.87630275028e-06
4.318194911e-06
1.88987410727e-06
3.30086623586e-06
9.61301025608e-07
1.50665884789e-07
3.21975438612e-07
1.66270586491e-06
9.19579123785e-07
7.65958960028e-07
1.58068178044e-06
2.85274879781e-07
1.69870075133e-06
2.56667444697e-07
4.54521592939e-06
2.98560720589e-06
3.9250579678e-06
5.40148790242e-07
5.85758337153e-07
1.58284320861e-07
1.05153401561e-07
4.87205492362e-07
8.88277184737e-07
5.03046502886e-07
9.23105666809e-07
1.14625790821e-08
2.90739971353e-07
3.2358700483e-07
1.23637367102e-07
3.8437139173e-06
2.11850495714e-06
2.20809044048e-06
1.07549730541e-06
6.18272391697e-07
2.67382245243e-06
1.77270042033e-06
3.95435080187e-06
6.39782834042e-07
5.1516204223e-07
3.82584569314e-06
2.02620860269e-06
3.75577538374e-07
5.46013828411e-07
1.69815518004e-06
5.33993939644e-07
8.91528610433e-07
1.02390837023e-06
9.19625907228e-07
3.47209310413e-07
2.41844523503e-06
5.80357522755e-06
3.54450967671e-06
5.32925953258e-06
8.54827569083e-07
7.02106351897e-07
4.24143988396e-07
1.39948371218e-06
1.3498641556e-06
4.01766996922e-06
1.26758818707e-06
1.97212246556e-06
3.68170471477e-06
3.93289716513e-06
1.87788174551e-06
2.71191036967e-06
1.78546091863e-07
3.63737010628e-07
1.51976565731e-06
2.39681896827e-06
1.32179030886e-06
8.13014974445e-07
8.61733564892e-07
1.74018737188e-06
1.2414511383e-06
1.56407539976e-07
7.66218804692e-07
4.91614190052e-07
9.27675282859e-09
1.71021503929e-07
2.2445052659e-08
2.2266205287e-07
6.0476134239e-08
7.08289178675e-07
3.50499314633e-07
1.92339163942e-07
1.19221816994e-06
7.99393472039e-07
3.09490982269e-07
8.65544145454e-08
7.51339098597e-08
7.01691278386e-08
2.8883511071e-06
3.64271562427e-07
8.4046115173e-07
3.41629392685e-07
1.17821276839e-06
3.85869878637e-07
5.65974018696e-07
6.47734400303e-07
2.40728862306e-07
1.19900586955e-06
6.02913028901e-07
1.02497464853e-06
1.13970126118e-06
2.11699510906e-06
1.84750802844e-06
1.1340700713e-06
5.01465485524e-07
8.58679099857e-08
1.80106859623e-06
3.50640341684e-07
1.0021521929e-07
1.50476994194e-07
1.31235955729e-07
8.85974430659e-07
1.42438662077e-07
3.29037878651e-06
2.06755736777e-06
6.74688680042e-08
1.12078829435e-06
1.73796826894e-06
2.68894101613e-06
1.51958827586e-06
8.52919340169e-07
1.49743443922e-07
1.34766795668e-07
6.27031351114e-07
4.15980175913e-07
5.93051430159e-07
1.23164368383e-06
4.16887240732e-07
1.80114027363e-07
1.78639042386e-07
1.10868260795e-06
9.72461534555e-07
8.55605335092e-07
7.16975298457e-07
4.61119166406e-08
4.84206791712e-08
1.85276506984e-08
3.53914510188e-08
6.80728657982e-08
1.38663274043e-07
3.16726118179e-08
1.33461696763e-07
2.81571453797e-07
7.8831826808e-07
8.33955057189e-07
1.75592707145e-07
3.19710145762e-07
2.68672576975e-08
2.24599851583e-08
4.8742740057e-08
1.80865744505e-06
6.51520997943e-07
7.01951750946e-07
2.65288200105e-08
3.9614902815e-07
1.16080399104e-08
4.35230286125e-07
3.88182237878e-07
2.83278353951e-09
2.22626229165e-07
5.87160092441e-08
2.84194613791e-08
9.09686725117e-07
4.03802307191e-07
1.54496105367e-07
7.50424513795e-09
1.20218416849e-06
1.66112595926e-06
6.37304980716e-07
5.64883977217e-07
1.34926412569e-07
6.15859512983e-08
3.923610989e-07
6.49505049963e-08
1.09381527401e-06
2.10866645491e-07
3.38127374117e-08
2.56052138353e-07
4.56195459272e-07
6.52330881913e-07
8.11280266993e-08
8.17634537397e-08
4.16298541307e-07
4.56333514299e-07
1.85849496418e-06
7.5565751123e-07
1.42351245366e-06
4.3812652907e-07
1.52927178834e-07
4.68262101188e-08
4.4565807719e-08
8.44936969805e-09
3.67818711937e-08
3.96156173416e-08
1.0047497594e-07
1.51427681936e-07
2.60514470109e-07
1.98460084913e-06
3.52819978027e-06
1.62286763265e-07
7.88222569175e-08
4.40727386829e-07
1.67308699593e-07
3.43453995531e-07
1.19339470594e-07
2.04884144396e-07
1.20944932417e-07
1.16042048168e-07
1.35239670462e-07
3.15834555579e-06
9.12055279514e-07
3.27194004859e-07
2.70055353784e-08
6.7208361692e-08
6.74752458318e-08
6.48784709158e-08
2.45267870593e-07
1.06610188999e-08
5.56636259867e-08
2.54019962982e-10
2.68956403655e-07
5.74527456727e-08
9.39878691933e-08
6.48975636823e-08
7.61012916671e-08
3.51945841553e-08
2.94379190813e-07
4.87863992744e-07
2.7676449386e-07
2.43332047102e-07
1.34126172209e-08
2.35788073001e-08
2.82150774995e-07
9.14689817678e-08
7.16785146743e-08
3.28344351654e-07
4.6614242101e-08
5.30034026547e-08
3.54416307283e-06
4.08682437468e-06
1.91436384502e-06
7.13420077641e-08
1.53672210955e-06
1.98082482149e-06
2.97397107315e-07
6.19501258933e-07
1.00416564106e-06
1.6515676298e-06
6.27320549217e-07
1.44101018179e-07
2.3333061258e-08
2.91060036299e-08
2.16381955588e-08
2.51920910551e-08
1.09333825175e-09
2.20152553146e-08
5.79741655038e-08
2.99058204142e-08
7.21319022606e-08
6.04053403091e-07
3.51384161067e-07
2.62360655484e-07
1.57816771337e-07
2.18774273722e-06
1.08566285322e-06
1.86328666968e-06
3.6868256039e-06
5.42573443887e-06
3.47653101774e-06
1.35616076652e-06
1.51043163266e-06
1.38265122348e-06
7.21776195027e-07
1.41780913925e-06
2.14241462e-06
1.69795869003e-06
1.88720916526e-06
6.85132585272e-07
6.42032733713e-07
3.38141465867e-07
4.173729767e-07
2.71478761595e-07
9.5496595389e-07
3.04744060868e-06
4.30520159847e-08
8.89782669445e-08
8.00867124851e-08
4.24564866562e-08
5.54622335069e-08
1.68701636269e-08
4.44078093458e-08
1.78114637785e-08
6.16001275143e-09
3.84526436122e-08
3.22534896195e-09
5.49215556036e-09
5.96105009009e-09
4.30715326632e-08
1.2624145068e-09
1.71789834261e-08
1.75516984453e-08
5.94840281581e-08
3.11753311487e-09
8.59118512426e-08
9.8448573063e-08
4.42130431807e-07
1.32634866093e-07
1.8424401377e-07
4.52552317942e-07
3.84891408126e-07
3.34681285395e-07
2.61353692857e-07
4.49596072257e-07
1.9655026059e-06
2.00386489334e-06
4.14301232996e-07
1.50488500466e-06
1.06032652229e-07
1.42757883147e-07
8.17970797051e-07
4.7314213192e-08
2.48277342352e-07
1.64111582441e-07
4.1613060861e-07
1.86057004363e-07
1.61882732871e-07
1.12343079933e-07
2.56020620128e-07
1.44196465282e-06
1.83634282578e-06
9.123566166e-07
5.91515904436e-07
7.16022540966e-07
2.64138413042e-07
4.16632675446e-07
1.39251658737e-06
1.22205227631e-07
7.81286286135e-07
3.50893440973e-07
1.8422927762e-06
2.61147967296e-06
4.17202188102e-07
1.79267940528e-05
8.67301346786e-06
5.0510207072e-07
1.52331430913e-06
5.04830017867e-07
9.99097665607e-07
1.96095738238e-06
2.13426786208e-07
2.1405049911e-08
1.64988660269e-07
2.41518957225e-08
1.76511677332e-07
9.70841784412e-07
8.3999990031e-07
4.95509654902e-06
1.5184774279e-06
4.63002900648e-06
2.01781091043e-06
3.3519979844e-06
1.68920699684e-06
1.58561612501e-06
6.90250817313e-07
3.97324777133e-07
6.61455787399e-07
1.02584811483e-06
3.42686099862e-07
4.52207631961e-07
1.34025880687e-06
8.33839098773e-07
2.41823438469e-07
5.16327737697e-07
3.45046284763e-07
1.37304941067e-07
2.397810953e-08
4.31071840245e-08
5.48826198651e-08
2.37890491539e-08
1.07948692424e-08
1.348943517e-08
1.02886152864e-06
6.37167126615e-07
7.04930856898e-08
1.6595514651e-07
3.69074655164e-07
5.02409855106e-08
2.28613256113e-07
5.40598976698e-07
2.36999392922e-07
2.90778231955e-07
8.59913414746e-08
1.86384049242e-07
1.0124017276e-06
3.03671341375e-06
2.10566874345e-06
7.2877499828e-07
2.33542444589e-06
2.72758190643e-06
4.76741184317e-07
7.8348784973e-07
9.85770399383e-08
3.90171033164e-08
1.62302749035e-07
3.62306962502e-07
1.83214132225e-07
6.46033894219e-07
4.22732342783e-07
2.79162068185e-07
5.3903422084e-07
4.55330186995e-08
4.27016387727e-07
1.18827007644e-07
4.01935903641e-08
5.0764452055e-09
3.32980370933e-08
5.57505641861e-08
3.42913286018e-08
7.19122306242e-09
3.34151809762e-07
4.1759034949e-06
7.10486092875e-07
2.23512276357e-06
1.52251451108e-06
3.00718777516e-07
5.24033224564e-07
1.65377288539e-07
4.26237384316e-07
6.24021929496e-07
1.25687327872e-07
2.39172511819e-06
1.7198806071e-06
2.11028082514e-06
3.59429045333e-06
1.26371944516e-06
4.39616094132e-07
5.52865622015e-06
2.34534797391e-06
3.77632093729e-08
3.07000400563e-07
3.8211177518e-08
7.15518701044e-07
6.50131573167e-07
1.16952078467e-08
1.97239887423e-07
2.15320518396e-07
4.29523990985e-07
3.24754304907e-07
1.52157558696e-06
1.85470604515e-08
1.35662579586e-08
4.07756155649e-08
4.46113195978e-08
3.08454892903e-09
5.59031682715e-08
2.96147812333e-08
1.05609350306e-07
1.74585441821e-07
2.31688877609e-08
4.67769101607e-08
9.13581240932e-08
1.80694764425e-07
4.06721720107e-08
5.02516234991e-08
1.08886652996e-07
3.82899436194e-07
5.09258366082e-07
7.3055127055e-09
4.3025471202e-08
1.96476465724e-06
1.0045773207e-06
1.12937601862e-07
4.36091675154e-07
1.18159785339e-07
4.51192365457e-07
1.10985227164e-06
8.17156194008e-07
8.30606302695e-07
7.8797072922e-07
1.60614216952e-06
2.23149182795e-06
2.08954151157e-06
3.27252764775e-06
3.9468566472e-07
5.67959936581e-07
5.25955184613e-07
2.57075877273e-07
2.44759400923e-07
8.67532363665e-06
2.34481435167e-06
9.51279567456e-06
2.21346693583e-06

