# vtk DataFile Version 3.0
File Name: Molecule/arg/arg_4-16_06.vtk
ASCII
DATASET UNSTRUCTURED_GRID
FIELD FieldData 1
TIME 1 1 double
0.0
POINTS 661 double
-3.403 0.327 1.604
-3.45 0.103 1.078
-2.981 -0.361 1.858
-3.028 -0.584 1.332
-3.298 -0.003 0.536
-2.876 -0.691 0.79
-2.971 0.024 0.066
-2.549 -0.664 0.32
-2.984 0.046 0.042
-2.471 -0.12 -0.363
-2.484 -0.099 -0.385
-2.2 -0.483 -0.862
-2.216 -0.458 -0.889
-3.25 0.578 -0.258
-2.57 0.022 -0.532
-2.777 0.436 -0.766
-2.39 -0.269 -1.153
-2.617 0.185 -1.409
-3.173 1.207 -0.458
-2.716 0.926 -0.921
-2.55 0.723 -1.58
-2.776 1.74 -0.497
-2.407 1.34 -0.951
-2.211 1.177 -1.613
-2.622 1.932 -0.429
-2.287 1.501 -0.894
-2.142 1.682 -0.83
-1.982 1.439 -1.492
-1.81 1.654 -1.416
-2.655 2.421 0.048
-2.046 2.135 -0.548
-2.075 2.574 -0.12
-1.615 2.438 -0.879
-1.647 2.927 -0.402
-2.495 2.657 0.67
-1.932 2.785 0.438
-1.488 3.163 0.22
-2.925 2.572 1.071
-2.137 2.872 1.156
-2.512 2.798 1.506
-1.863 3.333 1.507
-2.279 3.251 1.894
-3.186 2.284 1.521
-2.739 2.546 1.897
-2.53 2.972 2.328
-3.419 1.801 1.788
-2.888 2.359 1.917
-3.122 1.876 2.185
-2.717 2.558 2.345
-2.979 2.017 2.644
-3.567 1.179 1.827
-3.133 1.725 2.369
-3.262 1.186 2.403
-3.107 1.793 3.017
-3.25 1.192 3.055
-3.408 0.559 1.798
-3.123 0.649 2.378
-3.095 0.593 3.027
-3.105 0.348 2.085
-3.1 0.088 1.867
-2.97 0.105 2.152
-3.02 0.504 2.546
-2.901 0.29 2.606
-2.978 0.383 3.085
-2.865 -0.346 2.113
-2.52 -0.7 2.425
-2.794 0.071 2.575
-2.491 -0.24 2.849
-2.645 0.041 3.387
-2.46 -1.117 2.184
-2.148 -0.9 2.844
-2.09 -1.3 2.613
-2.003 -1.142 3.367
-1.937 -1.6 3.103
-2.268 -1.45 1.888
-1.906 -1.62 2.328
-1.726 -1.965 2.777
-1.967 -1.659 1.57
-1.617 -1.821 2.023
-1.396 -2.195 2.428
-1.592 -1.721 1.268
-1.257 -1.88 1.733
-0.984 -2.263 2.097
-2.026 -1.588 0.931
-1.237 -1.838 0.739
-1.646 -1.713 0.421
-0.96 -2.23 0.303
-1.437 -2.084 -0.068
-2.342 -1.257 0.596
-1.944 -1.402 0.106
-1.784 -1.721 -0.435
-2.487 -0.785 0.321
-2.08 -0.956 -0.154
-1.943 -1.202 -0.738
-2.189 -0.632 -0.224
-2.248 -0.516 -0.225
-2.131 -0.618 -0.861
-2.114 -0.682 -1.181
-1.927 -1.264 -1.052
-2.312 -0.441 -1.376
-2.121 -0.506 -1.916
-2.042 -0.816 -1.214
-1.838 -0.886 -1.79
-1.682 -1.348 -1.746
-1.975 -0.256 -2.322
-1.864 -0.768 -1.888
-1.672 -0.441 -2.421
-1.897 0.192 -2.527
-1.57 0.147 -2.691
-1.996 0.646 -2.441
-1.495 0.306 -2.776
-1.602 0.798 -2.682
-1.198 0.386 -3.152
-1.328 0.981 -3.039
-2.011 1.039 -2.18
-1.619 1.224 -2.399
-1.348 1.496 -2.696
-1.72 1.257 -2.235
-1.479 1.817 -1.75
-1.107 2.057 -2.211
-1.346 2.153 -1.415
-1.642 2.007 -1.116
-1.319 2.584 -1.178
-0.816 3.013 -1.267
-1.111 2.259 -1.642
-0.623 2.675 -1.729
-0.543 2.537 -2.312
0.466 3.148 -0.891
-0.416 2.926 -1.599
0.331 3.005 -1.38
-0.131 2.956 -2.042
0.328 3.005 -1.907
-0.002 3.1 -2.533
0.456 3.148 -2.398
-0.048 3.337 -3.001
0.699 3.415 -2.782
0.833 2.913 -0.61
0.619 2.806 -1.364
0.976 2.577 -1.092
0.892 2.689 -1.891
1.303 2.425 -1.576
1.057 2.557 -0.305
1.192 2.232 -0.796
1.553 2.026 -1.234
0.979 2.767 0.195
1.539 1.918 0.039
1.462 2.128 0.539
0.737 2.845 0.68
1.22 2.206 1.024
0.406 3.093 0.833
0.71 2.572 1.142
0.419 2.789 1.277
0.841 2.425 1.643
0.539 2.651 1.783
1.112 2.426 2.108
0.748 2.699 2.276
0.011 3.456 0.651
0.05 3.076 1.433
-0.284 3.383 1.279
-0.034 3.266 2.099
-0.415 3.616 1.924
-0.504 3.599 0.465
-0.72 3.504 1.122
-0.913 3.754 1.744
-1.038 3.495 0.311
-1.173 3.416 0.991
-1.429 3.653 1.595
-1.554 3.135 0.914
-0.08 3.426 2.677
0.304 2.919 2.221
0.258 3.08 2.801
0.695 2.881 2.933
-0.313 3.4 3.231
0.024 3.055 3.358
0.431 2.852 3.563
-0.687 3.194 3.654
-0.352 2.847 3.783
0.006 2.617 4.044
-1.222 3.175 3.77
-0.58 2.815 3.881
-1.2 2.794 4.016
-1.756 3.136 3.659
-1.82 2.748 3.887
-2.199 3.083 3.341
-2.333 2.687 3.518
-2.473 3.025 2.87
-2.65 2.619 2.973
-0.832 2.373 4.277
-0.242 2.183 4.431
-1.061 1.806 4.483
-0.466 1.628 4.634
-1.434 2.302 4.313
-1.452 1.611 4.604
-1.773 2.038 4.456
-1.892 2.602 3.976
-2.169 2.297 4.166
-2.355 2.652 3.532
-2.568 2.341 3.783
-2.74 2.445 3.06
-2.9 2.162 3.376
-1.464 1.095 4.666
-0.956 1.592 4.533
-0.968 1.074 4.596
-0.48 1.041 4.705
-1.655 0.731 4.634
-0.882 0.784 4.614
-1.066 0.434 4.582
-0.333 0.517 4.869
-0.555 0.096 4.831
-2.14 0.383 4.441
-1.246 0.178 4.538
-1.7 -0.148 4.358
-0.878 -0.357 4.785
-1.429 -0.753 4.566
-2.498 0.133 3.99
-2.035 -0.382 3.936
-1.836 -1.037 4.053
-2.172 -0.468 3.371
-0.383 -0.749 5.065
-0.05 -0.304 5.117
0.164 -1.171 5.088
0.507 -0.734 5.141
0.4 -1.671 4.946
0.615 -0.976 5.092
0.839 -1.451 4.956
1.043 -0.806 5.264
1.279 -1.306 5.122
0.636 -2.087 4.632
1.063 -1.845 4.659
1.514 -1.722 4.808
0.844 -2.371 4.183
1.26 -2.115 4.232
1.723 -2.007 4.359
1.002 -2.493 3.648
1.411 -2.231 3.724
1.881 -2.129 3.824
1.092 -2.439 3.086
1.496 -2.18 3.191
1.971 -2.075 3.263
1.104 -2.215 2.561
1.508 -1.967 2.692
1.983 -1.85 2.738
1.037 -1.846 2.131
1.444 -1.616 2.284
1.916 -1.481 2.307
0.647 -2.269 2.118
0.798 -1.688 1.555
0.487 -2.024 1.545
0.806 -1.676 0.912
0.496 -2.012 0.902
1.061 -1.813 0.337
0.67 -2.236 0.324
0.119 -2.499 2.107
0.068 -2.206 1.536
0.076 -2.194 0.893
0.142 -2.466 0.313
-0.457 -2.497 2.099
-0.39 -2.205 1.53
-0.381 -2.193 0.887
-0.434 -2.464 0.306
-0.808 -2.019 1.528
-0.8 -2.007 0.885
1.48 -1.078 0.031
1.043 -1.422 0.814
1.323 -0.93 0.61
1.205 -1.217 1.373
1.436 -0.812 1.205
1.517 -1.238 1.905
1.797 -0.747 1.701
2.335 -0.746 2.002
1.639 -0.712 -0.547
1.476 -0.549 0.311
1.615 -0.229 -0.195
1.697 -0.118 0.66
1.842 0.216 0.134
1.693 -1.21 -0.838
1.805 -0.426 -1.067
1.853 -0.872 -1.327
2.201 -0.141 -1.444
2.253 -0.62 -1.722
1.568 -1.637 -1.21
1.741 -1.254 -1.66
2.133 -1.029 -2.079
1.279 -1.936 -1.614
1.483 -1.521 -2.022
1.857 -1.315 -2.467
0.866 -2.068 -1.998
1.113 -1.639 -2.366
1.46 -1.442 -2.835
0.381 -2.015 -2.311
0.679 -1.593 -2.646
0.995 -1.392 -3.136
-0.112 -1.786 -2.513
0.238 -1.387 -2.827
0.523 -1.172 -3.329
-0.548 -1.409 -2.576
-0.152 -1.05 -2.884
0.104 -0.811 -3.39
-0.822 -1.287 -2.506
-0.408 -0.948 -2.806
-0.669 -0.831 -2.739
-0.336 -0.591 -3.197
-0.616 -0.466 -3.125
-1.31 -1.347 -2.194
-0.988 -0.705 -2.664
-1.485 -0.767 -2.346
-1.322 -0.31 -2.728
-0.95 -0.071 -3.189
-0.311 -0.212 -3.619
0.128 -0.454 -3.788
-0.16 0.24 -3.931
0.27 -0.03 -4.081
0.101 0.716 -4.098
0.516 0.418 -4.238
-0.411 1.252 -3.909
0.377 1.347 -4.4
0.11 1.626 -4.301
-0.398 1.946 -3.588
0.117 1.987 -4.134
-0.106 2.463 -3.53
-0.202 2.855 -2.684
0.028 3.029 -3.665
0.9 3.106 -3.671
0.173 2.486 -3.833
0.85 2.546 -3.838
0.989 2.064 -4.14
0.819 3.383 -2.845
1.267 2.733 -3.406
1.204 2.948 -2.765
1.749 2.404 -3.353
1.668 2.681 -2.526
0.902 2.914 -2.485
0.749 2.956 -2.405
1.123 2.627 -2.01
1.688 2.19 -1.733
1.962 2.454 -2.382
2.133 1.624 -1.992
2.194 2.159 -2.516
2.141 1.301 -1.585
2.428 1.273 -2.257
2.435 0.969 -1.874
2.042 0.907 -1.262
2.342 0.599 -1.57
1.911 1.516 -1.257
1.855 0.911 -0.632
1.743 1.428 -0.628
1.976 0.918 0.014
1.858 1.462 0.018
1.44 1.861 -0.608
1.861 0.778 -0.544
1.751 0.201 -0.446
1.991 0.665 -1.105
1.878 0.074 -1.004
2.497 1.237 -3.182
2.241 1.687 -2.422
2.29 1.662 -3.078
2.232 2.14 -3.028
1.83 1.363 -3.817
1.817 1.751 -3.528
1.863 2.209 -3.379
1.382 0.739 -4.338
1.413 1.57 -3.947
1.095 1.128 -4.316
1.103 1.869 -4.167
0.855 1.524 -4.455
0.482 0.901 -4.245
1.404 2.01 -3.684
1.315 2.161 -3.664
2.007 0.383 0.735
1.766 -0.192 1.22
2.031 0.236 1.284
1.991 -0.414 1.693
2.267 0.032 1.759
2.675 -0.196 2.083
2.074 0.941 0.928
2.088 0.713 1.449
2.326 0.528 1.931
2.749 0.417 2.295
1.884 1.434 1.198
1.926 1.135 1.68
2.158 0.967 2.172
2.541 0.959 2.592
1.624 1.884 1.117
1.755 1.469 1.75
1.503 1.904 1.671
1.842 1.579 2.299
1.557 2.073 2.21
1.11 2.216 1.58
1.886 1.845 2.759
2.132 1.224 2.493
2.174 1.477 2.929
2.585 1.225 3.051
1.814 2.002 3.263
2.105 1.625 3.407
2.513 1.382 3.555
1.633 2.033 3.763
1.933 1.655 3.881
2.331 1.413 4.055
1.359 1.937 4.21
1.674 1.563 4.305
2.058 1.316 4.502
1.021 1.721 4.561
1.354 1.359 4.638
1.72 1.101 4.853
0.651 1.408 4.781
1.002 1.062 4.847
1.35 0.788 5.074
0.073 1.245 4.841
0.82 0.891 4.947
0.23 0.725 5.008
0.672 0.387 5.179
1.205 0.294 5.301
0.564 -0.173 5.245
1.099 -0.256 5.367
-1.999 2.782 0.776
-1.065 -1.824 1.176
1.419 -0.545 0.696
1.7 -0.166 -0.791
-3.196 2.043 -0.114
-3.592 1.578 -0.026
-3.592 1.985 0.326
-3.196 2.357 0.319
-3.592 2.137 0.843
-3.196 2.469 0.843
-3.592 1.985 1.36
-3.85 1.69 0.843
-3.85 1.435 1.283
-3.592 0.264 0.574
-3.85 0.672 0.843
-3.85 0.927 0.403
-3.592 0.555 0.121
-3.592 1.045 -0.103
-3.85 1.435 0.403
-3.94 1.181 0.843
-3.85 0.927 1.283
-3.592 0.555 1.565
-2.722 -1.154 1.098
-2.722 -1.154 1.636
-2.722 -0.863 2.089
-2.326 -1.497 1.099
-2.482 0.597 -1.975
-2.482 0.047 -1.975
0.763 3.18 -0.086
0.367 3.4 -0.61
0.367 3.512 -0.086
0.367 3.4 0.438
-0.118 3.59 -0.615
-0.118 3.688 -0.086
-0.634 3.59 -0.615
-0.634 3.688 -0.086
-1.119 3.512 -0.086
-1.119 3.4 -0.61
-1.119 3.086 -1.043
-0.667 3.796 3.018
-0.667 3.906 2.497
-1.198 3.918 2.998
-1.198 3.65 3.431
-1.198 3.918 1.996
-1.198 4.012 2.497
-1.729 3.906 2.497
-1.729 3.796 3.018
-1.729 3.482 3.449
-1.729 3.796 1.976
-2.179 3.606 2.497
-2.179 3.474 2.987
-1.895 1.335 4.734
-2.426 1.603 4.572
-2.426 1.073 4.627
-2.426 2.064 4.305
-2.876 2.056 3.843
-2.876 1.697 4.202
-2.876 1.207 4.334
-2.876 0.717 4.202
-2.426 0.566 4.463
-3.176 1.738 3.353
-3.176 1.472 3.813
-3.176 0.942 3.813
-2.876 0.358 3.843
-3.176 0.676 3.353
-3.282 1.207 3.353
0.578 -2.491 4.272
0.08 -2.472 4.525
0.08 -2.776 4.08
0.578 -2.727 3.81
0.08 -2.934 3.566
0.578 -2.808 3.297
0.08 -2.934 3.028
0.578 -2.727 2.784
0.08 -2.776 2.514
0.08 -2.052 4.861
-0.44 -2.052 4.861
-0.44 -2.472 4.525
-0.44 -2.776 4.08
-0.44 -2.934 3.566
-0.44 -2.934 3.028
-0.44 -2.776 2.514
-0.44 -1.551 5.057
-0.938 -1.149 4.956
-0.938 -1.662 4.875
-0.938 -2.124 4.639
-0.938 -2.491 4.272
-0.938 -2.727 3.81
-0.938 -2.808 3.297
-0.938 -2.727 2.784
-0.938 -2.491 2.322
-1.374 -1.149 4.675
-1.374 -1.677 4.571
-1.374 -2.124 4.272
-1.374 -2.423 3.825
-1.374 -2.527 3.297
-1.374 -2.423 2.769
-1.714 -1.289 4.273
-1.714 -1.795 4.042
-1.714 -2.095 3.575
-1.93 -1.406 3.742
1.624 -1.33 -0.389
1.408 -1.719 -0.089
1.408 -2.019 -0.556
[...]
CELL_DATA 1318
SCALARS cell_data_0 double
LOOKUP_TABLE default
3.8691838325e-07
3.40638735438e-07
4.97606527895e-07
6.85072035848e-08
1.4717173726e-07
5.53842154795e-08
4.29638003102e-08
5.19687387112e-08
5.09773381745e-08
4.38507224543e-08
2.66107574464e-07
1.16155103967e-06
3.85007745769e-07
1.2630705837e-06
1.41905670026e-06
9.28737825306e-07
1.49802723581e-06
3.8735669281e-07
3.37430249723e-07
5.73894515623e-07
2.84046167794e-07
2.54252095868e-08
2.5448492559e-07
6.33579265032e-08
7.54716745232e-08
9.12709841502e-08
5.331986013e-07
5.04659705885e-07
1.61504279403e-07
1.67474892311e-07
5.44344203255e-07
7.44372359945e-08
9.76731259639e-08
2.28616581594e-08
1.10740065213e-07
1.3627443568e-07
6.25533218056e-08
4.42696367715e-08
5.09641983746e-08
1.50661045734e-07
1.74201152893e-07
1.88894687213e-07
5.37005439587e-08
1.92613658526e-07
2.13813796551e-07
2.01187638536e-07
4.8788033358e-08
8.09273136639e-08
5.49175940452e-08
1.20238611129e-08
4.76250000522e-08
1.66189921988e-07
1.90853934839e-07
2.26174751429e-07
2.7557212643e-08
2.61360560312e-08
3.53680574381e-08
6.34817501331e-08
9.82901736139e-08
1.80782942082e-08
4.06012458145e-08
5.32523129577e-08
3.14621265355e-07
3.92477336618e-07
7.85815358896e-08
5.82584455436e-08
5.81668029322e-07
8.61763944413e-07
2.4039031328e-06
2.07372612516e-06
2.3229716148e-07
5.91188311429e-07
1.20422769073e-06
1.19861509446e-06
2.26355898133e-07
3.51363725711e-07
6.80735872715e-07
3.30620275158e-07
1.55230377166e-08
1.85009538271e-07
1.97910081128e-07
1.45885357758e-07
7.52989026799e-08
2.01480967883e-07
4.57629680948e-07
5.1689784738e-07
9.09400350382e-08
2.22924784655e-07
4.45724476105e-07
3.59193067392e-07
7.08487082473e-08
2.01576533162e-07
1.81846558822e-07
2.65421189756e-07
9.28725582677e-10
1.49371806566e-08
3.00461220945e-08
1.36185249915e-07
3.02921784283e-07
1.50488255179e-07
2.7420449991e-07
1.77597625582e-07
2.51318066243e-07
2.83858978449e-07
2.18469175211e-07
2.23733208516e-07
1.54709918265e-07
2.74787520012e-07
1.47893550927e-07
4.01012864723e-07
3.97197703455e-07
6.35139536629e-07
6.59210830099e-07
4.76760559487e-07
3.07022888676e-07
4.46611875656e-07
4.3157826768e-07
3.04199513226e-07
1.85244233655e-07
1.86560011137e-07
6.15142452114e-07
4.21140962757e-07
6.02937652076e-08
7.85795781684e-08
2.41832956758e-08
9.89740950294e-08
1.01240489699e-07
2.51568280175e-08
2.35954071404e-07
1.69776946753e-07
7.6191634895e-08
1.22517605574e-07
5.7439435035e-08
7.21480287257e-09
9.95782560423e-09
8.35318176355e-08
3.43208296393e-07
2.37282531308e-06
5.86687221224e-08
1.63400012178e-07
4.62335688665e-07
3.40017663367e-07
1.4417390914e-07
1.99571578699e-08
2.17615011453e-07
2.74781234556e-07
3.70968998088e-07
2.950579566e-07
2.73049942123e-07
2.67881997878e-07
2.28912020068e-07
7.96809787113e-08
5.46757142802e-08
2.14827765451e-08
1.46885391667e-07
1.83514265581e-07
4.68231972032e-07
3.99794723716e-07
1.86612625892e-07
7.31697597843e-07
2.80758704856e-07
8.71059191297e-08
6.12396383726e-07
3.8271440444e-07
7.50530699909e-08
1.30641529409e-09
1.00721736554e-07
1.93558255727e-07
1.06224602955e-08
8.86119627716e-08
1.191722306e-07
3.16158117255e-08
7.72641668361e-08
1.33298916256e-07
2.13516107024e-07
2.26505774319e-07
3.39739222488e-07
9.10876130569e-07
6.44511649856e-07
6.67270563677e-07
1.10915702947e-06
1.43809560381e-06
1.13105725458e-06
8.1839303819e-07
9.79932517603e-07
7.16104735644e-07
7.33760854845e-07
5.88572848204e-07
4.68226329889e-07
1.00466325442e-07
9.17649569305e-09
7.47994597312e-08
1.43300231729e-07
1.38804731878e-07
7.04492646086e-07
3.07631924725e-07
6.20076560982e-07
1.52338785533e-06
1.99046337757e-07
1.60733478817e-07
3.07755637734e-07
2.56677253571e-07
3.42717117069e-07
6.19508702396e-08
5.32692803373e-08
3.3487095702e-07
2.06062293621e-07
1.37776868979e-07
2.13431117839e-07
1.75764178164e-07
7.74525118454e-07
9.49546445492e-07
4.25190485498e-08
4.03313576304e-08
4.49689789628e-08
1.41187749723e-07
1.77446166458e-08
2.25305247023e-07
5.67016325189e-08
3.51842295405e-07
1.34466052057e-07
2.98146150098e-07
2.96529840985e-07
1.83099042057e-08
1.53182965017e-07
3.92055464868e-07
5.26033874026e-07
2.26199984463e-06
7.51498414758e-07
7.48526398966e-07
8.45735958737e-07
4.02741674165e-07
2.12384546198e-07
1.25255155618e-07
1.62935547351e-07
1.23785370078e-07
2.00531077786e-07
1.74841491624e-07
1.1504544026e-07
9.00875540276e-08
4.29201726074e-07
1.62774767197e-07
1.61488831145e-07
7.31527035653e-07
8.93369693764e-07
4.9697739165e-07
6.93989817112e-07
1.33994544349e-06
1.0357547696e-06
9.45668132571e-07
8.91857155514e-07
8.53628805298e-07
8.7354774452e-07
6.85014565949e-07
6.78093332048e-07
1.83193381221e-07
1.34637647859e-07
9.55052677384e-08
1.77134474582e-07
4.35533548318e-07
2.76335751838e-08
5.94198032982e-07
6.57696476165e-07
3.62511254262e-07
4.67856206733e-07
5.21994486018e-07
6.47214208539e-07
3.89880825085e-07
1.03279557906e-07
3.0880105447e-08
4.08917094943e-07
9.02286836565e-07
1.81384190544e-07
4.980530917e-07
1.79105503969e-07
3.6836623052e-07
9.00393151773e-07
9.89231011369e-07
5.43736078113e-07
3.73792571302e-07
3.62398067032e-08
7.75683611776e-08
3.61351020352e-07
1.81344678043e-07
1.46079588373e-06
7.1278428609e-07
1.52552173559e-07
5.18563860034e-07
5.79265894097e-07
7.08271522533e-07
9.64560493529e-07
1.79679009257e-06
5.9475812204e-07
3.47895476386e-07
1.00524866998e-08
1.06200035165e-07
4.61259868731e-07
4.06164838984e-07
1.48893603337e-08
8.19187697143e-07
4.8208513747e-07
1.65077485416e-07
5.53203368239e-07
1.87024308253e-06
3.77279948648e-07
6.8115336115e-07
1.38206407314e-06
2.71326220902e-06
4.05361369765e-07
1.98028120569e-07
1.72392037767e-06
2.69966288792e-06
1.01301143929e-06
7.61819874519e-07
1.17913008522e-06
1.7381565799e-06
1.69587953511e-06
1.37584725484e-06
1.18142681324e-06
1.86417731136e-06
2.2502068181e-06
7.17208470003e-07
1.18208403231e-06
6.9254013274e-07
7.46342499609e-07
1.26124659634e-06
1.17656199029e-06
6.00645327059e-07
4.83126987715e-07
4.93749001656e-07
3.00255114314e-07
1.87532230766e-07
4.18636457035e-07
4.82750583504e-07
6.63865561381e-07
5.75573678139e-07
9.75296269423e-07
1.25391160518e-06
1.79364771599e-06
1.29518884348e-06
1.24914020857e-06
6.93721183134e-07
2.2160056041e-06
2.36609414087e-06
3.33429555632e-06
1.97588574452e-06
1.24319054038e-06
1.18093785671e-06
2.72067842774e-06
3.60422177737e-06
2.34645871652e-06
5.14974341596e-09
8.22715564306e-07
4.28833440229e-06
2.44353943819e-06
7.94553946672e-07
1.10478596617e-06
4.8995433898e-06
7.24020074979e-08
3.8043946329e-07
9.77851271857e-08
1.86203902453e-07
1.26017246894e-06
1.09453161795e-06
1.20379695396e-06
1.78061663577e-06
6.31910812351e-07
7.27062820978e-07
4.88327282397e-07
8.6336036752e-07
1.21714214078e-07
2.93194328378e-07
3.45133544185e-07
2.9489121032e-06
3.16877077442e-07
8.47100420595e-07
2.12804686e-06
2.31288027659e-06
7.97404311211e-07
2.01038819382e-07
6.26531109831e-08
1.49624455688e-07
1.30686908791e-06
1.79421545568e-06
2.17026767757e-06
3.40140911548e-06
3.83285099305e-07
5.16683169995e-07
5.24936340992e-06
2.80304040699e-06
1.10052137915e-06
2.16568248451e-06
1.45004101095e-06
6.80719662976e-07
2.6555968898e-06
1.74791757967e-06
8.50452577251e-07
1.86518961359e-07
2.07134793236e-06
2.38788452501e-06
8.68123686859e-07
6.56820143956e-07
6.48680950025e-07
9.44927397944e-07
4.09287093778e-08
1.54701822573e-07
1.31013342555e-07
1.54311404318e-08
4.14348286526e-07
6.84810774523e-07
1.04826108897e-07
8.65755376446e-08
1.18014376238e-07
2.03495088726e-07
2.29748491527e-07
3.46876822822e-07
4.500035969e-07
3.18800336925e-07
1.76719007627e-07
1.3812288864e-07
2.93550634719e-07
4.25251144849e-07
4.83011334541e-07
1.04293733252e-06
8.727164964e-07
5.70960248131e-07
7.70120303333e-07
1.00984496339e-06
9.66650691629e-07
1.26225208582e-07
8.9850370526e-07
1.1271174375e-06
5.69732909674e-07
7.35001471003e-07
6.47567167504e-07
7.26950927893e-09
6.77744626585e-07
1.76268038062e-07
5.71048863114e-07
3.14437521704e-07
1.87100168726e-07
6.64893549489e-07
5.06759338362e-07
1.94713843751e-07
2.74236470053e-07
3.74158300816e-07
2.02570990587e-07
6.78816210782e-08
1.54452027031e-07
1.63668681485e-07
1.03590160848e-07
4.32152042197e-08
1.0334499541e-07
1.27277802105e-08
2.83436700204e-07
8.14252002762e-08
3.73415360678e-07
2.25786770073e-07
1.09611263274e-07
1.25351631949e-07
2.73486033803e-09
9.84166209039e-09
8.1627919068e-08
2.36550230435e-07
6.0806579428e-09
2.38231127773e-07
5.00268695514e-07
1.90639069287e-07
5.73172682168e-07
3.26976412658e-07
1.84459978048e-07
3.11549186818e-07
2.54501627777e-07
3.60548438227e-07
3.77388961305e-08
3.32693660798e-08
2.00471073633e-07
1.0955234298e-07
9.41380447316e-08
1.11171142601e-07
1.27490287326e-07
8.15533798934e-09
7.1053059938e-08
6.96875945069e-08
5.80559394899e-08
4.92853438361e-08
2.57114527282e-08
1.94570718235e-08
8.12994468078e-08
4.21809991874e-09
4.25391805421e-08
5.89099576605e-08
9.49251392032e-09
1.63854411922e-08
6.3766714538e-08
7.03483803063e-08
1.46613104773e-08
1.31520964673e-06
2.8285204519e-06
9.12534556762e-07
9.87455515493e-08
3.19126385988e-08
2.43814235726e-07
1.36135681539e-07
1.53236608553e-07
1.00150390873e-07
1.35779937976e-07
3.21131944113e-07
1.75779547408e-07
9.17570098838e-08
4.21416183071e-08
3.40636211294e-08
3.85490429934e-08
3.86770140971e-08
4.64913554899e-08
6.21986200423e-08
2.91929844727e-08
1.42130061127e-08
2.31628189112e-07
1.43136643503e-07
1.29506595038e-09
5.5863888975e-07
2.01731242368e-07
1.14585367102e-07
5.44437458289e-08
1.14142641225e-07
1.52292587736e-07
1.06302053357e-07
3.13205004859e-09
3.14190430535e-07
4.73840309535e-07
1.14872135759e-07
2.02649962003e-08
6.30136491111e-07
4.28266761965e-07
4.39316933514e-07
3.54923485956e-07
2.70781782116e-07
3.05264902998e-07
2.16560301714e-07
2.40532892718e-08
1.07153818108e-07
5.06719424017e-08
9.94526709985e-08
8.49528339529e-08
3.92689726787e-07
5.07758754515e-07
4.43547414081e-07
1.92296165736e-07
2.10828483401e-07
8.91152431463e-08
1.03979636318e-08
4.01901636152e-07
1.7260764098e-07
1.31206502112e-07
1.00807664479e-07
9.82166601768e-08
4.3712277081e-07
3.24798758453e-07
1.25913194419e-07
8.82719772106e-08
2.62827956295e-07
9.6308597329e-09
3.56831149654e-07
4.58504700775e-07
1.59910442405e-07
5.30469126706e-07
1.56683088863e-07
7.54712029367e-08
7.04676114407e-08
1.62991292037e-07
1.56581720235e-07
1.05755688976e-07
4.07411943112e-07
5.05955335475e-07
7.78145956848e-08
6.30624382409e-09
4.80444088652e-07
2.53153766361e-07
2.11462860785e-07
1.61779385218e-07
4.29268677951e-07
4.86497082432e-07
5.87805524185e-07
6.44224130815e-07
1.90599086827e-07
6.53346468262e-07
2.74561919709e-07
7.50299544044e-07
6.86008423574e-07
8.20508434941e-07
1.42713054463e-06
1.43744992403e-06
6.17992207599e-07
9.85512895264e-07
8.23688482992e-08
5.34341605523e-07
3.40175320535e-07
3.8025441497e-07
5.25738359888e-07
2.69216336498e-09
1.39862499666e-07
1.09460952602e-07
1.18174973302e-06
2.82101237609e-07
1.3138907292e-06
1.15252004749e-06
6.41122775557e-07
4.05024520813e-07
7.19074214634e-08
9.18503575648e-08
3.53800380492e-07
1.7989307011e-08
3.40906468577e-08
1.20151909155e-08
5.72573043814e-09
4.95789960822e-09
8.84059206121e-10
6.95177975158e-09
8.54557398777e-09
1.61025503106e-09
4.07318711305e-09
1.30373851262e-08
5.15268950482e-09
1.1211215333e-08
8.26767929579e-09
2.82969280811e-09
3.61796114831e-09
6.83512541702e-09
3.68997685092e-09
6.63968810407e-09
1.12921282124e-08
1.19156264078e-08
8.80913107652e-09
2.79008033095e-07
3.54539441319e-07
4.69053090975e-09
3.17019122088e-08
4.3517345472e-08
8.31886025262e-08
4.15518923987e-08
5.18902137254e-08
1.35212808936e-08
2.46951486491e-09
1.09174261547e-09
1.10040999536e-07
2.02016842863e-07
5.01016975094e-07
2.57252987936e-07
3.1580666011e-07
7.83315695719e-08
1.10918414116e-07
9.11849102337e-10
2.1371449179e-08
2.24795004909e-07
2.07261383973e-07
2.87632149123e-07
8.40258732277e-08
9.28834157515e-08
2.42178336026e-07
3.44226749775e-08
2.32770057706e-08
2.86544971166e-08
1.34361109927e-07
2.20425876175e-08
5.10940000405e-08
9.22260662648e-08
2.09343351984e-08
3.30578769041e-08
2.52687948872e-08
1.49289002201e-07
2.63218632989e-08
1.21467200775e-07
1.61320095978e-08
8.36179424783e-09
5.99163386964e-09
8.99565407009e-09
1.12643549837e-07
2.5167161351e-08
1.12108967814e-07
5.42858990095e-09
1.99921565628e-08
6.46700510985e-08
5.44892724634e-08
8.8449560245e-09
1.08206802664e-07
1.02931519508e-07
1.90607084249e-07
6.08235488055e-07
3.43545960158e-07
2.58146107797e-08
3.22360585842e-07
1.27569045114e-07
2.07305629183e-07
4.32801826048e-07
1.44663370126e-07
1.15026243144e-07
1.5272031097e-07
3.67570592729e-07
1.52811246336e-08
7.7722509221e-09
2.82504564426e-09
1.9191000436e-09
7.46881675104e-09
1.30878013566e-08
1.14975000934e-08
1.22603295173e-09
4.97693853245e-08
6.60771124392e-08
2.96991888836e-08
4.76346316843e-09
1.19854502709e-07
1.12480173329e-07
3.73865557947e-08
1.49549333946e-07
3.02606959294e-08
2.33339079835e-07
1.74352837379e-07
9.30251752435e-08
1.15151999192e-07
1.57145950786e-07
1.58560119604e-07
8.5707899468e-08
1.47054767151e-07
1.43734272168e-07
3.76639765696e-07
1.30128128357e-07
4.65449428871e-08
2.39962738202e-08
7.08335603343e-08
1.32925414109e-07
1.04079492881e-07
1.33038751115e-07
5.73113143551e-10
4.58201721922e-09
9.78360891587e-09
4.6962533353e-09
1.77907029032e-09
3.80494317304e-11
3.46654742737e-09
5.18323508001e-09
2.77111745633e-09
2.01145333266e-09
4.72419415718e-10
4.9692711382e-10
5.56242653673e-10
8.92398618383e-09
3.39904574895e-08
9.28351295454e-08
1.30542237104e-07
1.68979000503e-08
6.77010528829e-08
3.91464114398e-08
3.38292206207e-07
6.41125115723e-07
3.96722922339e-07
8.86056455079e-07
7.24891403881e-07
7.22998075794e-07
1.71747172398e-07
5.13314873595e-09
5.7943160005e-07
2.88171011151e-07
8.7859504048e-08
8.01000556243e-08
1.45570179799e-08
7.45781942766e-08
7.20194639273e-08
3.98860019487e-07
3.06366211851e-07
3.14260931729e-08
2.46564414027e-07
1.05682828907e-08
5.71301819031e-10
2.10784467243e-08
3.05055909112e-08
9.7387308926e-08
3.62918225639e-08
5.6710043173e-09
4.68221758559e-07
1.44093248831e-08
9.08758564896e-09
1.50572193127e-09
8.2395765755e-09
9.12285555869e-10
4.41703870591e-09
2.48967948074e-08
2.03559180991e-08
5.90619674494e-09
5.27431804634e-09
1.64692909955e-08
3.24476977987e-09
2.15743863939e-08
1.3102231829e-08
4.14807102044e-09
2.76163883587e-10
2.20011089511e-09
7.59109009918e-09
6.42059260248e-08
5.89190285376e-08
1.49658224611e-07
1.86756042449e-07
1.57952342449e-07
1.15451049815e-07
1.3541550775e-07
1.14904226615e-08
7.41795035984e-08
1.69875349356e-09
1.40608967441e-09
6.69727174776e-08
7.38130317228e-08
1.31885850673e-07
1.81220684536e-07
1.38329383269e-07
1.16715049026e-07
5.64365314122e-08
1.05702844339e-07
2.17482817337e-07
1.46575114574e-07
1.7926900656e-07
2.86835924335e-08
1.38215239226e-08
1.30884525512e-08
1.70320324681e-08
1.68895867063e-06
2.36841462548e-06
1.85989785289e-06
1.16290448931e-06
8.06354509188e-07
7.60873309534e-07
9.22150850263e-07
1.26946130181e-06
5.88277007212e-07
1.79679263854e-07
6.8571481162e-07
1.57919337967e-06
9.01682879207e-07
1.17531286816e-06
4.42086580642e-07
3.32652224419e-07
4.61851020328e-08
1.72106818791e-07
1.17308724668e-07
2.42306353828e-07
1.54401567017e-07
1.38502488555e-07
3.82331216918e-08
1.48950467789e-07
1.30476173986e-07
2.6386773794e-07
1.06647327612e-07
1.77067601317e-07
7.11262579674e-08
6.43361320223e-09
1.15678932672e-08
8.37479584354e-09
5.42401997378e-09
5.1752182205e-09
8.93990196289e-09
1.06305953398e-08
1.18455036239e-08
1.76747133233e-08
1.5940650853e-08
1.09026619347e-08
2.54840766845e-09
7.59325888476e-10
1.97231362122e-08
1.28508062388e-08
2.36536592536e-08
1.73171331099e-08
3.19588206956e-08
4.6006269585e-08
1.99140849012e-08
6.33355625859e-07
9.24134215346e-07
2.58678494022e-07
2.03369465205e-07
2.01910350649e-07
3.01919832575e-08
2.69268791112e-08
1.69637642405e-07
1.06133338775e-07
1.36835141776e-07
2.79421717017e-08
9.45632138625e-07
1.74938730191e-06
2.12817621635e-06
9.65095346491e-07
9.5966073975e-07
1.10806382254e-06
1.23600018884e-06
1.91434530133e-06
5.81055873851e-07
4.91907400209e-07
1.38531492795e-07
1.0961121315e-06
4.44726844771e-07
1.03473039435e-06
8.14758691401e-07
3.35256139848e-07
9.08308839144e-07
6.92463198153e-07
9.25829004519e-07
6.68771265548e-07
1.48163828613e-07
1.86449254012e-07
2.38959240184e-07
9.86106579364e-08
5.13498995057e-07
1.27108393959e-06
2.86316626353e-07
1.74688501409e-08
5.43615416931e-08
2.39302190515e-08
1.88237603571e-08
2.25751999188e-08
4.74798235001e-09
1.09441847953e-08
1.10821470551e-08
9.67155876776e-09
5.9942574084e-10
4.05148112186e-08
3.66451694512e-09
2.56265379874e-09
1.51150410634e-09
3.65687846291e-09
1.25355040687e-09
2.0446058529e-09
2.31551891648e-08
1.05160228649e-10
4.4404480041e-09
1.04404793794e-09
2.53463696183e-09
6.40186131339e-10
2.58904832237e-09
5.67849209545e-10
7.03550137247e-10
1.15735697566e-08
2.9856751745e-09
6.43743972848e-09
1.03000284575e-09
3.96628863261e-09
9.70876546035e-12
3.88757110832e-09
1.94401229509e-09
6.97823857203e-10
1.09880705079e-08
4.30985831207e-09
1.01113571988e-09
6.04177822472e-10
7.6386299257e-10
4.99869274109e-09
4.08705912303e-09
1.89928411941e-08
3.38054484101e-09
1.340121074e-09
1.33612337848e-08
3.6107773044e-09
1.397605159e-08
3.07157667519e-07
3.221327372e-07
2.00475177784e-07
1.19024387977e-07
5.12185201458e-08
3.23387825967e-09
6.64398905455e-07
7.6111290351e-07
1.81136418846e-06
9.75026538169e-07
7.46321029814e-07
5.07828506682e-08
2.56632221219e-07
3.5428021271e-07
1.33121433486e-07
1.31282598338e-07
4.36572969357e-07
7.4209135524e-08
1.25875811869e-07
3.94008256173e-07
1.32262512907e-07
5.54453378264e-07
1.55346111953e-07
4.66019237175e-07
1.57936051762e-07
2.9736899511e-07
5.01319712834e-07
2.63091530276e-07
3.99152434028e-07
8.36114394095e-09
2.6449632526e-07
9.42786177492e-08
2.25711571654e-07
7.87178863733e-08
1.32125475999e-07
8.02425549186e-09
1.72103023009e-07
4.19321408752e-08
7.72190553659e-08
2.37215819912e-07
1.34898965798e-07
4.45288395326e-07
7.65340460933e-08
5.27945997796e-07
2.71631166806e-07
2.12732783406e-07
2.73677365175e-07
1.12828287117e-06
7.54408818911e-07
4.57328254586e-07
4.13056327546e-07
2.39546600953e-07
1.61122919352e-07
1.69447957052e-08
1.00647653962e-07
3.11641246553e-07
2.55589581591e-07
8.42730324619e-07
5.46865847474e-07
3.66587035303e-07
2.41274051354e-06
9.29453437513e-07
7.56551918854e-07
1.73977287747e-06
1.5009783401e-06
1.30508687876e-07
1.39847727211e-06
1.15589014516e-05
1.61937460485e-05
2.94227647432e-07
4.48741736201e-07
6.38194660046e-07
1.26516754423e-07
1.56841000748e-07
1.6951843637e-08
1.33578470651e-07
1.65333324253e-07
3.37756163233e-08
4.12590857017e-08
8.14455685405e-08
2.4355605627e-06
2.14915199692e-06
2.56270354419e-06
3.74337124167e-07
2.82567848159e-07
3.68653352493e-07
1.23207179557e-07
2.16815501523e-07
2.14277010386e-07
1.08665113574e-07
3.79200734038e-07
3.35649491431e-07
6.493416949e-08
9.90310426112e-08
2.20942907044e-07
9.85071224021e-08
3.92836397372e-07
4.80575830115e-07
1.99347536338e-07
1.04406376533e-07
9.73436004705e-08
1.20912174668e-07
2.15191652547e-07
8.6314183804e-07
2.91029645167e-07
2.86920470496e-07
6.31041974124e-07
8.86878679615e-07
2.82724361528e-07
5.99463074374e-07
6.2147062324e-07
1.89968540715e-07
1.50691514138e-07
4.08340669671e-07
1.2387515859e-07
1.39568073218e-07
3.65661275521e-08
1.00570415292e-07
6.1797814303e-07
1.01788890555e-06
1.04106229757e-06
1.20263578593e-06
1.50355142405e-07
2.28010790307e-07
2.56916673004e-07
1.33962196503e-07
1.85358041943e-07
1.06711042608e-07
1.28578569991e-07
5.7050079352e-09
8.22166738562e-08
1.45817298216e-08
2.92836432328e-08
4.92751863497e-09
1.09064801973e-08
8.89869709246e-09
3.86908072412e-09
2.80935392414e-08
2.57954283903e-07
2.45953043852e-07
1.01887815545e-08
4.17296389657e-08
1.05917801639e-07
4.17135857144e-08
4.42610023625e-08
1.2060000327e-07
6.50939815821e-08
6.29946473296e-08
7.91830537134e-08
9.39873967663e-08
3.55138974774e-07
6.24758885521e-07
3.65480232289e-07
1.31433437234e-07
4.50696790468e-07