# vtk DataFile Version 3.0
File Name: Molecule/arg/arg_4.0-0.vtk
ASCII
DATASET UNSTRUCTURED_GRID
FIELD FieldData 1
TIME 1 1 double
0.0
POINTS 661 double
-3.403 0.327 1.604
-3.45 0.103 1.078
-2.981 -0.361 1.858
-3.028 -0.584 1.332
-3.298 -0.003 0.536
-2.876 -0.691 0.79
-2.971 0.024 0.066
-2.549 -0.664 0.32
-2.984 0.046 0.042
-2.471 -0.12 -0.363
-2.484 -0.099 -0.385
-2.2 -0.483 -0.862
-2.216 -0.458 -0.889
-3.25 0.578 -0.258
-2.57 0.022 -0.532
-2.777 0.436 -0.766
-2.39 -0.269 -1.153
-2.617 0.185 -1.409
-3.173 1.207 -0.458
-2.716 0.926 -0.921
-2.55 0.723 -1.58
-2.776 1.74 -0.497
-2.407 1.34 -0.951
-2.211 1.177 -1.613
-2.622 1.932 -0.429
-2.287 1.501 -0.894
-2.142 1.682 -0.83
-1.982 1.439 -1.492
-1.81 1.654 -1.416
-2.655 2.421 0.048
-2.046 2.135 -0.548
-2.075 2.574 -0.12
-1.615 2.438 -0.879
-1.647 2.927 -0.402
-2.495 2.657 0.67
-1.932 2.785 0.438
-1.488 3.163 0.22
-2.925 2.572 1.071
-2.137 2.872 1.156
-2.512 2.798 1.506
-1.863 3.333 1.507
-2.279 3.251 1.894
-3.186 2.284 1.521
-2.739 2.546 1.897
-2.53 2.972 2.328
-3.419 1.801 1.788
-2.888 2.359 1.917
-3.122 1.876 2.185
-2.717 2.558 2.345
-2.979 2.017 2.644
-3.567 1.179 1.827
-3.133 1.725 2.369
-3.262 1.186 2.403
-3.107 1.793 3.017
-3.25 1.192 3.055
-3.408 0.559 1.798
-3.123 0.649 2.378
-3.095 0.593 3.027
-3.105 0.348 2.085
-3.1 0.088 1.867
-2.97 0.105 2.152
-3.02 0.504 2.546
-2.901 0.29 2.606
-2.978 0.383 3.085
-2.865 -0.346 2.113
-2.52 -0.7 2.425
-2.794 0.071 2.575
-2.491 -0.24 2.849
-2.645 0.041 3.387
-2.46 -1.117 2.184
-2.148 -0.9 2.844
-2.09 -1.3 2.613
-2.003 -1.142 3.367
-1.937 -1.6 3.103
-2.268 -1.45 1.888
-1.906 -1.62 2.328
-1.726 -1.965 2.777
-1.967 -1.659 1.57
-1.617 -1.821 2.023
-1.396 -2.195 2.428
-1.592 -1.721 1.268
-1.257 -1.88 1.733
-0.984 -2.263 2.097
-2.026 -1.588 0.931
-1.237 -1.838 0.739
-1.646 -1.713 0.421
-0.96 -2.23 0.303
-1.437 -2.084 -0.068
-2.342 -1.257 0.596
-1.944 -1.402 0.106
-1.784 -1.721 -0.435
-2.487 -0.785 0.321
-2.08 -0.956 -0.154
-1.943 -1.202 -0.738
-2.189 -0.632 -0.224
-2.248 -0.516 -0.225
-2.131 -0.618 -0.861
-2.114 -0.682 -1.181
-1.927 -1.264 -1.052
-2.312 -0.441 -1.376
-2.121 -0.506 -1.916
-2.042 -0.816 -1.214
-1.838 -0.886 -1.79
-1.682 -1.348 -1.746
-1.975 -0.256 -2.322
-1.864 -0.768 -1.888
-1.672 -0.441 -2.421
-1.897 0.192 -2.527
-1.57 0.147 -2.691
-1.996 0.646 -2.441
-1.495 0.306 -2.776
-1.602 0.798 -2.682
-1.198 0.386 -3.152
-1.328 0.981 -3.039
-2.011 1.039 -2.18
-1.619 1.224 -2.399
-1.348 1.496 -2.696
-1.72 1.257 -2.235
-1.479 1.817 -1.75
-1.107 2.057 -2.211
-1.346 2.153 -1.415
-1.642 2.007 -1.116
-1.319 2.584 -1.178
-0.816 3.013 -1.267
-1.111 2.259 -1.642
-0.623 2.675 -1.729
-0.543 2.537 -2.312
0.466 3.148 -0.891
-0.416 2.926 -1.599
0.331 3.005 -1.38
-0.131 2.956 -2.042
0.328 3.005 -1.907
-0.002 3.1 -2.533
0.456 3.148 -2.398
-0.048 3.337 -3.001
0.699 3.415 -2.782
0.833 2.913 -0.61
0.619 2.806 -1.364
0.976 2.577 -1.092
0.892 2.689 -1.891
1.303 2.425 -1.576
1.057 2.557 -0.305
1.192 2.232 -0.796
1.553 2.026 -1.234
0.979 2.767 0.195
1.539 1.918 0.039
1.462 2.128 0.539
0.737 2.845 0.68
1.22 2.206 1.024
0.406 3.093 0.833
0.71 2.572 1.142
0.419 2.789 1.277
0.841 2.425 1.643
0.539 2.651 1.783
1.112 2.426 2.108
0.748 2.699 2.276
0.011 3.456 0.651
0.05 3.076 1.433
-0.284 3.383 1.279
-0.034 3.266 2.099
-0.415 3.616 1.924
-0.504 3.599 0.465
-0.72 3.504 1.122
-0.913 3.754 1.744
-1.038 3.495 0.311
-1.173 3.416 0.991
-1.429 3.653 1.595
-1.554 3.135 0.914
-0.08 3.426 2.677
0.304 2.919 2.221
0.258 3.08 2.801
0.695 2.881 2.933
-0.313 3.4 3.231
0.024 3.055 3.358
0.431 2.852 3.563
-0.687 3.194 3.654
-0.352 2.847 3.783
0.006 2.617 4.044
-1.222 3.175 3.77
-0.58 2.815 3.881
-1.2 2.794 4.016
-1.756 3.136 3.659
-1.82 2.748 3.887
-2.199 3.083 3.341
-2.333 2.687 3.518
-2.473 3.025 2.87
-2.65 2.619 2.973
-0.832 2.373 4.277
-0.242 2.183 4.431
-1.061 1.806 4.483
-0.466 1.628 4.634
-1.434 2.302 4.313
-1.452 1.611 4.604
-1.773 2.038 4.456
-1.892 2.602 3.976
-2.169 2.297 4.166
-2.355 2.652 3.532
-2.568 2.341 3.783
-2.74 2.445 3.06
-2.9 2.162 3.376
-1.464 1.095 4.666
-0.956 1.592 4.533
-0.968 1.074 4.596
-0.48 1.041 4.705
-1.655 0.731 4.634
-0.882 0.784 4.614
-1.066 0.434 4.582
-0.333 0.517 4.869
-0.555 0.096 4.831
-2.14 0.383 4.441
-1.246 0.178 4.538
-1.7 -0.148 4.358
-0.878 -0.357 4.785
-1.429 -0.753 4.566
-2.498 0.133 3.99
-2.035 -0.382 3.936
-1.836 -1.037 4.053
-2.172 -0.468 3.371
-0.383 -0.749 5.065
-0.05 -0.304 5.117
0.164 -1.171 5.088
0.507 -0.734 5.141
0.4 -1.671 4.946
0.615 -0.976 5.092
0.839 -1.451 4.956
1.043 -0.806 5.264
1.279 -1.306 5.122
0.636 -2.087 4.632
1.063 -1.845 4.659
1.514 -1.722 4.808
0.844 -2.371 4.183
1.26 -2.115 4.232
1.723 -2.007 4.359
1.002 -2.493 3.648
1.411 -2.231 3.724
1.881 -2.129 3.824
1.092 -2.439 3.086
1.496 -2.18 3.191
1.971 -2.075 3.263
1.104 -2.215 2.561
1.508 -1.967 2.692
1.983 -1.85 2.738
1.037 -1.846 2.131
1.444 -1.616 2.284
1.916 -1.481 2.307
0.647 -2.269 2.118
0.798 -1.688 1.555
0.487 -2.024 1.545
0.806 -1.676 0.912
0.496 -2.012 0.902
1.061 -1.813 0.337
0.67 -2.236 0.324
0.119 -2.499 2.107
0.068 -2.206 1.536
0.076 -2.194 0.893
0.142 -2.466 0.313
-0.457 -2.497 2.099
-0.39 -2.205 1.53
-0.381 -2.193 0.887
-0.434 -2.464 0.306
-0.808 -2.019 1.528
-0.8 -2.007 0.885
1.48 -1.078 0.031
1.043 -1.422 0.814
1.323 -0.93 0.61
1.205 -1.217 1.373
1.436 -0.812 1.205
1.517 -1.238 1.905
1.797 -0.747 1.701
2.335 -0.746 2.002
1.639 -0.712 -0.547
1.476 -0.549 0.311
1.615 -0.229 -0.195
1.697 -0.118 0.66
1.842 0.216 0.134
1.693 -1.21 -0.838
1.805 -0.426 -1.067
1.853 -0.872 -1.327
2.201 -0.141 -1.444
2.253 -0.62 -1.722
1.568 -1.637 -1.21
1.741 -1.254 -1.66
2.133 -1.029 -2.079
1.279 -1.936 -1.614
1.483 -1.521 -2.022
1.857 -1.315 -2.467
0.866 -2.068 -1.998
1.113 -1.639 -2.366
1.46 -1.442 -2.835
0.381 -2.015 -2.311
0.679 -1.593 -2.646
0.995 -1.392 -3.136
-0.112 -1.786 -2.513
0.238 -1.387 -2.827
0.523 -1.172 -3.329
-0.548 -1.409 -2.576
-0.152 -1.05 -2.884
0.104 -0.811 -3.39
-0.822 -1.287 -2.506
-0.408 -0.948 -2.806
-0.669 -0.831 -2.739
-0.336 -0.591 -3.197
-0.616 -0.466 -3.125
-1.31 -1.347 -2.194
-0.988 -0.705 -2.664
-1.485 -0.767 -2.346
-1.322 -0.31 -2.728
-0.95 -0.071 -3.189
-0.311 -0.212 -3.619
0.128 -0.454 -3.788
-0.16 0.24 -3.931
0.27 -0.03 -4.081
0.101 0.716 -4.098
0.516 0.418 -4.238
-0.411 1.252 -3.909
0.377 1.347 -4.4
0.11 1.626 -4.301
-0.398 1.946 -3.588
0.117 1.987 -4.134
-0.106 2.463 -3.53
-0.202 2.855 -2.684
0.028 3.029 -3.665
0.9 3.106 -3.671
0.173 2.486 -3.833
0.85 2.546 -3.838
0.989 2.064 -4.14
0.819 3.383 -2.845
1.267 2.733 -3.406
1.204 2.948 -2.765
1.749 2.404 -3.353
1.668 2.681 -2.526
0.902 2.914 -2.485
0.749 2.956 -2.405
1.123 2.627 -2.01
1.688 2.19 -1.733
1.962 2.454 -2.382
2.133 1.624 -1.992
2.194 2.159 -2.516
2.141 1.301 -1.585
2.428 1.273 -2.257
2.435 0.969 -1.874
2.042 0.907 -1.262
2.342 0.599 -1.57
1.911 1.516 -1.257
1.855 0.911 -0.632
1.743 1.428 -0.628
1.976 0.918 0.014
1.858 1.462 0.018
1.44 1.861 -0.608
1.861 0.778 -0.544
1.751 0.201 -0.446
1.991 0.665 -1.105
1.878 0.074 -1.004
2.497 1.237 -3.182
2.241 1.687 -2.422
2.29 1.662 -3.078
2.232 2.14 -3.028
1.83 1.363 -3.817
1.817 1.751 -3.528
1.863 2.209 -3.379
1.382 0.739 -4.338
1.413 1.57 -3.947
1.095 1.128 -4.316
1.103 1.869 -4.167
0.855 1.524 -4.455
0.482 0.901 -4.245
1.404 2.01 -3.684
1.315 2.161 -3.664
2.007 0.383 0.735
1.766 -0.192 1.22
2.031 0.236 1.284
1.991 -0.414 1.693
2.267 0.032 1.759
2.675 -0.196 2.083
2.074 0.941 0.928
2.088 0.713 1.449
2.326 0.528 1.931
2.749 0.417 2.295
1.884 1.434 1.198
1.926 1.135 1.68
2.158 0.967 2.172
2.541 0.959 2.592
1.624 1.884 1.117
1.755 1.469 1.75
1.503 1.904 1.671
1.842 1.579 2.299
1.557 2.073 2.21
1.11 2.216 1.58
1.886 1.845 2.759
2.132 1.224 2.493
2.174 1.477 2.929
2.585 1.225 3.051
1.814 2.002 3.263
2.105 1.625 3.407
2.513 1.382 3.555
1.633 2.033 3.763
1.933 1.655 3.881
2.331 1.413 4.055
1.359 1.937 4.21
1.674 1.563 4.305
2.058 1.316 4.502
1.021 1.721 4.561
1.354 1.359 4.638
1.72 1.101 4.853
0.651 1.408 4.781
1.002 1.062 4.847
1.35 0.788 5.074
0.073 1.245 4.841
0.82 0.891 4.947
0.23 0.725 5.008
0.672 0.387 5.179
1.205 0.294 5.301
0.564 -0.173 5.245
1.099 -0.256 5.367
-1.999 2.782 0.776
-1.065 -1.824 1.176
1.419 -0.545 0.696
1.7 -0.166 -0.791
-3.196 2.043 -0.114
-3.592 1.578 -0.026
-3.592 1.985 0.326
-3.196 2.357 0.319
-3.592 2.137 0.843
-3.196 2.469 0.843
-3.592 1.985 1.36
-3.85 1.69 0.843
-3.85 1.435 1.283
-3.592 0.264 0.574
-3.85 0.672 0.843
-3.85 0.927 0.403
-3.592 0.555 0.121
-3.592 1.045 -0.103
-3.85 1.435 0.403
-3.94 1.181 0.843
-3.85 0.927 1.283
-3.592 0.555 1.565
-2.722 -1.154 1.098
-2.722 -1.154 1.636
-2.722 -0.863 2.089
-2.326 -1.497 1.099
-2.482 0.597 -1.975
-2.482 0.047 -1.975
0.763 3.18 -0.086
0.367 3.4 -0.61
0.367 3.512 -0.086
0.367 3.4 0.438
-0.118 3.59 -0.615
-0.118 3.688 -0.086
-0.634 3.59 -0.615
-0.634 3.688 -0.086
-1.119 3.512 -0.086
-1.119 3.4 -0.61
-1.119 3.086 -1.043
-0.667 3.796 3.018
-0.667 3.906 2.497
-1.198 3.918 2.998
-1.198 3.65 3.431
-1.198 3.918 1.996
-1.198 4.012 2.497
-1.729 3.906 2.497
-1.729 3.796 3.018
-1.729 3.482 3.449
-1.729 3.796 1.976
-2.179 3.606 2.497
-2.179 3.474 2.987
-1.895 1.335 4.734
-2.426 1.603 4.572
-2.426 1.073 4.627
-2.426 2.064 4.305
-2.876 2.056 3.843
-2.876 1.697 4.202
-2.876 1.207 4.334
-2.876 0.717 4.202
-2.426 0.566 4.463
-3.176 1.738 3.353
-3.176 1.472 3.813
-3.176 0.942 3.813
-2.876 0.358 3.843
-3.176 0.676 3.353
-3.282 1.207 3.353
0.578 -2.491 4.272
0.08 -2.472 4.525
0.08 -2.776 4.08
0.578 -2.727 3.81
0.08 -2.934 3.566
0.578 -2.808 3.297
0.08 -2.934 3.028
0.578 -2.727 2.784
0.08 -2.776 2.514
0.08 -2.052 4.861
-0.44 -2.052 4.861
-0.44 -2.472 4.525
-0.44 -2.776 4.08
-0.44 -2.934 3.566
-0.44 -2.934 3.028
-0.44 -2.776 2.514
-0.44 -1.551 5.057
-0.938 -1.149 4.956
-0.938 -1.662 4.875
-0.938 -2.124 4.639
-0.938 -2.491 4.272
-0.938 -2.727 3.81
-0.938 -2.808 3.297
-0.938 -2.727 2.784
-0.938 -2.491 2.322
-1.374 -1.149 4.675
-1.374 -1.677 4.571
-1.374 -2.124 4.272
-1.374 -2.423 3.825
-1.374 -2.527 3.297
-1.374 -2.423 2.769
-1.714 -1.289 4.273
-1.714 -1.795 4.042
-1.714 -2.095 3.575
-1.93 -1.406 3.742
1.624 -1.33 -0.389
1.408 -1.719 -0.089
1.408 -2.019 -0.556
[...]
CELL_DATA 1318
SCALARS cell_data_0 double
LOOKUP_TABLE default
2.05940167785e-08
3.79737125028e-09
5.79592074067e-09
1.09759206682e-08
4.34348599354e-08
1.26197329198e-08
3.88342820493e-08
2.02840718088e-08
1.60794362047e-08
8.29743527495e-09
8.80470935742e-08
7.22740680134e-08
1.42728249689e-07
3.29175414397e-08
9.90551313047e-10
6.17380060622e-09
4.93798602698e-09
7.71029621083e-08
4.68398032166e-08
6.92128976642e-08
7.11516975225e-08
1.2551799626e-07
3.80400425428e-08
4.08402216771e-08
2.53806874276e-08
7.84980200297e-09
6.95088566981e-08
7.1130239165e-08
7.61798147509e-08
1.08176816012e-07
1.00011938022e-08
4.4511687052e-08
8.13670602423e-09
1.77271533586e-08
1.51976037746e-08
1.22976834816e-08
2.62465739984e-08
1.76886195267e-08
3.13716084747e-10
2.33881507141e-08
1.4132629919e-08
5.2561627498e-09
4.08679510588e-09
1.27629900315e-08
1.52364676052e-08
1.58590637671e-09
2.39794231475e-09
9.40371481382e-09
2.97564456867e-08
3.74040535364e-09
3.31052290365e-08
3.71999315159e-08
3.27303165854e-09
8.60825655458e-09
1.77526167576e-09
9.74081957672e-09
7.89577507399e-09
1.02216261714e-08
2.20976701605e-08
1.78369245973e-08
4.10500393779e-09
6.43502662278e-09
1.77247037774e-08
6.7399734509e-08
3.66959899827e-08
5.67803940259e-08
2.69250401077e-07
1.56416538652e-07
9.15344042898e-07
7.90994639918e-08
5.8337580689e-08
1.6006384598e-07
2.72782828682e-07
1.29253504831e-07
9.27972721352e-08
3.7212911593e-08
1.3517125858e-07
5.081894089e-08
9.99774963362e-08
4.57621070587e-08
4.62265564925e-08
4.04912052991e-08
6.85046794738e-09
6.68332596555e-08
1.04831328545e-07
3.94623765799e-08
2.38622947658e-08
2.37442280282e-08
3.98670865472e-08
5.49528306632e-09
6.86875087205e-08
6.98418277012e-08
1.68317560463e-08
2.36299089094e-10
4.58681282844e-08
3.83392320082e-08
1.96983220279e-08
2.6270454738e-08
5.25677449364e-08
5.75972166382e-08
1.89555149181e-08
8.33019549041e-09
2.75235259746e-09
8.02380413662e-08
3.92709064677e-08
4.86714323616e-08
1.07754335963e-08
3.51607531485e-08
6.57295469086e-08
7.92926002744e-08
8.61506733862e-08
3.78062880406e-08
1.56930324088e-07
2.33047921882e-08
9.36324402249e-08
1.36816320159e-07
3.42679868885e-09
9.04946029314e-08
2.00623304477e-08
3.48676024246e-08
1.31076690679e-07
7.6556304784e-08
3.20853176369e-08
7.55935433822e-08
1.44665343928e-08
2.98324795188e-08
1.73846779428e-08
6.61569468108e-08
3.54726424165e-07
1.96185373659e-07
3.26297523106e-07
1.83768354377e-08
1.04288468092e-07
5.20357728058e-08
1.5529780082e-07
1.49792822891e-07
2.65347850164e-07
2.81289022386e-06
5.42353256124e-09
4.4651679026e-08
3.22790339978e-07
3.54404540106e-07
5.33420082576e-08
1.01841101011e-07
1.3193043677e-08
1.0963490018e-07
1.24236383781e-08
1.84841515984e-08
7.22268434553e-09
2.8381405432e-09
1.19012429126e-08
9.62115891937e-09
4.36725740734e-09
2.58162557484e-08
1.76182498936e-08
7.91938569943e-08
4.44501951404e-09
1.72953822674e-08
1.75095660542e-08
2.157749082e-08
3.70130644783e-09
5.18970647375e-09
9.04603805772e-09
9.82704980916e-09
5.79012844855e-09
9.35647896433e-09
6.74693029632e-10
1.19608025829e-09
8.34015290472e-09
1.41961053252e-08
6.17783284571e-09
3.06267266461e-09
1.91409842534e-09
3.42194470978e-08
3.11628407996e-08
3.40977796767e-08
1.43832773696e-09
2.60080113641e-08
1.03985864319e-07
2.22292411334e-07
1.04760588199e-08
1.34829506163e-08
3.12415901019e-08
1.27833917798e-07
1.58975412866e-09
1.43685727247e-08
2.78197384596e-09
2.75598873051e-09
1.59995510253e-10
6.04504633267e-09
4.06889009682e-09
5.31204481285e-09
9.42614863073e-09
1.51309676102e-08
2.84668753244e-08
4.81835013106e-08
7.63631531419e-09
2.32023013289e-08
1.57915497386e-08
5.04414353781e-09
2.06162656216e-10
8.50443389959e-10
3.2671667354e-09
2.58292012244e-10
4.4131824313e-09
4.27013265942e-09
2.96156818932e-10
6.18198286402e-09
1.17708632628e-08
1.6546537893e-08
6.58766484044e-09
2.43966759738e-08
7.50199539053e-10
7.95072391371e-09
1.19975864852e-08
2.649465607e-10
3.38520804282e-09
5.16923969515e-08
1.09658980401e-07
3.47955764942e-08
4.36753951885e-08
1.15450018302e-07
2.35479004491e-07
2.08719778194e-07
1.35540050225e-07
3.03576834646e-07
1.72939657433e-07
4.92862529463e-07
5.88672445277e-08
8.79701201546e-10
4.25568092685e-08
6.34539448469e-09
2.25663030363e-08
1.42593557307e-09
2.77460902437e-08
4.23329171524e-08
8.29263130551e-09
1.16873470423e-07
2.06154593936e-08
7.92973673501e-08
1.52390863366e-07
2.77671006121e-07
1.22846080864e-07
3.43902796972e-08
1.44463658473e-07
1.56868021228e-07
1.03834336747e-07
1.07146599954e-07
2.51764883423e-07
7.27404718605e-08
2.31209742836e-08
1.02417884507e-06
1.36650594587e-07
1.49596959584e-09
1.10183347433e-07
2.98278374579e-07
1.59148256373e-08
1.61614569042e-08
3.6459461799e-08
3.93745262559e-08
8.78574011894e-08
6.25956023009e-08
1.39165228627e-07
3.78804973325e-08
3.49217085447e-07
6.73798532529e-08
8.85464059027e-08
5.69268313115e-09
3.84420803744e-08
1.4758353181e-08
1.50899147573e-07
6.32735449861e-08
5.06056201636e-08
9.26849717262e-09
3.34349984802e-08
5.12487267263e-08
1.02998901251e-07
3.11151042975e-08
6.62251138378e-08
1.61530265815e-08
9.0181269608e-08
5.46477383751e-08
7.59295040356e-08
5.88627128528e-08
3.7531713308e-07
1.79824448269e-07
5.62879110394e-08
3.95006884242e-08
1.67129036403e-08
5.55444516687e-08
1.12425027279e-08
4.24055324189e-08
6.48915484695e-08
8.91287232927e-08
2.71579582779e-09
1.43196005834e-09
2.67587491281e-08
8.03417517481e-08
1.0384659826e-07
1.31877038773e-07
1.21932890656e-08
9.5587892536e-08
7.0632904228e-09
1.2756622737e-07
2.51439863086e-08
8.0099620461e-08
3.53892888696e-08
1.05161062559e-07
3.93405619481e-08
6.41238910062e-08
7.58825249653e-08
7.29522267971e-08
6.06255636119e-08
4.41006628908e-08
1.20416733319e-07
6.41139279269e-08
7.56616874138e-08
2.4010655819e-08
1.91872996108e-07
5.66133109674e-09
8.73988668948e-08
2.047324724e-08
2.82099617693e-07
1.03937305232e-07
1.93558859954e-08
3.83263009969e-08
4.81097500564e-08
3.12650105127e-08
1.54619191038e-08
3.18336807218e-08
1.26173871786e-09
5.01234342834e-08
3.34601610896e-08
4.28799954815e-09
7.48441815771e-09
7.24364644958e-09
8.39739144437e-08
1.03561310528e-07
1.65595635155e-07
8.22867120716e-08
3.25673032488e-07
6.4037883075e-08
2.89398639222e-07
6.27854154375e-07
1.67178059192e-07
4.88122876504e-08
8.95427877968e-07
1.84003017986e-07
3.01209045687e-07
7.6907064354e-07
1.9561107396e-06
6.75370742026e-07
7.30315202708e-07
1.95161909924e-06
2.35612892926e-06
4.68067538172e-07
1.58604197857e-06
1.67684405139e-06
5.55504683434e-07
4.42718536719e-07
5.27469281743e-07
1.91461361121e-07
1.85433947242e-06
1.957190561e-06
1.63505179163e-06
6.46414743972e-07
6.97809331641e-08
1.71263490264e-07
9.8343623591e-08
8.34623453709e-08
2.93025387448e-08
2.59512939928e-08
6.8636567722e-08
4.34493378772e-08
4.58701247235e-08
1.42086820967e-07
8.99092418255e-08
1.38334410572e-08
2.83029304847e-08
5.86212478949e-08
6.991315012e-08
1.45997537013e-07
4.51084030135e-08
2.85363153523e-07
1.02464672522e-06
4.96862710951e-07
2.52141485617e-06
2.76929904156e-07
4.09523593021e-09
9.15652309776e-07
1.47432308876e-06
1.76951922419e-07
1.70513259708e-06
8.14796643694e-07
2.84164309395e-06
8.93819723894e-07
6.36701452313e-08
5.86759374689e-07
6.88597834681e-08
4.34337967745e-07
2.66339962907e-07
3.34998177927e-07
4.06426934279e-07
1.9455664105e-07
1.72222969836e-08
2.63191465527e-08
1.55367342047e-08
1.57830278453e-08
1.09667832277e-08
2.83570466526e-10
2.60993333568e-08
1.02759481742e-08
1.81010019016e-08
2.03861095593e-08
3.90483555339e-08
7.65062948539e-08
1.95128035104e-08
2.50918991877e-08
4.20070497784e-09
1.99291576592e-08
1.20193021338e-08
1.09343986646e-07
3.66340433264e-09
4.48374969252e-08
6.5237397038e-08
4.02998202251e-08
1.72515160406e-08
9.10029050156e-09
6.44517166891e-08
6.80291898898e-08
4.70687862864e-08
2.26803636406e-07
7.50908419425e-08
1.3475921999e-07
2.14609155483e-07
1.63514921503e-07
6.14667489669e-08
9.07427340616e-08
1.47571921014e-07
1.84636758573e-08
7.32296960434e-08
4.67416234475e-07
1.361424961e-07
5.2691035497e-08
1.57282476783e-07
3.62359413895e-07
1.0845628439e-08
5.92478716081e-08
1.23363217236e-08
1.15577631543e-07
1.80352748552e-08
4.87492023644e-09
9.31080491488e-09
3.83961214551e-09
2.82195353255e-08
1.3998908943e-08
3.1306302167e-09
1.42546911977e-08
1.73106479553e-08
5.245317655e-09
5.99103919756e-09
5.4200874281e-09
3.42612559283e-08
1.20316862505e-08
1.80710347537e-08
2.54054551046e-09
5.91571990457e-08
8.98012237567e-08
5.82940493209e-08
1.46940314056e-08
4.35701655146e-08
4.36292767723e-08
1.10445758519e-08
1.14422175566e-08
6.4944275396e-08
2.04592107993e-08
8.50757997e-08
1.53277790869e-08
1.7663019211e-08
2.69601089865e-08
3.41294371815e-08
8.38472863731e-09
1.81397456384e-09
1.65746274978e-08
4.23131784978e-09
1.00033551618e-08
1.11803088179e-08
1.30664034183e-08
8.91142190901e-09
1.11600382865e-08
1.90312171792e-08
2.12628815155e-08
1.69603450247e-08
3.07827434217e-08
2.00582863493e-08
3.20584153214e-08
4.54669531121e-07
7.84725436171e-07
3.81045054504e-07
7.61771306315e-07
3.62667248192e-08
3.04296173773e-08
7.64829976296e-08
1.32945284804e-07
2.62657750991e-10
1.7388060339e-08
2.73328465562e-08
6.32598441976e-08
3.24268479597e-08
4.04321734154e-09
2.25019621539e-08
2.94881414887e-08
3.98930858209e-08
3.78834829776e-08
5.69005831521e-08
6.66618754742e-09
8.69437948152e-08
5.55526264093e-08
1.0349294857e-07
1.25385636993e-07
1.22676802659e-08
3.24164342883e-07
1.26627261564e-07
9.18671185784e-07
2.58408141902e-07
4.97983592919e-08
1.74212754534e-07
8.11047111353e-07
4.02418517518e-07
7.21106767644e-08
1.90307998022e-07
7.36643760627e-08
1.41595922605e-07
5.59992904811e-08
9.03385832252e-08
1.43192185568e-07
2.13327389872e-08
1.68234836598e-08
2.89638466009e-08
2.37510511867e-09
5.99053925608e-08
1.38031238772e-08
3.25554127615e-09
3.48747904236e-08
4.65702525778e-09
1.20287269381e-08
4.23850423999e-10
3.23847680898e-09
5.78622381908e-10
2.00343887215e-08
1.90927308093e-09
9.6945126324e-11
3.85701155467e-08
7.45895047212e-09
1.91887023968e-09
4.03895588663e-09
1.85874441339e-10
2.103131338e-08
1.50359668245e-08
7.36658348269e-09
1.38377528534e-08
2.0069101545e-07
1.55022527412e-07
5.7903966768e-08
2.75005614927e-08
2.12957847519e-08
3.72400605377e-08
1.71341138807e-08
4.43772133128e-08
5.11912476427e-08
2.14930322483e-07
1.05357263681e-07
3.53168923374e-08
2.88386852668e-08
8.95242787559e-08
4.79370371685e-09
8.92650687322e-08
2.50689998839e-08
6.39316174243e-08
1.40298602871e-08
1.52096408085e-08
5.14452937457e-08
7.13813244517e-09
2.76286582284e-08
1.59597800279e-08
2.43267919881e-08
5.28272398521e-07
3.8609793394e-07
1.32838134987e-06
1.32678508465e-06
2.15243115383e-06
2.86433116182e-06
1.34094361264e-06
2.72046771136e-06
3.13217887042e-07
1.26591248823e-06
7.67007755225e-07
8.78890576976e-08
1.28899484931e-07
6.81115942452e-08
3.93370986875e-08
4.42437985152e-09
4.13175775593e-08
8.90989312508e-07
2.51100530927e-07
6.01583025145e-07
2.05386421209e-07
6.3655651035e-08
3.96235206805e-08
1.54794103939e-07
5.76718662944e-08
2.93371920575e-08
1.31134989541e-08
8.54504645448e-09
8.17848382124e-09
2.52299877238e-09
4.49574394902e-09
9.12049701449e-09
1.92751967908e-09
5.85738059349e-10
3.32330392745e-11
5.14728937153e-09
4.79894737327e-09
1.3895852802e-09
2.90064319822e-09
8.75936653401e-10
3.88927459843e-09
2.35091313871e-09
3.11450093918e-09
3.10474804198e-11
1.04756682805e-09
2.51983434402e-09
1.08671953966e-09
8.42780046431e-10
1.25943872815e-08
1.40853486375e-09
6.32625736482e-09
5.50725799334e-09
2.34354180122e-09
2.08278878446e-09
2.12277855878e-09
9.00879958381e-09
1.65279897986e-09
7.69850256999e-11
6.10117810998e-10
7.60595569697e-09
5.26693318758e-09
7.05994717825e-09
2.62988538423e-08
1.7258548944e-08
2.10371819174e-08
1.91525840574e-08
8.3526288692e-09
1.34779185974e-08
9.40922735474e-10
1.038306662e-08
2.3676900177e-08
3.02171076991e-09
2.23372782298e-08
2.49373739728e-09
6.64425767169e-09
1.04133123425e-08
1.30200578432e-08
1.58453953914e-09
1.28720703866e-08
2.49860572368e-08
2.34678698769e-10
1.83126177191e-08
1.28615684878e-08
3.76618947536e-08
3.61892328806e-08
3.56215318595e-08
6.75917600426e-09
4.86174054279e-08
1.43566044655e-08
8.07969178824e-08
2.09517212669e-09
4.0304837915e-08
4.2819867732e-08
5.87018647477e-08
7.10881546746e-09
1.3080322196e-08
4.7489756779e-08
7.76356636588e-08
1.62476326268e-08
1.22273870467e-07
6.89363940437e-08
6.00350261067e-08
9.98376704401e-08
4.30538505387e-08
6.99341420253e-08
3.25406698789e-08
5.87506466049e-08
1.55162418542e-08
1.82316584166e-07
8.79715875629e-08
8.81698606277e-09
3.04253348065e-08
9.19391329149e-08
2.36685950801e-09
1.99150304707e-08
2.59643612145e-08
1.35223839912e-08
1.81865586752e-09
6.42187036657e-10
5.15525172785e-09
2.92740517353e-09
4.0912714553e-09
7.30440273172e-09
1.73389999027e-09
1.07441626775e-08
1.76936879285e-08
1.63331653472e-08
1.34250414941e-08
4.66039975863e-09
2.40201144653e-09
5.00449448674e-09
8.44374525234e-09
4.41671133157e-09
4.1392212434e-09
4.76391142757e-08
3.59875037281e-08
3.63215547396e-08
4.76789493485e-08
7.64398674896e-08
1.18888851863e-07
2.76923431165e-08
3.114485854e-08
1.16794773302e-08
2.96242595192e-08
4.15889351134e-08
2.82393259232e-08
8.1790464246e-08
1.27289212832e-10
6.24831874053e-09
5.86129467086e-09
2.31872081085e-10
3.29808791133e-09
5.14237981439e-10
3.5207553073e-11
1.18140568851e-09
1.50822843028e-09
1.76314414916e-09
6.98898966308e-10
3.56794835732e-10
3.25183714349e-10
9.18525766093e-09
2.08048143553e-09
1.75445345063e-08
3.11432665294e-09
7.67047971184e-09
3.39533385921e-09
5.62608444919e-09
4.44752709365e-09
3.74858311962e-10
7.50119727787e-11
9.31381014344e-09
1.0823514094e-08
5.36497855192e-09
1.59095062123e-08
6.34305273721e-09
1.19440978229e-08
5.00128774137e-09
3.07212168696e-09
6.49686233694e-10
7.97290123564e-09
1.29830461548e-08
2.54591709677e-09
1.90041050758e-08
2.48986437005e-08
8.90570109876e-09
3.47154065182e-09
1.51824534541e-09
5.04372706349e-09
6.20731989264e-09
4.16914632055e-09
8.97587628195e-09
8.69828112976e-09
1.43042182924e-08
1.95085346921e-08
1.12507315455e-08
2.86148662086e-09
3.80672060343e-09
4.23829375174e-10
2.09586575465e-09
2.51766494519e-09
1.16585775535e-08
9.20729725745e-09
3.83488905513e-09
3.06494979364e-09
5.59637558152e-09
1.40266940569e-12
1.48965832935e-08
5.14146764434e-09
3.15181881439e-09
2.66297332286e-09
3.05082194955e-09
4.55484372823e-09
7.15952040557e-09
1.75325208754e-08
1.78664591962e-08
4.42635437062e-10
5.11593862157e-09
2.10956983629e-09
4.41177092928e-09
7.80084654975e-10
4.17958861336e-09
1.56491183433e-08
8.37160900013e-09
6.04264213411e-09
8.10742980795e-09
9.6209560079e-10
1.78991959689e-08
3.29456504852e-09
2.17992837571e-09
4.23369782863e-09
1.42218210226e-09
7.65281133579e-09
1.3177235435e-09
1.06854769986e-08
7.4743316865e-10
2.83848436547e-09
1.78908249331e-08
1.79624959874e-07
4.3137059804e-08
3.42151583685e-08
4.48696239474e-07
2.14088217262e-07
1.19975347382e-07
1.88936090227e-07
6.21748280192e-08
1.43234056318e-07
1.84866935063e-08
2.61550963878e-07
4.66398170844e-07
3.60349626703e-07
7.43271837841e-07
6.60553774066e-07
2.57553263972e-07
1.90970597984e-07
4.8864789118e-09
3.25147023855e-08
1.56224292576e-08
8.33575405529e-08
6.95931041213e-08
1.14435410512e-07
1.80881266423e-07
2.85979711041e-08
1.77998376643e-07
8.88872191088e-08
5.72313760871e-08
5.99900664048e-09
3.08107164888e-08
1.35703099337e-09
1.06866633738e-08
1.50016142125e-08
5.08591795985e-11
1.88915245953e-08
4.84434245672e-09
2.17442751068e-08
1.91512573729e-08
1.47448606773e-08
1.10617492591e-08
7.0895778745e-09
1.90548234783e-09
1.73979468191e-08
6.73957217307e-08
1.06195835145e-08
1.82403031539e-08
2.83492866284e-08
2.34028179705e-08
9.37771009508e-08
5.01302401825e-08
2.15149814314e-07
3.82501366131e-07
9.74287289227e-08
1.58887300902e-08
4.44236027766e-08
9.18846675333e-09
4.23838445769e-08
1.16769745632e-08
2.23402741849e-08
1.6603816324e-08
7.53056723147e-08
1.81024800788e-07
3.4361472839e-07
1.57173889505e-07
1.64058295256e-07
2.45041444503e-08
2.8368652781e-07
2.96384867226e-07
2.63811304075e-07
4.09075726168e-07
1.87398132265e-07
2.99177490174e-07
5.89494046835e-08
1.2002793763e-07
1.06821800514e-08
6.77853447642e-08
2.79095450044e-09
2.05254680786e-08
1.06345686798e-08
3.4580466558e-08
1.05483665752e-07
1.5627383997e-08
4.20646610871e-08
2.36268347589e-08
1.12006592185e-07
1.47603149941e-07
2.54354890743e-07
1.10964152019e-07
3.31666810615e-08
4.12058767207e-10
2.06200731801e-08
6.05843664161e-09
1.40831339649e-08
2.09581584657e-09
1.86989526508e-09
5.63154626891e-09
3.84483543207e-10
4.7501812548e-10
2.86196813085e-08
1.6506955303e-09
1.76698470442e-09
1.61358453049e-09
3.31402982811e-09
5.1728152032e-10
6.84255679049e-10
2.64808106425e-08
8.51207708884e-09
2.16108341055e-09
3.05497384489e-09
4.84784469151e-09
8.06003186016e-10
1.61647348233e-09
4.43418261954e-10
5.47302459361e-11
8.0695695957e-09
1.93857786769e-10
8.92645240872e-09
3.44570163193e-09
1.71041599983e-09
2.7515598432e-09
4.2818190939e-09
1.5713817576e-09
1.32317719005e-09
7.57095492863e-09
5.31808764765e-10
3.66980616553e-09
1.38112925111e-09
1.86041866287e-09
3.01166267124e-09
3.14604148289e-09
1.74974032807e-08
6.55102074382e-09
5.51384094331e-09
1.63753484352e-08
6.9682176571e-09
1.23191371536e-08
1.25423845474e-08
3.75561832952e-08
8.14110574242e-09
1.54526000091e-08
1.06643641276e-08
2.97710787364e-08
4.15576402606e-09
1.54106392872e-08
6.86677481497e-09
8.10195994879e-09
1.01247769753e-08
8.44874816382e-09
1.70103071531e-08
1.35863331574e-08
2.10385502459e-08
4.52047208622e-08
4.17498951873e-08
2.55066465229e-08
6.43325258983e-09
5.72396310291e-08
1.08323049339e-07
1.7362304133e-07
2.33761937905e-07
2.59994682078e-07
2.17369658506e-08
5.3480433913e-08
3.53443561313e-08
3.69566824346e-08
3.8669955613e-08
2.23585800947e-08
7.3668662805e-08
1.47336238166e-08
1.86608962723e-09
2.19957228951e-08
2.66366809989e-09
3.08802028603e-08
3.59816492764e-08
1.8506005822e-08
2.89480034954e-08
2.92684599712e-09
3.59832442265e-08
1.07433089596e-07
1.0657806554e-07
8.19264079529e-08
7.90597829599e-08
2.16796211867e-07
6.35095814243e-08
1.32490276935e-07
2.9413818918e-07
1.0281391052e-07
1.12423970767e-08
6.11135803449e-08
8.21501489559e-08
1.34598021923e-07
5.66100850321e-09
1.88647216736e-09
7.45669123992e-08
1.49604161071e-07
4.55278668699e-09
1.05194740742e-08
4.56183980319e-08
4.42190562679e-09
1.37661028804e-07
9.15749935517e-07
4.33578681843e-06
7.75589496879e-07
6.06575986496e-06
5.92822922745e-06
4.38917165733e-06
7.35896920937e-09
1.2044102701e-07
2.43388247139e-07
1.50733762977e-07
2.27203691404e-08
3.1306865056e-07
2.630047361e-07
8.37957991451e-09
3.02059163609e-08
2.80200815416e-08
7.47564115424e-09
1.56307404492e-09
2.77692863639e-08
2.10661265818e-08
3.35119521342e-08
5.63498732379e-09
1.42960417995e-08
1.17634434036e-08
4.17088125156e-09
8.0592882128e-09
6.21766384179e-07
5.5245210576e-07
6.57122806369e-07
2.49865665546e-07
1.97250881176e-07
1.48551715629e-07
6.05876030465e-08
1.48516116407e-08
1.14143472644e-08
7.01550932618e-09
2.73611706213e-08
4.00152155976e-08
2.89645252268e-08
1.42048664389e-07
2.96385997987e-07
3.21128649453e-07
2.14411896017e-07
3.11886048481e-07
6.41615368914e-07
5.22293033216e-08
1.35032597215e-07
8.61992753497e-07
1.48888757349e-07
3.16989587771e-09
1.35807273471e-07
3.43821706065e-07
5.09373236277e-08
8.71063082065e-09
2.57329487779e-09
5.38456651483e-08
7.33991901978e-09
2.76836092918e-09
1.60884106924e-08
6.27924966873e-08
1.41232289666e-09
3.15453161674e-07
3.8129928276e-07
1.68491929242e-08
1.43826723188e-08
4.60317156484e-08
4.52012917544e-08
2.42116449683e-08
9.20694953032e-09
2.97075631722e-08
7.38856080781e-09
1.18218575888e-08
1.22386100347e-08
9.811269213e-09
3.47039907666e-08
1.05445065892e-07
8.80847512847e-08
3.67702431664e-09
7.80528716323e-09
9.16915429111e-09
4.75459481685e-08
6.07021674933e-09
4.25953133954e-08
1.30952781009e-08
1.74855947139e-08
5.57912418974e-09
3.55557755372e-08
9.41775782707e-09
4.20968409198e-08
1.79195448247e-07
1.48442825557e-07
1.3485319987e-07