# vtk DataFile Version 3.0
File Name: Molecule/arg/argdUR_4.0-0.vtk
ASCII
DATASET UNSTRUCTURED_GRID
FIELD FieldData 1
TIME 1 1 double
0.0
POINTS 661 double
-3.403 0.327 1.604
-3.45 0.103 1.078
-2.981 -0.361 1.858
-3.028 -0.584 1.332
-3.298 -0.003 0.536
-2.876 -0.691 0.79
-2.971 0.024 0.066
-2.549 -0.664 0.32
-2.984 0.046 0.042
-2.471 -0.12 -0.363
-2.484 -0.099 -0.385
-2.2 -0.483 -0.862
-2.216 -0.458 -0.889
-3.25 0.578 -0.258
-2.57 0.022 -0.532
-2.777 0.436 -0.766
-2.39 -0.269 -1.153
-2.617 0.185 -1.409
-3.173 1.207 -0.458
-2.716 0.926 -0.921
-2.55 0.723 -1.58
-2.776 1.74 -0.497
-2.407 1.34 -0.951
-2.211 1.177 -1.613
-2.622 1.932 -0.429
-2.287 1.501 -0.894
-2.142 1.682 -0.83
-1.982 1.439 -1.492
-1.81 1.654 -1.416
-2.655 2.421 0.048
-2.046 2.135 -0.548
-2.075 2.574 -0.12
-1.615 2.438 -0.879
-1.647 2.927 -0.402
-2.495 2.657 0.67
-1.932 2.785 0.438
-1.488 3.163 0.22
-2.925 2.572 1.071
-2.137 2.872 1.156
-2.512 2.798 1.506
-1.863 3.333 1.507
-2.279 3.251 1.894
-3.186 2.284 1.521
-2.739 2.546 1.897
-2.53 2.972 2.328
-3.419 1.801 1.788
-2.888 2.359 1.917
-3.122 1.876 2.185
-2.717 2.558 2.345
-2.979 2.017 2.644
-3.567 1.179 1.827
-3.133 1.725 2.369
-3.262 1.186 2.403
-3.107 1.793 3.017
-3.25 1.192 3.055
-3.408 0.559 1.798
-3.123 0.649 2.378
-3.095 0.593 3.027
-3.105 0.348 2.085
-3.1 0.088 1.867
-2.97 0.105 2.152
-3.02 0.504 2.546
-2.901 0.29 2.606
-2.978 0.383 3.085
-2.865 -0.346 2.113
-2.52 -0.7 2.425
-2.794 0.071 2.575
-2.491 -0.24 2.849
-2.645 0.041 3.387
-2.46 -1.117 2.184
-2.148 -0.9 2.844
-2.09 -1.3 2.613
-2.003 -1.142 3.367
-1.937 -1.6 3.103
-2.268 -1.45 1.888
-1.906 -1.62 2.328
-1.726 -1.965 2.777
-1.967 -1.659 1.57
-1.617 -1.821 2.023
-1.396 -2.195 2.428
-1.592 -1.721 1.268
-1.257 -1.88 1.733
-0.984 -2.263 2.097
-2.026 -1.588 0.931
-1.237 -1.838 0.739
-1.646 -1.713 0.421
-0.96 -2.23 0.303
-1.437 -2.084 -0.068
-2.342 -1.257 0.596
-1.944 -1.402 0.106
-1.784 -1.721 -0.435
-2.487 -0.785 0.321
-2.08 -0.956 -0.154
-1.943 -1.202 -0.738
-2.189 -0.632 -0.224
-2.248 -0.516 -0.225
-2.131 -0.618 -0.861
-2.114 -0.682 -1.181
-1.927 -1.264 -1.052
-2.312 -0.441 -1.376
-2.121 -0.506 -1.916
-2.042 -0.816 -1.214
-1.838 -0.886 -1.79
-1.682 -1.348 -1.746
-1.975 -0.256 -2.322
-1.864 -0.768 -1.888
-1.672 -0.441 -2.421
-1.897 0.192 -2.527
-1.57 0.147 -2.691
-1.996 0.646 -2.441
-1.495 0.306 -2.776
-1.602 0.798 -2.682
-1.198 0.386 -3.152
-1.328 0.981 -3.039
-2.011 1.039 -2.18
-1.619 1.224 -2.399
-1.348 1.496 -2.696
-1.72 1.257 -2.235
-1.479 1.817 -1.75
-1.107 2.057 -2.211
-1.346 2.153 -1.415
-1.642 2.007 -1.116
-1.319 2.584 -1.178
-0.816 3.013 -1.267
-1.111 2.259 -1.642
-0.623 2.675 -1.729
-0.543 2.537 -2.312
0.466 3.148 -0.891
-0.416 2.926 -1.599
0.331 3.005 -1.38
-0.131 2.956 -2.042
0.328 3.005 -1.907
-0.002 3.1 -2.533
0.456 3.148 -2.398
-0.048 3.337 -3.001
0.699 3.415 -2.782
0.833 2.913 -0.61
0.619 2.806 -1.364
0.976 2.577 -1.092
0.892 2.689 -1.891
1.303 2.425 -1.576
1.057 2.557 -0.305
1.192 2.232 -0.796
1.553 2.026 -1.234
0.979 2.767 0.195
1.539 1.918 0.039
1.462 2.128 0.539
0.737 2.845 0.68
1.22 2.206 1.024
0.406 3.093 0.833
0.71 2.572 1.142
0.419 2.789 1.277
0.841 2.425 1.643
0.539 2.651 1.783
1.112 2.426 2.108
0.748 2.699 2.276
0.011 3.456 0.651
0.05 3.076 1.433
-0.284 3.383 1.279
-0.034 3.266 2.099
-0.415 3.616 1.924
-0.504 3.599 0.465
-0.72 3.504 1.122
-0.913 3.754 1.744
-1.038 3.495 0.311
-1.173 3.416 0.991
-1.429 3.653 1.595
-1.554 3.135 0.914
-0.08 3.426 2.677
0.304 2.919 2.221
0.258 3.08 2.801
0.695 2.881 2.933
-0.313 3.4 3.231
0.024 3.055 3.358
0.431 2.852 3.563
-0.687 3.194 3.654
-0.352 2.847 3.783
0.006 2.617 4.044
-1.222 3.175 3.77
-0.58 2.815 3.881
-1.2 2.794 4.016
-1.756 3.136 3.659
-1.82 2.748 3.887
-2.199 3.083 3.341
-2.333 2.687 3.518
-2.473 3.025 2.87
-2.65 2.619 2.973
-0.832 2.373 4.277
-0.242 2.183 4.431
-1.061 1.806 4.483
-0.466 1.628 4.634
-1.434 2.302 4.313
-1.452 1.611 4.604
-1.773 2.038 4.456
-1.892 2.602 3.976
-2.169 2.297 4.166
-2.355 2.652 3.532
-2.568 2.341 3.783
-2.74 2.445 3.06
-2.9 2.162 3.376
-1.464 1.095 4.666
-0.956 1.592 4.533
-0.968 1.074 4.596
-0.48 1.041 4.705
-1.655 0.731 4.634
-0.882 0.784 4.614
-1.066 0.434 4.582
-0.333 0.517 4.869
-0.555 0.096 4.831
-2.14 0.383 4.441
-1.246 0.178 4.538
-1.7 -0.148 4.358
-0.878 -0.357 4.785
-1.429 -0.753 4.566
-2.498 0.133 3.99
-2.035 -0.382 3.936
-1.836 -1.037 4.053
-2.172 -0.468 3.371
-0.383 -0.749 5.065
-0.05 -0.304 5.117
0.164 -1.171 5.088
0.507 -0.734 5.141
0.4 -1.671 4.946
0.615 -0.976 5.092
0.839 -1.451 4.956
1.043 -0.806 5.264
1.279 -1.306 5.122
0.636 -2.087 4.632
1.063 -1.845 4.659
1.514 -1.722 4.808
0.844 -2.371 4.183
1.26 -2.115 4.232
1.723 -2.007 4.359
1.002 -2.493 3.648
1.411 -2.231 3.724
1.881 -2.129 3.824
1.092 -2.439 3.086
1.496 -2.18 3.191
1.971 -2.075 3.263
1.104 -2.215 2.561
1.508 -1.967 2.692
1.983 -1.85 2.738
1.037 -1.846 2.131
1.444 -1.616 2.284
1.916 -1.481 2.307
0.647 -2.269 2.118
0.798 -1.688 1.555
0.487 -2.024 1.545
0.806 -1.676 0.912
0.496 -2.012 0.902
1.061 -1.813 0.337
0.67 -2.236 0.324
0.119 -2.499 2.107
0.068 -2.206 1.536
0.076 -2.194 0.893
0.142 -2.466 0.313
-0.457 -2.497 2.099
-0.39 -2.205 1.53
-0.381 -2.193 0.887
-0.434 -2.464 0.306
-0.808 -2.019 1.528
-0.8 -2.007 0.885
1.48 -1.078 0.031
1.043 -1.422 0.814
1.323 -0.93 0.61
1.205 -1.217 1.373
1.436 -0.812 1.205
1.517 -1.238 1.905
1.797 -0.747 1.701
2.335 -0.746 2.002
1.639 -0.712 -0.547
1.476 -0.549 0.311
1.615 -0.229 -0.195
1.697 -0.118 0.66
1.842 0.216 0.134
1.693 -1.21 -0.838
1.805 -0.426 -1.067
1.853 -0.872 -1.327
2.201 -0.141 -1.444
2.253 -0.62 -1.722
1.568 -1.637 -1.21
1.741 -1.254 -1.66
2.133 -1.029 -2.079
1.279 -1.936 -1.614
1.483 -1.521 -2.022
1.857 -1.315 -2.467
0.866 -2.068 -1.998
1.113 -1.639 -2.366
1.46 -1.442 -2.835
0.381 -2.015 -2.311
0.679 -1.593 -2.646
0.995 -1.392 -3.136
-0.112 -1.786 -2.513
0.238 -1.387 -2.827
0.523 -1.172 -3.329
-0.548 -1.409 -2.576
-0.152 -1.05 -2.884
0.104 -0.811 -3.39
-0.822 -1.287 -2.506
-0.408 -0.948 -2.806
-0.669 -0.831 -2.739
-0.336 -0.591 -3.197
-0.616 -0.466 -3.125
-1.31 -1.347 -2.194
-0.988 -0.705 -2.664
-1.485 -0.767 -2.346
-1.322 -0.31 -2.728
-0.95 -0.071 -3.189
-0.311 -0.212 -3.619
0.128 -0.454 -3.788
-0.16 0.24 -3.931
0.27 -0.03 -4.081
0.101 0.716 -4.098
0.516 0.418 -4.238
-0.411 1.252 -3.909
0.377 1.347 -4.4
0.11 1.626 -4.301
-0.398 1.946 -3.588
0.117 1.987 -4.134
-0.106 2.463 -3.53
-0.202 2.855 -2.684
0.028 3.029 -3.665
0.9 3.106 -3.671
0.173 2.486 -3.833
0.85 2.546 -3.838
0.989 2.064 -4.14
0.819 3.383 -2.845
1.267 2.733 -3.406
1.204 2.948 -2.765
1.749 2.404 -3.353
1.668 2.681 -2.526
0.902 2.914 -2.485
0.749 2.956 -2.405
1.123 2.627 -2.01
1.688 2.19 -1.733
1.962 2.454 -2.382
2.133 1.624 -1.992
2.194 2.159 -2.516
2.141 1.301 -1.585
2.428 1.273 -2.257
2.435 0.969 -1.874
2.042 0.907 -1.262
2.342 0.599 -1.57
1.911 1.516 -1.257
1.855 0.911 -0.632
1.743 1.428 -0.628
1.976 0.918 0.014
1.858 1.462 0.018
1.44 1.861 -0.608
1.861 0.778 -0.544
1.751 0.201 -0.446
1.991 0.665 -1.105
1.878 0.074 -1.004
2.497 1.237 -3.182
2.241 1.687 -2.422
2.29 1.662 -3.078
2.232 2.14 -3.028
1.83 1.363 -3.817
1.817 1.751 -3.528
1.863 2.209 -3.379
1.382 0.739 -4.338
1.413 1.57 -3.947
1.095 1.128 -4.316
1.103 1.869 -4.167
0.855 1.524 -4.455
0.482 0.901 -4.245
1.404 2.01 -3.684
1.315 2.161 -3.664
2.007 0.383 0.735
1.766 -0.192 1.22
2.031 0.236 1.284
1.991 -0.414 1.693
2.267 0.032 1.759
2.675 -0.196 2.083
2.074 0.941 0.928
2.088 0.713 1.449
2.326 0.528 1.931
2.749 0.417 2.295
1.884 1.434 1.198
1.926 1.135 1.68
2.158 0.967 2.172
2.541 0.959 2.592
1.624 1.884 1.117
1.755 1.469 1.75
1.503 1.904 1.671
1.842 1.579 2.299
1.557 2.073 2.21
1.11 2.216 1.58
1.886 1.845 2.759
2.132 1.224 2.493
2.174 1.477 2.929
2.585 1.225 3.051
1.814 2.002 3.263
2.105 1.625 3.407
2.513 1.382 3.555
1.633 2.033 3.763
1.933 1.655 3.881
2.331 1.413 4.055
1.359 1.937 4.21
1.674 1.563 4.305
2.058 1.316 4.502
1.021 1.721 4.561
1.354 1.359 4.638
1.72 1.101 4.853
0.651 1.408 4.781
1.002 1.062 4.847
1.35 0.788 5.074
0.073 1.245 4.841
0.82 0.891 4.947
0.23 0.725 5.008
0.672 0.387 5.179
1.205 0.294 5.301
0.564 -0.173 5.245
1.099 -0.256 5.367
-1.999 2.782 0.776
-1.065 -1.824 1.176
1.419 -0.545 0.696
1.7 -0.166 -0.791
-3.196 2.043 -0.114
-3.592 1.578 -0.026
-3.592 1.985 0.326
-3.196 2.357 0.319
-3.592 2.137 0.843
-3.196 2.469 0.843
-3.592 1.985 1.36
-3.85 1.69 0.843
-3.85 1.435 1.283
-3.592 0.264 0.574
-3.85 0.672 0.843
-3.85 0.927 0.403
-3.592 0.555 0.121
-3.592 1.045 -0.103
-3.85 1.435 0.403
-3.94 1.181 0.843
-3.85 0.927 1.283
-3.592 0.555 1.565
-2.722 -1.154 1.098
-2.722 -1.154 1.636
-2.722 -0.863 2.089
-2.326 -1.497 1.099
-2.482 0.597 -1.975
-2.482 0.047 -1.975
0.763 3.18 -0.086
0.367 3.4 -0.61
0.367 3.512 -0.086
0.367 3.4 0.438
-0.118 3.59 -0.615
-0.118 3.688 -0.086
-0.634 3.59 -0.615
-0.634 3.688 -0.086
-1.119 3.512 -0.086
-1.119 3.4 -0.61
-1.119 3.086 -1.043
-0.667 3.796 3.018
-0.667 3.906 2.497
-1.198 3.918 2.998
-1.198 3.65 3.431
-1.198 3.918 1.996
-1.198 4.012 2.497
-1.729 3.906 2.497
-1.729 3.796 3.018
-1.729 3.482 3.449
-1.729 3.796 1.976
-2.179 3.606 2.497
-2.179 3.474 2.987
-1.895 1.335 4.734
-2.426 1.603 4.572
-2.426 1.073 4.627
-2.426 2.064 4.305
-2.876 2.056 3.843
-2.876 1.697 4.202
-2.876 1.207 4.334
-2.876 0.717 4.202
-2.426 0.566 4.463
-3.176 1.738 3.353
-3.176 1.472 3.813
-3.176 0.942 3.813
-2.876 0.358 3.843
-3.176 0.676 3.353
-3.282 1.207 3.353
0.578 -2.491 4.272
0.08 -2.472 4.525
0.08 -2.776 4.08
0.578 -2.727 3.81
0.08 -2.934 3.566
0.578 -2.808 3.297
0.08 -2.934 3.028
0.578 -2.727 2.784
0.08 -2.776 2.514
0.08 -2.052 4.861
-0.44 -2.052 4.861
-0.44 -2.472 4.525
-0.44 -2.776 4.08
-0.44 -2.934 3.566
-0.44 -2.934 3.028
-0.44 -2.776 2.514
-0.44 -1.551 5.057
-0.938 -1.149 4.956
-0.938 -1.662 4.875
-0.938 -2.124 4.639
-0.938 -2.491 4.272
-0.938 -2.727 3.81
-0.938 -2.808 3.297
-0.938 -2.727 2.784
-0.938 -2.491 2.322
-1.374 -1.149 4.675
-1.374 -1.677 4.571
-1.374 -2.124 4.272
-1.374 -2.423 3.825
-1.374 -2.527 3.297
-1.374 -2.423 2.769
-1.714 -1.289 4.273
-1.714 -1.795 4.042
-1.714 -2.095 3.575
-1.93 -1.406 3.742
1.624 -1.33 -0.389
1.408 -1.719 -0.089
1.408 -2.019 -0.556
[...]
CELL_DATA 1318
SCALARS cell_data_0_real double
LOOKUP_TABLE default
-0.00147699047669
-0.00154009056585
-0.00133595084347
-0.00151112880757
-0.00146609651172
-0.00189760080066
-0.00010667782206
-0.00379190297414
-0.00466531801519
-0.00496634199984
-0.00175039486773
-0.00175616880423
-0.00345773154399
-0.00357054132326
-0.00124262755909
-0.00162812114963
-0.00263466647361
-0.00339062647074
-0.00125229407176
-0.00200034802957
-0.00272494549305
-0.00403730998005
-0.00127398934247
-0.0023967400091
-0.0036366071757
-0.00409321058675
-0.00152240428519
-0.00143502806085
-0.00205705977591
-0.00137955946822
-0.00127611467198
-0.0016945502571
-0.00155523391485
-0.00149452267683
-0.00142290397391
-0.00147152588857
-0.00182588507911
-0.00138394030986
-0.00119642817215
-0.00160904574246
-0.00162281736055
-0.00162632899491
-0.00136044495905
-0.00164807144061
-0.00197180758503
-0.00196793530196
-0.0013254330524
-0.00154354271235
-0.00189205894613
-0.00157208061057
-0.00125542743196
-0.00183193825091
-0.00168494192852
-0.00177011483911
-0.00156338248566
-0.00195015728718
-0.00224413347386
-0.00249889018598
-0.00228862537998
-0.00173463541957
-0.00234897440882
-0.00219017066238
-0.00272952377155
-0.00341812295939
-0.0026899068622
-0.00232872754844
-0.00503374185944
-0.00714298432384
-0.0150765262907
-0.0119041500843
-0.00316083057071
-0.00537216836668
-0.00919566177834
-0.00732077913907
-0.0026921770923
-0.00400110528914
-0.00561670299721
-0.00374033396549
-0.00249440180997
-0.00345873415724
-0.00336516276453
-0.00192773589272
-0.00260581894137
-0.00281386852051
-0.00411116692544
-0.00333823466902
-0.00197676723839
-0.00257229917548
-0.00309685332991
-0.00288318183817
-0.00199795719718
-0.00299074946801
-0.00312776235581
-0.00337685611429
-0.00205236948408
-0.00386357758916
-0.00460144668375
-0.0049336419093
-0.00445041681826
-0.00317301711302
-0.00488499354669
-0.00487788483372
-0.00453067201322
-0.00473263857813
-0.00416785942683
-0.0033823590656
-0.00448432372673
-0.0046746371478
-0.00417555943958
-0.00532482689474
-0.00464016336852
-0.00532448095616
-0.00587028834699
-0.00512825786731
-0.00441779712146
-0.0056418593838
-0.0054846390633
-0.00559676392074
-0.00505965238601
-0.00558361308651
-0.0055842472382
-0.00568058830371
-0.00449575032168
-0.00441417815473
-0.00322166656691
-0.00250113577872
-0.0024519414415
-0.00327035125011
-0.00552923628335
-0.00511082581057
-0.0027306809055
-0.00261624749903
-0.00326940518675
-0.00301477791399
-0.0033184272553
-0.00310770110239
-0.00642283688713
-0.014442400273
-0.00193406240503
-0.00281508191139
-0.0052372506287
-0.00518383408675
-0.00204059931449
-0.00337115383683
-0.00458052347207
-0.00527690192397
-0.00184924739807
-0.00159389131408
-0.00138993963607
-0.00146968664411
-0.00141038878065
-0.00148559626409
-0.00144740440028
-0.00100916124892
-0.00142158145717
-0.00161410302386
-0.00113074297611
-0.0010661026897
-0.00131788652201
-0.0010496154094
-0.000934090199475
-0.00102944936478
-0.00109788254372
-0.00105634451515
-0.000949719588509
-0.00109030117782
-0.00111415423495
-0.00112125768567
-0.00107761592285
-0.00146604575509
-0.00126822474955
-0.00145476847263
-0.00112527482181
-0.000862567117949
-0.00143627642177
-0.00226229182723
-0.000954381305732
-0.000672795200121
-0.00160592737434
-0.00178382214539
-0.000924490268634
-0.000746763624953
-0.000779054947675
-0.000529419804615
-0.00107816087425
-0.001048348511
-0.00122058437048
-0.00131332378313
-0.00139492273171
-0.00159502807583
-0.0015024031802
-0.00166563955159
-0.00152776302334
-0.00187574398113
-0.000150002596171
0.000429676647506
5.27613316e-05
0.000547948094861
-0.00105307104645
-0.00113521245172
-0.00126986897807
-0.00132528669783
-0.0015159440714
-0.00149592493721
-0.00167992421915
-0.00156528813863
-0.00170371818343
-0.00181748642233
-0.00100228867372
-0.000888818708594
0.000173273039521
0.000319520255558
-0.00111464098183
-0.00115111545883
-0.00106525796261
-0.00136704540427
-0.00143257930823
-0.00183915071815
-0.00140110320793
-0.000594405304715
-0.0014949193711
-0.00251454940109
-0.00237623995571
-0.00250455434744
-0.00183794867041
-0.00407233612865
-0.00511587449273
-0.00911737999908
-5.6739651344e-05
-0.000541375333654
0.000290672915198
-0.000378050371261
-5.55664934669e-05
-0.000561381157314
-0.000203316210776
-0.000287719819498
-0.00145418568516
-0.00206348780004
-0.00118377940835
-0.00250641445898
-0.00458185377246
-0.00473859962663
-0.00332888795359
-0.00630157838755
-0.00812471133262
-0.00601381565862
-0.0060352830276
-0.00925342883293
-0.00712223382691
-0.00415959614454
-0.00576334869771
-0.00613120736103
-0.00322565969523
-0.00179943485206
-0.00304843578334
-0.00233755671779
-0.000862310692269
-0.000556862143631
-0.000966662483976
-0.000329974378156
6.38777859953e-05
-0.000274519993787
-0.00267487053577
-0.004179190599
-0.00755269275308
-0.00641747662012
0.000346228319881
-0.000265653381659
-0.0016582576128
-0.00358357902517
-0.00586299342677
-0.00534109752253
0.000130780353379
-0.000364132657272
-0.00169356322877
-0.00334150958221
-0.00504655203674
-0.00453222666635
-0.000187338120893
-0.000987998639036
-0.00189558360653
-0.00363098771842
-0.00464754001278
-0.00453500323742
-0.00748837327698
-0.0069204631935
-0.00478211170695
-0.00308979614137
-0.00178879547076
-0.00158716449385
-0.000461200469227
0.000459987472265
-0.00516741374205
-0.00498733919627
-0.00405486372975
-0.0028836618301
-0.00316381228031
-0.00192576769154
-4.62773480391e-06
0.00180103854065
-0.00214086204086
-0.00131545329608
0.000645571143218
0.00229593713944
-0.0018375829448
-0.00105420014184
0.000992364646443
0.00250391611906
-0.00163882044351
-0.000969866366754
0.0011076582059
0.00254545745569
-0.00158895554836
-0.00106026510647
0.00102124587583
0.00231307611723
-0.00168659154537
-0.00136508104284
0.00073275150282
0.00190876058325
-0.00204065771449
-0.00231940736127
2.33516254415e-05
0.000917457980895
-0.00292125042519
-0.00387922345926
-0.00391300054083
-0.00374405364032
-0.00334391633236
-0.00361648613349
-0.00298654106076
-0.00369650723333
-0.00456471118378
-0.00446319262338
-0.00479717308694
-0.00493337844068
-0.00109878809541
0.000362014642494
-0.000925527138881
0.000366554760747
-0.00115609430841
-0.000225124453574
-0.00813019473651
-0.011739114079
-0.00824926549654
-0.0124077072603
-0.00704340506545
-0.00559360863967
-0.00996155581438
-0.0149519957543
-0.0129732308168
-0.00724124868457
-0.00941236172935
-0.0175630683569
-0.0122892339038
-0.00766539984136
-0.00889534561722
-0.0180567071187
-0.00744941076216
-0.00895665587959
-0.00724891735619
-0.00727340229303
-0.00969736213765
-0.0106600993402
-0.00784979451549
-0.0123012917342
-0.00183878804561
-7.30055390389e-05
-0.00147012039161
0.000270790108299
-0.00383579574963
-0.00383303087277
-0.00287709771981
-0.00185834322284
-0.00413257802605
-0.00471322947835
-0.0028664537082
-0.00243382550996
-0.00230501632466
-0.00325239288613
-0.00365385510522
-0.00353639602922
-0.00143478410296
0.000596034349369
-0.000946976009076
-0.00163180617763
-0.0126699767865
-0.011143125136
-5.50712049368e-05
-0.00354998620597
-0.00953329023207
-0.0151462575502
-0.0010856170939
-0.00152142514256
-0.0127437633309
-0.0112960581094
7.50150081124e-05
-0.00322162432915
-0.00960752556877
-0.0147291368533
-0.0126373969116
-0.011993196234
-0.0111411100582
-0.013268770947
-0.00180960845066
-0.00140921806355
-0.00143522607649
-0.000870821982052
0.000105516246368
0.000757745447717
-0.00112829537219
-0.00117568888619
-0.000982904343746
-0.000848039858692
-2.50120058088e-05
0.00011763213033
-0.00103616706585
-0.00120699307286
-0.000941993741876
-0.00115661708643
-0.000662400454309
-0.00153600373904
-0.00109093959497
-0.000884436153148
-0.00190870299809
-0.00277977345425
-0.00107901923107
-0.00106940693555
-0.00159694354681
-0.0026206199861
-0.00492261621802
-0.00487334552022
-0.00369993990485
-0.00530719586739
-0.00767573739
-0.00686167368431
-0.00601138631156
-0.00937548513875
-0.00943917492477
-0.00617279687921
-0.00700164817801
-0.00905759062561
-0.00626821363749
-0.00381874453265
-0.00508361344792
-0.00478210983397
-0.00290038037567
-0.00201047975961
-0.00262005456042
-0.00186600144607
-0.00122340578328
-0.001273759171
-0.00121977300061
-0.000416923860701
-0.000696580757558
-0.00110892203037
-0.000428590901092
-0.0010925278826
-0.000731686558788
0.00018750054001
-0.000452541120551
0.000362910878004
-0.000347271358203
0.000297671552842
-0.00160975330151
-0.00330885633864
-0.00428756729423
-0.00232811459227
-0.00449417770116
-0.00390114732551
-0.00287593899147
-0.0039739784694
-0.00361281680317
-0.00193176152147
-0.00381674323044
-0.00314821121149
-0.00255993715245
-0.00199000088756
-0.0015460771245
-0.00218846282738
-0.0021811403693
-0.00165881980374
-0.00185937183691
-0.00180838046491
-0.00176827438773
-0.00203250064002
-0.00138001310019
-0.00177487845195
-0.00207720752267
-0.00138118361814
-0.00174775031776
-0.00249988456315
-0.00174183908977
-0.00210067780196
-0.00287285141205
-0.00240364590588
-0.00338127795378
-0.00826424869137
-0.0134077517266
-0.0059724229411
-0.00177503085651
-0.00314563022206
-0.00330315592862
-0.00509664230808
-0.00441597218487
-0.00361473136585
-0.00318294174156
-0.00388749568932
-0.00432932758978
-0.00316294739286
-0.00335704730458
-0.0037120250865
-0.00271766826615
-0.00334230619592
-0.00448047349471
-0.00517661335038
-0.00438051567683
-0.00455959565086
-0.00513901169423
-0.00526546798678
-0.00340060060778
-0.00426191605717
-0.00341093812857
-0.00251715315835
-0.00463066863686
-0.00287556411563
-0.001717236758
-0.00460347640815
-0.00367331647255
-0.00559061401691
-0.00486212539061
-0.00279717925918
-0.00210521345692
-0.00491663447392
-0.00372797181638
-0.00270518398323
-0.00143304049046
-0.00109758905588
-0.00124172900415
-0.00152357395374
-0.00119952054617
-0.00110496096002
-0.00120958077722
-0.00141663249945
-0.00130172609471
-4.0296092282e-05
-0.000761878704349
-5.67514877412e-05
-0.000682757097337
-0.000561254751138
-0.000386125242683
-0.000822571655223
-0.000784688742496
-0.00147602058755
-0.00141894962964
-0.000317527021774
-0.000138783662327
-0.000272496147762
-0.000613461461434
-0.000716474767231
-0.00148409092225
-0.00336457630709
-0.00504163046681
-0.00727289066888
-0.000117960617324
-0.00135316557118
-0.00175718525339
-0.00296754628606
-0.00277426861727
-0.0040084307538
-0.00647092636872
-0.00528293113871
-0.00441368333978
-0.00331356626526
-0.00476675435592
-0.00368394569384
-0.00353835717409
-0.000602834626518
-0.00360856200762
-0.0044403520205
-0.00110657412721
-0.0031498017228
-0.00299633252173
-0.00465312658278
-0.00406958723545
-0.00219322103281
-0.00769297962446
-0.00771370150464
-0.00284966431494
-0.00767433911278
-0.00755986495207
-0.00827924951372
-0.00940848001929
-0.00404959112701
-0.0090619060508
-0.00537983045436
-0.00656157267292
-0.00688364779593
-0.00254092264204
-0.00153222370271
-0.00347800345973
-0.00331876556053
-0.00224281268275
-0.0106327427287
-0.0075791664697
-0.010964703292
-0.00269185209873
-0.00218114873606
-0.00263392233967
-0.00174459742036
-0.00182902359841
-0.000998691671689
-0.000838290908907
-0.00122236437551
-0.00065944698045
-0.000680741780326
-0.000713924410421
-0.000658449172955
-0.000686986988308
-0.000712928217732
-0.000751968523702
-0.000782353749143
-0.00070466337254
-0.000715255337797
-0.000688180096111
-0.000660393574055
-0.000691986615778
-0.000671125243322
-0.000658250520464
-0.00068504610866
-0.000680397514808
-0.000672163748279
-0.000655465555143
-0.000649333753745
-0.000871531303429
-0.0010382522063
-0.000748738558373
-0.000936389355819
-0.000791625788921
-0.00102236879674
-0.000832899325612
-0.000963166981601
-0.000835543465821
-0.000899578496399
-0.000991350563434
-0.00100558934606
-0.000939260883622
-0.00110389401748
-0.000705858448008
-0.000995120724211
-0.000906042558428
-0.00107300695604
-0.0008053142889
-0.000735084863875
-0.00093828540497
-0.000742293931626
-0.00104664019991
-0.00129942502785
-0.000744694885785
-0.00111521678088
-0.00209491542603
-0.00125633428849
-0.000945718169887
-0.00121473259668
-0.00220581568112
-0.00194875259431
-0.00145056422092
-0.00154581068155
-0.00135005736335
-0.00160675249598
-0.00196220830859
-0.0017588886244
-0.00240200626182
-0.00184770152848
-0.00162139094068
-0.00187061275287
-0.00170208213103
-0.00194064717778
-0.00147670191381
-0.00226524414685
-0.00161289540521
-0.00140360919697
-0.00121937866205
-0.00615452423458
-0.00899499729557
-0.00452816325137
-0.00388378568524
-0.00391900954944
-0.00316550767154
-0.00411093479937
-0.00496940827543
-0.00424713999557
-0.00374626182883
-0.0041344133437
-0.00473858309004
-0.00362769912109
-0.00396847007025
-0.00456478174258
-0.00561543141956
-0.000797290446655
-0.00074523917821
-0.00082731560583
-0.000695687321939
-0.000704921375202
-0.000734919898542
-0.000774023877458
-0.000768729305104
-0.000944129278145
-0.00117762633806
-0.000999649222835
-0.000753000481436
-0.000947276639351
-0.000742148274691
-0.000937053531756
-0.000866217379127
-0.000800235883471
-0.000894189550231
-0.00106442457836
-0.00106390994367
-0.00125857752075
-0.0013070996078
-0.00142211211419
-0.0010576185827
-0.00107806510408
-0.000445731016683
-0.00141736234297
-0.000791749405027
-0.00102079544255
-0.000751158546821
-0.000939891966088
-0.00152891956983
-0.00164920891366
-0.000980907123683
-0.000836321395496
-0.000785385251325
-0.000814619993964
-0.000845434031578
-0.000880680974769
-0.000889776097644
-0.000877108682692
-0.000918424481427
-0.000924383167658
-0.000886906004782
-0.000918616344918
-0.000930764735961
-0.000936086441095
-0.000858815078699
-0.00109164046259
-0.00129225124348
-0.00138383266112
-0.00101379128699
-0.0012401317592
-0.00112192126058
-0.00117862153538
-0.00116185316135
-0.000991394848827
-0.00104800602135
-0.00102083964813
-0.00101659029321
-0.000900612975737
-0.0008584308699
-0.000990137290107
-0.00107771433606
-0.00097868218577
-0.00105864014381
-0.000909894594319
-0.0011385884079
-0.00133213766447
-0.00121053169368
-0.000762995597762
-0.000740366749221
-0.00125293720284
-0.00139596204185
-0.00168459997073
-0.00218682346161
-0.00209524357939
-0.00190255211001
-0.00169016430057
-0.00204105124363
-0.000732450015237
-0.000830192990406
-0.00102672653626
-0.000928590733642
-0.000943562360516
-0.000918281846507
-0.000958191619682
-0.000920992341772
-0.00114929626562
-0.000988011238828
-0.000940454771302
-0.00103545361676
-0.000956188269054
-0.000995441745532
-0.00110785518721
-0.00107667253092
-0.00101622766915
-0.00109813893515
-0.0011594118186
-0.00147446018803
-0.00124789168142
-0.00132250895227
-0.00161374618766
-0.00140106241149
-0.00110734096279
-0.00116865706274
-0.00124465020992
-0.00130984899971
-0.0011791713044
-0.00109528875227
-0.00114418658434
-0.0010403795324
-0.00113628389517
-0.00111051919567
-0.00109323792336
-0.00116363791917
-0.00119189145005
-0.00117647055452
-0.0012424470449
-0.00122304674117
-0.0013173374495
-0.00151142714792
-0.00120238753962
-0.00258316426905
-0.0103276516433
-0.0161948705482
-0.0170606018364
-0.0176516489938
-0.0125372013561
-0.00907144995507
-0.00503049629891
-0.00153791274963
-0.00352698126948
-0.00486845850282
-0.00884206955346
-0.00826854187162
-0.0118857026684
-0.00719418510221
-0.00809091989269
-0.00322177619059
-0.0031254151925
0.000959619318484
0.000573612816533
0.000333709214769
-0.000869165887634
-0.000924995446721
-0.00288199368229
-0.00236740064886
-0.00405042234304
-0.00267741527633
-0.0030958524612
-0.0015952854462
-0.00133804328889
-0.000483695812016
0.000961737449861
0.000784157570516
0.000630318112595
0.000393488755861
-9.4518249271e-05
-0.00026609908859
-0.000847716028105
-0.000710452310384
-0.00102084999256
-0.000785257891777
-0.000517403538311
-0.000504039528394
0.000164504927334
-0.000198377056836
0.000106911804087
-0.000181830195336
-0.000542715220112
-0.00031150690265
-0.00184425390937
-0.00148888892289
-0.00419338604638
-0.00488317571545
-0.00153737671654
-0.00160240611221
-0.00239177426774
-0.000846373641172
-0.000710170271699
-9.36731573449e-05
-0.000181196551085
-0.000659520153468
-0.000335662529476
-0.00243434557049
-0.00144358008322
-0.00217276133128
-0.00444576424141
-0.00875917625798
-0.0116968353902
-0.0163838923913
-0.0153001860066
-0.0129907128418
-0.00871745377346
-0.00733391063023
-0.00374392078287
-0.00206023474254
-0.000374443284087
-0.000147536008591
0.000406797861113
0.00100929826804
0.00113102811942
0.00109735386938
0.000790408085156
0.000626146958977
9.09227842522e-05
-0.0011864908812
-0.00195644646567
-0.00594285479966
-0.00959549622971
-4.24353524417e-05
-0.00300160628129
-0.00264903360571
-0.00230676561732
-0.00223412001722
-0.00197401166907
-0.00229351930159
-0.00216385203196
-0.00194850996537
-0.00189265427787
-0.00170609829431
-0.0021975973757
-0.00217559225284
-0.00194050296078
-0.00181490412751
-0.0017057662233
-0.00167984879608
-0.00161442906807
-0.00249861801998
-0.00230856246742
-0.00196717236037
-0.00188505849996
-0.00173986441806
-0.00169241413872
-0.00165808214116
-0.00162934395397
-0.00163876557784
-0.00213033696089
-0.00196995790573
-0.00183486086089
-0.00173501372937
-0.00166077972652
-0.00164214942244
-0.00160357284133
-0.00166121303201
-0.00167432608127
-0.0017417989304
-0.00203242392862
-0.00193881316005
-0.00180675615793
-0.00178453922261
-0.00164275802279
-0.00171353863089
-0.0015602412219
-0.00209368329334
-0.00198401319375
-0.00177082846203
-0.00182796137368
-0.0017395216378
-0.0021644830818
-0.00207948573189
-0.00213434695479
-0.00244059519922
-0.00237853337303
-0.00221813289063
-0.00219923749854
-0.0018875327245
-0.00200168400103
-0.001679998164
-0.001966974076
-0.00178409211458
-0.00209744205356
-0.00186093475809
-0.00225040781889
-0.00205253503212
-0.00282469022839
-0.00296785941365
-0.00321909123504
-0.00414945674194
-0.00348309538545
-0.00540834489458
-0.0040668073901
-0.00509101655942
-0.00311395977531
-0.00358059111616
-0.00455439584711
-0.00293400545986
-0.00385902647419
-0.00252686965358
-0.00354819699903
-0.00260664243997
-0.00319042409143
-0.00223026638495
-0.00273437035126
-0.00195926427986
-0.00264223245339
-0.00221560586018
-0.00253173079811
-0.00248612314051
-0.00332835243671
-0.00475637490243
-0.00363382834263
-0.00517031910269
-0.00474091330843
-0.00345486361814
-0.00534209743638
-0.00619552726549
-0.00467471438414
-0.00402865179434
-0.00392418619567
-0.00426612542284
-0.00455868490357
-0.00418330194424
-0.00535894502917
-0.00481051073178
-0.00419977871101
-0.00380918949242
-0.00370643953556
-0.00310803870735
-0.00279929556676
-0.00420488317022
-0.00412719140014
-0.0071751820591
0.00187893135417
-0.0164840226766
-0.0109907765634
-0.034935166516
-0.0396340413413
-0.00369307123035
-0.00319981892911
-0.00471009788825
-0.0051812153971
-0.00511697853978
-0.0057748277672
-0.00758898399702
-0.00107007604362
-0.000972039892809
-0.00144562108158
-0.00144558714361
-0.00148825138184
-0.00104086737285
-0.00139234812045
-0.00117633587711
-0.00140316368157
-0.00174551726367
-0.00185216405111
-0.0010128281366
-0.000975732596382
-0.0128554253495
-0.00748902048389
-0.0103263871398
-0.0041582814509
-0.00179483332959
-0.00227844914632
-0.000753368404152
2.67304913781e-05
0.00029121343916
-5.48429582094e-05
-0.000481541328043
-0.00115057696634
-0.0024128874296
-0.00314339930239
-0.00664680167495
-0.00973924614815
-0.0128796801265
-0.01588473669
-0.0151840219182
-0.0128420928383
-0.0116912108228
-0.00726714483405
-0.00468377490924
-0.00622663969722
-0.00515751987085
-0.00335009414659
-0.0011036375866
-0.000674050618247
6.95546778892e-05
0.000348669152316
0.000824297159195
0.000535346726532
0.000544181249441
-0.00423539149295
-0.0056552563731
-0.00746361576361
-0.00649405516224
-0.00111309451507
-0.00129655273961
-0.00164196591297
-0.00179239736133
-0.00162953383056
-0.00149955896404
-0.00164748331593
-0.000823240301928
-0.000368087809571
-0.000238740493517
-0.00058730748293
-0.00155641924644
-0.00365669062661
-0.00279912854709
-0.000983184335439
-0.000662542319558
-0.000435278708148
-0.00095113108426
-0.000833246886843
-0.00109839062791
-0.000330265250709