# vtk DataFile Version 3.0
File Name: Molecule/arg/argdus_4.0-0.vtk
ASCII
DATASET UNSTRUCTURED_GRID
FIELD FieldData 1
TIME 1 1 double
0.0
POINTS 661 double
-3.403 0.327 1.604
-3.45 0.103 1.078
-2.981 -0.361 1.858
-3.028 -0.584 1.332
-3.298 -0.003 0.536
-2.876 -0.691 0.79
-2.971 0.024 0.066
-2.549 -0.664 0.32
-2.984 0.046 0.042
-2.471 -0.12 -0.363
-2.484 -0.099 -0.385
-2.2 -0.483 -0.862
-2.216 -0.458 -0.889
-3.25 0.578 -0.258
-2.57 0.022 -0.532
-2.777 0.436 -0.766
-2.39 -0.269 -1.153
-2.617 0.185 -1.409
-3.173 1.207 -0.458
-2.716 0.926 -0.921
-2.55 0.723 -1.58
-2.776 1.74 -0.497
-2.407 1.34 -0.951
-2.211 1.177 -1.613
-2.622 1.932 -0.429
-2.287 1.501 -0.894
-2.142 1.682 -0.83
-1.982 1.439 -1.492
-1.81 1.654 -1.416
-2.655 2.421 0.048
-2.046 2.135 -0.548
-2.075 2.574 -0.12
-1.615 2.438 -0.879
-1.647 2.927 -0.402
-2.495 2.657 0.67
-1.932 2.785 0.438
-1.488 3.163 0.22
-2.925 2.572 1.071
-2.137 2.872 1.156
-2.512 2.798 1.506
-1.863 3.333 1.507
-2.279 3.251 1.894
-3.186 2.284 1.521
-2.739 2.546 1.897
-2.53 2.972 2.328
-3.419 1.801 1.788
-2.888 2.359 1.917
-3.122 1.876 2.185
-2.717 2.558 2.345
-2.979 2.017 2.644
-3.567 1.179 1.827
-3.133 1.725 2.369
-3.262 1.186 2.403
-3.107 1.793 3.017
-3.25 1.192 3.055
-3.408 0.559 1.798
-3.123 0.649 2.378
-3.095 0.593 3.027
-3.105 0.348 2.085
-3.1 0.088 1.867
-2.97 0.105 2.152
-3.02 0.504 2.546
-2.901 0.29 2.606
-2.978 0.383 3.085
-2.865 -0.346 2.113
-2.52 -0.7 2.425
-2.794 0.071 2.575
-2.491 -0.24 2.849
-2.645 0.041 3.387
-2.46 -1.117 2.184
-2.148 -0.9 2.844
-2.09 -1.3 2.613
-2.003 -1.142 3.367
-1.937 -1.6 3.103
-2.268 -1.45 1.888
-1.906 -1.62 2.328
-1.726 -1.965 2.777
-1.967 -1.659 1.57
-1.617 -1.821 2.023
-1.396 -2.195 2.428
-1.592 -1.721 1.268
-1.257 -1.88 1.733
-0.984 -2.263 2.097
-2.026 -1.588 0.931
-1.237 -1.838 0.739
-1.646 -1.713 0.421
-0.96 -2.23 0.303
-1.437 -2.084 -0.068
-2.342 -1.257 0.596
-1.944 -1.402 0.106
-1.784 -1.721 -0.435
-2.487 -0.785 0.321
-2.08 -0.956 -0.154
-1.943 -1.202 -0.738
-2.189 -0.632 -0.224
-2.248 -0.516 -0.225
-2.131 -0.618 -0.861
-2.114 -0.682 -1.181
-1.927 -1.264 -1.052
-2.312 -0.441 -1.376
-2.121 -0.506 -1.916
-2.042 -0.816 -1.214
-1.838 -0.886 -1.79
-1.682 -1.348 -1.746
-1.975 -0.256 -2.322
-1.864 -0.768 -1.888
-1.672 -0.441 -2.421
-1.897 0.192 -2.527
-1.57 0.147 -2.691
-1.996 0.646 -2.441
-1.495 0.306 -2.776
-1.602 0.798 -2.682
-1.198 0.386 -3.152
-1.328 0.981 -3.039
-2.011 1.039 -2.18
-1.619 1.224 -2.399
-1.348 1.496 -2.696
-1.72 1.257 -2.235
-1.479 1.817 -1.75
-1.107 2.057 -2.211
-1.346 2.153 -1.415
-1.642 2.007 -1.116
-1.319 2.584 -1.178
-0.816 3.013 -1.267
-1.111 2.259 -1.642
-0.623 2.675 -1.729
-0.543 2.537 -2.312
0.466 3.148 -0.891
-0.416 2.926 -1.599
0.331 3.005 -1.38
-0.131 2.956 -2.042
0.328 3.005 -1.907
-0.002 3.1 -2.533
0.456 3.148 -2.398
-0.048 3.337 -3.001
0.699 3.415 -2.782
0.833 2.913 -0.61
0.619 2.806 -1.364
0.976 2.577 -1.092
0.892 2.689 -1.891
1.303 2.425 -1.576
1.057 2.557 -0.305
1.192 2.232 -0.796
1.553 2.026 -1.234
0.979 2.767 0.195
1.539 1.918 0.039
1.462 2.128 0.539
0.737 2.845 0.68
1.22 2.206 1.024
0.406 3.093 0.833
0.71 2.572 1.142
0.419 2.789 1.277
0.841 2.425 1.643
0.539 2.651 1.783
1.112 2.426 2.108
0.748 2.699 2.276
0.011 3.456 0.651
0.05 3.076 1.433
-0.284 3.383 1.279
-0.034 3.266 2.099
-0.415 3.616 1.924
-0.504 3.599 0.465
-0.72 3.504 1.122
-0.913 3.754 1.744
-1.038 3.495 0.311
-1.173 3.416 0.991
-1.429 3.653 1.595
-1.554 3.135 0.914
-0.08 3.426 2.677
0.304 2.919 2.221
0.258 3.08 2.801
0.695 2.881 2.933
-0.313 3.4 3.231
0.024 3.055 3.358
0.431 2.852 3.563
-0.687 3.194 3.654
-0.352 2.847 3.783
0.006 2.617 4.044
-1.222 3.175 3.77
-0.58 2.815 3.881
-1.2 2.794 4.016
-1.756 3.136 3.659
-1.82 2.748 3.887
-2.199 3.083 3.341
-2.333 2.687 3.518
-2.473 3.025 2.87
-2.65 2.619 2.973
-0.832 2.373 4.277
-0.242 2.183 4.431
-1.061 1.806 4.483
-0.466 1.628 4.634
-1.434 2.302 4.313
-1.452 1.611 4.604
-1.773 2.038 4.456
-1.892 2.602 3.976
-2.169 2.297 4.166
-2.355 2.652 3.532
-2.568 2.341 3.783
-2.74 2.445 3.06
-2.9 2.162 3.376
-1.464 1.095 4.666
-0.956 1.592 4.533
-0.968 1.074 4.596
-0.48 1.041 4.705
-1.655 0.731 4.634
-0.882 0.784 4.614
-1.066 0.434 4.582
-0.333 0.517 4.869
-0.555 0.096 4.831
-2.14 0.383 4.441
-1.246 0.178 4.538
-1.7 -0.148 4.358
-0.878 -0.357 4.785
-1.429 -0.753 4.566
-2.498 0.133 3.99
-2.035 -0.382 3.936
-1.836 -1.037 4.053
-2.172 -0.468 3.371
-0.383 -0.749 5.065
-0.05 -0.304 5.117
0.164 -1.171 5.088
0.507 -0.734 5.141
0.4 -1.671 4.946
0.615 -0.976 5.092
0.839 -1.451 4.956
1.043 -0.806 5.264
1.279 -1.306 5.122
0.636 -2.087 4.632
1.063 -1.845 4.659
1.514 -1.722 4.808
0.844 -2.371 4.183
1.26 -2.115 4.232
1.723 -2.007 4.359
1.002 -2.493 3.648
1.411 -2.231 3.724
1.881 -2.129 3.824
1.092 -2.439 3.086
1.496 -2.18 3.191
1.971 -2.075 3.263
1.104 -2.215 2.561
1.508 -1.967 2.692
1.983 -1.85 2.738
1.037 -1.846 2.131
1.444 -1.616 2.284
1.916 -1.481 2.307
0.647 -2.269 2.118
0.798 -1.688 1.555
0.487 -2.024 1.545
0.806 -1.676 0.912
0.496 -2.012 0.902
1.061 -1.813 0.337
0.67 -2.236 0.324
0.119 -2.499 2.107
0.068 -2.206 1.536
0.076 -2.194 0.893
0.142 -2.466 0.313
-0.457 -2.497 2.099
-0.39 -2.205 1.53
-0.381 -2.193 0.887
-0.434 -2.464 0.306
-0.808 -2.019 1.528
-0.8 -2.007 0.885
1.48 -1.078 0.031
1.043 -1.422 0.814
1.323 -0.93 0.61
1.205 -1.217 1.373
1.436 -0.812 1.205
1.517 -1.238 1.905
1.797 -0.747 1.701
2.335 -0.746 2.002
1.639 -0.712 -0.547
1.476 -0.549 0.311
1.615 -0.229 -0.195
1.697 -0.118 0.66
1.842 0.216 0.134
1.693 -1.21 -0.838
1.805 -0.426 -1.067
1.853 -0.872 -1.327
2.201 -0.141 -1.444
2.253 -0.62 -1.722
1.568 -1.637 -1.21
1.741 -1.254 -1.66
2.133 -1.029 -2.079
1.279 -1.936 -1.614
1.483 -1.521 -2.022
1.857 -1.315 -2.467
0.866 -2.068 -1.998
1.113 -1.639 -2.366
1.46 -1.442 -2.835
0.381 -2.015 -2.311
0.679 -1.593 -2.646
0.995 -1.392 -3.136
-0.112 -1.786 -2.513
0.238 -1.387 -2.827
0.523 -1.172 -3.329
-0.548 -1.409 -2.576
-0.152 -1.05 -2.884
0.104 -0.811 -3.39
-0.822 -1.287 -2.506
-0.408 -0.948 -2.806
-0.669 -0.831 -2.739
-0.336 -0.591 -3.197
-0.616 -0.466 -3.125
-1.31 -1.347 -2.194
-0.988 -0.705 -2.664
-1.485 -0.767 -2.346
-1.322 -0.31 -2.728
-0.95 -0.071 -3.189
-0.311 -0.212 -3.619
0.128 -0.454 -3.788
-0.16 0.24 -3.931
0.27 -0.03 -4.081
0.101 0.716 -4.098
0.516 0.418 -4.238
-0.411 1.252 -3.909
0.377 1.347 -4.4
0.11 1.626 -4.301
-0.398 1.946 -3.588
0.117 1.987 -4.134
-0.106 2.463 -3.53
-0.202 2.855 -2.684
0.028 3.029 -3.665
0.9 3.106 -3.671
0.173 2.486 -3.833
0.85 2.546 -3.838
0.989 2.064 -4.14
0.819 3.383 -2.845
1.267 2.733 -3.406
1.204 2.948 -2.765
1.749 2.404 -3.353
1.668 2.681 -2.526
0.902 2.914 -2.485
0.749 2.956 -2.405
1.123 2.627 -2.01
1.688 2.19 -1.733
1.962 2.454 -2.382
2.133 1.624 -1.992
2.194 2.159 -2.516
2.141 1.301 -1.585
2.428 1.273 -2.257
2.435 0.969 -1.874
2.042 0.907 -1.262
2.342 0.599 -1.57
1.911 1.516 -1.257
1.855 0.911 -0.632
1.743 1.428 -0.628
1.976 0.918 0.014
1.858 1.462 0.018
1.44 1.861 -0.608
1.861 0.778 -0.544
1.751 0.201 -0.446
1.991 0.665 -1.105
1.878 0.074 -1.004
2.497 1.237 -3.182
2.241 1.687 -2.422
2.29 1.662 -3.078
2.232 2.14 -3.028
1.83 1.363 -3.817
1.817 1.751 -3.528
1.863 2.209 -3.379
1.382 0.739 -4.338
1.413 1.57 -3.947
1.095 1.128 -4.316
1.103 1.869 -4.167
0.855 1.524 -4.455
0.482 0.901 -4.245
1.404 2.01 -3.684
1.315 2.161 -3.664
2.007 0.383 0.735
1.766 -0.192 1.22
2.031 0.236 1.284
1.991 -0.414 1.693
2.267 0.032 1.759
2.675 -0.196 2.083
2.074 0.941 0.928
2.088 0.713 1.449
2.326 0.528 1.931
2.749 0.417 2.295
1.884 1.434 1.198
1.926 1.135 1.68
2.158 0.967 2.172
2.541 0.959 2.592
1.624 1.884 1.117
1.755 1.469 1.75
1.503 1.904 1.671
1.842 1.579 2.299
1.557 2.073 2.21
1.11 2.216 1.58
1.886 1.845 2.759
2.132 1.224 2.493
2.174 1.477 2.929
2.585 1.225 3.051
1.814 2.002 3.263
2.105 1.625 3.407
2.513 1.382 3.555
1.633 2.033 3.763
1.933 1.655 3.881
2.331 1.413 4.055
1.359 1.937 4.21
1.674 1.563 4.305
2.058 1.316 4.502
1.021 1.721 4.561
1.354 1.359 4.638
1.72 1.101 4.853
0.651 1.408 4.781
1.002 1.062 4.847
1.35 0.788 5.074
0.073 1.245 4.841
0.82 0.891 4.947
0.23 0.725 5.008
0.672 0.387 5.179
1.205 0.294 5.301
0.564 -0.173 5.245
1.099 -0.256 5.367
-1.999 2.782 0.776
-1.065 -1.824 1.176
1.419 -0.545 0.696
1.7 -0.166 -0.791
-3.196 2.043 -0.114
-3.592 1.578 -0.026
-3.592 1.985 0.326
-3.196 2.357 0.319
-3.592 2.137 0.843
-3.196 2.469 0.843
-3.592 1.985 1.36
-3.85 1.69 0.843
-3.85 1.435 1.283
-3.592 0.264 0.574
-3.85 0.672 0.843
-3.85 0.927 0.403
-3.592 0.555 0.121
-3.592 1.045 -0.103
-3.85 1.435 0.403
-3.94 1.181 0.843
-3.85 0.927 1.283
-3.592 0.555 1.565
-2.722 -1.154 1.098
-2.722 -1.154 1.636
-2.722 -0.863 2.089
-2.326 -1.497 1.099
-2.482 0.597 -1.975
-2.482 0.047 -1.975
0.763 3.18 -0.086
0.367 3.4 -0.61
0.367 3.512 -0.086
0.367 3.4 0.438
-0.118 3.59 -0.615
-0.118 3.688 -0.086
-0.634 3.59 -0.615
-0.634 3.688 -0.086
-1.119 3.512 -0.086
-1.119 3.4 -0.61
-1.119 3.086 -1.043
-0.667 3.796 3.018
-0.667 3.906 2.497
-1.198 3.918 2.998
-1.198 3.65 3.431
-1.198 3.918 1.996
-1.198 4.012 2.497
-1.729 3.906 2.497
-1.729 3.796 3.018
-1.729 3.482 3.449
-1.729 3.796 1.976
-2.179 3.606 2.497
-2.179 3.474 2.987
-1.895 1.335 4.734
-2.426 1.603 4.572
-2.426 1.073 4.627
-2.426 2.064 4.305
-2.876 2.056 3.843
-2.876 1.697 4.202
-2.876 1.207 4.334
-2.876 0.717 4.202
-2.426 0.566 4.463
-3.176 1.738 3.353
-3.176 1.472 3.813
-3.176 0.942 3.813
-2.876 0.358 3.843
-3.176 0.676 3.353
-3.282 1.207 3.353
0.578 -2.491 4.272
0.08 -2.472 4.525
0.08 -2.776 4.08
0.578 -2.727 3.81
0.08 -2.934 3.566
0.578 -2.808 3.297
0.08 -2.934 3.028
0.578 -2.727 2.784
0.08 -2.776 2.514
0.08 -2.052 4.861
-0.44 -2.052 4.861
-0.44 -2.472 4.525
-0.44 -2.776 4.08
-0.44 -2.934 3.566
-0.44 -2.934 3.028
-0.44 -2.776 2.514
-0.44 -1.551 5.057
-0.938 -1.149 4.956
-0.938 -1.662 4.875
-0.938 -2.124 4.639
-0.938 -2.491 4.272
-0.938 -2.727 3.81
-0.938 -2.808 3.297
-0.938 -2.727 2.784
-0.938 -2.491 2.322
-1.374 -1.149 4.675
-1.374 -1.677 4.571
-1.374 -2.124 4.272
-1.374 -2.423 3.825
-1.374 -2.527 3.297
-1.374 -2.423 2.769
-1.714 -1.289 4.273
-1.714 -1.795 4.042
-1.714 -2.095 3.575
-1.93 -1.406 3.742
1.624 -1.33 -0.389
1.408 -1.719 -0.089
1.408 -2.019 -0.556
[...]
POINT_DATA 661
SCALARS point_data_0 double
LOOKUP_TABLE default
-0.00173066970042
-0.00182032788973
-0.00223131669252
-0.00225451778044
-0.00165020076563
-0.00203562465371
-0.00160288957314
-0.00186690064725
-0.00148067249337
-0.0020063102024
-0.00207813531523
-0.00361382561086
-0.00358499308474
-0.00139069579662
-0.00222357125173
-0.00229898887666
-0.00404901528285
-0.00421463226781
-0.00136431814051
-0.00218059352215
-0.00402681418583
-0.00115351006531
-0.00215476310577
-0.00391705446428
-0.00109315064235
-0.00171638952588
-0.00190900728513
-0.0034842193349
-0.00321303999689
-0.00137965091519
-0.00149160922983
-0.0016777708819
-0.00187341303391
-0.00190020221415
-0.00159167202827
-0.00193345351703
-0.0019116605512
-0.00168891652748
-0.00161977597141
-0.00178603154995
-0.00154007270327
-0.00175386934322
-0.00182440292634
-0.00197460287012
-0.00191908105518
-0.00180117957531
-0.00195808647111
-0.00201548458195
-0.00205420850136
-0.00207676153112
-0.00180558981331
-0.00205341330808
-0.00196879193297
-0.00199880139257
-0.00187586327514
-0.00172501118131
-0.00194344278053
-0.00181664590558
-0.001890928309
-0.00194694500535
-0.00226911396517
-0.00188060855887
-0.00198016654628
-0.00173363935308
-0.00234352690649
-0.00258101016398
-0.00226792255519
-0.00221961921466
-0.00126633531499
-0.00202552823478
-0.0065055098706
-0.00583191028526
-0.00878556605767
-0.00637873100603
-0.00231052908926
-0.00441316182351
-0.0038278477684
-0.00221989834492
-0.00324728525194
-0.00233896386954
-0.00212875020782
-0.00226724770582
-0.00118163487039
-0.00203686129684
-0.0026644373956
-0.00260034222056
-0.00317745349386
-0.00283058187363
-0.00212134246517
-0.00257972156701
-0.00272602431174
-0.00197688905232
-0.00254751490878
-0.00282231153556
-0.0023616255244
-0.00237945372916
-0.00322651477423
-0.00331513374906
-0.00269639932548
-0.0041551995168
-0.00435423361347
-0.00344675524513
-0.0033597877074
-0.00265595763487
-0.00438188920427
-0.00376975249894
-0.00402950971636
-0.00442221272937
-0.00418814516797
-0.0042791408378
-0.00404351902068
-0.00410714505411
-0.00421929013338
-0.00453677444205
-0.00396684307005
-0.00408777280838
-0.00439487852654
-0.00401199608752
-0.0036383551148
-0.00463793374277
-0.00262771426157
-0.00232934358456
-0.0016687579302
-0.00112129162692
-0.00296290085478
-0.00270669361791
-0.00451314695675
-0.00115976544308
-0.00291102799349
-0.00256299257538
-0.00353228639996
-0.00332350952391
-0.00500089501722
-0.00460822305224
-0.0141335920725
-0.01471159929
-0.00137188052455
-0.00213068336166
-0.00248862269333
-0.00427074844937
-0.00426814568849
-0.00154302511682
-0.00277800382521
-0.00396824409457
-0.0016651234411
-0.00166642761532
-0.00164689199018
-0.00161756361391
-0.0013944667508
-0.00144724187636
-0.00126562827043
-0.00117057533821
-0.000902559282442
-0.000812961443303
-0.00230613707506
-0.00206606061809
-0.00171291357073
-0.0011200010019
-0.0013114594287
-0.00098941341394
-0.00129272149116
-0.00184505357167
-0.00153646741266
-0.00144684540915
-0.00189559095794
-0.00156469149786
-0.00142788063654
-0.00162419939773
-0.00109410813872
-0.000817574643142
-0.0010083880078
-0.0034883788872
-0.00136998611218
-0.00110652533326
-0.00245526844862
-0.00166388779172
-0.00112736460514
-0.00132560213247
-0.00181964528485
-0.00138826459595
-0.00175423778604
-0.00193553729713
-0.00197830803985
-0.00198092190159
-0.00209540452758
-0.00193530686828
-0.00202942273356
-0.00120217374403
-0.000856668586974
-0.00135734834009
-0.000733966693656
-0.00173876563657
-0.00168581978703
-0.00185674692718
-0.00195589543056
-0.00190367784476
-0.00208825380637
-0.0019699052231
-0.00204569978615
-0.00191992649946
-0.00168896290841
-0.00121726445284
-0.00127407918259
-0.00108628728011
-0.00179862255534
-0.00137124735246
-0.00163592473129
-0.00208582092811
-0.00191893094654
-0.00185477617693
-0.00195707420514
-0.00245423305747
-0.00111410415393
-0.00159374164823
-0.00165779305648
-0.00289177242179
-0.00325224265666
-0.00421999601179
-0.00080449288952
-0.00204168675953
-0.00108195478753
-0.00174980830723
-0.0018670701271
-0.00159482283236
-0.00182903809566
-0.00117600032925
-0.00194092302199
-0.00347581018195
-0.0022586929432
-0.00371390789572
-0.0062356538848
-0.00280544716692
-0.00692336577626
-0.00768203172213
-0.00254380155881
-0.00924704773036
-0.00464198395247
-0.00195197260739
-0.00443745623162
-0.00204175097305
-0.00157854620143
-0.00186762090036
-0.000597045269123
-0.000825296802236
-0.000410525445299
-0.000583668958717
-0.000941364347835
-0.000879000687044
-0.00380375886695
-0.00382652753132
-0.00473138976935
-0.00413533080379
-0.000838176341661
-0.0010888414705
-0.00359820341333
-0.00379194206998
-0.000895173782338
-0.00127700169841
-0.00333149688882
-0.00337915500894
-0.00152751780313
-0.00318531920645
-0.00376476296675
-0.00436848715436
-0.00354565664976
-0.00147980411776
-0.00171736652719
-0.00100022818053
-0.000965975410388
0.000157290007543
-0.00293458451508
-0.00326375952263
-0.00292643122155
-0.00184631617887
-0.00220417817575
-0.00281708804596
-0.00132656366385
-0.00114093031629
0.00102436043808
0.00126341733805
-0.00276291078353
-0.00125649476505
0.00129786071328
-0.00286440159422
-0.0013179339388
0.00125592536062
-0.00278533091002
-0.00141066787686
0.00110431504328
-0.00275926161534
-0.0015176779258
0.000937402679445
-0.00272653302016
-0.00162251819769
0.000699576670281
-0.0027595086991
-0.00192434216197
-5.42483624125e-05
-0.00254741476927
-0.00273719380483
-0.00335257500476
-0.00260391032701
-0.00368998024672
-0.00269302133835
-0.00351427934412
-0.00346235121179
-0.00395796138093
-0.00409868474264
-0.00283242334067
-0.000154032934651
-0.00295488985086
-0.000263746884602
-0.00351288634595
2.88183336973e-05
-0.00479692029242
-0.0137380806206
-0.0129261699982
-0.00456084408874
-0.0171492621831
-0.00497493160067
-0.0046749720307
-0.0166187062223
-0.0207555364016
-0.00221785798903
-0.00447243637482
-0.0154420221712
-0.0157368674423
-0.00397024558918
-0.00370023845466
-0.0163683772496
-0.0161629162887
-0.00368124485784
-0.00489578761847
-0.00369953448555
-0.00382954292187
-0.0131821687713
-0.00319618407822
-0.0147091974428
-0.00255675271884
-1.63862794277e-05
7.20028573486e-05
-0.0025395847927
0.000378092048844
-0.00361003999054
-0.002883356619
-0.00243183899086
-0.00203582094745
-0.00166644897581
-0.00231366464835
-0.00272611249256
-0.00296671864101
-0.00278238084914
-0.00188995493488
0.000826237715545
-0.0052790092073
-0.00471102747485
-0.019273125502
8.50587439918e-05
-0.00501008151474
-0.0135380524708
0.000845908075696
-0.00508441847235
-0.00474479574728
-0.0151184235142
-0.0193449259757
-0.0054449246168
-0.00558321234553
-0.006575874248
-0.00175680898202
-0.00147492294295
-0.0015149483915
-0.00097052578325
-0.00107365105416
-0.000284944069288
-0.00161448696237
-0.00138043891392
-0.0011359826444
-0.00109514195811
-0.00130884727471
-0.000988162769282
-0.00108157968255
-0.00256915511884
-0.00130166627476
-0.000901188709082
-0.000933671722036
-0.00230770706271
-0.00342074219412
-0.000801475764284
-0.00608876874051
-0.00174511284677
-0.00269215050978
-0.0059412231042
-0.00836905385229
-0.00294058320537
-0.00926289038604
-0.00672061931943
-0.00290134971843
-0.00598330903068
-0.0036388617005
-0.00265768153585
-0.00347506633209
-0.00227141314131
-0.00221958974057
-0.00189354573939
-0.00175924639821
-0.00196989975976
-0.00120236854316
-0.00128157690258
-0.00206657965314
-0.00228180761294
-0.00199855054348
-0.00093658618918
-0.00191714821314
-0.000890830638868
-0.00169465255948
-0.00226694826065
-0.00232943615511
-0.00277248865407
-0.00130092844978
-0.0014937827891
-0.00173479744537
-0.00151547633208
-0.00173527015091
-0.00158392124878
-0.00172085543389
-0.0017867279254
-0.00175886425581
-0.00162198959284
-0.00167290202349
-0.00175675132218
-0.00143209783493
-0.00153312444101
-0.00173644056908
-0.00180258610088
-0.00172729885036
-0.00164880340017
-0.00219339454055
-0.00236169966512
-0.00247961676475
-0.00217674432619
-0.00403577887788
-0.00423514849558
-0.0015294131585
-0.00145645239184
-0.00187974848843
-0.00164781214713
-0.00092818379337
-0.00197700613719
-0.00166336199616
-0.0018795525681
-0.00193833238169
-0.0018213836826
-0.00158118554258
-0.00157196825578
-0.001459620891
-0.00181359844053
-0.00174020499821
-0.00151297260364
-0.00168497681222
-0.00180640971918
-0.00189056659618
-0.00188375283692
-0.00156129768745
-0.0017572222373
-0.00187121758714
-0.00172035185048
-0.00191286329653
-0.0018222901776
-0.00188920706827
-0.00194230477207
-0.00194119531924
-0.00193984280339
-0.00187393651584
-0.00173694577571
-0.0018559049277
-0.0019481469513
-0.00192410608065
-0.0016500458062
-0.00169496613962
-0.00185648966093
-0.0084187481792
-0.00553219240873
-0.00989192376673
-0.013526897948
-0.0103020263161
-0.0103611792745
-0.00590539368952
-0.00476639991266
-0.00272880625097
-0.00264218264971
-0.00183693522045
-0.00334963970302
-0.00502838298662
-0.00511688485467
-0.00340857787587
-0.00190745005371
-0.00100600483508
-0.000626998611767
-0.00110577032639
-0.00158857964409
-0.00226320852577
-0.00274347432601
-0.00260928259339
-0.00204303339476
-0.00128840161258
-0.00107071019383
-0.00120898377976
-0.00151671613854
-0.0019481228087
-0.00181583993254
-0.00172659026463
-0.00185655858294
-0.00207764640182
-0.00191471535394
-0.00314659993838
-0.00296702449986
-0.00293510090569
-0.00301032418657
-0.00269071474869
-0.00282889000884
-0.00264767767806
-0.0026488776445
-0.00277813236429
-0.00271723211115
-0.00262378523187
-0.00258528979254
-0.00281051790452
-0.00278344371863
-0.00263498767382
-0.00258730685888
-0.00252471786106
-0.00269906362351
-0.002767466365
-0.00260533629446
-0.00256669064807
-0.00255878886362
-0.0025020781363
-0.00255471088678
-0.00262897328435
-0.0025626839132
-0.00256542034581
-0.00246686229881
-0.00241695668294
-0.00254957129694
-0.00267291959687
-0.00259902684791
-0.00245738972108
-0.00257130205419
-0.00247171217135
-0.0025046973281
-0.00428132643751
-0.00444965840404
-0.0042755598127
-0.00427582658182
-0.0233889560091
-0.0015535478452
-0.00165090418023
-0.00938931274868
-0.0113088031148
-0.00590021501158
-0.00413864040334
-0.00628911152172
-0.0024028396746
-0.00192095304174
-0.00272423901982
-0.00138698198303
-0.00104256526584
-0.0067657152515
-0.00222434706268
-0.00375703776613
-0.00270000833732
-0.00202762749462
-0.00192740305138
-0.00160339951274
-0.00235720996005
-0.00550980543808
-0.00267188552972
-0.00198483856674
-0.00239176394172
-0.0031526455006
-0.00235356455695
-0.00129352758375
-0.00114236523236
-0.00205989210311
-0.00485385836325
-0.00808267912734
-0.00937455569303
-0.00437905783033
-0.00224822320146
-0.00163703253405
-0.0021775648144
-0.00385969497317
-0.00598500425389
-0.00543514872508
-0.00308350872664
-0.0013858583054
-0.00070041111239
-0.000571787095733
-0.00137621084924
-0.00330519553221
-0.00844642450859
-0.0138766267387
-0.00894249360432
-0.00468792678236
-0.00248242770445
-0.0015066800703
-0.00128196247461
-0.00181837530422
-0.00351160300273
-0.00719802064953
-0.0126506269021
-0.0102060607626
-0.00475335784646
-0.00191693678481
-0.000560933984719
-0.000118763936642
-0.001644367262
-0.00111504129169
-0.000943067071999
-0.00136182323831
-0.00246806196547
-0.00517425697068
-0.0107183520856
-0.000753896728354
-0.000741598342591
-0.00101127023209
-0.00171139645461
0.00086128725709
0.00144026527305
0.00124749496163
0.00105912879137
0.00118811495018
0.00108956132743
0.000956520551993
0.000749225061127
0.00125934724716
0.00136840051778
0.00137352087961
0.00121328850464
0.00114854058152
0.00101748238191
0.00103004521075
0.0013801187646
0.00120329740839
0.00113254750341
0.0010706242385
0.000712432052634
0.0014392498026
0.00128785616269
0.00128147427292
0.00104246430481
0.00100669587172
0.000744440138869
0.00105632647252
0.00114010832512
0.000832254578219
0.000718968828879
0.00102279668174
0.00108565566214
0.000814046977362
0.000546412292874

