# vtk DataFile Version 3.0
File Name: Molecule/arg/Error_   8.00.vtk
ASCII
DATASET UNSTRUCTURED_GRID
FIELD FieldData 1
TIME 1 1 double
0.0
POINTS 1350 double
-3.403 0.327 1.604
-3.458 0.149 1.214
-3.138 0.005 1.702
-3.19 -0.164 1.33
-2.981 -0.361 1.858
-3.036 -0.538 1.468
-3.398 0.034 0.803
-3.133 -0.274 0.938
-2.976 -0.654 1.057
-3.231 -0.009 0.408
-2.974 -0.315 0.561
-2.809 -0.697 0.662
-2.971 0.024 0.066
-2.725 -0.284 0.235
-2.549 -0.664 0.32
-2.984 0.046 0.042
-2.617 -0.045 -0.207
-2.63 -0.024 -0.229
-2.351 -0.22 -0.527
-2.365 -0.198 -0.55
-2.2 -0.483 -0.862
-2.216 -0.458 -0.889
-3.183 0.343 -0.145
-2.753 0.07 -0.229
-2.923 0.323 -0.389
-2.57 0.022 -0.532
-2.724 0.253 -0.678
-2.446 -0.093 -0.847
-2.6 0.138 -0.992
-2.39 -0.269 -1.153
-2.559 -0.016 -1.312
-3.263 0.702 -0.308
-2.991 0.63 -0.528
-2.786 0.532 -0.805
-2.663 0.417 -1.12
-2.628 0.291 -1.452
-3.216 1.083 -0.43
-2.951 0.955 -0.632
-2.75 0.829 -0.899
-2.626 0.714 -1.214
-2.587 0.616 -1.556
-3.047 1.443 -0.495
-2.807 1.262 -0.688
-2.618 1.109 -0.95
-2.495 0.993 -1.265
-2.443 0.924 -1.611
-2.776 1.74 -0.497
-2.575 1.516 -0.689
-2.407 1.34 -0.951
-2.283 1.225 -1.266
-2.211 1.177 -1.613
-2.622 1.932 -0.429
-2.434 1.563 -0.734
-2.291 1.743 -0.67
-2.16 1.459 -1.077
-2.01 1.647 -1.011
-1.982 1.439 -1.492
-1.81 1.654 -1.416
-2.666 2.281 -0.134
-2.227 2.054 -0.482
-2.267 2.371 -0.214
-1.881 2.228 -0.637
-1.921 2.545 -0.369
-1.615 2.438 -0.879
-1.659 2.787 -0.585
-2.622 2.533 0.247
-2.227 2.6 0.132
-1.881 2.773 -0.023
-1.614 3.039 -0.203
-2.495 2.657 0.67
-2.111 2.713 0.516
-1.765 2.886 0.361
-1.488 3.163 0.22
-2.797 2.625 0.927
-2.251 2.77 1.005
-2.52 2.741 1.234
-2.033 3.002 1.293
-2.299 2.974 1.519
-1.863 3.333 1.507
-2.155 3.302 1.755
-3.035 2.497 1.22
-2.731 2.627 1.494
-2.507 2.861 1.775
-2.385 3.178 2.038
-3.186 2.284 1.521
-2.865 2.437 1.761
-2.64 2.674 2.039
-2.53 2.972 2.328
-3.419 1.801 1.788
-2.888 2.359 1.917
-3.122 1.876 2.185
-2.717 2.558 2.345
-2.979 2.017 2.644
-3.552 1.393 1.822
-3.202 1.735 2.161
-3.319 1.374 2.191
-3.094 1.732 2.585
-3.21 1.376 2.614
-3.107 1.793 3.017
-3.235 1.399 3.05
-3.548 0.964 1.825
-3.316 0.994 2.194
-3.206 1.001 2.617
-3.231 0.984 3.053
-3.408 0.559 1.798
-3.191 0.635 2.17
-3.084 0.647 2.593
-3.095 0.593 3.027
-3.105 0.348 2.085
-3.1 0.088 1.867
-2.97 0.105 2.152
-3.02 0.504 2.546
-2.901 0.29 2.606
-2.978 0.383 3.085
-2.865 -0.346 2.113
-2.52 -0.7 2.425
-2.789 -0.06 2.411
-2.48 -0.378 2.69
-2.828 0.19 2.745
-2.523 -0.123 3.02
-2.645 0.041 3.387
-2.483 -1.039 2.238
-2.249 -0.827 2.688
-2.214 -1.15 2.51
-2.072 -0.978 3.011
-2.036 -1.312 2.826
-2.003 -1.142 3.367
-1.962 -1.514 3.162
-2.359 -1.33 2.011
-2.096 -1.427 2.294
-1.914 -1.599 2.602
-1.826 -1.833 2.912
-2.159 -1.55 1.761
-1.905 -1.637 2.055
-1.716 -1.817 2.356
-1.606 -2.075 2.638
-1.897 -1.684 1.507
-1.655 -1.765 1.813
-1.457 -1.949 2.105
-1.318 -2.222 2.359
-1.592 -1.721 1.268
-1.365 -1.8 1.585
-1.156 -1.986 1.869
-0.984 -2.263 2.097
-1.926 -1.641 1.017
-1.351 -1.766 0.91
-1.664 -1.691 0.675
-1.133 -1.941 0.578
-1.457 -1.864 0.334
-0.96 -2.23 0.303
-1.327 -2.142 0.027
-2.203 -1.444 0.759
-1.923 -1.507 0.433
-1.726 -1.673 0.084
-1.631 -1.926 -0.256
-2.396 -1.15 0.52
-2.103 -1.231 0.209
-1.913 -1.387 -0.149
-1.843 -1.603 -0.519
-2.487 -0.785 0.321
-2.189 -0.889 0.022
-2.002 -1.032 -0.342
-1.943 -1.202 -0.738
-2.264 -0.668 -0.026
-2.322 -0.554 -0.027
-2.141 -0.611 -0.433
-2.203 -0.492 -0.433
-2.131 -0.618 -0.861
-2.114 -0.682 -1.181
-1.927 -1.264 -1.052
-2.312 -0.441 -1.376
-2.121 -0.506 -1.916
-2.042 -0.816 -1.214
-1.838 -0.886 -1.79
-1.682 -1.348 -1.746
-1.975 -0.256 -2.322
-1.864 -0.768 -1.888
-1.672 -0.441 -2.421
-1.897 0.192 -2.527
-1.57 0.147 -2.691
-1.996 0.646 -2.441
-1.495 0.306 -2.776
-1.602 0.798 -2.682
-1.198 0.386 -3.152
-1.328 0.981 -3.039
-2.011 1.039 -2.18
-1.619 1.224 -2.399
-1.348 1.496 -2.696
-1.72 1.257 -2.235
-1.631 1.561 -2.005
-1.259 1.801 -2.466
-1.479 1.817 -1.75
-1.107 2.057 -2.211
-1.346 2.153 -1.415
-1.642 2.007 -1.116
-1.319 2.584 -1.178
-1.091 2.821 -1.245
-1.159 2.356 -1.471
-0.94 2.583 -1.535
-1.087 2.175 -1.825
-0.858 2.412 -1.893
-0.852 2.322 -2.287
-0.816 3.013 -1.267
-0.676 2.767 -1.557
-0.583 2.604 -1.915
-0.543 2.537 -2.312
-0.229 3.384 -1.004
-0.488 2.934 -1.522
-0.105 3.176 -1.351
-0.228 2.93 -1.855
0.02 3.086 -1.745
-0.059 3.001 -2.236
0.134 3.123 -2.15
0.003 3.141 -2.63
0.229 3.284 -2.529
-0.048 3.337 -3.001
0.294 3.553 -2.848
0.466 3.148 -0.891
0.348 3.022 -1.277
0.313 2.987 -1.697
0.364 3.045 -2.112
0.497 3.193 -2.485
0.699 3.415 -2.782
0.833 2.913 -0.61
0.553 2.897 -1.196
0.905 2.671 -0.926
0.699 2.74 -1.539
1.067 2.504 -1.257
0.892 2.689 -1.891
1.303 2.425 -1.576
1.057 2.557 -0.305
1.12 2.33 -0.634
1.29 2.148 -0.952
1.553 2.026 -1.234
1.025 2.711 0.026
1.24 2.204 -0.113
1.21 2.35 0.201
1.539 1.918 0.039
1.507 2.071 0.37
0.916 2.809 0.362
1.106 2.444 0.521
1.398 2.17 0.706
0.737 2.845 0.68
0.936 2.478 0.823
1.22 2.206 1.024
0.406 3.093 0.833
0.701 2.629 1.02
0.405 2.851 1.157
0.756 2.48 1.392
0.466 2.698 1.526
0.897 2.411 1.765
0.584 2.646 1.91
1.112 2.426 2.108
0.748 2.699 2.276
0.102 3.399 0.689
0.198 3.058 1.115
-0.072 3.33 0.987
0.05 3.076 1.433
-0.206 3.335 1.311
-0.029 3.146 1.769
-0.293 3.414 1.643
-0.034 3.266 2.099
-0.327 3.561 1.96
-0.29 3.571 0.538
-0.421 3.483 0.852
-0.539 3.48 1.183
-0.636 3.563 1.511
-0.705 3.727 1.814
-0.721 3.587 0.398
-0.805 3.497 0.727
-0.904 3.494 1.065
-1.012 3.577 1.389
-1.123 3.742 1.679
-1.138 3.445 0.287
-1.176 3.371 0.629
-1.257 3.373 0.971
-1.376 3.453 1.292
-1.525 3.605 1.572
-1.488 3.12 0.569
-1.554 3.135 0.914
-1.681 3.207 1.233
-0.038 3.383 2.443
0.304 2.919 2.221
0.3 3.037 2.566
0.743 2.833 2.666
-0.112 3.436 2.794
0.225 3.091 2.918
0.658 2.893 3.065
-0.253 3.42 3.128
0.084 3.075 3.254
0.499 2.875 3.445
-0.449 3.338 3.421
-0.113 2.992 3.549
0.276 2.781 3.779
-0.687 3.194 3.654
-0.352 2.847 3.783
0.006 2.617 4.044
-1.016 3.185 3.753
-0.58 2.815 3.881
-0.962 2.805 3.996
-1.359 3.167 3.763
-1.359 2.784 4.008
-1.693 3.142 3.685
-1.746 2.755 3.917
-1.995 3.111 3.523
-2.096 2.719 3.73
-2.244 3.076 3.289
-2.384 2.678 3.458
-2.423 3.039 2.998
-2.593 2.636 3.121
-2.521 3.004 2.671
-2.706 2.595 2.741
-0.749 2.537 4.164
-0.16 2.345 4.321
-0.912 2.194 4.368
-0.321 2.009 4.521
-1.061 1.806 4.483
-0.466 1.628 4.634
-1.28 2.135 4.399
-1.452 1.611 4.604
-1.641 1.894 4.531
-1.543 2.398 4.242
-1.868 2.121 4.396
-1.833 2.577 4.025
-2.118 2.276 4.208
-2.128 2.66 3.763
-2.373 2.347 3.982
-2.409 2.64 3.473
-2.615 2.33 3.732
-2.655 2.52 3.176
-2.827 2.227 3.476
-2.849 2.307 2.894
-2.995 2.043 3.232
-1.464 1.095 4.666
-0.956 1.592 4.533
-0.968 1.074 4.596
-0.48 1.041 4.705
-1.655 0.731 4.634
-1.079 0.886 4.596
-1.26 0.541 4.565
-0.689 0.687 4.666
-0.881 0.322 4.633
-0.333 0.517 4.869
-0.555 0.096 4.831
-1.956 0.515 4.553
-1.383 0.368 4.531
-1.661 0.166 4.457
-1.114 -0.009 4.584
-1.407 -0.22 4.505
-0.878 -0.357 4.785
-1.219 -0.603 4.693
-2.226 0.322 4.369
-1.912 -0.012 4.286
-1.67 -0.408 4.326
-1.526 -0.822 4.484
-2.442 0.172 4.097
-2.112 -0.152 4.033
-1.88 -0.555 4.06
-1.772 -0.993 4.174
-2.586 0.075 3.76
-2.246 -0.241 3.721
-2.021 -0.649 3.731
-1.935 -1.103 3.791
-2.301 -0.273 3.375
-2.078 -0.682 3.368
-0.642 -0.546 4.955
-0.314 -0.097 5.005
-0.383 -0.749 5.065
-0.05 -0.304 5.117
-0.111 -0.96 5.11
0.227 -0.52 5.163
0.164 -1.171 5.088
0.507 -0.734 5.141
0.328 -1.528 5.007
0.615 -0.976 5.092
0.771 -1.314 5.015
1.043 -0.806 5.264
1.207 -1.163 5.184
0.496 -1.85 4.839
0.93 -1.621 4.855
1.375 -1.486 5.015
0.658 -2.122 4.593
1.084 -1.878 4.621
1.537 -1.757 4.769
0.805 -2.327 4.281
1.224 -2.073 4.326
1.684 -1.962 4.458
0.93 -2.454 3.923
1.343 -2.194 3.985
1.809 -2.089 4.099
1.026 -2.497 3.536
1.433 -2.234 3.618
1.905 -2.132 3.712
1.086 -2.453 3.142
1.491 -2.193 3.244
1.965 -2.088 3.318
1.109 -2.324 2.763
1.512 -2.07 2.884
1.988 -1.959 2.939
1.092 -2.118 2.42
1.496 -1.875 2.558
1.971 -1.753 2.596
1.037 -1.846 2.131
1.444 -1.616 2.284
1.916 -1.481 2.307
0.796 -2.146 2.122
0.866 -1.735 1.801
0.66 -1.991 1.794
0.779 -1.673 1.428
0.591 -1.907 1.421
0.784 -1.666 1.039
0.596 -1.899 1.033
0.88 -1.714 0.666
0.674 -1.97 0.659
1.061 -1.813 0.337
0.819 -2.113 0.328
0.482 -2.37 2.114
0.391 -2.182 1.787
0.347 -2.08 1.414
0.352 -2.073 1.026
0.406 -2.161 0.652
0.505 -2.337 0.32
0.119 -2.499 2.107
0.081 -2.292 1.78
0.065 -2.18 1.409
0.07 -2.173 1.021
0.096 -2.271 0.646
0.142 -2.466 0.313
-0.266 -2.524 2.101
-0.247 -2.313 1.776
-0.234 -2.2 1.405
-0.229 -2.193 1.016
-0.232 -2.292 0.641
-0.243 -2.491 0.308
-0.643 -2.443 2.098
-0.569 -2.244 1.773
-0.527 -2.137 1.402
-0.522 -2.13 1.014
-0.554 -2.224 0.638
-0.62 -2.41 0.304
-0.86 -2.09 1.772
-0.792 -1.997 1.401
-0.787 -1.99 1.013
-0.845 -2.07 0.637
1.343 -1.496 0.161
1.028 -1.535 0.641
1.242 -1.295 0.508
1.078 -1.33 0.996
1.248 -1.139 0.89
1.205 -1.217 1.373
1.361 -1.043 1.276
1.4 -1.205 1.737
1.57 -1.014 1.631
1.644 -1.296 2.058
1.857 -1.056 1.925
2.198 -1.164 2.131
1.48 -1.078 0.031
1.346 -0.978 0.409
1.331 -0.887 0.812
1.436 -0.812 1.205
1.652 -0.762 1.553
1.961 -0.739 1.826
2.335 -0.746 2.002
1.639 -0.712 -0.547
1.451 -0.719 0.207
1.594 -0.39 -0.313
1.526 -0.39 0.423
1.664 -0.072 -0.079
1.697 -0.118 0.66
1.842 0.216 0.134
1.696 -1.065 -0.74
1.721 -0.524 -0.905
1.773 -0.846 -1.081
1.914 -0.328 -1.213
1.966 -0.645 -1.386
2.201 -0.141 -1.444
2.256 -0.481 -1.629
1.664 -1.393 -0.979
1.744 -1.145 -1.299
1.937 -0.939 -1.601
2.226 -0.795 -1.858
1.546 -1.673 -1.249
1.636 -1.4 -1.545
1.831 -1.191 -1.843
2.112 -1.064 -2.117
1.348 -1.888 -1.533
1.457 -1.596 -1.804
1.654 -1.384 -2.098
1.923 -1.27 -2.389
1.085 -2.024 -1.812
1.217 -1.72 -2.058
1.418 -1.506 -2.348
1.67 -1.4 -2.657
0.772 -2.072 -2.068
0.932 -1.764 -2.291
1.137 -1.549 -2.578
1.371 -1.446 -2.902
0.431 -2.029 -2.284
0.62 -1.725 -2.489
0.83 -1.51 -2.772
1.043 -1.405 -3.11
0.082 -1.898 -2.448
0.302 -1.605 -2.638
0.517 -1.392 -2.919
0.708 -1.279 -3.267
-0.251 -1.687 -2.547
-0.001 -1.412 -2.728
0.218 -1.203 -3.008
0.389 -1.077 -3.362
-0.548 -1.409 -2.576
-0.272 -1.16 -2.755
-0.048 -0.954 -3.034
0.104 -0.811 -3.39
[...]
CELL_DATA 2696
SCALARS cell_data_0 double
LOOKUP_TABLE default
1.5916943674e-05
2.30995326197e-05
2.54357504169e-05
1.16470189294e-05
9.04572601052e-06
1.44087819942e-05
1.72268795649e-05
2.54637512587e-06
5.76089001574e-06
6.30078860958e-06
5.5976688435e-06
1.89855911758e-05
1.24624976496e-05
1.20565282022e-05
2.00028922803e-05
2.99796029349e-05
2.88135742874e-05
0.000166057532787
0.000117859073144
0.000301891863875
0.000190081598331
0.000265802083258
4.79871394428e-05
5.25175049636e-05
6.97124415745e-05
6.34829699167e-05
2.59679670809e-05
3.72494820958e-05
1.09334443857e-05
1.93845148796e-05
3.08122532228e-05
3.81047680546e-05
4.72893412704e-05
4.40816884821e-05
3.53933534797e-05
2.84848411649e-05
1.00644027139e-05
1.56077243796e-07
2.28473139778e-05
3.05118599283e-05
3.6164990376e-05
3.7473932251e-05
2.29282325209e-05
2.01871925517e-05
1.35424892681e-06
1.26376015761e-05
1.67174550488e-05
2.40503061466e-05
3.01728660158e-05
3.03942046104e-05
1.69146336211e-05
8.30123599462e-06
4.54465548131e-06
2.77979223268e-05
6.58128199654e-06
9.51098409968e-06
1.58269010349e-05
1.14472348188e-05
8.23721932703e-06
2.61548693913e-06
1.73093296906e-05
2.47826219825e-05
4.38509623139e-05
3.13100879535e-05
4.92451118928e-05
4.16270913737e-05
2.12123215972e-05
1.38236228889e-05
2.62990605035e-05
6.39798725457e-05
5.34534453812e-05
7.4803082199e-05
4.1964532259e-05
3.26125116359e-05
4.69732710756e-05
4.75182402805e-05
6.50924406082e-05
4.29067158687e-05
5.24312585411e-05
1.15124310527e-05
2.62828776602e-05
1.60720894911e-05
3.26123403413e-05
1.25706933411e-05
2.0748727228e-05
1.9181862164e-06
5.35393586061e-06
1.97658436628e-05
8.79434395352e-06
7.4575984305e-06
3.97701566679e-06
1.9887366973e-06
1.61150083365e-05
1.50495858754e-05
1.42798693057e-05
1.11939222571e-06
2.35430929646e-07
7.25079043834e-06
9.15985701645e-06
4.49924026339e-06
5.25332120701e-06
1.2664079776e-05
6.17562280706e-06
5.63228448061e-06
1.60637075809e-05
4.42380789147e-06
1.02883876533e-05
6.74941612301e-06
1.321953987e-05
1.03044001762e-05
1.16746415806e-05
8.93632608853e-06
6.33008620483e-07
1.54089796011e-05
6.60249522998e-06
2.30710849889e-06
3.71878566485e-06
2.15807318943e-05
1.82611286947e-05
2.23870132244e-05
5.52926224475e-06
7.04722081562e-06
2.09150195399e-05
3.26878470615e-05
2.8662596109e-05
2.48429439622e-05
5.14704479466e-06
6.25039801207e-06
2.79551844712e-06
1.53193202408e-05
4.4629523752e-08
3.37387837378e-05
7.44120838315e-06
9.70972885194e-06
3.15851921033e-05
6.09219462597e-05
6.47975259918e-05
6.39053869462e-05
5.10852255057e-05
2.58665403108e-05
2.20798284662e-05
0.000153914006794
8.79458884558e-05
4.29918800494e-06
0.000196356008039
2.9945697301e-05
4.12583713905e-05
0.000126691892432
6.19419921502e-05
4.24518358465e-05
0.000107397421646
3.92857076237e-06
3.18790735751e-05
8.55356836087e-05
3.68421511167e-05
3.0893783009e-05
4.59995527455e-05
3.71532482785e-06
1.95488711526e-05
3.26053151981e-05
2.30118862715e-05
3.77695111592e-06
1.88134765817e-05
1.439808477e-05
1.15725784246e-05
6.72757355601e-06
4.68226988889e-06
2.28333435339e-05
1.19337609428e-05
9.46933451084e-06
1.0985276983e-05
5.23652041761e-05
1.93162657001e-05
2.84629203262e-05
2.14094935873e-05
4.25054389708e-06
2.99138690285e-05
4.28997359362e-05
3.08864020134e-05
6.82236017652e-06
1.42004665753e-06
1.47000384324e-05
1.9658026421e-05
2.42734572425e-05
1.52493755282e-05
1.16609966346e-05
1.33772186071e-05
3.07627364454e-05
1.28425203712e-05
1.12114683822e-05
1.85302678976e-06
1.62378665618e-05
2.69157232693e-05
5.47783436934e-06
6.70118318311e-06
5.82503896768e-05
2.23212338223e-05
6.17349242166e-05
8.13998823626e-05
3.42751502282e-05
2.0817237041e-05
0.000175696910741
7.84844884463e-05
9.12455488465e-06
9.15099264253e-05
1.96326613199e-05
1.23072421259e-05
5.4103071409e-05
2.87139151692e-08
2.35574648326e-05
3.18943963344e-05
7.93155968595e-05
8.09855856409e-05
1.79127496907e-05
8.00461655962e-05
1.03134498192e-05
1.03447802599e-05
7.25138818886e-05
5.87042939537e-05
5.40033227458e-05
9.86895070923e-05
6.38213507385e-05
0.000127499588083
1.78904479783e-05
2.69958972375e-06
1.24503957931e-05
8.12063471256e-06
1.81080199683e-05
8.09801297794e-06
8.57075459167e-06
2.18035115514e-05
8.55565029149e-05
6.21990792769e-05
4.56859955878e-05
5.73953976486e-05
1.0662360661e-05
3.36564696746e-05
4.22418818988e-05
5.61688902688e-05
2.09329578399e-05
4.10777572721e-05
1.93783439771e-06
0.000106484306783
0.000149417732861
0.000133990784656
0.000156297805636
0.000134921618768
0.000173541867679
5.81718323934e-05
0.000286068356371
6.21084485282e-06
0.000146883760413
0.00011049966384
1.59510294507e-05
0.000128999295157
3.43081572317e-05
0.000152862015379
6.40566060449e-05
0.000176409726433
0.000194912266718
6.25289913995e-05
1.38533888048e-05
5.42706690384e-05
0.000139084094752
0.000139221027511
0.00020029301857
0.000200545600564
0.000129361015179
5.74449020661e-05
7.61699536998e-05
0.000145144738206
0.000104920498744
0.000187517893518
1.84742262607e-05
9.84630610527e-06
3.37411505422e-05
1.58241820369e-05
9.13615240126e-06
2.33278537114e-05
2.70401798094e-05
2.42830587436e-05
4.16557166607e-06
1.43426804419e-05
7.59077843979e-06
1.49553053824e-05
6.96121275863e-06
1.04971540585e-05
1.35280167936e-05
4.6609194801e-06
1.52671894823e-05
1.10442638228e-05
5.96060708383e-05
3.40898323957e-05
4.90396906646e-05
1.07761843506e-05
1.47816305384e-05
1.2689850501e-05
7.85397923797e-06
4.24680751612e-06
1.03481661513e-05
4.60725718848e-06
3.4274588975e-06
1.1391953171e-05
6.80954766821e-06
1.2617496696e-05
1.37449906903e-06
6.14378012766e-06
1.18605934721e-06
7.06883505618e-06
5.32041780608e-06
4.79048638454e-06
1.51746317731e-06
1.66138608542e-06
6.19169074028e-06
3.4762466787e-06
1.41045893207e-05
1.02418685368e-05
7.26972442657e-06
9.50295085552e-07
7.11404507038e-06
1.19480499292e-05
1.35983575195e-05
1.53073917458e-05
2.48083362741e-05
1.95959395686e-05
1.59568401165e-05
5.30780624165e-06
8.62502771626e-06
1.48426387649e-05
1.03949354085e-05
2.09136545726e-05
2.31979483007e-05
2.65316473345e-05
1.17043892034e-05
1.18458631459e-05
9.50331685729e-05
2.41730132773e-05
3.74241047566e-05
5.33240237485e-05
0.00011263067035
5.34950939893e-05
5.79216237456e-05
4.87144965545e-05
0.000100487887683
5.36024821672e-05
6.39109233235e-05
4.45040927266e-05
7.62529067806e-05
3.98556601604e-05
3.85624409397e-05
3.06038584211e-05
3.02314105296e-05
2.83998348681e-05
2.5561729851e-05
6.40651696632e-06
4.78619601522e-06
7.85906869537e-06
2.2361238966e-06
5.22052477253e-06
1.60072294383e-06
1.26555938708e-06
7.95799629792e-06
1.64887681309e-06
3.60306996582e-05
8.29699264085e-08
1.066667546e-05
2.19815221286e-06
9.34696760183e-06
1.7439644048e-06
4.84870409328e-06
9.91564357393e-06
2.77297958806e-05
1.34916322314e-05
2.29526232445e-05
9.67236656297e-06
9.95424283688e-06
2.81804131152e-06
1.81970891023e-06
1.26288110143e-06
3.17366613248e-06
2.70046103362e-06
7.1133862836e-07
9.21156072775e-06
4.77466836377e-07
3.44459347989e-05
4.82562050886e-07
1.73792616456e-05
3.88553982644e-06
6.17219759372e-06
8.10737532026e-06
5.03466970058e-06
1.16438564684e-05
1.77054484993e-06
1.38399174463e-05
1.17942339661e-05
5.15292136486e-06
4.12176201672e-06
3.99436886012e-06
3.31019309529e-06
8.33626467954e-07
9.52332574215e-07
6.73738671562e-06
9.16786380782e-06
8.95678159303e-06
6.95262527898e-06
1.62850210446e-05
9.32959022545e-06
3.49629138619e-06
1.05845387395e-05
6.3266397554e-06
1.39046175693e-06
3.54114713545e-05
1.59586967493e-05
1.77132767626e-05
9.06033535898e-06
6.32991966363e-06
9.6681023932e-06
5.05487816233e-05
2.94376567333e-05
3.33280959385e-05
4.83775368471e-06
2.18597749734e-05
2.07798770425e-05
6.96679358517e-05
5.14843060768e-05
2.15116263125e-05
5.90056865722e-06
3.14753705308e-05
2.75646025428e-05
5.84373044498e-05
4.65455513798e-05
6.34629271826e-05
1.03904789481e-05
9.89643430209e-06
1.03355767653e-05
6.96520759625e-06
1.16034060573e-05
1.05109706459e-05
1.18797361531e-05
6.37682843089e-06
8.07887020189e-06
2.64373430625e-05
1.12321543204e-05
6.248420028e-06
2.49976989463e-05
3.7207873191e-05
4.62334747814e-05
4.62513733423e-05
3.02475593657e-05
3.48878415481e-05
0.000106663266673
7.06641641777e-05
1.87522528503e-05
1.72351095641e-05
0.000184803232093
0.00013175805246
1.09050008641e-05
0.000139992161834
0.000266620804645
8.93179889491e-05
9.82822274239e-05
0.000233577548291
0.000221959743487
0.000109745391457
0.000108572144912
0.000222245057304
0.00011509190021
4.01098099851e-05
6.48717235142e-05
0.00012699308809
2.9453121072e-05
1.02834828584e-06
2.40891657599e-05
4.48198393818e-05
1.57597256174e-06
4.09640434988e-06
6.701249377e-06
7.26658376011e-06
9.20835026194e-07
1.04453719158e-05
2.37845038096e-05
3.44038004553e-05
9.33030672867e-06
4.99430746368e-05
2.50682929965e-05
6.27140891368e-05
5.79816663627e-05
1.06754573976e-05
6.95202447857e-05
5.22811211535e-06
9.57930523294e-06
3.7486934223e-05
2.23717800784e-05
4.99373262217e-05
4.93520853331e-05
5.44664371275e-05
3.67581136524e-05
3.86520780853e-06
1.51237797538e-05
3.73205002954e-05
6.54998993322e-06
3.91232965668e-05
2.20511134327e-05
4.2722897496e-05
4.07761141987e-05
4.5835092985e-05
2.68627432087e-05
1.13760884557e-05
2.160032235e-06
6.41153156915e-06
7.38844966657e-06
3.60115327e-05
2.08565985655e-05
3.84174057156e-05
3.17127428326e-05
3.3534611306e-05
1.53019119224e-05
1.86988224284e-05
9.93925944141e-06
1.3209719682e-05
5.86858272272e-06
3.00617496481e-05
2.02242350998e-05
2.99936315854e-05
2.44883788979e-05
2.16437238581e-05
1.00031680349e-05
2.74805043462e-05
1.08534255087e-05
2.62779244058e-05
2.75405634182e-06
1.45979872392e-05
8.57877110053e-06
2.81235731184e-05
1.54897731917e-05
1.61997101253e-05
2.67620062064e-06
1.49359945723e-05
1.58312658208e-05
1.78630139451e-05
4.18183680865e-05
3.64657511193e-06
5.89238787165e-05
4.55498945384e-06
2.70547476857e-05
3.68127338993e-05
3.33328376313e-05
4.57869169176e-05
2.13540714211e-05
3.24263125209e-05
1.46415466124e-05
1.21143582197e-05
3.887847299e-05
8.77607386424e-06
2.026555432e-05
5.53073776904e-05
4.96872986885e-05
1.04291430161e-05
5.30544093933e-05
3.3166766832e-05
3.4347625895e-05
2.88937572146e-05
2.68334751582e-05
9.23840815853e-06
8.61123085815e-05
6.10939281032e-05
7.12447279824e-05
1.14154049925e-06
1.35131611827e-05
3.6383377934e-06
9.42950769323e-06
3.78356152925e-06
2.35637602522e-06
5.53104007662e-06
2.15963284794e-05
6.0247992506e-07
4.38415451498e-07
1.04028100519e-05
7.13565622941e-06
1.4740079251e-05
1.45024380927e-05
8.40277012585e-07
2.17104970579e-06
1.51946016533e-05
1.00058696482e-05
1.79124933712e-05
1.73208827051e-05
5.34586482146e-07
1.1937152497e-06
1.90700283182e-05
1.19086725317e-05
2.07581516268e-05
1.81184082428e-05
1.89131068667e-07
3.43799782425e-06
2.1198772589e-05
1.83173209705e-05
2.25738389799e-05
1.8225757446e-05
1.04376457228e-06
4.54927118593e-06
2.29290810397e-05
1.60561466172e-05
2.28182384409e-05
1.78043836139e-05
2.32486825124e-06
7.45715902511e-06
2.67876022844e-05
1.94434092638e-05
2.7766094616e-05
2.11353104349e-05
3.61664748717e-06
1.00637331251e-05
3.03149525798e-05
2.51874123397e-05
3.59637120275e-05
2.70481954049e-05
6.9929744928e-06
1.44493191269e-05
4.09494096917e-05
3.61899942293e-05
4.82906314037e-05
3.78983529244e-05
1.69983691795e-05
1.81218998519e-05
6.37019907587e-05
4.34759142619e-05
4.71008537658e-05
5.00409579218e-05
7.0273007077e-06
1.49247556356e-05
8.67320792729e-06
2.49514301335e-05
5.40339798519e-06
2.93327870885e-06
8.16872285452e-06
1.85694827787e-05
3.66745722806e-05
1.57189776673e-05
2.55111279729e-05
2.62537916876e-05
9.49120068613e-05
9.00987358055e-06
2.59918452277e-05
3.82544958283e-05
1.32485488059e-05
8.14921870801e-06
0.000176545328306
1.44388959608e-06
3.60687264737e-06
2.06432184025e-05
1.83956992851e-05
3.3689372936e-05
3.2688458024e-05
4.39511971228e-05
7.48536137279e-06
1.61585627454e-05
3.62025608456e-05
0.000120793171235
0.000237055300087
0.000106800521791
1.48281549394e-05
3.23406327418e-06
0.000167410598132
0.000123696007675
0.000302107316858
0.000212267398759
0.000367638376189
0.000154618056056
0.000136598512993
0.000158538377213
8.54242440846e-05
0.000136717799634
0.000227025401188
5.17667538585e-05
7.72339236863e-05
0.00011924360882
5.35843469569e-05
0.000176809003141
0.000147979930463
3.68081946369e-05
0.000208947322455
0.000134055382327
9.86950277759e-06
0.000213061866906
0.000166722632143
0.000129432421951
0.000112171136984
7.52342155083e-05
8.40149535076e-05
0.000203981046815
0.000186176393955
2.62661268669e-05
0.000140546967236
0.000200320991321
8.62748420664e-05
0.000210956308737
0.000141843593848
0.000152507991033
2.33584106904e-05
0.000201556026408
0.000246028522322
0.000255926439171
7.91883570676e-05
0.000183719247265
7.59423350131e-05
0.000298553903609
0.000724274491539
0.000521359120222
0.000131126136675
0.000431081066851
0.000529627887081
0.000584818921194
1.40172890339e-05
6.73657218962e-06
1.58952488001e-05
1.34099796831e-05
2.70226479004e-06
3.61003059978e-06
1.05149233079e-05
2.80292359439e-05
2.64477226008e-05
1.68040717021e-05
2.79813753658e-05
2.07029220004e-05
2.10463079395e-05
3.5394742823e-05
7.00747888961e-05
7.18080107904e-05
6.15780119702e-05
6.80185931288e-05
3.94581753551e-05
3.96713387505e-05
6.89047900249e-05
8.42342882256e-05
5.23781746344e-05
7.79913910093e-05
1.4686888609e-05
4.15729666085e-05
1.15441609583e-05
2.63052318023e-05
2.23557546816e-05
2.01225769472e-05
6.04224337038e-05
2.94201879139e-05
1.42368614856e-05
7.97500908117e-06
3.31128960733e-06
1.2244440156e-05
4.32516140324e-05
4.11802191848e-05
7.8683559359e-05
4.70926353886e-05
1.1606957041e-05
0.000123376924008
0.000525142599285
0.000386494921943
4.12282473405e-06
0.000204114598326
0.000423435480273
0.000276283263272
0.000102814645908
0.000140615784226
0.000305307341734
5.50005654857e-05
0.000452457539051
0.000219477520353
0.000649638559792
0.000500222840714
7.47032380428e-05
0.00025975331098
0.0004752039054
0.000394412616861
3.28856396005e-05
0.000144068606925
0.000302437435273
0.000221105292911
0.000164807860974
0.000240425431589
0.000392047619467
0.000134601754447
9.97035634965e-05
0.000408477682173
0.000499313280544
1.40520917422e-06
1.73819251362e-07
8.01490057436e-06
1.41534559631e-05
1.70900011182e-05
2.77842460081e-05
2.3163569251e-05
3.80231533023e-06
1.18197125539e-05
7.52962256571e-06
3.62880448358e-06
2.0687519218e-05
2.02771839445e-05
3.10853105635e-05
2.84330555839e-05
1.32461695151e-05
6.46909199799e-06
1.86756289693e-06
5.82647983423e-06
1.86896772647e-05
2.07712248536e-05
4.14990037933e-05
3.93066001852e-05
1.67345083487e-05
6.12106192171e-06
4.44592734693e-06
9.38000818486e-06
1.92976786045e-05
2.52417664865e-05
3.31673835225e-05
4.18332176132e-05
3.06800902436e-05
2.06605756745e-06
1.40957900922e-07
7.89347198515e-06
2.64181600107e-06
2.55320152515e-05
2.09580576205e-06
5.21872207112e-05
3.54842204574e-06
1.2132180467e-05
2.65821339656e-05
8.71361614402e-06
4.83286246745e-05
2.31556099318e-05
3.74073947034e-05
5.21508012452e-06
2.3233544324e-05
2.83924461554e-05
6.02811538228e-05
2.47871111114e-05
6.38060931041e-05
1.06120730504e-05
1.14517597597e-06
2.06370020767e-05
3.73669404887e-05
7.10264194775e-06
1.01304755174e-06
2.04542062877e-05
9.23718371398e-06
0.000127147344222
0.000126732052414
4.30475077252e-05
0.000123143809374
0.000239439533823
7.86526402946e-05
0.000169856255803
0.000288468270457
0.000235735896955
7.40606714693e-05
0.00025526250183
0.000305177336679
0.000148712157537
9.73478976174e-05
0.00012593663006
0.000206111405656
1.99540943519e-05
2.04624413178e-06
5.02383100983e-05
0.000113071092273
3.13130790959e-05
1.67663907431e-05
4.1981823779e-05
4.617036745e-05
3.48647069453e-05
1.16357923698e-05
2.09119167915e-05
9.32908971982e-06
2.61165078781e-05
5.65177694263e-06
8.71261515673e-06
1.0629602988e-05
3.98187420548e-06
1.28060306166e-05
9.63011334278e-06
8.39577107352e-06
8.63334360339e-06
1.72647360325e-05
1.0661562355e-05
1.05072603476e-05
5.95083976334e-06
5.39805611947e-06
2.51885602446e-06
7.60050580298e-06
1.97916762887e-05
5.78480295192e-06
1.5525866146e-05
4.65386624492e-05
5.06673191161e-06
0.000217483998967
8.40323654052e-05
1.16252422285e-05
2.25315213544e-05
2.18803732315e-05
2.83995809226e-05
0.000182607075177
5.61600589745e-06
0.000236622597244
5.36315416134e-05
1.25176504422e-05
1.19732278137e-05
1.99738624585e-05
1.90101884425e-05
1.39763704213e-06
3.75485101484e-05
5.8951011657e-05
1.44335513382e-05
2.10328887932e-05
3.24180241887e-06
2.82695307744e-06
2.91915213516e-05
3.70973785764e-05
9.68212659184e-07
3.02671808406e-05
8.01223225895e-06
3.70273542892e-05
5.19611416691e-07
3.57836350533e-07
4.59637092633e-06
9.65742095206e-06
1.01398503675e-05
8.39984162077e-06
4.36427004816e-06
1.03915165105e-05
1.93317504723e-07
2.17619405346e-06
2.54010799668e-06
1.0368374407e-05
5.35441728358e-06
8.74821588818e-06
1.14975635585e-05
2.00196543957e-05
3.9015849443e-06
1.12833286228e-05
1.71922979197e-05
1.05289359918e-05
2.116121603e-05
2.56294421117e-05
1.70547149236e-05
9.31211229775e-06
3.52675055416e-05
5.72249126241e-06
1.80346743031e-06
5.1069255706e-06
7.44430356553e-05
1.4176290752e-06
4.36566370396e-05
8.51592518963e-05
0.000129436934853
0.000177620901035
1.51135137108e-05
4.97295852135e-05
6.52002037971e-05
1.57720198382e-05
2.1075099855e-06
1.58486317991e-05
8.22979587185e-06
9.69764417508e-06
7.83953921159e-06
7.41584745956e-06
1.7097023587e-05
5.65090314658e-06
2.62389583464e-05
3.78844034747e-06
4.00513693012e-05
6.43212051029e-05
2.98170230829e-05
4.66132207201e-05
1.5621815515e-06
0.00026542074907
4.00966775297e-05
0.000169265037965
2.33585147788e-05
0.000276549513311
0.000119033790404
0.000124681743982
0.00013539400761
4.25225189635e-05
3.6386552553e-05
2.06273413901e-05
4.85548240652e-05
7.74281809524e-05
7.07117539462e-05
6.01581157102e-05
4.44047106277e-05
8.91170739546e-06
0.000122630768661
4.5218914515e-05
0.00013930801243
2.62387569739e-05
9.35190521822e-05
5.09216107729e-05
0.000187112368886
4.5431683251e-05
1.93117028657e-06
5.84151778818e-05
6.83320206669e-05
6.96943005454e-05
7.36599346639e-05
0.00010643037723
6.44981322062e-05
7.43302176137e-05
4.31741641912e-05
2.99607719346e-05
4.0798409964e-05
2.50327352741e-05
5.99681089854e-06
1.25811842597e-05
2.31651221317e-06
2.08146579127e-05
9.90121252724e-06
2.47665785589e-05
5.09475817982e-06
7.58896971615e-06
6.40306670792e-06
1.86499393554e-05
1.80039052394e-05
1.57599611915e-06
2.9641254458e-06
2.24589810852e-06
9.35662110098e-06
2.41037708245e-05
3.26873707849e-06
5.21459291458e-06
1.63862972204e-05
2.98462060715e-06
1.00182150419e-05
1.17548939225e-05
3.8852490367e-06
1.72304487517e-05
1.55339011154e-05
1.40178396152e-05
1.63363899342e-05
1.96338260186e-06
3.84328162371e-06
1.60806391088e-06
2.29706063489e-06
9.52389581986e-06
1.17481055667e-06
7.30527322801e-06
2.71884761456e-06
2.29797084025e-06
1.04205160873e-06
3.72447937691e-06
6.75296793713e-06
1.83790821193e-06
1.83982454364e-06
1.48391347623e-05
9.09907800008e-06
1.72550292223e-06
1.47120828742e-05
6.24270351991e-06
3.59417877379e-06
3.92534381557e-06
3.02346263752e-05
1.89397589364e-05
2.51613331826e-05
2.42303747466e-05
1.7411586759e-05
1.2916054143e-05
2.23280512664e-05
7.30009651801e-06
2.06907092359e-05
5.67082495525e-06
2.94449082424e-05
2.17773014183e-05
1.42634247992e-05
1.7944194228e-05
2.41681791079e-05
1.98617962389e-05
7.88085924741e-07
4.23755940493e-06
1.44727616894e-05
1.49053552469e-06
1.34815986288e-05
4.3884670196e-05
1.86389762388e-05
4.12954450465e-05
2.50417332607e-05
3.63613044655e-05
3.24209116542e-05
1.12946003038e-05
2.93520899163e-05
5.587985261e-06
2.84830326863e-06
2.52789014333e-05
1.55742433395e-05
1.35963993835e-05
2.31783255566e-05
1.3084495078e-05
1.51571808529e-05
2.10394109635e-06
1.00627780513e-05
1.66805901895e-05
4.60333375002e-06
2.27289277694e-05
3.24277244828e-05
4.53450793084e-07
1.84391776187e-05
3.46323224149e-05
4.10560837294e-05
1.73719256173e-05
4.05763253599e-06
3.31011293855e-05
5.51626887317e-05
5.08443543371e-06
0.000111276191617
6.47401240735e-05
3.22998585461e-05
9.27962964877e-05