# vtk DataFile Version 3.0
File Name: Molecule/sphere_cent/sphere_cent_0-s2.vtk
ASCII
DATASET UNSTRUCTURED_GRID
FIELD FieldData 1
TIME 1 1 double
0.0
POINTS 54 double
0.85041838884 -0.52603834867 -0.00027898527333
0.81634181738 -0.29555952549 -0.49382859468
0.99993103743 0.00010696805111 0.00019897347374
0.8089042902 0.30921116471 -0.49990570545
0.52594715357 -0.00028193855542 -0.85050058365
0.85064744949 0.52573662996 5.4910992731e-06
0.49994388223 0.80893290043 -0.30898073316
0.30899196863 0.49993413687 -0.80893802643
-4.3976575625e-07 0.85065072775 -0.52573120594
0.49994108081 0.80893456936 0.3089902699
-8.2093993115e-06 0.99990028143 7.6960750448e-06
-0.00029051405727 0.85059857368 0.52581071854
-0.49389442801 0.81598490477 0.29481750727
-0.49991059303 0.80889779329 -0.3092250824
-0.85050338507 0.52594333887 0.0002824140538
-0.29427284002 0.49346610904 0.81578457355
0.30923357606 0.49991509318 0.80890262127
0.00022969392012 0.017191719264 0.99771547318
-0.52562743425 0.0001874587324 0.85073113441
0.52540332079 -8.4077611973e-05 0.85083550215
0.32226294279 -0.50417989492 0.79848498106
0.80910199881 -0.30890196562 0.49978962541
0.50489908457 -0.79897367954 0.32161229849
0.00018284849648 -0.85058969259 0.52585679293
0.29504996538 -0.49467557669 -0.81601434946
-0.00012843728473 0.00018301382079 -0.99992144108
-0.30921524763 -0.4999293983 -0.80889981985
0.00044403379434 -0.85061818361 -0.52571409941
-0.5257371664 4.7357834774e-06 -0.85064715147
0.80892896652 0.30897638202 0.49996244907
-0.80893355608 -0.30898213387 -0.49994334579
-0.80893748999 0.30899310112 -0.49993440509
-0.99992251396 -0.00012881890871 -0.00019199374947
-0.8506488204 -0.52573436499 -1.9918059024e-06
-0.30898371339 0.49994629622 -0.80893051624
-0.49993041158 -0.80895024538 -0.30899149179
-0.49999547005 -0.80902040005 0.3087746501
-0.016084183007 -0.99872547388 -0.00033494309173
-0.80904972553 -0.30913648009 0.49976116419
-0.3215597868 -0.50411617756 0.79959732294
-0.81579703093 0.2950746417 0.49414923787
-0.42590999603 0.68782562017 0.58782011271
-0.68783062696 0.58780169487 0.42592021823
-0.58776092529 0.42586195469 0.68793392181
-0.16189335287 -0.26314976811 0.95111566782
8.2093771198e-05 -0.52522540092 0.85100793839
0.16191339493 -0.26321458817 0.95107412338
0.49990752339 -0.80886638165 -0.30896043777
0.26275616884 -0.95136743784 -0.161167413
0.52488607168 -0.85124289989 0.00091240979964
0.26323184371 -0.95107716322 0.16198498011
0.58780008554 -0.42597207427 -0.68780374527
0.68811267614 -0.58713912964 -0.4264781177
0.42594796419 -0.68726372719 -0.58851677179

CELLS 104 416
3 0 1 2
3 1 3 2
3 1 4 3
3 2 3 5
3 5 3 6
3 3 7 6
3 3 4 7
3 6 7 8
3 5 6 9
3 6 10 9
3 6 8 10
3 9 10 11
3 11 10 12
3 10 13 12
3 10 8 13
3 12 13 14
3 11 15 16
3 15 17 16
3 15 18 17
3 16 17 19
3 19 20 21
3 20 22 21
3 20 23 22
3 21 22 0
3 4 24 25
3 24 26 25
3 24 27 26
3 25 26 28
3 0 2 21
3 2 29 21
3 2 5 29
3 21 29 19
3 5 9 29
3 9 16 29
3 9 11 16
3 29 16 19
3 28 30 31
3 30 32 31
3 30 33 32
3 31 32 14
3 8 34 13
3 34 31 13
3 34 28 31
3 13 31 14
3 33 35 36
3 35 37 36
3 35 27 37
3 36 37 23
3 33 36 38
3 36 39 38
3 36 23 39
3 38 39 18
3 18 40 38
3 40 32 38
3 40 14 32
3 38 32 33
3 28 26 30
3 26 35 30
3 26 27 35
3 30 35 33
3 4 25 7
3 25 34 7
3 25 28 34
3 7 34 8
3 12 41 11
3 11 41 15
3 12 42 41
3 42 43 41
3 42 40 43
3 41 43 15
3 40 42 14
3 14 42 12
3 15 43 18
3 43 40 18
3 39 44 18
3 18 44 17
3 39 45 44
3 45 46 44
3 45 20 46
3 44 46 17
3 20 45 23
3 23 45 39
3 17 46 19
3 46 20 19
3 47 48 27
3 27 48 37
3 47 49 48
3 49 50 48
3 49 22 50
3 48 50 37
3 22 49 0
3 0 49 47
3 37 50 23
3 50 22 23
3 1 51 4
3 4 51 24
3 1 52 51
3 52 53 51
3 52 47 53
3 51 53 24
3 47 52 0
3 0 52 1
3 24 53 27
3 53 47 27

CELL_TYPES 104
5
5
5
5
5
5
5
5
5
5
5
5
5
5
5
5
5
5
5
5
5
5
5
5
5
5
5
5
5
5
5
5
5
5
5
5
5
5
5
5
5
5
5
5
5
5
5
5
5
5
5
5
5
5
5
5
5
5
5
5
5
5
5
5
5
5
5
5
5
5
5
5
5
5
5
5
5
5
5
5
5
5
5
5
5
5
5
5
5
5
5
5
5
5
5
5
5
5
5
5
5
5
5
5

CELL_DATA 104
SCALARS cell_data_0 double
LOOKUP_TABLE default
4.94960881873e-07
4.26163737445e-06
1.35935896185e-06
1.13674693163e-06
1.86453773044e-06
4.98906865248e-06
2.53226979977e-06
1.34857471394e-06
1.62198690012e-06
4.98927356122e-06
1.60504993024e-06
2.36817240729e-06
1.13063310233e-06
3.97291582274e-06
1.24304897669e-06
1.06668827265e-06
1.37393175718e-06
2.79772338229e-06
3.5075017522e-06
1.4488451458e-06
1.40242643306e-06
3.23210320523e-06
3.61774437982e-06
8.55954589926e-07
1.03037886594e-06
4.31223188633e-06
6.35800433234e-07
1.11057705631e-06
3.33502225527e-06
5.46861091195e-06
1.44771586104e-06
2.24217674667e-06
1.55745975819e-06
5.30020882466e-06
2.35666296949e-06
2.49291989308e-06
1.58455740715e-06
5.03974556457e-06
1.71445505595e-06
2.42251449461e-06
1.78995176213e-06
5.12355897065e-06
1.47386057325e-06
2.41359706947e-06
1.24439111476e-06
4.40118813823e-06
8.06160727614e-07
2.58668064345e-07
1.49431383835e-06
4.53406671008e-06
4.80550681104e-08
4.3563574156e-07
1.16975415404e-07
4.02499177402e-06
1.32510053737e-06
1.26420026202e-06
1.52926504088e-06
5.09813229217e-06
3.31352140538e-06
1.4570454457e-06
2.86691849276e-06
4.97743924622e-06
1.5357507788e-06
1.35016517592e-06
1.4251699721e-06
1.36374409641e-06
2.24912745462e-06
4.79391449464e-06
2.1043939245e-06
2.04758388795e-06
1.27659108253e-06
1.39329412105e-06
1.71136063875e-06
1.80562351252e-06
1.77616367234e-06
1.679357866e-06
2.05510574328e-06
4.90157102984e-06
2.14620847656e-06
2.14701898428e-06
1.85431671776e-06
1.57905409774e-06
1.30353002087e-06
1.59539606943e-06
2.03577089042e-06
2.4801910247e-06
1.89916725031e-06
3.76551213442e-06
2.38856545606e-06
2.46449315596e-06
2.59953192196e-06
2.03303659353e-06
1.2802602865e-06
1.29992603548e-06
7.65045107425e-07
9.31537967971e-07
2.62023550613e-06
3.633208305e-06
1.873287362e-06
2.60466225262e-06
2.22583240942e-06
2.68593602421e-06
2.60102050816e-06
1.8668409724e-06

