# vtk DataFile Version 3.0
File Name: Molecule/sphere_cent/sphere_cent_0-s30.vtk
ASCII
DATASET UNSTRUCTURED_GRID
FIELD FieldData 1
TIME 1 1 double
0.0
POINTS 2825 double
-0.06522237 -0.35393678 0.93299239
-0.02857714 -0.24073606 0.97016983
-0.13388155 -0.26300055 0.95546138
0.10763663 0.53876939 -0.83554886
0.00925633 0.53583587 -0.84427143
0.05005423 0.61187829 -0.78936654
-0.10944009 0.27163985 -0.95615619
-0.057289 0.36251733 -0.93021457
-0.01591382 0.26508612 -0.96409341
0.53311172 -0.6373157 -0.55643561
0.44872798 -0.72701784 -0.51970016
0.41705656 -0.68063901 -0.60232414
-0.03939972 0.96453526 -0.26099693
-0.02023854 0.93321091 -0.35875869
-0.13781757 0.93433876 -0.32866001
-0.10814742 0.89505039 -0.43265337
0.44902942 -0.26918779 0.85200382
0.49204605 -0.15631096 0.85642137
0.39007818 -0.21329179 0.89573748
0.52004753 -0.85289463 0.04605773
0.51180026 -0.84664134 0.14580443
0.46141398 -0.88124512 0.10248988
-0.68245584 0.54381117 0.48838861
-0.60605081 0.59136399 0.53196902
-0.64087193 0.62835885 0.44096294
-0.63950371 0.50753316 0.57744705
-0.10974358 -0.1565427 0.98155526
-0.83432116 0.4490956 0.31972072
-0.87709093 0.34426131 0.3349562
-0.80644678 0.43142234 0.40437404
-0.90829924 0.36008468 0.21291199
-0.87097638 0.41943895 0.25587324
-0.60797766 0.76523172 0.21162131
-0.6926241 0.68523341 0.22522661
-0.62450915 0.7180528 0.30722712
-0.67498301 0.72523563 0.13576164
0.34608139 -0.74579805 -0.56922135
0.30737026 -0.69179312 -0.6534109
0.23567926 -0.75766534 -0.60860374
-0.5355571 -0.59214128 -0.602119
-0.5982514 -0.49979416 -0.62633942
-0.51624254 -0.51817503 -0.68190049
-0.51464889 -0.42668405 -0.74369163
-0.57459365 -0.43815474 -0.69127604
0.6600313 0.51856853 0.54354887
0.68249833 0.42819367 0.59232273
0.73999678 0.45472477 0.49561089
0.05361908 -0.32799512 0.94315651
0.10633948 -0.4148966 0.90363307
0.18073117 -0.32259059 0.92912408
0.10477859 -0.2256632 0.96855437
0.21691541 -0.203406 0.95476369
0.29328793 -0.26204584 0.91940968
0.22480033 -0.42770061 0.87552099
0.28099201 -0.35572106 0.89135067
0.16761307 -0.11981974 0.97854437
-0.39708349 0.72400884 0.56403537
-0.35242947 0.80100543 0.48392538
-0.44513 0.7557861 0.48025685
-0.42398287 0.80649423 0.41207474
-0.5147281 0.75924194 0.39825451
-0.29472529 -0.27934956 0.91383851
-0.32978296 -0.37594126 0.86597423
-0.24242049 -0.36759484 0.89783425
0.56436662 -0.32828282 -0.75744354
0.54925339 -0.2135711 -0.80790352
0.63648954 -0.25589091 -0.72759942
0.81711455 0.44543194 -0.36594288
0.84430113 0.35407909 -0.40222332
0.78485742 0.42391581 -0.45198918
-0.49445322 0.69122848 0.5269907
-0.46761212 -0.59342454 -0.65512306
-0.02512924 0.99349633 0.11105658
-0.02872905 0.99933321 0.02253372
-0.11534505 0.99231696 0.04475006
0.78767449 0.52271714 0.32609155
0.83087209 0.43486179 0.3471985
0.82744578 0.49663684 0.26207888
0.79439616 0.58637449 -0.15842885
0.76003235 0.64450032 -0.08348749
0.83079968 0.55346894 -0.05868572
0.71409008 0.66797538 -0.20948568
0.77849194 0.57196238 -0.25847503
0.6807852 0.72434627 -0.10887606
0.61816596 0.7585718 -0.20600892
0.60419787 0.78680487 -0.12602793
0.1178469 0.70855537 -0.69574521
0.06277159 0.75412861 -0.65371995
0.1416052 0.77713757 -0.6131926
0.27247893 -0.59593979 0.75538798
0.36654364 -0.57285597 0.7331315
0.30284532 -0.51414776 0.80245672
0.83439804 -0.20441309 -0.51185467
0.85425851 -0.29729396 -0.42644895
0.79155321 -0.32054212 -0.52028479
0.76880694 -0.23883868 -0.59320483
0.66281605 -0.4311406 -0.61220313
0.71649198 -0.36870649 -0.59219487
0.74495085 -0.41987441 -0.51841462
0.71262414 -0.19154469 -0.67489071
0.77044979 -0.15241357 -0.61901311
0.62948016 0.40124293 -0.66540126
0.58237847 0.49780944 -0.64266716
0.66334252 0.46888628 -0.58320009
-0.67863931 -0.45084284 0.57981844
-0.64653375 -0.3922028 0.65434783
-0.71000913 -0.37332975 0.5970862
0.57589188 -0.3697144 0.72915005
0.62656332 -0.43416033 0.64724278
0.66590615 -0.32605458 0.67101223
-0.61660562 0.78113284 -0.09812745
-0.70327158 0.69833615 -0.13317546
-0.67165202 0.74024353 -0.03038219
0.36587338 -0.03972022 -0.92981664
0.33747946 -0.14663495 -0.92984182
0.26726827 -0.04975237 -0.96233693
-0.84495225 0.48591408 -0.22347976
-0.89423671 0.39599939 -0.20862689
-0.86365683 0.48142514 -0.14942125
-0.82041818 0.44953966 -0.35331021
-0.76981544 0.4778407 -0.42314589
-0.81759473 0.38633647 -0.42694612
0.42859623 0.90276419 -0.03636051
0.48827451 0.87186954 0.03783522
0.52101121 0.85158407 -0.05789546
0.56556423 0.82412021 0.03103175
0.62367323 0.77647606 0.09009229
0.53567005 0.83518301 0.12460715
0.43813924 0.8905402 0.12236078
0.39574049 0.91711677 0.04781524
0.57705548 0.03227041 0.81606715
0.54150614 0.13168322 0.8303196
0.48814744 0.04421481 0.87164048
-0.14396892 -0.30790905 -0.94045998
-0.06186324 -0.28031256 -0.95791326
-0.08204251 -0.37182339 -0.92467096
-0.11285947 -0.19346103 -0.97459508
-0.01087613 -0.17550318 -0.98441878
-0.09933987 -0.10023811 -0.98999187
0.00971412 -0.06662127 -0.99773105
0.0479555 0.95608411 -0.28914259
0.43445999 -0.88690548 0.15698148
0.50324033 -0.81622694 0.28376532
0.50180444 -0.78305729 0.36744194
0.42940344 -0.84205139 0.32643859
0.55375808 0.5607938 0.61551792
0.47640479 0.59876586 0.64383066
0.49902553 0.51521684 0.69679633
0.41638085 0.5955139 0.68701542
0.41277444 -0.80781053 0.42078428
0.38681329 0.65991122 0.64412162
0.42118656 -0.90648305 0.02983899
0.33587955 -0.94097691 0.0418017
0.35664299 -0.92856473 0.10282667
-0.37221115 -0.45675396 0.80798186
-0.29014929 -0.48096861 0.82733463
0.17574911 -0.98407549 -0.0266023
0.09294681 -0.99556938 0.01423007
0.08074333 -0.9941119 -0.07226373
0.00705325 -0.99979993 -0.01871766
0.03532425 -0.9970307 0.06842501
0.12600932 -0.98699885 0.09977434
-0.07814455 -0.99621412 0.0380901
-0.0940217 0.98399157 -0.15139521
-0.08432073 0.99494995 -0.05444832
-0.0169153 0.99352136 -0.1123796
-0.17575105 0.9803778 -0.08928016
-0.62917109 0.7506981 -0.20148476
0.46735524 0.87473287 -0.12814636
0.53810644 0.82691329 -0.16326626
0.47551925 0.85217713 -0.2183474
-0.61218323 0.5784568 -0.5390913
-0.64067003 0.61633478 -0.45790103
-0.55637896 0.66936464 -0.49233467
-0.49792696 0.63725614 -0.588195
-0.45950044 0.71641738 -0.52498141
0.01171099 0.65980764 0.75134328
0.04416271 0.58536391 0.80956701
0.12769998 0.65900523 0.74121847
-0.42330819 0.83369931 -0.35462042
-0.39567519 0.79675635 -0.45674989
-0.49462445 0.75925187 -0.42294593
-0.32255364 0.86338905 -0.38796713
-0.28271345 -0.95295152 -0.10934583
-0.20545908 -0.96638925 -0.15452632
-0.18349346 -0.98216335 -0.04105252
-0.18015308 -0.98025629 0.08150141
-0.08825265 -0.98339979 0.1585444
-0.16937425 -0.96483271 0.20102292
-0.29580175 -0.95502378 0.02075842
-0.25595505 -0.95719631 0.13513786
-0.3775593 -0.92188088 -0.08708972
0.70328723 -0.05544858 -0.7087401
0.71725431 0.03312676 -0.69602362
0.76931589 -0.06312484 -0.63574233
0.70241963 0.1318395 -0.69944621
0.76480068 0.0982734 -0.63672778
0.64037391 0.07937088 -0.76395125
0.62879923 -0.0278226 -0.77706978
0.23956817 -0.14517182 -0.9599647
0.16475559 -0.06613357 -0.9841148
-0.93960732 0.29748169 -0.16924161
-0.97454955 0.2101145 -0.07813493
-0.94536924 0.32267042 -0.04648447
0.45697938 0.80214172 -0.38436768
0.55403901 0.73548746 -0.38999869
0.47250767 0.74934636 -0.46391436
0.54740332 0.68966405 -0.47403914
0.60952964 0.6568581 -0.44385927
-0.02843464 -0.43935565 -0.89786306
0.01492315 -0.35802926 -0.9335911
0.53841232 -0.05281032 0.84102511
0.44171968 -0.0414676 0.89619427
-0.78102279 0.61196879 -0.12448933
-0.76211882 0.64472456 -0.05920427
-0.96804126 0.24695649 0.04368773
-0.92724324 0.3676818 0.07092299
-0.90733961 0.41967048 -0.02472896
-0.90848956 0.40232696 -0.11304753
0.80487902 -0.2262991 0.54859684
0.80180017 -0.28236877 0.52667292
0.83360739 -0.21060509 0.5106312
0.75340086 -0.24442541 0.61044521
0.73267642 -0.34524194 0.58650939
0.71728065 -0.12323121 -0.68580066
0.56867824 0.76682076 -0.29764237
0.6297184 0.71762456 -0.29743862
0.64243752 0.66755221 -0.37636164
0.67944879 0.66486494 -0.31032879
0.52919367 0.81089424 -0.24980912
-0.58491588 0.71114226 -0.39006422
-0.51728577 0.79539528 -0.31585088
0.4684468 0.62772224 -0.62170925
0.50711785 0.66248772 -0.55130891
0.54612534 0.57898745 -0.60540948
0.39159623 0.69081493 -0.60780518
-0.46706921 -0.86194238 -0.1972351
-0.36964291 -0.90823313 -0.19615477
-0.45840878 -0.88059091 -0.12008759
-0.86984838 0.48793524 -0.07268426
-0.84626369 0.53207047 0.02718073
-0.83795561 0.54493955 -0.02951736
-0.87298046 0.48772527 -0.00540111
0.61176471 0.61168764 -0.50157967
0.09025836 -0.13905142 -0.98616334
-0.46722408 -0.78317268 0.41029527
-0.53656232 -0.69352695 0.48075072
-0.55781262 -0.73024285 0.39444957
-0.4516347 -0.72560243 0.5191601
-0.84599407 -0.53307559 -0.01115564
-0.7929615 -0.60497515 -0.07222964
-0.78038761 -0.62247748 0.05930405
-0.61980323 -0.78212129 -0.06426692
-0.62670919 -0.77719879 0.05654755
-0.69556255 -0.71843315 0.00682316
-0.55308321 -0.8328557 0.02122161
-0.69480215 -0.71230753 0.09933756
-0.63085858 -0.76163762 0.14807292
-0.55813096 -0.82146349 0.11699387
-0.84794809 -0.5208546 0.09846079
-0.89949631 -0.43584315 0.03077567
-0.38706174 -0.85695929 0.34029984
-0.29371402 -0.9155131 0.27489605
-0.28517612 -0.88270701 0.3735009
-0.94595387 0.28784949 0.14937857
-0.93016979 0.25766791 0.26151751
-0.96750112 0.19066692 0.16609546
-0.94471315 0.1565976 0.28808725
-0.35310218 -0.83045202 0.43089243
-0.99120659 -0.06183018 0.1169894
-0.98766933 0.04198571 0.15081938
-0.99912716 0.00952159 0.04067266
0.27014113 -0.25252951 -0.92911389
0.23597078 -0.33800636 -0.9110815
0.17168194 -0.28207915 -0.94390501
0.52057241 0.33434382 -0.7856326
0.55405502 0.23953343 -0.79727459
0.4707675 0.26344898 -0.84200511
0.48896504 0.16330666 -0.85688046
0.54059648 0.03639346 -0.84049447
0.44627701 0.08294998 -0.89104216
0.39763118 0.22488836 -0.88955869
0.54024312 0.78223598 0.31023256
0.59081054 0.77925741 0.20904735
0.49071627 0.84343587 0.21866293
0.6521345 0.70297431 0.28380928
0.6738048 0.72278657 0.15351442
[...]
CELL_DATA 5617
SCALARS cell_data_0 double
LOOKUP_TABLE default
1.78186328008e-08
2.49153470366e-09
7.46658587789e-09
1.72656575813e-08
2.02299422921e-08
2.10168382855e-08
1.72229494561e-08
4.73601444639e-09
4.12687508856e-09
1.20516661355e-08
1.19743552656e-08
1.41969204707e-08
1.27148355823e-08
1.9134917131e-08
1.65115655539e-08
1.94554905517e-08
2.97606861795e-09
3.64513217894e-08
3.24024953878e-08
7.54567499692e-09
4.29121986981e-08
1.98955436176e-08
1.61775257952e-10
1.8428168867e-09
6.42713692885e-09
4.58018564495e-08
3.80734439774e-08
2.30544874294e-08
1.91732421127e-08
1.39165553339e-08
1.89193168247e-08
2.14252692995e-08
1.0454276476e-08
3.78339807199e-08
2.91338494936e-08
1.81421243969e-08
2.49419548744e-09
3.63696900511e-08
2.08139647397e-08
9.77208655689e-09
2.48288290897e-09
3.66392390813e-08
2.83262282384e-08
3.60186571832e-11
3.48455139702e-09
1.52206250245e-08
1.22021902637e-08
6.16967783646e-08
3.11883915766e-08
4.17516096599e-08
3.04875287978e-08
6.06897551465e-08
3.21760404103e-09
7.61304565433e-10
3.53834628799e-08
2.1171914831e-08
2.24278662549e-08
2.22563011445e-09
5.95945308124e-09
3.30228996797e-09
8.17656656125e-09
4.89574210138e-09
2.56599370465e-08
4.37203257637e-09
2.44063536968e-08
2.58303656776e-08
5.50344197925e-08
3.12707005967e-08
8.41700070018e-09
1.38415280649e-08
3.25946994682e-08
2.13397813391e-08
2.18851178145e-08
1.11602679157e-08
6.44493055239e-09
1.87423592467e-08
2.77420480116e-08
3.48126901319e-08
5.89996140665e-09
1.3362457351e-08
1.18611824342e-08
6.27011357402e-08
3.29205128688e-08
3.33363046122e-08
2.6386939019e-08
1.82879700617e-08
4.74881485695e-09
8.85584117682e-09
1.36448664864e-08
1.7024031177e-08
1.51606997772e-08
3.72404269547e-08
1.52365806617e-08
4.00939624289e-08
1.76255726284e-08
2.96757832568e-08
1.84209139601e-09
1.15256854281e-08
2.20644193633e-08
2.81674934689e-08
5.27650055103e-08
5.43431816783e-08
3.54089400528e-09
3.99198284362e-08
4.22582080841e-09
1.10915683541e-08
4.28494789584e-08
3.74598669473e-08
1.06104216945e-07
4.97677118334e-09
1.91327800889e-08
4.66507787135e-09
1.32276917708e-08
3.8008740875e-08
5.33619808139e-09
2.4228799645e-08
4.94844825843e-10
3.4819746629e-09
1.32391964801e-08
2.02097212729e-08
1.34358519748e-08
1.68095746784e-08
2.53398285293e-08
2.228554704e-09
2.56971926492e-08
4.26480913098e-08
1.14323180241e-08
3.40368433716e-08
3.77911444021e-08
2.95024475155e-08
1.77510693004e-09
1.51043438525e-08
4.62332014203e-09
1.14849957838e-08
8.13563091136e-09
3.45943907993e-08
3.06120287341e-09
2.39267082011e-08
1.1838030532e-08
1.74855146306e-08
2.54375542056e-08
3.10134636552e-08
6.71557448149e-09
1.41051940221e-09
1.10698565564e-08
3.93524982299e-09
5.47783531816e-08
5.41431289413e-08
1.90571520802e-08
1.9456640277e-08
2.10049421974e-08
2.36422463074e-08
2.59258458475e-08
7.60244029702e-09
1.73999252118e-08
2.45955774658e-08
3.67743218557e-08
7.19266551494e-09
3.07202558003e-08
2.09061356123e-08
3.14460210086e-08
2.84598208969e-09
8.75534979151e-09
1.88004193838e-08
2.79960126742e-08
1.81604339937e-08
5.35723233099e-09
1.54346218646e-09
5.31063058254e-09
2.92767895262e-08
8.96011596889e-09
6.66672059667e-09
1.36963822663e-08
1.51182422988e-08
7.89419414077e-09
3.27871389823e-09
1.31012148325e-08
1.18021864041e-08
2.85224158419e-08
1.37855315238e-08
2.06674682659e-08
2.75219856313e-08
5.24388589047e-08
3.15943658052e-08
5.24545559922e-08
5.82586213404e-08
1.6970480432e-09
3.00781326123e-08
2.89995215005e-08
5.15500173343e-09
5.03432215225e-08
1.33569943407e-08
1.5460480095e-08
5.46619585026e-09
1.27054009846e-08
4.69114027382e-08
1.313664526e-08
1.02170095772e-08
2.70494904218e-08
4.35288960265e-08
3.57034528505e-09
6.44383397112e-09
1.64150754998e-08
1.2512485672e-08
1.47204384322e-08
1.7003953115e-09
3.77324319899e-09
1.553446645e-09
4.82521496289e-09
2.28186967007e-08
7.8841289857e-09
1.94425071338e-08
1.20922102599e-09
4.62189075807e-08
1.3550752193e-08
3.37983044072e-08
6.09885697566e-09
1.61880928219e-08
3.34666103454e-09
8.61369292698e-09
6.11791532716e-09
2.45708760323e-08
1.29956581034e-08
2.75837796027e-08
2.42985876028e-08
2.02862589407e-08
1.51726863534e-08
2.86210897122e-08
3.29314820387e-08
1.55772154444e-08
1.36006377019e-08
2.61601966898e-08
4.20047562957e-08
2.42701660871e-08
2.01879248998e-09
3.29967731932e-09
9.12729371126e-09
1.00885896008e-09
4.60158531615e-09
9.16481719581e-09
6.07385449047e-09
5.62413153394e-09
3.94040926966e-08
2.37480455203e-09
8.30196395477e-10
1.19415454124e-08
1.14357957661e-08
2.0086127686e-09
1.94561990102e-09
3.32949810997e-08
7.91830712086e-09
8.64379775366e-09
3.96091662864e-09
2.13894631043e-08
1.94525909573e-08
5.52098783785e-08
7.49553974873e-09
8.14235102964e-09
2.34711104497e-08
2.1978301778e-08
1.42873967762e-08
6.41698365386e-10
3.79110619779e-08
2.93372901342e-08
1.81871710761e-08
2.49016283573e-09
1.9756853953e-08
3.52333131751e-09
6.45522152713e-09
1.33996208577e-08
1.08352102875e-08
1.52295858619e-08
3.49450283886e-08
1.11660063636e-08
1.32789160972e-08
1.16417476462e-08
2.89705948458e-08
4.80661990565e-08
5.69775321364e-08
3.42449039768e-09
1.25990990064e-08
1.99096830105e-08
1.66378543743e-08
2.56632674291e-09
1.07683149576e-08
1.55976741242e-08
1.23787303967e-08
1.27021133607e-08
1.14174877831e-08
7.41601872106e-09
1.10647504618e-08
4.70383590555e-08
2.89590077403e-08
2.44025703801e-08
4.17172592216e-08
7.02698434934e-09
1.56402974125e-08
2.81318852916e-08
1.44476879241e-08
3.36743120357e-08
1.10138913256e-09
4.484047408e-08
8.22097579769e-09
5.02849304132e-09
1.38025680496e-08
4.15034808558e-08
2.03413562743e-08
2.19835480103e-08
8.15316109515e-09
3.69314070454e-08
9.38795856446e-09
1.90427485334e-08
3.35302566537e-09
1.3386441923e-08
1.49152321632e-08
1.02397184941e-09
2.06158906421e-08
2.62280684028e-10
3.44103433254e-09
2.02250780841e-08
3.54259684383e-08
1.09314587392e-09
7.39769251623e-10
1.08006448201e-08
2.02105026457e-08
1.56881712462e-09
1.2129411983e-08
4.23432191095e-09
3.25034560419e-09
3.1432894846e-08
1.03557113567e-09
1.47369759383e-08
2.71416363389e-09
3.14804689605e-09
3.06165897464e-09
4.24160531988e-09
3.75050781705e-08
7.84974293319e-09
1.29906717635e-08
3.6175031561e-08
6.47930652222e-09
4.02994760695e-08
7.30435854652e-09
5.57384741075e-09
1.15623789293e-08
3.03779569062e-08
2.03440098549e-09
1.10525178634e-08
5.60724547202e-09
2.99696645003e-08
6.99603632459e-09
2.70372039579e-08
4.40456403628e-09
1.48254575992e-08
5.97320537322e-09
7.01568052793e-09
2.64551500577e-08
8.42528848947e-10
4.21651060205e-09
1.44283910368e-09
2.98352486628e-09
1.24354278388e-08
2.47547972428e-08
4.18322168451e-08
3.46581387973e-08
1.49391417719e-08
1.85353689418e-08
5.07149453945e-09
5.99931290588e-10
2.64671092966e-08
1.71787368391e-08
1.13362861362e-09
1.15261405419e-09
3.35597172918e-08
6.22019793132e-09
1.63869550473e-08
8.26184354689e-09
2.20055798105e-08
2.10293935873e-09
1.71507798952e-09
1.01845980649e-08
1.54477585817e-09
3.22075147076e-08
1.47562093523e-08
6.90630036444e-09
1.00735360931e-08
3.10170779373e-08
7.72853975433e-09
9.15447944491e-09
9.88655996982e-09
8.05105698119e-09
1.41613376591e-08
1.78861424182e-08
2.32641304214e-08
1.53759147113e-08
1.3207288777e-08
1.16495776368e-09
3.53837403651e-08
5.73567762571e-08
6.42045501053e-09
3.57182214069e-08
2.19242578788e-08
3.18156363985e-08
3.10729405198e-08
1.86282398101e-08
4.03645347775e-08
5.25567311388e-08
9.47421489678e-09
2.49515448563e-08
1.82815219554e-08
2.31141692614e-08
2.77179423509e-09
1.70737999409e-08
2.47528420215e-08
1.57164041843e-08
2.86374090977e-09
2.64866899727e-09
5.08564866387e-08
4.6395818181e-09
1.12832571708e-08
9.55058969872e-09
9.94005941014e-10
1.56096174781e-08
1.52244636078e-08
2.47069959681e-08
4.43871880775e-09
1.30157075845e-09
2.24439275242e-09
1.92743365516e-08
2.92746929142e-08
1.9213645549e-08
7.49054240424e-09
3.2286272967e-08
2.79838592917e-08
2.47971536382e-08
2.9709774583e-09
1.41266449337e-08
1.79010230524e-08
1.87578275169e-08
2.11333728699e-08
2.40516741979e-08
3.68546230616e-08
2.92895586682e-08
2.33204702786e-08
9.11137957314e-09
1.58613386337e-08
6.69515565375e-09
5.70965931032e-09
3.27006954007e-10
8.38790215356e-09
2.46745004308e-09
6.13037703686e-09
4.06220522255e-08
2.59603302654e-08
4.88523113931e-09
3.20036401893e-08
5.04183345663e-09
2.5751897534e-08
1.54137637454e-08
1.30993581782e-08
1.11467573738e-08
1.09505831802e-09
9.18266824344e-09
8.83042743036e-09
1.02102624654e-08
9.04194354252e-09
1.01621727017e-08
1.5273109766e-09
9.66223186366e-09
8.09334033762e-09
4.86638876344e-09
6.39166845702e-09
1.22606154839e-08
1.08553640327e-08
4.87658512978e-09
7.10161229336e-09
9.29139016655e-10
2.02950227253e-08
3.12908984115e-08
2.14228979639e-08
6.90872924332e-09
1.1797873129e-08
1.99540347033e-08
1.54463821338e-08
3.17065497996e-08
4.12227150154e-09
1.58581388533e-08
1.60233148438e-08
2.5991795017e-08
1.23181206309e-08
8.0298848352e-09
4.28615726489e-10
1.85312715857e-08
6.55769659786e-09
6.23533345429e-09
4.25591734397e-08
8.88844992852e-09
3.6031366178e-08
8.57731393727e-09
3.08469186525e-08
2.98759900022e-09
1.40237747734e-08
8.60253224667e-10
3.91917801356e-09
2.40094981696e-08
6.09849947847e-09
1.32234007634e-08
9.95169021021e-09
6.41925654202e-10
2.25736381246e-09
7.72361941902e-09
1.92409233008e-08
3.56524912151e-10
1.37590683806e-08
2.41431712289e-08
3.30372385138e-08
1.94969583416e-08
2.51293093658e-08
2.77003655144e-09
9.69280336351e-09
7.81776913057e-09
2.20820053447e-08
1.84957621875e-08
9.98781708531e-09
3.94268610284e-09
6.16694916336e-09
1.13027677204e-08
6.68887249016e-09
2.46066301453e-08
1.00327946916e-08
5.18670553904e-09
4.08361421481e-08
5.82680781565e-08
9.52568371116e-09
1.24486497004e-08
8.67836696453e-10
1.22407724635e-08
2.40161853476e-09
7.548847169e-09
1.20107760449e-08
2.99842669111e-08
2.60038211896e-09
1.82607964332e-08
1.30091829211e-08
2.21345538717e-08
1.08769279351e-08
1.1846887929e-08
4.90371555845e-09
2.5602149681e-08
3.0902084309e-09
2.70447359768e-08
5.7117400228e-09
1.71013589044e-08
7.9039459873e-10
3.15752020723e-11
3.55903644186e-09
5.25208345741e-08
1.40263100895e-09
6.49907424235e-09
3.03814553239e-08
5.70561608031e-09
3.94941120683e-09
1.8189742097e-08
1.33725073887e-08
3.61514349151e-09
1.24620989083e-09
8.12315896769e-09
3.59028254257e-08
4.81378070533e-09
5.92252207495e-09
1.16063004037e-09
1.7021379035e-08
2.44125206718e-08
1.26840783577e-08
1.87408682809e-09
5.26895017839e-09
2.9477347323e-09
7.18184121735e-09
6.46619599624e-10
2.24537276543e-09
3.1038950396e-08
2.93380914865e-09
1.06203849692e-08
1.75034894262e-08
5.95968258547e-09
3.62340700365e-08
8.34312550998e-09
7.8415585031e-10
6.32815367817e-09
9.74849931077e-09
4.94612613155e-10
9.80503367111e-09
1.04030763076e-08
1.11480418681e-08
9.31500561972e-09
1.76467634747e-08
1.49252165057e-08
1.14465303048e-08
4.60740636965e-09
8.04396525263e-09
1.16946524819e-08
1.68289774151e-08
8.99986638823e-09
1.05087768026e-08
7.75965595186e-09
4.46545654416e-09
2.47457202855e-08
5.23002187797e-08
7.98556619649e-09
3.70469314444e-09
2.06963304874e-09
2.74147201574e-08
3.19378573346e-08
2.4624525416e-08
9.89787884502e-09
2.77822555295e-10
4.28067179647e-08
2.00648890283e-08
3.40058279167e-09
1.40960102946e-08
8.20451428091e-09
2.44411488451e-09
1.48367410068e-08
1.31012520585e-08
1.52116329078e-08
4.15696779434e-10
6.7046345761e-09
1.81206942729e-08
1.34708887395e-08
4.94125012496e-09
6.41698700796e-09
1.32291766284e-08
3.04598323518e-08
3.14528031341e-08
9.44688724155e-09
2.41068911787e-08
6.49930037333e-09
3.90477716773e-09
1.03417189279e-08
6.49546576672e-10
4.8077876457e-09
6.36285021165e-11
1.10942302624e-08
7.27758191843e-09
1.88856181212e-09
5.63306000322e-09
1.14801371338e-08
7.91725804594e-10
1.56572075878e-09
2.54890946282e-09
1.39847046211e-09
2.41774720411e-09
7.27679502892e-09
9.61592571907e-10
2.14112567836e-10
1.16231367086e-08
6.64969534866e-09
3.65580408133e-09
1.06099638096e-08
7.52537926174e-09
2.6320988209e-08
1.62151837294e-08
2.58922993215e-09
5.02625120626e-09
2.24297015141e-08
5.28917450203e-09
1.72580631793e-08
2.78505081931e-08
2.3409850646e-08
1.74187347204e-09
2.57935753791e-08
9.59179863465e-10
6.39238792503e-09
1.98483913162e-08
4.82359511444e-09
2.0767884158e-08
9.6811422656e-09
1.38120242857e-08
1.88822357209e-08
1.06523677423e-09
2.1824347989e-08
2.20910860986e-09
1.28554783024e-08
1.63131533585e-09
1.67282746991e-08
8.72594322201e-09
1.61073795133e-08
1.32833265761e-08
1.14443589376e-08
6.50160956777e-09
1.18428642088e-08
3.40371511048e-08
1.13088668603e-09
1.15626423624e-08
2.5920585885e-08
9.27871725458e-09
1.97388631303e-08
2.22251893585e-08
9.39338127369e-09
3.41955439578e-08
3.83893187639e-08
7.50301213184e-09
4.21829791309e-08
3.80381513543e-08
1.96459548581e-08
9.91323775372e-09
3.52282221348e-09
1.62843031265e-08
2.19963529118e-08
1.19208261417e-08
3.18850747049e-08
7.93561797614e-09
2.36367577493e-09
5.76376546616e-09
1.42874420965e-08
1.42592374933e-08
1.73036616148e-08
1.76346027597e-08
4.90348199239e-08
4.13866357935e-08
1.22623852769e-08
8.661540056e-09
1.6098115593e-08
1.01035395962e-08
2.28546949143e-08
1.70664186856e-08
6.89318488122e-09
7.80068525524e-09
1.57309771694e-08
1.25225931126e-08
5.95129324212e-09
2.42979198193e-08
2.98407895503e-08
3.03924547327e-08
9.86739627154e-09
1.02339198165e-08
2.31055311772e-08
1.3588692644e-09
1.27890484979e-08
1.51113456558e-08
1.35512387198e-09
4.1939545384e-09
1.01121627404e-08
4.3862973528e-08
1.42491875148e-08
3.10689940197e-09
1.88717025801e-08
1.12905042041e-08
8.84011311604e-09
6.240037628e-09
1.1270648744e-08
8.45371909477e-09
8.50589271949e-09
1.44979560747e-08
1.3074447898e-10
1.56263504048e-08
1.20544429043e-08
6.11201580927e-09
7.8297766351e-09
2.00361011429e-08
1.38035363462e-08
1.39376077481e-08
2.2546708124e-08
3.93125940044e-08
2.58891064575e-08
2.0456185556e-08
4.43042678158e-09
2.115149471e-08
3.02718482623e-08
2.52119630905e-08
2.04494924061e-08
9.52592858581e-09
1.78618244715e-08
1.2803868368e-08
1.24352476928e-08
3.11673835231e-09
1.03290586013e-08
2.35172886066e-08
1.59968270559e-08
3.11177705167e-08
5.26188623969e-09
1.97286364795e-08
8.86015262514e-09
7.68585474964e-09
4.18097968883e-08
8.73011641813e-09
1.4941879586e-08
3.25726346665e-08
1.63963216727e-09
1.7189010212e-08
5.21376869354e-09
2.08822686238e-08
2.07363858127e-08
8.93180236368e-09
8.24918046257e-09
2.23778414305e-08
4.9758914295e-08
1.43600125487e-09
9.17864451046e-09
6.8957116956e-08
1.02681024738e-08
2.78988859102e-09
7.23628220802e-09
1.25725323182e-08
1.42145709309e-08
6.5860596132e-09
3.6861225875e-09
6.021078335e-09
1.65658858395e-09
1.8620554706e-08
1.04396397056e-08
3.17802989752e-09
3.40801158755e-09
2.14349906331e-09
3.85578666425e-09
2.00653194955e-09
2.97120581455e-09
4.39846548142e-09
3.17501085964e-09
7.86224564313e-09
4.81529276231e-10
7.60075976919e-10
2.06268449349e-09
2.03851324734e-09
8.34159324718e-09
1.26572945983e-08
4.00741592617e-09
1.03074875835e-08
1.77884952922e-08
2.87658346601e-08
4.47768038336e-09
2.24599306763e-09
2.01305194723e-08
1.3357768669e-08
3.36571961473e-09
2.30721603787e-09
4.72255763993e-09
7.46060801368e-09
5.88629483505e-09
5.78872807369e-09
5.60771135847e-09
2.38760579127e-09
1.41716202859e-08
8.72408868021e-09
1.0348500643e-08
9.74354350991e-11
4.45730570796e-09
2.46780049298e-08
2.43428341672e-08
1.88892455349e-08
4.46176448758e-08
8.81095333499e-09
5.79651165303e-10
1.58822746765e-08
1.17908355173e-09
2.33799330453e-08
6.33307921907e-09
3.61481749316e-09
8.76947573982e-09
1.17179014416e-08
2.15430170783e-09
2.35170802465e-08
9.02154332338e-09
5.02671300841e-09
6.79062056293e-09
5.99510008969e-08
2.69855034712e-08
2.55620392479e-09
1.87491758983e-08
1.74193908478e-08
1.56574400913e-08
6.28346275958e-08
2.45256149799e-10
1.24574571069e-08
8.30697361435e-09
1.30396792173e-08
6.99359478423e-09
3.30154109084e-08
1.58915699862e-08
1.5278690055e-08
4.0757686656e-09
1.72565554055e-08
4.43769787422e-09
1.65071949096e-08
1.67520031856e-09
9.83347528601e-09
5.24992668646e-09
8.05939088191e-09
1.25909274603e-08
1.53539041928e-08
1.89228237968e-09
1.52095970665e-08
1.49915964957e-08
3.7425683501e-08
8.0213798386e-09
9.9452009732e-09
1.05727226415e-09
2.10650529525e-08
9.14041785654e-10
6.42003238776e-09
1.98206878178e-08
3.13859458957e-09
2.79133274673e-08
1.28056809722e-08
1.94936920189e-08
3.81901933079e-08
4.69589564089e-08
1.84595504216e-08
4.97845609435e-08
1.87028986845e-08
7.96919008436e-09
2.52313275662e-08
1.71614634267e-09
8.47105223809e-09
3.97794988005e-09
5.64028976623e-09
8.89506473901e-09
1.69803095472e-08
2.3702917694e-09
1.06439906001e-09
3.69372165067e-09
1.15103349857e-08
1.75531113016e-08
4.36412315251e-09
2.69334939822e-09
2.72777953782e-10
4.87797973454e-09
5.13041999374e-09
1.71154908809e-09
1.0990816742e-08
3.12312532383e-09
3.44604944741e-09
1.26084890934e-08
1.68521028632e-08
6.34887310739e-09
4.73846534119e-09
5.82968912013e-09
1.92915957784e-08
9.96845848916e-10
3.29335828345e-09
4.02062160164e-09
3.24698074842e-09
1.85070562729e-08
1.311454318e-09
2.74580503737e-08
1.16851627298e-08
1.2115066273e-08
1.90386966583e-08
9.32170298691e-09
3.9136644288e-08
1.50202724078e-08
1.18383887326e-08
2.03801115895e-08
2.82899273118e-08
2.01327641018e-08
6.51431635306e-09
2.22049971842e-08
2.19341258245e-08
4.85794482304e-09
7.43393944811e-09
4.08371069012e-09
1.29535349973e-08
2.57731250553e-08
6.98993291962e-09
3.07687479018e-08
4.27744767817e-08
1.16732230967e-08
2.28130025145e-09
1.48613811798e-08
1.48955812121e-08
9.26704660864e-09
2.78250482385e-09
1.70114006899e-08
8.03346472105e-09
1.09872634908e-08
2.1526742528e-08
2.70432910015e-08
2.339355475e-08
1.26517008815e-09
2.80847052507e-09
1.16019229744e-08
2.25704167852e-08
1.1366936146e-08
1.05714142183e-08
6.44134277559e-09
7.98397760503e-09
2.21376408751e-08
1.58991582197e-08
3.97379879102e-09
1.21375508719e-08
4.7585362426e-09
6.96487335336e-08
1.86183063697e-08
7.67014689213e-09
1.6389907498e-08
5.36072710825e-08
5.90091708985e-09
2.42049605136e-08
1.96544363387e-09
1.86092601209e-08
2.09225942923e-08
1.14603369055e-08
1.88093034674e-08
2.64575580172e-09
7.87598946078e-09
1.83657337458e-08
8.48218485312e-10
3.64940532883e-09
1.1596696211e-08
2.06637820276e-09
2.08332730988e-08
2.42796940077e-08
3.06163179597e-08
1.57369117119e-09
6.39795558114e-10
3.02880946677e-08
1.13789221904e-08
2.47562030823e-08
7.70532178874e-09
5.36585642988e-09
1.13175211399e-08
1.69098843631e-09
1.01131348701e-08
3.08323950742e-08
2.36886624135e-08
2.24012484276e-08
1.04174287166e-08
1.69735131558e-08
4.15968509489e-09
2.93801932431e-09
2.50306986326e-09
9.88467441452e-09
1.46428483615e-08
2.58970163738e-09
5.64952633625e-09
5.30873129536e-09
2.47291141815e-08
3.20525444327e-08
1.7183237461e-08
1.73019418096e-09
2.58921443939e-09
3.2495001259e-08
4.03108915304e-09
1.81892659721e-08
1.35592723999e-08
1.65957210495e-09
1.55797546897e-08
5.34792864772e-08
1.02447758681e-08
2.85484226358e-08
8.1865421213e-10
2.70963247798e-08
2.19444791758e-11
8.78467263571e-09
6.46786971075e-09
2.28713648191e-08
4.98550709871e-09
6.62034724492e-10
7.4312307371e-09
6.10705064147e-09
1.1795922604e-08
1.36734862611e-08
2.39059427923e-08
4.63729696473e-09
3.01818433002e-08
9.43961167539e-09
5.51899946116e-08
1.91999628038e-08
1.47267689761e-08
1.8007142203e-08
3.84848254544e-08
1.27159990751e-08
2.49445027245e-08
4.78762087349e-09
1.6225383336e-08
5.24069080763e-09
6.08742684515e-09
2.839570666e-09
3.74250082402e-08
6.89266999341e-09
1.93567411648e-08
2.97481755701e-08
9.52937041613e-09
1.84514258785e-08
4.42533820036e-09
2.87871929119e-08
3.89221398026e-09
1.35074615534e-08
1.74309521548e-08
5.595332041e-09
7.37775666077e-09
3.38295750395e-08
1.43688190706e-08
1.67740446562e-08
1.08708860714e-08
1.02739407615e-08
1.40971521697e-08
1.27635464822e-08
1.7118241666e-08
1.50924496174e-08
7.31026290724e-09
1.33427315672e-08
3.110864231e-08
3.91774762841e-08
8.37477109708e-09
6.20525061739e-09
1.5642897853e-08
7.4481275092e-09
7.32087779096e-09
2.49842468089e-09
1.78101387566e-09
6.28712511858e-09
8.43028954061e-09
2.05877940575e-08