# vtk DataFile Version 3.0
File Name: Molecule/sphere_cent/sphere_cent_0-s15.vtk
ASCII
DATASET UNSTRUCTURED_GRID
FIELD FieldData 1
TIME 1 1 double
0.0
POINTS 426 double
-0.97167092562 -0.14071746171 -0.18989942968
-0.99953496456 -0.0042964275926 0.030968848616
-0.97083044052 0.098799288273 -0.21841418743
-0.56041198969 0.49321424961 -0.66475480795
-0.67375874519 0.59706634283 -0.43528312445
-0.45909884572 0.70996284485 -0.53392827511
-0.50638955832 0.80579000711 -0.30278894305
0.61993676424 0.44276356697 -0.64755731821
0.45643663406 0.66752195358 -0.58789414167
0.69953787327 0.54121547937 -0.46636107564
0.22037866712 0.96836185455 -0.11635123193
0.26607647538 0.95383954048 0.13917018473
0.47508436441 0.87736105919 -0.054392084479
0.0041410904378 0.99860167503 -0.007226749789
-0.10536190122 0.68504005671 0.72006881237
-0.0054085683078 0.51705473661 0.85435366631
0.13597816229 0.6799607873 0.72051596642
-0.50251168013 -0.81604170799 0.28552743793
-0.45044213533 -0.73127496243 0.51221060753
-0.68790239096 -0.58778911829 0.42569074035
-0.65833693743 -0.39536494017 0.64053183794
-0.82430803776 -0.29700547457 0.48202165961
-0.5349496603 0.666901052 0.51801866293
-0.4984587729 0.57123810053 0.65116274357
-0.37095084786 0.71578335762 0.59136933088
0.0071743405424 -0.5644146204 0.82511126995
0.093485191464 -0.42911276221 0.89801323414
-0.084917239845 -0.40142077208 0.91194397211
-0.023661447689 -0.24020145833 0.97028052807
-0.18636249006 -0.23073449731 0.95451056957
0.40005639195 0.63022398949 0.66471803188
0.28588345647 0.50500506163 0.81346535683
0.16561734676 0.27295234799 0.94606095552
0.26603585482 0.045298013836 0.96276861429
0.40351977944 0.22864402831 0.88517272472
0.46895727515 -0.28228649497 0.83670449257
0.60418736935 -0.43104755878 0.66856110096
0.68414884806 -0.18439374864 0.70564365387
0.77931112051 -0.36055317521 0.51210343838
0.44042950869 -0.68673932552 0.5772562623
0.51735293865 -0.77452355623 0.36323675513
0.67766553164 -0.58556163311 0.4448146522
0.21840205789 -0.72383403778 0.6539490819
0.26740068197 -0.84648138285 0.45927134156
0.84701597691 -0.46031558514 0.26402667165
0.71370118856 -0.67542308569 0.18554925919
0.85222011805 -0.52285283804 -0.011876739562
-0.84813088179 -0.52995067835 0.010350669734
-0.69139534235 -0.70923489332 -0.13748833537
-0.71036410332 -0.68786072731 0.14911112189
-0.51044136286 -0.85988324881 0.0076390588656
-0.47386282682 -0.84287369251 -0.25483247638
-0.94915479422 -0.15101215243 0.27618297935
-0.86549550295 -0.43722057343 0.24441638589
-0.96093046665 -0.27484205365 0.031816639006
0.70455664396 -0.70630592108 -0.068464159966
0.58021092415 0.04460382089 0.81313109398
0.72432214022 0.07382415235 0.68547523022
-0.30022490025 0.86789238453 -0.39530199766
-0.68562144041 -0.61335390806 -0.39201819897
-0.79236555099 -0.52592855692 -0.30875611305
-0.017069688067 0.97438818216 -0.22345782816
-0.52522784472 0.84983605146 -0.011671272106
-0.7043723464 0.69266146421 -0.15494894981
-0.68068790436 0.72594755888 0.095045588911
-0.24322465062 -0.88047236204 -0.40642774105
-0.27968639135 -0.9501273036 -0.1379635334
-0.050466641784 -0.96416211128 -0.26061314344
-0.0014435835183 -0.87279433012 -0.48703768849
-0.051413059235 -0.99799847603 0.012029876001
-0.28067317605 -0.94911807775 0.14282257855
-0.26086315513 -0.88390463591 0.38805776834
-0.041544932872 -0.9605807662 0.27324491739
-0.04551255703 -0.87137651443 0.4872725904
-0.73617869616 0.11561641842 0.66561424732
-0.8664059639 -0.0093316342682 0.49931001663
-0.72606474161 -0.13394017518 0.67446947098
-0.83506011963 0.24021704495 0.4947013855
-0.89680963755 0.38061439991 0.223917678
-0.96561592817 0.25663337111 0.041103102267
-0.95170617104 0.13526414335 0.27574437857
-0.86394047737 0.49817141891 -0.070093408227
-0.83201098442 0.47517898679 -0.28586345911
0.013304157183 0.95547008514 0.28878691792
0.24773970246 0.89130574465 0.37962272763
0.70214629173 -0.10320559144 -0.70169001818
0.71432238817 0.10383784771 -0.69174569845
0.86471956968 0.0076775671914 -0.50214993954
0.51941335201 0.018202835694 -0.85430574417
0.40656775236 -0.24441580474 -0.88005816936
0.26509094238 -0.055265977979 -0.96257096529
0.13095121086 -0.27294549346 -0.95305484533
0.25798165798 -0.46983718872 -0.84403181076
0.03891781345 -0.042135652155 -0.99815136194
0.050829533488 -0.51566594839 -0.85511565208
0.16915334761 -0.65923142433 -0.73237711191
0.073053427041 0.86018538475 0.50405228138
0.26218381524 0.78517103195 0.5608227253
0.42951267958 0.78410506248 0.44771018624
0.45055288076 0.8417544961 0.29632806778
-0.89684575796 0.25326028466 -0.36261841655
-0.87172502279 0.06636877358 -0.48486545682
-0.8026971221 0.35876595974 -0.47555369139
-0.9286519289 0.32927799225 -0.17039330304
-0.53871226311 -0.57021725178 0.62023597956
-0.36175304651 -0.62904900312 0.6880736351
-0.47542846203 -0.44420552254 0.75936996937
-0.27861487865 -0.4977812171 0.82062715292
-0.24851499498 -0.77992135286 0.57441198826
-0.16451342404 -0.68729549646 0.70700335503
-0.57637006044 -0.25102880597 0.77767544985
-0.42682233453 -0.27157735825 0.86250239611
-0.55677777529 -0.047724768519 0.828779459
0.89457768202 -0.38678705692 -0.22283045948
0.96258920431 -0.26674118638 -0.040351361036
0.95032149553 -0.13534669578 -0.28012377024
0.99678558111 -0.00068496598396 -0.07460013777
0.94925701618 0.14353644848 -0.27978792787
0.97245103121 0.22936713696 -0.034719284624
0.48379951715 -0.80398607254 -0.34559673071
0.34818959236 -0.90098792315 -0.25885167718
0.28730866313 -0.84681487083 -0.44537621737
0.15195704997 -0.92956191301 -0.33589988947
0.1950494945 -0.96935492754 -0.14400854707
0.53817915916 -0.82734328508 -0.16079553962
0.38939008117 -0.91870880127 -0.065379269421
0.56033283472 -0.82726025581 0.037638500333
0.46220317483 0.44348430634 -0.76794463396
0.30743968487 0.55144685507 -0.77525889874
0.26932352781 0.37755984068 -0.88589453697
0.57899069786 0.25012135506 -0.77595418692
0.43028908968 0.2667940259 -0.86231088638
0.31436178088 0.14580410719 -0.93806314468
0.15262432396 0.24992704391 -0.95605099201
0.82874727249 -0.23014420271 -0.50573289394
0.84444224834 0.26213660836 -0.46528050303
0.10252565145 0.10504911095 -0.98913770914
0.65033078194 -0.71062159538 -0.26854714751
0.96388542652 0.16156122088 0.21124435961
0.8968911767 0.25612163544 0.36039727926
0.91732650995 0.069393664598 0.39193546772
0.82974618673 0.16074737906 0.53444319963
0.80001473427 0.34272557497 0.49200555682
0.83304947615 -0.036204129457 0.55170482397
0.84122490883 0.43918895721 0.31085470319
0.933598876 0.32677927613 0.14188995957
-0.29858183861 0.50333595276 -0.81064343452
-0.3603515029 0.6190880537 -0.69777965546
-0.16536422074 0.65006655455 -0.74043220282
-0.25084248185 0.77664643526 -0.57642203569
0.77911990881 0.57086837292 -0.25499153137
0.62826269865 0.68587750196 -0.36692366004
0.48565065861 0.80708420277 -0.33203685284
0.28619986773 0.83105564117 -0.47662356496
0.34613060951 0.90162283182 -0.25896015763
0.035874497145 0.83547317982 -0.54688155651
0.15960757434 0.92468780279 -0.34577983618
0.78370910883 -0.58150911331 -0.21834768355
0.70070254803 -0.57633131742 -0.42056018114
0.6102823019 0.72392868996 0.32133349776
0.53701645136 0.83321362734 0.13151240349
0.763240695 0.59622311592 0.24889422953
0.68890827894 0.70679748058 0.16063830256
0.6871945858 0.58409518003 0.43115594983
0.82684504986 0.56112146378 0.026888817549
0.7166672945 0.26495155692 0.64521640539
-0.80938786268 -0.31514441967 -0.49546679854
-0.89946097136 -0.23973150551 -0.36523276567
-0.84945720434 -0.18840150535 -0.49288612604
-0.92239695787 -0.077375054359 -0.37828794122
-0.65379273891 -0.53087830544 -0.53888583183
-0.75756490231 -0.46719390154 -0.45577859879
-0.71893101931 -0.38926056027 -0.57582491636
0.22483478487 0.70076698065 -0.67453348637
0.67472827435 0.73799604177 0.0081488993019
0.58678215742 0.80175995827 -0.11061329395
0.148636356 0.54337459803 -0.82618689537
-0.0052465060726 0.53134894371 -0.84699600935
0.038252338767 0.66326999664 -0.74638825655
0.59836566448 0.22545658052 0.76885783672
0.079112127423 0.39040094614 -0.91707599163
0.57665002346 0.44008138776 0.68815243244
-0.52418786287 -0.0019807112403 -0.85159522295
-0.73371696472 0.036626476794 -0.67860549688
-0.68731915951 0.17791764438 -0.7042773366
-0.80240941048 0.20071330667 -0.56186687946
-0.69539654255 0.35968822241 -0.62216424942
-0.56833863258 0.2594987452 -0.78094816208
-0.42480632663 0.26207455993 -0.86644619703
-0.43914189935 0.43017968535 -0.7887262702
-0.26646497846 0.35923925042 -0.89435553551
-0.28352707624 -0.52212077379 -0.80436623096
-0.4272827208 -0.42248472571 -0.79920989275
-0.26200145483 -0.37017276883 -0.8912191391
-0.54543834925 -0.26557531953 -0.79520696402
-0.41679477692 -0.2614813447 -0.87057328224
-0.54331016541 -0.43288937211 -0.71894872189
-0.10438914597 0.08757802099 -0.99067288637
-0.0050402553752 0.24560114741 -0.96934938431
-0.15984804928 0.24810622633 -0.95544576645
-0.082306265831 0.38343936205 -0.91988617182
-0.15819616616 0.49796485901 -0.85261297226
-0.32352587581 0.1471914947 -0.93482840061
-0.26656618714 -0.00678013172 -0.9637966156
-0.1059711352 -0.11858505011 -0.98734402657
-0.067708462477 -0.39764025807 -0.91503876448
-0.14225409925 -0.26875892282 -0.9526321888
-0.13540644944 -0.5258769989 -0.83961158991
-0.17052870989 -0.67397093773 -0.71856856346
-0.0048278262839 -0.67234539986 -0.73991918564
-0.31415206194 -0.15904666483 -0.93615978956
-0.75544422865 -0.23508162796 -0.61162436008
-0.82246702909 -0.071532458067 -0.56428736448
-0.71309143305 -0.09776994586 -0.6943179369
-0.92151021957 -0.31613278389 -0.22492024302
-0.84572821856 -0.38032892346 -0.37383213639
-0.64452433586 -0.34402832389 -0.68279474974
-0.64663809538 -0.20025552809 -0.73610848188
-0.60449939966 -0.47919777036 -0.63629812002
0.56230050325 -0.62880432606 -0.53703963757
0.64222538471 -0.51416999102 -0.56835591793
0.5110104084 -0.5496263504 -0.66088140011
0.42635193467 -0.66687756777 -0.61110818386
0.58934336901 -0.41572070122 -0.69143646955
[...]
CELL_DATA 848
SCALARS cell_data_0 double
LOOKUP_TABLE default
1.67416107319e-07
5.78920900485e-08
8.97949768923e-08
4.2880635255e-07
4.04431927558e-08
1.155475413e-07
2.563701825e-07
3.07536389859e-07
3.3662374255e-07
1.64309397282e-07
1.73111546141e-07
1.00977087868e-07
3.10439082877e-07
3.2776981401e-07
3.75599437037e-07
6.7766579983e-08
4.73862340967e-08
5.93658566746e-08
8.72356260277e-08
9.9505636927e-08
1.28173850111e-07
2.59360344339e-07
1.55580328017e-07
3.45539906607e-07
9.5023735086e-08
1.24847170813e-07
1.14913005368e-07
6.86096794057e-08
1.11358529998e-07
6.11399586344e-08
1.55954439767e-07
1.3073127145e-07
1.09081036272e-07
1.96717803105e-07
2.33464679254e-08
1.39081644404e-07
3.27033052078e-07
7.72299282923e-09
1.83897955022e-07
2.69549798264e-08
8.9893987154e-08
1.28103366367e-07
3.59148747141e-07
3.41937252642e-07
1.52274516205e-07
2.13969142711e-08
1.72217870007e-07
6.68949506445e-08
5.65509294953e-08
9.7748307454e-08
8.10629404807e-08
3.99036899782e-08
7.54142460397e-08
2.7501207739e-08
2.55717912396e-08
2.73553988717e-07
2.84136302743e-07
7.15019050157e-08
5.52606684429e-07
3.1175421479e-07
2.88853739864e-10
9.15064053236e-09
3.70008333522e-08
3.55942403159e-08
2.35461840537e-07
6.62605505925e-08
1.64649975278e-07
2.94867557543e-07
3.48822569242e-09
3.76039870605e-08
2.28263640412e-07
7.94871205361e-08
5.69346747718e-07
3.14324072366e-07
2.84165711525e-07
2.73291396034e-08
4.47990043016e-08
1.08070094012e-07
3.20846882774e-07
4.41000931026e-08
1.69032284159e-07
1.51082808629e-07
4.66953588981e-08
2.14297703414e-07
3.17765258314e-07
3.96944003638e-07
1.81072850801e-07
1.5210987449e-08
3.55873375983e-08
3.38805590181e-08
7.64444568615e-08
9.86817293195e-08
1.40269320244e-07
2.63514847562e-08
3.7435117834e-07
9.19632705187e-08
1.42101690746e-07
9.11269527765e-08
9.81848525187e-08
3.96584385839e-08
9.12628437875e-09
2.4075890671e-07
1.61904178193e-07
2.13719247687e-07
8.23838701554e-08
8.69734102717e-08
2.33277500519e-08
1.27380774128e-07
9.33671164255e-08
5.94348842066e-08
1.82980292761e-07
2.17923596022e-07
1.0784600367e-09
9.92147979508e-08
1.2358288819e-07
2.47203087394e-08
7.10890657846e-08
1.76633003825e-08
1.88010483097e-08
7.17281374371e-08
1.800796625e-07
2.96812680367e-10
2.04337833136e-07
1.19386990092e-08
1.5292934785e-08
1.03291282171e-08
2.5301019574e-08
1.43936715063e-07
8.45475492882e-09
5.18864336236e-08
1.36539532554e-07
1.88087115825e-07
2.70856905111e-07
2.4322668152e-07
5.7733955161e-08
1.63121236898e-07
9.41936987972e-08
1.41454660889e-07
2.36227439397e-08
8.80874244651e-08
1.14644758488e-07
8.17294408105e-08
5.40944771657e-08
2.95145407518e-08
1.09474082748e-09
4.54098724592e-08
7.37466719456e-08
2.18145358207e-08
1.18457094651e-07
2.07859656912e-07
1.14705698345e-08
1.94576197591e-07
2.63844549048e-07
3.31242906598e-07
2.11584060659e-07
2.67789653276e-07
4.36014079648e-08
4.27638387829e-08
3.87137539364e-07
7.71781394548e-08
1.21110508933e-07
2.96255851647e-07
1.16586053519e-07
1.34212457994e-10
2.56082810114e-07
6.32902059716e-08
1.83045748617e-09
8.49430005108e-08
1.79691935303e-07
6.01988793646e-08
2.65669356753e-07
3.7309974023e-08
2.61144312463e-08
7.74347911561e-08
6.82093810602e-08
1.83628625747e-07
1.64162086486e-07
2.68425279657e-09
3.93276577412e-09
2.41220719839e-08
1.2891535021e-07
1.14277307468e-07
2.99838606064e-07
2.74450600837e-07
2.08233560829e-07
3.6430406318e-08
1.32010096839e-07
6.47330089915e-08
1.96877521945e-10
2.40422097989e-07
2.25434230543e-07
1.16123293322e-08
1.08609791102e-07
1.95545661004e-07
2.6783682487e-08
2.44817262729e-07
3.55392523534e-07
1.54187907669e-07
4.58802277675e-08
3.30856918905e-07
1.35864038118e-07
1.53136603395e-07
1.2200293695e-07
1.84975040637e-07
3.82805767142e-08
1.3720305717e-07
4.02581869908e-07
2.22609574492e-07
2.91311952781e-07
1.57349939124e-08
1.33510875744e-07
8.58545669816e-08
1.63244631216e-07
1.72905227065e-07
1.72412223748e-07
1.21183514239e-07
1.39537668564e-07
5.06353344902e-08
1.71615788445e-07
5.66786654921e-08
2.5276505732e-07
7.51919030376e-08
1.06761868661e-07
1.06028057533e-07
1.29559594585e-08
1.31652461501e-07
3.13551283615e-08
4.01163805702e-08
7.6429140265e-08
1.02721695198e-07
4.33077937795e-09
4.12022743124e-08
1.05370092651e-07
6.57405018247e-08
6.48309205145e-08
1.16454785071e-07
2.82254646952e-09
1.89351865581e-07
1.52423505949e-08
7.02582925741e-08
7.00530842602e-09
3.02965708052e-07
1.68263962864e-07
8.839429852e-08
2.11442403486e-07
3.61029475563e-07
1.42664294538e-07
1.30910223376e-08
1.2219673313e-07
1.44007055121e-07
1.19454055361e-07
1.59947729173e-07
1.91530970672e-07
5.52276852138e-08
8.90784863825e-08
1.95031175963e-08
4.76890869511e-08
3.83029791098e-08
7.77266331733e-09
1.8257666733e-08
1.9439611715e-08
1.12702119649e-07
9.7144007745e-08
1.39486268617e-07
3.75651128009e-08
2.17195191761e-07
9.26382200731e-08
3.91852652419e-08
6.60732491038e-08
5.04916596665e-08
2.01681943089e-07
7.56905913801e-08
4.55365852171e-09
1.43897345985e-07
1.43106820331e-07
1.33957680879e-07
1.13756985034e-07
2.2153064651e-08
4.21822312113e-09
8.7001619042e-08
1.19163328134e-07
8.58937666329e-08
3.86552487489e-08
6.75608150714e-08
9.88796189549e-08
3.3419670164e-09
2.37877220895e-07
1.15311687758e-08
5.93609929955e-08
4.83258165275e-09
1.8732508702e-07
1.18164636825e-08
4.18217047761e-08
4.12373435552e-08
2.79998928354e-08
3.71286928108e-08
1.25579896315e-08
7.60879554251e-08
4.4289564196e-09
3.07349558498e-08
1.13837788526e-08
8.83995797425e-08
3.03272828089e-07
1.2927575771e-07
8.80820788517e-08
3.31217821544e-07
6.66820577125e-08
4.51965805061e-07
2.82132964016e-07
2.13867669767e-07
7.1938901939e-08
1.69744850632e-07
2.80263143342e-08
3.08447018001e-08
1.69539374141e-07
1.82576889041e-07
2.51725632894e-07
1.12236302023e-07
1.07994353491e-07
1.599186549e-07
2.43076918133e-07
2.3930600763e-07
1.14812923356e-07
4.46429791891e-08
2.50166600804e-08
5.6847369801e-08
7.919888992e-08
8.35936722769e-08
1.69861025771e-07
2.17310229172e-07
1.9042913121e-07
1.74218325725e-07
7.16378801354e-08
2.84118318834e-08
2.28166924783e-07
1.13242964732e-08
1.09177825691e-07
9.7464951247e-08
1.84938482036e-07
2.39884769942e-07
3.29791841677e-07
1.63363868953e-07
1.05935106439e-07
1.32757005679e-07
9.73286248361e-08
1.56222850811e-07
1.3316256072e-07
1.14892611703e-08
3.71170784654e-08
6.87498119716e-08
3.13867064753e-07
3.61944885101e-08
1.38316470109e-07
3.75905711037e-08
1.46252191849e-08
9.91405885913e-08
5.18904393566e-08
7.51313160347e-11
8.82180232208e-08
1.59342347418e-08
8.38068048051e-08
2.48220936113e-07
1.5306854721e-07
1.28715409901e-07
1.13007054017e-07
8.02184274233e-08
2.63020023384e-08
1.73993840526e-07
5.43038404159e-08
2.50461932063e-08
3.91849960544e-08
4.81234795569e-08
2.91680472573e-09
6.91593623922e-08
2.73669089497e-07
2.83234957494e-08
3.84695346171e-08
8.44032619259e-08
1.19550324106e-08
1.03439567453e-07
5.30238996335e-09
9.17919500069e-08
1.17825128661e-07
1.24780268005e-07
3.52811116247e-07
1.50460175618e-07
3.08559928125e-07
4.59858794378e-08
7.32627179973e-08
1.17131075781e-07
1.26292517687e-08
5.85274936477e-08
8.73006601732e-08
3.22207998501e-07
4.22320425805e-07
1.09204909205e-07
2.00564574455e-08
1.6444748189e-09
9.62919964353e-08
4.81673597145e-08
2.09840479452e-08
3.02996373325e-09
4.91007157502e-08
8.39410526312e-08
4.79553324039e-08
1.71725935083e-07
1.06891026023e-07
1.6081305942e-08
8.03392087235e-08
4.12443405314e-08
1.09627928557e-07
1.08182520073e-08
3.68797849356e-07
1.06993640505e-07
6.02829440803e-08
2.07307477056e-08
1.37064236866e-08
1.20199087178e-07
4.26029220278e-08
8.80910135905e-08
2.18260215101e-07
5.67246794345e-08
9.19035003904e-08
8.00013888408e-08
1.59043512261e-07
1.37333550114e-07
6.72085272737e-09
7.44425768127e-08
3.44285559851e-07
3.2186614089e-07
5.23894925051e-09
1.36119494716e-08
3.44391830218e-08
1.25320391096e-08
3.16522439475e-08
8.04148714955e-08
5.49077538188e-08
2.55777442616e-08
9.76391000434e-08
1.05047053567e-07
7.36425649574e-08
6.65573142636e-08
6.74899249134e-10
1.59862553699e-07
5.45959273008e-08
2.00328211719e-08
6.74388119766e-08
1.07583505411e-08
1.58769594627e-08
2.97156515407e-07
1.54311399286e-08
3.31244980801e-08
2.28900525968e-08
1.86959081309e-07
1.99948812971e-08
4.60730381731e-08
5.47336410548e-09
2.57934180607e-07
5.78359955068e-09
4.57367383812e-08
8.5785806627e-08
1.16554376146e-07
5.29140917699e-08
3.09902148753e-07
4.85273274877e-08
1.57259021758e-07
5.32900215325e-08
2.21888155125e-07
9.80848483192e-08
1.06057813519e-07
3.48523312375e-07
1.38536371317e-07
7.69952327451e-08
1.81821339634e-08
5.85309598835e-08
8.03585584727e-08
2.85415979768e-07
2.17925567565e-07
1.55199490618e-07
1.00678540646e-07
1.24884347325e-07
1.08339427284e-07
1.39321463249e-09
5.76707308522e-08
5.60602620345e-08
5.36576083368e-08
4.57564422931e-08
9.1196879577e-08
4.90535764816e-08
2.61873103275e-08
2.64872533219e-08
1.13986744701e-07
1.56805014735e-07
1.7043500805e-07
6.79809108669e-08
7.68667881788e-08
2.45996375198e-08
2.58727965208e-08
7.19042568121e-08
8.14957141505e-08
1.50817356728e-07
6.32964365661e-08
6.91293944129e-08
3.69851378835e-08
4.62619894041e-08
6.88033586286e-08
8.62398993283e-08
5.86793596376e-08
6.76534666984e-08
1.09654474629e-08
6.08423181575e-08
1.22427042908e-07
1.02798347397e-07
2.01174919913e-08
8.17445033367e-08
2.45560189277e-08
8.806376271e-08
4.13795662734e-09
2.34256938793e-08
1.85303151678e-07
1.57766734107e-07
7.06602191877e-08
9.10086618311e-08
1.44971410029e-07
4.58003092828e-08
1.74334058321e-07
1.81347156379e-07
6.46342327375e-08
1.45645184076e-07
1.37700405757e-07
1.27022739661e-07
3.12744577873e-09
1.10038836532e-07
8.84718053346e-08
9.97674159646e-08
9.39069475572e-08
5.22428198689e-08
2.38684598673e-08
8.82979278957e-08
1.40356586126e-07
6.52594391731e-08
8.10794514212e-08
1.20629866952e-07
1.20132675854e-08
1.05258191193e-07
1.19002528187e-07
1.19329785295e-07
1.50223020998e-07
1.05297083457e-07
9.58874796669e-08
1.15882742064e-07
3.44585667491e-08
7.85804812327e-08
9.07270238561e-08
2.63929154027e-07
2.69556536977e-07
9.28092852513e-08
1.47182750408e-07
2.55820993973e-07
1.75289680149e-07
5.47862298351e-08
1.04184082388e-07
2.48377353149e-07
1.54254154812e-07
2.2137381327e-07
1.45441819694e-08
9.27225306075e-08
1.71005085693e-07
8.50709306628e-09
8.81104763727e-09
8.01301234942e-08
2.53422231537e-07
7.95426396919e-08
8.78160734945e-09
8.74576350396e-08
5.38394502736e-08
3.77433000131e-08
1.49961825799e-07
1.29917894099e-07
2.3034769348e-08
3.00533708163e-08
1.63323509379e-07
3.39426209173e-08
9.7509865955e-08
5.61828451368e-08
2.75189726815e-07
2.13293641336e-08
6.63027501212e-09
2.17691062348e-07
1.34595599519e-07
1.49006913869e-08
9.98926175345e-08
9.96146950317e-08
4.66441219989e-08
1.85108265868e-07
1.50104818103e-07
7.4475807013e-08
3.05658216252e-08
1.6125683131e-08
2.51993124761e-08
1.7742065055e-09
6.90990628746e-08
6.76959937414e-08
6.05115225866e-08
8.03864754084e-08
2.3037040888e-08
6.12445331537e-08
2.77422236626e-08
4.41836808669e-08
8.48074357183e-08
5.30992436332e-08
9.81865698099e-08
1.49802600007e-07
1.48553978649e-08
7.05553351932e-08
5.25861855282e-08
6.63486498527e-10
7.40462397988e-08
1.74675170847e-08
6.39293035461e-08
4.05412245617e-08
5.24094329499e-08
1.15121753005e-07
1.08307805218e-07
3.18998624028e-08
8.92161578999e-08
5.60621353814e-09
1.12428765931e-07
6.98728857891e-08
7.25189838467e-08
1.08158691374e-07
7.35924119175e-08
1.22310802302e-07
6.08021734704e-08
7.49572515985e-08
6.70520806329e-08
2.837276374e-08
1.27587872273e-08
8.80373392001e-09
7.23001352727e-08
1.13136873969e-07
3.5714103417e-08
5.16800899955e-08
1.21438040325e-07
2.58054277455e-08
4.52163954153e-09
5.02117638113e-08
2.57396843474e-08
3.05128848136e-09
1.31428204834e-07
1.70905664481e-07
4.71179397889e-08
1.34394525402e-07
3.77227326339e-07
1.17346065969e-07
1.43717194445e-07
1.39809931307e-08
1.89756185477e-08
6.76097665449e-08
4.15151215642e-08
3.95235797333e-08
3.85347340111e-08
1.55440131669e-07
3.43886199993e-08
2.37415906882e-07
3.9104233448e-07
2.76974285797e-07
2.66543869495e-07
7.67273640766e-08
8.3812968143e-08
1.21483637063e-07
1.95084810464e-07
6.4496507449e-08
5.82588493602e-08
1.66895559615e-07
1.45975250725e-07
1.10911929578e-07
1.72996056674e-07
5.71309963386e-08
5.96130420567e-08
3.20182815979e-07
2.58811736805e-07
5.02341133047e-08
9.27235946044e-08
6.70480090707e-08
4.63471082731e-08
7.38370634026e-08
5.25669967698e-09
1.90867804128e-08
1.09694202403e-07
1.54852133781e-07
9.17461624261e-08
7.38239351673e-08
1.4385835957e-07
1.37225509636e-07
2.82456116184e-09
6.76708214974e-08
1.06197443436e-07
1.67701958945e-08
1.95708118257e-07
2.51763231391e-08
1.96394390197e-07
3.77295290194e-08
3.03836358667e-08
1.56151708942e-07
1.1162275886e-07
1.22500846464e-08
7.24668175394e-08
2.33462599503e-07
6.4675316602e-08
1.7932591174e-07
9.35479685304e-08
9.87053319303e-08
2.35090938924e-07
2.45573074026e-07
4.64481187163e-08
2.90297654472e-07
4.02926678103e-08
2.55261943262e-07
1.23993898222e-07
7.90900266888e-08
1.89695818184e-07
2.40220418351e-07
1.40615634342e-07
3.1646157728e-08
1.55755322042e-07
3.22039218251e-07
1.3297304138e-07
1.70156005344e-07
5.17372473196e-08
3.34147272326e-08
1.15165739874e-07
7.52624409005e-09
7.47585625281e-08
1.40613163162e-07
4.88097972721e-08
1.1776364604e-07
1.11921728381e-07
1.46276678495e-07
1.14367714909e-07
1.15166687045e-07
1.11743195564e-07
4.73839225779e-08
1.35992103545e-07
4.0160668114e-08
1.44772541305e-07
1.21558207699e-07
1.10218299222e-07
2.76815080998e-08
9.95413482331e-08
2.1617683542e-07
9.76233380339e-08
6.14957001457e-10
9.30210461673e-08
2.88500224173e-08
1.3216894139e-07
3.00771696725e-07
2.74606064964e-07
5.80923335819e-08
8.22979654743e-08
3.35811145522e-07
1.94058883348e-07
4.24383436283e-08
7.88411515038e-08
1.25382055254e-08
1.70830146111e-07
1.65817123164e-09
1.31554905075e-07
1.77587520469e-07
3.05032400647e-08
3.35851774324e-08
1.31386657236e-07
1.94162122612e-07
6.20287341695e-08
6.10489632263e-08
3.74797026916e-07
6.71403351256e-08
1.11865024925e-08
6.15666167579e-08
3.7414296894e-08
1.78335630979e-08
1.25198933785e-07
1.43006454652e-07
9.77709315111e-08
1.96782048368e-08
2.33175173805e-08
4.94663901344e-09
4.21151181304e-08
1.02672713382e-07
2.18090754087e-08
6.96204907228e-08
8.76854921387e-08
1.60319662047e-07
3.66331091828e-08
1.14905439087e-07
1.62335007772e-08
1.38128204462e-07
3.64468892182e-08
1.88007805627e-07
1.05920059342e-07
4.22325905299e-08
5.60936846425e-09
6.19923008588e-08
1.78854699124e-08
1.50890442015e-07
3.1772994046e-08
7.53045953177e-08
1.93861962171e-08
1.63663175963e-08
7.01852648796e-09
1.54101197639e-07
1.01668322923e-08
4.25895458232e-08
2.87306978762e-09
1.02560109513e-07
3.88385338713e-08
7.34397031887e-08
8.34870920132e-08
3.38322652946e-08
3.60163040056e-09
1.17609443738e-09
3.86072831695e-08
5.16675941911e-08
2.08103371977e-08
8.14845140771e-08
3.08746994245e-08
1.28478563168e-07
2.43854621474e-08
2.64931709231e-08
1.56497021151e-07
2.73353525508e-07
9.7455214995e-09
3.76231209349e-08
3.92778663786e-08
2.91713434359e-08
2.115210364e-07
2.67870337161e-08
4.40138568864e-09
1.39688064679e-08
2.25348902651e-08
1.06728272333e-07
1.13037075901e-07
1.25234895817e-07
1.52402996908e-07
4.0810931654e-08
4.24363881141e-08
7.36208281848e-08
1.98355615303e-08

