# vtk DataFile Version 3.0
File Name: Molecule/sphere_cent/sphere_cent_0-s25.vtk
ASCII
DATASET UNSTRUCTURED_GRID
FIELD FieldData 1
TIME 1 1 double
0.0
POINTS 1668 double
-0.50840938091 0.67781889439 0.53050410748
-0.47950944304 0.61808979511 0.62279176712
-0.39877942204 0.71428030729 0.57511436939
-0.082171536982 -0.37268227339 0.92429846525
-0.03176523 -0.24014441669 0.9702039361
-0.14404968917 -0.25929039717 0.95478528738
0.23548221588 -0.51345539093 -0.82474088669
0.20050947368 -0.62411868572 -0.75480926037
0.10521164536 -0.561891675 -0.82026034594
0.26408237219 0.87047457695 0.41536852717
0.4052233696 0.81154644489 0.41964736581
0.34794828296 0.87614768744 0.33356738091
0.64964497089 0.70125502348 0.29322057962
0.73892718554 0.63443523645 0.22690200806
0.69008862972 0.70713788271 0.1540581882
0.79745775461 0.59862399101 0.075536385179
-0.65692925453 -0.53760683537 -0.528601408
-0.74241799116 -0.50250822306 -0.44303709269
-0.72831481695 -0.41205704212 -0.54642403126
-0.68272733688 -0.59903395176 -0.41818544269
0.70581370592 0.70803290606 0.021629570052
0.12805607915 0.5383515358 -0.83251309395
-0.0082563944161 0.52332603931 -0.85165154934
0.0521306023 0.61640185118 -0.78550714254
-0.43726411462 -0.38363456726 -0.81316298246
-0.52017515898 -0.43139341474 -0.73668926954
-0.52464312315 -0.32165852189 -0.78820991516
-0.11039418727 0.26819810271 -0.95693600178
-0.057972345501 0.36965152621 -0.92730236053
-0.011844132096 0.26814204454 -0.96327006817
-0.65532517433 -0.1949840188 -0.7296718359
-0.73459386826 -0.24545039237 -0.63193148375
-0.68284773827 -0.13004639745 -0.71887671947
0.53711855412 -0.63841676712 -0.55118924379
0.50879400969 -0.5501216054 -0.66158032417
0.62066954374 -0.5326230526 -0.57534527779
0.5617133379 -0.44754198194 -0.69583189487
0.44965669513 -0.72874850035 -0.51639777422
0.42047578096 -0.67461788654 -0.60625970364
0.43465691805 -0.46798864007 -0.76881605387
-0.4410341382 -0.70124399662 -0.55950766802
-0.47050446272 -0.76086252928 -0.44677722454
-0.53741878271 -0.68007200956 -0.4983612597
-0.034607335925 0.96572309732 -0.25685879588
-0.015967216343 0.93234091997 -0.36102327704
-0.13605718315 0.93513005972 -0.32709097862
-0.10817103833 0.8922663331 -0.43808415532
0.45070838928 -0.27120605111 0.85044056177
0.49332374334 -0.15579903126 0.85575354099
0.39258679748 -0.21348358691 0.8946185708
-0.53111076355 -0.042095862329 0.84619945288
-0.48178482056 -0.14074651897 0.86489832401
-0.43406167626 -0.030114712194 0.90031200647
-0.35805100203 -0.097673632205 0.92854940891
-0.32437714934 0.023931020871 0.94558286667
0.3401760757 -0.57843708992 -0.74077475071
-0.44642072916 -0.2650846839 0.85418337584
-0.54177594185 -0.24565988779 0.80378973484
-0.57704800367 -0.12872596085 0.80642074347
-0.84648787975 -0.5322740674 -0.00925385952
-0.89014452696 -0.44944569468 -0.075162552297
-0.8342165947 -0.52987587452 -0.15250772238
-0.85915368795 -0.44222164154 -0.25745555758
-0.80451977253 -0.51341420412 -0.29852095246
-0.84494280815 -0.40490275621 -0.34906372428
0.52594357729 -0.84973376989 0.036372311413
0.51802521944 -0.8427875638 0.14580951631
0.44471696019 -0.88835972548 0.11349526793
-0.73130327463 0.59554719925 0.33095607162
-0.63780885935 0.6391903758 0.4288225174
-0.62479013205 0.71413755417 0.31563779712
-0.523671031 0.75404125452 0.39587473869
-0.51336443424 0.80593514442 0.29443663359
-0.68856596947 0.54171586037 0.48133188486
-0.5973033309 0.59637469053 0.53620880842
-0.63951057196 0.50611376762 0.57864791155
-0.1097876057 -0.13785454631 0.98399281502
0.37871658802 -0.57071626186 0.7285503149
0.25865989923 -0.60811108351 0.7505146265
0.32783526182 -0.66351479292 0.67247802019
-0.54251080751 0.08762037009 0.83542472124
-0.56350535154 0.20775359869 0.7995492816
-0.62756347656 0.082782566547 0.77412462234
-0.46317985654 0.19113765657 0.86529964209
0.039472565055 -0.57598972321 0.81633448601
0.14057314396 -0.64287698269 0.75256508589
0.16809442639 -0.54065465927 0.8242738843
0.23616914451 -0.70362973213 0.67018282413
0.30201917887 -0.49697256088 0.81351536512
-0.8330976963 0.45654127002 0.31101247668
-0.87535959482 0.34456899762 0.33912935853
-0.79997009039 0.44358509779 0.4032586813
-0.89985513687 0.37673562765 0.2200127542
-0.60656762123 0.7681465745 0.20359244943
-0.7112775445 0.66755282879 0.22008432448
-0.67632454634 0.72595906258 0.12054021657
0.76031625271 0.19297938049 -0.62018615007
0.7073699832 0.14043940604 -0.69275134802
0.68680369854 0.26839408278 -0.67544698715
0.70866495371 0.36102083325 -0.60605067015
0.63165253401 0.40430030227 -0.66146063805
0.86732000113 -0.36857870221 -0.33446294069
0.88743239641 -0.39962506294 -0.22938658297
0.81611418724 -0.46943387389 -0.33695155382
0.34228435159 -0.7498396039 -0.56590163708
0.30288565159 -0.6830560565 -0.66458433867
0.23046833277 -0.75788033009 -0.61022001505
-0.54806178808 -0.59522640705 -0.58761936426
-0.60033541918 -0.49273973703 -0.62961107492
-0.51565074921 -0.52170819044 -0.67964470387
-0.57915061712 -0.42767545581 -0.69362622499
-0.42831277847 -0.50325739384 -0.74985569715
-0.24648705125 -0.082074165344 0.96535283327
-0.78703665733 0.57844179869 0.21292416751
-0.77466100454 0.62369889021 0.1022002399
-0.3568969667 -0.78089535236 -0.51249420643
-0.61458092928 -0.63135027885 -0.47232201695
0.67635631561 0.58202135563 0.45109060407
0.65275985003 0.51617783308 0.55445671082
0.74606525898 0.45743766427 0.48388448358
0.6834192276 0.42149922252 0.59595012665
0.60316073895 0.47070521116 0.64388924837
-0.30467423797 0.48867118359 0.81754511595
-0.20791086555 0.600913167 0.77180701494
-0.32418474555 0.59774756432 0.73297172785
-0.10801767558 0.67084991932 0.73351359367
-0.1992777288 0.70095640421 0.68470036983
-0.21792621911 -0.37629956007 0.9004984498
-0.15131530166 -0.495580405 0.85513859987
0.051428437233 -0.32878881693 0.94299429655
0.11488755047 -0.4252473712 0.89773243666
0.18065752089 -0.32443591952 0.92847299576
0.10375668854 -0.22415877879 0.96900802851
0.21787887812 -0.2029620558 0.95462548733
0.29691013694 -0.26191446185 0.91825532913
0.21419167519 -0.43776899576 0.87319874763
0.28997313976 -0.36695116758 0.883880198
0.03241667524 -0.15702576935 0.98702216148
0.16546134651 -0.1164650619 0.97929346561
0.37267056108 0.37695422769 0.84793901443
0.45691984892 0.37203103304 0.80796146393
0.4232904315 0.46498084068 0.77725553513
-0.34118661284 0.80515140295 0.48430159688
-0.44146603346 0.7565895319 0.48233607411
-0.42949825525 0.81175351143 0.39568826556
-0.36329293251 0.90898054838 0.20387065411
-0.28854653239 0.95002508163 0.11868464947
-0.3950547576 0.91653037071 0.062142930925
-0.50111144781 0.85741281509 0.11345481128
-0.50752449036 0.86149346828 -0.015541744418
-0.29281756282 -0.27346286178 0.91600584984
-0.33976268768 -0.37416541576 0.86255115271
-0.26966783404 -0.48285058141 0.83314025402
0.55974704027 -0.32800725102 -0.76070153713
0.55473697186 -0.20902009308 -0.80525386333
0.63905912638 -0.26087710261 -0.72340077162
0.81698083878 0.44678613544 -0.36452114582
0.84492349625 0.35466921329 -0.40037173033
0.77943915129 0.43046462536 -0.45459145308
0.58150190115 0.61339944601 0.53389143944
-0.56346166134 0.33452147245 0.75537371635
-0.6517509222 0.34125909209 0.67729747295
-0.65682822466 0.24867136776 0.711817801
-0.72582387924 0.29447257519 0.62162226439
0.34664449096 -0.90002900362 0.26430737972
0.24076449871 -0.91815179586 0.31342062354
0.2316480726 -0.95345401764 0.19279229641
-0.45674583316 -0.5948086977 -0.6611675024
-0.52257442474 0.44950431585 0.7244322896
-0.44238582253 0.4105681777 0.79732501507
-0.43750265241 0.50016915798 0.74715000391
-0.34944990277 0.35629054904 0.8665625453
-0.21590775251 0.38491481543 0.89734345675
-0.26580956578 0.27145662904 0.92500662804
-0.13041241467 0.26771789789 0.95461177826
0.50915408134 -0.48002067208 0.71436011791
0.56567472219 -0.53829282522 0.62467861176
0.62438303232 -0.43469911814 0.64897292852
-0.46689963341 0.29761323333 0.83272325993
-0.37005150318 0.23784129322 0.89804291725
-0.15196153522 0.4982406497 0.85361874104
-0.073437824845 0.39103844762 0.91745007038
-0.010535242036 0.49700829387 0.86768269539
0.059198774397 0.38560754061 0.92051666975
0.016214437783 0.29543474317 0.95508480072
0.17109073699 0.27726325393 0.94540637732
-0.034067880362 0.99169617891 0.12348793447
-0.091873250902 0.97425276041 0.20569393039
0.01345955953 0.97697865963 0.21215555072
-0.025404507294 0.99933284521 0.019741140306
-0.12113560736 0.99160891771 0.041027106345
-0.51053094864 0.84738457203 -0.14375966787
-0.41359803081 0.90546894073 -0.094101756811
-0.43021288514 0.87294781208 -0.22977890074
-0.218513906 -0.59587186575 0.77276474237
-0.18554474413 -0.68785613775 0.70150232315
-0.31705892086 -0.6583327651 0.68260425329
0.78836357594 0.52479475737 0.3209553957
0.82822412252 0.43187880516 0.35690551996
0.82796281576 0.49751925468 0.25836646557
0.84968936443 0.49635142088 0.17791068554
0.8824416995 0.45899623632 0.10166670382
-0.14889536798 0.72536164522 -0.67203748226
-0.13897977769 0.80614942312 -0.5748591423
-0.076171465218 0.77545952797 -0.62649923563
0.7947769165 0.58514511585 -0.16085146368
0.7597181201 0.64628839493 -0.071517720819
0.83233773708 0.55103987455 -0.059074435383
0.71359407902 0.66677910089 -0.214906618
0.77351725101 0.57219946384 -0.27197080851
0.67971104383 0.72483313084 -0.11244674772
0.61544489861 0.76025557518 -0.20775735378
0.6014841795 0.79013097286 -0.11791757494
0.11622221768 0.70517718792 -0.69937443733
0.060256320983 0.75215214491 -0.65615731478
0.1429451257 0.7768188715 -0.61326414347
0.044293347746 0.82666522264 -0.5604018569
0.66066527367 -0.43408629298 -0.61239939928
0.73661184311 -0.43319785595 -0.51923316717
-0.11854045093 0.87931156158 0.46125939488
-0.12387745827 0.92438346148 0.3605876565
-0.22810038924 0.88622301817 0.40240439773
0.21955299377 -0.81846106052 -0.53014570475
0.13459201157 -0.80763244629 -0.57405328751
0.028399569914 0.043974738568 0.99861514568
-0.04275842011 0.14300645888 0.98824417591
-0.08947981894 0.018017377704 0.99543887377
[...]
CELL_DATA 3332
SCALARS cell_data_0 double
LOOKUP_TABLE default
4.89466581896e-09
2.52806313308e-09
2.23149819496e-09
2.45764841647e-08
3.55909082834e-08
8.24364333432e-08
5.74560702259e-08
1.95619976414e-08
5.63609707735e-08
3.10362984273e-08
5.00130408043e-09
9.99260088317e-09
4.64636570351e-08
1.48585861665e-08
2.75243480459e-08
3.2694041508e-08
4.52984753812e-08
1.9503167431e-08
1.69482935137e-08
2.9719874477e-08
2.35658266264e-08
1.14133380655e-08
3.18525352433e-08
1.4986115482e-08
2.34971685855e-09
7.2387894582e-09
7.49155654058e-08
1.44066948499e-08
1.94237860117e-08
1.33946245568e-08
5.25237685432e-09
1.22009531105e-07
1.75138221254e-08
1.10655447698e-08
3.35753751545e-09
8.24311446835e-08
1.11650640425e-08
1.80578373348e-08
1.34210066927e-09
1.3920683126e-08
5.62536003408e-08
7.16065382475e-08
7.14343555444e-08
3.08824634379e-08
1.73703646097e-08
4.86401426089e-08
9.2554355941e-09
7.9077981743e-09
5.22081844812e-08
8.73865028416e-10
3.78709230638e-08
3.73260662649e-08
5.01301833286e-08
1.02866403073e-08
1.09971375043e-08
2.58067728899e-08
2.18233739556e-08
2.51564483201e-08
3.20854221083e-08
3.53108444242e-08
2.47961309674e-08
8.81868797181e-08
4.32471924313e-08
6.87278140089e-08
4.48023100264e-08
8.5052766106e-08
3.74113260314e-08
2.18177330609e-08
9.56382772315e-09
1.84554906284e-08
1.41706137695e-08
1.65422086288e-08
3.6615605876e-09
5.18348165693e-08
5.74196542674e-08
3.14830611329e-08
9.49913049413e-09
1.03329768059e-08
4.10818714791e-09
2.53348768988e-09
5.40229194011e-09
2.52138277284e-08
5.26833916417e-08
3.63194500782e-09
1.15994655601e-08
7.96408701871e-09
1.28294455652e-08
2.41498023271e-08
1.4318173417e-08
5.72279253375e-08
4.49116080042e-08
7.45687048984e-09
2.25988854253e-08
1.46651960298e-08
5.49382185324e-08
3.82008261495e-08
3.92398064901e-08
2.02322170843e-08
6.28359125509e-09
1.97778112055e-08
4.89119294595e-09
5.16982574872e-08
1.76213712177e-09
7.25389824123e-08
3.40803144171e-08
3.41776988387e-08
6.12710842818e-08
8.81934216228e-08
1.97768290737e-08
6.4297721352e-08
9.0481634197e-10
5.50283446868e-09
5.86536114058e-09
4.54071022176e-08
1.40945052085e-08
1.36584280976e-08
3.20198364846e-08
4.00263414913e-08
3.02646246522e-08
3.49483139065e-08
4.52040138691e-09
9.83624296892e-09
7.77823790687e-08
7.61910716497e-08
2.51880928565e-10
7.23573296888e-08
9.43205110111e-09
3.37423005859e-08
4.10646138379e-08
4.64726932608e-08
6.64429814417e-08
3.31199753974e-08
1.01705916594e-09
5.04113451567e-08
2.46644560572e-08
3.00660000444e-08
5.16187271285e-09
2.27913274665e-08
4.95793767155e-09
2.3298611419e-08
1.45762328903e-08
5.48937268161e-09
2.18502554067e-09
2.78851285227e-08
4.47101894951e-09
3.89458303748e-08
4.21369107115e-08
2.93142693217e-08
4.36866644909e-08
6.11735551932e-08
4.7520405264e-08
2.6225878387e-08
2.39911468414e-08
3.31973244997e-08
2.41248613231e-08
4.30268091977e-08
4.41946691902e-08
1.04366804223e-08
1.58618651926e-08
3.7815709594e-09
1.21511422256e-08
1.94979872294e-08
9.05815471429e-08
4.7117213675e-08
8.83196639508e-09
3.07610206229e-08
2.11887559912e-08
5.47119540823e-08
5.60234074016e-09
3.15379313648e-10
8.8765193132e-09
1.75103373866e-08
6.49551202618e-09
8.50971097465e-09
4.29147354266e-08
5.30859286135e-08
5.36950939123e-08
1.39752748186e-08
3.04046901323e-08
4.72429638579e-08
1.09413913898e-08
9.99148116007e-09
5.63154399851e-09
1.45762701345e-08
4.56837899105e-08
1.2264380804e-08
6.70915880991e-08
3.56604521398e-10
1.40438772371e-07
3.18271011174e-08
3.51989407294e-09
3.06506083368e-08
2.48380236512e-08
2.09106603534e-08
3.44427066447e-08
1.46048786526e-08
3.11315180104e-08
7.68891972806e-10
2.35345540166e-08
1.33012013459e-08
9.83476585268e-09
2.61861945055e-08
5.90236675351e-09
8.32682308322e-10
1.48835327395e-08
1.19951539991e-08
6.79712736342e-10
2.8758558227e-09
5.61139788919e-08
4.26498748841e-08
1.16541046195e-08
2.89745444602e-08
4.42414753172e-08
1.35129963227e-08
2.16568439325e-08
5.5389366499e-09
2.01620185478e-08
7.09379972191e-10
7.783281473e-09
1.72223711824e-08
6.35079896005e-09
2.17536296732e-08
5.11281746165e-08
3.97659232327e-08
2.11939777476e-08
2.83214861723e-08
3.20888114998e-08
1.24880540379e-09
3.78307093272e-09
2.23663732004e-08
2.13835728999e-08
1.31030644836e-08
2.10435753074e-08
2.62698435645e-08
2.52556218542e-08
2.32307678474e-08
5.22670978228e-09
1.38683667442e-08
4.35211991734e-08
5.29242246801e-08
3.10533322369e-09
1.9207995086e-08
3.95579140836e-08
2.44040787783e-09
7.8853331659e-09
7.98576274123e-10
1.78709693961e-08
9.5236536918e-09
1.46378606221e-08
1.29143772253e-08
1.02058087454e-08
1.36207934439e-08
1.29628225256e-08
1.29959734656e-08
1.99757757762e-08
3.5571855156e-08
5.95348227924e-08
5.01896793637e-08
1.95381495742e-08
4.08562212121e-09
3.15683272183e-09
5.10417003481e-08
1.51625103912e-09
5.01034820832e-09
5.17203793101e-08
4.11768861572e-08
2.91577187205e-08
2.98919852719e-08
5.01321878699e-08
1.77337433888e-08
4.44661493467e-09
8.93624706465e-09
3.59588795049e-08
3.79311002231e-09
5.55077841503e-08
3.087517484e-08
3.3519451359e-08
1.39069117368e-08
8.84535326529e-08
1.45796590969e-08
1.92822093596e-08
6.73118273551e-09
1.72731221109e-09
3.20061578368e-08
1.65186740436e-08
1.1010906723e-08
7.91896029317e-09
2.95508320272e-09
2.62548175327e-08
3.09703541328e-08
7.19650032394e-08
2.65660099049e-08
5.67110786675e-08
7.17117538188e-08
2.20659182579e-08
1.3000746024e-09
2.34082299465e-08
3.2276765268e-08
2.07790745844e-08
5.06954766776e-10
6.56116123387e-08
3.4883528494e-08
5.36245913248e-08
9.6697661802e-09
6.30382204825e-08
4.15790435373e-08
3.15378773209e-08
1.40790483075e-09
8.53030865346e-09
4.12792749804e-08
2.08286014299e-08
5.17730392331e-08
7.18396424026e-09
1.90568489924e-08
2.65861365284e-08
3.35790150017e-08
1.6650999443e-08
4.72347422517e-08
2.28621878936e-08
2.38471138055e-09
1.46607736816e-08
4.28032443255e-10
4.96406176461e-08
5.66307284009e-09
8.10402960884e-09
1.6226533364e-09
2.35352831637e-08
1.53684086188e-08
3.45009405932e-08
4.25000889322e-08
2.53117353649e-08
1.01354558168e-08
2.23874938223e-08
2.58592951949e-08
6.83535744621e-09
6.60149729471e-08
8.93088744354e-09
3.39512901878e-08
2.23852947904e-08
4.90204096232e-08
6.06429357682e-09
1.72696156356e-08
1.77299562305e-08
7.68538348879e-08
1.53505317902e-08
2.04789194519e-08
1.14967905146e-08
3.24870373065e-09
7.11524981409e-10
5.01105153938e-08
2.41467982789e-08
1.59816771398e-08
1.44967500089e-08
5.7256847148e-10
3.86139113373e-08
7.87270753687e-09
4.25622025758e-08
1.83276688469e-08
3.1788484033e-08
2.24561200196e-08
4.74661247804e-08
2.15244625497e-08
1.96414126625e-08
7.42060807455e-09
1.00542478332e-08
2.37678833094e-08
6.7624171371e-08
1.3190632177e-08
1.76768758639e-08
1.21671101356e-08
2.00564465357e-08
1.15904021385e-08
2.02438025344e-08
2.46769352022e-09
1.40863232771e-08
5.66683778469e-09
1.79246970453e-08
2.50506439796e-08
5.31985744731e-08
2.67760861709e-08
1.35270251129e-09
5.47220463273e-09
1.42635536256e-08
2.92548699174e-08
2.85554476142e-08
5.10714305166e-09
2.84417361179e-08
4.29836641689e-09
2.68967415757e-08
3.49107872133e-09
4.26033946765e-08
6.22363662224e-08
4.1289988939e-08
5.84735950666e-08
1.45242840284e-09
1.5076142804e-08
1.0476817098e-08
3.46955262869e-08
2.27285524452e-08
1.55626096476e-08
1.26113781632e-08
1.41200550266e-08
2.44769129799e-08
1.05877265964e-08
8.45543994495e-09
5.88507101868e-09
4.73200728013e-09
3.15818026079e-08
1.76446276787e-08
2.29272539137e-08
1.90561712916e-08
1.69697040174e-08
6.07658958351e-09
3.22501819456e-08
1.43273556045e-08
1.82234849166e-08
1.34170401889e-08
9.37706768354e-10
6.91082610557e-08
4.37244031652e-09
2.3608625736e-08
5.1500297632e-08
3.03263729056e-08
4.12316490879e-09
2.2089774607e-08
2.02498679089e-08
4.01724751161e-08
2.42008226309e-08
5.07875847886e-08
7.71290669371e-09
7.0005658984e-09
1.56126773409e-08
1.48614868522e-08
3.85941771938e-08
1.36592204455e-08
8.93397941161e-08
4.53842039447e-09
1.90333505155e-08
1.0112306162e-08
3.2979297938e-08
2.62744745656e-08
3.84689981674e-08
7.96869437806e-08
4.04938980357e-08
1.48653664408e-09
3.19433909062e-08
1.86558631556e-08
5.55699395469e-08
1.90751266374e-08
6.71533322164e-08
2.81856227239e-08
3.90645393059e-09
1.35359595122e-08
8.34126492209e-09
2.99891794884e-08
1.57724369274e-08
1.2226141695e-08
2.77901416899e-08
2.44356402238e-08
1.59441438123e-08
1.41683134173e-08
2.54425421194e-08
3.54830774031e-08
3.22587802776e-08
6.49147390893e-09
1.88938582472e-08
2.36410370789e-08
3.06165736381e-08
4.82075077635e-08
2.14492805441e-08
3.62099265324e-08
1.41911242663e-08
3.18176042026e-08
3.88555964096e-08
4.53354797003e-08
3.7875129926e-08
1.28537614543e-08
2.09172471552e-08
1.25133926062e-08
3.25224036503e-08
4.53373257986e-08
4.98185565986e-08
8.11603010154e-09
3.12185947299e-09
2.19022924344e-08
2.69638908642e-09
1.96442932292e-08
6.38512078329e-09
3.27351518339e-08
2.18522764364e-08
1.26786739246e-08
1.76663736034e-08
3.5265911586e-08
1.54389774931e-08
1.44843064653e-08
1.82500281002e-08
1.28137445721e-09
9.44110567963e-09
2.53936893848e-09
3.21572120935e-09
3.87023104959e-08
1.56102866109e-08
2.64746380273e-08
2.55640964947e-08
3.23863060127e-08
1.68355188959e-08
3.88315011393e-08
3.5590254391e-08
3.24431088443e-08
1.08579587368e-08
9.52316819967e-09
2.4760814853e-08
5.04158457687e-08
9.6009134586e-09
1.88318761405e-08
1.47836169844e-08
2.11930948622e-09
2.56420217146e-08
1.51272462837e-08
2.99942705748e-08
2.35681588451e-08
4.4499685812e-08
4.39893772428e-08
8.91846394442e-09
7.74725301242e-09
8.19315943137e-10
1.80574323168e-08
1.64364179655e-09
3.45197497967e-08
2.66690563885e-08
8.52977382012e-08
8.36803451278e-09
3.0428157317e-08
7.70669833346e-09
2.88000655134e-08
3.71697008269e-08
3.73532878727e-09
3.8928148193e-09
1.06635067113e-08
8.50882255925e-09
2.97719287199e-09
1.67720932213e-08
4.61469701551e-08
1.20086817813e-08
3.021400581e-08
1.54807641847e-08
3.17820672339e-08
5.8306769176e-09
2.39890203072e-08
3.7068597877e-08
7.57646981124e-09
1.39346890599e-08
3.60534011076e-08
1.40457975021e-09
2.53743235718e-08
1.18711590039e-08
2.26809737774e-08
2.95438526376e-08
2.30438142994e-08
1.38345336763e-08
2.10048780135e-08
6.1412343064e-08
2.12054730222e-08
4.93487842266e-09
1.66276326859e-09
1.58963382429e-08
1.44808715614e-08
6.0912672554e-08
2.05535826466e-08
1.71196417786e-08
9.19228198364e-09
1.89203433339e-08
3.03668134655e-08
4.43621257534e-08
2.54155662768e-08
6.97875712355e-09
1.20187373244e-08
3.77623586496e-08
1.06492505955e-08
1.21491444547e-08
3.31053314944e-09
3.38509429613e-08
2.99406402728e-08
7.62443107579e-09
4.56004157045e-09
2.25001836745e-08
9.55970285087e-09
1.59127795694e-08
1.13737194137e-08
2.59789013467e-08
3.62241210089e-08
1.69297252488e-08
3.04192218673e-08
1.47448853601e-08
1.73215359236e-08
7.51163089575e-09
3.03240006987e-08
3.09054915114e-08
5.41511675158e-09
4.10600595054e-09
2.30943590253e-08
4.48931107134e-08
2.41179389229e-08
3.60199960342e-08
3.88546752591e-09
1.19063843095e-08
1.83944777087e-08
3.86397883902e-08
6.35246924726e-08
4.04744201577e-08
1.17001239339e-08
1.20751476216e-08
2.46441764388e-08
1.94177230528e-08
7.81277232426e-11
2.32638799526e-08
3.28610332416e-08
8.84526480336e-09
1.45086371784e-08
2.30325270264e-08
1.15832371883e-08
1.91804482108e-09
3.97754132068e-08
3.38361119696e-11
2.14284620716e-08
2.61320003647e-09
9.53026658802e-09
2.41584926507e-08
2.18816414671e-08
1.18475109207e-08
2.17788056825e-08
1.37836603113e-08
4.3400430106e-08
1.15191940032e-08
7.96789581223e-09
2.69317509997e-08
3.87818113721e-08
4.26377332912e-08
4.77068463937e-08
1.59510975203e-08
1.51107647102e-08
7.01192235109e-09
1.60439118554e-08
1.6902509183e-08
5.32413100048e-08
2.9193255646e-08
1.32160499273e-09
2.4694945307e-09
1.25039640404e-08
8.7445264004e-09
2.71040400096e-08
1.01500795559e-08
2.29731878104e-09
2.52169859878e-08
2.51725810097e-08
2.36063111694e-08
8.61332138782e-09
7.06408903577e-09
2.9959964858e-09
2.95718728894e-08
1.38305239351e-08
3.74605311515e-08
4.72630511437e-08
2.43092759544e-08
9.15989592248e-09
4.1456610743e-08
5.54223779637e-08
1.50822116494e-08
9.51442527111e-09
1.73092609769e-08
4.05976829292e-08
3.58077284535e-09
1.55787154366e-08
1.16917189619e-08
2.90962807261e-08
4.54983440464e-08
3.13460104889e-08
8.26707996569e-09
6.19037996407e-09
3.39977435346e-08
2.24950455818e-08
1.29379297315e-08
5.8930959013e-09
1.16260566108e-08
1.86094567992e-08
1.48493537465e-08
1.38730678094e-08
1.091622653e-08
3.6546979884e-08
6.59856240775e-08
1.63311204145e-08
5.39910941058e-08
2.14706667507e-09
4.19731940242e-09
1.36440632253e-08
1.80893345254e-08
3.37094329462e-08
8.27251790434e-08
3.40890377545e-09
2.67821759872e-08
6.40728956676e-09
3.87209585043e-08
1.19516945458e-09
1.13780252032e-08
2.25832751119e-09
2.05979019063e-08
6.87190187795e-08
8.71536295913e-09
1.07856906367e-08
5.58770536604e-08
6.53064982483e-08
2.9479274623e-08
3.0067794649e-09
1.63671117533e-08
2.23751814432e-08
4.07963539276e-09
4.19216465024e-08
6.68614215577e-09
2.05476550155e-08
3.62082687696e-08
2.02932219723e-08
5.50232955924e-10
4.52707363062e-08
9.1181984054e-09
1.42381542785e-08
8.68180698605e-09
2.13245640315e-08
9.78081105185e-09
4.08046215038e-09
2.06634352002e-09
4.96724192666e-09
2.75649954186e-08
1.55597600994e-08
7.44796764025e-08
9.66473458416e-09
5.45792503655e-08
1.3093352981e-08
1.08647274985e-09
7.20966803136e-09
1.57151748014e-08
1.15513656309e-08
2.45340131071e-08
2.9066347819e-09
3.90734351096e-08
4.65402834532e-08
1.41374489476e-08
2.3409684927e-08
2.03916930335e-08
1.54348581703e-08
4.79130512365e-09
1.23831252528e-09
7.74078042423e-09
1.54840494985e-08
1.61042486795e-08
2.07913440322e-08
9.33421602879e-09
2.07159233912e-08
1.46357810043e-08
3.55955745042e-09
7.93461503934e-09
6.43839857748e-08
2.74371610629e-08
2.59722703053e-08
1.18551721665e-08
1.2425969739e-08
1.20184506117e-08
1.98718347048e-08
3.63722571663e-09
7.4167873404e-09
1.37379420958e-08
1.22489886229e-08
2.07971029738e-08
1.71715306674e-10
6.15234710118e-10
2.70114431052e-08
1.79105332777e-09
2.81304125674e-08
3.04088567491e-08
2.97189492335e-08
1.57607622011e-08
7.73356460055e-09
1.242922585e-08
2.90842006658e-08
2.34695462451e-08
6.92038783236e-09
3.72346248383e-08
6.87564195828e-08
2.24753595781e-08
7.08112289711e-09
2.41071454881e-08
3.14789962817e-09
2.18440845275e-08
4.27848632239e-08
2.96636027423e-08
4.27449527231e-08
1.14044194442e-09
5.81675704343e-08
3.28637025223e-08
4.22286191085e-08
3.64754378319e-08
2.71146005231e-08
2.12595852161e-08
1.59585744001e-08
5.08777294371e-09
2.54683384858e-08
4.20142936399e-08
5.07342578234e-08
8.36510226866e-10
4.79505299754e-08
1.79829134698e-08
1.12839314408e-08
1.24968189527e-08
3.65282584266e-08
6.28481590904e-08
6.05517842875e-08
2.94314095419e-08
3.3638611626e-08
1.0899090117e-08
3.57943421759e-09
1.58979368489e-08
2.92507354195e-08
7.08812097509e-08
1.91452998146e-08
2.10770435732e-08
7.01667013634e-08
1.08537601895e-08
4.97510048163e-08
3.4965960618e-08
3.60291117713e-08
1.51770759968e-09
5.54656119982e-08
2.5186115722e-08
1.91790872942e-08
7.02333400069e-09
7.58619562382e-09
3.66742713453e-09
2.73430995682e-09
2.38511676986e-08
2.0578873288e-08
4.3652294269e-08
4.00200025391e-08
3.89864498731e-09
2.36353290333e-08
3.37187727962e-08
8.98203098607e-09
1.60959110357e-09
8.24873262641e-09
1.75200602981e-08
4.02548062194e-08
1.05388918052e-09
1.80837877841e-08
1.32911724097e-08
1.36787213332e-08
4.25489659285e-09
4.15776225273e-08
2.13696686818e-08
3.3729738945e-08
9.27498782826e-09
1.81447071997e-08
1.85840402838e-08
4.93036643834e-09
2.11593856685e-08
4.6101358363e-08
2.86348021971e-08
5.55533085304e-08
4.60671308128e-09
2.70310917574e-08
1.20598592182e-08
1.044997726e-08
7.91285994124e-09
2.24810017121e-08
9.76320424115e-09
3.81436906164e-09
1.18499739859e-08
2.78413186525e-08
2.88744290695e-08
5.26410232996e-09
1.19204472815e-08
1.16541118213e-08
1.02687019463e-08
1.18249750522e-08
7.19553058796e-09
1.10745358821e-09
2.63398684933e-08
2.39973411773e-08
4.01201212429e-08
3.09836573185e-09
1.77528064007e-08
1.32038247832e-08
3.15892442346e-08
2.55077754485e-08
1.4090624147e-08
2.87577164981e-08
1.59859383846e-08
8.29967456667e-09
2.56489690161e-09
2.24930902097e-08
1.04450240404e-08
1.57736949564e-08
8.91051998731e-09
2.00195705362e-08
1.51783699823e-08
3.89209036851e-08
2.22786364802e-08
9.51895315563e-09
6.06167750255e-09
3.32407320822e-08
2.79429879449e-08
3.01925643971e-08
1.96743822802e-08
3.41602423243e-09
2.65035875766e-08
4.24248425452e-08
1.59692899902e-08
2.93670816719e-08
1.37059787615e-08
4.07227711384e-08
2.04780928447e-09
2.36178285749e-08
1.36546923843e-08
2.43895779701e-08
5.70352657012e-09
1.33558017551e-08
1.19747521106e-08
1.3215112152e-08
1.7390118043e-09
1.51171641673e-08
1.03536935863e-08
9.98806773566e-09
1.23521607898e-08
1.14929294926e-09
1.55347235897e-08
3.9202511108e-08
4.60338494377e-08
6.46360520132e-08
1.04282859692e-08
1.79761082551e-08
1.0323213051e-08
6.41816117051e-09
1.82962289755e-08
8.07255182496e-09
1.62215658977e-08
8.10970308934e-09
7.68041060396e-09
1.34612956011e-08
2.80357300212e-09
2.30138137452e-08
5.86206074131e-09
2.91808498217e-09
1.62550058652e-08
1.80215266444e-08
1.92434935394e-09
3.91104764652e-08
2.40108846327e-08
1.59539940382e-08
3.41276572853e-08
1.3661909571e-08
2.1035875075e-09
1.62569866831e-08
3.74992156995e-08
4.13804682933e-08
6.32958383043e-09
2.58289238441e-09
2.48230530717e-08
2.92112446974e-09
1.77248571423e-08
2.20427939143e-09
1.58493008935e-08
1.4051473278e-08
4.56464732328e-08
5.56470897308e-08
5.64170235588e-09
7.52362881983e-08
1.61919960905e-08
2.57916806623e-08
6.84972299963e-08
5.68673497308e-08
2.8656988824e-09
1.87300249218e-09
2.6049121117e-08
8.65258544179e-09
7.97550440039e-09
9.62282977713e-09
2.43146659051e-08
1.47783849401e-08
1.2049237239e-08
4.40228105481e-09
1.46655832385e-09
5.97213529992e-09
5.06371466748e-09
6.50910269248e-09
7.89588743365e-09
1.27208498879e-08
1.03284181897e-08
1.49817947841e-08
9.95139279725e-09
8.5967303714e-09
4.70247311282e-09
8.60548858491e-09
4.12044152684e-09
1.64477247013e-09
1.53959146453e-08
2.49988062564e-08
1.11913782289e-08
3.12980318443e-08
3.42467978684e-09
2.13020929461e-08
2.73491758086e-08
1.8960893745e-08
2.9103461076e-10
2.85891574248e-08
1.8271496539e-09
3.32397256284e-08
6.66671045947e-09
1.15018800126e-08
1.84116291648e-08
2.07671660613e-09
4.71020395927e-10
2.3248137712e-09
1.9122507105e-08
3.35758463832e-08
7.95137101146e-09
2.84336388287e-08
1.39039586699e-08
2.35199405763e-08
1.92927305079e-08
3.22555000779e-09
2.08644574748e-08
8.0739610065e-09
4.91969745226e-08
1.2054182776e-08
2.88006700324e-08
5.20782108452e-08
1.80380526044e-08
6.09443521e-09
1.67528659729e-08
2.83345140847e-08
1.22274040782e-08
4.35265390527e-08
3.40469468019e-08
5.36254775288e-08
8.74143951179e-10
2.79298723683e-08
2.72882052078e-08
1.23010762345e-08
1.09389511833e-08
4.0327090307e-08
3.97294717117e-08
3.32431061876e-08
1.48573404731e-08
1.82725419942e-08
3.03580092049e-08
4.31213413611e-08
1.87153684454e-08
1.13994111135e-08
3.74656329913e-09
2.50101590125e-08
8.4515943916e-09
4.02202083841e-08
2.41378747677e-08
3.29943265919e-08
1.28827969013e-08
7.11257022337e-10
2.19750635516e-08
7.70688873913e-09
1.95526836322e-08
4.16757589801e-08
1.07112317494e-08
9.41436208017e-09
3.44296750761e-08
2.54616732295e-09
1.28940791788e-08
2.66280491552e-08
1.46828478775e-08
8.54843169566e-09
2.76101958715e-09
5.15418203742e-09
6.6178425447e-09
2.20270597866e-08
2.10357915906e-08
1.35162157047e-08
5.6139508972e-08
8.5134901358e-09
4.91661314975e-10
2.15054662418e-08
1.17338984226e-08
2.09725615325e-08
3.53565499483e-08
2.74177934668e-08
1.31030403574e-08
7.30061139238e-09
1.28572633993e-08
1.00777831568e-08
4.2245978442e-09
2.12733915184e-08
4.11412184893e-08
3.58861785225e-08
2.29476616802e-08
2.38832640666e-08
2.46911432451e-08
1.90586624554e-08
5.51607272429e-09
4.6982013489e-09
1.09200716013e-08
4.49695800893e-08
2.7452726727e-08
1.81198126445e-08
3.3436548337e-08
1.86879395159e-08
2.60726185725e-09
9.61687885554e-09
2.23892573761e-09
2.95747412633e-08
4.65338446721e-08