# vtk DataFile Version 3.0
File Name: Molecule/sphere_cent/sphere_cent_0-s9.vtk
ASCII
DATASET UNSTRUCTURED_GRID
FIELD FieldData 1
TIME 1 1 double
0.0
POINTS 188 double
0.53612267971 -0.84213858843 0.048517357558
0.50828510523 -0.79521501064 0.3304246366
0.26223781705 -0.95140630007 0.16113747656
0.22268423438 -0.96342390776 -0.14295096695
-0.038878843188 -0.99911397696 0.001103754621
0.83515042067 -0.27104824781 -0.47772654891
0.69081711769 -0.57636785507 -0.43536800146
0.58805978298 -0.42253217101 -0.68962979317
0.42481935024 -0.67662119865 -0.60128688812
0.49189212918 -0.79711198807 -0.34723249078
0.27137979865 -0.483913064 -0.83170193434
0.99820196629 0.0048893596977 -0.05179740116
0.95866382122 0.14935328066 0.23623427749
0.95232075453 -0.16192850471 0.25840243697
0.84575158358 -0.034052610397 0.53034633398
0.80115228891 -0.32296618819 0.50373971462
0.50760936737 0.81332725286 0.28116846085
0.6826800108 0.59155625105 0.42892685533
0.83752375841 0.54223430157 0.014354819432
0.42811077833 0.65762776136 0.61876177788
0.58374994993 0.41963538527 0.6944912076
0.30223435163 0.48991131783 0.81768608093
0.79566943645 0.32348948717 0.50865405798
0.82681721449 0.1554942131 0.53547954559
-0.80851787329 -0.31021633744 -0.4998473227
-0.85429871082 0.0013083339436 -0.51980650425
-0.52437371016 -0.00077932153363 -0.85149550438
-0.7962782979 0.31287756562 -0.51606661081
-0.95454108715 -0.15831841528 -0.25239631534
-0.9624504447 0.12431079149 -0.23850621283
-0.99973225594 0.0037538630422 0.022946506739
-0.85798144341 -0.50815087557 -0.05739209801
-0.58358025551 0.43176496029 -0.68770629168
-0.67987126112 0.5940938592 -0.42975711823
-0.43705904484 0.69485521317 -0.56906169653
-0.49766743183 0.81747955084 -0.28977060318
-0.30019599199 0.49004456401 -0.81682294607
-0.2886339128 -0.48102134466 -0.82737195492
-0.58102810383 -0.42979735136 -0.691180408
-0.42511284351 -0.68635165691 -0.59009206295
-0.68124061823 -0.59821110964 -0.42193892598
-0.4883287847 -0.82111740112 -0.29533690214
0.82780277729 0.28779152036 -0.48144826293
0.61526197195 0.42609900236 -0.66171735525
0.69447952509 0.56865882874 -0.43816128373
0.43221893907 0.68208932877 -0.58985811472
0.29909715056 0.51654338837 -0.80070716143
0.026850834489 0.82841807604 -0.55631279945
0.51755589247 0.85557210445 -0.0079056601971
0.24874867499 0.95646518469 -0.14669963717
0.26138406992 0.9541746974 0.1451010704
-0.011460234411 0.9998999238 0.0040045925416
0.013777777553 0.85775440931 0.51374304295
-0.1340148747 0.70098799467 0.70037460327
0.1390580833 0.68363982439 0.71640008688
0.0041180928238 0.50625741482 0.86235642433
-0.29547554255 0.48997661471 0.82003223896
-0.49321120977 -0.81704843044 0.29840618372
-0.4446593821 -0.71458888054 0.53911143541
-0.68567895889 -0.58783721924 0.42922276258
-0.6337339282 -0.40874031186 0.65598160028
-0.81646883488 -0.29583546519 0.49572774768
-0.0090466681868 -0.024635622278 -0.9993391633
-0.15297834575 0.25609916449 -0.95445597172
0.13398894668 0.24220478535 -0.96060079336
0.0070672277361 0.51521724463 -0.85708129406
-0.37054073811 0.72146689892 0.5848505497
-0.24099861085 0.87992084026 0.40923979878
-0.72150689363 0.58668166399 0.36756673455
-0.56182563305 0.65844023228 0.50057178736
-0.48738417029 0.82744431496 0.27816060185
-0.65850019455 0.50336402655 0.55927294493
-0.50454258919 0.56227380037 0.65508931875
-0.58888876438 0.36926540732 0.71884393692
-0.82691282034 0.27808505297 0.48833930492
0.0075506782159 -0.57399314642 0.81879037619
-0.091134369373 -0.40459370613 0.90993529558
-0.29047739506 -0.49275326729 0.81944787502
-0.20701302588 -0.22547189891 0.95197349787
0.095416858792 -0.40582922101 0.90883338451
0.00071096833562 -0.2522701323 0.96754610538
0.21673871577 -0.22878742218 0.94894689322
0.33093643188 -0.50585520267 0.79648202658
0.0027577069122 0.026225347072 0.99953001738
-0.032003454864 0.96302247047 -0.26770567894
-0.26974877715 0.95216238499 -0.1435507983
-0.25344866514 0.88003236055 -0.40176698565
-0.42144063115 0.23983544111 0.87449061871
-0.14404600859 0.27493813634 0.95061552525
-0.27837190032 0.028795491904 0.95994472504
-0.53064602613 -0.015180769376 0.84744375944
0.15025532246 0.27478182316 0.94965916872
0.40739712119 0.25487864017 0.87704950571
0.28931510448 0.021865328774 0.95684921741
0.56954145432 0.03369980678 0.81983244419
0.45879030228 -0.25226247311 0.85186201334
0.68176180124 -0.19440811872 0.70529860258
0.59070724249 -0.44273173809 0.67454093695
0.44774451852 -0.67492026091 0.58651179075
0.67901074886 -0.58340740204 0.44562736154
0.18272665143 -0.71395623684 0.67582124472
0.25885295868 -0.85507768393 0.44894173741
-0.012852552347 -0.84754264355 0.53057396412
0.85206371546 -0.45216563344 0.262663275
0.7117061615 -0.67556041479 0.19178789854
0.85063242912 -0.5250377059 -0.025536729023
-0.6848897934 -0.71572750807 -0.1368484199
-0.70760607719 -0.69027197361 0.15055254102
-0.51031941175 -0.85993909836 0.0068951728754
-0.94901657104 -0.15117619932 0.27655529976
-0.86582946777 -0.43458247185 0.24764317274
-0.96363765001 -0.26500687003 0.03503626585
-0.70416581631 0.12989234924 0.6979894042
-0.42289569974 -0.259637326 0.86773914099
-0.15294979513 -0.69594717026 0.70105707645
0.70983141661 -0.69779157639 -0.091523982584
-0.021092073992 -0.95964688063 0.28010991216
0.96180284023 -0.27026960254 -0.03700415045
-0.0090717747808 0.96267676353 0.27015575767
-0.26423794031 0.95416277647 0.14051803946
-0.50647419691 0.86223489046 -0.0057070935145
-0.69985002279 0.70197075605 0.13160713017
-0.70046907663 0.69833374023 -0.14650896192
-0.85352748632 0.52082550526 -0.012186539359
-0.24627611041 -0.87002235651 -0.42694458365
-0.2802798152 -0.94890195131 -0.14501650631
-0.0443585217 -0.96245902777 -0.26763752103
0.014105644077 -0.84791183472 -0.529912889
-0.27997028828 -0.94826215506 0.14968907833
-0.25764894485 -0.87889480591 0.40123584867
-0.71624392271 -0.13938553631 0.68369096518
-0.86166238785 -0.0091176535934 0.50736641884
-0.87683111429 0.41573506594 0.24130247533
-0.95228296518 0.1399000138 0.27125254273
-0.96311163902 0.26648882031 0.035986170173
-0.8454092741 0.45707693696 -0.27468091249
-0.14171758294 -0.69508737326 -0.70466339588
0.25475332141 0.88188332319 0.39581596851
0.70361441374 -0.13808979094 -0.69686561823
0.86540007591 0.0085639115423 -0.50098973513
0.7168264389 0.13694395125 -0.68371659517
0.52359932661 0.01028128434 -0.85185992718
0.41633138061 -0.24691155553 -0.87490004301
0.26471224427 -0.036064386368 -0.96366864443
0.13375876844 -0.27058082819 -0.95333981514
-0.0065470538102 -0.49836033583 -0.86691963673
-0.14186912775 -0.27088189125 -0.95199549198
0.13805559278 -0.68856269121 -0.71165925264
0.2729960382 -0.84658688307 -0.45564424992
0.45186465979 0.764960289 0.45900028944
0.2413084656 0.79038536549 0.56292539835
-0.89562934637 0.24649353325 -0.36990243196
-0.92779439688 0.33973875642 -0.15362070501
-0.53004443645 -0.56818020344 0.62936854362
-0.3685413897 -0.62005394697 0.69249594212
-0.47133815289 -0.45374232531 0.75617355108
-0.24389077723 -0.78230017424 0.57301217318
-0.57805752754 -0.24299880862 0.77885210514
0.88155817986 -0.3947763741 -0.25910243392
0.95186716318 -0.13320668042 -0.27605825663
0.94898623228 0.14762488008 -0.2786218822
0.96144467592 0.27215090394 -0.041494935751
0.87839990854 0.40860795975 -0.24842309952
0.37076053023 -0.89444208145 -0.24888202548
0.14597986639 -0.92658770084 -0.34621995687
0.53911316395 -0.82648575306 -0.16206537187
0.39588353038 -0.91545850039 -0.071846745908
0.45922780037 0.45698142052 -0.76192265749
0.2473282218 0.37560534477 -0.89319163561
0.57490348816 0.23485313356 -0.78361827135
0.42930993438 0.2715651989 -0.86134052277
0.33995556831 0.14452418685 -0.9290895462
0.63687467575 -0.71389698982 -0.29016831517
0.91602635384 0.072293072939 0.39447635412
0.89367091656 0.24348907173 0.37643277645
0.85795873404 0.4359973073 0.27149969339
0.92611557245 0.35126808286 0.13781544566
-0.36326795816 0.60765361786 -0.70616519451
-0.14909902215 0.68645870686 -0.71158438921
-0.21438452601 0.78293943405 -0.58422017097
0.78742593527 0.57489925623 -0.2229372263
0.69331753254 0.70196676254 -0.16166137159
0.60875558853 0.70204603672 -0.36987707019
0.50004017353 0.80793839693 -0.3107406795
0.27770495415 0.85140872002 -0.44452628493
0.37835592031 0.89285594225 -0.24448239803
0.14743448794 0.92105931044 -0.36081588268
0.78627681732 -0.57248556614 -0.23155976832

CELLS 372 1488
3 0 1 2
3 3 2 4
3 5 6 7
3 6 8 7
3 6 9 8
3 7 8 10
3 11 12 13
3 13 14 15
3 16 17 18
3 19 20 17
3 19 21 20
3 17 20 22
3 22 20 23
3 24 25 26
3 26 25 27
3 24 28 25
3 28 29 25
3 28 30 29
3 31 28 24
3 32 33 34
3 32 27 33
3 34 33 35
3 27 32 26
3 26 32 36
3 37 38 26
3 26 38 24
3 37 39 38
3 39 40 38
3 39 41 40
3 38 40 24
3 24 40 31
3 42 43 44
3 43 45 44
3 45 46 47
3 18 48 16
3 49 50 48
3 49 51 50
3 48 50 16
3 52 53 54
3 53 55 54
3 53 56 55
3 54 55 21
3 57 58 59
3 59 60 61
3 62 63 64
3 63 65 64
3 63 36 65
3 36 63 26
3 26 63 62
3 46 65 47
3 56 53 66
3 66 53 67
3 68 69 70
3 70 69 66
3 68 71 69
3 71 72 69
3 71 73 72
3 69 72 66
3 73 71 74
3 74 71 68
3 66 72 56
3 72 73 56
3 75 76 77
3 77 76 78
3 75 79 76
3 79 80 76
3 79 81 80
3 76 80 78
3 81 79 82
3 82 79 75
3 78 80 83
3 80 81 83
3 19 54 21
3 51 84 85
3 84 86 85
3 84 47 86
3 85 86 35
3 56 87 88
3 87 89 88
3 87 90 89
3 88 89 83
3 21 91 92
3 91 93 92
3 91 83 93
3 92 93 94
3 94 95 96
3 95 97 96
3 95 82 97
3 96 97 15
3 82 98 97
3 98 99 97
3 98 1 99
3 97 99 15
3 82 100 98
3 100 101 98
3 100 102 101
3 98 101 1
3 15 99 103
3 99 104 103
3 99 1 104
3 103 104 105
3 31 106 107
3 106 108 107
3 106 41 108
3 107 108 57
3 61 109 110
3 109 111 110
3 109 30 111
3 110 111 31
3 90 87 112
3 73 87 56
3 83 89 78
3 78 89 113
3 102 100 114
3 75 100 82
3 94 93 95
3 81 93 83
3 82 95 81
3 81 95 93
3 105 104 115
3 0 104 1
3 1 101 2
3 2 101 116
3 15 103 13
3 13 103 117
3 94 96 14
3 14 96 15
3 21 92 20
3 20 92 94
3 31 111 28
3 28 111 30
3 35 86 34
3 41 106 40
3 40 106 31
3 49 84 51
3 83 91 88
3 55 91 21
3 56 88 55
3 55 88 91
3 31 107 110
3 59 107 57
3 61 110 59
3 59 110 107
3 52 118 67
3 118 119 67
3 118 51 119
3 67 119 70
3 70 120 121
3 120 122 121
3 120 35 122
3 121 122 123
3 41 124 125
3 124 126 125
3 124 127 126
3 125 126 4
3 57 128 129
3 128 116 129
3 128 4 116
3 129 116 102
3 90 112 130
3 112 131 130
3 112 74 131
3 130 131 61
3 74 132 133
3 132 134 133
3 132 123 134
3 133 134 30
3 52 67 53
3 66 67 70
3 123 132 121
3 68 132 74
3 70 121 68
3 68 121 132
3 74 112 73
3 73 112 87
3 4 126 3
3 102 116 101
3 2 116 4
3 30 134 29
3 123 122 135
3 33 122 35
3 127 124 136
3 39 124 41
3 51 118 50
3 50 118 137
3 57 129 58
3 60 130 61
3 70 119 120
3 85 119 51
3 35 120 85
3 85 120 119
3 4 128 125
3 108 128 57
3 41 125 108
3 108 125 128
3 74 133 131
3 109 133 30
3 61 131 109
3 109 131 133
3 5 138 139
3 138 140 139
3 138 141 140
3 139 140 42
3 141 142 143
3 142 144 143
3 142 10 144
3 143 144 62
3 10 145 144
3 145 146 144
3 145 37 146
3 144 146 62
3 10 147 145
3 147 136 145
3 147 127 136
3 145 136 37
3 62 146 26
3 146 37 26
3 90 113 89
3 78 113 77
3 77 114 75
3 75 114 100
3 141 138 142
3 7 138 5
3 10 142 7
3 7 142 138
3 127 147 148
3 8 147 10
3 16 149 17
3 149 19 17
3 52 150 137
3 150 149 137
3 150 19 149
3 137 149 16
3 29 151 25
3 25 151 27
3 27 151 135
3 151 152 135
3 151 29 152
3 135 152 123
3 27 135 33
3 33 135 122
3 37 136 39
3 39 136 124
3 42 140 43
3 52 137 118
3 50 137 16
3 58 153 59
3 153 60 59
3 58 154 153
3 154 155 153
3 154 77 155
3 153 155 60
3 77 154 114
3 154 156 114
3 154 58 156
3 114 156 102
3 60 155 157
3 155 113 157
3 155 77 113
3 157 113 90
3 64 143 62
3 19 150 54
3 54 150 52
3 123 152 134
3 134 152 29
3 102 156 129
3 129 156 58
3 60 157 130
3 130 157 90
3 105 158 117
3 158 159 117
3 158 5 159
3 117 159 11
3 11 160 161
3 160 162 161
3 160 42 162
3 161 162 18
3 9 163 148
3 163 164 148
3 163 3 164
3 148 164 127
3 9 165 163
3 165 166 163
3 165 0 166
3 163 166 3
3 3 166 2
3 2 166 0
3 5 158 6
3 9 148 8
3 8 148 147
3 105 117 103
3 13 117 11
3 11 161 12
3 44 162 42
3 43 167 45
3 167 46 45
3 46 167 168
3 167 169 170
3 167 43 169
3 170 169 141
3 141 171 170
3 171 168 170
3 171 64 168
3 170 168 167
3 46 168 65
3 65 168 64
3 127 164 126
3 126 164 3
3 11 159 160
3 139 159 5
3 42 160 139
3 139 160 159
3 141 169 140
3 140 169 43
3 64 171 143
3 143 171 141
3 6 172 9
3 9 172 165
3 12 173 13
3 173 14 13
3 12 174 173
3 174 23 173
3 174 22 23
3 173 23 14
3 22 174 175
3 174 176 175
3 174 12 176
3 175 176 18
3 14 23 94
3 94 23 20
3 22 175 17
3 17 175 18
3 36 177 178
3 177 179 178
3 177 34 179
3 178 179 47
3 34 177 32
3 32 177 36
3 18 180 181
3 180 182 181
3 180 44 182
3 181 182 183
3 183 182 45
3 45 182 44
3 47 184 45
3 45 184 183
3 18 181 48
3 48 181 183
3 183 185 48
3 185 49 48
3 47 186 184
3 186 185 184
3 186 49 185
3 184 185 183
3 36 178 65
3 65 178 47
3 47 179 86
3 86 179 34
3 49 186 84
3 84 186 47
3 165 115 0
3 0 115 104
3 105 115 187
3 115 172 187
3 115 165 172
3 187 172 6
3 105 187 158
3 158 187 6
3 18 176 161
3 161 176 12
3 44 180 162
3 162 180 18

CELL_TYPES 372
5
5
5
5
5
5
5
5
5
5
5
5
5
5
5
5
5
5
5
5
5
5
5
5
5
5
5
5
5
5
5
5
5
5
5
5
5
5
5
5
5
5
5
5
5
5
5
5
5
5
5
5
5
5
5
5
5
5
5
5
5
5
5
5
5
5
5
5
5
5
5
5
5
5
5
5
5
5
5
5
5
5
5
5
5
5
5
5
5
5
5
5
5
5
5
5
5
5
5
5
5
5
5
5
5
5
5
5
5
5
5
5
5
5
5
5
5
5
5
5
5
5
5
5
5
5
5
5
5
5
5
5
5
5
5
5
5
5
5
5
5
5
5
5
5
5
5
5
5
5
5
5
5
5
5
5
5
5
5
5
5
5
5
5
5
5
5
5
5
5
5
5
5
5
5
5
5
5
5
5
5
5
5
5
5
5
5
5
5
5
5
5
5
5
5
5
5
5
5
5
5
5
5
5
5
5
5
5
5
5
5
5
5
5
5
5
5
5
5
5
5
5
5
5
5
5
5
5
5
5
5
5
5
5
5
5
5
5
5
5
5
5
5
5
5
5
5
5
5
5
5
5
5
5
5
5
5
5
5
5
5
5
5
5
5
5
5
5
5
5
5
5
5
5
5
5
5
5
5
5
5
5
5
5
5
5
5
5
5
5
5
5
5
5
5
5
5
5
5
5
5
5
5
5
5
5
5
5
5
5
5
5
5
5
5
5
5
5
5
5
5
5
5
5
5
5
5
5
5
5
5
5
5
5
5
5
5
5
5
5
5
5
5
5
5
5
5
5
5
5
5
5
5
5
5
5
5
5
5
5
5
5
5
5
5
5
5
5
5
5
5
5

CELL_DATA 372
SCALARS cell_data_0 double
LOOKUP_TABLE default
6.97832723776e-07
7.13516136075e-07
8.12915319268e-07
6.48633394895e-07
1.07822212663e-06
8.44794180742e-07
4.68994855671e-07
5.45306382405e-07
4.06119426959e-06
5.20071775738e-07
5.977596476e-07
6.07383014408e-07
9.91733142536e-07
7.33483525827e-07
1.62287342377e-06
2.62489407952e-06
2.27710306529e-07
3.35138602261e-07
2.6001385149e-06
3.45596579719e-07
1.19417032065e-06
1.87270371478e-07
2.08571285576e-07
1.55950421345e-06
1.48470463139e-06
7.51818446426e-07
7.65686197047e-07
7.95252893687e-08
6.65042209544e-07
2.69280896244e-06
2.46986814312e-06
3.48359051504e-07
2.23852154684e-07
2.55061404036e-06
3.39729243106e-06
2.99853545976e-07
2.74252300249e-07
1.78149251314e-06
9.60696450541e-08
4.78394349523e-07
2.60477177649e-07
7.51917813088e-11
3.18085797441e-07
2.36880478317e-07
1.41189883155e-06
6.08990949532e-07
1.71922358013e-06
7.99193104666e-07
1.33223299342e-06
3.04708411087e-06
2.46936972834e-08
7.20550642218e-08
4.6589919923e-07
4.28403080809e-07
6.54042383738e-07
1.07922673921e-07
4.64843516482e-07
5.79323327856e-07
4.57235989222e-07
5.83637050806e-07
3.96425535457e-07
3.57676999144e-07
3.31472870491e-07
2.72881031939e-07
4.30547316756e-07
9.22019744048e-08
5.64628598122e-07
3.01659480131e-07
3.33679915751e-07
2.48111936614e-07
4.39971893517e-07
4.37493957279e-07
5.39668248549e-07
1.14318387671e-07
9.4522697517e-08
3.34668543846e-07
7.21152756169e-08
2.80754755898e-07
5.55351796755e-08
5.75584444116e-07
2.25477255075e-07
1.35449718382e-07
3.01045885764e-07
2.95203344008e-07
8.29638221825e-07
1.00230271563e-06
2.33344329723e-07
1.44135487396e-08
1.41483070376e-07
5.04326218697e-08
3.5925245607e-08
3.05822222829e-07
2.94569884093e-07
3.72257545678e-07
1.1958931124e-07
4.74598934932e-07
8.81608158644e-08
3.43912464186e-07
4.27058563144e-07
9.86879402949e-08
4.30404282243e-08
1.17854224976e-06
4.69037091273e-07
4.65110120378e-08
3.94335699392e-08
2.56005761461e-08
4.48680137187e-07
1.11512337995e-08
1.19877708632e-06
8.34654717792e-07
1.17364012388e-07
9.7060597706e-08
2.00562284632e-07
9.91544537145e-07
1.03344226956e-07
6.03877679351e-07
2.01265604172e-07
1.65983369045e-07
2.18814987006e-07
9.60092625953e-09
2.10892503131e-07
1.88096366481e-07
2.39121847667e-07
5.42020298236e-07
6.73135842757e-07
3.25493038704e-07
3.69336265708e-07
2.74765330085e-07
2.84373004873e-07
4.72376469721e-07
3.48465416844e-07
3.94286991864e-07
4.96152769644e-09
4.77905956773e-07
3.20044602593e-07
1.11764251324e-07
3.81433081229e-07
1.29079395812e-07
1.04856816856e-07
4.47763470283e-07
2.26887259809e-07
2.17014092809e-07
3.27534440232e-07
6.7347423922e-07
5.58930957123e-09
2.69067984933e-07
3.86371136814e-07
5.06720774041e-07
1.26206435311e-07
2.91279187613e-07
6.50431968479e-07
4.68550095627e-07
7.60791544583e-08
1.31970437087e-07
2.03858764337e-07
1.67204958142e-07
1.6911432624e-07
4.00208833097e-07
1.45905262252e-08
1.76958820696e-07
1.80373564273e-07
2.96519075773e-07
8.21495084758e-08
4.21521659705e-07
6.5926017269e-08
9.79299315336e-09
3.35734192646e-07
1.05903651949e-06
2.99148101627e-08
9.73532914152e-07
1.70317842871e-10
1.81419705955e-07
5.14960708576e-08
7.97928654416e-08
6.60932269831e-08
2.84403772735e-07
3.81548257409e-07
1.5755614228e-07
3.24287970135e-07
3.63802454929e-07
2.8769408432e-07
6.4519302914e-07
3.70598708781e-07
2.23474091545e-07
5.99174840331e-07
1.26300362888e-07
2.05967823922e-07
8.90757079189e-08
2.10521942495e-07
1.54636828914e-07
1.94415137504e-07
2.13985818795e-07
1.46676494373e-08
1.05124405336e-07
1.24453602335e-07
1.74474844285e-07
1.79000861518e-07
4.93563466411e-08
1.24676479831e-07
3.99534555177e-07
8.70716386522e-08
4.65314810168e-08
1.92803627095e-07
1.21037673149e-07
4.73662239745e-07
1.88881333022e-07
6.66546427954e-07
7.4991551026e-07
3.22348338919e-07
1.41696609278e-06
1.3553694214e-06
1.76956193649e-07
4.62270822883e-07
6.80509739452e-07
7.09476475038e-07
9.28968450232e-07
9.74392306108e-07
9.89847277273e-07
1.71750195176e-08
1.17872046768e-07
1.21698513364e-07
4.06208880335e-07
1.2931758455e-07
4.87253146008e-07
3.20771675094e-07
4.65445113536e-07
3.51485720442e-07
1.55910385078e-06
2.10521947798e-07
4.89818939238e-07
6.45936299383e-07
3.73791405545e-07
4.91344067611e-07
4.42394879711e-07
1.11948850044e-06
6.77357066912e-07
5.49076813934e-07
1.70043739833e-07
3.84779979425e-07
5.59242640223e-07
6.50766412372e-07
7.36042790082e-07
1.02094351868e-06
6.6094699475e-07
2.76600823055e-07
6.09827314285e-07
1.19459043988e-07
1.88415501172e-07
1.68203378081e-07
2.5015605706e-07
2.63880741323e-07
3.72499024458e-07
3.34858179601e-07
5.45364598178e-08
1.72832607601e-07
4.0389595281e-07
7.8772464048e-08
1.26346535816e-07
2.46338348124e-07
5.46800803308e-07
1.26506875335e-07
6.1001467219e-08
2.67561136521e-07
2.63792312741e-07
1.55628322157e-08
3.07701477522e-08
1.57745387779e-07
1.26715719478e-07
2.05504293714e-07
3.16254856231e-07
7.71302136966e-09
3.76789428835e-07
5.39673690111e-07
2.73905009112e-07
3.44780773631e-07
2.30931299198e-07
3.35937190116e-07
3.4638030547e-07
2.2261373162e-07
3.83268899415e-08
4.55710201453e-07
2.13248758653e-07
3.65122683891e-07
2.27870800595e-07
3.34846460215e-07
2.77593712444e-07
1.61915721599e-07
3.7814381921e-07
4.4227317107e-07
4.32569066331e-07
8.78412602496e-07
2.98421226389e-07
4.90930182792e-07
8.41215942186e-07
5.35433239172e-08
1.73197279733e-06
6.22156981518e-07
2.53588896225e-07
1.75462049567e-07
1.66961485317e-07
3.74307375859e-07
2.27107866292e-08
3.28402674066e-07
1.21084424108e-06
1.75602881768e-06
4.94005133675e-07
5.2609270689e-08
2.13210122792e-07
2.22790620675e-07
6.10492630102e-08
1.2439060642e-07
5.8339227873e-07
1.6968093652e-07
2.70667284679e-07
7.96904477521e-08
1.50158536788e-07
4.16930116634e-07
2.63638125654e-07
5.31284159809e-08
4.46866695749e-07
1.89997121145e-07
2.00800833177e-07
1.06432741484e-06
1.01612656419e-06
5.66822175142e-07
9.3975477157e-07
3.1635180808e-07
1.43120408461e-06
3.1888108772e-07
3.84866336122e-06
4.15106638535e-07
1.39008602341e-06
4.78654594822e-07
1.29962994704e-06
4.4303061814e-07
1.38764252378e-06
1.86322784579e-07
1.40208815616e-06
1.4793250807e-06
8.54747695381e-07
2.60960874213e-07
2.65208394572e-07
3.59974759486e-07
5.83238036563e-07
6.37763104691e-07
2.96100501709e-07
6.19437252512e-07
1.75274909486e-07
5.15595710085e-07
5.82208576653e-07
1.39511017379e-06
8.4867942227e-07
3.02497106082e-07
1.38629287246e-07
8.66037277232e-07
3.80188959636e-08
9.66324157977e-07
6.08871187399e-08
2.48757322447e-07
8.55719647377e-07
1.93104409884e-07
3.10889656065e-07
3.64015333918e-07
3.72303301689e-07
1.63042390829e-07
4.44004241337e-07
1.48146150835e-07
7.80776700068e-08
7.36975154312e-07
1.47458146176e-07
3.45736169919e-07
9.94621219453e-07

