# vtk DataFile Version 3.0
File Name: Molecule/sphere_cent/sphere_cent_0-s12.vtk
ASCII
DATASET UNSTRUCTURED_GRID
FIELD FieldData 1
TIME 1 1 double
0.0
POINTS 271 double
0.54083752632 -0.83846139908 0.06667098403
0.5057477355 -0.79640632868 0.331492275
0.26329651475 -0.95130544901 0.16005802155
0.19775998592 -0.97125095129 -0.13099475205
-0.035466451198 -0.9993211627 0.0046375235543
0.99906438589 0.0030910917558 -0.040326148272
0.96946465969 0.13476060331 0.20327365398
0.9526065588 -0.15974447131 0.25870361924
0.84132611752 -0.062847338617 0.53673183918
0.801638484 -0.32592582703 0.50119692087
0.42879354954 0.64289748669 0.63448250294
0.57605671883 0.43617913127 0.6911662817
0.67487323284 0.57841181755 0.45723879337
0.29998677969 0.48953571916 0.81874620914
0.7885234952 0.35925069451 0.4985332489
-0.96632701159 -0.15262202919 -0.20662783086
-0.99968922138 -0.00074386456981 0.025502111763
-0.96820038557 0.10544037819 -0.22655656934
-0.56823962927 0.46490415931 -0.67669355869
-0.67573410273 0.59580600262 -0.43401637673
-0.45395514369 0.70400613546 -0.54581868649
-0.49805593491 0.81672233343 -0.29132285714
0.82454162836 0.29085800052 -0.48529201746
0.63271564245 0.42426848412 -0.6476238966
0.70546019077 0.54454821348 -0.45282045007
0.44347730279 0.67432361841 -0.5897513628
0.23104569316 0.96470832825 -0.12497369945
0.26414141059 0.95402950048 0.14127004147
0.49566414952 0.8665035367 -0.047131866217
-0.011810357682 0.9999126792 0.003317686962
-0.131743595 0.69336867332 0.70783376694
0.0023234239779 0.50444054604 0.86345046759
0.13763074577 0.68063151836 0.71958088875
-0.29734423757 0.4919513464 0.81822812557
-0.49866336584 -0.81601178646 0.29224139452
-0.44845882058 -0.72565406561 0.52163511515
-0.68643379211 -0.58777737617 0.42808461189
-0.65002936125 -0.39978289604 0.64608925581
-0.82051128149 -0.29716470838 0.48826277256
-0.36243534088 0.72618108988 0.5839599967
-0.72583174706 0.58637803793 0.35923710465
-0.56115674973 0.66224789619 0.49641251564
-0.49026563764 0.82391548157 0.2838562727
-0.66235780716 0.49963703752 0.558160007
-0.50171297789 0.56169146299 0.65781027079
-0.58916079998 0.3617401123 0.72239243984
-0.82349872589 0.28448045254 0.49061331153
0.014838487841 -0.57626086473 0.81698930264
-0.088149093091 -0.40309372544 0.91093426943
-0.27580398321 -0.48724403977 0.82816982269
-0.20551924407 -0.21863150597 0.95380580425
0.10186506063 -0.40588697791 0.90813684464
0.0037957876921 -0.24680991471 0.96897310019
0.22496692836 -0.22362011671 0.9482088685
0.32833305001 -0.50334435701 0.79919695854
0.0043037468567 0.021371450275 0.99968737364
-0.030345363542 0.96700817347 -0.24959465861
-0.27228626609 0.95185786486 -0.14083270729
-0.27093353868 0.87643581629 -0.3957105577
-0.42260199785 0.23506705463 0.87520378828
-0.1442129612 0.27443921566 0.95071673393
-0.27035373449 0.035188421607 0.96182864904
0.14781227708 0.27398452163 0.95030248165
0.40467870235 0.25623446703 0.87783837318
0.2836073339 0.031015180051 0.95796662569
0.4636181891 -0.26129293442 0.84611201286
0.59011727571 -0.44302171469 0.67490959167
0.68303376436 -0.18660727143 0.70605331659
0.44620653987 -0.67580288649 0.58663839102
0.67901813984 -0.58363252878 0.4453048408
0.19342310727 -0.71074312925 0.67587542534
0.25310084224 -0.85823267698 0.44630879164
0.8573794961 -0.44759333134 0.25362071395
0.71389704943 -0.67503356934 0.18606841564
0.85207957029 -0.52308320999 -0.017480749637
-0.85438382626 -0.5172291398 -0.029911916703
-0.68825984001 -0.71217936277 -0.13735213876
-0.71111315489 -0.68725192547 0.14815732837
-0.50994884968 -0.86017340422 0.0069102295674
-0.48307946324 -0.82815682888 -0.28282439709
-0.94894456863 -0.15053795278 0.2771884799
-0.86588168144 -0.43712708354 0.2431434691
-0.96220654249 -0.26984190941 0.032722108066
-0.54609745741 -0.012519563548 0.83671939373
-0.70290976763 0.12789215147 0.69965690374
0.70525527 -0.70474594831 -0.075732499361
-0.015139635652 -0.95934766531 0.28162837029
0.96118986607 -0.2741882503 -0.02598692663
0.56753528118 0.033010933548 0.82206064463
0.71967184544 0.079546421766 0.68940907717
-0.67848348618 -0.61902910471 -0.39405322075
-0.80594044924 -0.51232272387 -0.29133024812
-0.0049403803423 0.96207022667 0.27249377966
-0.26514810324 0.95393246412 0.14038187265
-0.24348379672 0.88301748037 0.40063047409
-0.50684869289 0.86201202869 -0.0051887808368
-0.69275557995 0.7094438076 0.12747550011
-0.70262861252 0.69539928436 -0.15035925806
-0.24601520598 -0.86711859703 -0.43270641565
-0.28155207634 -0.94877415895 -0.14355313778
-0.049721471965 -0.9625313282 -0.2664013505
0.012734237127 -0.86021775007 -0.50736153126
-0.27912029624 -0.9491237998 0.14575815201
-0.2575160265 -0.88255667686 0.39336922765
-0.020819608122 -0.85693395138 0.51339393854
-0.72200918198 -0.13541862369 0.67849445343
-0.86339324713 -0.0063749877736 0.50445795059
-0.88001430035 0.40534457564 0.24579848349
-0.95175015926 0.13825196028 0.2740213275
-0.96441632509 0.26126641035 0.040978491306
-0.85755383968 0.51033806801 -0.03482112661
-0.83717751503 0.46966487169 -0.27964952588
0.25023323298 0.88807350397 0.38532409072
0.82621568441 -0.27931809425 -0.4887522161
0.69899445772 -0.13992077112 -0.70117986202
0.86496949196 0.0056772865355 -0.50172489882
0.72263509035 0.13320814073 -0.67828691006
0.52247267962 0.014323783107 -0.85249644518
0.42245906591 -0.24575582147 -0.87242656946
0.26273581386 -0.046956781298 -0.96361684799
0.13403698802 -0.27250963449 -0.95276224613
0.2691167891 -0.48086407781 -0.83353680372
0.0065276110545 -0.028893658891 -0.99924612045
0.025147132576 -0.51049125195 -0.85843974352
0.16250137985 -0.68339496851 -0.70948338509
-0.41271531582 -0.26434728503 0.87087374926
-0.15047712624 -0.68812018633 0.70888906717
0.59414845705 -0.40071323514 -0.69538831711
0.44677945971 0.76504820585 0.46377646923
0.038613814861 0.85692900419 0.51114493608
0.25087940693 0.78845447302 0.5615234375
0.4747748971 0.82772624493 0.29635599256
-0.89699661732 0.25244429708 -0.36294826865
-0.86178517342 0.048145901412 -0.50312876701
-0.7984470129 0.33053603768 -0.50215405226
-0.9280642271 0.33506125212 -0.16201104224
-0.29181423783 -0.50148963928 -0.81389433146
-0.16224712133 -0.68995690346 -0.70345163345
-0.41896811128 -0.67804735899 -0.60233581066
-0.53484970331 -0.5692961216 0.62430155277
-0.36223307252 -0.62673407793 0.68987941742
-0.47435608506 -0.44534394145 0.75933998823
-0.24761046469 -0.77979981899 0.5749489665
-0.57714337111 -0.2480661571 0.77803122997
0.88385730982 -0.38924130797 -0.25949954987
0.95177793503 -0.13301110268 -0.27644336224
0.94913560152 0.14560583234 -0.27915716171
0.96218669415 0.26813557744 -0.049129594117
0.88201010227 0.3982617259 -0.25222319365
0.84326958656 0.53743588924 0.0081125870347
0.48737931252 -0.79509472847 -0.36036020517
0.35717755556 -0.89740860462 -0.25855723023
0.27400577068 -0.83568769693 -0.47536858916
0.1521461755 -0.92727869749 -0.34199267626
0.53902494907 -0.82647490501 -0.16246648133
0.39223071933 -0.91741156578 -0.066482551396
0.70241475105 -0.56215965748 -0.4342160821
0.41511359811 -0.67676055431 -0.6068199873
0.46209871769 0.44765883684 -0.76559609175
0.30140763521 0.53955203295 -0.78573280573
0.25956130028 0.37320533395 -0.89063584805
0.57728981972 0.2461822778 -0.77851963043
0.42996039987 0.27059811354 -0.86131036282
0.32444685698 0.14658944309 -0.93435877562
0.14453914762 0.24128678441 -0.95934915543
0.081979110837 0.10485976189 -0.99082994461
0.64828300476 -0.70980614424 -0.27554860711
0.91761165857 0.066054672003 0.39182856679
0.89615994692 0.25255191326 0.36476191878
0.8293390274 0.15867206454 0.53572624922
0.8529971838 0.43539378047 0.28753477335
0.92815673351 0.34329307079 0.14430437982
-0.30356833339 0.49014553428 -0.81703168154
-0.35708677769 0.61649107933 -0.70168823004
-0.15453417599 0.67425322533 -0.72204142809
-0.22842308879 0.77795273066 -0.5854254961
0.023587128147 0.8314511776 -0.55432194471
0.78169572353 0.57752388716 -0.23599481583
0.68115836382 0.71230220795 -0.16905203462
0.6220908165 0.69216567278 -0.36581990123
0.49660462141 0.80852437019 -0.31502008438
0.28239947557 0.83804655075 -0.46583116055
0.19319871068 0.70484745502 -0.68174439669
0.35830238461 0.89829641581 -0.25369971991
0.15668365359 0.92335534096 -0.3509785831
0.78218317032 -0.58084386587 -0.22529678047
0.61351108551 0.71496117115 0.33502104878
0.5328591466 0.83557635546 0.1343986392
0.76971501112 0.59170520306 0.23930993676
0.68898785114 0.70656269789 0.1614086628
0.71544569731 0.27201679349 0.64348644018
-0.80854177475 -0.31099078059 -0.49952247739
-0.8950163126 -0.24364514649 -0.37342867255
-0.84271305799 -0.18037322164 -0.50666612387
-0.91972786188 -0.081348508596 -0.38396808505
-0.63758069277 -0.52509760857 -0.56368035078
-0.55793392658 -0.4456820488 -0.69951409101
-0.75703835487 -0.46361595392 -0.46024096012
-0.72035348415 -0.37372657657 -0.58371567726
0.68186402321 0.73139619827 0.0077313799411
0.14963249862 0.53863990307 -0.82913678885
0.028998596594 0.67892730236 -0.73360192776
0.00068032112904 0.51955354214 -0.85418915749
0.5963613987 0.22619877756 0.77018272877
0.072260335088 0.38167628646 -0.92127519846
-0.52373975515 -0.0013729195343 -0.85187929869
-0.72159987688 0.024480845779 -0.69183176756
-0.68851852417 0.17049506307 -0.70512551069
-0.81496661901 0.18187007308 -0.54940223694
-0.69505405426 0.36634734273 -0.61888438463
-0.56926107407 0.24020540714 -0.78635001183
-0.4244479835 0.26268091798 -0.86665678024
-0.44430223107 0.44505977631 -0.7774657011
-0.4338055253 -0.44757610559 -0.7819159627
-0.24541439116 -0.36992865801 -0.89573937654
-0.55025148392 -0.24640534818 -0.79809325933
-0.42028877139 -0.25995573401 -0.86950016022
-0.10165265948 0.10398876667 -0.98927009106
-0.0097282752395 0.24743497372 -0.96883690357
-0.15522246063 0.25292518735 -0.95492166281
-0.079713970423 0.38445997238 -0.91969764233
-0.24653680623 0.36341616511 -0.89819526672
-0.15411800146 0.49947357178 -0.85249596834
-0.33514231443 0.13889104128 -0.93199378252
-0.26892220974 -0.0084991734475 -0.9632345438
-0.094560161233 -0.13523450494 -0.98620611429
-0.072249978781 -0.39151808619 -0.91729265451
-0.14145319164 -0.27042979002 -0.95226639509
-0.14761292934 -0.50748687983 -0.84810346365
-0.0017865810078 -0.69166588783 -0.72109258175
-0.3290604651 -0.15027089417 -0.93245846033
-0.76147943735 -0.24247720838 -0.60062098503
-0.83109223843 -0.069452159107 -0.55109518766
-0.70826333761 -0.096547439694 -0.69959920645
-0.90821439028 -0.34756049514 -0.22687518597
-0.83992481232 -0.37129589915 -0.39391899109
-0.64232426882 -0.37035521865 -0.67041027546
-0.64438539743 -0.1959810704 -0.73941123486
0.64703816175 -0.50063771009 -0.57497131824
0.56508123875 -0.6277358532 -0.53533369303
0.51244741678 -0.551854074 -0.65791863203
0.59322553873 -0.68972045183 -0.41533872485
0.4647924602 -0.73750704527 -0.49009686708
0.43970420957 -0.45917183161 -0.77181726694
0.35777390003 -0.58480644226 -0.72801196575
-0.46290531754 -0.76476728916 -0.44815573096
-0.55757033825 -0.66605210304 -0.4958820343
-0.58450949192 -0.73116004467 -0.35186371207
-0.055881634355 0.78785479069 0.6131388545
-0.18808120489 0.80390244722 0.56415855885
-0.146308586 0.9306897521 -0.33538985252
-0.011812337674 0.91277110577 -0.4085033536
-0.12269133329 0.87102562189 -0.47583091259
-0.41208893061 0.0061118900776 0.91104656458
0.4317099452 0.023653002456 0.90166813135
0.51583379507 -0.11227142066 0.84926325083
0.083077773452 -0.7913043499 0.60559797287
-0.35415136814 -0.11638982594 0.9278883338
-0.076835222542 -0.77736723423 0.62438809872
0.017296655104 -0.71481412649 0.69905543327
0.38395017385 -0.11430999637 0.916241467
-0.8877979517 -0.43876817822 -0.13558018208
-0.10690708458 0.87614023685 0.46970573068
-0.78786915541 0.61313426495 0.054604426026
-0.87470632792 0.47161206603 0.11082033068
-0.80205154419 0.56714767218 0.1870315522
-0.065462760627 -0.78396457434 -0.61719530821
0.077587217093 -0.77958458662 -0.62143665552
-0.4750097096 -0.1359937042 0.8694422245
-0.84151375294 -0.51359909773 -0.16452610493
-0.8636380434 -0.43944844604 -0.24702355266

CELLS 538 2152
3 0 1 2
3 3 2 4
3 5 6 7
3 7 8 9
3 10 11 12
3 10 13 11
3 12 11 14
3 15 16 17
3 18 19 20
3 20 19 21
3 22 23 24
3 23 25 24
3 26 27 28
3 26 29 27
3 30 31 32
3 30 33 31
3 32 31 13
3 34 35 36
3 36 37 38
3 33 30 39
3 40 41 42
3 42 41 39
3 40 43 41
3 43 44 41
3 43 45 44
3 41 44 39
3 45 43 46
3 46 43 40
3 39 44 33
3 44 45 33
3 47 48 49
3 49 48 50
3 47 51 48
3 51 52 48
3 51 53 52
3 48 52 50
3 53 51 54
3 54 51 47
3 50 52 55
3 52 53 55
3 10 32 13
3 29 56 57
3 57 58 21
3 33 59 60
3 59 61 60
3 60 61 55
3 13 62 63
3 62 64 63
3 62 55 64
3 65 66 67
3 65 54 66
3 67 66 9
3 54 68 66
3 68 69 66
3 68 1 69
3 66 69 9
3 54 70 68
3 70 71 68
3 68 71 1
3 9 69 72
3 69 73 72
3 69 1 73
3 72 73 74
3 75 76 77
3 76 78 77
3 76 79 78
3 77 78 34
3 38 80 81
3 80 82 81
3 80 16 82
3 81 82 75
3 83 59 84
3 45 59 33
3 55 61 50
3 47 70 54
3 53 64 55
3 54 65 53
3 74 73 85
3 0 73 1
3 1 71 2
3 2 71 86
3 9 72 7
3 7 72 87
3 88 67 89
3 8 67 9
3 13 63 11
3 15 82 16
3 21 58 20
3 90 76 91
3 26 56 29
3 55 62 60
3 31 62 13
3 33 60 31
3 31 60 62
3 75 77 81
3 36 77 34
3 38 81 36
3 36 81 77
3 92 93 94
3 92 29 93
3 94 93 42
3 42 95 96
3 95 97 96
3 95 21 97
3 79 98 99
3 98 100 99
3 98 101 100
3 99 100 4
3 34 102 103
3 102 86 103
3 102 4 86
3 103 86 104
3 83 84 105
3 84 106 105
3 84 46 106
3 105 106 38
3 46 107 108
3 107 109 108
3 108 109 16
3 39 94 42
3 40 107 46
3 42 96 40
3 46 84 45
3 45 84 59
3 4 100 3
3 104 86 71
3 2 86 4
3 16 109 17
3 110 97 111
3 19 97 21
3 29 92 27
3 27 92 112
3 34 103 35
3 37 105 38
3 42 93 95
3 57 93 29
3 21 95 57
3 57 95 93
3 4 102 99
3 78 102 34
3 79 99 78
3 78 99 102
3 46 108 106
3 80 108 16
3 38 106 80
3 80 106 108
3 113 114 115
3 114 116 115
3 114 117 116
3 115 116 22
3 117 118 119
3 118 120 119
3 118 121 120
3 119 120 122
3 121 123 120
3 121 124 123
3 50 125 49
3 49 126 47
3 117 114 118
3 127 114 113
3 127 118 114
3 128 10 12
3 129 130 112
3 130 128 112
3 130 10 128
3 112 128 131
3 17 132 133
3 134 132 111
3 132 135 111
3 132 17 135
3 111 135 110
3 134 111 19
3 19 111 97
3 136 137 138
3 138 137 98
3 22 116 23
3 129 112 92
3 27 112 131
3 35 139 36
3 139 37 36
3 35 140 139
3 140 141 139
3 140 49 141
3 139 141 37
3 49 140 126
3 140 142 126
3 140 35 142
3 37 141 143
3 141 125 143
3 141 49 125
3 10 130 32
3 32 130 129
3 110 135 109
3 109 135 17
3 104 142 103
3 103 142 35
3 37 143 105
3 105 143 83
3 74 144 87
3 144 145 87
3 144 113 145
3 87 145 5
3 5 146 147
3 146 148 147
3 146 22 148
3 147 148 149
3 150 151 152
3 151 153 152
3 151 3 153
3 152 153 101
3 150 154 151
3 154 155 151
3 154 0 155
3 151 155 3
3 3 155 2
3 2 155 0
3 113 144 156
3 157 152 124
3 74 87 72
3 7 87 5
3 5 147 6
3 24 148 22
3 23 158 25
3 158 159 25
3 159 158 160
3 158 161 162
3 158 23 161
3 162 161 117
3 117 163 162
3 163 160 162
3 163 164 160
3 162 160 158
3 101 153 100
3 100 153 3
3 5 145 146
3 115 145 113
3 22 146 115
3 115 146 145
3 117 161 116
3 116 161 23
3 164 163 165
3 119 163 117
3 150 166 154
3 6 167 7
3 167 8 7
3 6 168 167
3 168 169 167
3 168 14 169
3 167 169 8
3 14 168 170
3 168 171 170
3 168 6 171
3 170 171 149
3 14 170 12
3 172 173 174
3 173 175 174
3 173 20 175
3 174 175 176
3 20 173 18
3 149 177 178
3 177 179 178
3 177 24 179
3 178 179 180
3 180 179 25
3 25 179 24
3 176 181 182
3 25 181 180
3 28 178 180
3 180 183 28
3 183 26 28
3 176 184 181
3 184 183 181
3 184 26 183
3 181 183 180
3 58 175 20
3 26 184 56
3 154 85 0
3 0 85 73
3 74 85 185
3 85 166 185
3 85 154 166
3 185 166 156
3 74 185 144
3 144 185 156
3 149 171 147
3 147 171 6
3 24 177 148
3 148 177 149
3 131 186 187
3 186 188 189
3 186 12 188
3 189 188 149
3 11 190 14
3 14 190 169
3 191 192 193
3 192 194 193
3 192 15 194
3 133 194 17
3 17 194 15
3 138 195 196
3 195 197 198
3 195 90 197
3 198 197 191
3 159 182 25
3 25 182 181
3 149 199 189
3 199 187 189
3 199 28 187
3 189 187 186
3 131 187 27
3 27 187 28
3 159 200 182
3 200 201 182
3 200 202 201
3 182 201 176
3 88 203 63
3 63 203 11
3 12 186 128
3 128 186 131
3 202 200 204
3 160 200 159
3 169 89 8
3 8 89 67
3 88 89 203
3 89 190 203
3 89 169 190
3 203 190 11
3 149 188 170
3 170 188 12
3 28 199 178
3 178 199 149
3 176 201 174
3 174 201 202
3 205 206 207
3 206 208 207
3 206 133 208
3 207 208 209
3 18 209 19
3 209 134 19
3 134 209 208
3 209 210 207
3 209 18 210
3 207 210 205
3 205 210 211
3 210 212 211
3 210 18 212
3 211 212 172
3 136 213 214
3 213 215 216
3 213 196 215
3 216 215 205
3 196 213 138
3 138 213 136
3 122 217 165
3 217 218 165
3 217 219 218
3 165 218 164
3 219 220 218
3 220 204 218
3 220 202 204
3 218 204 164
3 219 221 220
3 221 222 220
3 221 172 222
3 220 222 202
3 172 221 211
3 221 223 211
3 221 219 223
3 211 223 205
3 205 223 224
3 223 217 224
3 223 219 217
3 224 217 225
3 123 226 120
3 226 227 120
3 123 228 226
3 228 214 226
3 228 136 214
3 226 214 227
3 227 225 120
3 120 225 122
3 136 228 137
3 137 228 229
3 122 225 217
3 225 230 224
3 225 227 230
3 224 230 205
3 227 214 230
3 214 216 230
3 216 214 213
3 230 216 205
3 134 208 132
3 132 208 133
3 122 165 119
3 119 165 163
3 164 204 160
3 160 204 200
3 172 212 173
3 173 212 18
3 202 222 174
3 174 222 172
3 193 231 191
3 191 231 198
3 193 232 231
3 232 206 233
3 232 133 206
3 233 206 205
3 133 232 194
3 194 232 193
3 192 234 15
3 15 234 82
3 234 192 235
3 91 235 197
3 196 236 215
3 236 237 215
3 237 236 231
3 215 237 205
3 205 237 233
3 237 231 233
3 198 231 236
3 233 231 232
3 198 236 195
3 195 236 196
3 197 235 191
3 191 235 192
3 90 91 197
3 156 238 113
3 113 238 127
3 156 239 238
3 239 240 238
3 239 157 240
3 238 240 127
3 156 241 239
3 241 242 239
3 241 150 242
3 239 242 157
3 127 240 243
3 240 244 243
3 240 157 244
3 243 244 121
3 138 245 246
3 245 247 246
3 245 79 247
3 246 247 90
3 129 248 32
3 248 30 32
3 30 249 39
3 39 249 94
3 56 250 57
3 250 58 57
3 56 251 250
3 251 252 250
3 251 176 252
3 250 252 58
3 83 253 59
3 59 253 61
3 64 254 63
3 63 254 88
3 88 255 67
3 255 65 67
3 70 256 71
3 256 104 71
3 61 257 50
3 50 257 125
3 104 256 258
3 256 259 258
3 256 70 259
3 258 259 126
3 88 254 255
3 254 260 255
3 254 64 260
3 255 260 65
3 65 260 53
3 53 260 64
3 234 261 82
3 82 261 75
3 90 247 76
3 76 247 79
3 94 262 92
3 92 262 129
3 110 263 97
3 97 263 96
3 107 264 109
3 264 110 109
3 129 262 248
3 262 249 248
3 262 94 249
3 248 249 30
3 110 264 263
3 264 265 263
3 264 107 265
3 263 265 96
3 96 265 40
3 40 265 107
3 137 266 98
3 98 266 101
3 79 245 98
3 98 245 138
3 124 229 123
3 123 229 228
3 124 267 229
3 267 266 229
3 267 101 266
3 229 266 137
3 83 268 253
3 268 257 253
3 268 125 257
3 253 257 61
3 126 259 47
3 47 259 70
3 127 243 118
3 118 243 121
3 101 267 152
3 267 124 152
3 121 244 124
3 124 244 157
3 104 258 142
3 142 258 126
3 125 268 143
3 143 268 83
3 157 242 152
3 152 242 150
3 150 241 166
3 166 241 156
3 58 252 175
3 175 252 176
3 176 251 184
3 184 251 56
3 138 246 195
3 195 246 90
3 75 261 269
3 261 270 269
3 261 234 270
3 269 270 91
3 91 270 235
3 235 270 234
3 75 269 76
3 269 91 76

CELL_TYPES 538
5
5
5
5
5
5
5
5
5
5
5
5
5
5
5
5
5
5
5
5
5
5
5
5
5
5
5
5
5
5
5
5
5
5
5
5
5
5
5
5
5
5
5
5
5
5
5
5
5
5
5
5
5
5
5
5
5
5
5
5
5
5
5
5
5
5
5
5
5
5
5
5
5
5
5
5
5
5
5
5
5
5
5
5
5
5
5
5
5
5
5
5
5
5
5
5
5
5
5
5
5
5
5
5
5
5
5
5
5
5
5
5
5
5
5
5
5
5
5
5
5
5
5
5
5
5
5
5
5
5
5
5
5
5
5
5
5
5
5
5
5
5
5
5
5
5
5
5
5
5
5
5
5
5
5
5
5
5
5
5
5
5
5
5
5
5
5
5
5
5
5
5
5
5
5
5
5
5
5
5
5
5
5
5
5
5
5
5
5
5
5
5
5
5
5
5
5
5
5
5
5
5
5
5
5
5
5
5
5
5
5
5
5
5
5
5
5
5
5
5
5
5
5
5
5
5
5
5
5
5
5
5
5
5
5
5
5
5
5
5
5
5
5
5
5
5
5
5
5
5
5
5
5
5
5
5
5
5
5
5
5
5
5
5
5
5
5
5
5
5
5
5
5
5
5
5
5
5
5
5
5
5
5
5
5
5
5
5
5
5
5
5
5
5
5
5
5
5
5
5
5
5
5
5
5
5
5
5
5
5
5
5
5
5
5
5
5
5
5
5
5
5
5
5
5
5
5
5
5
5
5
5
5
5
5
5
5
5
5
5
5
5
5
5
5
5
5
5
5
5
5
5
5
5
5
5
5
5
5
5
5
5
5
5
5
5
5
5
5
5
5
5
5
5
5
5
5
5
5
5
5
5
5
5
5
5
5
5
5
5
5
5
5
5
5
5
5
5
5
5
5
5
5
5
5
5
5
5
5
5
5
5
5
5
5
5
5
5
5
5
5
5
5
5
5
5
5
5
5
5
5
5
5
5
5
5
5
5
5
5
5
5
5
5
5
5
5
5
5
5
5
5
5
5
5
5
5
5
5
5
5
5
5
5
5
5
5
5
5
5
5
5
5
5
5
5
5
5
5
5
5
5
5
5
5
5
5
5
5
5
5
5
5
5
5
5
5
5
5
5
5
5
5
5
5
5
5
5
5
5
5
5
5
5
5
5
5
5
5
5
5
5
5
5
5
5
5
5
5
5
5
5
5
5
5
5
5
5

CELL_DATA 538
SCALARS cell_data_0 double
LOOKUP_TABLE default
5.94146132376e-07
4.38402373415e-07
6.01073211553e-07
6.79044490187e-07
1.75527058524e-07
3.77443453398e-07
2.86892648848e-07
7.79171625437e-09
2.12560734632e-07
1.01984825577e-07
5.67857192465e-07
4.0611438646e-07
3.97533154331e-07
2.09305664183e-07
6.51055794148e-09
9.51618308345e-08
2.46300650053e-07
1.81840288592e-07
3.30667219778e-07
4.55929426379e-07
2.16424776333e-07
2.17567238507e-07
6.33149139976e-07
2.34016199929e-08
4.31175382596e-07
5.61072054656e-07
3.4229478588e-07
3.5396697081e-07
6.64243771972e-08
4.10805441395e-07
8.03885173788e-08
4.24549044311e-08
3.12032564304e-07
2.95098305077e-08
4.64184770605e-07
3.53830585619e-07
3.16841339435e-07
1.95692158819e-07
1.24354997493e-07
1.9150293888e-07
2.98667502818e-07
6.85147262107e-08
7.66981465544e-08
1.74161188346e-07
4.32789216278e-08
3.03799342238e-07
4.43639720342e-07
1.12378942956e-07
1.70653832022e-07
2.55041013418e-07
3.11400888308e-07
4.46245415915e-08
2.92839249626e-08
7.38895749921e-08
2.08199012334e-07
2.19147470902e-07
2.06713849486e-07
2.51418820098e-07
2.17136897178e-07
2.07592291806e-07
1.0527212223e-07
1.01824442863e-07
1.62688298072e-07
1.58309369223e-07
1.83982769669e-07
1.40229323275e-07
5.68090387853e-08
2.03560527534e-07
1.04007975906e-07
1.78432568433e-07
9.18746186332e-08
9.37457356315e-07
1.54367669836e-07
6.0338377293e-07
6.54643461775e-07
4.66794645048e-07
3.91365642039e-07
1.08617107966e-07
2.62480035061e-07
2.65806770094e-07
1.77474506558e-07
2.81916023543e-07
3.51450546178e-07
2.59214154192e-07
3.81815554608e-07
5.87958907759e-07
6.31639061134e-08
1.29705832703e-07
4.20225971763e-07
1.35274461019e-07
8.75384558817e-08
3.89152610735e-07
1.31053767402e-07
2.29790660547e-08
1.59197556772e-07
1.27174526026e-07
5.40487540857e-08
7.18110180911e-08
3.99382462782e-07
1.77327563729e-07
3.8852214278e-07
3.12960079851e-07
2.99564099367e-07
2.74652339623e-07
2.41265882757e-07
6.07487976723e-08
1.14955683601e-08
8.04989954721e-08
7.21902076647e-08
1.19236732306e-07
2.64282182796e-07
1.5382950556e-07
3.06693531284e-07
4.99797334114e-08
1.80045611416e-07
4.52736065808e-08
2.73843329431e-07
1.09357938421e-07
3.50238546924e-07
5.37556227758e-07
6.24746628896e-07
6.15116588624e-07
2.69439088511e-08
3.0062831565e-08
9.78966432237e-08
3.10600913132e-07
2.45313953801e-08
2.36781358753e-07
3.46924299717e-07
2.1275335758e-07
1.89504965232e-08
2.04495557496e-08
8.34681890845e-08
5.75598799663e-08
2.02283529786e-08
2.89180319224e-07
1.76444468558e-07
7.24117722116e-08
1.24819573223e-07
8.07366268609e-08
1.29903076011e-07
7.62331030042e-08
5.45919169253e-08
4.15662426563e-07
4.31945858227e-08
1.18361084191e-09
2.76485133388e-07
2.50510132927e-07
3.92642913987e-08
2.87093620187e-07
5.30942355204e-08
3.59106649993e-07
2.5590422953e-07
5.90625577528e-07
5.74836257834e-08
2.78628824812e-07
4.77967661667e-07
5.33993346018e-07
2.34835220037e-07
1.46119879306e-07
5.74549016969e-07
6.3395729367e-07
3.02335667002e-07
1.42249758526e-08
3.07518914063e-07
4.39283983474e-08
4.63859301969e-07
4.4561177412e-08
1.92093664931e-08
2.71834157615e-07
3.22294301804e-07
4.08747903192e-07
1.17464259169e-07
1.63826016285e-07
7.53371604028e-07
6.29603616427e-07
3.10686682709e-07
1.78848379668e-07
1.06190029004e-07
9.86399394337e-08
1.63187268301e-07
1.86109431691e-07
2.0552345031e-07
1.80981533941e-07
1.73710196132e-07
1.36271345228e-07
1.42448994254e-07
3.57845950664e-08
1.62842164272e-07
1.51852665139e-07
1.92799572397e-07
2.6550458789e-07
1.83354713466e-07
1.83103976826e-07
2.63972176272e-07
6.92151728181e-08
1.10450430659e-07
1.5202399074e-07
3.49943560476e-08
3.02948868895e-08
3.30630621e-07
3.11722406226e-07
1.550796232e-07
3.40241673931e-07
2.47372984227e-07
6.16614576169e-07
3.84654642279e-08
1.10805443282e-07
8.85150219138e-09
1.1424916458e-07
3.38061540884e-08
1.2251428709e-07
1.37227808068e-07
1.7572585243e-07
3.54904706325e-07
3.90832809298e-08
6.05323615507e-07
1.00246797269e-06
2.60371524444e-07
2.0781914196e-08
1.69234949609e-07
4.76759479271e-07
1.07369817325e-07
8.72518815792e-08
2.42841675047e-09
1.27911632148e-07
3.31481613851e-07
9.36160933472e-08
5.82848493555e-08
2.61569517563e-07
5.71256867136e-08
4.77429512284e-08
7.63626628978e-08
9.61229671551e-08
6.07114478122e-08
4.40450098577e-08
3.60005562475e-07
2.0144412404e-07
1.40664073826e-07
9.13271572774e-10
7.61508448513e-08
1.48420405388e-07
8.90960099909e-08
3.34979990363e-07
7.54943348224e-08
2.95051723795e-07
1.68830646172e-08
1.18015606976e-08
1.42683317226e-07
2.10733171136e-07
6.45347926827e-08
1.22135575233e-07
7.95386300222e-08
8.21013029312e-08
8.64020474668e-08
2.87199642311e-07
9.31753880855e-08
3.23953379614e-07
1.71637945269e-07
7.1675052341e-08
1.26856939097e-07
1.78849023918e-07
5.23940578798e-07
4.63424268967e-09
1.02901259706e-07
3.7898708955e-07
2.16031058189e-07
4.26983609904e-07
2.42688525669e-07
5.08163291906e-08
4.31409606366e-08
4.16584339007e-08
5.09427796542e-08
9.86067051446e-08
1.83994637462e-07
2.5538388777e-07
2.67568388245e-08
2.75424453616e-08
2.19887975558e-07
4.07671378178e-08
1.03403627777e-08
1.28093738044e-07
1.28724980933e-08
1.43959255242e-09
2.72756143793e-07
2.42816432136e-07
6.09958130449e-09
3.08342985533e-07
4.49925180232e-08
2.77735921013e-09
1.77278961014e-07
3.91584388751e-08
1.77708723986e-08
1.15658591324e-07
1.96503877867e-07
2.19837241528e-07
1.21371498128e-07
2.68793909942e-07
2.61286087207e-07
5.98136786284e-07
5.4176160499e-08
3.55972402998e-08
1.360968358e-07
1.8707357224e-07
1.25413039074e-07
1.5944208739e-08
1.7147875632e-07
2.64961017485e-07
3.05068413496e-07
1.00522905792e-07
1.59787605849e-08
1.05262806852e-07
6.06986393905e-08
1.14061157958e-07
4.59854529142e-07
1.24078088846e-07
7.65585621693e-09
5.83855466348e-10
4.20127267071e-07
9.83512271516e-08
2.42965561622e-07
1.55766799e-07
1.47240085954e-07
3.29687874288e-07
1.86705209462e-08
6.81088314994e-09
3.11579004556e-07
1.08310318413e-07
6.17427322191e-08
1.36223735114e-07
1.47399614014e-07
9.2755294432e-08
1.01411888382e-07
1.15291901089e-07
5.72608068738e-08
1.15874931829e-07
4.19585317059e-07
2.87799942365e-07
1.44853696366e-07
2.47269630036e-07
1.09572832204e-07
2.35949580254e-08
7.88555263978e-08
6.22650900314e-08
6.90306527373e-08
1.3523828586e-07
2.83406270397e-07
2.06771530359e-07
1.63136549378e-07
8.99448856004e-08
7.03590850368e-08
2.88164308019e-08
1.37655576006e-07
4.48370118468e-07
2.93181158888e-08
1.11218758143e-07
1.6750830063e-07
6.02972408918e-08
1.08011363322e-07
3.65036952545e-08
1.25639149426e-08
9.2023749461e-08
7.11202041438e-09
3.35748970419e-07
8.47270791645e-08
2.62707971367e-07
8.56118102065e-08
2.81338173762e-07
1.1877164771e-07
4.91537087553e-08
2.43585958488e-08
3.10827443246e-07
4.00973499756e-07
3.17073128936e-09
1.86552039193e-07
4.10879156361e-07
3.84460765296e-08
4.12573156045e-07
1.62342995656e-07
7.76640947889e-08
1.32133194954e-07
4.02034597077e-07
1.70642117099e-07
2.38651450539e-07
7.90111168094e-09
6.43494855384e-08
1.22255592363e-08
1.46994914724e-07
4.78054086371e-09
3.64460652678e-07
2.12346206884e-09
4.08499092079e-07
1.5304975846e-07
5.30248057176e-08
1.32123600723e-07
5.76944771417e-08
2.56937515245e-07
1.71670417294e-07
9.63300555002e-08
1.19050342164e-07
4.20313924532e-08
1.57634612973e-07
1.84416452124e-07
6.56272895393e-08
7.3779395796e-08
6.76669174085e-08
1.02508807854e-07
4.36866337853e-07
5.3330907923e-08
1.99845878213e-07
9.85362731448e-08
2.29714707811e-08
9.05310528695e-08
1.19221899836e-07
6.20335382389e-08
3.19876895081e-07
3.89389635264e-08
7.7881421807e-08
1.9226109224e-07
9.44294043655e-08
3.82803112934e-07
5.61854176003e-08
2.41440874606e-07
3.40356619767e-08
3.75626824061e-09
2.56893590796e-07
2.54528442739e-08
3.34565787585e-07
3.05068267208e-07
1.25767995885e-07
3.96882221568e-09
3.83468960378e-07
1.81833224649e-07
2.96461907847e-07
9.3751846891e-08
2.81570497026e-08
1.81155623643e-07
3.60835334029e-07
6.83868354632e-08
1.31689414066e-07
3.47355206169e-07
2.61115172195e-07
2.0237297658e-07
4.02607941189e-08
2.00538934038e-07
2.10432972531e-07
3.38369995108e-07
2.10145350239e-07
2.67580466439e-07
2.36676246584e-07
8.82053150891e-08
2.9997269182e-07
2.41242612741e-07
3.73438537559e-08
2.19061242686e-07
2.34793126962e-07
2.17714083069e-07
1.43135892799e-07
4.93739099296e-08
1.98186115936e-07
2.63299568908e-07
2.42985984537e-07
1.99488888036e-07
2.65797013525e-07
3.08113774436e-07
2.76034615828e-07
1.04911632686e-07
8.8832573373e-08
1.8243958351e-07
3.20944535519e-07
6.91485641225e-08
9.52331295866e-08
2.49219201411e-07
2.60895798744e-07
2.4863135092e-07
1.16972962431e-07
2.27639783462e-08
3.32623290683e-07
2.83330709418e-08
2.78318709493e-07
1.59642806978e-07
1.84262428257e-07
2.13955616586e-07
1.15974805165e-07
2.81334851513e-07
2.50795963785e-07
2.15188262694e-08
1.9298411968e-07
1.70906949371e-07
2.39276609405e-07
1.93647637253e-07
2.76151024939e-08
3.30927454942e-07
2.69928158794e-07
2.49551037235e-07
1.83015312177e-07
9.13740644271e-08
2.77383679737e-07
6.15242591318e-08
4.60032745129e-07
4.0885195479e-07
6.66896370949e-08
1.60096093771e-07
4.57481170105e-07
1.61899277867e-07
3.54433576615e-07
2.21950729292e-08
4.59615032567e-08
2.11987957667e-07
2.41638085189e-07
3.05786082511e-07
1.20941009613e-07
1.16832569107e-07
1.02063742081e-07
1.95520959152e-07
1.89090260694e-07
1.41691984563e-07
2.54017027496e-07
1.45172417942e-07
1.33332164097e-07
2.64727322233e-07
4.2121477311e-08
2.91409225979e-08
1.95842590533e-07
2.16035045856e-07
1.18079377507e-07
6.91656254675e-08
2.08212007845e-07
9.73389465765e-08
2.51898303489e-08
3.03839143281e-07
1.351751163e-09
3.803438987e-08
1.08878030543e-07
1.60515278154e-08
7.26412898077e-08
1.46027914824e-07
2.63330182022e-07

