# vtk DataFile Version 3.0
File Name: Molecule/sphere_cent/sphere_cent_0-s16.vtk
ASCII
DATASET UNSTRUCTURED_GRID
FIELD FieldData 1
TIME 1 1 double
0.0
POINTS 499 double
-0.97300487757 -0.13725219667 -0.18566441536
-0.99949467182 -0.0052150739357 0.032927166671
-0.97142535448 0.098081886768 -0.21614201367
-0.55872935057 0.49929091334 -0.66171258688
-0.66672939062 0.59902107716 -0.44262444973
-0.46105524898 0.71065157652 -0.53132081032
0.23844584823 0.96382504702 -0.11009051651
0.26630207896 0.95388901234 0.13829311728
0.44029858708 0.89141285419 -0.061008743942
-0.099608659744 0.67999964952 0.72598725557
-0.0048456881195 0.52548736334 0.85007059574
0.14026685059 0.67070567608 0.72799092531
-0.50345152617 -0.81606721878 0.28364190459
-0.45101198554 -0.73249995708 0.50999772549
-0.68274652958 -0.5991165638 0.41689404845
-0.52973634005 0.66905254126 0.52082926035
-0.49754172564 0.57860475779 0.64580911398
-0.37335199118 0.71342992783 0.5928298831
0.01240972057 -0.56148642302 0.82725691795
0.090957984328 -0.43509542942 0.89561468363
-0.079889982939 -0.39926561713 0.91320693493
-0.029659410939 -0.23927412927 0.97048795223
-0.18072389066 -0.23296290636 0.95531529188
0.38445731997 0.6314162612 0.67165082693
0.28748184443 0.51155525446 0.80926907063
0.17848545313 0.2710814178 0.94474869967
0.26364737749 0.048087056726 0.96338105202
0.40475407243 0.22087953985 0.88688248396
0.43907523155 -0.6958899498 0.5672172904
0.53269064426 -0.75731533766 0.37422427535
0.67793339491 -0.58508300781 0.44513621926
0.61254125834 -0.43555313349 0.65785241127
0.7757897377 -0.36943367124 0.51059365273
0.22551643848 -0.72496581078 0.65042990446
0.26062330604 -0.8427631259 0.47017246485
0.84637564421 -0.4497654438 0.28105324507
0.69636511803 -0.68965160847 0.18946550786
-0.84668409824 -0.53184217215 0.016909785569
-0.6916410327 -0.70916199684 -0.13675449789
-0.70954889059 -0.68863731623 0.14932337403
-0.5106215477 -0.85979533195 0.0083632525057
-0.48601615429 -0.83659905195 -0.24855779111
-0.83308142424 -0.28163251281 0.47432437539
-0.94950187206 -0.15077742934 0.27508971095
-0.86519002914 -0.43701821566 0.24566949904
-0.96064656973 -0.27572211623 0.03256585449
-0.4981482923 0.80883806944 -0.3109767437
-0.30565130711 0.86626905203 -0.39491775632
-0.68533623219 -0.61398595572 -0.39153268933
-0.79111403227 -0.5276876092 -0.30904844403
-0.23419009149 -0.87922561169 -0.41389429569
-0.0096652554348 -0.8749704361 -0.48355820775
-0.051003985107 -0.96471560001 -0.2581808269
-0.2703166008 -0.95434468985 -0.11709920317
-0.08277849108 -0.99533778429 0.011112466455
-0.28317797184 -0.94825720787 0.14372850955
-0.26319622993 -0.8840047121 0.38627636433
-0.049208849669 -0.96178126335 0.26820492744
-0.052784964442 -0.87381881475 0.48239380121
-0.74434810877 0.11019649357 0.65779393911
-0.8678137064 -0.011130027473 0.49682280421
-0.72742754221 -0.13427737355 0.67293220758
-0.83715373278 0.2325823009 0.49497747421
-0.90028226376 0.37497636676 0.21977137029
-0.96608823538 0.2550239861 0.040135458112
-0.95186942816 0.13382731378 0.27587834001
0.025495611131 0.95264464617 0.29993197322
0.24801702797 0.89161843061 0.3787560463
0.70090168715 -0.089462459087 -0.70611518621
0.71177411079 0.10239686072 -0.69474607706
0.86449146271 0.0087655847892 -0.50252455473
0.52717137337 0.03068180196 -0.84852403402
0.40140220523 -0.26297402382 -0.87623172998
0.2572529912 -0.46746972203 -0.84564095736
0.13939750195 -0.27549341321 -0.95079010725
0.24796774983 -0.048726066947 -0.96652698517
0.04452977702 -0.044214576483 -0.99785989523
0.055652748793 -0.51593989134 -0.85465300083
0.17012242973 -0.65405416489 -0.73689949512
0.081526957452 0.86535984278 0.4932949543
0.26482480764 0.78394216299 0.56134188175
0.42645648122 0.78699678183 0.44573441148
0.4452509284 0.84530180693 0.29439011216
-0.8968295455 0.25352975726 -0.36250567436
-0.87361443043 0.069971740246 -0.48093816638
-0.80965393782 0.35593625903 -0.46583905816
-0.82398605347 0.47099369764 -0.31143015623
-0.93389964104 0.30989584327 -0.17241102457
-0.53965270519 -0.57063651085 0.61901706457
-0.35857990384 -0.64030432701 0.67853581905
-0.48600101471 -0.43300187588 0.75849491358
-0.64631587267 -0.39186170697 0.65304172039
-0.24869060516 -0.78095656633 0.5729136467
-0.16765619814 -0.69372445345 0.70024383068
-0.57629269361 -0.25056570768 0.77787548304
-0.43146103621 -0.27188077569 0.86014300585
-0.56039261818 -0.053260341287 0.82598847151
0.85464376211 -0.51755696535 -0.024781586602
0.89652007818 -0.3870511353 -0.21506655216
0.96358132362 -0.26304471493 -0.045022059232
0.94969898462 -0.13633859158 -0.28172197938
0.99645233154 -0.0021469830535 -0.080557301641
0.94923782349 0.14289005101 -0.28016391397
0.97436821461 0.22189174592 -0.032646656036
0.48327618837 -0.80563277006 -0.34256255627
0.34715127945 -0.90166532993 -0.25786778331
0.29693108797 -0.84866583347 -0.43649914861
0.15145817399 -0.93003797531 -0.33469173312
0.19864207506 -0.96785062551 -0.15418255329
0.537951231 -0.82754004002 -0.16051706672
0.39921289682 -0.91175764799 -0.088450007141
0.56233495474 -0.82623010874 0.034299883991
0.46313688159 0.43707627058 -0.77076524496
0.31574684381 0.55382323265 -0.76964449883
0.53805923462 0.55364453793 -0.63482296467
0.27175983787 0.37911495566 -0.8844550848
0.57962226868 0.25058349967 -0.77533972263
0.43091592193 0.26542967558 -0.86239629984
0.61764353514 0.4319525063 -0.65618568659
0.31251934171 0.14535272121 -0.93876713514
0.15459759533 0.25173035264 -0.95528370142
0.836779356 -0.21244494617 -0.50227922201
0.84811037779 0.25314337015 -0.46452951431
0.10543263704 0.10481932014 -0.9888484478
0.65048551559 -0.71107649803 -0.26687321067
0.96353489161 0.16273510456 0.21227094531
0.89695972204 0.25766018033 0.35907563567
0.91700291634 0.071297191083 0.39235001802
0.83033442497 0.16125519574 0.53337198496
0.80298167467 0.33765748143 0.49091655016
0.83318454027 -0.032636273652 0.55192512274
0.83578699827 0.44171881676 0.32355558872
0.93755191565 0.31790211797 0.1388194561
-0.29645574093 0.50702941418 -0.80931180716
-0.36140283942 0.61976993084 -0.69654607773
-0.17594380677 0.63309586048 -0.75283110142
-0.261716187 0.77729654312 -0.57112830877
0.78021335602 0.56558001041 -0.26549655199
0.70483267307 0.54177701473 -0.45713582635
0.62855535746 0.68485718966 -0.36853674054
0.48023512959 0.80664849281 -0.34316664934
0.44637054205 0.67465746403 -0.58765280247
0.28686445951 0.82953882217 -0.47918146849
0.34598839283 0.9012644887 -0.26060041785
0.041347652674 0.84260451794 -0.53610134125
0.16314229369 0.91929286718 -0.35639712214
0.70493227243 -0.7060303092 -0.067023903131
0.7843144536 -0.58116859198 -0.21700027585
0.70024049282 -0.57941806316 -0.41711840034
0.60814082623 0.72717165947 0.31807464361
0.53623515368 0.8305401206 0.14979331195
0.76186132431 0.59698587656 0.25132462382
0.68860173225 0.70724481344 0.15991263092
0.68809068203 0.58721512556 0.42603388429
0.82237333059 0.56755661964 0.031614407897
0.71772658825 0.2631315887 0.64474606514
-0.8096832633 -0.31703335047 -0.49378722906
-0.90061384439 -0.23875676095 -0.36303174496
-0.85043978691 -0.18899472058 -0.49096569419
-0.92331975698 -0.075827255845 -0.37634769082
-0.65506148338 -0.53409153223 -0.53428184986
-0.75820720196 -0.46791535616 -0.4539732933
-0.71799039841 -0.39167687297 -0.57537990808
0.24126017094 0.69624066353 -0.67481696606
0.68434399366 0.72797071934 0.008764564991
0.14973956347 0.5443957448 -0.82528871298
-0.0074778161943 0.53386861086 -0.84541082382
0.040217913687 0.65486437082 -0.75417029858
0.080565646291 0.39270582795 -0.91598981619
0.7380772233 0.069351606071 0.67052137852
0.69338941574 -0.16766521335 0.6992188096
0.59363645315 0.24173671007 0.76661640406
0.57948088646 0.42898142338 0.69237667322
-0.52424532175 -0.0019265186274 -0.85156166553
-0.73645251989 0.039837066084 -0.67536664009
-0.68649244308 0.18013134599 -0.70450377464
-0.80052405596 0.20482185483 -0.5630094409
-0.68911719322 0.35212284327 -0.63296377659
-0.5675983429 0.26375946403 -0.779976964
-0.4250895381 0.26122671366 -0.86655330658
-0.43798425794 0.42879337072 -0.79015100002
-0.2698007822 0.35903280973 -0.893463552
-0.2836150825 -0.52176183462 -0.80455839634
-0.42298218608 -0.4150210619 -0.80523484945
-0.26305323839 -0.3703251183 -0.890886724
-0.54400724173 -0.26906847954 -0.79497247934
-0.41584855318 -0.26083981991 -0.8711655736
-0.5396784544 -0.42949724197 -0.72382670641
-0.10362318158 0.084642760456 -0.99097776413
-0.0039810715243 0.24511875212 -0.96948111057
-0.16094048321 0.24709141254 -0.9555311203
-0.083012118936 0.38317403197 -0.91993421316
-0.16001954675 0.4963041544 -0.85322225094
-0.32094338536 0.14903208613 -0.93541270494
-0.26642277837 -0.006574947387 -0.96382594109
-0.11221968383 -0.099902659655 -0.98794931173
-0.066077873111 -0.39911478758 -0.91449183226
-0.13169825077 -0.52915543318 -0.8382267952
-0.15002353489 -0.28098988533 -0.94735306501
-0.17247219384 -0.67186868191 -0.72017776966
-0.0058534252457 -0.66820347309 -0.74375861883
-0.31000784039 -0.16081359982 -0.93715375662
-0.75489854813 -0.23430925608 -0.6125831604
-0.82187157869 -0.070861764252 -0.56524258852
-0.71412020922 -0.097033292055 -0.69333219528
-0.923645854 -0.31191247702 -0.22216896713
-0.84695708752 -0.38130095601 -0.37017065287
-0.6444055438 -0.34106272459 -0.68441671133
-0.64666396379 -0.20070527494 -0.73592269421
-0.60657602549 -0.47687080503 -0.63609069586
0.56156647205 -0.62948852777 -0.53700810671
0.64052045345 -0.51708239317 -0.56765037775
0.51015383005 -0.54945969582 -0.66168683767
0.42802047729 -0.66532677412 -0.61165565252
0.58170235157 -0.42558273673 -0.6925355196
0.58599281311 -0.69667047262 -0.41382730007
0.46342676878 -0.74046361446 -0.48665869236
0.43843990564 -0.45044991374 -0.77771580219
0.35529997945 -0.5813575983 -0.73196488619
-0.42185458541 -0.68595522642 -0.59245187044
-0.45733940601 -0.77383112907 -0.43816640973
-0.56370133162 -0.66907334328 -0.48438870907
-0.58436578512 -0.73458880186 -0.34466582537
-0.15552674234 0.93507379293 -0.31756868958
-0.26298287511 0.9515068531 -0.15718999505
[...]
CELL_DATA 994
SCALARS cell_data_0 double
LOOKUP_TABLE default
1.87586938263e-07
8.01003625966e-07
1.95517229124e-07
4.38858553187e-07
2.692663708e-07
1.19651653065e-07
1.33355345409e-07
1.02104091448e-07
1.63827769433e-07
2.44790239558e-07
1.32242345268e-07
1.94636968773e-07
2.73685416876e-07
2.41660255243e-07
2.98301722164e-07
1.06097753564e-07
5.79458899014e-08
1.37488905505e-07
9.17765433423e-08
2.85435779889e-07
8.32251077852e-08
1.73571159897e-07
1.3303100333e-07
2.21223543003e-08
3.8470373113e-07
3.01209834122e-07
2.93242927876e-07
8.4953922504e-08
5.83357469318e-07
9.17972306806e-08
3.8665140386e-07
3.26362708629e-08
3.0392127046e-08
3.40007857944e-07
6.13235903889e-08
1.12245947566e-07
3.22289168889e-08
1.95684457883e-07
6.37296609346e-08
3.06092873179e-07
5.10735733478e-07
4.04386406137e-07
5.75153496238e-08
5.00815849758e-07
1.16124433638e-07
4.21186659202e-07
1.59192238624e-07
2.3226331256e-07
1.39434156949e-07
8.15485184093e-08
3.35566380162e-07
2.39743403829e-07
2.91899203772e-07
4.96113979769e-07
2.77620172207e-08
3.45685604812e-08
5.26557569655e-11
8.95754631971e-08
1.32015158913e-07
2.17812508375e-07
2.89204214852e-07
2.4233498771e-07
1.96512201692e-07
6.32361629362e-10
1.48508064104e-07
9.57215251513e-08
1.05382239798e-07
1.12491356186e-07
5.16577980912e-08
1.54134165418e-07
7.44283322441e-08
3.92253657367e-07
2.33259737244e-07
1.05880240223e-07
1.49374956233e-08
1.25376027721e-07
6.25607859396e-08
1.20222696147e-07
8.72320745477e-08
2.33880027381e-07
1.25005894661e-07
4.19737536776e-08
1.22611567846e-07
7.38906051533e-08
7.11466195302e-08
6.98379299358e-08
3.3652942897e-08
1.00410367019e-07
3.05115058739e-07
2.70888382602e-08
2.11793747688e-07
2.81395271134e-07
1.25440783329e-07
3.15578211538e-07
1.30432576426e-07
1.90480819546e-07
4.96968051078e-08
6.55378953535e-08
8.03078974262e-08
2.08670180527e-07
2.11962120126e-07
1.11159142016e-07
1.89263491421e-07
1.33234566147e-07
1.16030175041e-07
1.76207936761e-08
1.3879600348e-07
2.52430363021e-08
6.41739850695e-08
8.7100837109e-08
5.43365187594e-09
4.66245957103e-08
1.14345658244e-08
2.50740298627e-08
1.48182169811e-07
1.88928603837e-07
6.78222013306e-07
6.51109123206e-08
1.65108563686e-07
2.75515690996e-07
1.92607510065e-08
6.18030549621e-08
1.12669837927e-07
1.32848112564e-07
3.56431424359e-07
6.84338269357e-08
1.7728258768e-07
3.54263006342e-08
2.35253295315e-07
3.27519904464e-08
2.66599887204e-08
2.632805616e-07
1.31964146814e-07
9.57755888681e-08
2.0614061183e-07
3.81168026685e-08
1.71563400141e-08
7.73157621308e-08
6.33576896526e-08
1.82318910933e-07
1.3704538742e-07
3.32768030043e-08
3.83633858221e-08
9.34258028319e-09
2.86469856193e-07
3.68190771063e-08
1.30583984674e-07
7.03959108595e-08
2.72152813971e-07
1.60649670594e-08
1.38547509737e-07
1.15488274443e-07
1.39288979358e-07
1.45163650545e-07
1.38222099048e-07
1.95142398303e-07
1.27271131528e-08
2.81091834825e-07
1.18599115695e-07
1.93028693433e-07
1.9447615569e-07
1.83844487142e-07
1.1935023358e-07
2.14508171868e-07
2.44240969713e-07
7.84220372513e-08
1.01999659899e-07
2.80651794205e-07
8.44388091875e-08
2.06163998466e-08
7.80543587993e-08
1.25121703997e-07
4.80165980284e-09
1.72236522665e-07
3.27654252975e-08
2.14270547257e-07
1.17146292984e-07
8.93535608245e-08
1.02301794176e-07
2.60005765564e-08
1.57313384146e-09
2.51167869484e-08
1.45437964603e-09
2.83324377961e-08
7.95290890425e-08
1.11290071523e-07
2.30540175207e-08
7.39369577672e-08
4.05119105288e-08
1.43192571923e-08
5.60338518367e-08
5.40194948215e-08
1.77714741302e-07
8.76040135745e-08
4.30538190214e-07
3.16527706297e-07
1.38101162714e-07
4.92972555244e-08
8.43055233418e-08
1.02776821089e-08
6.38449370883e-08
9.58428516121e-08
6.36330719727e-09
7.10153535431e-08
1.88596801457e-07
1.33631884434e-07
4.71819697625e-08
7.16307879423e-08
8.92868756669e-08
1.37029337986e-07
1.99133824245e-07
1.59045142e-07
6.79443081561e-08
1.5574079783e-07
6.89184982685e-08
4.39162859584e-08
1.7470937842e-07
6.66309948559e-08
6.73848013264e-08
5.68301966162e-08
3.57667551683e-10
2.66229552987e-07
1.61033717143e-08
2.81862212784e-08
1.51949058512e-07
9.21179508349e-08
1.24413670232e-07
1.63299655406e-07
6.6412185716e-08
7.88537137606e-08
5.05498137815e-09
1.13058823995e-07
9.93768100866e-08
5.0616740442e-08
2.21640159951e-08
1.1051813641e-07
1.15809952735e-08
1.05050967967e-07
2.90440484669e-08
3.01795319181e-08
3.57817588162e-08
2.61421683682e-07
4.47228513195e-08
7.8491395846e-08
6.66175200312e-08
1.13025458989e-07
1.50619490432e-09
1.19330442085e-08
8.82850059791e-08
7.97985874571e-09
5.43061886832e-08
1.15834867483e-07
7.05415668474e-08
2.38002034786e-07
1.22670861325e-07
7.91323028019e-08
3.83536386543e-08
1.27194497433e-07
2.92983448321e-07
1.36555633578e-07
7.37751815857e-08
4.52434039559e-08
1.82738513079e-07
1.25136889455e-08
2.2179613695e-07
3.30332517687e-07
3.98117012786e-07
2.27120101664e-07
2.51379760471e-07
9.32590306991e-08
9.06343529374e-08
2.51923438951e-09
1.15185560216e-08
1.64724733604e-07
1.13255024228e-08
1.20609623526e-07
1.41961981762e-07
1.27218835075e-07
2.07978660335e-07
7.15118041757e-08
4.10516964647e-08
1.62339973901e-07
9.81916980977e-08
1.44196687779e-07
4.29800480766e-07
1.40614481758e-07
5.83323804961e-07
1.45850208648e-07
1.3560604153e-07
9.38127363894e-08
1.73331996574e-07
2.02860483167e-07
2.25972758378e-08
5.38894575566e-08
9.49601660134e-08
3.05974703673e-08
1.95321933015e-07
5.4263608587e-08
5.81818650942e-08
7.72274971536e-08
6.06193386515e-08
2.86948894283e-08
5.64754335534e-08
8.69191421801e-09
7.99032436927e-08
9.74634165654e-08
2.25340288696e-07
1.43080183665e-07
1.13363216473e-07
1.40956195436e-07
6.08171858493e-08
2.13587411881e-07
1.22832327519e-08
1.09804542982e-07
4.3477506338e-08
9.11983529614e-08
1.32558617493e-08
2.44856993661e-07
1.09806012957e-08
2.39072214634e-08
7.24080199664e-08
6.0403096678e-08
5.35759390325e-08
3.7603159246e-08
4.14523777062e-08
2.28288513347e-08
7.75204843115e-08
2.04044506323e-07
3.23341899199e-08
5.82972097634e-09
5.4844106425e-08
1.70178797131e-08
7.68625390107e-09
1.02971672904e-07
2.72772321093e-07
7.61280579253e-09
1.11533366893e-07
3.53899565444e-08
3.63828280911e-08
7.33516098837e-08
7.53035095366e-09
9.5040166744e-08
1.25259075484e-07
4.6987734244e-08
1.62978138275e-07
2.06960172528e-07
1.69502882303e-09
1.2759959434e-07
6.30857909243e-10
1.39049517479e-08
1.94175830797e-08
7.68833840507e-08
1.2724071258e-07
5.6086123464e-09
3.68478645365e-08
2.13705175221e-08
2.42141554607e-08
6.5491223766e-08
8.50768698991e-08
8.1758669135e-08
3.93300476749e-08
1.10174277201e-07
1.96740272231e-08
1.32051614525e-07
2.50941763897e-07
3.86613016544e-07
2.14595209091e-07
1.30341945574e-08
6.17762536221e-08
8.30375343899e-08
1.18059795762e-08
1.35085136604e-08
7.22721826162e-08
9.66980792036e-08
2.92159231016e-08
4.6939775277e-08
5.53944548881e-08
6.55942276768e-08
2.01087915724e-08
3.13666201161e-08
1.15144632214e-07
8.616949034e-08
7.3583530164e-08
4.75233840125e-09
1.03652327201e-07
6.52888103739e-08
1.58814784627e-07
4.55471100962e-08
5.13779731456e-08
5.55432679885e-08
1.79239161378e-07
9.95658800403e-08
3.89755740552e-08
8.56471697058e-08
4.61577479946e-08
4.57722460743e-08
1.85526705163e-07
6.20105403407e-08
1.39570777249e-07
1.04282366933e-07
1.86846575692e-07
2.5465735097e-07
1.40401822833e-07
6.12001730283e-08
3.40707434222e-08
4.14802217651e-10
9.90007651995e-08
3.0698256077e-07
2.01960563759e-07
1.80362014459e-07
3.05035906303e-08
1.34207028301e-07
3.16380749911e-08
9.31954542146e-08
7.70564193694e-09
2.93950299841e-08
4.72718800802e-08
2.06501116152e-09
6.91134948379e-08
9.55431157061e-08
1.82464991937e-09
1.77404586275e-08
1.80831469892e-08
1.8210296027e-07
1.91014025245e-07
4.75517405284e-08
1.13287376544e-08
3.08851521852e-08
9.89305145615e-09
9.20929894255e-08
5.63894327418e-08
7.21468745264e-08
9.22667695997e-08
5.34301667792e-08
1.01932041361e-07
9.84874813847e-08
2.14560625778e-08
4.56924713762e-08
4.13348867052e-08
9.46328527913e-08
2.61807385924e-07
5.44861575078e-08
1.10100058047e-07
7.49124671808e-08
6.46416294878e-08
1.34622499729e-07
5.96939828719e-08
8.78401852021e-08
3.00581583972e-08
7.14594080365e-08
9.6967773464e-09
8.05535511296e-08
4.01662478164e-09
1.24307403674e-09
6.68315692861e-09
1.04807141955e-07
1.20695430319e-07
1.79129970036e-08
1.96630008666e-07
1.52388985677e-07
9.07779874631e-08
4.44988313239e-08
3.91378432257e-10
6.41491786355e-08
6.06800576479e-08
3.88240545729e-09
6.27028320564e-08
1.37036918527e-07
6.57933990849e-08
9.75482687595e-08
3.97236513081e-08
7.17573466445e-08
1.30968010162e-07
6.62333827118e-08
2.29247370235e-08
1.29246661371e-07
1.63671362519e-07
1.14652105454e-07
4.66395753791e-08
1.61588548567e-07
8.3574751332e-08
2.23227499216e-08
2.40433569452e-08
2.74832054139e-08
4.98379728495e-08
1.55303150615e-07
9.39945470854e-08
3.78207731038e-08
7.01312689691e-08
3.00198525922e-07
1.66654560797e-08
2.18239207904e-08
1.76568911963e-07
2.90558736691e-09
2.0319294276e-07
7.86507104521e-08
8.91160091555e-10
1.32841243536e-07
1.36350862041e-08
3.43570883006e-08
5.28624039707e-08
1.18988148605e-07
9.60833007814e-08
6.19884972303e-08
1.17884563686e-07
2.36931974432e-08
6.127052023e-08
1.10309972785e-08
7.36973800041e-08
1.95984094373e-08
6.33610088979e-08
1.56007685339e-08
1.5473335828e-07
5.22529107176e-08
6.11486401304e-08
9.90782169671e-08
2.68729862573e-07
2.80796655122e-07
3.02374028752e-07
2.96173587311e-08
2.36985812437e-08
2.67208937554e-07
4.33979375288e-08
4.36511308104e-08
1.85455905156e-08
1.25446471738e-07
1.71752987078e-07
2.38543883013e-09
2.46302033514e-08
8.9631839543e-08
6.01731763284e-08
4.64997774132e-08
1.68909135026e-08
9.13882972945e-08
9.56631525454e-08
5.16712517279e-08
1.65501930247e-07
6.61958016826e-08
3.52802543771e-08
9.44772657339e-08
1.09055709131e-07
9.95682576727e-08
2.52192185868e-08
8.8127876914e-08
9.26596800818e-09
7.50109282429e-08
6.67385897882e-08
8.54204776793e-08
9.75473192667e-08
1.63283709103e-07
1.737701093e-08
3.13071358016e-08
1.89338486848e-08
7.86677108821e-08
1.47462145331e-08
4.07586285689e-08
3.71318230332e-08
6.10159422231e-08
1.51943146109e-08
7.00945275692e-08
5.57523113726e-08
3.11622920688e-08
9.02145863637e-08
6.34596820261e-08
9.56071062268e-08
4.53291732898e-08
4.6877551164e-08
4.10217600649e-08
1.33601144752e-07
2.99896445335e-09
1.3890135808e-08
1.88605930729e-08
9.88771559262e-08
2.86821128502e-09
1.5617567721e-07
1.44680491286e-07
7.41542943331e-08
1.17579849457e-07
3.71228307617e-08
7.74766588821e-09
1.87777829573e-09
9.00305973189e-08
1.7458278505e-08
7.42119562246e-08
5.17885753534e-08
1.85112695739e-07
4.26344271386e-09
9.93770175305e-08
2.1868241539e-07
2.56724049219e-07
4.16889224913e-08
2.42899575172e-08
1.08498528385e-07
4.35126565242e-08
1.68996142409e-07
7.79537473848e-08
1.36972415141e-07
2.924767469e-07
1.21345381846e-07
2.52464500348e-08
3.06304535142e-07
7.09018555873e-08
7.29664778998e-08
1.68339742221e-07
1.69532927689e-08
3.35489104811e-09
1.38502522326e-08
4.52411528985e-09
8.61199741644e-08
4.90645519692e-09
8.09107145476e-08
2.89379986968e-08
2.57661005219e-08
8.94416916648e-08
1.2638829893e-07
2.95494335682e-08
7.00549039535e-08
3.34577870223e-08
2.82054875971e-08
2.01199551006e-07
2.07011593005e-08
7.62780978018e-08
3.94712999395e-08
4.07991708802e-08
4.01384050143e-08
1.10174449073e-07
6.48725874298e-08
5.51744459351e-08
2.59844379127e-07
3.60211340812e-08
7.33938264467e-08
1.23502695303e-07
1.23618682263e-08
1.34228619374e-07
2.20225982582e-08
2.93542611945e-08
1.0848310316e-07
3.32182787148e-08
1.64984644912e-07
1.19309542285e-08
6.67021849416e-08
1.03706499726e-07
2.25403225671e-07
2.53266694288e-07
7.91644578611e-08
2.34302106154e-08
1.18056281903e-07
9.53695142986e-08
8.79509155893e-08
6.23312156177e-08
4.34070201918e-08
2.50587930031e-07
1.10520059427e-07
1.14427229663e-08
6.55382621453e-08
4.2207927299e-08
1.2845159609e-07
1.56558517779e-07
2.19562420578e-08
1.67123629033e-07
8.4187888999e-08
6.91213561381e-08
8.32183344347e-08
2.12126373869e-07
1.01049582096e-07
1.49993093011e-08
8.63497516128e-09
7.68119756417e-08
1.58313964003e-07
3.75689953032e-07
6.84339268795e-08
7.50539897855e-08
1.35262100528e-07
3.76103987593e-08
5.3041139438e-08
2.68049615543e-07
1.08747675695e-09
2.02803120864e-07
2.70720774363e-07
4.31336191469e-08
3.10735180779e-09
7.84340564297e-09
9.47863107447e-08
4.00833982666e-08
7.84623379276e-08
1.26996341044e-07
9.46768858436e-08
1.82742949902e-09
1.17413527576e-07
8.51853115251e-08
2.07596849364e-07
2.7210311845e-08
1.92380752965e-08
4.66964884041e-10
2.21266422496e-08
4.99945444483e-08
7.89868655144e-08
5.24516233214e-08
1.55273523832e-08
5.08357083872e-08
1.08682663342e-07
5.72292483927e-08
3.13953238426e-08
7.86264402792e-08
1.18315468958e-09
2.16528645321e-07
1.14461275094e-07
1.09460701889e-09
3.05734307015e-08
7.8295521527e-09
9.42564299734e-09
1.53582647702e-07
2.74322974677e-08
5.5117434408e-08
5.67305604255e-08
4.31047118096e-08
3.48013909084e-08
8.8518568485e-08
2.14064776601e-08
5.81996007685e-08
4.64981594879e-09
9.55387013935e-09
5.08593735127e-11
4.75161238995e-08
3.820726351e-09
5.04487160271e-08
2.93800229051e-08
1.11055202421e-07
9.29526698918e-08
5.60263099732e-08
6.99015965314e-08
6.80122151352e-08
4.47484113961e-08
1.08921819536e-08
1.53187636318e-08
4.99612345209e-08
8.26347630105e-08
6.14022910873e-08
5.436957688e-08
7.29760716615e-08
6.40100440692e-08
1.26564236051e-08
6.29150023796e-10
7.83878019767e-09
1.79255514125e-08
3.45599999401e-08
1.04684939617e-07
6.17014938842e-08
1.58686297891e-07
1.5425076095e-07
1.73491095828e-09
2.6576380192e-08
1.29450298425e-07
6.0644124433e-09
1.28255010737e-07
6.08774933425e-08
1.31693307918e-07
6.42808663434e-08
3.79900307304e-07
3.99491521028e-09
2.56473491989e-07
3.33172432525e-07
2.1565783285e-07
2.49722222705e-07
1.2292305097e-10
2.17418929506e-07
7.16284357917e-08
1.66773528858e-07
2.15609437793e-07
2.97564604804e-07
1.00880150395e-08
3.07461989173e-07
5.18338434753e-08
2.06987956568e-07
5.92856383544e-08
5.46665640707e-09
9.03138631796e-08
1.6547167156e-07
2.27988169797e-07
1.23145847507e-07
2.59363283254e-08
4.84945798087e-08
2.63930725139e-08
1.55735202361e-07
1.21160639553e-07
3.3814400903e-08
1.43740101015e-07
5.36411023357e-08
2.19873273488e-07
1.34053293508e-07
1.90210988996e-08
4.6403182518e-08
1.55531783472e-07
9.95615969604e-08
1.74356351492e-07
3.97633186968e-08
1.69055840428e-07
1.75897584347e-07
1.59721575335e-07
5.31777317094e-08
1.85095088552e-08
2.0387103955e-07
3.05221989868e-07
1.4502981756e-07
2.29945603743e-07
3.27617837446e-08
2.28222627275e-07
1.68790587262e-07
1.51387941387e-07
5.24847972516e-08
1.51899246238e-07
1.64940850399e-07
1.20157898485e-07
9.49215900552e-08
1.3429958137e-07
6.65285544494e-08
8.10512138871e-08
2.54517269517e-07
2.11091301274e-07
6.84753169576e-08
1.23419821502e-07
2.92132441793e-07
1.75908736805e-07
1.12159537555e-07
1.05521937815e-07
3.0890777172e-07
2.06260603671e-08
1.67428741885e-07
4.81333671747e-08
5.54693215424e-08
7.49270208361e-08
8.16656607624e-08
1.44686313746e-08
8.16481925491e-08
1.32437431269e-07
1.38037693888e-07
1.0853051514e-07
2.39993179946e-07
2.89062558965e-07
1.56744060989e-07
9.55459932003e-09
1.41758308661e-07
1.20173161118e-07
1.24706933782e-07
6.63959874931e-08
1.00009372472e-07
6.88063847706e-09
8.48736558542e-08
1.17981442028e-07
6.46996698415e-08
9.28145692409e-08
5.70193756463e-08
1.31308508376e-07
4.56618295552e-08
1.39869501585e-08
5.70186981228e-08
2.36372670128e-07
2.14237023662e-07
1.13489227311e-07
6.24099682398e-08
2.13803550367e-07
3.59595342748e-08
8.93777739157e-08
7.16004198458e-08
5.62441003939e-08
6.48581147836e-09
1.9381556896e-07
2.30423321753e-08
2.46239418453e-08
6.36963671324e-08
2.10639293047e-09
3.25478833435e-07
1.15743699333e-07
9.28548004482e-09
3.57742753028e-08
1.38438632056e-07
4.88325259241e-08
9.64396007596e-08
2.57427782821e-08
2.49356441997e-07
6.26340649048e-08
6.17038936967e-11
2.47249902736e-08
5.89745537109e-09
7.47750252591e-08
1.40657796094e-07
2.03311570187e-08
1.83122005037e-07
9.73333402478e-08
2.09745885568e-07
7.72168526033e-08
8.40825392956e-08
9.01415598653e-08
2.50331112665e-08
7.7607995971e-08
2.84955661946e-08
9.77609542643e-09
1.77201800586e-07
1.74169702948e-07
3.16895783956e-08
3.04723402923e-08
1.16350542362e-07
1.01683802938e-08
7.32600216071e-08
6.33639438867e-09
3.26657272614e-08
1.19242623706e-07
1.90060463114e-08
6.36456204368e-08
1.20306172193e-07
4.5936821465e-08
1.18487514906e-07
1.17622515953e-07
1.01191448139e-07
9.48909489706e-08
5.20418102348e-08
1.44817765087e-08
4.89829116516e-08
3.20512823424e-08
6.47624933793e-08
9.78817580654e-08
1.22075025129e-07
1.2996115106e-07
1.18384105516e-07
3.74708061133e-08
6.74117082063e-08
6.74200938936e-08
1.24534884444e-07
1.73835145771e-07
6.64574103614e-08
2.26891162145e-08
1.07504499909e-07
8.68919708898e-08
1.60384195676e-08
3.72374049177e-08
9.25337885677e-09
1.18617308289e-08
5.53040929381e-08
1.49543934928e-08
5.2782315059e-08
8.69272458458e-08
3.94038343241e-08
1.32473445751e-08
1.0983660654e-07
4.06011053764e-08
4.28904805776e-08
4.15465331105e-08
6.20150092415e-08
6.11547164075e-08
6.64740362115e-08
5.57555143488e-08
1.06821381136e-08
7.56291859343e-08
2.69700458132e-07
1.12279881095e-07
7.52716084376e-08
1.0793539008e-07
7.36525454864e-09
2.83252330414e-08
3.16585632796e-08
6.26844038731e-08
5.56714993429e-08
4.54687997528e-08
1.88290047024e-08
2.6293250344e-09
1.4485917352e-07
2.27517400411e-08
4.81991818258e-08
4.71707039447e-08
3.09733029853e-08
4.38722706969e-08
3.49209444512e-08
1.83020525418e-09
1.06384841083e-08
5.79966239463e-08
8.12207710538e-08
7.16277398335e-08
6.22263412109e-08
8.97807321969e-10
1.45083784797e-08
9.85195956234e-08
2.49451955656e-08
9.85720230588e-09
1.34424243759e-07
9.7066035219e-08
2.50620032816e-08
4.70641264005e-08
6.77439169461e-08
1.72417201529e-07
1.26001816946e-07
1.37915090186e-08
7.08198509634e-09
4.36535227723e-08
2.17294200575e-07

