# vtk DataFile Version 3.0
File Name: Molecule/sphere_cent/sphere_cent_0-s3.vtk
ASCII
DATASET UNSTRUCTURED_GRID
FIELD FieldData 1
TIME 1 1 double
0.0
POINTS 69 double
0.85043340921 -0.52611345053 -0.00032479615766
0.82353240252 -0.28351670504 -0.48863357306
0.99836248159 0.0009129011305 -0.016064736992
0.80869990587 0.30972442031 -0.49999955297
0.52616304159 -0.00064870191272 -0.85034364462
0.85074597597 0.52550810575 0.00037530620466
0.49995613098 0.80895102024 -0.30896562338
0.30899474025 0.49992603064 -0.80895602703
-0.00028668291634 0.8505987525 -0.52581298351
0.49458998442 0.81600224972 0.29521903396
-4.1525909182e-06 0.99993824959 -0.00025841163006
-0.00027551554376 0.85057121515 0.52588605881
-0.48919695616 0.8230946064 0.28280192614
-0.49393445253 0.81589233875 -0.29504194856
-0.85039794445 0.52613037825 0.00017405663675
-0.28144645691 0.48872387409 0.82326883078
0.29526758194 0.49305546284 0.81587773561
0.0005786222755 0.032162174582 0.99753457308
-0.52524977922 0.00047402855125 0.85089945793
0.52532655001 0.00011643129983 0.85089480877
0.33476287127 -0.50845885277 0.79080766439
0.79916381836 -0.32160082459 0.50402319431
0.50983959436 -0.79107010365 0.33325001597
0.0006702519604 -0.85046523809 0.5259513855
0.28241550922 -0.49003773928 -0.82303023338
-0.00035038235364 0.00054504262516 -0.99991977215
-0.29627922177 -0.49352926016 -0.81587821245
0.00050914974418 -0.85052758455 -0.52592647076
-0.52603131533 -6.1339844251e-05 -0.85043770075
-0.85075902939 -0.52548760176 -0.00037791804061
-0.49443840981 -0.8157542944 -0.29477602243
-0.50015115738 -0.8088991046 0.30889254808
-0.030591778457 -0.99830895662 -0.00031972324359
-0.80898052454 -0.3093380332 0.49974343181
-0.33346453309 -0.50863397121 0.79219138622
-0.82274842262 0.28314304352 0.48971873522
-0.9986423254 -0.00037026728387 0.016361007467
-0.29561001062 0.4937414825 -0.81630575657
-0.42572146654 0.68787503242 0.58784747124
-0.68785661459 0.58781528473 0.42580154538
-0.58764380217 0.42574390769 0.68803739548
-0.16196265817 -0.26300647855 0.95109373331
0.00016607757425 -0.52531725168 0.85089629889
0.1620618999 -0.26311835647 0.95103591681
0.49991434813 -0.80887585878 -0.3089633584
0.26185429096 -0.95179206133 -0.16004516184
0.52446937561 -0.85147583485 0.0024122328032
0.26315954328 -0.95100408792 0.16220234334
0.58778697252 -0.42579829693 -0.68789184093
0.68858784437 -0.58594673872 -0.42731761932
0.4258851409 -0.68625873327 -0.58971071243
0.95113235712 -0.16185542941 0.26320505142
0.95134538412 0.16120684147 0.26281803846
0.85125595331 -0.0008534771041 0.52489542961
0.80885982513 0.30894806981 0.49993556738
0.6872599721 0.58849960566 0.4259776175
0.42595791817 0.68781727552 0.58783531189
0.58716911077 0.42638373375 0.68817317486
-0.80887871981 -0.30894348025 -0.49991384149
-0.8514547348 8.9782133728e-08 -0.52456581593
-0.80888831615 0.30896362662 -0.49989578128
-0.95137238503 -0.16116945446 -0.26275989413
-0.95138555765 0.16120494902 -0.26273071766
-0.42592918873 0.68777358532 -0.58787119389
-0.58719611168 0.42638537288 -0.68817895651
-0.68727475405 0.58851999044 -0.42596772313
-0.58727669716 -0.42638301849 -0.68811881542
-0.42594638467 -0.68791985512 -0.58775448799
-0.68724614382 -0.58854675293 -0.42594391108

CELLS 134 536
3 0 1 2
3 1 3 2
3 1 4 3
3 2 3 5
3 5 3 6
3 3 7 6
3 3 4 7
3 6 7 8
3 5 6 9
3 6 10 9
3 6 8 10
3 9 10 11
3 11 10 12
3 10 13 12
3 10 8 13
3 12 13 14
3 11 15 16
3 15 17 16
3 15 18 17
3 16 17 19
3 19 20 21
3 20 22 21
3 20 23 22
3 21 22 0
3 4 24 25
3 24 26 25
3 24 27 26
3 25 26 28
3 29 30 31
3 30 32 31
3 30 27 32
3 31 32 23
3 29 31 33
3 31 34 33
3 31 23 34
3 33 34 18
3 18 35 33
3 35 36 33
3 35 14 36
3 33 36 29
3 4 25 7
3 25 37 7
3 25 28 37
3 7 37 8
3 12 38 11
3 11 38 15
3 12 39 38
3 39 40 38
3 39 35 40
3 38 40 15
3 35 39 14
3 14 39 12
3 15 40 18
3 40 35 18
3 34 41 18
3 18 41 17
3 34 42 41
3 42 43 41
3 42 20 43
3 41 43 17
3 20 42 23
3 23 42 34
3 17 43 19
3 43 20 19
3 44 45 27
3 27 45 32
3 44 46 45
3 46 47 45
3 46 22 47
3 45 47 32
3 22 46 0
3 0 46 44
3 32 47 23
3 47 22 23
3 1 48 4
3 4 48 24
3 1 49 48
3 49 50 48
3 49 44 50
3 48 50 24
3 44 49 0
3 0 49 1
3 24 50 27
3 50 44 27
3 2 51 0
3 0 51 21
3 2 52 51
3 52 53 51
3 52 54 53
3 51 53 21
3 54 52 5
3 5 52 2
3 21 53 19
3 53 54 19
3 9 55 5
3 5 55 54
3 9 56 55
3 56 57 55
3 56 16 57
3 55 57 54
3 16 56 11
3 11 56 9
3 54 57 19
3 57 16 19
3 58 59 28
3 28 59 60
3 58 61 59
3 61 62 59
3 61 36 62
3 59 62 60
3 36 61 29
3 29 61 58
3 60 62 14
3 62 36 14
3 37 63 8
3 8 63 13
3 37 64 63
3 64 65 63
3 64 60 65
3 63 65 13
3 60 64 28
3 28 64 37
3 13 65 14
3 65 60 14
3 26 66 28
3 28 66 58
3 26 67 66
3 67 68 66
3 67 30 68
3 66 68 58
3 30 67 27
3 27 67 26
3 58 68 29
3 68 30 29

CELL_TYPES 134
5
5
5
5
5
5
5
5
5
5
5
5
5
5
5
5
5
5
5
5
5
5
5
5
5
5
5
5
5
5
5
5
5
5
5
5
5
5
5
5
5
5
5
5
5
5
5
5
5
5
5
5
5
5
5
5
5
5
5
5
5
5
5
5
5
5
5
5
5
5
5
5
5
5
5
5
5
5
5
5
5
5
5
5
5
5
5
5
5
5
5
5
5
5
5
5
5
5
5
5
5
5
5
5
5
5
5
5
5
5
5
5
5
5
5
5
5
5
5
5
5
5
5
5
5
5
5
5
5
5
5
5
5
5

CELL_DATA 134
SCALARS cell_data_0 double
LOOKUP_TABLE default
2.98008478809e-06
3.25476824338e-06
1.43660012782e-06
1.41405879588e-06
3.36944950586e-06
5.76292465729e-06
2.63972781744e-06
2.51548467075e-06
7.93472024743e-07
5.11463298751e-06
2.16838340788e-06
1.72725449743e-07
1.39003802886e-07
3.02072948016e-06
1.82131865897e-06
3.04975300559e-06
4.30199820414e-06
9.38962314268e-07
3.83155887981e-06
3.6871054119e-06
3.80168726517e-06
1.59195052787e-06
3.89030261325e-06
3.55849134155e-06
1.40104708431e-06
3.21478200685e-06
3.35020599259e-06
5.24665800713e-07
1.04264519456e-06
3.40985271038e-06
3.08006102086e-06
3.68179577292e-07
2.99470471732e-06
4.27661644451e-06
3.41099906371e-07
4.68396942234e-07
4.40950653031e-07
3.32869878159e-06
3.33272438185e-06
1.26992106074e-06
2.34232763238e-06
4.8346723817e-06
1.58105798071e-07
1.23071080229e-06
1.41027960928e-06
1.61530558797e-06
1.78869644433e-06
4.04579705151e-06
1.84899599453e-06
1.97981117218e-06
2.11150629464e-06
1.80814460992e-06
1.46311511486e-06
1.72912077822e-06
1.63792416063e-06
1.20149232618e-06
2.11408131475e-06
3.94654590276e-06
1.85181069159e-06
1.92333263726e-06
1.54263744978e-06
1.57958750359e-06
1.78560516201e-06
1.8993141417e-06
1.56871808677e-06
2.56405718411e-06
1.61841311572e-06
3.20959773672e-06
2.30244028476e-06
2.24946351181e-06
2.65116511916e-06
1.75019357545e-06
1.22397243816e-06
1.07885051958e-06
7.72965959255e-07
8.43811477033e-07
2.3740267187e-06
3.23380747786e-06
1.54434891285e-06
2.49312856288e-06
1.45485612855e-06
2.76872959305e-06
3.01660605119e-06
1.40595488645e-06
1.459440065e-06
1.40764152143e-06
2.39317604279e-06
3.64592843636e-06
1.7482334321e-06
2.20527946675e-06
1.99253162742e-06
2.72840192392e-06
2.806134613e-06
1.40504012267e-06
2.74433911641e-06
2.11068529044e-06
2.62198429496e-06
3.65776292393e-06
2.1339207054e-06
1.77393349619e-06
1.05085106944e-06
1.45063441814e-06
1.44168348068e-06
3.02641902757e-06
8.6426282514e-07
6.97339949029e-07
2.1561359358e-06
2.55347634827e-06
3.02615370465e-06
2.10230794368e-06
2.24955859316e-06
2.53064419431e-06
2.22183447839e-06
2.37798243358e-06
9.94103808339e-07
1.0288753915e-06
2.54789309053e-06
3.80330398645e-06
1.49391136384e-06
2.52823380903e-06
1.85741400821e-06
2.93295126203e-06
3.0258330805e-06
1.54336829893e-06
2.88268953453e-06
1.85525649853e-06
2.23713381639e-06
3.60866469472e-06
2.39781552027e-06
1.67246065759e-06
1.52769246499e-06
1.32907126747e-06
1.99629516118e-06
2.86648199167e-06

