# vtk DataFile Version 3.0
File Name: Molecule/sphere_cent/sphere_cent_0-s27.vtk
ASCII
DATASET UNSTRUCTURED_GRID
FIELD FieldData 1
TIME 1 1 double
0.0
POINTS 2209 double
-0.065209880471 -0.35386902094 0.93281376362
-0.028576847166 -0.2407336086 0.97015994787
-0.13387160003 -0.26298099756 0.95539033413
0.10763519257 0.5387622118 -0.83553773165
0.0092554353178 0.53578430414 -0.8441901803
0.050053037703 0.61186373234 -0.78934776783
-0.45676735044 -0.37350767851 -0.80727797747
-0.51461535692 -0.42665624619 -0.74364316463
-0.52782660723 -0.32201528549 -0.78592288494
-0.10943819582 0.27163514495 -0.95613962412
-0.057288810611 0.36251610518 -0.93021142483
-0.015913847834 0.26508665085 -0.96409535408
0.53310358524 -0.63730597496 -0.55642712116
0.51829516888 -0.54543840885 -0.65859651566
0.6075258255 -0.54288852215 -0.57936149836
0.44872403145 -0.72701144218 -0.51969558001
0.41704875231 -0.68062627316 -0.60231286287
0.55443388224 -0.44244810939 -0.70454353094
0.44168964028 -0.4796500206 -0.75799065828
-0.039398610592 0.96450817585 -0.26098960638
-0.020238010213 0.93318670988 -0.35874938965
-0.137817204 0.93433630466 -0.32865914702
-0.10814450681 0.89502626657 -0.43264171481
0.44902876019 -0.2691873908 0.85200256109
0.49204576015 -0.15631087124 0.8564208746
0.39008513093 -0.21329559386 0.89575344324
-0.46767300367 -0.12503418326 0.87478965521
-0.35295328498 -0.10267175734 0.93001908064
-0.41703343391 -0.047726359218 0.90753924847
-0.32712101936 0.023603655398 0.94466459751
0.51997697353 -0.85277891159 0.046051479876
0.51177448034 -0.84659868479 0.14579708874
0.46134230494 -0.88110822439 0.10247395933
-0.68243837357 0.54379725456 0.48837611079
-0.60602384806 0.59133768082 0.53194534779
-0.64081501961 0.62830305099 0.4409237802
-0.63950240612 0.50753211975 0.57744586468
-0.10972318053 -0.15651360154 0.98137283325
-0.54059290886 0.10688170046 0.83439254761
-0.56966733932 0.19618681073 0.79753690958
-0.62663197517 0.081726789474 0.77499061823
-0.46704441309 0.19054982066 0.86341762543
-0.83428186178 0.44907444715 0.31970566511
-0.87708038092 0.34425717592 0.33495217562
-0.80637806654 0.43138557673 0.40433958173
-0.90831375122 0.36009043455 0.21291539073
-0.87085026503 0.41937822104 0.25583618879
-0.60796397924 0.76521450281 0.21161654592
-0.69240474701 0.68501639366 0.22515527904
-0.62446379662 0.71800065041 0.30720481277
-0.6748700738 0.72511428595 0.13573892415
0.70718127489 0.36978572607 -0.60258483887
0.68009012938 0.2792353332 -0.67738389969
0.62948232889 0.40124431252 -0.6654035449
0.34608158469 -0.74579846859 -0.5692216754
0.30734121799 -0.69172775745 -0.65334916115
0.23567664623 -0.75765693188 -0.60859698057
-0.53542166948 -0.59199154377 -0.6019667387
-0.59823769331 -0.49978271127 -0.62632507086
-0.51623004675 -0.51816248894 -0.68188399076
-0.57454180717 -0.43811520934 -0.69121366739
-0.25511908531 -0.083260081708 0.96325600147
0.67882436514 0.57667380571 0.45449501276
0.6598020196 0.51838839054 0.54336005449
0.74337047338 0.499022156 0.4446092248
0.6824759841 0.4281796515 0.59230333567
0.73989844322 0.45466434956 0.49554502964
-0.1939509511 0.59641736746 0.77873885632
-0.11096353084 0.66374397278 0.7395644784
-0.23598515987 0.63792735338 0.73242998123
0.053618349135 -0.32799065113 0.94314366579
0.10631178319 -0.41478854418 0.90339773893
0.18073040247 -0.32258921862 0.92912012339
0.10477757454 -0.22566100955 0.96854496002
0.21691346169 -0.20340417325 0.95475512743
0.29328167439 -0.26204025745 0.91939008236
0.2247120589 -0.42753267288 0.87517720461
0.28097519279 -0.3556997776 0.89129734039
0.032075852156 -0.16103318334 0.98641473055
0.16761137545 -0.11981853098 0.97853446007
0.37392666936 0.37735363841 0.84721976519
0.45550575852 0.37382268906 0.80793851614
0.42548415065 0.45676490664 0.78126108646
-0.39698562026 0.7238304019 0.56389635801
-0.35241344571 0.80096900463 0.48390337825
-0.44512453675 0.75577682257 0.48025095463
-0.42395874858 0.80644834042 0.41205129027
-0.51466882229 0.75915449858 0.39820864797
-0.29470598698 -0.27933126688 0.91377866268
-0.32978603244 -0.37594476342 0.86598229408
-0.24233947694 -0.36747199297 0.89753419161
0.56436049938 -0.32827925682 -0.75743532181
0.54921996593 -0.21355810761 -0.80785435438
0.63648158312 -0.25588771701 -0.72759032249
0.81710368395 0.44542601705 -0.36593800783
0.84428310394 0.35407152772 -0.40221473575
0.78481906652 0.42389509082 -0.45196709037
0.592461586 0.60558068752 0.53113806248
-0.49438238144 0.69112944603 0.5269151926
-0.46756178141 -0.59336066246 -0.65505254269
0.52213031054 -0.46892476082 0.7122746706
0.56517738104 -0.5367911458 0.62643790245
0.62655448914 -0.43415421247 0.64723366499
-0.025128675625 0.99347382784 0.11105406284
-0.028728542849 0.99931561947 0.022533327341
-0.11534120888 0.99228394032 0.044748574495
0.78766125441 0.52270835638 0.32608607411
0.83068335056 0.43476301432 0.34711962938
0.82741737366 0.49661979079 0.26206988096
-0.1462444663 0.72416770458 -0.67392545938
-0.14644964039 0.80474835634 -0.57522016764
-0.081894345582 0.77669698 -0.62446045876
0.79439765215 0.58637559414 -0.15842914581
0.75969362259 0.64421308041 -0.08345028013
0.83077687025 0.55345374346 -0.058684110641
0.71406406164 0.66795104742 -0.20947805047
0.77848720551 0.5719588995 -0.25847345591
0.68077629805 0.72433680296 -0.10887464136
0.61814206839 0.75854247808 -0.20600095391
0.60409492254 0.78667080402 -0.12600645423
0.11784427613 0.70853960514 -0.69572973251
0.062770970166 0.75412112474 -0.65371346474
0.1416040659 0.77713131905 -0.61318767071
0.049440152943 0.8221668005 -0.56700181961
0.21053741872 -0.81970584393 -0.53258311749
0.13389100134 -0.80600643158 -0.57654452324
0.2724557519 -0.59588909149 0.75532370806
0.36653786898 -0.5728469491 0.7331199646
0.30277064443 -0.5140209794 0.80225884914
0.83439314365 -0.20441189408 -0.51185166836
0.8542484045 -0.29729044437 -0.42644390464
0.79155027866 -0.3205409348 -0.52028286457
0.81101131439 -0.38471511006 -0.43994927406
0.74488943815 -0.4198397994 -0.51837188005
0.76877391338 -0.23882842064 -0.59317934513
0.71648597717 -0.36870339513 -0.59218990803
-0.3086156249 0.5010189414 0.8083242774
-0.15204796195 0.4969765842 0.85433113575
-0.073362976313 0.58840972185 0.80521094799
0.66270440817 -0.43106797338 -0.61210000515
0.68263047934 -0.32049235702 -0.6566388011
0.71260392666 -0.19153925776 -0.67487156391
0.77042496204 -0.15240865946 -0.61899316311
0.62521529198 -0.36798295379 -0.68818366528
0.58236724138 0.49779984355 -0.64265477657
0.66330951452 0.4688629508 -0.58317106962
-0.67854189873 -0.45077812672 0.57973521948
-0.64653098583 -0.39220112562 0.65434503555
-0.71000897884 -0.37332966924 0.59708607197
0.57588237524 -0.36970829964 0.7291380167
0.66589170694 -0.32604750991 0.67099767923
0.78647065163 -0.57291638851 0.23044742644
0.77549487352 -0.61983853579 0.12003982067
0.83781933784 -0.52914732695 0.13431940973
-0.61637294292 0.7808380723 -0.098090417683
-0.70324844122 0.69831317663 -0.13317108154
-0.67159742117 0.74018335342 -0.030379720032
-0.36964228749 -0.90823161602 -0.19615444541
-0.26593312621 -0.9405452013 -0.20932783186
-0.28269290924 -0.95288228989 -0.10933788866
0.36585187912 -0.039717882872 -0.92976200581
0.33744588494 -0.146620363 -0.92974931002
0.26725387573 -0.049749694765 -0.96228510141
-0.84494251013 0.4859084785 -0.22347718477
-0.89423680305 0.39599943161 -0.20862691104
-0.86365014315 0.48142141104 -0.14942009747
-0.93960976601 0.29748246074 -0.16924205422
-0.90847867727 0.40232214332 -0.11304617673
-0.82037103176 0.44951382279 -0.35328990221
-0.7698135972 0.47783955932 -0.42314487696
-0.81758892536 0.3863337338 -0.42694309354
0.69722139835 0.71592718363 0.027125839144
0.62366980314 0.77647179365 0.090091794729
0.67376482487 0.72274369001 0.15350531042
0.59081226587 0.7792596817 0.20904795825
0.42854419351 0.90265458822 -0.036356095225
0.48826476932 0.8718521595 0.037834465504
0.5209274888 0.85144722462 -0.05788616091
0.56556403637 0.8241199255 0.031031742692
0.53566604853 0.83517676592 0.12460621446
0.43813532591 0.89053225517 0.1223596856
0.39570185542 0.91702723503 0.047810576856
0.57705569267 0.032270420343 0.8160674572
0.54149788618 0.13168121874 0.83030694723
0.48814621568 0.044214703143 0.87163829803
-0.14394208789 -0.30785167217 -0.940284729
-0.061862744391 -0.28031033278 -0.95790565014
-0.082041814923 -0.37182024121 -0.92466312647
-0.11283547431 -0.19341990352 -0.97438788414
-0.010876058601 -0.17550204694 -0.98441243172
-0.099339529872 -0.10023776442 -0.98998844624
0.0097105018795 -0.066596448421 -0.99735927582
0.1310685128 0.78898006678 0.60013097525
0.064807973802 0.73894298077 0.67029255629
0.18358080089 0.72005015612 0.66896682978
0.047952488065 0.95602405071 -0.28912442923
0.43440136313 -0.88678580523 0.15696029365
0.50320190191 -0.81616461277 0.28374364972
0.42939063907 -0.84202629328 0.32642886043
0.45953610539 -0.85847705603 0.22760738432
0.50177490711 -0.78301119804 0.36742031574
0.36252647638 -0.89303952456 0.26623988152
0.55356669426 0.56059998274 0.61530518532
0.47637584805 0.59872949123 0.64379155636
0.49902072549 0.51521188021 0.69678962231
0.41632723808 0.59543722868 0.68692696095
-0.24155314267 0.079201817513 0.96705788374
-0.29977461696 0.15423201025 0.94146203995
-0.12878169119 0.27123904228 0.95384341478
-0.20784954727 0.18512991071 0.9603523612
-0.095261722803 0.20374137163 0.97421222925
0.33756995201 -0.8753066659 0.34512940049
0.41266167164 -0.80758982897 0.42066931725
0.38680392504 0.65989524126 0.64410603046
0.42116186023 -0.90642988682 0.029837243259
0.33587804437 -0.94097268581 0.041801508516
0.35664337873 -0.92856574059 0.10282678157
-0.37217468023 -0.4567092061 0.80790269375
-0.29010894895 -0.48090174794 0.82721960545
0.1757286787 -0.98396110535 -0.026599211618
0.092947863042 -0.99558061361 0.014230230823
0.080743275583 -0.99411118031 -0.072263672948
0.0070532527752 -0.99980044365 -0.018717668951
0.035323631018 -0.99701333046 0.068423815072
0.12598121166 -0.98677867651 0.099752083421
-0.078144259751 -0.99621045589 0.038089964539
-0.094021201134 0.98398637772 -0.15139441192
[...]
CELL_DATA 4414
SCALARS cell_data_0 double
LOOKUP_TABLE default
1.03898468733e-08
2.84598211015e-08
6.34366383664e-08
2.4638064516e-08
6.12008068564e-08
5.77167476657e-09
1.0955105241e-07
4.44516801509e-09
1.09522346569e-09
2.51500043226e-08
1.62279423049e-08
1.86550183287e-09
9.81266670633e-09
6.98970258765e-09
1.09499652628e-08
1.55748526717e-08
5.22730813752e-08
9.57722030713e-09
3.28410870402e-09
7.65777800025e-09
4.28696309272e-08
1.5126557986e-08
5.76973425663e-08
1.29582326051e-08
1.02887463505e-08
8.05398828773e-09
2.98014777064e-09
1.00531522738e-08
3.95907461359e-08
2.7660806077e-08
1.89481455357e-08
2.09314516707e-08
2.74581849181e-08
1.66374840078e-08
1.53063851838e-08
7.8634119477e-09
1.8914322864e-08
2.51283717016e-08
2.10253502375e-09
2.86972682641e-09
1.22441306558e-08
2.8524332055e-09
1.93722774157e-08
2.42206169689e-08
2.58102185177e-09
2.21097291162e-08
3.98176688793e-08
9.60772477852e-09
2.52319905096e-09
3.04428363346e-08
1.0076735916e-08
3.39604899942e-08
7.39794755374e-09
8.44806318915e-09
1.63986286125e-08
1.91632664288e-08
1.12990953737e-08
2.77356516897e-08
1.01559804643e-08
5.90041741244e-09
3.7892645925e-09
4.3517054162e-08
3.96332936048e-08
5.32659541698e-08
1.43747131879e-08
5.59823991233e-09
3.68143213241e-09
6.57838979332e-09
1.84041199978e-09
8.91600619603e-10
1.23376370926e-07
3.20694263105e-08
1.61832739731e-08
1.67416904653e-09
4.10447404078e-09
2.53542428037e-08
6.51147146247e-09
1.80990885883e-08
1.50162146573e-08
7.21465949782e-09
2.09672093925e-08
5.63496598481e-08
3.24276992326e-09
4.52707874895e-08
1.10002387619e-08
5.14310718398e-09
1.03166027534e-08
1.74411590032e-08
1.61974846018e-08
1.34623071317e-08
8.78680240644e-09
3.32746308274e-08
2.12274965334e-08
1.22839100245e-08
2.90228274851e-08
7.1691535998e-09
1.41736255226e-08
3.69905013379e-08
1.98516639192e-08
6.23492459374e-08
2.1055598755e-08
5.33537207489e-09
3.82820605793e-08
2.15052074615e-08
5.38042095817e-08
1.33082513718e-08
1.87993475272e-08
2.02932470909e-08
1.080235237e-08
1.9211583009e-08
1.29920761463e-08
1.55429444514e-08
2.55635348902e-09
1.18796431675e-08
1.33809089645e-08
2.96381840335e-08
8.70687093994e-09
1.5022878862e-08
2.62227767111e-08
1.24278649924e-08
2.33757173813e-08
1.74593281145e-09
8.53363167691e-09
7.7707794166e-08
4.95163932302e-09
1.10810743114e-09
1.55006155652e-08
2.99529539628e-09
1.62505245361e-08
1.5061553501e-08
5.95635246703e-09
3.6147710699e-08
5.27184118537e-08
2.87071530582e-09
3.13945575654e-08
5.26626503055e-09
2.82734178171e-08
7.89319637642e-08
1.31321548549e-08
5.85055389741e-09
1.87818829105e-08
1.35045164029e-08
9.49618247357e-09
2.19788264587e-08
2.51795835508e-08
4.7353565153e-08
1.41622119229e-08
3.4744782603e-08
2.37588918381e-08
2.95619006608e-08
4.1937813905e-08
5.65567970114e-08
5.57560402451e-09
2.81182045713e-08
2.38374138608e-08
1.26613119525e-08
1.54177947946e-08
1.35023663297e-08
1.61192826042e-08
1.89579977199e-08
1.19732232115e-08
1.83926778972e-08
2.85448343084e-09
2.20379515983e-08
1.11610405568e-08
1.10017023681e-08
2.14823663229e-08
5.00155925197e-08
5.44579619191e-08
3.89063989105e-08
2.23096057891e-08
1.9929774109e-08
3.88232999938e-09
3.81854516355e-08
2.71545080744e-08
2.57366973995e-08
4.40365539763e-09
6.5880151261e-09
5.66217203897e-09
5.03319409812e-10
6.54385379347e-08
2.61016440901e-08
3.18172158782e-08
6.85184035791e-08
8.00821462417e-09
1.05919979624e-09
4.28679157633e-08
2.66842636726e-08
2.43881933996e-09
4.45929845054e-08
2.56583981624e-08
1.78302824532e-08
2.25393999806e-08
1.10043371263e-08
2.59093905748e-08
5.82004498921e-09
1.40196975086e-08
3.47432119139e-09
3.70070395138e-08
3.41322437714e-08
1.14673725145e-08
2.91323184506e-08
2.15367751448e-08
4.10589720479e-08
3.48485677181e-08
4.51555291802e-08
1.23141415141e-08
2.26354350706e-10
2.71597567637e-08
2.04845065659e-08
3.21613010907e-08
7.5853883258e-09
6.57241391262e-10
6.91325850359e-09
3.5242267947e-09
1.77842108525e-08
2.89378081882e-08
3.33414658678e-08
1.39342129991e-08
3.67052952385e-08
8.30499373465e-09
6.87074969409e-08
1.20304146019e-08
2.47981875403e-09
2.37140428208e-08
2.16608549281e-08
6.37957937228e-09
9.92839601727e-09
1.59955019708e-08
1.99240204839e-08
1.57348393245e-08
1.90988810241e-08
1.19607915892e-08
1.73954427621e-08
2.10321619045e-08
1.81226186419e-08
5.50170032446e-08
1.64637051968e-08
3.90244437128e-08
8.0303942758e-09
2.68581956194e-08
2.01424083595e-08
2.24572699359e-08
5.10754262114e-08
3.10787794647e-08
1.88215868546e-09
4.52604058166e-10
3.12696746599e-08
4.18550180351e-09
1.06722325806e-08
7.97067659534e-09
6.10449223747e-09
1.20261522304e-08
4.12762001159e-08
2.2095485812e-08
2.80853373596e-08
1.49583118295e-09
1.82056672856e-08
3.3716014204e-08
1.7718699259e-08
6.70975755825e-10
5.01353556829e-09
2.14364705262e-08
1.35411064586e-08
2.1307984781e-08
3.5036363807e-10
6.13311030944e-08
3.05907920433e-08
4.36007598937e-08
3.23169973983e-09
7.72588093082e-08
3.63918513676e-09
9.63924253293e-09
3.50358297269e-08
8.42984314516e-09
1.60307303067e-08
1.91947835117e-08
6.07361518602e-08
2.85200711386e-08
1.70478472841e-08
1.52587945639e-08
2.10077983957e-09
2.60835721894e-08
1.21976908935e-08
7.30683097008e-10
2.21506151002e-08
7.65335804425e-09
1.86854128128e-08
1.70444799124e-09
1.03221106519e-08
4.9064058389e-08
1.98316273213e-08
1.68304443641e-08
9.61736688358e-09
3.21472598087e-08
1.1400088722e-08
1.31857892408e-09
7.57797680856e-09
1.59439538441e-08
2.8844043586e-08
5.16866100023e-09
5.45834572974e-09
1.31408610085e-09
4.76044506065e-08
1.99039876908e-08
1.07445137165e-08
1.78155237273e-08
9.33203142069e-09
8.52448544501e-09
1.24718534766e-08
3.325024833e-09
1.33102663402e-08
7.04970302237e-09
1.67247575565e-08
4.32164857309e-08
1.78441129024e-08
2.26110938632e-08
4.03294509291e-09
1.17287767806e-08
3.77148573302e-08
1.39074782696e-10
2.08152644978e-09
2.12458896023e-08
1.38182501374e-08
1.6959800497e-08
4.54579329545e-08
9.88681747139e-09
3.86406410142e-08
2.95453262557e-09
2.19827361332e-08
1.67947035511e-08
1.17541495472e-08
1.64163469763e-08
4.79923425099e-10
1.61962956296e-08
6.76344291144e-09
7.62508721395e-09
3.47867457205e-08
2.74367512494e-08
6.67786620737e-09
2.60449379437e-08
2.08637256145e-08
1.05668695007e-08
3.10019923722e-09
2.38295887635e-09
9.37179981723e-10
3.3361366821e-09
1.06067505352e-08
2.44944842894e-08
1.02984651471e-08
2.05140709367e-08
5.25569662746e-09
1.78112972437e-08
1.1150821937e-08
5.6495021456e-10
6.17236792602e-10
1.35331244019e-08
1.91316947917e-08
6.33075563559e-08
3.57726856558e-08
1.80624854052e-08
1.21974076927e-08
2.79441777198e-09
2.5348447598e-08
8.56313871665e-10
1.7787075117e-08
5.61413011438e-09
2.55710772357e-08
1.62862804466e-09
5.06347036475e-09
1.03219951296e-08
6.64212349765e-09
4.6910722793e-09
1.54743455778e-08
2.63083629629e-08
2.07434044574e-08
1.47726173322e-08
2.83025125304e-08
5.31789848108e-09
7.41215964932e-09
1.71185726657e-08
9.33216053914e-09
3.19073715326e-09
2.94812300811e-08
2.70083273784e-08
3.37908480431e-08
3.21211004402e-08
1.3241548948e-08
2.25184988155e-08
7.0943706838e-09
1.34237452882e-08
2.52656275572e-08
3.27911959785e-08
4.48399470399e-08
9.19175029279e-10
5.97503894654e-09
3.83252499734e-09
1.15623635869e-08
1.10932185039e-08
6.84381516897e-10
3.08128850844e-08
6.58892529712e-09
3.64836291669e-08
8.5903198016e-09
3.60256928902e-08
4.28054983395e-08
1.61833920282e-08
1.76944140659e-08
2.38354237264e-08
1.3680348765e-08
2.40405309831e-09
2.46349630421e-08
1.04920810807e-08
1.01972412221e-08
1.819080134e-08
4.74697485815e-08
3.08301092029e-08
1.40038043708e-08
1.3856557696e-08
1.5847693178e-08
2.41264875779e-08
4.35593378406e-08
1.24809041304e-08
1.25733491952e-08
8.45188388265e-09
1.94121513622e-08
3.82077520306e-08
1.35055396176e-08
2.55861969789e-09
4.76914675777e-09
2.14837126768e-09
2.29019682653e-08
2.91152742939e-08
1.71639370946e-08
8.30984857017e-09
8.79146907944e-09
1.0755879257e-08
2.70046800053e-08
6.45295823709e-09
8.88208915021e-09
2.57322399066e-08
3.51635805164e-10
3.06329971944e-08
1.90073980733e-08
1.60741199036e-08
1.2800413357e-08
8.6763738151e-09
1.60793486969e-08
1.19822770424e-08
4.19938102093e-10
9.32014802153e-09
3.82444710779e-09
2.84399561324e-08
5.80853546776e-09
2.89162833881e-09
1.30894194837e-08
3.29092171645e-08
5.03417983291e-08
2.90069106146e-08
2.02341756442e-08
1.1423213937e-08
5.23964273845e-09
8.41836503409e-10
1.65231942875e-08
3.959923834e-08
6.70002048055e-09
1.5340305925e-09
1.44274656011e-09
3.48689562939e-09
1.6874607825e-08
1.76146188917e-08
1.54408856134e-08
1.07109657135e-08
5.11571571583e-08
1.42881853929e-08
4.56870551884e-09
4.44206878742e-09
1.34712319664e-08
6.22552014841e-09
3.69162915585e-09
3.19347839237e-08
1.10556953869e-08
2.83124198161e-09
1.48576064875e-09
1.69734278254e-08
1.29315868625e-08
1.18126839141e-08
2.94370233861e-08
2.40504520448e-10
5.77158133324e-09
2.00014767166e-09
1.28112366886e-08
2.11478069266e-09
2.11329478886e-08
2.27231497172e-08
7.43704915972e-09
1.34170076115e-08
6.73014257708e-09
1.00038061737e-08
3.41078393397e-09
3.86990121533e-08
2.71322910712e-08
8.21240060743e-09
4.09952699041e-08
6.93249606556e-10
1.41654156726e-08
1.57147725195e-08
1.00192920106e-09
1.46558443865e-08
7.43270140222e-09
1.034725658e-08
1.04871101025e-08
9.66669249704e-09
1.68628702567e-08
3.02617884103e-09
2.75329718842e-08
3.19896981586e-09
2.93684279368e-08
1.01539815159e-08
2.41423860294e-08
4.44080480994e-09
7.33577569802e-10
4.27325522976e-09
1.28690082982e-08
7.94044558366e-09
6.45755318558e-09
2.38652354376e-08
1.32215234442e-08
8.41305598295e-09
2.80158397298e-09
1.89972538211e-08
7.01874456342e-09
1.32903205806e-08
2.38804991742e-08
4.42580773037e-08
1.73228389268e-08
5.08083569423e-09
1.15903091637e-08
6.01756512807e-08
4.00566998325e-08
1.0909749387e-08
1.29739167963e-09
1.7840746114e-08
1.48946076229e-08
9.3986890768e-09
4.49757766837e-09
7.522152391e-09
7.913696759e-09
2.66517746859e-08
2.12472245149e-08
5.12110627737e-08
3.39349103707e-09
1.1628134191e-09
1.27273488297e-08
5.43686734696e-09
7.43576063785e-09
1.02370941419e-08
3.76954810295e-08
1.04447604617e-08
1.48238787139e-08
7.02038735927e-09
5.6797001115e-09
3.71378689704e-08
2.82113872141e-09
1.13386215647e-08
5.77471327064e-09
1.56209808145e-08
2.03768713406e-08
1.67935809942e-08
9.40887120696e-09
1.84940872725e-08
4.79436195727e-08
1.20329864839e-08
1.57870170778e-08
1.31542845661e-08
3.22953522292e-08
2.58464097922e-08
1.95379926367e-08
2.57575735992e-08
4.99442628615e-08
1.0860853734e-08
1.69916576976e-08
1.90010596911e-08
1.76981055462e-09
3.66646663412e-09
9.43297846996e-09
1.33166934933e-08
1.35716510771e-08
6.08407356606e-09
3.15431936279e-08
1.1656029931e-08
2.82640557496e-08
4.21824213251e-08
3.77437008313e-09
1.76101248882e-08
1.52921299866e-08
1.80868173224e-08
1.15058904923e-08
1.20396309182e-08
3.63193726707e-08
1.38873029034e-08
1.41430657368e-08
1.74894083958e-08
3.313559102e-09
2.11805134464e-08
1.00059317744e-08
7.9803461663e-09
9.14918418403e-09
2.98795425885e-08
4.56394549027e-09
1.43844971595e-08
3.88488598683e-09
1.76674951206e-08
6.19645222124e-09
1.34062357824e-08
2.91391323045e-08
1.95236282654e-08
1.40991620797e-09
1.66036332596e-09
1.74136130648e-09
1.28047443139e-08
6.35598007382e-09
2.26375812129e-09
5.53283907395e-09
9.83143679243e-09
2.11918579568e-08
3.61341525149e-09
5.149190903e-09
1.63779921975e-08
3.31675718042e-08
5.81823451295e-09
1.54695133986e-08
3.84655660391e-09
1.24483595527e-08
5.18743417502e-09
4.81599038709e-09
1.48561131258e-08
4.55320964217e-08
1.72714260621e-08
3.06158972005e-09
7.86594261668e-11
2.78802414935e-09
1.53716860806e-08
1.2598789127e-08
3.73557397044e-09
1.19407921494e-08
8.89927825579e-09
1.11927361507e-08
1.11595648691e-08
1.74264466002e-08
5.12642900991e-09
2.04534683862e-08
1.01002695819e-09
8.10304136961e-10
5.57341395015e-09
2.3010495266e-09
1.22587161764e-08
8.04893706983e-09
1.78724508071e-08
7.23652303291e-09
9.15096882844e-09
3.92637854361e-08
4.14175808978e-09
2.3734423664e-08
1.4847285307e-09
5.1791749528e-09
2.30154796077e-08
1.87275687599e-08
4.22688967253e-09
2.12873476976e-08
2.39148013698e-08
1.25489768217e-09
1.51511338606e-09
1.08402664236e-08
1.13815028108e-08
2.395085483e-09
8.62335569916e-09
3.622044402e-08
3.47934412222e-10
2.79638296517e-08
1.55218606451e-08
4.65494678825e-09
1.02861839983e-08
1.35324397182e-08
2.59952570514e-08
1.90188873754e-08
4.01263141294e-08
2.15753212229e-08
4.86581127243e-08
3.91345200436e-08
3.16690524775e-08
5.87827090004e-08
1.73162829509e-09
1.56685657815e-08
2.6483011245e-08
4.11482614719e-09
1.08358229595e-08
2.5143124704e-09
7.47704056182e-09
1.4393594257e-09
1.86709577813e-08
4.61204586466e-09
1.57369248455e-08
8.28777538642e-09
7.19334877219e-10
1.23434035017e-08
1.68020083384e-08
2.17730380694e-08
1.4401369226e-08
7.01591697396e-09
1.50945325467e-08
1.09498075591e-08
6.72704027662e-09
7.80438650781e-09
4.4582043281e-08
6.01700466178e-09
1.31291535358e-08
9.54318631237e-09
1.23486505178e-08
1.35143695875e-10
6.86717253093e-09
9.12138911827e-09
1.05491283804e-08
1.88902867095e-08
4.75669122061e-09
9.86956913844e-09
2.30504610143e-09
9.83188474073e-09
2.65883354585e-08
2.01812398953e-08
1.34093959985e-08
6.04111537244e-09
6.99180528167e-09
8.63301173831e-09
6.74638148981e-08
4.95152015732e-08
3.53272261274e-08
3.07795226782e-08
6.31420098432e-08
2.7651686919e-08
8.576366872e-09
1.19768231536e-08
2.61428960345e-08
1.49780185662e-08
4.15773619683e-09
3.55075892878e-08
1.06475847754e-08
8.30159937424e-09
1.7351990047e-08
2.55136227683e-09
1.36965780004e-08
1.15185872553e-08
5.80360108964e-09
3.17524960749e-08
4.5182435993e-09
1.90851732915e-08
7.2862649245e-09
1.45284173904e-08
4.17874271196e-08
3.47072135658e-08
2.32603554683e-08
1.04072660767e-08
1.26019290812e-08
5.51981543624e-09
1.92041166775e-08
2.60730159471e-08
1.17589217992e-09
8.62394690241e-09
4.05453567598e-08
1.97592768586e-08
6.99795814976e-10
1.20915002678e-08
7.44785786085e-10
2.9470037512e-08
1.98693541625e-09
1.40456271699e-08
1.85482827597e-08
8.93608519139e-09
3.56132056817e-09
3.41783890344e-09
3.70246155576e-08
2.39450442995e-08
5.63634083068e-09
9.0338668732e-09
2.06669277859e-09
8.30084280688e-09
8.43880869518e-09
6.5734770018e-09
5.78948862097e-09
1.97684408854e-08
5.84919024484e-09
1.23708645103e-09
2.12684931614e-09
7.93712958319e-09
9.16837899595e-09
4.57004731429e-09
2.40541462103e-08
6.10220420951e-09
5.92360727571e-09
5.32752694678e-09
4.89377028918e-09
1.20967529514e-09
4.15192061861e-09
4.82878027528e-09
6.21642071277e-09
2.84088162076e-08
8.36793684019e-09
1.34114276849e-08
1.21495421163e-08
1.24756639849e-08
2.90188180242e-08
2.0275829437e-08
1.96729702537e-08
2.32463421275e-09
1.25160375327e-08
4.65084535719e-10
1.84440609949e-08
2.09481101089e-10
1.20686836987e-08
6.11322756738e-08
9.96659858938e-09
2.12258294362e-08
1.59582276378e-08
1.8833302026e-08
2.39928172855e-08
1.55766742579e-08
2.83841634353e-09
1.63143120476e-08
2.83154111407e-08
6.89576199763e-09
1.31614375002e-09
5.40758956983e-09
6.34699602851e-09
3.6724644784e-08
9.477778877e-09
1.52487893788e-08
4.74725062511e-09
1.2348002378e-08
8.58020264516e-09
1.38410965649e-08
5.56753606304e-09
1.77755409997e-08
7.62115302381e-09
1.38998585012e-08
1.39063926337e-08
9.12651356419e-09
2.6807924558e-10
1.64984662608e-09
4.93976533595e-09
1.13325579399e-08
1.20356299582e-08
3.37743180113e-08
2.82187485314e-08
1.24279730661e-08
2.85231220558e-08
9.38966005083e-11
1.12301030648e-08
3.38190426483e-09
1.50453384244e-08
2.14666510304e-09
8.44728960212e-09
4.36168929842e-09
1.56089533231e-08
5.24279742639e-09
1.17744332475e-08
2.4415033962e-09
5.99255268835e-09
1.25480144515e-08
1.46657935366e-08
1.84444010815e-08
3.66198156417e-09
6.58908423383e-10
1.62597495777e-09
9.53681813613e-09
7.70048975476e-09
6.11508989032e-09
3.79225274359e-09
3.16813330428e-09
9.91896556726e-09
1.67023635867e-08
2.2211865289e-08
4.24637066047e-09
6.86313891444e-09
3.20462896816e-09
1.25633811291e-08
6.95807941113e-09
1.08752240006e-08
6.36444549382e-09
1.43256434842e-08
7.45052186978e-09
5.82694283334e-08
1.29038720576e-08
1.36489859541e-08
9.73521810759e-09
1.22047140395e-08
5.01225855685e-09
1.41702550601e-08
8.00561596084e-09
4.66743878597e-09
1.38778058698e-08
2.79843346779e-10
3.54727772668e-08
3.7838569309e-09
2.5848002233e-09
8.89587471241e-09
8.38887602673e-09
2.22934460281e-08
1.15129185095e-08
1.46214717759e-08
1.69096626235e-09
6.231695813e-09
7.89544138194e-09
4.87938830344e-09
3.3890700776e-08
4.19848729691e-09
1.76737562194e-08
2.69361374746e-08
3.86230704401e-09
1.77702535975e-09
8.31565615596e-10
2.40331063188e-08
4.31836555465e-08
4.44388131955e-08
1.11579923404e-08
5.5841156746e-09
1.04647654295e-09
2.51009884002e-08
2.69543132499e-08
5.80347275076e-09
4.08430013776e-09
6.82972272131e-10
5.74912046758e-09
8.85586337744e-09
1.84524914172e-08
1.0379579494e-08
1.13169116586e-08
9.51988876527e-09
8.85324141551e-10
9.82243586713e-09
3.4064660498e-09
1.52566442895e-08
4.48232137777e-09
7.76692909661e-09
1.40894995555e-08
2.3693407785e-08
6.09538877428e-10
7.77505046929e-09
3.33696311518e-08
9.75395764106e-09
1.64253827295e-08
2.02583305095e-08
2.29237290093e-09
1.25060957471e-08
2.73811821451e-10
4.59039647864e-09
1.48356593476e-09
9.47320861747e-09
5.01634422535e-09
1.00996246171e-08
3.53722141097e-09
5.18556047222e-09
1.97661180115e-08
3.59684092661e-08
3.36937260633e-08
2.08254709242e-09
3.95290254778e-09
1.80138788307e-08
1.73975924084e-08
1.43602748518e-08
7.90628776803e-09
4.87488536389e-09
1.95581387017e-08
1.155507793e-08
4.99656114358e-08
3.13948220076e-08
2.456959588e-09
2.35707436969e-08
1.85652745412e-08
1.70822890317e-08
1.46571114818e-08
2.17804374079e-08
1.56216347217e-08
2.57297003166e-08
6.58089485741e-10
3.23199547976e-09
6.75647084619e-09
2.95308524244e-09
8.99250060663e-09
1.55113589039e-08
1.01420451789e-08
3.52830260208e-10
8.94558553813e-09
1.3670918064e-08
1.74287912336e-09
2.90892004112e-09
3.09037706702e-09
2.383933563e-08
6.41377196329e-09
1.48701894839e-08
1.63179593112e-09
1.77075166489e-08
8.87088828375e-09
6.13589311809e-10
4.07308242097e-08
3.45016982027e-09
4.25481027762e-09
9.53692040859e-09
3.16077224403e-08
1.23851115043e-09
2.63519295964e-08
4.50994749228e-09
2.51738553347e-08
2.96743360627e-08
1.30619298094e-09
9.69005813231e-09
2.56644157088e-08
5.35972405159e-08
6.23891316189e-09
8.37452783837e-10
3.30223880863e-08
7.24240029897e-09
1.22203864435e-08
1.74515788557e-08
4.9779295297e-09
1.21650793133e-09
1.59032419055e-08
8.89552534667e-09
1.70825963665e-08
8.8169501686e-09
5.44265127023e-08
1.5248442847e-08
1.30510674598e-08
1.32676645645e-08
5.71172710812e-10
1.05623227246e-08
2.42109004934e-08
1.8722652701e-09
3.01519817125e-08
1.74031221703e-08
1.71668787893e-08
4.13378154579e-09
3.38538585725e-08
6.96875481439e-09
6.62463932037e-11
2.0317955078e-08
4.38216458762e-09
2.54452525418e-09
9.09047230298e-09
3.23584322039e-09
8.18409861419e-09
5.45778752248e-09
1.35862336588e-08
9.06024131531e-09
3.30876136359e-08
3.11648678155e-08
1.52243101431e-08
1.03480289814e-08
6.67343243947e-09
1.39522468418e-08
1.06431452494e-08
1.48079946651e-09
2.92515816132e-09
5.95029246189e-09
3.84299948076e-08
1.66544997616e-08
3.1515413602e-08
1.1018768081e-08
6.34013586091e-08
1.81061974334e-08
2.46400617596e-08
1.57143231136e-08
9.51050394851e-09
2.63745043857e-08
1.27342604372e-08
2.17608851078e-08
2.04474016459e-08
1.60533948352e-08
4.44907652424e-09
2.00354141244e-08
1.27713210778e-08
1.21084767747e-08
9.65226671039e-09
2.19798602043e-08
1.77986981779e-08
1.5512505682e-09
1.29063522476e-08
3.94483713546e-09
3.39658893702e-08
4.32459846633e-09
1.7459047129e-09
3.72461809701e-09
1.43689226489e-08
1.87383084308e-08
1.60876415533e-08
1.22651539381e-08
6.72465956552e-09
9.94466091183e-09
6.39979645843e-09
8.47863856468e-09
5.8009268298e-09
5.14809540208e-09
1.45445029487e-08
3.4545676502e-08
8.73658961519e-10
1.87616645219e-08
9.23891453795e-09
2.12878833628e-09
1.6465149366e-08
8.15434426257e-09
7.92263465737e-09
1.20422493759e-08
2.25476351676e-08
1.85783830754e-08
1.90835031934e-08
4.27685096298e-08