# vtk DataFile Version 3.0
File Name: Molecule/sphere_cent/sphere_cent_0-s6.vtk
ASCII
DATASET UNSTRUCTURED_GRID
FIELD FieldData 1
TIME 1 1 double
0.0
POINTS 132 double
0.85313183069 -0.51906108856 -0.020459655672
0.8397064209 -0.25513067842 -0.47810992599
0.99788028002 0.0036003226414 -0.053919371217
0.82869595289 0.27571746707 -0.48548877239
0.52651762962 -0.00051233754493 -0.85006183386
0.85081118345 0.52543711662 -8.5710649728e-05
0.25427293777 -0.47868156433 -0.83961671591
-0.0014623502502 -0.042396757752 -0.99827939272
-0.26697060466 -0.48025605083 -0.8347440362
0.0065795085393 -0.84373182058 -0.53406786919
-0.52534747124 -0.00021385567379 -0.85087901354
-0.32325094938 -0.5051985383 0.79982757568
-0.19313073158 -0.24028001726 0.95070034266
-0.52918940783 -0.016180537641 0.84667396545
-0.014329057187 -0.84685462713 0.52912175655
0.0029835749883 -0.55735236406 0.82958346605
0.50005942583 -0.80869013071 -0.3093020916
0.25713357329 -0.95345205069 -0.157635957
0.5249286294 -0.85113269091 0.007483956404
0.2617059648 -0.95120060444 0.16332635283
0.51177370548 -0.79103064537 0.33491969109
-0.051970314234 -0.9986949563 -0.00030631085974
0.58766317368 -0.42246502638 -0.68976360559
0.69182229042 -0.58008861542 -0.42990320921
0.42377695441 -0.68268209696 -0.5952091217
0.95135295391 -0.16300149262 0.2610040009
0.95287597179 0.15833839774 0.25882557034
0.85158401728 -0.00598844653 0.52415460348
0.80927652121 0.30835288763 0.49971526861
0.79787200689 -0.3269944787 0.50640380383
0.5425183773 0.014762353152 0.83717828989
0.49676343799 0.81397211552 0.30063199997
0.68540072441 0.58945280313 0.42756170034
0.42444652319 0.68656772375 0.59024375677
0.58414983749 0.42799523473 0.68960541487
0.30188685656 0.48735916615 0.81932425499
0.011654780246 0.86039042473 0.50695037842
-0.80878090858 -0.30930051208 -0.49992865324
-0.85298866034 4.7187440941e-05 -0.52197390795
-0.80885803699 0.309235394 -0.49984106421
-0.95293885469 -0.15812315047 -0.25853642821
-0.95262229443 0.15886066854 -0.25929877162
-0.9994686842 0.0093926396221 0.028718305752
-0.85262787342 -0.51785099506 -0.023873148486
-0.85108172894 0.52223026752 -0.010994463228
-0.30066618323 0.49659749866 -0.81403577328
-0.42659121752 0.68958312273 -0.58516186476
0.011361241341 0.840683043 -0.538816154
-0.58611792326 0.42885521054 -0.68745809793
-0.68475687504 0.59200978279 -0.42497175932
-0.49838161469 0.82010281086 -0.28096318245
-0.58309340477 -0.42830142379 -0.69035708904
-0.42380073667 -0.68814229965 -0.58877027035
-0.68391180038 -0.59309452772 -0.42478600144
-0.48279416561 -0.82643395662 -0.28953889012
0.68935269117 0.58470791578 -0.42775586247
0.50014674664 0.8083383441 -0.31008800864
0.59108656645 0.42552354932 -0.68525266647
0.4287841022 0.68550872803 -0.58860468864
0.31009358168 0.49978765845 -0.80856156349
0.51952880621 0.8544536829 -0.0060198125429
0.26051205397 0.95192891359 -0.1609133184
0.2587492764 0.95394921303 0.15188610554
-0.016289988533 0.9997728467 0.0097135733813
-0.13717886806 0.69419080019 0.70627242327
0.14352200925 0.68989706039 0.70962262154
0.0059944456443 0.50885552168 0.86079072952
-0.29156386852 0.48480147123 0.82438480854
-0.48550274968 -0.82116377354 0.29948219657
-0.43784791231 -0.69015049934 0.57623589039
-0.68672168255 -0.58795851469 0.42743197083
-0.59911638498 -0.42929285765 0.67589324713
-0.81442183256 -0.29062449932 0.50197541714
0.15998527408 0.25990778208 -0.9522716403
-0.15311573446 0.25738370419 -0.95410686731
0.006674261298 0.51854872704 -0.85514932871
-0.39149025083 0.70839715004 0.58638894558
-0.24824623764 0.88031190634 0.4036796391
-0.70861536264 0.5870988965 0.39002597332
-0.56320494413 0.65114891529 0.50836336613
-0.48304083943 0.8340357542 0.26633188128
-0.65128421783 0.50870603323 0.56274527311
-0.50986468792 0.56217867136 0.65096217394
-0.58852982521 0.3901989162 0.70738196373
-0.83361774683 0.26629069448 0.48378321528
-0.087261743844 -0.40206983685 0.91132891178
0.087877824903 -0.40253227949 0.91101425886
0.000102240243 -0.26036354899 0.9653621316
0.19925884902 -0.23977297544 0.94973599911
0.33717393875 -0.50971138477 0.79124474525
0.0013966537081 0.036031011492 0.99909579754
-0.020889768377 0.96257722378 -0.27051925659
-0.26618164778 0.95254391432 -0.14708957076
-0.2540640831 0.87566977739 -0.41091093421
-0.41789573431 0.24600426853 0.87435603142
-0.14568096399 0.2738211453 0.95067876577
-0.27099865675 0.033619631082 0.96210211515
0.15378156304 0.27486878633 0.94906830788
0.41583010554 0.25244688988 0.87373888493
0.27951565385 0.020997252315 0.95975875854
0.45386904478 -0.26095840335 0.85183930397
0.68321609497 -0.18496672809 0.70647370815
0.59209764004 -0.44155457616 0.67409735918
0.44772088528 -0.67467349768 0.58681839705
0.68043261766 -0.58304798603 0.44386228919
0.18995651603 -0.71066337824 0.67753309011
0.26762002707 -0.8499044776 0.45335417986
0.84890019894 -0.45398244262 0.2706220746
0.71041160822 -0.67823213339 0.18836225569
-0.690359056 -0.70963454247 -0.14095626771
-0.70262312889 -0.69483548403 0.15271790326
-0.51236391068 -0.85870832205 0.0063105374575
-0.94919067621 -0.15305449069 0.27486953139
-0.86622363329 -0.43041047454 0.25336644053
-0.96285605431 -0.26876106858 0.026862069964
-0.7086981535 0.13308891654 0.6925688386
-0.030124654993 -0.96106147766 0.27381920815
-0.016454096884 0.96383869648 0.26598542929
-0.26229009032 0.95440900326 0.14218774438
-0.50814765692 0.86121851206 -0.0064111524262
-0.69503873587 0.70571583509 0.13622264564
-0.6959849596 0.70418310165 -0.14054533839
-0.2490465641 -0.87433636189 -0.41643947363
-0.27836668491 -0.94899362326 -0.14747039974
-0.033750489354 -0.96175336838 -0.27212923765
-0.28024977446 -0.94752115011 0.15360352397
-0.25684180856 -0.87140518427 0.41789862514
-0.70431613922 -0.14877735078 0.69411718845
-0.85934126377 -0.011605189182 0.51119083166
-0.87610793114 0.41280055046 0.24839553237
-0.95270705223 0.14197920263 0.2686021924
-0.96099162102 0.27564233541 0.023145694286

CELLS 260 1040
3 0 1 2
3 1 3 2
3 1 4 3
3 2 3 5
3 4 6 7
3 6 8 7
3 6 9 8
3 7 8 10
3 11 12 13
3 14 15 11
3 16 17 9
3 16 18 17
3 18 19 17
3 18 20 19
3 17 19 21
3 0 18 16
3 1 22 4
3 4 22 6
3 1 23 22
3 23 24 22
3 23 16 24
3 22 24 6
3 16 23 0
3 0 23 1
3 6 24 9
3 24 16 9
3 2 25 0
3 2 26 25
3 26 27 25
3 26 28 27
3 25 27 29
3 28 26 5
3 5 26 2
3 27 28 30
3 31 32 5
3 5 32 28
3 31 33 32
3 33 34 32
3 33 35 34
3 32 34 28
3 36 33 31
3 28 34 30
3 37 38 10
3 10 38 39
3 37 40 38
3 40 41 38
3 40 42 41
3 38 41 39
3 43 40 37
3 39 41 44
3 45 46 47
3 45 48 46
3 48 49 46
3 48 39 49
3 46 49 50
3 39 48 10
3 10 48 45
3 49 39 44
3 8 51 10
3 10 51 37
3 8 52 51
3 52 53 51
3 52 54 53
3 51 53 37
3 9 52 8
3 37 53 43
3 3 55 5
3 5 55 56
3 3 57 55
3 57 58 55
3 57 59 58
3 55 58 56
3 59 57 4
3 4 57 3
3 56 58 47
3 58 59 47
3 56 60 5
3 5 60 31
3 56 61 60
3 61 62 60
3 61 63 62
3 60 62 31
3 47 61 56
3 31 62 36
3 36 64 65
3 64 66 65
3 64 67 66
3 65 66 35
3 68 69 70
3 69 71 70
3 69 11 71
3 70 71 72
3 11 69 14
3 71 11 13
3 7 73 4
3 4 73 59
3 7 74 73
3 74 75 73
3 74 45 75
3 73 75 59
3 45 74 10
3 10 74 7
3 59 75 47
3 75 45 47
3 67 64 76
3 76 64 77
3 78 79 80
3 80 79 76
3 78 81 79
3 81 82 79
3 81 83 82
3 79 82 76
3 83 81 84
3 84 81 78
3 76 82 67
3 82 83 67
3 15 85 11
3 11 85 12
3 15 86 85
3 86 87 85
3 86 88 87
3 85 87 12
3 88 86 89
3 89 86 15
3 12 87 90
3 87 88 90
3 36 65 33
3 33 65 35
3 63 91 92
3 91 93 92
3 91 47 93
3 92 93 50
3 67 94 95
3 94 96 95
3 94 13 96
3 95 96 90
3 35 97 98
3 97 99 98
3 97 90 99
3 98 99 30
3 30 100 101
3 100 102 101
3 100 89 102
3 101 102 29
3 89 103 102
3 103 104 102
3 103 20 104
3 102 104 29
3 89 105 103
3 105 106 103
3 105 14 106
3 103 106 20
3 29 104 107
3 104 108 107
3 104 20 108
3 107 108 0
3 43 109 110
3 109 111 110
3 109 54 111
3 110 111 68
3 72 112 113
3 112 114 113
3 112 42 114
3 113 114 43
3 13 94 115
3 83 94 67
3 90 96 12
3 12 96 13
3 14 105 15
3 15 105 89
3 30 99 100
3 88 99 90
3 89 100 88
3 88 100 99
3 0 108 18
3 18 108 20
3 20 106 19
3 19 106 116
3 29 107 25
3 25 107 0
3 30 101 27
3 27 101 29
3 35 98 34
3 34 98 30
3 43 114 40
3 40 114 42
3 50 93 46
3 46 93 47
3 54 109 53
3 53 109 43
3 47 91 61
3 61 91 63
3 90 97 95
3 66 97 35
3 67 95 66
3 66 95 97
3 43 110 113
3 70 110 68
3 72 113 70
3 70 113 110
3 36 117 77
3 117 118 77
3 117 63 118
3 77 118 80
3 80 119 120
3 119 121 120
3 119 50 121
3 120 121 44
3 54 122 123
3 122 124 123
3 122 9 124
3 123 124 21
3 68 125 126
3 125 116 126
3 125 21 116
3 126 116 14
3 13 115 127
3 115 128 127
3 115 84 128
3 127 128 72
3 84 129 130
3 129 131 130
3 129 44 131
3 130 131 42
3 36 77 64
3 76 77 80
3 44 129 120
3 78 129 84
3 80 120 78
3 78 120 129
3 84 115 83
3 83 115 94
3 21 124 17
3 17 124 9
3 14 116 106
3 19 116 21
3 42 131 41
3 41 131 44
3 44 121 49
3 49 121 50
3 9 122 52
3 52 122 54
3 63 117 62
3 62 117 36
3 68 126 69
3 69 126 14
3 13 127 71
3 71 127 72
3 80 118 119
3 92 118 63
3 50 119 92
3 92 119 118
3 21 125 123
3 111 125 68
3 54 123 111
3 111 123 125
3 84 130 128
3 112 130 42
3 72 128 112
3 112 128 130

CELL_TYPES 260
5
5
5
5
5
5
5
5
5
5
5
5
5
5
5
5
5
5
5
5
5
5
5
5
5
5
5
5
5
5
5
5
5
5
5
5
5
5
5
5
5
5
5
5
5
5
5
5
5
5
5
5
5
5
5
5
5
5
5
5
5
5
5
5
5
5
5
5
5
5
5
5
5
5
5
5
5
5
5
5
5
5
5
5
5
5
5
5
5
5
5
5
5
5
5
5
5
5
5
5
5
5
5
5
5
5
5
5
5
5
5
5
5
5
5
5
5
5
5
5
5
5
5
5
5
5
5
5
5
5
5
5
5
5
5
5
5
5
5
5
5
5
5
5
5
5
5
5
5
5
5
5
5
5
5
5
5
5
5
5
5
5
5
5
5
5
5
5
5
5
5
5
5
5
5
5
5
5
5
5
5
5
5
5
5
5
5
5
5
5
5
5
5
5
5
5
5
5
5
5
5
5
5
5
5
5
5
5
5
5
5
5
5
5
5
5
5
5
5
5
5
5
5
5
5
5
5
5
5
5
5
5
5
5
5
5
5
5
5
5
5
5
5
5
5
5
5
5
5
5
5
5
5
5
5
5
5
5
5
5

CELL_DATA 260
SCALARS cell_data_0 double
LOOKUP_TABLE default
3.46859375649e-06
4.4498873934e-07
4.18760655838e-06
3.5623888632e-06
4.31597603151e-06
8.6061954773e-07
3.59279317405e-06
3.57435655571e-06
2.62795468343e-06
2.68761446499e-06
3.27779623865e-06
3.49408118692e-06
9.06938377079e-07
3.54494438285e-07
9.63805871623e-07
3.58808118566e-06
1.19741191646e-06
1.09070623379e-06
1.80352055787e-06
1.75771284885e-06
1.68560869211e-06
1.97080700346e-06
1.2539103443e-06
1.99230469628e-06
1.84113867776e-06
1.42628809487e-06
6.74117790102e-07
2.6910251789e-06
6.68642797654e-07
2.37621224103e-06
4.08439457731e-07
1.44834457902e-06
1.64131299249e-06
2.81912749047e-06
1.28839523904e-06
1.47651226664e-06
2.79851142139e-06
1.91723371101e-07
1.43328448481e-08
2.59062265481e-06
3.7034640766e-06
3.18687443138e-06
1.43449920952e-06
1.29708888722e-06
2.65685765405e-06
2.1036462367e-07
1.72876530538e-07
2.861812358e-06
3.29487978533e-06
3.61710298915e-06
3.10830902932e-06
2.7066489044e-06
1.82400581912e-07
2.79412966364e-06
2.7139222426e-07
1.23491024837e-06
1.40836037382e-06
3.5729543373e-06
1.60574620478e-06
1.5783106883e-06
2.552247046e-06
7.7618620243e-07
4.35583873845e-07
2.61755343115e-06
7.38981036312e-07
2.98857596584e-06
1.967475154e-06
1.50448455387e-06
2.12905021233e-06
1.85889576595e-06
2.06312025941e-06
1.71698256498e-06
1.43300225035e-06
1.78553528392e-06
8.04736350338e-07
8.16766401087e-09
1.37939710415e-06
1.19218579572e-06
2.7166731504e-06
3.13358016571e-07
4.56995392656e-08
2.65060822419e-06
3.22590538948e-06
3.36107969985e-06
2.03962035721e-06
6.04344038141e-07
2.04038206214e-07
2.66094533138e-07
1.82180590514e-07
3.8950215319e-07
3.73168148963e-06
1.83888753996e-07
4.43430418012e-06
4.15697664126e-06
1.62616231447e-06
1.74437132485e-06
2.08308163398e-06
1.62820332318e-06
1.88695232e-06
1.84562019682e-06
1.45537157241e-06
1.89880065918e-06
4.56953356302e-07
8.37543468131e-07
4.87076813871e-08
1.20057895504e-06
5.31365003028e-07
4.07510340038e-07
7.42442317737e-07
5.95278578911e-09
6.07540717664e-07
5.50080003153e-07
5.474474103e-07
4.66768204387e-07
3.08215997573e-07
2.63955362463e-07
1.18394395434e-06
1.15957083032e-06
2.870782559e-08
6.42439600483e-07
6.99172726011e-07
3.9687789984e-08
1.8084385471e-07
1.57079123472e-07
7.83551686464e-08
2.85742831161e-07
5.83589280778e-07
1.00765757828e-07
2.52155810516e-07
1.20443677662e-06
2.55382265945e-06
1.3629107322e-07
2.87434071223e-07
9.13035373997e-07
1.7695661611e-06
2.3191272443e-10
6.10761603897e-08
9.75921833514e-07
3.61764276154e-07
1.73521108174e-06
1.81473827487e-06
9.70450641448e-07
1.88263948711e-07
1.33610444144e-07
3.42706447943e-07
2.04636382769e-08
3.05260981819e-07
3.77435064295e-07
1.83470614205e-07
8.97249305666e-07
1.74447882031e-06
2.62606612172e-07
1.63933387603e-07
1.24576128508e-06
1.80688147388e-07
2.43679790811e-06
1.54025938319e-06
9.37090513012e-07
6.95940700948e-08
2.45773327831e-09
5.98056936714e-08
7.24001586656e-07
6.0404256986e-08
1.74290876587e-06
4.89664006301e-07
2.94951297435e-09
3.20597199492e-07
1.54833614208e-06
1.45537222117e-06
3.13575995312e-07
4.4329918315e-07
1.85767680637e-07
1.35479557651e-07
7.4317857358e-07
7.88883364931e-07
3.86612711864e-07
1.64267413643e-07
1.63526654772e-06
2.86494871946e-07
1.19202634352e-06
8.32243125407e-07
2.66974589234e-07
8.99475586063e-08
6.32825719119e-07
8.4422638573e-07
4.86800781724e-08
3.10469508514e-07
1.31325693398e-06
2.9211144248e-07
8.99567014481e-07
1.16533108262e-06
2.80801937594e-07
5.11429999567e-07
1.63391038766e-07
2.09663466878e-07
2.95890388878e-07
1.07919535816e-06
2.41259722435e-07
3.77990324454e-07
8.25459485984e-07
2.18139897337e-06
1.08765254269e-06
2.2469319282e-07
5.41137340557e-07
3.98279802867e-07
1.20702463517e-06
9.76869992565e-08
2.07835310433e-06
1.11412486573e-07
1.59870486334e-06
2.59917003922e-06
2.59830623481e-08
8.55442029836e-08
1.04004229378e-06
5.78762987895e-07
2.10452677106e-06
2.1032294173e-06
1.10742804953e-06
4.92099264585e-07
7.02874330981e-08
4.24222910213e-07
1.19754190737e-06
2.27343832793e-06
1.19370662003e-07
5.2249487007e-07
2.0015568004e-07
6.16403206358e-07
3.32152842762e-07
1.30859670362e-07
1.0160344315e-06
2.96203045373e-07
1.1913408582e-06
4.98089364583e-07
1.24055716923e-06
8.21211645436e-07
8.15415930335e-08
7.26820068159e-08
1.00221282755e-06
8.69828872584e-07
2.34690495898e-07
1.10468401079e-06
5.06502231218e-07
3.01442261386e-07
9.27692196505e-07
3.4540259392e-07
4.88040953411e-07
6.02840395705e-07
3.20162865876e-07
3.99789632815e-07
4.41168078676e-07
4.8972224546e-07
1.61726246632e-07
6.11725334816e-07
2.22687058017e-07
7.05907502127e-07
1.93415214078e-07
4.22621378705e-07
3.65089203137e-07
3.56836580759e-07
3.79474971321e-07

