# vtk DataFile Version 3.0
File Name: Molecule/sphere_cent/sphere_cent_0-s5.vtk
ASCII
DATASET UNSTRUCTURED_GRID
FIELD FieldData 1
TIME 1 1 double
0.0
POINTS 114 double
0.8512442708 -0.52205199003 -0.011005526409
0.8352868557 -0.26326489449 -0.48092794418
0.9981558919 0.0027610706165 -0.043009225279
0.82264447212 0.28541815281 -0.48952904344
0.52643209696 -0.00050035933964 -0.85014873743
0.8507438302 0.52555340528 0.00015473045642
0.00046134047443 0.86058807373 0.50674951077
-0.019122254103 0.99727481604 0.013031664304
-0.48163601756 0.8347967267 0.26292708516
-0.49773582816 0.81973618269 -0.27552601695
-0.85036569834 0.52607756853 -0.00011589303904
0.26233941317 -0.48197326064 -0.83486270905
-0.0010875294684 -0.02995024249 -0.99843680859
-0.27531081438 -0.48406249285 -0.82925611734
0.00017239176668 -0.85024732351 -0.52626872063
-0.52566486597 -8.4494698967e-05 -0.85068827868
-0.47838497162 -0.82759642601 -0.28625363111
-0.055461093783 -0.99714022875 -0.00053006934468
-0.48135101795 -0.82220304012 0.29814970493
-0.010446630418 -0.85112214088 0.5218629837
-0.5327937007 -0.0069503979757 0.84439522028
-0.8345644474 0.26322287321 0.4818649888
-0.8134162426 -0.28641825914 0.50250214338
-0.99713432789 0.011667439714 0.033031400293
-0.40422159433 0.69978135824 0.58644014597
-0.69984006882 0.58679133654 0.40353688598
-0.58788728714 0.40322369337 0.6992200017
-0.32602471113 -0.50618320704 0.79792112112
-0.18236391246 -0.24835887551 0.95016938448
0.0016711762873 -0.54594045877 0.83650058508
0.49996036291 -0.80883592367 -0.30903631449
0.25888559222 -0.95280486345 -0.15818700194
0.52456706762 -0.85130882263 0.0058431182988
0.26179510355 -0.95096349716 0.16379399598
0.51307618618 -0.78869026899 0.33851698041
0.58770281076 -0.42395064235 -0.68889176846
0.69055020809 -0.58235740662 -0.4289111197
0.42459347844 -0.68409585953 -0.59304380417
0.95119583607 -0.16227354109 0.26221600175
0.95227915049 0.15920700133 0.26051694155
0.851575315 -0.004047202412 0.52420276403
0.80910640955 0.30862891674 0.49981564283
0.79602521658 -0.3297277391 0.50750565529
0.53254878521 0.006266084034 0.84475457668
0.49636852741 0.81465888023 0.29931509495
0.68591535091 0.58925640583 0.42700392008
0.42538198829 0.68709540367 0.58896684647
0.58558183908 0.42761570215 0.68866020441
0.30103194714 0.48503863811 0.82102066278
-0.80885249376 -0.30909988284 -0.49992918968
-0.85254848003 5.4418902437e-05 -0.52275234461
-0.80885332823 0.30910229683 -0.49989485741
-0.95234203339 -0.15899948776 -0.26038944721
-0.95214879513 0.15937918425 -0.26074007154
-0.85134041309 -0.52220350504 -0.010208940133
-0.29946798086 0.49597507715 -0.81483656168
-0.42648664117 0.6886651516 -0.58637422323
0.0058553586714 0.84466767311 -0.53230768442
-0.58635544777 0.42810633779 -0.68775212765
-0.68545991182 0.5907292366 -0.42563194036
-0.58468532562 -0.42784392834 -0.68936085701
-0.42507350445 -0.6879992485 -0.58812260628
-0.68509244919 -0.59126651287 -0.42557454109
0.6884765029 0.58624106646 -0.42715594172
0.50003838539 0.8085552454 -0.3096897006
0.58956694603 0.42612087727 -0.686239779
0.42761158943 0.68659824133 -0.58818542957
0.3097409904 0.49990454316 -0.8086180687
0.52023541927 0.85406124592 -0.0063714548014
0.26172378659 0.95160001516 -0.1612380147
0.25934997201 0.95369118452 0.15251815319
-0.13775646687 0.69134968519 0.70922213793
0.14584748447 0.69253563881 0.70657455921
0.0064454809763 0.5102661252 0.85986691713
-0.28941273689 0.48234602809 0.82662063837
-0.43775931001 -0.6899497509 0.57652258873
-0.6873973012 -0.58796727657 0.4264549017
-0.59885203838 -0.42938402295 0.67605829239
0.16061127186 0.26156932116 -0.95174628496
-0.15371264517 0.25866836309 -0.95370578766
0.0066121146083 0.51964658499 -0.85448420048
-0.56373393536 0.64852768183 0.51109731197
-0.6485991478 0.51120197773 0.56355494261
-0.51168990135 0.56285870075 0.64891624451
-0.084946610034 -0.40091782808 0.91205692291
0.086032494903 -0.40069627762 0.9119900465
0.00088213366689 -0.2628454566 0.96467989683
0.18815499544 -0.2466686815 0.94985985756
0.34064123034 -0.51138061285 0.78860485554
0.0010506429244 0.041161172092 0.99913913012
-0.26505896449 0.95258677006 -0.14842735231
-0.0153024178 0.96230173111 -0.27218490839
-0.25425574183 0.87346285582 -0.41567736864
-0.41538715363 0.24810540676 0.87510323524
-0.14687113464 0.2730076611 0.95067042112
-0.27175554633 0.028932886198 0.96204847097
0.15506386757 0.27456712723 0.94895231724
0.42112153769 0.25125727057 0.87149679661
0.27642831206 0.021511927247 0.96063303947
0.45286020637 -0.26385655999 0.85147887468
0.68421334028 -0.17990639806 0.70677793026
0.5925244689 -0.44112405181 0.67400979996
0.44723910093 -0.67498189211 0.58681762218
0.68090307713 -0.58283084631 0.44346553087
0.18543688953 -0.70999753475 0.67949849367
0.27147075534 -0.84777349234 0.45557618141
0.85141086578 -0.45081377029 0.26785668731
0.71005088091 -0.67978739738 0.18387962878
-0.6936289072 -0.70602548122 -0.14347566664
-0.70093649626 -0.69644212723 0.15303131938
-0.51350218058 -0.85799413919 0.0061743301339
-0.94915610552 -0.15410682559 0.27418220043
-0.86652827263 -0.42876464128 0.25504392385
-0.96237367392 -0.27117463946 0.022000541911

CELLS 224 896
3 0 1 2
3 1 3 2
3 1 4 3
3 2 3 5
3 6 7 8
3 8 9 10
3 4 11 12
3 11 13 12
3 11 14 13
3 12 13 15
3 16 14 17
3 18 17 19
3 20 21 22
3 21 10 23
3 8 24 6
3 21 25 10
3 10 25 8
3 26 21 20
3 27 28 20
3 19 29 27
3 30 31 14
3 14 31 17
3 30 32 31
3 32 33 31
3 32 34 33
3 31 33 17
3 0 32 30
3 17 33 19
3 1 35 4
3 4 35 11
3 1 36 35
3 36 37 35
3 36 30 37
3 35 37 11
3 30 36 0
3 0 36 1
3 11 37 14
3 37 30 14
3 2 38 0
3 2 39 38
3 39 40 38
3 39 41 40
3 38 40 42
3 41 39 5
3 5 39 2
3 40 41 43
3 44 45 5
3 5 45 41
3 44 46 45
3 46 47 45
3 46 48 47
3 45 47 41
3 6 46 44
3 41 47 43
3 49 50 15
3 15 50 51
3 49 52 50
3 52 53 50
3 52 23 53
3 50 53 51
3 54 52 49
3 51 53 10
3 53 23 10
3 55 56 57
3 55 58 56
3 58 59 56
3 58 51 59
3 56 59 9
3 51 58 15
3 15 58 55
3 9 59 10
3 59 51 10
3 13 60 15
3 15 60 49
3 13 61 60
3 61 62 60
3 61 16 62
3 60 62 49
3 16 61 14
3 14 61 13
3 49 62 54
3 3 63 5
3 5 63 64
3 3 65 63
3 65 66 63
3 65 67 66
3 63 66 64
3 67 65 4
3 4 65 3
3 64 66 57
3 66 67 57
3 64 68 5
3 5 68 44
3 64 69 68
3 69 70 68
3 69 7 70
3 68 70 44
3 57 69 64
3 44 70 6
3 70 7 6
3 6 71 72
3 71 73 72
3 71 74 73
3 72 73 48
3 18 75 76
3 75 77 76
3 75 27 77
3 76 77 22
3 27 75 19
3 19 75 18
3 22 77 20
3 77 27 20
3 12 78 4
3 4 78 67
3 12 79 78
3 79 80 78
3 79 55 80
3 78 80 67
3 55 79 15
3 15 79 12
3 67 80 57
3 80 55 57
3 74 71 24
3 24 71 6
3 25 81 8
3 8 81 24
3 25 82 81
3 82 83 81
3 82 26 83
3 81 83 24
3 26 82 21
3 21 82 25
3 24 83 74
3 83 26 74
3 29 84 27
3 27 84 28
3 29 85 84
3 85 86 84
3 85 87 86
3 84 86 28
3 87 85 88
3 88 85 29
3 28 86 89
3 86 87 89
3 6 72 46
3 46 72 48
3 7 90 8
3 90 9 8
3 7 91 90
3 91 92 90
3 91 57 92
3 90 92 9
3 74 93 94
3 93 95 94
3 93 20 95
3 94 95 89
3 48 96 97
3 96 98 97
3 96 89 98
3 97 98 43
3 43 99 100
3 99 101 100
3 99 88 101
3 100 101 42
3 88 102 101
3 102 103 101
3 102 34 103
3 101 103 42
3 88 104 102
3 104 105 102
3 104 19 105
3 102 105 34
3 42 103 106
3 103 107 106
3 103 34 107
3 106 107 0
3 54 108 109
3 108 110 109
3 108 16 110
3 109 110 18
3 18 110 17
3 17 110 16
3 23 111 21
3 21 111 22
3 22 111 112
3 111 113 112
3 111 23 113
3 112 113 54
3 20 93 26
3 26 93 74
3 89 95 28
3 28 95 20
3 19 104 29
3 29 104 88
3 43 98 99
3 87 98 89
3 88 99 87
3 87 99 98
3 0 107 32
3 32 107 34
3 34 105 33
3 33 105 19
3 42 106 38
3 38 106 0
3 43 100 40
3 40 100 42
3 48 97 47
3 47 97 43
3 54 113 52
3 52 113 23
3 9 92 56
3 56 92 57
3 16 108 62
3 62 108 54
3 57 91 69
3 69 91 7
3 89 96 94
3 73 96 48
3 74 94 73
3 73 94 96
3 54 109 112
3 76 109 18
3 22 112 76
3 76 112 109

CELL_TYPES 224
5
5
5
5
5
5
5
5
5
5
5
5
5
5
5
5
5
5
5
5
5
5
5
5
5
5
5
5
5
5
5
5
5
5
5
5
5
5
5
5
5
5
5
5
5
5
5
5
5
5
5
5
5
5
5
5
5
5
5
5
5
5
5
5
5
5
5
5
5
5
5
5
5
5
5
5
5
5
5
5
5
5
5
5
5
5
5
5
5
5
5
5
5
5
5
5
5
5
5
5
5
5
5
5
5
5
5
5
5
5
5
5
5
5
5
5
5
5
5
5
5
5
5
5
5
5
5
5
5
5
5
5
5
5
5
5
5
5
5
5
5
5
5
5
5
5
5
5
5
5
5
5
5
5
5
5
5
5
5
5
5
5
5
5
5
5
5
5
5
5
5
5
5
5
5
5
5
5
5
5
5
5
5
5
5
5
5
5
5
5
5
5
5
5
5
5
5
5
5
5
5
5
5
5
5
5
5
5
5
5
5
5
5
5
5
5
5
5
5
5
5
5
5
5

CELL_DATA 224
SCALARS cell_data_0 double
LOOKUP_TABLE default
3.58167290312e-06
3.57814147903e-07
4.11002386222e-06
3.5236865544e-06
6.48319494871e-06
6.3451330838e-06
3.952209225e-06
3.16014094719e-07
3.30866544841e-06
3.87267479282e-06
5.88029357274e-06
6.68962170283e-06
6.95746656524e-06
6.20448277351e-06
3.31252861507e-07
1.86999281777e-06
1.71133039844e-06
3.52439660797e-07
2.36406742752e-06
2.48077108651e-06
2.004522264e-06
1.59705970641e-06
2.52091063577e-06
9.34317042004e-07
7.00101494366e-07
2.89932493533e-06
2.69852670894e-06
2.49042162462e-07
1.22440239786e-06
1.25190046809e-06
1.98125438766e-06
2.03280829751e-06
1.73868523925e-06
1.85397657978e-06
1.55593917782e-06
2.05396538707e-06
2.04626325858e-06
1.06857968959e-06
3.32338245229e-07
2.69544111794e-06
9.86000259039e-07
2.65832416147e-06
5.29264059074e-07
1.79580634428e-06
1.71406371281e-06
3.26644836887e-06
1.42845198537e-06
1.3609334807e-06
2.68467269544e-06
3.98698634007e-07
9.51585100218e-08
2.80773758404e-06
3.38344427501e-06
3.81128844545e-06
9.15240747733e-07
1.19949227426e-06
2.70512650139e-06
1.11304886298e-06
1.39040594122e-06
2.05215433384e-06
3.6078275678e-06
1.29004860788e-06
1.54005775334e-06
3.36243413196e-06
2.57999981579e-06
1.28302640708e-06
2.03754524095e-06
1.40020228074e-06
9.09612238216e-07
8.69288239932e-07
1.49486768785e-06
1.28590426149e-06
2.10357501738e-06
1.47161350204e-06
2.00889836306e-06
1.8780518425e-06
1.23117450216e-06
2.31308201121e-06
8.83627615053e-07
1.45372709625e-06
3.25003021537e-06
2.3855236521e-06
1.68674560638e-06
2.32814111518e-06
2.16232501932e-06
1.85256492158e-06
1.79421079493e-06
1.74657541041e-06
2.17090163725e-06
3.90341386193e-07
2.05783514645e-07
9.4780624879e-07
7.94021529716e-07
2.54211044617e-06
1.43949560169e-06
1.57952080226e-06
1.82343607104e-06
3.46956185412e-06
1.42724302438e-06
2.01608486235e-06
2.46145818352e-06
1.4454376936e-06
2.350735996e-08
2.68229275943e-07
1.18275205547e-06
1.67436599151e-06
2.0291002704e-06
1.36004047927e-06
1.4325972125e-06
1.8416086074e-06
1.67848453931e-06
1.57669154181e-06
2.07081852681e-06
1.86346069537e-06
2.51410037167e-06
2.08396794235e-06
1.74298769437e-06
1.78198255983e-06
1.73980603415e-06
2.2092798002e-06
3.63743453346e-07
4.03965643887e-07
1.02674820926e-06
1.3055898315e-06
8.39918677058e-07
1.61710787933e-06
9.74624960943e-07
8.67829670255e-07
6.44853204276e-08
1.8835951175e-07
1.60855587108e-06
8.96247331253e-07
2.08620127935e-07
2.46949297843e-07
1.05811004723e-06
9.79613058212e-07
1.19940155978e-08
6.99268906328e-07
6.56483966653e-07
5.88954129737e-09
1.18462848768e-07
2.71300301738e-07
9.67802550149e-08
2.13886008502e-07
1.22793398756e-06
2.55893494621e-07
7.84758593552e-07
1.59812731185e-06
1.17618439248e-06
2.80398655548e-06
1.72177317441e-06
1.29765282963e-06
1.37048325906e-07
1.93739448672e-06
2.15237457756e-06
1.14994611044e-07
2.08291881149e-07
1.26800780157e-06
3.4888028465e-07
2.06537817519e-06
1.94238224934e-06
1.27508469825e-06
2.9551359257e-07
1.6551772487e-07
5.34323709865e-07
1.39162439116e-08
7.8747338382e-07
5.80082061987e-07
2.77019191484e-07
1.88635989434e-06
2.39941076878e-06
1.46650673291e-07
1.38686136122e-07
1.79444322202e-06
1.01414337073e-07
2.49961622783e-06
1.26328731232e-06
2.48923455203e-06
1.1252886494e-06
1.9235796318e-06
7.03681904162e-07
1.31842534766e-06
1.23138876549e-06
7.39152323359e-07
1.95050202393e-06
2.3486167016e-06
1.25616789351e-06
1.2985323416e-06
1.51189921315e-06
7.98165049338e-07
5.8069107783e-07
1.94111415951e-06
2.04636889088e-06
5.78526015818e-07
8.07099462592e-07
1.93601912783e-07
1.78104271724e-07
1.07597428494e-06
1.28110833871e-06
8.17698323901e-08
4.71707432226e-07
1.04604592103e-06
4.41504891264e-07
1.14645079147e-06
1.16346176084e-06
4.73396219375e-07
4.18607951688e-07
1.01788814858e-06
3.36627154405e-07
1.25052619272e-06
1.03722731476e-06
6.50752534618e-07
1.39757359668e-06
3.37811746865e-07
6.79029680627e-07
1.11819509823e-06
5.52667087636e-07
3.51951782214e-07
8.87401712807e-07
8.23319387391e-10
1.08540370383e-06
9.82665953403e-07
1.08047325489e-06
2.88315945274e-06

