# vtk DataFile Version 3.0
File Name: Molecule/sphere_cent/sphere_cent_0-s11.vtk
ASCII
DATASET UNSTRUCTURED_GRID
FIELD FieldData 1
TIME 1 1 double
0.0
POINTS 237 double
0.53990274668 -0.83938205242 0.062183890492
0.50649762154 -0.79616230726 0.33097568154
0.26298874617 -0.95135802031 0.16020834446
0.20406602323 -0.96941226721 -0.1340842545
-0.036006029695 -0.99929088354 0.0033381343819
0.82893925905 -0.27689605951 -0.48548182845
0.6889821887 -0.56984382868 -0.44742548466
0.58759844303 -0.42198038101 -0.6903771162
0.4267295599 -0.67087042332 -0.6063965559
0.48975995183 -0.78987509012 -0.3681114018
0.27915385365 -0.48578837514 -0.82832187414
0.99889963865 0.00407098094 -0.042828202248
0.96695739031 0.13855999708 0.21142493188
0.95257800817 -0.1602409333 0.25849589705
0.84196233749 -0.057115767151 0.53634619713
0.80158931017 -0.32477217913 0.50196540356
0.42923358083 0.64630663395 0.63052034378
0.57819503546 0.43328905106 0.69103693962
0.67762207985 0.58012580872 0.45012050867
0.30092912912 0.48980250955 0.81824839115
0.7906550765 0.35171821713 0.50003749132
-0.96397304535 -0.1555019021 -0.21433913708
-0.99970668554 0.00056805030908 0.02412070334
-0.96670377254 0.11022742838 -0.23012427986
-0.57351315022 0.44989147782 -0.68139177561
-0.67685842514 0.59544157982 -0.43270429969
-0.45070180297 0.70122611523 -0.55170589685
-0.49788105488 0.81680780649 -0.29134276509
-0.42682254314 -0.68498194218 -0.59032773972
-0.48901298642 -0.82008230686 -0.296990484
-0.66880148649 -0.62752276659 -0.39866161346
0.82505106926 0.29078093171 -0.48446989059
0.62818920612 0.4257915318 -0.65090352297
0.70198351145 0.55120110512 -0.44976115227
0.43825516105 0.67745989561 -0.59003889561
0.23592171073 0.96270984411 -0.12982931733
0.26305684447 0.95416301489 0.14218594134
0.50131934881 0.86280345917 -0.037787310779
-0.011319499463 0.99992072582 0.0032115962822
0.01646460779 0.85568594933 0.51710194349
-0.13135443628 0.7033392787 0.69854938984
0.13811948895 0.68132805824 0.71878749132
0.0027656112798 0.50521951914 0.86297029257
-0.29666495323 0.4919090867 0.81848227978
-0.49699515104 -0.81617540121 0.29457777739
-0.44748678803 -0.72281116247 0.5262003541
-0.68603080511 -0.58778899908 0.42871850729
-0.64581912756 -0.40210527182 0.64870387316
-0.81909525394 -0.29694375396 0.49075520039
-0.36466890574 0.7251150012 0.58405888081
-0.23660489917 0.88026070595 0.41113856435
-0.72481161356 0.58649504185 0.36134085059
-0.56132465601 0.66133582592 0.49741911888
-0.48909503222 0.82500803471 0.28265440464
-0.66139906645 0.50059854984 0.55841648579
-0.50242954493 0.56187069416 0.65709978342
-0.58907216787 0.36349022388 0.72164660692
-0.82442176342 0.28277531266 0.49002072215
0.012395976111 -0.57609963417 0.8171993494
-0.089634001255 -0.40386021137 0.9104321003
-0.27966687083 -0.48871490359 0.82596379519
-0.206566751 -0.22055308521 0.95317995548
0.099923767149 -0.40606874228 0.90827184916
0.0026937662624 -0.24835681915 0.96858167648
0.22267720103 -0.2250777036 0.94849812984
0.32891431451 -0.50408965349 0.7984817028
0.0037431900855 0.022614696994 0.99965828657
-0.03686806187 0.96344083548 -0.26537904143
-0.27166223526 0.95190525055 -0.14161375165
-0.2544079721 0.88164097071 -0.39752036333
0.018218794838 0.83586770296 -0.54856485128
-0.42233368754 0.23656125367 0.87497168779
-0.14405786991 0.27472409606 0.95066559315
-0.28131353855 0.027064090595 0.95917147398
-0.53124469519 -0.017002981156 0.84701901674
0.14851947129 0.27430528402 0.95009410381
0.4051425755 0.25604221225 0.87767028809
0.29521369934 0.023049805313 0.95511132479
0.55742448568 0.022975564003 0.82973843813
0.46210494637 -0.24812652171 0.85137206316
0.68292570114 -0.1882288307 0.7057005167
0.59014743567 -0.44276916981 0.67502623796
0.44677633047 -0.67550295591 0.58656728268
0.67893391848 -0.58351433277 0.44559144974
0.18003880978 -0.71582752466 0.6746121645
0.25477749109 -0.85743278265 0.44687858224
-0.014240944758 -0.84815466404 0.52953994274
0.85591232777 -0.44895535707 0.25601786375
0.7132511735 -0.67537927628 0.18716178834
0.8517408967 -0.52356344461 -0.019491409883
-0.85872578621 -0.50905501842 -0.055780459195
-0.68629294634 -0.71418625116 -0.1366494
-0.7104793191 -0.68783038855 0.14850564301
-0.50987517834 -0.86021214724 0.0068050543778
-0.94892179966 -0.15059843659 0.27724447846
-0.86595320702 -0.43655720353 0.24390655756
-0.9628688693 -0.26729747653 0.034435994923
-0.70268774033 0.12797036767 0.69984740019
-0.41657489538 -0.25327393413 0.87286001444
-0.14295972884 -0.69555133581 0.70379519463
0.70633977652 -0.70295912027 -0.080324426293
-0.016850991175 -0.95916390419 0.28215417266
0.96136575937 -0.27315247059 -0.029116513208
0.71759212017 0.08426617831 0.6909968853
-0.89938867092 -0.37468093634 -0.22263871133
-0.82147604227 -0.50045490265 -0.27142199874
-0.0060077924281 0.96226811409 0.2717384398
-0.26482030749 0.95396566391 0.14070168138
-0.5066125989 0.86214739084 -0.0053445771337
-0.70205748081 0.70043045282 0.12814868987
-0.70205849409 0.69611889124 -0.14945721626
-0.85507667065 0.51821303368 -0.013781731948
-0.24578537047 -0.86800885201 -0.43112668395
-0.28151610494 -0.94864410162 -0.14429478347
-0.048432178795 -0.96253937483 -0.26668730378
0.012097216211 -0.84951764345 -0.52743422985
-0.27936974168 -0.94885724783 0.14701782167
-0.25726789236 -0.88162493706 0.39554223418
-0.72031772137 -0.13619481027 0.68009263277
-0.86285674572 -0.0072584119625 0.50536262989
-0.87758481503 0.41610664129 0.23794330657
-0.95188558102 0.13900847733 0.27309077978
-0.9640609622 0.26259890199 0.03968546167
-0.83931601048 0.46693134308 -0.27776256204
-0.14413973689 -0.69806945324 -0.7013348341
0.25074359775 0.8866699934 0.38820487261
0.7000285387 -0.14034216106 -0.70005452633
0.86510020494 0.0066798822954 -0.50153404474
0.72118145227 0.13427576423 -0.6796336174
0.52292597294 0.012829581276 -0.85220980644
0.4210652113 -0.24590657651 -0.8730943799
0.26242256165 -0.043459229171 -0.96388286352
0.13465189934 -0.27192237973 -0.9528517127
-0.0018207235262 -0.025596858934 -0.99920964241
0.010128030553 -0.50698161125 -0.86090952158
0.14170086384 -0.69251823425 -0.70724129677
0.27429255843 -0.83839410543 -0.47044873238
0.44731923938 0.76525866985 0.46299615502
0.24755777419 0.78909498453 0.56201899052
0.48843589425 0.82209187746 0.29111012816
-0.89710968733 0.25075736642 -0.36387005448
-0.85627865791 0.037184964865 -0.51163560152
-0.79627352953 0.3224734962 -0.5104958415
-0.92792618275 0.33664616942 -0.15923883021
-0.29225847125 -0.49199962616 -0.81901502609
-0.53333765268 -0.56894826889 0.62590163946
-0.36347872019 -0.62552309036 0.69034719467
-0.47383567691 -0.44697368145 0.75872826576
-0.24696333706 -0.78027313948 0.57455515862
-0.57737720013 -0.24707439542 0.77814722061
0.88325613737 -0.39031669497 -0.2599439919
0.95179784298 -0.13295520842 -0.27641451359
0.94907861948 0.14649416506 -0.27889320254
0.96194219589 0.26936328411 -0.047213666141
0.88110733032 0.40102508664 -0.25102466345
0.84232997894 0.53899508715 0.0098513606936
0.36134389043 -0.89625561237 -0.25682502985
0.15067210793 -0.92693793774 -0.34349673986
0.53917807341 -0.82626563311 -0.1629588306
0.39367899299 -0.91667211056 -0.068195447326
0.46089300513 0.45004031062 -0.76493269205
0.29978141189 0.53369635344 -0.79020953178
0.25545248389 0.37296026945 -0.89190459251
0.576423347 0.2433091253 -0.78003787994
0.42975020409 0.27153459191 -0.86113548279
0.32977300882 0.14676266909 -0.93238681555
0.14103774726 0.23596177995 -0.96078956127
0.071218200028 0.10583122075 -0.99136459827
0.64595669508 -0.71037477255 -0.27943193913
0.91687750816 0.06797735393 0.39322286844
0.89520651102 0.25085029006 0.36814567447
0.82906353474 0.15812540054 0.5363150239
0.85452568531 0.43515577912 0.28324946761
0.92759776115 0.34548678994 0.14265722036
-0.30265918374 0.48779794574 -0.81878679991
-0.35800686479 0.61504262686 -0.70255243778
-0.15358510613 0.67784243822 -0.71874558926
-0.22448426485 0.77914470434 -0.58521109819
0.78318357468 0.57696485519 -0.23243686557
0.68472617865 0.70929986238 -0.1670550257
0.61829304695 0.69530636072 -0.36628770828
0.49802151322 0.80838042498 -0.31309247017
0.2809124589 0.84140414 -0.46012574434
0.18635293841 0.70175778866 -0.6864516139
0.36412644386 0.89666944742 -0.2513923049
0.15434725583 0.92276829481 -0.35347524285
0.78249889612 -0.57942378521 -0.22775825858
0.61276262999 0.71243268251 0.34207627177
0.52952200174 0.83770245314 0.13436338305
0.77266705036 0.58916831017 0.23582787812
0.68894004822 0.70673316717 0.16091260314
0.71597063541 0.2766610384 0.64078855515
-0.80870914459 -0.31103956699 -0.49909475446
-0.89297622442 -0.24703291059 -0.37601152062
-0.83726745844 -0.1723562479 -0.5185713768
-0.91882306337 -0.08188482374 -0.3860386312
-0.63821011782 -0.5243062377 -0.56372606754
-0.56108653545 -0.43901857734 -0.70087051392
-0.7594192028 -0.46022486687 -0.45969882607
-0.71490359306 -0.36574432254 -0.59569323063
0.68583267927 0.72762793303 0.0065526692197
0.15167458355 0.53621810675 -0.83031666279
0.025118516758 0.68168509007 -0.7312323451
0.0027836270165 0.51279902458 -0.85841608047
0.59474265575 0.22740702331 0.77104240656
0.068573839962 0.37840628624 -0.92286384106
-0.52377098799 -0.0010786415078 -0.8518627286
-0.71518027782 0.019024210051 -0.69836658239
-0.68738287687 0.16763244569 -0.70687115192
-0.82350766659 0.17447927594 -0.53918969631
-0.69414973259 0.37262660265 -0.61603850126
-0.56933456659 0.23152510822 -0.78883314133
-0.42580386996 0.25833106041 -0.86735808849
-0.44424831867 0.45314124227 -0.77264416218
-0.43714517355 -0.45463049412 -0.77615243196
-0.42188921571 -0.25722554326 -0.86944556236
-0.55317676067 -0.23598437011 -0.799036026
-0.094959646463 0.11280162632 -0.98898029327
-0.011803704314 0.24806158245 -0.96865594387
-0.15392367542 0.25489926338 -0.95463985205
-0.078969851136 0.38463693857 -0.91968786716
-0.23975594342 0.3683654964 -0.89782804251
-0.15282440186 0.50005251169 -0.85238844156
-0.34096458554 0.13516657054 -0.93039357662
-0.27117884159 -0.010185639374 -0.9626006484
-0.074131011963 -0.39007630944 -0.91777157784
-0.14192329347 -0.27004343271 -0.95228075981
-0.14953500032 -0.49694055319 -0.85473304987
-0.23305633664 -0.37200209498 -0.89790195227
-0.086961194873 -0.14313659072 -0.98591172695
-0.33576893806 -0.14572405815 -0.93074142933
-0.76808148623 -0.25189572573 -0.58713102341
-0.83864986897 -0.065837725997 -0.53978204727
-0.7057492137 -0.092538140714 -0.70248043537
-0.83666521311 -0.36442950368 -0.4063937664
-0.63770318031 -0.38481709361 -0.66625928879
-0.64097213745 -0.1935851872 -0.7428265214

CELLS 470 1880
3 0 1 2
3 3 2 4
3 5 6 7
3 6 8 7
3 6 9 8
3 7 8 10
3 11 12 13
3 13 14 15
3 16 17 18
3 16 19 17
3 18 17 20
3 21 22 23
3 24 25 26
3 26 25 27
3 28 29 30
3 31 32 33
3 32 34 33
3 35 36 37
3 35 38 36
3 39 40 41
3 40 42 41
3 40 43 42
3 41 42 19
3 44 45 46
3 46 47 48
3 43 40 49
3 49 40 50
3 51 52 53
3 53 52 49
3 51 54 52
3 54 55 52
3 54 56 55
3 52 55 49
3 56 54 57
3 57 54 51
3 49 55 43
3 55 56 43
3 58 59 60
3 60 59 61
3 58 62 59
3 62 63 59
3 62 64 63
3 59 63 61
3 64 62 65
3 65 62 58
3 61 63 66
3 63 64 66
3 16 41 19
3 38 67 68
3 67 69 68
3 67 70 69
3 68 69 27
3 43 71 72
3 71 73 72
3 71 74 73
3 72 73 66
3 19 75 76
3 75 77 76
3 75 66 77
3 76 77 78
3 78 79 80
3 79 81 80
3 79 65 81
3 80 81 15
3 65 82 81
3 82 83 81
3 82 1 83
3 81 83 15
3 65 84 82
3 84 85 82
3 84 86 85
3 82 85 1
3 15 83 87
3 83 88 87
3 83 1 88
3 87 88 89
3 90 91 92
3 91 93 92
3 91 29 93
3 92 93 44
3 48 94 95
3 94 96 95
3 94 22 96
3 95 96 90
3 74 71 97
3 56 71 43
3 66 73 61
3 61 73 98
3 86 84 99
3 58 84 65
3 78 77 79
3 64 77 66
3 65 79 64
3 64 79 77
3 89 88 100
3 0 88 1
3 1 85 2
3 2 85 101
3 15 87 13
3 13 87 102
3 78 80 103
3 14 80 15
3 19 76 17
3 90 96 104
3 21 96 22
3 27 69 26
3 29 91 30
3 30 91 105
3 35 67 38
3 66 75 72
3 42 75 19
3 43 72 42
3 42 72 75
3 90 92 95
3 46 92 44
3 48 95 46
3 46 95 92
3 39 106 50
3 106 107 50
3 106 38 107
3 50 107 53
3 53 108 109
3 108 110 109
3 108 27 110
3 109 110 111
3 29 112 113
3 112 114 113
3 112 115 114
3 113 114 4
3 44 116 117
3 116 101 117
3 116 4 101
3 117 101 86
3 74 97 118
3 97 119 118
3 97 57 119
3 118 119 48
3 57 120 121
3 120 122 121
3 120 111 122
3 121 122 22
3 39 50 40
3 49 50 53
3 111 120 109
3 51 120 57
3 53 109 51
3 51 109 120
3 57 97 56
3 56 97 71
3 4 114 3
3 86 101 85
3 2 101 4
3 22 122 23
3 111 110 123
3 25 110 27
3 115 112 124
3 28 112 29
3 38 106 36
3 36 106 125
3 44 117 45
3 47 118 48
3 53 107 108
3 68 107 38
3 27 108 68
3 68 108 107
3 4 116 113
3 93 116 44
3 29 113 93
3 93 113 116
3 57 121 119
3 94 121 22
3 48 119 94
3 94 119 121
3 5 126 127
3 126 128 127
3 126 129 128
3 127 128 31
3 129 130 131
3 130 132 131
3 130 10 132
3 131 132 133
3 10 134 132
3 10 135 134
3 135 124 134
3 135 115 124
3 74 98 73
3 61 98 60
3 60 99 58
3 58 99 84
3 129 126 130
3 7 126 5
3 10 130 7
3 7 130 126
3 115 135 136
3 8 135 10
3 137 16 18
3 39 138 125
3 138 137 125
3 138 16 137
3 125 137 139
3 23 140 141
3 142 140 123
3 140 143 123
3 140 23 143
3 123 143 111
3 142 123 25
3 25 123 110
3 144 124 28
3 28 124 112
3 31 128 32
3 39 125 106
3 36 125 139
3 45 145 46
3 145 47 46
3 45 146 145
3 146 147 145
3 146 60 147
3 145 147 47
3 60 146 99
3 146 148 99
3 146 45 148
3 99 148 86
3 47 147 149
3 147 98 149
3 147 60 98
3 149 98 74
3 16 138 41
3 41 138 39
3 111 143 122
3 122 143 23
3 86 148 117
3 117 148 45
3 47 149 118
3 118 149 74
3 89 150 102
3 150 151 102
3 150 5 151
3 102 151 11
3 11 152 153
3 152 154 153
3 152 31 154
3 153 154 155
3 9 156 136
3 156 157 136
3 156 3 157
3 136 157 115
3 9 158 156
3 158 159 156
3 158 0 159
3 156 159 3
3 3 159 2
3 2 159 0
3 5 150 6
3 9 136 8
3 8 136 135
3 89 102 87
3 13 102 11
3 11 153 12
3 33 154 31
3 32 160 34
3 160 161 34
3 161 160 162
3 160 163 164
3 160 32 163
3 164 163 129
3 129 165 164
3 165 162 164
3 165 166 162
3 164 162 160
3 115 157 114
3 114 157 3
3 11 151 152
3 127 151 5
3 31 152 127
3 127 152 151
3 129 163 128
3 128 163 32
3 166 165 167
3 131 165 129
3 6 168 9
3 9 168 158
3 12 169 13
3 169 14 13
3 12 170 169
3 170 171 169
3 170 20 171
3 169 171 14
3 20 170 172
3 170 173 172
3 170 12 173
3 172 173 155
3 20 172 18
3 174 175 176
3 175 177 176
3 175 26 177
3 176 177 70
3 26 175 24
3 155 178 179
3 178 180 179
3 178 33 180
3 179 180 181
3 181 180 34
3 34 180 33
3 70 182 183
3 34 182 181
3 37 179 181
3 181 184 37
3 184 35 37
3 70 185 182
3 185 184 182
3 185 35 184
3 182 184 181
3 70 177 69
3 69 177 26
3 35 185 67
3 67 185 70
3 158 100 0
3 0 100 88
3 89 100 186
3 100 168 186
3 100 158 168
3 186 168 6
3 89 186 150
3 150 186 6
3 155 173 153
3 153 173 12
3 33 178 154
3 154 178 155
3 139 187 188
3 187 189 190
3 187 18 189
3 190 189 155
3 17 191 20
3 20 191 171
3 192 193 194
3 193 195 194
3 193 21 195
3 141 195 23
3 23 195 21
3 30 196 28
3 28 196 197
3 196 198 199
3 196 30 198
3 199 198 192
3 161 183 34
3 34 183 182
3 155 200 190
3 200 188 190
3 200 37 188
3 190 188 187
3 139 188 36
3 36 188 37
3 161 201 183
3 201 202 183
3 201 203 202
3 183 202 70
3 78 204 76
3 76 204 17
3 18 187 137
3 137 187 139
3 203 201 205
3 162 201 161
3 171 103 14
3 14 103 80
3 78 103 204
3 103 191 204
3 103 171 191
3 204 191 17
3 155 189 172
3 172 189 18
3 37 200 179
3 179 200 155
3 70 202 176
3 176 202 203
3 206 207 208
3 207 209 208
3 207 141 209
3 208 209 142
3 24 210 25
3 210 142 25
3 142 210 208
3 210 211 208
3 210 24 211
3 208 211 206
3 206 211 212
3 211 213 212
3 211 24 213
3 212 213 174
3 144 214 215
3 214 216 215
3 214 197 216
3 215 216 206
3 197 214 28
3 28 214 144
3 133 217 167
3 217 218 167
3 217 219 218
3 167 218 166
3 219 220 218
3 220 205 218
3 220 203 205
3 218 205 166
3 219 221 220
3 221 222 220
3 221 174 222
3 220 222 203
3 174 221 212
3 221 223 212
3 221 219 223
3 212 223 206
3 206 223 224
3 223 217 224
3 223 219 217
3 224 217 133
3 134 225 132
3 225 226 132
3 134 227 225
3 227 228 225
3 227 144 228
3 225 228 226
3 226 229 132
3 132 229 133
3 144 227 124
3 124 227 134
3 133 229 224
3 229 230 224
3 229 226 230
3 224 230 206
3 226 228 230
3 228 215 230
3 228 144 215
3 230 215 206
3 142 209 140
3 140 209 141
3 133 167 131
3 131 167 165
3 166 205 162
3 162 205 201
3 174 213 175
3 175 213 24
3 203 222 176
3 176 222 174
3 194 231 192
3 192 231 199
3 194 232 231
3 232 207 233
3 232 141 207
3 233 207 206
3 141 232 195
3 195 232 194
3 193 104 21
3 21 104 96
3 90 104 105
3 104 234 105
3 104 193 234
3 105 234 198
3 197 235 216
3 235 236 216
3 236 235 231
3 216 236 206
3 206 236 233
3 236 231 233
3 199 231 235
3 233 231 232
3 199 235 196
3 196 235 197
3 198 234 192
3 192 234 193
3 90 105 91
3 30 105 198

CELL_TYPES 470
5
5
5
5
5
5
5
5
5
5
5
5
5
5
5
5
5
5
5
5
5
5
5
5
5
5
5
5
5
5
5
5
5
5
5
5
5
5
5
5
5
5
5
5
5
5
5
5
5
5
5
5
5
5
5
5
5
5
5
5
5
5
5
5
5
5
5
5
5
5
5
5
5
5
5
5
5
5
5
5
5
5
5
5
5
5
5
5
5
5
5
5
5
5
5
5
5
5
5
5
5
5
5
5
5
5
5
5
5
5
5
5
5
5
5
5
5
5
5
5
5
5
5
5
5
5
5
5
5
5
5
5
5
5
5
5
5
5
5
5
5
5
5
5
5
5
5
5
5
5
5
5
5
5
5
5
5
5
5
5
5
5
5
5
5
5
5
5
5
5
5
5
5
5
5
5
5
5
5
5
5
5
5
5
5
5
5
5
5
5
5
5
5
5
5
5
5
5
5
5
5
5
5
5
5
5
5
5
5
5
5
5
5
5
5
5
5
5
5
5
5
5
5
5
5
5
5
5
5
5
5
5
5
5
5
5
5
5
5
5
5
5
5
5
5
5
5
5
5
5
5
5
5
5
5
5
5
5
5
5
5
5
5
5
5
5
5
5
5
5
5
5
5
5
5
5
5
5
5
5
5
5
5
5
5
5
5
5
5
5
5
5
5
5
5
5
5
5
5
5
5
5
5
5
5
5
5
5
5
5
5
5
5
5
5
5
5
5
5
5
5
5
5
5
5
5
5
5
5
5
5
5
5
5
5
5
5
5
5
5
5
5
5
5
5
5
5
5
5
5
5
5
5
5
5
5
5
5
5
5
5
5
5
5
5
5
5
5
5
5
5
5
5
5
5
5
5
5
5
5
5
5
5
5
5
5
5
5
5
5
5
5
5
5
5
5
5
5
5
5
5
5
5
5
5
5
5
5
5
5
5
5
5
5
5
5
5
5
5
5
5
5
5
5
5
5
5
5
5
5
5
5
5
5
5
5
5
5
5
5
5
5
5
5
5
5
5
5
5
5
5
5
5
5
5
5
5
5
5
5
5
5
5
5
5
5
5
5
5
5

CELL_DATA 470
SCALARS cell_data_0 double
LOOKUP_TABLE default
5.875173012e-07
5.10854771916e-07
4.02408546789e-07
7.40986443335e-07
7.29778259935e-07
8.27068371582e-07
7.02457341971e-07
6.70816918248e-07
5.56164161605e-08
4.1111659119e-07
3.85503926054e-07
3.42431452909e-08
3.51146274791e-07
2.13522337047e-07
8.0615870113e-07
4.30148180318e-07
4.47567020098e-07
3.3024439624e-07
2.34876210386e-07
6.7592348755e-08
3.80493773131e-07
1.25848198716e-07
2.71893111582e-07
1.88200419795e-07
3.42724424778e-07
3.50535838076e-08
2.93234258933e-08
4.33617200416e-07
4.15034683968e-07
5.48273768273e-07
1.21612193859e-07
4.16936163458e-07
3.98568820258e-07
4.32678246273e-07
4.31504066853e-07
2.59325989345e-07
2.87961038116e-07
4.03860761616e-08
3.64014186268e-08
2.69932600447e-07
5.27551816978e-08
4.81089909085e-07
3.81371972831e-07
3.58298114882e-07
2.17147992351e-07
2.68045321422e-07
3.12425757783e-07
2.93349377939e-07
2.58689291265e-07
6.49729929491e-07
1.07638422163e-06
1.77018609005e-07
5.07274864347e-08
1.54583449965e-07
5.78403005586e-07
2.26704855286e-07
3.54973632307e-07
2.5114458405e-07
2.14484045544e-07
1.53116492427e-07
4.12829044047e-08
7.19777405046e-08
1.98398968495e-07
2.0416202484e-08
9.67561090191e-08
8.69486292139e-08
1.35310505567e-07
2.4967293957e-07
2.63104707959e-07
4.17770150446e-08
4.15802163772e-07
1.93887801115e-07
2.361403364e-07
1.41220392891e-07
8.5780986369e-08
8.32223963548e-09
5.76986994181e-08
2.48604196233e-07
2.85425663925e-07
6.73104480035e-08
1.27318247304e-07
1.76890217033e-07
2.3922006587e-07
1.7967597104e-08
7.27236052425e-07
6.85525889318e-08
1.53397535941e-07
1.85533872926e-07
9.15616219459e-07
1.96798660968e-07
9.78415136091e-07
2.31651872206e-08
9.96011771502e-08
4.2547914272e-07
1.3676907493e-07
2.77580942315e-07
1.40309193688e-07
2.54136250245e-07
3.42244788461e-07
3.98441263783e-07
1.26308441165e-08
3.7975682302e-07
6.1376896962e-07
2.71542700793e-08
8.92609892823e-08
2.67113479803e-07
4.22593506021e-07
5.6875078128e-07
1.57723472202e-07
4.63896538613e-08
5.44699724465e-07
7.44275533527e-08
1.75092699009e-07
6.19730794741e-07
1.19736737464e-07
8.92496537183e-08
3.15114399593e-07
4.50062728182e-07
6.31973522078e-08
3.53331760278e-08
4.20917299482e-07
4.43715524274e-07
3.52676113973e-09
1.37058546689e-07
5.26938119143e-07
4.07521285719e-08
1.34195619043e-07
2.03487356791e-07
3.10303543886e-07
2.2347249572e-07
6.859508636e-08
1.55656405029e-07
5.20660563174e-08
2.85244892361e-08
1.63135504524e-07
2.94634995532e-07
5.34466891937e-09
3.44231729451e-07
1.78564982662e-07
9.64298889335e-09
2.73177274036e-07
1.04892542106e-06
7.20392483238e-08
1.02210132256e-06
5.02300584499e-08
8.85697786001e-09
8.89850716765e-08
1.15748234258e-07
2.38746857247e-08
1.24289878989e-07
1.09419557555e-07
3.04231968598e-08
2.69664212416e-07
1.49342232783e-07
2.83582743575e-07
2.43160862649e-07
2.69728027662e-07
1.14237018884e-07
1.11507340732e-07
2.08573125128e-08
3.95059542472e-08
6.50865667505e-09
3.39823339504e-07
5.01124507932e-07
7.05623243061e-08
1.79951385478e-07
1.27148326787e-07
3.39396772822e-07
4.94272998481e-08
1.32710153844e-07
4.62870401262e-07
1.04354752545e-07
1.70655024788e-07
3.30159638522e-07
2.06370384507e-07
6.93128660947e-08
2.57123452801e-07
3.36192805339e-08
3.11494590451e-07
2.86789159416e-07
6.3882719428e-07
1.73954768559e-07
5.02212863108e-07
2.43313989922e-07
7.48642702547e-07
9.55295132172e-07
1.71825400884e-07
1.903318135e-07
1.50609924074e-07
3.23288111821e-07
5.37980368796e-08
1.44549430895e-07
3.59836257665e-07
4.41720229335e-07
2.18048695595e-08
5.69164094411e-07
2.62756092918e-07
1.38014782758e-08
2.66326514464e-07
1.22771076284e-07
6.62205037956e-07
8.30565973144e-08
4.81004198601e-09
2.40578910599e-07
2.82035411037e-07
3.81047885836e-07
1.14796249661e-07
6.51528207934e-07
2.8735777524e-08
7.18423427461e-07
1.20762483028e-07
4.13323776907e-07
2.19812489275e-07
1.40653365635e-07
2.66544868483e-07
2.42898985565e-07
2.70013141559e-07
9.4349079155e-08
2.96603854529e-07
3.8440559486e-08
1.57135796143e-07
3.8353441898e-07
8.09199191229e-08
9.7113415242e-08
1.66095291768e-07
4.58320107662e-07
2.7530449202e-07
2.02822033819e-08
1.34513784e-08
2.40533797117e-07
4.67504033504e-08
5.75129261452e-08
5.50498277222e-08
8.34488409158e-08
2.30455414099e-07
5.44663193595e-08
5.45589578523e-07
4.57456468612e-07
1.39939618188e-07
3.83376315737e-07
1.85106098102e-07
6.63450319925e-07
8.52920399442e-08
1.48583586053e-07
7.43115907052e-08
3.22213921901e-07
1.3105054687e-08
1.92532462949e-07
2.44021675212e-07
2.28534976382e-07
2.174664478e-07
9.75509698237e-08
5.6623144909e-07
4.79123628537e-07
2.84753483266e-07
4.48799130566e-07
9.12870874014e-08
2.41050683079e-07
5.43323527219e-07
3.63884121437e-08
2.51513414156e-08
6.39836239346e-08
3.90135205744e-08
2.47400060106e-07
2.32297249841e-07
9.90976985918e-09
1.46283889243e-07
9.65383814785e-08
2.69428379735e-07
6.9466115363e-08
1.08427173396e-07
1.12731893241e-07
6.87967899961e-08
3.06224643724e-07
4.23981387744e-07
2.08190076959e-07
3.71005519755e-08
1.70430367415e-07
2.86766657323e-07
1.52951959214e-07
1.16621231981e-07
3.33002243262e-07
7.20752244294e-09
3.00448698426e-07
1.19985653663e-07
7.44016846525e-08
1.50308924561e-07
1.75229631426e-07
4.76598895967e-08
1.8207197806e-07
2.91642225424e-08
1.74329382195e-07
1.58466564006e-07
1.26631933047e-07
1.38830953851e-07
1.62105320338e-07
3.04888412866e-07
1.14070930509e-08
5.14988659858e-08
1.76308316492e-07
2.99789333446e-07
6.11496460618e-08
3.48944135324e-08
3.37595822304e-07
1.90854655766e-07
6.02895835302e-07
1.53766354654e-07
1.24324510639e-07
3.95525592641e-07
1.00984260122e-07
4.10778947228e-08
2.91022731591e-07
1.19348238573e-07
1.09657866965e-08
1.90596965741e-08
5.79257208124e-09
1.02279426173e-07
1.46533051119e-07
2.83569714907e-07
9.1047383207e-08
3.24970378265e-08
3.71031668139e-07
1.5128406724e-07
1.53741866663e-07
9.98852768178e-08
1.92563613226e-07
1.67001105175e-07
3.10393807665e-07
8.4486288831e-08
5.36904822013e-08
2.01308381847e-07
1.59944340648e-07
1.59005946832e-07
1.0979885498e-07
2.27165460258e-07
3.64624653239e-07
2.26472723453e-07
2.69481430237e-07
3.30564802173e-07
1.19071867864e-07
1.49751217364e-07
3.09588004446e-07
2.80387031625e-07
2.78211358867e-07
1.06596677368e-07
1.34946680596e-07
4.34781345912e-09
2.9464105783e-08
2.18879919211e-07
5.57412621255e-07
6.62355835671e-08
2.15934034348e-07
1.10156787468e-07
1.38029260936e-07
2.45086012292e-09
5.29111586831e-07
1.75246195501e-07
6.09687157091e-08
7.33452889539e-08
5.1999539969e-07
1.74400362076e-07
2.71450939128e-07
2.44553816174e-07
2.10620425941e-07
2.80203575173e-07
1.96803404264e-07
1.61242189167e-07
3.95375150044e-07
4.20874807833e-08
1.39593895833e-07
1.79506375394e-07
2.10236978453e-08
4.74856814595e-08
2.39768929476e-07
1.71444324442e-08
1.23033242803e-07
1.75152580976e-07
2.53527144953e-07
2.70997104085e-07
2.74901954749e-09
9.64935362143e-08
3.13649861793e-08
8.06526772516e-08
4.39286484405e-08
7.29177968485e-09
1.79978862025e-07
9.37629512012e-08
3.20764162103e-07
3.65702276712e-08
7.11998557232e-09
1.4745360729e-07
1.29959195482e-07
7.33504350677e-08
1.17904312849e-07
5.03149084491e-07
3.10678671669e-09
1.20116163564e-07
1.75841135994e-07
1.1011418148e-08
1.62986530059e-07
1.45679935489e-07
2.3458352688e-08
1.1294741449e-07
5.29623107993e-08
3.57318027689e-07
1.0196261067e-07
7.01419526468e-08
8.00891799921e-08
2.34877607563e-07
7.41033023443e-08
1.27152190357e-07
1.54597311784e-08
3.40763248031e-07
1.89985456466e-07
8.94597398606e-08
2.16552019189e-07
2.29496755393e-07
1.60701249789e-07
3.07544198101e-07
1.86995245592e-07
1.19388101426e-08
3.37189523667e-07
1.8095166011e-07
2.51058327419e-07
4.91025011125e-08
9.02923723926e-09
3.04655223369e-08
1.67352778406e-07
1.11910721588e-07
2.55831730752e-08
2.02316152911e-07
1.11165698229e-07
4.65249831448e-07
1.83996863884e-07
2.42917340063e-07
3.51601045175e-07
9.18651427045e-08
3.03575674569e-07
4.08759126179e-07
3.4464559326e-07
2.17855341634e-07
1.67611856587e-07
2.38103481101e-07
3.06960768451e-07
1.83305062915e-07
7.93720751934e-08
2.05756103842e-07
1.83963832964e-07
4.23815230842e-07
1.06515246465e-07
1.10638926027e-07
4.52379338811e-07
7.38761307636e-07
1.12515273114e-07
1.50643000529e-10
6.03378386414e-08
1.8845793889e-07
8.30166885074e-08
6.67826613342e-07
2.56939369412e-07
1.07285012945e-07
2.20672149803e-07
1.91631607585e-07
6.60513753402e-07
1.0662823677e-07
3.39817178932e-07
7.46734805823e-08
9.801669663e-08
8.63799610276e-08
4.63362875836e-08

