# vtk DataFile Version 3.0
File Name: Molecule/sphere_cent/sphere_cent_0-s18.vtk
ASCII
DATASET UNSTRUCTURED_GRID
FIELD FieldData 1
TIME 1 1 double
0.0
POINTS 644 double
0.25301420689 0.96173232794 -0.10410729051
0.29532152414 0.94831496477 0.095857486129
0.40854376554 0.91078472137 -0.05573483184
-0.52283799648 0.67287969589 0.52313661575
-0.49555170536 0.58658576012 0.64043450356
-0.37487384677 0.71108257771 0.59477949142
0.016574447975 -0.55911904573 0.82888895273
0.089134424925 -0.4403231442 0.89337688684
-0.072790749371 -0.39608451724 0.9152572155
-0.033559270203 -0.23852910101 0.97056436539
-0.17442145944 -0.2368940711 0.95565253496
0.19657173753 0.26771786809 0.94284802675
0.26240548491 0.051070556045 0.96360069513
0.40427899361 0.21263380349 0.88941973448
0.4342906177 -0.71856462955 0.54182547331
0.54779773951 -0.74027013779 0.38874837756
0.49855479598 -0.64258646965 0.57759082317
0.62455737591 -0.44156467915 0.64349234104
0.68037462234 -0.58194208145 0.44546082616
0.77508604527 -0.39812773466 0.48940607905
0.23422762752 -0.72675764561 0.64562666416
0.25443446636 -0.83939009905 0.48007518053
0.84584712982 -0.44110113382 0.29907956719
0.68038880825 -0.699888587 0.21331378818
-0.2163105309 -0.88106101751 -0.41949525476
-0.017711166292 -0.87782180309 -0.47862848639
-0.039873577654 -0.96253818274 -0.26720330119
-0.24816334248 -0.8870613575 0.38733810186
-0.041580822319 -0.95490080118 0.29271396995
-0.062003459781 -0.87674677372 0.47663003206
-0.75514990091 0.102529414 0.6468757391
-0.8705471158 -0.013360261917 0.49180829525
-0.73048192263 -0.13568222523 0.6692276597
-0.84009420872 0.22204700112 0.49472692609
-0.85213208199 -0.24765992165 0.4591628015
-0.94722783566 0.1350684464 0.28924721479
-0.94470363855 -0.15369533002 0.28779271245
0.25293436646 -0.47726365924 -0.84084933996
0.17182092369 -0.64769464731 -0.74222463369
0.06372474879 -0.53650212288 -0.8411860466
0.10362586379 0.867002666 0.48521205783
0.26920497417 0.79487729073 0.54325646162
0.26489123702 0.87782782316 0.39841252565
0.42285919189 0.79194372892 0.44018745422
0.34346276522 0.89167869091 0.29329785705
-0.96611863375 0.093742787838 -0.23938629031
-0.89805090427 0.25128144026 -0.3610881269
-0.87681657076 0.074836418033 -0.47471961379
-0.81638008356 0.35463228822 -0.45576429367
-0.82087951899 0.46689730883 -0.32868555188
-0.93911629915 0.29185509682 -0.1794629842
-0.44442436099 -0.72797417641 0.52009499073
-0.35486143827 -0.65397983789 0.66790872812
-0.54084068537 -0.57124108076 0.61737924814
-0.49669983983 -0.42055180669 0.75916337967
-0.63730061054 -0.386890769 0.66624641418
-0.24901899695 -0.78427785635 0.56811118126
-0.17151857913 -0.7015184164 0.69159215689
-0.5765427947 -0.24794329703 0.77852362394
-0.4369071126 -0.27228215337 0.85729151964
-0.56719660759 -0.059864535928 0.82096469402
0.89899224043 -0.38763383031 -0.20332200825
0.94877463579 -0.13718222082 -0.28448319435
0.9670547843 -0.24618691206 -0.054715499282
0.99589008093 -0.0048861121759 -0.088865615427
0.94937127829 0.1415284276 -0.28047293425
0.9770796299 0.21051138639 -0.031099488959
0.48304873705 -0.80753487349 -0.33837461472
0.34634447098 -0.9011707902 -0.26056537032
0.30906447768 -0.84956067801 -0.42708411813
0.15143315494 -0.93043065071 -0.33361673355
0.20671501756 -0.96387666464 -0.16819798946
0.54125976562 -0.82507622242 -0.16189846396
0.40804028511 -0.90635371208 -0.10885047913
0.54026675224 -0.8403930068 0.024888630956
0.45029273629 0.43422630429 -0.77965474129
0.33001244068 0.55578148365 -0.76269370317
0.53513723612 0.51796418428 -0.66636323929
0.27580520511 0.38156652451 -0.88215053082
0.29729545116 0.13181141019 -0.94446313381
0.16231882572 0.25232347846 -0.95365637541
0.36309304833 0.21447132528 -0.905990839
0.43658638 0.27817225456 -0.85467463732
0.87394607067 0.014829587191 -0.48503938317
0.84421509504 -0.18289403617 -0.50292670727
0.85273420811 0.23967812955 -0.46380642056
0.54644244909 0.035088073462 -0.83575195074
0.58161473274 0.24071343243 -0.77612817287
0.69768327475 0.13089442253 -0.70365071297
0.10821547359 0.10356227309 -0.98869216442
0.65101104975 -0.71134519577 -0.26486369967
0.96338814497 0.16108797491 0.21432201564
0.89744085073 0.26004382968 0.35620486736
0.91662818193 0.074439793825 0.39267116785
0.831559062 0.16164067388 0.53139048815
0.80564367771 0.33228954673 0.49038100243
0.83428454399 -0.02739931643 0.55068808794
0.82838284969 0.44567224383 0.33847299218
0.94161403179 0.30827823281 0.1349042505
-0.29452630877 0.50950920582 -0.80850416422
-0.36379158497 0.6197026968 -0.69535803795
-0.18560265005 0.61597490311 -0.7654967308
-0.44761389494 0.71055960655 -0.54216217995
-0.27445086837 0.77882641554 -0.56371539831
0.78120344877 0.55980908871 -0.27600800991
0.7091896534 0.54681974649 -0.44481545687
0.65093976259 0.66788554192 -0.35828691721
0.34269443154 0.90216273069 -0.26192077994
0.04687763378 0.85011512041 -0.52428841591
0.16582579911 0.91402542591 -0.36950820684
0.29006016254 0.82590281963 -0.48349514604
0.45988228917 0.81650656462 -0.34794148803
0.85219866037 -0.52085828781 -0.040898427367
0.71510672569 -0.69310903549 -0.08789742738
0.785389781 -0.57954287529 -0.21735113859
0.69939917326 -0.58433789015 -0.41165742278
0.61972022057 0.71692228317 0.31706568599
0.75910025835 0.59913301468 0.25467839837
0.68903106451 0.70677095652 0.16021621227
0.68868756294 0.59037488699 0.42087888718
0.81082934141 0.58293694258 0.042515281588
0.71946591139 0.26038819551 0.64388209581
-0.81029087305 -0.3200686872 -0.49080866575
-0.90254038572 -0.23715621233 -0.35909512639
-0.85191708803 -0.18921662867 -0.48831477761
-0.9243657589 -0.072294704616 -0.37446129322
-0.97505962849 -0.13180819154 -0.17823922634
-0.65602976084 -0.5380012393 -0.52926504612
-0.75934922695 -0.46931117773 -0.45059576631
-0.71699076891 -0.39447978139 -0.57470691204
-0.67592304945 -0.6172773242 -0.4018034935
0.25909084082 0.69092518091 -0.67462235689
0.40762144327 0.69099956751 -0.59600532055
0.69525665045 0.71850216389 0.010778928176
0.15437406301 0.54549950361 -0.82364034653
-0.012237153016 0.53542786837 -0.84444081783
0.043042581528 0.64480274916 -0.76300227642
0.083081893623 0.39616876841 -0.91433191299
0.74634128809 0.064756587148 0.66227430105
0.712911129 -0.14778186381 0.68498045206
0.58951282501 0.2566652596 0.76571160555
0.58362525702 0.41767537594 0.69622665644
-0.52414774895 -0.0014991861535 -0.85161882639
-0.74118846655 0.045711565763 -0.66980677843
-0.69205975533 0.16774249077 -0.70123946667
-0.79807031155 0.21182951331 -0.56396335363
-0.55231505632 0.26895794272 -0.78854238987
-0.4234790206 0.25929823518 -0.86798518896
-0.43550691009 0.42656323314 -0.79268872738
-0.27382206917 0.3586665988 -0.89237737656
-0.28376299143 -0.52129137516 -0.80480706692
-0.41691687703 -0.40643322468 -0.81295448542
-0.26628357172 -0.37236210704 -0.88908320665
-0.54149669409 -0.27347487211 -0.79513579607
-0.41406151652 -0.25878986716 -0.87258988619
-0.53491258621 -0.42409360409 -0.73066806793
0.028546456248 -0.040616955608 -0.99856376648
-0.10364172608 0.084406703711 -0.99101769924
-0.0020696520805 0.24464420974 -0.96958422661
-0.16211113334 0.24607294798 -0.95559841394
-0.083870969713 0.38256084919 -0.92011678219
-0.163363114 0.49213171005 -0.85500103235
-0.31681260467 0.15166759491 -0.93640309572
-0.2674139142 -0.0052340449765 -0.96349823475
-0.12105682492 -0.081228479743 -0.98937779665
-0.12550540268 -0.53295946121 -0.83678174019
-0.084602534771 -0.3919788599 -0.91578811407
-0.16073572636 -0.29067674279 -0.94300353527
-0.17452824116 -0.66926413774 -0.72216635942
-0.0071579739451 -0.66392701864 -0.74769717455
-0.30232900381 -0.16300033033 -0.93936598301
0.25725644827 -0.02852730453 -0.96581834555
-0.55160337687 0.49779066443 -0.66871756315
-0.75469094515 -0.23349505663 -0.61313128471
-0.82212233543 -0.068910568953 -0.56510972977
-0.71573513746 -0.095124259591 -0.69188737869
-0.92644876242 -0.30772015452 -0.21602337062
-0.9581490159 -0.28203746676 0.015495732427
-0.84932905436 -0.38189318776 -0.36424845457
-0.79794353247 -0.51931285858 -0.3049159348
-0.64398038387 -0.33802706003 -0.68632411957
-0.64647680521 -0.20079305768 -0.73601400852
-0.6097676158 -0.47303926945 -0.63593125343
0.55972164869 -0.63190609217 -0.5360929966
0.63707852364 -0.52195161581 -0.56710261106
0.50699520111 -0.55127185583 -0.66257065535
0.42924237251 -0.66421633959 -0.61201858521
0.57235324383 -0.43632337451 -0.69403856993
0.58406639099 -0.69978165627 -0.41132384539
0.4614521265 -0.74305546284 -0.48461252451
0.43650364876 -0.44832527637 -0.78001183271
0.35410502553 -0.5800113678 -0.73358970881
-0.42552021146 -0.69137048721 -0.58369827271
-0.46004787087 -0.77414876223 -0.43461340666
-0.56386840343 -0.67021870613 -0.48256346583
-0.58613085747 -0.73513621092 -0.34041464329
-0.4967251718 -0.83648818731 -0.23002389073
-0.15148122609 0.93723404408 -0.31399595737
-0.29323038459 0.87411761284 -0.38650047779
-0.25789910555 0.95125550032 -0.16812931001
-0.021148584783 0.96984428167 -0.24285902083
-0.010937554762 0.92103928328 -0.3893186748
-0.13910363615 0.87583327293 -0.46212345362
-0.41190296412 0.1996088475 0.88886535168
-0.42723867297 0.0074658291414 0.90403109789
-0.30980682373 0.066041186452 0.94824796915
0.44038915634 0.034998401999 0.89709341526
0.55946451426 0.13289250433 0.81774002314
0.089112110436 -0.81678926945 0.57007074356
0.10342022777 -0.91311490536 0.3943259716
-0.076259672642 -0.7858940959 0.61361038685
0.01792174764 -0.71601468325 0.6978173852
0.38511005044 -0.11089684814 0.91617834568
0.50570684671 -0.12932175398 0.85275661945
0.45032885671 -0.27758815885 0.84827566147
0.25366091728 -0.20531123877 0.94515317678
-0.89948278666 -0.42297893763 -0.1090105772
-0.6869263649 -0.71137207747 -0.14527310431
-0.097334958613 0.8760972023 0.47140997648
-0.19922223687 0.80520927906 0.55812573433
-0.077425070107 0.7830850482 0.61689275503
-0.25045785308 0.88391137123 0.39485156536
-0.10651976615 0.68492674828 0.72067314386
-0.23563611507 0.70708781481 0.6666855216
-0.87354207039 0.47769036889 0.091751545668
[...]
CELL_DATA 1284
SCALARS cell_data_0 double
LOOKUP_TABLE default
9.81188572746e-08
4.07693335896e-08
1.03051554808e-07
7.87436438079e-08
1.70581351667e-07
1.66993740456e-07
2.79009024291e-07
3.97663441438e-07
6.77188100399e-08
1.74840362175e-07
1.52848679179e-07
1.57785777513e-07
2.56936510663e-08
8.02828897433e-08
2.10773101599e-07
2.84229753472e-07
1.90249992312e-07
1.07442766882e-07
9.42541822479e-08
2.79768066357e-08
1.32732278047e-07
9.4690421797e-08
1.45904692581e-07
3.21299676108e-08
1.26560302367e-07
1.35246904755e-07
7.90716842436e-09
3.14727814602e-08
2.07582200001e-07
7.6389796447e-08
1.89900214632e-07
2.33654417335e-07
2.29077514019e-08
3.63505012525e-07
4.87519361085e-08
1.57548988529e-07
1.00042435862e-07
1.41926343854e-07
2.18291568057e-07
1.32829595168e-07
9.78857544013e-08
8.31564696741e-09
3.24692989517e-08
1.03026871635e-07
7.97199149423e-08
4.33549419812e-08
1.75380866737e-07
2.39713251606e-08
7.37682569664e-08
1.06320144906e-07
5.02982768104e-08
3.94739849599e-08
1.74558002012e-07
2.75777658636e-07
1.09695238217e-07
4.06845258864e-08
1.44726547362e-07
3.98798607362e-08
2.74458417093e-08
1.23989838317e-07
7.1789269954e-08
3.46342136889e-08
1.29842830543e-07
2.42679154358e-07
1.88653179072e-07
4.89707682004e-08
1.19653346303e-07
7.63727416921e-08
1.16872606225e-07
5.98293184125e-08
2.22456097992e-07
1.74850621325e-07
1.85840389724e-07
1.09617302647e-07
1.56773158658e-07
3.55019109372e-08
3.2893617162e-09
1.69703992823e-07
3.70721984731e-08
1.72628786478e-08
1.54645656414e-07
6.04844166364e-09
3.21350898723e-08
2.24876841483e-09
2.81498582259e-08
1.35353401788e-07
3.17724126179e-08
4.9057466587e-08
5.68093202105e-08
8.17610847973e-08
2.10681288055e-08
1.32211072066e-07
7.27990814483e-08
8.1620418381e-08
1.71374635987e-07
1.36164069044e-07
6.61276960314e-08
1.57552556779e-07
1.07544394857e-07
2.01685522653e-07
2.33396508946e-07
1.58125417725e-07
1.71067450534e-07
1.14338964187e-07
6.03395234372e-09
4.01424851784e-08
1.7553295569e-07
3.48141356263e-08
1.79411395073e-07
9.98021369154e-08
1.34341375215e-07
9.64919628854e-08
1.65881116567e-07
1.26992236873e-07
2.89539456129e-08
9.94912357869e-08
5.8608521352e-09
4.50323465668e-08
4.08936233691e-08
4.06209064219e-09
4.40199134118e-08
7.03068692476e-08
7.79879321395e-08
6.45424550817e-08
2.36220869494e-08
7.35961707854e-09
1.64070911877e-08
1.00522126718e-07
1.18473683835e-07
2.94085537647e-07
1.39802004529e-08
1.40019048708e-07
1.59245709383e-08
1.36408163509e-08
5.85666071897e-09
8.84056609672e-08
1.08147166116e-07
1.41579701917e-07
1.3013564141e-07
1.24561825998e-07
4.4650195515e-08
2.64168182803e-08
1.02130297919e-08
1.29640701735e-07
3.51410523399e-08
6.18673193533e-08
5.39671943714e-08
4.46918762189e-07
1.54968418964e-07
6.901847685e-08
6.72017586999e-08
2.63308463606e-08
3.26658663842e-08
2.80639232042e-07
9.4120840432e-08
1.08116985521e-07
1.98755201171e-08
1.86771079165e-07
1.56031801003e-07
2.51678877919e-07
2.70860416161e-08
7.52657220572e-08
6.66056963923e-09
1.49504361877e-07
2.54629326681e-08
5.4490636566e-08
4.446707855e-08
1.28330893521e-07
1.11559130316e-07
8.81361431671e-08
1.19572337226e-08
2.71002144774e-08
5.52229807304e-08
9.7427192387e-08
3.18299346922e-08
2.73317426948e-08
3.48077791212e-08
1.02787041536e-07
2.42932582068e-08
1.33371585162e-07
1.11092078476e-08
5.35603694638e-08
2.61363380028e-09
3.53647529009e-08
5.11376211936e-08
4.14250471155e-08
1.37084091211e-07
6.55720034665e-08
4.10587592342e-08
1.51967188124e-07
7.88014158112e-08
2.23003772275e-08
2.25185087824e-08
1.96093217331e-07
3.5144544525e-08
4.0899147296e-08
4.40528889493e-08
2.71009568452e-07
9.85936915283e-08
2.97818531389e-08
3.02341909652e-08
1.82995266692e-07
3.73967013276e-08
1.84734329741e-08
1.14916824177e-07
1.48543433698e-07
1.60864070041e-07
1.50390989328e-07
1.92428688273e-07
4.32708732528e-07
7.39444820651e-08
4.10481406259e-08
1.03441260947e-07
6.36013973012e-08
1.22154468064e-07
9.18865431434e-08
4.55510387546e-08
7.49448641806e-08
1.66918566054e-07
4.60471158186e-08
1.07501484676e-07
1.61457824327e-07
3.91503480369e-08
3.59004827254e-08
5.70104800923e-08
6.80756702735e-08
4.54474869494e-08
7.73984314278e-08
1.36935816854e-07
1.55761919775e-07
6.73186895008e-08
3.80379440275e-08
1.63206831224e-07
4.6512649351e-09
9.1467428547e-08
1.14973917036e-07
1.68380359001e-09
5.0437131416e-08
1.88223578086e-07
6.49989200318e-08
2.53287426201e-07
3.77842671667e-08
3.49932679376e-08
2.29352056754e-08
5.78285973234e-08
7.32730070921e-08
1.86093300297e-07
1.82576402355e-08
5.09402690307e-08
2.55166399712e-08
9.49728060777e-09
2.25720935535e-08
8.00064821215e-08
1.74463963659e-08
2.44686872694e-08
1.17159655041e-07
4.05043791301e-08
1.2928374535e-08
4.3249827616e-09
2.98571978096e-08
4.34477202765e-08
9.54381172585e-08
7.24940714891e-08
2.56773861173e-07
9.23087782668e-08
9.82185104264e-08
3.95698560794e-09
3.45849940939e-08
3.39732363547e-08
1.39924935518e-08
7.253098681e-08
3.98454540468e-08
8.40391588549e-09
5.42779738838e-08
2.24067650971e-08
1.56317556378e-08
6.22399541728e-08
8.02242884433e-08
1.89327447269e-08
1.28321009545e-07
1.5453885134e-07
8.46647248217e-09
1.67908060202e-07
3.58391432612e-08
5.68397640053e-08
2.95612567544e-08
3.53465903271e-09
9.69251607667e-08
6.05743217483e-08
3.88589376294e-08
4.04946425333e-08
6.24389376344e-08
5.83678952617e-09
4.80619944721e-08
1.20705354999e-07
1.13577675108e-07
7.37136940661e-09
1.35949217656e-08
1.80478599271e-08
1.60799252976e-07
4.95514773807e-08
8.07697829667e-08
5.84458086423e-08
1.45664432795e-07
1.11055796145e-07
6.19674333102e-08
3.81929843123e-08
8.20079148297e-08
5.09285793322e-08
1.98859506245e-07
4.14601635092e-08
1.42419383747e-07
1.80302848307e-07
1.45183325081e-07
5.28656218732e-08
5.81780294963e-08
2.98399954603e-09
6.71849901204e-08
1.0976943097e-07
2.39553249672e-07
2.18512973445e-07
4.01367231941e-08
1.456180742e-08
1.4173761309e-08
5.87109960947e-08
8.00495284871e-08
7.10798012923e-09
4.49741415728e-08
9.67732936793e-08
1.160340866e-08
3.68205785034e-08
8.22960412702e-09
3.65923589341e-08
1.63799727406e-07
2.92830302945e-09
7.61645924304e-08
4.63461066863e-08
6.51900177313e-08
1.55020830158e-08
5.46513846076e-08
2.9797087248e-08
7.00952865142e-08
1.19561229736e-07
9.39689998551e-08
2.65265563223e-08
1.04514991775e-07
9.792124995e-09
1.92623600351e-09
6.59309332123e-08
4.39738125874e-08
3.1737512237e-08
5.36210775888e-08
3.65256101434e-08
1.5782684627e-08
3.5773103692e-08
3.18829415708e-08
4.69896024223e-08
9.32907848401e-08
2.8095667773e-08
2.10569904524e-08
6.26154205461e-08
6.28981818568e-08
4.71388613078e-08
4.6885643986e-08
2.46704211564e-08
1.02395195008e-07
3.64559180103e-08
8.52262732158e-10
1.25888739479e-07
6.43179474941e-08
5.91931257735e-08
3.66286040741e-10
7.66095046622e-08
6.36659177926e-08
6.92678717459e-08
4.93006411365e-08
9.30337184818e-08
3.54991847377e-08
1.45510437281e-07
3.57522318508e-08
5.72319012047e-08
7.25437814485e-09
1.01439353346e-07
1.42766882369e-08
1.34039117162e-07
1.04082010937e-07
8.93763021921e-08
3.06121483388e-08
1.11130085775e-07
2.16421402353e-07
3.75507779992e-08
6.93141242639e-08
4.29608691534e-08
9.70098278622e-08
6.11813728367e-08
1.67052885518e-08
2.41303661694e-08
1.2192985651e-07
6.20878849616e-08
1.1164043122e-07
4.571936061e-08
2.28085127251e-07
1.05034326247e-07
4.09411775411e-08
1.13340911578e-07
6.06413214266e-08
1.05217364483e-07
1.6778365731e-09
1.34638136575e-07
5.64649859186e-08
3.11493704372e-08
1.1572201243e-07
3.17198145505e-09
5.45686862966e-08
2.82388916744e-08
6.0612581306e-08
5.25479662362e-09
4.07249960013e-08
2.96268188087e-08
1.73186329296e-07
4.75226879712e-08
3.19809771976e-08
1.02967192975e-07
1.64997244988e-07
3.15529664429e-07
1.91769378832e-08
3.85597135663e-08
1.50294670965e-07
1.10483922823e-07
8.03034596392e-08
9.21474658034e-09
6.06825477879e-08
6.1600055613e-08
2.50274084767e-08
4.69592619817e-08
1.84892023585e-07
2.25565025643e-07
3.09707117551e-09
1.19318056942e-08
7.5452104132e-08
1.28243900857e-08
9.45362663601e-08
1.2651892187e-07
9.67226940223e-08
2.45021261752e-08
9.47818715606e-08
3.01323214484e-08
9.60984587612e-08
7.03736782686e-09
9.56080300563e-08
5.12202815715e-08
8.40215034985e-08
5.31916848975e-08
4.3167266641e-08
1.38959817005e-07
6.80535002342e-08
3.40541194254e-08
3.90252725903e-09
3.15500454962e-08
5.71731355187e-08
2.46420691748e-08
3.19370033242e-08
1.70964766198e-08
5.31819893692e-08
1.23975354048e-07
8.60003398578e-08
1.79544289978e-08
3.96099482714e-08
5.61709213585e-09
4.85684528283e-09
1.22450952819e-08
6.76409062191e-08
2.64736327444e-08
4.20431378984e-08
6.92562880327e-08
5.15301815667e-08
6.21983628993e-08
4.14245742389e-09
6.63832425962e-08
3.64899696684e-08
9.78871551449e-08
9.84672363209e-08
7.78523981123e-08
1.58242287593e-07
2.58487749283e-08
2.58036115502e-08
7.69453311055e-08
7.92306711047e-09
4.06541069542e-08
1.05251350973e-09
9.90481820317e-08
4.73472538172e-08
2.20838136801e-08
2.29121422029e-07
5.17709875821e-09
4.03397176861e-09
7.88064855134e-08
6.65262824506e-08
8.95867766292e-08
1.01923102165e-07
1.7288150059e-07
1.80686200444e-07
7.63167686026e-09
4.02548229488e-09
3.14937431595e-08
3.86412045213e-09
3.1173201918e-08
1.01587655635e-07
6.08818922378e-08
5.32652164383e-08
1.85256772409e-08
2.40784429309e-09
2.55729019088e-08
5.27211920834e-08
1.15943315586e-07
9.58115171006e-09
5.14950285358e-08
4.25254469974e-08
1.3628564154e-08
3.80616052891e-08
8.48898155819e-08
2.99597436029e-08
6.47120645589e-08
4.08447423036e-08
1.68869246205e-08
3.16860797392e-08
9.90994850382e-08
5.47169073429e-08
4.34602098153e-08
6.7122956629e-08
3.31139158908e-09
2.92917911598e-07
6.87125840564e-08
6.75927772846e-08
2.60313183196e-08
6.95198475982e-08
5.15968359459e-08
5.53750071459e-08
1.51253771181e-07
1.22024277735e-07
3.58242829688e-08
5.59036562182e-08
8.8804495627e-08
1.03485755753e-07
1.53593937565e-07
4.31776014982e-08
2.01173850006e-08
1.53311201497e-07
1.2708399061e-07
9.50956321941e-08
2.83202404093e-08
4.13317073773e-08
8.51649761027e-08
1.70345799652e-07
3.18192391576e-08
9.28415321086e-08
5.20664443323e-08
1.07459683371e-07
1.10470122395e-08
3.11626785544e-08
7.74483462656e-08
5.41306043211e-08
4.94723542674e-08
4.69081216418e-08
7.40751437716e-08
1.62913260789e-07
9.52876306463e-08
4.88606801179e-08
1.4181933326e-07
4.19285858858e-08
1.86213162582e-07
1.47857156439e-07
1.20768904646e-07
5.5078577497e-08
8.25834652459e-08
1.42350606596e-07
4.13331593164e-08
1.13470039966e-07
2.78950287276e-08
3.86363441557e-08
7.86400268094e-08
6.9762181386e-08
5.60509598459e-08
2.87052224178e-07
1.45533575757e-08
1.13802363872e-08
2.66037216624e-08
2.0484388155e-08
4.81498239859e-08
8.58052935256e-08
1.58407106056e-08
2.12496704023e-08
1.02521273852e-07
2.53600043913e-08
6.29637247555e-08
1.2346094645e-07
8.07721396121e-08
7.80674270351e-08
2.46799425156e-08
2.9123744612e-09
5.45084532044e-08
2.41199049523e-09
1.28021897863e-07
6.34869700599e-08
5.78361051024e-08
1.99021887722e-08
8.6246838535e-09
2.89555620891e-08
7.13857806799e-08
1.11867538772e-08
7.69687790912e-08
9.88480854032e-08
1.39455804943e-07
4.17677029165e-08
9.19859667327e-08
6.55235796532e-08
1.74240636709e-07
3.49856483629e-08
6.91453086944e-08
3.50750664564e-08
7.79067039442e-09
2.07197892969e-08
7.81179699848e-09
1.2714214625e-08
1.40119999923e-07
4.76176608862e-08
9.00336399728e-08
8.42739870689e-10
3.87866538945e-08
1.03338134061e-08
3.44354896253e-08
5.22307174578e-08
1.60120891545e-08
1.399430938e-08
3.77617611809e-08
3.39382452812e-08
1.08285968413e-10
2.60274460003e-08
5.93542768633e-08
3.23449622484e-08
8.32116862896e-09
8.40788855985e-08
1.26921950797e-08
1.05491886249e-09
8.39184490182e-08
2.68482615192e-08
1.77714999725e-07
3.33475076243e-09
8.52636509158e-08
6.4868784922e-08
1.05123191312e-07
1.89697627668e-08
1.24412630708e-07
3.26952374648e-08
1.38836617009e-07
1.24316296681e-07
6.4232933152e-08
6.22155894243e-08
2.62020305811e-08
2.45759044505e-07
1.02443164915e-07
1.84810069516e-08
1.98388836325e-08
1.49856768857e-08
2.20865243878e-08
4.00733007176e-08
6.47144603021e-08
5.91394977223e-08
6.64462363694e-08
9.23099549813e-08
2.40970873762e-08
2.44089983343e-07
5.48182953379e-08
2.24168186974e-07
5.03913782621e-08
6.87039332222e-08
3.59741653136e-08
3.57697668037e-08
2.9369481597e-09
7.04743218427e-08
2.19962635372e-08
5.15772835208e-08
2.48099987636e-08
9.42271544088e-09
7.95010185006e-08
2.75396103995e-07
1.6681393846e-07
7.46650633714e-09
4.47203173506e-08
4.08326350946e-08
7.64603591103e-08
2.01311892969e-07
9.61595205221e-09
3.91760400919e-08
4.56434847853e-08
1.81063738144e-07
1.00203732603e-07
1.7879691571e-08
2.84235694162e-08
3.35837468341e-08
1.24769373338e-08
6.53792224244e-08
4.13294792979e-08
5.06009658342e-08
2.41197622663e-08
1.01642449863e-07
9.75520741257e-09
1.54584195927e-08
6.45717812281e-08
1.60614539207e-09
1.03538377113e-07
1.18739307739e-07
1.36865510029e-08
1.22658506264e-08
5.2460706612e-11
4.95124184688e-08
2.2072906032e-09
1.85476913908e-08
1.26960735653e-07
8.62247322722e-08
1.33710002865e-08
6.23673679866e-08
1.66035992446e-07
1.13486784575e-07
2.19695389399e-08
4.84792471014e-08
2.62136892417e-08
7.54545939385e-09
1.44899552419e-08
6.99700536514e-08
7.54875104274e-08
1.79950413379e-09
1.63304685847e-08
1.03544917359e-07
6.0135173772e-08
2.81463581165e-08
1.05146687103e-07
1.11241338141e-07
3.2588548071e-08
8.02479182126e-08
6.91789280299e-08
3.14421562052e-08
4.19414047643e-08
5.6727316237e-08
2.72603990112e-08
3.1640032277e-08
5.28893292438e-08
2.15669086794e-08
1.97968826585e-07
1.28546187305e-07
8.98848387445e-08
1.16103015817e-09
2.08152796475e-08
6.98248182723e-08
3.58038726239e-08
1.66052916782e-08
2.5511051879e-08
6.90330694262e-08
4.37020524597e-08
4.82793664322e-08
1.08030054247e-08
4.68247592867e-08
3.596181888e-08
4.25207945058e-08
3.15562176238e-08
9.66326258725e-08
9.10215794643e-09
4.82380913629e-08
3.86416336402e-08
1.5865778377e-08
1.74911947778e-08
9.22305582163e-08
8.86020535666e-08
1.43064936582e-07
2.58409518533e-08
2.05371895172e-08
7.84100337361e-09
5.47568671767e-08
6.38802293533e-08
5.17768188521e-08
4.38886843435e-08
2.53367074725e-08
6.00127630534e-08
1.16311045185e-07
9.95980903966e-09
6.47108348814e-08
2.90665576286e-08
4.06286966186e-08
4.45015824094e-08
6.86454131189e-08
1.01636720863e-08
2.53976626395e-08
1.75551227573e-08
1.64417607511e-07
4.3342359571e-08
1.57598896532e-08
6.08681405131e-08
2.74274707982e-08
3.88995990985e-08
1.35628858671e-08
5.87984584267e-08
9.28999577566e-09
4.23566808405e-08
5.68911480246e-08
7.56431290803e-08
1.14454941317e-09
1.81274970384e-08
1.62764937277e-08
8.74213104056e-08
1.1113877325e-08
1.14997721942e-08
2.60205614293e-08
4.83778301174e-08
6.34034352886e-08
1.89985780054e-08
1.10685061747e-07
3.25480702273e-08
1.00611512322e-08
1.40482769569e-08
5.51900934813e-08
7.71918039293e-08
7.51414059711e-08
8.54068351464e-08
4.32906447867e-08
9.05276935632e-08
1.65004477612e-08
3.69410700286e-08
3.00296640313e-09
4.35765858193e-08
2.04944354461e-08
8.73439879802e-08
6.89109518889e-08
4.50461040649e-08
3.7997318761e-08
4.04006125259e-08
2.75332359901e-08
2.47735223809e-08
4.99375054371e-08
5.43398867909e-09
3.5835858145e-09
2.24070723025e-07
2.2879735484e-07
4.45198839889e-08
1.34182806831e-07
2.33322836556e-08
2.5020846697e-08
3.5032367232e-08
6.26879976312e-08
5.38828341113e-08
4.68084183678e-08
5.0652494639e-08
5.33600367599e-09
6.76338594995e-08
9.9464596565e-09
6.47000057032e-08
5.35459403436e-08
4.57429104503e-08
6.1440192742e-08
1.35012076961e-08
6.57263521215e-08
5.0585430037e-08
2.76537507508e-07
2.59714994994e-08
2.78609282977e-07
2.18411074624e-08
5.24047748898e-08
7.74032192173e-08
2.16926643576e-07
7.60611553955e-08
5.93325394521e-08
3.48548271781e-08
1.19498075174e-07
2.8778890008e-08
1.47355191242e-08
3.789467654e-08
4.53401246968e-08
4.46120182601e-08
4.04153921701e-08
1.93930954345e-08
1.49582751659e-08
6.61056993205e-08
6.16232087571e-08
1.89031902561e-07
4.95117890534e-08
6.83656941133e-09
6.3600169856e-08
4.4441075254e-09
3.39227422085e-08
2.20827445107e-09
7.88799646105e-08
1.20660181463e-07
5.98804415107e-08
3.16084457982e-08
1.52570815462e-08
9.15868048239e-08
8.23686857519e-08
1.71119327163e-08
4.4258102373e-08
1.32401596553e-07
3.60748490674e-08
1.89046162771e-08
3.19579135765e-08
6.77101449553e-08
6.39783722636e-09
4.94541433112e-08
8.17549085802e-08
8.84242542864e-08
1.21545782836e-07
8.05697999438e-08
6.85383085438e-09
6.81743137731e-08
9.68668820356e-08
5.74462630219e-08
9.38250820457e-08
1.16268256526e-08
7.77327681313e-09
3.90431665859e-08
9.27814421415e-08
4.49088469518e-08
1.53694118485e-08
1.13971542526e-07
6.91786696593e-08
3.27156439345e-08
5.66804078704e-08
1.16716400632e-07
6.94013563007e-08
3.67275012359e-08
2.17325143831e-08
2.43904897509e-08
2.11012299647e-08
6.49578568114e-08
8.13125049378e-09
4.15467661586e-08
5.71949567325e-09
6.06400411212e-08
2.39485647205e-09
1.66691428208e-09
3.58614927615e-08
6.183521985e-09
8.91294711675e-09
9.27421998691e-09
1.4941680389e-08
3.94465494706e-08
7.75177778017e-08
2.07753763263e-08
6.84892149442e-09
5.58006990092e-08
2.50814450077e-08
7.04415396929e-08
6.9156426069e-08
5.77282913151e-08
1.59264339679e-08
3.58867336193e-08
7.40600914046e-08
7.54066070821e-08
5.19850129403e-09
6.34764751204e-08
2.28477188841e-08
2.00834450193e-08
4.02502902472e-09
5.16771575056e-08
8.03421947246e-08
5.68894932111e-08
1.1059337859e-07
5.09445655381e-08
4.71334243094e-08
5.83568028188e-09
1.11875266515e-08
3.55714431366e-08
1.60031187113e-08
1.27881022195e-07
3.73086445484e-08
9.47807487823e-08
3.05063377018e-08
1.65326064457e-07
2.9925319302e-08
1.18317629059e-07
2.72279516734e-08
4.9267652148e-09
5.35081772582e-08
1.09152121578e-08
1.31633045318e-08
4.56114802727e-08
1.3861784525e-08
3.65724588944e-08
5.653842671e-08
8.46848721652e-08
3.59130533228e-08
6.03997019531e-08
1.4703767204e-07
3.76514045646e-08
8.3058810671e-08
2.25144204814e-10
1.12944318587e-08
5.259180497e-08
6.77058778382e-09
1.13898706603e-08
1.53946321077e-08
5.88412133005e-08
3.49648964269e-08
1.81504713329e-07
2.31663898179e-07
8.01505407486e-08
1.05113207787e-07
8.78340530587e-09
4.58819943959e-08
1.14664523182e-08
1.09961672358e-08
5.11131804498e-10
9.64730741262e-08
1.45621662407e-07
1.01793099601e-09
5.70954442539e-08
1.50180884464e-08
6.6684545385e-09
5.88678009117e-08
4.36374607304e-08
3.35073215686e-08
1.59639275778e-08
2.8632060901e-08
3.16679786654e-08
7.18799219272e-08
3.34779735244e-08
3.66610691381e-08
5.10160855318e-08
1.20251136877e-08
1.21117873159e-07
8.91105400815e-09
1.01770256639e-07
5.46094563478e-08
8.2388787522e-08
2.91241201152e-08
1.47865774836e-07
6.51436740391e-08
5.26348279069e-08
1.60489676366e-09
1.11600684991e-07
9.0612884879e-10
3.7747257054e-08
8.73179344205e-08
8.97554421459e-08
2.08226188366e-08
1.98626029567e-07
3.42048690246e-08
1.22963686612e-07
8.34239995106e-08
3.04967851889e-09
1.00148611349e-07
2.07697199762e-08
1.07206618193e-07
1.25716208548e-07
1.74310926235e-07
1.27611578526e-07
1.15193668735e-07
1.38656487637e-07
3.28041462423e-08
7.939901503e-08
1.342122254e-07
2.37218902703e-08
2.58255489986e-08
1.90418093285e-07
1.47794921854e-08
5.90249098591e-09
3.27040562708e-08
6.12578225362e-09
1.15652578289e-07
5.18332401131e-08
9.72679361485e-08
8.85220985221e-09
9.47136376247e-08
3.5879085774e-09
9.83013668864e-08
8.31447381154e-08
6.94282985483e-08
1.43210173827e-07
1.42188843037e-07
1.9604463944e-07
4.89027328376e-08
6.74082204002e-08
6.06851893756e-08
7.7316667999e-08
5.06488500948e-08
1.09855519104e-07
2.83616596214e-09
1.05304045599e-07
8.400842646e-08
2.3080180558e-08
1.40926471996e-07
1.63327768733e-07
5.61248151524e-08
1.01935645097e-07
5.25382872904e-08
5.07498789168e-08
7.38019546132e-08
4.42332579318e-08
5.60615947072e-08
4.69478882821e-08
9.74861243309e-09
1.38538418378e-07
5.70825817291e-08
1.37621262368e-07
7.23485562128e-08
1.58099662522e-07
2.51439531655e-07
6.49240924437e-08
8.06211621324e-11
1.2286888899e-07
5.34386465891e-08
3.1039776505e-08
1.81986131891e-08
5.08671755267e-08
7.8200737493e-09
9.78831872787e-09
8.98339208688e-08