# vtk DataFile Version 3.0
File Name: Molecule/sphere_cent/sphere_cent_0-s14.vtk
ASCII
DATASET UNSTRUCTURED_GRID
FIELD FieldData 1
TIME 1 1 double
0.0
POINTS 364 double
0.18837538362 -0.97380852699 -0.12633860111
0.25054782629 -0.95726907253 0.13455179334
-0.035608399659 -0.999307096 0.0072232256643
-0.9701154232 -0.14458662271 -0.19472302496
-0.99959409237 -0.0032177031972 0.029024831951
-0.9701398015 0.10009925067 -0.22085443139
-0.56258171797 0.48582398891 -0.66827780008
-0.67429047823 0.59647381306 -0.43529298902
-0.45776301622 0.70831084251 -0.53721517324
-0.50027406216 0.81590163708 -0.28962263465
0.62282848358 0.43832832575 -0.64763075113
0.45272183418 0.66930598021 -0.58862143755
0.70346546173 0.54020869732 -0.46124842763
0.22334378958 0.96744847298 -0.11851006001
0.26571631432 0.95379185677 0.13989719748
0.48582237959 0.87161880732 -0.06022696197
-0.013007625006 0.99984794855 0.0062505686656
-0.11683817953 0.68563586473 0.71744281054
0.0013538784115 0.50296276808 0.86428838968
0.13600458205 0.68001633883 0.72046983242
0.28147256374 0.49522024393 0.81994438171
-0.50139313936 -0.81598764658 0.28764945269
-0.44990235567 -0.72975832224 0.51472306252
-0.68740910292 -0.5877763629 0.42650955915
-0.65607357025 -0.39655452967 0.6421122551
-0.82314264774 -0.29711851478 0.48394620419
-0.64904040098 0.49190846086 0.57903671265
-0.57475864887 0.36689165235 0.72973883152
-0.49931362271 0.56060653925 0.66049897671
-0.54123586416 0.66463750601 0.51365250349
-0.36719942093 0.71954929829 0.58878332376
-0.30128791928 0.47812718153 0.82382518053
-0.0025386488996 -0.56982016563 0.82136112452
-0.086043402553 -0.40136957169 0.91186708212
-0.26652821898 -0.49742698669 0.82491576672
0.097574621439 -0.41942080855 0.90160506964
-0.012384619564 -0.24177782238 0.96963810921
-0.19593073428 -0.22847396135 0.95331811905
0.40741193295 0.63281053305 0.6574100852
-0.020870592445 0.97271597385 -0.22999474406
-0.27297359705 0.95172327757 -0.14011909068
-0.29261556268 0.87044161558 -0.3950830102
-0.40730214119 0.24008372426 0.88109946251
-0.1425332576 0.27430954576 0.95101416111
-0.27874180675 0.059746436775 0.95816808939
0.14715096354 0.27578127384 0.9499181509
0.26996600628 0.041354488581 0.96182566881
0.40279772878 0.23970147967 0.88189738989
0.026200940832 0.040905848145 0.99802732468
0.46710261703 -0.27759861946 0.83934092522
0.59103322029 -0.44395783544 0.67356300354
0.6835051775 -0.18534938991 0.70600003004
0.35591417551 -0.49061837792 0.79466408491
0.7842990756 -0.35267397761 0.50974816084
0.44643822312 -0.67488706112 0.58755475283
0.67845845222 -0.58473360538 0.44468280673
0.51441335678 -0.77979367971 0.35553115606
0.20836475492 -0.72262167931 0.65804249048
0.25778177381 -0.85220724344 0.45418441296
0.85162866116 -0.454333812 0.25912106037
0.71411281824 -0.67503303289 0.18539334834
0.85228943825 -0.52268368006 -0.013849304058
-0.84982120991 -0.52721405029 0.00097862351686
-0.69083493948 -0.70967805386 -0.13785713911
-0.71089577675 -0.68741863966 0.14859843254
-0.51026982069 -0.85998284817 0.0070789703168
-0.47616744041 -0.839166224 -0.26233568788
-0.94907522202 -0.15075828135 0.27660015225
-0.86563932896 -0.43736955523 0.24363768101
-0.96126961708 -0.27360534668 0.031454149634
0.70444148779 -0.70622521639 -0.070252604783
0.57776248455 0.0425831303 0.81492346525
0.72324192524 0.074873521924 0.68647503853
-0.68524855375 -0.61352789402 -0.39233189821
-0.79460662603 -0.52348017693 -0.3068626225
-0.00360587053 0.96180343628 0.27359998226
-0.24663123488 0.95820754766 0.13827678561
-0.25023218989 0.89037698507 0.37952792645
-0.51463204622 0.85632205009 -0.016863316298
-0.70394235849 0.6934825778 -0.15300813317
-0.68479013443 0.72078287601 0.10266195983
-0.24236299098 -0.87695020437 -0.41447934508
-0.28026667237 -0.94960051775 -0.14012278616
-0.050377905369 -0.96344828606 -0.26309940219
0.0094881104305 -0.87009829283 -0.49254900217
-0.27947071195 -0.94938057661 0.14346605539
-0.25907751918 -0.88369435072 0.38973277807
-0.032109774649 -0.95859766006 0.27912813425
-0.036834955215 -0.86803913116 0.49346891046
-0.72523057461 0.12350196391 0.67629444599
-0.86515074968 -0.0075532500632 0.50147527456
-0.72478324175 -0.13409338892 0.6758056283
-0.83238363266 0.25000631809 0.49398553371
-0.89237868786 0.38723644614 0.2293613404
-0.96517252922 0.25823253393 0.041647966951
-0.95162081718 0.13650079072 0.27540311217
-0.86258691549 0.50113409758 -0.061625003815
-0.83358764648 0.47354024649 -0.28403872252
0.24806280434 0.89061331749 0.38101932406
0.81981730461 -0.255571872 -0.51065117121
0.70402491093 -0.12448644638 -0.69749444723
0.8647518754 0.0063984496519 -0.5020712018
0.71673053503 0.10823620111 -0.68829745054
0.52089124918 0.017001643777 -0.85341757536
0.41358602047 -0.24455414712 -0.87618303299
0.26436889172 -0.052952930331 -0.962870121
0.13218669593 -0.27303028107 -0.95285964012
0.25988847017 -0.47341516614 -0.84137892723
0.03072934784 -0.038163989782 -0.99845194817
0.044743523002 -0.51499378681 -0.85573452711
0.16784492135 -0.66516011953 -0.72693115473
-0.16024041176 -0.67816823721 0.71698707342
0.064644902945 0.85981357098 0.50530433655
0.25852119923 0.78636276722 0.5608278513
0.43371891975 0.77993047237 0.45065066218
0.45671227574 0.83794778585 0.29777902365
-0.89673298597 0.25347402692 -0.36275598407
-0.86918467283 0.061712451279 -0.48975428939
-0.80233681202 0.35081234574 -0.48159632087
-0.92841130495 0.33125293255 -0.16778594255
-0.53755199909 -0.56991147995 0.62148147821
-0.36168086529 -0.62814253569 0.68895328045
-0.4747595489 -0.44452938437 0.75957608223
-0.24784903228 -0.77937102318 0.57542985678
-0.57628875971 -0.2501065135 0.77802824974
-0.42015370727 -0.27164930105 0.86562758684
-0.55285441875 -0.039562072605 0.83166605234
0.89190340042 -0.38686951995 -0.23102815449
0.96162050962 -0.27060255408 -0.034069530666
0.95096576214 -0.13414306939 -0.27863079309
0.99723064899 0.00070452922955 -0.066817879677
0.94930177927 0.14403374493 -0.27946174145
0.96977347136 0.23858457804 -0.038281839341
0.48473292589 -0.80168068409 -0.34952184558
0.35014641285 -0.90013617277 -0.25923079252
0.27510595322 -0.84443575144 -0.45936113596
0.15225496888 -0.92922961712 -0.3368152976
0.53853273392 -0.82700222731 -0.16135285795
0.38926336169 -0.91888743639 -0.063489094377
0.55586439371 -0.8296366334 0.043753102422
0.46239671111 0.44462823868 -0.76716721058
0.30536952615 0.54817318916 -0.77833998203
0.26651144028 0.37587931752 -0.88746970892
0.57864665985 0.24913412333 -0.77652943134
0.43020492792 0.26808524132 -0.86194682121
0.31683433056 0.14610110223 -0.93717676401
0.15028889477 0.2477196604 -0.95696389675
0.83970212936 0.27398067713 -0.46645382047
0.097167633474 0.10497736931 -0.98964583874
0.65001040697 -0.71017688513 -0.27049469948
0.96481138468 0.15681359172 0.21033197641
0.89679276943 0.25507676601 0.36141821742
0.91762304306 0.067633539438 0.39160597324
0.82966166735 0.1601049453 0.53480035067
0.79478591681 0.35114994645 0.49410775304
0.83462822437 -0.042048994452 0.54859662056
0.84982973337 0.43716350198 0.29415878654
0.92840015888 0.34171274304 0.14618588984
0.8329295516 0.552339077 0.019597677514
-0.3008672297 0.49839651585 -0.81279975176
-0.35866686702 0.61818945408 -0.69940751791
-0.15535466373 0.66844666004 -0.72740405798
-0.23509173095 0.7761233449 -0.58524060249
0.029840845615 0.82565450668 -0.56297469139
0.77949219942 0.57829147577 -0.24100755155
0.67490249872 0.71768337488 -0.17185808718
0.62699627876 0.68751835823 -0.36599263549
0.49375405908 0.80858248472 -0.31941252947
0.28537029028 0.83285695314 -0.47374975681
0.20411369205 0.70859879255 -0.67502886057
0.34925419092 0.90089529753 -0.25743609667
0.15923547745 0.92414945364 -0.34749731421
0.78300493956 -0.58163332939 -0.22043938935
0.70102119446 -0.57300442457 -0.42437028885
0.61203128099 0.72091507912 0.32485765219
0.53580409288 0.83367037773 0.13400374353
0.76472908258 0.59547227621 0.24577960372
0.68898582458 0.70663022995 0.16106025875
0.68584519625 0.57867068052 0.43966028094
0.71589243412 0.26666617393 0.64538908005
-0.80906820297 -0.31322431564 -0.49720874429
-0.89819616079 -0.24081088603 -0.36761066318
-0.84810400009 -0.18718643486 -0.49564018846
-0.92148125172 -0.078874573112 -0.3802113235
-0.65152204037 -0.52670967579 -0.54537051916
-0.75696325302 -0.46636164188 -0.45762729645
-0.72003620863 -0.38579809666 -0.57671350241
0.67398947477 0.73861902952 0.0099413031712
0.14826019108 0.54189157486 -0.82725131512
0.035062294453 0.67587816715 -0.73619669676
-0.0037895557471 0.52819144726 -0.84899497032
0.5981746912 0.22555266321 0.76899188757
0.077333517373 0.38791003823 -0.91832357645
0.57527542114 0.43976384401 0.68944209814
-0.52405977249 -0.0018949188525 -0.85167390108
-0.73043549061 0.032919503748 -0.68229824305
-0.68807637691 0.17559601367 -0.70415318012
-0.8051840663 0.19528020918 -0.55971974134
-0.69567245245 0.36041507125 -0.62152218819
-0.56859278679 0.25399720669 -0.78256183863
-0.42452049255 0.26277026534 -0.86640352011
-0.44054409862 0.43275970221 -0.78643614054
-0.2618919909 0.3597471416 -0.89545309544
-0.2837959826 -0.52259272337 -0.80358392
-0.42939832807 -0.42892765999 -0.79451918602
-0.25897470117 -0.36972242594 -0.89216345549
-0.54684126377 -0.26094982028 -0.79579889774
-0.41778534651 -0.26159274578 -0.87010222673
-0.54801875353 -0.43644234538 -0.71304219961
-0.1047931388 0.091737419367 -0.99024623632
-0.0063384897076 0.24615681171 -0.96919751167
-0.15834023058 0.24938502908 -0.95535522699
-0.081443928182 0.38374891877 -0.91982626915
-0.15663827956 0.49884068966 -0.85241103172
-0.32664373517 0.14493182302 -0.93410539627
-0.26691874862 -0.0070775896311 -0.96371906996
-0.10344741493 -0.12308011949 -0.98704844713
-0.069120556116 -0.39583468437 -0.91570818424
-0.14214254916 -0.26928815246 -0.95250344276
-0.13969570398 -0.52144765854 -0.84153181314
-0.16749246418 -0.67727786303 -0.71596622467
-0.0036834175698 -0.67722773552 -0.73511910439
-0.31841853261 -0.1567492485 -0.93510973454
-0.75650691986 -0.23634508252 -0.60982167721
-0.82390457392 -0.071749098599 -0.56211394072
[...]
CELL_DATA 724
SCALARS cell_data_0 double
LOOKUP_TABLE default
5.48226147794e-07
1.42678895517e-07
6.39378269366e-08
3.47981527201e-09
3.84709644198e-07
1.89523686869e-07
1.2225241249e-07
1.72784447824e-07
3.42654084173e-07
2.66724354129e-07
3.54625020019e-07
1.76298227502e-07
3.02741184055e-07
4.87921976641e-07
2.95851031774e-07
1.26524499709e-07
1.21848437582e-07
9.68542322447e-08
7.94962374618e-09
8.58351380708e-08
3.43641402998e-07
1.80175486757e-07
1.94371278769e-07
1.86905439186e-08
1.61779236028e-07
7.84463962299e-08
1.09997576816e-07
4.24981630477e-07
4.58196406739e-09
2.54328907152e-07
1.54634643249e-07
2.54532293906e-07
3.46676414878e-07
3.29016551876e-07
1.65532441226e-07
2.14028587234e-07
3.34385478276e-07
5.39260006021e-08
4.45751789216e-08
1.54509730795e-07
3.44748843604e-09
3.23489540686e-08
2.69937375434e-08
1.20754692437e-07
1.68852484892e-07
4.19808350139e-07
1.35866141524e-07
2.71129231934e-07
2.80161127627e-08
9.44147263652e-09
2.97244752482e-07
1.12911695244e-07
4.56772195008e-07
4.72682534276e-07
4.49641652113e-07
2.8541567919e-07
1.28784586691e-07
6.548567999e-08
1.15826819208e-07
3.62282492918e-10
4.25302417878e-07
3.33542375264e-07
2.4564213105e-07
2.40187898663e-07
2.71374139157e-07
3.8453394068e-09
4.50922492291e-08
9.74250695161e-08
1.02594091359e-07
6.62391977696e-09
1.70762541979e-07
3.92888420814e-08
1.44855607571e-07
2.46706707673e-07
2.95278524016e-08
9.35921054889e-08
3.4792796704e-07
1.54692717442e-07
3.32511734353e-07
2.18705133301e-07
2.24658207802e-07
1.69174888686e-07
4.95852813551e-08
4.01628110765e-08
6.57896546525e-08
4.24103111029e-07
4.84218467066e-07
7.1649511967e-08
9.97195702966e-08
1.634824912e-07
1.04034357044e-07
1.88047350093e-07
3.5891540176e-07
7.08900277522e-08
3.99844686478e-08
2.90796578129e-07
1.61075226633e-07
2.79900287139e-07
3.05250055161e-07
3.03213101597e-07
3.33674503692e-07
1.46705383733e-07
5.60709348042e-08
1.59184140049e-07
4.73527095381e-07
3.54285509756e-07
9.891174883e-09
1.71420007575e-07
3.04741265137e-07
9.19214416195e-08
6.99856721256e-08
2.62090446258e-07
3.58235335776e-07
1.737861301e-08
5.36957877947e-08
1.47145269954e-07
2.8360831967e-08
1.54842064135e-07
2.02097222618e-07
9.73394800409e-08
5.77891351882e-08
8.36935276034e-08
2.12721404455e-07
2.00558949257e-07
9.82755015394e-09
9.7606702659e-08
1.4230004398e-07
2.01005493089e-07
7.63344307105e-08
2.39990715892e-07
1.111610198e-07
1.59324975818e-07
1.96884562729e-07
1.17260751651e-07
1.34928560324e-07
1.89056592331e-07
1.80696362803e-07
1.63846435582e-07
3.86529087018e-07
2.02748778677e-07
7.39114713822e-08
7.30335362486e-08
7.81586548502e-08
2.96403352049e-08
2.2629439876e-08
1.01772216294e-07
4.36145258286e-08
2.17131259085e-07
2.05632066516e-08
6.15487475324e-08
9.10198242595e-08
6.2125346935e-08
1.90868106965e-07
2.36401020675e-09
3.06312452695e-08
2.1651268936e-08
1.00119688084e-08
1.36717174431e-07
7.54045610971e-08
2.41508132605e-07
1.3139489111e-07
8.76891008606e-08
3.41876125284e-07
3.51849898179e-07
1.78679739562e-07
4.59795407557e-08
1.12074637479e-08
1.0991156696e-07
1.09542628128e-07
5.29841929884e-08
6.69596605025e-08
1.05485557733e-07
2.25462492559e-08
8.63735219687e-08
1.78030488671e-07
2.49341319435e-08
4.51457476922e-07
3.80752270664e-08
4.09231326951e-07
1.55773982989e-07
5.10975203214e-07
7.11942331369e-08
5.18486585442e-07
3.07829540058e-07
6.25305516879e-09
3.63694817319e-07
3.78535486429e-08
2.39794415076e-07
9.97439571795e-08
2.54749503717e-07
5.48182959614e-07
2.16991281208e-07
3.69299430906e-08
1.34027865594e-07
6.54720689778e-08
7.78347913848e-08
1.39498996378e-08
2.81320890546e-07
2.40604714034e-07
7.05644228136e-08
1.27405152386e-07
2.40310990983e-07
1.73044703208e-07
5.85677335802e-09
3.0089779454e-07
2.77222540661e-08
2.36938195386e-07
6.03348427497e-08
7.54385549662e-08
1.10140390729e-07
1.37896602109e-07
5.69434035533e-09
1.10349171956e-07
7.30614112346e-08
1.49512834048e-08
1.52978473177e-07
2.58221253029e-07
9.32445714543e-09
2.52273567128e-08
1.20696385915e-07
2.05666452595e-08
2.68686931304e-07
8.70747047776e-08
1.14984993089e-07
2.2502175324e-07
1.94593401457e-07
6.722029514e-08
1.20147515249e-07
1.09920307034e-08
2.19874505849e-07
1.47124017398e-07
4.36783445487e-07
3.25698121904e-07
3.17869183259e-10
1.65701250088e-07
2.11476034727e-07
1.08676638102e-07
2.99204918462e-07
3.32312823499e-07
6.03128918057e-08
6.38984495912e-08
3.56448480073e-07
5.03365730026e-09
8.66890092229e-08
4.63924057146e-08
2.06765258856e-07
6.82055679721e-08
7.72096724035e-08
1.16937029072e-07
6.77160067401e-08
1.9172286516e-07
2.00777679342e-07
3.03295563396e-08
2.7754049294e-07
2.95170263028e-07
2.2158492032e-07
7.92518335925e-08
9.88307763647e-08
1.8838670692e-08
2.32237140177e-07
8.18808672934e-08
2.44713315453e-07
1.94403069952e-07
1.91194553213e-07
1.07853599092e-07
2.04118978003e-07
1.82238559544e-07
1.68455791894e-07
2.56059334521e-08
1.65062434754e-07
1.25596839818e-08
8.62095555015e-08
2.0714551795e-08
5.24538548661e-08
5.57441316803e-08
6.32928492933e-09
1.96210525809e-07
7.60557689096e-08
1.4777881061e-08
1.30415889322e-07
1.72837486369e-07
1.58121693065e-08
4.99302554855e-08
7.93113689641e-08
2.26437816345e-07
6.9405698247e-08
2.02544825702e-08
2.03101997778e-08
2.75947567655e-07
2.58189901735e-07
3.67352439267e-08
2.77566667967e-07
3.06157666102e-07
8.15700004109e-08
1.40749757943e-08
1.20408836646e-07
2.49872481993e-07
1.26007380631e-07
1.86086940544e-07
1.23907513594e-07
8.07061671356e-08
9.81430900356e-08
5.10000407345e-08
6.12074451917e-08
1.11888322682e-07
2.72972224422e-08
6.74540762413e-08
1.27952846158e-07
4.7484254776e-08
2.18190685283e-07
9.31511476284e-08
6.55833151833e-08
1.23287312679e-07
1.40025495925e-07
8.54541901062e-08
7.97284918754e-09
5.20884899575e-08
1.80901821626e-07
6.26472820742e-08
7.17372754467e-08
2.13955796989e-07
8.92865966981e-08
1.18681390071e-07
1.259579497e-07
1.5738968555e-08
6.76146423722e-09
6.21358385648e-08
1.28025084796e-07
2.06011995615e-09
6.2117244587e-09
4.05366257527e-08
1.77200898922e-07
2.85953478363e-08
1.77163374678e-07
2.77246765909e-08
4.20459043197e-08
4.37293002395e-08
2.27349781515e-07
4.65390451063e-08
1.08337113723e-07
3.05881626213e-08
1.31427034134e-08
1.13371322288e-07
2.52723135642e-08
8.7455578601e-08
2.1903943278e-07
8.06115593236e-08
5.81915391605e-08
7.18960586656e-08
9.65472689221e-08
3.04368443077e-07
1.26000827045e-07
7.37562805399e-08
3.26752218086e-07
7.64869790737e-08
3.40265014125e-07
1.77340690467e-07
2.69537559703e-07
2.24552047289e-07
1.90785749766e-08
1.33366833809e-07
1.63007120838e-07
8.1853504567e-08
1.04505489465e-07
1.82309022406e-07
2.1627959401e-07
4.47722961557e-08
9.9117159032e-08
3.75192199998e-07
2.09490597385e-07
1.91869591108e-07
4.34285201979e-08
4.82773310067e-08
4.4711833544e-08
1.29657921856e-07
8.24237179258e-09
1.90707167801e-07
2.37097128949e-07
1.69765366356e-07
1.30249076305e-07
1.71054858276e-07
2.90533456303e-08
2.29760437015e-07
4.57598523642e-08
2.25241021018e-08
1.4807921177e-07
3.47332390526e-08
1.74992249145e-07
1.79069350744e-07
2.7522524134e-07
1.98810988881e-07
6.45842852972e-08
2.94760807108e-08
7.37241976522e-08
1.1879647335e-07
6.78312870352e-08
2.05599541825e-09
3.60411145739e-09
6.39472090076e-08
2.0252589436e-07
9.21450233422e-08
3.59038311097e-08
7.42579308984e-08
1.61318556887e-08
1.58502269019e-07
1.21630340051e-07
1.9017933283e-08
3.53367327368e-09
4.85480913685e-08
8.50091093368e-08
2.03981106571e-08
2.13863018269e-07
4.67396942995e-07
2.14357760477e-07
1.29401372787e-07
6.46103816439e-08
1.32099640461e-07
5.44505223466e-08
1.88356638839e-07
8.0369682177e-08
1.62455649381e-09
1.00422097657e-07
4.68654537452e-08
1.70963060366e-08
8.19890921241e-08
4.37737885611e-08
2.7688744055e-07
2.37002101822e-09
3.6877403747e-08
1.02950575444e-07
4.55822773662e-09
7.89332661336e-08
6.85187437977e-08
7.4968857403e-08
3.35594098632e-08
9.42487781139e-08
3.41841011166e-07
1.65657298194e-07
3.3273933861e-07
1.37234820717e-08
1.11410297757e-07
1.21530660171e-07
4.27365966466e-08
1.33786108375e-08
9.34309824898e-08
3.19162273849e-07
3.23947574014e-07
1.9892396035e-07
4.91786820229e-08
3.46122620647e-08
7.53220523315e-08
3.73894344347e-09
1.06159339971e-07
2.90036341273e-08
6.53131850723e-08
6.53258420316e-08
4.25615990662e-08
5.88352844857e-08
1.06114233648e-08
4.78074420987e-09
1.10719857382e-07
4.39176123275e-08
3.387720786e-08
6.87925942714e-09
1.29544002829e-07
5.73078081793e-08
4.32818737025e-08
1.22761347992e-07
7.2279006096e-08
2.87981605134e-08
1.27691883791e-07
4.47766988173e-08
1.25438317597e-07
2.72574208796e-08
8.8352417963e-08
8.93237976798e-08
9.26354051881e-08
2.67133360084e-08
5.08301724195e-08
3.17403733589e-08
7.26538550434e-08
7.60019312472e-09
2.57114430097e-07
2.55698224145e-07
1.01613368311e-07
4.99832831362e-08
5.79363875503e-08
4.32121976695e-08
1.31660754598e-07
8.21229410536e-08
4.414709669e-08
4.17533249461e-08
2.66398911396e-08
1.31983374321e-07
5.4922647275e-08
3.86660157641e-08
1.52418215236e-08
7.62060341593e-08
3.39719593583e-08
1.11356064886e-07
1.57500390871e-07
1.64903710449e-07
2.41408822028e-09
8.22322663228e-08
2.40071129426e-07
5.53775803667e-08
1.32782587084e-08
4.53146448766e-08
2.34831106823e-07
5.29029647009e-08
8.3619439745e-08
1.22312156359e-08
3.54846518578e-07
4.35884523621e-08
1.0567274513e-07
1.8918604379e-09
1.3129800366e-07
7.8888157148e-08
1.60196355331e-07
2.1573205277e-07
1.67367336419e-07
1.00976197072e-07
1.74192936207e-07
1.29014804364e-07
2.66501502832e-07
4.91637390618e-08
1.94768948526e-07
4.57933031204e-07
2.29429356945e-08
3.54317181647e-08
1.58153158901e-07
4.68075580039e-08
2.41883896395e-08
2.59571404811e-07
1.9872979024e-07
2.45214855419e-07
2.28123764437e-07
2.00039724244e-07
2.01126613966e-08
7.68716387352e-09
1.41142620177e-07
7.06218804937e-08
7.29252459344e-09
1.64504782236e-07
9.90177369266e-08
5.80791373066e-08
1.31538874049e-07
9.53074526221e-08
1.03079965403e-07
5.23578746169e-08
1.82614965753e-08
4.3457263943e-08
1.39710877541e-07
9.04849530325e-08
2.07585211402e-07
1.61209401556e-08
1.13547877936e-07
4.4413007405e-08
1.81206512224e-07
2.92238897695e-07
1.07079074622e-09
4.5237841565e-08
6.80124481353e-08
3.17303720176e-08
3.12629273159e-08
4.91882921527e-08
6.5141560646e-08
6.75415638896e-08
1.80992607585e-08
1.2334466923e-07
1.7077488352e-08
8.93044371894e-08
9.07433449873e-08
7.57397250516e-08
7.40992678791e-08
2.19480855921e-08
2.63616286734e-08
2.26493776594e-09
2.76725860702e-08
2.37764365244e-10
3.76405203878e-08
1.87860295328e-08
1.81442499204e-07
7.53806331061e-08
8.0638975514e-08
1.42951468083e-07
1.50551579034e-07
9.90565215743e-08
6.79842319007e-08
9.27614895475e-08
3.75774977664e-07
2.26834761743e-07
9.82576520635e-08
6.64004176494e-08
1.37575121793e-07
1.64204204242e-08
8.43100659061e-08
1.9330265868e-07
6.05760621169e-08
1.0469979044e-07
2.38290268039e-08
1.39395179933e-07
1.69869879617e-07
2.21343720696e-08
1.36984863683e-07
1.61989283814e-07
1.48937688668e-07
1.86246937331e-07
8.3564696643e-08
1.7671729135e-07
1.31593341262e-07
1.6209500207e-07
1.64657228425e-07
3.30350571489e-08
1.68971113597e-07
2.1075882633e-07
1.43677537929e-07
2.62785560015e-07
1.72129410123e-07
2.25232216585e-07
2.90729042907e-07
2.45342670624e-07
2.39708713027e-07
2.19985843175e-07
3.51565547022e-07
2.07257304352e-07
1.6394920435e-07
2.06168337534e-07
1.6698424918e-07
1.21454975304e-07
1.49547022262e-07
1.0115984764e-07
1.30343392405e-07
8.35546239998e-08
1.83716768525e-07
9.76173423735e-09
1.23273044273e-07
9.3571183221e-08
3.22087179031e-07
2.27379404802e-07
1.42754952575e-07
1.98333587748e-07
2.08453880277e-09
2.05614867688e-07
1.36923816409e-07
3.440507235e-07
9.67114094447e-08
7.61590050169e-08
5.50563655375e-08
1.0707823137e-07
9.22025573135e-08
1.75787736111e-07
8.66370637995e-08
1.27182198683e-07
6.1039614722e-07
4.57488392914e-07
1.32497774065e-07
2.2699853933e-07
2.12266543574e-07
3.71326563168e-07
1.21591256625e-07
1.55789407338e-08
1.42046607608e-07
2.20066733498e-07
2.42549183468e-08
1.21488007466e-07
2.04616958026e-07
1.82053845809e-07
5.3122465498e-08
7.03304926256e-08
1.01256999378e-07
1.16560739082e-07
1.11258212573e-08
1.0512288684e-07
6.38278246879e-08
9.45488546535e-08
1.45269132708e-08
1.5900975749e-07
1.10446220041e-07
4.95952392178e-08
2.80062521135e-08
1.89869799147e-08
1.14494867397e-09
1.14054796751e-07
4.74899972705e-08
1.88472941187e-07
6.20612153491e-08
1.52251790031e-08
4.24140490094e-08
6.63770932944e-08
7.31723702175e-08
6.68865076963e-09
1.05134408989e-07
7.31319054813e-08
1.46992551702e-07
9.11664454346e-08
2.53857200891e-08
1.44040686821e-07
1.5783396508e-07
2.18412311816e-07
1.08789976612e-07
1.50861686589e-07
4.02022459982e-08
1.75857547964e-08
4.33851130509e-08
8.78618773023e-08
8.93760421826e-08
7.10739925385e-09
1.80456742585e-07
5.67889613809e-08
5.4602835019e-08
7.61221582293e-08
2.18365826472e-07
2.51070894213e-07
9.59422215822e-08
4.16659702308e-08
5.83318128177e-08
2.11042266009e-07
2.55301297205e-08
4.8279730608e-08
3.24042727772e-08
8.53118175696e-08
9.23969814504e-08
1.34567202929e-07

