# vtk DataFile Version 3.0
File Name: Molecule/sphere_cent/sphere_cent_0-s1.vtk
ASCII
DATASET UNSTRUCTURED_GRID
FIELD FieldData 1
TIME 1 1 double
0.0
POINTS 42 double
0.85065078735 -0.52573114634 0.0
0.80892920494 -0.30898347497 -0.49994572997
0.99989145994 -9.7521670739e-09 4.178319557e-07
0.8089287281 0.30898413062 -0.49994596839
0.52573114634 0.0 -0.85065078735
0.85065078735 0.52573114634 0.0
0.49994561076 0.80892938375 -0.30898311734
0.30898275971 0.49994546175 -0.80892956257
4.4408920985e-16 0.85065078735 -0.52573108673
0.49994587898 0.80892896652 0.3089838028
-8.4288416247e-07 0.99989140034 5.4063709065e-09
-4.4408920985e-16 0.85065078735 0.52573108673
-0.49994584918 0.80892896652 0.3089838028
-0.49994596839 0.8089287281 -0.30898413062
-0.85065078735 0.52573108673 4.4408920985e-16
-0.30898311734 0.49994561076 0.80892938375
-0.80892956257 0.30898275971 0.49994546175
-0.52573108673 5.5511151231e-17 0.85065078735
0.30898344517 0.49994570017 0.80892914534
-4.8660275809e-10 -8.3941046114e-07 0.99989140034
0.52573114634 0.0 0.85065078735
-0.3089838028 -0.49994584918 0.80892896652
0.30898413062 -0.49994596839 0.8089287281
0.0 -0.85065078735 0.52573114634
0.80892914534 -0.30898344517 0.49994570017
0.49994543195 -0.80892956257 0.30898275971
0.30898311734 -0.49994558096 -0.80892938375
1.2810824401e-08 -4.7860773122e-09 -0.99989140034
-0.30898413062 -0.49994593859 -0.8089287281
4.4408920985e-16 -0.85065078735 -0.52573108673
-0.52573114634 0.0 -0.85065078735
0.80892908573 0.30898341537 0.49994567037
-0.80892938375 -0.30898311734 -0.49994558096
-0.80892914534 0.30898344517 -0.49994570017
-0.99989134073 3.287883743e-09 4.1392792127e-07
-0.85065072775 -0.52573108673 0.0
-0.30898341537 0.49994564056 -0.80892908573
-0.49994546175 -0.80892956257 -0.30898275971
-0.49994570017 -0.80892914534 0.30898344517
4.2680741785e-07 -0.99989134073 8.4696401004e-09
-0.80892908573 -0.30898341537 0.49994567037
0.49994564056 -0.80892908573 -0.30898344517

CELLS 80 320
3 0 1 2
3 1 3 2
3 1 4 3
3 2 3 5
3 5 3 6
3 3 7 6
3 3 4 7
3 6 7 8
3 5 6 9
3 6 10 9
3 6 8 10
3 9 10 11
3 11 10 12
3 10 13 12
3 10 8 13
3 12 13 14
3 11 12 15
3 12 16 15
3 12 14 16
3 15 16 17
3 11 15 18
3 15 19 18
3 15 17 19
3 18 19 20
3 17 21 19
3 21 22 19
3 21 23 22
3 19 22 20
3 20 22 24
3 22 25 24
3 22 23 25
3 24 25 0
3 4 26 27
3 26 28 27
3 26 29 28
3 27 28 30
3 0 2 24
3 2 31 24
3 2 5 31
3 24 31 20
3 5 9 31
3 9 18 31
3 9 11 18
3 31 18 20
3 30 32 33
3 32 34 33
3 32 35 34
3 33 34 14
3 8 36 13
3 36 33 13
3 36 30 33
3 13 33 14
3 35 37 38
3 37 39 38
3 37 29 39
3 38 39 23
3 35 38 40
3 38 21 40
3 38 23 21
3 40 21 17
3 17 16 40
3 16 34 40
3 16 14 34
3 40 34 35
3 30 28 32
3 28 37 32
3 28 29 37
3 32 37 35
3 29 41 39
3 41 25 39
3 41 0 25
3 39 25 23
3 4 1 26
3 1 41 26
3 1 0 41
3 26 41 29
3 4 27 7
3 27 36 7
3 27 30 36
3 7 36 8

CELL_TYPES 80
5
5
5
5
5
5
5
5
5
5
5
5
5
5
5
5
5
5
5
5
5
5
5
5
5
5
5
5
5
5
5
5
5
5
5
5
5
5
5
5
5
5
5
5
5
5
5
5
5
5
5
5
5
5
5
5
5
5
5
5
5
5
5
5
5
5
5
5
5
5
5
5
5
5
5
5
5
5
5
5

CELL_DATA 80
SCALARS cell_data_0 double
LOOKUP_TABLE default
1.75492310297e-06
4.70649360363e-06
1.55645525585e-06
1.29039114314e-06
1.59412372643e-06
4.67535259812e-06
1.45542473466e-06
1.47748445715e-06
1.70690561846e-06
4.72920702368e-06
1.50338895489e-06
1.29016440603e-06
1.79200219706e-06
4.74045714335e-06
1.43589203477e-06
1.48783425549e-06
1.63302924663e-06
4.82499333018e-06
1.55894018925e-06
1.46045824969e-06
1.63100026893e-06
4.79935553727e-06
1.65065217097e-06
1.52926482259e-06
1.60586974484e-06
4.84478986092e-06
1.60029302164e-06
1.31385031221e-06
1.40764038677e-06
4.75228461351e-06
1.52938630788e-06
1.55024935757e-06
1.55479191242e-06
4.61532784437e-06
1.48590185123e-06
1.53016559533e-06
1.56955794319e-06
4.56191705299e-06
1.41030258918e-06
1.46280227365e-06
1.60984566414e-06
4.70610162549e-06
1.55585076426e-06
1.51631993487e-06
1.71352953884e-06
4.73994374138e-06
1.44526400011e-06
1.34955555926e-06
1.52758651314e-06
4.68365000232e-06
1.80076102037e-06
1.53015818975e-06
1.6669196701e-06
4.6581535097e-06
1.35864722232e-06
1.44548640306e-06
1.58041403289e-06
4.70955673815e-06
1.59457532046e-06
1.41980964054e-06
1.65534328275e-06
4.68439691763e-06
1.36641171009e-06
1.53637369402e-06
1.54375232071e-06
4.64895757253e-06
1.52744952798e-06
1.39385514248e-06
1.60906466151e-06
4.88969585326e-06
1.60264737948e-06
1.49736983494e-06
1.62725112454e-06
4.82644445538e-06
1.52644466124e-06
1.51541577258e-06
1.56427603827e-06
4.75334213246e-06
1.30741616064e-06
1.50596527152e-06

