# vtk DataFile Version 3.0
File Name: Molecule/sphere_cent/sphere_cent_0-s0.vtk
ASCII
DATASET UNSTRUCTURED_GRID
FIELD FieldData 1
TIME 1 1 double
0.0
POINTS 12 double
0.850650808352 -0.525731112119 0.0
0.525731112119 0.0 -0.850650808352
0.850650808352 0.525731112119 0.0
0.0 0.850650808352 -0.525731112119
0.0 0.850650808352 0.525731112119
-0.850650808352 0.525731112119 0.0
-0.525731112119 0.0 0.850650808352
0.525731112119 0.0 0.850650808352
0.0 -0.850650808352 0.525731112119
0.0 -0.850650808352 -0.525731112119
-0.525731112119 0.0 -0.850650808352
-0.850650808352 -0.525731112119 0.0

CELLS 20 80
3 0 1 2
3 2 1 3
3 2 3 4
3 4 3 5
3 4 5 6
3 4 6 7
3 6 8 7
3 7 8 0
3 1 9 10
3 0 2 7
3 2 4 7
3 10 11 5
3 3 10 5
3 11 9 8
3 11 8 6
3 6 5 11
3 10 9 11
3 9 0 8
3 1 0 9
3 1 10 3

CELL_TYPES 20
5
5
5
5
5
5
5
5
5
5
5
5
5
5
5
5
5
5
5
5

CELL_DATA 20
SCALARS cell_data_0 double
LOOKUP_TABLE default
5.21135477327e-06
5.2111725792e-06
5.21125750946e-06
5.2110023735e-06
5.21123123932e-06
5.21122800132e-06
5.21090831006e-06
5.2108860108e-06
5.21128196708e-06
5.21107832221e-06
5.21117597953e-06
5.21106528632e-06
5.21085613321e-06
5.21107583319e-06
5.21126708673e-06
5.21109082724e-06
5.21120211243e-06
5.21104490042e-06
5.21123950667e-06
5.21117147838e-06

