# vtk DataFile Version 3.0
File Name: Molecule/sphere_cent/sphere_cent_0-s20.vtk
ASCII
DATASET UNSTRUCTURED_GRID
FIELD FieldData 1
TIME 1 1 double
0.0
POINTS 851 double
0.25323033333 0.96207106113 -0.10136324167
0.3105764389 0.94708484411 0.078960523009
0.39694604278 0.91649490595 -0.049927860498
-0.51877146959 0.6754977107 0.5239136219
-0.49370658398 0.59023725986 0.63858425617
-0.37448775768 0.710750103 0.59545439482
0.017876939848 -0.55878388882 0.82910138369
0.088790543377 -0.44173973799 0.89273351431
-0.068450108171 -0.39413639903 0.91646063328
-0.033171758056 -0.23860521615 0.97054547071
-0.17058989406 -0.23993001878 0.95562428236
-0.1869148165 -0.87737810612 -0.44076511264
-0.016810620204 -0.87760913372 -0.47901046276
-0.047462254763 -0.95169776678 -0.30159330368
-0.76262289286 0.097084455192 0.63912630081
-0.86296379566 -0.031729772687 0.50336641073
-0.75335431099 -0.12265767902 0.64344799519
-0.86516320705 -0.18879365921 0.46281141043
0.24780192971 -0.49119904637 -0.83484232426
0.17295211554 -0.64525282383 -0.74412256479
0.068343631923 -0.54578691721 -0.83507674932
0.12384267151 0.8664072752 0.48313784599
0.27314117551 0.79794508219 0.53715413809
0.26347225904 0.87428557873 0.40757495165
0.41576352715 0.79898458719 0.43443715572
0.34319812059 0.88542497158 0.31269472837
-0.96379858255 0.091504134238 -0.25003960729
-0.90137976408 0.23304621875 -0.36481910944
-0.87840086222 0.077009215951 -0.47162306309
-0.94139051437 0.27979132533 -0.18744383752
-0.43647557497 -0.72346073389 0.53436124325
-0.35013180971 -0.65990519524 0.6648080945
-0.53977417946 -0.5814691782 0.60823404789
-0.25604084134 -0.77796429396 0.57310009003
-0.17330901325 -0.70551645756 0.68711256981
-0.49297010899 -0.40714305639 0.76805484295
-0.43615970016 -0.27116835117 0.85802823305
-0.55384647846 -0.24084109068 0.79681199789
0.48381924629 -0.80811774731 -0.33591040969
0.34732109308 -0.89966773987 -0.26436644793
0.31545972824 -0.8490383029 -0.42370012403
0.15151019394 -0.9302520752 -0.33392843604
0.22852861881 -0.95792925358 -0.17235067487
0.54534631968 -0.82203125954 -0.16369518638
0.41084474325 -0.90431958437 -0.11551623046
0.53021353483 -0.84743511677 0.016026958823
0.99435448647 0.00067237578332 -0.10095699131
0.94856822491 -0.10600793362 -0.29687318206
0.94808441401 0.11651563644 -0.29356402159
0.88137435913 0.045301187783 -0.46597450972
0.92182135582 0.19079580903 -0.33289009333
0.14800873399 0.24256384373 -0.95874804258
0.28348055482 0.12079016119 -0.95122140646
0.12064296007 0.094018250704 -0.98764753342
0.63993024826 -0.72159349918 -0.26181954145
0.95858973265 0.16146531701 0.23399575055
0.89682930708 0.26277607679 0.35577371716
0.916197896 0.076563231647 0.39332121611
0.8325535655 0.1616615206 0.52984791994
0.80652016401 0.32967379689 0.49074015021
0.83626002073 -0.022176412866 0.54794740677
0.82394748926 0.44869500399 0.34568613768
0.94332408905 0.3028717339 0.13523218036
0.78225106001 0.55729323626 -0.27818608284
0.71302729845 0.54734671116 -0.43807971478
0.66685074568 0.65697079897 -0.35081204772
0.33873701096 0.90321713686 -0.26342758536
0.048436392099 0.85280889273 -0.51993346214
0.16679254174 0.91116178036 -0.37646076083
0.29259634018 0.8236271143 -0.48579797149
0.44901901484 0.81960958242 -0.35537433624
0.7068040967 -0.69890868664 -0.10707060993
0.63435131311 0.70492494106 0.31692218781
0.75691992044 0.60073775053 0.25727546215
0.69140821695 0.70431995392 0.16076110303
0.68909865618 0.59078752995 0.4196344614
0.80223923922 0.59374970198 0.059798840433
0.72100359201 0.25810712576 0.64310628176
-0.90692520142 -0.21912629902 -0.35832956433
-0.85347127914 -0.19239753485 -0.48416531086
-0.87543821335 -0.30722266436 -0.37271210551
-0.92684948444 -0.071832194924 -0.36812910438
-0.97921186686 -0.081309348345 -0.17890195549
-0.65621328354 -0.53937542439 -0.52767109871
-0.76049274206 -0.47127860785 -0.44657257199
-0.71697205305 -0.39580801129 -0.57383614779
-0.66828781366 -0.61887133121 -0.41271910071
-0.81108218431 -0.32207211852 -0.48822543025
0.31846675277 0.55476599932 -0.76855063438
0.27378323674 0.69048285484 -0.66883254051
0.4002315104 0.60587275028 -0.68736767769
0.40192741156 0.69787877798 -0.59258145094
0.70022815466 0.71367704868 0.015018652193
0.15240076184 0.54079300165 -0.82711100578
-0.0055417614058 0.52245080471 -0.85252559185
0.046667978168 0.63840591908 -0.76817953587
0.087321788073 0.39541402459 -0.91430199146
0.26187479496 0.42619082332 -0.86349600554
0.7471152544 0.062460541725 0.66171222925
0.72290837765 -0.13951767981 0.67649763823
-0.28338053823 -0.52144038677 -0.80481946468
-0.41427412629 -0.40152320266 -0.81677526236
-0.2859686017 -0.36169072986 -0.88729935884
-0.53248131275 -0.42038020492 -0.73461711407
-0.53667128086 -0.28805914521 -0.79255771637
-0.16116350889 0.24459135532 -0.95610201359
-0.083685331047 0.38189017773 -0.92040622234
-0.0032294436824 0.2589224577 -0.96531224251
-0.26364463568 0.34892088175 -0.89864128828
-0.16528859735 0.48798161745 -0.85702973604
-0.30829876661 0.15801894665 -0.93768370152
-0.40762332082 0.26125812531 -0.87423533201
-0.27926424146 -0.004414845258 -0.95912891626
-0.46425446868 0.13384239376 -0.87525486946
-0.11656747013 0.079800620675 -0.98934519291
-0.12743738294 -0.073943465948 -0.98901754618
-0.11205297709 -0.54868429899 -0.82830071449
-0.17568218708 -0.66871881485 -0.72243767977
-0.0078198127449 -0.66270923615 -0.74883013964
0.020384952426 -0.038658991456 -0.99896526337
-0.29311546683 -0.16876937449 -0.94075083733
-0.5253816843 0.0062863095663 -0.85043185949
-0.4572596252 -0.13062249124 -0.87879174948
-0.17031079531 -0.29191634059 -0.94101059437
-0.40131542087 -0.25978294015 -0.87752205133
-0.81877827644 0.35408490896 -0.45179450512
-0.80229061842 0.22880887985 -0.55093044043
0.25834539533 -0.023643877357 -0.96573740244
-0.19892087579 0.60055017471 -0.77374875546
-0.29103514552 0.51883894205 -0.80329793692
-0.75515925884 -0.23342198133 -0.61255538464
-0.83635562658 -0.075333558023 -0.54256927967
-0.80420541763 -0.512352705 -0.30103173852
-0.8442080617 -0.39545375109 -0.36090320349
-0.6524694562 -0.19097933173 -0.73277240992
-0.70723921061 -0.11466843635 -0.69730848074
-0.64845788479 -0.34947735071 -0.67587929964
-0.61154139042 -0.47152462602 -0.63536685705
0.69493305683 -0.58168053627 -0.42182162404
0.55770462751 -0.63460588455 -0.53500944376
0.63335245848 -0.52609282732 -0.56748139858
0.50355350971 -0.5539073348 -0.66299945116
0.42894738913 -0.66475099325 -0.6116374135
0.56716388464 -0.44192692637 -0.69487595558
0.58278757334 -0.7021715045 -0.40906816721
0.46001765132 -0.74522763491 -0.48268082738
0.43429660797 -0.4477095902 -0.78161007166
0.35333076119 -0.57992094755 -0.73404532671
-0.42787137628 -0.69501239061 -0.57771945
-0.46427544951 -0.77192896605 -0.43417006731
-0.56219816208 -0.67114621401 -0.48317718506
-0.59162145853 -0.72169286013 -0.35873764753
-0.021594896913 0.9692094326 -0.24526809156
-0.008904306218 0.92259269953 -0.3856588304
-0.14926050603 0.9381223917 -0.3125
-0.12552794814 0.88015460968 -0.45633047819
-0.41550159454 0.19093337655 0.88917410374
-0.43390932679 0.004822476767 0.90085238218
-0.31794396043 0.063423141837 0.94586122036
-0.055084995925 -0.88003695011 0.47112923861
0.056777864695 -0.82339882851 0.56385552883
-0.079185836017 -0.78839921951 0.60990470648
0.014277033508 -0.71650224924 0.69738984108
0.50147414207 -0.1405287236 0.8534527421
0.39548441768 -0.11215770245 0.91095918417
0.44481307268 -0.26823762059 0.85435503721
-0.10643716156 0.87203651667 0.47750648856
-0.20775705576 0.80468803644 0.55589336157
-0.088293172419 0.78128927946 0.61788189411
-0.24115012586 0.88232576847 0.40329352021
-0.10544477403 0.68808782101 0.71788161993
-0.2327530086 0.70809561014 0.66664779186
-0.86965876818 0.48441684246 0.094307631254
-0.80536031723 0.55826121569 0.19912479818
-0.77855235338 0.6227747798 0.076611809433
-0.89540880919 0.39031767845 0.21399697661
-0.68533152342 0.72011053562 0.10848278552
-0.7108258605 0.66672116518 0.22388032079
-0.068586282432 -0.76706284285 -0.63791280985
-0.19042120874 -0.79976952076 -0.569244802
0.066557325423 -0.75792598724 -0.64897483587
-0.55739098787 -0.057327594608 0.82788383961
-0.47857224941 -0.14109419286 0.86651068926
-0.36165603995 -0.11309819669 0.9253988266
-0.60301327705 -0.13224929571 0.78605550528
-0.84879148006 -0.52844250202 0.0032977419905
-0.8939614892 -0.43918612599 -0.087642207742
-0.8322224617 -0.53330296278 -0.15144473314
-0.85944503546 -0.44512730837 -0.25130969286
0.54350674152 -0.82413756847 0.15943315625
0.42428836226 -0.89644801617 0.12773948908
0.35940539837 -0.89927279949 0.24916411936
0.25542059541 -0.95309883356 0.16265365481
0.99530690908 0.034756813198 0.085495084524
0.96924579144 -0.0054173353128 0.24598528445
0.9893296957 -0.094491511583 0.1054572463
0.95226919651 -0.16350546479 0.25775194168
0.91079878807 -0.096694014966 0.40135961771
0.88083195686 -0.26815852523 0.39011085033
0.83389425278 -0.17375668883 0.52383333445
-0.73412293196 0.58474421501 0.34517320991
-0.62880134583 0.64564615488 0.43331080675
-0.62117195129 0.71574413776 0.3190920949
-0.52287811041 0.75059819221 0.40395510197
-0.49966439605 0.81952524185 0.280580163
-0.70174700022 0.52730321884 0.47902446985
-0.6043484211 0.5884630084 0.53706544638
-0.63602101803 0.48555359244 0.5996966362
-0.72355669737 0.39594444633 0.56499713659
-0.7922668457 0.44684121013 0.41521894932
0.16962096095 -0.54117327929 0.82362127304
-0.097294509411 -0.11008490622 0.98913276196
0.38090497255 -0.58121794462 0.71889364719
0.26182878017 -0.61079323292 0.74726742506
0.32824110985 -0.676412642 0.65894180536
-0.52455854416 0.086371585727 0.84691524506
-0.56130754948 0.20471011102 0.8018887043
-0.64562135935 0.081154361367 0.758880198
-0.66289770603 0.22611832619 0.71371430159
0.034868206829 0.019051544368 0.99913966656
-0.10830955207 0.021122097969 0.9938262701
-0.22815786302 -0.089206948876 0.96952199936
0.13400255144 -0.64686012268 0.75068759918
0.23277892172 -0.709818542 0.66471475363
0.31394973397 -0.49532911181 0.80989950895
[...]
CELL_DATA 1698
SCALARS cell_data_0 double
LOOKUP_TABLE default
2.59534605135e-08
3.67572922e-08
9.52787774117e-08
8.25743741295e-08
1.18862204202e-08
2.31740607189e-07
8.51868352727e-08
7.03332501604e-08
7.44994907242e-09
2.50449741861e-08
1.36232149429e-07
4.76926198492e-08
8.76172231561e-08
9.87147505598e-08
8.58277615263e-09
5.84187080415e-08
4.92666495773e-08
1.11483491109e-07
9.66202201526e-08
2.61307924343e-08
2.10730013087e-07
2.25752456011e-09
2.828318345e-08
6.0384639995e-08
1.9833164918e-07
5.67882377923e-07
8.81551478855e-08
1.51535061402e-07
9.88251538961e-08
1.1818766909e-07
3.5778191029e-08
8.01425196986e-09
5.84272470199e-08
7.93519979334e-08
1.40467137433e-07
5.55516919404e-08
1.69556790162e-07
1.38027581702e-07
9.05289081288e-08
1.05660700235e-07
4.93910413877e-08
2.93281950835e-08
7.73071302515e-08
1.33194241327e-07
3.04570793738e-08
2.63199309237e-08
1.01222988267e-07
2.17083345809e-07
1.07873578049e-07
4.96646501015e-08
4.99480343919e-08
1.4062133704e-08
5.51820263417e-08
8.36827165243e-09
1.90049465331e-08
6.30887212463e-08
3.91430199693e-09
2.69567532743e-08
1.21441215574e-07
1.05263374452e-07
1.09362879894e-07
1.5355531089e-07
7.15318113138e-08
3.89680088778e-08
4.50407739987e-09
3.4987678889e-08
2.10506585024e-08
7.42762770418e-08
4.33990355815e-08
9.14452353785e-08
6.03602214299e-09
9.41401439902e-08
3.1292446059e-08
7.05887126234e-08
1.64624051262e-07
2.64799935136e-07
2.27147726675e-07
1.31874604575e-07
6.04663606519e-08
9.24570257129e-08
9.82916750334e-08
3.0694732562e-07
1.73322040357e-07
7.42650616055e-08
5.41595202427e-08
3.32284964272e-08
1.79334879487e-08
3.64739376087e-08
5.95997784597e-08
2.63245316542e-08
9.33706318638e-08
1.09096115326e-08
4.90743578672e-08
1.10257725974e-08
4.9292816019e-08
6.45727772922e-08
5.68257173688e-08
2.26412444911e-08
4.09051624085e-08
6.03282499179e-08
3.13909030726e-08
1.49076686159e-08
8.04683464505e-09
9.00162205603e-08
1.51567732792e-07
5.72846042622e-08
6.22158224221e-08
2.95832144079e-08
3.76639387398e-08
1.37924549138e-08
9.71050439388e-08
3.59420203464e-09
7.86155894827e-08
3.37982496999e-09
5.20967089128e-08
2.48467902683e-08
2.19084124048e-08
8.89813219691e-08
1.63790130407e-08
3.26658791388e-09
5.30698862903e-08
6.4714911762e-09
3.16919217991e-08
5.89017368746e-08
6.01774276279e-08
2.19357014383e-08
6.92530555186e-09
1.19677814627e-07
3.90577894503e-08
1.2057023222e-08
5.58907347957e-08
5.828691237e-08
1.73068328358e-08
1.69546012097e-07
1.5430810043e-07
9.8256635825e-09
4.42137398403e-08
1.10238338881e-07
2.46501642551e-08
9.92085392309e-08
6.23192741808e-08
6.74723918455e-08
9.21283409959e-08
1.39385615748e-07
1.0855954056e-07
1.36229613822e-07
1.60577640019e-08
8.58455424052e-09
4.32787181215e-08
2.70887394932e-08
3.71498300629e-08
2.68460248899e-08
1.07314323932e-07
5.50839654425e-08
7.52467504101e-10
7.59451609104e-08
6.84953252739e-08
1.14168512763e-07
2.83580873936e-08
5.51760976132e-08
8.77615866265e-08
1.1916491266e-08
7.03277842005e-09
3.38242863498e-08
5.33174798908e-08
3.36371228521e-08
5.3460414947e-08
6.61927624578e-08
7.74515397649e-08
2.68685190612e-08
7.75768210051e-08
6.04227517737e-08
4.04866721145e-08
4.64200985134e-09
3.58897504523e-08
3.041091988e-09
2.19550340169e-08
5.50951572371e-08
7.46760258741e-08
1.00318023414e-07
5.96793024688e-08
5.9703186803e-08
5.83203316385e-08
1.01479049141e-07
8.74008231199e-08
3.30370204019e-08
5.10983747298e-08
4.19079003816e-08
2.4544678409e-08
6.41417503358e-10
3.73896247094e-08
7.64264527274e-09
1.72901070989e-07
2.35220115424e-08
2.40638817322e-08
4.51557839822e-08
3.03218125509e-08
2.21580261177e-08
1.30505581813e-08
7.20352568801e-08
8.34482127086e-08
1.31865539352e-09
4.26623492158e-08
3.81507663604e-08
1.819470163e-08
1.50077200281e-09
1.16639261993e-07
7.51623432663e-08
3.29873344016e-08
6.96953691637e-09
6.7896615678e-08
3.30979524775e-08
7.6925952796e-08
5.90645643611e-08
1.57112573271e-08
1.50812543512e-07
7.8255125156e-08
5.55928504122e-09
4.24615937084e-09
1.78092797405e-08
8.71968898284e-08
1.68068629905e-08
8.08974687727e-09
4.39106238955e-08
2.56145522499e-08
4.53586917964e-08
1.18300955559e-07
8.12611669801e-08
9.53410427219e-08
1.09615845696e-07
3.17686617871e-08
7.05571154924e-09
2.68617008978e-08
2.98954246723e-08
1.00569619683e-07
2.66264147556e-08
4.51417923482e-08
3.46918485752e-08
5.16584740449e-08
6.57254468329e-08
6.69333185509e-08
1.03769425332e-08
4.35880661023e-08
9.41786095847e-09
1.73854019369e-08
3.29630524826e-08
3.76129566634e-08
5.22581287531e-08
8.98038642106e-08
1.18969415137e-07
3.11488093605e-08
4.2797512919e-08
2.94008642548e-08
4.43276870056e-09
5.19432448703e-08
4.79192373157e-08
5.40644724144e-08
1.78253730237e-08
6.09651013554e-08
7.47722748736e-08
4.50186630835e-08
1.10540374219e-08
3.7634143273e-08
7.44505247023e-09
6.5569127669e-08
3.90177653444e-08
1.03982628024e-07
1.8571071755e-08
1.59504144604e-09
1.07821776711e-08
8.82671641856e-08
3.8573372643e-08
1.34743679117e-07
2.58378674632e-07
1.11605951058e-07
7.09618371643e-08
4.48909444509e-08
2.47946888949e-08
3.29317267052e-08
4.46357586508e-08
7.01972174169e-08
1.4552549335e-09
2.49356903064e-08
2.56423667502e-08
1.15818511836e-08
6.68664809944e-08
1.1145486321e-08
1.42499390529e-08
1.84372862059e-07
1.82138163284e-08
6.06931001712e-08
1.19123897452e-09
7.90964441212e-08
2.5546416968e-08
2.47655953241e-08
3.78435360793e-09
7.66615495245e-08
3.70381225641e-08
4.06896380921e-08
1.0060452548e-08
1.38031183461e-07
8.48621219021e-09
1.05023983789e-09
2.83424480001e-08
7.13951979133e-08
2.47054281978e-08
5.07238048552e-08
1.91576749951e-08
7.22443997274e-08
1.68416034696e-08
3.11084130365e-08
6.74186415435e-08
3.69800868635e-08
2.03636122744e-08
8.46522324858e-08
1.93192869334e-09
2.24593456529e-08
3.34035020344e-08
1.11870391083e-07
9.78339141042e-09
7.53591708019e-08
2.06089972453e-08
8.59302755709e-08
1.46585106316e-09
1.12238405201e-08
5.21823768619e-09
1.09116592137e-08
1.33934211117e-07
2.04491062933e-08
2.74140046813e-08
5.08168683339e-08
2.14032379763e-08
5.38060719014e-08
1.55968233265e-08
6.11234412837e-09
3.03587720215e-08
1.14805390789e-07
1.8005989779e-09
1.0404601584e-07
1.88299347166e-08
1.0682571116e-08
2.29091535181e-09
3.21754975707e-08
3.85421167265e-08
9.73467045604e-08
1.16076522268e-07
4.18020803345e-08
1.38221755684e-08
1.07566010592e-08
5.5735928373e-08
1.55526922075e-08
3.75307371379e-09
9.60091262782e-08
3.71403242718e-08
1.83359219985e-07
4.44046635409e-08
5.10963624628e-08
3.76665865274e-08
8.58580016992e-09
5.24726016899e-08
4.73268903881e-09
2.85222237766e-09
8.57004487816e-08
7.75681416146e-08
2.87676863266e-08
3.4661560642e-08
5.14350883141e-08
3.41351588204e-08
1.65731888128e-07
1.52871899337e-09
1.20704328449e-07
2.36465726124e-08
8.07735553965e-08
1.12754316551e-07
1.09990326623e-07
3.5350171009e-08
5.46755023585e-08
7.43878513564e-08
5.33035874487e-09
3.61976632539e-08
3.9022469573e-08
4.55686146346e-08
5.54485593218e-09
5.91880816899e-08
1.44010945882e-08
7.31858979093e-09
1.7847229849e-09
2.40182379971e-08
2.16129565033e-09
3.51782046168e-08
8.31403400492e-09
1.23471335317e-07
3.77193996917e-08
6.41068316978e-08
3.75027257396e-08
1.87055646618e-08
3.25751814199e-08
1.39087095083e-09
3.7094651183e-08
4.52701032038e-08
1.08221870696e-07
3.43447140787e-08
3.63336665077e-08
3.5081669272e-08
5.23575770403e-08
1.03547465207e-08
1.74923442082e-08
8.56383684901e-09
7.29705587167e-08
1.14429407902e-07
1.02858935541e-07
2.94277084439e-08
5.89758796666e-08
1.49643001204e-07
1.09891474577e-08
7.08266934317e-08
5.64638629213e-08
1.36567248633e-07
9.48047098197e-08
8.05053282642e-08
3.28189633171e-08
5.21591300492e-08
8.45277208879e-09
1.05145709549e-07
6.79101378714e-08
3.52746716691e-08
5.8482498283e-08
1.46898101064e-07
3.73357611459e-08
3.64307249417e-08
4.88194885601e-08
6.5846830249e-08
5.12069615314e-08
1.62688091459e-08
1.24122720937e-07
5.45718036787e-08
1.45317278677e-10
1.43098470959e-08
2.86621605242e-08
1.01363621915e-07
6.30293542491e-08
1.06436195682e-07
2.4448908551e-08
6.15678044584e-08
4.18447350157e-08
9.14526919817e-10
8.72142338126e-08
8.02861537691e-08
9.07567790541e-09
1.83372126001e-08
1.15725600376e-07
2.99985780177e-08
8.77899440848e-08
5.60976557368e-09
9.94615404235e-09
1.68860557435e-08
8.56206518261e-08
6.50359851648e-08
9.3929329198e-08
3.28156609827e-08
4.99804903887e-08
5.58843493043e-08
3.03449017226e-08
1.2929795073e-08
8.73692289028e-08
4.30143358292e-08
1.06294001942e-07
2.21386556782e-08
7.19982030108e-08
4.52895057165e-08
7.44843142636e-08
7.37423367575e-08
5.30653100907e-08
1.32913484934e-07
1.09094429568e-08
3.81547910544e-08
1.08611296182e-08
4.93243083157e-08
2.45155117951e-08
7.10176713428e-08
4.08749858824e-08
1.91968938469e-08
1.31972847973e-07
4.0304373529e-09
1.8405252107e-08
1.04272868794e-09
3.35929694454e-08
2.89832529922e-08
3.30611755536e-08
5.25301632675e-08
6.61966101314e-09
8.89558790907e-08
1.30083921273e-08
9.7692978193e-09
1.262208368e-08
1.24454996701e-08
7.15969322676e-08
1.25121858324e-09
4.28619059809e-08
6.48270450984e-08
9.7095469952e-08
7.36300128008e-08
5.37797465215e-08
1.03761507504e-07
7.79905508892e-09
1.86865270355e-07
1.32307293119e-07
1.68746911584e-08
8.90857021604e-08
3.94175973129e-08
6.8707460435e-09
3.74848724084e-08
2.65832056163e-08
3.44021701429e-08
4.75045309198e-08
4.18259016275e-08
2.30340511329e-08
3.94113271876e-08
3.24576505018e-09
5.45121888875e-08
3.69934363367e-08
4.24491919231e-08
1.58743136029e-08
2.13699957744e-08
7.01103088825e-08
2.07172048244e-08
1.68856079157e-08
3.02556572277e-09
1.16925634072e-07
5.05610703941e-08
9.12346315287e-08
3.82280315742e-08
3.68154591312e-09
3.41452620103e-08
9.56626688244e-08
1.28339487619e-08
1.95088158138e-09
4.48105957197e-08
1.49156952688e-07
1.46375116852e-07
8.98246489479e-08
2.70160562936e-08
1.7210227249e-08
1.3304692251e-08
4.98272147541e-08
3.61843021063e-08
4.93755372803e-08
1.46213056204e-07
3.14755413635e-09
2.08896988062e-08
3.87155542171e-08
3.88685995909e-08
4.90580880269e-08
2.35594722141e-08
1.34769479018e-08
5.39368406756e-08
1.49546751688e-08
7.05839363111e-08
5.81114009222e-08
9.05591235646e-09
1.28867009089e-08
8.82989638964e-08
9.20766312534e-08
1.19291721496e-08
1.36495702151e-10
1.89336998202e-08
2.78863401977e-08
2.48436022091e-08
3.47885368459e-08
1.08599143609e-08
7.64996314245e-08
1.26609484499e-08
3.16591747486e-08
4.89957057349e-08
8.07259194495e-08
1.99618357789e-08
3.34097116608e-08
8.40989550872e-08
1.483494058e-07
3.88630216218e-08
4.62851470837e-08
5.3381126823e-08
6.48395060791e-08
1.00163198681e-08
6.05345297345e-08
1.15951190884e-07
4.90064415151e-08
9.33622310417e-08
5.46590462416e-08
1.54401630034e-07
7.7958221746e-09
5.94714399039e-08
2.46180938804e-08
3.04953054191e-08
4.24142360087e-08
2.43249092873e-08
2.25351833541e-08
7.06939682123e-08
7.0234144276e-08
7.1203635132e-08
9.12234292977e-09
8.28709881731e-08
9.11187829278e-08
4.0824600422e-08
7.98035258043e-08
6.37093580612e-09
4.03568014318e-08
2.31550472525e-08
5.43051349992e-08
1.90350468318e-08
4.79209612699e-09
7.48061930186e-08
2.50432187921e-08
6.82012063331e-08
3.12400106157e-08
8.22583479998e-08
4.8363108908e-08
5.21598443796e-08
2.60600142308e-09
1.90748592903e-08
2.88330396295e-08
6.31958578982e-08
1.70873080191e-08
3.48187260567e-09
5.94542746049e-08
8.69856301623e-08
1.86065382395e-08
4.6913034159e-08
1.34992465644e-08
1.07910264446e-07
3.85160364951e-10
3.47419519774e-09
1.5968323454e-07
5.67075737362e-08
4.61864533427e-08
2.10455568776e-08
5.9666848589e-08
8.33870522015e-08
9.94591047621e-08
3.43116803194e-09
2.63363732281e-08
4.58736940199e-08
2.00315038819e-08
2.69060874908e-08
2.43254511197e-09
6.04544620174e-09
1.91710217885e-08
7.99035255467e-08
4.02048449999e-08
2.48298720056e-08
1.07543300738e-08
4.49828671047e-08
5.01227517426e-08
8.36229848128e-08
4.35669163979e-08
1.24787653425e-08
2.14073763356e-09
8.08573251152e-09
6.58600469933e-08
9.68416997401e-08
1.29458120501e-07
4.18384734164e-08
1.0333557432e-07
7.76166197931e-08
2.5507642631e-09
1.91458547256e-08
8.91277905305e-08
3.86763185596e-08
1.23633835435e-07
6.42384216907e-09
3.2331981597e-08
1.38150481605e-08
1.05483686981e-08
2.11616185813e-08
8.14258436941e-09
6.97802471627e-08
4.86067289556e-08
2.81948797321e-08
8.18342699423e-08
5.71316671251e-08
9.9015833812e-09
5.7723280155e-08
7.85902652333e-08
1.71434670473e-08
8.84896762595e-08
2.69370673538e-09
4.03359445688e-08
4.58650246723e-08
2.91854977984e-08
5.33451099901e-08
3.3006114388e-08
6.97637158104e-08
2.48646654021e-08
1.17864346291e-08
5.60330372599e-08
5.53446478191e-08
4.07885909129e-09
2.30758558728e-09
6.78196517174e-08
1.6377952688e-08
2.4510657661e-08
7.70069892554e-08
1.91215138645e-08
1.55620199815e-08
8.28690287627e-08
1.49651582085e-08
2.69851826223e-08
9.0490410953e-10
1.74871034261e-08
1.78858100653e-08
1.03789312681e-08
1.48572719824e-09
3.38486691189e-08
1.58953338736e-08
2.40944700869e-08
3.73755153486e-09
1.23421211989e-08
1.10381983424e-08
4.24193701721e-08
1.11610440774e-07
5.55198461541e-08
5.54272335994e-08
7.11401492341e-09
3.13764245374e-08
6.6077175796e-08
1.30996165249e-08
1.00082645197e-07
7.53125673205e-08
1.20260328321e-08
1.42512229218e-08
3.82536346925e-08
4.81818357348e-09
3.55504984314e-09
5.80654399354e-09
4.88038782619e-08
1.99270990195e-08
8.84852899815e-08
1.80108392288e-08
7.06976683338e-08
1.13128554915e-07
4.52286959445e-08
4.50885589087e-08
4.3131865362e-08
6.964124461e-08
1.85559800087e-08
3.75867449949e-08
1.90048685219e-08
9.36207714985e-10
8.30920257058e-09
8.35502626677e-08
7.23065718116e-08
3.06182849662e-08
1.93870332812e-08
1.04859581274e-08
5.46896310452e-08
3.22721037562e-08
3.12411461645e-09
1.41227171863e-08
5.90903828433e-09
7.37081516533e-08
6.35943026544e-10
2.34425702571e-08
1.42105663885e-08
2.23501481162e-08
1.37392371403e-09
2.13323558525e-08
4.64140190854e-08
8.50369676209e-08
3.40463551651e-08
3.16017244323e-08
1.9909566349e-08
1.12026847948e-08
2.33384711868e-08
3.88341106897e-08
1.03904265e-08
1.42675405829e-08
5.30374912679e-08
7.28964744772e-09
7.78032545181e-08
5.09250256318e-08
2.85028212342e-08
1.86546195772e-08
2.13610740537e-08
3.5192354402e-09
1.44546078685e-08
8.27166354293e-08
9.82958540794e-08
1.35527853315e-09
2.96754652925e-08
3.21272059615e-09
3.80129081019e-08
3.56284571514e-08
1.17563378915e-07
2.9366965325e-08
8.07926770527e-09
8.54601836397e-08
3.12555082615e-08
6.57071331341e-08
1.60128000754e-08
9.13141929846e-08
1.03504887891e-07
7.64845298542e-09
8.43924150589e-09
5.81038741454e-09
5.15939123578e-08
4.72485777383e-08
4.43466269738e-08
4.58478130015e-08
6.03461739295e-08
1.09332114859e-08
3.73733865289e-08
6.81472047578e-08
1.08672995155e-07
3.68263774422e-09
3.83650549334e-09
2.19628286371e-08
2.96758752654e-08
8.70699821892e-09
2.81326049342e-08
7.49423221764e-08
8.95746901611e-08
3.30838362852e-08
3.94641486372e-08
3.81925015559e-09
1.86112616789e-08
5.72018404419e-08
6.39313098686e-08
1.29863482635e-08
3.04076363816e-08
1.56264776347e-08
1.9523279912e-08
4.393215113e-08
9.24527402483e-08
1.08476923634e-08
2.75109029481e-08
3.85263986739e-08
2.75921574836e-08
7.61620179739e-08
6.31246068986e-08
2.12922019806e-08
2.76993145689e-09
2.24679408527e-08
9.9740473625e-08
5.63493627706e-08
1.45530341613e-08
1.00279878786e-08
4.17740003538e-08
1.35278263894e-08
2.59129711108e-08
2.05961063588e-08
5.68946332886e-08
6.75790550298e-08
2.81612412142e-08
4.1102393672e-08
6.29756259786e-09
2.70425733578e-08
6.64895211544e-08
1.6250280651e-08
1.2067837877e-08
3.22047644072e-08
3.06949210312e-08
8.58414549743e-08
1.9190173544e-08
3.85638166234e-08
2.72052615012e-08
7.70901326841e-08
5.36381957267e-08
9.28252887816e-10
9.7514434641e-09
1.31979333608e-08
7.73097973216e-08
1.8694878872e-08
5.81933544803e-08
2.0560170306e-08
1.74997358886e-08
1.72621377194e-08
1.33933968821e-08
6.19977596023e-09
2.0201574519e-08
3.20585877958e-10
6.15093553639e-08
7.26917186918e-09
1.72418063356e-08
4.58232495755e-08
3.08364118736e-09
5.99878741381e-08
1.48192469884e-09
3.20888470483e-08
1.22306507903e-07
1.10687564556e-07
8.54910789866e-08
5.22250104031e-09
2.57231429141e-08
3.85529530668e-09
2.82281380063e-08
3.00083568902e-08
5.407604235e-08
1.00329564157e-08
3.60046142158e-08
3.92894850729e-08
3.01407349546e-08
3.74657863367e-08
5.84053870696e-08
1.27992668126e-08
2.94457430777e-08
6.9951028446e-09
3.39928307646e-08
2.65788877195e-08
1.18737504969e-08
2.28790795754e-08
1.54483911283e-08
1.54263175429e-08
1.41510000802e-07
5.11095302989e-08
1.83854687323e-09
1.77910557515e-08
1.25656536547e-08
4.97393116614e-09
1.2928450316e-08
3.3899027614e-09
4.17888461591e-08
1.66044324427e-08
6.46615432412e-08
3.7222781708e-08
5.03328920802e-08
3.00463887081e-09
5.99290799546e-08
1.89189021737e-08
3.20808124243e-08
3.75732925299e-08
7.23881465733e-09
6.26154292321e-08
5.07912903575e-08
2.7745584731e-08
2.01465998346e-08
2.90651155309e-08
3.81564915015e-08
7.10830075267e-08
2.8559867348e-08
2.21186674086e-08
4.21977572986e-08
5.77614568878e-08
7.23297765996e-09
1.29458721495e-08
9.24690242343e-08
6.48057260766e-08
2.95806405865e-08
5.98589916831e-08
9.06512887852e-08
6.77036924472e-08
1.04563809058e-07
9.33270847646e-09
2.32716884423e-08
6.3530136556e-08
2.10183504225e-09
1.73031020445e-08
7.96098465965e-09
4.00716560053e-08
4.64038968278e-08
4.09220662933e-08
3.00836489966e-08
2.95544042098e-08
3.7154084782e-08
4.47207201477e-08
1.82407646071e-08
4.37522664623e-08
2.56347135906e-08
2.79971977462e-08
2.61574793083e-08
1.20182060063e-08
8.46229718655e-08
9.90695610444e-09
4.47451936865e-08
1.21969534242e-08
5.09507739921e-08
1.00687042503e-08
3.1715426885e-08
5.99380729547e-09
4.58151167375e-08
4.2370243726e-08
1.76084288716e-08
7.67510579335e-09
4.32804066036e-08
4.4264113181e-08
1.61877933664e-07
5.42580220734e-09
7.09839439459e-09
5.45053598442e-08
4.83719610303e-08
4.06027960864e-08
4.05019100533e-08
2.15836702993e-08
3.42037222675e-08
2.87762371537e-08
1.4319730695e-08
3.7513809637e-08
2.20247125392e-08
1.68744609839e-08
7.88978559772e-08
9.25192031373e-08
2.89446926779e-09
2.1627557791e-08
4.41802439718e-08
1.958636129e-08
3.13454146848e-08
4.69372057004e-08
5.2427853157e-08
6.99193148008e-09
5.2241266044e-08
3.96640500101e-10
1.0377296751e-08
1.60876356805e-08
2.30428698195e-08
1.79524212321e-08
1.02231424042e-08
2.74631017629e-08
3.34080210046e-08
1.52452910895e-08
2.48784086766e-08
2.77452711149e-08
5.10991188319e-08
2.49652242572e-08
4.91898667976e-08
2.43772793234e-08
1.8331964665e-08
1.18408906479e-08
6.60704909239e-09
2.7023736031e-08
2.98055266641e-08
5.50692803936e-09
6.99016545543e-10
4.48165419392e-08
4.96056352102e-09
8.30411745282e-09
2.45432096597e-09
6.83729569677e-09
9.50285885968e-09
1.61590178539e-08
5.15174210977e-08
2.32267588055e-08
2.35570801385e-08
8.07808595607e-09
1.77949164944e-08
3.09216685718e-08
5.13952837262e-08
6.27827810322e-09
1.57537463133e-08
4.03567169521e-09
3.0563444114e-08
5.39604140273e-09
8.17398652609e-08
2.39291355463e-08
4.29508422145e-08
6.24472423536e-08
1.50945711054e-08
1.103641523e-08
1.10512003843e-08
3.04583139146e-08
8.22954472263e-09
3.32597326772e-10
2.35546359278e-08
1.45966857566e-08
1.47993691769e-08
3.33587101231e-08
4.09306186324e-08
2.27001704295e-08
4.44600922631e-08
2.23224263294e-08
1.00376548387e-07
6.9597832373e-08
1.09966842427e-08
1.07145976976e-08
1.10632764939e-08
2.71052054624e-08
3.3206807421e-09
2.53431192029e-08
1.05808914785e-07
6.374106056e-08
1.60722234596e-08
2.78588378395e-08
3.02977813625e-08
7.26245609982e-09
6.39125288907e-08
1.1844099414e-08
9.09880132427e-08
7.03682292603e-08
9.26968256813e-08
4.12644469377e-08
8.74860311074e-08
6.22565703498e-08
1.76142941366e-08
2.38490006518e-08
6.84149292816e-09
3.45099629801e-08
8.63022004393e-09
2.02459664904e-08
8.20382317076e-08
9.50607295443e-08
2.0354595366e-08
1.40816240329e-08
5.90860652827e-08
2.72486932947e-08
4.94801908962e-08
4.21544971306e-10
7.96790535065e-08
9.17721155742e-08
4.52903609747e-08
4.74153244185e-08
1.34691656869e-07
1.02447412872e-07
1.6525538365e-09
4.21836319559e-08
7.10520217062e-08
7.99511041232e-08
1.25398872588e-07