# vtk DataFile Version 3.0
File Name: Molecule/sphere_cent/sphere_cent_0-s24.vtk
ASCII
DATASET UNSTRUCTURED_GRID
FIELD FieldData 1
TIME 1 1 double
0.0
POINTS 1444 double
-0.51590281725 0.6789419651 0.52239710093
-0.47874319553 0.61485022306 0.62627661228
-0.39775463939 0.71334844828 0.57695603371
-0.081095963717 -0.37473449111 0.92353022099
-0.032934114337 -0.23956757784 0.97032344341
-0.15185961127 -0.2529168427 0.95479398966
0.24477563798 -0.50017946959 -0.83060091734
0.19069498777 -0.62878519297 -0.75324422121
0.097418710589 -0.56277728081 -0.82037901878
0.13934236765 0.86749565601 0.47741568089
0.27823314071 0.79896813631 0.5330684185
0.26374909282 0.87090742588 0.41466915607
0.41126519442 0.80255836248 0.43214631081
0.34683945775 0.87720155716 0.33190611005
-0.48612436652 -0.38941395283 0.78229308128
-0.44359967113 -0.27602776885 0.85256010294
-0.54300558567 -0.24535764754 0.80306202173
0.81162798405 0.33358237147 0.47900140285
0.88130497932 0.25830057263 0.3953075707
0.83098334074 0.42069780827 0.36363133788
0.64681792259 0.70006561279 0.30125927925
0.74157524109 0.63070297241 0.22846965492
0.6904694438 0.70636880398 0.15593260527
0.7981788516 0.59781622887 0.074192129076
-0.91136872768 -0.20483843982 -0.35701838136
-0.86234360933 -0.20241381228 -0.46366709471
-0.87239098549 -0.29780700803 -0.38759896159
-0.92002463341 -0.10403437167 -0.37770959735
-0.65593922138 -0.53910559416 -0.52829712629
-0.74680548906 -0.49379658699 -0.44469794631
-0.7305817008 -0.4005613625 -0.55247426033
-0.6772004962 -0.60485327244 -0.41806218028
0.70516765118 0.70867931843 0.021024700254
0.14429463446 0.53564333916 -0.83203798532
-0.0055324402638 0.51083141565 -0.85965979099
0.052754618227 0.62232011557 -0.7806610465
0.093516588211 0.40735584497 -0.90794044733
0.23967121542 0.45669621229 -0.85670590401
0.3232537806 0.54044157267 -0.77664071321
0.8213211894 0.01352323778 0.56917262077
0.73852449656 0.03984760493 0.67291587591
0.74762529135 -0.11181783676 0.65449911356
-0.4300609231 -0.38780230284 -0.81439834833
-0.53288042545 -0.42138457298 -0.73378205299
-0.52552604675 -0.31876415014 -0.78877651691
-0.11278047413 0.26428195834 -0.95760756731
-0.056541550905 0.3764564693 -0.92423290014
-0.0070664519444 0.27082321048 -0.9624324441
0.25978147984 -0.029289327562 -0.96523576975
0.13399797678 0.073965899646 -0.98797672987
0.27140933275 0.09301687032 -0.95778924227
-0.19702982903 0.58553189039 -0.78633564711
-0.17401999235 0.50038975477 -0.84798163176
-0.29283288121 0.53048527241 -0.79545944929
-0.80874371529 -0.32143953443 -0.49170228839
-0.74719035625 -0.24372945726 -0.61776167154
-0.86506050825 -0.072701320052 -0.49609848857
-0.65783894062 -0.19008336961 -0.72867178917
-0.6873396039 -0.1276537925 -0.71457332373
0.54070460796 -0.63862389326 -0.5474178195
0.49650534987 -0.55812090635 -0.6648208499
0.62264144421 -0.53221863508 -0.57355624437
0.42456114292 -0.66479420662 -0.6146324873
0.56148320436 -0.44851899147 -0.69536840916
0.45087239146 -0.72976219654 -0.51375740767
0.42754051089 -0.45975497365 -0.77787572145
0.35179668665 -0.5811727047 -0.73379778862
-0.43063408136 -0.69758945704 -0.57263827324
-0.47243663669 -0.76493561268 -0.43783614039
-0.54549026489 -0.67400532961 -0.49652007222
-0.03018379584 0.9668789506 -0.25237447023
-0.013565534726 0.93094497919 -0.36460837722
-0.13590596616 0.93599569798 -0.32450339198
-0.10813335329 0.88939219713 -0.44349297881
0.45227172971 -0.27417945862 0.84857577085
0.49436745048 -0.15473648906 0.85531681776
0.39372816682 -0.21382470429 0.89402776957
-0.11878462881 0.87953448296 0.46077382565
-0.23237740993 0.88075476885 0.41257497668
-0.20730152726 0.81955486536 0.53397727013
-0.68465274572 0.72045177221 0.11046810448
-0.77603256702 0.62461155653 0.087463013828
-0.71221262217 0.66646939516 0.22037927806
-0.53330487013 -0.043131377548 0.84471839666
-0.48193362355 -0.14146326482 0.8646967411
-0.43325644732 -0.025903396308 0.90072417259
-0.36216029525 -0.096776776016 0.92700713873
-0.32325556874 0.026287518442 0.9458642602
-0.57984036207 -0.12943038344 0.80426388979
-0.84732478857 -0.53098332882 -0.0070768962614
-0.89048755169 -0.44858190417 -0.07612477988
-0.83424693346 -0.53000330925 -0.15188798308
-0.85909873247 -0.44229546189 -0.25751674175
-0.80448240042 -0.51340711117 -0.29865351319
-0.84199106693 -0.40456697345 -0.35581427813
0.52666020393 -0.84933137894 0.033125277609
0.52244484425 -0.83957594633 0.14813907444
0.44100415707 -0.88985776901 0.11510102451
-0.73431873322 0.58498477936 0.34434816241
-0.62751847506 0.64688944817 0.43330898881
-0.62411791086 0.71466910839 0.31576493382
-0.5290697813 0.74585747719 0.40468046069
-0.50986862183 0.8095061183 0.28987589478
-0.69702607393 0.5391677618 0.47276818752
-0.59883856773 0.59426683187 0.53688061237
-0.63881534338 0.504165411 0.58102935553
-0.79301261902 0.45415973663 0.40587973595
-0.11177732795 -0.12612132728 0.98562985659
0.37875670195 -0.5718921423 0.72759842873
0.25920787454 -0.60875213146 0.74980330467
0.3279709518 -0.6649030447 0.67102855444
-0.54035353661 0.087631076574 0.83675950766
-0.56277811527 0.20713531971 0.80021798611
-0.62843102217 0.08368422091 0.77330172062
-0.45938247442 0.19128087163 0.8672093749
-0.10653348267 0.017050925642 0.99409836531
-0.2353785038 -0.079938419163 0.96836429834
0.032594840974 -0.576215446 0.81626594067
0.13437044621 -0.65288811922 0.74544358253
0.16756261885 -0.54177963734 0.82364690304
0.2352642566 -0.70522278547 0.66882508993
0.30351731181 -0.49627056718 0.81337791681
-0.82932364941 0.47077459097 0.30090752244
-0.87466537952 0.34496897459 0.34040042758
-0.89913201332 0.37900102139 0.21901211143
-0.60533493757 0.77222508192 0.19295991957
0.43864479661 0.71172916889 0.54862397909
0.5398837328 0.71212667227 0.44739717245
0.57163864374 0.6208242178 0.53638064861
-0.29646769166 -0.72294276953 -0.62404543161
-0.3517075479 -0.78565686941 -0.50834149122
0.76204007864 0.19445577264 -0.61758458614
0.70892584324 0.13987597823 -0.69126474857
0.68754827976 0.26865127683 -0.67459344864
0.71078401804 0.35821437836 -0.60512262583
0.63321310282 0.40515443683 -0.65945607424
0.86832547188 -0.36665678024 -0.33394548297
0.88920813799 -0.3970079124 -0.22694708407
0.81437885761 -0.47084656358 -0.33902657032
0.33680057526 -0.7574686408 -0.55928421021
0.30261620879 -0.68431329727 -0.66343379021
0.22565221786 -0.75786519051 -0.61200910807
-0.54754072428 -0.59381431341 -0.58946937323
-0.60185718536 -0.48681178689 -0.63253074884
-0.51480007172 -0.52339440584 -0.67900401354
0.52855122089 0.78090626001 0.33285838366
-0.41925007105 -0.51508522034 -0.74756908417
-0.79376977682 0.56823962927 0.21636962891
0.14275114238 -0.74623590708 0.65007281303
-0.61525309086 -0.63549667597 -0.46495705843
0.30931639671 0.54063570499 0.78225839138
0.41778427362 0.47611093521 0.7737801075
0.40232020617 0.58250778913 0.70577424765
0.67355942726 0.58770728111 0.44744682312
0.65305423737 0.514731884 0.55540657043
0.74626106024 0.45828506351 0.4827606976
0.68479520082 0.41672155261 0.59744799137
0.60190147161 0.46817559004 0.64684873819
-0.30473446846 0.48898607492 0.81733769178
-0.20877929032 0.60188609362 0.77080231905
-0.33101913333 0.59824514389 0.72924727201
-0.10651692748 0.67628264427 0.72845757008
-0.20315685868 0.70184731483 0.6825787425
-0.21803505719 -0.37687680125 0.90023648739
-0.14687940478 -0.50215309858 0.85184931755
0.051190406084 -0.32913377881 0.9428883791
0.11247578263 -0.42763990164 0.89680838585
0.17945212126 -0.32582351565 0.92820698023
0.10354905576 -0.22317576408 0.96925961971
0.21897260845 -0.2033149749 0.95428413153
0.29937806726 -0.2611605227 0.91765576601
0.213723436 -0.4375231266 0.8734369874
0.29132160544 -0.36584115028 0.88388252258
0.031870458275 -0.15316526592 0.98757058382
0.16353900731 -0.11352540553 0.97993189096
0.23446650803 -0.95335745811 0.18995214999
0.22586251795 -0.92203825712 0.31433522701
0.10063177347 -0.96822780371 0.22873918712
0.11330581456 -0.91040670872 0.39730036259
0.25141951442 -0.86050832272 0.44300636649
-0.0097075011581 -0.94885146618 0.31550568342
0.37149330974 0.37675586343 0.84853261709
0.45784494281 0.37135884166 0.80771464109
-0.32991981506 0.809707582 0.48527514935
-0.43906587362 0.75748074055 0.48318585753
-0.42808488011 0.81264090538 0.39535629749
0.1420737952 -0.98408186436 0.10692567378
0.030488744378 -0.99558955431 0.088108539581
-0.3685016036 0.9064489603 0.2046354562
-0.28491464257 0.95080840588 0.1199542582
-0.39255520701 0.91749608517 0.063973285258
-0.50892186165 0.85182636976 0.11985556781
-0.50639736652 0.86216849089 -0.014548449777
-0.28999385238 -0.26657009125 0.91876161098
-0.35111629963 -0.37208890915 0.85920917988
-0.26898464561 -0.48387342691 0.83277565241
0.55263096094 -0.32883504033 -0.76491355896
0.5579816103 -0.20648217201 -0.80352282524
0.64210247993 -0.26479074359 -0.71904683113
0.81892132759 0.4459644258 -0.35982576013
0.84579271078 0.35368910432 -0.39938405156
0.77379500866 0.43836176395 -0.45720911026
0.71590459347 0.53501343727 -0.44782456756
0.67301446199 0.48307716846 -0.56007856131
-0.5651820302 0.33508351445 0.75383347273
-0.65328717232 0.34232601523 0.67524713278
-0.65763646364 0.24774441123 0.71136212349
-0.72699552774 0.29236361384 0.62119925022
0.34702950716 -0.90079444647 0.26118394732
-0.60356342793 0.79555636644 0.052977535874
-0.33329775929 -0.62360370159 -0.70711159706
-0.19077427685 -0.67559915781 -0.7119988203
-0.44820779562 -0.59933429956 -0.66325181723
-0.29741197824 -0.51893949509 -0.80118042231
-0.52432411909 0.4515889287 0.72183090448
-0.44391670823 0.41343602538 0.79497623444
-0.4344048202 0.50727885962 0.74382859468
-0.35112786293 0.35601380467 0.86599218845
-0.21693794429 0.38426959515 0.89737457037
-0.26702514291 0.27045312524 0.92495018244
-0.13180138171 0.26764443517 0.95444667339
0.50802892447 -0.47979834676 0.71531051397
0.56458353996 -0.53939646482 0.62470448017
0.62340152264 -0.433912009 0.65045052767
-0.46808791161 0.29833006859 0.83180218935
-0.36816984415 0.23716087639 0.89898371696
0.027949791402 0.041433252394 0.99875617027
[...]
CELL_DATA 2884
SCALARS cell_data_0 double
LOOKUP_TABLE default
2.96881918085e-08
3.11652989763e-08
5.80345948376e-08
8.02761017009e-10
1.26506956608e-08
3.21350241856e-08
4.00739940246e-08
9.05232605472e-08
1.27015245826e-08
4.81109930757e-08
2.72821256374e-08
1.45633672827e-08
5.69088582308e-08
2.89311201735e-08
3.00614653386e-09
4.20560549377e-08
3.90049124001e-08
1.01125831034e-07
8.13243523016e-08
3.29410161161e-08
2.13952640648e-08
9.59951975377e-08
1.13514126662e-07
3.67135729213e-08
1.1170281498e-07
1.11989106076e-07
1.2063090764e-07
4.38716194131e-08
5.71551203524e-08
2.73340459407e-08
4.48161714876e-08
1.91066397145e-08
2.23803174838e-08
2.24189414568e-09
8.43194828864e-08
6.79172811099e-08
3.10589265553e-08
1.71195692126e-08
3.38681355096e-08
2.74049847074e-08
1.37605608941e-08
4.00551982957e-09
1.55968621828e-08
3.93797070328e-08
2.89418940377e-08
1.23436071455e-08
3.17851549544e-08
1.98668717409e-08
1.07914856205e-08
6.82594558989e-08
3.32137193536e-08
4.89242378029e-09
6.03900077107e-08
3.96457921746e-08
9.5128896976e-08
2.00011081347e-08
3.00918232458e-08
1.12044940031e-09
2.29377915047e-08
2.11701598996e-08
2.00710206701e-08
1.02207944583e-07
2.83458451133e-08
3.03017948816e-08
2.38717147343e-08
4.50388467714e-08
1.28739611592e-07
5.26341926867e-08
2.20299155416e-08
3.58469165849e-08
5.52032365227e-08
5.9562811431e-08
6.21343597893e-08
5.13473046958e-08
3.54368132342e-08
7.48460611557e-09
1.53897216228e-08
5.35005428296e-08
1.9494102387e-08
4.77575092889e-08
9.20643983702e-08
1.40582929679e-08
2.65726082639e-08
2.45443075558e-08
2.63408072757e-08
1.84512878816e-08
8.05823770191e-09
1.9508450978e-09
2.4262191567e-08
5.06762283069e-08
9.65166831237e-08
1.24620075275e-08
1.06030179559e-08
2.44592735636e-08
4.74770531717e-08
5.47694698713e-08
5.79614551662e-09
4.75811015075e-08
3.72360746439e-08
3.31857358824e-08
6.66158094979e-09
5.11280529822e-08
1.37370262756e-08
7.01740263503e-08
7.33213071162e-09
3.0634995912e-08
3.92037508536e-09
4.6796754212e-08
4.29688581914e-08
8.35298365484e-09
2.91209789947e-08
2.96286828536e-08
1.4894113858e-08
3.0943197416e-08
2.37087036964e-09
2.44699423433e-08
2.80605904174e-08
1.84939579169e-08
2.37163147909e-08
3.30239309929e-08
1.43792333557e-08
1.4439980956e-08
1.12588161122e-08
8.04330419586e-08
3.91352328697e-08
1.09099261499e-08
4.12542546374e-08
7.41198881283e-10
1.80400190024e-08
3.4098725496e-08
3.25309483729e-09
6.58004246115e-08
4.91200721419e-08
4.27741546369e-08
1.56957669933e-08
7.97153250076e-09
7.3542793788e-08
1.40056304623e-08
3.88733118099e-08
5.86455723061e-08
7.42672840206e-08
1.32280814841e-08
7.18528263981e-08
2.11497847217e-08
4.01815478511e-08
7.05286556342e-09
1.35754403898e-09
4.64873229899e-08
9.15266143718e-14
1.40426435614e-08
5.31559270512e-08
1.58468995442e-08
2.97777118158e-08
8.03760943254e-08
5.8732395883e-08
2.34686778805e-10
1.6274133832e-08
7.38721523641e-08
4.83548903572e-08
1.66194190785e-08
8.49236191583e-08
5.34767526394e-08
4.60805902504e-08
4.1516120866e-08
3.9257195604e-08
1.10627068829e-08
1.63096704983e-09
2.01238657644e-08
1.78973180597e-08
1.14493247615e-08
1.412942041e-08
6.74015396255e-08
3.44663404933e-09
3.89118361494e-08
7.1621495618e-08
4.39371233025e-08
2.03930181374e-08
1.73911351088e-08
7.24077292761e-08
6.29624740995e-09
3.73929843113e-09
3.87432533723e-08
1.36520003509e-08
8.22219669583e-09
3.31170809041e-08
2.90869391317e-08
2.40416587849e-08
1.19468041496e-08
3.62919830145e-08
6.52078752701e-08
7.62472401001e-08
8.20840123279e-09
3.50492792589e-08
1.84597407313e-08
6.21727286169e-08
6.48946478838e-08
2.88759973524e-08
3.80536682029e-08
3.59445376082e-08
4.68214805982e-08
6.60670868663e-08
2.81749267016e-08
3.66121416599e-08
2.83924006795e-08
9.5514739653e-09
4.99074070462e-08
3.3259798943e-08
9.75731415972e-09
2.54097694043e-08
3.14071576013e-08
9.53753857034e-09
2.40702252207e-08
1.50885592014e-09
3.49935906954e-08
3.25259595871e-08
6.46181822656e-08
1.12458575857e-08
7.26534671574e-09
4.08481308103e-08
2.13380816386e-08
2.06512534407e-08
8.31582760375e-09
5.99362449449e-08
1.14438070706e-08
9.34152514135e-08
2.17598574617e-08
4.57215218838e-08
2.7163370636e-08
3.81923134608e-08
1.38073370004e-08
3.10040092154e-08
3.70037140434e-08
8.34100494967e-09
3.89724006198e-08
2.46190659298e-08
6.75960198461e-08
7.55618356745e-09
3.42905109308e-09
5.98758702058e-09
1.31911152595e-09
2.72992077234e-08
5.72824274493e-08
4.15606785695e-08
2.60713525911e-08
5.75474864389e-09
4.24603568976e-08
2.95946386173e-08
1.92534749628e-08
2.20553009016e-08
1.14895824694e-08
4.46372373877e-08
5.93846544332e-09
6.40855316436e-08
1.50584131506e-08
2.76976056617e-08
8.50601518787e-09
1.33404595912e-08
3.55149520609e-08
2.29826400577e-09
6.05535760345e-08
2.18101909679e-09
3.77055383801e-08
8.6652921269e-08
2.02262316662e-08
2.25354770861e-08
4.87749662026e-09
5.27798264907e-08
3.72437414735e-08
2.43704200353e-08
5.25103523114e-08
2.53689503598e-08
1.45722717048e-08
9.9497279764e-08
2.74593016336e-08
1.54454162873e-08
1.24299416459e-08
1.71218844338e-08
5.31917833411e-09
5.76530373312e-08
1.45918802456e-09
3.65404913028e-08
1.91385591281e-08
9.0955598709e-08
8.91036335034e-09
1.5129162862e-08
8.61813476004e-09
1.2532585771e-08
4.62725433052e-08
5.18510257187e-08
2.77493223074e-08
5.05121492401e-08
3.92423273598e-08
4.09003889564e-08
2.7411552535e-09
1.18472368205e-08
7.04173245586e-08
2.72831002451e-09
4.60131081752e-08
4.44470947668e-08
3.85882442931e-08
1.98390270994e-08
4.1483422517e-08
6.28985207486e-09
3.54946590118e-08
8.77556473251e-08
5.02079148756e-08
7.20763096456e-08
3.0427180773e-08
9.01814966102e-08
2.17169866499e-08
2.3246190606e-08
2.96032894554e-08
4.00805162579e-08
2.25695245706e-08
7.43775264464e-09
1.54313979792e-08
8.45214449544e-09
8.47851302143e-09
1.65581294769e-08
5.66845157955e-08
9.79324774043e-09
3.23406145703e-09
7.28748651977e-09
4.49481543624e-08
8.89714634115e-09
5.76284206618e-08
8.93412858501e-09
1.84831520337e-08
2.03523794649e-08
2.49939492876e-08
1.0121253446e-08
7.29280986495e-08
5.18495335181e-09
3.39547365912e-09
4.89922388228e-08
3.87249408537e-08
1.41474500718e-08
7.22977909259e-08
2.27156890503e-08
2.93719393666e-08
1.40525283702e-09
4.41439234592e-09
2.15219083839e-08
4.39796753423e-08
2.81851862071e-08
4.11481442318e-08
2.58322311954e-08
2.91817714849e-08
3.1187546868e-09
3.36558444124e-08
2.13279942219e-08
7.09430953496e-08
3.75430911002e-09
1.01541028921e-08
2.33311771673e-08
2.78106952639e-08
7.49925613455e-10
4.53647518712e-08
1.92010890092e-08
9.49235486694e-09
2.05043708883e-08
2.09177714783e-08
3.18389154172e-08
2.50217710376e-08
5.12343708048e-08
4.42452497035e-08
1.58504609705e-08
3.28723763116e-08
2.36658969968e-08
3.05988651222e-08
2.98653890962e-08
3.96446474456e-08
4.47323847031e-08
1.86831129082e-08
7.17900036818e-09
5.13926007055e-08
1.00880776794e-08
3.13183358058e-09
1.71822275197e-08
1.94493384969e-08
1.55703720092e-08
5.83622883791e-08
4.50791569836e-08
1.34880779549e-08
1.03469252694e-08
5.62011015878e-09
1.00681347725e-08
4.89086897453e-08
1.52973059499e-08
6.11989869485e-08
2.60918680459e-09
1.67542730802e-08
1.41698614825e-09
1.22596622671e-09
3.41038773988e-08
2.40113249672e-08
8.17830406998e-10
4.5039992327e-08
4.2961319104e-08
4.01784520819e-08
2.7564251177e-08
4.44985489599e-08
7.19760161699e-09
2.58320308431e-08
5.76439373236e-08
4.71615172081e-08
9.88334666949e-08
1.69785876855e-08
2.48237644118e-08
3.70434978521e-08
3.36810742353e-08
1.44421831316e-08
6.91928781561e-08
2.93146034117e-08
1.38863054486e-08
3.49544096851e-08
3.20176260164e-10
3.65963382622e-08
4.67757858782e-08
2.47939671454e-08
3.75459395062e-09
2.21985884788e-09
4.2240423837e-08
1.06472544757e-08
5.08591178601e-08
2.19457477325e-08
3.73065040401e-08
9.32620434296e-10
1.58253437007e-08
5.85455401353e-08
2.58724728721e-08
3.91263413984e-08
2.60908698409e-08
2.27743843396e-08
2.60744247555e-08
4.66444510088e-08
8.95164788218e-09
5.08332514761e-09
2.34892681364e-08
3.69035932834e-08
2.20234706563e-10
1.05805391397e-08
5.50842953469e-08
1.39455131636e-08
3.58479519624e-08
9.82951023707e-09
2.13445613327e-08
2.76820408758e-08
3.34396667497e-08
3.43326899261e-08
1.11841421688e-08
3.03981505078e-08
2.10541389863e-08
4.69682908602e-08
2.26776239267e-08
1.23771462881e-08
5.60070500386e-08
8.30592182383e-09
1.10515930323e-08
5.57423832615e-08
2.14185611663e-08
1.80972108659e-09
2.37990005757e-09
1.876093136e-08
3.92773854691e-08
2.03858695787e-08
1.33448852237e-08
3.09937186104e-08
5.44650008399e-09
6.2095877515e-09
1.13750823897e-08
4.71135074119e-08
4.84171102995e-08
1.78706849068e-08
3.95230311969e-08
2.82861663954e-08
2.16347732332e-09
2.27393106632e-08
3.91809587743e-08
2.4023115418e-08
5.9671440262e-09
2.30595579222e-08
2.83086562977e-08
2.46723228965e-08
7.03853750746e-08
6.92802632121e-08
1.36766632855e-08
5.30238064453e-08
1.57873310705e-08
1.21188541319e-07
4.13834086896e-08
1.08916882015e-08
3.00137902521e-08
1.85720396638e-08
3.60661190285e-08
1.96090339086e-08
2.90197932194e-08
1.69072023781e-08
3.21111920059e-08
2.43695735918e-08
1.12711476575e-08
2.20327997652e-08
8.2215118872e-09
5.41348276074e-08
8.28495363129e-09
2.67298097527e-08
4.47045847e-08
1.15652165112e-08
3.12786700331e-08
5.34770170697e-08
5.46811225013e-08
7.28480040453e-09
9.39188166852e-09
1.43125474e-09
1.61965308453e-08
9.94098410966e-09
1.91558153044e-08
4.61294952498e-09
2.74631787698e-08
4.06489338955e-08
7.27181756226e-09
3.01549334705e-08
1.38948359789e-08
1.44795952286e-09
6.03961829779e-08
2.84344637277e-08
4.46471489421e-08
4.52788863066e-09
4.90150493899e-09
4.57598724978e-08
2.41381531095e-08
1.22940679163e-09
3.80370469272e-09
1.09161526232e-08
1.34297889671e-08
9.03284218217e-09
5.93850300016e-08
1.96299838067e-08
1.10969688224e-08
9.92688326438e-09
5.93368571692e-08
1.08757814362e-08
1.35122291182e-08
6.28381843194e-08
3.74265713842e-08
3.80964514042e-08
1.16125706169e-07
2.99705671952e-08
9.14916077593e-09
5.29094998823e-08
2.89702011971e-08
6.60850410597e-09
2.37608506221e-08
9.08410503396e-09
5.34149017025e-08
2.75683714286e-08
2.24157609138e-08
9.52003099722e-09
4.73878785379e-08
1.26593343952e-08
2.44152673515e-08
2.53085352015e-08
3.59598366878e-08
2.62675745338e-08
7.55647075801e-08
1.79073559335e-08
9.53830928054e-09
2.13273752705e-09
3.60489021612e-08
4.43793712775e-08
5.77357958849e-08
3.69443779413e-08
2.34511106011e-08
1.36986753411e-09
4.19518743766e-09
3.21562653258e-08
1.74699327765e-09
1.16660121898e-08
2.68811250569e-08
1.01954325051e-08
1.26099182054e-08
1.0444868125e-08
8.7999376623e-09
3.04779051356e-08
3.63222279829e-08
2.29025830844e-08
1.8976245624e-08
1.64503624507e-08
2.91962152681e-08
4.75811866059e-08
1.7422428912e-09
3.06162737675e-08
4.65598704574e-08
8.55420982606e-09
5.38533483244e-08
3.93525398505e-08
3.08432838845e-09
1.46637146873e-08
2.66804796888e-09
3.32978739994e-08
3.83793633923e-08
9.46168390617e-08
1.20052323519e-08
2.26405244055e-08
6.89484809053e-08
1.25099861543e-08
8.42025833275e-09
3.38098981672e-08
9.558657077e-09
1.07250523921e-08
6.20453348551e-09
1.74316136835e-08
2.97378206705e-09
1.71327597132e-08
2.75780562655e-08
2.72182440731e-08
3.37705370196e-08
6.08139045645e-09
7.01281305181e-08
3.62737751577e-08
9.29283412576e-09
1.09663460181e-08
2.98003745246e-09
1.95586176262e-08
1.50010814217e-08
9.22560079872e-09
3.90391704008e-09
7.89273913197e-10
2.28310250866e-09
1.4267470027e-08
2.98025676133e-08
2.24299811465e-08
7.36450022711e-08
5.43025498199e-09
2.49473549124e-08
4.29618191721e-09
2.76329926868e-08
9.17863873018e-08
1.34384784028e-08
2.70679254141e-08
5.65136038147e-08
2.8099364299e-08
5.05045516515e-08
3.25371971781e-08
1.00526625305e-08
2.11316255775e-08
3.8657729496e-09
6.5650015958e-08
2.32119636209e-08
2.40761956696e-09
4.55826863039e-08
1.53448736099e-08
2.99753113602e-08
4.68036997628e-08
7.26983270946e-09
5.39170431773e-08
1.38925911292e-08
8.63583100797e-09
4.02202328612e-08
7.75128893986e-08
6.72427255639e-08
2.83203243178e-08
1.32164618516e-08
8.01849095749e-09
5.42013083097e-08
1.19221371914e-08
5.27280196179e-08
4.89637327313e-10
1.92321297785e-08
1.09854230212e-08
6.06549018302e-09
4.1226738544e-08
1.32992261692e-08
2.47229945106e-08
2.97003530435e-08
2.63348431588e-08
7.88744903139e-09
1.33226119872e-08
1.41380515799e-09
1.76247312536e-08
2.39358902927e-08
1.24383259833e-08
2.65532225633e-08
9.90099355419e-09
4.54648240538e-08
3.23536150619e-08
3.91224887391e-09
7.48910687862e-09
3.38854106389e-08
4.02121287766e-08
2.5743245658e-08
5.01611947054e-08
9.60573073878e-09
9.36694612849e-08
4.24914354154e-08
3.97618196772e-09
1.87141676844e-08
4.24364641367e-08
7.0758910935e-08
7.06159902751e-08
2.7478742868e-08
2.70192085634e-08
2.23777115629e-08
1.04108763164e-07
1.24936547397e-09
3.90128283354e-08
1.67214786175e-08
3.48846584083e-08
4.31175621922e-08
1.74221940655e-08
3.48656295161e-08
2.96912239232e-08
3.81358436623e-09
1.59463599976e-08
7.12587383522e-09
1.10621311095e-08
1.43813020966e-08
3.24028225872e-08
6.27658063477e-09
2.15478467115e-08
9.12821386889e-09
2.65393856697e-08
2.35054420494e-08
1.64520243474e-08
3.1670541099e-09
8.00174337964e-09
3.87917841554e-08
1.56666409345e-08
4.12182811104e-09
5.76087185018e-09
1.57498884372e-08
2.60620266172e-08
1.20397813232e-08
1.48072148111e-08
1.07899769725e-08
3.49663797524e-08
2.41374271812e-08
2.33167706455e-08
7.57654101161e-08
1.53973863565e-08
1.93453867091e-08
2.69113916844e-09
1.34809003349e-09
2.31332908128e-09
8.15317321963e-09
2.89634100715e-08
4.73772950838e-08
3.71284348024e-08
3.53278706472e-08
2.82705552245e-08
4.49358843949e-08
5.9327051591e-08
9.56801999568e-09
3.0614676887e-08
2.35627923072e-08
1.78066007524e-08
4.21234834971e-08
3.10787330029e-08
2.79182809854e-08
3.68905917489e-09
2.31951428743e-08
5.1555562696e-08
1.23155214046e-08
1.39589447276e-08
3.49114412288e-08
3.01495360028e-08
7.60761962941e-09
2.5058958724e-08
4.14780411442e-10
2.58619330606e-08
6.78624395832e-09
1.09381338681e-08
7.81412919578e-09
9.31306248133e-09
1.48192302014e-08
5.14530525084e-09
3.0530619701e-08
1.73826278381e-08
1.19702249025e-09
3.1688033538e-08
2.24704037075e-08
2.7294121238e-08
4.76060684298e-09
3.39780066044e-08
9.90222962402e-09
5.3444275116e-08
1.42739928761e-09
3.68984830994e-08
4.87110949037e-08
3.34555569712e-08
2.3322062282e-08
3.7189610528e-09
1.34763673284e-09
6.27390015321e-10
1.94509776321e-09
2.31395880385e-08
3.47056784586e-09
1.72277517365e-08
2.74171881744e-08
5.91924860068e-09
5.67058675938e-08
8.83474299326e-09
2.70530596067e-08
6.33586954833e-09
1.07874429338e-08
5.01743729831e-08
1.30341210857e-08
1.57130826998e-08
7.68375742427e-09
6.00790811635e-10
1.43978917594e-08
5.33848029823e-08
4.13131890402e-08
3.35894423878e-09
5.75426452537e-09
2.96415365055e-08
6.70791702573e-09
2.68773341893e-08
3.83850583931e-08
1.11506298795e-08
7.89282789744e-09
1.17043136625e-10
6.07090295323e-09
1.41385326017e-10
5.19626655545e-08
4.31331342393e-08
1.01639994251e-08
2.90286311132e-08
1.87614018693e-08
4.06624628189e-08
3.54151453922e-10
1.66134332059e-08
6.99827367406e-09
8.06111227999e-09
2.40601226441e-10
6.2334259072e-09
2.64005525113e-08
4.84484121401e-08
2.29128419314e-09
1.33188449603e-08
3.47648610199e-08
4.08827130728e-08
3.51884979303e-08
2.07696112961e-08
2.30876709201e-08
2.28646613541e-08
1.33121072317e-08
5.5908798154e-09
2.56329021762e-08
1.4058849346e-08
6.95728663988e-09
2.04119032227e-08
2.1629042136e-08
1.4712936718e-08
6.91770645871e-08
3.13848818077e-08
2.09356550925e-09
9.00885413372e-08
1.09788853912e-08
8.76245432009e-09
1.4274133454e-08
5.05436235408e-08
1.00825814006e-08
1.54998361213e-08
1.98601896431e-08
3.62582145197e-08
5.59398635446e-08
2.01771224398e-08
1.1196513016e-08
1.92511557052e-08
1.70216230365e-08
1.08581340694e-08
2.61155624665e-08
4.10820547633e-08
5.01483603768e-09
1.82254253936e-08
4.23076551757e-08
5.42750036069e-08
1.32306272621e-08
3.80912665339e-08
3.21848042861e-08
1.06784946904e-08
3.23907662052e-08
4.07908559211e-08
9.81335807308e-09
3.52163521645e-08
1.16895137787e-07
3.25142981447e-08
5.5985158416e-09
1.08509126893e-08
2.45523433728e-08
2.26656279552e-08
1.90777326662e-08
4.27252126344e-08
4.99987616011e-08
1.08539501466e-08
2.48463174784e-08
4.48101656895e-08
1.03045673004e-08
1.52777936034e-08
2.35893621866e-08
2.40712531336e-08
6.32455153248e-09
8.18666324604e-08
3.37877448265e-08
5.04494631086e-09
1.55395153816e-08
2.35423249937e-08
1.13356504781e-08
3.43145304061e-08
1.75091712687e-08
3.53647533585e-08
2.74116165667e-09
2.88461623283e-08
3.65445896802e-09
1.51908887608e-08
7.12530866376e-09
4.2562812968e-09
1.92651219474e-08
2.46280890148e-08
1.83061282033e-08
1.76931153035e-08
2.64477374409e-08
1.58763995455e-08
7.2942332831e-08
6.60987540407e-09
6.05213774409e-09
2.21056254969e-08
3.45352582365e-08
1.06721364461e-08
1.3622115794e-08
2.30682472694e-09
6.55910692319e-08
2.06009080148e-08
4.36891244363e-11
3.40687307246e-08
2.00526506894e-08
2.68118392019e-10
2.23411290844e-08
1.19660296943e-08
1.90958076482e-08
4.12281665551e-08
2.17702934053e-08
1.34262338746e-09
1.27886047319e-08
1.61229010344e-08
4.65323946991e-08
1.49543688319e-09
1.3063922943e-09
4.03499477927e-08
3.1341177381e-08
2.98256847513e-08
1.59288519214e-08
3.88918958816e-10
1.77821279314e-09
3.71656166294e-08
1.62274448403e-08
3.14997823021e-08
5.00615583458e-08
2.08773088415e-08
5.32144940952e-09
4.83472591948e-08
3.43660918239e-08
3.33093618911e-08
2.79049241422e-08
2.64660822175e-08
1.866536719e-08
4.57344200984e-08
1.42626320869e-08
1.14273933865e-09
3.31807318179e-08
1.19778678571e-08
3.13452028739e-08
1.26052186978e-08
1.72888840777e-08
4.08944981952e-08
1.54008376425e-08
1.87815158199e-08
5.20443919019e-08
2.14343930269e-08
1.12174351405e-08
2.19671975526e-08
4.64293158491e-09
2.91171268457e-08
4.76329474589e-08
9.31377718085e-09
5.38563652365e-08
5.25316254217e-09
1.61253717571e-08
5.80291005243e-08
9.28942659257e-09
4.02039791244e-08
2.20711796199e-08
3.0597241533e-08
9.28364857694e-09
6.26428160955e-08
1.15177556163e-08
1.91305178327e-08
2.64160837208e-09
1.61329332948e-08
1.85474133067e-08
3.55384926817e-08
4.61259942228e-08
9.80726415088e-09
3.18472752647e-08
2.95122132287e-08
2.57739233511e-08
5.2265220862e-08
1.22698652596e-08
2.52501151484e-08
5.56799569833e-08
1.4192429431e-08
1.53419744478e-09
1.96664382561e-08
1.28053346042e-08
4.37530335604e-08
1.74711239957e-08
3.11990888157e-09
1.0961190822e-08
3.08109886364e-08
2.18780879893e-09
2.81509762153e-08
4.72229757563e-09
1.42693489083e-08
1.3998593294e-08
2.84174045958e-08
8.35091907804e-09
1.46671187684e-08
5.68892625671e-09
3.664625356e-08
7.20953492665e-08
2.86822699443e-08
2.35859716551e-08
2.79554432143e-08
2.71703957562e-08
4.71306959228e-08
2.25163315731e-08
4.42930959839e-09
4.8580338516e-09
5.08771020227e-09
4.02853177031e-08
7.65742309632e-11
2.68005262528e-08
1.92973100575e-08
1.29298875689e-08
5.1820599908e-09
2.63919754138e-08
8.15850699794e-09
3.61965504135e-09
7.41323434427e-10
4.3614461591e-08
4.42025253507e-09
3.11200881294e-08
1.52981231905e-08
2.23296335457e-08
1.43368090657e-10
1.00544933501e-08
1.64532057409e-08
2.30868736184e-08
1.07229842378e-08
1.21264674401e-08
5.75493508981e-09
1.58081919004e-08
7.48030461195e-09
1.97985588053e-08
4.14725105472e-09
2.21462124308e-08
1.49873633581e-08
1.52274624172e-08
2.46590378829e-08
1.13234341927e-08
1.34233344792e-08
1.01077548652e-08
4.71994325751e-09
1.05569285324e-08
2.21231095139e-08
1.21287556611e-08
4.48458371681e-08
7.19556963795e-08
4.87800868104e-08
1.69946260987e-08
4.42637882286e-08
2.73278316188e-09
1.92499160951e-09
2.13374543844e-08
4.81672516064e-08
8.01561858807e-09
2.92067732206e-08
5.57236361504e-09
2.47623682479e-08
1.4711231525e-08
4.93944979131e-08
4.62404099589e-08
5.23632122092e-09
3.81749136647e-09
2.9763201841e-08
1.01818076585e-08
1.24665268966e-08
2.19250248579e-08
1.59877335012e-08
7.26582064329e-11
8.17438491414e-08
8.65371421568e-09
6.09977840036e-08
8.91680526819e-09
1.88496872611e-08
3.7487756031e-08
1.29688483272e-08
3.91004127248e-09
4.3283506963e-08
1.03622876369e-08
7.36147289226e-09
1.137087326e-08