# vtk DataFile Version 3.0
File Name: Molecule/sphere_cent/sphere_cent_0-s29.vtk
ASCII
DATASET UNSTRUCTURED_GRID
FIELD FieldData 1
TIME 1 1 double
0.0
POINTS 2574 double
-0.06522237 -0.35393678 0.93299239
-0.02857714 -0.24073606 0.97016983
-0.13388155 -0.26300055 0.95546138
0.10763663 0.53876939 -0.83554886
0.00925633 0.53583587 -0.84427143
0.05005423 0.61187829 -0.78936654
-0.10944009 0.27163985 -0.95615619
-0.057289 0.36251733 -0.93021457
-0.01591382 0.26508612 -0.96409341
0.53311172 -0.6373157 -0.55643561
0.44872798 -0.72701784 -0.51970016
0.41705656 -0.68063901 -0.60232414
-0.03939972 0.96453526 -0.26099693
-0.02023854 0.93321091 -0.35875869
-0.13781757 0.93433876 -0.32866001
-0.10814742 0.89505039 -0.43265337
0.44902942 -0.26918779 0.85200382
0.49204605 -0.15631096 0.85642137
0.39007818 -0.21329179 0.89573748
-0.46776457 -0.12505866 0.87496093
-0.35294393 -0.10266904 0.92999444
-0.41707052 -0.0477306 0.90761995
-0.32712814 0.02360417 0.94468515
0.52004753 -0.85289463 0.04605773
0.51180026 -0.84664134 0.14580443
0.46141398 -0.88124512 0.10248988
-0.68245584 0.54381117 0.48838861
-0.60605081 0.59136399 0.53196902
-0.64087193 0.62835885 0.44096294
-0.63950371 0.50753316 0.57744705
-0.10974358 -0.1565427 0.98155526
-0.83432116 0.4490956 0.31972072
-0.87709093 0.34426131 0.3349562
-0.80644678 0.43142234 0.40437404
-0.90829924 0.36008468 0.21291199
-0.87097638 0.41943895 0.25587324
-0.60797766 0.76523172 0.21162131
-0.6926241 0.68523341 0.22522661
-0.62450915 0.7180528 0.30722712
-0.67498301 0.72523563 0.13576164
0.34608139 -0.74579805 -0.56922135
0.30737026 -0.69179312 -0.6534109
0.23567926 -0.75766534 -0.60860374
-0.5355571 -0.59214128 -0.602119
-0.5982514 -0.49979416 -0.62633942
-0.51624254 -0.51817503 -0.68190049
-0.51464889 -0.42668405 -0.74369163
-0.57459365 -0.43815474 -0.69127604
-0.25513438 -0.08326507 0.96331375
0.67885121 0.57669661 0.45451299
0.6600313 0.51856853 0.54354887
0.74363074 0.49919687 0.44476489
0.68249833 0.42819367 0.59232273
0.73999678 0.45472477 0.49561089
0.05361908 -0.32799512 0.94315651
0.10633948 -0.4148966 0.90363307
0.18073117 -0.32259059 0.92912408
0.10477859 -0.2256632 0.96855437
0.21691541 -0.203406 0.95476369
0.29328793 -0.26204584 0.91940968
0.22480033 -0.42770061 0.87552099
0.28099201 -0.35572106 0.89135067
0.16761307 -0.11981974 0.97854437
-0.39708349 0.72400884 0.56403537
-0.35242947 0.80100543 0.48392538
-0.44513 0.7557861 0.48025685
-0.42398287 0.80649423 0.41207474
-0.5147281 0.75924194 0.39825451
-0.29472529 -0.27934956 0.91383851
-0.32978296 -0.37594126 0.86597423
-0.24242049 -0.36759484 0.89783425
0.56436662 -0.32828282 -0.75744354
0.54925339 -0.2135711 -0.80790352
0.63648954 -0.25589091 -0.72759942
0.81711455 0.44543194 -0.36594288
0.84430113 0.35407909 -0.40222332
0.78485742 0.42391581 -0.45198918
0.59250711 0.60562722 0.53117887
-0.49445322 0.69122848 0.5269907
-0.46761212 -0.59342454 -0.65512306
0.5221706 -0.46896094 0.71232963
0.56517889 -0.53679258 0.62643958
0.62656332 -0.43416033 0.64724278
-0.02512924 0.99349633 0.11105658
-0.02872905 0.99933321 0.02253372
-0.11534505 0.99231696 0.04475006
0.78767449 0.52271714 0.32609155
0.83087209 0.43486179 0.3471985
0.82744578 0.49663684 0.26207888
-0.14624579 0.72417428 -0.67393158
-0.14645362 0.80477022 -0.5752358
-0.0818978 0.7767297 -0.62448677
0.79439616 0.58637449 -0.15842885
0.76003235 0.64450032 -0.08348749
0.83079968 0.55346894 -0.05868572
0.71409008 0.66797538 -0.20948568
0.77849194 0.57196238 -0.25847503
0.6807852 0.72434627 -0.10887606
0.61816596 0.7585718 -0.20600892
0.60419787 0.78680487 -0.12602793
0.1178469 0.70855537 -0.69574521
0.06277159 0.75412861 -0.65371995
0.1416052 0.77713757 -0.6131926
0.27247893 -0.59593979 0.75538798
0.36654364 -0.57285597 0.7331315
0.30284532 -0.51414776 0.80245672
0.83439804 -0.20441309 -0.51185467
0.85425851 -0.29729396 -0.42644895
0.79155321 -0.32054212 -0.52028479
0.81129514 -0.38484975 -0.44010324
0.74495085 -0.41987441 -0.51841462
0.76880694 -0.23883868 -0.59320483
0.71649198 -0.36870649 -0.59219487
0.66281605 -0.4311406 -0.61220313
0.71262414 -0.19154469 -0.67489071
0.77044979 -0.15241357 -0.61901311
0.62524581 -0.36800092 -0.68821726
0.55456177 -0.44255016 -0.70470604
0.62948016 0.40124293 -0.66540126
0.58237847 0.49780944 -0.64266716
0.66334252 0.46888628 -0.58320009
-0.67863931 -0.45084284 0.57981844
-0.64653375 -0.3922028 0.65434783
-0.71000913 -0.37332975 0.5970862
0.57589188 -0.3697144 0.72915005
0.66590615 -0.32605458 0.67101223
-0.61660562 0.78113284 -0.09812745
-0.70327158 0.69833615 -0.13317546
-0.67165202 0.74024353 -0.03038219
0.36587338 -0.03972022 -0.92981664
0.33747946 -0.14663495 -0.92984182
0.26726827 -0.04975237 -0.96233693
-0.84495225 0.48591408 -0.22347976
-0.89423671 0.39599939 -0.20862689
-0.86365683 0.48142514 -0.14942125
-0.93960732 0.29748169 -0.16924161
-0.90848956 0.40232696 -0.11304753
-0.82041818 0.44953966 -0.35331021
-0.76981544 0.4778407 -0.42314589
-0.81759473 0.38633647 -0.42694612
0.42859623 0.90276419 -0.03636051
0.48827451 0.87186954 0.03783522
0.52101121 0.85158407 -0.05789546
0.56556423 0.82412021 0.03103175
0.62367323 0.77647606 0.09009229
0.53567005 0.83518301 0.12460715
0.43813924 0.8905402 0.12236078
0.39574049 0.91711677 0.04781524
0.57705548 0.03227041 0.81606715
0.54150614 0.13168322 0.8303196
0.48814744 0.04421481 0.87164048
-0.14396892 -0.30790905 -0.94045998
-0.06186324 -0.28031256 -0.95791326
-0.08204251 -0.37182339 -0.92467096
-0.11285947 -0.19346103 -0.97459508
-0.01087613 -0.17550318 -0.98441878
-0.09933987 -0.10023811 -0.98999187
0.00971412 -0.06662127 -0.99773105
0.0479555 0.95608411 -0.28914259
0.43445999 -0.88690548 0.15698148
0.50324033 -0.81622694 0.28376532
0.50180444 -0.78305729 0.36744194
0.42940344 -0.84205139 0.32643859
0.55375808 0.5607938 0.61551792
0.47640479 0.59876586 0.64383066
0.49902553 0.51521684 0.69679633
0.41638085 0.5955139 0.68701542
0.41277444 -0.80781053 0.42078428
0.38681329 0.65991122 0.64412162
0.42118656 -0.90648305 0.02983899
0.33587955 -0.94097691 0.0418017
0.35664299 -0.92856473 0.10282667
-0.37221115 -0.45675396 0.80798186
-0.29014929 -0.48096861 0.82733463
0.17574911 -0.98407549 -0.0266023
0.09294681 -0.99556938 0.01423007
0.08074333 -0.9941119 -0.07226373
0.00705325 -0.99979993 -0.01871766
0.03532425 -0.9970307 0.06842501
0.12600932 -0.98699885 0.09977434
-0.07814455 -0.99621412 0.0380901
-0.0940217 0.98399157 -0.15139521
-0.08432073 0.99494995 -0.05444832
-0.0169153 0.99352136 -0.1123796
-0.17575105 0.9803778 -0.08928016
-0.62917109 0.7506981 -0.20148476
0.46735524 0.87473287 -0.12814636
0.53810644 0.82691329 -0.16326626
0.47551925 0.85217713 -0.2183474
-0.61218323 0.5784568 -0.5390913
-0.64067003 0.61633478 -0.45790103
-0.55637896 0.66936464 -0.49233467
-0.49792696 0.63725614 -0.588195
-0.45950044 0.71641738 -0.52498141
0.01171099 0.65980764 0.75134328
0.04416271 0.58536391 0.80956701
0.12769998 0.65900523 0.74121847
-0.42330819 0.83369931 -0.35462042
-0.39567519 0.79675635 -0.45674989
-0.49462445 0.75925187 -0.42294593
-0.32255364 0.86338905 -0.38796713
-0.28271345 -0.95295152 -0.10934583
-0.20545908 -0.96638925 -0.15452632
-0.18349346 -0.98216335 -0.04105252
-0.07686692 -0.99467609 -0.06863637
-0.18015308 -0.98025629 0.08150141
-0.08825265 -0.98339979 0.1585444
-0.16937425 -0.96483271 0.20102292
-0.99912716 0.00952159 0.04067266
-0.9917265 0.12654657 0.02155269
-0.99659835 0.05193248 -0.0639902
-0.29580175 -0.95502378 0.02075842
-0.25595505 -0.95719631 0.13513786
-0.3775593 -0.92188088 -0.08708972
0.70328723 -0.05544858 -0.7087401
0.71725431 0.03312676 -0.69602362
0.76931589 -0.06312484 -0.63574233
0.70241963 0.1318395 -0.69944621
0.76480068 0.0982734 -0.63672778
0.64037391 0.07937088 -0.76395125
0.62879923 -0.0278226 -0.77706978
0.23956817 -0.14517182 -0.9599647
0.16475559 -0.06613357 -0.9841148
-0.97454955 0.2101145 -0.07813493
-0.94536924 0.32267042 -0.04648447
0.45697938 0.80214172 -0.38436768
0.55403901 0.73548746 -0.38999869
0.47250767 0.74934636 -0.46391436
0.54740332 0.68966405 -0.47403914
0.60952964 0.6568581 -0.44385927
-0.02843464 -0.43935565 -0.89786306
0.01492315 -0.35802926 -0.9335911
0.53841232 -0.05281032 0.84102511
0.44171968 -0.0414676 0.89619427
-0.78102279 0.61196879 -0.12448933
-0.76211882 0.64472456 -0.05920427
-0.96804126 0.24695649 0.04368773
-0.92724324 0.3676818 0.07092299
-0.90733961 0.41967048 -0.02472896
0.80487902 -0.2262991 0.54859684
0.80180017 -0.28236877 0.52667292
0.83360739 -0.21060509 0.5106312
0.75340086 -0.24442541 0.61044521
0.73267642 -0.34524194 0.58650939
0.71728065 -0.12323121 -0.68580066
0.56867824 0.76682076 -0.29764237
0.6297184 0.71762456 -0.29743862
0.64243752 0.66755221 -0.37636164
0.67944879 0.66486494 -0.31032879
0.52919367 0.81089424 -0.24980912
-0.58491588 0.71114226 -0.39006422
-0.51728577 0.79539528 -0.31585088
0.4684468 0.62772224 -0.62170925
0.50711785 0.66248772 -0.55130891
0.54612534 0.57898745 -0.60540948
0.39159623 0.69081493 -0.60780518
0.76000565 -0.13572565 0.63558631
0.80991049 -0.18479176 0.55668393
-0.46706921 -0.86194238 -0.1972351
-0.36964291 -0.90823313 -0.19615477
-0.45840878 -0.88059091 -0.12008759
-0.86984838 0.48793524 -0.07268426
-0.84626369 0.53207047 0.02718073
-0.83795561 0.54493955 -0.02951736
-0.87298046 0.48772527 -0.00540111
0.61176471 0.61168764 -0.50157967
0.09025836 -0.13905142 -0.98616334
0.58055308 -0.20887017 0.7869761
0.58995216 -0.12483714 0.79772936
-0.46722408 -0.78317268 0.41029527
-0.53656232 -0.69352695 0.48075072
-0.55781262 -0.73024285 0.39444957
-0.4516347 -0.72560243 0.5191601
-0.84599407 -0.53307559 -0.01115564
-0.7929615 -0.60497515 -0.07222964
-0.78038761 -0.62247748 0.05930405
-0.61980323 -0.78212129 -0.06426692
-0.62670919 -0.77719879 0.05654755
-0.69556255 -0.71843315 0.00682316
-0.55308321 -0.8328557 0.02122161
-0.69480215 -0.71230753 0.09933756
-0.63085858 -0.76163762 0.14807292
-0.55813096 -0.82146349 0.11699387
-0.84794809 -0.5208546 0.09846079
-0.89949631 -0.43584315 0.03077567
-0.68526252 -0.671292 -0.28245766
-0.68106506 -0.71222842 -0.16994426
[...]
CELL_DATA 5132
SCALARS cell_data_0 double
LOOKUP_TABLE default
1.43950858606e-08
1.5044845299e-08
6.74238785846e-10
2.45503267731e-08
2.43985425183e-08
6.56557813708e-09
9.04865914096e-09
2.65034993355e-08
7.54153497277e-09
1.21062964723e-08
1.54117844401e-09
1.60227085212e-08
2.30001215269e-08
1.36248019099e-08
3.75007249526e-08
3.28654100767e-08
2.35112364088e-08
7.35748512642e-11
1.90471913668e-08
2.2629840967e-08
2.83869688546e-08
4.71718367847e-08
2.8558450501e-08
6.07602884728e-08
1.9808544912e-08
2.51208138857e-08
2.82181120524e-08
3.27376215014e-08
1.96101298619e-09
2.04170294389e-08
9.00757440503e-09
1.65646063635e-08
7.63007914016e-09
8.88751512855e-09
1.37022189413e-08
3.33563225352e-08
1.05782985655e-08
1.92157464491e-08
2.64596380976e-08
1.72306324606e-09
1.26006595258e-08
1.93017499691e-09
5.49748281815e-08
1.26249757451e-08
1.55773004897e-08
5.38788043877e-08
7.06099832358e-09
1.78519951934e-08
1.20522025912e-08
1.72465137439e-08
1.43084661321e-08
2.2244344697e-08
1.23379609397e-09
8.31916090502e-09
2.09885086738e-08
1.15370828306e-08
7.32220737301e-08
4.288005281e-09
2.2163053553e-08
2.3214597358e-08
5.04332915015e-09
3.31050172805e-08
7.47590197375e-08
3.36700459299e-08
5.697135959e-09
1.92310931012e-08
2.03183880289e-08
1.03432954176e-08
2.16206752545e-08
5.28601560695e-08
3.68272458004e-08
1.92353381237e-08
4.12888673874e-08
9.38315245322e-09
2.06464246261e-09
1.55091075364e-08
5.09118749626e-09
3.67926692396e-08
1.36707758822e-08
1.94781048569e-08
1.11174897387e-08
8.9488738222e-09
1.79191194051e-08
2.3514289868e-08
3.70091725518e-08
2.33188166634e-08
1.1371288964e-08
2.03326233135e-09
9.44234564385e-09
2.11506866744e-08
3.0893690961e-09
6.87855019627e-11
3.40964029646e-08
8.76362398099e-09
2.77677790068e-09
1.7350252565e-08
1.06265864204e-08
1.07454113522e-08
3.55743815865e-08
3.13509162464e-08
8.5255550641e-09
2.5260822299e-08
4.71497061628e-09
3.46940572298e-09
6.74937529287e-09
2.54180762636e-08
3.71260277826e-08
2.38252837518e-08
4.00333063576e-09
3.28603207391e-08
1.83619364622e-08
1.96728315863e-08
4.90390446367e-08
4.28792559992e-08
1.28590251317e-08
4.73097173648e-08
2.41060123802e-09
7.65905380815e-09
1.54380758604e-09
1.78073528224e-08
7.05820151937e-09
2.99495400077e-08
3.60132011971e-09
2.05994212718e-08
2.82456280097e-08
3.81823482832e-08
1.62578385863e-08
1.24047234774e-08
5.19730553454e-09
7.80462939261e-09
3.73698218702e-08
3.45228130564e-09
3.16126221035e-08
7.5555273453e-09
2.10546457506e-08
1.64450586588e-09
7.91771049217e-09
2.33377022896e-10
2.05503860125e-08
5.03007496841e-09
5.96044220291e-09
3.07182743558e-08
3.38591874047e-08
6.89639475318e-09
8.685534582e-10
3.12064510624e-08
3.35075796305e-08
2.97951295704e-08
1.09446954821e-08
1.22593210975e-08
2.66347335161e-08
4.14273581126e-09
5.60340991658e-08
2.92679664418e-08
2.42209997378e-09
3.25157242058e-08
1.80514369069e-08
1.17840857152e-08
2.00590134734e-08
2.55549221436e-08
2.69955092653e-08
3.95351822511e-09
1.90836543005e-08
1.18666333014e-08
5.60859257197e-08
4.18733856071e-09
1.50922102739e-08
3.59532329411e-08
2.84012819623e-08
2.7734830883e-08
1.79659625168e-08
1.16178277133e-08
3.31433402255e-09
2.50972029546e-08
1.32498377187e-08
9.41598500068e-08
4.36004889471e-08
2.62398867241e-08
7.80346752348e-10
1.05890639374e-09
4.44344642904e-08
4.46505773077e-09
2.70365112808e-09
1.98019114355e-09
1.42225538873e-08
8.64243832444e-10
3.55234190329e-08
3.24060668956e-08
2.41102199464e-08
8.81098469087e-09
3.91404520889e-09
2.53216149087e-08
2.64280239481e-08
1.77497136457e-08
5.51219602644e-08
1.81239200738e-08
2.52995787427e-08
3.4709380208e-08
1.48948594737e-08
1.71037595179e-08
1.33021274895e-08
2.49353208119e-08
1.84455189955e-08
8.03285165758e-09
2.96149804227e-08
8.11635234722e-09
2.06445151196e-09
4.56401794703e-08
4.9687539076e-09
3.08843371119e-08
4.33000374024e-08
2.18451334652e-09
1.80838809711e-08
4.20079180298e-08
1.33038933708e-08
2.31419339807e-09
1.81029280331e-08
2.04860784376e-09
2.08874842832e-08
1.56563168589e-09
9.07913799797e-09
1.52178309803e-08
6.1985965272e-08
1.1049794759e-08
8.91802085922e-09
4.4432319878e-08
9.69526904196e-09
2.60958617611e-08
4.29943035342e-10
1.07815519784e-08
2.05836983072e-09
7.5678723567e-09
3.01322265085e-10
1.87331965709e-08
6.98580447899e-09
9.62615815988e-09
2.14016932369e-08
9.09083315816e-09
2.01639369094e-08
4.33993736995e-08
1.59209790962e-08
2.85424312873e-08
6.65535526453e-09
3.81222375243e-08
6.18902134474e-09
7.52698336601e-09
1.1116320435e-09
8.69450278019e-09
7.2934049472e-09
5.42369499631e-08
4.49601204197e-08
1.1295183957e-08
2.72268628189e-09
4.29065814137e-08
2.93314054428e-09
5.32223445416e-09
6.42641684312e-09
1.29418022631e-08
1.4941744802e-08
4.63757960194e-09
4.67367024327e-09
4.23806645485e-09
7.8384856479e-09
1.28361061146e-08
1.81942584734e-08
2.16987174974e-08
1.44636198347e-08
1.45236452093e-08
3.36327615768e-09
1.71669827376e-08
1.10904494511e-08
5.78614812301e-09
5.82432527204e-09
1.8208525427e-08
6.53577492422e-09
3.44088241629e-09
7.51245198191e-10
8.0976352965e-09
1.12981231544e-08
4.05045674048e-08
1.17939165665e-08
2.2037487982e-08
2.00392739859e-08
1.04904192472e-08
3.19334929551e-08
1.97340371041e-08
7.72612859867e-09
2.25422253042e-08
7.83166257739e-09
1.53595499404e-08
1.77180365183e-09
4.19203726941e-08
2.72755545127e-08
2.1149786425e-08
2.03753378148e-08
3.25850621323e-09
1.25501847978e-08
4.70311734277e-09
1.60106736056e-09
3.87411497831e-08
2.29450043421e-08
1.24321135026e-08
2.87860287939e-08
6.28866310515e-08
1.03616485607e-08
1.92858417503e-08
2.62021714716e-09
4.98521894053e-08
5.0169381566e-08
1.29865275641e-08
1.53594721274e-08
2.59207012534e-09
2.20982630518e-10
6.47594438848e-10
4.32290983275e-09
1.016636411e-08
3.06063545364e-09
4.86250547862e-09
4.75022176864e-09
2.54560800067e-08
2.22386860088e-08
1.38891476664e-08
1.72310821657e-08
1.70448274534e-11
1.69993154277e-08
8.31142401833e-09
2.73280440809e-08
2.91097514187e-08
2.16440922203e-08
4.60440914985e-09
1.02574719338e-08
3.30361182468e-08
3.67107320454e-08
1.69608617863e-08
4.05571416174e-08
5.04755691657e-09
2.00664887346e-08
1.58095452285e-08
4.20706485726e-09
5.68023998839e-08
1.5312883509e-08
3.49461044197e-09
3.18410122349e-08
3.22362946776e-08
1.62626472201e-08
1.69045310361e-08
9.91105129649e-09
6.59635961975e-09
9.23071246929e-09
1.3225561006e-08
1.90786265358e-08
3.06847747321e-08
4.50577971502e-08
2.17082246372e-08
3.58272532541e-08
1.23576557121e-08
9.59963531521e-10
1.48622603042e-08
1.1295948129e-08
1.55527996781e-08
9.55706178826e-09
1.56698683317e-08
2.37968534817e-08
2.63766695364e-08
6.6604246038e-09
3.25083729846e-08
2.63629308692e-08
1.25109363845e-08
2.3448710774e-08
1.73692242903e-08
3.8078333628e-09
5.22661505907e-09
9.8378507396e-09
2.00275581305e-09
1.21733527706e-08
4.49551916671e-09
5.55682254535e-09
2.03276959771e-08
3.95268802464e-08
5.88287473693e-08
4.05325294701e-09
1.22034856996e-09
3.85582206155e-08
1.88338766965e-09
1.21309574482e-09
4.98974871663e-08
6.6897868474e-09
2.81665234114e-08
1.63557928391e-08
1.80519014425e-08
2.69631845578e-09
6.75291876066e-09
4.65958796642e-08
3.54290375226e-08
9.65933721119e-09
2.86559754458e-09
6.85577907175e-09
2.51141410659e-09
3.85711864329e-09
7.02812913195e-09
3.95008188738e-09
7.81185138366e-09
7.31816515695e-10
2.17380921844e-08
1.1142900412e-08
1.72945852982e-08
4.71649204505e-08
1.41664666607e-08
3.79437184881e-08
2.11622651211e-08
1.89082822942e-09
6.632104362e-09
2.7849511402e-09
1.8543416889e-08
1.08253658088e-08
2.79103757023e-08
1.56624113727e-08
1.20567895604e-08
1.92669792094e-08
1.02565062082e-09
2.92849402467e-09
2.54330183622e-08
6.11016720276e-09
9.44274857173e-09
1.78419891003e-08
1.25232290776e-08
1.59392413836e-08
1.99599640834e-08
1.27107991302e-08
2.8524139145e-08
7.81744423057e-09
6.10319737294e-08
1.27729658109e-08
1.27543830303e-08
5.18833804472e-08
2.69919346839e-08
1.69581434798e-08
7.60042862305e-09
1.11677718623e-09
2.1072744033e-08
1.6019784151e-08
1.31637752498e-08
3.35772462055e-11
1.31705482173e-08
7.67940273184e-09
5.1360542851e-09
1.29630704759e-08
7.98057738866e-09
8.66509730375e-09
1.90848067563e-08
2.81624437465e-08
1.1241298769e-08
3.69908278865e-08
7.31865231678e-09
1.19302700621e-08
3.6552744413e-08
5.2350316585e-09
1.92737784267e-08
1.06859500184e-08
2.06934475499e-08
8.2743276806e-09
4.85211641231e-09
1.16066201534e-08
1.67508736717e-08
4.32633142977e-09
1.96115894496e-08
5.42706153569e-09
1.28276997426e-08
6.8179705242e-08
2.32392730316e-08
1.64844117611e-08
2.26728410655e-08
2.10014714564e-08
1.44733099926e-08
2.96942834667e-09
5.6409337231e-09
2.54260406538e-09
1.76085268135e-09
2.93913514765e-08
4.6127705326e-08
5.74420279537e-09
2.96907775417e-08
1.16171110887e-08
2.11559653482e-08
1.64895687766e-08
2.95497555447e-08
1.40452636301e-08
2.3173380545e-08
8.06321649093e-09
1.13671442367e-08
1.40921768782e-08
1.82576390178e-08
1.19638281083e-08
3.4907345968e-09
1.3621622159e-08
2.04783175356e-08
2.13882908073e-08
2.85281972978e-08
2.19555641612e-08
2.4734651599e-08
3.24734155996e-09
6.69509727592e-09
1.97964322523e-08
3.54792045868e-08
4.8654201316e-09
5.98496471923e-09
4.21543559779e-09
2.69868889742e-08
7.64330771567e-09
7.16172606521e-09
9.09975836862e-09
1.127702657e-08
8.38046702501e-09
3.90197391076e-10
1.02180909529e-08
1.2183449924e-08
6.9818215552e-09
1.34138224978e-08
1.24246536937e-08
2.6961028284e-09
3.21178922014e-09
8.98503454969e-09
1.59164483934e-08
1.61553419651e-08
1.44728615613e-08
4.65183591399e-10
9.13966056319e-11
3.66031911878e-08
8.86202585677e-09
1.13042472559e-08
1.30368544508e-08
4.13928825629e-08
5.46504025287e-08
7.56174584667e-09
3.9246930727e-08
4.03249863958e-08
1.38035360475e-08
1.03355402518e-08
2.41329063566e-08
1.43074617732e-08
1.88747317739e-09
1.150139608e-08
1.52253963005e-08
2.55164760812e-08
1.96792813508e-08
1.96204427734e-08
2.77804042883e-08
1.98007783901e-08
3.01461916041e-08
1.55799166868e-08
9.40953664121e-09
3.22298813227e-08
1.84631673655e-08
4.86510719534e-08
9.32520911006e-09
3.69761827565e-09
1.41322499641e-09
6.19804752673e-09
4.89779387183e-09
4.14114478056e-08
2.91203740402e-08
4.16317069196e-10
3.05539564665e-08
1.44397207436e-08
1.14940042789e-08
3.57370479667e-08
1.42620934048e-08
6.75521081142e-09
6.50885603676e-09
2.52904188526e-08
4.32940435926e-08
8.70258424249e-09
1.69190106079e-08
4.6901476633e-09
2.20723799653e-08
1.45136209753e-08
7.56081534101e-09
1.18252665788e-08
2.44897284458e-08
1.85108016492e-08
1.01597402442e-08
2.77210924963e-08
8.11253269973e-09
2.11424026226e-08
3.90933504085e-08
1.38478293183e-09
6.42051633141e-09
1.88719897244e-09
1.5118961942e-08
3.7173230252e-08
6.34328245921e-09
1.73961743793e-08
1.645780733e-09
1.22092768178e-08
1.70212591957e-08
1.40504773814e-08
1.98974548213e-08
7.22026621454e-09
2.69686219556e-08
5.81996178899e-09
1.42749230865e-08
8.87284080061e-10
7.74762960268e-09
2.16749726573e-09
1.80458447699e-09
1.20470363116e-08
1.67306648725e-08
2.81878043194e-08
3.04984485942e-09
3.04618068415e-08
2.82631486697e-08
8.10725009281e-10
1.33934959815e-08
3.31247176382e-08
3.37772055422e-09
1.90687252338e-08
3.11387510058e-08
3.65253128009e-08
4.24503612938e-09
2.73003472156e-08
4.2426549004e-09
3.28456164527e-08
2.80095036826e-08
4.09103836819e-08
2.64400117692e-08
8.33789694483e-09
8.60156285891e-09
9.12037964617e-09
1.2094788337e-08
1.98677347042e-08
9.14893340883e-09
3.39397643257e-08
1.04864429987e-08
5.1997153873e-10
2.39479103177e-08
2.2936808569e-08
4.29740888954e-08
6.29287735213e-09
1.03514991036e-08
8.1048067347e-09
5.86807379603e-09
5.56664390856e-08
4.47652958044e-08
1.75055915552e-08
2.59763036682e-09
2.04697089978e-08
1.49353333871e-08
2.27560392063e-08
1.76232858593e-08
3.93417037003e-09
1.89500948199e-08
1.20105709176e-08
1.58025324979e-08
1.75111767584e-09
4.0977308367e-09
7.01819390795e-09
7.79504955029e-09
1.9370965544e-08
1.39798662892e-09
9.1786683569e-11
1.1800507066e-08
3.47414584539e-09
3.16985857864e-09
2.56329186669e-09
1.87471078424e-08
2.04763162284e-08
5.8706055822e-09
2.95763188429e-08
4.18913259544e-09
2.78385499692e-08
1.83561533269e-08
5.40909401818e-09
3.5976557767e-08
1.43484917613e-08
6.22765099781e-09
8.55620927702e-09
1.67508052731e-08
1.95860044778e-09
8.02967494586e-09
6.47781193739e-09
2.14394600393e-08
3.05424850078e-08
2.99221490346e-09
1.33829092742e-08
5.04006968039e-08
8.56739366664e-09
1.21535143047e-08
9.27820975098e-09
1.93423573275e-08
2.72115116689e-08
4.52904335664e-10
1.41672863983e-08
1.80785148344e-08
1.61379560707e-08
1.12286048781e-09
1.49516179228e-08
3.02003596322e-09
1.26464339507e-08
1.83765614299e-09
1.42939337638e-08
1.05083625337e-08
7.67660871911e-09
3.91976614168e-08
2.89530776875e-08
3.63660319983e-08
3.2865561177e-08
3.42584859169e-08
8.56751674918e-09
2.20363866288e-08
1.12305406378e-08
1.10697476714e-08
9.29628282366e-09
3.65251512284e-08
8.72245838115e-09
9.6462700375e-09
2.19680747883e-09
4.43738452571e-10
3.19143337035e-09
2.06124037506e-08
1.10229411825e-08
3.72257736451e-09
2.29552769467e-09
1.71446714103e-09
1.07826285383e-09
2.39234624506e-09
2.58856049929e-09
2.85375261187e-09
2.01348286697e-11
1.20984472324e-09
5.27552314115e-09
2.82994949346e-09
8.84662022501e-10
1.97652983478e-08
1.2258605093e-08
9.78186695968e-09
2.0098643316e-08
7.11184876125e-09
1.657626337e-08
1.59785399378e-08
2.50545480602e-09
3.17259890207e-09
6.33016457555e-09
2.98557969383e-08
2.6869834934e-08
1.12252043491e-09
3.15565400471e-09
9.2778077306e-09
8.85861947059e-09
2.98356594579e-09
1.73123090144e-08
3.40049524271e-09
4.11617219348e-09
3.32204825051e-08
1.02703003804e-08
1.10344337869e-08
3.77269919981e-09
7.98982442418e-09
3.40397108139e-08
6.91358363834e-09
7.90045550361e-09
1.73141902456e-08
2.04055693514e-08
8.86741150603e-09
2.85099373036e-08
1.35448608112e-08
1.01059420387e-08
4.5073569336e-09
1.29463638509e-08
1.56722810371e-08
1.10083266683e-08
6.38537578321e-09
3.52630677242e-09
1.46303032658e-09
5.71953028791e-09
3.02828646157e-08
3.61381686915e-10
3.19157199975e-08
1.8340117664e-08
1.15809281906e-11
2.21232686831e-08
3.59954845735e-08
1.27427614145e-08
3.70676013495e-09
6.84670984468e-09
1.52607027573e-08
2.26312392736e-08
1.5725431412e-08
2.28928541154e-11
1.62416973819e-08
6.67866421224e-08
3.98945226681e-08
1.84133103965e-08
2.71586204265e-10
1.86298664831e-09
8.07780031144e-09
7.69705455103e-09
3.67541484169e-09
7.23871503628e-09
2.64206077589e-08
1.32173563782e-08
9.24572832259e-10
8.89250578165e-09
1.86020525399e-08
1.61615820705e-08
6.20419888901e-09
3.43806917436e-08
1.45077641881e-09
2.72207506557e-08
1.03081054782e-08
1.04931215028e-10
8.55409968777e-09
5.28389061454e-09
2.95752135238e-10
2.74815981078e-08
1.44058479117e-08
1.28464405124e-08
3.17343990375e-08
2.67328750137e-08
7.20812042016e-09
1.45693957428e-08
1.9547162797e-08
2.47295874695e-09
7.63707643316e-09
3.98484926038e-08
1.76669664431e-08
1.45699149956e-08
9.00408390835e-10
2.66128300224e-08
2.27216227431e-09
8.15509748711e-10
4.17663451893e-08
2.91394627835e-08
2.06786677748e-08
2.50601115566e-08
1.06723918543e-08
1.26041241627e-08
3.51251941737e-09
6.92195572854e-09
2.53076772826e-08
1.10735739269e-08
9.96748877277e-09
3.94150521207e-09
8.98336114466e-10
2.55715720493e-08
6.11856484766e-10
1.74155734373e-08
1.16323640753e-08
2.37987907338e-08
2.29100062266e-08
2.36564874315e-08
6.10565386859e-09
6.63695066933e-09
3.75169271372e-08
1.60375987732e-08
3.42793829588e-08
3.25104428396e-08
3.66634816227e-09
1.12918461236e-08
3.58643433696e-08
3.24411132637e-08
2.42065920996e-08
8.62359307662e-09
2.88585553173e-08
4.69086152302e-09
1.52450807892e-08
6.91411989011e-09
1.16161894981e-09
1.6509409695e-08
2.02948363626e-08
2.09173332784e-08
5.75650069718e-09
3.31980972963e-09
3.94736342906e-09
8.21370506371e-09
1.25102017533e-09
3.98543806891e-09
1.944218462e-08
1.4277326102e-08
9.75271901847e-09
1.73286586848e-08
2.78554702499e-08
3.13544462676e-09
1.08846470325e-08
3.67786482507e-08
3.40077550987e-09
1.66159744851e-08
1.45766722258e-08
9.17797794436e-09
1.25452494282e-08
1.463238283e-08
2.36462979781e-08
7.3577821811e-09
1.66599102957e-08
7.94262978098e-09
3.96104419351e-09
2.43159043219e-08
7.84196462107e-09
3.71236388291e-09
5.23882266505e-09
2.06830884578e-09
2.17245139085e-08
5.82921443975e-09
3.38740539987e-09
7.06348016593e-10
1.55484750931e-08
1.55258530693e-08
1.77940478699e-09
7.89694090764e-09
2.94915475496e-08
2.82675379773e-09
1.13321345423e-08
1.38312682338e-08
2.11297952605e-08
1.27697416204e-08
6.58347823004e-09
9.25921120428e-09
3.39013614677e-09
1.45912021886e-08
1.17275388477e-09
1.5299547909e-09
2.24392118015e-10
3.47696769159e-09
1.221127161e-09
1.32995473271e-08
4.70851942807e-09
8.29373664475e-09
1.33645219386e-09
1.5964878753e-08
1.02477263544e-08
6.44258747955e-10
9.94601888297e-09
2.50261402641e-08
1.44814996441e-09
4.05936811859e-09
1.30577214355e-08
1.90484914063e-08
2.68717446603e-12
2.07267171454e-08
2.46036802351e-08
9.43008712047e-09
2.11166371607e-08
4.60207951057e-09
1.77445798494e-10
1.81418232116e-08
7.35492891098e-09
3.71653806679e-08
1.65198493058e-08
7.70780509649e-09
3.66200436486e-09
4.9239147191e-09
2.25810149249e-08
5.54156548538e-09
2.57862999797e-08
8.77903893096e-09
1.87893070985e-09
1.712577988e-09
1.08414899759e-08
4.04522026949e-09
8.50382115915e-09
1.55236858477e-08
1.92938392768e-09
1.15689503752e-08
5.38970258374e-09
4.48653963202e-08
8.30204525303e-09
3.03215430554e-08
1.36094016577e-08
6.09334803505e-10
1.17343411948e-08
8.86499090752e-09
4.3779724971e-09
3.93421058772e-09
4.74900065404e-08
1.07814821252e-08
2.46583682842e-08
2.07967641452e-08
1.74367388025e-09
6.50788180746e-09
1.28768727375e-08
1.02927430336e-09
1.44616236759e-08
2.51355541287e-08
3.67048304083e-09
1.31690541253e-08
1.50748386426e-08
1.11612329236e-08
5.35277730831e-09
2.71584439001e-08
3.32822088873e-09
1.25311414224e-08
2.62573137888e-08
1.62560065371e-08
8.5193395251e-09
8.38025169008e-09
2.2439181019e-08
2.62505642164e-08
1.43548018019e-08
3.50682326696e-08
1.93032544779e-08
2.28369566642e-08
1.80067603618e-08
8.96075845946e-09
5.21267367809e-09
1.74683061058e-08
1.5605858622e-09
2.20679817945e-08
5.08850640591e-08
1.8170889226e-08
3.02870181753e-08
1.53250081901e-08
1.12704666668e-08
1.59193038054e-08
1.05153112848e-08
2.66115905703e-08
1.58782861443e-08
1.23762007357e-08
1.50960298407e-09
5.64653993579e-09
1.2547182999e-08
2.0273617593e-08
2.75608601699e-08
3.82403619728e-08
5.30241197591e-10
1.62312062189e-08
2.15251169719e-08
3.41713220746e-08
1.21653485117e-08
2.80573273281e-08
5.36862976954e-09
2.45724666498e-08
2.04886594971e-08
9.26749248156e-09
1.79858014048e-08
9.98333717633e-09
3.11618263231e-09
2.97845959652e-08
1.43011173692e-08
5.98378188799e-09
2.10690209871e-08
5.56233170528e-10
3.27302150895e-08
1.62547379877e-08
1.45858411851e-08
1.40764276018e-08
1.93693929647e-08
8.07247195931e-09
5.6453097527e-10
1.51885542834e-08
3.04194076156e-09
2.69925717931e-08
6.89680250667e-09
1.23964823461e-08
1.20588489612e-08
3.20051170945e-08
1.10182361377e-08
5.04058682202e-09
8.53715033497e-09
7.14540385192e-08
8.52202028924e-09
2.11123466295e-08
1.8950850382e-08
1.54554853811e-09
1.06084873889e-08
3.39130157418e-09
5.19748776366e-09
1.63524560992e-08
4.12073247019e-08
7.61296699487e-09
1.24075918223e-08
1.11192449569e-08
4.89549402398e-08
2.14090837295e-08
4.44803199148e-08
4.17110337496e-09
3.57579681762e-09
2.05838993869e-09
1.06438105975e-08
1.51305733882e-08
2.55881089459e-09
7.44121860195e-09
1.25341508329e-08
3.08505311784e-08
8.33826822121e-09
8.91650972307e-09
4.73150371968e-09
3.03163755264e-08
2.2816943872e-09
1.21044804701e-08
5.45897497672e-09
4.28576482917e-08
2.14616224105e-08
1.70961641147e-08
5.13264280796e-09
2.24303639826e-08
8.7944859829e-09
2.04538617235e-08
8.67831357539e-09
3.96316457301e-08
2.03457780809e-09
1.39011891879e-08
6.46839092319e-09
2.80618198595e-09
2.6219139625e-08
1.17086465716e-08
2.51236474527e-08
1.95825112909e-08
1.43309319939e-08
1.05074598936e-08
9.04635290073e-09
9.40886814978e-09
1.20802303571e-08
1.32855572072e-08
1.81737961971e-08
1.80284371873e-08