# vtk DataFile Version 3.0
File Name: Molecule/sphere_cent/sphere_cent_0-s19.vtk
ASCII
DATASET UNSTRUCTURED_GRID
FIELD FieldData 1
TIME 1 1 double
0.0
POINTS 741 double
0.25360634923 0.96184420586 -0.10234140605
0.30481564999 0.94812232256 0.085561797023
0.4012697041 0.91444319487 -0.052049256861
-0.52054715157 0.67433005571 0.52361631393
-0.49459293485 0.58875668049 0.63923716545
-0.37481144071 0.71075624228 0.59522795677
0.017308061942 -0.55875104666 0.82913476229
0.088897623122 -0.4412804544 0.89294439554
-0.070359393954 -0.3949765265 0.91594207287
-0.03362917155 -0.2385019809 0.97056078911
-0.17234498262 -0.23853141069 0.95564562082
0.2023743242 0.2666298151 0.94206142426
0.26272502542 0.051876924932 0.96346598864
0.40350261331 0.21078665555 0.89027255774
-0.19685073197 -0.87771224976 -0.43372371793
-0.017478475347 -0.87820160389 -0.47788891196
-0.04794306308 -0.9550742507 -0.28869432211
-0.75897061825 0.099843040109 0.64280134439
-0.86897999048 -0.028610296547 0.49238678813
-0.73720276356 -0.12634421885 0.66289037466
-0.85969650745 -0.20882818103 0.46056139469
-0.94188016653 -0.15711732209 0.29603946209
0.25000494719 -0.4855543077 -0.83729994297
0.17242203653 -0.64608240128 -0.74351972342
0.066304974258 -0.54201358557 -0.83762615919
0.11564453691 0.86658412218 0.48435410857
0.27134728432 0.79699909687 0.53936779499
0.26407587528 0.8758315444 0.40374606848
0.41869357228 0.79619199038 0.43664118648
0.34276539087 0.88836878538 0.30420321226
-0.96466839314 0.092315420508 -0.24555055797
-0.90029394627 0.23994271457 -0.36255559325
-0.87763541937 0.07618894428 -0.47323277593
-0.9403167367 0.28562739491 -0.18363578618
-0.43982246518 -0.72524291277 0.52866441011
-0.35257139802 -0.65748035908 0.66579794884
-0.54126977921 -0.57141971588 0.61682879925
-0.49844223261 -0.41678419709 0.7600864172
-0.6354174614 -0.39620095491 0.66210651398
-0.24914203584 -0.78557139635 0.56628751755
-0.17264509201 -0.70400559902 0.68880718946
-0.43671053648 -0.27189612389 0.85751879215
-0.56172192097 -0.24362330139 0.78975516558
-0.064686581492 -0.87774819136 0.47446608543
-0.24799126387 -0.88300687075 0.3977907002
0.99565976858 -0.0063574579544 -0.092219978571
0.95035392046 0.13388250768 -0.28067475557
0.97646325827 0.20974998176 -0.04166322574
0.48334953189 -0.80795389414 -0.33696454763
0.3464255631 -0.9005805254 -0.26245653629
0.31272396445 -0.84942036867 -0.42489659786
0.15119062364 -0.93043750525 -0.33360871673
0.21934084594 -0.96015018225 -0.17065805197
0.54345613718 -0.82348096371 -0.16273280978
0.40976974368 -0.90511423349 -0.11290758103
0.5343157053 -0.84460186958 0.020102147013
0.32082879543 0.56043219566 -0.76360446215
0.44306117296 0.43362611532 -0.78456228971
0.28077149391 0.40033531189 -0.87124663591
0.32737004757 0.30158245564 -0.89507234097
0.94564956427 -0.12748086452 -0.29602605104
0.87716668844 0.018955804408 -0.47925400734
0.84621655941 -0.17340956628 -0.50319892168
0.85419857502 0.23486554623 -0.46361479163
0.15291453898 0.24597747624 -0.95696419477
0.28917473555 0.12472886592 -0.94869744778
0.10793135315 0.10189270973 -0.98887735605
0.65134972334 -0.71104991436 -0.26482090354
0.96036076546 0.16168089211 0.22586642206
0.89723241329 0.26139515638 0.35574942827
0.91643506289 0.075618065894 0.39292889833
0.83211797476 0.16164983809 0.53051960468
0.80621099472 0.33077466488 0.49049541354
0.8352664113 -0.024681102484 0.54934209585
0.82587820292 0.44730865955 0.34269425273
0.94257688522 0.30547377467 0.13431741297
-0.29454910755 0.50934255123 -0.80857330561
-0.35326111317 0.6166896224 -0.70307934284
-0.19994547963 0.61029404402 -0.7659317255
0.78185266256 0.55831986666 -0.27720361948
0.71112054586 0.54739582539 -0.44103270769
0.66003000736 0.6618078351 -0.35401722789
0.34074786305 0.9026927352 -0.2626273334
0.04796622321 0.85181581974 -0.52151101828
0.16641439497 0.91239005327 -0.37349537015
0.29148578644 0.82459259033 -0.48482593894
0.45376342535 0.81844490767 -0.35177087784
0.71009790897 -0.69645899534 -0.099194385111
0.78531646729 -0.57944762707 -0.21789076924
0.69893753529 -0.58614313602 -0.40979155898
0.85694992542 -0.51215398312 -0.049707427621
0.89297866821 -0.39979451895 -0.20353107154
0.62858754396 0.70963895321 0.31737166643
0.75790941715 0.60002624989 0.25601819158
0.69016438723 0.70561432838 0.16040554643
0.68891012669 0.59076440334 0.41997644305
0.80546563864 0.58971899748 0.052539117634
0.72029167414 0.25916779041 0.64344769716
-0.81062060595 -0.32114630938 -0.48956918716
-0.90347760916 -0.23654599488 -0.35708335042
-0.85250657797 -0.18904773891 -0.48732343316
-0.92546153069 -0.072616174817 -0.37150764465
-0.97753590345 -0.1093487069 -0.17225851119
-0.95347332954 -0.2184060514 -0.20606410503
-0.65619069338 -0.53902989626 -0.52803856134
-0.75995218754 -0.47026029229 -0.44854527712
-0.71689897776 -0.3952575624 -0.57430899143
-0.67108792067 -0.61873501539 -0.40827554464
0.26488098502 0.68853002787 -0.67484378815
0.40449142456 0.59845817089 -0.69093692303
0.40405350924 0.69455242157 -0.59498804808
0.69813013077 0.71573811769 0.012797029689
0.15560135245 0.54650241137 -0.8228290081
-0.0073660044 0.52784371376 -0.84906876087
0.044808279723 0.64138120413 -0.76580893993
0.085133738816 0.39676049352 -0.91391694546
0.74668431282 0.063136458397 0.66210544109
0.71870934963 -0.14342206717 0.68004506826
0.58825474977 0.25985023379 0.76568853855
0.58516025543 0.4148876369 0.69666182995
-0.52395743132 -0.0012131209951 -0.85174077749
-0.54419499636 0.27034693956 -0.79414689541
-0.42096590996 0.25817793608 -0.86956626177
-0.43142744899 0.41501203179 -0.80037242174
-0.27463597059 0.35817962885 -0.89234656096
-0.28363934159 -0.52125495672 -0.80485582352
-0.41489598155 -0.40381011367 -0.81531566381
-0.27860850096 -0.36616489291 -0.88768017292
-0.54042315483 -0.27472910285 -0.79541140795
-0.41343948245 -0.25730237365 -0.87328338623
-0.53337943554 -0.42205536366 -0.73300009966
0.023530501872 -0.039583403617 -0.99880611897
-0.10399985313 0.085495918989 -0.99089032412
-0.0023276968859 0.24448500574 -0.96965068579
-0.16237050295 0.24593509734 -0.95558923483
-0.083816424012 0.3820207119 -0.92035323381
-0.16443060338 0.49038684368 -0.85583072901
-0.31496429443 0.15247543156 -0.93691593409
-0.26821562648 -0.0044665215537 -0.96325528622
-0.12407273054 -0.076542310417 -0.98937731981
-0.11755555868 -0.54223281145 -0.83151054382
-0.17508459091 -0.668823421 -0.72246795893
-0.0076169879176 -0.66305881739 -0.74851238728
-0.29965275526 -0.16364733875 -0.94009542465
-0.16585823894 -0.29185307026 -0.94174659252
-0.8180731535 0.35394233465 -0.45311957598
-0.79987978935 0.22242763638 -0.55663514137
0.25832366943 -0.024821422994 -0.96567344666
-0.7548211813 -0.23321963847 -0.61306285858
-0.8303270936 -0.073377452791 -0.55141973495
-0.92473363876 -0.30250957608 -0.22987477481
-0.85036063194 -0.38273659348 -0.36087530851
-0.80263531208 -0.51364654303 -0.30243524909
-0.64377468824 -0.33720466495 -0.68691170216
-0.64494115114 -0.20276962221 -0.73694771528
-0.70892781019 -0.10721597075 -0.69667851925
-0.61087590456 -0.47159445286 -0.63594567776
0.55869138241 -0.63341259956 -0.53539091349
0.63538265228 -0.52410548925 -0.56702798605
0.50526338816 -0.55258399248 -0.66279995441
0.42920207977 -0.66435581446 -0.61189097166
0.56945747137 -0.43948441744 -0.69450426102
0.58329200745 -0.70109671354 -0.41018185019
0.46065694094 -0.74422061443 -0.48359581828
0.43529593945 -0.44791829586 -0.78092706203
0.35367152095 -0.57989251614 -0.73390001059
-0.42679154873 -0.69319331646 -0.58054596186
-0.46145123243 -0.77426117659 -0.43291658163
-0.56294292212 -0.67117094994 -0.48232990503
-0.5895126462 -0.72644227743 -0.35169026256
-0.15021421015 0.93772631884 -0.31315952539
-0.2900635004 0.87695020437 -0.38278022408
-0.25763100386 0.95061576366 -0.17232091725
-0.021529568359 0.96942448616 -0.24446326494
-0.0099367853254 0.92190515995 -0.38729023933
-0.13919366896 0.87727427483 -0.45934203267
-0.41375917196 0.19480545819 0.88914144039
-0.43056955934 0.0061477026902 0.90242129564
-0.31441825628 0.064774356782 0.94689810276
0.44217339158 0.035543486476 0.89620655775
0.55451649427 0.1342279017 0.82104742527
0.068207815289 -0.82039040327 0.56595921516
-0.077525302768 -0.78742957115 0.61139518023
0.016167370602 -0.71660643816 0.69726985693
0.38484293222 -0.10916692019 0.91649842262
0.50207185745 -0.13381019235 0.85433202982
0.44715952873 -0.27189585567 0.85193651915
0.25561371446 -0.20403154194 0.94493061304
-0.10265950859 0.87373328209 0.47501450777
-0.20366506279 0.80508387089 0.55678004026
-0.083656638861 0.78185361624 0.61775755882
-0.2509521544 0.88302588463 0.39653223753
-0.1060668081 0.68689596653 0.71891015768
-0.23389002681 0.70769500732 0.66667127609
-0.87141281366 0.48143142462 0.093040585518
-0.80481141806 0.56012278795 0.19592654705
-0.78026586771 0.62116032839 0.070903256536
-0.89683490992 0.38616147637 0.21524243057
-0.68542540073 0.72014725208 0.1076181978
-0.70950096846 0.66732317209 0.22617200017
-0.067831538618 -0.76826280355 -0.63654702902
-0.19153216481 -0.79979991913 -0.5688123703
0.066671654582 -0.75952005386 -0.6471054554
-0.56997811794 -0.062334995717 0.81889933348
-0.47502207756 -0.14135187864 0.86851930618
-0.36045464873 -0.11352531612 0.92581647635
-0.26602882147 0.78606945276 -0.55713415146
-0.84797888994 -0.52952390909 0.0089048743248
-0.89600157738 -0.43267068267 -0.095607273281
-0.83103066683 -0.5348315835 -0.15259762108
-0.86060452461 -0.44564053416 -0.24573911726
0.54331183434 -0.82379579544 0.16156920791
0.42446160316 -0.8963907361 0.12760566175
0.36206239462 -0.89806449413 0.24955049157
0.25587272644 -0.95344573259 0.15990580618
0.99464607239 0.046149559319 0.081004686654
0.99131053686 -0.093457773328 0.091672182083
0.96961778402 -0.0061026844196 0.24453310668
0.95240479708 -0.16372278333 0.25709590316
0.91058152914 -0.097819507122 0.40157872438
0.88126271963 -0.26780545712 0.3893584609
0.83283650875 -0.17658223212 0.52454966307
-0.73363000154 0.58503574133 0.34572461247
-0.6296030879 0.6450535059 0.43303239346
[...]
CELL_DATA 1478
SCALARS cell_data_0 double
LOOKUP_TABLE default
5.44167334468e-08
3.72477449198e-08
1.04701502173e-07
6.05997919491e-08
1.04739664559e-07
5.29857953019e-08
1.10942202018e-07
3.63198531571e-08
7.85075798462e-08
4.11225645719e-09
2.47201755139e-09
2.13552245511e-08
1.10651963451e-07
1.04248512442e-07
8.30830585643e-08
1.19036845972e-07
1.9870521176e-07
8.31466152201e-08
6.78657374171e-09
1.3511228656e-07
3.62615091262e-07
1.79449873751e-07
1.16064385362e-07
1.24497982599e-07
5.41377076499e-08
1.64150280045e-07
7.6923406814e-08
1.31193613188e-08
7.02920451321e-10
9.42952500812e-08
1.39537686271e-09
1.73707843127e-07
9.32079974299e-08
2.40509409651e-07
1.72960973764e-07
5.55140625998e-08
9.33928134633e-08
4.09669292967e-08
1.10757381643e-07
4.12266776184e-08
1.80361568493e-08
8.65037613596e-08
3.31181605905e-08
1.1793273471e-07
3.48359458603e-09
1.54087778313e-07
1.00997260271e-07
1.60715505642e-07
8.8967765254e-08
1.24738582171e-07
6.00190498774e-08
8.74084456909e-08
2.06640191949e-07
2.64896493838e-07
6.04467656307e-09
2.04492244082e-08
1.59096027685e-07
7.280090908e-09
3.1933406748e-08
1.25662193635e-07
1.71895161064e-08
1.29638688817e-07
2.77832510645e-08
3.28907411567e-08
6.22257967376e-08
5.19670858285e-08
1.12619021025e-07
1.38974966459e-07
6.27182224793e-08
1.48042725738e-07
4.16369024682e-08
7.33583102234e-08
3.99683752784e-08
1.13031463947e-07
7.39484994602e-08
1.31436834477e-07
1.64463050048e-07
7.58991874415e-08
1.99927388562e-07
1.78237259383e-07
3.86396617384e-08
1.68771296011e-07
1.53961893347e-07
1.66265371492e-08
1.92979457627e-07
2.06446280866e-08
2.21764997189e-07
5.44186240316e-08
1.79817227012e-07
8.43704115078e-08
2.67048305735e-08
3.12969217131e-08
7.43247791725e-08
5.64393554783e-08
5.93950407319e-08
2.24624950298e-08
8.78464579081e-08
1.87169365725e-07
1.02619450989e-07
5.30006774365e-08
8.67637340147e-08
3.05230751333e-08
3.3487142996e-08
1.08874995166e-07
8.78222694132e-08
1.0398547743e-07
2.8646352728e-08
1.06567528489e-07
8.82764331904e-08
1.55313242579e-07
1.44538818462e-07
1.35849772072e-07
1.06327261658e-07
1.07507486847e-07
1.08123230408e-07
9.83358790411e-08
8.04390077584e-08
1.31067586348e-07
1.94795753284e-08
5.43079863968e-08
8.37729446095e-10
3.1952502771e-08
2.53159891568e-08
2.31671426136e-08
1.89325307156e-07
8.12794397179e-09
9.02069250513e-09
1.86853211453e-07
6.99901604328e-09
7.6598771676e-08
5.12176248193e-08
1.13908692849e-07
8.6977856583e-08
2.00288530233e-08
4.68406607274e-08
4.60502340723e-08
7.6202106137e-08
3.80811321352e-08
9.87107258935e-09
8.28430469047e-08
9.13853078707e-08
2.85666561323e-08
5.67595664284e-08
1.76821423476e-08
2.21327579897e-08
2.70857571771e-08
5.35226294871e-08
3.4824486338e-08
1.9641261811e-08
2.29794717018e-08
6.51274934356e-08
1.2104857246e-07
7.0399248452e-08
5.5139889426e-09
5.10722978875e-08
1.33211587009e-07
5.79666523505e-08
2.06497730496e-07
5.74551333798e-08
1.46804383549e-07
3.60495442278e-08
4.37756557785e-08
1.11339208235e-08
1.19527058839e-07
1.269963147e-07
6.99051649794e-08
2.4263825802e-07
1.40452508397e-07
4.08576646525e-08
1.95081797308e-08
6.0979342476e-08
1.41383196979e-07
5.19729439774e-08
1.33590976636e-08
5.66364494576e-08
9.92944553421e-08
9.45279895737e-08
1.4534138866e-07
1.67210555166e-07
2.10163327922e-08
1.45480678139e-08
9.55452209602e-08
2.54021729426e-08
9.10791329465e-08
3.93524677626e-08
1.28955739042e-07
9.63579480222e-08
4.62089307729e-08
5.52939716684e-09
8.42516545592e-08
7.80505753631e-08
2.88375901212e-08
1.8335028865e-07
9.78001668625e-08
3.32958004216e-08
5.42883434104e-08
8.12086784994e-08
1.30306406349e-08
4.39456766549e-08
1.12646531253e-07
9.42802777539e-08
4.97146722999e-08
2.12497362235e-08
1.35328301385e-08
9.29385848709e-09
8.42353737117e-08
8.09474271699e-08
8.57273519385e-08
1.438247593e-07
3.09497083404e-08
2.68463506336e-08
2.6908642948e-09
4.06335537628e-08
1.00796925649e-09
2.56675224878e-08
1.17842473543e-07
3.01943418328e-08
9.1037848421e-08
4.16585563662e-08
2.17431685432e-08
4.10576726548e-08
1.21331444531e-07
2.65790670608e-08
3.06149723547e-08
5.34256733882e-08
2.51617591387e-08
3.40919726543e-08
8.37690126603e-08
1.26049060065e-07
7.1095613831e-08
1.87700630162e-09
8.3692102587e-08
8.25081487194e-08
1.11590061041e-07
3.20614322087e-07
3.84488598915e-08
2.19703600463e-08
4.03650376161e-08
3.48231166351e-09
3.67645295136e-08
6.18544883887e-08
3.49621311084e-08
3.31571750852e-08
3.30474705263e-09
4.59906559569e-08
7.06560021997e-09
1.95895473787e-08
7.08989429251e-08
1.67814578256e-07
8.84038362408e-08
6.80659079353e-08
2.73700448492e-08
3.80766830218e-08
3.10310014086e-08
7.95079610731e-08
3.03753600216e-08
9.13673926617e-08
3.0102356922e-07
1.14236232924e-07
1.23223625812e-07
5.63704071801e-08
1.64073475015e-08
3.35233348476e-08
5.11591196489e-09
9.3720665335e-08
2.04161439694e-07
8.48732732739e-08
2.3863645617e-08
1.03670530334e-07
3.10906927262e-08
4.51817574348e-08
3.53649787727e-08
1.587840863e-07
8.12381785015e-08
2.51778258169e-08
1.62405882719e-08
6.41177690682e-08
9.36663794716e-08
7.99040001071e-09
3.51356857796e-08
3.22143878156e-09
1.52404062903e-08
9.54865538315e-09
8.7440295411e-08
3.11279140001e-08
5.49115391671e-08
9.58774070995e-08
5.18400132065e-08
2.36674037778e-08
7.51056193946e-08
3.62621441476e-08
6.62975724711e-08
5.0184758389e-08
1.77760362881e-08
6.49362934766e-08
5.56678515619e-08
3.66852075603e-08
2.33715743977e-08
1.90101875353e-09
2.53474988064e-08
3.49689092935e-08
6.0433325004e-08
1.77454826112e-08
4.6573479252e-08
7.41772499218e-08
4.61009705414e-08
3.60907820661e-08
4.18839171048e-08
1.3130926938e-08
1.54989051399e-07
4.09737035286e-08
4.0219534295e-08
1.03642975676e-07
3.63325383051e-08
2.73171791822e-08
1.75096551231e-08
1.03654415158e-07
7.9923389735e-08
4.22068307744e-09
7.79638954113e-08
9.08653305743e-08
3.44399541802e-08
1.18459982862e-07
1.06287153238e-08
5.00491623831e-08
6.58622398829e-09
4.68861980991e-08
1.31110690211e-08
1.60485332242e-07
1.50324295437e-07
1.07413640224e-07
6.37835587646e-08
1.51078481918e-07
1.45044553544e-07
1.87047796426e-08
3.7400216646e-08
7.38900287874e-08
5.59198568579e-08
1.78401750246e-08
2.31664875605e-08
3.51788151643e-08
1.23078503767e-08
7.84098774745e-08
1.42390043488e-07
6.73312975366e-08
2.37440127758e-07
2.19275063891e-08
2.0381720523e-08
1.04854766061e-07
5.56555611314e-08
1.24622669757e-07
6.62411318069e-08
1.30478009591e-07
2.46745833957e-08
5.95830553419e-08
4.66976306551e-08
4.73873427522e-08
3.14081407369e-09
5.88383574761e-08
6.6151518723e-09
8.20094850764e-08
3.21211459528e-08
1.3398322746e-07
9.67446569871e-08
2.84304552517e-08
5.12430992533e-08
6.27532553428e-08
3.67147703549e-08
4.92793563473e-08
3.16421510852e-08
2.27851396588e-08
3.53577814238e-08
3.07011374943e-08
3.60439411231e-08
4.8060184862e-08
1.91532907602e-07
2.28603571421e-07
3.14423608735e-08
9.28805888482e-08
1.56779876766e-07
4.78137329064e-08
4.38542762598e-08
1.40931532564e-07
5.80005806003e-08
4.18558227151e-08
9.99909003342e-08
3.86579215809e-08
3.28305804158e-08
3.64808881685e-08
1.83892485607e-07
3.86932035906e-08
1.58310079794e-08
1.99620944836e-08
4.48377144106e-08
1.67128590059e-07
1.01769880543e-08
4.18721993976e-09
1.65263860673e-08
8.66233026644e-08
5.3534824528e-08
1.54380868179e-08
1.97586200347e-08
2.04155168806e-08
9.92791158488e-08
2.52874825288e-08
3.12924489457e-08
3.97203848045e-08
1.3303721793e-08
8.03027068445e-09
2.7108023658e-08
1.68209364665e-08
1.69447201574e-08
5.58129694438e-08
1.4458899834e-08
1.00780507106e-07
5.60256072247e-09
5.52772653866e-08
3.36393015507e-08
1.12683356085e-08
2.06844084206e-08
1.10105153404e-07
6.5920367872e-08
1.70723698722e-07
4.40774513142e-09
4.36814848539e-08
4.66923405191e-08
2.5854183307e-08
9.81691045894e-09
1.00662050036e-08
5.62897158866e-08
1.03722692158e-07
5.16561203857e-08
2.25441446351e-07
5.51606275818e-08
1.16707996182e-07
8.87838696488e-08
4.13088888842e-08
7.28403096976e-08
1.44498397273e-07
1.75450431625e-07
3.38153158281e-08
3.50541207804e-08
6.16493042738e-08
7.09226706455e-08
4.18281189647e-08
1.31539720003e-07
1.33706547872e-07
9.3016154754e-08
8.71583635831e-08
8.71040039246e-09
5.38460015321e-08
6.53855202391e-08
1.21712836339e-08
5.82194634907e-08
2.24754036207e-08
5.73832488052e-08
2.06998706688e-08
3.3345181783e-08
1.88289233526e-08
3.05045585381e-08
1.06014937807e-07
1.12477702905e-07
5.01984133269e-08
8.88487806622e-09
8.69127137676e-08
6.26356344749e-08
1.01824094146e-07
1.46561906077e-08
4.56015588072e-08
3.66630269519e-10
9.27961903052e-08
1.29493941806e-08
7.89820543079e-09
3.85624956873e-09
4.36901651439e-08
1.17068958351e-07
6.42034399797e-08
1.05507691353e-08
3.2442165501e-08
7.25954945495e-08
9.79969060743e-08
1.22538399488e-07
3.01821726118e-08
3.93639206269e-08
1.57816802779e-07
6.62525176435e-08
6.62492838651e-08
6.4450417465e-08
1.57055091493e-07
4.4463758491e-08
1.94293203978e-07
8.14390938392e-08
6.17165351218e-08
2.96122685933e-08
5.83455072287e-09
7.92932763703e-08
6.14244076416e-08
2.00012408693e-08
5.76488205609e-09
3.39019337326e-08
8.64047512665e-08
1.04925204413e-07
6.1749136087e-08
1.38613853762e-07
4.23762095165e-08
2.78117218979e-07
1.64961155072e-07
7.02806134142e-08
9.51380452374e-09
7.12609040565e-08
7.89280418968e-08
5.48634833001e-08
7.55681655453e-08
1.17396878609e-08
1.30339118643e-07
3.93461749286e-08
1.06944110042e-07
1.72813268942e-08
7.93079820439e-08
2.91386498939e-09
4.73045176126e-08
1.11967982871e-07
1.33400229364e-07
1.39612697505e-08
5.59525043599e-10
7.90454680692e-08
1.89248893136e-08
7.92170824521e-08
5.53083793047e-08
3.75664279695e-08
1.84944740356e-08
4.56524619291e-08
3.8673231798e-08
9.17633822511e-08
6.36015983638e-08
1.34449053029e-07
6.36410590491e-08
2.73523835122e-08
8.50321357087e-09
6.33928286479e-08
7.2185334163e-08
6.44788663693e-08
8.10074306304e-09
2.47769300465e-08
1.32547189337e-08
9.71841463678e-08
1.23376183929e-07
1.36691247066e-08
2.84500282902e-08
6.00551828838e-08
8.69610792065e-08
9.99148417113e-09
1.18262559315e-08
3.25457159244e-08
6.31894273847e-08
4.19511848926e-08
3.28329756552e-08
1.40467160195e-07
5.73381424363e-08
3.00076000217e-08
5.70238199312e-08
1.24094469005e-08
5.99973127696e-09
4.51598494665e-08
3.54933791669e-08
3.30208281336e-10
3.21683655142e-08
5.08744678923e-09
5.73933276895e-08
3.60606994067e-08
1.3714462141e-08
4.4068124054e-08
4.47852314658e-08
2.29671033092e-09
6.8724297563e-08
2.68559792257e-08
9.05851384998e-08
6.83154438586e-09
4.41067816287e-08
1.05498988462e-08
1.9657756208e-08
1.36597654088e-07
4.87367704719e-08
1.69753002132e-07
1.34782483395e-07
1.78319999112e-07
1.44226261335e-07
8.5826409793e-08
6.32270927733e-08
4.63368026278e-08
2.34072389523e-08
7.12487721508e-08
2.10040225377e-08
1.29733338928e-08
3.26571344275e-09
4.95125186485e-08
4.86061276474e-08
4.94406798712e-08
3.15428351121e-08
5.17736924964e-08
1.463612293e-08
3.95476717366e-08
1.43894743744e-09
5.15790824633e-08
6.26444254181e-09
4.25000872472e-08
5.45156336465e-08
2.00277418745e-08
3.76822727007e-08
4.19057302901e-09
4.1331467014e-08
2.508704231e-08
5.9900500702e-08
2.17214450803e-08
2.93007842346e-08
4.34680771353e-08
7.99348761026e-08
5.04373079113e-08
6.99847321143e-08
7.32713103474e-08
7.46881183126e-08
5.73921944834e-09
4.48007143701e-09
9.60012404344e-08
3.58257426451e-08
5.56721863169e-08
2.2033781334e-08
1.07190780716e-07
9.99494649321e-09
3.03486589969e-08
3.53089002405e-08
3.99633326822e-09
8.42551937343e-08
1.38995893525e-08
5.77193238946e-09
2.42090784081e-08
4.66729360586e-09
9.15911087775e-08
5.52860279335e-08
7.11870103815e-08
1.53248321448e-07
2.45887262901e-08
8.83464365286e-08
6.55961268807e-08
6.25356613172e-08
1.07019669692e-07
1.82547315044e-08
7.71007041779e-09
1.47546212269e-08
6.19133590763e-09
8.741342017e-10
1.18899734435e-07
5.29514424987e-08
3.68089895676e-08
1.80273081583e-09
7.68362204873e-08
5.41854203096e-10
3.63927364153e-08
1.42078073452e-07
8.21327056762e-08
3.80673344998e-08
4.65974067687e-08
9.54952752136e-08
8.04888502928e-08
3.86956552858e-09
1.58568311264e-08
5.80280936062e-08
5.46050683335e-08
3.41926207532e-08
2.23080741676e-08
5.19256785876e-08
2.83627518785e-08
7.9573481856e-09
4.49006475115e-08
2.37494798896e-08
1.81670751284e-08
1.00322560499e-08
6.43946826037e-10
5.81045646368e-08
4.1372654874e-08
4.34509855622e-08
1.29683532364e-09
6.50319365975e-11
5.5974496628e-08
1.76362786012e-08
1.23450152828e-08
6.34392701994e-08
2.70367747581e-09
1.46882618191e-08
8.62790909002e-09
5.37667322635e-08
1.98746248857e-08
4.06538127865e-08
3.20994338617e-08
7.63890530629e-09
9.49715961978e-09
1.67781872232e-08
5.72676740982e-08
1.06426164323e-08
3.02710547344e-08
2.60033714296e-08
4.48166090907e-09
9.54194882616e-09
8.02079763778e-08
5.7865289852e-08
3.40317058748e-08
2.81694213798e-08
1.20295150811e-07
8.69152789941e-08
3.46354561268e-08
4.97511786572e-08
4.70567466852e-08
9.02825026276e-09
2.78279858171e-08
1.54424653771e-07
7.80913615022e-08
3.33875775431e-08
3.48159562476e-08
3.949660614e-09
4.5226592463e-08
1.82727045464e-08
7.60286033248e-09
4.17078473025e-08
4.01384884958e-08
2.66259918067e-08
4.8169964247e-08
7.12707547089e-08
7.27900814775e-08
2.6116915336e-09
8.89692120513e-08
3.21052659202e-08
3.65080148137e-08
2.98740662206e-08
5.70320624481e-08
3.41079855333e-08
3.52204226918e-08
6.33752376898e-09
7.61287227845e-08
8.29920580075e-09
1.06781723052e-09
4.47093311194e-08
5.41548873955e-08
1.20372273352e-07
6.40413986048e-09
9.32879421751e-08
4.09727124231e-08
3.90095415664e-08
1.04374428217e-08
3.67722118066e-08
1.83091234538e-08
1.01467996508e-07
3.22988992144e-09
1.16785656463e-09
1.28500173474e-08
2.88736347058e-08
2.34242000827e-08
1.69082491534e-08
1.58733801548e-08
5.51791479361e-08
4.65496339468e-08
7.14928289588e-08
1.13301388849e-07
1.65819088378e-07
3.2992951443e-08
2.15797872131e-08
3.83223945759e-08
4.95405514408e-08
7.18156811242e-08
4.14299439894e-08
3.67819023414e-09
5.12292005142e-08
2.2503817492e-08
6.36198965386e-08
8.95332637216e-09
7.80479308937e-09
9.90376450536e-08
2.22649429525e-08
3.88447886993e-09
1.3939143601e-08
1.16003545139e-09
1.87003260416e-08
1.15791665596e-07
7.55999433034e-08
1.62400710417e-08
7.99829522088e-08
6.85077563492e-08
3.20264399439e-08
3.334495236e-08
2.380415009e-08
1.18655233937e-08
9.57360923996e-09
3.71293052083e-08
2.3647012853e-08
2.38332709047e-08
2.22293309154e-09
3.40551225823e-09
5.01241394829e-08
2.69015043298e-08
2.61904909541e-07
6.45203692704e-09
1.38081163181e-08
1.15518930678e-08
1.7897978539e-08
3.03669675734e-08
9.76450772943e-08
5.58080555389e-08
8.67212134618e-08
1.0807953818e-08
3.55199447183e-08
1.10335253443e-07
2.5448217068e-09
7.86073699668e-08
1.03166090838e-08
2.33525095749e-08
1.67481179899e-08
2.28682609829e-08
5.90615661332e-08
6.82301793157e-08
8.96849989531e-08
7.70552932508e-08
1.13792201276e-07
8.46903809672e-09
3.71434283026e-08
1.28870367133e-08
1.08668136563e-07
1.19691461799e-07
2.28124026994e-08
1.94054287436e-08
4.94293639075e-09
3.26261451119e-08
8.43573908651e-08
1.22240071535e-07
1.68984859372e-08
2.3887618955e-08
4.44640516763e-08
1.27090272799e-07
6.80063486679e-08
4.87752076591e-08
3.57254955883e-08
2.95043879499e-08
4.87469940531e-08
6.84461459668e-08
1.91311363973e-08
3.20781672372e-08
1.44771006692e-09
1.05751860095e-07
3.74614214773e-08
1.4263156273e-08
5.6261353579e-08
4.02450562893e-09
4.14385364901e-08
2.92453504492e-08
2.77205138172e-09
2.75859049426e-08
6.43192541117e-09
2.66425775893e-09
2.79674198304e-08
7.79578300142e-09
9.45491327029e-09
3.08979930376e-08
3.22142795545e-08
5.64069769053e-08
1.29316436031e-08
2.17192627394e-08
1.08834977412e-08
3.27565920937e-08
4.45719835287e-08
5.89464703609e-08
1.9509606839e-08
1.77281862008e-08
6.08669475233e-09
4.34313383701e-08
3.95302051768e-08
4.06950064735e-08
7.32886820501e-08
1.66960207327e-08
3.23659130718e-08
4.53181857966e-08
4.26666122745e-08
4.85568111893e-08
2.07544370112e-08
6.48519110118e-08
2.61386053232e-08
2.3757874884e-08
5.44355812104e-08
3.27487390108e-08
5.99450575257e-08
3.31686919805e-09
4.41119980376e-08
7.74844759459e-08
3.84200916302e-08
1.3909347708e-08
1.7058608053e-08
4.70197650686e-08
5.5436594693e-08
4.53357088533e-08
9.85605269316e-08
7.02692772399e-08
3.292469381e-08
1.22734848479e-08
3.91808943064e-08
1.03677048483e-07
2.08982481654e-08
3.25357768899e-08
4.16405859804e-08
6.23895444216e-08
2.63618548458e-08
1.10173185188e-09
6.96018309083e-08
1.76302157403e-08
8.12254016303e-08
1.53629333394e-08
3.06227636348e-08
3.15080082702e-09
4.07707323668e-08
1.00414001663e-07
1.16987390665e-08
4.21371827127e-08
2.2673949732e-10
3.43728146807e-08
4.116779751e-08
8.54068476291e-08
4.84903822659e-08
1.69957036496e-08
4.26227224096e-08
7.5712898771e-09
1.28236504365e-07
3.99256235458e-08
1.75717099274e-08
5.00241657859e-09
1.92537835615e-08
3.03675590233e-08
3.53336054821e-08
4.64212658726e-08
4.16869833842e-08
2.17234419589e-08
5.2253309469e-08
5.46513762654e-09
7.63274245929e-08
1.66783600117e-08
7.86013888354e-08
5.71578649391e-08
8.82439338378e-09
1.98364249949e-08
8.37932819924e-09
1.04446192615e-07
1.07464662997e-08
3.17849662365e-08
4.71960673542e-08
5.89621318921e-08
1.00435407355e-07
5.7955466748e-08
2.87389241068e-08
4.02213002304e-08
3.48649764325e-08
5.0395864327e-08
3.59071039692e-07
4.9211712942e-08
3.01950422631e-10
7.28077746116e-09
1.89837667401e-09
1.95746453381e-08
1.93705283146e-09
5.43377340595e-08
1.71096186519e-08
6.07703817641e-08
5.31139745247e-10
3.91583040131e-09
5.08863901765e-09
2.30530228617e-08
6.88737100163e-08
8.2170483595e-08
4.23976724763e-08
1.93674990649e-07
8.22585987799e-09
2.18313807003e-08
6.28967001176e-08
4.18023148285e-07
1.32444153952e-07
2.36417532313e-08
1.31316107708e-07
8.79919873465e-09
6.45861615638e-08
1.97119300489e-08
5.53323984696e-09
1.2769179508e-07
3.83155593032e-08
7.24504830653e-08
4.4526555881e-08
4.1279394226e-08
3.90598746035e-08
3.79968560929e-08
4.74319469586e-08
5.10442717994e-08
3.12163240275e-08
3.89212708976e-08
3.07229477756e-08
2.93647339732e-08
1.39478146915e-09
3.6103459395e-08
5.61863793165e-08
2.54692231096e-08
5.32636506112e-09
2.69885748803e-08
1.13414684549e-07
6.96311226002e-09
6.83562257693e-08
2.50445277625e-09
1.59552424418e-08
4.54868614291e-08
1.40084635697e-07
2.3150339997e-08
4.72161336228e-08
1.23869523502e-07
1.53394479268e-07
1.37123557853e-08
8.76657699777e-08
3.38684917466e-08
3.26764220159e-08
1.10521633283e-07
2.16937670886e-08
3.89021402989e-08
4.21530231267e-08
4.0668333183e-08
1.1733415542e-08
6.71318413446e-08
2.88761141375e-09
1.12786305932e-08
1.97950496479e-08
5.52113228447e-08
3.89904449068e-08
5.69836255978e-08
3.90977733463e-08
1.7994805532e-08
4.53631933111e-09
4.41108158804e-08
7.5394066979e-08
5.78149665145e-08
4.69507734589e-08
7.92997724956e-08
5.99962927541e-08
3.30356438951e-08
8.57098936026e-09
8.06404012898e-08
2.60187545073e-09
3.48148913395e-08
5.26511436155e-08
4.71200578921e-08
2.6493536182e-08
1.21283710349e-07
2.1832686866e-08
1.44672993058e-07
8.92009745083e-09
8.5764160315e-08
4.14516648697e-08
3.38427347122e-08
3.26006449974e-09
5.51329989703e-08
6.00781016492e-08
4.34646961358e-08
5.48426895309e-09
1.57559860533e-07
7.16696613968e-09
2.45967480071e-08
2.15305198294e-08
8.76707211603e-09
1.92776748746e-08
6.17189298714e-09
4.05692108646e-08
2.05947196248e-08
7.35421002446e-09
9.02627585955e-08
4.06038968746e-08
3.06724590846e-08
1.50261044713e-08
4.03117505447e-08
3.55483721355e-08
4.31020553393e-08
6.97220873375e-08
4.15624500855e-09
3.14210019077e-08
5.8653869942e-08
4.86720537674e-08
7.98764533985e-08
1.09828718096e-07
3.78571417375e-09
1.14577936541e-08
8.98832242733e-09
8.32093707428e-08
2.24599585616e-08
8.14607379409e-08
8.55786121757e-08
6.04903431412e-08
2.88526411864e-08
6.8753373305e-08
1.59466508677e-08
2.11685601648e-08
7.69551544478e-08
6.27015388982e-08
4.72982775028e-08
1.49090707029e-09
2.53913010493e-09
4.45569145134e-08
2.82781894489e-08
5.00644904949e-08
3.86713714835e-08
3.37891195827e-08
3.26142632123e-08
2.99730152255e-08
4.35513677866e-09
4.09954178773e-09
2.08154317113e-08
1.77896510987e-10
2.25992566449e-08