# vtk DataFile Version 3.0
File Name: Molecule/sphere_cent/sphere_cent_0-s28.vtk
ASCII
DATASET UNSTRUCTURED_GRID
FIELD FieldData 1
TIME 1 1 double
0.0
POINTS 2512 double
-0.06522237 -0.35393678 0.93299239
-0.02857714 -0.24073606 0.97016983
-0.13388155 -0.26300055 0.95546137
0.10763663 0.53876939 -0.83554886
0.00925633 0.53583587 -0.84427143
0.05005423 0.61187829 -0.78936654
-0.10944009 0.27163985 -0.95615619
-0.057289 0.36251733 -0.93021457
-0.01591382 0.26508612 -0.96409341
0.53311172 -0.6373157 -0.55643561
0.44872798 -0.72701784 -0.51970016
0.41705656 -0.68063901 -0.60232414
-0.03939972 0.96453526 -0.26099693
-0.02023854 0.93321091 -0.35875869
-0.13781757 0.93433876 -0.32866001
-0.10814742 0.89505039 -0.43265337
0.44902942 -0.26918779 0.85200382
0.49204605 -0.15631096 0.85642137
0.39007818 -0.21329179 0.89573748
-0.46776457 -0.12505866 0.87496093
-0.35294393 -0.10266904 0.92999444
-0.41707052 -0.0477306 0.90761995
-0.32712814 0.02360417 0.94468515
0.52004753 -0.85289463 0.04605773
0.51180026 -0.84664134 0.14580443
0.46141398 -0.88124512 0.10248988
-0.68245584 0.54381117 0.48838861
-0.60605081 0.59136399 0.53196902
-0.64087193 0.62835885 0.44096294
-0.63950371 0.50753316 0.57744705
-0.10974358 -0.1565427 0.98155526
-0.83432116 0.4490956 0.31972072
-0.87709092 0.34426131 0.3349562
-0.80644678 0.43142234 0.40437404
-0.90829924 0.36008468 0.21291199
-0.87097638 0.41943895 0.25587324
-0.60797766 0.76523172 0.21162131
-0.6926241 0.68523341 0.22522661
-0.62450915 0.7180528 0.30722712
-0.67498301 0.72523563 0.13576164
0.34608139 -0.74579805 -0.56922135
0.30737026 -0.69179312 -0.6534109
0.23567926 -0.75766534 -0.60860374
-0.5355571 -0.59214128 -0.602119
-0.5982514 -0.49979416 -0.62633942
-0.51624254 -0.51817503 -0.68190049
-0.51464889 -0.42668405 -0.74369163
-0.57459365 -0.43815474 -0.69127604
-0.25513438 -0.08326507 0.96331375
0.67885121 0.57669661 0.45451299
0.6600313 0.51856853 0.54354887
0.74363074 0.49919687 0.44476489
0.68249833 0.42819367 0.59232273
0.73999678 0.45472477 0.49561089
0.05361908 -0.32799512 0.94315651
0.10633948 -0.4148966 0.90363307
0.18073117 -0.32259059 0.92912408
0.10477859 -0.2256632 0.96855437
0.21691541 -0.203406 0.95476369
0.29328793 -0.26204584 0.91940968
0.22480033 -0.42770061 0.87552099
0.28099201 -0.35572106 0.89135067
0.03207626 -0.16103523 0.98642727
0.16761307 -0.11981974 0.97854437
-0.39708349 0.72400884 0.56403537
-0.35242947 0.80100543 0.48392538
-0.44513 0.7557861 0.48025685
-0.42398287 0.80649423 0.41207474
-0.5147281 0.75924194 0.39825451
-0.29472529 -0.27934956 0.91383851
-0.32978296 -0.37594126 0.86597423
-0.24242049 -0.36759484 0.89783425
0.56436662 -0.32828282 -0.75744354
0.54925339 -0.2135711 -0.80790352
0.63648954 -0.25589091 -0.72759942
0.81711455 0.44543194 -0.36594288
0.84430113 0.35407909 -0.40222332
0.78485742 0.42391581 -0.45198918
0.59250711 0.60562722 0.53117887
-0.49445322 0.69122848 0.5269907
-0.46761212 -0.59342454 -0.65512306
0.5221706 -0.46896094 0.71232963
0.56517889 -0.53679258 0.62643958
0.62656332 -0.43416033 0.64724278
-0.02512924 0.99349633 0.11105658
-0.02872905 0.99933321 0.02253372
-0.11534505 0.99231696 0.04475006
0.78767449 0.52271714 0.32609155
0.83087209 0.43486179 0.3471985
0.82744578 0.49663684 0.26207888
-0.14624579 0.72417428 -0.67393158
-0.14645362 0.80477022 -0.5752358
-0.0818978 0.7767297 -0.62448677
0.79439616 0.58637449 -0.15842885
0.76003235 0.64450032 -0.08348749
0.83079968 0.55346894 -0.05868572
0.71409008 0.66797538 -0.20948568
0.77849194 0.57196238 -0.25847503
0.6807852 0.72434627 -0.10887606
0.61816596 0.7585718 -0.20600892
0.60419787 0.78680487 -0.12602793
0.1178469 0.70855537 -0.69574521
0.06277159 0.75412861 -0.65371995
0.1416052 0.77713757 -0.6131926
0.27247893 -0.59593979 0.75538798
0.36654364 -0.57285597 0.7331315
0.30284532 -0.51414776 0.80245672
0.83439804 -0.20441309 -0.51185467
0.85425851 -0.29729396 -0.42644895
0.79155321 -0.32054212 -0.52028479
0.81129514 -0.38484975 -0.44010324
0.74495085 -0.41987441 -0.51841462
0.76880694 -0.23883868 -0.59320483
0.71649198 -0.36870649 -0.59219487
-0.11097326 0.6638022 0.73962935
-0.19397376 0.5964875 0.77883043
-0.07336397 0.58841773 0.8052219
0.66281605 -0.4311406 -0.61220313
0.71262414 -0.19154469 -0.67489071
0.77044979 -0.15241357 -0.61901311
0.62524581 -0.36800092 -0.68821726
0.55456177 -0.44255016 -0.70470604
0.62948016 0.40124293 -0.66540126
0.58237847 0.49780944 -0.64266716
0.66334252 0.46888628 -0.58320009
-0.67863931 -0.45084284 0.57981844
-0.64653375 -0.3922028 0.65434783
-0.71000913 -0.37332975 0.5970862
0.57589188 -0.3697144 0.72915005
0.66590615 -0.32605458 0.67101223
-0.61660562 0.78113284 -0.09812745
-0.70327158 0.69833615 -0.13317546
-0.67165202 0.74024353 -0.03038219
0.36587338 -0.03972022 -0.92981664
0.33747946 -0.14663495 -0.92984182
0.26726827 -0.04975237 -0.96233693
-0.84495225 0.48591408 -0.22347976
-0.89423671 0.39599939 -0.20862689
-0.86365683 0.48142514 -0.14942125
-0.93960732 0.29748169 -0.16924161
-0.90848956 0.40232696 -0.11304753
-0.82041818 0.44953966 -0.35331021
-0.76981544 0.4778407 -0.42314589
-0.81759473 0.38633647 -0.42694612
0.42859623 0.90276419 -0.03636051
0.48827451 0.87186954 0.03783522
0.52101121 0.85158407 -0.05789546
0.56556423 0.82412021 0.03103175
0.62367323 0.77647606 0.09009229
0.53567005 0.83518301 0.12460715
0.43813924 0.8905402 0.12236078
0.39574049 0.91711677 0.04781524
0.57705548 0.03227041 0.81606715
0.54150614 0.13168322 0.8303196
0.48814744 0.04421481 0.87164048
-0.14396892 -0.30790905 -0.94045998
-0.06186324 -0.28031256 -0.95791326
-0.08204251 -0.37182339 -0.92467096
-0.11285947 -0.19346103 -0.97459508
-0.01087613 -0.17550318 -0.98441878
-0.09933987 -0.10023811 -0.98999187
0.00971412 -0.06662127 -0.99773105
0.0479555 0.95608411 -0.28914259
0.43445999 -0.88690548 0.15698148
0.50324033 -0.81622694 0.28376532
0.50180444 -0.78305729 0.36744194
0.42940344 -0.84205139 0.32643859
0.55375808 0.5607938 0.61551792
0.47640479 0.59876586 0.64383066
0.49902553 0.51521684 0.69679633
0.41638085 0.5955139 0.68701542
0.41277444 -0.80781053 0.42078428
0.38681329 0.65991122 0.64412162
0.42118656 -0.90648305 0.02983899
0.33587955 -0.94097691 0.0418017
0.35664299 -0.92856473 0.10282667
-0.37221115 -0.45675396 0.80798186
-0.29014929 -0.48096861 0.82733463
0.17574911 -0.98407549 -0.0266023
0.09294681 -0.99556938 0.01423007
0.08074333 -0.9941119 -0.07226373
0.00705325 -0.99979993 -0.01871766
0.03532425 -0.9970307 0.06842501
0.12600932 -0.98699885 0.09977434
-0.07814455 -0.99621412 0.0380901
-0.0940217 0.98399157 -0.15139521
-0.08432073 0.99494995 -0.05444832
-0.0169153 0.99352136 -0.1123796
-0.17575105 0.9803778 -0.08928016
-0.62917109 0.7506981 -0.20148476
0.46735524 0.87473287 -0.12814636
0.53810644 0.82691329 -0.16326626
0.47551925 0.85217713 -0.2183474
-0.61218323 0.5784568 -0.5390913
-0.64067003 0.61633478 -0.45790103
-0.55637896 0.66936464 -0.49233467
-0.49792696 0.63725614 -0.588195
-0.45950044 0.71641738 -0.52498141
0.01171099 0.65980764 0.75134328
0.04416271 0.58536391 0.80956701
0.12769998 0.65900523 0.74121847
-0.42330819 0.83369931 -0.35462042
-0.39567519 0.79675635 -0.45674989
-0.49462445 0.75925187 -0.42294593
-0.32255364 0.86338905 -0.38796713
-0.28271345 -0.95295152 -0.10934583
-0.20545908 -0.96638925 -0.15452632
-0.18349346 -0.98216335 -0.04105252
-0.07686692 -0.99467609 -0.06863637
-0.18015308 -0.98025629 0.08150141
-0.08825265 -0.98339979 0.1585444
-0.16937425 -0.96483271 0.20102292
-0.99912716 0.00952159 0.04067266
-0.9917265 0.12654657 0.02155269
-0.99659835 0.05193248 -0.0639902
-0.29580175 -0.95502378 0.02075842
-0.25595505 -0.95719631 0.13513786
-0.3775593 -0.92188088 -0.08708972
0.70328723 -0.05544858 -0.7087401
0.71725431 0.03312676 -0.69602362
0.76931589 -0.06312484 -0.63574233
0.70241963 0.1318395 -0.69944621
0.76480068 0.0982734 -0.63672778
0.64037391 0.07937088 -0.76395125
0.62879923 -0.0278226 -0.77706978
0.23956817 -0.14517182 -0.9599647
0.16475559 -0.06613357 -0.9841148
-0.97454955 0.2101145 -0.07813493
-0.94536924 0.32267042 -0.04648447
0.45697938 0.80214172 -0.38436768
0.55403901 0.73548746 -0.38999869
0.47250767 0.74934636 -0.46391436
0.54740332 0.68966405 -0.47403914
0.60952964 0.6568581 -0.44385927
-0.02843464 -0.43935565 -0.89786306
0.01492315 -0.35802926 -0.9335911
0.53841232 -0.05281032 0.84102511
0.44171968 -0.0414676 0.89619427
-0.78102279 0.61196879 -0.12448933
-0.76211882 0.64472456 -0.05920427
-0.96804126 0.24695649 0.04368773
-0.92724324 0.3676818 0.07092299
-0.90733961 0.41967048 -0.02472896
0.80487902 -0.2262991 0.54859684
0.80180017 -0.28236877 0.52667292
0.83360739 -0.21060509 0.5106312
0.75340086 -0.24442541 0.61044521
0.73267642 -0.34524194 0.58650939
0.08644803 0.5118298 0.85472627
-0.01218675 0.51589375 0.85656589
0.71728065 -0.12323121 -0.68580066
0.56867824 0.76682076 -0.29764237
0.6297184 0.71762456 -0.29743862
0.64243752 0.66755221 -0.37636164
0.67944879 0.66486494 -0.31032879
0.52919367 0.81089424 -0.24980912
-0.58491588 0.71114226 -0.39006422
-0.51728577 0.79539528 -0.31585088
0.4684468 0.62772224 -0.62170925
0.50711785 0.66248772 -0.55130891
0.54612534 0.57898745 -0.60540948
0.39159623 0.69081493 -0.60780518
0.76000565 -0.13572565 0.63558631
0.80991049 -0.18479176 0.55668393
-0.46706921 -0.86194238 -0.1972351
-0.36964291 -0.90823313 -0.19615477
-0.45840878 -0.88059091 -0.12008759
-0.86984838 0.48793524 -0.07268426
-0.84626369 0.53207047 0.02718073
-0.83795561 0.54493955 -0.02951736
-0.87298047 0.48772527 -0.00540111
0.61176471 0.61168764 -0.50157967
0.09025836 -0.13905142 -0.98616334
0.58055308 -0.20887017 0.7869761
0.58995216 -0.12483714 0.79772936
-0.46722408 -0.78317268 0.41029527
-0.53656232 -0.69352695 0.48075072
-0.55781262 -0.73024285 0.39444957
-0.4516347 -0.72560243 0.5191601
-0.84599407 -0.53307559 -0.01115564
-0.7929615 -0.60497515 -0.07222964
-0.78038761 -0.62247748 0.05930405
-0.61980323 -0.78212129 -0.06426692
-0.62670919 -0.77719879 0.05654755
-0.69556255 -0.71843315 0.00682316
-0.55308321 -0.8328557 0.02122161
-0.69480215 -0.71230753 0.09933756
[...]
CELL_DATA 5017
SCALARS cell_data_0 double
LOOKUP_TABLE default
1.02991147165e-08
2.42221889907e-08
4.62851964534e-10
5.85373743038e-08
4.10836921568e-08
2.4932973434e-10
3.02844398845e-08
2.7536389769e-09
1.35142835626e-08
1.12051131869e-08
2.27065352416e-08
5.78469417784e-09
3.27496163438e-08
1.77997980819e-08
1.2187174816e-08
4.24238143688e-08
3.57347165218e-08
1.24281843383e-08
9.48667688325e-09
1.83064481782e-08
3.98534404944e-08
4.8382027729e-08
4.04280014061e-08
2.16328475098e-08
1.89795995306e-08
2.90185526032e-08
2.32061526845e-08
1.09992300373e-08
2.69238998323e-08
4.13278875193e-08
1.18230901534e-08
7.49386437124e-09
8.14624021489e-09
3.42045421569e-08
7.68011623537e-09
8.45958623216e-09
4.24387616697e-08
4.55719370609e-09
7.26219812094e-08
2.38809897203e-08
9.02218307572e-09
9.54781925042e-09
1.06983529608e-08
4.14282757436e-08
9.96341995033e-09
2.46307947643e-08
5.07671818002e-08
9.20583660841e-09
6.05083268406e-09
2.77916588706e-08
1.02875285391e-08
5.57374641157e-10
3.82986362843e-09
2.34039010915e-08
1.00384212927e-08
5.08715058302e-09
2.14071826479e-08
6.80478535686e-09
1.14414956503e-08
3.58169326614e-09
2.25144631271e-06
4.99492372973e-08
1.32892159015e-08
2.06012762994e-08
4.88193449131e-08
3.41727213576e-08
5.50970680484e-08
2.14751430059e-08
1.56476908012e-08
1.47996987403e-08
2.92691594264e-09
3.00980661817e-08
6.49282067346e-09
3.73962016087e-10
2.80600921593e-08
6.51745382035e-09
1.29303841382e-08
9.38728573046e-10
4.89121439714e-09
3.2174699497e-08
1.99434886073e-08
3.74785507612e-08
5.70175021833e-08
6.42696061825e-09
7.49353525787e-10
1.17575581706e-08
5.68209776363e-08
3.96485072917e-09
2.16936799444e-08
2.7325075688e-08
2.20541066959e-08
2.40206165584e-08
4.29828629092e-11
5.5624940338e-09
2.07444944134e-08
3.11905413291e-09
2.50376943591e-09
4.47473947967e-09
1.74082208184e-08
1.24897227739e-08
6.07979299411e-09
1.71741954772e-08
1.90020509954e-08
8.61747174648e-10
6.67992326096e-10
1.27110223941e-08
2.61968870687e-08
8.12962731432e-09
1.97677622043e-08
7.12512268019e-08
1.75906310387e-09
4.97780547419e-09
2.33875817152e-08
6.34105721301e-08
3.64293531015e-08
1.09849358229e-08
7.41038062485e-09
3.02505689209e-08
6.33719553811e-09
1.84386088284e-08
2.62161650682e-08
2.19203160695e-08
6.45196519102e-09
1.34275166053e-08
9.75602820988e-09
3.52945243397e-08
2.52795710914e-08
4.32476831835e-08
1.12912832377e-09
2.87994137204e-08
3.55799911692e-10
7.98997281624e-09
3.0808554279e-08
1.98978436902e-08
4.03511642287e-08
1.47733879092e-08
1.11173016215e-08
2.24290192528e-08
2.50879124215e-09
1.46377149265e-08
8.6936789956e-09
1.19464650309e-08
8.40102636149e-09
2.23671794551e-09
1.79356500347e-08
1.6775248315e-08
8.27229822331e-10
2.82253490865e-08
2.568867369e-08
2.60090497115e-08
2.71792122513e-08
1.18483557713e-09
1.71227746373e-08
7.79810761452e-09
6.24058947696e-09
4.40229460251e-08
3.97896024488e-08
9.34291541885e-10
1.33615868881e-08
1.56031598753e-08
1.29112891733e-08
1.71248532755e-09
3.40009419131e-08
6.67782054946e-09
8.36418503314e-09
2.64020649686e-09
1.33804948967e-08
1.28872275566e-08
1.55728740689e-08
8.42015141681e-09
2.91187838822e-08
2.18693681334e-08
1.76719341904e-08
4.59440914303e-09
7.98269090498e-09
6.56288817957e-09
2.61133046779e-08
8.24805540101e-09
6.23244113561e-08
5.14296912444e-08
3.5278038069e-08
1.88206600395e-08
2.51942393391e-09
1.59622382802e-08
8.02749105234e-09
1.88893448054e-08
1.91711398272e-08
6.48555414494e-09
2.53789745881e-08
2.24359683418e-08
5.85122857659e-09
1.3078038462e-08
2.29609307197e-08
2.36071979584e-09
3.44586509902e-08
2.53284585298e-08
1.44148103857e-08
1.36205163062e-08
7.81688780769e-09
2.84114199188e-08
3.7258681578e-08
1.09044821184e-08
1.34757083997e-08
2.10599639204e-09
1.94982400753e-08
1.72881658109e-08
1.67825982116e-08
8.90895910064e-09
2.82833640655e-08
1.80913578398e-08
1.83214126467e-10
1.32937366101e-08
8.25522063977e-08
2.94793605535e-08
2.50033197244e-08
3.21117166515e-08
1.53562342423e-09
3.99383632954e-08
4.88037984925e-09
1.97983014732e-08
5.24782499012e-10
1.29067108212e-08
1.96829856926e-08
1.00781728325e-08
2.7946038349e-08
3.01239123791e-09
1.87016744458e-08
1.91792962906e-08
1.93174001182e-08
1.73380756848e-08
3.45342901299e-08
1.35493602307e-08
4.9463587401e-09
3.56595076771e-09
2.00661551165e-08
9.90639999169e-09
1.73883156776e-08
3.27945242423e-09
4.71781038586e-09
3.2873518066e-09
4.46099179271e-09
1.86765987035e-08
7.36434075214e-09
6.16102668562e-08
4.72266168685e-09
1.10819725672e-09
3.15673563874e-08
7.15241141945e-09
8.47357038349e-09
1.13159518355e-08
7.37437493032e-09
9.33313954933e-09
1.83218960519e-09
3.72338893231e-08
2.29869237213e-08
1.67002326139e-08
1.84091931166e-08
4.16412494878e-08
5.14835154603e-09
2.94332271925e-08
3.94543404466e-08
3.58061833128e-08
5.50373521743e-09
7.05748740648e-09
2.20619170634e-08
3.22867038144e-08
9.30239657601e-09
9.42492273244e-09
1.45939925443e-08
6.23126262759e-09
3.18142706326e-09
1.52676223812e-08
4.49030185878e-09
3.03352882624e-08
1.0889622932e-08
6.46253844346e-09
1.65067820833e-08
2.73199088055e-08
3.63581341914e-08
1.32484188361e-08
1.28813049796e-08
8.50979497843e-09
2.1786625673e-09
3.99940227225e-08
9.37045707383e-10
1.83251434788e-08
4.45735889588e-09
2.23412188818e-08
6.53419935739e-08
2.56059208475e-08
5.3871853412e-09
2.69906286322e-08
1.18921668517e-08
2.42223996453e-08
2.02734775757e-08
3.08877369018e-08
1.63863312748e-08
5.43352578494e-10
1.76958304452e-08
1.80255743357e-09
4.32240191631e-09
1.80607919112e-08
2.05904878586e-08
2.20091844808e-08
7.36078955963e-09
2.31465637051e-08
2.9091353206e-08
5.07837057562e-08
1.90807073336e-09
2.00445895677e-08
1.35474439287e-08
4.77723819348e-08
9.07220682436e-09
5.64191574007e-09
1.93736275431e-08
3.56522787992e-09
2.42495443538e-08
8.77743296863e-09
7.55043313676e-09
2.53070414576e-08
2.78559785969e-08
2.23755570082e-08
1.30768368793e-08
3.81172532222e-08
1.40406172467e-08
2.44971081152e-08
1.04014293819e-08
1.88932944969e-08
2.44502880737e-08
7.17909222028e-09
2.06633857119e-08
2.54715996958e-08
3.47326011619e-08
1.62131834034e-08
2.33853885034e-08
1.43340757411e-08
3.38659271216e-08
1.47173693383e-08
3.79691799959e-08
1.03650900823e-09
4.57635450885e-08
8.48999320236e-09
2.03988638194e-08
5.10333616814e-08
1.87178039627e-09
1.24903283918e-08
9.33596938066e-09
6.83032470301e-09
9.51641124033e-10
1.52293133256e-08
1.05317319813e-08
3.43582087106e-08
4.48564774858e-08
5.11714646836e-09
1.16755869416e-08
1.92640400011e-08
1.6170464891e-08
2.94279609517e-08
1.9855156438e-08
4.41344915194e-08
4.39190313028e-09
4.91180641913e-09
2.86912851968e-09
2.08540776721e-09
2.25611277334e-08
9.10402833006e-10
7.58252771548e-09
8.10472323484e-09
3.87484517732e-09
4.27062609777e-09
3.21703160914e-08
1.07889478187e-08
6.76363800241e-09
3.38913434969e-08
6.39407593217e-08
4.29458705566e-08
3.92744058935e-09
4.00756639519e-08
1.54448314988e-08
5.34365631046e-09
2.53342265896e-09
2.73452398337e-09
2.34128069489e-09
1.23460525133e-08
4.58916509279e-09
2.11503506821e-08
3.08351268331e-09
2.59049870655e-08
4.1837949817e-08
7.11366493848e-09
3.03414991499e-08
1.12500059301e-08
2.04216989238e-08
1.5221422788e-08
2.60786707737e-08
1.52299365358e-08
2.46111268652e-08
2.44542459526e-08
9.36567111417e-10
2.29917010447e-08
1.16932560637e-09
2.44213661143e-08
1.22989119173e-08
1.23874089671e-08
1.11970281387e-08
8.81191495181e-09
1.7478616645e-08
5.83252418114e-09
2.51509223034e-08
1.75131872041e-08
9.67821540184e-09
2.92117436206e-08
1.86237837796e-09
1.37446608427e-08
4.184137498e-09
8.34345641794e-09
2.25147311224e-08
8.50402154189e-09
9.45002086662e-09
1.32665995759e-08
5.7227622997e-10
1.10028769833e-08
2.38809589943e-09
2.08296868797e-09
3.8966595804e-08
2.13664828782e-08
1.50324358632e-08
1.4308425223e-08
2.264338445e-08
2.0895636081e-09
1.92673124958e-08
1.09821935927e-08
5.21298746134e-09
9.35606508379e-09
3.25849228304e-08
1.26867084669e-08
2.07919088804e-08
9.74178115348e-09
9.9031394635e-09
1.19973663498e-08
4.50351279305e-08
5.01710270855e-09
1.2255796892e-08
1.13988197218e-08
4.59647303842e-09
3.57352912036e-08
2.90943431723e-09
6.25359377552e-10
2.06829313772e-08
2.89124593824e-08
1.27205118253e-08
2.174103474e-08
1.04828184888e-08
3.05731024363e-09
1.04815042632e-08
1.37442522047e-08
4.94982567159e-09
4.50974266689e-08
1.06764162608e-08
5.03095780436e-09
4.95033473409e-08
2.18930549839e-08
4.48374662032e-08
1.42645556761e-08
2.55720804107e-08
3.11361685527e-08
1.47202849794e-08
8.14503411082e-09
2.09923804682e-08
3.38304202925e-09
3.18165557775e-08
7.61932951707e-09
3.93978108996e-08
4.60114255571e-08
3.42621297139e-08
1.0006134204e-08
1.10256563413e-08
1.29352221457e-08
1.86453204209e-08
2.68124378305e-08
9.35130166841e-09
2.30990750502e-08
4.19646623926e-08
1.55244922731e-08
1.0628267144e-08
5.07324202552e-09
1.70351424983e-08
2.76365014453e-08
1.83271883286e-08
9.42062981651e-09
1.54602838526e-08
2.43022706249e-08
1.14902148011e-08
1.15068890556e-08
1.250298723e-09
2.4736868393e-08
1.922583076e-09
6.53731185254e-09
7.17595946018e-09
1.99864047976e-08
1.92121200158e-08
1.03022622795e-08
3.6208070241e-09
2.77641009049e-08
1.56324445029e-08
4.14411997104e-09
1.20284712821e-08
5.9638203636e-08
7.89823640774e-09
4.20693992666e-09
9.21065125114e-09
6.9969471468e-09
3.76319175149e-09
7.06857302286e-10
2.82436274567e-09
1.53708263596e-08
7.53725547356e-09
2.06559884083e-08
1.23504486083e-08
3.04109205602e-08
9.13261779579e-09
4.11722933972e-08
1.70125421678e-08
1.01071666318e-08
2.47160474462e-09
5.13915311426e-09
1.68693837288e-08
2.73547499778e-09
1.1974619603e-08
1.49494024642e-08
2.7969136906e-10
6.40100205828e-11
1.02557052497e-08
3.05139807839e-09
7.06573191065e-09
4.56278971384e-09
1.0481900118e-08
2.36716447753e-08
7.29379990676e-09
1.27724666824e-08
1.37074398615e-08
1.66228435821e-08
1.10202362331e-08
8.99282595769e-09
2.48000195768e-08
6.08723485669e-09
3.13254440209e-09
1.51729261481e-08
1.24575651031e-09
2.61508770179e-09
1.01789981168e-09
3.11940273385e-09
6.72277595565e-09
3.86018606093e-08
1.99682659054e-08
7.34940712539e-09
1.53534363644e-08
3.03001298798e-08
2.78959841809e-08
3.31469803256e-08
1.24038733796e-09
2.18737554357e-08
1.49998277348e-08
1.42294630742e-08
1.23092743493e-08
2.92606465628e-08
5.76133111222e-09
3.28528306087e-08
7.44804782724e-09
5.35365257864e-09
1.93894162418e-08
2.03161899285e-08
1.14700085415e-08
2.26428651049e-08
1.29494929566e-08
3.41175392526e-08
1.04119567966e-08
2.2838764705e-09
1.6395915179e-08
6.38987317053e-09
1.56954588652e-08
4.58791774777e-09
9.80644436881e-09
2.08162955836e-08
1.58860878557e-08
7.40765884399e-09
3.67457999342e-08
1.0608443896e-08
3.04839083475e-08
1.76617073177e-10
9.7338092613e-09
4.93496648379e-09
2.40149074239e-08
1.45782441858e-08
8.71596301085e-08
1.16922482225e-08
2.67842014817e-08
5.72099586791e-09
1.38201911919e-08
6.10653577198e-09
1.02930262761e-10
6.49803927639e-09
1.75282384061e-08
3.8050176195e-09
2.0603614967e-08
2.14616767776e-08
3.210233343e-09
1.47693454492e-08
1.26299976683e-08
3.5834226672e-09
8.84990656539e-09
1.49434966559e-08
1.96016603207e-08
3.51744999456e-08
1.65997404507e-08
2.92357114955e-09
2.58906887479e-08
2.35296626845e-08
7.65925546871e-09
9.74514061844e-09
2.71543220695e-08
9.80629252053e-09
7.49528848714e-09
1.36230603061e-08
5.12344504638e-08
7.49114968105e-09
2.7332520222e-08
1.57067296298e-08
1.36759211198e-08
2.89041891075e-08
4.51854063701e-08
1.09035095366e-09
1.63324126369e-10
1.47517907897e-08
2.03439390637e-08
3.2475895355e-09
1.2454260684e-08
1.62625848301e-08
1.71148403107e-08
8.45145859964e-09
8.32320569862e-09
7.20791579862e-09
1.73333783773e-08
2.50787671019e-08
5.47207830546e-10
1.38552606612e-09
4.46965787738e-08
3.3784872429e-08
2.6758743872e-08
5.58284824205e-08
2.97848790855e-08
1.89362660269e-08
1.84027954735e-08
6.29211729725e-11
8.59854529388e-09
2.39820637348e-09
4.23489627528e-08
1.0103185901e-08
1.00505030331e-08
1.91906889916e-08
4.45145546021e-09
1.02483685462e-09
8.23856144937e-09
4.20087401632e-08
8.45333229006e-09
1.76014733375e-08
1.48241697864e-08
6.39598114246e-09
1.6320455785e-08
1.07040664242e-08
1.42821686308e-08
2.13954729253e-08
1.45661070752e-08
1.24098978137e-08
1.60748839691e-08
1.32782005294e-08
2.11774215073e-08
9.64685089469e-09
1.34723796612e-08
1.07122659074e-09
2.28637345018e-09
1.78282898307e-09
4.75169888891e-09
4.09439244264e-09
1.22224037826e-09
8.03678542928e-09
2.42252787467e-09
1.79844093812e-09
2.96240211222e-08
1.19726418478e-08
3.22899301457e-08
2.41914699295e-08
8.31071977064e-09
1.58829047843e-09
3.00577444251e-10
3.77256236986e-08
1.82339465547e-08
6.39838375036e-09
7.2935367912e-09
2.82886006468e-09
2.12353216886e-08
3.8448480344e-09
5.03559006393e-09
1.45276778436e-08
1.76780033728e-08
1.07376438418e-08
8.25101654654e-09
8.79284435193e-09
1.51014412965e-08
1.66629771454e-09
1.27074523618e-08
1.11173636403e-08
5.73828401013e-09
1.24408279544e-08
1.45579554431e-08
1.72370688406e-08
1.08204884694e-08
2.40791114479e-08
1.56077798645e-08
2.64009356465e-08
2.24423437218e-10
6.92777205332e-09
7.971463911e-09
2.35071868558e-09
8.45271659831e-09
4.0672329196e-09
8.6656792994e-09
6.32396284026e-09
6.81891943575e-09
1.97006410638e-09
3.01871811169e-08
2.69159082641e-08
2.33309696995e-09
8.3672246595e-09
7.3403886149e-09
1.17829315346e-08
7.55989152338e-09
9.74738681146e-11
1.14696724004e-09
4.16299217228e-09
3.50893231568e-10
1.12707796507e-09
1.42856779602e-08
2.25645364299e-08
4.33654456359e-08
4.50787676893e-08
4.49320307219e-09
1.33344128938e-08
9.59797020942e-09
7.82895953994e-09
7.41238367106e-09
7.65632427706e-09
1.87584320368e-08
6.12227103535e-09
1.60537391317e-08
4.31513916679e-09
4.92490035192e-09
4.69909258835e-09
6.03723818105e-09
1.8163646012e-08
5.38162466948e-10
1.64192215749e-08
2.23840217814e-08
6.94853717481e-09
3.27820701945e-08
4.92532619923e-09
5.8009579039e-09
3.14831675123e-09
8.86018433845e-09
5.68945711581e-10
1.7984051999e-08
4.84203636083e-10
1.86525925865e-08
1.43340245767e-08
7.71581929638e-09
6.45401526389e-10
4.73108049736e-08
1.16743590073e-08
1.0353564744e-08
2.29620055231e-08
3.03014201882e-09
2.26373211053e-08
1.94532729913e-08
7.56458670723e-10
2.36385835984e-08
1.85134962583e-08
2.39832588525e-08
1.34598902111e-08
3.46137208031e-09
3.28510934845e-08
2.25886438345e-08
1.86609561441e-08
1.88841260695e-08
1.84234739295e-08
2.75600538408e-08
3.31257370053e-09
1.11936646795e-08
2.52490957978e-09
1.37374081578e-08
3.4013087563e-09
1.4397769483e-10
3.79436780756e-09
5.79752100879e-09
2.26212040459e-08
2.31234110195e-08
2.09879902336e-08
1.0869513806e-08
2.24952303337e-08
4.92823592802e-09
3.41542441113e-08
3.36103266244e-08
1.31928806765e-08
1.42756744007e-08
5.29975427339e-09
9.46661901986e-09
7.02617310252e-09
1.43177587839e-08
1.02878225099e-08
2.60278101354e-09
1.67773795332e-08
2.03709674487e-08
1.55257380163e-09
6.14286319799e-09
3.22731601372e-09
2.89907651439e-08
2.54597958772e-08
8.79849202009e-08
9.93802902284e-09
4.76017729272e-08
9.11349160202e-09
2.32913981964e-09
2.38456211439e-08
1.67586408654e-08
4.88909275855e-08
5.54043356681e-09
1.22027886941e-08
3.56178178222e-08
3.64109880968e-08
1.99428491931e-08
3.20342744047e-09
3.03122779908e-08
3.09349804315e-09
1.59763003691e-08
2.62588347004e-09
6.6917945802e-11
1.17200119524e-09
8.18900957271e-09
1.49245953284e-08
1.41823361836e-09
8.15406466372e-09
8.8276685674e-09
9.55607913011e-09
6.69945796098e-09
7.24433165683e-10
4.09277499436e-08
2.4682425889e-08
1.5943502096e-08
2.32257355077e-08
4.69238395119e-08
1.06588954095e-08
2.4193033081e-08
1.61792019878e-08
4.43238847397e-08
2.3697577508e-08
2.06502931306e-08
1.2078889543e-08
1.193283276e-08
1.49874562951e-08
1.41268939181e-08
1.06232701283e-08
4.26806157143e-08
7.08652072341e-09
5.8192740652e-09
1.19866278402e-08
4.99501280278e-10
1.16000988911e-08
2.75353105484e-09
6.57271350887e-09
3.53846461141e-08
6.52942915429e-09
1.29781261221e-08
1.0076472433e-08
2.18921171849e-08
4.88655984247e-09
1.52583049311e-08
1.26508554344e-08
2.62818487181e-08
1.38052845901e-08
4.62100052382e-09
3.70115546782e-08
5.33755256121e-08
1.78809942522e-08
4.56611818512e-09
2.50860166859e-08
9.53665895996e-09
1.6168457014e-08
1.0106634145e-09
9.44707864494e-09
5.37909670557e-09
2.48141907365e-08
8.84539839895e-09
2.31013010067e-08
1.47397810434e-08
4.11555421085e-08
3.42683281263e-08
6.05784851356e-09
3.02392961153e-10
2.04078436319e-09
2.02788682612e-09
1.69458893371e-09
1.42194659429e-08
2.11332979336e-08
1.39672377805e-08
7.65049611489e-09
7.21674156132e-09
2.12201786777e-08
6.16262879784e-09
3.60670062756e-09
2.84031989647e-08
2.88978875879e-09
1.52270185008e-08
2.68722445477e-08
3.28590325005e-08
3.32895188827e-08
7.09210644479e-09
1.6967472825e-08
1.58169019478e-08
5.42886349735e-09
4.94756838216e-09
6.58969807259e-09
4.49456686567e-09
3.50162401758e-09
2.74245324089e-09
1.48429595308e-08
9.36899710611e-09
6.04131654482e-09
1.24963798922e-08
1.32667863801e-08
2.67495531456e-09
1.18524109907e-08
5.65631513429e-09
5.97245316095e-09
1.42608015441e-08
4.91089808988e-09
9.1754370678e-09
1.66501942787e-08
9.38608545363e-09
7.31770046228e-09
1.29828674995e-08
1.68497916075e-08
1.29270934139e-08
7.32865591962e-09
1.41662726828e-08
2.2638089884e-09
1.41664301924e-08
2.32428632584e-08
8.0914290289e-09
2.77103893246e-08
4.90384393256e-09
1.77742457555e-08
4.50512913068e-09
1.09914254382e-08
4.34142663095e-10
1.15084827581e-08
5.35776916552e-09
2.52627184772e-08
8.30840574679e-09
2.52599827197e-08
1.21332409829e-08
2.06462499414e-08
1.54277746896e-08
1.43688831962e-08
1.67237510975e-08
8.1985193841e-09
1.22382581094e-08
3.08980485097e-08
5.04157076306e-08
9.96422428318e-09
8.62834318682e-09
1.9454941663e-09
2.7883341515e-09
2.25689184181e-08
1.65722690356e-08
1.36684008819e-09
6.24140216363e-09
2.16126454717e-08
1.04135041557e-08
4.88772785155e-09
1.39063014392e-08
9.43955666154e-09
2.05804663322e-08
2.80962006694e-08
7.15454027669e-10
6.51562320783e-09
2.11442364058e-09
1.00821217257e-09
9.17440181846e-09
8.12639656858e-09
9.49610704017e-09
6.01695799604e-09
1.57605953433e-08
1.24214583037e-08
2.2488166756e-08
9.87285271688e-10
8.07256185419e-09
2.74071591947e-09
2.6589140055e-08
2.54285680629e-09
2.80503211559e-09
8.6879035613e-09
9.62186159153e-09
2.8513359137e-10
4.78820589846e-09
9.9276951197e-09
1.47987447389e-08
1.20250406611e-08
7.52277849446e-09
9.77467841606e-09
5.1593499227e-09
3.49120939765e-09
1.02401422122e-08
1.18750838807e-08
6.12200449693e-09
1.17690960797e-08
2.37499619545e-09
3.2687839423e-08
7.53661154707e-08
2.26750363704e-08
1.1551196528e-08
2.21822781063e-08
1.68729983408e-08
4.76554601905e-08
6.70790027971e-09
1.29597872767e-08
1.38932982987e-08
2.29281400019e-09
1.39918152217e-08
3.24320224866e-08
3.49358317538e-08
3.22731286491e-08
3.83242749734e-09
1.55274651063e-08
3.58778939719e-08
5.08808563397e-09
4.56635326899e-09
4.37180044395e-09
1.82863428315e-08
1.18843762752e-08
3.68360426377e-09
1.57087628858e-08
1.54783178197e-08
2.87584936144e-08
1.09011339806e-08
1.27725952752e-08
1.32396337923e-08
2.042920589e-08
4.26293640587e-09
1.891726878e-08
1.45305327114e-08
5.70542849504e-09
3.49348386043e-09
2.16554642559e-08
1.82817255978e-11
4.25390010376e-10
1.2817294713e-08
1.79642462612e-08
1.7361103536e-08
1.50049017496e-08
1.32898827505e-08
8.789713262e-09
2.62727529483e-08
4.32566828875e-08
8.6496893222e-09
1.53812688211e-09
2.07316621961e-08
4.13028005061e-09
1.7823936423e-08
3.89314168348e-09
2.62995722514e-09
1.19791787129e-08
1.36609407111e-09
7.89046961142e-09
2.05854348648e-08
7.67859018609e-09
2.6328011398e-08
1.15301087453e-08
3.53721668284e-09
1.31404065215e-09
3.77591784643e-09
5.21990317363e-10
2.70878503226e-08
2.49223293446e-08
8.9103542541e-09
9.73796806485e-09
2.21896590955e-08
6.75321262925e-09
8.49346769243e-09
1.18772087045e-08
1.35264033822e-08
2.13438644545e-08
8.80733964972e-09
7.6154105751e-09
2.10040038869e-08
2.31650107895e-08
5.64580946646e-09
2.10739092074e-08
4.86574824025e-09
3.63790762875e-08
2.44854418125e-09
1.99312988002e-08
1.65769821861e-08
1.21076696222e-08
6.34616303456e-09
5.94835071438e-09