# vtk DataFile Version 3.0
File Name: Molecule/sphere_cent/sphere_cent_0-s7.vtk
ASCII
DATASET UNSTRUCTURED_GRID
FIELD FieldData 1
TIME 1 1 double
0.0
POINTS 155 double
0.8544241786 -0.51638269424 -0.029260609299
0.84253507853 -0.26266473532 -0.46728476882
0.99699234962 0.004122373648 -0.063621208072
0.83205479383 0.27994370461 -0.47415983677
0.85081475973 0.52542740107 -0.00024275283795
0.5001886487 -0.80846905708 -0.30970498919
0.25504314899 -0.95411354303 -0.15713208914
0.015263746493 -0.84637504816 -0.53032284975
0.52539205551 -0.85081899166 0.0089982654899
0.26161324978 -0.95132815838 0.16273620725
0.5104534626 -0.79310190678 0.33204314113
-0.045918878168 -0.99872875214 -8.3446211647e-05
0.69287645817 -0.57815003395 -0.43088677526
0.58795017004 -0.42243418097 -0.68976336718
0.42262449861 -0.6814930439 -0.59744185209
0.26075354218 -0.48108118773 -0.8366317153
0.95151978731 -0.16396355629 0.25950697064
0.95340019464 0.15756584704 0.25706022978
0.85152554512 -0.0080692861229 0.52420884371
0.80946415663 0.30806314945 0.49963006377
0.7993734479 -0.32485643029 0.50542074442
0.55206292868 0.022636462003 0.83124357462
0.49997767806 0.81378895044 0.29314857721
0.68480962515 0.58981740475 0.42793056369
0.42584103346 0.67368000746 0.60164797306
0.58279448748 0.42771810293 0.69091051817
0.30234751105 0.48885557055 0.81824576855
-0.80869740248 -0.30957350135 -0.49993807077
-0.85340702534 5.7478042436e-05 -0.52130079269
-0.52495443821 -0.00045073335059 -0.8511402607
-0.80341792107 0.31099447608 -0.50568151474
-0.9536306262 -0.15736183524 -0.25644418597
-0.95574223995 0.14430643618 -0.25062009692
-0.99962633848 0.0074335448444 0.025742558762
-0.85477823019 -0.51435834169 -0.036215826869
-0.30154260993 0.49703529477 -0.81349283457
-0.42655906081 0.69069594145 -0.58386820555
0.01634144783 0.83703941107 -0.5446331501
-0.58559972048 0.42974242568 -0.68737381697
-0.68323051929 0.59262233973 -0.4265396893
-0.49790066481 0.81908428669 -0.28476312757
-0.27564349771 -0.48077353835 -0.83163774014
-0.58194619417 -0.4288764298 -0.69095951319
-0.4240809679 -0.68759417534 -0.58938264847
-0.68279010057 -0.59507572651 -0.42387536168
-0.48527610302 -0.82422822714 -0.2916675806
0.69022089243 0.58334928751 -0.42807272077
0.50026786327 0.80810934305 -0.31049728394
0.5928940773 0.42451068759 -0.68428891897
0.42987543344 0.68436634541 -0.58903801441
0.31047207117 0.49953013659 -0.80859273672
0.52322274446 0.0093215433881 -0.85065901279
0.51883655787 0.8548835516 -0.0061598834582
0.25908097625 0.95233815908 -0.16075016558
0.25979471207 0.95398169756 0.14967602491
-0.01414313633 0.99985849857 0.0070764916018
0.012850413099 0.86090034246 0.50844269991
-0.13645577431 0.69712024927 0.70367491245
0.14153662324 0.68731510639 0.7123503685
0.0054354863241 0.50779998302 0.86144942045
-0.29322850704 0.48690360785 0.82259136438
-0.48844614625 -0.81922596693 0.30008155107
-0.44008517265 -0.70011359453 0.55988168716
-0.68614733219 -0.58789604902 0.42838203907
-0.61332654953 -0.4198590219 0.66696882248
-0.81467372179 -0.29307419062 0.50022703409
0.15958476067 0.25774985552 -0.95292103291
-0.0040934155695 -0.034953847528 -0.99883282185
-0.15272265673 0.25669753551 -0.95432633162
0.0068342816085 0.5174549818 -0.85575675964
-0.38200834394 0.7143894434 0.58588981628
-0.2458050102 0.87995058298 0.40614759922
-0.71466517448 0.58699578047 0.37979978323
-0.56267601252 0.653865695 0.50545841455
-0.48470059037 0.83114695549 0.27111831307
-0.65403777361 0.50705438852 0.56109333038
-0.5078086257 0.56252539158 0.65230965614
-0.58869636059 0.38065040112 0.71283841133
-0.83069545031 0.27099832892 0.48556154966
0.0038805571385 -0.56588357687 0.82443970442
-0.089426055551 -0.40309023857 0.91072410345
-0.30852153897 -0.49917864799 0.80775386095
-0.20129595697 -0.23301567137 0.95089429617
0.090343266726 -0.40408685803 0.91010183096
-0.00017104012659 -0.25743621588 0.96615767479
0.20702256262 -0.2349126637 0.94949293137
0.33455237746 -0.50816446543 0.79339075089
0.001909507555 0.031981844455 0.99927210808
-0.025342302397 0.96281164885 -0.26935017109
-0.26751947403 0.95237863064 -0.14573180676
-0.25383624434 0.87748104334 -0.40718919039
-0.41960370541 0.24381186068 0.87422049046
-0.14480614662 0.2744858861 0.95064902306
-0.27390822768 0.031509265304 0.96105784178
-0.52998954058 -0.014756641351 0.84792643785
0.15253508091 0.27497646213 0.94923949242
0.41188141704 0.25349292159 0.87531816959
0.28274977207 0.021000511944 0.95881432295
0.45529580116 -0.25803142786 0.8519705534
0.68261480331 -0.18866413832 0.70607852936
0.59164637327 -0.44196712971 0.67422181368
0.44806492329 -0.6745917201 0.58667314053
0.67985153198 -0.58326041698 0.44445014
0.18685880303 -0.71169751883 0.67695260048
0.2642519176 -0.8519243598 0.45165371895
-0.012442770414 -0.84619039297 0.53237628937
0.84696221352 -0.4564178884 0.27264767885
0.71067434549 -0.67700600624 0.19178263843
-0.68795788288 -0.71235460043 -0.13909879327
-0.70433366299 -0.69323807955 0.15218496323
-0.5114864707 -0.85924017429 0.0065290131606
-0.9491443038 -0.1522424072 0.27550852299
-0.86600631475 -0.43195706606 0.25153934956
-0.96324378252 -0.26701012254 0.030489066616
-0.70673412085 0.13209803402 0.69492155313
-0.43353539705 -0.26692342758 0.85974133015
-0.16644863784 -0.69827574492 0.69502198696
-0.026624966413 -0.96050423384 0.27655389905
-0.013591325842 0.96325314045 0.26766321063
-0.26318269968 0.95435237885 0.14126197994
-0.50721484423 0.86180496216 -0.0061270180158
-0.6969730258 0.70413291454 0.13494962454
-0.69778591394 0.70169836283 -0.14267104864
-0.8518922925 0.52330046892 -0.012475339696
-0.24800181389 -0.87256628275 -0.4203902781
-0.27903220057 -0.94903624058 -0.14637695253
-0.037606302649 -0.96216833591 -0.27011558414
-0.28035861254 -0.94771671295 0.1523873955
-0.25749957561 -0.87437832355 0.41079065204
-0.70931893587 -0.14496256411 0.68955475092
-0.86019867659 -0.010903785937 0.50981980562
-0.87623006105 0.41434505582 0.24571430683
-0.95261651278 0.14117950201 0.26942262053
-0.96174758673 0.2719438374 0.028665317222
-0.85459262133 0.44195136428 -0.26908570528
-0.13789190352 -0.69119679928 -0.70912200212
0.25993952155 0.8737937212 0.40911626816
0.86581039429 0.0099025899544 -0.50024306774
0.70793652534 -0.13502430916 -0.69288665056
0.70967632532 0.14060856402 -0.69053035975
0.40986913443 -0.24840679765 -0.87742275
0.2699842155 -0.027772003785 -0.96248590946
0.13223868608 -0.27024418116 -0.95364826918
-0.0063176541589 -0.49732801318 -0.86753374338
-0.14005707204 -0.27137976885 -0.95216733217
0.13359241188 -0.68380224705 -0.71740442514
0.46094954014 0.7625349164 0.45343479514
0.23082245886 0.79201459885 0.5647637248
-0.89281028509 0.24126426876 -0.37972956896
-0.92708343267 0.34534054995 -0.14427110553
-0.52672380209 -0.5674085021 0.63284862041
-0.37767422199 -0.61086595058 0.69536107779
-0.46786504984 -0.46497192979 0.75116682053
-0.23752951622 -0.78640657663 0.56979089975
-0.57913988829 -0.23494298756 0.7803299427

CELLS 306 1224
3 0 1 2
3 2 3 4
3 5 6 7
3 5 8 6
3 8 9 6
3 8 10 9
3 6 9 11
3 0 8 5
3 1 12 13
3 12 14 13
3 12 5 14
3 13 14 15
3 5 12 0
3 0 12 1
3 14 5 7
3 2 16 0
3 2 17 16
3 17 18 16
3 17 19 18
3 16 18 20
3 19 17 4
3 4 17 2
3 18 19 21
3 22 23 4
3 4 23 19
3 24 25 23
3 24 26 25
3 23 25 19
3 19 25 21
3 27 28 29
3 29 28 30
3 27 31 28
3 31 32 28
3 31 33 32
3 34 31 27
3 35 36 37
3 35 38 36
3 38 39 36
3 38 30 39
3 36 39 40
3 30 38 29
3 29 38 35
3 41 42 29
3 29 42 27
3 41 43 42
3 43 44 42
3 43 45 44
3 42 44 27
3 27 44 34
3 3 46 4
3 4 46 47
3 3 48 46
3 48 49 46
3 48 50 49
3 46 49 47
3 50 48 51
3 47 49 37
3 49 50 37
3 47 52 4
3 4 52 22
3 47 53 52
3 53 54 52
3 53 55 54
3 52 54 22
3 37 53 47
3 56 57 58
3 57 59 58
3 57 60 59
3 58 59 26
3 61 62 63
3 63 64 65
3 51 66 50
3 67 68 66
3 68 69 66
3 68 35 69
3 66 69 50
3 35 68 29
3 29 68 67
3 50 69 37
3 69 35 37
3 60 57 70
3 70 57 71
3 72 73 74
3 74 73 70
3 72 75 73
3 75 76 73
3 75 77 76
3 73 76 70
3 77 75 78
3 78 75 72
3 70 76 60
3 76 77 60
3 79 80 81
3 81 80 82
3 79 83 80
3 83 84 80
3 83 85 84
3 80 84 82
3 85 83 86
3 86 83 79
3 82 84 87
3 84 85 87
3 24 58 26
3 55 88 89
3 88 90 89
3 88 37 90
3 89 90 40
3 60 91 92
3 91 93 92
3 91 94 93
3 92 93 87
3 26 95 96
3 95 97 96
3 95 87 97
3 96 97 21
3 21 98 99
3 98 100 99
3 98 86 100
3 99 100 20
3 86 101 100
3 101 102 100
3 101 10 102
3 100 102 20
3 86 103 101
3 103 104 101
3 103 105 104
3 101 104 10
3 20 102 106
3 102 107 106
3 102 10 107
3 106 107 0
3 34 108 109
3 108 110 109
3 108 45 110
3 109 110 61
3 65 111 112
3 111 113 112
3 111 33 113
3 112 113 34
3 94 91 114
3 77 91 60
3 87 93 82
3 82 93 115
3 105 103 116
3 79 103 86
3 21 97 98
3 85 97 87
3 86 98 85
3 85 98 97
3 0 107 8
3 8 107 10
3 10 104 9
3 9 104 117
3 20 106 16
3 16 106 0
3 21 99 18
3 18 99 20
3 26 96 25
3 25 96 21
3 34 113 31
3 31 113 33
3 40 90 36
3 36 90 37
3 45 108 44
3 44 108 34
3 37 88 53
3 53 88 55
3 87 95 92
3 59 95 26
3 60 92 59
3 59 92 95
3 34 109 112
3 63 109 61
3 65 112 63
3 63 112 109
3 56 118 71
3 118 119 71
3 118 55 119
3 71 119 74
3 74 120 121
3 120 122 121
3 120 40 122
3 121 122 123
3 45 124 125
3 124 126 125
3 124 7 126
3 125 126 11
3 61 127 128
3 127 117 128
3 127 11 117
3 128 117 105
3 94 114 129
3 114 130 129
3 114 78 130
3 129 130 65
3 78 131 132
3 131 133 132
3 131 123 133
3 132 133 33
3 56 71 57
3 70 71 74
3 123 131 121
3 72 131 78
3 74 121 72
3 72 121 131
3 78 114 77
3 77 114 91
3 11 126 6
3 6 126 7
3 105 117 104
3 9 117 11
3 33 133 32
3 123 122 134
3 39 122 40
3 7 124 135
3 43 124 45
3 55 118 54
3 54 118 136
3 61 128 62
3 64 129 65
3 74 119 120
3 89 119 55
3 40 120 89
3 89 120 119
3 11 127 125
3 110 127 61
3 45 125 110
3 110 125 127
3 78 132 130
3 111 132 33
3 65 130 111
3 111 130 132
3 1 137 2
3 137 3 2
3 1 138 137
3 138 139 137
3 138 51 139
3 137 139 3
3 51 140 141
3 140 142 141
3 140 15 142
3 141 142 67
3 15 143 142
3 143 144 142
3 143 41 144
3 142 144 67
3 15 145 143
3 145 135 143
3 145 7 135
3 143 135 41
3 67 144 29
3 144 41 29
3 94 115 93
3 82 115 81
3 81 116 79
3 79 116 103
3 51 138 140
3 13 138 1
3 15 140 13
3 13 140 138
3 7 145 14
3 14 145 15
3 22 146 23
3 146 24 23
3 56 147 136
3 147 146 136
3 147 24 146
3 136 146 22
3 32 148 28
3 28 148 30
3 30 148 134
3 148 149 134
3 148 32 149
3 134 149 123
3 30 134 39
3 39 134 122
3 41 135 43
3 43 135 124
3 3 139 48
3 48 139 51
3 56 136 118
3 54 136 22
3 62 150 63
3 150 64 63
3 62 151 150
3 151 152 150
3 151 81 152
3 150 152 64
3 81 151 116
3 151 153 116
3 151 62 153
3 116 153 105
3 64 152 154
3 152 115 154
3 152 81 115
3 154 115 94
3 51 141 66
3 66 141 67
3 24 147 58
3 58 147 56
3 123 149 133
3 133 149 32
3 105 153 128
3 128 153 62
3 64 154 129
3 129 154 94

CELL_TYPES 306
5
5
5
5
5
5
5
5
5
5
5
5
5
5
5
5
5
5
5
5
5
5
5
5
5
5
5
5
5
5
5
5
5
5
5
5
5
5
5
5
5
5
5
5
5
5
5
5
5
5
5
5
5
5
5
5
5
5
5
5
5
5
5
5
5
5
5
5
5
5
5
5
5
5
5
5
5
5
5
5
5
5
5
5
5
5
5
5
5
5
5
5
5
5
5
5
5
5
5
5
5
5
5
5
5
5
5
5
5
5
5
5
5
5
5
5
5
5
5
5
5
5
5
5
5
5
5
5
5
5
5
5
5
5
5
5
5
5
5
5
5
5
5
5
5
5
5
5
5
5
5
5
5
5
5
5
5
5
5
5
5
5
5
5
5
5
5
5
5
5
5
5
5
5
5
5
5
5
5
5
5
5
5
5
5
5
5
5
5
5
5
5
5
5
5
5
5
5
5
5
5
5
5
5
5
5
5
5
5
5
5
5
5
5
5
5
5
5
5
5
5
5
5
5
5
5
5
5
5
5
5
5
5
5
5
5
5
5
5
5
5
5
5
5
5
5
5
5
5
5
5
5
5
5
5
5
5
5
5
5
5
5
5
5
5
5
5
5
5
5
5
5
5
5
5
5
5
5
5
5
5
5
5
5
5
5
5
5
5
5
5
5
5
5
5
5
5
5
5
5
5
5
5
5
5
5

CELL_DATA 306
SCALARS cell_data_0 double
LOOKUP_TABLE default
4.92759400141e-06
5.76425314272e-06
4.03228150776e-06
3.64289852384e-06
5.67448552583e-07
5.41566342988e-07
7.82043752306e-07
3.52340751422e-06
6.50174653836e-07
9.18926162172e-08
2.67368713002e-06
8.07143542073e-07
1.1095196438e-06
1.13549416474e-06
3.21947457089e-06
6.68041664896e-07
2.69585724286e-06
6.44050785795e-07
2.25863812952e-06
2.25742509558e-07
1.81718294434e-06
1.65958362267e-06
2.51876211005e-06
1.69464317226e-06
5.41814365157e-07
2.83128986865e-07
4.7883194981e-08
2.96105635558e-06
3.13701163212e-06
5.28959312031e-07
1.64184725238e-06
2.88431963909e-06
2.73947061146e-07
2.89390209188e-08
3.23988210883e-06
3.09836410143e-06
2.88054877986e-06
4.67087519306e-07
1.00854367004e-06
6.41485705087e-07
1.01836514241e-06
8.80791869262e-07
1.94652490427e-06
6.64844423008e-07
8.16048560347e-07
2.01955472331e-07
4.8697183928e-07
2.75360963414e-06
3.19319503282e-06
1.44912294157e-06
1.16899382912e-06
1.39366763694e-06
1.21133659617e-06
2.37763631948e-06
1.65007856344e-06
3.84606666586e-06
1.0896062966e-06
3.43301515643e-08
8.02462502656e-07
1.17548105928e-06
3.06426825646e-06
4.48600226174e-07
5.38746673676e-07
1.11350353435e-06
3.3302274124e-06
3.26035364944e-07
4.62863540331e-07
4.16600967182e-07
2.13784717235e-07
1.93786694893e-07
2.97326142223e-07
3.81245677412e-06
1.40795462778e-06
4.58952602273e-07
2.05814846494e-06
2.46790758523e-06
3.84203783111e-07
1.70714189475e-06
4.38551995176e-07
1.42748149615e-06
1.92147325742e-07
6.74518575222e-08
6.72541063989e-07
5.80122413851e-07
7.08675583747e-07
1.08695079452e-07
5.51801345862e-07
5.6099049879e-07
5.02959415754e-07
5.25822806752e-07
5.28722501838e-07
4.32308979181e-07
3.17157007468e-07
3.83944102061e-07
5.23025852129e-07
1.20551518312e-07
5.94984919268e-07
4.64435155219e-07
2.23814716891e-07
3.64697254691e-07
3.59027906231e-07
2.63479007142e-07
4.13917242854e-07
2.62818907796e-07
1.08763092938e-06
2.47612208281e-06
1.11644818319e-07
3.37318137106e-07
5.53920695426e-08
5.96021564413e-07
5.57062068267e-07
8.09707922329e-08
8.59196050432e-07
1.92446727776e-07
1.51645480738e-06
1.57385064087e-06
8.56534309463e-07
5.54968068067e-08
3.31911293259e-08
4.56695953518e-08
4.7278880419e-08
3.98284593437e-10
4.44429358009e-07
4.90269160704e-07
2.02629477281e-07
6.07147494738e-07
3.58871129706e-07
7.34137259622e-08
1.02542102837e-06
6.0849824009e-08
2.50687524367e-06
1.65022561313e-06
7.10726047516e-07
2.81340622458e-08
1.42722642445e-07
7.35695336794e-09
5.43318234718e-07
7.86016464973e-08
1.47983500085e-06
8.04155827371e-07
1.92963399125e-07
7.3938111433e-08
9.52620103378e-08
8.79050541318e-07
2.30497760067e-07
2.14080580087e-07
2.14807895444e-07
1.65674052344e-07
4.00649817946e-07
6.68597767639e-07
1.79865086835e-07
3.67107650034e-07
6.58369174467e-07
4.74019423594e-07
6.35853164085e-07
6.65028586005e-07
1.76572871103e-07
9.95899900392e-08
6.16086254792e-07
8.26413278434e-07
1.44908557269e-07
2.1234916078e-07
1.15422771893e-06
2.07423551349e-08
8.2603398957e-07
1.27530250924e-06
1.58547906705e-07
1.45075190876e-07
1.03730785294e-07
2.70573275484e-07
4.60270248626e-07
7.86370484842e-07
2.40204664461e-07
3.11002349426e-07
7.66063390982e-07
6.54042495729e-07
9.78999560877e-08
4.4434577073e-07
6.75332209403e-07
5.01211733513e-07
9.87540577052e-09
6.11853042967e-07
6.03442347443e-07
3.08074372083e-07
7.38155207535e-07
2.18999706672e-06
1.57821210984e-07
3.03035174986e-07
2.03630799351e-09
5.97334445312e-07
6.43300855084e-08
5.3978514797e-08
1.24165034501e-07
6.71946989808e-07
1.76541504183e-07
5.62596223057e-07
2.03490959675e-08
5.37114802363e-08
2.41932133674e-07
1.08877490597e-06
1.05022485493e-07
1.04621163855e-06
3.25886833182e-08
1.22019092386e-07
8.84331224168e-08
3.07819684505e-08
2.45748359011e-07
5.56690172426e-08
6.1010793343e-07
5.76062317413e-07
2.53387920701e-07
5.42479924051e-07
6.41720541532e-07
1.31167011441e-07
9.04649617833e-07
4.82406777961e-08
8.6395473665e-10
1.1474684497e-06
2.0681702391e-07
2.49091186612e-07
1.75857798879e-07
2.5449856955e-07
3.49902482643e-07
4.56279175093e-07
3.86861784097e-08
8.17042623223e-08
4.19277082246e-07
2.3233854848e-07
2.93495676325e-08
2.15865757447e-08
1.75040336395e-07
3.81202850246e-07
1.13004600873e-06
1.15746719233e-06
1.3210819254e-06
2.17789645361e-06
1.65811866351e-06
1.07403752972e-06
2.32145109826e-06
1.62577766545e-06
3.039204165e-07
1.13913100891e-07
1.85313684734e-07
4.70100721072e-07
1.72747802897e-06
1.77509494604e-06
9.621954831e-08
1.68078096635e-06
2.05906812572e-06
8.1347420156e-07
9.51050213744e-07
8.94451400583e-07
1.22498208686e-06
4.0880100274e-08
3.08071126424e-08
2.34646990167e-07
1.09999008944e-06
1.01458557457e-06
9.4524476056e-08
2.3468972614e-06
1.124272821e-06
1.23783498753e-07
1.19933951726e-06
1.15401981249e-07
5.43102167176e-07
9.57314995353e-07
3.60100623057e-07
8.9071496908e-07
2.30990615936e-07
1.06617384988e-06
8.32993763005e-07
7.94439759388e-07
2.97101311098e-07
5.59894892827e-07
1.14870034494e-06
1.00198600628e-06
6.86487637144e-07
2.3443525229e-06
1.26098099712e-06
3.40993837861e-07
5.15215099751e-07
1.04219858527e-06
2.62212133924e-07
1.68614604197e-07
2.48609961874e-07
3.56931385172e-07
3.15361321834e-07
2.52095039927e-07
4.81214905524e-07
3.03216537218e-07
2.97346312911e-07
6.97531349694e-07
1.72571015599e-07
1.63547771618e-07
5.4089147485e-07
6.70369572575e-07
4.77521523302e-07
6.40168739672e-07
3.14950198973e-07
2.06006738152e-07
3.70322698643e-07
2.88137394488e-07
1.28558157995e-07
1.32131914641e-07
1.43065861599e-07
2.49384046924e-07

