# vtk DataFile Version 3.0
File Name: Molecule/sphere_cent/sphere_cent_0-s10.vtk
ASCII
DATASET UNSTRUCTURED_GRID
FIELD FieldData 1
TIME 1 1 double
0.0
POINTS 205 double
0.53844952583 -0.84065234661 0.056341208518
0.507348001 -0.79577559233 0.33057054877
0.26262965798 -0.95139563084 0.16056904197
0.21214255691 -0.96690827608 -0.13797949255
-0.037068549544 -0.99922728539 0.0021425164305
0.83184254169 -0.27425444126 -0.48184859753
0.6896263361 -0.57289105654 -0.44227457047
0.58786046505 -0.42231738567 -0.68994104862
0.42581757903 -0.6738191843 -0.60374027491
0.49038460851 -0.7933345437 -0.35911399126
0.27560296655 -0.4850231111 -0.82973694801
0.99863266945 0.0046948767267 -0.046543020755
0.96348589659 0.14332729578 0.22214129567
0.95249760151 -0.16096647084 0.25833851099
0.84271788597 -0.049461476505 0.53526324034
0.80145007372 -0.32372975349 0.50284135342
0.42904984951 0.65107613802 0.6254517436
0.58069229126 0.42815864086 0.69187831879
0.6799249649 0.5840331912 0.4406298399
0.3017180264 0.48992922902 0.81787788868
0.79291433096 0.34045779705 0.50312191248
-0.52406805754 -0.00098303891718 -0.85169571638
-0.85159176588 0.020196404308 -0.52173596621
-0.79293477535 0.31462356448 -0.52036738396
-0.95957654715 -0.15606236458 -0.22953149676
-0.99973368645 0.0019793142565 0.023239664733
-0.96469515562 0.11671403795 -0.23412047327
-0.58200252056 0.43303450942 -0.68829995394
-0.67817533016 0.59486800432 -0.43134906888
-0.44537773728 0.69810295105 -0.55929273367
-0.4977529943 0.81704676151 -0.29090562463
-0.29927676916 0.48460191488 -0.82073038816
-0.29318794608 -0.48081433773 -0.82579523325
-0.56635445356 -0.43159788847 -0.70097506046
-0.4258325696 -0.68565732241 -0.59031486511
-0.48875597119 -0.8205435276 -0.29621836543
-0.67384558916 -0.61529821157 -0.40753647685
0.82609778643 0.2898234129 -0.48322865367
0.62254303694 0.42680621147 -0.65564060211
0.69823151827 0.55947571993 -0.44523835182
0.43333616853 0.68103528023 -0.59028846025
0.24164357781 0.96004486084 -0.13719213009
0.26206812263 0.95425450802 0.14339599013
0.5084503293 0.8584215045 -0.024596419185
-0.011153147556 0.99991255999 0.0033921813592
0.015005026013 0.85661053658 0.51560902596
-0.13266596198 0.70229893923 0.69933581352
0.13844715059 0.68235170841 0.71774947643
0.0034374205861 0.50569462776 0.86269044876
-0.29616951942 0.49105808139 0.81915700436
-0.49518579245 -0.81649923325 0.29667440057
-0.44623166323 -0.71922940016 0.53193235397
-0.6857649684 -0.58781069517 0.42911779881
-0.6405056119 -0.4050206244 0.65197861195
-0.81771439314 -0.29652661085 0.4932756722
-0.011363370344 -0.021307522431 -0.99939447641
-0.15320038795 0.25566971302 -0.95450240374
0.12584555149 0.23700432479 -0.96321666241
-0.0003853966482 0.50466609001 -0.86246246099
-0.36713430285 0.72357404232 0.5844206214
-0.23873890936 0.88007134199 0.4102794528
-0.72344267368 0.58656966686 0.3639536202
-0.5615349412 0.66008496284 0.49879160523
-0.48833197355 0.8261013031 0.28065347672
-0.66013103724 0.50183677673 0.55876767635
-0.5033582449 0.56206119061 0.65620529652
-0.5889814496 0.36590835452 0.72049736977
-0.82553881407 0.28066420555 0.48928508162
0.0099131502211 -0.57548344135 0.81768834591
-0.090709067881 -0.40441775322 0.91007012129
-0.2844516933 -0.49051329494 0.82312381268
-0.20722590387 -0.22278250754 0.95253545046
0.097746357322 -0.40610331297 0.90847986937
0.0016005621292 -0.25017246604 0.9681045413
0.22003802657 -0.22672370076 0.94871360064
0.32976201177 -0.5049251914 0.7975820899
0.0032122167759 0.024211905897 0.99960398674
-0.034724764526 0.96321117878 -0.26647296548
-0.27072787285 0.95202821493 -0.14257146418
-0.2539023757 0.88091284037 -0.39946255088
0.022055238485 0.83316391706 -0.55234032869
-0.42194965482 0.23811560869 0.87472772598
-0.14398811758 0.27488860488 0.95063269138
-0.28000077605 0.027852475643 0.9595194459
-0.53096115589 -0.016023164615 0.84722018242
0.14934115112 0.27457216382 0.94988900423
0.4059677124 0.25559541583 0.87743365765
0.29268667102 0.022421821952 0.95588243008
0.56282603741 0.027452709153 0.82578235865
0.46056547761 -0.2499012053 0.85166925192
0.68242019415 -0.19077566266 0.70543211699
0.59038227797 -0.44282329082 0.67478382587
0.44730123878 -0.67520159483 0.58651852608
0.67891329527 -0.58343750238 0.44572925568
0.18125160038 -0.71494394541 0.67520385981
0.25668224692 -0.85634154081 0.44783514738
-0.013505881652 -0.84788841009 0.52999132872
0.85416173935 -0.4504776299 0.25898012519
0.71252310276 -0.67558556795 0.18898180127
0.85128003359 -0.52419000864 -0.02206703648
-0.85918778181 -0.50448250771 -0.067733734846
-0.68375527859 -0.71712327003 -0.1354509443
-0.70905196667 -0.68895417452 0.14954693615
-0.50991159678 -0.86018115282 0.0069986893795
-0.94895911217 -0.15084682405 0.27693971992
-0.86584109068 -0.4355827868 0.2456920594
-0.96367698908 -0.26466038823 0.037341728806
-0.70333170891 0.12887835503 0.69902771711
-0.41938316822 -0.25629219413 0.87055307627
-0.14759516716 -0.6956281662 0.70266520977
0.70782643557 -0.70071834326 -0.085697241127
-0.018825178966 -0.95937561989 0.28126245737
0.96156561375 -0.2718744278 -0.032751969993
0.71621793509 0.090087868273 0.6915486455
-0.0074126799591 0.96243733168 0.27103152871
-0.26456230879 0.95406734943 0.1405248642
-0.50646942854 0.86223423481 -0.0055284602568
-0.70100992918 0.7011564374 0.12984770536
-0.70138704777 0.69710427523 -0.1481256336
-0.85431826115 0.51949226856 -0.012833254412
-0.24591331184 -0.86893475056 -0.42934674025
-0.28090301156 -0.94878029823 -0.14459381998
-0.046670295298 -0.96251994371 -0.26705276966
0.01285052672 -0.84875261784 -0.52859264612
-0.27966314554 -0.94856595993 0.1483322829
-0.25746813416 -0.88042831421 0.39803674817
-0.71852785349 -0.13753774762 0.68169748783
-0.86229389906 -0.0081755174324 0.50630778074
-0.87720555067 0.4159938097 0.23951460421
-0.95208483934 0.13940624893 0.27219125628
-0.96363312006 0.26440486312 0.038125656545
-0.84195405245 0.46253216267 -0.27657720447
-0.14310096204 -0.69656002522 -0.70292162895
0.25257495046 0.88462632895 0.39151757956
0.70173561573 -0.13931360841 -0.69853675365
0.86523628235 0.0076775215566 -0.50128626823
0.71929997206 0.13552285731 -0.68138998747
0.52329140902 0.011439765804 -0.85202175379
0.41897851229 -0.24633949995 -0.87382435799
0.26266393065 -0.038981374353 -0.96409827471
0.13429866731 -0.27104449272 -0.95313555002
-0.0066571584903 -0.49914816022 -0.86646050215
-0.14288423955 -0.27059593797 -0.9518930912
0.1397703886 -0.69051158428 -0.70950269699
0.27399411798 -0.84215778112 -0.46358454227
0.44880759716 0.76516133547 0.46180796623
0.24478700757 0.78969019651 0.56233394146
0.49750387669 0.81787031889 0.28713542223
-0.89651221037 0.24848459661 -0.36665695906
-0.92784422636 0.338006109 -0.1568710506
-0.53172671795 -0.56857383251 0.62759906054
-0.36565878987 -0.62318211794 0.69128149748
-0.47275775671 -0.44990482926 0.75763875246
-0.24572108686 -0.78107684851 0.57395929098
-0.57765072584 -0.24541066587 0.77844291925
0.88258200884 -0.39208903909 -0.25964379311
0.95182079077 -0.13302576542 -0.27630609274
0.94902956486 0.14719484746 -0.27869775891
0.9616984129 0.27066418529 -0.044726751745
0.87992107868 0.40440547466 -0.24976979196
0.8410577178 0.54095810652 0.011914060451
0.36557644606 -0.89546525478 -0.25329679251
0.14868485928 -0.92684793472 -0.34451150894
0.53926187754 -0.82628554106 -0.16259075701
0.39495065808 -0.91599476337 -0.069959379733
0.4596658349 0.45319828391 -0.76384776831
0.2986150682 0.52642381191 -0.79522043467
0.25029826164 0.37368822098 -0.89323800802
0.57563185692 0.23959058523 -0.78172260523
0.42937171459 0.27178603411 -0.86123406887
0.33613294363 0.14728593826 -0.93001884222
0.64247268438 -0.71173447371 -0.28370773792
0.9163018465 0.070054203272 0.39423555136
0.89427983761 0.24808180332 0.3720228672
0.8289373517 0.15728037059 0.53674852848
0.85618007183 0.43525987864 0.27796879411
0.92694234848 0.34809780121 0.14052571356
-0.36003670096 0.61154764891 -0.70441204309
-0.15198785067 0.68211013079 -0.71504974365
-0.21999970078 0.78077942133 -0.58485734463
0.78510576487 0.57607227564 -0.22814178467
0.68875616789 0.70590704679 -0.16463628411
0.61377072334 0.69867825508 -0.36747518182
0.49927815795 0.80817192793 -0.31158518791
0.27939549088 0.84554100037 -0.45286467671
0.17823150754 0.69742202759 -0.69222611189
0.37106859684 0.89459311962 -0.24831278622
0.15122419596 0.92208522558 -0.35661706328
0.7839064002 -0.57670396566 -0.22957789898
0.60886710882 0.71246242523 0.34856283665
0.6921325326 0.70422542095 0.15824943781
0.77622914314 0.58589082956 0.23197501898
0.71723645926 0.28349736333 0.63607770205
-0.80851572752 -0.31038820744 -0.49988791347
-0.83552908897 -0.16213777661 -0.52256518602
-0.70722860098 -0.36503267288 -0.60317546129
-0.8889631629 -0.25132882595 -0.37935033441
-0.91755503416 -0.081269092858 -0.38907590508
-0.76229995489 -0.45399001241 -0.45891818404
-0.63895523548 -0.52237701416 -0.56467092037
0.69058471918 0.72304809093 0.00498978002
0.52393525839 0.8410153389 0.13491627574
0.15485811234 0.53320586681 -0.83142369986
0.021686997265 0.68465059996 -0.72842949629
0.59269273281 0.22976498306 0.77188915014

CELLS 406 1624
3 0 1 2
3 3 2 4
3 5 6 7
3 6 8 7
3 6 9 8
3 7 8 10
3 11 12 13
3 13 14 15
3 16 17 18
3 16 19 17
3 18 17 20
3 21 22 23
3 24 25 26
3 27 28 29
3 27 23 28
3 29 28 30
3 23 27 21
3 21 27 31
3 32 33 21
3 32 34 33
3 34 35 36
3 37 38 39
3 38 40 39
3 41 42 43
3 41 44 42
3 45 46 47
3 46 48 47
3 46 49 48
3 47 48 19
3 50 51 52
3 52 53 54
3 55 56 57
3 56 58 57
3 56 31 58
3 31 56 21
3 21 56 55
3 49 46 59
3 59 46 60
3 61 62 63
3 63 62 59
3 61 64 62
3 64 65 62
3 64 66 65
3 62 65 59
3 66 64 67
3 67 64 61
3 59 65 49
3 65 66 49
3 68 69 70
3 70 69 71
3 68 72 69
3 72 73 69
3 72 74 73
3 69 73 71
3 74 72 75
3 75 72 68
3 71 73 76
3 73 74 76
3 16 47 19
3 44 77 78
3 77 79 78
3 77 80 79
3 78 79 30
3 49 81 82
3 81 83 82
3 81 84 83
3 82 83 76
3 19 85 86
3 85 87 86
3 85 76 87
3 86 87 88
3 88 89 90
3 89 91 90
3 89 75 91
3 90 91 15
3 75 92 91
3 92 93 91
3 92 1 93
3 91 93 15
3 75 94 92
3 94 95 92
3 94 96 95
3 92 95 1
3 15 93 97
3 93 98 97
3 93 1 98
3 97 98 99
3 100 101 102
3 101 103 102
3 101 35 103
3 102 103 50
3 54 104 105
3 104 106 105
3 104 25 106
3 105 106 100
3 84 81 107
3 66 81 49
3 76 83 71
3 71 83 108
3 96 94 109
3 68 94 75
3 88 87 89
3 74 87 76
3 75 89 74
3 74 89 87
3 99 98 110
3 0 98 1
3 1 95 2
3 2 95 111
3 15 97 13
3 13 97 112
3 88 90 113
3 14 90 15
3 19 86 17
3 100 106 24
3 24 106 25
3 30 79 29
3 35 101 36
3 36 101 100
3 41 77 44
3 76 85 82
3 48 85 19
3 49 82 48
3 48 82 85
3 100 102 105
3 52 102 50
3 54 105 52
3 52 105 102
3 45 114 60
3 114 115 60
3 114 44 115
3 60 115 63
3 63 116 117
3 116 118 117
3 116 30 118
3 117 118 119
3 35 120 121
3 120 122 121
3 120 123 122
3 121 122 4
3 50 124 125
3 124 111 125
3 124 4 111
3 125 111 96
3 84 107 126
3 107 127 126
3 107 67 127
3 126 127 54
3 67 128 129
3 128 130 129
3 128 119 130
3 129 130 25
3 45 60 46
3 59 60 63
3 119 128 117
3 61 128 67
3 63 117 61
3 61 117 128
3 67 107 66
3 66 107 81
3 4 122 3
3 96 111 95
3 2 111 4
3 25 130 26
3 119 118 131
3 28 118 30
3 123 120 132
3 34 120 35
3 44 114 42
3 42 114 133
3 50 125 51
3 53 126 54
3 63 115 116
3 78 115 44
3 30 116 78
3 78 116 115
3 4 124 121
3 103 124 50
3 35 121 103
3 103 121 124
3 67 129 127
3 104 129 25
3 54 127 104
3 104 127 129
3 5 134 135
3 134 136 135
3 134 137 136
3 135 136 37
3 137 138 139
3 138 140 139
3 138 10 140
3 139 140 55
3 10 141 140
3 141 142 140
3 141 32 142
3 140 142 55
3 10 143 141
3 143 132 141
3 143 123 132
3 141 132 32
3 55 142 21
3 142 32 21
3 84 108 83
3 71 108 70
3 70 109 68
3 68 109 94
3 137 134 138
3 7 134 5
3 10 138 7
3 7 138 134
3 123 143 144
3 8 143 10
3 145 16 18
3 45 146 133
3 146 145 133
3 146 16 145
3 133 145 147
3 26 148 22
3 22 148 23
3 23 148 131
3 148 149 131
3 148 26 149
3 131 149 119
3 23 131 28
3 28 131 118
3 32 132 34
3 34 132 120
3 37 136 38
3 45 133 114
3 42 133 147
3 51 150 52
3 150 53 52
3 51 151 150
3 151 152 150
3 151 70 152
3 150 152 53
3 70 151 109
3 151 153 109
3 151 51 153
3 109 153 96
3 53 152 154
3 152 108 154
3 152 70 108
3 154 108 84
3 57 139 55
3 16 146 47
3 47 146 45
3 119 149 130
3 130 149 26
3 96 153 125
3 125 153 51
3 53 154 126
3 126 154 84
3 99 155 112
3 155 156 112
3 155 5 156
3 112 156 11
3 11 157 158
3 157 159 158
3 157 37 159
3 158 159 160
3 9 161 144
3 161 162 144
3 161 3 162
3 144 162 123
3 9 163 161
3 163 164 161
3 163 0 164
3 161 164 3
3 3 164 2
3 2 164 0
3 5 155 6
3 9 144 8
3 8 144 143
3 99 112 97
3 13 112 11
3 11 158 12
3 39 159 37
3 38 165 40
3 165 166 40
3 166 165 167
3 165 168 169
3 165 38 168
3 169 168 137
3 137 170 169
3 170 167 169
3 170 57 167
3 169 167 165
3 58 167 57
3 123 162 122
3 122 162 3
3 11 156 157
3 135 156 5
3 37 157 135
3 135 157 156
3 137 168 136
3 136 168 38
3 57 170 139
3 139 170 137
3 6 171 9
3 9 171 163
3 12 172 13
3 172 14 13
3 12 173 172
3 173 174 172
3 173 20 174
3 172 174 14
3 20 173 175
3 173 176 175
3 173 12 176
3 175 176 160
3 20 175 18
3 31 177 178
3 177 179 178
3 177 29 179
3 178 179 80
3 29 177 27
3 27 177 31
3 160 180 181
3 180 182 181
3 180 39 182
3 181 182 183
3 183 182 40
3 40 182 39
3 80 184 185
3 40 184 183
3 43 181 183
3 183 186 43
3 186 41 43
3 80 187 184
3 187 186 184
3 187 41 186
3 184 186 183
3 31 178 58
3 80 179 79
3 79 179 29
3 41 187 77
3 77 187 80
3 163 110 0
3 0 110 98
3 99 110 188
3 110 171 188
3 110 163 171
3 188 171 6
3 99 188 155
3 155 188 6
3 160 176 158
3 158 176 12
3 39 180 159
3 159 180 160
3 147 189 190
3 189 191 190
3 189 18 191
3 190 191 160
3 17 192 20
3 20 192 174
3 193 194 195
3 194 22 21
3 193 196 194
3 196 197 194
3 196 24 197
3 194 197 22
3 22 197 26
3 26 197 24
3 24 196 100
3 100 196 198
3 33 195 21
3 21 195 194
3 36 199 34
3 34 199 33
3 33 199 195
3 199 198 195
3 199 36 198
3 195 198 193
3 193 198 196
3 198 36 100
3 166 185 40
3 40 185 184
3 160 200 190
3 200 201 190
3 200 43 201
3 190 201 147
3 147 201 42
3 42 201 43
3 166 202 185
3 202 203 185
3 202 58 203
3 185 203 80
3 88 204 86
3 86 204 17
3 18 189 145
3 145 189 147
3 58 202 167
3 167 202 166
3 174 113 14
3 14 113 90
3 88 113 204
3 113 192 204
3 113 174 192
3 204 192 17
3 160 191 175
3 175 191 18
3 43 200 181
3 181 200 160
3 80 203 178
3 178 203 58

CELL_TYPES 406
5
5
5
5
5
5
5
5
5
5
5
5
5
5
5
5
5
5
5
5
5
5
5
5
5
5
5
5
5
5
5
5
5
5
5
5
5
5
5
5
5
5
5
5
5
5
5
5
5
5
5
5
5
5
5
5
5
5
5
5
5
5
5
5
5
5
5
5
5
5
5
5
5
5
5
5
5
5
5
5
5
5
5
5
5
5
5
5
5
5
5
5
5
5
5
5
5
5
5
5
5
5
5
5
5
5
5
5
5
5
5
5
5
5
5
5
5
5
5
5
5
5
5
5
5
5
5
5
5
5
5
5
5
5
5
5
5
5
5
5
5
5
5
5
5
5
5
5
5
5
5
5
5
5
5
5
5
5
5
5
5
5
5
5
5
5
5
5
5
5
5
5
5
5
5
5
5
5
5
5
5
5
5
5
5
5
5
5
5
5
5
5
5
5
5
5
5
5
5
5
5
5
5
5
5
5
5
5
5
5
5
5
5
5
5
5
5
5
5
5
5
5
5
5
5
5
5
5
5
5
5
5
5
5
5
5
5
5
5
5
5
5
5
5
5
5
5
5
5
5
5
5
5
5
5
5
5
5
5
5
5
5
5
5
5
5
5
5
5
5
5
5
5
5
5
5
5
5
5
5
5
5
5
5
5
5
5
5
5
5
5
5
5
5
5
5
5
5
5
5
5
5
5
5
5
5
5
5
5
5
5
5
5
5
5
5
5
5
5
5
5
5
5
5
5
5
5
5
5
5
5
5
5
5
5
5
5
5
5
5
5
5
5
5
5
5
5
5
5
5
5
5
5
5
5
5
5
5
5
5
5
5
5
5
5
5
5
5
5
5
5
5
5
5
5
5
5
5
5
5
5
5
5
5
5
5
5
5
5
5
5
5
5
5
5
5
5
5
5
5
5
5
5
5
5
5

CELL_DATA 406
SCALARS cell_data_0 double
LOOKUP_TABLE default
6.81749654459e-07
5.63205030645e-07
7.01369826617e-07
6.65143644754e-07
8.77706326201e-07
6.97727340403e-07
8.78892858457e-07
5.61437994772e-07
9.38638068551e-08
3.37977572844e-07
5.74744500176e-07
1.78301820584e-06
4.39756675182e-07
2.62004512449e-07
1.40637656804e-06
1.85826359115e-07
4.32139943944e-07
1.65133073109e-06
1.5962810716e-06
9.27622600035e-07
5.39464628147e-07
3.71399810845e-07
4.79920040673e-07
4.46807252521e-07
2.82504370017e-07
4.57932866014e-08
3.76195932193e-07
3.78842652058e-07
1.58742814019e-07
2.4441634704e-07
2.78542768064e-07
1.49820174896e-06
6.05389797586e-07
1.6888425632e-06
5.70877134503e-07
1.51453493804e-06
1.84698033945e-07
4.83360149569e-09
4.49559585419e-07
3.73586251085e-07
4.79867545828e-07
8.42377884549e-08
4.83503826419e-07
4.04463665845e-07
4.89539540678e-07
4.80540711432e-07
5.01384537614e-07
3.48755757109e-07
1.76538044092e-07
1.47267649832e-07
2.44670418711e-07
4.51456939826e-08
5.10002891639e-07
3.4769714467e-07
3.00305412911e-07
3.28302348883e-07
3.82294020536e-07
3.60831086353e-07
3.07524958811e-07
2.27009990677e-07
5.62664486932e-07
1.24258933835e-06
9.68469916338e-08
1.54903159245e-07
3.03427302085e-08
6.06523679982e-07
2.72274708692e-07
2.54398519297e-07
3.52867293591e-07
3.03176695201e-07
3.67620146696e-08
1.59344275775e-07
2.20856471431e-07
2.2833972015e-07
9.34923040799e-09
2.85266938865e-08
6.27404319578e-09
2.53391584126e-07
3.08194219966e-07
3.46537488087e-07
5.16003444434e-08
5.44798467292e-07
2.99748805846e-08
3.57603718341e-07
3.66451077353e-07
2.09113870504e-08
2.81404046715e-08
8.13460881098e-07
1.63497359275e-07
1.06095363605e-08
3.26141933082e-08
2.11556010229e-07
1.73455994679e-07
6.95561583928e-09
7.7520718667e-07
8.2865237567e-07
7.42314860305e-09
1.16410255923e-07
1.38916676169e-07
9.80145422467e-07
1.17871958298e-07
1.13913016909e-06
2.95524864945e-08
1.10209374516e-07
5.00872099648e-07
1.51895218279e-07
2.62009489499e-07
7.68300702817e-08
2.42154055847e-07
2.51746490089e-07
4.77087330011e-07
5.44117857609e-08
2.86739549691e-07
6.51273778952e-07
5.86682534234e-08
2.21714168354e-08
1.23209785949e-07
6.02388905559e-07
3.79620074273e-08
3.29331485962e-07
1.41528867295e-07
3.77429685327e-07
2.04760425462e-07
1.38794665825e-07
1.93729529086e-07
1.19619186759e-07
2.13710531653e-07
9.4171264842e-08
4.66133459727e-07
3.16355678641e-08
1.84400942165e-07
5.97123432505e-07
3.58556141282e-07
4.73224734574e-08
3.04140885342e-07
5.94355055819e-07
2.10417825799e-07
2.31755322763e-07
3.96166717284e-08
2.86158208949e-07
1.83857978457e-07
1.3603860028e-07
2.77968042752e-07
1.09469564389e-07
2.1843082773e-07
1.53860301157e-07
2.45195755296e-07
2.12210174719e-08
4.13160707235e-07
1.84903013697e-07
1.01857353536e-08
1.17294576101e-07
8.52337026477e-07
4.59755380417e-08
1.05286232466e-06
1.15634422558e-07
4.45287016515e-08
2.15433827348e-07
3.79307696841e-08
5.37861160441e-08
2.69906662193e-07
2.53942530456e-07
1.01064404818e-07
2.83573103182e-07
2.88522233081e-07
3.58001865178e-07
3.62991721566e-07
2.28759912477e-07
7.2369937923e-08
6.43721448041e-08
8.48137782716e-08
1.17714448191e-07
1.42456323721e-07
3.43950617731e-07
3.56624652379e-07
3.55770492873e-07
2.23941997027e-07
6.95392551732e-08
1.77362362432e-07
8.43014936337e-08
1.01295595986e-07
5.31268200416e-07
7.50096331936e-08
2.37183046136e-08
2.98246800022e-07
2.33368422569e-07
7.17734503653e-08
1.21963973924e-07
3.21844096767e-09
4.82585236279e-07
8.65214551841e-08
7.02786625511e-07
7.17682237175e-07
1.38995526046e-07
1.46063662659e-06
1.44798133952e-06
9.38824969311e-08
6.67417100811e-07
4.67081163139e-07
5.16934682576e-07
1.1986455223e-06
1.42599585669e-06
8.16448571087e-07
1.48476114313e-07
1.3192479892e-07
1.29124249031e-07
2.95377481127e-07
3.88891306166e-08
4.46239420839e-07
2.98890436009e-07
5.07411594614e-07
3.58241303007e-07
5.94594913816e-07
3.89188759813e-07
7.65766585137e-08
2.25700613899e-07
1.62030988526e-07
6.1119250712e-07
1.3616056518e-06
5.35498505647e-07
4.8953127331e-07
2.56621069527e-08
3.11202834919e-07
3.86235971305e-07
4.16811440425e-07
7.41437799855e-07
7.80335728978e-07
7.79271976702e-07
3.28802729487e-07
3.88008834572e-07
2.47331768096e-07
1.81554932327e-07
2.41730254986e-07
2.92824612733e-07
2.5792683439e-07
1.96687010976e-07
7.57679680667e-08
3.1666256577e-08
1.35414696208e-08
4.57878620303e-07
1.1828324976e-07
7.58061598626e-08
2.38317350273e-07
4.04716038789e-07
1.39143509394e-07
1.68091349153e-07
9.72157725313e-09
1.24728353102e-07
8.45082440489e-08
1.47407945236e-07
5.48588790434e-08
7.13016432983e-08
3.51446438491e-08
2.29720257504e-07
1.05919866378e-07
6.30994649315e-07
5.32234929934e-07
2.52247993918e-07
3.60878547908e-07
2.95387429759e-07
8.32982009251e-07
1.433868373e-07
1.34360317852e-07
8.49883303082e-08
2.57439091174e-07
1.38061954547e-07
2.2255836944e-07
2.24860345099e-07
2.76384896377e-07
3.19146754677e-07
8.19273562378e-08
3.67732945405e-07
3.91925649478e-07
3.96765098716e-07
7.0006178396e-07
1.00634094931e-07
2.89289280629e-07
5.70024640463e-07
1.59698481286e-07
8.03005030598e-08
1.57370117214e-07
1.13615819704e-07
2.35084047131e-07
5.50205429871e-08
2.11727605857e-08
1.93061004352e-07
2.02779109759e-07
1.7356188048e-07
8.32439233674e-07
7.10149061204e-09
1.49668856157e-07
5.15501678119e-08
7.17246627357e-08
1.57630803039e-07
1.84136651253e-07
1.75871355007e-07
7.83097875091e-08
3.10584679589e-07
2.15257781658e-09
2.53320403624e-07
1.96251734017e-07
4.24155947827e-07
1.1152434439e-07
3.65671735118e-07
3.57031837031e-07
1.24539434134e-07
1.24885529006e-07
2.09834101134e-07
2.25561014712e-07
1.1208777447e-07
6.82261951369e-08
1.91216544024e-07
6.44787460277e-07
5.66874644537e-07
3.4868969063e-07
1.18671319474e-07
6.03422211241e-08
1.24991102203e-06
9.46176664187e-08
1.69868013108e-07
3.31678751873e-08
4.03346640657e-07
4.59943447047e-08
6.31242959284e-08
4.26280156421e-07
2.24326473413e-07
7.27860331711e-07
1.81272495107e-07
1.79059267131e-07
6.10613587601e-07
1.79889059157e-07
7.95137194848e-08
2.55994175528e-07
1.24028712057e-07
2.59504549844e-07
3.87364380083e-07
7.25935636493e-08
1.53449436512e-07
1.49747542532e-07
2.85145837625e-07
3.00472393206e-07
1.59885916199e-07
1.12676329973e-07
4.35046376637e-07
4.81606037271e-08
3.26332250225e-08
1.28438030886e-07
3.83043910661e-07
2.41077856944e-07
2.73380691316e-07
9.42079189166e-08
2.58607876294e-07
1.5582056491e-07
1.88664553057e-07
4.29006309276e-07
2.54173645218e-07
2.20460945984e-08
1.34721857628e-06
2.73101942286e-07
5.97932854408e-07
6.50546861705e-07
8.34801997983e-07
8.31446870845e-07
3.20186464071e-07
4.069576925e-07
1.56333363436e-06
1.41934937286e-06
2.02039999683e-06
6.9365631632e-07
4.86203553474e-07
7.68409891179e-07
6.20559467647e-07
7.25294294935e-07
2.17578087404e-07
1.67490486269e-07
4.68303396173e-07
2.34405599446e-07
1.67438229033e-08
1.44538681192e-07
2.08439184567e-07
1.39744032378e-07
1.39057472518e-08
7.7671755282e-09
2.42742934154e-07
1.32490603231e-07
3.02041559104e-07
8.24315587926e-08
5.78692810102e-07
1.87685473306e-07
2.41406600595e-08
3.15471403522e-08
5.2403096529e-07
1.54195229473e-07
5.37175374743e-07
1.86049136394e-07
4.84265575913e-07
4.34228521313e-07
3.14135640527e-07
3.30043783298e-07
3.16521775065e-07
6.72031916615e-08
3.8100383995e-07
3.50466965321e-07
4.99694306925e-08
1.23508503461e-07
2.0005282719e-07

