# vtk DataFile Version 3.0
File Name: Molecule/sphere_cent/sphere_cent_0-s8.vtk
ASCII
DATASET UNSTRUCTURED_GRID
FIELD FieldData 1
TIME 1 1 double
0.0
POINTS 171 double
0.53126531839 -0.84519338608 0.033111337572
0.50935053825 -0.79438006878 0.33067730069
0.26184684038 -0.95138412714 0.1618937254
0.23662902415 -0.95864969492 -0.14923653007
-0.041722979397 -0.99892383814 0.00033113459358
0.8388428092 -0.26718303561 -0.47314786911
0.69376677275 -0.58010911942 -0.42595088482
0.58812057972 -0.42258471251 -0.68952268362
0.42368200421 -0.67903846502 -0.59934109449
0.49463734031 -0.80130797625 -0.33090415597
0.26641029119 -0.48254406452 -0.8339946866
0.53666591644 -0.82460981607 -0.16070760787
0.99831354618 0.0048265624791 -0.059124585241
0.95409554243 0.15703590214 0.2550753355
0.95203775167 -0.16307796538 0.25878921151
0.85155832767 -0.010017204098 0.52423363924
0.80962359905 0.30780625343 0.49954017997
0.80055946112 -0.32316860557 0.50456154346
0.84424567223 0.53242522478 0.0061217369512
0.56072384119 0.029613617808 0.82559460402
0.50404590368 0.81373077631 0.2865626812
0.68367826939 0.59070408344 0.42844510078
0.42741191387 0.66453635693 0.61144131422
0.58169108629 0.42685860395 0.6923596859
0.30238929391 0.48969382048 0.81774300337
-0.80859833956 -0.30989453197 -0.49990981817
-0.85384100676 0.00054537865799 -0.5205680728
-0.52462482452 -0.00064150069375 -0.85134023428
-0.79953211546 0.31230261922 -0.51127487421
-0.95416557789 -0.15748466551 -0.25434535742
-0.95957118273 0.13312414289 -0.24397566915
-0.99969923496 0.005555074662 0.023908760399
-0.85653829575 -0.51111632586 -0.047354117036
-0.30210775137 0.49736109376 -0.81311297417
-0.42627504468 0.69183790684 -0.58268195391
0.020630925894 0.83373874426 -0.54937654734
-0.58482903242 0.43070617318 -0.68741744757
-0.6814109087 0.59340465069 -0.42834454775
-0.4976747632 0.81818348169 -0.28778374195
-0.28276336193 -0.48101392388 -0.82926356792
-0.58130186796 -0.42937114835 -0.69120788574
-0.4245351553 -0.68696326017 -0.58979433775
-0.68189334869 -0.59679275751 -0.42289635539
-0.48708200455 -0.82247811556 -0.29358652234
0.69123798609 0.58211803436 -0.428098768
0.50038146973 0.80790781975 -0.31084385514
0.83022230864 0.28487548232 -0.47884631157
0.60457861423 0.42517530918 -0.67117035389
0.43099999428 0.68305832148 -0.58958846331
0.30431932211 0.50828266144 -0.80401754379
0.51803320646 0.8553776145 -0.0064718574286
0.25758948922 0.95269799232 -0.16084748507
0.26078769565 0.95410841703 0.14711476862
-0.012431250885 0.99989891052 0.0051378300413
0.012978740036 0.85917180777 0.51139593124
-0.13532285392 0.69930922985 0.70177018642
0.1400513202 0.68523740768 0.71466392279
0.004793186672 0.50694966316 0.86194938421
-0.2945176363 0.48861163855 0.82115894556
-0.49098518491 -0.81791698933 0.29962873459
-0.44265344739 -0.70844268799 0.54821640253
-0.68579930067 -0.58786648512 0.42898923159
-0.62494301796 -0.41354599595 0.66090673208
-0.81541061401 -0.29473903775 0.49808833003
-0.006598749198 -0.029217006639 -0.99916893244
-0.15296635032 0.25643447042 -0.95435029268
0.14453035593 0.24831801653 -0.9565653801
0.0071444343776 0.51625216007 -0.85642760992
-0.37530040741 0.71853655577 0.58534741402
-0.24336795509 0.87985438108 0.40791633725
-0.71872651577 0.58683025837 0.37262928486
-0.56220686436 0.65635746717 0.5028026104
-0.48619630933 0.8291016221 0.2750377655
-0.65646660328 0.5051497817 0.5600066185
-0.50602084398 0.56246507168 0.65376108885
-0.588796556 0.37397503853 0.71642798185
-0.82860714197 0.27491295338 0.48712289333
0.0054633077234 -0.57108974457 0.82085973024
-0.090719513595 -0.40421369672 0.91012126207
-0.29827266932 -0.49559381604 0.81453710794
-0.20536844432 -0.22881525755 0.95155459642
0.092928543687 -0.40517631173 0.9093657136
8.6994739831e-05 -0.25469380617 0.96689558029
0.212594226 -0.23140634596 0.94920831919
0.33250305057 -0.5069154501 0.79511064291
0.0023414967582 0.028769917786 0.99942427874
-0.028951663524 0.96295541525 -0.26846066117
-0.26872465014 0.9522343874 -0.14452329278
-0.25361326337 0.87890201807 -0.40423578024
-0.42071089149 0.24173176289 0.87429887056
-0.14429277182 0.27482536435 0.9506187439
-0.27636581659 0.029971435666 0.96045535803
-0.53031086922 -0.014660411514 0.84768342972
0.151347965 0.27493730187 0.94943970442
0.40902939439 0.2544028461 0.87638968229
0.28599968553 0.021295061335 0.95785105228
0.45692551136 -0.25515675545 0.85197126865
0.6823797822 -0.19131623209 0.70559096336
0.59119796753 -0.44232907891 0.67437934875
0.44803386927 -0.674695611 0.58656167984
0.67930537462 -0.58343786001 0.4451045692
0.18455153704 -0.71286934614 0.6764267683
0.2613503933 -0.85361409187 0.4502080977
-0.01242181845 -0.84706693888 0.53136831522
0.84955215454 -0.45403903723 0.26727262139
0.71099150181 -0.67537581921 0.19601640105
0.84861004353 -0.52545082569 -0.030298564583
-0.6861807704 -0.71432596445 -0.13775265217
-0.70600527525 -0.69170343876 0.15145491064
-0.51081722975 -0.85964107513 0.0067449663766
-0.94907951355 -0.15163080394 0.27607920766
-0.86587238312 -0.43335232139 0.24961574376
-0.96349292994 -0.26579430699 0.033145125955
-0.705262959 0.13098672032 0.69665753841
-0.42743948102 -0.26323652267 0.86423301697
-0.15916822851 -0.69671481848 0.69867628813
-0.023682445288 -0.96000182629 0.27859035134
0.96205371618 -0.26816761494 -0.041954670101
-0.011139760725 0.96293485165 0.26905432343
-0.26380065084 0.95425480604 0.14073838294
-0.50669288635 0.86210900545 -0.0058985520154
-0.69853085279 0.70293164253 0.13334769011
-0.69928687811 0.69984781742 -0.14469173551
-0.85274016857 0.52215391397 -0.01198943425
-0.24697054923 -0.87125873566 -0.42394900322
-0.27964401245 -0.94900238514 -0.14558929205
-0.041359778494 -0.96231371164 -0.26857405901
0.01619887352 -0.84696495533 -0.53121674061
-0.28022584319 -0.94796985388 0.15105853975
-0.2577136755 -0.87691855431 0.4053888917
-0.71326208115 -0.14183820784 0.68623912334
-0.86096334457 -0.010046903044 0.50853806734
-0.87648683786 0.41523677111 0.24335744977
-0.95246195793 0.14049072564 0.27032157779
-0.96250772476 0.26895174384 0.032886635512
-0.84956592321 0.45032584667 -0.27226814628
-0.13996839523 -0.69331938028 -0.70670133829
0.2571516037 0.87831771374 0.40174302459
0.70568293333 -0.13667663932 -0.6950289011
0.86561238766 0.0093343574554 -0.50061762333
0.71364653111 0.13860584795 -0.6866838932
0.52377700806 0.0095514301211 -0.85176861286
0.41329655051 -0.24756386876 -0.87611228228
0.26713478565 -0.032405607402 -0.96312302351
0.13307678699 -0.27030608058 -0.95350790024
-0.0064285364933 -0.4977273941 -0.86729359627
-0.14088664949 -0.27116137743 -0.95207965374
0.13595603406 -0.68621081114 -0.71422731876
0.27084517479 -0.85184592009 -0.44649970531
0.45553031564 0.76408088207 0.45638442039
0.23667190969 0.79107838869 0.56382697821
-0.89422994852 0.2444344312 -0.37443703413
-0.92754507065 0.34213986993 -0.14936608076
-0.5283446312 -0.56778222322 0.63115227222
-0.37240335345 -0.61598068476 0.69393277168
-0.46962794662 -0.45869281888 0.7541334033
-0.24126110971 -0.78405058384 0.57162994146
-0.57858848572 -0.23959992826 0.77943736315
0.88014221191 -0.39885470271 -0.25810903311
0.95195633173 -0.13347756863 -0.27558901906
0.94896072149 0.14774394035 -0.27870112658
0.96130412817 0.27343180776 -0.037664949894
0.87660765648 0.41302153468 -0.24754545093
0.37668609619 -0.893422544 -0.24312694371
0.14257724583 -0.92601585388 -0.34891721606
0.39616534114 -0.91520017385 -0.073779858649
0.45930126309 0.46169173717 -0.75863790512
0.42985275388 0.27025106549 -0.86113959551
0.57405543327 0.22920066118 -0.78580474854
0.34485045075 0.14103832841 -0.92774873972
0.24213384092 0.37843745947 -0.89321762323

CELLS 338 1352
3 0 1 2
3 3 2 4
3 5 6 7
3 6 8 7
3 6 9 8
3 7 8 10
3 9 6 11
3 12 13 14
3 13 15 14
3 13 16 15
3 14 15 17
3 16 13 18
3 15 16 19
3 20 21 18
3 18 21 16
3 22 23 21
3 22 24 23
3 21 23 16
3 16 23 19
3 25 26 27
3 27 26 28
3 25 29 26
3 29 30 26
3 29 31 30
3 32 29 25
3 33 34 35
3 33 36 34
3 36 37 34
3 36 28 37
3 34 37 38
3 28 36 27
3 27 36 33
3 39 40 27
3 27 40 25
3 39 41 40
3 41 42 40
3 41 43 42
3 40 42 25
3 25 42 32
3 18 44 45
3 46 47 44
3 47 48 44
3 44 48 45
3 45 48 35
3 48 49 35
3 45 50 18
3 18 50 20
3 45 51 50
3 51 52 50
3 51 53 52
3 50 52 20
3 35 51 45
3 54 55 56
3 55 57 56
3 55 58 57
3 56 57 24
3 59 60 61
3 61 62 63
3 64 65 66
3 65 67 66
3 65 33 67
3 33 65 27
3 27 65 64
3 49 67 35
3 67 33 35
3 58 55 68
3 68 55 69
3 70 71 72
3 72 71 68
3 70 73 71
3 73 74 71
3 73 75 74
3 71 74 68
3 75 73 76
3 76 73 70
3 68 74 58
3 74 75 58
3 77 78 79
3 79 78 80
3 77 81 78
3 81 82 78
3 81 83 82
3 78 82 80
3 83 81 84
3 84 81 77
3 80 82 85
3 82 83 85
3 22 56 24
3 53 86 87
3 86 88 87
3 86 35 88
3 87 88 38
3 58 89 90
3 89 91 90
3 89 92 91
3 90 91 85
3 24 93 94
3 93 95 94
3 93 85 95
3 94 95 19
3 19 96 97
3 96 98 97
3 96 84 98
3 97 98 17
3 84 99 98
3 99 100 98
3 99 1 100
3 98 100 17
3 84 101 99
3 101 102 99
3 101 103 102
3 99 102 1
3 17 100 104
3 100 105 104
3 100 1 105
3 104 105 106
3 32 107 108
3 107 109 108
3 107 43 109
3 108 109 59
3 63 110 111
3 110 112 111
3 110 31 112
3 111 112 32
3 92 89 113
3 75 89 58
3 85 91 80
3 80 91 114
3 103 101 115
3 77 101 84
3 19 95 96
3 83 95 85
3 84 96 83
3 83 96 95
3 106 105 0
3 0 105 1
3 1 102 2
3 2 102 116
3 17 104 14
3 14 104 117
3 19 97 15
3 15 97 17
3 24 94 23
3 23 94 19
3 32 112 29
3 29 112 31
3 38 88 34
3 34 88 35
3 43 107 42
3 42 107 32
3 35 86 51
3 51 86 53
3 85 93 90
3 57 93 24
3 58 90 57
3 57 90 93
3 32 108 111
3 61 108 59
3 63 111 61
3 61 111 108
3 54 118 69
3 118 119 69
3 118 53 119
3 69 119 72
3 72 120 121
3 120 122 121
3 120 38 122
3 121 122 123
3 43 124 125
3 124 126 125
3 124 127 126
3 125 126 4
3 59 128 129
3 128 116 129
3 128 4 116
3 129 116 103
3 92 113 130
3 113 131 130
3 113 76 131
3 130 131 63
3 76 132 133
3 132 134 133
3 132 123 134
3 133 134 31
3 54 69 55
3 68 69 72
3 123 132 121
3 70 132 76
3 72 121 70
3 70 121 132
3 76 113 75
3 75 113 89
3 4 126 3
3 103 116 102
3 2 116 4
3 31 134 30
3 123 122 135
3 37 122 38
3 127 124 136
3 41 124 43
3 53 118 52
3 52 118 137
3 59 129 60
3 62 130 63
3 72 119 120
3 87 119 53
3 38 120 87
3 87 120 119
3 4 128 125
3 109 128 59
3 43 125 109
3 109 125 128
3 76 133 131
3 110 133 31
3 63 131 110
3 110 131 133
3 5 138 139
3 138 140 139
3 138 141 140
3 139 140 46
3 141 142 143
3 142 144 143
3 142 10 144
3 143 144 64
3 10 145 144
3 145 146 144
3 145 39 146
3 144 146 64
3 10 147 145
3 147 136 145
3 147 127 136
3 145 136 39
3 64 146 27
3 146 39 27
3 92 114 91
3 80 114 79
3 79 115 77
3 77 115 101
3 141 138 142
3 7 138 5
3 10 142 7
3 7 142 138
3 127 147 148
3 8 147 10
3 20 149 21
3 149 22 21
3 54 150 137
3 150 149 137
3 150 22 149
3 137 149 20
3 30 151 26
3 26 151 28
3 28 151 135
3 151 152 135
3 151 30 152
3 135 152 123
3 28 135 37
3 37 135 122
3 39 136 41
3 41 136 124
3 46 140 47
3 54 137 118
3 52 137 20
3 60 153 61
3 153 62 61
3 60 154 153
3 154 155 153
3 154 79 155
3 153 155 62
3 79 154 115
3 154 156 115
3 154 60 156
3 115 156 103
3 62 155 157
3 155 114 157
3 155 79 114
3 157 114 92
3 66 143 64
3 22 150 56
3 56 150 54
3 123 152 134
3 134 152 30
3 103 156 129
3 129 156 60
3 62 157 130
3 130 157 92
3 106 158 117
3 158 159 117
3 158 5 159
3 117 159 12
3 12 160 161
3 160 162 161
3 160 46 162
3 161 162 18
3 9 163 148
3 163 164 148
3 163 3 164
3 148 164 127
3 9 11 163
3 11 165 163
3 11 0 165
3 163 165 3
3 3 165 2
3 2 165 0
3 0 11 106
3 106 11 6
3 5 158 6
3 6 158 106
3 9 148 8
3 8 148 147
3 106 117 104
3 14 117 12
3 12 161 13
3 13 161 18
3 18 162 44
3 44 162 46
3 47 166 48
3 166 49 48
3 49 166 167
3 166 168 167
3 166 47 168
3 167 168 141
3 141 169 167
3 169 170 167
3 169 66 170
3 167 170 49
3 49 170 67
3 67 170 66
3 127 164 126
3 126 164 3
3 12 159 160
3 139 159 5
3 46 160 139
3 139 160 159
3 141 168 140
3 140 168 47
3 66 169 143
3 143 169 141

CELL_TYPES 338
5
5
5
5
5
5
5
5
5
5
5
5
5
5
5
5
5
5
5
5
5
5
5
5
5
5
5
5
5
5
5
5
5
5
5
5
5
5
5
5
5
5
5
5
5
5
5
5
5
5
5
5
5
5
5
5
5
5
5
5
5
5
5
5
5
5
5
5
5
5
5
5
5
5
5
5
5
5
5
5
5
5
5
5
5
5
5
5
5
5
5
5
5
5
5
5
5
5
5
5
5
5
5
5
5
5
5
5
5
5
5
5
5
5
5
5
5
5
5
5
5
5
5
5
5
5
5
5
5
5
5
5
5
5
5
5
5
5
5
5
5
5
5
5
5
5
5
5
5
5
5
5
5
5
5
5
5
5
5
5
5
5
5
5
5
5
5
5
5
5
5
5
5
5
5
5
5
5
5
5
5
5
5
5
5
5
5
5
5
5
5
5
5
5
5
5
5
5
5
5
5
5
5
5
5
5
5
5
5
5
5
5
5
5
5
5
5
5
5
5
5
5
5
5
5
5
5
5
5
5
5
5
5
5
5
5
5
5
5
5
5
5
5
5
5
5
5
5
5
5
5
5
5
5
5
5
5
5
5
5
5
5
5
5
5
5
5
5
5
5
5
5
5
5
5
5
5
5
5
5
5
5
5
5
5
5
5
5
5
5
5
5
5
5
5
5
5
5
5
5
5
5
5
5
5
5
5
5
5
5
5
5
5
5
5
5
5
5
5
5
5
5
5
5
5
5
5
5
5
5
5
5
5
5
5
5
5
5

CELL_DATA 338
SCALARS cell_data_0 double
LOOKUP_TABLE default
5.05051825349e-07
5.08701502298e-07
5.04317464773e-07
1.26927755501e-06
2.05607020485e-07
1.17560949174e-06
1.4090823414e-06
7.60450354057e-07
6.53472173453e-07
3.03364411248e-06
2.70580970925e-07
3.19858321904e-06
2.74639666955e-06
1.38816694015e-06
7.99099631681e-07
3.03920754937e-07
2.70404589451e-07
2.81204869948e-06
2.7109969706e-06
6.63376452316e-07
1.50220376077e-06
2.77524318781e-06
1.93983874478e-07
2.60848979663e-07
2.90744239283e-06
3.38265350961e-06
2.89083563364e-06
3.22089122846e-07
9.23095192296e-07
4.52160314232e-07
9.06298292327e-07
1.22656524561e-06
1.58623910145e-06
7.17806334513e-07
6.04427149218e-07
8.05743373847e-08
7.26131006736e-07
2.64869341496e-06
2.79770763286e-06
3.42350728623e-06
5.99897834145e-08
2.9552860306e-07
2.8421891957e-06
8.3867768e-07
5.9008466817e-07
1.2681029842e-06
7.78066739233e-07
2.95551200026e-06
3.013504253e-07
3.79312489136e-07
8.66157866108e-07
3.51114063062e-06
1.51664756249e-07
3.95371135845e-07
1.92905559093e-07
1.01123229198e-07
2.38808540105e-07
2.45473173586e-07
1.16501856445e-06
7.5913629162e-07
2.56755898224e-06
5.51081706314e-07
1.54982825793e-06
6.09408734168e-07
6.97973017012e-07
2.12040274819e-07
3.48770221701e-08
4.86135169504e-07
6.55446833311e-07
7.63546243521e-07
1.97252497224e-07
5.5375492111e-07
5.25625637662e-07
5.42524400455e-07
6.03011553609e-07
4.11390486722e-07
4.6174151501e-07
2.94357713718e-07
3.27743797843e-07
5.05474754511e-07
4.65637758987e-08
5.75818375604e-07
3.58982057633e-07
3.25868738465e-07
3.44237403082e-07
3.55032631488e-07
2.77868517548e-07
4.03413289318e-07
2.12527304394e-07
7.4566571209e-07
2.32702877325e-06
1.09082241947e-07
2.95593193167e-07
1.95204477803e-07
5.48676165626e-07
3.56197361141e-07
6.32236353664e-08
5.39136993302e-07
7.83679508879e-08
1.49543359058e-06
1.67771719621e-06
4.85568105614e-07
1.4173190326e-07
1.86927247598e-07
2.3510836599e-07
5.40610676846e-08
3.08528806026e-07
6.08050223677e-08
3.01775088121e-07
1.33339289881e-07
6.51346083582e-07
1.23487070013e-07
3.14770848959e-07
1.42308305123e-07
1.52313514435e-07
1.7609127753e-06
1.40018843406e-06
4.36659823384e-07
7.34471100885e-08
2.0890427852e-07
4.96942043472e-08
4.92164690727e-07
1.31814211199e-07
1.33251796236e-06
8.82919589551e-07
2.44026763922e-07
2.80145104126e-08
2.91775767893e-08
1.15474915186e-06
1.03642260708e-07
1.07313318634e-07
2.65685495358e-07
2.38774215434e-07
2.16384130929e-07
8.03454737282e-07
5.69471464342e-07
3.21879046847e-07
3.15281597249e-07
3.71264706354e-07
1.7385029782e-06
4.73240690098e-07
2.60271151443e-07
6.7830723352e-08
4.29988077907e-07
5.83388630265e-07
2.16552014593e-07
5.78178505643e-08
8.62537796564e-07
7.76690734984e-08
6.82971985653e-07
8.77003469745e-07
1.070065472e-08
1.00664183895e-07
7.22527712995e-08
3.2769029368e-07
1.26472338899e-07
5.98115343873e-07
2.57961074375e-07
1.90278448864e-07
4.29799485904e-07
6.86273248824e-07
4.92148520077e-08
2.83815808947e-07
4.50907144685e-07
4.8926135223e-07
3.22949642627e-08
5.02903564185e-07
6.75044127022e-07
3.82661078353e-07
2.35929650597e-07
5.73550685144e-08
2.9305201184e-07
2.35089439493e-07
5.88766792336e-08
2.61398928628e-07
3.25464251098e-08
1.2722917029e-07
5.64543288101e-08
4.84008531842e-07
1.43916374539e-07
4.56963959931e-07
8.34736799822e-08
2.73153191289e-08
1.99712351146e-07
1.06773713418e-06
5.17086412673e-08
1.02085293441e-06
3.31978631377e-09
1.39549166737e-07
4.28133888304e-09
2.92166609051e-08
1.99592580413e-08
2.57718114956e-07
4.24402389426e-07
2.55784520849e-07
3.87405782912e-07
5.59824505449e-07
7.24191100491e-08
7.1558434112e-07
3.21425189933e-07
2.20343248505e-07
7.62920509514e-07
1.92681928385e-07
1.01245179347e-07
9.69629133148e-08
5.51349917387e-08
1.8863198231e-07
1.87864094588e-07
3.78761142119e-07
7.56097331666e-08
2.53942740579e-08
1.95695200107e-07
1.02104140479e-07
7.46158644046e-08
6.09055455712e-09
2.6702348978e-07
3.90854731453e-07
1.80836043706e-07
6.49218222506e-08
1.71322543134e-07
2.18820495407e-07
5.62288064887e-07
3.77490091638e-07
5.74788634574e-07
6.7723619959e-07
4.56035807785e-07
1.51307736454e-06
1.56167111829e-06
2.80786727142e-07
6.16574570167e-07
5.89388233461e-07
7.35648800366e-07
9.41049250845e-07
8.30749409225e-07
1.13795581486e-06
1.37824338134e-07
6.59656580967e-08
4.99682456727e-09
4.48259422381e-07
1.05639364585e-07
4.66153817391e-07
3.95727447969e-07
2.72962569036e-07
3.4916792479e-07
1.06416724893e-06
2.51784572807e-07
4.65919428944e-07
5.90717450625e-07
2.11029648776e-07
6.5375996505e-07
3.70757997918e-07
1.19589970271e-06
7.6950714264e-07
6.66270446581e-07
2.99727720421e-07
4.42487394195e-07
9.12683004998e-07
7.49935131278e-07
6.62170285244e-07
1.06666105012e-06
5.63531972529e-07
3.93833907374e-07
7.90035117808e-07
2.31308401738e-07
1.66997492957e-07
1.72348505182e-07
2.98402827703e-07
2.9043752699e-07
2.31949548674e-07
3.21057958849e-07
1.43053560706e-07
1.52989382718e-07
5.96080807673e-07
2.82662615171e-07
9.82989152378e-08
5.20684892332e-07
5.31279577215e-07
1.82706852426e-07
2.54294937664e-07
1.6738123298e-07
2.39842875443e-07
1.38327576044e-07
1.76094207615e-07
1.16311496855e-07
1.24780380751e-07
1.60685374719e-07
1.60443813202e-06
7.94533906175e-07
1.46711539968e-07
8.67749855263e-07
2.47336596081e-08
1.68075345306e-06
4.78352561698e-08
2.66533411712e-06
3.09941010808e-07
5.17579895809e-07
1.49196723643e-07
7.72535440324e-07
9.61591219666e-07
1.05088429854e-07
1.29244445174e-06
1.21777220032e-07
3.60765883365e-07
2.9047017823e-07
5.96082912462e-07
4.12911824792e-06
4.83289761154e-07
6.93745580508e-07
3.77812693893e-07
1.86809864182e-07
3.29012344107e-07
9.74031464645e-08
5.35554927794e-07
1.33481359279e-06
1.43885512643e-06
2.7759640918e-07
7.69319667566e-08
1.05980601942e-06
2.91528338275e-07
7.21345680799e-07
1.50078584331e-07
1.15845055386e-07
1.12037711905e-07
5.182831521e-07
3.15957064541e-07
4.38849123547e-07
1.16636809638e-06
2.98814957507e-07
6.75962351101e-08
4.71400530191e-07
8.07859756811e-07
2.3503093948e-08
5.42276615723e-07
4.9614371102e-07
3.42810019785e-07
5.14225618057e-07
1.63287476028e-07
2.25244143546e-07

