# vtk DataFile Version 3.0
File Name: Molecule/sphere_cent/sphere_cent_0-s26.vtk
ASCII
DATASET UNSTRUCTURED_GRID
FIELD FieldData 1
TIME 1 1 double
0.0
POINTS 1916 double
-0.071456290781 -0.36073431373 0.92933315039
-0.030105400831 -0.24036809802 0.97020584345
-0.13854199648 -0.26379594207 0.95446848869
0.23182158172 -0.51885986328 -0.82275766134
0.19267642498 -0.621522367 -0.75900667906
0.1095122546 -0.5617030859 -0.8199737072
0.26470845938 0.8698476553 0.41625523567
0.40170964599 0.81700724363 0.41328582168
0.34904232621 0.87539792061 0.3344129622
-0.66765546799 -0.52585995197 -0.5262247324
-0.74115633965 -0.50650668144 -0.44062834978
-0.72580069304 -0.42053848505 -0.54391926527
-0.68522429466 -0.59576767683 -0.41889482737
0.11422569305 0.53865426779 -0.83454853296
0.0034492500126 0.53143215179 -0.84668123722
0.051093693823 0.61331760883 -0.78810203075
-0.45201933384 -0.37511450052 -0.80900061131
-0.50986653566 -0.43288314342 -0.74296247959
-0.52611547709 -0.32203188539 -0.78704637289
-0.10960198194 0.27040505409 -0.9564538002
-0.057910874486 0.3654615283 -0.92903530598
-0.014485255815 0.26629665494 -0.96377444267
0.5347867012 -0.63782292604 -0.55420231819
0.51548117399 -0.54698348045 -0.65945410728
0.61200475693 -0.53480774164 -0.58210778236
0.561629951 -0.44664892554 -0.69647353888
0.44897168875 -0.72764348984 -0.51856768131
0.41829544306 -0.6787827611 -0.60347044468
0.43918466568 -0.47556507587 -0.76173251867
-0.44695523381 -0.704459548 -0.55098986626
-0.47153788805 -0.75207620859 -0.45997825265
-0.53490674496 -0.68207609653 -0.4986563921
-0.037390738726 0.96498984098 -0.25942465663
-0.01818250306 0.93297255039 -0.35937532783
-0.13683213294 0.93464231491 -0.32819378376
-0.1080776602 0.89397507906 -0.43475878239
0.44976562262 -0.26974391937 0.85143125057
0.49260255694 -0.15622070432 0.85611391068
0.39128702879 -0.21338972449 0.89520853758
-0.47212389112 -0.13283221424 0.87103050947
-0.35419094563 -0.10073381662 0.92976260185
-0.42255049944 -0.042739205062 0.90491777658
-0.32594379783 0.02364390716 0.94506692886
-0.82703757286 -0.53866231441 -0.15974879265
-0.85939347744 -0.44257754087 -0.25595971942
-0.8044924736 -0.51348561049 -0.29848319292
-0.84639161825 -0.40546986461 -0.34500285983
0.52550196648 -0.84995663166 0.037748299539
0.51554471254 -0.84453487396 0.14468978345
0.45755368471 -0.88223093748 0.1088155508
-0.61760890484 0.7214423418 0.31214737892
-0.52114230394 0.75802320242 0.39194741845
-0.52341645956 0.80071216822 0.29069146514
-0.6843059063 0.54306745529 0.48642477393
-0.60314410925 0.59284371138 0.53334194422
-0.63954108953 0.63247942924 0.43623808026
-0.63959127665 0.50712794065 0.57769620419
-0.1099351272 -0.14894860983 0.9824193716
-0.54093790054 0.10000476241 0.8349647522
-0.5641067028 0.20937994123 0.79870975018
-0.62669658661 0.08200032264 0.77490305901
-0.46537870169 0.19102619588 0.86419677734
-0.83596271276 0.44838264585 0.3160289228
-0.87637406588 0.34433948994 0.33668079972
-0.80380856991 0.43643411994 0.40384456515
-0.9053118825 0.36600899696 0.21551722288
-0.8709218502 0.4232892096 0.24846324325
-0.60798859596 0.76601588726 0.20828507841
-0.69991850853 0.67750239372 0.22399319708
-0.6743721962 0.7270373702 0.12839001417
0.75878310204 0.19261534512 -0.62217563391
0.70595037937 0.14118970931 -0.694042027
0.68597263098 0.26848635077 -0.67625969648
0.70792609453 0.36660960317 -0.60355097055
0.63026100397 0.40296453238 -0.66361349821
0.86643087864 -0.37022006512 -0.33496743441
0.88583636284 -0.40199276805 -0.23149600625
0.81697684526 -0.46873822808 -0.33591067791
0.34464403987 -0.74666428566 -0.5689355135
0.30548673868 -0.68869113922 -0.65719205141
0.23361207545 -0.75776475668 -0.60923779011
-0.53705537319 -0.5983042717 -0.59421497583
-0.59920012951 -0.49699175358 -0.62744253874
-0.51595419645 -0.52000468969 -0.68071317673
-0.57580196857 -0.43414953351 -0.69251400232
-0.43098163605 -0.49843385816 -0.75212436914
-0.25222548842 -0.083058819175 0.96395665407
-0.36053654552 -0.77853131294 -0.513671875
0.67788696289 0.57870423794 0.45329150558
0.65237665176 0.51747763157 0.55370503664
0.74575734138 0.45693683624 0.48483818769
0.68288087845 0.42460685968 0.59441167116
0.60412275791 0.47260737419 0.64162874222
-0.30453017354 0.48821505904 0.81787258387
-0.20681740344 0.59967267513 0.77304661274
-0.32017105818 0.59660065174 0.73576140404
-0.10848222673 0.66726410389 0.73681074381
-0.1964558363 0.70024359226 0.68628454208
0.05237159133 -0.32840508223 0.94307428598
0.11606703699 -0.42344346642 0.898440063
0.18146625161 -0.32344993949 0.92866939306
0.10425328463 -0.22504132986 0.96875137091
0.21729552746 -0.20309132338 0.95473641157
0.2949219346 -0.26251554489 0.91873639822
0.2139763236 -0.43724027276 0.87351334095
0.28357157111 -0.36027923226 0.88846093416
0.032301552594 -0.15945893526 0.98665612936
0.16673266888 -0.11843004078 0.9788505435
0.37335079908 0.37722429633 0.84752702713
0.45628622174 0.37267708778 0.80802589655
0.4250716269 0.45961686969 0.77971059084
-0.39967676997 0.71517139673 0.57339990139
-0.34816932678 0.80271452665 0.48374277353
-0.44346708059 0.75636649132 0.48085913062
-0.42599189281 0.80805397034 0.40635868907
-0.36090055108 0.91009682417 0.20337019861
-0.29087436199 0.94936329126 0.11854173988
-0.39694976807 0.91581445932 0.060518793762
-0.49686217308 0.86080384254 0.10869697481
-0.50894320011 0.86066496372 -0.015208070166
-0.29388225079 -0.27680972219 0.91477870941
-0.33289778233 -0.37571713328 0.86483466625
-0.23040950298 -0.36472970247 0.90157330036
0.563190341 -0.32792377472 -0.75836330652
0.55157023668 -0.21145118773 -0.80684417486
0.63751679659 -0.25776842237 -0.72596293688
0.81664299965 0.44619613886 -0.36602848768
0.84437716007 0.35469633341 -0.40147802234
0.78286284208 0.42628613114 -0.45298546553
-0.40926402807 -0.42808592319 -0.80526137352
0.58798807859 0.60883319378 0.53239500523
-0.50164395571 0.68715244532 0.52488011122
-0.56917232275 0.3249065578 0.75490599871
-0.65036815405 0.34040540457 0.6790573597
-0.6569634676 0.24884936213 0.7116445899
-0.72498387098 0.29548171163 0.62214761972
0.29764121771 -0.50668954849 0.80888402462
0.16327260435 -0.52636986971 0.83392196894
-0.46237134933 -0.59289306402 -0.65912103653
-0.34606000781 0.35543447733 0.86833357811
-0.21499209106 0.38537818193 0.89735889435
-0.26496556401 0.27209165692 0.92505609989
-0.12935042381 0.26906329393 0.9543941021
0.51689386368 -0.47248357534 0.71353280544
0.56559187174 -0.53735101223 0.62557840347
0.62549626827 -0.43464136124 0.64794677496
-0.46648785472 0.29662647843 0.83329564333
-0.43037939072 0.40053850412 0.8084295392
-0.37115848064 0.2384108752 0.89742654562
-0.15210314095 0.49771508574 0.85390073061
-0.092604883015 0.38935640454 0.91592913866
-0.035320382565 0.99193137884 0.12149018049
-0.08918171376 0.97439265251 0.20637702942
0.0099077606574 0.97704279423 0.21236538887
-0.027963126078 0.99929511547 0.022140037268
-0.11727496982 0.99209916592 0.043336987495
-0.50842499733 0.84993702173 -0.13756582141
-0.41721689701 0.90370082855 -0.095847055316
-0.44572764635 0.8650803566 -0.22838973999
-0.18882717192 -0.68706715107 0.70149207115
-0.21754561365 -0.60411304235 0.76643908024
-0.31593462825 -0.64902305603 0.6914087534
0.78793615103 0.52421349287 0.32304513454
0.82674300671 0.43730118871 0.35398602486
0.8277335763 0.49705994129 0.26022055745
0.84972286224 0.49464383721 0.18223720789
0.87681275606 0.46880036592 0.10275946558
0.8071578145 0.57217365503 0.14350397885
-0.1468911916 0.72481447458 -0.67308908701
-0.14341504872 0.8051635623 -0.57532769442
-0.079712301493 0.77632927895 -0.62514287233
0.79442644119 0.58592569828 -0.15996192396
0.76006931067 0.64592194557 -0.071184791625
0.83169460297 0.55210566521 -0.058803256601
0.71376681328 0.66748839617 -0.21204048395
0.77681446075 0.57187533379 -0.26345276833
0.6801006794 0.72475779057 -0.11038438976
0.61689484119 0.7592998147 -0.20699299872
0.60197389126 0.78994911909 -0.11663330346
0.11710377038 0.70707547665 -0.69732803106
0.0620514974 0.75331240892 -0.65470439196
0.14195518196 0.77710819244 -0.61313450336
0.047365475446 0.8237965107 -0.5646956563
0.80509859324 0.58945155144 0.064224302769
0.70643025637 0.70741683245 0.022080140188
0.65823823214 -0.4349680841 -0.61440235376
-0.11826927215 0.8791192174 0.46169492602
-0.12386998534 0.9233661294 0.36325198412
-0.22638630867 0.88912147284 0.397534132
0.21344166994 -0.81919687986 -0.53204953671
0.13424408436 -0.80668586493 -0.57549834251
0.26813599467 -0.59997284412 0.75325763226
0.37023797631 -0.57170450687 0.73191463947
0.83427023888 -0.2040796876 -0.51218879223
0.85471665859 -0.29667189717 -0.42595717311
0.79175400734 -0.32102459669 -0.51965874434
0.81593495607 -0.38726308942 -0.42923042178
0.74172741175 -0.42459198833 -0.51884156466
0.76715576649 -0.23939846456 -0.59497100115
0.71565932035 -0.36916577816 -0.59289115667
-0.074183724821 0.58939296007 0.804425776
-0.27807104588 0.96020233631 0.02142970264
0.62874013186 -0.36886069179 -0.68455922604
0.7097710371 -0.19052451849 -0.67802548409
0.76929914951 -0.15223877132 -0.62043201923
0.58057999611 0.49798288941 -0.6440950036
0.66389971972 0.47245803475 -0.57938432693
-0.68170261383 -0.45192870498 0.57488292456
-0.64636522532 -0.39263907075 0.65424227715
-0.71071666479 -0.37329396605 0.59626299143
0.57373869419 -0.36978268623 0.73077458143
0.66494184732 -0.32587835193 0.67203509808
0.78783339262 -0.56973469257 0.23360137641
0.77536815405 -0.6199144125 0.12050452828
0.83867108822 -0.52793473005 0.13383555412
-0.6101488471 0.78736567497 -0.088227003813
-0.61356371641 0.78888374567 0.031351700425
-0.67543697357 0.73666882515 -0.025857072324
-0.70336908102 0.69767397642 -0.13568796217
-0.37032428384 -0.90742129087 -0.198575899
-0.26215168834 -0.93873620033 -0.22361825407
-0.28223496675 -0.95266896486 -0.11244497448
0.4675295651 -0.14973689616 -0.87110841274
0.42539724708 -0.24723410606 -0.87023872137
0.34378364682 -0.14951312542 -0.92705029249
0.36896348 -0.038100384176 -0.92857480049
0.26550531387 -0.046914994717 -0.96279197931
[...]
CELL_DATA 3828
SCALARS cell_data_0 double
LOOKUP_TABLE default
3.01462880166e-08
3.64705645627e-08
5.2583618872e-08
7.83565200321e-08
6.62155477541e-09
4.68592754405e-11
1.63184092591e-08
7.01772854201e-09
4.40465597335e-09
1.46813277958e-08
4.47216829724e-08
4.78159273242e-08
5.83001026073e-08
2.20374514656e-08
1.06762189374e-08
3.38403856106e-08
2.63122749662e-08
1.10217061836e-10
6.25922328849e-08
4.95589336338e-08
7.88104694883e-10
6.26216525136e-08
2.81051507947e-08
8.34535900542e-09
2.66735129484e-08
4.80683464645e-08
3.48495269565e-10
3.48086765373e-09
3.57457018017e-08
1.85121117471e-08
3.53292736757e-08
9.95395728141e-09
5.81692721498e-08
4.86815177896e-08
1.17807666846e-08
2.35295403957e-08
2.67136982411e-08
4.1426137262e-10
2.82629300098e-09
5.97232197105e-09
4.08050391695e-08
2.46621283719e-08
1.55592615278e-08
6.81706132608e-08
2.88750248287e-08
3.79148096875e-08
2.54755990769e-08
5.64675712368e-09
2.84832831047e-09
2.80521901638e-08
2.23712327921e-08
1.97843822674e-08
1.95073019895e-09
1.19168395347e-08
5.09173738217e-09
3.49365841926e-08
3.87664599613e-09
2.55917197939e-08
1.10271905846e-08
9.78629466661e-09
4.15311869715e-09
4.5483744064e-08
4.56740995417e-09
6.50611456153e-08
1.97042352118e-08
2.12739325564e-08
3.49205146287e-08
1.47148685876e-08
5.15336445792e-08
3.36987571e-08
3.62909158904e-09
1.57786421038e-08
6.00574957578e-08
5.99432686379e-08
5.6135468627e-08
5.73079043641e-09
3.54979537774e-09
6.56764144148e-08
1.14182012308e-08
1.75334736472e-08
3.50362712111e-08
2.47025146448e-08
7.67736170878e-08
1.94884428548e-08
1.07132211028e-08
2.31055943283e-08
6.18748861002e-08
1.66827211599e-08
3.1733254483e-08
7.83202148899e-09
4.13537970174e-08
5.1663993888e-08
1.41775218058e-08
2.88891250915e-08
1.61948828979e-08
2.14130893135e-08
4.83048610064e-08
4.64426515646e-08
5.8491970709e-09
2.68646493711e-09
8.42647249103e-09
1.86319903524e-08
1.58943748801e-08
8.46765122947e-08
4.45260676581e-08
8.69143492641e-08
5.41587592463e-08
2.0600821587e-08
1.65261944806e-08
1.10175350163e-08
7.92596311205e-08
3.36392401812e-08
4.75171494364e-08
9.05499890141e-09
2.96867740063e-08
5.17751535424e-08
1.65634837711e-08
4.03240353141e-08
1.19051401011e-08
2.23647894053e-08
8.30338653806e-08
2.14679333912e-09
4.89536548783e-08
2.00366926211e-08
8.37242851453e-09
1.69630385632e-08
8.12116049581e-10
3.90687896534e-09
3.73650914932e-08
5.97438644692e-09
1.17500515294e-08
2.67041092848e-08
8.39169032907e-09
5.1656513639e-08
3.08036853164e-08
2.55978016795e-08
4.31286286504e-08
6.67399763616e-08
1.83592691826e-08
1.75682122568e-08
7.49196299354e-09
4.79216590172e-08
1.1230702461e-08
2.48440064404e-08
6.64499193181e-09
2.50672146601e-08
2.14964944668e-08
5.58655703927e-08
1.64885508146e-08
3.96027613745e-08
3.19466404884e-09
2.42954759279e-08
2.61237465643e-09
9.76374331665e-09
1.89406611723e-08
1.40459801983e-08
3.26596481189e-08
2.79466372829e-08
3.42673466487e-09
1.22162428776e-09
9.15114649327e-09
3.12610652351e-08
3.65576507227e-08
4.01745998008e-08
3.13888366554e-08
3.10615424878e-08
1.77040172977e-08
1.58528010536e-08
5.6500937082e-08
8.57225713934e-09
9.47387222925e-09
1.32919823136e-08
4.02492099957e-09
1.7287952405e-08
2.12859894598e-08
4.07520061146e-09
2.73425384619e-08
3.34833547576e-09
5.07674963128e-08
1.11817836e-08
3.46426535721e-08
8.53761491862e-09
1.28115306006e-08
5.72051771156e-09
2.24636094171e-09
7.87356021906e-09
7.35184627196e-10
7.44514080143e-09
2.3424973081e-08
1.08923457166e-08
3.07706273869e-08
5.6568244476e-08
2.00178143652e-08
3.54466699876e-09
2.13127834204e-08
1.47427248261e-08
6.01863598422e-09
2.84875209634e-09
1.07365423402e-08
1.72674090107e-10
3.37806313001e-08
1.5643542406e-08
6.22739392308e-09
2.73526095174e-08
1.79867989962e-08
3.94804923612e-08
1.63972582685e-08
1.21203802214e-08
1.53693798661e-08
2.04946819102e-08
4.31368122727e-09
5.57631393129e-09
3.14231181386e-09
1.47830909271e-08
1.6395276657e-09
6.22870706901e-09
4.81804426096e-08
4.46283521039e-09
1.13842107398e-08
1.05133951869e-08
2.01690835338e-08
1.34030660886e-08
1.01180964464e-08
1.92579541761e-08
2.35504176659e-08
1.09950157566e-08
2.81527101583e-08
2.45958569895e-09
2.7068665586e-08
1.67230287265e-08
5.73720015706e-09
9.7510632891e-09
2.70323967403e-08
1.88065391058e-08
5.4708327964e-08
2.78309338424e-08
1.61643876892e-08
4.57179757894e-08
2.35278037723e-08
5.35238319305e-09
8.99752901383e-09
1.25568659987e-08
4.92954048954e-08
1.69228621169e-08
2.32405347347e-08
3.09550847523e-08
3.36127967784e-08
2.06212796086e-08
2.09151045376e-08
3.15662960503e-08
4.30191158072e-08
4.24234720082e-08
5.57782654504e-09
7.0567788059e-11
4.05892529022e-08
8.39578117984e-09
3.20758597898e-09
3.87083314364e-08
2.04321061162e-08
1.81435612356e-09
2.24645421959e-08
2.27572536984e-10
2.80206593846e-09
3.27789365082e-08
3.68978526557e-08
2.00131875904e-08
3.49629500372e-08
2.97609470974e-08
2.7020008724e-08
2.27275014805e-08
8.34302798485e-10
4.75461871713e-09
1.22270747283e-08
1.1511574683e-08
6.7926405911e-09
5.82495897658e-09
3.13254731386e-08
2.73655478304e-08
2.88274293028e-08
1.80892685951e-09
1.70432392548e-08
1.9268678981e-08
2.26915807404e-09
2.3564977389e-08
6.03067472146e-09
4.23443637104e-08
9.00028202991e-10
4.49416997451e-08
1.71420197194e-08
1.40459206608e-08
1.97902744928e-08
3.78626758406e-08
1.78966209848e-08
4.17050612223e-08
1.78712084994e-08
2.87787464402e-08
2.840182717e-08
6.42827097159e-09
3.25917087138e-08
1.67517612044e-09
2.11880080936e-08
9.49819834016e-09
8.70427509506e-09
8.95963338917e-10
4.04316390405e-09
4.5233645162e-10
1.61119448792e-08
4.16011146833e-08
3.36679836157e-08
1.53307582567e-08
1.6754750009e-10
1.71701260827e-08
5.93989640756e-08
2.98764492005e-08
2.01843067927e-09
3.72025043028e-08
6.32404446498e-09
4.48849818639e-08
3.43274441614e-08
6.52399728679e-09
4.39259065775e-08
3.97329081205e-08
5.36179113409e-09
7.36253623303e-09
3.55872221299e-08
4.03189051591e-08
1.38395053635e-08
1.99225139253e-08
8.36036043897e-10
2.09460823149e-08
2.90376459095e-09
2.78383280895e-08
2.97184759925e-08
3.10819738726e-09
5.35645530742e-09
8.28774132365e-10
4.66778912969e-08
3.64187293227e-08
1.79298695615e-08
2.50369723062e-08
1.14757869203e-08
8.56132953721e-09
2.12731361252e-08
2.00126135757e-08
2.27272479989e-08
1.28616207961e-08
2.97401153742e-08
6.15378624921e-08
3.87434415445e-08
1.5295890824e-08
1.12776718423e-08
3.0606944225e-08
1.42273602691e-08
2.18362056327e-08
1.91019046562e-08
2.53923245975e-09
2.49373290124e-08
2.14441230598e-08
4.1634095869e-08
3.16770439878e-08
5.26715259053e-09
1.78409258693e-08
3.46242015865e-08
4.76649845728e-08
2.79642441991e-08
4.53440855603e-08
2.43142165481e-08
3.72247273016e-08
1.13304324092e-08
6.05341778145e-09
2.15910500544e-08
3.56955340348e-08
6.22761506683e-09
1.06768105805e-08
3.85621053295e-08
1.10511049505e-08
6.41664153979e-09
9.02580249566e-10
2.39384775667e-08
4.2838750846e-09
8.16023792449e-09
2.32824215793e-08
4.89166210336e-08
1.20577062221e-08
3.49947703942e-08
3.18948054796e-08
1.65663689363e-08
4.96578230671e-08
3.17030274461e-08
1.73963370355e-08
1.98804358345e-08
5.65840449128e-09
1.1886677143e-08
4.06618004318e-08
6.91705199169e-08
4.64785002999e-09
9.46062567764e-09
7.95852699902e-08
1.90378916341e-09
6.78244593524e-09
4.52149763424e-09
7.97845409934e-09
2.05009791445e-08
3.72785753155e-09
4.53836345386e-11
4.17121273817e-08
1.23742475052e-08
6.55189473515e-08
1.73350939908e-09
2.23776790189e-08
1.0216613874e-09
2.83888182856e-09
3.04543568663e-08
1.49767641419e-08
4.05566721044e-08
3.06814940082e-08
6.42508491118e-08
3.63395967452e-08
3.29606711353e-08
2.30958482483e-08
8.11904400044e-09
1.21574681194e-08
1.9388283793e-08
6.40184192984e-09
3.38901420474e-08
2.84017824219e-08
1.30704206288e-08
3.23213118894e-09
1.01418251324e-08
1.88498295857e-08
4.28880273816e-08
2.34189045988e-08
1.51608211607e-08
4.00358344519e-08
3.98285387561e-08
1.42461426263e-08
4.73059129261e-08
1.6747924657e-08
3.66165393151e-08
2.13077009249e-09
1.49231399684e-09
4.18464051779e-08
3.2545945871e-08
5.80488529621e-09
1.94364411328e-08
8.02327869979e-09
1.21429087487e-09
2.2346954245e-08
1.2090387406e-09
3.34627524009e-09
2.34929126069e-08
9.13871758014e-09
1.98188337411e-08
3.04353274914e-09
9.47719032455e-10
1.57433818947e-08
7.15834133643e-08
8.34975452334e-09
2.40199274073e-09
4.05739074719e-08
5.98956774397e-08
9.19848309393e-09
5.02834900327e-08
1.73643860867e-08
4.01750168921e-09
1.31369021333e-08
1.83840999029e-08
5.53181086598e-08
8.06134163948e-10
2.68019251387e-09
3.95300499803e-08
7.79688997738e-09
1.01846986917e-08
1.08222889815e-08
9.85972427382e-09
3.6968573608e-09
2.57940077413e-09
2.10434595861e-08
1.17989389633e-08
1.88018361779e-08
3.36480507604e-08
1.75268873762e-08
2.6634707736e-08
1.59263871312e-08
2.02622669993e-08
3.8637965761e-08
1.51777525909e-08
7.5379113456e-09
1.93990732266e-09
1.4661823129e-08
9.41341854887e-09
4.19777656335e-10
3.12349315968e-08
1.40340615498e-08
2.42082589963e-08
2.08322502339e-08
1.89282789922e-08
2.0975358057e-08
1.22771935944e-09
1.07520141211e-09
2.94003901975e-08
1.65458237605e-08
2.255226611e-08
4.6661612372e-08
6.14395536616e-08
8.48858464531e-09
2.68955092087e-08
7.76419171291e-09
1.37752210478e-08
3.88646453715e-08
1.83115645971e-08
2.25485963352e-08
1.87269662248e-09
7.68464078873e-09
7.32560289832e-08
9.43636918322e-09
5.32102023553e-08
6.32466704473e-09
3.28329772445e-08
2.39618239313e-08
2.64588174943e-08
4.54627563922e-09
1.48107977755e-08
2.05660156647e-08
4.37538349151e-09
1.37059480031e-08
1.60371960878e-08
1.66175469107e-08
1.32206970296e-09
1.36670978574e-09
8.32674114486e-09
2.12527797396e-08
2.32586979495e-08
6.58875100201e-09
2.52876926585e-08
2.08245817731e-08
4.77129263413e-08
2.87939833022e-08
6.96763037942e-09
6.75212892442e-09
7.81303270355e-09
3.74385627383e-08
1.28872086834e-09
1.37257605792e-10
1.08857115458e-08
4.88303398373e-08
3.91349403609e-09
1.55954397902e-08
3.84149723461e-08
9.22749238322e-09
1.76017158143e-08
5.10021510856e-09
1.81920697465e-08
4.11550329618e-09
8.31029164982e-09
2.61854675346e-08
4.1883716082e-09
6.21586708556e-10
3.41753063049e-08
8.60226351308e-10
2.6303901419e-08
2.80818471145e-08
9.34395700588e-09
2.38677439063e-08
6.67002183402e-09
1.30871793918e-08
1.66522982974e-08
1.59179389916e-08
1.01386340076e-09
3.17710230995e-08
7.63179916009e-09
1.20000062078e-08
1.88869841205e-09
1.96851787841e-08
1.65704895115e-08
1.5663199937e-08
2.43794997327e-09
2.05407685868e-08
1.07315908038e-08
2.36438528149e-08
7.21054557598e-10
5.66165980819e-09
1.58004597185e-08
8.11748328197e-09
2.43650245728e-08
1.59520794782e-08
4.17217597742e-08
3.07025950161e-08
1.03668305271e-08
2.58075976991e-10
2.08320594009e-08
7.57855251484e-09
3.16114078011e-09
1.2792843253e-08
1.13452234194e-08
1.50785579677e-09
3.37336561802e-08
3.80975742577e-08
4.00449851231e-08
5.12914802917e-08
1.27014748458e-08
1.29609887995e-08
1.92866689713e-08
2.17694888557e-08
1.33111459068e-08
1.47471500908e-08
3.02687017264e-08
5.72861937589e-09
8.3494615172e-09
2.26954552643e-08
3.29837027766e-08
6.11741906525e-09
1.43531740591e-08
2.78346466891e-08
6.48788322076e-09
8.09587674612e-09
1.37422964615e-08
5.00524853267e-09
7.0851954093e-09
5.03994543555e-08
6.65459687587e-09
7.14283315364e-08
1.10580869644e-08
5.39321115046e-10
8.74216670889e-09
3.33582985943e-08
1.27005669213e-08
1.50773730432e-08
4.53473604842e-08
1.58681552013e-08
2.33829293475e-08
1.20996103456e-08
1.22455807301e-08
1.87192264163e-09
2.2912363045e-09
2.24452087895e-09
7.79425475112e-09
9.46781590668e-09
2.58142035023e-08
1.85026738439e-10
2.88101986074e-08
1.19793953186e-08
4.45583262814e-08
2.87476154794e-08
9.52942800291e-09
1.59600906116e-08
1.152043802e-08
1.62978352039e-08
1.61748718104e-08
7.26244789145e-09
2.64994612176e-10
2.28165101035e-08
3.72318877128e-10
1.796607148e-08
7.46898931999e-09
4.4299320839e-09
1.37089736087e-08
1.38653753595e-08
2.19519245904e-08
1.70329231372e-08
1.17895195434e-08
1.05540700935e-08
1.10812416051e-08
6.10352172341e-09
9.94192450114e-09
3.89299869394e-08
1.80823930413e-08
1.42596867936e-08
9.17601860986e-09
2.19741125342e-08
1.007352533e-08
6.52093497573e-09
1.49780099085e-09
5.30898865864e-08
5.59305857208e-10
3.21938806027e-08
1.91702387267e-08
1.73757330669e-08
2.19342118307e-09
1.47162330642e-08
4.40894350072e-08
6.42426103264e-08
1.63161284215e-08
1.54583508152e-09
3.7048662787e-08
3.73832015655e-08
2.91066913394e-09
1.01467978274e-09
1.77437769908e-08
2.01168205051e-08
3.94543215359e-09
1.06393554135e-08
1.38776787075e-08
1.14339054303e-08
1.43716721589e-08
3.09898810026e-08
6.90002777057e-08
3.23474619281e-09
3.55726372076e-08
1.79152433273e-08
1.57022710341e-08
8.67653993653e-09
4.77084982588e-09
1.9320251531e-08
2.83840122133e-08
4.64424499814e-09
2.8008114625e-08
4.0242788588e-08
1.85101642026e-08
5.69323649933e-09
2.38779503339e-09
2.70484933497e-08
1.56704456574e-08
3.52144885869e-09
3.93894610484e-08
1.35792174477e-09
2.33071541469e-08
1.74361936714e-08
1.56513469163e-08
3.90505669901e-09
4.95977273303e-08
1.59114533538e-08
1.8071935569e-09
3.63321797517e-08
4.45950658694e-08
1.32642128641e-08
4.73902888311e-08
4.03667535452e-08
4.77186833393e-09
7.16868390762e-09
7.73654956478e-10
5.11503329253e-09
1.0603278503e-08
1.2099234508e-08
3.06652040246e-08
2.2777468246e-09
1.58380162405e-09
2.73786976306e-08
1.86089071464e-08
4.34405305666e-08
2.52173624487e-09
1.5818713635e-09
1.57745253252e-09
2.1734016188e-09
1.63217038716e-09
1.27749568083e-08
2.34747758609e-08
1.92017806439e-08
2.25527515838e-08
1.67313166325e-09
3.84497805641e-08
1.00951766226e-08
1.47690538879e-08
1.62680882136e-08
1.36755893174e-08
1.7139061309e-08
1.67661176329e-08
2.80673771317e-09
8.45263051532e-09
2.59288342531e-08
1.27728065202e-09
1.0986275236e-08
2.26529565186e-08
1.03863365073e-08
2.01133939462e-10
1.01702155115e-08
8.10935210007e-09
1.03240080393e-08
8.07646907088e-09
7.58967343223e-09
4.62206374082e-09
2.79994801758e-08
1.56913666566e-08
1.01856448362e-08
1.39908218627e-08
1.14424635475e-09
2.75273071324e-09
1.96731444353e-08
1.62954011258e-08
8.54546111598e-09
6.86771982275e-10
4.83731704833e-09
1.12890735617e-08
1.35269411633e-08
1.61419999239e-08
4.63161206139e-09
1.69824727456e-08
8.70669937015e-11
1.76007563214e-09
3.15193905509e-08
1.17826460817e-08
1.74341403825e-08
9.22899654222e-09
9.56590929973e-09
1.64813498281e-08
6.99869827506e-09
1.07351215345e-08
2.5085800335e-09
2.56528467312e-09
2.3353559383e-08
2.75481930462e-10
3.93546605937e-09
8.10802123415e-09
5.61425753709e-09
1.21505529067e-08
4.89054587527e-09
1.75359079564e-08
8.48565533441e-09
3.87996591648e-08
8.12022842821e-10
7.07081586472e-10
5.30510480703e-09
7.09251721363e-11
6.15361873365e-09
2.54285190478e-08
1.3785817727e-08
1.82420879908e-08
1.5919060772e-08
1.6096512106e-08
2.59213642327e-09
6.36918054081e-09
7.71000978766e-09
3.110134587e-08
3.12117031443e-08
1.38155783062e-09
1.3479946125e-08
2.29752943744e-08
2.15898977505e-09
2.00160537568e-08
4.76185697016e-10
1.28137383816e-08
2.43240638928e-08
1.40409837906e-08
1.13855152695e-08
2.10465342825e-08
1.33053961021e-08
2.72535909228e-09
1.67155275952e-09
7.41628120298e-09
8.47524916586e-09
2.85587559374e-08
1.15030105362e-08
2.80593978263e-08
1.44480843808e-08
1.44772052355e-08
5.57060250084e-08
3.99946684472e-10
1.09812801861e-08
2.04316467187e-09
2.03322788578e-08
1.45562552741e-08
2.72797492147e-08
1.27714391122e-08
3.22824944999e-08
1.68804147499e-08
2.40559084112e-09
2.12812832017e-08
1.30397128987e-08
5.52769742179e-09
2.87504707362e-08
2.22769426892e-08
1.2867566631e-08
9.49417560789e-09
1.26559329707e-08
2.54633061685e-08
1.47068068156e-08
9.41941670268e-09
3.64059788251e-08
8.63450806266e-09
4.59699858107e-08
4.17062526811e-09
4.62099745042e-10
2.81855419635e-08
9.34311992562e-09
2.9704141238e-09
5.59448270732e-09
6.9319342053e-09
2.1197319197e-08
2.9276441416e-08
1.38913052716e-08
2.16244378338e-08
1.61641063407e-09
2.26997919924e-09
2.65553376088e-08
2.52953011075e-08
1.24555032843e-08
5.38243773482e-08
3.14036478567e-08
1.85185417574e-08
3.55497047103e-09
1.87165527305e-08
3.20523369022e-08
4.03602999772e-08
5.07203321673e-09
3.70147969641e-08
2.51807240845e-08
4.47905568085e-08
7.06498198158e-09
3.37477448265e-08
6.02502608813e-09
3.16979305616e-09
1.00236955862e-08
5.05604279302e-08
2.14772736486e-08
1.36110677194e-08
1.96831944366e-08
3.20048704461e-08
9.40447260104e-09
1.08940293727e-08
6.02535025747e-09
5.56370472072e-08
1.68447978025e-08
5.53572343468e-08
4.30029407444e-10
9.94721676562e-09
2.25326398848e-08
3.04646861932e-08
6.83434587091e-09
1.65216131219e-08
6.36536248916e-09
7.53234861616e-09
1.3959759068e-08
2.49384241151e-08
3.55385187045e-09
2.61594486878e-08
4.85189178217e-10
4.06408095332e-08
7.02490415243e-09
1.08059819899e-08
3.87753810832e-09
1.2322118629e-08
2.99486021424e-08
1.3041693182e-08
1.89948355533e-09
9.13053771769e-09
3.14687650846e-09
1.11909623091e-08
4.34258945607e-09
3.84165898919e-08
7.72630125657e-09
1.29616118408e-08
6.55757948985e-09
2.10660654647e-08
5.91367159696e-08
1.69275637029e-09
1.44621428627e-08
1.32206645442e-08
6.20643547753e-09
5.33421580565e-09
3.47964258932e-08
2.76994224516e-08
3.4098613443e-08
8.53068966595e-09
6.9719417378e-09
9.55300775398e-09
6.10361498939e-09
3.25609200709e-09
4.7893261499e-08
6.56307918469e-08
5.71059531686e-08
3.14567680032e-08
2.46709144654e-08
3.12737726041e-08
1.57426710823e-08
4.52671355889e-08
2.32978463691e-08
4.23700829512e-09
2.40863684295e-08
1.07492155359e-08
1.45212011139e-08
7.58412927658e-09
3.45223648647e-09
1.12803055372e-08
2.16727956205e-08
5.23135694267e-09
1.0127323419e-08
1.52317917463e-09
2.09769972791e-08
1.62606050406e-09
7.1333316853e-09
2.7838389914e-10
7.79971638151e-09
6.51558627372e-09
1.93600289532e-08
1.04928434578e-08
1.14403512479e-08
2.4384841726e-10
8.22611193711e-09
1.53496719451e-08
1.03336773252e-08
5.21129666909e-09
3.62973761645e-09
4.56368246986e-09
2.35336332942e-08
6.4235107785e-09
9.79257004164e-09
2.45922345363e-08
2.57180873297e-09
7.17765458221e-09
2.39074733878e-10
4.88346203446e-10
1.55076265657e-08
4.91000302077e-09
3.12274053929e-09
5.39443281247e-08
3.92573581506e-08
1.31834582505e-08
1.30075744563e-08
1.81589976504e-08
2.69439199434e-08
5.67674808831e-09
7.53808176932e-09
2.46493289784e-09
5.50854338885e-09
1.1420129186e-08
1.59935961863e-08
7.12519442351e-09
3.59686583193e-10
1.02794938551e-09
1.26175855255e-08
4.94457420607e-09
9.5895964583e-09
1.49614580452e-08
2.37106857375e-08
2.26456777952e-08
1.66955007021e-09
4.84735161785e-09
2.31670365168e-09
2.31212813734e-08
6.2403604026e-10
1.86632496986e-08
2.10131864912e-09
1.8921958278e-09
3.42089987065e-09
2.32830441712e-08
1.19083544406e-08
1.33304015205e-08
2.37205568978e-09
1.88454046991e-08
1.29823022141e-08
5.53982548596e-09
2.87565547025e-09
1.62576132161e-08
1.50743376875e-08
1.44191576525e-08
4.20224885123e-09
1.03928953253e-08
7.27326554554e-09
6.36600983606e-09
2.32541383768e-08
4.08987567969e-09
1.51177805174e-08
1.23738806406e-08
2.77809839648e-08
1.57061230229e-08
1.02272775654e-08
3.07572801865e-08
4.64086279535e-09
1.73032738532e-08
1.33686066273e-08
6.05475307039e-10
3.3854419377e-08
1.65711635351e-08
4.58629915534e-09
2.73753898549e-08
3.33499987013e-08
4.67067682654e-08
1.95966559553e-08
2.66474610549e-08
1.19836325013e-08
1.75795101344e-08
6.37460465738e-09
1.48391526126e-08
2.04048451752e-08
3.49316397885e-09
1.93111178456e-08
4.20079536623e-10
6.7283100781e-09
3.60719848562e-08
4.5329808436e-09
9.60661795751e-09
1.22060687472e-08
7.33142129261e-09
2.32911193098e-09
2.96663576056e-08
5.64331217368e-09
3.94247465885e-08
2.16058805234e-09
1.86998616781e-08
2.16648752913e-09
1.18996609465e-08
1.57483518274e-08
1.14179135749e-08
2.56931885744e-08
2.56846098866e-10
1.94149102944e-08
2.72187131829e-08
2.9941201301e-08
4.65595905319e-08
6.0448547404e-09
2.52852661239e-08
3.7998129753e-09
3.96532369083e-09
5.66880224414e-09
3.62501011353e-08
4.62391685111e-09
3.29397531048e-08
4.0679002521e-08
1.52617771595e-08
1.52262691608e-08
1.40124435135e-08
1.75399948575e-08
6.10032822929e-09
2.06308607397e-08