# vtk DataFile Version 3.0
File Name: Molecule/sphere_cent/sphere_cent_0-s21.vtk
ASCII
DATASET UNSTRUCTURED_GRID
FIELD FieldData 1
TIME 1 1 double
0.0
POINTS 955 double
-0.51748466492 0.67631489038 0.52415883541
-0.49289825559 0.59124410152 0.63829374313
-0.37403941154 0.71090060472 0.59555119276
0.018303530291 -0.55907732248 0.82889354229
0.088688857853 -0.44199076295 0.89262139797
-0.066928856075 -0.39349815249 0.91685289145
-0.032503701746 -0.23880052567 0.97051805258
-0.16905045509 -0.24112246931 0.95560586452
0.24626986682 -0.49492970109 -0.8331283927
0.17341287434 -0.6448906064 -0.74434167147
0.069918647408 -0.54844474792 -0.83321428299
0.12942354381 0.86651194096 0.48180657625
0.27467769384 0.7982608676 0.53594130278
0.26315197349 0.87311428785 0.41033738852
0.4137378335 0.8007632494 0.43312555552
0.34401398897 0.88283771276 0.31934031844
-0.90179783106 0.22910061479 -0.36625754833
-0.96533209085 0.10099785775 -0.23850306869
-0.94253945351 0.27483478189 -0.18937394023
-0.43465179205 -0.72242230177 0.53759151697
-0.34846568108 -0.66120159626 0.66439032555
-0.5390162468 -0.58770722151 0.60319685936
-0.26090154052 -0.7737198472 0.57701694965
-0.17374067008 -0.70639926195 0.68611812592
-0.48994001746 -0.40001529455 0.77418828011
-0.43457615376 -0.26989477873 0.85923355818
-0.54954975843 -0.24254240096 0.79939490557
0.33654218912 -0.90328979492 -0.26513925195
0.16602231562 -0.9280256629 -0.3305798769
0.31768018007 -0.84876662493 -0.4225782752
0.23439370096 -0.95648497343 -0.17311549187
0.55278408527 -0.81861662865 -0.15288415551
0.52798062563 -0.84898263216 0.013532793149
0.41154494882 -0.90373295546 -0.11726035178
0.1435765177 0.23913443089 -0.96030265093
0.28028985858 0.11756466329 -0.95264798403
0.12788768113 0.088747225702 -0.98761516809
0.95737910271 0.16086028516 0.23961405456
0.8963637948 0.26405724883 0.35605078936
0.91591900587 0.077360711992 0.39383366704
0.83290416002 0.16170528531 0.52926439047
0.80638951063 0.32905298471 0.49137741327
0.83725035191 -0.019786700606 0.54650270939
0.82850748301 0.43706855178 0.34901732206
0.9436417222 0.30119401217 0.13673985004
0.78258222342 0.55640345812 -0.27908375859
0.71432548761 0.54774898291 -0.4355071485
0.67215162516 0.65309220552 -0.34827026725
0.048998467624 0.8534733057 -0.51878380775
0.16727767885 0.91006785631 -0.37892016768
0.29324948788 0.82290148735 -0.48661059141
0.33862963319 0.89938926697 -0.27451583743
0.44570228457 0.81992650032 -0.35888209939
0.70438092947 -0.70072573423 -0.11194036156
0.63229781389 -0.72897237539 -0.26083689928
0.63815432787 0.70182162523 0.31622380018
0.7554847002 0.60689914227 0.24442926049
0.69190824032 0.70395302773 0.16025537252
0.8003885746 0.59578543901 0.06515609473
0.72362011671 0.25557997823 0.64108037949
-0.91187340021 -0.2094090879 -0.35217678547
-0.85489630699 -0.19561934471 -0.48039266467
-0.87413012981 -0.30246341228 -0.38000896573
-0.92510569096 -0.092663504183 -0.36653387547
-0.65623664856 -0.53929853439 -0.52772551775
-0.76003068686 -0.4729155004 -0.44567102194
-0.7178503871 -0.39701715112 -0.57189422846
-0.66680490971 -0.61842048168 -0.41580659151
-0.8095318675 -0.32516568899 -0.48867499828
0.31812888384 0.55083531141 -0.77157711983
0.27944457531 0.69281131029 -0.66441214085
0.39745596051 0.61044365168 -0.68506395817
0.40061223507 0.70067995787 -0.59023374319
0.70186430216 0.71204906702 0.017110573128
0.15104244649 0.53671985865 -0.83008104563
-0.0049100005999 0.51835250854 -0.85509938002
0.047629076988 0.63537824154 -0.770642519
0.088645987213 0.39452916384 -0.91457504034
0.25155106187 0.44063457847 -0.86091947556
0.74772369862 0.062373109162 0.66105300188
0.73064172268 -0.12701104581 0.67011779547
-0.28333756328 -0.52189767361 -0.80452555418
-0.41423767805 -0.39878055453 -0.81806665659
-0.29173079133 -0.36876222491 -0.88228440285
-0.53210490942 -0.41959956288 -0.73536741734
-0.5337716341 -0.2974408865 -0.79136544466
-0.15078520775 0.2557053864 -0.95434874296
-0.082646951079 0.38262596726 -0.92018282413
-0.0029476608615 0.26769647002 -0.96325963736
-0.25701576471 0.34248772264 -0.90331810713
-0.16603371501 0.48538947105 -0.85837882757
-0.30837979913 0.15639084578 -0.93836903572
-0.39473313093 0.26305785775 -0.87972015142
-0.23774407804 0.21413652599 -0.94685208797
-0.10808439553 -0.55294394493 -0.82607108355
-0.17629691958 -0.66877835989 -0.72224748135
-0.0091512547806 -0.64867848158 -0.76061689854
-0.39297425747 -0.26355415583 -0.88078892231
-0.81903856993 0.35461089015 -0.45093438029
-0.80361026525 0.23300208151 -0.54740697145
-0.87099814415 0.083065137267 -0.48267844319
0.25827434659 -0.023618202657 -0.96577060223
-0.19853381813 0.59360551834 -0.77947568893
-0.29012045264 0.52443909645 -0.80028909445
-0.7559184432 -0.23429593444 -0.61124098301
-0.8408138752 -0.076077647507 -0.53567111492
-0.80466628075 -0.51218080521 -0.30016610026
-0.8406547904 -0.40075802803 -0.36394664645
-0.65572470427 -0.18766765296 -0.73119717836
-0.70716065168 -0.11892814934 -0.69678646326
-0.65116530657 -0.35639926791 -0.66996955872
-0.6119120717 -0.47219249606 -0.63451677561
0.69190490246 -0.57993364334 -0.42967259884
0.55665689707 -0.63573694229 -0.53476494551
0.63118457794 -0.52785146236 -0.56827604771
0.50192290545 -0.5551623106 -0.66318839788
0.42857348919 -0.66529035568 -0.61131250858
0.56530594826 -0.44391164184 -0.69515156746
0.58296555281 -0.70192044973 -0.40921810269
0.45941129327 -0.74479973316 -0.48394808173
0.48864409328 -0.79708832502 -0.3529971838
0.43357333541 -0.44767466187 -0.78203701973
0.35305511951 -0.58001607656 -0.73409992456
-0.42865967751 -0.69631874561 -0.57560127974
-0.46666741371 -0.76976805925 -0.43546068668
-0.56167191267 -0.67068439722 -0.48440825939
-0.59249466658 -0.71877253056 -0.36344254017
-0.021474845707 0.96909493208 -0.2457279563
-0.0068149436265 0.92328590155 -0.38403385878
-0.14560398459 0.93922227621 -0.31070181727
-0.11674755812 0.88255757093 -0.45474112034
-0.049766715616 -0.88191789389 0.46852770448
0.050206605345 -0.8249937892 0.5625653863
-0.080842368305 -0.78892815113 0.60903441906
0.012168694288 -0.71615123749 0.69778996706
0.45774132013 -0.27281609178 0.84546303749
0.50150752068 -0.14431062341 0.85293424129
0.38994431496 -0.21631596982 0.89500021935
-0.11386403441 0.87571161985 0.46868738532
-0.23659548163 0.88198029995 0.40721490979
-0.21080723405 0.80461835861 0.55496901274
-0.10517073423 0.68739545345 0.71863073111
-0.09762378037 0.77219986916 0.62734925747
-0.23215651512 0.70791870356 0.66705602407
-0.86825543642 0.48675751686 0.095422178507
-0.80566465855 0.55696552992 0.2016120553
-0.77741342783 0.62374603748 0.0806998685
-0.89453792572 0.39303672314 0.21260017157
-0.68516123295 0.72016972303 0.10917298496
-0.71186035872 0.66617751122 0.22226859629
-0.54743635654 -0.052061986178 0.83473938704
-0.48069727421 -0.141053617 0.86545175314
-0.43569710851 0.0010649980977 0.90008419752
-0.36241057515 -0.11340379715 0.92507356405
-0.31659156084 0.049783810973 0.94676584005
-0.59508192539 -0.13243721426 0.79230725765
-0.84898912907 -0.52827119827 -0.00012819562107
-0.89255601168 -0.44320198894 -0.082734026015
-0.83321040869 -0.53189712763 -0.15095764399
-0.85913467407 -0.44407224655 -0.25432220101
0.5430675745 -0.82468181849 0.15801154077
0.42381560802 -0.89668321609 0.12763686478
0.35759744048 -0.9000737071 0.24892303348
0.25508436561 -0.95283168554 0.16468831897
0.99539083242 0.027157021686 0.089220561087
0.96887820959 -0.0049226256087 0.24744039774
0.988253057 -0.096276059747 0.11561774462
0.95194137096 -0.16326120496 0.25905495882
0.91099584103 -0.095549613237 0.40118825436
0.88066065311 -0.26774704456 0.39083087444
0.83477187157 -0.17090393603 0.52336764336
-0.73447579145 0.58455526829 0.34473970532
-0.62827754021 0.64605736732 0.43345165253
-0.62200051546 0.7155226469 0.31798061728
-0.52416354418 0.74953746796 0.40426725149
-0.50120091438 0.81868755817 0.28028205037
-0.70196896791 0.52625221014 0.4798669219
-0.60317772627 0.58894991875 0.53785467148
-0.63420981169 0.48617818952 0.60110723972
-0.71970689297 0.39830341935 0.56848829985
-0.79237210751 0.44920226932 0.41258490086
0.16943672299 -0.54092568159 0.82382291555
-0.095963299274 -0.11158941686 0.98909598589
0.37978985906 -0.57783222198 0.72227478027
0.26118296385 -0.61054772139 0.74768161774
0.32843309641 -0.67204189301 0.66349869967
-0.52420079708 0.085883334279 0.84724342823
-0.56126624346 0.20485211909 0.80188423395
-0.64601558447 0.089536428452 0.75797218084
-0.43563485146 0.1932849735 0.87838751078
-0.75489270687 0.092934057117 0.64907157421
-0.66329681873 0.22627957165 0.71331095695
0.037126187235 0.018273277208 0.99908328056
-0.10603369772 0.020262476057 0.99413579702
-0.22824198008 -0.089953824878 0.96943223476
0.13446563482 -0.64886653423 0.74889290333
0.23418179154 -0.70817786455 0.66603213549
0.31020671129 -0.49603882432 0.81096941233
0.83823215961 -0.43571662903 0.32589733601
0.79225182533 -0.38538712263 0.47283285856
-0.82794553041 0.47104528546 0.30429828167
-0.87485778332 0.33452704549 0.34985247254
-0.60474091768 0.77239584923 0.19416204095
0.43907636404 0.70948028564 0.55120700598
0.55445921421 0.70379322767 0.44405570626
0.57188236713 0.61686486006 0.54069548845
0.67856806517 0.59434503317 0.43049129844
-0.33349502087 -0.62156450748 -0.70880532265
-0.29318708181 -0.71993619204 -0.62900835276
-0.32992067933 -0.79635220766 -0.50678426027
-0.19075614214 -0.79926770926 -0.56987863779
-0.19387641549 -0.87133479118 -0.44980603456
0.77150166035 0.2026771903 -0.60236179829
0.68974745274 0.27076718211 -0.67149418592
0.72389656305 0.347530514 -0.59582060575
0.71168369055 0.13593101501 -0.68913120031
0.63474857807 0.40914288163 -0.6554633975
0.92477369308 0.35304352641 -0.13624110818
0.87615579367 0.41121676564 -0.25127670169
0.86524456739 0.4761493206 -0.15639196336
0.87259548903 -0.35902041197 -0.33095985651
0.89422339201 -0.39112797379 -0.2165184021
0.80708920956 -0.47804784775 -0.34639528394
0.74080049992 -0.4550408721 -0.49413815141
0.33783537149 -0.75816136599 -0.55771899223
[...]
CELL_DATA 1906
SCALARS cell_data_0 double
LOOKUP_TABLE default
8.2246281311e-08
1.43818677182e-07
2.30326156722e-08
1.90255011855e-08
1.77378231215e-08
4.70286308417e-08
2.68167941943e-08
2.62343888407e-07
1.47438053679e-07
9.69197512502e-08
2.45527813586e-08
3.06097357368e-08
1.4821194078e-07
5.27003335032e-08
9.69745797045e-08
3.46305492312e-08
1.15494911885e-07
9.76119794478e-08
9.14566123106e-08
1.6433441526e-08
2.07686265645e-08
1.47446084994e-10
1.57257393179e-07
9.60996937544e-08
1.50095141036e-07
1.33809776933e-07
9.97989649221e-08
1.2973609615e-07
5.38890694334e-08
2.28028984566e-08
6.11874089482e-10
7.24386212462e-08
8.57644642355e-08
1.85706310454e-08
3.70271196655e-08
2.97340336364e-08
4.60824795947e-08
2.48483897781e-08
8.62076811347e-09
5.0282958425e-08
3.83758783299e-08
7.00416602368e-08
9.60496760164e-08
7.69044440559e-08
2.12462691724e-07
6.9633245068e-08
2.74916668252e-09
2.02506755551e-08
4.99927991407e-08
5.92544612056e-09
5.53493899784e-08
4.7909521873e-08
1.00009817336e-07
7.35625784513e-09
4.72936687602e-08
1.21251613526e-07
1.18360467671e-08
4.06670783454e-08
4.46894595641e-08
1.99190533563e-07
9.71744985324e-09
8.53748168495e-08
1.63917661652e-08
6.81181639951e-08
5.23946728604e-08
8.70201397945e-08
6.62578030067e-08
3.21955937825e-08
1.26956905384e-08
8.83903633575e-08
3.30241286661e-08
1.73865829412e-08
4.02749824002e-09
1.11863889338e-08
5.502707559e-08
7.06038376178e-08
9.88260997624e-08
5.0360671333e-08
1.25028929863e-07
6.0547119188e-08
7.8043749168e-08
2.89896266043e-10
2.34262932389e-08
9.58541817074e-08
5.98577710396e-09
5.67675149389e-08
7.76086482817e-08
3.05860120943e-08
6.22364501408e-08
9.63186648166e-08
1.00312278503e-09
5.28126454926e-08
6.88213346201e-08
5.26932574929e-09
6.41254321894e-08
5.83502894738e-08
1.21910122467e-08
7.8721401812e-08
3.70040906413e-09
4.33969801513e-08
4.19753986692e-08
2.98385353868e-08
4.27460240188e-08
7.26684695865e-08
2.47641582656e-08
4.78260469812e-08
5.77029744048e-08
8.79327907512e-08
2.33551129272e-08
2.0004824726e-07
1.43846397971e-07
3.84535917107e-08
2.41220308022e-08
1.12163520226e-08
1.51345616632e-09
3.14047935991e-08
2.21325161077e-10
4.21356152905e-08
3.03984560677e-08
2.34414713447e-09
6.01775370608e-08
7.81874774904e-09
1.13081714366e-07
3.92264508924e-08
5.57990644296e-08
1.02328727701e-07
1.71204255671e-08
6.17249902969e-09
2.60724126747e-09
9.12851117466e-09
4.69084949034e-08
4.47106838665e-08
1.01711286308e-07
3.43683653672e-08
2.50177023562e-08
3.75714455531e-08
5.59578643379e-08
1.51292762477e-08
6.330128232e-09
2.9555071613e-08
1.4076830736e-07
2.92214378354e-08
6.93867910254e-08
6.00285467896e-08
4.6049942901e-08
3.52333438945e-09
6.03823789079e-09
1.18142305188e-07
2.56432200355e-08
6.8987492356e-08
2.55984830753e-08
3.62168371909e-08
3.14968527641e-08
2.65085584729e-08
1.04089949998e-08
3.03863757641e-09
1.19274101391e-08
8.41852756997e-08
5.45263966859e-08
6.40238833275e-08
9.15344590899e-08
1.46343691844e-08
3.39213672783e-08
6.82437057334e-08
1.05740089702e-07
1.99584994002e-08
3.68229271384e-08
6.35171309376e-09
4.47291254704e-09
1.15356451963e-08
1.12982638963e-07
8.60718236335e-08
9.07320207926e-08
3.23179761184e-08
4.61111611368e-08
1.12143550356e-08
1.66279577072e-08
8.39246825759e-08
4.34916226016e-09
1.47720993094e-07
1.19051684687e-07
4.99310113133e-08
2.39759796274e-08
1.84141154978e-08
5.01394717161e-08
5.75878433497e-08
2.59353575988e-08
7.87149664543e-08
3.30806384735e-08
1.47663049546e-08
5.18720985779e-08
8.00729872915e-10
2.0607603192e-08
5.18312102562e-08
3.9463258345e-08
6.90527682229e-09
3.19281974431e-08
2.34969027228e-08
1.16176101187e-07
1.23341140955e-08
7.61223820105e-08
1.07413037945e-08
1.0009887624e-07
1.24091975388e-08
2.88859873192e-08
2.16393332492e-08
5.87247346275e-08
4.77782744235e-08
6.30323882908e-09
4.1159107724e-10
3.88473178104e-08
5.64188012344e-08
7.91536712598e-08
3.4735017449e-08
1.73798920276e-08
7.25732184872e-08
2.67449296028e-08
4.72122532099e-09
1.2590095064e-07
4.16874027096e-08
6.03138549499e-08
2.03598505429e-08
9.2227363698e-08
8.60690804012e-08
9.64869450213e-10
2.63622236222e-08
5.32620072335e-08
3.02544802937e-08
7.12733067196e-08
6.06239417116e-08
2.91944019162e-08
7.52383715464e-08
3.54600847417e-08
5.67596112185e-08
2.76177249373e-08
7.72498738616e-08
1.3895581362e-07
2.20166568361e-09
3.02540608506e-08
3.929107461e-09
6.78502245692e-08
2.94198865449e-08
6.92056902325e-08
6.19361598977e-08
2.02221090683e-09
3.68663509596e-08
3.34116529776e-09
1.8709921586e-08
3.21554541934e-09
3.60600576484e-08
1.07850916434e-08
7.95160911843e-08
8.844997503e-09
3.67374344346e-08
3.34895557767e-08
1.09280256608e-07
1.45802585754e-08
5.13098132147e-08
7.18596163102e-09
1.41404123075e-07
4.34387177604e-08
5.92078624731e-08
3.98214563717e-08
5.6323532292e-08
1.95201126625e-08
1.60556663576e-08
1.07951787673e-09
2.93564897999e-08
3.54432492877e-09
1.82490124326e-08
1.88181900023e-08
3.89427832681e-08
1.47500679152e-07
2.31376683308e-08
6.82565167127e-08
6.3981230176e-08
6.9171227772e-08
7.89593829691e-08
6.99827228147e-08
6.9082080086e-08
2.6637340802e-09
4.3086947966e-09
1.60467414118e-08
7.25779258336e-09
1.22973322609e-08
1.1898428983e-07
2.97276595017e-09
1.88506753295e-08
2.69822280025e-09
1.34353547416e-08
4.50085066201e-09
3.05067618294e-08
1.72406349942e-08
1.56954859296e-07
1.39178484515e-09
8.51531571786e-08
3.63000062084e-08
3.8528643853e-08
3.50617400759e-08
6.20078213388e-09
3.17284498534e-08
7.06713708734e-08
1.11439997394e-07
7.44896596028e-08
2.48364098538e-08
2.61476909201e-08
6.0051362295e-08
3.25209452215e-08
7.68455390214e-09
7.78406734553e-08
3.2730873843e-08
2.62964647798e-08
1.20910218975e-07
3.29421620307e-08
2.58082859879e-08
2.36593106084e-08
1.18218635438e-08
1.19982472102e-08
6.45176499539e-08
1.17122033761e-07
4.82177354252e-08
9.81284466798e-09
4.92530536732e-08
1.0066049802e-08
8.0375615719e-08
2.19643905177e-08
2.01559821844e-08
5.88730962254e-08
1.18435540422e-07
7.22068104788e-09
4.20902737566e-08
6.46610897881e-08
2.06389210203e-08
4.02697055785e-08
1.62623679502e-08
1.20423319695e-09
3.79045151006e-08
3.35251804809e-08
1.92470790101e-08
2.79646515177e-08
3.53895793584e-08
1.00179940518e-08
2.6052633977e-08
6.98038233676e-09
4.53655209724e-08
6.50182665147e-08
1.09850828989e-07
2.53860679011e-08
3.1491536539e-08
3.31481015749e-08
2.30922796791e-08
5.28822020091e-08
2.46110899324e-08
6.93858923811e-08
6.74227168501e-10
2.21628863015e-08
3.3086508972e-08
3.14261350031e-08
2.31305815013e-08
3.1224946473e-08
1.74627983775e-08
7.98776395101e-08
6.71391293087e-08
8.62838572262e-08
1.72731674342e-08
1.83734832463e-07
3.19716146245e-08
2.98933178903e-08
8.32667881528e-08
1.40178734298e-07
9.6886082067e-08
7.20601427171e-08
6.30030907475e-08
7.03164308401e-08
1.26560224286e-08
6.28431569878e-08
7.59013235189e-08
2.03292607181e-08
7.12812566011e-09
6.39755589124e-08
1.04579561445e-07
6.95531488971e-08
5.0318406498e-08
1.89740893466e-07
4.85356076865e-08
2.94520605564e-08
1.00569076787e-07
1.23036286239e-09
1.92031851358e-08
2.26238780845e-08
8.1011235104e-08
9.0417745408e-08
1.03084373273e-07
1.7487399769e-08
5.24931939679e-08
3.3573708127e-08
2.64528483072e-08
9.84038121829e-08
3.60660230022e-08
3.61538129543e-08
7.55491046226e-08
1.8151767715e-07
4.94016593445e-08
6.39854767219e-08
1.02655105004e-08
4.69321252435e-08
1.91074800998e-08
3.57800416637e-08
4.37837101014e-08
3.16375219534e-09
1.21115976338e-08
1.85559976302e-08
4.53735004523e-08
6.78435895275e-08
8.12559534896e-09
6.31783201977e-08
5.79352316988e-08
2.7531527023e-08
5.79588363432e-08
8.14330524072e-08
4.40343156196e-08
7.52931875839e-08
1.04950872548e-07
4.18050805484e-09
6.24970191543e-09
4.47035135033e-08
2.11461911249e-08
1.4775234823e-07
6.4541430491e-08
6.10327183907e-08
8.00752351889e-08
4.15683380461e-08
2.76385881319e-08
8.59153544079e-09
3.0216744411e-08
4.61973334687e-08
3.14876069186e-08
4.1131616288e-09
7.2987527943e-09
6.32236567821e-08
2.02718357673e-08
2.78526755673e-09
1.38904247798e-08
2.55156144603e-08
4.54482522826e-08
2.37976993362e-08
1.70433933643e-08
3.32820527014e-08
7.34327162412e-08
2.50807995877e-08
9.37288646667e-08
5.42685386735e-08
9.23685813009e-08
9.86711042703e-08
3.60394858996e-08
6.02763925961e-08
6.57628911665e-08
2.60842898794e-08
7.17134899411e-08
3.53537332047e-08
4.58624355926e-08
1.12801357203e-08
8.57574280707e-08
1.26158309027e-08
6.95186222441e-08
3.7230795082e-08
2.68020862845e-08
1.38429623051e-08
6.36154786912e-08
3.01206446424e-08
4.92868843375e-09
3.77284744933e-08
3.20699629997e-08
5.93524766211e-08
4.49195471918e-09
9.29855467357e-09
4.59950488097e-08
3.38591567072e-08
9.23183918699e-09
9.3550756222e-08
2.66266398185e-08
3.11872069059e-08
2.30816566869e-08
1.5255063836e-07
1.13576778574e-07
1.1747033896e-07
1.65199463475e-08
1.26098734153e-10
6.95867510078e-08
7.02874843028e-08
2.02736953693e-08
5.35222392176e-08
1.62794395331e-08
9.28594322037e-08
1.4107335785e-07
4.93408295638e-08
1.64426488366e-08
1.88827871547e-08
5.5923188181e-08
4.15648634593e-08
3.77766426523e-08
7.13538675816e-08
2.75602324027e-08
5.43456386116e-09
2.16491740559e-08
7.42210984769e-08
9.60967738117e-08
7.30748793543e-10
6.70868056975e-09
1.04188657644e-08
1.26947856031e-08
4.90198482277e-09
9.24217032611e-09
2.13308517744e-08
1.2083311355e-07
5.87674686791e-08
1.15155491094e-08
3.7023753408e-08
1.67264774284e-08
3.52211930266e-08
1.05299515601e-08
1.17893429073e-07
3.62024451324e-08
4.22805906453e-08
2.17530167753e-08
7.60343861576e-08
5.78408715534e-08
6.59523625316e-08
1.89955943248e-08
7.20003035221e-09
5.01169650099e-08
1.38523531312e-08
7.58632445822e-10
6.72867177012e-08
5.36940038621e-08
7.41295557097e-08
2.31507843235e-08
5.39915229526e-08
3.71088626861e-08
5.17961538028e-08
6.68780107689e-09
2.85152802111e-08
1.89173587611e-08
1.9984198528e-08
3.48079221934e-08
3.50001873162e-08
5.79004755998e-08
3.503608144e-08
5.45612865855e-08
5.70339020524e-09
1.02851212148e-07
5.7694853089e-10
6.16264652302e-08
2.27947393429e-08
3.22983986866e-08
8.13501209045e-08
2.4096360657e-08
3.21141020979e-08
9.00923743439e-08
4.34966897365e-09
4.34261637333e-09
6.15712043194e-10
4.75631867312e-08
4.5978422723e-08
3.33138227188e-08
1.17285119634e-07
2.59335130785e-08
1.29113370409e-08
4.25497502049e-09
7.19302878266e-08
9.01419555127e-09
1.40884312225e-09
4.48851176759e-08
9.86797375993e-09
3.85671974256e-10
2.90605299173e-09
4.90258805839e-08
1.52714599741e-08
3.0241113386e-09
1.64116753321e-08
1.48905896457e-08
4.25750068807e-08
1.46377244008e-08
2.58420174753e-09
1.84102255291e-09
5.52818152438e-08
4.79433528794e-08
3.69907348291e-08
7.95561815226e-09
2.79447289778e-08
2.32434622002e-08
6.94792047369e-08
4.41185637077e-08
1.00097457289e-08
1.59814151772e-08
1.60405054413e-08
1.39831642268e-07
1.0018335799e-08
1.76991961743e-08
4.65240029585e-08
2.49413738819e-08
3.09079169581e-08
2.89932691067e-09
4.18544670502e-08
8.98405915035e-08
2.98614955102e-08
4.8393447199e-08
2.77896044279e-08
1.03196351845e-08
1.56118241103e-08
3.06613098201e-08
3.36115833745e-09
4.58318490026e-08
5.23271327292e-08
6.26954256032e-09
6.86787311672e-08
2.55607184012e-08
9.74096504398e-08
6.24449539589e-08
9.66332503886e-09
3.95832908257e-08
3.78527162144e-08
1.03821877531e-08
8.61469912379e-09
2.19022085321e-08
7.44937019694e-08
1.75846890876e-08
1.24593997276e-08
8.9391351361e-08
1.79246659706e-09
9.1888632074e-09
1.05358863229e-08
1.35426957352e-08
7.35597665508e-09
6.76973432137e-08
1.80750447086e-08
3.88863205435e-08
4.17974334214e-08
2.44882234419e-08
1.64958952482e-09
2.38677982081e-08
3.22374556825e-08
3.41900657281e-08
1.21430661161e-08
1.30661088096e-08
3.15074974984e-08
2.21291130693e-09
2.18255707878e-08
3.97223984497e-08
2.24314734452e-08
1.73227943112e-08
3.060152626e-09
1.33293958418e-08
3.92282432635e-09
1.28681244398e-08
8.23859958934e-08
7.27741018909e-08
8.8067269188e-08
1.82383783051e-08
1.79653824249e-08
9.9975566057e-09
1.94705477157e-08
8.40378478906e-08
3.86889518616e-08
2.94187800853e-08
2.34394081161e-08
4.89348653743e-08
4.2210729432e-08
6.11226682222e-08
3.60327597266e-08
6.98064569343e-08
7.8891971821e-09
9.0069516862e-08
5.37412099009e-08
1.16130072688e-07
1.1970742094e-07
8.95906835238e-09
4.43164407554e-08
1.30436199367e-09
6.59274912209e-08
5.38164359835e-08
7.80892684996e-08
1.42890297606e-08
2.09939110377e-08
9.25960235016e-09
6.30864368839e-09
5.13852864221e-08
2.32293147735e-08
4.49479448385e-08
3.19361164865e-08
3.30784118121e-08
2.64561307895e-08
2.39284692639e-08
2.51357134665e-08
5.86147253571e-08
5.22383002661e-08
5.2300152947e-09
5.74113279481e-09
6.04628311068e-09
2.62536859594e-08
4.04743508928e-08
3.48956795276e-08
6.36721122422e-08
5.19492518553e-09
2.04247086661e-08
3.66463113932e-08
1.7561775571e-08
1.79095633908e-08
2.79469131869e-08
9.48523819052e-08
9.71763590064e-09
1.28975374809e-08
1.90553661931e-08
2.4606242141e-08
6.40924236083e-08
9.10898863961e-08
3.37896753997e-08
3.71923455456e-08
6.25035245945e-08
2.53525004524e-08
8.0871260153e-08
6.11678180525e-08
1.27570788977e-07
2.46948726512e-08
1.8313360907e-08
4.53001393652e-08
3.90002495413e-08
5.6545756956e-08
5.688501551e-08
2.0561698448e-09
5.43764348307e-08
4.02012025751e-10
5.87702906844e-08
6.98191187404e-09
5.51260255228e-08
2.76065900156e-08
1.31832963824e-08
2.1725174574e-08
6.90431677109e-09
4.56638811999e-08
6.25349243996e-08
3.04946084642e-08
3.88312096061e-08
2.67409399547e-08
2.5751410295e-09
5.36934252373e-08
9.18873357009e-08
6.42591360812e-11
2.32721193871e-08
5.20509426489e-08
1.00462170562e-09
1.79903146735e-08
2.13017740611e-08
8.2048798966e-08
2.64366688938e-08
5.03123195989e-08
3.21464423797e-09
1.9519132303e-08
6.01635906693e-08
1.41795742892e-08
7.73322055466e-08
1.44605463503e-08
4.27676672109e-08
1.55931395751e-08
2.69917933543e-09
2.33945500612e-08
4.56319491224e-08
1.76274410053e-08
2.82561744449e-08
1.38249197866e-08
7.5770127882e-08
5.42331992913e-08
1.2004306178e-08
2.45505388857e-08
3.43720047709e-08
6.03908046058e-08
2.30489733584e-08
9.10744057596e-09
1.76977724487e-08
1.85544102582e-08
1.38883584515e-09
2.44866328629e-08
2.48780060525e-08
1.2092954964e-09
2.07033487083e-08
3.67960554587e-08
7.11889396993e-08
3.3777299909e-08
1.07983512142e-08
1.39229718305e-08
1.22326825231e-08
9.67475743277e-09
1.34947527705e-08
1.25023980689e-07
8.46855790672e-09
1.99273834434e-08
1.96483861282e-08
3.53166768792e-08
1.52511130106e-08
1.48657050434e-08
2.21038819742e-08
1.81987435683e-08
5.48594211448e-08
2.73751517159e-08
2.94593659732e-08
2.95306850395e-08
1.91944246158e-08
7.55952847276e-08
1.23100125555e-08
6.6010646482e-10
3.04148502511e-08
2.24542237382e-08
8.59483648664e-08
5.0029400156e-09
3.40325536787e-08
1.26654855694e-08
1.51123841993e-08
6.21410058575e-08
2.70422872859e-09
2.85805975319e-10
1.02519672559e-07
1.13210854315e-07
1.68723203744e-08
2.70205407947e-09
2.65586273013e-08
8.62880271107e-09
3.75286744767e-08
1.85525937547e-08
5.84650921784e-08
8.26787907229e-08
9.03053468513e-09
5.48556674777e-08
2.98009552194e-09
5.30053460103e-08
4.49443540976e-08
3.94887872876e-08
2.45883359343e-08
5.78341118505e-08
2.71786821296e-08
2.06085693747e-08
3.91590306767e-09
1.67673244071e-08
3.49345276705e-08
6.22353935974e-08
1.4979451196e-07
6.37865560389e-08
1.34294610385e-08
2.37532471462e-08
1.32771402456e-08
4.43945585615e-09
3.08651390259e-08
1.71454829211e-08
1.00781928148e-09
9.5725265067e-09
7.58587884674e-08
2.25056811035e-08
1.03212646853e-08
6.11737754241e-08
7.0753721539e-09
2.49380558949e-08
6.7372499227e-09
3.77185260119e-08
3.03028928144e-08
9.70700304556e-08
5.54870671602e-08
4.36649735152e-08
2.34438721426e-08
1.90503415057e-08
3.25309408453e-11
2.74044899014e-08
4.38146130237e-08
2.98185481371e-08
3.65281414183e-08
4.89921519457e-09
1.56297336624e-08
9.44029956144e-08
1.87782198098e-08
4.5783882327e-08
7.804192648e-08
1.27875474475e-08
9.11678478529e-08
2.27915620095e-08
7.44014328991e-08
3.68583061519e-08
4.08710566653e-09
4.39981868115e-08
3.00665976324e-08
2.70099616711e-08
8.2269915747e-09
3.51040910386e-08
5.00562791294e-08
4.22599693907e-08
3.37602962784e-08
4.12709591833e-08
6.47750750703e-09
1.40670088593e-08
1.46045517158e-08
3.47094691439e-08
1.5188422406e-08
2.41626529215e-08
8.10886224158e-08
3.29296768579e-08
3.37229590203e-10
5.02138069705e-08
1.92390624064e-08
1.39087142196e-08
3.38547446574e-08
1.0038042049e-08
4.1561487006e-08
5.40559076637e-09
3.73895009246e-08
2.28373265804e-08
1.65048876804e-08
2.59476888793e-08
1.74330140707e-08
5.71250470353e-08
8.9703130651e-08
6.17061455341e-08
1.3540959144e-08
4.1216843555e-08
1.46952746309e-08
2.18108171106e-08
6.80077578797e-08
4.67934564603e-09
9.43716320755e-08
6.88592295381e-08
2.24914931147e-08
1.08146384005e-09
5.35202048512e-08
1.06120213018e-08
8.9625683504e-08
8.25250536198e-09
4.93605522477e-08
1.45949628638e-08
4.53377249878e-08
2.50775240929e-08
1.49176718353e-10
5.63472066039e-08
1.44890970404e-08
4.38311872503e-09
4.60090373419e-08
1.69491911908e-08
9.94729394448e-09
1.25691038947e-08
3.85996208491e-09
4.91183790942e-08
4.53254287598e-08
1.4652018033e-08
3.1152381924e-08
4.74247123956e-09
1.0358334565e-08
1.75697367421e-08
5.52105225542e-09
4.80396360607e-08
1.17379785778e-08
4.84482152593e-08
6.20904923339e-09
6.42299640129e-09
3.80557787503e-08
3.96812238532e-08
1.1171374015e-08
1.77742136612e-09
2.0437008702e-08
3.48317073576e-08
1.66162937343e-08
2.66493006333e-08
3.62704288983e-08
2.13767299638e-08
7.28257646776e-09
3.52361068671e-09
4.2887998923e-08
1.73575343048e-08
4.47951080655e-09
8.09599476046e-09
1.78382752383e-08
1.37357725165e-08
4.09112872837e-08
2.36584919978e-08
6.19348508101e-08
4.90322985856e-08
1.83517353477e-08
6.87966280761e-09
3.78207504747e-08
1.44393040781e-08
7.54907947201e-09
1.6136654937e-08
1.40094905402e-08
3.25386196945e-08
7.08539492296e-09
3.23078509651e-10
5.98681965403e-09
1.90843123857e-08
3.5126764605e-08
4.59769945774e-08
5.25222753409e-08
6.67901214084e-08
5.54254154218e-08
5.32571272569e-09
3.12187226765e-08
1.00613986679e-08
3.85596392582e-08
9.2562046185e-08
1.62436099106e-07
7.9428142469e-08
2.22474827916e-08
2.12041796895e-08
1.54033605877e-08
2.17362638508e-08
6.72617338356e-08
5.6593926196e-08
6.17928346271e-08
1.83303264141e-09
3.65583492522e-08
4.84534701756e-08
3.70994442249e-08
7.49232458629e-08
2.23816819861e-08
2.95958880653e-08
3.41479565256e-08
6.77037559677e-08
8.01034187627e-08
9.90957833032e-09
5.45420000622e-08
2.14706703867e-08
3.83602183707e-08
5.30921113101e-08
4.97551963842e-08
4.4202659571e-08
4.60936288214e-08
7.15953202533e-08
8.95748551971e-09
3.72682938962e-08
2.55821086139e-08
1.10921930692e-07
1.6724919033e-08
7.61615813421e-08
1.06695005602e-07
4.50869029821e-08
9.76680827599e-09
2.67696313311e-08
1.28760808801e-08
1.55194720693e-08
7.37690791408e-08
6.23914247079e-09
3.61192350853e-08
6.27948969728e-08
5.01000827693e-08
1.4386910795e-08
1.69494582605e-08
1.19273414647e-08
1.02584437947e-08
5.1499362165e-09
1.01655623014e-07
4.52009304966e-08
3.38427234354e-08
5.12854799424e-08
2.87980869985e-08
5.84480971449e-08
8.97007586671e-08
6.49450812144e-08
3.86780408457e-08
2.05930965139e-08
1.05892660586e-07
3.67989318981e-08
1.4233880526e-08
2.40061429558e-08
2.04112460559e-10
4.75473697368e-09
6.99271623605e-08
2.08372870383e-09
2.62393884339e-08
7.51428215162e-08
2.64301803867e-08
1.63830080722e-08
1.9665324649e-08
2.21395574431e-08
2.60358467138e-08
2.51438292084e-08
4.37764986915e-08
1.78515927888e-08
1.28610489725e-08
5.02865963579e-08
3.66689386538e-08
2.6422275861e-09
1.23509385635e-08
1.94278050184e-08
1.61190769109e-08
2.22845107334e-08
1.25766362505e-08
3.46309142909e-08
6.06562148153e-08
2.12577388437e-08
1.52721604573e-08
1.17657420298e-09
6.65077365264e-08
3.17944658663e-08
7.33405647019e-08
3.93681747848e-08
3.90555432484e-08
5.78809768311e-08
2.69336896565e-09
4.5547341197e-09
2.07836199603e-08
4.58053925269e-08
4.30034242092e-08
7.07255594526e-08
3.79946346702e-08
5.63317799975e-08
3.47839733246e-08
9.86961346597e-10
3.83197502946e-08
5.80778978959e-08
3.13943052531e-08
7.23273522529e-08
2.72799976983e-09