# vtk DataFile Version 3.0
File Name: Molecule/sphere_cent/sphere_cent_0-s4.vtk
ASCII
DATASET UNSTRUCTURED_GRID
FIELD FieldData 1
TIME 1 1 double
0.0
POINTS 90 double
0.85045331717 -0.52601873875 -0.00027425296139
0.82977676392 -0.27266991138 -0.48434582353
0.99802398682 0.0017946236767 -0.030404945835
0.81548529863 0.29653719068 -0.49408575892
0.52632242441 -0.00054181390442 -0.85025537014
0.85072541237 0.52559155226 0.00032139604446
-0.00024717248743 0.8553519249 0.51559329033
-0.015775691718 0.99805742502 -0.0010539069772
-0.48567152023 0.82980471849 0.27252358198
-0.48902672529 0.82279193401 -0.2844529748
-0.00019157474162 0.85046422482 -0.52602118254
-0.85027396679 0.52626812458 0.00016751298972
-0.28618884087 0.47839462757 0.82785522938
-0.52524554729 0.00030985736521 0.85093933344
0.00077744759619 0.04409179464 0.99768149853
0.29892623425 0.48105987906 0.82115989923
0.5253893733 4.0839644498e-05 0.85084587336
0.34513536096 -0.5129878521 0.78528559208
0.79245007038 -0.33269518614 0.50789254904
0.51396101713 -0.78469508886 0.34255254269
0.00079628406093 -0.85036307573 0.52611386776
0.27162945271 -0.4857070446 -0.82933479548
-0.00073892064393 -0.015774097294 -0.99832737446
-0.28505134583 -0.48844003677 -0.82293778658
0.00040810502833 -0.85038173199 -0.52610242367
-0.52591055632 -2.4990884413e-05 -0.8505422473
-0.85080957413 -0.52550286055 -0.00046543270582
-0.49026280642 -0.82267427444 -0.28245338798
-0.49358606339 -0.81584554911 0.29455465078
-0.043602962047 -0.99781703949 -0.00032313517295
-0.82943928242 0.27273547649 0.48576912284
-0.81527084112 -0.29552811384 0.49312198162
-0.99804675579 -0.0011268898379 0.030073946342
-0.41428923607 0.69337809086 0.58690208197
-0.69366788864 0.58686125278 0.41382071376
-0.58737677336 0.41336542368 0.69345110655
-0.3295249939 -0.50746190548 0.79561954737
-0.1724370271 -0.25528535247 0.9499770999
0.0010311387014 -0.53586453199 0.84290105104
0.17272427678 -0.25606483221 0.94941860437
0.49991706014 -0.80887407064 -0.30896469951
0.26041227579 -0.95233142376 -0.15900120139
0.524338305 -0.85151910782 0.0042316690087
0.26275119185 -0.95092278719 0.16288664937
0.58774316311 -0.42508900166 -0.6882455945
0.6894557476 -0.58438044786 -0.42799445987
0.42539408803 -0.68519461155 -0.59125292301
0.9510756135 -0.16192144156 0.2630892694
0.95179396868 0.16014148295 0.26189598441
0.85152155161 -0.0023368399125 0.5244153142
0.80896025896 0.30882772803 0.499884516
0.49584558606 0.81554991007 0.2976822257
0.68651854992 0.58895295858 0.42648461461
0.42591941357 0.68748235703 0.58819890022
0.58652085066 0.42707028985 0.68821823597
-0.80887442827 -0.30897971988 -0.49992400408
-0.85206645727 2.4388506063e-05 -0.52362036705
-0.80887442827 0.30900967121 -0.49991041422
-0.95180016756 -0.16005386412 -0.26181235909
-0.95181012154 0.16010066867 -0.26174944639
-0.29795071483 0.49520355463 -0.81585943699
-0.42634811997 0.68808460236 -0.58723688126
-0.58669120073 0.4273109436 -0.68801677227
-0.68623918295 0.58972126245 -0.42591428757
-0.58612662554 -0.42718470097 -0.68856424093
-0.42580372095 -0.6879658103 -0.5876802206
-0.68623256683 -0.58973991871 -0.42589089274
0.68800473213 0.58745574951 -0.42635723948
0.49995622039 0.80873709917 -0.30930534005
0.58837532997 0.42621928453 -0.68725097179
0.42645210028 0.68757396936 -0.58787542582
0.30935019255 0.49992743134 -0.80873650312
0.52107644081 0.85358959436 -0.0067957579158
0.2624759376 0.95136499405 -0.1617577374
0.25953674316 0.95354378223 0.1534934938
-0.14181657135 0.69377219677 0.70614862442
0.14915528893 0.69559144974 0.70296907425
0.0067621483468 0.51228404045 0.85856598616
-0.68830013275 -0.58790105581 0.42495793104
-0.43737724423 -0.69009083509 0.57670891285
-0.59874784946 -0.4290625751 0.67641270161
0.16139049828 0.26271340251 -0.9513361454
-0.15446361899 0.25942465663 -0.95342981815
0.0066923545673 0.52070790529 -0.85382682085
-0.56404918432 0.64725261927 0.51259613037
-0.64724355936 0.51257383823 0.56404477358
-0.5129135251 0.56352353096 0.64746630192
-0.083153866231 -0.40003091097 0.91265517473
0.08335711807 -0.40008863807 0.91258072853
0.00010073246813 -0.26544165611 0.96400392056

CELLS 176 704
3 0 1 2
3 1 3 2
3 1 4 3
3 2 3 5
3 6 7 8
3 7 9 8
3 7 10 9
3 8 9 11
3 12 13 14
3 15 14 16
3 16 17 18
3 17 19 18
3 17 20 19
3 18 19 0
3 4 21 22
3 21 23 22
3 21 24 23
3 22 23 25
3 26 27 28
3 27 29 28
3 27 24 29
3 28 29 20
3 13 30 31
3 30 32 31
3 30 11 32
3 31 32 26
3 8 33 6
3 30 34 11
3 11 34 8
3 12 35 13
3 35 30 13
3 36 37 13
3 13 37 14
3 17 38 20
3 20 38 36
3 14 39 16
3 39 17 16
3 40 41 24
3 24 41 29
3 40 42 41
3 42 43 41
3 42 19 43
3 41 43 29
3 19 42 0
3 0 42 40
3 29 43 20
3 43 19 20
3 1 44 4
3 4 44 21
3 1 45 44
3 45 46 44
3 45 40 46
3 44 46 21
3 40 45 0
3 0 45 1
3 21 46 24
3 46 40 24
3 2 47 0
3 0 47 18
3 2 48 47
3 48 49 47
3 48 50 49
3 47 49 18
3 50 48 5
3 5 48 2
3 18 49 16
3 49 50 16
3 51 52 5
3 5 52 50
3 51 53 52
3 53 54 52
3 53 15 54
3 52 54 50
3 6 53 51
3 50 54 16
3 54 15 16
3 55 56 25
3 25 56 57
3 55 58 56
3 58 59 56
3 58 32 59
3 56 59 57
3 32 58 26
3 26 58 55
3 57 59 11
3 59 32 11
3 60 61 10
3 10 61 9
3 60 62 61
3 62 63 61
3 62 57 63
3 61 63 9
3 57 62 25
3 25 62 60
3 9 63 11
3 63 57 11
3 23 64 25
3 25 64 55
3 23 65 64
3 65 66 64
3 65 27 66
3 64 66 55
3 27 65 24
3 24 65 23
3 55 66 26
3 66 27 26
3 3 67 5
3 5 67 68
3 3 69 67
3 69 70 67
3 69 71 70
3 67 70 68
3 71 69 4
3 4 69 3
3 68 70 10
3 70 71 10
3 68 72 5
3 5 72 51
3 68 73 72
3 73 74 72
3 73 7 74
3 72 74 51
3 7 73 10
3 10 73 68
3 51 74 6
3 74 7 6
3 6 75 76
3 75 77 76
3 75 12 77
3 76 77 15
3 15 77 14
3 14 77 12
3 28 78 26
3 26 78 31
3 28 79 78
3 79 80 78
3 79 36 80
3 78 80 31
3 36 79 20
3 20 79 28
3 31 80 13
3 80 36 13
3 22 81 4
3 4 81 71
3 22 82 81
3 82 83 81
3 82 60 83
3 81 83 71
3 60 82 25
3 25 82 22
3 71 83 10
3 83 60 10
3 12 75 33
3 33 75 6
3 34 84 8
3 8 84 33
3 34 85 84
3 85 86 84
3 85 35 86
3 84 86 33
3 35 85 30
3 30 85 34
3 33 86 12
3 86 35 12
3 38 87 36
3 36 87 37
3 38 88 87
3 88 89 87
3 88 39 89
3 87 89 37
3 39 88 17
3 17 88 38
3 37 89 14
3 89 39 14
3 6 76 53
3 53 76 15

CELL_TYPES 176
5
5
5
5
5
5
5
5
5
5
5
5
5
5
5
5
5
5
5
5
5
5
5
5
5
5
5
5
5
5
5
5
5
5
5
5
5
5
5
5
5
5
5
5
5
5
5
5
5
5
5
5
5
5
5
5
5
5
5
5
5
5
5
5
5
5
5
5
5
5
5
5
5
5
5
5
5
5
5
5
5
5
5
5
5
5
5
5
5
5
5
5
5
5
5
5
5
5
5
5
5
5
5
5
5
5
5
5
5
5
5
5
5
5
5
5
5
5
5
5
5
5
5
5
5
5
5
5
5
5
5
5
5
5
5
5
5
5
5
5
5
5
5
5
5
5
5
5
5
5
5
5
5
5
5
5
5
5
5
5
5
5
5
5
5
5
5
5
5
5
5
5
5
5
5
5

CELL_DATA 176
SCALARS cell_data_0 double
LOOKUP_TABLE default
3.14934233395e-06
2.03205367468e-06
3.5875469583e-06
3.67566365078e-06
2.98107387242e-06
2.0858372547e-06
4.02632314899e-06
3.2017525195e-06
6.54686772349e-06
6.81048758877e-06
3.97133547435e-06
8.42338143794e-08
3.84814402494e-06
3.95181908343e-06
3.69698905294e-06
1.82080228119e-06
3.21043284939e-06
3.75902970566e-06
3.9286544709e-06
1.37676241479e-06
3.45681438217e-06
3.68263135388e-06
3.6213930894e-06
1.4599552868e-06
3.33558064445e-06
3.86077844246e-06
2.39972071839e-08
1.19551070945e-06
1.24254354842e-06
7.07195646511e-07
1.74226882748e-06
1.6660699138e-06
2.25807721589e-06
1.97413534425e-06
1.72610597545e-06
1.73222350728e-06
1.16322718269e-06
1.36710574085e-06
2.27137466884e-06
1.6850635119e-06
2.60470174662e-06
2.09582912564e-06
2.16852832603e-06
2.25340103847e-06
1.60079239418e-06
1.42918190671e-06
1.0469166241e-06
1.45713496962e-06
1.32331434373e-06
2.09493601831e-06
2.76612293238e-06
1.67524635076e-06
2.01106587957e-06
1.47121784316e-06
2.39865679208e-06
2.42279542452e-06
1.39307942841e-06
1.48319098168e-06
1.23647583959e-06
2.16474205706e-06
2.99030062225e-06
1.3818941833e-06
2.09697959905e-06
1.59988830242e-06
2.9769962743e-06
2.5824936415e-06
1.23763268056e-06
1.05563565644e-06
8.73667192278e-07
2.62140541086e-06
1.42191461788e-06
1.77033071143e-06
2.02999635573e-06
3.75543408809e-06
1.49441052324e-06
1.69858776245e-06
4.48854311847e-07
6.66955455516e-07
1.96707504816e-06
2.23070266954e-06
2.49929859619e-06
1.9380626367e-06
2.26322944893e-06
1.96277012337e-06
1.89682018489e-06
2.12511493457e-06
1.88243042619e-06
2.6297458191e-06
1.7903364595e-06
2.13930582796e-06
2.02097054219e-06
2.46457661343e-06
6.03840627783e-07
7.16848339503e-07
2.20496202142e-06
1.9786747939e-06
3.02900786219e-06
1.52474515072e-06
2.14315844042e-06
3.10364318352e-06
2.25590897998e-06
1.47028256129e-06
1.41480836468e-06
1.32530529182e-06
1.53467778624e-06
2.81852546816e-06
3.00213101806e-06
2.11746320918e-06
2.59253139933e-06
2.60371646245e-06
1.90410970708e-06
1.67826814235e-06
2.01691625145e-06
2.61823126571e-06
3.90146165022e-07
4.42285088544e-07
5.43920345114e-07
4.20866016713e-07
1.86730530015e-06
2.41869795204e-06
2.51936150498e-06
1.76643329873e-06
2.69858116461e-06
1.99704617933e-06
1.96424429584e-06
2.77922941313e-06
1.29828001619e-06
2.88300485387e-06
1.41502371711e-06
1.50084242277e-06
9.32142686184e-07
1.41942525834e-06
1.48900038854e-06
1.55376206152e-06
2.20933607889e-06
3.48684783628e-06
1.52373624043e-06
2.10897225616e-06
1.43841476613e-06
2.86639015006e-06
2.84546643548e-06
1.49567112792e-06
2.53077189318e-06
2.19025878636e-06
2.69006501679e-06
2.16942684448e-06
1.75351896384e-06
1.91719013379e-06
2.03274559358e-06
2.68300228247e-06
6.15501357592e-07
4.01596630965e-07
3.85874700299e-07
6.41648450836e-07
1.02070319957e-06
1.58769802626e-06
7.28307896806e-07
1.19586147231e-06
3.19855889321e-07
2.92195550617e-07
1.30825776685e-06
1.21112541058e-06
7.16015547487e-07
1.17867112437e-06
1.24877995141e-06
1.22830177537e-06
2.89551397094e-07
1.35123964304e-06
7.38026331243e-07
3.42807859871e-07
1.21095479318e-06
1.54862144795e-06
1.62703521177e-06
1.15077905049e-06
3.84253314945e-07
1.39693315603e-06

