# vtk DataFile Version 3.0
File Name: Molecule/sphere_cent/sphere_cent_0-s22.vtk
ASCII
DATASET UNSTRUCTURED_GRID
FIELD FieldData 1
TIME 1 1 double
0.0
POINTS 1094 double
-0.51648062468 0.67691063881 0.52440363169
-0.48286020756 0.60119348764 0.63589644432
-0.38807579875 0.71185976267 0.58463543653
-0.074606329203 -0.38469821215 0.91969192028
-0.032238636166 -0.23893505335 0.97049802542
-0.16767784953 -0.24191485345 0.95567017794
0.24513690174 -0.49757400155 -0.83195233345
0.17395406961 -0.64464044571 -0.74443691969
0.073452115059 -0.56360661983 -0.82228702307
0.1337133944 0.86674934626 0.4802968204
0.27603965998 0.7982403636 0.53529411554
0.26311630011 0.87219882011 0.4123301208
0.41240403056 0.80181360245 0.4324542582
0.34492456913 0.88064217567 0.32455947995
-0.33411857486 -0.65953302383 0.67260110378
-0.26440104842 -0.77078634501 0.57939958572
-0.17355081439 -0.7064909339 0.68610394001
-0.48799994588 -0.39509421587 0.77818393707
-0.43285652995 -0.26840242743 0.8605748415
-0.5458818078 -0.24404370785 0.80147254467
0.54703098536 -0.82430195808 -0.14233882725
0.52647578716 -0.84999930859 0.012510193512
0.412222296 -0.90334516764 -0.11824109405
0.34095099568 -0.90414965153 -0.25595137477
0.23855936527 -0.95543301105 -0.17323197424
0.14027956128 0.23610286415 -0.96154123545
0.27869564295 0.11501689255 -0.95345532894
0.13171871006 0.085151948035 -0.98753476143
0.88927972317 0.26265501976 0.37320300937
0.84204548597 0.16237314045 0.5132240653
0.91562718153 0.078404150903 0.39428159595
0.80575287342 0.32788592577 0.49310970306
0.83831048012 -0.016992334276 0.54479420185
0.83123403788 0.42963919044 0.35203456879
0.77532082796 0.56282037497 -0.28563949466
0.71496963501 0.54863238335 -0.433355093
0.67614614964 0.65027070045 -0.34628635645
0.64093881845 0.6995177865 0.31581476331
0.75553429127 0.6105055809 0.23657059669
0.69208103418 0.70393115282 0.15963916481
0.79944735765 0.59670782089 0.068916447461
-0.91240108013 -0.2055567354 -0.35393023491
-0.8557485342 -0.19937390089 -0.47745490074
-0.87327641249 -0.29958704114 -0.38433477283
-0.92434704304 -0.10162771493 -0.36733970046
-0.65621548891 -0.53913408518 -0.52792131901
-0.75901055336 -0.47490519285 -0.44529429078
-0.71869277954 -0.39864507318 -0.56971204281
-0.66606813669 -0.61775374413 -0.41798245907
-0.80839049816 -0.32796028256 -0.48873138428
0.31907996535 0.54817169905 -0.77309137583
0.28338062763 0.69495987892 -0.66069322824
0.39597639441 0.61340892315 -0.68332898617
0.39948138595 0.7028375268 -0.58849620819
0.29757085443 0.81184476614 -0.50034314394
0.7032045722 0.71066653728 0.018915567547
0.14896911383 0.53516703844 -0.83150237799
-0.0048407623544 0.51527732611 -0.85696470737
0.048243261874 0.63271790743 -0.77280980349
0.089545443654 0.3943464756 -0.91458123922
0.24584087729 0.44837060571 -0.85918933153
0.74341857433 0.048887573183 0.6661734581
0.73788249493 -0.12022083998 0.66360509396
-0.29326167703 -0.51491862535 -0.80489468575
-0.41562470794 -0.39659571648 -0.81845903397
-0.29459449649 -0.37351739407 -0.87948095798
-0.53192609549 -0.41968873143 -0.73546099663
-0.5302670002 -0.3080123961 -0.7896233201
-0.1306181699 0.25730371475 -0.95656949282
-0.081214785576 0.38286319375 -0.92021411657
-0.0011352651054 0.27279722691 -0.96191215515
-0.24793793261 0.36056831479 -0.89821267128
-0.16650214791 0.48369184136 -0.85924685001
-0.38878262043 -0.26759406924 -0.88153833151
0.25833195448 -0.024085754529 -0.96574860811
-0.19810457528 0.5891353488 -0.78317373991
-0.29060599208 0.52726399899 -0.79836905003
-0.75693714619 -0.23553000391 -0.60953146219
-0.84446024895 -0.076732203364 -0.53012233973
-0.80475199223 -0.51256775856 -0.29930186272
-0.83834505081 -0.40361464024 -0.36630153656
-0.65700721741 -0.18743391335 -0.73013818264
-0.70361286402 -0.11832368374 -0.70063006878
-0.65272879601 -0.36043322086 -0.66635924578
-0.61212944984 -0.47313827276 -0.6336029768
0.68947732449 -0.57948899269 -0.4343804121
0.55554288626 -0.63672465086 -0.53474336863
0.62908446789 -0.52933263779 -0.56920999289
0.50039613247 -0.55631488562 -0.66337567568
0.42810159922 -0.66578233242 -0.6111009717
0.56377643347 -0.44559824467 -0.69532716274
0.5923075676 -0.69070732594 -0.41340360045
0.4547650516 -0.73701256514 -0.49875789881
0.43310907483 -0.44777819514 -0.78223067522
0.35279932618 -0.58015733957 -0.73411047459
-0.42925229669 -0.69718909264 -0.57416301966
-0.46860051155 -0.76794975996 -0.43660974503
-0.56134873629 -0.67003303766 -0.48567926884
-0.59279686213 -0.71683210135 -0.36689335108
-0.020929474384 0.96910947561 -0.24569642544
-0.0047758948058 0.92393320799 -0.38252127171
-0.14208565652 0.94025307894 -0.30923929811
-0.11103118211 0.88387846947 -0.45395857096
0.036456309259 0.84937888384 -0.52592271566
-0.046787951142 -0.8833013773 0.4663477242
0.04615567252 -0.82583606243 0.56182938814
-0.082237176597 -0.78905290365 0.60869240761
0.010035959072 -0.71570473909 0.69829505682
0.4646216929 -0.27657139301 0.84093809128
0.49858012795 -0.14948286116 0.85367244482
0.39345651865 -0.21507667005 0.89376831055
-0.11751195043 0.87784940004 0.46412119269
-0.23474900424 0.88150811195 0.4095005095
-0.20721712708 0.81199479103 0.54474949837
-0.10495373607 0.68692362309 0.71911728382
-0.10415914655 0.76742601395 0.63250219822
-0.21697677672 0.70476132631 0.67463719845
-0.8671387434 0.48859021068 0.096359431744
-0.80581313372 0.55609041452 0.20347560942
-0.77667069435 0.62431627512 0.08361300081
-0.89395266771 0.39513644576 0.211240381
-0.68497109413 0.72026711702 0.10972357541
-0.71266764402 0.66569638252 0.22115977108
-0.0082196369767 -0.64052528143 -0.76762974262
-0.093175761402 -0.54908013344 -0.82973593473
-0.54118561745 -0.047870106995 0.83930522203
-0.48142963648 -0.140977934 0.86506509781
-0.4361615777 -0.0011979222763 0.89984351397
-0.36293271184 -0.11392922699 0.92480540276
-0.31884396076 0.038091883063 0.94661563635
-0.58843356371 -0.13141717017 0.7975474
-0.84881848097 -0.52861946821 -0.0022640964016
-0.89159053564 -0.44571077824 -0.079640135169
-0.83384782076 -0.53090471029 -0.15095630288
-0.85907030106 -0.44312718511 -0.25620850921
0.54247033596 -0.82527828217 0.15694095194
0.42317125201 -0.8970143795 0.12739109993
0.35464707017 -0.90206480026 0.24540135264
0.30026075244 -0.94591581821 0.11733819544
0.99536263943 0.021657837555 0.092551030219
0.9683303833 -0.0058737439103 0.24948514998
0.98740512133 -0.098033204675 0.12300839275
0.95148867369 -0.16318520904 0.26074039936
0.91113299131 -0.094434611499 0.40109434724
0.88040328026 -0.2668902874 0.3920096755
0.83554714918 -0.16828806698 0.52293771505
-0.73472237587 0.58442598581 0.34443667531
-0.62799346447 0.64627349377 0.43353804946
-0.62281030416 0.71522891521 0.31706219912
-0.52574968338 0.74822741747 0.40464296937
-0.5026371479 0.81798166037 0.27976971865
-0.70197379589 0.52547997236 0.48069685698
-0.60192680359 0.58968901634 0.53841978312
-0.63187652826 0.49790272117 0.59358656406
-0.79263615608 0.45067614317 0.4105566442
-0.10468000174 -0.11790984869 0.98736000061
0.37919872999 -0.57527118921 0.7246747613
0.26053398848 -0.60998094082 0.74835145473
0.32841801643 -0.66891545057 0.66674512625
-0.5237070322 0.085484862328 0.8475959897
-0.56108397245 0.20517417789 0.8019349575
-0.63592457771 0.086470589042 0.76637846231
-0.44624888897 0.19242423773 0.87335580587
-0.10504022241 0.018860874698 0.99425274134
-0.22954162955 -0.090599387884 0.96907299757
0.019930191338 -0.56971979141 0.82106697559
0.13445545733 -0.65085017681 0.74719274044
0.1688157618 -0.54103690386 0.82387459278
0.23453475535 -0.70721644163 0.66695415974
0.30732989311 -0.49616983533 0.81197440624
0.83532494307 -0.43525657058 0.33511903882
0.79378014803 -0.38426417112 0.47130948305
-0.82856082916 0.470731318 0.30311363935
-0.87485671043 0.33913549781 0.34560576081
-0.60507887602 0.77231872082 0.1934107393
0.43860399723 0.71012043953 0.55076348782
0.55357140303 0.70529460907 0.4428037405
0.57269728184 0.61794555187 0.5386158824
0.67274218798 0.59684586525 0.43683233857
-0.29342392087 -0.72185343504 -0.62668991089
-0.33090168238 -0.79705691338 -0.50507694483
-0.1994381398 -0.79381543398 -0.57430577278
-0.17492353916 -0.68015092611 -0.71110326052
-0.19922083616 -0.8666767478 -0.45682266355
0.76665341854 0.20625662804 -0.60772657394
0.68884301186 0.27016711235 -0.67265743017
0.72104763985 0.34691768885 -0.59972298145
0.71156543493 0.13811507821 -0.6888781786
0.63521558046 0.40732178092 -0.6561653018
0.87106746435 -0.36199080944 -0.33186337352
0.89282864332 -0.39210569859 -0.22084408998
0.80588364601 -0.47734072804 -0.3499891758
0.73990225792 -0.45468258858 -0.49577227235
0.33784899116 -0.7579651475 -0.55799371004
0.30251330137 -0.68559110165 -0.66217017174
0.20736268163 -0.75315755606 -0.62430590391
0.95907318592 0.14528033137 0.240701437
-0.54620105028 -0.59277951717 -0.59183317423
-0.5153670907 -0.52301692963 -0.678832829
0.52698171139 0.78193956614 0.33295616508
-0.41648775339 -0.51764905453 -0.74733418226
-0.38565719128 0.11601744592 0.91491764784
-0.3031488955 -0.24794630706 0.92009592056
-0.088969312608 -0.76666718721 -0.63543635607
-0.40640634298 -0.84753781557 -0.34131273627
0.13860626519 -0.76244777441 0.63187414408
0.091428369284 -0.76152825356 -0.64135843515
0.30375295877 0.5300282836 0.79106140137
0.42073395848 0.47233143449 0.77447378635
0.3868919909 0.60700905323 0.69409048557
0.65397566557 0.51116108894 0.55768203735
0.74630862474 0.46017718315 0.48087996244
0.69955378771 0.39487826824 0.59552532434
0.59644812346 0.45642331243 0.65911048651
-0.30442377925 0.48950904608 0.81712180376
-0.2083966434 0.60344564915 0.76969498396
-0.34215956926 0.60475558043 0.71841025352
-0.21900197864 -0.37584161758 0.9004252553
-0.13764692843 -0.51223939657 0.8477063179
0.051513824612 -0.32959464192 0.94271630049
0.10143346339 -0.43500488997 0.894115448
0.17554083467 -0.32954746485 0.92762321234
0.10464475304 -0.22185450792 0.96944755316
0.22440971434 -0.20768304169 0.95191705227
0.30586990714 -0.25942999125 0.9159501791
0.21273319423 -0.43714541197 0.87386786938
[...]
CELL_DATA 2184
SCALARS cell_data_0 double
LOOKUP_TABLE default
5.72095032199e-08
2.15935858202e-08
1.72433081565e-08
4.34496059383e-08
3.87312947815e-09
5.9032358237e-08
5.51781709182e-08
3.82935806934e-08
1.59289002207e-07
1.25783803024e-07
8.76877080207e-08
1.32725420672e-08
2.02656915451e-08
6.01567452404e-08
8.80532794204e-08
4.61264500795e-08
5.79303287589e-08
5.97959648289e-08
2.14914300261e-08
8.51116342957e-09
5.92917799573e-09
2.47547963796e-08
4.20046527166e-09
6.25629156749e-08
4.73347103838e-08
4.66687030595e-08
4.41988484052e-08
3.59636350769e-09
6.42248424921e-08
5.94358889707e-08
6.69634777109e-08
3.49306391628e-08
5.38729044897e-09
1.50284984539e-08
3.31164230008e-08
8.23761362587e-08
9.66518165654e-08
1.72324717249e-08
8.67006290585e-09
4.96335884576e-08
2.8968080792e-08
3.67393910073e-08
5.4376184127e-08
5.19596878653e-09
6.14911106855e-08
6.67578213558e-08
2.62917983848e-08
5.34099131943e-08
3.6795546826e-08
4.77214485561e-08
8.07223179035e-08
1.92266914094e-08
2.68121904853e-10
2.2071930431e-08
4.51359196436e-08
1.15452749128e-07
9.11932055343e-09
8.407981933e-08
2.1265664807e-08
3.93486951829e-08
2.54780545355e-09
2.88944194082e-08
1.79551196474e-09
4.49038308753e-08
1.80128884295e-08
8.56447050343e-09
3.76145112392e-10
1.61521273478e-08
8.07358136993e-09
5.55597498761e-08
1.29030306066e-08
1.81244354881e-08
2.63474130635e-08
6.55216575647e-09
1.19446990861e-07
2.95677048121e-08
7.6263357683e-08
1.00718599637e-07
4.86308132556e-08
7.22132386416e-08
6.16997967978e-08
1.27890782338e-08
5.42586708101e-08
9.50521841819e-08
4.8757796763e-08
4.04219178867e-09
2.27942228758e-08
4.64158920597e-08
3.64324719408e-08
3.62272876036e-08
5.15512335054e-08
1.08505789981e-07
5.43862082543e-08
1.49754863114e-07
3.96896928982e-08
3.20530645809e-08
9.37068540814e-08
3.03848193312e-08
6.68096770341e-08
7.78758734873e-08
1.23806754328e-08
1.54941262956e-08
3.53378526331e-08
1.1731647372e-08
5.41357217658e-08
1.59612193796e-08
1.5053307666e-08
4.77920656403e-09
1.32870594439e-08
2.77667685719e-08
4.86666720371e-09
6.28382785731e-08
4.34146034511e-08
1.99693215294e-09
3.21841163478e-08
7.45376125817e-10
4.06110519193e-08
3.31887946279e-08
4.22708607776e-08
6.12419302953e-09
3.80204873792e-08
5.28554330068e-09
2.81566588085e-08
3.71554109141e-08
4.40590623176e-08
3.86145670699e-08
1.0378423292e-08
1.05230959998e-08
6.96466899721e-08
8.68512708204e-08
6.76446915785e-08
9.18732514708e-08
7.60955040546e-08
1.01097504044e-07
7.03808407171e-09
1.16834421379e-08
9.93190639021e-09
1.43609746324e-08
1.01271801972e-07
3.81205000958e-08
1.44726897196e-08
1.43930575496e-08
5.53569729778e-08
2.76224053462e-08
3.42198155641e-08
1.37073628297e-08
9.16349363869e-09
1.45037582241e-08
2.13611744023e-08
1.34127609489e-08
8.70327835067e-08
2.40604630737e-08
5.35012754497e-08
7.89670069369e-08
3.08250769448e-08
4.84480293188e-08
1.01642868764e-09
8.47696178589e-08
2.9010600511e-08
6.23950514678e-08
1.91523437366e-08
4.49375530805e-08
3.46918406711e-08
1.05804913853e-07
6.11374753213e-08
9.25000583037e-08
2.75757504776e-08
4.83058700805e-08
1.14990288846e-07
4.91674769299e-09
1.90262318994e-08
1.78089419943e-08
7.93576271596e-09
1.541224984e-08
5.34351770081e-08
6.67780939992e-08
4.86795440181e-08
2.12283884852e-08
2.49682248696e-08
6.33973026718e-08
1.74166983055e-08
1.49277918365e-09
6.9753317451e-08
2.28855164341e-08
1.66370647809e-08
1.24719712753e-08
5.79463908872e-09
1.09055167041e-08
4.08782601242e-08
9.65123157221e-09
8.40215560192e-09
2.53751426247e-08
3.43349158366e-08
5.61247535987e-08
5.96787659379e-09
5.79234059357e-08
2.75126690504e-08
2.93533119434e-08
1.51382368769e-07
1.06620426024e-08
5.1841062511e-08
4.86858264436e-08
3.23983305352e-08
3.40619858381e-08
3.86810073037e-09
1.56949153264e-08
2.69659767959e-08
3.84295729183e-08
3.9213013467e-08
2.25210786218e-08
3.95179274197e-08
7.1120445576e-08
4.40809627646e-09
6.78427492783e-08
4.66229115317e-08
8.64299602361e-08
5.23342986831e-08
2.47257339058e-08
3.23259119559e-08
1.14266406738e-08
1.38463514305e-08
8.61349487344e-08
1.15036974435e-07
2.31907641432e-08
1.71644607801e-08
6.11962018485e-09
6.1347049775e-08
1.04904133092e-07
1.62993175733e-08
6.89137362e-08
1.81357974725e-08
2.62372361909e-08
3.87870799579e-08
3.36313779702e-08
3.21554142047e-08
2.08225324852e-09
4.32006910857e-09
2.58319733323e-08
8.96287929433e-09
1.79886287336e-08
2.11968802996e-08
8.84270074773e-08
3.93075404559e-08
1.92940971601e-08
1.56066355221e-08
6.69899394093e-08
8.60599008538e-08
3.25719503277e-09
4.92587301723e-08
3.76662866762e-08
2.87601199556e-10
4.25559325296e-08
3.82724248373e-08
3.33459191718e-09
3.47465277928e-10
2.19490769652e-08
8.2719030518e-08
4.58290394116e-08
5.0659963301e-08
1.63411558888e-07
7.66452483064e-09
2.67422526997e-08
3.52681181419e-08
1.05485367609e-08
6.28713445977e-09
6.47855526748e-08
4.34696896073e-08
4.44051659738e-08
5.2809611246e-09
4.99222103085e-08
7.2066047737e-08
7.04158295388e-08
5.251151797e-08
8.42021419212e-08
1.8169276075e-08
7.10601698947e-09
1.95926066096e-08
1.12636206774e-08
1.13501375907e-08
4.02028760213e-08
9.11995523841e-09
8.91894064738e-09
4.8379074603e-08
4.11390376063e-08
1.21424133668e-07
6.62544547975e-08
1.54848848668e-08
1.59676823177e-08
3.26224615041e-08
5.24331631776e-08
1.03442092645e-07
6.57556361618e-08
4.36165730687e-08
2.9522142717e-08
1.06489056469e-08
4.26283386981e-08
4.14743721373e-08
7.9417224808e-09
4.16144986064e-08
8.23079185826e-08
4.21208889938e-08
3.18670317359e-08
1.93243533026e-08
1.41148913939e-08
3.69358823513e-08
2.60462263932e-08
4.66748593598e-08
4.11431027075e-08
5.19123807828e-08
1.43735971251e-08
3.33024811983e-09
3.48839341209e-08
5.29180809248e-08
1.64114121407e-07
1.58360337974e-08
6.79316607174e-08
6.94753506086e-09
4.41826277321e-08
1.67823257482e-08
4.18560286684e-08
7.41219751834e-09
7.32071519925e-08
8.87958499259e-08
5.20130597385e-08
5.04859699765e-08
8.58930433491e-08
5.25142179654e-09
5.39032490684e-08
2.43537419443e-08
8.0630019648e-08
3.09747678712e-08
3.56995669646e-08
3.35925736579e-08
6.50110580534e-08
1.9693195664e-08
3.67023799372e-08
2.63991337761e-08
2.85748454959e-08
1.6517928224e-08
1.34968789989e-08
1.7181227129e-08
4.45835312097e-08
8.57951255594e-08
5.48930128484e-08
1.60509088101e-08
2.56754083291e-08
7.67386990213e-08
4.33129012049e-08
8.87474821138e-08
5.67224454609e-08
2.86279324293e-08
1.19183416021e-08
5.94078805463e-08
6.79015493996e-08
4.91631170921e-08
7.81877361128e-09
8.16963375934e-08
3.15341856457e-09
2.64968186103e-08
3.77661740778e-09
1.17649698751e-09
3.15475443993e-08
3.68062270112e-08
2.37095079931e-08
1.57098497645e-08
5.18117082024e-08
1.04309919934e-08
2.23745690513e-08
2.00461607827e-09
3.48091939143e-08
4.18170009868e-09
2.60868103855e-08
6.24617291579e-08
7.78839613033e-09
1.06572030165e-07
2.50963709919e-08
1.55021510417e-08
4.15976303415e-09
1.89279336887e-08
5.10995765373e-08
9.87969831883e-09
1.34348169456e-08
3.43408016726e-08
5.38329137761e-08
4.22368664394e-08
4.87143729609e-08
1.69789387294e-08
9.72142995402e-09
5.44485339417e-08
1.27951426532e-08
4.66398788642e-08
9.70578308728e-09
5.26906467951e-08
3.37350549175e-08
3.49410957616e-08
2.03364420501e-08
8.13817622724e-08
6.55203938858e-08
1.02266052025e-08
3.18426912007e-08
1.27131980541e-08
7.72987641465e-09
2.99991267014e-08
1.19420726215e-07
8.67343783182e-09
6.78984260048e-10
4.483854e-08
3.52601475041e-08
2.36336104294e-08
2.1448070227e-08
1.41300359655e-08
4.47436289674e-08
4.20563357831e-08
3.44179814714e-08
4.63333124184e-08
5.23762148671e-08
4.06032700359e-09
6.9592473315e-09
1.98181995036e-08
1.84681453648e-09
6.70641440187e-08
4.67906516898e-09
1.05732584825e-08
1.28397737576e-08
5.66301586328e-08
7.19768901531e-13
5.15960220725e-08
6.60713425562e-08
1.41653337106e-07
9.69060872516e-08
1.88427307235e-08
2.55126221882e-08
1.17037812597e-08
2.61033518322e-08
3.49123260342e-08
6.54147149936e-08
2.57846833289e-08
3.46254797216e-08
2.08928935148e-08
8.44878479128e-08
4.02206360009e-08
4.81030574595e-08
5.46602093274e-08
2.56916665908e-10
3.34209391874e-08
8.79292340454e-09
9.24508765119e-09
3.70582121822e-08
8.04849538128e-08
1.77515890809e-08
9.08932499842e-09
5.71134302044e-08
4.56267761627e-08
4.17810098298e-08
5.42173313959e-08
3.50089883746e-08
1.30511430432e-08
5.94835905775e-08
1.79458479001e-09
4.27223942201e-08
2.53070403224e-08
4.0017536207e-08
2.34275538497e-09
2.36494473518e-07
2.02060002252e-09
4.34226101568e-08
6.02065775016e-08
3.42277526762e-08
1.84023211166e-10
4.50789602604e-08
4.30281488024e-08
8.10146152045e-09
1.91590124416e-08
1.95710135736e-08
3.95496939016e-09
8.87038924434e-09
1.00581795903e-08
1.8181565697e-08
7.46805324e-08
4.84541857112e-08
2.76864005522e-08
8.73642256702e-09
2.80608324636e-08
3.75637230686e-08
8.82008471345e-09
1.86973796464e-08
4.09817813821e-10
5.86703903469e-09
2.80860580594e-09
3.65901321593e-08
7.39751683961e-09
3.88127240469e-10
1.39463635235e-08
2.1463019445e-08
3.74120888627e-08
3.71531016764e-09
4.88391795132e-08
2.2091231769e-08
1.48264341114e-08
5.71054304553e-08
3.46761921954e-08
2.65817198791e-09
5.1842938864e-09
3.31552847815e-08
1.12683322288e-08
3.88116032148e-09
4.88640547669e-08
2.31983260321e-08
4.07204584648e-08
1.75723963298e-08
1.53444093803e-09
9.93960139364e-09
2.63743253394e-08
2.00222840683e-08
5.75749049317e-09
5.22092620018e-09
1.95421551105e-08
6.71244189919e-09
5.5320185301e-08
3.52836943466e-10
5.42288479877e-09
3.38905083886e-08
2.33742265645e-08
1.96110064808e-08
1.27524659873e-08
1.18617402835e-08
4.30501926567e-09
1.29008887169e-08
4.06308326542e-09
1.60958563593e-08
1.86887863326e-09
2.92852931921e-08
4.78697477798e-08
1.71275461661e-08
1.12647433685e-08
3.9899958775e-08
5.22582304595e-08
1.18121540487e-09
6.39998635371e-09
8.98748570343e-08
9.60861500463e-09
8.97714091243e-08
6.43476453007e-08
2.90310401002e-09
6.49308253539e-09
7.30915358932e-08
4.69902751948e-08
2.54797372579e-08
1.25024407054e-08
2.62144808141e-08
2.60059236994e-08
3.41521082139e-09
8.46210916084e-09
4.41992085969e-08
4.97267196814e-08
6.23607081038e-08
9.37140262401e-09
6.41223799466e-10
1.4080538668e-08
4.69474663275e-08
4.58292606647e-09
9.39425170355e-08
3.86218265813e-09
1.07026582094e-08
2.65265201603e-09
3.01076338975e-08
5.80019884726e-09
4.48861962193e-08
6.79305688809e-08
3.95633068089e-08
5.19510202057e-08
1.80433261423e-08
5.16900807258e-08
1.13776314505e-07
1.14009494938e-07
6.70615535454e-08
2.5930749681e-08
3.88519333709e-08
1.43576306635e-08
9.05092347109e-09
6.16573382582e-08
4.11687492931e-08
3.25317977959e-08
4.32948182728e-08
5.4247076049e-08
2.35513174652e-08
2.60647896122e-08
1.44983539796e-08
6.56824368043e-08
1.12817278764e-08
3.29847023934e-08
2.26580723978e-08
1.09111089108e-08
1.20529936732e-09
4.31581622332e-08
2.71022351482e-09
1.24840810078e-09
1.54663138761e-09
6.43387426121e-09
8.1136907893e-08
1.14305499568e-07
1.77052979146e-08
4.58522516087e-08
5.53464994077e-08
1.0821991641e-08
3.01637891083e-08
8.57537144138e-09
8.98896210703e-08
7.33284837796e-09
4.69980435448e-09
2.24713862832e-09
3.82287992693e-09
2.76889954141e-08
3.7791358013e-08
4.75553456316e-08
2.14591525686e-08
4.77879034941e-08
5.46454208423e-08
4.46721751557e-08
3.40588328359e-08
2.93593096012e-10
2.33531043516e-08
3.09517061727e-08
7.6591078295e-08
1.05983950365e-08
6.80391353779e-09
1.71889932368e-08
2.8782963436e-08
4.98730172507e-08
9.12916859888e-09
4.18275619712e-08
9.76590714442e-09
4.12527891568e-08
2.13617923906e-09
3.36278047025e-08
2.74285799166e-08
4.30422762199e-08
1.74540502296e-08
5.65080587906e-09
2.28917931191e-08
2.89471044712e-08
7.27137850913e-08
8.9770798898e-08
6.28359505461e-08
3.71152479177e-08
1.86178461287e-09
2.76867001211e-08
7.07415912807e-08
1.69700527429e-08
1.35855015252e-07
4.45017657269e-08
7.00844355715e-08
2.18659308147e-08
6.71708507361e-08
7.90360008894e-10
5.23865337144e-08
9.10976942439e-08
2.93303146706e-08
9.32549556746e-09
3.10918557577e-08
1.81566199983e-08
5.12387787098e-08
4.6936274206e-08
2.34432262442e-08
1.20375728725e-08
9.31981006936e-09
6.41485523262e-08
3.99855215088e-08
1.81800097361e-08
2.2704423747e-08
5.80572827211e-08
3.03059206208e-08
1.88237329246e-08
7.94257706432e-08
1.63370555224e-08
1.44967785186e-08
6.06387029178e-09
2.39568966867e-08
1.19641373847e-08
5.22627697202e-08
2.33766538931e-10
2.33568918754e-08
6.66451701049e-08
3.41426398122e-08
7.26412390404e-08
1.65233773067e-08
2.29500327774e-08
1.92814191823e-08
2.56089597787e-08
6.86238991284e-08
1.44945992771e-08
4.39605896724e-08
2.28887287027e-08
5.22216319182e-08
1.20573022411e-09
2.51332459876e-08
3.75576099186e-08
3.42532729456e-08
3.62389065979e-09
2.24796045343e-08
2.82813895695e-08
3.25461540615e-08
2.23879859811e-08
1.77932574877e-08
6.16612468975e-09
7.58745113932e-09
9.14908719796e-08
1.74971833837e-09
6.23758175629e-09
5.2883105424e-08
1.94163436854e-08
3.28159852329e-08
1.33855349755e-08
9.7592613507e-08
4.20371390094e-08
3.40999885744e-08
4.44574292544e-08
1.90764742407e-08
3.75026175015e-08
9.00191481155e-09
4.29118520546e-08
1.57661557789e-08
3.03417317649e-09
8.87084761648e-08
8.45110693902e-09
2.30821843118e-08
5.10772948879e-08
3.82582177941e-08
5.58283495601e-09
8.25105862467e-09
3.20998112643e-08
3.37955069263e-08
2.14767363432e-09
7.89075376061e-09
8.11281004439e-08
3.46900581715e-08
1.44347121838e-08
1.04993922799e-08
2.65875308415e-08
5.38429284315e-09
2.57396296886e-09
4.27375198277e-09
1.1097012652e-09
2.19000987343e-08
3.59793134997e-08
2.50268981379e-08
5.51027391558e-09
4.70098163271e-08
8.01035786332e-09
3.73258572672e-08
1.4827802771e-08
2.72686695939e-08
1.08523965599e-09
3.28213464297e-08
2.09589890676e-08
2.69405533111e-09
1.35334754728e-08
6.02578766125e-08
1.18145390202e-08
4.40188053897e-09
1.59286430577e-08
9.28863911228e-08
9.94181160274e-09
1.90874599668e-09
1.83018313483e-09
2.52226507559e-08
3.73069400696e-08
2.63755903807e-08
6.91527585943e-08
2.00566370887e-08
1.03167444772e-07
6.41278851661e-09
5.07190763782e-09
4.9174079575e-08
1.00518294922e-08
3.23690040948e-08
1.10153489663e-08
2.16043499734e-08
3.65007359966e-08
7.09515553528e-08
4.76373440648e-08
5.69123022357e-08
3.37609400972e-08
1.76216542363e-08
1.43625026013e-08
2.34759803411e-08
4.16098598863e-09
6.20425556923e-09
1.12500156662e-08
9.88764839867e-09
7.38305413859e-09
8.11512776745e-10
7.49230755338e-10
4.51427683192e-08
5.54263876128e-09
4.72667174655e-08
1.04267186374e-08
1.40769258222e-08
6.00601676671e-08
1.401467851e-08
1.06468279365e-09
1.76458266932e-08
2.03795579385e-08
5.03704888421e-09
2.40545173311e-08
3.85892690235e-08
1.34349179157e-07
4.18935254663e-08
4.59739422768e-08
7.06383708648e-09
2.09807118335e-08
2.01098050896e-08
3.61292702854e-08
5.38922145046e-09
1.22220470072e-08
1.34954448672e-08
5.42253357261e-08
7.19460217451e-08
2.27640770967e-09
2.43755679161e-08
5.9249803323e-08
2.49766238718e-08
5.0135898962e-08
1.8220367597e-08
6.71273018863e-08
1.14068360021e-08
6.60329966794e-08
9.79747719095e-09
3.47680283049e-08
4.18368867466e-08
3.11239139101e-08
9.76503538588e-09
5.02594629653e-09
1.97848377825e-08
2.75587381369e-08
5.96410861398e-09
5.50837805321e-08
1.94980040456e-08
2.32827682575e-08
1.46545212124e-08
1.24552544547e-08
2.1120386085e-08
1.93942200622e-08
1.682976124e-09
1.19667688092e-09
3.39877286844e-09
2.2895728154e-08
1.23050116719e-08
2.59686643858e-08
5.96352247971e-08
5.60448049282e-09
1.63053091877e-08
2.06538933225e-08
2.26451843775e-08
1.39674242578e-08
1.00567802148e-08
4.90556750654e-09
1.72709855505e-08
3.33265448448e-10
3.65741594288e-08
2.59443605029e-08
9.26187521858e-09
9.80606463475e-09
3.90566262014e-09
4.65086692498e-08
3.74916099265e-10
4.1817860184e-08
5.61999842943e-08
2.57093717181e-08
2.35924587904e-08
1.03927134297e-07
2.32634527238e-08
1.78284579221e-08
1.20449195907e-08
1.94366834372e-08
1.32083466287e-08
1.65751580195e-09
3.53384050047e-09
7.80438309617e-09
2.87909736239e-08
3.36172448294e-09
1.42382538193e-08
1.45839768497e-08
2.71015883111e-08
9.05196488214e-09
1.35397579631e-08
3.61397273104e-08
1.18752298546e-08
1.75200776195e-08
6.26950565682e-08
2.57627983588e-08
4.46976404198e-08
1.39994678861e-09
1.40485413175e-08
2.56920388657e-08
5.57284198826e-08
6.87050342774e-08
3.47774874883e-10
3.07168319267e-08
1.53939395332e-08
1.93986419973e-08
5.43041934061e-08
5.63044036447e-08
5.77922204697e-08
1.34492157895e-07
1.11330987082e-07
1.19852809859e-08
8.12361951482e-09
5.42801379754e-09
6.73895084805e-10
3.22303280776e-08
1.95531222712e-08
2.63013171541e-08
4.73312668657e-09
3.2005215753e-08
3.77836874612e-08
1.25268977043e-08
1.66599358617e-09
5.1294742955e-09
2.50795186939e-08
6.66862942285e-08
2.11399833498e-08
6.95160287117e-09
3.99127408269e-08
2.43935061606e-08
2.29185076525e-08
5.81167729874e-08
6.95288769087e-08
1.26700340482e-08
9.08117330943e-09
4.57595730144e-08
1.85449623874e-08
1.16479761255e-09
3.26270354557e-08
1.22867377428e-07
2.45583551897e-08
7.70261441711e-08
5.58194962144e-08
5.56602718536e-08
2.40788488977e-08
4.71805763467e-08
7.35407477889e-08
5.51650047079e-09
4.80619907466e-08
6.60359791315e-08
1.0607261186e-08
6.08861586762e-08
1.30484317299e-08
2.32366866768e-08
1.34083616145e-08
9.54928169172e-08
2.14026087431e-08
1.56145472203e-08
4.59692098437e-08
2.0945441684e-09
1.07303659718e-08
3.74250036294e-08
4.3786591032e-08
3.8403167537e-08
4.35015812965e-09
3.30693395406e-08
1.63835711877e-08
8.71090223028e-09
4.12487222838e-08
5.00081202368e-08
1.42616750704e-08
8.43578526142e-09
7.55544901289e-09
1.66992765833e-09
7.15748776236e-09
2.91706948732e-08
2.84044485483e-08
5.2481559127e-08
2.66798325277e-08
1.06353020267e-08
1.84306352244e-08
3.52198832843e-08
2.72604363073e-08
9.78589143081e-08
1.24116853439e-08
3.21205849221e-08
4.38803156728e-08
5.19875788387e-08
2.2202366939e-08
2.24791591832e-08
1.06734666404e-08
1.08056087632e-08
6.52218022451e-08
2.96935062464e-10
1.2773027374e-08
3.41623907519e-08
2.49466011722e-08
2.81477294181e-08
6.19847014098e-08
2.49436109498e-08
1.4380485913e-08
2.89819022964e-08
1.05184504279e-08
8.60749984309e-10
5.17480409113e-08
4.14047456812e-08
2.50786273162e-08
2.47776411076e-08
1.32836817359e-07
7.50243469078e-08
2.86182673741e-08
9.14975130833e-09
3.102190019e-08
2.11617983029e-08
2.91286777875e-09
3.3207682666e-08
4.35707978247e-08
3.61456992984e-08
1.53727544673e-08
2.37591841321e-08
7.00380572797e-08
4.21487952004e-08
1.87649457406e-08
1.9634399487e-08
2.03103152301e-09
5.69301724331e-08
1.30514014165e-08
1.29757476622e-08
4.99967480832e-08
1.24109551895e-08
3.51890689453e-08
3.82240901607e-08
1.5440956503e-08
3.83360513979e-08
1.26644433108e-08
5.21490847598e-08
1.3200820086e-08
1.8740722823e-08
1.53443362653e-09
4.45134758206e-08
1.52844074785e-08
1.88883758748e-08
7.03147890399e-08
4.22760910398e-09
4.05931346494e-08
3.5674764765e-09
3.19882512354e-08
1.33320495269e-08
1.58807554549e-08
1.99083938402e-08
1.38464665101e-08
4.99911928075e-08
3.54002257483e-09
8.98339847668e-09
4.70646330747e-09
5.1500638874e-08
1.93514822669e-08
7.75341503524e-09
3.56808541687e-08
4.56651823098e-08
1.57514669902e-08
5.8713542421e-09
1.80494663e-08
3.45941295175e-08
1.58024095139e-08
1.76928472313e-08
6.99151090436e-09
2.23283826148e-08
4.48874484688e-08
3.74377173487e-09
7.04281938927e-08
5.34198267441e-08
6.15777948443e-08
5.67732116562e-08
2.05649991167e-08
1.13148608754e-08
4.70018805742e-08
6.0544489287e-09
1.84323038133e-08
1.3227065336e-08
6.45970517124e-08
1.04967979797e-08
1.98006243243e-08
1.3362441562e-08
2.6902993299e-08
7.77202093674e-09
6.18199116432e-08
6.6168295177e-08
2.11783302479e-08
3.84388982057e-08
3.03211762788e-08
2.25460598687e-08
1.50055844853e-08
9.3385393703e-09
2.04160059523e-08
4.15524744468e-08
8.71802051421e-09
8.95387793896e-08
4.89174242706e-08
2.73091113511e-08
5.93748326606e-08
2.35273663702e-08
3.18709227363e-08
6.0924817697e-09
5.69038585499e-08
4.03777135543e-09
3.87785881827e-09
1.99090179787e-09
2.49412450421e-08
8.68427402879e-09
3.13876422163e-09
1.08300940379e-08
1.30330693241e-08
7.76170681506e-09
9.93788286567e-09
9.09526669016e-09
2.58607256166e-08
2.70342171812e-08