# vtk DataFile Version 3.0
File Name: Molecule/sphere_cent/sphere_cent_0-s13.vtk
ASCII
DATASET UNSTRUCTURED_GRID
FIELD FieldData 1
TIME 1 1 double
0.0
POINTS 321 double
0.19249279797 -0.97271889448 -0.12847314775
0.24922911823 -0.95504420996 0.15639935434
-0.035484801978 -0.99933373928 0.0058119171299
0.4166187942 0.63638293743 0.64728617668
0.29839077592 0.4887278378 0.81985342503
0.57387673855 0.43829119205 0.69159704447
0.68467736244 0.56931298971 0.45490279794
0.78708153963 0.36379575729 0.49770608544
-0.96832716465 -0.14870247245 -0.20024381578
-0.99964505434 -0.0020279155578 0.027167493477
-0.96929526329 0.10219571739 -0.22352410853
-0.56535345316 0.47653222084 -0.67209923267
-0.67488265038 0.59608012438 -0.43493413925
-0.45615458488 0.70631855726 -0.54110062122
-0.49894431233 0.8163613081 -0.29069280624
0.62676382065 0.4323297441 -0.64754128456
0.44815394282 0.67161422968 -0.5893291235
0.70862859488 0.53848600388 -0.45509067178
0.22689405084 0.96622800827 -0.12132588029
0.26505091786 0.9538808465 0.14055916667
0.49045503139 0.86926567554 -0.0544411093
-0.012374820188 0.99988102913 0.0044530993327
-0.13231347501 0.68646925688 0.71487396955
0.0020584680606 0.50352591276 0.86396420002
0.13688340783 0.68003123999 0.72030848265
-0.29807129502 0.49151134491 0.8182002306
-0.50013387203 -0.81595313549 0.2899068296
-0.44925430417 -0.72790521383 0.51787042618
-0.68690961599 -0.58777171373 0.42732441425
-0.65338224173 -0.39797896147 0.64384239912
-0.82189393044 -0.29717707634 0.48603573442
-0.3608686924 0.72707027197 0.58387231827
-0.65417897701 0.495434165 0.56985044479
-0.58888465166 0.36060613394 0.72315579653
-0.50075882673 0.56133955717 0.65885615349
-0.55013769865 0.66273707151 0.50632572174
0.0051183504984 -0.5723553896 0.81935894489
-0.086933135986 -0.40210834146 0.91146087646
-0.2730217576 -0.48584276438 0.83007866144
-0.20643043518 -0.22906193137 0.95071208477
0.10327939689 -0.40568050742 0.90811079741
0.0046685137786 -0.24572238326 0.96928310394
0.22707881033 -0.22231404483 0.94804990292
0.34017634392 -0.49204990268 0.80037945509
0.019602067769 0.026684081182 0.99865800142
-0.025081736967 0.9704169631 -0.23830507696
-0.27265790105 0.95178800821 -0.14042781293
-0.28340807557 0.87318968773 -0.39521715045
-0.41378009319 0.23783731461 0.87843692303
-0.14344780147 0.27453330159 0.95082736015
-0.27511894703 0.049281850457 0.95930236578
0.14730772376 0.2744038105 0.95028090477
0.40427488089 0.25630819798 0.87800234556
0.27568465471 0.037252340466 0.96038413048
0.46536201239 -0.27061885595 0.84253239632
0.59020215273 -0.44352543354 0.67452543974
0.68323868513 -0.18583185971 0.70610535145
0.79140639305 -0.34121909738 0.50565761328
0.44620645046 -0.67530316114 0.58722788095
0.67891389132 -0.58390039206 0.44511422515
0.51031649113 -0.78650981188 0.34502407908
0.20196714997 -0.71667402983 0.66598051786
0.25175964832 -0.85915952921 0.44532468915
0.85830545425 -0.44667097926 0.25232639909
0.71427094936 -0.67483955622 0.18547877669
0.85225862265 -0.52278065681 -0.015926662832
-0.8519244194 -0.52323663235 -0.011878615245
-0.68983083963 -0.71061754227 -0.13780462742
-0.71119749546 -0.68717163801 0.14824612439
-0.51010495424 -0.8600717783 0.006817150861
-0.47910177708 -0.83449870348 -0.27164515853
-0.94900047779 -0.15059554577 0.27695220709
-0.86577284336 -0.437369138 0.24314680696
-0.96168875694 -0.27196469903 0.031717464328
0.70481467247 -0.70559084415 -0.072824709117
-0.01434067823 -0.95950895548 0.28116932511
0.95225673914 -0.1686771512 0.25326853991
0.96121841669 -0.27446204424 -0.02382119745
0.57393729687 0.039054792374 0.81764966249
0.72152173519 0.07684391737 0.6878862381
-0.68332725763 -0.61521428823 -0.39273115993
-0.79866480827 -0.51954257488 -0.30198097229
-0.0041154744104 0.96193170547 0.27309983969
-0.26467376947 0.9541631937 0.13978037238
-0.25254842639 0.88402748108 0.39251431823
-0.47545513511 0.8354229331 0.27286660671
-0.5067384243 0.86208146811 -0.0053011411801
-0.7031776309 0.69461292028 -0.15156489611
-0.69066053629 0.71318686008 0.11276176572
-0.24178919196 -0.87215405703 -0.42450416088
-0.28099793196 -0.94914412498 -0.14201955497
-0.050164677203 -0.9629330039 -0.26497086883
0.0090420823544 -0.86731463671 -0.49695029855
-0.27894699574 -0.94935554266 0.14458590746
-0.25770586729 -0.88329833746 0.39157360792
-0.026063282043 -0.86365944147 0.50254970789
-0.71412062645 0.13261647522 0.68601459265
-0.86416912079 -0.0067145149224 0.50320023298
-0.72340714931 -0.13469778001 0.6771492362
-0.82847732306 0.26329311728 0.49267271161
-0.88668417931 0.39519605041 0.23636737466
-0.9647680521 0.25976902246 0.041671033949
-0.95164251328 0.13751575351 0.27482774854
-0.51717215776 0.75301188231 0.40364336967
-0.74207371473 0.38878116012 0.54366230965
-0.86056852341 0.50520569086 -0.050249975175
-0.83532297611 0.47171360254 -0.28191715479
0.24912688136 0.88940060139 0.38311707973
0.82073944807 -0.26946026087 -0.5014847517
0.69748061895 -0.13907888532 -0.70280909538
0.86486965418 0.0054043326527 -0.50196373463
0.71908795834 0.11779715121 -0.68391263485
0.52165555954 0.015771506354 -0.85295546055
0.42368045449 -0.24548014998 -0.87187772989
0.26358729601 -0.050148263574 -0.96321982145
0.1333270371 -0.27301365137 -0.95271211863
0.26335054636 -0.47711211443 -0.83806699514
0.020154301077 -0.033675916493 -0.99862974882
0.036436665803 -0.51343762875 -0.85680347681
0.16558632255 -0.67308813334 -0.71968376637
-0.40955492854 -0.2730692625 0.86999040842
-0.15608808398 -0.6826018095 0.71340537071
0.60414284468 -0.38941574097 -0.69404947758
0.053431943059 0.85883259773 0.50768321753
0.25462296605 0.78751957417 0.56105226278
0.43913632631 0.77385306358 0.45525377989
0.46476271749 0.83321136236 0.29820981622
-0.89673262835 0.25337025523 -0.36287435889
-0.86592519283 0.055841546506 -0.49578112364
-0.80090039968 0.34142252803 -0.48993074894
-0.92820644379 0.33322530985 -0.16494642198
-0.5362598896 -0.56961899996 0.62280547619
-0.36172577739 -0.62733960152 0.68962037563
-0.47473177314 -0.44456583261 0.75958645344
-0.24776366353 -0.77949804068 0.57528710365
-0.57622659206 -0.24929483235 0.77833628654
-0.54900336266 -0.028306826949 0.83405017853
0.88806539774 -0.38754215837 -0.24269872904
0.95142322779 -0.13361810148 -0.27734091878
0.99758547544 0.0021975017153 -0.055862136185
0.94928431511 0.14458328485 -0.27918583155
0.96572512388 0.25091952085 -0.042690142989
0.8340061307 0.28999039531 -0.46741589904
0.87688243389 0.39581552148 -0.26856940985
0.48587477207 -0.79882979393 -0.35441127419
0.35350459814 -0.89873272181 -0.25927999616
0.27186214924 -0.84008592367 -0.46894216537
0.1524387747 -0.92815732956 -0.33962255716
0.5388328433 -0.82664757967 -0.16217128932
0.39064717293 -0.91816020012 -0.065059773624
0.54927653074 -0.83294808865 0.052951440215
0.46243876219 0.4459618032 -0.7663628459
0.30330374837 0.54430091381 -0.78179752827
0.26327338815 0.37432202697 -0.88908487558
0.57796239853 0.24798898399 -0.7773617506
0.43010956049 0.2693631053 -0.86162239313
0.32006853819 0.14640586078 -0.93594664335
0.14760278165 0.2449490875 -0.95804321766
0.090407311916 0.10483809561 -0.99021738768
0.64936113358 -0.70991843939 -0.27271077037
0.96626913548 0.14888083935 0.20816963911
0.89639031887 0.25414979458 0.36304298043
0.91772371531 0.066336192191 0.39160892367
0.82939189672 0.15990503132 0.53525704145
0.83696722984 -0.050564356148 0.54367870092
0.851349473 0.43636921048 0.29102927446
0.92834377289 0.34226945043 0.14544953406
0.83702272177 0.54579722881 0.01495175343
-0.30354833603 0.49207478762 -0.81586652994
-0.35742005706 0.61737412214 -0.70075762272
-0.15517427027 0.67109066248 -0.72500175238
-0.23202013969 0.77700161934 -0.5853074193
0.027255065739 0.82821655273 -0.55918860435
0.78067946434 0.57767081261 -0.23890469968
0.67788952589 0.71511673927 -0.17061403394
0.62491250038 0.68945705891 -0.3658259213
0.49515962601 0.80858874321 -0.31717252731
0.2838845253 0.83519989252 -0.47029840946
0.19905157387 0.70704269409 -0.67800796032
0.35336831212 0.89974403381 -0.25569909811
0.15819481015 0.92380464077 -0.34899136424
0.7824909687 -0.58150988817 -0.22271750867
0.70157700777 -0.56853055954 -0.42893207073
0.61360526085 0.71745789051 0.32974371314
0.53481096029 0.83429408073 0.13428460062
0.76700532436 0.59362912178 0.24300667644
0.68903952837 0.70650440454 0.16137783229
0.71537381411 0.26905548573 0.64495009184
-0.80874079466 -0.31164476275 -0.49876365066
-0.89674597979 -0.24205680192 -0.37028574944
-0.84605926275 -0.18482840061 -0.4998524189
-0.92058831453 -0.080250732601 -0.38209995627
-0.64768016338 -0.52135062218 -0.5550031662
-0.75663018227 -0.46527662873 -0.45929440856
-0.72087043524 -0.38083004951 -0.57882857323
0.67775887251 0.73514848948 0.009055792354
0.1485683918 0.54045677185 -0.82814019918
0.032248921692 0.67709577084 -0.73519146442
-0.001610693871 0.52451920509 -0.85122251511
0.59754180908 0.22585000098 0.76937818527
0.075082316995 0.38491791487 -0.91973668337
-0.52388352156 -0.0016744764289 -0.85178291798
-0.72651404142 0.028906259686 -0.68660455942
-0.68857395649 0.17312414944 -0.70433938503
-0.80923712254 0.18896369636 -0.55584347248
-0.69559907913 0.36246916652 -0.62049478292
-0.56892865896 0.24765640497 -0.78432619572
-0.42437538505 0.26310300827 -0.86643260717
-0.44218125939 0.43736609817 -0.78281801939
-0.25556090474 0.36088728905 -0.89669144154
-0.28861561418 -0.51429408789 -0.80642259121
-0.43153324723 -0.43702182174 -0.78880375624
-0.25371706486 -0.36927002668 -0.89375126362
-0.54833310843 -0.25486567616 -0.79691118002
-0.41889974475 -0.26116323471 -0.86974984407
-0.55159986019 -0.44219622016 -0.70670247078
-0.48950278759 -0.55600082874 -0.67059224844
-0.10420297086 0.097183652222 -0.98976564407
-0.0079265814275 0.24677728117 -0.96902483702
-0.15644691885 0.25090181828 -0.95526427031
-0.0803970173 0.38417419791 -0.91974431276
-0.15550428629 0.4990581274 -0.85248827934
-0.33045002818 0.14217846096 -0.93319022655
-0.2676268518 -0.0075812339783 -0.96355420351
-0.09976759553 -0.12860736251 -0.98668271303
[...]
CELL_DATA 638
SCALARS cell_data_0 double
LOOKUP_TABLE default
3.24423504535e-07
1.49410136908e-07
8.56854237002e-07
7.3681350087e-08
1.53677507707e-07
4.06496708262e-08
5.16625596004e-07
3.68929367679e-07
1.29111700051e-07
6.08674745198e-08
3.15051551425e-07
1.74109313582e-07
2.51036771781e-07
2.60411267385e-07
7.17093073933e-07
7.98086288119e-08
1.46237551745e-07
1.68056625027e-07
1.37048656441e-08
1.30733101097e-07
1.04128476966e-07
1.63140753251e-08
3.8895344185e-08
6.82817773936e-07
3.96531519395e-08
7.4433372953e-07
6.51369173888e-07
3.73270535533e-08
6.00763659945e-08
2.7934300249e-08
2.90032816752e-07
2.51635871236e-07
4.12924739279e-07
8.5948846496e-08
4.66650187001e-07
1.89957471688e-07
3.92986813234e-07
1.29511630171e-07
3.80188182654e-07
2.01932962799e-08
1.09990900748e-07
2.93015545356e-08
2.78518022155e-07
2.62881250131e-07
1.08478448758e-07
2.17629779017e-07
3.59087264761e-07
2.31164222533e-07
1.17137144646e-07
1.48597373104e-07
6.12161566423e-08
7.35503630352e-08
1.11951848435e-07
5.20841158067e-08
1.29078495156e-07
1.97247171213e-07
4.88222510688e-07
3.69955236631e-07
3.3035877192e-07
2.20756939924e-07
6.88251957023e-07
1.35431184724e-06
1.69412817383e-07
5.63254433219e-07
6.04871861963e-08
5.15716810416e-08
3.46700265775e-07
4.75463095496e-08
4.72926485707e-07
4.16335806308e-07
3.86861604289e-08
1.44952868898e-08
3.81726396223e-08
1.52458762878e-07
1.32973988804e-07
3.45004969016e-09
2.65705078129e-07
9.9044871499e-08
3.09104212213e-07
4.15791818565e-07
2.90013140487e-07
3.45379460383e-07
8.39686134466e-08
6.53309860682e-08
1.96339334884e-07
1.5558986883e-07
1.16144619166e-07
1.78266456632e-07
2.25064104871e-07
1.92804823783e-07
1.31303239591e-07
1.16475030609e-08
1.96170120328e-07
4.05032313396e-07
7.19502970533e-07
9.53191886335e-08
3.96279857439e-08
2.36162276025e-07
5.04060383749e-08
3.17373223606e-07
2.03403509009e-07
2.70757034941e-07
8.66446382264e-08
6.24357372975e-08
1.27563769251e-09
3.73571202081e-09
6.24461880527e-07
2.59548554283e-07
1.42384207657e-07
2.36546388643e-07
7.19407505921e-08
2.26342061473e-07
2.04840504989e-08
1.46876893208e-07
4.18183879834e-07
2.43852595095e-07
1.40330075704e-07
3.45173945579e-08
2.0503576475e-07
1.40424251383e-07
1.70045294313e-07
9.19622686367e-08
2.34903594785e-07
3.18269712719e-07
3.75176436946e-07
6.67032934757e-09
2.23852409199e-07
5.66140489673e-07
4.47295987504e-07
2.55556249387e-07
1.30483044429e-07
5.6218375793e-07
4.80083890242e-07
1.05253540252e-07
1.97612298006e-07
2.48617164736e-07
1.28450325947e-07
1.87882884785e-08
2.29835170863e-07
3.96259398543e-07
7.53329459306e-08
2.31106509499e-08
2.08364349053e-07
1.79854976038e-08
2.02223999527e-07
2.48506440126e-07
1.09467478334e-07
1.88724569801e-07
1.33654782206e-07
1.66869211381e-07
1.10211073353e-07
1.00173364686e-07
4.69060518675e-08
1.02250734634e-07
2.54652959622e-08
1.93440544202e-07
2.63210667221e-07
1.89573320018e-07
1.62149573603e-07
2.9657001277e-07
2.13479584262e-07
4.75310294442e-08
1.75021244688e-07
4.30139956632e-07
2.32159190683e-07
1.32793001414e-07
1.66985303952e-07
3.19041084307e-07
1.69850006005e-07
1.81618765092e-07
2.73646063484e-08
1.01643258867e-08
9.52183558514e-08
3.09625972262e-08
1.2847546891e-07
2.4005127624e-08
2.58634999828e-07
1.9692742987e-07
1.91553980081e-07
5.31042177962e-07
2.13610596073e-08
2.17449696305e-08
2.40346225251e-08
2.19838945724e-07
3.0121448513e-08
1.36955584718e-08
8.12918953184e-08
4.4093700388e-08
1.61648704361e-07
1.44115182084e-07
2.28832599989e-07
1.69829766417e-07
1.11572507108e-07
3.38559966119e-07
4.26850399827e-07
1.23649958992e-07
2.28189659379e-07
9.23395093486e-08
1.11406542355e-07
5.01386214402e-08
1.15189719014e-07
3.18355955467e-08
7.72937406038e-08
1.99649898837e-08
2.29550699109e-07
6.32981157922e-08
6.8664133897e-08
3.66980118151e-07
3.6346842942e-08
1.29560520334e-07
2.44308495695e-07
1.20942409238e-07
4.65700287871e-07
2.6329709127e-07
4.89689399651e-07
2.12671841628e-07
2.31226706695e-07
3.51844023439e-07
8.54060291269e-08
1.45924253073e-07
2.53770109348e-07
2.96241182907e-07
4.9185691273e-07
3.23588036974e-07
4.71458218002e-09
1.36292037827e-07
3.2823069804e-08
1.2844891872e-07
1.20484079273e-07
1.83642734136e-07
3.07808679966e-07
1.9876802579e-08
2.78458099098e-07
2.28605127782e-07
1.6509379951e-07
5.71365314402e-08
3.78685107114e-07
1.65046680035e-07
1.98713949511e-07
1.09649314136e-07
8.2027755944e-08
2.01532808241e-07
1.35103556834e-07
2.47335233567e-07
1.16987464361e-07
1.58221017908e-07
8.50240428499e-09
2.40317084888e-08
9.20056201023e-08
2.61355752969e-07
1.41519403622e-07
1.82063670285e-08
6.46308263084e-09
7.61196291992e-08
1.08683682802e-08
2.20869652422e-07
1.6127251871e-08
1.24745119241e-07
3.10883445659e-07
2.84943269018e-07
1.1682796917e-07
9.41449406364e-08
7.9104109095e-08
2.28015950113e-07
7.84492016794e-08
3.89816579246e-07
1.67202818685e-07
2.9228413735e-08
8.14236556734e-08
1.25338514639e-07
2.39018000069e-07
4.90484244275e-08
3.19854779195e-07
2.20201553354e-07
7.21303413907e-08
6.05182614159e-08
3.33014750879e-07
4.23023586182e-08
3.36371513584e-08
1.13799441867e-07
1.35722794531e-07
7.82840075062e-08
8.46623468446e-08
1.22515317805e-07
6.54180337076e-08
1.38949380148e-07
1.64659852293e-07
1.14232072703e-07
2.36012208004e-07
2.58760982148e-07
2.07785884673e-07
5.77025547147e-08
2.44198811082e-08
8.80975911921e-08
7.67453435295e-08
1.73766780395e-08
3.70341379703e-07
2.62807912706e-07
7.57730805159e-08
3.76399645724e-07
5.0397202237e-08
1.58908739511e-07
2.82625902575e-07
9.85872304385e-08
1.1391584327e-07
1.16446433908e-07
4.20731348894e-08
6.45743925783e-08
1.53929648772e-08
2.43492427185e-08
9.33769067308e-08
2.43921039864e-08
2.03246169776e-07
7.01446328801e-08
8.82165370786e-08
5.85436660591e-08
5.14428105356e-08
4.17845181385e-08
9.40187099931e-08
9.85252939753e-08
1.97218685292e-07
1.73355458648e-07
1.61784987754e-08
6.64809327282e-08
3.37924316373e-07
9.33099060616e-08
4.27607829619e-07
7.15313832927e-08
2.78198389e-07
2.67163753132e-08
6.44040018142e-08
3.62255490621e-07
2.21736425002e-07
1.28212263091e-08
7.88590340064e-08
1.30510754231e-07
1.12797093466e-07
2.11936924384e-08
2.66002402593e-07
8.36584163609e-08
2.41391156642e-07
1.66119489652e-07
3.04241093509e-08
1.37361969437e-07
9.9896198456e-08
1.68433633727e-07
1.66605646846e-07
1.46384336909e-07
3.55094876871e-08
1.14992768886e-07
1.16925402434e-07
1.24340290867e-07
2.23582514316e-08
1.47934651033e-07
1.22223929211e-07
9.57642856768e-08
2.77942991604e-07
6.81947362007e-08
1.28538007495e-07
9.36897296882e-08
4.42779511753e-08
5.36856404913e-08
1.04569747372e-07
1.50098324222e-07
1.92043973105e-07
6.33621133576e-08
6.74384277571e-08
1.4471273223e-07
3.73101203935e-08
3.07652116126e-07
3.20863785821e-08
3.13308820208e-08
2.05749454015e-08
2.00555024596e-07
1.55209415058e-08
5.71335314551e-08
7.30519183662e-08
5.86510411049e-09
3.00371605355e-07
9.32432702764e-08
4.46699585025e-09
1.78613735586e-07
1.98688139851e-08
1.20990812032e-07
1.36997513747e-07
6.63580866759e-08
2.81626236411e-07
9.48361770815e-08
6.33652259598e-08
3.46034524832e-07
1.03848798397e-07
3.70845488003e-07
2.50676773438e-07
2.15677909291e-07
1.86803841753e-07
1.39944719414e-07
1.5323260956e-07
1.46431237428e-07
1.23429712382e-07
2.46519023395e-07
2.72626399547e-08
1.10942182504e-07
2.12078352951e-07
2.13858527776e-07
3.05691238866e-08
1.39792576821e-07
2.35847381709e-07
2.05718972266e-07
1.76900998328e-07
1.260789911e-07
9.3611295645e-08
3.26778066324e-08
9.67125879342e-08
2.62120962278e-07
1.50555268627e-07
5.57795302135e-08
2.45186693214e-08
2.43100479757e-07
1.55244456408e-07
2.19968659551e-07
7.13119238291e-08
1.81379387631e-07
9.82059881389e-08
1.52903057756e-07
5.5903165123e-08
1.85501305702e-07
8.52323747349e-08
1.2962816191e-07
2.30070522151e-07
1.04755545371e-07
1.80285086661e-07
1.67465952846e-07
1.70466617961e-07
1.08485055426e-07
3.81125721712e-08
4.05369553811e-09
8.74617946073e-09
1.32092627796e-08
2.44987104674e-07
1.81861850486e-07
1.71545554727e-07
1.46159240669e-07
4.98414126887e-08
2.0518876129e-07
1.03806666416e-07
3.94331575568e-08
6.15444342555e-08
1.21393636735e-07
7.00746251407e-08
8.28655383703e-08
2.89234106333e-07
5.4526061459e-08
3.93310568721e-07
3.1627763214e-08
3.17218223511e-08
1.92596444708e-07
1.45109688518e-07
9.85583137082e-09
2.43360206422e-07
6.92114605612e-08
1.68257182749e-08
1.6449398709e-07
5.01925802851e-08
2.78697612177e-08
1.19749437564e-07
3.74545487189e-08
3.29675866234e-07
1.51472501742e-08
6.0388355927e-08
6.87137744225e-08
1.13547223416e-08
4.50886584764e-08
1.09628160128e-07
2.11127219984e-07
1.24240085032e-07
2.92916650642e-07
1.50095558263e-07
4.08028673879e-07
1.80201908383e-07
2.47495757327e-07
1.38638851702e-07
2.86249503418e-07
2.48644793322e-07
3.03114927714e-07
3.72936248936e-08
1.75345041573e-07
7.80494795868e-09
3.52996016158e-07
4.5101146291e-08
4.10774370906e-07
3.53238849662e-08
7.48581939716e-08
3.40719797504e-08
3.16967945444e-07
1.55022351034e-07
2.94043701932e-07
1.13446280701e-07
2.00763358957e-08
5.13604721748e-09
7.25193157059e-10
3.75365317186e-08
2.85363314335e-08
2.47433099868e-07
7.43071200934e-07
3.33484163938e-07
2.40298984761e-09
2.4480770229e-08
7.241502809e-08
5.80581539968e-08
8.44343708718e-08
1.09048692768e-07
1.84951866257e-07
2.59865774713e-08
8.23895227216e-08
1.12982313736e-07
1.45983685878e-07
2.58044393156e-08
2.55167390138e-07
1.37557869668e-07
2.26132555841e-07
2.88810359583e-07
2.67759939196e-07
2.41833395207e-08
4.61375657062e-08
1.41942179929e-07
2.16639207001e-07
7.03494019971e-08
3.1948008793e-07
1.27413639624e-07
9.90219425755e-08
2.93243302597e-07
9.31532422994e-08
2.27384199968e-07
1.15346926534e-07
3.08548041362e-07
3.67517194189e-08
1.62956637606e-07
2.00634754769e-08
3.5392507513e-08
1.52595353912e-07
9.99936478152e-08
5.73573167292e-08
7.99408640882e-08
1.10367020567e-07
1.92290105569e-07
8.93416106427e-08
2.51315588614e-08
1.35513154209e-07
1.45718682892e-07
8.61176037695e-08
2.51227744025e-07
3.11988755118e-07
2.61247937138e-07
4.84524163152e-08
4.63273705482e-08
1.60343029607e-07
2.12681511777e-07
1.86317799276e-07
9.12099796775e-08
6.10352009719e-08
2.12486538653e-08
1.63957036659e-07
1.73737916263e-07
6.55816587409e-08
8.50705682253e-08
2.93840540696e-07
1.68617516567e-07
2.43464460098e-07
9.17556151415e-08
7.94173095538e-08
2.31790832425e-08
4.5473026643e-09
8.79388433687e-08
1.76512474399e-07
8.05443581923e-08
2.63480051617e-07
5.17013938518e-08
2.66967105491e-07
1.2903412769e-08
1.56152849726e-07
4.31913064376e-07
1.25881491822e-07
3.09395284852e-08
1.34669403142e-07
1.28628159245e-07
9.71963254007e-08
3.41286159429e-07
1.31759664594e-07
5.64597427374e-08
2.50432382638e-07
1.04623025802e-07
3.25386982901e-07
5.80739118796e-08
1.11966770491e-07
1.47782889208e-07
1.0678289395e-07
9.84937446884e-08
3.85399638807e-07
4.20024181088e-08
9.06326991174e-08
1.48073425613e-07
2.14658826451e-07
3.51471912317e-08
1.56747492722e-07
2.50978405685e-07
7.66529219548e-08
5.48555173311e-08
1.76126412361e-07
1.87505165242e-07
2.12600075724e-07
5.74338437597e-07
2.23160464697e-07
1.35941486699e-07
1.0536093316e-07
5.23460942558e-07
1.57862090214e-07
4.80705783077e-08
6.33352325457e-08
1.52061962448e-07
3.49003528499e-08
1.43027720433e-08
7.20200071382e-08
3.85623921164e-08
1.06037235495e-09
1.23990482064e-07
1.12818557333e-07
1.3632715693e-07
2.85885825503e-09
5.70499624675e-08
1.81878697475e-07
6.17960128753e-08
1.80048909474e-07
2.83434704066e-09
1.33733521925e-08
3.96772100629e-08
7.3869873794e-08
6.58501638755e-08
3.95658138399e-08

