# vtk DataFile Version 3.0
File Name: Molecule/sphere_excent/sphere_excent_0-s21.vtk
ASCII
DATASET UNSTRUCTURED_GRID
FIELD FieldData 1
TIME 1 1 double
0.0
POINTS 209 double
0.0074653960764 0.84908211231 0.52796846628
-0.4619807601 0.7840051055 0.41419318318
-0.33098998666 0.59106010199 0.73523813486
-0.34586498141 -0.60193133354 0.72015547752
0.0072224554606 -0.8477793932 0.53032869101
0.019708711654 -0.4975477457 0.86738419533
0.34447035193 -0.58632493019 0.73288297653
0.50048369169 -0.80927401781 0.30728587508
0.83874237537 -0.32789072394 0.43292933702
0.85365104675 -0.51592749357 0.038553629071
0.99027848244 -0.11283452809 0.082086734474
0.51786822081 0.72873866558 0.44708502293
0.37149775028 0.56609970331 0.73540759087
0.73563873768 0.33439642191 0.58804869652
-0.85980939865 -0.33994108438 -0.38140007854
-0.84070008993 -0.54063296318 0.02275140211
-0.99171096087 -0.10894913971 0.065429322422
-0.54858374596 -0.80029171705 -0.24101777375
-0.49656441808 -0.81491613388 0.29873692989
-0.00099428137764 -0.99963784218 0.016002427787
-0.79839771986 -0.33717122674 0.49900752306
-0.87493950129 0.19523380697 0.44193780422
0.50955289602 -0.83009040356 -0.22074696422
0.003391726641 0.99978369474 0.0066708549857
-0.2733130455 0.94485002756 0.17995995283
-0.26114863157 0.94834452868 -0.17991684377
-0.51977235079 0.8541867137 -0.0020016371273
-0.47093516588 0.79369407892 -0.38371390104
0.033803775907 0.908842206 -0.41253447533
0.27151319385 0.95063298941 -0.15024961531
0.27943906188 0.93874132633 0.20093339682
0.46118611097 0.88703179359 0.020688435063
0.42942711711 0.82158476114 -0.37268128991
0.5932097435 0.50274455547 -0.62865722179
0.40944683552 0.69552350044 -0.58933639526
0.62388455868 0.64409655333 -0.44223073125
0.10550960153 0.78942006826 -0.60279256105
0.94901049137 -0.22101309896 -0.22544272244
0.78983294964 -0.41962406039 -0.44451233745
0.87401145697 -0.10946241021 -0.47354534268
0.97252953053 0.021833635867 -0.23086991906
0.49641060829 -0.030995100737 -0.86761766672
0.42638367414 -0.26487496495 -0.86482459307
0.26710671186 0.019289886579 -0.96336168051
0.1675799042 -0.23385775089 -0.95774942636
0.32131418586 -0.50082582235 -0.80375438929
-0.014224031009 0.06949351728 -0.99691480398
0.6840171814 -0.23086751997 -0.69189417362
0.57036316395 -0.45545640588 -0.68334048986
0.47237658501 -0.67561984062 -0.56623208523
0.67515343428 -0.64616018534 -0.35452494025
0.14806358516 0.38321489096 -0.90852636099
0.71445912123 0.34775820374 -0.60705679655
0.74759554863 0.47794300318 -0.46109488606
0.44194346666 0.44884890318 -0.77648937702
0.57675844431 0.31893381476 -0.75197517872
0.42039614916 0.23228394985 -0.87708973885
0.59033191204 0.13674208522 -0.79542970657
0.68106269836 0.21597251296 -0.69963252544
0.82611173391 0.31582790613 -0.46665278077
0.77470594645 0.20113971829 -0.59935432673
0.75254875422 -0.049518786371 -0.6565362215
0.015854516998 0.5461166501 0.83741438389
-0.19797369838 0.35863822699 0.91219973564
-0.45147866011 0.32846570015 0.82919794321
-0.59850871563 -0.060046289116 0.79819774628
-0.47130671144 -0.28997045755 0.83259701729
-0.37053990364 -0.059847801924 0.9268001914
-0.21993789077 -0.30312395096 0.92714321613
0.93641328812 0.12586279213 0.32688680291
0.96743518114 0.22657771409 0.11076814681
0.85018205643 0.43818947673 0.29189309478
-0.95077961683 0.071145310998 -0.30119287968
-0.73964011669 -0.11917281896 -0.66092163324
-0.81569558382 0.21571658552 -0.53661566973
-0.86636817455 0.41590607166 -0.27622774243
-0.96350169182 0.26686444879 0.017204551026
-0.84897613525 0.52832770348 0.003928785678
-0.66401225328 0.58892756701 -0.46053391695
-0.70665472746 0.6820140481 -0.18864774704
-0.69763183594 0.6880106926 0.19934424758
-0.46274885535 -0.3208283484 -0.82608097792
-0.60166543722 -0.46819978952 -0.64728724957
-0.59414857626 -0.12388022244 -0.79377293587
-0.34198856354 -0.54321008921 -0.76678800583
-0.36751052737 -0.74792677164 -0.55227941275
0.52178448439 0.83897584677 -0.15352669358
0.67116779089 0.71159887314 -0.20723792911
0.65750688314 0.7535392642 0.0043330499902
0.81943339109 0.57275027037 -0.0069856513292
0.72048246861 0.66831457615 0.18534313142
0.54606121778 0.81602168083 0.18943887949
-0.65709090233 0.53990143538 0.52583652735
-0.84392553568 0.46410357952 0.26903420687
0.8351829052 0.44717127085 -0.31959548593
0.76963895559 0.57399016619 -0.2795792222
-0.14569790661 -0.040834371001 0.98830807209
0.068014487624 -0.034710947424 0.99707531929
-0.01990609616 -0.21141606569 0.97703397274
0.18436902761 -0.23441629112 0.95437377691
-0.19331680238 0.31112882495 -0.93045526743
-0.32682657242 0.10512109846 -0.93723982573
-0.45075121522 0.27791532874 -0.84802824259
0.50140970945 0.2757410109 0.82002651691
-0.0022898425814 0.29991161823 0.95389032364
0.17079240084 0.2914839685 0.94110608101
-0.062419325113 0.13450589776 0.98885393143
0.13720212877 0.13131824136 0.98177552223
0.29644423723 0.39278575778 0.87052172422
-0.27513390779 0.14806215465 0.94955575466
-0.53427857161 0.12842391431 0.83533990383
0.34125107527 0.169701159 0.92456197739
0.52409315109 -0.026938378811 0.85097360611
0.27522695065 -0.018064441159 0.9612069726
-0.28002047539 0.54428952932 -0.7906408906
-0.073939405382 0.51547157764 -0.85319983959
0.099220514297 -0.58658599854 -0.80365550518
0.093230605125 -0.44022357464 -0.89293223619
-0.012358261272 -0.91053122282 -0.41196763515
0.22810125351 -0.90430116653 -0.35993850231
0.85553562641 0.14156936109 -0.49793422222
0.80237483978 0.060254219919 -0.5937153697
0.71627956629 0.089452758431 -0.69203072786
0.65058684349 -0.0088395709172 -0.75936567783
0.25193575025 -0.67533737421 -0.69317758083
0.098199799657 -0.83976298571 -0.53388416767
0.30099970102 -0.79853409529 -0.52120095491
0.13781358302 -0.75315719843 -0.64292895794
-0.25687098503 -0.88944035769 -0.37766113877
-0.016738107428 -0.7602236867 -0.64930397272
0.073271133006 -0.68963235617 -0.72039920092
-0.046795219183 -0.67298197746 -0.73819977045
-0.19051091373 -0.72047799826 -0.66677117348
-0.12871412933 -0.83102411032 -0.54127782583
-0.15510176122 -0.62065464258 -0.76850450039
-0.053014025092 -0.58695012331 -0.80787718296
-0.12880291045 -0.53156507015 -0.83715504408
-0.022215018049 -0.50275850296 -0.86402255297
-0.73419582844 0.40745228529 -0.54306906462
-0.65065479279 0.28460651636 -0.70402234793
-0.58417367935 0.44131964445 -0.68111079931
-0.67954319715 0.12573513389 -0.72237420082
-0.4187130928 0.43618115783 -0.79648923874
-0.48668053746 0.57861548662 -0.65418547392
-0.54834246635 0.16567449272 -0.81938570738
-0.5629992485 0.040142022073 -0.82506072521
-0.45136660337 0.066244997084 -0.8890556097
0.4982239902 -0.30068600178 0.81323128939
0.69242024422 -0.183008641 0.69785928726
0.61319214106 -0.45083612204 0.64828848839
0.81956261396 0.0019012150588 0.57291102409
0.67353761196 0.11174371839 0.73063081503
-0.74170774221 0.082375966012 0.66486096382
-0.67823338509 0.27579319477 0.68099844456
0.294947505 -0.38549053669 0.87424641848
0.37313377857 -0.17841984332 0.91047775745
-0.22390112281 -0.44599866867 -0.86659574509
-0.29731965065 -0.34580525756 -0.88971221447
-0.007392401807 -0.31176033616 -0.95010519028
-0.14732456207 -0.36414667964 -0.91958135366
-0.040180556476 -0.41372030973 -0.90951192379
-0.12093363702 -0.45177996159 -0.88388872147
-0.21601574123 -0.53410959244 -0.8173558116
0.92127168179 0.09646204859 -0.375875175
0.91589331627 0.3983733952 0.048515949398
0.98648363352 0.14545147121 -0.070291154087
0.85633409023 0.48678341508 -0.17222674191
0.93899464607 0.17837181687 -0.29407772422
0.96074146032 0.21064269543 -0.18040037155
0.92542481422 0.28942707181 -0.24449037015
0.90286689997 0.26433259249 -0.33895891905
0.93308126926 0.32712569833 -0.14942474663
0.88380360603 0.34975582361 -0.31059870124
0.89469403028 0.39209407568 -0.21397070587
0.90262979269 0.42287892103 -0.080473467708
0.89076143503 0.20175877213 -0.40732434392
0.95615005493 0.28949958086 -0.044010750949
-0.0527863428 -0.17658659816 -0.98272693157
-0.18220071495 -0.24741797149 -0.95162254572
-0.21903054416 -0.11254934222 -0.96905124187
-0.32815781236 -0.23533649743 -0.91411280632
-0.26767399907 0.83742374182 -0.47355589271
0.14230504632 0.55046415329 -0.82234579325
-0.12877312303 0.62762981653 -0.76781380177
0.0073674153537 0.62034827471 -0.78428685665
-0.042446803302 0.71783512831 -0.69477802515
-0.21776844561 0.69429123402 -0.68579387665
0.11724220216 0.67550718784 -0.72795450687
-0.083403237164 0.81834942102 -0.56756311655
0.70947945118 -0.69578880072 -0.11113596708
0.83648854494 -0.50252687931 -0.21848411858
0.41162255406 0.57963466644 -0.70324254036
0.25997915864 0.6792562604 -0.68634754419
0.2789748013 0.57485204935 -0.76914322376
0.29972419143 0.44645482302 -0.84299558401
-0.33764454722 0.75462460518 -0.56269907951
-0.47636979818 0.69523251057 -0.53822368383
-0.35423761606 0.65916597843 -0.6634170413
-0.17572952807 0.76858413219 -0.61487227678
-0.17972655594 0.077962294221 -0.9803288579
-0.13218639791 -0.026733528823 -0.99087035656
-0.27324104309 -0.011477522552 -0.96191096306
-0.33990576863 -0.10037776083 -0.93498879671
-0.38801497221 -0.013596760109 -0.9215502739
-0.45771035552 -0.11030890048 -0.88188397884
-0.50859099627 -0.036720111966 -0.8601475358
-0.65060210228 -0.035290561616 -0.75856840611
-0.28219154477 -0.1680855006 -0.94450098276
-0.38804617524 -0.16924861073 -0.90572679043

CELLS 414 1656
3 0 1 2
3 3 4 5
3 6 4 7
3 8 7 9
3 9 10 8
3 11 12 13
3 11 0 12
3 14 15 16
3 15 17 18
3 17 19 18
3 18 19 4
3 15 18 20
3 18 3 20
3 18 4 3
3 21 16 20
3 20 16 15
3 14 17 15
3 22 7 19
3 19 7 4
3 23 24 0
3 0 24 1
3 23 25 24
3 25 26 24
3 25 27 26
3 24 26 1
3 28 25 23
3 29 30 31
3 29 23 30
3 23 29 28
3 28 29 32
3 11 30 0
3 30 23 0
3 33 34 35
3 35 34 32
3 28 32 36
3 9 37 10
3 38 39 37
3 39 40 37
3 37 40 10
3 41 42 43
3 42 44 43
3 42 45 44
3 43 44 46
3 41 47 42
3 47 48 42
3 47 38 48
3 42 48 45
3 49 48 50
3 43 46 51
3 38 47 39
3 52 33 53
3 54 55 56
3 54 33 55
3 41 56 57
3 55 52 58
3 55 33 52
3 52 59 60
3 51 56 43
3 43 56 41
3 47 61 39
3 2 62 0
3 0 62 12
3 2 63 62
3 2 64 63
3 65 66 67
3 66 68 67
3 66 3 68
3 3 66 20
3 20 66 65
3 10 69 8
3 10 70 69
3 70 71 69
3 69 71 13
3 13 71 11
3 16 72 14
3 14 72 73
3 74 72 75
3 72 76 75
3 72 16 76
3 75 76 77
3 27 78 79
3 78 75 79
3 79 75 77
3 21 76 16
3 27 79 26
3 26 79 80
3 74 73 72
3 81 82 83
3 81 84 82
3 73 82 14
3 14 82 17
3 17 82 85
3 32 86 87
3 86 88 87
3 86 31 88
3 87 88 89
3 89 88 90
3 88 91 90
3 88 31 91
3 90 91 11
3 31 86 29
3 29 86 32
3 11 91 30
3 30 91 31
3 32 87 35
3 89 90 71
3 71 90 11
3 1 92 2
3 2 92 64
3 1 80 92
3 80 93 92
3 80 77 93
3 92 93 21
3 77 80 79
3 26 80 1
3 59 53 94
3 53 95 94
3 53 35 95
3 35 53 33
3 52 53 59
3 67 68 96
3 97 98 99
3 98 5 99
3 98 68 5
3 6 5 4
3 5 68 3
3 21 93 76
3 76 93 77
3 89 95 87
3 87 95 35
3 46 100 51
3 101 102 100
3 12 103 13
3 63 104 62
3 104 105 62
3 63 106 104
3 106 107 104
3 106 97 107
3 104 107 105
3 105 108 62
3 62 108 12
3 67 109 110
3 64 109 63
3 63 109 106
3 109 96 106
3 109 67 96
3 106 96 97
3 12 108 103
3 108 111 103
3 108 105 111
3 103 111 112
3 105 107 111
3 107 113 111
3 107 97 113
3 111 113 112
3 99 113 97
3 97 96 98
3 98 96 68
3 114 115 100
3 100 115 51
3 116 117 45
3 45 117 44
3 118 119 19
3 119 22 19
3 48 49 45
3 58 57 55
3 55 57 56
3 120 60 59
3 52 60 58
3 120 121 60
3 121 122 60
3 121 61 122
3 60 122 58
3 61 121 39
3 39 121 120
3 58 122 57
3 122 123 57
3 122 61 123
3 57 123 41
3 41 123 47
3 123 61 47
3 45 124 116
3 118 125 119
3 125 126 119
3 125 127 126
3 119 126 22
3 22 126 49
3 126 124 49
3 126 127 124
3 49 124 45
3 17 128 19
3 128 118 19
3 127 129 130
3 129 131 130
3 129 132 131
3 130 131 116
3 132 85 84
3 84 85 82
3 132 133 85
3 133 128 85
3 133 118 128
3 85 128 17
3 84 134 132
3 132 134 131
3 134 135 131
3 134 136 135
3 131 135 116
3 117 116 137
3 127 130 124
3 124 130 116
3 132 129 133
3 125 129 127
3 118 133 125
3 125 133 129
3 74 138 139
3 138 140 139
3 138 78 140
3 139 140 102
3 78 138 75
3 138 74 75
3 74 141 73
3 114 142 143
3 142 140 143
3 142 102 140
3 143 140 78
3 102 144 139
3 144 141 139
3 144 145 141
3 139 141 74
3 144 102 146
3 102 142 100
3 100 142 114
3 112 147 148
3 147 149 148
3 147 6 149
3 148 149 8
3 8 149 7
3 7 149 6
3 8 150 148
3 150 151 148
3 150 13 151
3 148 151 112
3 65 152 20
3 152 21 20
3 65 110 152
3 110 153 152
3 110 64 153
3 152 153 21
3 21 153 92
3 153 64 92
3 64 110 109
3 110 65 67
3 13 150 69
3 69 150 8
3 99 154 155
3 154 147 155
3 154 6 147
3 155 147 112
3 6 154 5
3 5 154 99
3 156 84 157
3 112 151 103
3 103 151 13
3 99 155 113
3 113 155 112
3 44 117 158
3 159 160 161
3 160 137 161
3 160 117 137
3 161 137 136
3 159 161 156
3 162 156 136
3 161 136 156
3 156 162 84
3 84 162 134
3 134 162 136
3 136 137 135
3 135 137 116
3 120 163 39
3 39 163 40
3 70 164 71
3 164 89 71
3 40 165 10
3 165 70 10
3 89 166 95
3 95 166 94
3 40 167 168
3 167 169 168
3 167 170 169
3 168 169 171
3 170 172 169
3 172 173 169
3 172 94 173
3 169 173 171
3 94 172 59
3 59 172 170
3 171 173 174
3 173 166 174
3 173 94 166
3 174 166 89
3 170 175 59
3 59 175 120
3 120 175 163
3 175 167 163
3 175 170 167
3 163 167 40
3 40 168 165
3 168 176 165
3 168 171 176
3 165 176 70
3 70 176 164
3 176 174 164
3 176 171 174
3 164 174 89
3 44 177 46
3 44 158 177
3 158 178 177
3 158 159 178
3 177 178 179
3 178 157 180
3 178 159 157
3 180 157 81
3 81 157 84
3 156 157 159
3 159 158 160
3 160 158 117
3 25 28 181
3 51 115 182
3 115 183 184
3 183 185 184
3 183 186 185
3 184 185 187
3 186 183 114
3 114 183 115
3 187 185 36
3 185 188 36
3 36 188 28
3 34 36 32
3 22 189 7
3 189 9 7
3 38 190 50
3 190 189 50
3 190 9 189
3 50 189 22
3 188 181 28
3 25 181 27
3 9 190 37
3 37 190 38
3 54 191 33
3 33 191 34
3 34 191 192
3 191 193 192
3 191 54 193
3 192 193 187
3 51 194 56
3 194 54 56
3 27 195 196
3 195 197 196
3 195 186 197
3 196 197 143
3 51 182 194
3 182 193 194
3 182 187 193
3 194 193 54
3 38 50 48
3 49 50 22
3 143 197 114
3 114 197 186
3 27 196 78
3 78 196 143
3 188 198 181
3 198 195 181
3 198 186 195
3 181 195 27
3 187 182 184
3 184 182 115
3 186 198 185
3 185 198 188
3 34 192 36
3 36 192 187
3 46 199 100
3 199 101 100
3 46 200 199
3 200 201 199
3 200 179 201
3 199 201 101
3 179 202 201
3 202 203 201
3 202 204 203
3 201 203 101
3 101 203 146
3 203 205 146
3 203 204 205
3 146 205 145
3 206 145 83
3 205 83 145
3 205 204 83
3 206 83 73
3 73 83 82
3 81 83 204
3 145 206 141
3 141 206 73
3 101 146 102
3 144 146 145
3 179 200 177
3 177 200 46
3 179 207 202
3 207 208 202
3 207 180 208
3 202 208 204
3 204 208 81
3 81 208 180
3 180 207 178
3 178 207 179

CELL_TYPES 414
5
5
5
5
5
5
5
5
5
5
5
5
5
5
5
5
5
5
5
5
5
5
5
5
5
5
5
5
5
5
5
5
5
5
5
5
5
5
5
5
5
5
5
5
5
5
5
5
5
5
5
5
5
5
5
5
5
5
5
5
5
5
5
5
5
5
5
5
5
5
5
5
5
5
5
5
5
5
5
5
5
5
5
5
5
5
5
5
5
5
5
5
5
5
5
5
5
5
5
5
5
5
5
5
5
5
5
5
5
5
5
5
5
5
5
5
5
5
5
5
5
5
5
5
5
5
5
5
5
5
5
5
5
5
5
5
5
5
5
5
5
5
5
5
5
5
5
5
5
5
5
5
5
5
5
5
5
5
5
5
5
5
5
5
5
5
5
5
5
5
5
5
5
5
5
5
5
5
5
5
5
5
5
5
5
5
5
5
5
5
5
5
5
5
5
5
5
5
5
5
5
5
5
5
5
5
5
5
5
5
5
5
5
5
5
5
5
5
5
5
5
5
5
5
5
5
5
5
5
5
5
5
5
5
5
5
5
5
5
5
5
5
5
5
5
5
5
5
5
5
5
5
5
5
5
5
5
5
5
5
5
5
5
5
5
5
5
5
5
5
5
5
5
5
5
5
5
5
5
5
5
5
5
5
5
5
5
5
5
5
5
5
5
5
5
5
5
5
5
5
5
5
5
5
5
5
5
5
5
5
5
5
5
5
5
5
5
5
5
5
5
5
5
5
5
5
5
5
5
5
5
5
5
5
5
5
5
5
5
5
5
5
5
5
5
5
5
5
5
5
5
5
5
5
5
5
5
5
5
5
5
5
5
5
5
5
5
5
5
5
5
5
5
5
5
5
5
5
5
5
5
5
5
5
5
5
5
5
5
5
5
5
5
5
5
5
5
5
5
5
5
5
5
5
5
5
5
5
5
5
5
5
5
5

CELL_DATA 414
SCALARS cell_data_0 double
LOOKUP_TABLE default
2.32399070462e-05
7.5370431394e-06
3.06302091328e-05
1.25532663453e-05
1.15449198283e-05
2.40375887809e-05
2.76694515259e-05
3.64872789969e-06
6.20494238392e-06
1.30535020484e-05
1.52728059325e-05
1.84744515078e-05
3.46412312767e-05
2.97430715994e-05
2.05368721845e-05
1.18698901816e-05
7.7191802616e-07
1.38789748485e-05
1.52535670827e-05
4.18724433509e-06
1.18394031725e-05
2.18103672349e-06
3.9874245367e-06
2.77015162824e-06
6.31984431793e-06
2.56421451177e-05
2.93295999422e-06
2.21770873002e-06
2.34003639955e-05
1.98796852075e-05
1.5614265536e-05
3.81540378604e-06
7.63158414799e-08
8.49389455276e-07
2.02459128316e-05
1.52151912895e-05
1.47434551318e-05
1.07485008366e-06
3.78434497666e-06
3.69344345566e-06
2.72648223397e-07
1.10112550562e-06
3.11225452264e-06
3.78880315053e-06
6.38573541747e-08
1.58642895379e-05
9.71785952338e-07
6.35980757034e-07
7.76148310827e-06
1.80761813257e-05
1.38223510244e-06
1.51706421084e-05
1.43142106559e-05
2.8073256585e-06
3.2465632358e-05
1.40732257557e-05
1.81872609043e-07
2.71286347177e-06
3.8817628012e-06
1.13797240352e-05
2.05490684706e-06
1.54110896468e-05
4.62770529147e-06
5.99830670799e-06
2.57967621713e-05
2.49608182857e-05
2.77896573749e-05
3.6212077419e-05
2.31846024454e-05
5.82032561487e-06
3.66793597053e-07
4.25423496122e-06
9.43893982245e-06
1.57097832467e-05
1.94065649166e-06
7.84483648156e-07
2.00317574891e-06
6.43345031847e-07
2.43977156412e-06
1.31057749372e-07
1.0707595618e-05
3.54480016595e-06
3.07081258987e-06
9.04428192599e-06
7.78145960164e-06
6.35892837048e-07
1.07373495187e-06
1.3338221787e-07
1.13658871954e-06
6.88163650587e-07
1.67834930269e-06
9.06803896252e-07
3.49928223372e-07
8.86966675453e-07
1.26365778141e-06
1.41793816845e-06
8.25166794706e-07
1.2991638487e-06
1.36355612058e-06
3.68922010935e-06
1.6199445425e-06
8.75586651085e-07
5.29492182474e-06
2.41575285154e-06
1.36789458742e-08
5.28674601334e-07
7.01015551788e-06
1.63602968276e-05
1.92208027972e-05
7.22052399821e-06
4.49391136852e-06
2.86551432147e-07
9.00655161052e-06
2.06477264582e-06
4.90681904302e-06
1.07683444981e-06
8.4917269245e-07
1.09824502708e-06
1.232696068e-06
1.23171942034e-06
2.17824019743e-05
3.52439689672e-05
2.18290417647e-05
3.10237530331e-05
5.03171318421e-06
5.21873300426e-05
5.92492757518e-06
1.34420487052e-06
1.76546185448e-06
4.10480536524e-07
9.91255512286e-05
0.00016707525663
2.49086727219e-05
9.67347915392e-07
2.32025229513e-05
1.12167800542e-05
3.25106959962e-05
3.37731122964e-05
2.14713376269e-05
2.93874961417e-05
2.77595710416e-05
3.29396873903e-05
3.01012799856e-05
3.63615330021e-05
3.73466713946e-05
1.54704873568e-05
3.80989444144e-05
1.96444736997e-05
2.16850262951e-05
1.1898902856e-05
2.67338438546e-05
1.26359084423e-05
1.05491974424e-05
1.30731359053e-05
2.11667076134e-05
2.45659288615e-05
3.8354367299e-05
4.32840372164e-05
7.76954862017e-05
0.000107049771837
5.71016043156e-07
9.74085182907e-07
1.51907386626e-05
4.04595692785e-06
7.80330488628e-07
3.017681469e-05
1.4237981617e-05
7.92260376099e-06
1.11471625626e-05
5.49876437121e-06
9.88057095962e-08
4.68122384221e-06
9.68433230273e-06
7.44242050153e-06
9.16701173671e-06
1.11360232536e-05
2.13607017534e-07
5.20852018752e-06
1.84717762349e-06
2.34690208923e-06
7.86172479104e-06
4.79417958393e-07
6.58466377006e-06
3.92041585683e-07
2.12201981231e-07
1.08984672921e-06
1.04096812254e-06
1.73465661422e-07
1.56143199613e-07
5.84188778014e-07
2.97996965821e-06
1.66492041881e-05
7.98770844346e-08
4.63388534361e-08
9.03703611003e-08
5.2868097216e-08
6.35201454832e-07
1.03989266335e-06
2.1642790161e-07
3.22378141685e-07
7.4968486549e-06
4.67132475993e-07
5.44578467082e-07
3.83809707131e-08
1.69085349789e-08
5.69289929e-08
1.43991017179e-08
1.64036521736e-08
7.09593999037e-08
6.54611449247e-08
8.89614504779e-08
1.46890075516e-07
6.18613512895e-06
1.33092236972e-07
1.66073787258e-07
9.58927617725e-08
2.00447312584e-07
1.30082000972e-05
8.81961288264e-07
3.48577281719e-07
1.097351981e-07
1.87558889655e-08
7.92202503468e-08
1.07587363103e-05
1.98781633626e-07
2.53559400913e-05
7.55766967138e-06
1.43859335044e-05
1.04801607685e-07
2.0350837128e-05
6.5084263719e-05
3.51598623152e-05
1.57038858345e-05
7.04689141672e-06
1.69359965498e-05
9.0053816778e-06
1.91024386219e-05
2.31016278579e-05
2.84130630884e-06
1.18918392292e-06
5.5310032248e-06
1.25815322317e-05
1.43123110654e-06
1.54423306075e-05
9.95694905347e-06
1.92775193996e-05
2.17068255909e-05
9.30335548192e-06
3.8905527466e-06
1.38226033017e-05
2.58745268889e-05
1.37181147175e-05
8.92906991691e-06
7.12571839876e-06
1.43152048849e-05
1.53217108487e-05
1.86917174952e-05
1.84977539764e-05
2.86468649084e-05
3.49431871562e-05
4.01123009729e-07
1.0207594973e-05
7.136202595e-06
1.61490276881e-05
1.66267078675e-05
9.16415288241e-08
4.75578875794e-08
5.33867818556e-09
2.5228625076e-08
2.29309130526e-08
4.50329369688e-08
1.61928227055e-08
1.63049232515e-08
2.51048161414e-07
3.13086999668e-07
3.35771752288e-08
4.34483788482e-08
2.6058270271e-09
1.03811489851e-05
2.95942249076e-07
2.01195075755e-06
6.98321848305e-07
4.37609297123e-06
2.76116066068e-06
1.49232095707e-06
3.1835326413e-09
1.13179484186e-07
5.82178564291e-09
9.37196485751e-06
1.00972878075e-05
7.61933419118e-06
8.29763424182e-09
1.3975433284e-08
9.1170309939e-06
3.95322669162e-08
1.37017719305e-05
1.09861033163e-05
5.96855360034e-08
3.05601572437e-08
8.43391114094e-07
1.30583676829e-05
5.68406780657e-06
4.30894228527e-06
5.88981368826e-08
9.18621978852e-06
8.62417183729e-08
1.15990100841e-07
1.27013352931e-08
1.33900476474e-05
4.83264066996e-07
4.88187402636e-07
1.44774019925e-07
1.2502162571e-05
9.66982899416e-07
2.78240652841e-06
2.33491651734e-07
1.51832808494e-07
1.01473170469e-07
2.15946986604e-05
2.78515677689e-07
8.70984364443e-08
3.34452227585e-07
7.52648370745e-07
6.15671647807e-08
6.82964518276e-08
2.83557695029e-08
1.49413637692e-05
1.72241813591e-05
6.2337984136e-06
5.27660330805e-08
1.37050082586e-05
1.11091403854e-05
1.69402703088e-05
8.69141566314e-06
1.49013405232e-05
2.03633182442e-07
7.09442364716e-06
1.12852986202e-06
5.21153500667e-06
1.77408025148e-06
9.75847754714e-06
1.25961376366e-06
9.15964100971e-07
1.39479580823e-06
7.98139729345e-06
3.79021829156e-06
1.04994762856e-06
1.13713302255e-05
4.72067979629e-07
6.20721806798e-07
7.48733963245e-07
4.48049166206e-07
3.36309620454e-07
1.2554028338e-05
1.36984268072e-06
2.38796311609e-07
1.97601904985e-06
1.04147960205e-07
1.39108791139e-05
1.01865055535e-07
9.87251081293e-07
1.31470829772e-07
1.39839749309e-05
1.08859009652e-07
1.68414747516e-05
1.35587254622e-06
5.27746277274e-08
1.85647020056e-05
3.73606316387e-06
1.43153550798e-09
1.31207620531e-07
1.08234547369e-07
1.28709050655e-05
2.28149147584e-06
1.20820276431e-05
8.34481676585e-06
1.24746801423e-05
9.54042381583e-08
3.75832937514e-07
1.52418132743e-05
3.56514980227e-05
7.37263211568e-05
7.3019879337e-07
5.40780914025e-08
1.36314938309e-05
1.14373198871e-05
1.20108065758e-05
1.13115333026e-08
1.05619619077e-05
9.64141589061e-06
9.0620485499e-06
7.19396503087e-09
1.01339131337e-05
2.47814154408e-06
3.09708665378e-06
2.99314829451e-06
1.15151347134e-05
3.01759870723e-09
1.22720802496e-07
3.10293762786e-05
4.37915129486e-06
4.06598576863e-08
4.0690461682e-05
1.13955918446e-05
2.11372701081e-05
1.20945238479e-06
7.76341122825e-06
1.96987885e-09
1.3521630488e-07
7.58223514679e-06
1.57994992991e-05
2.78440068367e-07
1.85294410145e-07
1.09465888463e-05

