# vtk DataFile Version 3.0
File Name: Molecule/methanol/methanol_1.0-3.vtk
ASCII
DATASET UNSTRUCTURED_GRID
FIELD FieldData 1
TIME 1 1 double
0.0
POINTS 54 double
1.4134883881 0.0050192531198 -0.90256971121
1.6117448807 -0.00017242538161 -0.33282846212
1.282864809 -0.60742896795 -0.90805584192
1.0944415331 -1.2244853973 -0.26659399271
0.015998814255 -1.6792989969 -0.18667158484
0.91425645351 -1.1294159889 -0.86756706238
-0.11940325052 -1.5042127371 -0.93152457476
-1.1675255299 -1.09654212 -0.70375978947
-1.2173751593 -1.2291742563 -0.035554490983
-1.7297583818 -0.00079052982619 -0.019531723112
-1.6402355433 0.0018747426802 -0.77212500572
-1.1652252674 1.0888869762 -0.72528636456
-1.2073384523 1.2293009758 -0.058280296624
-0.062536336482 1.5132062435 -0.82410395145
0.029955340549 1.6854153872 -0.16163992882
0.90474361181 1.1265099049 -0.88083130121
1.0939458609 1.2235664129 -0.26994290948
1.2812240124 0.60921216011 -0.90993744135
1.905944705 0.00017119574477 0.67348998785
1.5802829266 1.0592834949 0.65776842833
1.5725805759 0.50451231003 1.5989810228
1.5738654137 -0.5790361166 1.5534110069
1.5782768726 -1.0593746901 0.72708833218
0.5804284811 1.4500739574 1.7180584669
0.5684813261 0.55005079508 2.3730611801
0.59063184261 -0.55133777857 2.3635337353
0.57951194048 -1.450291276 1.7188436985
0.57162326574 -1.8037847281 0.66030353308
0.57183808088 1.8033938408 0.66016066074
-0.54289823771 1.4605523348 1.7032272816
-0.53054904938 0.56965178251 2.367266655
-0.53592270613 -0.55683124065 2.3699581623
-0.54106104374 -1.4606636763 1.7052353621
-0.54211747646 -1.8023302555 0.64518034458
-0.5420742631 1.8027092218 0.64294958115
-1.5410536528 1.0562491417 0.67664605379
-1.5354859829 0.50542747974 1.5980262756
-1.5373067856 -0.57840681076 1.5513063669
-1.5405802727 -1.0541490316 0.74958574772
-1.8628358841 -0.00032548775198 0.6952791214
0.88317513466 0.58551698923 -1.7229354382
-0.13845458627 0.33050373197 -2.2330300808
-0.12428426743 1.1439423561 -1.7582477331
-1.142460227 -0.61374396086 -1.7011541128
-1.1478472948 0.61120796204 -1.6989452839
0.88817214966 0.96529054642 -1.3622084856
1.0082300901 -0.83218109608 -1.351151824
-0.14126846194 -0.79900586605 -2.0400967598
1.2851213217 -0.31168243289 -1.274384737
1.014482379 -0.44199305773 -1.663212657
1.2188835144 0.37595832348 -1.3920660019
0.50738978386 -0.70962572098 -1.9442000389
0.50725126266 -0.082973219454 -2.1357488632
-0.11460745335 -0.31818208098 -2.2387533188

CELLS 104 416
3 0 1 2
3 3 4 5
3 5 4 6
3 6 4 7
3 8 7 4
3 8 9 7
3 7 9 10
3 10 9 11
3 12 11 9
3 11 12 13
3 14 13 12
3 13 14 15
3 16 15 14
3 16 1 17
3 18 19 20
3 18 20 21
3 18 21 22
3 20 19 23
3 20 23 24
3 20 24 25
3 21 20 25
3 21 25 26
3 22 21 26
3 22 26 27
3 19 28 23
3 23 28 29
3 23 29 30
3 24 23 30
3 24 30 31
3 25 24 31
3 26 25 31
3 26 31 32
3 26 32 27
3 33 27 32
3 28 34 29
3 29 34 35
3 29 35 36
3 30 29 36
3 30 36 31
3 37 31 36
3 32 31 37
3 32 37 38
3 33 32 38
3 36 35 39
3 37 36 39
3 38 37 39
3 38 39 9
3 38 9 8
3 38 8 33
3 33 8 4
3 33 4 27
3 27 4 3
3 27 3 22
3 22 3 1
3 22 1 18
3 18 1 19
3 19 1 16
3 19 16 28
3 28 16 14
3 28 14 34
3 34 14 12
3 34 12 35
3 35 12 9
3 35 9 39
3 40 41 42
3 41 43 44
3 42 41 44
3 42 44 11
3 42 11 13
3 42 13 45
3 5 6 46
3 47 6 43
3 43 6 7
3 43 7 10
3 43 10 44
3 44 10 11
3 5 2 3
3 3 2 1
3 48 49 50
3 49 48 46
3 48 2 46
3 48 0 2
3 46 2 5
3 46 6 51
3 49 51 52
3 51 53 52
3 51 47 53
3 52 53 41
3 49 52 40
3 40 52 41
3 41 53 43
3 53 47 43
3 47 51 6
3 46 51 49
3 0 17 1
3 16 17 15
3 15 45 13
3 42 45 40
3 40 45 50
3 45 17 50
3 45 15 17
3 50 17 0
3 40 50 49
3 48 50 0

CELL_TYPES 104
5
5
5
5
5
5
5
5
5
5
5
5
5
5
5
5
5
5
5
5
5
5
5
5
5
5
5
5
5
5
5
5
5
5
5
5
5
5
5
5
5
5
5
5
5
5
5
5
5
5
5
5
5
5
5
5
5
5
5
5
5
5
5
5
5
5
5
5
5
5
5
5
5
5
5
5
5
5
5
5
5
5
5
5
5
5
5
5
5
5
5
5
5
5
5
5
5
5
5
5
5
5
5
5

CELL_DATA 104
SCALARS cell_data_0 double
LOOKUP_TABLE default
1.3547766083e-06
1.59165434968e-07
6.88178430034e-08
8.12438379489e-07
7.07605932153e-07
7.78881365985e-08
2.79979294193e-07
4.07420490243e-07
7.00368138393e-08
1.77949607977e-07
2.41510356246e-07
4.01483628789e-07
1.09514990314e-07
7.65468944557e-07
6.9568187669e-09
1.34150543395e-09
6.23131053657e-09
3.88186811228e-09
1.25327601142e-08
1.00460323245e-09
6.24590876038e-09
1.44784744052e-09
6.56541798296e-09
6.28136034976e-09
1.38510546063e-09
3.5789909991e-09
1.29244034845e-09
1.35262928961e-09
9.22848968451e-09
1.36969460867e-08
4.49643692964e-09
6.90321444537e-09
1.05410105136e-09
3.14274320954e-08
2.16668782875e-08
6.75802867708e-08
2.95926126521e-09
1.09552616788e-08
1.29093664828e-08
2.84486165074e-09
2.50219257349e-08
2.22208033131e-08
2.3503424498e-08
3.77964132444e-08
3.10908988157e-08
3.18726489575e-08
6.75144213535e-08
5.31528259038e-07
1.65276058896e-07
3.72887237072e-07
2.00029587816e-07
1.16994488644e-07
1.7723459383e-07
3.65463445419e-07
5.17647506506e-08
1.5407903154e-08
3.21183877008e-07
1.04335465047e-07
9.29276380252e-08
3.81999000568e-08
3.93607655865e-07
4.44859302274e-08
4.66963572709e-07
9.02786657515e-08
6.65230941307e-06
1.82818200829e-07
2.37412580889e-07
3.09338406151e-07
4.0852900686e-08
1.1365795876e-06
2.45968000431e-06
6.81770277463e-07
4.79502367267e-08
1.9710923089e-07
1.86955763467e-07
7.4831856483e-08
4.2159808516e-07
8.7164063791e-07
1.06073430557e-06
1.38352220522e-06
2.3651745752e-06
7.56224782849e-08
7.87088926631e-07
1.50194012589e-06
4.27349292181e-06
2.46492918698e-07
9.62754269202e-08
3.89192731267e-07
3.62415039798e-06
2.02747062732e-06
6.27143842712e-07
1.34804521979e-07
1.06112124756e-06
2.65006213982e-06
1.3989041943e-06
2.77777286112e-07
6.77920147295e-07
2.06470781759e-06
2.56447911096e-06
9.39500280805e-07
6.78836891234e-07
3.85409858042e-07
3.8221410197e-06
8.77240035706e-07

