# vtk DataFile Version 3.0
File Name: Molecule/methanol/methanol_12.0-4.vtk
ASCII
DATASET UNSTRUCTURED_GRID
FIELD FieldData 1
TIME 1 1 double
0.0
POINTS 613 double
1.611 0.0 -0.359
1.582 -0.31 -0.356
1.475 0.0 -0.634
1.448 -0.29 -0.632
1.403 0.0 -0.933
1.377 -0.282 -0.93
1.498 -0.608 -0.348
1.369 -0.57 -0.624
1.3 -0.554 -0.923
1.36 -0.887 -0.334
1.24 -0.83 -0.611
1.174 -0.808 -0.91
1.173 -1.135 -0.315
1.066 -1.062 -0.594
1.004 -1.034 -0.893
0.945 -1.344 -0.292
0.852 -1.258 -0.572
0.796 -1.224 -0.872
0.682 -1.508 -0.266
0.605 -1.411 -0.548
0.557 -1.374 -0.849
0.393 -1.62 -0.238
0.335 -1.517 -0.521
0.294 -1.476 -0.822
0.089 -1.677 -0.207
0.051 -1.57 -0.493
0.017 -1.528 -0.795
-0.22 -1.677 -0.176
-0.239 -1.57 -0.464
-0.265 -1.528 -0.767
-0.524 -1.62 -0.146
-0.523 -1.517 -0.435
-0.542 -1.476 -0.739
-0.813 -1.508 -0.117
-0.793 -1.411 -0.408
-0.805 -1.374 -0.713
-1.075 -1.344 -0.091
-1.039 -1.258 -0.384
-1.044 -1.224 -0.689
-1.304 -1.135 -0.069
-1.253 -1.062 -0.363
-1.252 -1.034 -0.668
-1.49 -0.887 -0.05
-1.428 -0.83 -0.345
-1.422 -0.808 -0.651
-1.628 -0.608 -0.036
-1.557 -0.57 -0.332
-1.548 -0.554 -0.639
-1.713 -0.31 -0.028
-1.636 -0.29 -0.324
-1.625 -0.282 -0.631
-1.742 0.0 -0.025
-1.663 0.0 -0.322
-1.651 0.0 -0.629
-1.713 0.31 -0.028
-1.636 0.29 -0.324
-1.625 0.282 -0.631
-1.628 0.608 -0.036
-1.557 0.57 -0.332
-1.548 0.554 -0.639
-1.49 0.887 -0.05
-1.428 0.83 -0.345
-1.422 0.808 -0.651
-1.304 1.135 -0.069
-1.253 1.062 -0.363
-1.252 1.034 -0.668
-1.075 1.344 -0.091
-1.039 1.258 -0.384
-1.044 1.224 -0.689
-0.813 1.508 -0.117
-0.793 1.411 -0.408
-0.805 1.374 -0.713
-0.524 1.62 -0.146
-0.523 1.517 -0.435
-0.542 1.476 -0.739
-0.22 1.677 -0.176
-0.239 1.57 -0.464
-0.265 1.528 -0.767
0.089 1.677 -0.207
0.051 1.57 -0.493
0.017 1.528 -0.795
0.393 1.62 -0.238
0.335 1.517 -0.521
0.294 1.476 -0.822
0.682 1.508 -0.266
0.605 1.411 -0.548
0.557 1.374 -0.849
0.945 1.344 -0.292
0.852 1.258 -0.572
0.796 1.224 -0.872
1.173 1.135 -0.315
1.066 1.062 -0.594
1.004 1.034 -0.893
1.36 0.887 -0.334
1.24 0.83 -0.611
1.174 0.808 -0.91
1.498 0.608 -0.348
1.369 0.57 -0.624
1.3 0.554 -0.923
1.582 0.31 -0.356
1.448 0.29 -0.632
1.377 0.282 -0.93
1.907 0.0 0.656
1.883 0.295 0.656
1.883 0.148 0.911
1.883 -0.148 0.911
1.883 -0.295 0.656
1.883 -0.148 0.4
1.883 0.148 0.4
1.814 0.505 0.947
1.814 0.292 1.161
1.814 -0.0 1.239
1.814 -0.292 1.161
1.814 -0.505 0.947
1.814 -0.583 0.656
1.814 -0.505 0.364
1.814 -0.292 0.15
1.814 -0.0 0.072
1.814 0.292 0.15
1.814 0.505 0.364
1.814 0.583 0.656
1.701 0.805 0.949
1.701 0.656 1.206
1.701 0.428 1.398
1.701 0.149 1.499
1.701 -0.149 1.499
1.701 -0.428 1.398
1.701 -0.656 1.206
1.701 -0.805 0.949
1.701 -0.857 0.656
1.701 -0.805 0.363
1.701 -0.656 0.105
1.701 -0.428 -0.087
1.701 -0.149 -0.188
1.701 0.149 -0.188
1.701 0.428 -0.087
1.701 0.656 0.105
1.701 0.805 0.363
1.701 0.857 0.656
1.546 1.072 0.943
1.546 0.961 1.21
1.546 0.784 1.44
1.546 0.555 1.616
1.546 0.287 1.727
1.546 0.0 1.765
1.546 -0.287 1.727
1.546 -0.555 1.616
1.546 -0.784 1.44
1.546 -0.961 1.21
1.546 -1.072 0.943
1.546 -1.109 0.656
1.546 -1.072 0.368
1.546 -0.961 0.101
1.546 -0.784 -0.129
1.546 0.784 -0.129
1.546 0.961 0.101
1.546 1.072 0.368
1.546 1.109 0.656
1.354 1.301 0.953
1.354 1.202 1.235
1.354 1.043 1.488
1.354 0.832 1.699
1.354 0.579 1.858
1.354 0.297 1.957
1.354 0.0 1.99
1.354 -0.297 1.957
1.354 -0.579 1.858
1.354 -0.832 1.699
1.354 -1.043 1.488
1.354 -1.202 1.235
1.354 -1.301 0.953
1.354 -1.335 0.656
1.354 -1.301 0.359
1.354 -1.202 0.077
1.354 -1.043 -0.177
1.354 1.043 -0.177
1.354 1.202 0.077
1.354 1.301 0.359
1.354 1.335 0.656
1.128 1.499 0.945
1.128 1.418 1.223
1.128 1.285 1.481
1.128 1.105 1.709
1.128 0.886 1.899
1.128 0.634 2.045
1.128 0.36 2.14
1.128 0.073 2.181
1.128 -0.217 2.167
1.128 -0.499 2.099
1.128 -0.764 1.978
1.128 -1.0 1.81
1.128 -1.2 1.6
1.128 -1.357 1.355
1.128 -1.465 1.086
1.128 -1.52 0.801
1.128 -1.52 0.51
1.128 -1.465 0.225
1.128 -1.357 -0.044
1.128 1.285 -0.17
1.128 1.418 0.088
1.128 1.499 0.367
1.128 1.527 0.656
0.876 1.656 0.948
0.876 1.58 1.231
0.876 1.456 1.496
0.876 1.288 1.737
0.876 1.081 1.944
0.876 0.841 2.112
0.876 0.575 2.236
0.876 0.292 2.312
0.876 0.0 2.337
0.876 -0.292 2.312
0.876 -0.575 2.236
0.876 -0.841 2.112
0.876 -1.081 1.944
0.876 -1.288 1.737
0.876 -1.456 1.496
0.876 -1.58 1.231
0.876 -1.656 0.948
0.876 -1.682 0.656
0.876 -1.656 0.364
0.876 -1.58 0.08
0.876 1.58 0.08
0.876 1.656 0.364
0.876 1.682 0.656
0.602 1.771 0.951
0.602 1.698 1.238
0.602 1.579 1.51
0.602 1.417 1.758
0.602 1.216 1.976
0.602 0.982 2.158
0.602 0.721 2.3
0.602 0.441 2.396
0.602 0.148 2.445
0.602 -0.148 2.445
0.602 -0.441 2.396
0.602 -0.721 2.3
0.602 -0.982 2.158
0.602 -1.216 1.976
0.602 -1.417 1.758
0.602 -1.579 1.51
0.602 -1.698 1.238
0.602 -1.771 0.951
0.602 -1.795 0.656
0.602 -1.771 0.36
0.602 -1.698 0.073
0.602 1.698 0.073
0.602 1.771 0.36
0.602 1.795 0.656
0.314 1.841 0.947
0.314 1.773 1.232
0.314 1.661 1.502
0.314 1.508 1.751
0.314 1.318 1.974
0.314 1.096 2.164
0.314 0.846 2.317
0.314 0.576 2.429
0.314 0.292 2.497
0.314 -0.0 2.52
0.314 -0.292 2.497
0.314 -0.576 2.429
0.314 -0.846 2.317
0.314 -1.096 2.164
0.314 -1.318 1.974
0.314 -1.508 1.751
0.314 -1.661 1.502
0.314 -1.773 1.232
0.314 -1.841 0.947
0.314 -1.864 0.656
0.314 -1.841 0.364
0.314 -1.773 0.08
0.314 1.773 0.08
0.314 1.841 0.364
0.314 1.864 0.656
0.019 1.865 0.944
0.019 1.8 1.225
0.019 1.692 1.493
0.019 1.544 1.742
0.019 1.36 1.964
0.019 1.144 2.157
0.019 0.902 2.314
0.019 0.638 2.432
0.019 0.359 2.509
0.019 0.072 2.542
0.019 -0.216 2.531
0.019 -0.5 2.476
0.019 -0.772 2.378
0.019 -1.026 2.24
0.019 -1.256 2.065
0.019 -1.456 1.857
0.019 -1.622 1.62
0.019 -1.751 1.361
0.019 -1.838 1.086
0.019 -1.882 0.8
0.019 -1.882 0.511
0.019 -1.838 0.226
0.019 -1.751 -0.05
0.019 1.8 0.086
0.019 1.865 0.367
0.019 1.888 0.656
-0.276 1.864 0.656
-0.276 1.841 0.947
-0.276 1.773 1.232
-0.276 1.661 1.502
-0.276 1.508 1.751
-0.276 1.318 1.974
-0.276 1.096 2.164
-0.276 0.846 2.317
-0.276 0.576 2.429
-0.276 0.292 2.497
-0.276 -0.0 2.52
-0.276 -0.292 2.497
-0.276 -0.576 2.429
-0.276 -0.846 2.317
-0.276 -1.096 2.164
-0.276 -1.318 1.974
-0.276 -1.508 1.751
-0.276 -1.661 1.502
-0.276 -1.773 1.232
-0.276 -1.841 0.947
-0.276 -1.864 0.656
-0.276 -1.841 0.364
-0.276 -1.773 0.08
-0.276 1.773 0.08
-0.276 1.841 0.364
-0.564 1.795 0.656
-0.564 1.771 0.951
-0.564 1.698 1.238
-0.564 1.579 1.51
-0.564 1.417 1.758
-0.564 1.216 1.976
-0.564 0.982 2.158
-0.564 0.721 2.3
-0.564 0.441 2.396
-0.564 0.148 2.445
-0.564 -0.148 2.445
-0.564 -0.441 2.396
-0.564 -0.721 2.3
-0.564 -0.982 2.158
-0.564 -1.216 1.976
-0.564 -1.417 1.758
-0.564 -1.579 1.51
-0.564 -1.698 1.238
-0.564 -1.771 0.951
-0.564 -1.795 0.656
-0.564 -1.771 0.36
-0.564 -1.698 0.073
-0.564 1.698 0.073
-0.564 1.771 0.36
-0.838 1.682 0.656
-0.838 1.656 0.948
-0.838 1.58 1.231
-0.838 1.456 1.496
-0.838 1.288 1.737
-0.838 1.081 1.944
-0.838 0.841 2.112
-0.838 0.575 2.236
-0.838 0.292 2.312
-0.838 0.0 2.337
-0.838 -0.292 2.312
-0.838 -0.575 2.236
-0.838 -0.841 2.112
-0.838 -1.081 1.944
-0.838 -1.288 1.737
-0.838 -1.456 1.496
-0.838 -1.58 1.231
-0.838 -1.656 0.948
-0.838 -1.682 0.656
-0.838 -1.656 0.364
-0.838 -1.58 0.08
-0.838 1.58 0.08
-0.838 1.656 0.364
-1.09 1.527 0.656
-1.09 1.499 0.945
-1.09 1.418 1.223
-1.09 1.285 1.481
-1.09 1.105 1.709
-1.09 0.886 1.899
-1.09 0.634 2.045
-1.09 0.36 2.14
-1.09 0.073 2.181
-1.09 -0.217 2.167
-1.09 -0.499 2.099
-1.09 -0.764 1.978
-1.09 -1.0 1.81
-1.09 -1.2 1.6
-1.09 -1.357 1.355
-1.09 -1.465 1.086
-1.09 -1.52 0.801
-1.09 -1.52 0.51
-1.09 -1.465 0.225
-1.09 1.418 0.088
-1.09 1.499 0.367
-1.316 1.335 0.656
-1.316 1.301 0.953
-1.316 1.202 1.235
-1.316 1.043 1.488
-1.316 0.832 1.699
-1.316 0.579 1.858
-1.316 0.297 1.957
-1.316 0.0 1.99
-1.316 -0.297 1.957
-1.316 -0.579 1.858
-1.316 -0.832 1.699
-1.316 -1.043 1.488
-1.316 -1.202 1.235
-1.316 -1.301 0.953
-1.316 -1.335 0.656
-1.316 -1.301 0.359
-1.316 -1.202 0.077
-1.316 1.202 0.077
-1.316 1.301 0.359
-1.508 1.109 0.656
-1.508 1.072 0.943
-1.508 0.961 1.21
-1.508 0.784 1.44
-1.508 0.555 1.616
-1.508 0.287 1.727
-1.508 0.0 1.765
-1.508 -0.287 1.727
-1.508 -0.555 1.616
-1.508 -0.784 1.44
-1.508 -0.961 1.21
-1.508 -1.072 0.943
-1.508 -1.109 0.656
-1.508 -1.072 0.368
-1.508 -0.961 0.101
-1.508 0.961 0.101
-1.508 1.072 0.368
-1.663 0.857 0.656
-1.663 0.805 0.949
-1.663 0.656 1.206
-1.663 0.428 1.398
-1.663 0.149 1.499
-1.663 -0.149 1.499
-1.663 -0.428 1.398
-1.663 -0.656 1.206
-1.663 -0.805 0.949
-1.663 -0.857 0.656
-1.663 -0.805 0.363
-1.663 0.805 0.363
-1.776 0.583 0.656
-1.776 0.505 0.947
-1.776 0.292 1.161
-1.776 -0.0 1.239
-1.776 -0.292 1.161
-1.776 -0.505 0.947
-1.776 -0.583 0.656
-1.776 -0.505 0.364
-1.776 0.505 0.364
-1.845 0.295 0.656
-1.845 0.148 0.911
-1.845 -0.148 0.911
-1.845 -0.295 0.656
-1.845 -0.148 0.4
-1.776 -0.292 0.15
-1.776 0.292 0.15
-1.845 0.148 0.4
-1.868 -0.0 0.656
1.298 -0.0 -1.325
1.298 -0.294 -1.246
1.157 -0.148 -1.577
1.157 0.148 -1.577
1.298 0.294 -1.246
1.157 0.426 -1.476
1.157 0.653 -1.285
1.157 -0.426 -1.476
0.966 -0.363 -1.76
0.966 -0.074 -1.82
0.966 0.221 -1.8
0.966 0.499 -1.701
0.966 0.741 -1.53
0.966 -0.996 -1.17
0.733 -1.199 -1.174
0.733 -1.066 -1.439
0.966 -0.842 -1.422
0.733 -0.876 -1.666
0.966 -0.626 -1.624
0.733 -0.638 -1.843
0.733 -0.366 -1.96
0.733 -0.074 -2.011
0.733 0.222 -1.994
0.733 0.506 -1.909
0.733 0.762 -1.761
0.733 0.978 -1.558
0.966 0.927 -1.301
0.733 1.141 -1.31
0.468 -1.387 -1.032
0.468 -1.296 -1.314
0.468 -1.147 -1.571
0.468 -0.949 -1.791
0.468 -0.709 -1.965
0.468 -0.438 -2.086
0.468 -0.148 -2.148
0.468 0.148 -2.148
0.468 0.438 -2.086
0.468 0.709 -1.965
0.468 0.949 -1.791
0.468 1.147 -1.571
0.468 1.296 -1.314
0.733 1.242 -1.032
0.468 1.387 -1.032
0.18 -1.477 -1.031
0.18 -1.391 -1.313
0.18 -1.252 -1.574
0.18 -1.065 -1.802
0.18 -0.836 -1.989
0.18 -0.576 -2.128
0.18 -0.294 -2.214
0.18 0.0 -2.243
0.18 0.294 -2.214
0.18 0.576 -2.128
0.18 0.836 -1.989
0.18 1.065 -1.802
0.18 1.252 -1.574
0.18 1.391 -1.313
0.18 1.477 -1.031
-0.12 -1.473 -1.17
-0.12 -1.364 -1.441
-0.12 -1.207 -1.686
-0.12 -1.005 -1.897
-0.12 -0.767 -2.067
[...]
CELL_DATA 1222
SCALARS cell_data_0 double
LOOKUP_TABLE default
3.08888983416e-09
7.71333889957e-09
5.84469218418e-09
5.31460936433e-09
5.63551417858e-09
4.52088719851e-09
6.52230911683e-09
6.6905644932e-09
3.00530365789e-11
2.30998156032e-10
4.07323779798e-09
6.83296876845e-09
5.91492244149e-10
7.1262769877e-10
1.67949895226e-09
2.06748090428e-09
4.94825563424e-10
5.57478081073e-10
4.33648605623e-10
3.11168465119e-10
4.11189125135e-10
5.58203691881e-10
7.05933163257e-10
8.04419363198e-10
3.68832079255e-10
5.12553764926e-10
8.4089126523e-10
8.96049343414e-10
3.4385863299e-10
5.65250753063e-10
8.33021462656e-10
8.49554461727e-10
2.73964255109e-10
4.06258114428e-10
7.76912585076e-10
7.5859674797e-10
1.5184647324e-10
3.9766005762e-10
6.77822200847e-10
6.8951058001e-10
1.63167390901e-10
2.86334613142e-10
5.76347236651e-10
6.11910264999e-10
9.10913157367e-11
2.60014973983e-10
5.27356291863e-10
5.79467042706e-10
9.58627172249e-11
1.92850549809e-10
4.38504952528e-10
6.49745609167e-10
1.50445616007e-10
1.00182490731e-11
6.01853219436e-10
7.19824642714e-10
6.57611669682e-11
2.85957021513e-10
5.04763755887e-10
4.7943740306e-10
2.88369668606e-12
1.28378147283e-10
4.26966886552e-10
4.08741907526e-10
2.36910696092e-11
1.8603256415e-10
3.48753439262e-10
3.3012105772e-10
1.24965651504e-10
9.42883898294e-11
4.21639656486e-10
5.27000617394e-10
2.38308775228e-11
2.3034728067e-10
4.84884841791e-10
3.23357358808e-10
6.02266472259e-11
1.34733704028e-10
3.02237958032e-10
5.59847232202e-10
6.82085019237e-11
1.06047519159e-10
5.88232969232e-10
6.16998272958e-10
5.90172436771e-11
1.38464120338e-10
3.60350338076e-10
5.17260205055e-10
7.52631042073e-11
2.65140200801e-10
5.11167954591e-10
5.54880375702e-10
1.37889819186e-10
2.96899089476e-10
5.04646933746e-10
5.76296741869e-10
1.55474991844e-10
3.59856756291e-10
6.15428447657e-10
5.94383198763e-10
2.46864995956e-10
5.05854845052e-10
6.65056654451e-10
6.81509842001e-10
3.50940500239e-10
5.20784941033e-10
7.5006327819e-10
8.60548333993e-10
3.6447000383e-10
5.46232757018e-10
8.6046652297e-10
8.27382621484e-10
4.10985745464e-10
5.5835625067e-10
7.53155492994e-10
7.45764742245e-10
4.25964667984e-10
6.04856217251e-10
7.12479322493e-10
1.22649622536e-09
4.7578698196e-10
2.15482603241e-10
1.18464340149e-09
1.06143229469e-09
2.16970670513e-10
4.11952492375e-10
1.31379312212e-10
3.44444327812e-09
5.05040886114e-10
1.07540401824e-09
4.61720851406e-09
4.74549229041e-09
1.16151918354e-09
2.34066482848e-09
2.22916019296e-09
1.32157453155e-09
6.26786492223e-11
5.52072129485e-11
4.09970319577e-11
3.9506789229e-11
6.59342310657e-11
7.43676108666e-11
4.12979752978e-11
5.49428673301e-11
1.24558572395e-10
1.12518471321e-10
1.07301137666e-10
9.12450369039e-11
7.55214976765e-11
3.76076895473e-11
3.85974676921e-11
7.89749130154e-11
1.18589333524e-10
9.58591386429e-11
9.12424520864e-11
5.98744095153e-11
6.826298287e-11
1.09250353977e-10
1.34445219599e-10
8.75784131844e-11
1.50029355316e-10
1.01355378231e-10
7.60316969942e-11
9.29324872239e-11
5.87359359101e-11
1.12351665154e-10
7.86089948936e-11
1.18671307269e-10
6.10226978775e-11
5.84657696426e-11
9.89019461211e-11
6.09816044867e-11
3.64357445849e-11
5.12348849502e-12
4.03960444693e-11
8.06394047885e-11
4.38416619864e-11
6.0020468869e-11
9.69424021944e-11
2.32558529335e-10
9.69559842761e-11
3.0829832128e-10
1.30686240961e-10
8.92964751793e-11
5.27654576382e-11
4.15046910414e-11
7.41321431035e-11
1.54401428769e-10
1.00729719067e-10
1.42235355157e-10
1.30726400632e-10
1.17689322654e-10
1.10425244721e-10
5.91431749039e-11
8.5187384734e-11
6.19605189725e-11
6.62055570787e-11
5.44782600079e-11
6.35612959701e-11
5.31047966283e-11
5.13378317382e-11
3.79846685022e-11
7.21915249255e-11
1.45383353816e-10
1.15598196978e-10
1.61321959531e-10
9.57347427228e-11
1.30857521288e-10
8.90849534013e-11
8.7641181193e-11
2.2028644795e-11
5.45159611205e-11
5.77300654383e-11
1.24888875633e-10
2.79206796565e-10
3.00612216024e-10
6.4476049342e-11
2.34536741123e-11
5.5784421832e-11
7.49886112497e-11
6.37238389466e-11
6.68357090635e-11
8.9310994128e-11
1.11524854032e-10
1.01046635222e-10
7.72713191786e-11
5.11909152883e-11
5.36788784412e-11
7.35030039001e-11
6.49317366516e-11
7.44227728481e-11
8.67222971603e-11
8.15126186402e-11
7.53663627079e-11
6.81047830266e-11
6.89358856451e-11
5.18760604903e-11
6.36582509458e-11
1.01126186268e-10
3.46888326649e-11
7.33376098184e-11
2.19255942805e-11
1.50221070614e-10
5.99479795863e-11
1.17427523961e-10
5.37192627012e-11
7.08320069958e-11
1.54419953992e-11
2.83171971479e-11
2.32432954467e-11
6.76366921215e-11
1.89546855477e-10
3.60877443447e-10
3.99064988797e-10
1.30805034804e-11
2.12826587742e-11
5.61860497496e-11
6.1431680509e-11
8.71299062739e-11
8.44843791214e-11
8.66568382377e-11
7.67636660044e-11
7.68445596609e-11
8.14657387159e-11
7.62581299843e-11
7.81697747339e-11
7.14190077424e-11
7.21097232558e-11
6.34414931992e-11
8.16846256752e-11
7.19967708005e-11
6.5070652285e-11
4.05474903222e-11
5.28706905541e-11
6.39700404586e-11
7.20743666345e-11
6.39397146242e-11
6.97806677567e-11
9.2229250308e-11
1.10743583124e-10
2.53408846348e-11
7.99543575979e-11
4.4385942583e-11
1.09788578714e-10
4.36229769661e-11
2.1184994338e-11
5.88452687669e-11
4.2779515268e-11
5.81729461195e-11
2.37011182564e-11
4.00157312659e-11
4.66875957515e-11
2.21151511616e-11
8.00420964208e-11
1.59585298702e-10
3.17737051358e-10
9.9879127337e-12
3.43653278046e-11
5.4933117169e-11
5.96428521645e-11
6.73336204433e-11
7.6690459508e-11
8.4095478472e-11
8.29278855964e-11
7.10466886165e-11
7.54316763679e-11
5.95319732063e-11
6.11937565287e-11
5.04113892293e-11
6.51889788435e-11
6.14283198714e-11
6.54496559222e-11
5.83873107075e-11
5.26192807121e-11
6.59230749302e-11
6.48513424613e-11
7.80440377946e-11
6.77245468353e-11
7.11672266494e-11
6.9129000069e-11
6.08216592735e-11
7.45918330155e-11
6.70817485634e-11
8.77722076277e-11
7.51063451402e-11
7.95258922393e-11
1.54165556538e-10
9.7325772534e-11
9.11093791704e-11
3.3426110873e-11
7.36560175795e-11
7.48695284943e-11
8.29044472415e-11
6.61700939652e-11
6.09400097619e-11
4.32036048499e-11
5.33728227732e-11
2.96202479686e-11
2.55422669219e-12
2.06648359426e-11
7.11174775471e-11
4.73634436046e-11
4.8880638382e-11
7.0929155377e-11
7.9399441262e-11
8.47650957762e-11
6.61968472956e-11
5.71485035041e-11
6.42723773261e-11
6.3704388317e-11
5.54379291317e-11
6.0704302659e-11
5.57391888448e-11
6.15703638986e-11
5.42830114561e-11
5.58360206323e-11
5.80705458218e-11
5.49101249531e-11
7.07886273029e-11
5.0082848383e-11
6.08491520706e-11
4.00977089878e-11
6.29340080831e-11
5.29308044385e-11
5.48811468053e-11
5.93850017329e-11
5.92426927802e-11
6.03226211119e-11
5.69039578107e-11
5.77478345762e-11
6.07831208376e-11
8.24591502567e-11
4.81322921452e-11
4.33490715996e-11
3.55973013749e-11
7.49434485106e-11
7.6882170934e-11
7.86993837501e-11
6.35923601e-11
7.26525297383e-11
5.91672876916e-11
6.04180029415e-11
2.77006423556e-11
8.8844279897e-12
9.4642203716e-12
7.28828922263e-12
4.34669214916e-11
4.51444907195e-11
5.64186754447e-11
6.02223453953e-11
6.62110524677e-11
5.40162501796e-11
5.36891979231e-11
5.84158019856e-11
6.03044603778e-11
5.93463273348e-11
5.48393097564e-11
6.55962815647e-11
5.91019272805e-11
6.12798487877e-11
4.50121092179e-11
4.79833299294e-11
4.66911844853e-11
5.29916092925e-11
8.0369801884e-11
6.49644945856e-11
6.69674986949e-11
3.40222280853e-11
5.63284868387e-11
5.46908438268e-11
5.3492210251e-11
5.82328860109e-11
4.10254969018e-11
4.51648124006e-11
4.11853550602e-11
5.85942054915e-11
4.33728741966e-11
6.58270660351e-11
6.28434205285e-11
7.45806778421e-11
6.10167318823e-11
7.11641807678e-11
6.54518148516e-11
7.23222557875e-11
5.72606536325e-11
7.1402279044e-11
5.58132368325e-11
5.72799928924e-11
3.81110146861e-11
1.60327705491e-11
4.05603374471e-13
1.3892879243e-11
9.17123486139e-12
3.77032523946e-11
4.0158569536e-11
4.95016491383e-11
5.84545938775e-11
6.07167039078e-11
4.97868849726e-11
4.48313438853e-11
5.80412649315e-11
5.54392348754e-11
5.39954433941e-11
5.79032683648e-11
6.21635777284e-11
5.85332585114e-11
4.65884760003e-11
4.35838509791e-11
4.20804377287e-11
3.51593945903e-11
3.83376848022e-11
3.07777382209e-11
6.77406425424e-11
3.71339479229e-11
5.32590300236e-11
2.23996896591e-11
5.86622272532e-11
4.18911673563e-11
4.03788669463e-11
3.95018112877e-11
3.76881360244e-11
5.19179102522e-11
5.31778432871e-11
6.19646048282e-11
3.85495012737e-11
4.11872982556e-11
4.58726117186e-11
5.34325258305e-11
5.92192029432e-11
5.76252764052e-11
5.67854108573e-11
5.51691982135e-11
5.18050790022e-11
5.18818597791e-11
4.71963037434e-11
4.18392115409e-11
3.80685896792e-11
1.85640145514e-11
1.8507621772e-12
5.86549168548e-11
3.9448959336e-11
3.08171709741e-11
2.80840077747e-11
3.3423603862e-11
4.66685629407e-11
4.97687947875e-11
5.35225391476e-11
4.29061272953e-11
3.74619151372e-11
3.77828257615e-11
4.25984851292e-11
4.78807135886e-11
5.09446195194e-11
6.27313761653e-11
6.12600369581e-11
5.29826013216e-11
3.70302678551e-11
3.84126611168e-11
4.2629849203e-11
4.13700926575e-11
4.7952100723e-11
3.47211708769e-11
4.34645500124e-11
1.07991695974e-11
1.91424866991e-11
1.58567128578e-11
3.6038299421e-11
2.73511146369e-11
2.38578251665e-11
3.7511044167e-11
5.09651464417e-11
6.64683822613e-11
5.5004352871e-11
4.95458826269e-11
3.87469114637e-11
5.2479692677e-11
5.68427555742e-11
5.31927454266e-11
4.83452481233e-11
4.79948561511e-11
4.88448235673e-11
5.59902436123e-11
5.2264092486e-11
5.11609153072e-11
4.60630118825e-11
4.08729197681e-11
3.59356911033e-11
1.16059996648e-11
3.29620559651e-12
3.72189498032e-11
4.87083505532e-11
6.51540196611e-11
2.6052001421e-11
1.95892749501e-11
3.14840711465e-11
4.11640259672e-11
3.31190696891e-11
3.26562665567e-11
4.08131923881e-11
3.94028592237e-11
4.20909569016e-11
4.24051880068e-11
4.93815989014e-11
4.38044461688e-11
3.87914796401e-11
4.39611177385e-11
4.51455567253e-11
5.07022572833e-11
5.28091293631e-11
4.4859431536e-11
4.59851008868e-11
2.19800172003e-11
2.53067209691e-11
2.44107469649e-11
3.67081158029e-11
5.67628690067e-11
5.12384315412e-11
6.08388956448e-11
4.55420204187e-11
5.10020754845e-11
4.33584531608e-11
5.24863058925e-11
5.09346724699e-11
5.46793915001e-11
4.59005235249e-11
4.3176504797e-11
4.65856529159e-11
5.13286810253e-11
5.19524451246e-11
5.07456975635e-11
4.39748322544e-11
4.16662158486e-11
4.19397028998e-11
3.6731942872e-11
3.39687015849e-11
2.56104246152e-11
1.38132060745e-11
2.54800114686e-11
5.95203647654e-11
6.64465299796e-11
2.80117694161e-11
2.9346822127e-12
1.74494041927e-11
1.898360426e-11
2.59742359703e-11
3.48421231241e-11
3.29406362054e-11
3.35170569305e-11
4.35154055035e-11
5.15672611407e-11
4.835772074e-11
4.34269555322e-11
4.17060710229e-11
4.58271771028e-11
4.03862469787e-11
3.59090386921e-11
4.86436401296e-11
3.40396608121e-11
4.83308141439e-11
3.52602194932e-11
2.92559275988e-11
3.64437140545e-11
4.34544757559e-11
7.03825189235e-11
4.95655521301e-11
4.28828740895e-11
3.84699720047e-11
5.26580197955e-11
4.71882339091e-11
4.89786379805e-11
4.32761011623e-11
4.41042237178e-11
3.63504724955e-11
3.92522318685e-11
3.83789544126e-11
4.5730783172e-11
3.76741567093e-11
3.7703503923e-11
3.00738741006e-11
3.00946294601e-11
1.51849391386e-11
1.46559334853e-12
2.8282017355e-11
6.18452495984e-11
3.65333222234e-11
2.28097348618e-11
1.28708207412e-11
2.39483203231e-12
1.70475267254e-11
1.84958011107e-11
3.00453218926e-11
3.08856451325e-11
3.37328351267e-11
3.76386811851e-11
4.70138266909e-11
4.55026958586e-11
4.31504381629e-11
3.69064582692e-11
2.8235075203e-11
3.03546178479e-11
5.27289398052e-11
4.44894226947e-11
5.10073615879e-11
4.37767731112e-11
3.34632340282e-11
4.81686599178e-12
5.41740154897e-12
3.04852891953e-11
4.83103490573e-11
4.20293836611e-11
3.79565882958e-11
4.01475555719e-11
3.8452373085e-11
3.95268262618e-11
4.05497004423e-11
3.65985760246e-11
2.91098019931e-11
2.95460770645e-11
3.46466189463e-11
3.31043540987e-11
2.57700068153e-11
2.37360733163e-11
1.34304241641e-12
1.25289881809e-11
2.67629337415e-11
3.89387122902e-11
7.66982322765e-11
1.66205783077e-12
1.62233926797e-11
1.81309157658e-11
8.26497510903e-12
7.84742505407e-12
2.46871184178e-11
2.65640619483e-11
3.2097242567e-11
2.99927164931e-11
2.88557715366e-11
2.71610464227e-11
3.57320412896e-11
3.86223518922e-11
3.88131732985e-11
4.76434973359e-11
3.0204082799e-11
3.56726872143e-11
4.12409133668e-11
2.04602658182e-11
1.88834942339e-11
2.52569374687e-11
3.98490665415e-11
3.7864042129e-11
3.35488724339e-11
3.21948196767e-11
3.44844376721e-11
3.88026931271e-11
3.64304425038e-11
3.21630606379e-11
3.23377819814e-11
3.26095724312e-11
2.10529557554e-11
1.32511180009e-11
1.02784792673e-11
4.72754225216e-13
1.42666909365e-12
3.88978362099e-11
1.02263791057e-10
3.29312922126e-11
1.89242598855e-11
2.6124425505e-12
2.60956502687e-11
1.09691920008e-11
3.10427272754e-11
3.32826802105e-11
2.64828479237e-11
2.71778795424e-11
2.78089445608e-11
2.70060703554e-11
2.52272404286e-11
2.37553843721e-11
4.15240802838e-11
4.07401883619e-11
3.76941233776e-11
4.04323017965e-11
3.26584981339e-11
2.4337241687e-11
3.07121830594e-11
3.72345487277e-11
3.24660247912e-11
2.90369520181e-11
3.1035145245e-11
3.1313566989e-11
3.02309037625e-11
3.67246261957e-11
1.96642534325e-11
3.78019676629e-12
1.95234748198e-11
1.93598816975e-11
4.3542316564e-11
1.73050507148e-10
1.57185120616e-10
4.73638968258e-11
3.45116597482e-11
1.90708347407e-11
1.52359034341e-11
3.77523248153e-11
3.07835913768e-11
2.03886094602e-11
2.45353506706e-11
2.73140886283e-11
2.66250583133e-11
2.44373235501e-11
2.74111701362e-11
2.53221702278e-11
2.59436622103e-11
2.44698649598e-11
2.25723795447e-11
2.86936209503e-11
2.99960265687e-11
2.59442583125e-11
2.12955548739e-11
3.16970037577e-11
4.13651322431e-11
3.6546548836e-11
1.32588072806e-11
4.58771957552e-11
1.23112936016e-11
3.66255130889e-11
6.27659045277e-11
9.00646313871e-12
4.55965602437e-11
1.54382208917e-11
4.67176214239e-12
2.09198993709e-11
2.09521400528e-11
1.81906741892e-11
2.23520317269e-11
2.10669850172e-11
2.33112870847e-11
2.244602182e-11
2.55545722235e-11
1.96207685931e-11
1.44893384017e-11
4.02235378714e-11
5.62641610091e-11
1.66433857513e-11
1.48786418095e-11
5.00967871386e-11
1.15865911148e-11
9.27450629551e-13
5.157273155e-12
4.120106375e-12
1.42414359493e-11
2.41291642039e-11
3.03656094938e-11
8.79146696489e-12
2.81894460657e-11
4.5492629914e-11
6.80169213436e-11
7.76091155309e-11
2.40168835437e-10
9.55368549848e-11
1.50499591321e-11
6.54506353654e-11
3.96497567663e-12
3.77611999042e-11
4.30950150221e-11
8.5328031516e-11
2.29877886354e-10
9.37002854336e-11
1.84664374043e-11
1.6717772257e-11
9.31586925425e-11
1.34962117679e-10
1.02728447453e-10
7.50791009678e-11
2.10583298892e-11
8.65262193123e-11
8.24576022355e-11
3.23212389415e-11
5.96462226203e-11
9.19560141463e-11
3.89740821764e-11
1.01407611928e-10
5.57030140541e-11
1.20166358054e-11
2.99713391406e-11
3.44412480721e-12
5.99708535165e-11
1.01018559757e-11
1.3113502985e-11
1.59360300812e-11
3.40060415219e-11
8.49117352323e-11
4.80096835738e-11
1.50694733117e-10
8.99187491365e-11
2.10332145613e-10
1.80211277783e-10
2.71576761785e-10
3.11242419256e-10
2.33084834351e-10
2.93665930019e-10
3.1637295013e-10
4.19584537444e-10
6.81569211723e-10
4.26175109722e-10
5.81715346075e-10
1.87054688806e-10
1.86559411256e-10
1.48572382093e-10
3.81521536033e-10
5.70018125232e-11
1.45845015778e-11
7.83595714217e-12
5.1795640615e-11
3.65332418308e-11
9.39402204251e-11
4.64238061026e-11
6.99357197003e-11
1.77653535969e-10
3.75465793045e-11
1.19353139327e-10
2.46837353642e-11
9.03045343591e-11
4.3171081946e-11
6.95220883643e-11
4.93711967128e-11
3.08218579591e-11
4.92720860516e-11
2.71790341367e-11
5.06285713667e-11
7.72786761161e-11
4.25100118895e-11
7.60059266694e-11
2.70646530093e-11
4.18691712459e-11
3.9494725327e-11
2.35676633113e-11
2.12486149363e-12
1.2422952741e-10
5.02281858837e-12
5.82675619282e-11
3.82469460331e-11
2.90872197216e-08
6.55243291725e-09
2.27022379407e-09
4.81784680087e-09
1.5934729053e-08
1.12329422792e-08
2.82039509818e-09
7.58827281005e-10
9.15598947773e-09
8.68888782481e-09
9.70628181259e-09
1.63619403655e-08
2.51727895643e-08
1.10671363434e-08
4.60664851517e-09
2.86003765044e-09
7.48182020244e-09
5.74583436706e-09
5.65125116539e-09
7.65761723381e-09
7.41866995581e-09
1.45394300345e-09
1.8798898572e-09
1.17012567154e-09
1.99992714433e-09
5.41432275543e-10
2.42403410995e-09
1.04752787637e-08
9.28991176462e-09
6.64334084021e-09
7.15164526449e-10
4.19537492822e-09
5.92338440056e-09
2.82987363399e-10
1.22852438794e-09
7.87173562349e-10
1.40548137385e-09
5.71163056961e-10
6.7436053545e-10
1.6402348281e-09
1.08927151218e-09
1.27985185879e-09
2.60673009445e-10
1.60495459452e-09
7.51179823035e-10
1.72032278459e-09
1.34508439835e-10
1.98380354269e-09
4.0371637751e-10
4.06278520559e-10
4.94398417851e-10
5.8045305898e-10
7.8069216516e-10
7.27022529107e-10
6.89600740837e-10
8.19010520833e-10
6.85530489295e-10
6.46296610245e-10
4.01680308541e-10
4.41629093986e-10
2.04978608473e-10
3.13604674214e-10
3.8170190241e-11
2.00066262916e-10
5.40168453544e-11
1.53641204146e-10
3.28071634576e-11
1.93624601205e-10
1.11450742101e-10
2.84079499973e-10
3.03136439754e-10
4.00098254671e-10
4.68038017262e-10
5.75128219419e-10
6.30528360718e-10
6.12764510037e-10
7.94897078428e-10
1.01772957737e-09
9.04574831902e-10
6.52610007732e-10
5.70971048493e-10
6.69082741866e-10
7.53712254208e-10
7.29863128882e-10
6.72410309337e-10
6.76369270841e-10
6.07934929766e-10
5.89940006702e-10
5.66132047987e-10
5.66103105507e-10
5.0514176274e-10
4.81213197091e-10
4.39415100404e-10
4.61279922492e-10
4.00465566784e-10
4.30567785592e-10
4.20968947116e-10
4.96746014193e-10
5.0135687085e-10
5.86597063132e-10
5.99670529018e-10
6.4782850784e-10
6.31778452172e-10
6.16687755665e-10
7.436324231e-10
7.42021030135e-10
7.96435122608e-10
6.47124365774e-10
6.37739925432e-10
6.07592186456e-10
7.12283026184e-10
7.01659912823e-10
6.41302529659e-10
6.85116664675e-10
6.34199372082e-10
6.07205632315e-10
5.80606493919e-10
5.46258806328e-10
5.30129653167e-10
4.89981577562e-10
5.39433522517e-10
5.15016280537e-10
5.21949272021e-10
4.84083972905e-10
5.16929158081e-10
5.33550101172e-10
5.30077705888e-10
5.81791140211e-10
5.41588612673e-10
5.99927036138e-10
5.6403298944e-10
6.06729740081e-10
6.18849468188e-10
6.08296495194e-10
5.93331752356e-10
5.6774225292e-10
4.26756973808e-10
4.86830738783e-10
5.66767276901e-10
5.31140458593e-10
5.97095004229e-10
5.85397234681e-10
5.4588367917e-10
5.39158735848e-10
5.80885788902e-10
6.25038014114e-10
5.81497753532e-10
5.0900620156e-10
4.94127972895e-10
4.40235132477e-10
4.75761141947e-10
4.31321595476e-10
4.990384517e-10
5.34902606085e-10
5.18412832571e-10
5.08439674499e-10
4.43407527758e-10
4.18614580877e-10
4.51824815535e-10
5.4621209011e-10
6.5297181553e-10
5.57923036952e-10
4.89245856107e-10
3.42780535736e-10
2.87201132186e-10
4.797101742e-10
4.42480468916e-10
4.45902410936e-10
4.98972421801e-10
3.77333014135e-10
4.42853660402e-10
4.47503866497e-10
5.73880185434e-10
4.83406661871e-10
5.42593628592e-10
4.88772848269e-10
5.48437618663e-10
4.21721445006e-10
4.31647622019e-10
4.49035539849e-10
5.04094679131e-10
5.48999232426e-10
5.13175399773e-10
4.20325258796e-10
4.56085901996e-10
5.25910253096e-10
4.82730749837e-10
3.70781372472e-10
1.00698727907e-10
1.32513902079e-10
5.03982751301e-10
4.72221991789e-10
4.19443814075e-10
4.81994185265e-10
3.46064582544e-10
3.84120477968e-10
3.89177355081e-10
3.21101237517e-10
4.48956910139e-10
6.11857004484e-10
7.42411359371e-10
5.52505539058e-10
4.28562297922e-10
3.40470131073e-10
3.33091055395e-10
4.26214510074e-10
3.81851842788e-10
4.69511799977e-10
3.86225664632e-10
2.87355788676e-10
1.95536620947e-10
1.00100740652e-10
3.84833993476e-10
5.01997380739e-10
6.18195904854e-10
5.52343062451e-10
5.617782679e-10
2.74094983629e-10
1.68850688782e-10
3.45617119834e-10
5.98822938659e-10
5.57356317862e-10
3.43444354211e-10
4.08167562508e-10
3.21165606749e-10
2.39020185069e-10
1.72487782452e-10
1.98935243557e-10
2.92434567671e-10
3.18470060885e-10
5.0943037693e-10
5.26312607408e-10