# vtk DataFile Version 3.0
File Name: Molecule/methanol/methanol_2.0-2.vtk
ASCII
DATASET UNSTRUCTURED_GRID
FIELD FieldData 1
TIME 1 1 double
0.0
POINTS 102 double
1.2661378384 -0.61234021187 -0.93180966377
1.4014531374 -0.0057761450298 -0.93488568068
1.4646294117 -0.67311537266 -0.35683867335
1.6072735786 0.0064567788504 -0.36829552054
0.81317293644 -1.200638175 -0.89031648636
0.96199983358 -1.3353136778 -0.28239315748
0.25003501773 -1.4726618528 -0.85002535582
0.34218513966 -1.6407217979 -0.19875966012
-0.48294177651 -1.6369092464 -0.12148730457
-0.4936144352 -1.4827660322 -0.75575506687
-1.0637834072 -1.2170809507 -0.65929025412
-1.0938999653 -1.3343287706 -0.046997118741
-1.6049813032 -0.66692352295 -0.03150466457
-1.5225479603 -0.60706311464 -0.64958441257
-1.7389829159 -0.00038094058982 -0.041642263532
-1.6427407265 -0.0047770803794 -0.6517226696
-1.5210162401 0.60347825289 -0.65758734941
-1.6022611856 0.67319911718 -0.024532917887
-1.0622166395 1.2092362642 -0.68926537037
-1.0891078711 1.337035656 -0.066396854818
-0.48494657874 1.6375198364 -0.11520302296
-0.50005829334 1.4799929857 -0.76201528311
0.34000784159 1.642567873 -0.18850812316
0.25848016143 1.4775011539 -0.83840560913
0.96706724167 1.3389408588 -0.25302395225
0.81991100311 1.1985567808 -0.88327968121
1.4776399136 0.67738437653 -0.30627816916
1.2820940018 0.60160970688 -0.9161003232
1.9063888788 -0.003693139879 0.66348719597
1.7430378199 0.76727259159 0.66074746847
1.7406921387 0.38231745362 1.3269674778
1.7412041426 -0.39194327593 1.3211843967
1.7421199083 -0.76909595728 0.65631473064
1.7472574711 -0.39143624902 0.02729915455
1.8007752895 0.30660611391 0.11365652829
1.3806420565 1.0694577694 1.4065328836
1.3703984022 0.5798459053 1.8374218941
1.3793520927 -0.20041893423 1.948425889
1.3723249435 -0.91222852468 1.6017830372
1.3796616793 -1.2492001057 1.0438798666
1.3857069016 -1.2405004501 0.26260411739
1.3731224537 1.3137967587 0.64016854763
0.73059695959 1.5639455318 1.4355779886
0.73113721609 1.0503181219 2.0519132614
0.73290491104 0.32824462652 2.3711774349
0.71543413401 -0.32950431108 2.37830019
0.72293972969 -1.048943162 2.0567107201
0.7250161767 -1.563297987 1.4429297447
0.72584313154 -1.7496271133 0.64856517315
0.71615856886 1.753237009 0.64177691936
0.090937048197 1.7747653723 1.2916240692
0.092713795602 1.3525328636 1.969727993
0.092673331499 0.68497508764 2.4125635624
0.089268907905 0.032682131976 2.541087389
-0.051710449159 -0.74366539717 2.388646841
-0.053831733763 -1.2999500036 2.0204906464
-0.054248798639 -1.749807477 1.3559430838
-0.055659048259 -1.883713007 0.55393767357
-0.05071369186 1.8851716518 0.61430633068
-0.68912565708 1.7486065626 0.65572857857
-0.68641662598 1.5665545464 1.4364335537
-0.68613290787 1.0531525612 2.0535473824
-0.68847620487 0.32950642705 2.3735938072
-0.67745488882 -0.32843485475 2.3785889149
-0.69203150272 -1.047172904 2.0543153286
-0.69469618797 -1.5594305992 1.4427410364
-0.69110947847 -1.7473700047 0.66090542078
-1.3383091688 1.3106435537 0.65754902363
-1.3425729275 1.0699862242 1.4061090946
-1.3326137066 0.57968527079 1.8371729851
-1.3408176899 -0.20029881597 1.9489603043
-1.3340371847 -0.91226136684 1.602062583
-1.3387913704 -1.2543498278 1.0372815132
-1.7010197639 0.77035647631 0.67631298304
-1.70201087 0.38305434585 1.3281620741
-1.7030416727 -0.39197951555 1.3213421106
-1.7010751963 -0.77700227499 0.65063369274
-1.8678318262 -0.00017976584786 0.6557110548
0.91441452503 0.44777575135 -1.77442801
1.2190201283 0.36015221477 -1.3940671682
1.0158450603 -0.29816174507 -1.7219364643
0.62426573038 -0.95634645224 -1.6721611023
-0.12307801098 -1.1519620419 -1.7498625517
0.62821674347 -0.65961498022 -1.9007505178
0.63390529156 -0.18438464403 -2.0590069294
-0.12123138458 -0.48136213422 -2.1936409473
-0.12094479799 0.16829755902 -2.2619020939
0.61284160614 0.56870871782 -1.9496405125
-0.12052363902 0.89877784252 -1.9812461138
0.62755399942 1.1120882034 -1.4848384857
-0.12106073648 1.3397400379 -1.4883881807
-0.89423888922 -1.2401819229 -1.1699455976
-0.87925809622 -0.8037019968 -1.8004058599
-0.88957643509 -0.19382752478 -2.0493993759
-0.87946325541 0.58595693111 -1.9341874123
-0.89029967785 1.0895161629 -1.4948718548
-1.4470579624 -0.39095264673 -1.4015873671
-1.4456368685 0.38090792298 -1.4084272385
1.0240571499 0.73912853003 -1.4477822781
1.2290205956 -0.35660287738 -1.3798393011
0.93423426151 -0.7507802844 -1.5622732639
0.65192162991 0.85833787918 -1.7492825985

CELLS 200 800
3 0 1 2
3 3 2 1
3 0 2 4
3 5 4 2
3 4 5 6
3 7 6 5
3 8 9 7
3 6 7 9
3 9 8 10
3 11 10 8
3 11 12 10
3 10 12 13
3 12 14 13
3 15 13 14
3 15 14 16
3 17 16 14
3 16 17 18
3 19 18 17
3 19 20 18
3 21 18 20
3 20 22 21
3 21 22 23
3 22 24 23
3 23 24 25
3 24 26 25
3 25 26 27
3 26 3 27
3 27 3 1
3 28 29 30
3 28 30 31
3 28 31 32
3 28 32 33
3 28 33 34
3 28 34 29
3 30 29 35
3 30 35 36
3 30 36 37
3 31 30 37
3 31 37 38
3 31 38 39
3 32 31 39
3 32 39 40
3 33 32 40
3 29 41 35
3 35 41 42
3 35 42 43
3 36 35 43
3 36 43 44
3 37 36 44
3 37 44 45
3 38 37 46
3 45 46 37
3 38 46 47
3 39 38 47
3 39 47 48
3 40 39 48
3 41 49 42
3 42 49 50
3 42 50 51
3 43 42 51
3 43 51 52
3 44 43 52
3 44 52 53
3 45 44 53
3 45 53 54
3 46 45 54
3 46 54 55
3 47 46 55
3 47 55 56
3 48 47 56
3 48 56 57
3 49 58 50
3 50 58 59
3 50 59 60
3 51 50 60
3 51 60 61
3 52 51 61
3 52 61 62
3 53 52 62
3 53 62 63
3 54 53 63
3 54 63 64
3 55 54 64
3 55 64 65
3 56 55 65
3 56 65 66
3 57 56 66
3 60 59 67
3 60 67 68
3 61 60 68
3 61 68 69
3 62 61 69
3 62 69 70
3 63 62 70
3 63 70 64
3 71 64 70
3 65 64 71
3 65 71 72
3 66 65 72
3 68 67 73
3 68 73 74
3 69 68 74
3 70 69 74
3 70 74 75
3 71 70 75
3 72 71 75
3 72 75 76
3 74 73 77
3 75 74 77
3 76 75 77
3 76 77 12
3 14 12 77
3 76 12 11
3 76 11 72
3 72 11 66
3 66 11 8
3 66 8 57
3 57 8 7
3 57 7 48
3 48 7 5
3 48 5 40
3 40 5 2
3 40 2 33
3 33 2 3
3 33 3 34
3 34 3 26
3 34 26 29
3 29 26 41
3 41 26 24
3 41 24 49
3 49 24 22
3 49 22 58
3 58 22 20
3 58 20 59
3 59 20 19
3 59 19 67
3 67 19 17
3 67 17 73
3 73 17 77
3 14 77 17
3 78 79 80
3 81 82 83
3 84 85 86
3 87 84 86
3 87 86 88
3 89 88 90
3 82 91 92
3 85 82 92
3 85 92 93
3 86 85 93
3 86 93 94
3 88 86 94
3 88 94 95
3 90 88 95
3 92 91 96
3 93 92 96
3 93 96 97
3 94 93 97
3 95 94 97
3 95 97 16
3 95 16 18
3 95 18 21
3 95 21 90
3 90 21 23
3 90 23 89
3 89 23 25
3 89 25 98
3 79 27 1
3 79 1 99
3 99 1 0
3 0 4 100
3 81 4 6
3 81 6 82
3 82 6 9
3 82 9 91
3 91 9 10
3 91 10 13
3 91 13 96
3 96 13 15
3 96 15 97
3 97 15 16
3 87 78 84
3 79 78 98
3 78 101 98
3 78 87 101
3 98 101 89
3 89 101 88
3 101 87 88
3 79 98 27
3 27 98 25
3 99 100 80
3 100 83 80
3 100 81 83
3 80 83 84
3 84 83 85
3 85 83 82
3 81 100 4
3 0 100 99
3 99 80 79
3 78 80 84

CELL_TYPES 200
5
5
5
5
5
5
5
5
5
5
5
5
5
5
5
5
5
5
5
5
5
5
5
5
5
5
5
5
5
5
5
5
5
5
5
5
5
5
5
5
5
5
5
5
5
5
5
5
5
5
5
5
5
5
5
5
5
5
5
5
5
5
5
5
5
5
5
5
5
5
5
5
5
5
5
5
5
5
5
5
5
5
5
5
5
5
5
5
5
5
5
5
5
5
5
5
5
5
5
5
5
5
5
5
5
5
5
5
5
5
5
5
5
5
5
5
5
5
5
5
5
5
5
5
5
5
5
5
5
5
5
5
5
5
5
5
5
5
5
5
5
5
5
5
5
5
5
5
5
5
5
5
5
5
5
5
5
5
5
5
5
5
5
5
5
5
5
5
5
5
5
5
5
5
5
5
5
5
5
5
5
5
5
5
5
5
5
5
5
5
5
5
5
5
5
5
5
5
5
5

CELL_DATA 200
SCALARS cell_data_0 double
LOOKUP_TABLE default
2.75365296832e-06
1.54063223741e-06
1.03517620397e-06
5.50458722252e-08
2.03418553472e-07
2.96810893716e-07
3.27724391986e-07
3.41399816725e-07
1.95550833827e-07
1.73516391492e-07
6.78419369756e-08
1.84809674408e-07
7.66315299673e-08
1.31684887398e-07
1.42539963826e-07
8.45685308044e-08
7.06911816428e-08
9.88230071483e-08
2.01450784625e-07
2.19755510808e-07
3.39105617015e-07
9.7050056469e-08
2.49860098982e-07
2.39559331037e-07
9.62808949284e-08
1.34772396853e-07
2.72148102665e-08
2.32153304767e-06
4.24522041998e-09
3.90448635286e-09
6.11083374783e-09
8.78714573997e-10
2.84028490078e-08
2.84324950705e-09
2.11160260672e-09
4.00478470219e-09
1.11914664643e-09
9.16881360886e-10
5.05705400827e-09
2.36797546485e-09
8.95740878261e-09
1.81210549515e-09
3.01625840713e-08
2.63923767766e-09
7.5105673275e-10
3.39032028188e-09
1.82614454555e-10
9.35253081773e-10
2.96004246802e-09
1.94621785131e-09
2.53998709218e-09
3.97411374289e-10
9.43730614802e-12
4.6131500302e-10
3.05266511529e-09
5.53961174596e-09
1.63347344504e-10
2.53121519056e-09
3.16641512875e-09
1.62351299112e-09
2.12480374553e-09
1.51044306995e-11
2.00148041365e-09
2.63376682115e-09
8.83691230486e-10
6.20051313561e-10
1.93373296025e-09
5.1490251156e-10
3.27810676085e-09
1.05824431816e-09
7.79149388146e-09
1.89492251966e-09
6.43326972044e-09
5.59862924434e-09
5.59358826752e-09
2.34924967156e-10
6.96933346856e-10
1.35967975948e-10
2.16307052936e-10
1.30838535315e-09
1.49129370011e-09
1.7688472048e-09
2.42899599461e-09
1.3328911174e-09
4.20451987613e-09
1.23044799183e-10
3.41335042986e-09
1.70654458904e-08
1.35917261693e-09
5.71731204751e-09
3.6232575726e-09
1.26779208255e-09
2.2134537414e-09
1.47990721455e-09
1.45773694487e-09
5.02766174844e-09
3.54464390766e-09
1.68789771129e-10
2.92724359503e-09
1.20127815447e-08
1.71371041398e-09
1.99746639693e-09
6.83547938683e-10
1.07634640798e-08
6.89135149387e-09
3.6591027155e-09
4.8349558504e-10
1.30285766139e-08
6.92902781974e-09
7.08815388748e-09
4.38819488665e-08
5.84928649897e-08
1.62168617017e-07
1.77339467959e-07
7.38150670776e-08
1.60374670299e-07
6.1031881991e-08
1.0866865995e-07
8.5916351617e-08
3.52069264768e-08
3.49653342202e-08
1.16794347638e-09
3.85797272949e-08
7.13169757318e-08
6.04386530754e-09
2.94819732866e-08
2.07023663633e-08
3.29520080992e-09
7.6543067602e-08
1.95570940706e-08
4.64278689064e-08
1.03198111857e-08
1.30955133095e-07
2.0055555195e-08
1.54072271407e-07
2.91324161678e-08
2.0959397522e-07
3.97804228257e-08
5.06238050345e-08
4.89426336699e-08
1.57681419913e-06
2.58784278653e-07
1.15687545495e-06
1.12844612754e-06
9.59978137543e-07
3.18352796503e-07
9.24540540093e-08
3.20484707906e-08
7.67942321977e-08
3.81539700381e-08
8.90536953917e-08
3.68259106693e-08
5.8018989897e-08
1.51509443084e-08
6.28107502195e-08
5.8090442698e-08
2.30344098721e-10
1.11711066843e-08
8.97162913913e-08
1.12488755858e-08
9.23124298638e-08
2.85709866755e-09
6.84499031914e-09
7.38155451139e-08
1.32596936541e-07
8.36579065597e-08
3.66528824308e-07
2.88880209243e-07
1.07588600473e-06
7.83687188217e-08
4.02564443634e-08
5.13821645665e-08
9.13616076427e-07
6.23976015387e-08
4.12155529945e-08
5.09314934151e-08
3.59256737798e-08
6.73115281235e-08
1.81331191751e-08
3.36432164911e-08
3.44352339605e-10
1.76065781185e-08
1.90481205153e-06
1.50727981173e-07
3.83990197024e-07
1.73616500997e-07
2.37607509273e-07
3.66348528204e-07
2.02561597071e-06
3.39573657229e-07
9.32452980881e-07
1.23172435665e-06
8.21354431847e-08
1.6692275569e-06
3.51857738651e-08
5.70793246261e-07
3.20724509178e-07
1.88686280546e-06
9.86388232125e-07
1.78956163421e-06

