# vtk DataFile Version 3.0
File Name: Molecule/methanol/methanol_1.0-5.vtk
ASCII
DATASET UNSTRUCTURED_GRID
FIELD FieldData 1
TIME 1 1 double
0.0
POINTS 64 double
1.3987915516 0.0039431494661 -0.94375675917
1.611800909 -0.0002751116408 -0.33182352781
1.2830940485 -0.60836458206 -0.90641266108
1.0942211151 -1.2245351076 -0.26569062471
0.015902960673 -1.679407835 -0.18652011454
0.91471415758 -1.1300143003 -0.86746954918
-0.11874748766 -1.5018537045 -0.93308871984
-1.1670931578 -1.0960983038 -0.70429086685
-1.2173784971 -1.2291742563 -0.035639852285
-1.7297013998 -0.00077609496657 -0.019632227719
-1.6407680511 0.00044978846563 -0.76779866219
-1.1629832983 1.0878340006 -0.7230681777
-1.2077553272 1.2290117741 -0.057509053499
-0.05590474233 1.5081827641 -0.82991486788
0.029639162123 1.6853677034 -0.16144505143
0.91334146261 1.1257227659 -0.87542378902
1.0938555002 1.2234977484 -0.26873326302
1.2817165852 0.60950165987 -0.90858304501
1.905933857 0.00016616584617 0.67354536057
1.5802894831 1.0592745543 0.65782475471
1.5725791454 0.50450772047 1.5989894867
1.5738642216 -0.57903647423 1.553413868
1.578289628 -1.059366703 0.72713315487
0.58042615652 1.4500718117 1.7180579901
0.5684813261 0.55005073547 2.3730607033
0.59063142538 -0.55133748055 2.3635349274
0.57951140404 -1.4502905607 1.7188432217
0.57161444426 -1.8037873507 0.66031825542
0.57182633877 1.8033983707 0.66017192602
-0.54289144278 1.4605493546 1.7032364607
-0.53054893017 0.56965124607 2.3672676086
-0.53592270613 -0.55683124065 2.3699581623
-0.54105967283 -1.4606633186 1.7052375078
-0.54211950302 -1.8023269176 0.64519363642
-0.54206955433 1.8027038574 0.64298462868
-1.5410542488 1.0562458038 0.67667734623
-1.5354892015 0.50543028116 1.5980200768
-1.5373078585 -0.57840687037 1.551304698
-1.5405818224 -1.0541495085 0.74956911802
-1.8628448248 -0.00031606023549 0.69525396824
-0.15089185536 0.31230732799 -2.2358241081
-1.1422610283 -0.61420661211 -1.7003109455
-1.147659421 0.6117425561 -1.6996930838
-0.13586463034 1.1705728769 -1.723981142
0.88691693544 0.95685011148 -1.3730806112
1.0081908703 -0.83126860857 -1.3520081043
-0.14315055311 -0.80068862438 -2.0408565998
1.0295658112 -0.45838987827 -1.6445001364
1.2885479927 -0.3139744699 -1.266430378
0.49581119418 -0.73263770342 -1.9304995537
0.48016160727 -0.40633147955 -2.0894842148
0.48772183061 -0.062830388546 -2.143430233
-0.11687729508 -0.3171954155 -2.2388942242
1.2384192944 0.39995333552 -1.3399978876
1.2161979675 -0.063736841083 -1.4896168709
0.88688063622 0.62111771107 -1.7111903429
0.35582092404 0.51086890697 -2.1040568352
0.36024236679 0.91642576456 -1.8697807789
-0.12101379782 0.77074480057 -2.0647850037
0.78705692291 -0.6104516387 -1.8152842522
0.78951215744 -0.29800513387 -1.9358327389
1.0186997652 0.14680683613 -1.7550241947
0.77044457197 0.30468848348 -1.9476907253
1.1072690487 0.42026761174 -1.5542724133

CELLS 124 496
3 0 1 2
3 3 4 5
3 5 4 6
3 6 4 7
3 8 7 4
3 8 9 7
3 7 9 10
3 10 9 11
3 12 11 9
3 11 12 13
3 14 13 12
3 13 14 15
3 16 15 14
3 16 1 17
3 18 19 20
3 18 20 21
3 18 21 22
3 20 19 23
3 20 23 24
3 20 24 25
3 21 20 25
3 21 25 26
3 22 21 26
3 22 26 27
3 19 28 23
3 23 28 29
3 23 29 30
3 24 23 30
3 24 30 31
3 25 24 31
3 26 25 31
3 26 31 32
3 26 32 27
3 33 27 32
3 28 34 29
3 29 34 35
3 29 35 36
3 30 29 36
3 30 36 31
3 37 31 36
3 32 31 37
3 32 37 38
3 33 32 38
3 36 35 39
3 37 36 39
3 38 37 39
3 38 39 9
3 38 9 8
3 38 8 33
3 33 8 4
3 33 4 27
3 27 4 3
3 27 3 22
3 22 3 1
3 22 1 18
3 18 1 19
3 19 1 16
3 19 16 28
3 28 16 14
3 28 14 34
3 34 14 12
3 34 12 35
3 35 12 9
3 35 9 39
3 40 41 42
3 43 42 11
3 43 11 13
3 43 13 44
3 5 6 45
3 46 6 41
3 41 6 7
3 41 7 10
3 41 10 42
3 42 10 11
3 5 2 3
3 3 2 1
3 47 48 45
3 48 2 45
3 48 0 2
3 45 2 5
3 45 6 49
3 49 46 50
3 51 52 40
3 40 52 41
3 52 46 41
3 46 49 6
3 0 17 1
3 16 17 15
3 15 44 13
3 44 17 53
3 44 15 17
3 53 17 0
3 53 0 54
3 55 56 57
3 56 58 57
3 56 40 58
3 57 58 43
3 43 58 42
3 58 40 42
3 40 56 51
3 55 57 44
3 44 57 43
3 47 54 48
3 48 54 0
3 47 59 60
3 59 50 60
3 59 49 50
3 60 50 51
3 51 50 52
3 52 50 46
3 47 60 61
3 60 62 61
3 60 51 62
3 61 62 55
3 49 59 45
3 45 59 47
3 53 63 44
3 44 63 55
3 55 63 61
3 63 54 61
3 63 53 54
3 61 54 47
3 55 62 56
3 56 62 51

CELL_TYPES 124
5
5
5
5
5
5
5
5
5
5
5
5
5
5
5
5
5
5
5
5
5
5
5
5
5
5
5
5
5
5
5
5
5
5
5
5
5
5
5
5
5
5
5
5
5
5
5
5
5
5
5
5
5
5
5
5
5
5
5
5
5
5
5
5
5
5
5
5
5
5
5
5
5
5
5
5
5
5
5
5
5
5
5
5
5
5
5
5
5
5
5
5
5
5
5
5
5
5
5
5
5
5
5
5
5
5
5
5
5
5
5
5
5
5
5
5
5
5
5
5
5
5
5
5

CELL_DATA 124
SCALARS cell_data_0 double
LOOKUP_TABLE default
2.11888722253e-06
2.39324198517e-07
1.25631710554e-07
8.2264447955e-07
7.42203759352e-07
7.88835812945e-08
2.7694562513e-07
4.11340167321e-07
6.93377492695e-08
1.38948562235e-07
3.10459330656e-07
5.13498505088e-07
1.83325942468e-07
8.98701000287e-07
1.31305389874e-08
7.91839601133e-10
1.14669852868e-08
4.67466184108e-09
1.0686998663e-08
2.05602503234e-09
8.21858073388e-09
4.55299761884e-11
5.22470321939e-09
7.54568277391e-09
1.94914312628e-09
2.58336807035e-09
4.2825423207e-10
1.40918480364e-09
9.44166202459e-09
1.42168322208e-08
4.70289438672e-09
5.93937677231e-09
9.85812754408e-12
3.01160374246e-08
2.73996616933e-08
7.47239686767e-08
5.12497960734e-09
1.02751381279e-08
1.31514499301e-08
2.97994568861e-09
2.51975062883e-08
2.47592390704e-08
2.18204326989e-08
3.71522991877e-08
3.07551165588e-08
3.1111353979e-08
6.88817886825e-08
5.4227542744e-07
1.62704129797e-07
3.42572520715e-07
1.82429007635e-07
1.14596172595e-07
1.68786699792e-07
3.44644590055e-07
4.84259197756e-08
2.95191054684e-08
3.28395101724e-07
1.10197453365e-07
1.07278078188e-07
3.71148794185e-08
3.48805674284e-07
4.63858272115e-08
4.64534082914e-07
9.21310599167e-08
2.1542968228e-07
3.20797630339e-07
7.92165037208e-08
1.84820202605e-06
3.22153695977e-06
8.31288057051e-07
7.17698014975e-08
1.5447446157e-07
2.4654703017e-07
1.02380187588e-07
4.27932085673e-07
8.79533270118e-07
1.53673295674e-06
1.86036718185e-06
8.08513306782e-07
7.45697703798e-07
1.68719125058e-06
1.65227636247e-07
4.8825988977e-07
4.68896034224e-07
1.49893799904e-07
1.3700368864e-06
2.05954869947e-06
3.4298905026e-07
1.34379308547e-06
5.88462061782e-07
7.79777726437e-07
8.67513124903e-07
1.19881582096e-06
6.80221559538e-07
1.30293254019e-08
1.10661952429e-07
5.17394357369e-08
2.86101752987e-07
2.26725901937e-07
3.53051082574e-07
2.24029385266e-07
3.58047956746e-07
6.36937905819e-07
5.44714300721e-07
2.50916806448e-07
1.29074404371e-07
9.97515271111e-08
1.85598031695e-07
3.66957114096e-08
2.28649746382e-07
6.690370531e-07
5.06144988107e-07
3.24781038028e-08
5.76068216252e-07
7.00488110364e-08
1.58321338251e-07
1.18986998226e-07
1.67266190624e-07
3.16243257383e-07
4.05945746103e-07
2.69918773194e-07
1.16931011656e-06
1.8369362411e-07
8.49206274247e-08

