# vtk DataFile Version 3.0
File Name: Molecule/methanol/methanol_1.0-0.vtk
ASCII
DATASET UNSTRUCTURED_GRID
FIELD FieldData 1
TIME 1 1 double
0.0
POINTS 45 double
0.93843632936 -1.0733107328 -0.91924726963
1.3801317215 -0.00021533187828 -0.96578466892
1.1288486719 -1.1884995699 -0.27537477016
1.6116460562 0.0064111454412 -0.32849028707
-0.049469046295 -1.6867233515 -0.16310738027
-0.13752168417 -1.5058112144 -0.83446359634
-1.2360671759 -1.2009016275 -0.057246483862
-1.2042469978 -1.0631331205 -0.70396739244
-1.7324932814 -0.0052251145244 -0.010401519947
-1.6320941448 0.0062621552497 -0.67914354801
-1.1919394732 1.0711148977 -0.71487820148
-1.2461475134 1.2008347511 -0.039343867451
-0.12620377541 1.5153851509 -0.81324982643
-0.059041831642 1.6924688816 -0.13699114323
1.114389658 1.2017043829 -0.27127113938
0.94213926792 1.0671845675 -0.92368537188
1.9054327011 0.00075463415124 0.67513912916
1.5457166433 1.1069275141 0.66022759676
1.5398198366 0.55176520348 1.6258869171
1.5437003374 -0.56111216545 1.6151179075
1.5460416079 -1.1060787439 0.66153687239
0.60611498356 1.4442112446 1.7133864164
0.59412479401 0.54840379953 2.364679575
0.61776727438 -0.549870193 2.3560800552
0.60127979517 -1.4515502453 1.7103335857
0.60537695885 -1.7938443422 0.64344608784
0.5979719758 1.7945414782 0.65897971392
-0.56879800558 1.4536341429 1.6996742487
-0.56717061996 0.55764043331 2.3558969498
-0.55180668831 -0.55728411674 2.3647785187
-0.57955271006 -1.4470756054 1.7047792673
-0.56017059088 -1.79401052 0.66359436512
-0.57113170624 1.792544961 0.64689141512
-1.5071897507 1.1029328108 0.68696063757
-1.5057666302 0.56044405699 1.6151195765
-1.5023179054 -0.55263757706 1.6252576113
-1.5063451529 -1.1045742035 0.67965936661
-1.8617966175 0.00044752738904 0.69875836372
0.95281493664 -0.52522987127 -1.6967182159
-0.10799189657 -0.78894048929 -2.0425343513
-0.12010971457 0.26161444187 -2.246445179
0.95329231024 0.54015934467 -1.6907986403
-0.12198011577 1.1735131741 -1.7222428322
-1.197178483 -0.54779559374 -1.681517005
-1.201661706 0.54435688257 -1.6794340611

CELLS 86 344
3 0 1 2
3 3 2 1
3 2 4 0
3 0 4 5
3 4 6 5
3 5 6 7
3 6 8 7
3 7 8 9
3 9 8 10
3 11 10 8
3 10 11 12
3 13 12 11
3 13 14 12
3 12 14 15
3 1 15 3
3 14 3 15
3 16 17 18
3 16 18 19
3 16 19 20
3 18 17 21
3 18 21 22
3 18 22 23
3 19 18 23
3 19 23 24
3 20 19 24
3 20 24 25
3 17 26 21
3 21 26 27
3 21 27 28
3 22 21 28
3 22 28 29
3 23 22 29
3 24 23 29
3 24 29 30
3 24 30 31
3 25 24 31
3 26 32 27
3 27 32 33
3 27 33 34
3 28 27 34
3 28 34 35
3 29 28 35
3 30 29 35
3 30 35 36
3 31 30 36
3 34 33 37
3 35 34 37
3 36 35 37
3 36 37 8
3 36 8 6
3 36 6 31
3 31 6 4
3 31 4 25
3 25 4 2
3 25 2 20
3 20 2 3
3 20 3 16
3 16 3 17
3 17 3 14
3 17 14 26
3 26 14 13
3 26 13 32
3 32 13 11
3 32 11 33
3 33 11 8
3 33 8 37
3 38 39 40
3 41 38 40
3 41 40 42
3 40 39 43
3 40 43 44
3 42 40 44
3 42 44 10
3 42 10 12
3 42 12 15
3 42 15 41
3 41 15 1
3 41 1 38
3 38 1 0
3 38 0 39
3 39 0 5
3 39 5 43
3 43 5 7
3 43 7 9
3 43 9 44
3 44 9 10

CELL_TYPES 86
5
5
5
5
5
5
5
5
5
5
5
5
5
5
5
5
5
5
5
5
5
5
5
5
5
5
5
5
5
5
5
5
5
5
5
5
5
5
5
5
5
5
5
5
5
5
5
5
5
5
5
5
5
5
5
5
5
5
5
5
5
5
5
5
5
5
5
5
5
5
5
5
5
5
5
5
5
5
5
5
5
5
5
5
5
5

CELL_DATA 86
SCALARS cell_data_0 double
LOOKUP_TABLE default
1.25501690074e-05
1.24620122033e-05
5.31664711148e-07
4.44385963452e-07
3.31636535842e-07
1.8575819045e-07
1.24343276453e-07
2.36068585119e-07
2.74491144536e-07
1.02456442737e-07
1.17629016651e-07
1.4886362948e-07
1.14906248088e-06
1.13965649307e-06
1.49494036168e-05
9.62182333377e-07
6.77420937018e-08
1.29187969071e-08
8.6992689238e-08
2.64611678707e-09
3.86788343503e-09
2.60890886572e-09
2.12991967482e-08
2.70436220734e-08
1.09301883058e-08
1.23360412359e-07
8.3062860464e-09
2.02527440647e-09
2.68293695245e-09
6.48879277527e-10
8.42703086203e-09
1.93830775042e-08
2.48248664602e-09
9.90397955818e-09
3.6573019904e-08
6.427236798e-08
2.57516977085e-08
5.25959747267e-08
1.21336287688e-08
1.77532474486e-08
3.41070509143e-08
1.54845657249e-08
6.57031571574e-09
2.16454678566e-08
4.13283440319e-08
4.17006522963e-08
2.09546993992e-08
4.59914121542e-08
8.3318201291e-08
4.51105156908e-07
1.45625630735e-07
1.17915291463e-07
1.54461367271e-07
8.43688418348e-07
4.53088845764e-07
1.19183808989e-06
7.70967677724e-08
1.1110275158e-07
1.68567041319e-08
7.68210681478e-08
1.40638583596e-07
3.93094562458e-09
4.10389821164e-07
3.13168519031e-08
4.00100352684e-07
8.44124412764e-08
1.89139073488e-05
1.76171370239e-05
1.54730342585e-05
6.41394980847e-07
3.53105270415e-07
1.21005063167e-06
1.50086213909e-08
1.39524105824e-08
1.56649225644e-07
4.16214108794e-06
2.34831551615e-05
4.20743487158e-06
2.52872292663e-05
1.1400115383e-05
6.34147854031e-07
5.21344027459e-07
2.8427910576e-07
1.87534252163e-07
2.60613651127e-08
1.03265324669e-07

