# vtk DataFile Version 3.0
File Name: Molecule/methanol/methanol_0.5-6.vtk
ASCII
DATASET UNSTRUCTURED_GRID
FIELD FieldData 1
TIME 1 1 double
0.0
POINTS 46 double
1.4146569967 -0.0087838955224 -0.89171338081
1.6073009968 0.010526802391 -0.34386894107
1.2119977474 -0.74898475409 -0.90189826488
0.63887494802 -1.2976763248 -1.0090910196
0.81915682554 -1.4214477539 -0.24899284542
-0.91409063339 -1.276315093 -0.74215012789
-0.94953507185 -1.4329218864 -0.053330104798
-1.7315064669 -0.0035605609883 0.013747220859
-1.6390148401 -0.0016093081795 -0.7778121233
-0.93425858021 1.2800744772 -0.74170386791
-0.93584805727 1.4192193747 -0.076504036784
0.82276201248 1.4349108934 -0.24200639129
0.65405637026 1.2978982925 -0.89456814528
1.2195528746 0.76535403728 -0.85407829285
1.9054780006 -0.0098948869854 0.67527663708
1.3828911781 1.3014682531 0.68724691868
1.3780618906 0.43820825219 1.8906434774
1.3703531027 -1.0247172117 1.4831272364
0.1137381345 1.3430310488 1.975935936
-0.05531553179 0.03393631801 2.535569191
-0.054753456265 -1.2962207794 2.0233664513
0.094281040132 -1.8820443153 0.76167905331
-0.060123387724 1.8815971613 0.68529874086
-1.3436164856 0.4529504478 1.8458124399
-1.341545105 -1.01975739 1.4711173773
0.040356945246 -1.0816954374 -1.8113441467
-0.89510184526 -1.004440546 -1.5879620314
-0.90204036236 0.43687096238 -1.9779820442
-0.12019634992 -0.46261593699 -2.1988844872
0.88072085381 -0.64092248678 -1.7049226761
0.76178401709 -0.15512011945 -1.982489109
1.1253654957 -0.20646007359 -1.6117264032
1.1090636253 0.28450706601 -1.6085306406
0.64082163572 0.4614187479 -1.9863080978
-0.11191634089 0.46572673321 -2.1965589523
1.0182638168 0.82940644026 -1.3466715813
0.76682567596 0.97688001394 -1.5147440434
1.3256367445 -0.24768787622 -1.1755110025
1.1179958582 -0.72035723925 -1.2810931206
1.2746342421 0.15117369592 -1.3567533493
-0.12008243799 1.2366881371 -1.6454156637
1.3340082169 0.44633233547 -0.93272095919
1.3519408703 0.092124566436 -1.168200016
1.2846853733 0.44427654147 -1.1704260111
1.1317082644 0.78283894062 -1.1682983637
1.2049056292 0.50873780251 -1.3206636906

CELLS 88 352
3 0 1 2
3 3 4 5
3 6 5 4
3 6 7 5
3 5 7 8
3 8 7 9
3 10 9 7
3 11 12 10
3 9 10 12
3 12 11 13
3 14 15 16
3 14 16 17
3 16 15 18
3 16 18 19
3 17 16 19
3 17 19 20
3 17 20 21
3 15 22 18
3 19 18 23
3 19 23 24
3 20 19 24
3 21 20 24
3 21 24 6
3 21 6 4
3 21 4 17
3 17 4 14
3 14 4 1
3 14 1 15
3 15 1 11
3 15 11 22
3 22 11 10
3 22 10 23
3 22 23 18
3 23 10 7
3 23 7 24
3 24 7 6
3 3 5 25
3 26 5 8
3 26 8 27
3 27 8 9
3 3 2 4
3 4 2 1
3 28 26 27
3 29 30 31
3 32 30 33
3 33 30 34
3 25 28 29
3 30 29 28
3 28 25 26
3 26 25 5
3 3 25 29
3 1 13 11
3 35 32 36
3 2 37 0
3 29 38 3
3 38 2 3
3 39 31 32
3 32 31 30
3 29 31 38
3 31 37 38
3 31 39 37
3 38 37 2
3 36 33 40
3 34 40 33
3 34 27 40
3 36 40 12
3 12 40 9
3 9 40 27
3 27 34 28
3 28 34 30
3 33 36 32
3 35 36 12
3 0 41 1
3 41 13 1
3 0 42 41
3 42 43 41
3 42 39 43
3 44 13 43
3 39 45 43
3 45 44 43
3 45 35 44
3 41 43 13
3 35 45 32
3 32 45 39
3 13 44 12
3 44 35 12
3 39 42 37
3 37 42 0

CELL_TYPES 88
5
5
5
5
5
5
5
5
5
5
5
5
5
5
5
5
5
5
5
5
5
5
5
5
5
5
5
5
5
5
5
5
5
5
5
5
5
5
5
5
5
5
5
5
5
5
5
5
5
5
5
5
5
5
5
5
5
5
5
5
5
5
5
5
5
5
5
5
5
5
5
5
5
5
5
5
5
5
5
5
5
5
5
5
5
5
5
5

CELL_DATA 88
SCALARS cell_data_0 double
LOOKUP_TABLE default
1.63973114921e-06
2.45961838432e-06
1.97018292113e-06
3.21831608632e-08
2.34491834658e-07
3.9748649706e-07
1.18935241179e-07
1.21130816153e-06
9.11634592889e-07
1.51602971163e-07
1.43416773216e-08
5.3655009745e-08
1.34856388935e-08
2.40614437623e-08
7.12668794649e-09
3.4678238442e-08
1.38752294243e-07
4.49076395445e-08
8.13769079342e-08
2.94512299836e-08
4.57382210232e-08
5.079089766e-08
5.36871718252e-07
5.73793690407e-07
6.12096650514e-07
3.56554079363e-07
4.32252984631e-07
3.76664050091e-08
7.82584113526e-07
1.65948254615e-07
6.38012566869e-07
1.51778683749e-06
1.25301234669e-07
3.50986659226e-06
1.95760824484e-07
1.75309753944e-06
5.75037298804e-07
5.29712135755e-07
1.88378223463e-07
4.34014230453e-07
2.07248706928e-07
1.43566788904e-06
5.40672970655e-07
8.50218473435e-07
2.89333555662e-06
1.81374896883e-06
1.6941751644e-06
1.80293470368e-06
2.70704745592e-08
1.58327785415e-07
2.48798010018e-06
1.20286877707e-06
1.62590601541e-06
6.27645478494e-07
1.38403223057e-06
8.18830663625e-08
1.15415711312e-07
1.56083021875e-06
2.13642564974e-07
1.24194261299e-06
4.16968614658e-07
9.96813137575e-07
7.97635933801e-07
8.2039088948e-07
6.84844816494e-08
9.96381973641e-07
4.20792465037e-07
4.42347552047e-07
4.64289244959e-07
1.4520592229e-06
2.83846423019e-06
1.48300964514e-07
3.19246527573e-07
2.34528966329e-07
8.52922013075e-07
2.74366750016e-07
2.68917826566e-07
2.68083065455e-07
4.2507924322e-07
1.25934999518e-07
2.15518560324e-07
2.68159734053e-07
2.22064710497e-07
6.17936411935e-07
7.47499812981e-07
1.4525698685e-07
7.99445369929e-08
6.42028042417e-08

