# vtk DataFile Version 3.0
File Name: Molecule/methanol/methanol_0.5-1.vtk
ASCII
DATASET UNSTRUCTURED_GRID
FIELD FieldData 1
TIME 1 1 double
0.0
POINTS 29 double
1.3974632025 0.010411361232 -0.94301843643
1.6077953577 0.022268988192 -0.33048570156
1.2056314945 -0.74270880222 -0.92834794521
0.62082892656 -1.3096690178 -0.99724298716
0.83484166861 -1.4137085676 -0.23603133857
-0.9213411808 -1.2832871675 -0.72616761923
-0.94637989998 -1.4328142405 -0.048158288002
-1.73478055 -0.012390964665 0.026844413951
-1.6444391012 0.0054981713183 -0.7777826786
-0.92768061161 1.2795801163 -0.7474167347
-0.95308166742 1.4252419472 -0.055998723954
0.66064548492 1.2824895382 -0.91009700298
0.82328593731 1.4380886555 -0.23920112848
1.905130744 -0.0089868521318 0.67413401604
1.3816515207 1.3026337624 0.68458914757
1.3780720234 0.43818932772 1.8905427456
1.3706821203 -1.0243219137 1.4826723337
0.11378362775 1.3433841467 1.9759863615
-0.055441822857 0.033905416727 2.5356180668
-0.05473697558 -1.296226263 2.0233762264
0.094928205013 -1.8820437193 0.76117497683
-0.060448814183 1.8815811872 0.68432939053
-1.3419675827 0.45484223962 1.84615767
-1.3414388895 -1.0197372437 1.4714642763
0.6080685854 0.42560175061 -2.009680748
-0.85840648413 -1.0092762709 -1.6063449383
-0.87845402956 0.46358028054 -1.9728643894
1.126385808 0.28217726946 -1.5875346661
0.89999860525 -0.61780405045 -1.7024205923

CELLS 54 216
3 0 1 2
3 3 4 5
3 6 5 4
3 6 7 5
3 5 7 8
3 8 7 9
3 10 9 7
3 11 9 12
3 10 12 9
3 12 1 11
3 11 1 0
3 13 14 15
3 13 15 16
3 15 14 17
3 15 17 18
3 16 15 18
3 16 18 19
3 16 19 20
3 14 21 17
3 18 17 22
3 18 22 23
3 19 18 23
3 20 19 23
3 20 23 6
3 20 6 4
3 20 4 16
3 16 4 13
3 13 4 1
3 13 1 14
3 14 1 12
3 14 12 21
3 21 12 10
3 21 10 22
3 21 22 17
3 22 10 7
3 22 7 23
3 23 7 6
3 24 25 26
3 24 26 11
3 25 3 5
3 25 5 8
3 25 8 26
3 26 8 9
3 26 9 11
3 3 2 4
3 4 2 1
3 0 27 11
3 11 27 24
3 24 27 28
3 2 28 0
3 27 0 28
3 28 2 3
3 24 28 25
3 28 3 25

CELL_TYPES 54
5
5
5
5
5
5
5
5
5
5
5
5
5
5
5
5
5
5
5
5
5
5
5
5
5
5
5
5
5
5
5
5
5
5
5
5
5
5
5
5
5
5
5
5
5
5
5
5
5
5
5
5
5
5

CELL_DATA 54
SCALARS cell_data_0 double
LOOKUP_TABLE default
5.89095738186e-06
2.17917759726e-06
1.62566666062e-06
6.07115739754e-08
4.25693926449e-07
9.14126438119e-07
5.93556968339e-08
2.87263666347e-06
2.23208091499e-06
3.57958060547e-06
8.73219372975e-07
6.53399810474e-08
7.84699198116e-08
9.93130299014e-09
2.10884023296e-08
1.53891011385e-08
2.02734755115e-08
1.27023594899e-07
1.95590151847e-08
8.090930331e-08
3.33666105781e-08
7.27779083569e-08
7.37558451475e-08
6.43704048597e-07
5.01708800798e-07
5.41555696114e-07
3.17569112916e-07
1.74692237464e-07
3.03389175187e-08
6.89408967691e-09
9.69731695193e-08
1.67089042138e-08
1.34298523907e-06
1.77247365194e-07
3.33160190776e-06
3.41398071852e-07
2.08902358485e-06
1.20629072096e-05
1.0825962166e-05
9.84251943463e-07
5.29800824033e-07
1.25027820536e-06
1.02082143665e-06
1.42492455367e-06
6.12008854941e-09
8.69153993017e-07
2.43453600733e-05
1.5105654628e-06
4.71495720123e-06
2.34522278705e-06
4.40959583858e-06
5.93647078443e-08
3.47836475556e-05
1.49412127468e-05

