# vtk DataFile Version 3.0
File Name: Molecule/methanol/methanol_5.0-5.vtk
ASCII
DATASET UNSTRUCTURED_GRID
FIELD FieldData 1
TIME 1 1 double
0.0
POINTS 275 double
1.3248836994 -0.52192741632 -0.88231253624
1.4547142982 -0.48543030024 -0.49942657351
1.1860160828 -0.87155359983 -0.70197635889
1.3568015099 -0.88946288824 -0.30679491162
1.0817700624 -1.1945121288 -0.38019871712
0.93874663115 -1.1400732994 -0.81444883347
0.66239851713 -1.4880174398 -0.35318446159
0.55425310135 -1.3597769737 -0.88360464573
0.11937961727 -1.5313808918 -0.76408058405
0.20720756054 -1.6818628311 -0.13378915191
-0.31908771396 -1.6596661806 -0.19086481631
-0.35179668665 -1.5351984501 -0.7014901638
-0.80043673515 -1.5004621744 -0.17410425842
-0.81705987453 -1.3838675022 -0.65531164408
-1.193847537 -1.2308758497 -0.14768634737
-1.1544555426 -1.1123616695 -0.73403674364
-1.4154697657 -0.87411773205 -0.53229832649
-1.4494019747 -0.94900727272 -0.054162971675
-1.6434626579 -0.49531883001 -0.16248628497
-1.5653656721 -0.46292686462 -0.68686747551
-1.6617041826 -0.0022791060619 -0.59326583147
-1.732403636 -0.0022869776003 -0.077418722212
-1.6430324316 0.4905154109 -0.16706109047
-1.5648568869 0.45649185777 -0.69469875097
-1.417737484 0.86604005098 -0.54892486334
-1.4488866329 0.93571448326 -0.091957949102
-1.1899604797 1.2082891464 -0.22593706846
-1.1552270651 1.1033895016 -0.74642515182
-0.79862207174 1.3931447268 -0.67055493593
-0.81191217899 1.4975214005 -0.15870527923
-0.33136993647 1.6387597322 -0.26937794685
-0.35423606634 1.505972743 -0.792755723
0.11956609786 1.5442327261 -0.71994334459
0.18866433203 1.6677242517 -0.201624915
0.66312688589 1.5081790686 -0.29298347235
0.57349699736 1.3896794319 -0.7894525528
1.0600613356 1.2453199625 -0.31304752827
0.94339954853 1.1409380436 -0.80317938328
1.1852744818 0.86972033978 -0.77547812462
1.3367081881 0.92511987686 -0.32180273533
1.4405796528 0.53728652 -0.48645734787
1.9070014954 5.8263605752e-05 0.65564638376
1.8417018652 0.49121549726 0.65541601181
1.8416095972 0.24579931796 1.0802912712
1.8416353464 -0.24495388567 1.0806921721
1.8415908813 -0.49079439044 0.65652000904
1.8423806429 -0.24541412294 0.23191656172
1.8421293497 0.24480441213 0.22942666709
1.6772443056 0.77670782804 1.1105482578
1.6558015347 0.46340665221 1.4716427326
1.6779209375 -0.012252112851 1.5554503202
1.6599421501 -0.45851486921 1.4686812162
1.6722718477 -0.78635239601 1.1145328283
1.6595816612 -0.93355369568 0.65747225285
1.6711796522 -0.79272967577 0.20528431237
1.6651730537 -0.47455143929 -0.13409250975
1.6615962982 0.46422922611 -0.15487413108
1.6735268831 0.78090274334 0.19342073798
1.6565204859 0.93800568581 0.65448230505
1.4146487713 1.1782881021 1.1241700649
1.4149116278 0.93067425489 1.5158337355
1.3914289474 0.6024415493 1.8038408756
1.4083892107 0.12547455728 1.9257488251
1.4181474447 -0.36721917987 1.8671431541
1.405603528 -0.78906142712 1.6621887684
1.3915704489 -1.0994282961 1.3399137259
1.4154821634 -1.2408418655 0.91453433037
1.4095318317 -1.2552030087 0.4292858243
1.3856189251 -1.1158504486 -0.005606577266
1.4065369368 1.1797585487 0.15917535126
1.392988801 1.2946972847 0.65185123682
1.1195642948 1.4562870264 1.1306786537
1.1227879524 1.2474706173 1.5427722931
1.1247872114 0.96826475859 1.837397337
1.1134589911 0.57578700781 2.0793528557
1.0991655588 0.13812801242 2.1926980019
1.119838357 -0.32546278834 2.1520278454
1.1170727015 -0.79316848516 1.9677317142
1.1192589998 -1.1582134962 1.6565542221
1.1139725447 -1.3848745823 1.3142043352
1.1126430035 -1.5217694044 0.8697283864
1.0948723555 -1.5287209749 0.41122737527
1.1053755283 -1.3865995407 0.0014971531928
1.1149940491 1.4553458691 0.16413345933
1.0932906866 1.5443689823 0.65304082632
0.72211974859 1.684276104 1.1363458633
0.72323930264 1.4883903265 1.5778770447
0.71712976694 1.2024246454 1.9305782318
0.75809508562 0.8870523572 2.1468033791
0.71546369791 0.47062581778 2.3451929092
0.72312635183 -0.020804708824 2.4065122604
0.71622043848 -0.4924031198 2.3387682438
0.68392854929 -0.89905554056 2.175573349
0.72374165058 -1.2030365467 1.9282118082
0.71948319674 -1.494312048 1.5719865561
0.72189897299 -1.6854621172 1.1346728802
0.72000294924 -1.7521533966 0.65348404646
0.70807403326 -1.6860183477 0.1504997015
0.71752423048 1.6864572763 0.17690992355
0.6820743084 1.7632782459 0.65675288439
0.28547680378 1.8109310865 1.1077210903
0.26463243365 1.6404522657 1.548469305
0.26530140638 1.3572814465 1.9402761459
0.27253675461 0.97013306618 2.2530195713
0.24281561375 0.54117262363 2.4472439289
0.26279914379 0.094620168209 2.5213973522
0.25404784083 -0.3077827096 2.5026612282
0.29509848356 -0.74310737848 2.3691749573
0.26674309373 -1.1368329525 2.1406989098
0.26990368962 -1.475256443 1.8022803068
0.27128908038 -1.7209513187 1.3858374357
0.27189981937 -1.8512229919 0.91788339615
0.2682069242 -1.8558357954 0.41828903556
0.27922517061 1.8121304512 0.22108471394
0.22348421812 1.8731760979 0.65991514921
-0.20816066861 1.8127959967 1.1255813837
-0.2242577374 1.6268492937 1.5799885988
-0.22522416711 1.333953023 1.9673318863
-0.23287849128 0.94547730684 2.2679555416
-0.20263060927 0.49985823035 2.461812973
-0.21642638743 0.074044257402 2.5253505707
-0.25153511763 -0.30641701818 2.4972572327
-0.21190658212 -0.74921917915 2.3723404408
-0.22683244944 -1.1689835787 2.1169464588
-0.23001261055 -1.5006568432 1.7712980509
-0.23107716441 -1.7371147871 1.3494825363
-0.23312981427 -1.8572083712 0.87248885632
-0.24136151373 -1.8463281393 0.3394202888
-0.21029135585 1.8128074408 0.1913446635
-0.22287482023 1.8717851639 0.65725922585
-0.655600667 1.7587559223 0.65772646666
-0.68236076832 1.6846600771 1.1373046637
-0.68774485588 1.4866163731 1.5787093639
-0.67824482918 1.2015074492 1.9335439205
-0.72393083572 0.88145446777 2.1465265751
-0.67814195156 0.47025904059 2.3446092606
-0.68673789501 -0.023809950799 2.4058074951
-0.67994767427 -0.49231854081 2.3375146389
-0.64842140675 -0.90217423439 2.1704964638
-0.69054543972 -1.2031378746 1.9235290289
-0.68362462521 -1.4945329428 1.5691404343
-0.68630945683 -1.6848523617 1.132756114
-0.686845541 -1.750197649 0.6522206068
-0.66477793455 -1.6951622963 0.19717815518
-0.68484789133 1.6867485046 0.19248537719
-1.0529245138 1.5463019609 0.65720486641
-1.0780757666 1.4591937065 1.1293122768
-1.0820416212 1.2501273155 1.5429729223
-1.0850744247 0.96733224392 1.8392921686
-1.0745838881 0.57450991869 2.0801837444
-1.057238698 0.13847835362 2.1951932907
-1.0768684149 -0.32414537668 2.1558670998
-1.0741063356 -0.79440951347 1.9709755182
-1.0805732012 -1.158778429 1.656976223
-1.0749433041 -1.3850821257 1.3141680956
-1.0723417997 -1.5235452652 0.86471664906
-1.0620925426 -1.5199055672 0.35421517491
-1.0882117748 1.4554857016 0.20096538961
-1.3498976231 1.2995086908 0.66102677584
-1.3735947609 1.1817140579 1.1253032684
-1.3743321896 0.93322044611 1.5176538229
-1.351167798 0.6011967063 1.807195425
-1.3653479815 0.1255005151 1.9315320253
-1.3772298098 -0.3665971756 1.8709433079
-1.3658509254 -0.78888392448 1.6649799347
-1.3504321575 -1.1025084257 1.3415799141
-1.374764204 -1.2428168058 0.91533327103
-1.3783175945 -1.2451142073 0.40850108862
-1.3782018423 1.1829746962 0.22111749649
-1.6178376675 0.93895727396 0.66099131107
-1.6409835815 0.7737518549 1.1091034412
-1.6185046434 0.46242120862 1.4708729982
-1.6411532164 -0.012663285248 1.5531924963
-1.6235688925 -0.45805540681 1.4656158686
-1.6347550154 -0.78538000584 1.1142880917
-1.6232279539 -0.93037289381 0.66236644983
-1.6471625566 -0.76981973648 0.26299086213
-1.6461013556 0.76652479172 0.23845948279
-1.8033751249 0.49170076847 0.6606657505
-1.8032311201 0.24538959563 1.0817210674
-1.8033901453 -0.24510444701 1.0813424587
-1.8035787344 -0.49049630761 0.66234958172
-1.806537509 -0.25354188681 0.25833654404
-1.8066455126 0.25255656242 0.25646728277
-1.8677718639 0.00012461279402 0.66117745638
1.6888124943 -0.017518170178 -0.1923969239
1.5346266031 0.2082580179 -0.45320522785
1.1066637039 -0.81414842606 -1.1554410458
0.78219044209 -1.1515979767 -1.2054201365
0.75297445059 -0.95813935995 -1.5494508743
0.82982164621 0.82882016897 -1.6097042561
0.76650178432 1.146795392 -1.2328462601
0.99901026487 0.74063301086 -1.4468502998
0.36280310154 -1.2955629826 -1.4078098536
0.34761729836 -0.98537909985 -1.8175579309
0.35816317797 -0.57830429077 -2.0758008957
0.72883921862 -0.74730235338 -1.7680665255
0.78616964817 -0.46844485402 -1.8847749233
0.7244258523 -0.19971306622 -1.9953167439
0.69289624691 0.040420297533 -2.0243608952
0.33666554093 -0.11358526349 -2.1984932423
0.35432744026 0.35643532872 -2.1526012421
0.72595316172 0.52547717094 -1.903057456
0.36259704828 0.78837364912 -1.9613751173
0.36287355423 1.1445777416 -1.6376117468
0.33997827768 1.3827379942 -1.2163294554
-0.13395792246 -1.4304542542 -1.3014166355
-0.12067109346 -1.1559816599 -1.7453958988
-0.1181281209 -0.78026098013 -2.0591859818
-0.12033862621 -0.3293749094 -2.2364087105
-0.12046042085 0.15221896768 -2.2645251751
-0.11906387657 0.59792369604 -2.149163723
-0.11891824752 0.93273997307 -1.9509706497
-0.11847296357 1.2616970539 -1.607447505
-0.11811371148 1.477361083 -1.1700289249
-0.59722155333 -1.4134129286 -1.0411334038
-0.59537637234 -1.2693421841 -1.4534022808
-0.59082937241 -0.9749404192 -1.823699832
-0.56868898869 -0.5785343051 -2.0847408772
-0.59097647667 -0.12563951313 -2.1920473576
-0.59558242559 0.35291096568 -2.1525013447
-0.60066848993 0.79201841354 -1.9597821236
-0.5996838212 1.1471079588 -1.6364086866
-0.58022320271 1.3883838654 -1.20464921
-1.0130283833 -1.1699609756 -1.1804093122
-1.0303074121 -0.88800406456 -1.5949838161
-1.0204786062 -0.47530692816 -1.8857972622
-1.0072659254 0.008501701057 -1.9890178442
-1.021496892 0.47013548017 -1.8867852688
-1.0292202234 0.86924767494 -1.6157385111
-1.0140686035 1.1550127268 -1.2077885866
-1.3743165731 -0.81070584059 -1.1038099527
-1.3532156944 -0.50372684002 -1.4986034632
-1.3649866581 -0.037758354098 -1.6348997355
-1.3545999527 0.44649007916 -1.5322717428
-1.3774219751 0.78489476442 -1.1531344652
-1.5806820393 -0.24959512055 -1.1411483288
-1.5798865557 0.24287854135 -1.1459863186
1.0977486372 0.82296293974 -1.1814931631
0.98736840487 -0.18111939728 -1.7837456465
1.137924552 -0.10176204145 -1.6012783051
0.99436032772 -0.45754227042 -1.6871080399
0.88788235188 0.012912750244 -1.8937039375
1.0166507959 0.14881147444 -1.7580703497
0.79985314608 0.27767717838 -1.9345947504
1.0200183392 0.51311081648 -1.6243386269
1.3301357031 0.52490150928 -0.79505383968
1.223326087 0.69439727068 -1.0228456259
1.3233699799 0.44113773108 -0.9741601944
1.3625143766 0.30210876465 -0.96261823177
1.4144362211 0.34056040645 -0.7064421773
1.1044522524 0.61453735828 -1.4109625816
0.83283615112 0.66446107626 -1.7309991121
0.91228485107 0.7231182456 -1.5806592703
1.4913272858 -0.049645014107 -0.57738101482
0.94182050228 -0.72288429737 -1.5733299255
1.1442967653 -0.49669358134 -1.4517724514
1.4319088459 0.15026751161 -0.75615566969
1.409696579 -0.28236961365 -0.76139873266
1.2814555168 -0.26163998246 -1.2972861528
1.2782944441 -0.46581730247 -1.1678037643
1.371593833 -0.22774100304 -1.01176548
1.3573868275 -0.020890567452 -1.1221452951
1.407941103 -0.036307521164 -0.85179960728
1.3773100376 0.15762199461 -1.0281654596
1.2852369547 0.5328078866 -0.9892411232
1.2458282709 0.504162848 -1.2019196749
1.1094717979 0.70524245501 -1.3102191687
1.1617170572 0.41559478641 -1.462118268
1.2797164917 0.1583686173 -1.3462665081
1.1267652512 0.27556943893 -1.5888417959
1.2770473957 -0.024679407477 -1.3725452423
1.180639267 0.095130681992 -1.5296924114
1.116885066 0.12413627654 -1.6380776167
1.3034980297 0.31468015909 -1.2205129862

CELLS 546 2184
3 0 1 2
3 3 2 1
3 3 4 2
3 2 4 5
3 4 6 5
3 5 6 7
3 7 6 8
3 9 8 6
3 9 10 8
3 8 10 11
3 10 12 11
3 11 12 13
3 12 14 13
3 13 14 15
3 15 14 16
3 17 16 14
3 17 18 16
3 16 18 19
3 19 18 20
3 21 20 18
3 21 22 20
3 20 22 23
3 23 22 24
3 25 24 22
3 25 26 24
3 24 26 27
3 27 26 28
3 29 28 26
3 29 30 28
3 28 30 31
3 31 30 32
3 33 32 30
3 33 34 32
3 32 34 35
3 34 36 35
3 35 36 37
3 37 36 38
3 39 38 36
3 39 40 38
3 41 42 43
3 41 43 44
3 41 44 45
3 41 45 46
3 41 46 47
3 41 47 42
3 43 42 48
3 43 48 49
3 43 49 50
3 44 43 50
3 44 50 51
3 44 51 52
3 45 44 52
3 45 52 53
3 45 53 54
3 46 45 54
3 46 54 55
3 47 56 57
3 42 47 57
3 42 57 58
3 42 58 48
3 48 58 59
3 48 59 60
3 49 48 60
3 49 60 61
3 49 61 62
3 50 49 62
3 50 62 63
3 51 50 63
3 51 63 64
3 52 51 64
3 52 64 65
3 52 65 66
3 53 52 66
3 53 66 67
3 54 53 67
3 54 67 68
3 58 57 69
3 58 69 70
3 58 70 59
3 59 70 71
3 59 71 72
3 60 59 72
3 60 72 73
3 61 60 73
3 61 73 74
3 62 61 74
3 62 74 75
3 62 75 76
3 63 62 76
3 63 76 77
3 64 63 77
3 64 77 78
3 65 64 78
3 65 78 79
3 66 65 79
3 66 79 80
3 66 80 67
3 81 67 80
3 67 81 82
3 68 67 82
3 70 69 83
3 70 83 84
3 70 84 71
3 71 84 85
3 71 85 86
3 72 71 86
3 72 86 87
3 73 72 87
3 73 87 88
3 74 73 88
3 74 88 89
3 75 74 89
3 75 89 90
3 76 75 90
3 76 90 91
3 77 76 91
3 77 91 92
3 77 92 93
3 78 77 93
3 78 93 94
3 79 78 94
3 79 94 95
3 80 79 95
3 80 95 96
3 81 80 96
3 81 96 97
3 82 81 97
3 84 83 98
3 84 98 99
3 84 99 85
3 85 99 100
3 85 100 101
3 86 85 101
3 86 101 102
3 87 86 102
3 87 102 103
3 88 87 103
3 88 103 89
3 104 89 103
3 89 104 105
3 90 89 105
3 90 105 106
3 91 90 106
3 91 106 107
3 92 91 107
3 92 107 108
3 93 92 108
3 93 108 109
3 94 93 109
3 94 109 110
3 95 94 110
3 95 110 111
3 96 95 111
3 96 111 112
3 97 96 112
3 99 98 113
3 99 113 114
3 99 114 100
3 100 114 115
3 100 115 101
3 116 101 115
3 101 116 102
3 117 102 116
3 102 117 103
3 118 103 117
3 103 118 104
3 119 104 118
3 104 119 105
3 120 105 119
3 105 120 106
3 121 106 120
3 107 106 122
3 121 122 106
3 107 122 108
3 123 108 122
3 108 123 109
3 124 109 123
3 109 124 110
3 125 110 124
3 110 125 111
3 126 111 125
3 127 112 126
3 111 126 112
3 114 113 128
3 114 128 129
3 114 129 115
3 115 129 130
3 115 130 131
3 116 115 131
3 116 131 132
3 117 116 132
3 117 132 133
3 118 117 133
3 118 133 134
3 119 118 135
3 134 135 118
3 120 119 135
3 120 135 136
3 121 120 136
3 121 136 137
3 122 121 137
3 122 137 138
3 123 122 138
3 123 138 139
3 124 123 139
3 124 139 140
3 125 124 140
3 125 140 141
3 126 125 141
3 126 141 142
3 127 126 142
3 127 142 143
3 130 128 144
3 129 128 130
3 131 130 145
3 131 145 146
3 132 131 146
3 132 146 147
3 133 132 147
3 133 147 148
3 134 133 148
3 134 148 149
3 135 134 149
3 135 149 150
3 136 135 150
3 136 150 151
3 137 136 151
3 137 151 152
3 138 137 152
3 139 138 152
3 139 152 153
3 140 139 153
3 140 153 154
3 141 140 154
3 141 154 155
3 142 141 155
3 142 155 156
3 143 142 156
3 145 144 157
3 130 144 145
3 146 145 158
3 146 158 159
3 147 146 159
3 147 159 160
3 148 147 160
3 148 160 161
3 149 148 161
3 149 161 162
3 150 149 162
3 151 150 162
3 151 162 163
3 152 151 163
3 152 163 164
3 153 152 164
3 153 164 165
3 154 153 165
3 154 165 166
3 155 154 166
3 156 155 167
3 166 167 155
3 158 157 168
3 145 157 158
3 159 158 169
3 159 169 170
3 160 159 170
3 160 170 171
3 161 160 171
3 162 161 171
3 162 171 172
3 163 162 172
3 163 172 173
3 164 163 173
3 164 173 174
3 165 164 174
3 166 165 174
3 166 174 175
3 167 166 175
3 167 175 176
3 169 168 177
3 158 168 169
3 170 169 178
3 170 178 179
3 171 170 179
3 172 171 179
3 172 179 180
3 173 172 180
3 174 173 180
3 174 180 181
3 175 174 181
3 176 175 181
3 176 181 182
3 178 177 183
3 169 177 178
3 179 178 184
3 180 179 184
3 181 180 184
3 182 181 184
3 183 182 184
3 178 183 184
3 183 177 22
3 183 22 21
3 183 21 182
3 182 21 18
3 182 18 176
3 176 18 17
3 176 17 167
3 167 17 14
3 167 14 156
3 156 14 12
3 156 12 143
3 143 12 10
3 143 10 127
3 127 10 9
3 127 9 112
3 112 9 97
3 97 9 6
3 97 6 82
3 82 6 4
3 82 4 68
3 68 4 3
3 68 3 54
3 55 54 3
3 55 3 1
3 55 1 185
3 55 185 46
3 46 185 47
3 47 185 56
3 40 56 186
3 56 40 39
3 56 39 57
3 57 39 69
3 69 39 36
3 69 36 83
3 83 36 34
3 83 34 98
3 113 98 33
3 34 33 98
3 113 33 128
3 128 33 30
3 128 30 144
3 144 30 29
3 144 29 157
3 157 29 26
3 157 26 168
3 168 26 25
3 168 25 177
3 177 25 22
3 187 188 189
3 190 191 192
3 189 188 193
3 189 193 194
3 194 195 196
3 197 195 198
3 199 200 201
3 202 201 203
3 190 203 204
3 191 190 204
3 191 204 205
3 193 206 207
3 194 193 207
3 194 207 208
3 195 194 208
3 195 208 209
3 200 195 209
3 200 209 210
3 201 200 210
3 201 210 211
3 203 201 211
3 203 211 212
3 204 203 212
3 204 212 213
3 205 204 213
3 205 213 214
3 206 215 216
3 207 206 216
3 207 216 217
3 208 207 217
3 208 217 218
3 209 208 218
3 209 218 219
3 210 209 219
3 210 219 220
3 211 210 220
3 211 220 221
3 212 211 221
3 212 221 222
3 213 212 222
3 213 222 223
3 214 213 223
3 216 215 224
3 216 224 225
3 217 216 225
3 217 225 226
3 218 217 226
3 219 218 226
3 219 226 227
3 220 219 227
3 220 227 228
3 221 220 228
3 221 228 229
3 222 221 229
3 222 229 230
3 223 222 230
3 225 224 231
3 225 231 232
3 226 225 232
3 226 232 233
3 227 226 233
3 228 227 233
3 228 233 234
3 229 228 234
3 229 234 235
3 230 229 235
3 232 231 236
3 233 232 236
3 233 236 237
3 234 233 237
3 235 234 237
3 235 237 23
3 235 23 24
3 235 24 27
3 235 27 230
3 230 27 28
3 230 28 223
3 223 28 31
3 223 31 214
3 214 31 32
3 214 32 205
3 205 32 35
3 205 35 191
3 191 35 37
3 191 37 238
3 38 238 37
3 187 0 2
3 187 2 5
3 187 5 188
3 188 5 7
3 188 7 193
3 193 7 8
3 193 8 206
3 206 8 11
3 206 11 215
3 215 11 13
3 215 13 224
3 224 13 15
3 224 15 231
3 231 15 16
3 231 16 19
3 231 19 236
3 236 19 20
3 236 20 237
3 237 20 23
3 239 240 241
3 239 198 242
3 239 197 198
3 242 198 199
3 242 243 239
3 242 244 243
3 242 199 244
3 243 244 245
3 199 198 200
3 200 198 195
3 202 244 201
3 244 199 201
3 40 246 38
3 38 246 247
3 248 246 249
3 246 40 250
3 251 245 192
3 245 202 252
3 252 253 245
3 190 252 203
3 252 202 203
3 202 245 244
3 1 254 185
3 189 255 187
3 187 255 256
3 256 255 241
3 255 196 241
3 255 189 196
3 241 196 197
3 197 196 195
3 196 189 194
3 256 241 240
3 239 241 197
3 257 186 254
3 257 250 186
3 254 186 185
3 185 186 56
3 186 250 40
3 250 257 249
3 0 258 1
3 1 258 254
3 240 259 256
3 256 259 260
3 259 261 260
3 259 262 261
3 260 261 0
3 256 260 187
3 260 0 187
3 262 263 261
3 263 258 261
3 263 254 258
3 261 258 0
3 254 263 257
3 257 263 264
3 265 247 246
3 38 247 238
3 266 267 247
3 238 247 267
3 247 265 266
3 251 266 268
3 268 269 270
3 269 271 272
3 269 262 271
3 272 271 240
3 239 243 240
3 273 240 243
3 240 273 272
3 273 270 272
3 273 243 270
3 272 270 269
3 250 249 246
3 246 248 265
3 190 253 252
3 268 245 251
3 190 192 253
3 192 267 251
3 267 192 238
3 251 267 266
3 238 192 191
3 245 253 192
3 265 248 266
3 249 274 248
3 266 248 274
3 266 274 268
3 268 274 269
3 274 264 269
3 274 249 264
3 269 264 262
3 268 270 245
3 245 270 243
3 262 264 263
3 257 264 249
3 240 271 259
3 259 271 262

CELL_TYPES 546
5
5
5
5
5
5
5
5
5
5
5
5
5
5
5
5
5
5
5
5
5
5
5
5
5
5
5
5
5
5
5
5
5
5
5
5
5
5
5
5
5
5
5
5
5
5
5
5
5
5
5
5
5
5
5
5
5
5
5
5
5
5
5
5
5
5
5
5
5
5
5
5
5
5
5
5
5
5
5
5
5
5
5
5
5
5
5
5
5
5
5
5
5
5
5
5
5
5
5
5
5
5
5
5
5
5
5
5
5
5
5
5
5
5
5
5
5
5
5
5
5
5
5
5
5
5
5
5
5
5
5
5
5
5
5
5
5
5
5
5
5
5
5
5
5
5
5
5
5
5
5
5
5
5
5
5
5
5
5
5
5
5
5
5
5
5
5
5
5
5
5
5
5
5
5
5
5
5
5
5
5
5
5
5
5
5
5
5
5
5
5
5
5
5
5
5
5
5
5
5
5
5
5
5
5
5
5
5
5
5
5
5
5
5
5
5
5
5
5
5
5
5
5
5
5
5
5
5
5
5
5
5
5
5
5
5
5
5
5
5
5
5
5
5
5
5
5
5
5
5
5
5
5
5
5
5
5
5
5
5
5
5
5
5
5
5
5
5
5
5
5
5
5
5
5
5
5
5
5
5
5
5
5
5
5
5
5
5
5
5
5
5
5
5
5
5
5
5
5
5
5
5
5
5
5
5
5
5
5
5
5
5
5
5
5
5
5
5
5
5
5
5
5
5
5
5
5
5
5
5
5
5
5
5
5
5
5
5
5
5
5
5
5
5
5
5
5
5
5
5
5
5
5
5
5
5
5
5
5
5
5
5
5
5
5
5
5
5
5
5
5
5
5
5
5
5
5
5
5
5
5
5
5
5
5
5
5
5
5
5
5
5
5
5
5
5
5
5
5
5
5
5
5
5
5
5
5
5
5
5
5
5
5
5
5
5
5
5
5
5
5
5
5
5
5
5
5
5
5
5
5
5
5
5
5
5
5
5
5
5
5
5
5
5
5
5
5
5
5
5
5
5
5
5
5
5
5
5
5
5
5
5
5
5
5
5
5
5
5
5
5
5
5
5
5
5
5
5
5
5
5
5
5
5
5
5
5
5
5
5
5
5
5
5
5
5
5
5
5
5
5
5
5
5
5
5
5
5
5
5
5
5
5
5
5
5
5
5
5
5
5
5
5
5
5
5
5
5
5
5
5
5
5
5
5
5
5
5
5
5
5
5
5
5
5
5

CELL_DATA 546
SCALARS cell_data_0 double
LOOKUP_TABLE default
2.17837120003e-07
2.76786572234e-08
1.66660208479e-08
4.2338411057e-08
7.07799983719e-09
2.26262472211e-08
8.43558117974e-08
8.23508630707e-08
4.22680899562e-08
6.16999642718e-08
1.33849095546e-08
6.07846983109e-08
7.60429409378e-09
9.09289789246e-08
4.93215409964e-09
2.01888431583e-08
5.80400414508e-10
6.32289966126e-08
2.83473546294e-08
2.29509741157e-08
2.20020524597e-08
7.32938617359e-08
2.2336875741e-08
6.43825791029e-09
7.73704614947e-09
5.06312513778e-08
5.3032367478e-09
9.315782881e-09
5.55455045151e-08
2.99338301262e-08
3.45452835245e-08
3.42289780457e-08
8.02579412732e-08
4.02641633222e-08
5.3366355853e-08
5.57689507782e-08
2.22357003106e-08
3.00260804204e-08
3.5058439193e-08
1.94950526841e-10
1.18799595789e-10
2.32169555907e-10
1.85495246803e-10
2.60335773111e-10
1.2685608085e-10
6.13029199046e-10
5.38337173018e-10
1.59706605694e-10
6.15412529309e-10
1.80312242499e-10
4.89519473828e-10
9.24501046212e-10
1.70236768165e-10
8.62940903172e-10
4.33491661452e-11
5.95930208549e-10
6.70092410245e-10
8.94706118749e-10
5.94217786262e-10
6.88883176643e-11
1.12701022451e-10
1.16434817691e-10
2.57476866299e-10
1.87980315683e-10
4.28183171435e-10
2.07017169e-10
6.37762721164e-11
1.54321606201e-10
1.66974986026e-10
5.03550716406e-10
6.44099180636e-10
2.96181144737e-10
6.72929198627e-10
2.62580616333e-10
1.08283759128e-09
1.33007318035e-09
4.66672927663e-10
6.19131382254e-10
6.01489773183e-10
2.03798998445e-10
4.34950637351e-10
1.45415555791e-10
2.95682024765e-10
2.30797814426e-10
5.0669104837e-10
3.19074584048e-11
1.91577817033e-10
1.93917540848e-10
1.37251480894e-11
4.00635725833e-10
1.19496726953e-10
2.55132659871e-10
1.65541413536e-10
2.81119862718e-10
2.18268258601e-10
1.00031983406e-10
2.43076622426e-10
9.69260195689e-10
1.25819990609e-09
1.77132532725e-09
8.91826803041e-10
4.41735874738e-10
5.85365442716e-10
4.3722377072e-11
2.02668305636e-12
2.89265281257e-10
1.21172464653e-10
2.99590865682e-10
3.63155982163e-10
4.18938746358e-10
5.56295038518e-10
1.38289023491e-10
3.64306990216e-10
1.45241081134e-10
4.16079323034e-10
4.09390495283e-10
6.20077573245e-10
2.82128412317e-10
5.5408799465e-10
4.6592550789e-12
3.09431073216e-10
1.52285114118e-10
3.40465424728e-10
3.73297641391e-10
1.48818254098e-09
9.59333652383e-10
1.98973697751e-09
1.68469475118e-09
9.48977161379e-10
1.33251842348e-09
4.07003080586e-10
3.92279631003e-10
8.93579511034e-11
1.40380314646e-10
7.56956623046e-11
2.53260339214e-11
3.36181480241e-11
6.34293937244e-10
5.29576370503e-11
1.89014529289e-10
4.96009612567e-10
6.14901306345e-10
1.5800874671e-10
1.67676014274e-10
4.24934222954e-10
2.64275590722e-10
2.83494308858e-10
1.02475271504e-10
1.03530062524e-10
1.95942716621e-10
1.09785575382e-10
3.40653737243e-10
5.73833406007e-10
1.56616224458e-09
1.17877451123e-09
3.30373605823e-09
6.03061170201e-10
1.44289991561e-09
2.24741087842e-11
1.09686588053e-09
1.02856020913e-09
6.49792138021e-10
4.97087527683e-10
4.29628761378e-10
2.72717226732e-10
2.55093165369e-10
2.44786573102e-10
1.89879856597e-10
2.22409065049e-10
8.85573956867e-11
3.24839996311e-10
1.24171679936e-10
2.09602706168e-10
3.95028102248e-10
2.27161185756e-10
5.86012285161e-11
2.31745263298e-10
2.49780213431e-11
5.19750424128e-10
2.07971760001e-10
9.917989965e-10
2.48388131807e-09
1.19400602712e-09
4.58142047107e-09
2.51156758543e-10
1.96691160514e-09
3.63261698915e-09
4.68823604659e-10
1.38079201736e-09
2.82548958075e-11
5.87394339206e-10
3.68678297166e-11
6.0027564234e-10
4.88162491012e-10
1.68707292304e-11
4.31695446602e-11
3.5774344463e-10
4.19934225195e-10
3.63765426279e-10
1.85763109329e-13
1.93188789505e-10
1.73334580698e-10
2.71716320337e-11
2.98878096887e-10
1.43261340661e-10
6.23253353475e-11
2.14777341379e-10
2.66894446964e-10
2.16118369174e-10
2.57806515871e-09
3.30397714152e-10
3.88734372243e-09
4.4641828511e-09
1.6408601177e-10
4.22193299827e-09
5.84480948397e-10
1.38712092415e-09
6.67283571078e-11
5.21339275799e-10
1.24945677429e-11
3.07464128589e-10
1.58855555583e-10
4.05889293032e-10
2.61551683076e-10
1.54804014748e-10
3.30052245259e-11
6.96259028752e-11
5.97508335982e-12
3.13325874658e-10
6.38181361239e-11
2.64425744886e-10
3.52381624764e-10
2.910732566e-10
1.12539339478e-10
1.20899694662e-09
8.91237987422e-11
3.53204289016e-09
2.7002551099e-10
6.23618053956e-09
2.657285921e-10
3.72682161073e-09
8.83907785295e-10
9.95298444526e-10
2.08724756524e-10
4.93559856007e-10
5.59314772165e-11
1.85630458045e-10
1.82312210569e-10
1.99338303847e-10
3.37321529006e-11
2.59562266697e-10
1.06463762551e-10
3.86931439708e-10
1.2264151181e-10
1.83148854567e-10
3.64163342377e-10
1.75669300726e-10
8.36821361509e-10
4.41797871012e-09
2.70282604024e-09
7.24854125727e-09
9.76813127878e-10
4.86182920814e-09
9.52027980943e-10
1.28282865552e-09
1.48104784945e-10
3.28399072485e-10
2.4303310799e-10
1.33387831443e-09
6.85809449939e-10
6.82743614494e-10
5.04754174793e-10
9.13086177538e-10
1.66670410395e-09
4.19631185236e-10
3.05808833626e-09
3.37805664873e-10
4.90062497754e-09
9.40359856781e-09
1.60777257169e-09
4.86092564441e-09
1.38001859777e-09
1.27586369072e-09
4.49517081448e-10
2.72423045189e-09
1.28489417671e-09
1.16928707175e-09
9.43087475246e-10
2.56818051504e-09
7.2391746307e-09
5.47330941816e-09
1.11689984516e-08
2.40782377474e-09
4.55935261378e-09
2.13355185928e-09
2.16720551882e-09
8.78722807503e-09
4.67913731648e-09
3.14516598991e-09
2.15525309891e-08
4.86300069699e-08
7.57077584331e-09
4.83276573919e-08
2.602781881e-08
3.4583070997e-08
2.72790473131e-08
5.33224599831e-08
2.05738472772e-08
6.57643433782e-08
7.54442448437e-09
2.64151482144e-08
2.80548376477e-08
2.30817633735e-08
2.02938175336e-08
1.34057283498e-08
3.1505194809e-08
2.57665714714e-08
1.38349100113e-09
7.83409099879e-09
6.63385954533e-09
1.19653695313e-09
3.23546553543e-09
1.5855087299e-08
1.31555520706e-08
1.54396495831e-09
5.35264535743e-10
4.43582285857e-10
3.39599107329e-10
1.46894341899e-08
4.38315828919e-09
4.57519817585e-09
7.26781968884e-09
3.04626275648e-09
7.16065662044e-09
3.48041910859e-09
2.09635337388e-08
2.88474502377e-08
7.03452369447e-09
1.88366554228e-08
3.64970730087e-09
3.74783326225e-08
1.8093583799e-09
3.5724592935e-08
8.26793488794e-09
3.20862885503e-08
3.09561796372e-09
3.89281258708e-08
1.89834498759e-07
2.1295740752e-07
2.17743310014e-08
1.28138119144e-07
7.55361152237e-09
1.34217451597e-07
2.46585848387e-07
1.91423521578e-07
2.69792780298e-07
2.62179801854e-07
4.73351320132e-08
2.90903287905e-08
1.30236252242e-08
4.59889148339e-08
6.5335897829e-09
7.70131767679e-08
2.98650533477e-08
8.52955404726e-08
4.93228747204e-08
8.55729421253e-08
7.23390362327e-08
5.21107104536e-08
6.21189579278e-08
3.54207920398e-08
3.63391062078e-08
9.65165559497e-09
1.42610790313e-08
5.91986184074e-10
1.29429952819e-08
9.3408951747e-10
1.94474695936e-08
4.7876067431e-09
2.36189222995e-08
1.40178683795e-08
2.42515742454e-08
1.60184745264e-08
1.69628750959e-08
9.25877739187e-09
1.16430587724e-08
1.25683671188e-08
9.16085915137e-09
4.54630229213e-09
6.64404613552e-09
1.04379985798e-09
6.05289432736e-09
4.01106266294e-10
7.63427727294e-10
4.55512533779e-09
3.9938448206e-09
1.14867469056e-09
6.23663143199e-09
5.468802833e-14
2.63679903603e-09
2.84780066327e-09
8.95869059027e-10
1.08169397414e-09
4.20469111663e-09
6.51101636121e-09
1.50389579926e-08
1.45614677681e-09
6.94244921051e-09
4.83078375363e-09
3.66431979596e-09
1.15814093541e-08
8.69360656644e-09
9.95524108793e-09
1.15386618035e-08
8.05054598025e-09
7.80912881515e-09
6.90924000769e-09
1.69584867794e-08
1.75126266898e-09
2.90303154931e-08
1.49680860426e-08
7.31245535758e-10
3.5393822256e-08
1.12775999136e-08
2.4222830047e-08
2.62809544768e-09
2.54130348947e-08
1.08703265092e-09
2.75931359681e-08
1.14763106563e-08
2.53531124151e-08
1.24423611017e-07
1.7431696055e-07
2.5376916843e-07
1.4186692758e-07
2.73126269684e-07
1.6523619432e-08
6.75049041052e-08
2.86577651982e-08
4.7631771508e-08
2.29776772676e-08
7.60590954937e-09
1.54781709269e-08
5.66492475004e-09
3.09012011592e-08
1.16913401911e-08
1.35113554494e-08
2.55262894076e-08
4.91405810285e-09
2.93207057367e-08
2.09951990409e-08
3.12445702429e-08
2.7327834261e-07
1.40378213331e-08
2.12131873809e-07
4.44164849586e-08
4.80790449153e-08
9.47406585179e-08
1.82845957157e-08
4.2147444182e-08
1.05012018987e-07
1.74131166889e-07
2.09203749705e-07
3.62269774766e-08
7.07623158436e-08
9.12940317136e-08
4.23005432428e-08
4.84580299193e-10
2.197183499e-08
1.07180223924e-07
1.79707012931e-08
1.47491864421e-07
3.91959418704e-08
7.67560498289e-08
5.8835873543e-08
1.23505686342e-07
1.54562451686e-07
8.61350054366e-08
1.60319890413e-07
5.99272260106e-08
1.28134009681e-07
5.47131842301e-08
4.74824167707e-09
4.1582031675e-07
2.7090218453e-08
6.66371996766e-08
2.36835383768e-08
4.27343390064e-08
6.02407523305e-09
3.75635054789e-08
7.21102888903e-09
1.90314650383e-08
3.04137318148e-08
2.42445541994e-07
1.18400514652e-08
7.9575555257e-08
7.68106582633e-08
1.48308663693e-07
1.79466601089e-07
1.24042914191e-07
1.01345872648e-07
1.12321125514e-07
8.96512142323e-08
1.13735473393e-07
6.5506737354e-08
6.18402091985e-08
4.66345479535e-09
3.04275017504e-08
8.13966820805e-08
1.21019432194e-08
4.26084374539e-08
2.26055590666e-08
2.2914432156e-08
4.09827948863e-09
4.33638504641e-08
3.79010029452e-08
6.25410251005e-08
7.21239115924e-08
4.30963300474e-08
6.26522745892e-09
9.8092888139e-09
8.86058518556e-08
5.36135572421e-08
1.74054697103e-08
4.75844220559e-09
7.65741204197e-08
3.15713203479e-09
5.92021963707e-09
1.70821562055e-08
2.47643206077e-08
2.21966710467e-07
1.87074227746e-08
2.07485899666e-09
5.77926438709e-08
6.22473652541e-08
2.13878574308e-08
5.33508210926e-08
4.91863372215e-08
1.78853071729e-09
4.413719566e-08
4.47271118143e-10
5.29247705807e-09
5.04402029087e-08
4.45677453722e-08
1.15049789982e-07
3.36012478966e-08

