# vtk DataFile Version 3.0
File Name: Molecule/methanol/methanol_0.5-4.vtk
ASCII
DATASET UNSTRUCTURED_GRID
FIELD FieldData 1
TIME 1 1 double
0.0
POINTS 38 double
1.4104502201 0.0023693351541 -0.91103345156
1.6071599722 0.011276375502 -0.34381461143
1.2117063999 -0.74866276979 -0.90199762583
0.63798820972 -1.2988721132 -1.0068770647
0.81880056858 -1.4212713242 -0.24923637509
-0.91460579634 -1.277823329 -0.73866784573
-0.94966357946 -1.4327903986 -0.053532522172
-1.7310013771 -0.0042053414509 0.015124885365
-1.6408164501 -0.0014607738703 -0.7797344923
-0.93668144941 1.273614049 -0.74742972851
-0.93526345491 1.4183892012 -0.077890440822
0.8204600811 1.4346238375 -0.25016328692
0.65092432499 1.2941865921 -0.90234142542
1.2109869719 0.74394714832 -0.91124176979
1.9046697617 -0.010140178725 0.67546087503
1.3821233511 1.3020603657 0.68571710587
1.3780936003 0.43822196126 1.8906061649
1.3703285456 -1.0247765779 1.4831103086
0.11372081935 1.3431210518 1.975966692
-0.055317156017 0.033936068416 2.5355653763
-0.054757773876 -1.2962223291 2.0233643055
0.094314016402 -1.8820763826 0.76162707806
-0.060246422887 1.8823779821 0.68356180191
-1.3431228399 0.45237529278 1.8476455212
-1.3415043354 -1.0197931528 1.4711272717
0.62079435587 0.44792124629 -1.9999911785
-0.88041651249 0.45175746083 -1.982760191
0.043043188751 -1.0789436102 -1.8136601448
-0.8983156085 -1.0055139065 -1.5880558491
-0.11872147024 -0.4628059864 -2.1995868683
0.88213038445 -0.62324506044 -1.714450717
0.78158766031 -0.15646006167 -1.9699021578
1.1255668402 -0.20568603277 -1.6108474731
1.1066353321 0.27638232708 -1.6143658161
1.2920606136 0.17946848273 -1.3183118105
1.0227429867 0.81793093681 -1.348839283
1.3240882158 -0.24721497297 -1.1766424179
1.1176947355 -0.71980822086 -1.2820789814

CELLS 72 288
3 0 1 2
3 3 4 5
3 6 5 4
3 6 7 5
3 5 7 8
3 8 7 9
3 10 9 7
3 11 12 10
3 9 10 12
3 12 11 13
3 14 15 16
3 14 16 17
3 16 15 18
3 16 18 19
3 17 16 19
3 17 19 20
3 17 20 21
3 15 22 18
3 19 18 23
3 19 23 24
3 20 19 24
3 21 20 24
3 21 24 6
3 21 6 4
3 21 4 17
3 17 4 14
3 14 4 1
3 14 1 15
3 15 1 11
3 15 11 22
3 22 11 10
3 22 10 23
3 22 23 18
3 23 10 7
3 23 7 24
3 24 7 6
3 25 26 12
3 3 5 27
3 28 5 8
3 28 8 26
3 26 8 9
3 26 9 12
3 3 2 4
3 4 2 1
3 25 29 26
3 29 28 26
3 30 31 32
3 33 31 25
3 25 31 29
3 27 29 30
3 31 30 29
3 29 27 28
3 28 27 5
3 3 27 30
3 0 13 1
3 1 13 11
3 0 34 13
3 34 35 13
3 34 33 35
3 13 35 12
3 12 35 25
3 35 33 25
3 2 36 0
3 0 36 34
3 30 37 3
3 37 2 3
3 34 32 33
3 33 32 31
3 30 32 37
3 32 36 37
3 32 34 36
3 37 36 2

CELL_TYPES 72
5
5
5
5
5
5
5
5
5
5
5
5
5
5
5
5
5
5
5
5
5
5
5
5
5
5
5
5
5
5
5
5
5
5
5
5
5
5
5
5
5
5
5
5
5
5
5
5
5
5
5
5
5
5
5
5
5
5
5
5
5
5
5
5
5
5
5
5
5
5
5
5

CELL_DATA 72
SCALARS cell_data_0 double
LOOKUP_TABLE default
2.25520622837e-06
2.50972876475e-06
2.00900226468e-06
1.13620522244e-07
7.43352718585e-08
6.35276163011e-07
1.1065959831e-07
1.50183089901e-06
1.29641014371e-06
1.40815958443e-07
1.53849224531e-08
5.57947405648e-08
1.37077631209e-08
2.57538287411e-08
4.91614299248e-09
3.43368970723e-08
1.34685022939e-07
2.70962756438e-08
8.02549310244e-08
2.97249575952e-08
5.1021843546e-08
5.56082746272e-08
5.37511044554e-07
5.46236801128e-07
5.9429880866e-07
3.44418684471e-07
4.02242505837e-07
3.8764100819e-08
6.56860302192e-07
1.51812750521e-07
5.28076353032e-07
1.43246120606e-06
1.35626402119e-07
3.42168116378e-06
2.36971116284e-07
1.76812839485e-06
1.0295897568e-05
4.80714955535e-07
5.08766201253e-07
5.69319496949e-07
1.35226856311e-06
6.14783922249e-07
1.8686750224e-07
1.3272014747e-06
4.83016923559e-06
9.49756967839e-07
7.60084975347e-07
2.66518120763e-06
2.28996961498e-06
1.72638675596e-06
1.73282697948e-06
1.22264210344e-08
2.22946278544e-07
2.68000665065e-06
2.33706697845e-06
1.58715951274e-06
4.69353553893e-06
5.55910735822e-06
1.7630503942e-07
9.11595358077e-07
1.87720402788e-06
2.31258893826e-06
8.24076854838e-07
3.09500935e-07
1.37608084202e-06
4.45681773088e-08
3.1119972091e-07
1.4981706095e-06
2.5204402318e-07
1.15755922076e-06
5.57683908499e-07
1.03424956598e-06

