# vtk DataFile Version 3.0
File Name: Molecule/methanol/methanol_1.0-4.vtk
ASCII
DATASET UNSTRUCTURED_GRID
FIELD FieldData 1
TIME 1 1 double
0.0
POINTS 57 double
1.3990937471 0.0037133919541 -0.94243061543
1.6118955612 -0.00021959393052 -0.33240586519
1.283036828 -0.60811716318 -0.9056699276
1.0942882299 -1.2245359421 -0.26578629017
0.015997236595 -1.679300189 -0.18665851653
0.91431826353 -1.129594326 -0.86700171232
-0.11890776455 -1.5037891865 -0.93177062273
-1.1672536135 -1.0962491035 -0.70387977362
-1.217377305 -1.229174614 -0.03558216244
-1.7297012806 -0.00077144929674 -0.019628388807
-1.6406238079 0.0003793312062 -0.76789754629
-1.1628491879 1.0878419876 -0.72320085764
-1.2077333927 1.2290000916 -0.057539176196
-0.055943671614 1.5086177588 -0.82932186127
0.02963212505 1.6854000092 -0.16137772799
0.91220903397 1.1254529953 -0.87523597479
1.0940054655 1.2235518694 -0.26952961087
1.2815400362 0.60900211334 -0.90976154804
1.9059361219 0.00016766149201 0.6735213995
1.5802863836 1.0592802763 0.65779262781
1.5725792646 0.50450855494 1.5989869833
1.5738643408 -0.57903718948 1.5534126759
1.5782873631 -1.0593693256 0.72712600231
0.58042657375 1.4500726461 1.7180571556
0.5684812665 0.55005073547 2.3730611801
0.59063184261 -0.55133754015 2.3635339737
0.57951200008 -1.4502907991 1.7188434601
0.57161545753 -1.8037868738 0.66031575203
0.57183527946 1.8033952713 0.66016626358
-0.54289209843 1.4605482817 1.7032372952
-0.53054875135 0.56965136528 2.3672671318
-0.53592264652 -0.55683124065 2.3699581623
-0.54106020927 -1.4606634378 1.7052371502
-0.54211676121 -1.8023301363 0.64518409967
-0.54207140207 1.8027032614 0.64298701286
-1.541053772 1.0562466383 0.67667728662
-1.5354893208 0.50543016195 1.5980199575
-1.5373077393 -0.57840687037 1.551304698
-1.5405817032 -1.0541470051 0.74957567453
-1.8628438711 -0.00031380000291 0.69525688887
-0.15232565999 0.31156909466 -2.2331962585
-1.1420720816 -0.61427271366 -1.7006949186
-1.1474759579 0.61236071587 -1.6994857788
-0.13759981096 1.1695684195 -1.7239967585
0.8870985508 0.95892035961 -1.3684262037
1.0083606243 -0.83201384544 -1.3512811661
-0.14186778665 -0.79990762472 -2.0394730568
1.2837123871 -0.31305274367 -1.2761971951
1.0133266449 -0.44144207239 -1.6627389193
1.2195928097 0.37739261985 -1.3912450075
0.50736612082 -0.70906662941 -1.9451608658
0.5066204071 -0.080680832267 -2.1360218525
-0.11475308239 -0.31900316477 -2.238473177
0.88597238064 0.5954657793 -1.7215820551
0.35428494215 0.51194369793 -2.1042094231
0.36091008782 0.9172218442 -1.869371891
-0.12113650143 0.77068716288 -2.0647025108

CELLS 110 440
3 0 1 2
3 3 4 5
3 5 4 6
3 6 4 7
3 8 7 4
3 8 9 7
3 7 9 10
3 10 9 11
3 12 11 9
3 11 12 13
3 14 13 12
3 13 14 15
3 16 15 14
3 16 1 17
3 18 19 20
3 18 20 21
3 18 21 22
3 20 19 23
3 20 23 24
3 20 24 25
3 21 20 25
3 21 25 26
3 22 21 26
3 22 26 27
3 19 28 23
3 23 28 29
3 23 29 30
3 24 23 30
3 24 30 31
3 25 24 31
3 26 25 31
3 26 31 32
3 26 32 27
3 33 27 32
3 28 34 29
3 29 34 35
3 29 35 36
3 30 29 36
3 30 36 31
3 37 31 36
3 32 31 37
3 32 37 38
3 33 32 38
3 36 35 39
3 37 36 39
3 38 37 39
3 38 39 9
3 38 9 8
3 38 8 33
3 33 8 4
3 33 4 27
3 27 4 3
3 27 3 22
3 22 3 1
3 22 1 18
3 18 1 19
3 19 1 16
3 19 16 28
3 28 16 14
3 28 14 34
3 34 14 12
3 34 12 35
3 35 12 9
3 35 9 39
3 40 41 42
3 43 42 11
3 43 11 13
3 43 13 44
3 5 6 45
3 46 6 41
3 41 6 7
3 41 7 10
3 41 10 42
3 42 10 11
3 5 2 3
3 3 2 1
3 47 48 49
3 48 47 45
3 47 2 45
3 47 0 2
3 45 2 5
3 45 6 50
3 48 50 51
3 50 52 51
3 50 46 52
3 51 52 40
3 48 51 53
3 40 52 41
3 52 46 41
3 46 50 6
3 45 50 48
3 0 17 1
3 16 17 15
3 15 44 13
3 53 44 49
3 44 17 49
3 44 15 17
3 49 17 0
3 53 49 48
3 47 49 0
3 53 54 55
3 54 56 55
3 54 40 56
3 55 56 43
3 43 56 42
3 56 40 42
3 40 54 51
3 51 54 53
3 53 55 44
3 44 55 43

CELL_TYPES 110
5
5
5
5
5
5
5
5
5
5
5
5
5
5
5
5
5
5
5
5
5
5
5
5
5
5
5
5
5
5
5
5
5
5
5
5
5
5
5
5
5
5
5
5
5
5
5
5
5
5
5
5
5
5
5
5
5
5
5
5
5
5
5
5
5
5
5
5
5
5
5
5
5
5
5
5
5
5
5
5
5
5
5
5
5
5
5
5
5
5
5
5
5
5
5
5
5
5
5
5
5
5
5
5
5
5
5
5
5
5

CELL_DATA 110
SCALARS cell_data_0 double
LOOKUP_TABLE default
1.96036743259e-06
1.60117628008e-07
6.69897290136e-08
8.17166461606e-07
7.10408906734e-07
7.20208836264e-08
2.62195910738e-07
4.34998735273e-07
5.96307378231e-08
1.61577395075e-07
2.76351215414e-07
4.49783747022e-07
1.12161108005e-07
7.52860845922e-07
8.18118641435e-09
7.0610273987e-10
7.28213426602e-09
4.22011621133e-09
1.21297598674e-08
1.3342837317e-09
6.80865515677e-09
9.68712886415e-10
6.50498997599e-09
6.39290807636e-09
1.55492756773e-09
3.30367269871e-09
7.28277861716e-10
1.34867402653e-09
9.19985267062e-09
1.39027053514e-08
4.56644583361e-09
6.80407576879e-09
7.72709006787e-10
3.08612464293e-08
2.40682907492e-08
7.05515718603e-08
3.92471969611e-09
1.0554252024e-08
1.32075386926e-08
2.73175694261e-09
2.50613553804e-08
2.25260096898e-08
2.39860275274e-08
3.7492101901e-08
3.06234627354e-08
3.11419190455e-08
6.8825248782e-08
5.31130589493e-07
1.64311992268e-07
3.71476168694e-07
1.99065167282e-07
1.12267486525e-07
1.73798124656e-07
3.55743535577e-07
4.89687161952e-08
2.03442608368e-08
3.15024387918e-07
1.04479644809e-07
9.33267356199e-08
3.78268590952e-08
3.78987388131e-07
4.44785703996e-08
4.61809801121e-07
9.16670521372e-08
2.55392452364e-07
3.55814206677e-07
1.64901941006e-10
1.37747917056e-06
2.47385499099e-06
6.84488969565e-07
4.72104258379e-08
1.82959845119e-07
2.68789417043e-07
1.2284017905e-07
4.08560088315e-07
8.43496852973e-07
1.04088097084e-06
1.3863495843e-06
2.42578911301e-06
3.57515344231e-07
7.74409496238e-07
1.50796462911e-06
4.24103229111e-06
2.75962938157e-07
1.06910679113e-07
3.95806065309e-07
3.41821603146e-06
5.64245112873e-07
1.27336717922e-07
1.06957157622e-06
2.63976755558e-06
1.97713969277e-06
2.66908450401e-07
8.6132376009e-07
2.22219849525e-06
8.33922692193e-07
6.8664344775e-07
2.83878949e-07
3.59721947284e-06
7.2842913128e-07
1.06805362226e-06
2.57028089416e-08
8.99357776357e-08
2.26850377038e-08
2.90104561542e-07
2.12153645535e-07
3.13197743772e-07
9.20362729733e-07
6.90321548614e-07
2.35622085847e-07

