# vtk DataFile Version 3.0
File Name: Molecule/methanol/methanol_2.0-5.vtk
ASCII
DATASET UNSTRUCTURED_GRID
FIELD FieldData 1
TIME 1 1 double
0.0
POINTS 121 double
1.4768618345 -0.69323265553 -0.29236745834
0.96554720402 -1.3316650391 -0.28309109807
1.3337097168 -0.64766341448 -0.6177444458
0.81213343143 -1.1988656521 -0.89639252424
0.25495058298 -1.4662995338 -0.85929608345
0.34996977448 -1.6374731064 -0.21418333054
-0.48263928294 -1.6372159719 -0.12031523883
-0.49959665537 -1.4861074686 -0.74432295561
-1.0929447412 -1.334903121 -0.045854344964
-1.0673983097 -1.209302783 -0.67231094837
-1.6034173965 -0.67108821869 -0.026712622494
-1.5229978561 -0.60645264387 -0.64926373959
-1.7394118309 -0.00054660532624 -0.038331348449
-1.6374596357 -0.00015343294945 -0.66554403305
-1.5210449696 0.60368651152 -0.65728735924
-1.6022548676 0.6732185483 -0.024525761604
-1.0622130632 1.2092434168 -0.68924510479
-1.0891156197 1.3370324373 -0.066401995718
-0.48495140672 1.6375186443 -0.11520565301
-0.5000628233 1.4800242186 -0.76191413403
0.34022265673 1.642490983 -0.18868754804
0.25856804848 1.477494359 -0.83848023415
0.96769791842 1.3387104273 -0.25333821774
0.81934589148 1.1975890398 -0.88476550579
1.4785552025 0.67764598131 -0.30686408281
1.2687420845 0.61418509483 -0.93351900578
1.9066051245 -0.0038713971153 0.66301506758
1.7430399656 0.76724088192 0.66078752279
1.7406734228 0.38228797913 1.3269915581
1.7411953211 -0.39193949103 1.3212013245
1.7420874834 -0.76903665066 0.65642946959
1.7494087219 -0.38965421915 0.03060316667
1.8008482456 0.30682849884 0.1144702211
1.3806483746 1.0694743395 1.4065185785
1.3703950644 0.57984596491 1.8374251127
1.3793509007 -0.20041891932 1.9484270811
1.3723276854 -0.91222983599 1.6017808914
1.3795889616 -1.2492084503 1.0439912081
1.385281086 -1.2418698072 0.26520302892
1.3732507229 1.3137913942 0.64005798101
0.7305431366 1.5639587641 1.4355973005
0.73113662004 1.0503190756 2.0519127846
0.73290503025 0.32824480534 2.3711774349
0.71543389559 -0.32950431108 2.3783004284
0.72294032574 -1.0489416122 2.0567114353
0.72504663467 -1.563262105 1.4429345131
0.72546184063 -1.7495371103 0.64857810736
0.71619188786 1.7532346249 0.64174765348
0.090934716165 1.7747653723 1.2916237116
0.092713341117 1.3525327444 1.9697282314
0.092673406005 0.68497508764 2.4125635624
0.089268885553 0.032682113349 2.541087389
-0.051710344851 -0.74366539717 2.388646841
-0.053832132369 -1.299952507 2.0204877853
-0.054357569665 -1.749809742 1.355989337
-0.055776972324 -1.8836903572 0.55354356766
-0.050710648298 1.8851714134 0.61430060863
-0.68912547827 1.7486066818 0.65572834015
-0.68641674519 1.5665545464 1.4364335537
-0.68613290787 1.0531525612 2.0535473824
-0.68847620487 0.32950642705 2.3735938072
-0.67745488882 -0.32843488455 2.3785889149
-0.69203156233 -1.0471731424 2.0543150902
-0.69470322132 -1.5594226122 1.4427471161
-0.69107425213 -1.7473714352 0.66101068258
-1.3383111954 1.3106426001 0.65754526854
-1.3425729275 1.0699862242 1.4061088562
-1.3326146603 0.57968431711 1.8371721506
-1.3408179283 -0.20029941201 1.9489597082
-1.3340380192 -0.91226363182 1.6020597219
-1.33877635 -1.2543644905 1.0372903347
-1.7010231018 0.77035415173 0.67630982399
-1.7020097971 0.38305589557 1.3281632662
-1.7030396461 -0.39197725058 1.3213456869
-1.700986743 -0.77706623077 0.65135294199
-1.8678070307 -0.00017578105326 0.65606480837
1.6211339235 0.01091199927 -0.32387498021
0.64199638367 -0.96827870607 -1.6448603868
-0.12142475694 -1.1518836021 -1.7516174316
0.62994128466 -0.66396772861 -1.8978977203
0.62667548656 1.1134835482 -1.4854584932
-0.12114366144 0.89938992262 -1.9805216789
-0.12110837549 1.3394100666 -1.4897787571
-0.89405560493 -1.239746213 -1.1706523895
-0.87941080332 -0.80359697342 -1.8000164032
-0.12219006568 -0.48295241594 -2.1931211948
-0.88955807686 -0.19391293824 -2.0498077869
-0.14254957438 0.16748197377 -2.2634346485
-0.88010966778 0.58589214087 -1.9330004454
-0.89001095295 1.0894895792 -1.4957557917
-1.4469735622 -0.39087089896 -1.4017807245
-1.4454524517 0.38081669807 -1.4087102413
1.0150436163 0.77672046423 -1.4139750004
1.2448394299 0.35615676641 -1.3445488214
1.3651940823 -0.0020036958158 -1.0931153297
1.1466741562 -0.029923327267 -1.5987380743
1.2503830194 -0.61000436544 -0.96664106846
0.92828071117 -0.74553412199 -1.5738503933
0.89778602123 0.4651940763 -1.7865247726
0.62551361322 0.59336048365 -1.9376988411
0.65457570553 0.85915994644 -1.7464663982
1.2190107107 -0.38358199596 -1.3860918283
1.0211292505 -0.3292568028 -1.7092849016
0.79277014732 -0.31548509002 -1.9308371544
0.62312102318 -0.22158303857 -2.0559380054
1.3706908226 -0.30897057056 -0.93307077885
1.4421052933 -0.31816378236 -0.63256585598
1.4661530256 -0.0030706559774 -0.65806204081
1.5750359297 -0.34108945727 -0.35611596704
1.4455111027 0.31970629096 -0.62168884277
1.3705672026 0.30160656571 -0.93660324812
1.1169896126 0.39673927426 -1.5483344793
1.0080164671 0.0087954411283 -1.7753375769
1.1306216717 0.56231129169 -1.4281487465
1.0121281147 0.60357534885 -1.5783282518
0.78746503592 0.16282597184 -1.9647425413
0.64429467916 -0.029781283811 -2.0676953793
0.20336832106 -0.082626283169 -2.2347311974
0.36504334211 0.19141998887 -2.1804635525
0.20415429771 0.41491243243 -2.177793026
0.64033198357 0.40265998244 -2.0070962906

CELLS 238 952
3 0 1 2
3 3 1 4
3 5 4 1
3 6 7 5
3 4 5 7
3 8 9 6
3 7 6 9
3 8 10 9
3 9 10 11
3 10 12 11
3 13 11 12
3 13 12 14
3 15 14 12
3 14 15 16
3 17 16 15
3 17 18 16
3 19 16 18
3 18 20 19
3 19 20 21
3 20 22 21
3 21 22 23
3 22 24 23
3 23 24 25
3 26 27 28
3 26 28 29
3 26 29 30
3 26 30 31
3 26 31 32
3 26 32 27
3 28 27 33
3 28 33 34
3 28 34 35
3 29 28 35
3 29 35 36
3 29 36 37
3 30 29 37
3 30 37 38
3 31 30 38
3 27 39 33
3 33 39 40
3 33 40 41
3 34 33 41
3 34 41 42
3 35 34 42
3 35 42 43
3 36 35 44
3 43 44 35
3 36 44 45
3 37 36 45
3 37 45 46
3 38 37 46
3 39 47 40
3 40 47 48
3 40 48 49
3 41 40 49
3 41 49 50
3 42 41 50
3 42 50 51
3 43 42 51
3 43 51 52
3 44 43 52
3 44 52 53
3 45 44 53
3 45 53 54
3 46 45 54
3 46 54 55
3 47 56 48
3 48 56 57
3 48 57 58
3 49 48 58
3 49 58 59
3 50 49 59
3 50 59 60
3 51 50 60
3 51 60 61
3 52 51 61
3 52 61 62
3 53 52 62
3 53 62 63
3 54 53 63
3 54 63 64
3 55 54 64
3 58 57 65
3 58 65 66
3 59 58 66
3 59 66 67
3 60 59 67
3 60 67 68
3 61 60 68
3 61 68 62
3 69 62 68
3 63 62 69
3 63 69 70
3 64 63 70
3 66 65 71
3 66 71 72
3 67 66 72
3 68 67 72
3 68 72 73
3 69 68 73
3 70 69 73
3 70 73 74
3 72 71 75
3 73 72 75
3 74 73 75
3 74 75 10
3 12 10 75
3 74 10 8
3 74 8 70
3 70 8 64
3 64 8 6
3 64 6 55
3 55 6 5
3 55 5 46
3 46 5 1
3 46 1 38
3 38 1 0
3 38 0 31
3 31 76 32
3 32 76 24
3 32 24 27
3 27 24 39
3 39 24 22
3 39 22 47
3 47 22 20
3 47 20 56
3 56 20 18
3 56 18 57
3 57 18 17
3 57 17 65
3 65 17 15
3 65 15 71
3 71 15 75
3 12 75 15
3 77 78 79
3 80 81 82
3 78 83 84
3 85 78 84
3 85 84 86
3 87 85 86
3 87 86 88
3 81 87 88
3 81 88 89
3 82 81 89
3 84 83 90
3 86 84 90
3 86 90 91
3 88 86 91
3 89 88 91
3 89 91 14
3 89 14 16
3 89 16 19
3 89 19 82
3 82 19 21
3 82 21 80
3 80 21 23
3 80 23 92
3 93 94 95
3 96 3 97
3 77 3 4
3 77 4 78
3 78 4 7
3 78 7 83
3 83 7 9
3 83 9 11
3 83 11 90
3 90 11 13
3 90 13 91
3 91 13 14
3 98 99 100
3 92 100 80
3 80 100 81
3 100 99 81
3 25 92 23
3 101 97 102
3 103 102 79
3 97 77 79
3 104 79 85
3 85 79 78
3 77 97 3
3 96 97 101
3 96 105 2
3 106 2 105
3 106 105 107
3 0 2 108
3 76 108 107
3 108 106 107
3 106 108 2
3 94 107 105
3 96 2 3
3 3 2 1
3 76 109 24
3 24 109 25
3 25 109 110
3 109 107 110
3 109 76 107
3 110 107 94
3 0 108 31
3 31 108 76
3 25 110 93
3 93 110 94
3 94 105 101
3 101 105 96
3 98 111 112
3 111 95 112
3 111 93 95
3 112 95 102
3 93 111 113
3 111 114 113
3 111 98 114
3 113 114 92
3 92 114 100
3 100 114 98
3 93 113 25
3 113 92 25
3 104 103 79
3 97 79 102
3 102 95 101
3 101 95 94
3 98 112 115
3 115 112 116
3 112 102 103
3 87 117 85
3 85 117 104
3 104 117 116
3 117 118 116
3 117 87 118
3 116 118 115
3 99 119 81
3 119 87 81
3 115 120 98
3 98 120 99
3 99 120 119
3 120 118 119
3 120 115 118
3 119 118 87
3 104 116 103
3 103 116 112

CELL_TYPES 238
5
5
5
5
5
5
5
5
5
5
5
5
5
5
5
5
5
5
5
5
5
5
5
5
5
5
5
5
5
5
5
5
5
5
5
5
5
5
5
5
5
5
5
5
5
5
5
5
5
5
5
5
5
5
5
5
5
5
5
5
5
5
5
5
5
5
5
5
5
5
5
5
5
5
5
5
5
5
5
5
5
5
5
5
5
5
5
5
5
5
5
5
5
5
5
5
5
5
5
5
5
5
5
5
5
5
5
5
5
5
5
5
5
5
5
5
5
5
5
5
5
5
5
5
5
5
5
5
5
5
5
5
5
5
5
5
5
5
5
5
5
5
5
5
5
5
5
5
5
5
5
5
5
5
5
5
5
5
5
5
5
5
5
5
5
5
5
5
5
5
5
5
5
5
5
5
5
5
5
5
5
5
5
5
5
5
5
5
5
5
5
5
5
5
5
5
5
5
5
5
5
5
5
5
5
5
5
5
5
5
5
5
5
5
5
5
5
5
5
5
5
5
5
5
5
5
5
5
5
5
5
5
5
5
5
5
5
5

CELL_DATA 238
SCALARS cell_data_0 double
LOOKUP_TABLE default
1.01620490129e-07
2.02508088526e-07
2.60984655924e-07
3.17589686196e-07
3.49586605231e-07
1.86915190455e-07
2.00476902944e-07
7.49191989932e-08
1.81523909559e-07
7.64846012969e-08
1.33532442953e-07
1.42874052761e-07
8.52240444695e-08
6.99958367023e-08
9.93058584172e-08
2.03126880742e-07
2.18628875945e-07
3.34540063829e-07
1.11292043355e-07
2.49791635882e-07
2.14169785419e-07
1.60307846435e-07
1.60574839653e-07
1.54870239068e-09
2.02759359298e-09
3.26290284105e-10
1.79032892807e-09
1.03746338022e-09
3.22996738761e-09
2.09295752953e-09
3.05745263001e-09
8.42380600041e-10
1.19497043981e-09
4.04459860724e-09
8.90732585497e-10
5.0737310449e-09
3.56448832311e-09
3.63431666886e-09
5.11017974557e-09
1.30509408703e-09
3.73769182591e-09
2.84901747484e-10
6.41418140417e-10
2.28019505035e-09
2.16483549647e-09
1.88387081792e-09
3.28246005994e-10
2.65672499125e-10
8.98588832227e-10
2.76009173021e-10
7.50008719018e-09
7.91741146984e-10
2.598763103e-09
3.08737791057e-09
1.87673250405e-09
2.21827484602e-09
4.5376112583e-11
1.9464518485e-09
2.44315673544e-09
9.7051118877e-10
5.24608272233e-10
2.11188385214e-09
8.17451397456e-10
4.43713755457e-09
1.51247521985e-09
6.24661311972e-09
1.71192132015e-09
5.84815296003e-09
5.91674569542e-09
5.6758373611e-09
2.86921578331e-10
5.39545302637e-10
2.92561556929e-10
2.36352379366e-10
1.37612610062e-09
1.27015497097e-09
1.99583937041e-09
2.48363735793e-09
1.1567885028e-09
4.32512694324e-09
7.84001572281e-11
2.36262656814e-09
1.73146452504e-08
1.45965439037e-09
5.69746676437e-09
3.61969923224e-09
1.3000466709e-09
2.23452202221e-09
1.49758826136e-09
1.4525244658e-09
4.98829047345e-09
3.39593680398e-09
2.41223933625e-10
2.75167006794e-09
1.19718911585e-08
1.66801202579e-09
2.01045476136e-09
6.88448853743e-10
1.07948410084e-08
6.86528083612e-09
3.64240177386e-09
4.61927139632e-10
1.29935013033e-08
6.84475784028e-09
7.09073616354e-09
4.27484372932e-08
5.78065496633e-08
1.60591541942e-07
1.76489194172e-07
7.45298658668e-08
1.59352235011e-07
5.80838471506e-08
1.10927167471e-07
9.48550013627e-08
5.35690721242e-08
4.68923431236e-08
3.77642332619e-08
7.97220465767e-09
7.88988338348e-10
2.03454140167e-09
1.28438116839e-08
6.38592417289e-09
5.4389767905e-08
1.98164935655e-08
3.57177448234e-08
8.06698006532e-09
1.36092559349e-07
1.90477271618e-08
1.52562922159e-07
2.9490044417e-08
2.10084800843e-07
3.96630041061e-08
5.09051592074e-08
5.0208142122e-08
4.13187268904e-07
2.73212279146e-07
8.08910275501e-08
4.90185491751e-08
7.54144603111e-08
2.13078000017e-08
1.32825144461e-07
1.25997419408e-07
7.18780069e-08
2.62776370562e-08
5.41816963025e-08
5.48573219375e-08
1.12073919249e-09
2.62460268757e-09
1.04359709464e-07
1.84707636921e-08
9.37494960261e-08
7.74743921942e-10
9.84841107109e-09
9.40303386718e-08
1.05390669028e-07
4.74661710156e-08
4.12805169608e-07
2.04759064501e-07
1.57400737585e-07
7.28625382203e-08
8.52163843483e-07
1.03517972265e-07
5.11457474601e-08
5.17344796707e-08
3.85409173397e-08
6.81421247812e-08
1.65230662702e-08
3.13975463487e-08
4.11623736458e-09
2.26052371435e-07
2.79956815409e-07
2.80028400104e-07
2.92884205072e-07
3.94693614429e-07
4.05596069832e-07
4.32649996183e-07
1.36259799207e-07
1.43373510073e-07
7.20367004543e-07
4.36965529646e-07
1.31201130522e-06
2.96334960217e-07
2.76155843153e-07
4.86690778126e-08
1.25818723173e-09
2.13062416401e-08
9.19191815055e-08
6.25695060378e-08
8.12915253592e-07
5.61043109127e-07
3.38812063979e-08
7.9014432274e-08
3.70068599371e-07
2.46422618824e-07
2.39998055276e-08
4.39831569841e-08
9.27227573124e-07
1.06553010083e-09
1.25897296913e-08
2.6794826157e-07
3.83570440981e-07
2.05222370808e-08
3.04127666923e-07
2.3540794472e-07
3.13076292479e-07
3.18478247198e-07
1.67384155217e-07
1.51773190704e-07
2.77830533445e-08
1.57572964189e-07
3.24722461619e-08
1.98769437379e-07
2.97201944351e-07
2.90780775692e-07
4.65887693892e-08
6.70815314968e-08
6.9822650985e-07
4.5425281559e-07
6.84554981207e-09
2.65049747466e-07
3.26050749079e-07
7.73925202422e-08
2.86939768582e-08
1.07985124989e-07
6.86267326201e-08
1.0134971673e-08
5.89682354533e-08
1.41833555126e-07
2.28242075015e-07
7.52112860526e-08
6.92654956944e-08
9.822135721e-08
7.34858116527e-08
6.35217041644e-08
1.68932807318e-07
5.0524162089e-08
1.59094603525e-08
5.58292027339e-07

