# vtk DataFile Version 3.0
File Name: Molecule/sphere_excent/sphere_excent_0-s3.vtk
ASCII
DATASET UNSTRUCTURED_GRID
FIELD FieldData 1
TIME 1 1 double
0.0
POINTS 642 double
0.85064631701 -0.5257383585 9.8827749753e-06
0.86465489864 -0.48610129952 -0.12642037868
0.91291218996 -0.40803781152 0.00017612497322
0.92398387194 -0.35938534141 -0.13078197837
0.86300653219 -0.4358535111 -0.2552960515
0.96051609516 -0.27808913589 5.8356472437e-05
0.91674202681 -0.30071559548 -0.26294782758
0.9660680294 -0.22092290223 -0.13376533985
0.95102900267 -0.15783947706 -0.26570290327
0.84457337856 -0.37659034133 -0.38056987524
0.89065974951 -0.23547209799 -0.38891246915
0.80901765823 -0.30901694298 -0.49999389052
0.98993104696 -0.1414026618 1.2845001038e-05
0.98778146505 -0.078327231109 -0.13463699818
0.9999974966 -3.7430620523e-06 2.1690632366e-06
0.84226828814 -0.15701720119 -0.51565825939
0.91362655163 -0.080227404833 -0.39855462313
0.85350203514 6.6048851295e-05 -0.52105778456
0.91356605291 0.080550566316 -0.3986299336
0.96327155828 0.0001503090607 -0.26852291822
0.95102626085 0.15785939991 -0.26569959521
0.84234410524 0.1571816802 -0.51548248529
0.89071673155 0.23543164134 -0.38880574703
0.80901330709 0.30901998281 -0.49999904633
0.98775982857 0.078397013247 -0.13474979997
0.75734484196 -0.23511664569 -0.60918778181
0.78032410145 -0.079775348306 -0.62025785446
0.69123876095 -0.15771302581 -0.70515263081
0.7021137476 6.5745363827e-05 -0.71207147837
0.78038048744 0.080032221973 -0.62015491724
0.6911970377 0.15775881708 -0.70518350601
0.6126588583 -0.078019186854 -0.78642731905
0.61252599955 0.078135885298 -0.78651922941
0.52573919296 4.7147868827e-06 -0.85064578056
0.75732845068 0.23512640595 -0.60920387506
0.9899533987 0.1412550658 -0.00020127027528
0.96608066559 0.22078989446 -0.13390137255
0.96053630114 0.27801945806 -0.00011229408119
0.91671198606 0.30064445734 -0.2631393075
0.92404055595 0.3591568172 -0.13101281226
0.86303156614 0.43579521775 -0.25531134009
0.84463763237 0.37640035152 -0.38061869144
0.91297650337 0.40789702535 -0.00018017576076
0.86465883255 0.48609495163 -0.12641902268
0.85065633059 0.52572214603 -2.6140776299e-06
0.78651452065 0.61255437136 -0.077950775623
0.79317116737 0.57104492188 -0.21164835989
0.70522099733 0.69116574526 -0.15772800148
0.78293043375 0.51726943254 -0.34559988976
0.70310300589 0.64641195536 -0.2962859571
0.68531823158 0.58776909113 -0.42992311716
0.75602048635 0.45332872868 -0.47212353349
0.60935938358 0.75718098879 -0.23519393802
0.59886473417 0.70760852098 -0.37500104308
0.50000119209 0.80901485682 -0.30901265144
0.70754414797 0.37493982911 -0.59897971153
0.64489263296 0.51503759623 -0.56466406584
0.58773356676 0.42993065715 -0.68534374237
0.51481151581 0.56464082003 -0.6450945735
0.56449502707 0.64508378506 -0.51498442888
0.42991039157 0.6853248477 -0.5877700448
0.4533123374 0.47227445245 -0.75593429804
0.37504035234 0.59895128012 -0.70751416683
0.30901455879 0.50000059605 -0.80901443958
0.47209629416 0.75596475601 -0.4534484446
0.64643597603 0.29639241099 -0.70303732157
0.57112586498 0.21177689731 -0.79307872057
0.51710355282 0.34594151378 -0.78289157152
0.43588754535 0.25534078479 -0.86297619343
0.48610264063 0.12640698254 -0.86465668678
0.37670013309 0.38074433804 -0.84444707632
0.38076114655 0.84443861246 -0.3767029345
0.34579613805 0.78285211325 -0.51725924015
0.25537955761 0.86294722557 -0.43592205644
0.29644551873 0.70296943188 -0.64648610353
0.21194185317 0.79304367304 -0.57111406326
0.15785042942 0.7052231431 -0.6911354661
0.23542569578 0.60933679342 -0.75712859631
0.12654639781 0.86457145214 -0.48621827364
0.078138366342 0.78652638197 -0.61251574755
8.5128021965e-06 0.85065227747 -0.52572864294
0.7866217494 0.61238116026 0.078234218061
0.71231752634 0.70186299086 6.9122637797e-05
0.70525491238 0.69111013412 0.15782000124
0.62044233084 0.78018265963 -0.079707957804
0.62042784691 0.78017902374 0.079860590398
0.52109915018 0.8534771204 9.2739519459e-06
0.51565533876 0.84224790335 -0.15713874996
0.60936677456 0.7571683526 0.2352155
0.51565247774 0.84224647284 0.15715581179
0.50000160933 0.80901312828 0.30901646614
0.38879027963 0.89069646597 -0.23553596437
0.39855119586 0.91362506151 -0.080261960626
0.26567193866 0.95103853941 -0.15783286095
0.26842778921 0.96329832077 5.1892500778e-05
0.39853414893 0.9136121273 0.080499000847
0.26569664478 0.9510281086 0.15785335004
0.13471136987 0.9877820015 -0.078176043928
0.13474282622 0.98776054382 0.078407332301
-4.0539566726e-06 0.9999974966 -3.5625430428e-07
0.38881537318 0.89071571827 0.23541718721
0.26306831837 0.91671216488 -0.30070450902
0.13097673655 0.92397409678 -0.35933962464
0.13380432129 0.96613538265 -0.22061190009
5.6798271544e-05 0.96052932739 -0.27804350853
-6.7840664997e-07 0.91293895245 -0.40798041224
0.00018816828378 0.98995053768 -0.14127199352
0.38063383102 0.84464150667 0.37637653947
0.26303958893 0.91675466299 0.30060049891
0.25530737638 0.86306035519 0.43574032187
0.13381525874 0.96610975266 0.22071626782
0.1309709847 0.9240565896 0.35913071036
5.4629817896e-05 0.96053105593 0.27803766727
0.00018707818526 0.98994970322 0.14128014445
0.12643063068 0.86475247145 0.48592627048
4.5393389883e-06 0.91294485331 0.40796643496
4.8069841796e-06 0.850654006 0.52572590113
-0.12639823556 0.86456876993 0.48625987768
-0.13080245256 0.92397576571 0.35939863324
-0.25529494882 0.86298179626 0.43590345979
-0.13381080329 0.96604901552 0.22097724676
-0.26296412945 0.9167175293 0.30077636242
-0.2657096386 0.95102626085 0.15784445405
-0.13463462889 0.98778146505 0.078331559896
-0.38057151437 0.84456086159 0.37661704421
-0.38891661167 0.89065527916 0.23548145592
-0.49999636412 0.80901503563 0.30901989341
-0.1346553266 0.98776787519 -0.078472226858
-0.26871854067 0.96321648359 -2.1206184101e-05
-0.26573699713 0.95101428032 -0.15786968172
-0.39874336123 0.9135222435 -0.080486409366
-0.39877519011 0.91352015734 0.080349311233
-0.52111524343 0.85346692801 -3.8783555283e-06
-0.3890183568 0.89064538479 -0.23534524441
-0.51567548513 0.84225720167 -0.15702149272
-0.50000101328 0.80901390314 -0.30901539326
-0.5156635046 0.84226405621 0.15702068806
-0.13381834328 0.96608614922 -0.2208160013
-0.13084219396 0.92403143644 -0.35924133658
-0.26324740052 0.91669303179 -0.30060854554
-0.25530558825 0.86303281784 -0.43579608202
-0.12640576065 0.86465424299 -0.48610767722
-0.3806270659 0.8446366787 -0.37639340758
-0.60919219255 0.75733953714 0.23512196541
-0.62028455734 0.7802991271 0.07981146127
-0.70515650511 0.69123274088 0.15772198141
-0.62026685476 0.78030180931 -0.07992707938
-0.71209895611 0.70208543539 -2.5623183319e-05
-0.7051871419 0.6911945343 -0.15775218606
-0.60921686888 0.75732296705 -0.23511068523
-0.78643000126 0.61265397072 0.078031383455
-0.78652590513 0.61251729727 -0.078130573034
-0.85064965487 0.52573287487 -2.0480670173e-06
-0.077945783734 0.78650981188 0.61256176233
-0.21163965762 0.79313009977 0.57110530138
-0.15772603452 0.7052180171 0.69116926193
-0.34559103847 0.78289210796 0.51733338833
-0.29628616571 0.70309495926 0.64642071724
-0.42992511392 0.68531227112 0.58777457476
-0.4721237123 0.75601220131 0.45334234834
-0.23519317806 0.60935819149 0.75718224049
-0.37500166893 0.59886217117 0.70761030912
-0.30901271105 0.50000101328 0.80901497602
-0.59897810221 0.70754623413 0.37493848801
-0.5646649003 0.64489126205 0.51503831148
-0.68534344435 0.58773654699 0.42992696166
-0.64509481192 0.51481223106 0.56463986635
-0.51498508453 0.56449300051 0.64508497715
-0.58777016401 0.42991021276 0.6853248477
-0.75593447685 0.45331332088 0.47227329016
-0.70751446486 0.37504035234 0.59895092249
-0.80901736021 0.30901381373 0.49999645352
-0.45344856381 0.47209596634 0.75596493483
-0.70302438736 0.64645862579 0.29637369514
-0.79306447506 0.57115602493 0.21174904704
-0.78289061785 0.51710814238 0.3459366262
-0.86297619343 0.4358894825 0.2553370297
-0.86465537548 0.4861060977 0.12640051544
-0.84444761276 0.37670266628 0.38074022532
-0.3767029345 0.38076108694 0.84443867207
-0.51725924015 0.34579601884 0.78285217285
-0.43592196703 0.25537952781 0.86294728518
-0.64648658037 0.29644489288 0.70296931267
-0.57111430168 0.21194155514 0.79304355383
-0.6911405921 0.15784442425 0.70521944761
-0.75713461637 0.23542265594 0.60933065414
-0.48621833324 0.12654593587 0.86457151175
-0.6125177145 0.078132972121 0.78652536869
-0.52573251724 5.8166388044e-06 0.85064989328
0.078054137528 0.78661298752 0.61241436005
3.1825336919e-05 0.71230691671 0.7018737793
0.15776057541 0.70525121689 0.69112759829
-0.07971213758 0.62043869495 0.78018516302
0.079828999937 0.62042272091 0.78018629551
5.4077813729e-06 0.521096766 0.85347855091
-0.15714019537 0.51565414667 0.84224832058
0.2351808548 0.60936617851 0.75717961788
0.15715102851 0.51565146446 0.84224790335
0.30900973082 0.50000041723 0.80901646614
-0.23553611338 0.38879016042 0.89069652557
-0.08026316762 0.39855033159 0.91362529993
-0.15783289075 0.26567193866 0.95103853941
5.1689392421e-05 0.26842755079 0.96329843998
0.080497562885 0.39853325486 0.91361260414
0.15785306692 0.26569634676 0.9510281682
-0.078176051378 0.13471156359 0.9877820015
0.078407339752 0.13474290073 0.98776048422
1.3516444142e-06 -6.6865675308e-07 0.9999974966
0.23541638255 0.38881489635 0.8907161355
-0.30070444942 0.26306834817 0.91671216488
-0.35933968425 0.13097675145 0.92397409678
-0.22061190009 0.1338044107 0.96613538265
-0.27804487944 5.7897424995e-05 0.96052885056
-0.4079850018 3.4210679587e-06 0.91293674707
-0.14127078652 0.00019035846344 0.9899507165
0.37637063861 0.38062995672 0.84464585781
0.30059981346 0.2630391717 0.91675502062
0.43573862314 0.25530457497 0.86306190491
0.22071607411 0.13381548226 0.96610975266
0.35913056135 0.1309709847 0.92405664921
0.27803725004 5.8879355493e-05 0.96053111553
0.14128293097 0.00019276962848 0.98994922638
0.48593103886 0.12642981112 0.86474978924
0.40796259046 6.776463124e-07 0.91294670105
0.52572602034 2.0743734694e-06 0.8506539464
-0.48626226187 -0.1264026314 0.86456722021
[...]
CELL_DATA 1280
SCALARS cell_data_0 double
LOOKUP_TABLE default
3.7425832172e-08
3.77980862144e-08
2.6984817212e-08
1.4984892154e-08
8.16581114438e-08
9.04372982287e-09
1.42013129565e-08
3.00809001884e-08
1.45210056218e-08
1.43719809828e-08
1.36051783904e-08
6.28011569063e-09
3.34215698103e-08
1.69469243266e-08
2.06194966255e-08
1.99161453106e-08
3.12669362482e-08
2.20377927939e-09
1.35274397714e-08
3.30408430976e-08
7.95879587453e-09
1.64365210926e-08
1.28382594298e-08
5.65668498141e-08
5.27217859536e-09
1.18287126903e-08
3.63069549118e-08
8.22521471469e-09
1.00326968929e-08
5.74975323532e-08
8.69317747528e-08
9.07257611176e-08
4.67249145926e-09
4.4221098484e-08
2.10333075348e-08
4.68204240631e-09
6.8009847335e-08
1.8411249745e-08
3.48560264304e-08
2.10097411076e-08
5.38032294669e-08
2.78888646678e-08
3.00389320066e-08
1.02967838783e-08
1.70468109328e-08
4.06873346283e-08
7.2520317778e-08
4.89594023748e-08
1.01839680578e-07
8.88650841951e-08
7.82709628331e-10
4.98776869351e-08
7.84405449912e-08
2.11824694163e-08
6.36222098902e-09
6.39149525216e-08
4.77338071887e-08
1.12968013599e-08
3.39336791888e-08
1.07721114213e-08
2.91304090626e-08
2.80357682515e-08
1.01941803524e-08
2.52832355801e-08
2.56203062676e-08
2.90180838295e-08
1.23067528069e-09
1.76354354487e-08
1.26256716439e-08
1.51452721776e-08
1.41228473514e-09
3.57195792364e-09
1.75090879925e-08
3.03251819935e-08
7.47941355837e-09
9.45382459474e-08
4.71270393453e-09
8.03692440563e-08
7.50295600968e-08
2.07919541229e-08
4.22494646318e-08
3.48228619104e-08
1.4854846046e-08
3.97739456604e-08
1.5314808781e-08
1.70688899423e-08
4.85327128163e-08
3.0351002403e-08
4.6484680527e-08
1.68870718778e-08
7.73078488816e-09
4.74903651536e-08
1.65709437937e-08
4.51854555398e-08
4.97252882547e-08
1.73970301728e-08
7.13743824582e-08
3.02062684972e-08
4.96581401789e-08
1.21307140746e-08
2.09642183557e-08
1.69294678551e-08
4.82088977039e-09
3.32594950147e-08
2.54239492902e-09
1.01633105211e-08
1.13244142199e-08
1.7046644983e-09
2.38846457046e-09
8.88152194197e-09
3.36775733493e-08
2.03296588861e-08
1.56633357015e-09
1.23351815276e-08
1.96248222413e-08
3.29996622132e-08
6.81256757839e-09
9.2603050325e-09
3.42272331971e-09
2.05498607859e-08
2.49748662297e-08
5.63152620427e-09
7.44831176468e-09
1.39755009341e-09
2.31195700085e-08
1.77405195818e-08
2.17136111972e-10
4.27399888094e-08
1.59452882555e-08
1.98692799349e-08
4.24577119543e-08
2.42435613086e-08
2.35676814282e-09
6.16652665763e-08
5.69959543313e-08
3.88488873726e-08
3.03044853872e-08
5.65321851356e-08
3.5335652735e-09
6.67126100946e-09
2.59132344708e-08
1.4644816665e-08
9.978725811e-08
6.53575993291e-08
2.32562914014e-09
4.43785550494e-09
6.25434209112e-08
2.27546846423e-08
3.46286518843e-08
1.55468539509e-08
5.28600819641e-08
9.30633485763e-08
2.79423563867e-08
1.35359435839e-08
6.8534392275e-08
2.89665869119e-08
6.35128272671e-08
6.95830544896e-08
1.19035931757e-07
2.02061582784e-08
2.45625744416e-08
3.28567249045e-09
3.58448697169e-09
2.17135886075e-09
1.01299488447e-08
6.11818528573e-09
6.44616147258e-08
4.56129273177e-09
6.29995244142e-08
4.24471348272e-08
4.18080297903e-09
2.68292197017e-08
2.53643542324e-08
2.42123667979e-08
2.95218911697e-08
3.57459496191e-08
1.21897602302e-07
1.05136629065e-08
8.44786720762e-08
4.21194164762e-08
1.00804732596e-07
1.40873038577e-09
2.39219696367e-09
3.48523231516e-08
4.39648038358e-08
6.85600244903e-08
3.2448719668e-08
1.14397148735e-08
2.40756732575e-09
1.36213868089e-08
2.4948951769e-08
6.62394252985e-08
1.84373429069e-08
1.34315356146e-08
3.67942166214e-09
8.89315209621e-08
3.4221927698e-08
4.53005361889e-09
3.19853351427e-09
5.09283582207e-09
6.62605758634e-10
5.19005103864e-08
4.39324214215e-08
7.33455725566e-10
3.31520498909e-08
9.13577579941e-08
2.44745486517e-08
6.18317987916e-08
9.54906009752e-08
3.11504277459e-08
3.71429929979e-08
1.38550995359e-08
5.19701116263e-08
1.09872932788e-08
6.15092346689e-09
2.22364758356e-08
2.51823425184e-08
1.71829580704e-08
6.86232040977e-08
2.5261539365e-08
2.57879572257e-08
9.49261171215e-09
9.70465937488e-10
4.43898937541e-08
3.36074382526e-08
1.82104749541e-08
2.79982366408e-08
4.81247547231e-08
1.78825357818e-08
3.66720458073e-08
8.1770928261e-09
5.26212339468e-09
1.39154486284e-09
1.15081692933e-08
3.50973401417e-09
3.87733596966e-09
2.64195086212e-08
7.33470731137e-09
8.40281102548e-09
2.99291042571e-08
8.65182471471e-08
1.86358219662e-08
4.40904306312e-09
3.73759348708e-08
9.05170897606e-09
1.13675351299e-08
1.28749088165e-07
3.36303754786e-08
1.01633791795e-07
6.17616035273e-08
2.37831827393e-08
4.51038545736e-08
2.37046659951e-08
1.02955380324e-07
1.14103690908e-08
5.86507617422e-08
6.38558832173e-08
1.20935344502e-08
1.00223927929e-07
1.3144598898e-07
1.49360756735e-08
1.84166458877e-08
1.34217746946e-08
3.40435489621e-08
2.28878960105e-09
6.38752982047e-08
1.66297356423e-08
3.73446709342e-08
1.09586846136e-08
4.24636656045e-08
2.35529079517e-07
2.65929835467e-07
1.13835930275e-07
6.36688103064e-08
1.24210882305e-07
4.88858624694e-08
1.56731767987e-08
2.03849875626e-07
2.41996551592e-07
1.46952767828e-07
2.31001217324e-08
3.88853714313e-08
1.96636067383e-07
1.12126454648e-07
6.29060846333e-08
2.81304248655e-07
1.96483871253e-07
2.08140560901e-07
1.08188396562e-07
1.39793900756e-08
1.50066316083e-09
9.50030876635e-08
4.75943132355e-08
4.86037030399e-08
4.95417813171e-08
3.88112806145e-08
1.23875877695e-07
2.9720792988e-08
3.42106042209e-08
7.2944951193e-08
8.9601174909e-09
2.92629828143e-08
2.76569441126e-09
1.0729967398e-07
9.65222610108e-08
3.2215301175e-08
6.7136934149e-08
2.36380654608e-09
1.09808981188e-07
1.40648553825e-07
1.08024025121e-07
1.4175564733e-08
2.86197051535e-08
2.18065730855e-07
1.3883676404e-07
1.91901025712e-08
6.15755213311e-09
1.11006914866e-07
1.67330134772e-07
1.31382942062e-07
1.86953784942e-08
2.18673423127e-08
4.19389436251e-08
7.41596119076e-08
9.43523178638e-08
1.88969848389e-07
1.26639498342e-08
5.31126138363e-08
2.13947968897e-07
5.64872405223e-08
1.16934031481e-07
7.58058079951e-08
4.89287397461e-08
1.460521258e-07
4.26876903032e-08
8.33758597495e-08
2.71380315989e-07
1.09190784851e-08
1.67165639066e-07
5.45518707963e-08
3.17723939353e-07
1.28654286201e-07
1.83870702217e-07
1.20730930408e-07
2.58083719572e-07
3.49236177211e-08
6.27950626307e-07
1.52612708053e-07
9.60225380253e-08
2.49710430947e-07
2.49431547907e-07
2.73831735969e-07
1.21435978077e-08
2.24233190868e-07
2.15341789068e-08
1.537708582e-07
1.74874877957e-07
5.92690995911e-08
2.93878608062e-07
1.9335930329e-07
1.25987172798e-07
1.11157620206e-07
3.97951798891e-08
1.45845738797e-07
1.54769427334e-07
9.74435172343e-08
1.21524367863e-07
4.04008295491e-07
5.8474346409e-08
1.91709435936e-09
2.42841031787e-07
3.81795936928e-08
1.12627874453e-07
7.76635421694e-08
1.73542226368e-07
2.07306927462e-07
3.178313562e-07
1.41685711992e-07
1.65838355129e-07
4.17085743914e-08
1.21596035844e-07
9.98592516679e-08
1.10097478981e-07
1.40408977943e-07
8.63462734425e-08
2.66289547489e-08
1.51373324518e-07
4.22204950664e-08
3.47465389312e-07
1.86502966551e-08
7.79950264799e-08
3.13058034217e-07
8.50567616408e-08
2.79651786861e-07
1.333012807e-07
2.30825394653e-08
2.82030317668e-08
1.00511141692e-07
2.49366492132e-07
2.13571681332e-07
1.41327645711e-07
1.35466127334e-07
6.38030858878e-08
3.38006343745e-07
1.14703392061e-07
7.64640434615e-08
1.42985258373e-07
4.14812084662e-08
6.38992340652e-08
3.28937323058e-07
2.282172317e-07
7.37229815072e-08
3.17989725906e-07
1.33275584309e-07
4.31967201177e-07
5.89390753956e-07
5.63751360181e-08
1.00054976039e-08
1.21820116783e-07
4.06024368144e-08
1.67438403248e-07
2.13638136366e-07
3.81908776278e-08
2.03756067493e-07
6.61820392805e-09
2.35366086181e-08
9.22380575565e-08
7.42589047954e-09
2.59032880278e-08
3.98601748144e-08
1.05886547692e-07
5.23741658546e-08
2.26367739991e-07
4.48149908633e-08
4.87578561921e-07
6.44889733609e-08
3.60583845683e-07
2.83014842558e-07
1.57149186017e-07
1.34079489442e-07
1.45039108304e-07
2.07517424038e-08
1.17236386803e-08
5.59196887645e-08
9.6753784539e-08
1.00781662546e-07
8.51404403915e-08
1.9288854776e-08
4.63005268748e-10
6.09496112863e-08
1.04149678166e-07
1.06623579803e-08
1.62208322646e-07
1.06151758214e-07
1.05138345596e-07
8.72604323748e-08
2.30518483372e-07
9.27889120032e-08
2.5740557477e-08
1.6003318966e-07
3.49477336707e-08
2.07193045251e-08
3.18520052598e-08
8.83155719889e-08
1.3363734992e-07
1.62081013282e-07
8.59238074918e-08
3.88184042961e-08
2.94663355177e-08
1.33789337147e-07
7.96099387564e-09
7.5114490191e-08
1.62570065987e-07
9.6620900738e-09
2.92813875348e-08
1.18147579169e-07
3.15586798012e-08
3.96168582306e-08
2.27624236469e-08
1.78445233648e-07
1.57271806243e-07
2.2419187786e-07
4.15557414382e-08
4.09439890915e-08
1.62897549145e-07
1.3289193006e-07
3.06504193888e-08
1.25710572899e-07
1.45771843797e-08
1.33552866214e-07
3.78935918467e-08
6.34291212488e-09
4.28279985491e-08
1.65915089025e-07
3.19518706508e-08
3.16840909725e-08
6.85616489736e-08
1.08965127862e-07
2.56196351067e-08
3.22686728156e-08
2.76754245286e-08
5.74534060597e-08
1.92504121084e-08
3.69867959883e-08
2.60897171977e-08
4.0216559751e-08
2.13879278174e-08
9.24948672607e-09
4.32309055321e-08
3.5027239723e-08
1.41241155696e-09
1.40247329889e-09
2.41376700085e-08
6.40694149446e-09
1.92571677337e-09
3.75421261038e-09
8.78900775027e-09
2.17851459378e-08
3.67796359643e-08
9.59290565069e-09
5.71090614064e-09
2.25591391009e-08
1.09154740509e-08
3.69023579063e-08
1.10932109601e-08
8.79159018375e-09
1.70277982114e-08
1.85961271908e-09
4.1288183656e-08
3.38254253338e-08
4.071928911e-08
4.8399631268e-08
2.14577003148e-08
2.54436397249e-08
2.29285664787e-09
4.20654434565e-08
3.28988741922e-08
2.87844075093e-09
5.62676445215e-08
4.19661948586e-08
1.15570290431e-08
1.11142766691e-08
4.79178158641e-08
1.62498659102e-09
1.75217147776e-08
1.05203097073e-08
1.49401838003e-08
1.15222358384e-08
1.8796446575e-09
1.75181408457e-08
1.7410140925e-08
6.01032349446e-09
1.63477003634e-09
2.91119114609e-08
1.33958301976e-08
3.68475226922e-08
1.35484188126e-08
1.07212963191e-08
4.91272076832e-09
1.22856864679e-08
4.45889753447e-08
4.00618443796e-08
2.90469383433e-08
2.43700662043e-09
5.07815537012e-08
1.65778351701e-08
1.97807469272e-08
5.45251737776e-09
1.54473085135e-08
2.01976767258e-08
2.0083032378e-08
1.18290286096e-08
3.83900626465e-08
1.65852440927e-08
1.32145658604e-08
1.90190856487e-08
2.81478922114e-09
3.40215574012e-09
2.84899140267e-08
2.92260639785e-08
6.31189398773e-08
5.97729794549e-08
2.91244028988e-09
2.13092922178e-08
3.33959271017e-08
5.62547677582e-09
3.83818104122e-08
4.03114032139e-08
1.8352438911e-08
6.81864134364e-08
4.74983651613e-08
2.70407072485e-08
3.10747179862e-09
1.18568121685e-07
5.85591704633e-09
1.75405142184e-09
6.16027238787e-09
2.54416473054e-08
6.11474361111e-08
2.83154342811e-07
2.14397260629e-08
7.37679904747e-08
1.04816282177e-07
7.4669397688e-08
1.54194245113e-07
1.240409355e-08
9.51709730346e-08
5.34784597773e-08
4.64865052728e-08
8.43839305915e-08
3.66992420798e-08
7.81597015887e-08
8.39916320485e-09
5.80647875308e-08
1.00287926717e-07
4.28086523429e-08
1.11526943016e-09
3.95307690374e-08
1.45284533382e-08
2.67576232579e-08
5.13562330839e-08
9.22247332791e-08
2.57317452334e-08
1.0658090406e-07
5.45472097691e-08
1.14374357398e-07
1.03556062322e-07
1.60754867158e-08
3.20301036883e-08
1.23509599364e-08
1.23985720106e-07
1.23335860686e-07
4.78848608204e-08
4.28145944088e-08
4.01938910062e-08
4.0682342785e-08
2.79517944297e-08
1.71038309971e-07
8.34113073217e-08
1.13245519634e-07
3.23863495252e-08
1.14392637858e-07
3.26636762544e-08
7.88683044937e-09
1.33128832663e-07
7.05327069444e-08
1.32948940779e-08
1.42737598831e-07
7.62577932869e-08
7.09370004713e-08
4.87604265352e-08
5.894379292e-08
5.4687203664e-08
6.89784193286e-08
1.5316594449e-07
1.75874020629e-09
7.07450835688e-08
5.40250391424e-08
1.1096496593e-07
1.32425095474e-07
7.34718618424e-08
6.14083507331e-08
6.340435632e-09
1.0041807914e-07
1.57122571873e-09
2.304219069e-08
8.32761510915e-08
1.18104655808e-07
8.53083110095e-08
2.78169109231e-08
5.74692553992e-09
3.51867834305e-08
4.66668224291e-08
2.38421883531e-08
6.56706626687e-08
2.2921172831e-08
5.9247446103e-09
4.20780423282e-09
5.59845162035e-08
6.09387983503e-08
2.55749577606e-08
1.40969811377e-07
8.53086296207e-08
7.93319849045e-08
7.44458784873e-08
2.84596415464e-07
4.8058168087e-08
4.67028697692e-08
9.93164241853e-09
1.98425754913e-08
8.25896113383e-08
1.93777313297e-08
2.42997867216e-07
9.83469514265e-09
1.92976173593e-08
1.08147482447e-07
3.67045903864e-08
1.0561437719e-07
1.71558007446e-07
1.72874256453e-07
2.81697557092e-08
6.2816834173e-08
1.53626759535e-07
4.03147462384e-08
7.66534878948e-09
2.38095253879e-09
2.91301240267e-08
2.5148158297e-08
5.55659641585e-10
7.28691484912e-09
1.66651780722e-10
1.90245201159e-08
2.97350500753e-08
4.1651679265e-09
2.2336749708e-08
1.21165593215e-08
8.05347157427e-09
1.31162153671e-09
2.72819433443e-09
4.87221465082e-08
1.22146795677e-08
1.70887398514e-08
5.68523651477e-08
1.18677764517e-08
1.35883577411e-08
1.75779803196e-08
3.97161733665e-08
2.17542825812e-08
1.66430088922e-08
9.00512531865e-09
1.62662150564e-08
1.29732476525e-08
1.19884234287e-08
1.96164064696e-08
1.70849748912e-08
5.98892064008e-09
3.09650341844e-08
5.72828575112e-09
1.3115839116e-08
4.00397177951e-08
4.02918471038e-08
1.19260289725e-08
6.87987835947e-09
2.75192404927e-08
7.95910091466e-08
1.67587866804e-08
3.41910081889e-08
5.22259563891e-08
2.87588270467e-08
5.98339001101e-08
6.28175178849e-08
1.32866676656e-08
1.42242870171e-08
3.50052903763e-08
1.26033745185e-08
2.10787938425e-09
7.377811059e-09
1.07329366746e-08
4.32856003448e-08
8.7614196229e-10
1.00647135917e-08
1.76277536783e-08
8.5505674111e-09
3.00286085688e-10
1.72728652773e-08
2.43436325373e-08
1.47662503887e-08
2.70299306149e-08
5.387772583e-09
2.88200969912e-08
7.36977481105e-08
3.14675135417e-09
2.55329111928e-09
2.70805232344e-08
4.07980749099e-09
6.77372181484e-09
1.24777822548e-08
1.2594671095e-09
2.18857740083e-08
2.89982671506e-08
6.49205754852e-09
7.31886245937e-10
5.27576753036e-08
7.55423819543e-09
1.70165089654e-08
2.85400111841e-08
3.99006019705e-08
1.51839616081e-08
2.64798956804e-08
2.85680933887e-08
1.10145395009e-08
6.81197771024e-09
7.42098237018e-09
1.83272517257e-08
2.39019239649e-09
1.41304351975e-09
1.24198884019e-08
9.20552476259e-09
2.47921110352e-08
5.92678472604e-08
8.68482413237e-09
8.5996306773e-09
2.79619320458e-08
1.75223834135e-08
2.35230285481e-08
7.03266233487e-10
2.34890873693e-08
2.62400833091e-08
9.8794612661e-09
2.28760250621e-08
1.46077640775e-08
2.41651295537e-09
1.69361725955e-08
4.25494139889e-08
5.37153578074e-08
5.3252886213e-09
4.27155523707e-08
2.67722217479e-08
3.72181158205e-08
4.29055358122e-08
8.2919641171e-09
6.00232370834e-08
4.31991564735e-08
6.46029911383e-10
3.81997797145e-08
4.76003738719e-09
2.67575156625e-09
1.84671967958e-08
1.86809292471e-08
2.41019789937e-08
1.89571127893e-08
4.51167676498e-08
1.69868009428e-08
2.42200130659e-08
3.86798037313e-08
3.08758369105e-09
1.8967973327e-08
5.28001647317e-09
2.1267542962e-08
1.25932891349e-08
3.35786069851e-08
1.67891767684e-08
6.66427196123e-09
4.54160691601e-09
1.65364316369e-08
8.31480472587e-08
3.88793446494e-08
8.45050969069e-08
8.84906127974e-09
9.16591172313e-08
3.17944277897e-08
2.84994471635e-09
1.16369690724e-08
3.51786712941e-08
9.5894393441e-10
3.63309275946e-08
6.72409508539e-08
1.20348660942e-08
8.36426868206e-08
6.13477049348e-08
4.04900585102e-08
3.00720601199e-08
2.5621897378e-08
3.03764520542e-08
5.6674763322e-09
1.01256866259e-08
1.77736909362e-08
1.25736405117e-09
1.46130502972e-08
3.24858156675e-08
7.70104268734e-09
4.30817438606e-08
1.75164517003e-08
1.37664299554e-08
3.12929433262e-08
4.72200038518e-09
1.63910146781e-08
2.31578155752e-08
2.10633048153e-08
3.63294457112e-08
5.67562352023e-08
8.80513737378e-08
2.56094499565e-08
6.67302716621e-08
6.05146931068e-08
4.92441632934e-08
9.65979962427e-08
6.79867327689e-08
5.20098444723e-08
1.46967864885e-08
1.85838525225e-08
2.66922699293e-08
7.86953535044e-08
4.88964461232e-08
1.71264958244e-07
1.80890241117e-07
9.67865305937e-09
8.02799752842e-08
1.06855045837e-07
5.42481282519e-08
1.00496544072e-07
4.0592442606e-08
3.92139338829e-08
5.03846539512e-08
2.06720910224e-08
1.46986517991e-07
8.31681159995e-09
8.17881601264e-08
4.45931042987e-08
2.79003659575e-08
3.92753298201e-08
1.25992346262e-08
5.21752079937e-08
1.05490867172e-08
7.68194650553e-08
5.66472491085e-08
1.66772877496e-07
7.25570215043e-08
5.72600473928e-08
1.12359883136e-07
1.42607710423e-07
4.80446646075e-08
1.18326953516e-07
1.83698474614e-07
3.90260077454e-08
1.33534735565e-07
1.5396816396e-07
4.57988599601e-08
6.38153557681e-08
5.24557002722e-08
1.07687696759e-07
2.47015697438e-09
2.79451751443e-09
1.33127418408e-08
1.21619144269e-07
5.00205744235e-08
1.38421774078e-07
6.21713698342e-08
1.02934185379e-07
3.67235755558e-08
7.90053526518e-08
1.82876820487e-08
3.57679078166e-08
1.7761021947e-08
4.04165458091e-08
4.91699379118e-08
1.53410632387e-07
5.80518106056e-09
1.01234795045e-07
1.50075283391e-08
1.5411425571e-08
1.55781029533e-07
1.39962233775e-07
2.13629639471e-07
1.5585390293e-07
2.10299973324e-07
1.87965768625e-07
2.79173098133e-07
2.50244984031e-07
5.07436720094e-08
6.71280193212e-08
9.41462375733e-08
7.79676544017e-08
1.0195165582e-07
2.10152102354e-07
3.07457291402e-08
1.3586846228e-08
4.75173082929e-08
2.12898998433e-08
1.5736989424e-08
4.78870810275e-09
4.88613651161e-08
1.03506985873e-08
4.80640215241e-08
7.35486013721e-08
3.55261017591e-08
1.03450381497e-07
6.70544351121e-08
5.99061055165e-08
4.97292752475e-08
1.61366260236e-08
5.05490304398e-08
3.35437087636e-08
6.01839502438e-08
3.6630469891e-08
7.66669210824e-09
1.85038649694e-08
8.01330394896e-08
1.88071507452e-07
1.28205933194e-08
6.45027126625e-08
1.44812922468e-08
5.72960916099e-08
1.72724270415e-08
3.53377060328e-08
1.09414349351e-07
5.53628994584e-08
9.88299357081e-10
5.81537256489e-08
7.63720246019e-08
6.26195114115e-08
1.77856517655e-08
9.99436460495e-09
3.5816528266e-08
4.37979939701e-09
3.50573808886e-08
2.69730273969e-08
2.42265145658e-08
5.85523404462e-08
6.58097130189e-08
1.31046551895e-07
1.04504293098e-07
4.54888047747e-08
5.00324350743e-08
3.10073480209e-10
1.94393798497e-08
4.53636895543e-08
6.93194212533e-08
1.47260679593e-09
2.07250394329e-08
1.68517191404e-08
6.04332249146e-08
1.16079995441e-08
1.08862644179e-08
7.15512384772e-09
3.67319990372e-09
1.89781192702e-08
5.29399535076e-09
1.91558107265e-09
9.21556192819e-09
1.01397083734e-08
1.86413354259e-08
2.64432014143e-08
2.03096254021e-08
1.3978111788e-08
3.56087867436e-09
9.62435561357e-10
4.626820079e-09
2.55541867008e-08
2.54534653241e-08
4.1510085179e-08
1.72215043982e-08
4.35091469579e-08
5.50018959568e-09
4.35555963752e-08
5.43761894004e-08
2.39343477334e-08
8.70408091818e-09
4.35734860371e-08
5.99756732919e-08
2.11688004518e-08
4.91523081911e-08
1.02897446117e-08
4.85008414525e-09
9.05100250068e-09
2.47999950758e-08
9.40376718294e-09
2.01535426428e-08
1.21714828828e-08
9.63391030193e-09
1.0432893054e-08
7.06287069725e-09
6.15775280692e-09
2.44078201804e-08
1.70030925451e-08
6.30302925678e-09
1.59823656974e-08
8.51594128313e-10
2.65744642479e-08
3.30379901672e-08
1.68316362713e-08
4.56547469127e-08
1.57788236505e-08
2.98361036122e-08
2.27609445025e-08
8.05232192186e-08
3.54872819168e-08
5.55790969323e-08
5.54059945781e-08
4.77585837873e-08
4.87712914813e-09
5.17240014648e-10
2.93325469036e-08
2.47498167506e-08
5.64145196699e-08
5.67803837065e-08
4.27322000417e-08
1.80941990322e-08
3.21602619558e-09
1.89098291405e-08
4.13657981066e-08
2.18400544648e-08
3.08280284433e-08
1.71564000831e-08
4.46934463871e-08
2.25067827042e-08
1.53383197663e-09
7.06758202768e-08
1.54581958927e-08
8.69507500966e-09
1.03940730548e-08
7.0200801951e-09
3.51210130354e-08
6.61635449891e-09
2.51994906834e-08
2.97728521001e-08
1.54406028362e-08
6.944816237e-09
3.90506159425e-09
5.10065431977e-08
8.3020378609e-09
2.85079457442e-08
3.6831893095e-08
6.13774782071e-08