# vtk DataFile Version 3.0
File Name: Molecule/sphere_excent/sphere_excent_0-s4.vtk
ASCII
DATASET UNSTRUCTURED_GRID
FIELD FieldData 1
TIME 1 1 double
0.0
POINTS 2562 double
0.85063952208 -0.52574938536 2.4609347747e-05
0.85930943489 -0.50776737928 -0.061042908579
0.88258612156 -0.47011488676 0.00020952628984
0.89169090986 -0.44816425443 -0.063545703888
0.86460953951 -0.48661443591 -0.12500111759
0.91233330965 -0.4094107151 0.00015003673616
0.89646196365 -0.42398330569 -0.12880305946
0.92067563534 -0.38482102752 -0.065309748054
0.92406004667 -0.3591042459 -0.13097853959
0.86594325304 -0.46290761232 -0.18925349414
0.89642637968 -0.39849317074 -0.19396710396
0.86312234402 -0.43638950586 -0.2540910542
0.93822228909 -0.34597277641 0.00010748770728
0.94535273314 -0.31933605671 -0.065825052559
0.96017128229 -0.27937272191 5.6921493524e-05
0.89226812124 -0.36953988671 -0.25940918922
0.92279517651 -0.33094537258 -0.1972874105
0.91680008173 -0.3007170856 -0.26276445389
0.94444972277 -0.26146322489 -0.19912354648
0.94748848677 -0.29097396135 -0.132657215
0.96602392197 -0.22108484805 -0.13385671377
0.93651425838 -0.22982467711 -0.26480287313
0.96109127998 -0.19006827474 -0.20044068992
0.95103752613 -0.15684764087 -0.26630654931
0.96575975418 -0.25064077973 -0.06695176661
0.85609441996 -0.40785956383 -0.31738367677
0.88342994452 -0.33951085806 -0.32292935252
0.84473514557 -0.3769466877 -0.37990188599
0.87011778355 -0.30690252781 -0.38562214375
0.90604066849 -0.26885318756 -0.32681378722
0.89056771994 -0.23464599252 -0.38964644074
0.82911300659 -0.34408405423 -0.44064998627
0.85220879316 -0.27223619819 -0.44679245353
0.80902564526 -0.30901905894 -0.49998360872
0.92363095284 -0.19619846344 -0.3292452991
0.97731816769 -0.21172748506 3.6417637602e-05
0.98109102249 -0.18150137365 -0.067208558321
0.98983806372 -0.14217025042 1.6264848455e-05
0.9794973731 -0.14999979734 -0.13447640836
0.99159109592 -0.11035919935 -0.067576356232
0.98782020807 -0.077291578054 -0.13502293825
0.97249233723 -0.11713775992 -0.20131509006
0.99741983414 -0.071752719581 -2.7260830393e-06
0.99697393179 -0.03800066188 -0.067783974111
0.99999946356 -8.801112017e-06 -2.7097096336e-06
0.82872968912 -0.23411104083 -0.50832539797
0.86924445629 -0.19664569199 -0.45359033346
0.84282249212 -0.15724669397 -0.51470148563
0.88069838285 -0.11886600405 -0.45852065086
0.90497237444 -0.158171013 -0.39497664571
0.91371768713 -0.079931385815 -0.39840972424
0.85126394033 -0.078972361982 -0.51875156164
0.8864813447 -0.039941009134 -0.4610363543
0.85412245989 7.2767099482e-05 -0.52006471157
0.93534135818 -0.11905397475 -0.33310890198
0.88640880585 0.040240783244 -0.46115005016
0.91669327021 0.00015905660985 -0.39959087968
0.91367077827 0.080213367939 -0.39846041799
0.94144320488 0.040244914591 -0.33476054668
0.94146591425 -0.0399434641 -0.33473274112
0.96317303181 0.00012883910676 -0.26888090372
0.93530863523 0.11931796372 -0.33310696483
0.96009671688 0.079208813608 -0.26821556687
0.95103013515 0.15687854588 -0.26631468534
0.960095644 -0.07896026969 -0.26829180121
0.85130625963 0.079127371311 -0.51865845919
0.88075202703 0.11913844943 -0.4583465457
0.84287983179 0.15740591288 -0.51455914974
0.86924153566 0.19682762027 -0.45351722836
0.90500760078 0.15838214755 -0.39481157064
0.89060986042 0.23462297022 -0.38956385851
0.8288077116 0.23425726593 -0.50813055038
0.85228437185 0.27222388983 -0.44665572047
0.80902057886 0.30901524425 -0.49999418855
0.92364621162 0.19616273046 -0.32922327518
0.97852754593 -0.039133116603 -0.20236600935
0.97851008177 0.039443843067 -0.2023910135
0.99080497026 0.00011901040853 -0.13529679179
0.98780274391 0.07734438777 -0.13511987031
0.97247189283 0.11715760082 -0.20140169561
0.99696272612 0.038100015372 -0.067891076207
0.78489226103 -0.27227807045 -0.55660033226
0.80203807354 -0.19649122655 -0.56402564049
0.75700491667 -0.23471564054 -0.60978984833
0.77145451307 -0.1579708308 -0.6163623333
0.81347477436 -0.11872255802 -0.56935280561
0.78027576208 -0.079602003098 -0.62034797668
0.72540402412 -0.1960722059 -0.65979146957
0.73745256662 -0.1188018024 -0.6648645997
0.69057381153 -0.15697209537 -0.7060071826
0.8191819191 -0.039775058627 -0.57215178013
0.69929599762 -0.079026974738 -0.71045041084
0.74311864376 -0.039864763618 -0.66796982288
0.70233595371 7.6460579294e-05 -0.71184438467
0.74311262369 0.040126673877 -0.66796088219
0.78299057484 0.00013486843091 -0.62203216553
0.78031921387 0.079838916659 -0.62026274204
0.69930195808 0.079185143113 -0.71042722464
0.73749399185 0.11901509762 -0.66478079557
0.690536201 0.15702615678 -0.70603221655
0.81921637058 0.03999883309 -0.57208681107
0.65232628584 -0.11684104055 -0.74885094166
0.65877103806 -0.039034925401 -0.75132721663
0.61174917221 -0.077151536942 -0.78726059198
0.61499190331 8.1026570115e-05 -0.78853577375
0.65882629156 0.039302956313 -0.75126570463
0.61164408922 0.077264241874 -0.78733170033
0.56895262003 -0.037621334195 -0.8214892745
0.5688021183 0.03776787594 -0.82158702612
0.52574914694 1.2214726667e-05 -0.85063964128
0.65224945545 0.11693302542 -0.74890393019
0.81351488829 0.11893267184 -0.56925159693
0.77144902945 0.158064574 -0.61634516716
0.8020979166 0.19665573537 -0.5638833642
0.75699400902 0.23473225534 -0.60979712009
0.72537088394 0.19610449672 -0.65981823206
0.7848919034 0.27228331566 -0.5565983057
0.99742919207 0.071624308825 -0.00016430483083
0.9915946722 0.11022224277 -0.067749544978
0.98985558748 0.14204719663 -0.00017130971537
0.97948348522 0.14990274608 -0.13468550146
0.98111772537 0.1812723428 -0.067437082529
0.96603316069 0.22096481919 -0.13398776948
0.96110993624 0.18987604976 -0.20053288341
0.97735106945 0.21157737076 -0.00017455712077
0.96575677395 0.25060504675 -0.067126974463
0.96019870043 0.27927979827 -0.00010770620429
0.93647152185 0.22973389924 -0.26503220201
0.94444531202 0.26135954261 -0.1992803067
0.91677558422 0.30064621568 -0.26293084025
0.9227938056 0.33081954718 -0.19750513136
0.94750481844 0.2908603251 -0.1327893734
0.92410391569 0.35890993476 -0.13120156527
0.89227503538 0.36948415637 -0.25946456194
0.89650148153 0.39827275276 -0.19407185912
0.86314976215 0.43632283807 -0.25411301851
0.94538789988 0.31916797161 -0.06613188982
0.90606552362 0.26868385077 -0.32688400149
0.8701274395 0.30673620105 -0.3857332468
0.88346475363 0.33931797743 -0.32303652167
0.84478461742 0.37679305673 -0.37994411588
0.82915425301 0.34390929341 -0.44070926309
0.8561514616 0.40771639347 -0.31741422415
0.93827867508 0.34582170844 -0.000206755416
0.92068439722 0.38474977016 -0.065600052476
0.91239243746 0.40927866101 -0.00016536112526
0.8964908123 0.42387956381 -0.1289447844
0.89178061485 0.44794330001 -0.063854858279
0.86462372541 0.48658671975 -0.12501320243
0.86600196362 0.4627905488 -0.18927446008
0.88267070055 0.46995732188 -0.00017540174304
0.85929608345 0.50778913498 -0.061052199453
0.85066366196 0.52571028471 -5.8351411099e-06
0.8215624094 0.56885319948 -0.037524659187
0.82805633545 0.55112576485 -0.10288372636
0.78734385967 0.61164748669 -0.077112480998
0.83104848862 0.52985811234 -0.1691274792
0.79185438156 0.59326004982 -0.14493237436
0.7930405736 0.57109975815 -0.21196685731
0.8305631876 0.50506645441 -0.23467603326
0.7489784956 0.65217542648 -0.11686255783
0.75137466192 0.63320112228 -0.18572211266
0.70608752966 0.69048893452 -0.1569827199
0.82528293133 0.47797140479 -0.3007427752
0.79011917114 0.54563564062 -0.2792698741
0.7829053998 0.51739543676 -0.34548428655
0.74529582262 0.58371788263 -0.32218936086
0.75014996529 0.61027890444 -0.25462314487
0.70324105024 0.64628005028 -0.2962642014
0.73602968454 0.55423539877 -0.38869300485
0.69625812769 0.61858171225 -0.36411571503
0.68470883369 0.58777880669 -0.43090903759
0.70634508133 0.67038416862 -0.22728157043
0.81622862816 0.4482447207 -0.36448159814
0.80255883932 0.41622722149 -0.42737874389
0.77153968811 0.48650515079 -0.40992456675
0.75553745031 0.45313537121 -0.47310191393
0.78442788124 0.38190287352 -0.48869094253
0.72229516506 0.52197366953 -0.45367786288
0.65994006395 0.72525632381 -0.19611673057
0.65815365314 0.70402663946 -0.26679521799
0.60993272066 0.75687032938 -0.23477892578
0.65265876055 0.67883783579 -0.3364738822
0.60596114397 0.73432219028 -0.3059091866
0.5981657505 0.70776665211 -0.37584322691
0.64322471619 0.6499055028 -0.40481504798
0.55676025152 0.78475511074 -0.27234572172
0.55017703772 0.76093363762 -0.34391990304
0.50000780821 0.80901241302 -0.30901476741
0.76088118553 0.34382674098 -0.55030786991
0.73390293121 0.41560810804 -0.5372672677
0.70771723986 0.37579780817 -0.59825253487
0.67823028564 0.44643732905 -0.58369278908
0.70251768827 0.48574459553 -0.52011615038
0.64465504885 0.5152733326 -0.56472343206
0.6498554945 0.40482133627 -0.643271029
0.61804139614 0.47426864505 -0.62697136402
0.58773392439 0.4309296608 -0.68473422527
0.66693276167 0.55334591866 -0.49900704622
0.55316895247 0.49893897772 -0.66713064909
0.58171182871 0.54184418917 -0.60664302111
0.51508426666 0.56470692158 -0.64482039213
0.54161757231 0.60668438673 -0.58187973499
0.60649520159 0.58193457127 -0.54177063704
0.56457453966 0.64481681585 -0.51523399353
0.47406709194 0.62698554993 -0.61818182468
0.49885374308 0.66709840298 -0.55328470469
0.43089658022 0.68471646309 -0.5877789855
0.62683838606 0.6181820035 -0.47426110506
0.5219284296 0.45380142331 -0.72224998474
0.48563939333 0.52015900612 -0.70255863667
0.45311439037 0.47323912382 -0.75546425581
0.41553550959 0.5372812748 -0.73393386602
0.44638109207 0.58368903399 -0.67827051878
0.37587660551 0.59823477268 -0.70769047737
0.38191249967 0.48883312941 -0.78433430195
0.34393593669 0.55030488968 -0.76083403826
0.30901730061 0.50001263618 -0.80900835991
0.40486335754 0.64324694872 -0.64985311031
0.58345973492 0.6783669591 -0.44653397799
0.51988857985 0.7026219368 -0.48583760858
0.53711622953 0.73396539688 -0.41569292545
0.47308385372 0.75548905134 -0.45323494077
0.45369195938 0.7222469449 -0.52202785015
0.48863786459 0.78438735008 -0.38205373287
0.73439133167 0.30592018366 -0.60587209463
[...]
CELL_DATA 5120
SCALARS cell_data_0 double
LOOKUP_TABLE default
3.3628770834e-09
1.16529186277e-08
1.33806928855e-08
5.54540965055e-09
1.15502700151e-09
4.78763174938e-09
2.08662907685e-08
1.1074057967e-08
1.25387974395e-08
1.01758143331e-09
1.68234567838e-09
1.06256805771e-08
9.89738423454e-09
1.70650919567e-08
4.37441917065e-09
1.14330833901e-08
9.87811817325e-10
4.69488895915e-10
4.73165610813e-09
3.62718457001e-09
5.36320657176e-09
2.50037365556e-10
1.63039667535e-08
2.56212808027e-09
2.30865061979e-09
5.18505806866e-09
1.06637773287e-08
1.93678178409e-08
4.10477236188e-09
4.64246447934e-09
1.56074545044e-08
1.93597128249e-08
2.06775474642e-09
1.65811272702e-08
4.92296667124e-09
1.54530207195e-08
1.5578887178e-08
2.24818069445e-08
2.0367655468e-08
2.95593499942e-09
1.74256049436e-08
1.72982775623e-08
3.68929469635e-09
1.12022085052e-08
3.11197998262e-08
2.54812602282e-08
1.03231891186e-08
1.73622143165e-08
2.08087878037e-08
2.00831944181e-08
2.25420503141e-08
1.45330417153e-08
3.7146449918e-08
2.71029274151e-09
1.49590324134e-09
1.16074344464e-08
4.0159540919e-08
2.89519791665e-09
1.20605838575e-08
6.72534092523e-09
8.90051878768e-09
1.29718838091e-08
1.98322559975e-09
1.70114611172e-08
5.29481483243e-10
1.72701893091e-09
4.46595936306e-09
4.50081632655e-09
7.05010507267e-09
1.07933572328e-09
1.10313359245e-08
8.80102456486e-10
6.96262164801e-09
1.6540702226e-08
1.28628209809e-08
6.60210049333e-10
4.74243844186e-09
8.41256596657e-09
3.03868122479e-09
2.38622272828e-09
3.36527168262e-09
8.36082630674e-10
2.11007904558e-09
4.20241529287e-09
5.23318516648e-09
1.0708936115e-08
6.01859460088e-09
3.10708276965e-09
1.49128402731e-08
3.30100513878e-09
9.66654316599e-09
2.85753128897e-09
5.71045373312e-09
9.55465499559e-09
6.00293462506e-09
6.66869647056e-09
1.17586398244e-09
4.12947650908e-09
9.72188449151e-09
3.34111563035e-09
9.99630267735e-09
1.01671591402e-08
1.80397006765e-08
3.46763495169e-10
3.6327368944e-09
7.40924712085e-09
4.52321299102e-09
1.01248735536e-08
8.98045578928e-09
1.12442043882e-09
1.78897990231e-08
9.24017246304e-09
2.31444586416e-09
1.21491417876e-09
6.45822264258e-10
8.1052699057e-10
1.72111020487e-09
2.83289224855e-10
3.49370416492e-09
3.85936006481e-09
1.20078457284e-09
5.24313679452e-09
4.30313612135e-09
6.40893095715e-09
5.99464919925e-10
7.08307713842e-09
1.12059378644e-08
2.02678615961e-08
8.19589892893e-09
4.39328833396e-10
3.88828902353e-09
5.63891766789e-10
1.88067426114e-09
4.35128741111e-09
1.01951559323e-08
1.29961401097e-10
3.48493449748e-09
6.27243444813e-09
9.62816874844e-10
9.18791813796e-09
1.64613910101e-09
7.42088583702e-09
8.83257179378e-09
1.00344023819e-08
7.55897677411e-09
5.71859829745e-09
4.75174919988e-09
1.77110423545e-08
1.09326021298e-09
7.09990189041e-10
1.34613785276e-08
1.32245531923e-08
6.1218175923e-10
3.68902865062e-10
3.84517699432e-09
4.72916138984e-10
5.94600927474e-09
2.82622414158e-09
8.77620779684e-09
2.42202656371e-09
5.71455283224e-09
1.68865004124e-09
1.03730652049e-08
4.48790253893e-09
1.39995277339e-08
4.79872805735e-09
5.96668002485e-10
1.80986453181e-08
8.39812937214e-09
5.80932443829e-09
1.4988283618e-09
4.72462248911e-09
1.9727650929e-08
1.54489036011e-08
3.25532795879e-10
1.08514207506e-09
3.08216370626e-09
1.44095565405e-08
8.64729516343e-09
1.37475693904e-08
6.27070801195e-10
4.06728391906e-09
1.82817352549e-09
1.40162871891e-09
1.3498728695e-10
4.95460580396e-10
5.51772998681e-09
2.77413099367e-09
1.95405929841e-09
2.28175836617e-09
1.47442503633e-09
9.08487456163e-10
1.77307654638e-08
1.54054960111e-08
8.5640252448e-09
1.84770103763e-08
1.7267156877e-08
2.64425420699e-08
1.60201749779e-08
6.65872870061e-09
6.82873475023e-09
6.32141396875e-10
5.7815937466e-09
3.50478919647e-09
2.58874835224e-08
1.34429772877e-08
1.85821191522e-08
1.19622543222e-08
4.9067059606e-09
1.36684329136e-08
1.71810822216e-08
3.5708343851e-09
1.26027788503e-09
6.77000100752e-09
1.19553542899e-09
3.37953012487e-09
1.14442139606e-08
3.19388972598e-09
6.54485645013e-09
4.1956462177e-09
4.8690963212e-09
1.14083682229e-08
1.51834770389e-08
3.04646356082e-09
1.0571190687e-08
1.62664948126e-08
1.05748644106e-08
7.32613402501e-09
2.98610009302e-09
4.89912923976e-09
7.60208973401e-10
7.91793436243e-09
7.74664532937e-09
2.02493170081e-09
1.03984078949e-08
6.93088599973e-09
1.01049303889e-08
1.87262370236e-08
3.91657458322e-09
8.19225066507e-09
3.34340912988e-08
8.54478339412e-09
4.85814483324e-09
9.65940374864e-10
3.40729019211e-10
5.71264143266e-09
1.64437519093e-09
4.3357246466e-09
9.05041304069e-09
4.32959956236e-09
7.15149121743e-09
8.66635614497e-10
2.50221128824e-09
5.78824003364e-09
3.13378649795e-09
1.53392864409e-08
2.8395781575e-08
4.32871522347e-09
5.94760290777e-09
1.62898332671e-09
6.14790452393e-09
6.81293922735e-09
5.33555492654e-09
7.3503689111e-09
9.64183814644e-09
1.13497854026e-08
4.94571222155e-09
6.51026124631e-09
1.05554574107e-08
1.38460997314e-08
1.80428109072e-09
1.08240427888e-08
4.21733024609e-09
3.32837560009e-10
1.0327318716e-08
6.15567030891e-10
6.83111001763e-09
3.70054079304e-09
1.4747856079e-08
4.06337847313e-09
1.3585547678e-09
1.61314317736e-09
5.72448694941e-09
1.0647299519e-08
3.94050540302e-09
7.05422121287e-09
1.6889019713e-08
1.95421231547e-10
3.0790204544e-09
1.22540958202e-08
4.73480386376e-09
2.75004199476e-09
1.60336596729e-08
1.51484287491e-08
2.19255597425e-08
8.18816376569e-09
6.43022574677e-09
5.62881056503e-09
1.42621633885e-08
1.56744540417e-08
1.08016752016e-09
6.36726277092e-09
7.69140936053e-09
5.78380673426e-09
1.32414607912e-09
6.91509455318e-10
1.12264380317e-08
8.65568378367e-10
8.75012425568e-09
3.61262230983e-08
1.93181333199e-08
9.87496182438e-09
1.82548957769e-08
1.57156279854e-08
1.36634562832e-08
2.04052126397e-08
2.52522346037e-08
1.20034825386e-08
5.52149740379e-09
1.00569983058e-08
7.15029345053e-09
1.67397752552e-08
3.07973444832e-09
5.82009128137e-09
1.20934229681e-08
1.00901363733e-08
3.65091172687e-10
1.72879719728e-08
2.06338028033e-08
7.05787276917e-09
2.49532915653e-09
1.15079229984e-08
2.79103476798e-08
1.60511133449e-08
1.02220341197e-08
9.79176223292e-09
1.7099095485e-09
8.90582808145e-10
3.1622179904e-09
4.38148214501e-09
1.51848160262e-08
1.06940676692e-08
1.55442637441e-08
3.26209226413e-09
1.58931270862e-08
6.81438190933e-09
1.95705218816e-08
1.29556470864e-08
8.37354816124e-10
3.07710810833e-09
4.67031646861e-10
1.70659058054e-08
3.21284534879e-09
3.82254321629e-09
1.85023713478e-09
5.56226882657e-09
7.16034281166e-09
1.00692176468e-08
1.29491528573e-09
8.4151541841e-09
1.35880807626e-08
8.66317351302e-09
2.11343685654e-09
7.16538495366e-09
7.6489865127e-09
6.39465377526e-09
9.17905943729e-09
1.26210712419e-08
3.07845072879e-10
1.68657206991e-08
1.73752566711e-09
6.43227243936e-09
5.56846063007e-09
9.874575484e-09
2.07124710771e-08
1.29458370839e-08
5.35352457186e-09
1.1913588239e-08
1.28010699341e-08
3.96715471744e-09
5.00498909875e-08
4.40052901194e-08
2.36032777727e-08
6.29711713722e-09
8.71923175521e-09
6.61667216978e-10
7.19501645268e-11
1.78890485305e-09
5.12486730003e-09
3.45673836859e-09
9.00232587113e-09
8.95844885911e-09
9.75954870669e-10
5.64002111949e-09
8.87485107613e-09
1.73274622858e-08
1.27240371059e-08
1.54193736217e-08
1.70026666591e-08
2.54771767129e-09
1.55270993702e-08
4.96004630284e-09
3.6718541951e-09
6.99203655581e-09
4.22201127041e-09
6.64997444615e-09
5.21151569975e-09
1.60766234306e-09
9.59911304884e-10
3.08619393332e-09
3.10360685721e-09
1.03576937064e-08
1.69360857061e-09
1.52410110778e-09
2.47113924899e-09
9.63271467059e-10
1.32434735166e-08
1.74986602102e-09
9.69062692094e-10
1.18857001264e-09
1.31219150023e-09
2.70937036303e-10
5.99167986749e-10
9.42229018448e-10
1.01115309054e-09
1.01058375841e-09
3.93952599415e-09
1.15170598562e-09
4.61717842863e-10
2.34497216618e-09
1.68124597393e-09
7.87812199474e-10
7.82655105413e-10
4.38014327135e-09
2.00035834214e-09
2.03512504241e-09
3.25786471673e-10
6.9234867338e-10
6.28209123041e-09
6.16791363142e-10
1.04557978428e-08
6.11645698101e-10
1.44664223823e-09
5.44954920955e-09
5.84934718503e-09
1.07033789435e-08
5.57032313868e-09
3.27278635924e-09
7.42818832207e-09
1.03985092401e-09
4.76873704235e-08
7.09054339185e-09
1.42701271764e-08
3.81648970174e-08
1.58525193602e-08
2.9170323056e-09
3.00964998146e-08
2.45692545715e-09
5.65406724983e-10
3.21155814262e-08
8.18455977185e-09
2.21148021538e-09
4.41005103668e-08
2.69659737336e-08
3.16487321623e-09
6.26495776215e-10
2.48923822643e-09
6.36002805435e-10
1.3030553712e-09
6.76021904257e-10
2.10063992118e-08
2.90308498809e-08
4.80483849535e-10
2.03734767101e-10
2.93175559812e-09
1.42637094593e-09
2.9522664268e-08
3.72732863235e-08
1.24295714336e-08
9.01782589601e-10
2.92011721964e-09
4.51565506733e-09
4.40721315009e-09
1.74988064784e-09
3.83758283506e-09
5.20959048397e-09
5.52091396728e-09
4.86067874808e-11
1.22733606056e-08
1.46775683386e-09
6.28321095088e-09
6.27681700756e-10
1.38399140012e-09
3.84979832439e-09
2.08099045504e-09
5.27433712852e-09
1.08977462996e-09
7.80449607469e-09
3.01103119977e-08
6.62747936589e-09
2.35692640031e-08
1.89044148316e-08
1.09829294598e-08
1.99449430467e-08
1.32359450628e-08
4.8732202016e-09
1.60566321199e-09
8.02250715096e-09
1.91817990287e-08
1.8660461403e-08
5.10466874808e-08
3.13821134936e-08
2.79487380321e-08
2.81416223736e-08
4.0490122539e-08
2.26678986244e-08
2.71031550402e-08
9.45852412493e-08
3.30617848239e-08
1.2870627447e-09
1.93242373579e-08
2.20083434972e-08
6.99263050591e-09
6.02524856112e-09
1.18284222762e-08
3.02170703033e-08
1.82252104435e-08
2.21525278414e-08
6.01603927561e-09
1.04962777335e-08
5.19411510877e-10
4.32109700564e-08
3.18510322029e-08
4.70786123856e-09
1.55061533239e-09
6.54507280672e-09
6.21232235762e-09
5.94562150211e-09
1.82468512684e-09
5.45622568949e-09
6.37849270014e-09
1.06852416847e-08
3.96798755172e-09
2.30959735082e-08
6.51325009494e-09
7.54972921573e-09
8.73644891399e-09
1.53563887363e-08
3.56492912368e-09
1.71634409847e-08
3.47262794873e-09
2.90424902396e-09
2.08922396873e-08
8.1209669681e-09
1.06766008985e-08
5.18009506802e-09
2.26049165041e-08
1.93444954616e-08
8.18106741552e-09
2.28093274364e-09
4.54445109041e-08
2.5972729155e-08
3.26857548447e-09
1.89544334206e-08
6.43565465095e-09
1.29798263948e-08
1.26043317483e-08
9.91643334922e-09
2.29014748524e-09
2.15859364125e-09
3.59936017273e-09
8.13414191185e-09
1.4837306205e-08
3.52749815814e-08
3.83244652139e-08
2.96895841786e-09
5.38120023375e-09
1.92696434087e-09
4.77183186168e-09
9.81907756067e-09
2.21468178806e-09
3.57770194814e-09
8.77519940094e-10
2.93293389781e-09
8.70616904341e-10
4.04674105448e-09
6.450308047e-10
1.81698358961e-09
1.61338903016e-08
1.44386074895e-08
7.55341862884e-10
8.68352148464e-09
8.3789797276e-10
9.86307215089e-10
1.2810065442e-09
4.56938171375e-09
1.17076714111e-09
2.61861847154e-09
1.86361410876e-09
6.7411764932e-09
3.39388200161e-09
1.02305006777e-08
1.80377876269e-09
3.64017297508e-09
7.21229934317e-09
1.07934381581e-09
4.7750361538e-09
1.12004161388e-08
9.395385342e-09
1.54341684699e-08
4.03425581443e-09
1.31930133672e-09
5.85495067327e-09
3.16819498352e-08
3.13842909514e-08
1.37616006839e-08
2.28830880447e-08
2.87864811823e-10
3.438899176e-09
1.48677658837e-09
2.87575662582e-08
1.53233892818e-08
1.79761170054e-08
1.12816679351e-08
4.49512567379e-09
6.33531798019e-09
2.08221393038e-09
3.61770602422e-09
1.40503453088e-08
1.85306816207e-08
2.53424275597e-08
2.35007774233e-08
2.18267242304e-08
1.78829314211e-08
7.9852548279e-09
2.5426428991e-08
3.91028850879e-09
2.43337865689e-09
2.51479359146e-08
1.38170536113e-08
3.4323591638e-09
1.00944553965e-08
6.83464398484e-09
6.63956760852e-09
1.36507159604e-09
2.92388105279e-09
1.36725134777e-09
1.39760672974e-09
5.33790871077e-09
9.35982612244e-09
1.24515636818e-08
1.02484902901e-08
6.45310668561e-09
6.50204638062e-11
7.36565816377e-09
5.19869854594e-09
3.23763880468e-09
8.88848543936e-09
6.85912348034e-09
2.49767868383e-09
3.01839997808e-09
8.74912205201e-10
2.33205850213e-10
1.35722699098e-08
5.31095109932e-09
8.086237981e-09
2.37321650483e-09
9.79876932962e-10
9.48905792766e-09
7.26761201475e-09
7.93505467958e-09
5.0928774448e-09
2.68127785081e-10
4.48612615652e-09
4.2422816133e-09
7.17350696301e-09
3.78664070024e-09
4.16775248255e-10
1.21929043262e-08
3.34123239956e-09
4.74121397246e-09
6.12796899238e-09
3.2867603869e-08
4.34400251177e-09
3.87371420474e-09
4.20105347042e-09
1.95974814069e-08
1.48856194372e-09
1.1544951227e-08
4.42309559946e-10
2.6870287279e-09
1.31944096694e-09
8.09010694508e-09
2.6797471678e-09
6.28833083932e-10
2.44686827349e-10
2.45796781372e-09
7.26550278339e-10
1.81972457191e-09
1.63964111634e-09
8.80390526369e-09
9.32539681887e-09
1.70808755153e-09
2.95481759429e-08
3.20494916478e-09
2.68689081594e-08
6.96624813368e-08
3.26458608725e-09
3.67398156178e-08
1.35402655089e-08
2.90635453752e-09
4.63337143919e-08
1.7719284375e-08
5.88112249184e-08
1.73458465149e-08
4.0304660646e-08
2.7917739934e-11
1.3998928938e-08
1.23046708274e-08
1.19669797122e-08
1.36863368898e-08
9.85648553745e-09
1.49722026806e-10
5.95565130085e-09
1.34774049233e-08
7.13205937785e-09
1.19540029976e-08
1.55660916614e-09
2.21146974843e-09
4.66963032331e-09
5.74875776382e-08
4.43732124948e-09
2.18861749775e-08
2.25995202296e-08
6.64894424688e-10
1.13960248252e-08
1.30738108092e-08
9.6794821483e-09
2.30961254117e-08
2.75564642422e-09
1.44550254405e-09
2.69110682124e-08
3.06526606729e-09
5.88696945431e-09
2.24196293097e-08
4.71116417786e-08
2.33414461461e-08
1.25998267803e-08
2.24747219397e-08
1.39753295475e-08
2.03048127534e-08
1.03359793848e-09
3.87480364916e-09
9.5887786237e-09
2.00411078468e-08
6.55910823033e-09
2.39194059031e-09
1.23578498355e-08
3.7319798006e-09
5.55518757393e-09
8.96012771956e-09
1.75219185336e-08
1.40240005441e-08
4.03794330467e-08
2.35048187746e-08
1.03603505521e-08
1.54799661124e-08
6.9427027987e-09
4.81036955028e-08
1.99752655606e-09
1.76229283417e-08
1.19651809877e-08
2.52930580352e-08
3.74044779873e-09
1.77023884987e-08
9.47232015035e-09
9.50964524808e-09
8.76408118649e-09
3.13780197761e-08
8.00724218997e-09
1.35406760551e-09
3.1367451218e-08
3.46074717704e-09
9.43828677224e-09
9.27523894394e-09
1.00655590631e-09
3.54983879021e-09
1.20892331767e-08
1.83248237191e-08
1.79938586633e-08
7.69391055614e-09
1.3707327047e-08
2.31869965224e-08
9.62461339569e-11
5.89741475259e-08
9.31564611218e-09
1.74919581225e-08
1.16389151441e-08
2.02772790056e-08
1.56603795985e-08
2.4863218451e-08
1.38036651271e-08
2.64840426533e-09
4.8238599699e-09
3.88796071601e-09
8.94137869409e-09
7.37714224784e-09
4.92434909295e-09
6.74147334248e-09
1.84082067413e-08
5.45417252854e-09
1.84388625823e-08
3.82275951961e-09
1.62844748725e-08
8.89897090809e-09
2.88909979642e-09
8.91518727775e-09
4.34901840433e-09
1.64955528122e-08
4.30987511549e-08
3.7358941811e-08
3.13029929468e-08
6.73277096375e-09
1.45339161092e-08
4.09352665547e-08
1.27137859797e-08
6.44625675859e-09
1.24558307648e-08
1.29468243471e-08
6.7607069603e-09
1.54180189238e-08
2.06842408106e-08
2.75435752541e-09
1.97846045088e-08
6.35166309225e-09
3.96893746915e-08
2.31239731775e-08
1.81433640689e-09
1.82984425864e-08
9.4825623501e-09
1.84294416447e-09
1.80811251325e-08
7.32831621213e-09
1.0637552455e-08
3.63728553469e-09
1.13717270431e-08
1.84637214071e-08
3.04130377317e-08
7.92841231661e-09
1.96997056521e-08
3.68803348698e-09
1.64399296534e-08
1.03078751692e-08
1.90592824342e-08
1.07623553377e-08
1.09191072351e-09
8.62625350476e-09
1.42724163626e-08
3.84060314127e-10
1.18455960617e-08
2.36332798231e-09
5.6872643967e-09
1.22888856469e-08
1.77650503842e-08
2.74659342103e-08
4.69629475049e-09
2.15835001376e-08
6.57714447345e-09
1.276590042e-09
2.91786481977e-08
1.07680296405e-08
7.57017927677e-09
1.85631014214e-08
2.48571527378e-08
1.50914720303e-08
1.80205732876e-08
7.42420386219e-09
2.91614190867e-10
4.2960319152e-09
1.19347014203e-08
3.42190397957e-09
1.21011166184e-08
1.59787994779e-09
6.25235774675e-09
2.23770437714e-09
3.20386692028e-09
4.10531328405e-09
8.58856516074e-09
1.46656767605e-09
1.18119436989e-08
1.25544682315e-08
8.19638534547e-10
1.15865495883e-08
6.14106448453e-09
3.07632472483e-09
3.98829913503e-09
3.64941271631e-08
2.22555571312e-08
2.17641137577e-09
1.56025148751e-08
2.93925214504e-09
7.29169177766e-09
3.01876765501e-09
8.26559340299e-09
1.22064506843e-09
1.48144450155e-08
1.19653213977e-08
5.68563787135e-09
6.21882892413e-09
4.89959418605e-10
1.41735802543e-08
9.67582078736e-09
4.91505338392e-09
9.72663979394e-09
9.44570797297e-09
1.33111825536e-08
1.60844375007e-09
4.05537445614e-10
1.00442654229e-08
3.72933015153e-09
7.97638365939e-09
3.81097974013e-10
5.5655864101e-09
4.74003656018e-09
1.07349662777e-08
6.27538581913e-09
9.67570090212e-09
1.21833194865e-09
6.70954210285e-09
2.99888602854e-08
1.09557520609e-08
1.49005893659e-08
1.58451505493e-08
5.41412744071e-09
4.42777175289e-09
4.43963380222e-09
1.48240009042e-08
1.4887454253e-08
1.31412742089e-08
1.67782558432e-09
9.58957883749e-09
2.18622685385e-09
3.68704138935e-09
9.90773569641e-10
2.42387957336e-08
4.07273931414e-09
6.33382463616e-09
3.25498652425e-08
4.86881211896e-09
9.14639187257e-09
1.44931576948e-08
1.30309522464e-08
4.19600721232e-09
6.5200399848e-09
6.8027648481e-10
1.01114972136e-08
4.26738895446e-08
1.26622506693e-08
3.43848544968e-09
3.82927718592e-08
5.40790293053e-09
6.05955601205e-09
3.575142297e-09
1.78369197517e-08
1.0041043054e-08
2.45300677607e-09
2.25555767956e-09
8.55534850349e-09
1.55855962618e-09
2.00067470541e-09
2.88070128797e-09
5.30102859351e-09
9.69583157459e-09
3.38246237877e-09
2.47621134052e-09
5.62441652711e-08
6.22940809202e-10
1.29541926271e-09
8.67385384385e-09
4.67575421264e-09
4.72791771227e-09
8.1747868113e-10
6.66415660406e-09
1.80461289988e-08
1.551008194e-09
1.44831974303e-09
6.22883236319e-09
7.59836533762e-09
5.96752628918e-09
1.96322756366e-08
7.9331862639e-09
6.80315611093e-08
2.95368993563e-09
2.01599002157e-09
7.74960497537e-09
7.87398327587e-09
7.61680441696e-09
1.63082226295e-09
3.33157924558e-09
7.26644602929e-09
1.55483769865e-08
2.68304361516e-08
1.49529178838e-08
5.72554996605e-09
2.74524279375e-09
2.31581278902e-09
1.28471651889e-09
7.32602071436e-10
4.41791525088e-10
5.23673852256e-08
1.22220667889e-08
2.24847690434e-09
1.98360274691e-08
1.97917894122e-08
3.48980639057e-08
8.25558379007e-09
1.533387481e-08
2.56652145972e-08
4.24101681412e-09
1.91400647025e-08
1.3880308541e-09
2.05603531086e-08
3.88890593948e-08
2.30638787051e-08
5.05613467077e-08
1.78684450215e-08
5.75648020444e-09
2.2898447252e-08
2.26406098317e-09
1.82228213396e-08
3.78455381876e-08
5.19790155813e-08
3.3390218011e-09
2.70836921889e-08
3.13010045695e-08
2.11262031171e-08
6.45519712576e-09
5.5246551796e-08
7.00350276851e-08
2.7336713636e-08
1.62495742931e-08
4.87764310668e-08
2.45384781004e-08
7.77292416646e-09
1.24797246713e-09
1.43456260428e-08
1.44363688478e-08
1.08108410903e-08
2.13516813358e-08
1.02361052954e-08
1.96571001651e-08
1.07753360706e-08
2.77991619633e-08
5.67733334806e-08
2.40096433499e-08
7.17101022355e-09
1.7019370864e-08
2.32015674743e-08
4.90897104872e-09
8.98437575768e-09
1.65972267774e-08
2.41821275938e-08
6.78985943412e-08
1.78064663546e-08
1.1742914747e-08
7.18460887203e-10
1.85979324094e-08
1.16851453677e-08
1.47021809964e-08
2.2258764967e-08
3.75321630687e-08
1.06249355897e-08
1.73738501068e-08
5.87952797856e-08
5.59441408919e-08
2.23018686941e-08
2.51755836883e-08
2.99787239489e-08
5.32072543606e-08
1.75251860578e-08
1.11435731134e-08
3.76716979194e-08
3.23954912752e-08
6.24419575514e-08
9.19034437536e-09
1.19670675871e-08
4.11454849551e-08
1.99075252903e-08
1.4062480977e-11
3.6713935215e-08
1.13181819227e-08
3.57633824517e-08
2.30363265002e-08
4.83961714585e-08
2.01519820772e-08
9.34676403371e-09
6.43527969229e-08
2.09241695564e-08
2.90289846505e-08
3.08290480878e-10
2.14237741135e-08
1.77384738421e-08
4.90253869389e-08
5.40032568346e-08
2.18259562437e-08
1.77103822469e-09
1.71224056989e-08
1.65365040663e-08
4.15524109581e-09
3.07975305336e-08
3.7652943351e-08
9.88580031959e-09
3.75807106626e-08
6.06928650325e-08