# vtk DataFile Version 3.0
File Name: Molecule/sphere_excent/sphere_excent_0-s4.vtk
ASCII
DATASET UNSTRUCTURED_GRID
FIELD FieldData 1
TIME 1 1 double
0.0
POINTS 120 double
0.309016994375 -0.5 0.809016994375
0.5 -0.809016994375 0.309016994375
0.809016994375 -0.309016994375 0.5
0.0 -0.850650808352 0.525731112119
0.850650808352 -0.525731112119 0.0
1.0 0.0 0.0
0.809016994375 0.309016994375 0.5
0.850650808352 0.525731112119 0.0
0.525731112119 0.0 0.850650808352
0.5 0.809016994375 0.309016994375
0.309016994375 0.5 0.809016994375
-0.809016994375 0.309016994375 -0.5
-1.0 0.0 0.0
-0.850650808352 0.525731112119 0.0
-0.5 -0.809016994375 0.309016994375
0.0 -1.0 0.0
-0.309016994375 -0.5 0.809016994375
-0.525731112119 0.0 0.850650808352
-0.809016994375 0.309016994375 0.5
-0.809016994375 -0.309016994375 0.5
0.5 0.809016994375 -0.309016994375
0.525731112119 0.850650808352 0.0
0.26286555606 0.951056516295 -0.162459848116
0.26286555606 0.951056516295 0.162459848116
0.0 1.0 0.0
0.0 0.850650808352 -0.525731112119
0.259891913008 0.862668480416 0.433888564553
0.0 0.961938357784 0.273266528913
0.0 0.850650808352 0.525731112119
-0.259891913008 0.862668480416 0.433888564553
-0.26286555606 0.951056516295 0.162459848116
-0.5 0.809016994375 0.309016994375
-0.26286555606 0.951056516295 -0.162459848116
-0.525731112119 0.850650808352 0.0
-0.5 0.809016994375 -0.309016994375
-0.702046444776 0.69378047756 0.16062203564
-0.702046444776 0.69378047756 -0.16062203564
-0.425325404176 0.688190960236 0.587785252292
-0.16062203564 0.702046444776 0.69378047756
-0.688190960236 0.587785252292 0.425325404176
-0.587785252292 0.425325404176 0.688190960236
-0.309016994375 0.5 0.809016994375
-0.862668480416 0.433888564553 0.259891913008
0.862668480416 -0.433888564553 -0.259891913008
0.961938357784 -0.273266528913 0.0
0.951056516295 -0.162459848116 -0.26286555606
0.809016994375 -0.309016994375 -0.5
0.850650808352 0.0 -0.525731112119
0.951056516295 0.162459848116 -0.26286555606
0.809016994375 0.309016994375 -0.5
0.69378047756 -0.16062203564 -0.702046444776
0.69378047756 0.16062203564 -0.702046444776
0.525731112119 0.0 -0.850650808352
0.688190960236 0.587785252292 -0.425325404176
0.587785252292 0.425325404176 -0.688190960236
0.425325404176 0.688190960236 -0.587785252292
0.309016994375 0.5 -0.809016994375
0.433888564553 0.259891913008 -0.862668480416
-0.809016994375 -0.309016994375 -0.5
-0.951056516295 -0.162459848116 -0.26286555606
-0.862668480416 -0.433888564553 -0.259891913008
-0.961938357784 -0.273266528913 0.0
-0.850650808352 -0.525731112119 0.0
-0.702046444776 -0.69378047756 -0.16062203564
-0.702046444776 -0.69378047756 0.16062203564
-0.525731112119 -0.850650808352 0.0
-0.5 -0.809016994375 -0.309016994375
-0.862668480416 -0.433888564553 0.259891913008
-0.688190960236 -0.587785252292 0.425325404176
-0.951056516295 -0.162459848116 0.26286555606
-0.688190960236 -0.587785252292 -0.425325404176
0.5 -0.809016994375 -0.309016994375
0.702046444776 -0.69378047756 -0.16062203564
0.309016994375 -0.5 -0.809016994375
0.688190960236 -0.587785252292 -0.425325404176
0.0 0.0 -1.0
-0.162459848116 0.26286555606 0.951056516295
0.0 0.525731112119 0.850650808352
0.162459848116 0.26286555606 0.951056516295
0.0 0.0 1.0
-0.433888564553 0.259891913008 0.862668480416
-0.273266528913 0.0 0.961938357784
0.433888564553 0.259891913008 0.862668480416
0.273266528913 0.0 0.961938357784
-0.433888564553 -0.259891913008 0.862668480416
-0.162459848116 -0.26286555606 0.951056516295
0.0 -0.525731112119 0.850650808352
0.162459848116 -0.26286555606 0.951056516295
0.433888564553 -0.259891913008 0.862668480416
0.162459848116 -0.26286555606 -0.951056516295
0.0 -0.525731112119 -0.850650808352
-0.162459848116 -0.26286555606 -0.951056516295
-0.309016994375 -0.5 -0.809016994375
0.16062203564 -0.702046444776 -0.69378047756
-0.16062203564 -0.702046444776 -0.69378047756
0.0 -0.850650808352 -0.525731112119
-0.273266528913 0.0 -0.961938357784
-0.433888564553 -0.259891913008 -0.862668480416
-0.525731112119 0.0 -0.850650808352
-0.69378047756 -0.16062203564 -0.702046444776
-0.16062203564 0.702046444776 -0.69378047756
-0.259891913008 0.862668480416 -0.433888564553
-0.425325404176 0.688190960236 -0.587785252292
-0.309016994375 0.5 -0.809016994375
-0.433888564553 0.259891913008 -0.862668480416
-0.259891913008 -0.862668480416 -0.433888564553
-0.26286555606 -0.951056516295 -0.162459848116
0.0 -0.961938357784 -0.273266528913
-0.587785252292 -0.425325404176 -0.688190960236
-0.425325404176 -0.688190960236 -0.587785252292
0.259891913008 -0.862668480416 -0.433888564553
0.26286555606 -0.951056516295 -0.162459848116
0.425325404176 -0.688190960236 -0.587785252292
-0.162459848116 0.26286555606 -0.951056516295
0.131200378813 0.864929335863 0.484441642061
-0.0810862934433 0.78384304242 0.615642020874
-0.237086325351 0.606825149272 0.758652300163
0.16062203564 0.702046444776 0.69378047756
0.0768840702267 0.622785464303 0.778605872826
0.294754166588 0.70600443598 0.643954748142

CELLS 236 944
3 0 1 2
3 0 3 1
3 2 1 4
3 5 6 2
3 5 7 6
3 2 6 8
3 7 9 6
3 9 10 6
3 11 12 13
3 14 15 3
3 14 3 16
3 17 18 19
3 15 1 3
3 20 21 7
3 7 21 9
3 20 22 21
3 22 23 21
3 22 24 23
3 21 23 9
3 24 22 25
3 25 22 20
3 9 23 26
3 23 27 26
3 23 24 27
3 28 27 29
3 27 30 29
3 27 24 30
3 29 30 31
3 24 32 30
3 32 33 30
3 32 34 33
3 30 33 31
3 25 32 24
3 31 33 35
3 33 36 35
3 33 34 36
3 35 36 13
3 29 37 38
3 29 31 37
3 31 39 37
3 39 40 37
3 39 18 40
3 37 40 41
3 31 35 39
3 35 42 39
3 35 13 42
3 39 42 18
3 40 18 17
3 13 36 11
3 11 36 34
3 18 42 12
3 42 13 12
3 4 43 44
3 43 45 44
3 43 46 45
3 44 45 5
3 46 47 45
3 47 48 45
3 47 49 48
3 45 48 5
3 46 50 47
3 50 51 47
3 50 52 51
3 47 51 49
3 5 48 7
3 48 49 7
3 49 53 7
3 7 53 20
3 49 54 53
3 54 55 53
3 54 56 55
3 53 55 20
3 49 51 54
3 51 57 54
3 51 52 57
3 54 57 56
3 20 55 25
3 55 56 25
3 4 44 2
3 44 5 2
3 58 59 11
3 59 12 11
3 58 60 59
3 60 61 59
3 60 62 61
3 59 61 12
3 62 63 64
3 63 65 64
3 63 66 65
3 64 65 14
3 14 65 15
3 62 64 67
3 64 68 67
3 64 14 68
3 67 68 19
3 19 68 16
3 16 68 14
3 12 69 18
3 18 69 19
3 19 69 67
3 69 61 67
3 69 12 61
3 67 61 62
3 58 70 60
3 70 63 60
3 70 66 63
3 60 63 62
3 71 72 1
3 72 4 1
3 52 50 73
3 50 46 73
3 46 74 73
3 46 43 74
3 43 72 74
3 43 4 72
3 74 72 71
3 56 57 75
3 75 57 52
3 41 76 77
3 76 78 77
3 76 79 78
3 77 78 10
3 41 80 76
3 80 81 76
3 80 17 81
3 76 81 79
3 10 78 82
3 78 83 82
3 78 79 83
3 82 83 8
3 17 84 81
3 84 85 81
3 84 16 85
3 81 85 79
3 16 86 85
3 86 87 85
3 86 0 87
3 85 87 79
3 0 86 3
3 3 86 16
3 79 87 83
3 87 88 83
3 87 0 88
3 83 88 8
3 8 88 2
3 88 0 2
3 73 89 52
3 52 89 75
3 73 90 89
3 90 91 89
3 90 92 91
3 89 91 75
3 73 93 90
3 93 94 90
3 93 95 94
3 90 94 92
3 75 91 96
3 91 97 96
3 91 92 97
3 96 97 98
3 10 82 6
3 6 82 8
3 98 99 11
3 99 58 11
3 25 100 101
3 100 102 101
3 100 103 102
3 101 102 34
3 34 102 11
3 11 102 103
3 103 104 11
3 104 98 11
3 66 105 106
3 105 107 106
3 105 95 107
3 106 107 15
3 16 84 19
3 19 84 17
3 98 97 99
3 97 108 99
3 97 92 108
3 99 108 58
3 92 94 109
3 94 105 109
3 94 95 105
3 109 105 66
3 95 110 107
3 110 111 107
3 110 71 111
3 107 111 15
3 15 111 1
3 1 111 71
3 73 112 93
3 112 110 93
3 112 71 110
3 93 110 95
3 75 113 56
3 113 103 56
3 75 96 113
3 96 104 113
3 96 98 104
3 113 104 103
3 103 100 56
3 56 100 25
3 28 114 27
3 27 114 26
3 25 101 32
3 32 101 34
3 38 115 29
3 29 115 28
3 41 116 37
3 37 116 38
3 17 80 40
3 40 80 41
3 28 115 117
3 115 118 117
3 115 38 118
3 117 118 10
3 38 116 118
3 116 77 118
3 116 41 77
3 118 77 10
3 26 119 9
3 9 119 10
3 26 114 119
3 114 117 119
3 114 28 117
3 119 117 10
3 66 106 65
3 65 106 15
3 92 109 70
3 70 109 66
3 58 108 70
3 70 108 92
3 71 112 74
3 74 112 73

CELL_TYPES 236
5
5
5
5
5
5
5
5
5
5
5
5
5
5
5
5
5
5
5
5
5
5
5
5
5
5
5
5
5
5
5
5
5
5
5
5
5
5
5
5
5
5
5
5
5
5
5
5
5
5
5
5
5
5
5
5
5
5
5
5
5
5
5
5
5
5
5
5
5
5
5
5
5
5
5
5
5
5
5
5
5
5
5
5
5
5
5
5
5
5
5
5
5
5
5
5
5
5
5
5
5
5
5
5
5
5
5
5
5
5
5
5
5
5
5
5
5
5
5
5
5
5
5
5
5
5
5
5
5
5
5
5
5
5
5
5
5
5
5
5
5
5
5
5
5
5
5
5
5
5
5
5
5
5
5
5
5
5
5
5
5
5
5
5
5
5
5
5
5
5
5
5
5
5
5
5
5
5
5
5
5
5
5
5
5
5
5
5
5
5
5
5
5
5
5
5
5
5
5
5
5
5
5
5
5
5
5
5
5
5
5
5
5
5
5
5
5
5
5
5
5
5
5
5
5
5
5
5
5
5
5
5
5
5
5
5

CELL_DATA 236
SCALARS cell_data_0 double
LOOKUP_TABLE default
4.72028208661e-05
1.09219294859e-05
7.7237349916e-06
2.76098432202e-05
6.28059971154e-05
5.46730646827e-05
0.000183938327027
2.23437782233e-05
1.12247319736e-05
0.000119076378177
6.14792585404e-07
5.65472462821e-05
8.8517356878e-05
6.12921139917e-05
0.000134468016944
2.62652350045e-06
1.22774867614e-07
4.02809266382e-06
2.82685343333e-05
2.66826527155e-05
1.5497273933e-05
1.35796110376e-05
4.72339435088e-06
7.28719069594e-07
6.23084215349e-06
5.07393459333e-06
1.23343355389e-08
2.78983459289e-06
2.45197662443e-06
3.11997830874e-06
1.87701704004e-06
7.70538926023e-07
2.47912050835e-05
1.28311856047e-06
2.92058540104e-06
1.75708896696e-06
1.20400916442e-06
8.68242542457e-06
6.38016562221e-06
7.70183081732e-06
1.0170349941e-05
9.68806556444e-06
1.42608205211e-05
3.4020845376e-06
4.67400148105e-06
2.57527744184e-06
5.8133012526e-06
2.77959865619e-05
2.12707351823e-06
1.40700064062e-06
9.45597001253e-06
1.53071469903e-06
1.56018309249e-06
9.57403937196e-07
9.18681546242e-07
3.0121188053e-07
3.09743293672e-06
2.43991550446e-06
7.24913523469e-06
1.2456999794e-06
3.85889201398e-06
4.91336648521e-06
5.63505407629e-06
8.01205565268e-06
5.40669195859e-05
7.09579565236e-05
7.32106635698e-05
6.16423959097e-05
6.74098299601e-06
5.99838613481e-06
4.04803632255e-05
6.90659362739e-06
7.09324809e-06
8.43751585546e-06
1.0189908919e-05
3.77674934916e-05
2.53921871042e-05
9.58826631825e-05
6.01860849215e-06
4.67375822815e-06
8.85709419989e-06
7.5889384329e-06
3.20289929822e-06
8.78107051536e-07
1.81611965698e-05
2.07620930255e-06
1.55402221718e-05
2.46734192777e-06
5.62491475206e-06
2.2451329235e-06
1.97954467012e-05
8.98562659427e-06
2.58373897557e-05
5.09463295336e-05
4.20026543328e-05
4.18703843505e-05
6.1049463477e-05
3.02627071922e-05
3.89303131062e-05
2.05329684313e-05
1.16925457713e-05
2.00800519732e-05
1.20587114172e-05
5.58106100476e-05
5.2664790667e-05
7.30154570945e-05
2.0048753746e-05
0.000288815102033
0.000164912778863
1.78660658228e-05
1.67238368622e-05
9.9981027269e-05
2.87938363874e-05
0.000150017736442
7.41472723865e-05
0.000217206423158
8.67501204857e-05
2.12622152259e-05
2.41719581734e-05
5.51212451665e-06
7.52784508023e-05
2.18375726126e-05
1.99275664897e-05
1.10918566378e-07
2.75862674801e-05
6.34254388017e-05
1.84724062507e-05
1.53991251017e-06
6.34413587992e-05
2.83295454581e-05
2.7522405858e-05
5.02058049397e-05
3.51062389414e-05
6.96023991945e-05
1.85052296018e-05
1.97683612704e-05
2.68890959433e-05
2.97135797765e-05
3.92387336936e-05
4.35250076196e-05
6.96412413684e-05
5.66051974578e-05
2.28282257922e-05
4.21599373201e-05
3.49128498975e-05
3.83374646793e-05
1.54088765042e-05
9.89783587004e-06
6.41465987209e-06
9.43528398861e-07
5.16827078798e-06
4.079558704e-06
4.5209328419e-06
2.45947238809e-07
5.44344924207e-06
3.35493719391e-06
3.24443606739e-06
6.82617158873e-07
4.38385853564e-06
7.49605021932e-06
3.77284871293e-05
3.99696335853e-05
1.50436500751e-05
2.46466040696e-06
6.57498935703e-06
8.62334275773e-08
1.07253816178e-06
2.42839127621e-07
1.04209769311e-07
2.27602469683e-06
2.29756593752e-06
1.49672199241e-05
7.20628553165e-06
4.05452572799e-08
6.36553469655e-06
2.60606910132e-06
3.13026719123e-05
2.79434140695e-05
7.31375261752e-06
1.41832299593e-07
3.64266591311e-06
1.07367989814e-06
3.19866420742e-06
1.40038500066e-07
6.07533117143e-06
7.21472882142e-06
6.32224034245e-06
3.24376343516e-08
1.9707304977e-05
2.67362304916e-06
1.24328906338e-05
5.84603732892e-05
4.28816905602e-06
2.38425177539e-07
1.94908459113e-05
5.84203054965e-06
7.45943385278e-05
6.43995568004e-05
2.60757093794e-06
9.79463678905e-08
7.15635296442e-06
9.47296460931e-07
5.61100541446e-05
7.93933532611e-05
2.07353492389e-06
2.64567370154e-06
5.18860485545e-06
6.35717424295e-07
5.067610407e-06
2.99851858508e-06
8.15055209872e-06
7.01729903044e-06
2.62495719265e-05
2.24204708063e-05
1.30990302446e-06
8.31989062329e-08
5.49024200462e-06
7.1081937033e-06
6.76076804168e-06
6.19769281837e-07
8.17271576074e-06
7.95472003452e-06
1.50084399385e-05
4.78048217007e-06
2.16046152023e-06
1.12334921087e-07
1.12252007439e-06
5.82072751835e-06
6.69760229944e-06
1.11333261955e-06
8.00040557125e-05
8.71705110122e-05
6.77463582717e-05
7.97021882249e-05
7.39648878377e-05
4.66177602959e-05

