# vtk DataFile Version 3.0
File Name: Molecule/sphere_excent/sphere_excent_0-s3.vtk
ASCII
DATASET UNSTRUCTURED_GRID
FIELD FieldData 1
TIME 1 1 double
0.0
POINTS 81 double
-0.309016994375 0.5 0.809016994375
0.0 0.0 1.0
0.309016994375 0.5 0.809016994375
-0.525731112119 0.0 0.850650808352
0.525731112119 0.0 0.850650808352
-0.309016994375 -0.5 0.809016994375
0.309016994375 -0.5 0.809016994375
0.0 -0.850650808352 0.525731112119
0.809016994375 -0.309016994375 0.5
0.5 -0.809016994375 0.309016994375
0.850650808352 -0.525731112119 0.0
0.525731112119 0.0 -0.850650808352
0.309016994375 -0.5 -0.809016994375
0.0 0.0 -1.0
-0.309016994375 -0.5 -0.809016994375
0.0 -0.850650808352 -0.525731112119
-0.525731112119 0.0 -0.850650808352
1.0 0.0 0.0
0.809016994375 0.309016994375 0.5
0.850650808352 0.525731112119 0.0
0.5 0.809016994375 0.309016994375
-0.809016994375 -0.309016994375 -0.5
-0.809016994375 0.309016994375 -0.5
-1.0 0.0 0.0
-0.850650808352 0.525731112119 0.0
0.0 0.850650808352 -0.525731112119
-0.309016994375 0.5 -0.809016994375
-0.5 0.809016994375 -0.309016994375
-0.5 -0.809016994375 -0.309016994375
0.0 -1.0 0.0
-0.5 -0.809016994375 0.309016994375
-0.809016994375 -0.309016994375 0.5
-0.809016994375 0.309016994375 0.5
0.5 -0.809016994375 -0.309016994375
0.309016994375 0.5 -0.809016994375
0.5 0.809016994375 -0.309016994375
0.525731112119 0.850650808352 0.0
0.26286555606 0.951056516295 -0.162459848116
0.26286555606 0.951056516295 0.162459848116
0.0 1.0 0.0
0.259891913008 0.862668480416 0.433888564553
0.0 0.961938357784 0.273266528913
0.0 0.850650808352 0.525731112119
-0.259891913008 0.862668480416 0.433888564553
-0.26286555606 0.951056516295 0.162459848116
-0.5 0.809016994375 0.309016994375
-0.26286555606 0.951056516295 -0.162459848116
-0.525731112119 0.850650808352 0.0
-0.702046444776 0.69378047756 0.16062203564
-0.702046444776 0.69378047756 -0.16062203564
-0.16062203564 0.702046444776 0.69378047756
-0.425325404176 0.688190960236 0.587785252292
-0.688190960236 0.587785252292 0.425325404176
-0.587785252292 0.425325404176 0.688190960236
-0.862668480416 0.433888564553 0.259891913008
0.862668480416 -0.433888564553 -0.259891913008
0.961938357784 -0.273266528913 0.0
0.951056516295 -0.162459848116 -0.26286555606
0.809016994375 -0.309016994375 -0.5
0.850650808352 0.0 -0.525731112119
0.951056516295 0.162459848116 -0.26286555606
0.809016994375 0.309016994375 -0.5
0.69378047756 -0.16062203564 -0.702046444776
0.69378047756 0.16062203564 -0.702046444776
0.688190960236 0.587785252292 -0.425325404176
0.587785252292 0.425325404176 -0.688190960236
0.425325404176 0.688190960236 -0.587785252292
0.433888564553 0.259891913008 -0.862668480416
-0.951056516295 -0.162459848116 -0.26286555606
-0.862668480416 -0.433888564553 -0.259891913008
-0.961938357784 -0.273266528913 0.0
-0.850650808352 -0.525731112119 0.0
-0.702046444776 -0.69378047756 -0.16062203564
-0.702046444776 -0.69378047756 0.16062203564
-0.525731112119 -0.850650808352 0.0
-0.862668480416 -0.433888564553 0.259891913008
-0.688190960236 -0.587785252292 0.425325404176
-0.951056516295 -0.162459848116 0.26286555606
-0.688190960236 -0.587785252292 -0.425325404176
0.702046444776 -0.69378047756 -0.16062203564
0.688190960236 -0.587785252292 -0.425325404176

CELLS 158 632
3 0 1 2
3 0 3 1
3 2 1 4
3 3 5 1
3 5 6 1
3 5 7 6
3 1 6 4
3 4 6 8
3 6 9 8
3 6 7 9
3 8 9 10
3 11 12 13
3 12 14 13
3 12 15 14
3 13 14 16
3 17 18 8
3 17 19 18
3 8 18 4
3 19 20 18
3 20 2 18
3 18 2 4
3 16 21 22
3 22 23 24
3 25 26 27
3 26 22 27
3 26 16 22
3 28 15 29
3 30 29 7
3 30 7 5
3 31 5 3
3 3 32 31
3 16 14 21
3 14 15 28
3 15 33 29
3 33 9 29
3 29 9 7
3 12 33 15
3 13 26 34
3 13 16 26
3 34 26 25
3 35 36 19
3 19 36 20
3 35 37 36
3 37 38 36
3 37 39 38
3 36 38 20
3 39 37 25
3 25 37 35
3 20 38 40
3 38 41 40
3 38 39 41
3 40 41 42
3 42 41 43
3 41 44 43
3 41 39 44
3 43 44 45
3 39 46 44
3 46 47 44
3 46 27 47
3 44 47 45
3 27 46 25
3 25 46 39
3 45 47 48
3 47 49 48
3 47 27 49
3 48 49 24
3 42 43 50
3 43 51 50
3 43 45 51
3 50 51 0
3 45 52 51
3 52 53 51
3 52 32 53
3 51 53 0
3 45 48 52
3 48 54 52
3 48 24 54
3 52 54 32
3 0 53 3
3 53 32 3
3 42 50 2
3 50 0 2
3 20 40 2
3 40 42 2
3 24 49 22
3 22 49 27
3 32 54 23
3 54 24 23
3 10 55 56
3 55 57 56
3 55 58 57
3 56 57 17
3 58 59 57
3 59 60 57
3 59 61 60
3 57 60 17
3 58 62 59
3 62 63 59
3 62 11 63
3 59 63 61
3 17 60 19
3 60 61 19
3 61 64 19
3 19 64 35
3 61 65 64
3 65 66 64
3 65 34 66
3 64 66 35
3 61 63 65
3 63 67 65
3 63 11 67
3 65 67 34
3 35 66 25
3 66 34 25
3 10 56 8
3 56 17 8
3 21 68 22
3 68 23 22
3 21 69 68
3 69 70 68
3 69 71 70
3 68 70 23
3 71 72 73
3 72 74 73
3 72 28 74
3 73 74 30
3 30 74 29
3 29 74 28
3 71 73 75
3 73 76 75
3 73 30 76
3 75 76 31
3 31 76 5
3 5 76 30
3 23 77 32
3 32 77 31
3 31 77 75
3 77 70 75
3 77 23 70
3 75 70 71
3 28 78 14
3 14 78 21
3 21 78 69
3 78 72 69
3 78 28 72
3 69 72 71
3 33 79 9
3 79 10 9
3 11 62 12
3 62 58 12
3 58 80 12
3 80 33 12
3 58 55 80
3 55 79 80
3 55 10 79
3 80 79 33
3 34 67 13
3 13 67 11

CELL_TYPES 158
5
5
5
5
5
5
5
5
5
5
5
5
5
5
5
5
5
5
5
5
5
5
5
5
5
5
5
5
5
5
5
5
5
5
5
5
5
5
5
5
5
5
5
5
5
5
5
5
5
5
5
5
5
5
5
5
5
5
5
5
5
5
5
5
5
5
5
5
5
5
5
5
5
5
5
5
5
5
5
5
5
5
5
5
5
5
5
5
5
5
5
5
5
5
5
5
5
5
5
5
5
5
5
5
5
5
5
5
5
5
5
5
5
5
5
5
5
5
5
5
5
5
5
5
5
5
5
5
5
5
5
5
5
5
5
5
5
5
5
5
5
5
5
5
5
5
5
5
5
5
5
5
5
5
5
5
5
5

CELL_DATA 158
SCALARS cell_data_0 double
LOOKUP_TABLE default
0.000142605174259
0.000198209453175
0.000202045607114
0.00019673383941
0.000119731905802
8.37524499605e-05
0.000198937895569
8.3654292752e-05
4.797429439e-05
2.93154848462e-05
2.15915833376e-05
6.29152506089e-05
7.38005482462e-05
0.000202251243313
0.000207150777965
2.81687939478e-05
9.64118048887e-06
1.89771228539e-05
1.10259589447e-05
5.42703606944e-05
6.33298627141e-05
0.000100588681496
3.90002553737e-07
0.000141582950161
1.62626882728e-05
0.000113694183475
0.000115591772231
5.02196000599e-05
2.06150575083e-05
7.33005831514e-05
3.29580889235e-05
0.000166094447005
0.000177956497879
0.000137893517285
2.53431862552e-06
3.840624455e-05
0.000162622577961
2.3727139931e-05
0.000158778685741
0.000113201889994
1.815554217e-05
1.56531169042e-05
1.00819463868e-05
1.17750519054e-05
1.18003986669e-05
3.29607931163e-06
9.17113162204e-05
6.48228702219e-05
1.83899902298e-06
2.77752327959e-06
2.39971568374e-06
9.0546697624e-05
8.22306440734e-05
3.8711613717e-06
2.33240350108e-06
3.47170959967e-06
5.39150437236e-06
1.08448346821e-05
1.56666232777e-05
8.07311952719e-06
6.33624094846e-05
7.10582926237e-05
1.31489233203e-05
2.368175906e-05
2.03663770466e-05
1.21612792517e-05
9.09382957342e-05
6.86868046467e-06
5.96872631094e-06
1.32280558917e-05
7.5050483146e-06
1.10712921958e-05
9.22104900521e-06
1.47874328773e-05
1.25052336357e-06
1.84055221566e-06
3.79438659564e-06
5.87549746084e-06
4.63975491213e-05
2.65799950085e-05
0.000114561088305
4.36812692291e-05
1.96560516126e-05
0.000119158833748
1.00049532162e-05
1.19417864436e-05
9.89532384279e-06
2.50490197224e-06
2.02239393994e-06
1.25758859357e-06
5.57238882893e-07
1.78228399833e-06
2.68800639112e-07
6.51635167296e-07
7.97586692384e-07
1.83844660715e-06
1.67232712086e-07
3.77126661464e-07
6.91024870958e-06
1.22197397939e-07
1.91316389891e-06
5.41444722488e-06
6.2514390591e-06
6.02420981204e-06
4.63817488321e-07
5.25870710467e-07
1.50187831422e-07
7.7509150974e-07
1.69508232246e-07
1.23761415445e-06
8.47747360345e-06
8.4538722489e-07
4.55929613101e-05
4.76936245662e-05
8.21351840192e-06
8.54668496683e-06
2.56167949618e-07
2.44685420362e-06
1.07332532572e-06
6.85443225408e-07
8.42393430882e-07
5.54357562593e-07
1.69894809616e-07
9.39001249476e-08
4.43318655452e-07
4.94194799607e-07
2.90048450822e-06
1.8469884144e-07
7.8470412539e-08
3.84627849464e-07
7.23958355553e-07
8.88016785791e-07
2.31070003217e-05
2.10960782179e-05
1.0472242578e-05
1.35548019725e-05
5.7330230965e-07
1.57130251696e-07
3.63043969174e-07
1.50084137297e-07
1.59136273881e-05
1.62570939756e-05
1.04107955261e-06
5.15213665017e-07
3.11552399162e-07
7.09429619748e-07
1.36506706021e-09
5.45287911793e-06
1.86733213398e-05
2.49026036092e-06
3.07837629342e-06
1.09317821143e-05
5.1898522297e-07
3.90610462089e-07
1.36990600783e-06
2.39579917702e-06
8.71956828291e-06
2.76335250122e-05

