# vtk DataFile Version 3.0
File Name: Molecule/sphere_excent/sphere_excent_0-s1.vtk
ASCII
DATASET UNSTRUCTURED_GRID
FIELD FieldData 1
TIME 1 1 double
0.0
POINTS 42 double
0.85065081 -0.52573111 0.0
0.80901699 -0.30901699 -0.5
1.0 0.0 0.0
0.80901699 0.30901699 -0.5
0.52573111 0.0 -0.85065081
0.85065081 0.52573111 0.0
0.5 0.80901699 -0.30901699
0.30901699 0.5 -0.80901699
0.0 0.85065081 -0.52573111
0.5 0.80901699 0.30901699
0.0 1.0 0.0
0.0 0.85065081 0.52573111
-0.5 0.80901699 0.30901699
-0.5 0.80901699 -0.30901699
-0.85065081 0.52573111 0.0
-0.30901699 0.5 0.80901699
-0.80901699 0.30901699 0.5
-0.52573111 0.0 0.85065081
0.30901699 0.5 0.80901699
0.0 0.0 1.0
0.52573111 0.0 0.85065081
-0.30901699 -0.5 0.80901699
0.30901699 -0.5 0.80901699
0.0 -0.85065081 0.52573111
0.80901699 -0.30901699 0.5
0.5 -0.80901699 0.30901699
0.30901699 -0.5 -0.80901699
0.0 0.0 -1.0
-0.30901699 -0.5 -0.80901699
0.0 -0.85065081 -0.52573111
-0.52573111 0.0 -0.85065081
0.80901699 0.30901699 0.5
-0.80901699 -0.30901699 -0.5
-0.80901699 0.30901699 -0.5
-1.0 0.0 0.0
-0.85065081 -0.52573111 0.0
-0.30901699 0.5 -0.80901699
-0.5 -0.80901699 -0.30901699
-0.5 -0.80901699 0.30901699
0.0 -1.0 0.0
-0.80901699 -0.30901699 0.5
0.5 -0.80901699 -0.30901699

CELLS 80 320
3 0 1 2
3 1 3 2
3 1 4 3
3 2 3 5
3 5 3 6
3 3 7 6
3 3 4 7
3 6 7 8
3 5 6 9
3 6 10 9
3 6 8 10
3 9 10 11
3 11 10 12
3 10 13 12
3 10 8 13
3 12 13 14
3 11 12 15
3 12 16 15
3 12 14 16
3 15 16 17
3 11 15 18
3 15 19 18
3 15 17 19
3 18 19 20
3 17 21 19
3 21 22 19
3 21 23 22
3 19 22 20
3 20 22 24
3 22 25 24
3 22 23 25
3 24 25 0
3 4 26 27
3 26 28 27
3 26 29 28
3 27 28 30
3 0 2 24
3 2 31 24
3 2 5 31
3 24 31 20
3 5 9 31
3 9 18 31
3 9 11 18
3 31 18 20
3 30 32 33
3 32 34 33
3 32 35 34
3 33 34 14
3 8 36 13
3 36 33 13
3 36 30 33
3 13 33 14
3 35 37 38
3 37 39 38
3 37 29 39
3 38 39 23
3 35 38 40
3 38 21 40
3 38 23 21
3 40 21 17
3 17 16 40
3 16 34 40
3 16 14 34
3 40 34 35
3 30 28 32
3 28 37 32
3 28 29 37
3 32 37 35
3 29 41 39
3 41 25 39
3 41 0 25
3 39 25 23
3 4 1 26
3 1 41 26
3 1 0 41
3 26 41 29
3 4 27 7
3 27 36 7
3 27 30 36
3 7 36 8

CELL_TYPES 80
5
5
5
5
5
5
5
5
5
5
5
5
5
5
5
5
5
5
5
5
5
5
5
5
5
5
5
5
5
5
5
5
5
5
5
5
5
5
5
5
5
5
5
5
5
5
5
5
5
5
5
5
5
5
5
5
5
5
5
5
5
5
5
5
5
5
5
5
5
5
5
5
5
5
5
5
5
5
5
5

CELL_DATA 80
SCALARS cell_data_0 double
LOOKUP_TABLE default
5.88821551833e-07
5.73094099968e-07
1.25082000016e-07
4.95891585781e-07
1.3887017496e-07
2.26519443486e-07
4.92025811947e-08
6.51959449754e-08
1.59422080131e-06
2.43558811985e-07
9.24962609179e-07
1.98419823923e-06
5.93469230515e-08
1.53763403212e-06
2.49672603961e-07
3.59849883029e-07
2.46103219151e-05
1.6455482678e-05
2.37924055884e-06
1.76454449514e-05
3.53003647297e-06
4.9827863914e-05
5.57816217661e-05
5.57816531465e-05
6.39933792266e-05
4.98278623301e-05
1.0051061054e-05
4.30219139469e-06
1.42158752934e-05
5.76326016782e-06
7.37912597586e-06
1.23186316559e-08
5.28038648913e-08
7.43612075621e-09
3.70167580499e-08
3.97524393176e-08
3.41282332137e-06
1.5912693984e-06
3.63003053537e-06
1.8150246032e-05
4.6683032782e-08
1.64554874406e-05
1.65385085921e-05
1.04917627542e-06
3.94005913322e-09
5.73096478079e-07
6.05847783301e-08
6.0584714731e-08
2.90305512617e-07
4.85469188265e-09
1.57503966895e-07
4.90971887073e-07
1.5942216153e-06
2.43558978539e-07
9.24963572586e-07
1.9841951679e-06
4.66806105547e-08
1.64554730465e-05
1.65384919677e-05
1.0491818403e-06
4.22689816658e-06
2.11442829641e-06
8.30228245839e-07
8.30228407367e-07
1.04080434792e-07
4.85498404409e-09
1.64431262717e-07
2.42829308119e-07
4.15711613641e-07
2.43558886268e-07
7.20112700579e-07
2.89773857e-07
1.04080376126e-07
2.26519860702e-07
2.42830299911e-07
1.64431110354e-07
5.28039294342e-08
3.02771155078e-08
3.97524159353e-08
3.70168540734e-08

