# vtk DataFile Version 3.0
File Name: Molecule/sphere_excent/sphere_excent_0-s5.vtk
ASCII
DATASET UNSTRUCTURED_GRID
FIELD FieldData 1
TIME 1 1 double
0.0
POINTS 191 double
0.309016994375 -0.5 0.809016994375
0.5 -0.809016994375 0.309016994375
0.809016994375 -0.309016994375 0.5
0.809016994375 0.309016994375 0.5
0.525731112119 0.0 0.850650808352
-0.809016994375 0.309016994375 -0.5
-1.0 0.0 0.0
-0.850650808352 0.525731112119 0.0
-0.525731112119 0.0 0.850650808352
-0.809016994375 0.309016994375 0.5
-0.809016994375 -0.309016994375 0.5
0.5 0.809016994375 -0.309016994375
0.26286555606 0.951056516295 -0.162459848116
0.525731112119 0.850650808352 0.0
0.26286555606 0.951056516295 0.162459848116
0.0 1.0 0.0
0.0 0.850650808352 -0.525731112119
0.5 0.809016994375 0.309016994375
0.259891913008 0.862668480416 0.433888564553
0.0 0.961938357784 0.273266528913
0.0 0.850650808352 0.525731112119
-0.259891913008 0.862668480416 0.433888564553
-0.26286555606 0.951056516295 0.162459848116
-0.5 0.809016994375 0.309016994375
-0.26286555606 0.951056516295 -0.162459848116
-0.525731112119 0.850650808352 0.0
-0.5 0.809016994375 -0.309016994375
-0.702046444776 0.69378047756 0.16062203564
-0.702046444776 0.69378047756 -0.16062203564
-0.425325404176 0.688190960236 0.587785252292
-0.16062203564 0.702046444776 0.69378047756
-0.688190960236 0.587785252292 0.425325404176
-0.587785252292 0.425325404176 0.688190960236
-0.309016994375 0.5 0.809016994375
-0.862668480416 0.433888564553 0.259891913008
0.862668480416 -0.433888564553 -0.259891913008
0.951056516295 -0.162459848116 -0.26286555606
0.961938357784 -0.273266528913 0.0
1.0 0.0 0.0
0.809016994375 -0.309016994375 -0.5
0.850650808352 0.0 -0.525731112119
0.951056516295 0.162459848116 -0.26286555606
0.69378047756 -0.16062203564 -0.702046444776
0.69378047756 0.16062203564 -0.702046444776
0.525731112119 0.0 -0.850650808352
0.809016994375 0.309016994375 -0.5
0.587785252292 0.425325404176 -0.688190960236
0.425325404176 0.688190960236 -0.587785252292
0.688190960236 0.587785252292 -0.425325404176
0.433888564553 0.259891913008 -0.862668480416
0.850650808352 -0.525731112119 0.0
-0.809016994375 -0.309016994375 -0.5
-0.951056516295 -0.162459848116 -0.26286555606
-0.862668480416 -0.433888564553 -0.259891913008
-0.961938357784 -0.273266528913 0.0
-0.850650808352 -0.525731112119 0.0
-0.702046444776 -0.69378047756 -0.16062203564
-0.702046444776 -0.69378047756 0.16062203564
-0.525731112119 -0.850650808352 0.0
-0.5 -0.809016994375 0.309016994375
-0.862668480416 -0.433888564553 0.259891913008
-0.688190960236 -0.587785252292 0.425325404176
-0.309016994375 -0.5 0.809016994375
-0.951056516295 -0.162459848116 0.26286555606
0.309016994375 -0.5 -0.809016994375
-0.162459848116 0.26286555606 0.951056516295
0.0 0.525731112119 0.850650808352
0.162459848116 0.26286555606 0.951056516295
0.309016994375 0.5 0.809016994375
-0.433888564553 0.259891913008 0.862668480416
-0.273266528913 0.0 0.961938357784
0.433888564553 0.259891913008 0.862668480416
0.273266528913 0.0 0.961938357784
-0.433888564553 -0.259891913008 0.862668480416
-0.162459848116 -0.26286555606 0.951056516295
0.0 -0.525731112119 0.850650808352
0.162459848116 -0.26286555606 0.951056516295
0.0 -0.850650808352 0.525731112119
0.433888564553 -0.259891913008 0.862668480416
0.162459848116 -0.26286555606 -0.951056516295
0.0 0.0 -1.0
0.0 -0.525731112119 -0.850650808352
-0.162459848116 -0.26286555606 -0.951056516295
-0.309016994375 -0.5 -0.809016994375
0.16062203564 -0.702046444776 -0.69378047756
-0.16062203564 -0.702046444776 -0.69378047756
0.0 -0.850650808352 -0.525731112119
-0.273266528913 0.0 -0.961938357784
-0.433888564553 -0.259891913008 -0.862668480416
-0.525731112119 0.0 -0.850650808352
-0.69378047756 -0.16062203564 -0.702046444776
-0.16062203564 0.702046444776 -0.69378047756
-0.425325404176 0.688190960236 -0.587785252292
-0.259891913008 0.862668480416 -0.433888564553
-0.309016994375 0.5 -0.809016994375
-0.433888564553 0.259891913008 -0.862668480416
-0.5 -0.809016994375 -0.309016994375
-0.259891913008 -0.862668480416 -0.433888564553
-0.26286555606 -0.951056516295 -0.162459848116
0.0 -0.961938357784 -0.273266528913
0.0 -1.0 0.0
-0.587785252292 -0.425325404176 -0.688190960236
-0.425325404176 -0.688190960236 -0.587785252292
0.259891913008 -0.862668480416 -0.433888564553
0.26286555606 -0.951056516295 -0.162459848116
0.5 -0.809016994375 -0.309016994375
0.425325404176 -0.688190960236 -0.587785252292
-0.162459848116 0.26286555606 -0.951056516295
0.131200378813 0.864929335863 0.484441642061
-0.0810862934433 0.78384304242 0.615642020874
-0.237086325351 0.606825149272 0.758652300163
0.16062203564 0.702046444776 0.69378047756
0.0768840702267 0.622785464303 0.778605872826
0.294754166588 0.70600443598 0.643954748142
0.259891913008 -0.862668480416 0.433888564553
0.702046444776 -0.69378047756 0.16062203564
0.951056516295 0.162459848116 0.26286555606
0.961938357784 0.273266528913 0.0
0.862668480416 0.433888564553 0.259891913008
0.850650808352 0.525731112119 0.0
0.702046444776 0.69378047756 0.16062203564
0.688190960236 0.587785252292 0.425325404176
-0.26286555606 -0.951056516295 0.162459848116
-0.259891913008 -0.862668480416 0.433888564553
0.0 -0.961938357784 0.273266528913
0.26286555606 -0.951056516295 0.162459848116
0.707106781187 0.707106781187 0.0
0.519258489728 0.840177885327 0.15643446504
0.864929335863 -0.484441642061 -0.131200378813
0.843911474622 -0.375038567478 -0.383613732685
0.891006524188 0.238676930319 -0.386187385588
0.987688340595 0.0822424652791 -0.133071104141
0.925614793411 0.353553390593 -0.135045378369
0.862668480416 0.433888564553 -0.259891913008
0.757935420048 0.453990499739 -0.468429850867
0.790569415042 0.572061402817 -0.218508012224
0.309016994375 0.5 -0.809016994375
0.37174803446 0.601500955008 -0.707106781186
0.375038567478 0.383613732685 -0.843911474622
0.218508012224 0.790569415042 -0.572061402817
0.16062203564 0.702046444776 -0.69378047756
-0.606825149272 -0.758652300163 -0.237086325351
-0.757935420048 -0.453990499739 -0.468429850867
-0.688190960236 -0.587785252292 -0.425325404176
-0.702309846744 -0.647411893882 -0.296004592578
-0.601500955008 -0.707106781186 -0.37174803446
0.606825149272 -0.758652300163 -0.237086325351
0.525731112119 -0.850650808352 0.0
0.622785464303 -0.778605872826 0.0768840702267
0.702046444776 -0.69378047756 -0.16062203564
0.78384304242 -0.615642020874 -0.0810862934433
0.587785252292 -0.425325404176 -0.688190960236
0.757935420048 -0.453990499739 -0.468429850867
0.518332565981 -0.56541318032 -0.641591214532
0.688190960236 -0.587785252292 -0.425325404176
0.783451698363 -0.516121620051 -0.346153014789
0.792649229259 -0.571251659136 -0.213022865649
0.702309846744 -0.647411893882 -0.296004592578
0.601500955008 -0.707106781186 -0.37174803446
0.162459848116 0.26286555606 -0.951056516295
0.224799542734 0.134651124684 -0.965056599484
0.0 0.266404701135 0.963861263467
-0.0822424652791 0.133071104141 0.987688340595
0.0822424652791 0.133071104141 0.987688340595
0.0 0.0 1.0
-0.220117027473 0.132792476828 0.966392597402
-0.137952242128 0.0 0.990438881957
0.220117027473 0.132792476828 0.966392597402
0.137952242128 0.0 0.990438881957
-0.220117027473 -0.132792476828 0.966392597402
-0.0822424652791 -0.133071104141 0.987688340595
0.0 -0.266404701135 0.963861263467
0.0822424652791 -0.133071104141 0.987688340595
0.220117027473 -0.132792476828 0.966392597402
-0.0810862934433 0.78384304242 -0.615642020874
-0.237086325351 0.606825149272 -0.758652300163
-0.453990499739 -0.468429850867 -0.757935420048
-0.707106781186 -0.37174803446 -0.601500955008
-0.37174803446 -0.601500955008 -0.707106781186
-0.468429850867 -0.757935420048 -0.453990499739
0.37174803446 -0.601500955008 -0.707106781186
0.468429850867 -0.757935420048 -0.453990499739
-0.0822424652791 0.133071104141 -0.987688340595
0.0761780342124 0.396525177464 -0.914857743445
-0.238676930319 0.386187385588 -0.891006524188
0.0 0.525731112119 -0.850650808352
0.0768840702267 0.622785464303 -0.778605872826
-0.518332565981 -0.56541318032 -0.641591214532
-0.564254211766 -0.646577791798 -0.51337544123
-0.646577791798 -0.51337544123 -0.564254211766
0.564254211766 -0.646577791798 -0.51337544123

CELLS 378 1512
3 0 1 2
3 2 3 4
3 5 6 7
3 8 9 10
3 11 12 13
3 12 14 13
3 12 15 14
3 15 12 16
3 16 12 11
3 17 14 18
3 14 19 18
3 14 15 19
3 20 19 21
3 19 22 21
3 19 15 22
3 21 22 23
3 15 24 22
3 24 25 22
3 24 26 25
3 22 25 23
3 16 24 15
3 23 25 27
3 25 28 27
3 25 26 28
3 27 28 7
3 21 29 30
3 21 23 29
3 23 31 29
3 31 32 29
3 31 9 32
3 29 32 33
3 23 27 31
3 27 34 31
3 27 7 34
3 31 34 9
3 32 9 8
3 7 28 5
3 5 28 26
3 9 34 6
3 34 7 6
3 35 36 37
3 37 36 38
3 39 40 36
3 40 41 36
3 39 42 40
3 42 43 40
3 42 44 43
3 40 43 45
3 46 47 48
3 48 47 11
3 45 43 46
3 43 49 46
3 43 44 49
3 50 37 2
3 37 38 2
3 51 52 5
3 52 6 5
3 51 53 52
3 53 54 52
3 53 55 54
3 52 54 6
3 55 56 57
3 56 58 57
3 57 58 59
3 55 57 60
3 57 61 60
3 57 59 61
3 60 61 10
3 10 61 62
3 62 61 59
3 6 63 9
3 9 63 10
3 10 63 60
3 63 54 60
3 63 6 54
3 60 54 55
3 53 56 55
3 44 42 64
3 33 65 66
3 66 67 68
3 33 69 65
3 69 8 70
3 68 67 71
3 71 72 4
3 8 73 70
3 73 62 74
3 62 75 74
3 75 0 76
3 0 75 77
3 77 75 62
3 76 0 78
3 72 78 4
3 4 78 2
3 78 0 2
3 64 79 44
3 44 79 80
3 64 81 79
3 81 82 79
3 81 83 82
3 79 82 80
3 64 84 81
3 84 85 81
3 84 86 85
3 81 85 83
3 80 82 87
3 82 88 87
3 82 83 88
3 87 88 89
3 68 71 3
3 3 71 4
3 89 90 5
3 90 51 5
3 91 92 93
3 93 92 26
3 26 92 5
3 5 92 94
3 94 95 5
3 95 89 5
3 96 97 98
3 97 99 98
3 97 86 99
3 98 99 100
3 62 73 10
3 10 73 8
3 89 88 90
3 88 101 90
3 85 97 102
3 85 86 97
3 86 103 99
3 103 104 99
3 103 105 104
3 99 104 100
3 106 103 84
3 84 103 86
3 87 95 107
3 87 89 95
3 20 108 19
3 19 108 18
3 16 93 24
3 24 93 26
3 30 109 21
3 21 109 20
3 33 110 29
3 29 110 30
3 8 69 32
3 32 69 33
3 20 109 111
3 109 112 111
3 109 30 112
3 111 112 68
3 30 110 112
3 110 66 112
3 110 33 66
3 112 66 68
3 18 113 17
3 17 113 68
3 18 108 113
3 108 111 113
3 108 20 111
3 113 111 68
3 96 98 58
3 58 98 100
3 77 114 0
3 0 114 1
3 1 115 2
3 2 115 50
3 38 116 2
3 116 3 2
3 38 117 116
3 117 118 116
3 117 119 118
3 116 118 3
3 119 120 118
3 120 121 118
3 120 17 121
3 118 121 3
3 3 121 68
3 68 121 17
3 59 122 123
3 122 124 123
3 122 100 124
3 123 124 77
3 59 123 62
3 123 77 62
3 100 125 124
3 125 114 124
3 125 1 114
3 124 114 77
3 13 126 11
3 11 126 119
3 119 126 120
3 126 127 120
3 126 13 127
3 120 127 17
3 17 127 14
3 14 127 13
3 50 128 37
3 128 35 37
3 35 129 36
3 129 39 36
3 45 130 40
3 40 130 41
3 41 131 36
3 36 131 38
3 38 131 117
3 131 132 117
3 131 41 132
3 117 132 119
3 41 130 132
3 130 133 132
3 130 45 133
3 132 133 119
3 45 134 133
3 134 135 133
3 134 48 135
3 133 135 119
3 119 135 11
3 135 48 11
3 48 134 46
3 46 134 45
3 136 137 46
3 46 137 47
3 49 138 46
3 46 138 136
3 47 139 11
3 11 139 16
3 47 137 139
3 137 140 139
3 137 136 140
3 139 140 16
3 56 141 58
3 141 96 58
3 100 122 58
3 58 122 59
3 51 142 53
3 142 143 53
3 143 144 53
3 144 56 53
3 143 145 144
3 145 141 144
3 145 96 141
3 144 141 56
3 105 146 147
3 146 148 147
3 146 149 148
3 147 148 1
3 149 150 148
3 150 115 148
3 150 50 115
3 148 115 1
3 39 151 42
3 42 151 64
3 39 152 151
3 152 153 151
3 152 154 153
3 151 153 64
3 39 129 152
3 129 155 152
3 129 35 155
3 152 155 154
3 35 156 155
3 156 157 155
3 156 149 157
3 155 157 154
3 35 128 156
3 128 150 156
3 128 50 150
3 156 150 149
3 154 157 158
3 157 146 158
3 157 149 146
3 158 146 105
3 136 138 159
3 138 160 159
3 138 49 160
3 159 160 80
3 80 160 44
3 160 49 44
3 65 161 66
3 161 67 66
3 65 162 161
3 162 163 161
3 162 164 163
3 161 163 67
3 70 165 69
3 69 165 65
3 65 165 162
3 165 166 162
3 165 70 166
3 162 166 164
3 67 167 71
3 167 72 71
3 67 163 167
3 163 168 167
3 163 164 168
3 167 168 72
3 74 169 73
3 73 169 70
3 70 169 166
3 169 170 166
3 169 74 170
3 166 170 164
3 76 171 75
3 75 171 74
3 74 171 170
3 171 172 170
3 171 76 172
3 170 172 164
3 164 172 168
3 172 173 168
3 172 76 173
3 168 173 72
3 72 173 78
3 78 173 76
3 16 174 93
3 174 91 93
3 91 175 92
3 175 94 92
3 83 176 88
3 88 176 101
3 101 177 90
3 90 177 51
3 102 178 85
3 85 178 83
3 96 179 97
3 97 179 102
3 1 125 104
3 104 125 100
3 105 147 104
3 104 147 1
3 64 180 84
3 180 106 84
3 106 181 103
3 181 105 103
3 80 182 159
3 182 183 159
3 182 107 183
3 159 183 136
3 107 184 183
3 184 185 183
3 184 94 185
3 183 185 136
3 107 182 87
3 87 182 80
3 94 184 95
3 95 184 107
3 94 175 185
3 175 186 185
3 175 91 186
3 185 186 136
3 136 186 140
3 186 174 140
3 186 91 174
3 140 174 16
3 83 178 187
3 178 188 187
3 178 102 188
3 187 188 143
3 143 188 145
3 188 179 145
3 188 102 179
3 145 179 96
3 51 177 142
3 177 189 142
3 177 101 189
3 142 189 143
3 143 189 187
3 189 176 187
3 189 101 176
3 187 176 83
3 105 181 158
3 181 190 158
3 181 106 190
3 158 190 154
3 154 190 153
3 190 180 153
3 190 106 180
3 153 180 64

CELL_TYPES 378
5
5
5
5
5
5
5
5
5
5
5
5
5
5
5
5
5
5
5
5
5
5
5
5
5
5
5
5
5
5
5
5
5
5
5
5
5
5
5
5
5
5
5
5
5
5
5
5
5
5
5
5
5
5
5
5
5
5
5
5
5
5
5
5
5
5
5
5
5
5
5
5
5
5
5
5
5
5
5
5
5
5
5
5
5
5
5
5
5
5
5
5
5
5
5
5
5
5
5
5
5
5
5
5
5
5
5
5
5
5
5
5
5
5
5
5
5
5
5
5
5
5
5
5
5
5
5
5
5
5
5
5
5
5
5
5
5
5
5
5
5
5
5
5
5
5
5
5
5
5
5
5
5
5
5
5
5
5
5
5
5
5
5
5
5
5
5
5
5
5
5
5
5
5
5
5
5
5
5
5
5
5
5
5
5
5
5
5
5
5
5
5
5
5
5
5
5
5
5
5
5
5
5
5
5
5
5
5
5
5
5
5
5
5
5
5
5
5
5
5
5
5
5
5
5
5
5
5
5
5
5
5
5
5
5
5
5
5
5
5
5
5
5
5
5
5
5
5
5
5
5
5
5
5
5
5
5
5
5
5
5
5
5
5
5
5
5
5
5
5
5
5
5
5
5
5
5
5
5
5
5
5
5
5
5
5
5
5
5
5
5
5
5
5
5
5
5
5
5
5
5
5
5
5
5
5
5
5
5
5
5
5
5
5
5
5
5
5
5
5
5
5
5
5
5
5
5
5
5
5
5
5
5
5
5
5
5
5
5
5
5
5
5
5
5
5
5
5
5
5
5
5
5
5
5
5
5
5
5
5
5
5
5
5
5
5
5
5
5
5
5
5
5
5
5
5
5
5

CELL_DATA 378
SCALARS cell_data_0 double
LOOKUP_TABLE default
5.42777663022e-05
5.70456931279e-07
2.64704426024e-05
5.21559511396e-05
1.4963063304e-06
3.74714881036e-06
9.24294002675e-07
1.83731198704e-05
1.24199921534e-05
4.78333146993e-06
5.44222017333e-06
2.42599783128e-06
6.42633532402e-06
5.22792223424e-06
1.91914837193e-06
4.68394747413e-06
4.9875995692e-07
2.82345337621e-06
4.35160958587e-06
2.32616515844e-06
1.75410669091e-05
1.94998590836e-06
1.80930606178e-06
5.24851546528e-06
2.18004989594e-06
9.8149891788e-06
6.77905716955e-06
7.65093180778e-06
1.23282109284e-05
1.06656339701e-05
1.79333948784e-05
4.15480342752e-06
4.45508293112e-06
1.81547576855e-06
5.12320187113e-06
2.95183882379e-05
1.58942222363e-05
1.71439228527e-05
7.79080763637e-06
5.47569733462e-06
5.18503595488e-06
4.0465519484e-06
9.22315999283e-06
4.77568699779e-05
9.34202533593e-06
8.09947536224e-06
5.23514245705e-06
6.44952933044e-06
0.00030070712304
0.00018406655484
3.33357734046e-05
7.72420158602e-05
3.01941417802e-05
3.26441863853e-06
2.30368850867e-06
0.000173255108444
7.01458152007e-05
0.00017459784371
0.000186718444189
0.000124104036559
6.61130283511e-05
0.000118305740101
0.000215514245336
8.44145526677e-05
7.1211971346e-05
0.000137957092489
7.45362385909e-05
5.83197362191e-05
2.14549038605e-06
2.37826206402e-05
3.26674639848e-06
1.39841627983e-05
1.64791930128e-05
7.31124176774e-05
2.9880960499e-05
7.47576430918e-05
0.000170008281284
3.49561080998e-05
2.83360081805e-05
2.67016722858e-05
2.40540585863e-05
1.81071714457e-05
2.29597965065e-05
4.09355258584e-05
1.75795220918e-05
1.82882656286e-05
2.23884908517e-05
2.1627324775e-05
4.35349144099e-05
4.21377939223e-05
1.84888674918e-05
4.0949284557e-05
4.26484231795e-05
3.24940965854e-05
2.5580880165e-05
3.62409629448e-05
1.14756013599e-05
7.40874625177e-07
5.54090494628e-06
1.71004814035e-05
9.70269408595e-06
9.70655047291e-07
7.78824752306e-06
5.21458160372e-06
1.60607080562e-05
2.1951042259e-06
5.83581629957e-06
4.46490164906e-06
4.17729003945e-05
3.36706758292e-05
1.3827579193e-05
6.18757829368e-05
1.51250207357e-08
5.56376512959e-06
2.19579377543e-05
8.23621048386e-06
9.59080298313e-06
1.27115698463e-05
1.3711974929e-07
1.20585210672e-06
4.98062190985e-06
2.01256290619e-06
2.87884941392e-05
2.63460388631e-05
4.89182375733e-06
1.01454296491e-05
1.02121934404e-05
7.20545467624e-06
2.34764803319e-05
2.9071948287e-05
3.17752882582e-05
5.54262149532e-06
4.62511153635e-05
2.83002753287e-05
1.41214086774e-05
5.02227776092e-06
2.27687339419e-06
2.66076139357e-06
4.41057619063e-06
3.42000908632e-06
4.73116101609e-06
3.93295175397e-06
7.93596484279e-06
6.51898936438e-06
1.61221550195e-05
1.89561882537e-05
5.20471464401e-06
7.06498696164e-06
6.7889187625e-06
9.14840625539e-06
8.38373202563e-06
9.77920973593e-06
1.0674499791e-05
1.04914326271e-05
7.15804522621e-06
1.35551184203e-05
3.87034308012e-06
5.05844281867e-06
3.9890832374e-06
7.88864354568e-06
5.28881781697e-05
4.4644737744e-05
1.54547240881e-05
2.00913661262e-05
6.63695842275e-06
3.26932624691e-06
8.07816169342e-06
3.9035725027e-06
2.4476099119e-06
2.59121649568e-06
3.38119903363e-05
4.38214113706e-06
2.72954630691e-05
2.52757264586e-06
2.01227016527e-06
1.71572019485e-06
2.44932412995e-05
2.38530398257e-05
3.44974303759e-06
4.33292827866e-06
2.75391695349e-06
4.41863133396e-06
1.99773259154e-05
1.54997058938e-05
3.41867755084e-06
4.69023643031e-06
3.9998586587e-06
6.35551946364e-06
8.60409818009e-07
2.84348020206e-05
1.32690626563e-05
7.19781445025e-07
1.13549973989e-06
4.9054335338e-07
1.77834319459e-06
2.01912831657e-06
2.72277376876e-07
1.05907574399e-06
1.33556543052e-06
1.2483076559e-06
4.42951370135e-06
2.02433324351e-05
1.45248777713e-05
3.8462013322e-07
6.08271308038e-07
5.68036311804e-08
8.35307964546e-06
1.51430614548e-05
1.04220298416e-05
5.8355554877e-07
6.7135843785e-07
1.06512182643e-05
3.78680403236e-07
6.16754923449e-07
2.40818697552e-05
1.09986507979e-05
2.65771912847e-05
5.20256177396e-05
6.71671219658e-05
1.98175481579e-05
1.90272153477e-05
6.91633073419e-05
3.87282888925e-05
1.55005927036e-05
5.50102290275e-05
8.49719194917e-06
2.73840366327e-05
7.60778143272e-07
8.77798209871e-07
4.21170107812e-06
6.73438868767e-05
2.34816092712e-05
4.86128317898e-05
4.78275136765e-05
5.26300727672e-05
5.7015213024e-05
6.01702877745e-05
8.09663958791e-05
8.14098015056e-06
4.08367028534e-07
3.99455703355e-07
1.37280636183e-05
4.74754441025e-08
7.20745383567e-07
9.73237778127e-07
1.42699129132e-06
1.2333237945e-06
3.43645672171e-07
1.71782958699e-07
7.21698362843e-07
3.8384758985e-06
1.42095973708e-05
4.48664814367e-07
2.78117044854e-07
9.72243084326e-08
5.74818083925e-06
1.64789614412e-07
3.95076070196e-08
2.37745023246e-07
6.79644848665e-08
2.32769002976e-07
2.26758059886e-08
3.03814553141e-07
1.25118222045e-07
8.74930830427e-08
2.84023492388e-07
3.57220135018e-07
3.94244360335e-07
2.80637503541e-07
1.44563864655e-07
2.13238794715e-07
7.42975855829e-08
3.67666848911e-07
3.04266554391e-05
5.82477955477e-05
4.77721288607e-05
0.000105721223639
0.000124657388765
3.38034072676e-05
3.38835762454e-05
1.58231557789e-05
4.01764569087e-06
1.95972245658e-05
1.51740245289e-05
2.83858079467e-05
2.73635796419e-05
1.38763234431e-05
2.54970667507e-07
1.43150083697e-05
1.65934474855e-05
2.72391262985e-05
2.83558022893e-05
1.342540979e-05
1.36622380543e-06
1.62047006579e-05
1.47087407475e-05
2.75010179776e-05
2.84642103472e-05
1.43189473413e-05
2.60640332015e-07
1.38498358273e-05
1.65679225457e-05
3.32577745819e-05
3.33032895947e-05
1.6738344745e-05
2.86834116929e-07
1.64794339599e-05
1.99585599707e-05
1.65399011433e-05
2.41767329015e-07
1.36586207902e-05
1.47425867381e-05
2.86415527894e-05
2.74251647864e-05
3.07144830075e-06
9.84959255602e-08
9.90149237056e-08
5.0773645522e-07
2.89503469031e-06
3.47966853745e-06
4.01195292251e-06
1.26508056107e-05
4.69581797968e-06
2.55327630699e-06
4.32768033186e-07
4.55637696416e-06
4.49556121331e-06
5.68416192609e-06
1.0952756413e-05
6.84373127049e-06
4.73360020303e-06
8.93523200818e-06
2.12154366053e-05
7.45873226738e-06
7.62223452702e-06
9.50398012943e-09
4.98962533164e-06
2.25684243518e-07
4.96319282518e-06
7.62447999548e-09
4.05249064388e-07
2.3505004502e-07
5.48701684677e-06
7.98149788737e-06
1.00302490189e-06
5.39752196959e-06
3.47202037527e-07
2.0133852458e-08
3.89753392529e-09
2.11054457004e-07
5.22586142159e-07
2.54948724551e-07
4.51244220625e-09
3.75956452836e-06
1.39000756741e-06
4.90823751729e-09
2.60993133943e-06
8.21505802513e-06
8.91103458912e-06
2.88103073512e-07
2.60536425535e-06
5.30894873938e-07
6.69193991367e-06
1.05188474526e-07
1.64273243698e-06
8.41622517442e-06
8.20568277514e-06
4.94604426211e-09
1.66749555724e-06
1.37439719405e-06
1.45606983899e-07
1.72934439298e-07
4.98187690499e-06
2.96978204413e-07
6.09924946857e-08
1.00257141968e-07
4.95945046216e-06
2.82434458153e-06

