# vtk DataFile Version 3.0
File Name: Molecule/sphere_cent/sphere_cent_0-s2.vtk
ASCII
DATASET UNSTRUCTURED_GRID
FIELD FieldData 1
TIME 1 1 double
0.0
POINTS 51 double
0.85065079 0.52573115 0.0
0.80892873 0.30898413 -0.49994594
0.49994558 0.80892938 -0.30898312
0.30898276 0.49994543 -0.80892956
0.52573109 0.0 -0.85065079
0.0 0.85065079 -0.52573115
0.49994588 0.80892897 0.3089838
-8.38999654e-07 0.9998914 3.80273057e-09
2.22044605e-16 0.850650787 0.525731087
-0.49994585 0.80892897 0.3089838
-0.49994597 0.80892873 -0.30898413
-0.85065079 0.52573115 0.0
-0.30898312 0.49994561 0.80892938
-0.80892956 0.30898276 0.49994543
-0.525731087 5.55111512e-17 0.850650787
0.30898345 0.4999457 0.80892915
-1.68982695e-09 -8.44592535e-07 0.9998914
0.525731087 2.77555756e-17 0.850650787
-0.3089838 -0.49994585 0.80892897
0.30898413 -0.49994597 0.80892873
0.0 -0.85065079 0.52573109
0.80892915 -0.30898345 0.4999457
0.49994546 -0.80892956 0.30898276
0.85065079 -0.52573109 0.0
0.99989146 -9.97142457e-09 4.16701624e-07
0.80892909 0.30898342 0.49994564
-0.52573115 0.0 -0.85065079
-0.80892938 -0.30898309 -0.49994558
-0.80892915 0.30898345 -0.4999457
-0.999891341 8.57100435e-09 4.13158006e-07
-0.850650787 -0.525731087 4.4408921e-16
-0.30898345 0.49994564 -0.80892909
-0.49994546 -0.80892956 -0.30898276
-0.4999457 -0.80892915 0.30898345
4.25156401e-07 -0.999891341 4.2034709e-09
2.22044605e-16 -0.850650787 -0.525731087
-0.80892909 -0.30898345 0.49994567
-0.30898413 -0.49994594 -0.80892873
0.49994564 -0.80892909 -0.30898345
0.8089292 -0.30898347 -0.49994573
0.30898312 -0.49994558 -0.80892938
1.08978977e-08 -8.69491412e-09 -0.9998914
0.90441033 -0.15449174 -0.24997266
0.808928967 3.27825e-07 -0.499945834
0.90441009 0.15449206 -0.24997276
0.15449156 -0.24997279 -0.90441039
-5.0664e-07 -0.49994576 -0.808929056
-0.15449206 -0.24997297 -0.90441006
0.65443748 0.55895619 0.40446472
0.40446466 0.65443733 0.55895647
0.55895627 0.40446456 0.65443739

CELLS 98 392
3 0 1 2
3 1 3 2
3 1 4 3
3 2 3 5
3 0 2 6
3 2 7 6
3 2 5 7
3 6 7 8
3 8 7 9
3 7 10 9
3 7 5 10
3 9 10 11
3 8 9 12
3 9 13 12
3 9 11 13
3 12 13 14
3 8 12 15
3 12 16 15
3 12 14 16
3 15 16 17
3 14 18 16
3 18 19 16
3 18 20 19
3 16 19 17
3 17 19 21
3 19 22 21
3 19 20 22
3 21 22 23
3 23 24 21
3 24 25 21
3 24 0 25
3 21 25 17
3 26 27 28
3 27 29 28
3 27 30 29
3 28 29 11
3 5 31 10
3 31 28 10
3 31 26 28
3 10 28 11
3 30 32 33
3 32 34 33
3 32 35 34
3 33 34 20
3 30 33 36
3 33 18 36
3 33 20 18
3 36 18 14
3 14 13 36
3 13 29 36
3 13 11 29
3 36 29 30
3 26 37 27
3 37 32 27
3 37 35 32
3 27 32 30
3 35 38 34
3 38 22 34
3 38 23 22
3 34 22 20
3 4 39 40
3 39 38 40
3 39 23 38
3 40 38 35
3 4 41 3
3 41 31 3
3 41 26 31
3 3 31 5
3 39 42 23
3 23 42 24
3 39 43 42
3 43 44 42
3 43 1 44
3 42 44 24
3 1 43 4
3 39 43 4
3 24 44 0
3 44 1 0
3 40 45 4
3 4 45 41
3 40 46 45
3 46 47 45
3 46 37 47
3 45 47 41
3 37 46 35
3 40 46 35
3 41 47 26
3 47 37 26
3 6 48 0
3 0 48 25
3 6 49 48
3 49 50 48
3 49 15 50
3 48 50 25
3 15 49 8
3 6 49 8
3 25 50 17
3 50 15 17

CELL_TYPES 98
5
5
5
5
5
5
5
5
5
5
5
5
5
5
5
5
5
5
5
5
5
5
5
5
5
5
5
5
5
5
5
5
5
5
5
5
5
5
5
5
5
5
5
5
5
5
5
5
5
5
5
5
5
5
5
5
5
5
5
5
5
5
5
5
5
5
5
5
5
5
5
5
5
5
5
5
5
5
5
5
5
5
5
5
5
5
5
5
5
5
5
5
5
5
5
5
5
5

CELL_DATA 98
SCALARS cell_data_0 double
LOOKUP_TABLE default
1.02066618817e-06
3.83002749724e-06
4.24388056555e-07
7.75182133143e-07
1.31059108849e-06
3.40915857835e-06
7.92128559383e-07
6.55320002848e-06
9.27729629745e-07
2.63554398507e-06
5.80167722527e-07
4.84455670368e-08
5.63559077129e-08
1.08732932413e-06
1.32529554933e-06
4.14173836528e-07
1.32568626513e-06
3.1499155108e-06
5.51099469606e-08
5.46552986655e-07
6.27843852636e-07
3.4893086364e-06
1.16544565135e-06
3.06342254549e-07
3.03825304466e-07
2.40802135427e-06
8.31720198686e-07
4.30958516691e-07
5.69784992756e-07
1.02188367248e-06
1.31003555885e-06
1.42201450249e-06
1.6268615283e-06
1.69374843756e-06
1.37337581166e-06
9.43270526176e-07
4.7257089854e-07
2.83329441732e-06
1.64026710261e-06
1.74608663013e-08
1.3905902425e-07
2.61026136847e-06
3.89038423091e-07
2.94400362095e-07
1.21212920058e-06
2.24678494585e-06
4.30644320373e-07
2.37851247105e-07
2.24506145274e-07
1.42312803687e-06
1.16923110838e-06
1.35041289327e-06
1.86971045167e-06
2.52510099783e-06
5.41694761413e-08
4.81953393418e-07
1.85902264813e-06
1.70675017824e-06
2.54039633723e-07
5.35349088483e-07
5.06610011969e-06
1.14491570271e-06
4.74477515841e-07
4.71120933479e-06
1.17254869355e-07
2.44977058521e-06
5.36331521015e-07
1.96343064225e-06
2.6965309526e-07
2.56989268881e-07
1.46715488471e-06
5.72827756479e-07
1.52609603193e-06
6.83419798257e-07
2.59821811878e-06
4.82855725712e-06
8.37564333043e-07
1.81587408267e-07
1.50534793193e-06
2.80714856641e-07
1.39816185513e-06
6.13578156492e-07
2.03570458971e-06
2.89624849786e-07
3.56981484329e-06
5.02771099164e-06
4.73857675145e-07
1.20311934794e-06
1.55855899015e-07
7.31019679614e-07
1.81928444479e-06
5.48568997777e-07
1.52510816244e-06
6.85136026333e-07
2.1578185238e-06
3.65050417089e-06
7.94870224746e-07
1.4214814982e-07

