# vtk DataFile Version 3.0
File Name: Molecule/sphere_dip_sim/sphere_dip_sim_0-s4.vtk
ASCII
DATASET UNSTRUCTURED_GRID
FIELD FieldData 1
TIME 1 1 double
0.0
POINTS 213 double
0.0 0.850650808352 -0.525731112119
-0.309016994375 0.5 -0.809016994375
-0.5 0.809016994375 -0.309016994375
-0.850650808352 -0.525731112119 0.0
-0.5 -0.809016994375 -0.309016994375
0.0 -0.850650808352 0.525731112119
-0.425325404176 0.688190960236 0.587785252292
-0.587785252292 0.425325404176 0.688190960236
-0.309016994375 0.5 0.809016994375
-0.16062203564 0.702046444776 0.69378047756
0.309016994375 0.5 0.809016994375
-0.433888564553 0.259891913008 0.862668480416
-0.162459848116 0.26286555606 0.951056516295
0.5 0.809016994375 0.309016994375
0.259891913008 0.862668480416 0.433888564553
-0.809016994375 0.309016994375 -0.5
-0.961938357784 0.273266528913 0.0
-0.850650808352 0.525731112119 0.0
-0.69378047756 -0.16062203564 0.702046444776
-0.809016994375 -0.309016994375 0.5
-0.463130780147 -0.663864736987 0.587191188171
-0.69378047756 0.16062203564 0.702046444776
-0.850650808352 0.0 0.525731112119
-0.809016994375 0.309016994375 0.5
-0.951056516295 0.162459848116 0.26286555606
-0.951056516295 -0.162459848116 0.26286555606
-1.0 0.0 0.0
-0.862668480416 0.433888564553 0.259891913008
0.259891913008 0.862668480416 -0.433888564553
0.309016994375 0.5 -0.809016994375
0.5 0.809016994375 -0.309016994375
0.587191188171 0.463130780147 -0.663864736987
0.702046444776 0.69378047756 -0.16062203564
0.525731112119 0.850650808352 0.0
0.702046444776 0.69378047756 0.16062203564
0.0 1.0 0.0
0.862668480416 0.433888564553 0.259891913008
0.950095300354 -0.124060408023 0.286230563367
1.0 0.0 0.0
0.809016994375 0.309016994375 0.5
0.69378047756 0.16062203564 0.702046444776
0.850650808352 0.525731112119 0.0
0.688190960236 0.587785252292 0.425325404176
0.396525177464 0.914857743445 -0.0761780342124
0.386187385588 0.891006524188 0.238676930319
0.26286555606 0.951056516295 0.162459848116
-0.707106781186 0.37174803446 0.601500955008
-0.688190960236 0.587785252292 0.425325404176
-0.516121620051 0.346153014789 0.783451698363
-0.647411893882 0.296004592578 0.702309846744
-0.571251659136 0.213022865649 0.792649229259
-0.758652300163 0.237086325351 0.606825149272
-0.525731112119 0.0 0.850650808352
0.0761780342124 0.396525177464 0.914857743445
-0.0822424652791 0.133071104141 0.987688340595
0.162459848116 0.26286555606 0.951056516295
0.0 0.0 1.0
-0.273266528913 0.0 0.961938357784
-0.220117027473 0.132792476828 0.966392597402
-0.137952242128 0.0 0.990438881957
0.137952242128 0.0 0.990438881957
0.301683612961 0.259052163504 0.917539630891
0.273266528913 0.0 0.961938357784
0.142443140087 -0.253835534286 0.956701350149
0.0 -0.486964520207 0.873421751538
0.309016994375 -0.5 0.809016994375
0.0 -0.251573297929 0.967838248763
-0.142443140087 -0.253835534286 0.956701350149
0.525731112119 0.0 -0.850650808352
0.335692209402 -0.147871074393 -0.930292903286
0.273266528913 0.0 -0.961938357784
0.0628188945277 -0.144934938207 -0.987445011217
0.124060408023 -0.286230563367 -0.950095300354
0.0 0.0 -1.0
-0.161501284767 -0.284672260142 -0.944922768973
-0.224799542734 -0.134651124684 -0.965056599484
-0.433888564553 -0.259891913008 -0.862668480416
-0.309016994375 -0.5 -0.809016994375
-0.273266528913 0.0 -0.961938357784
-0.484441642061 -0.131200378813 -0.864929335863
-0.525731112119 0.0 -0.850650808352
-0.484441642061 0.131200378813 -0.864929335863
-0.809016994375 -0.309016994375 -0.5
-0.224799542734 0.134651124684 -0.965056599484
-0.433888564553 0.259891913008 -0.862668480416
-0.161501284767 0.284672260142 -0.944922768973
0.0628188945277 0.144934938207 -0.987445011217
0.124060408023 0.286230563367 -0.950095300354
0.335692209402 0.147871074393 -0.930292903286
0.0664465427532 0.608911721919 -0.790450107133
-0.26286555606 0.951056516295 -0.162459848116
-0.850650808352 0.0 -0.525731112119
-0.951056516295 -0.162459848116 -0.26286555606
-0.951056516295 0.162459848116 -0.26286555606
-0.587785252292 0.425325404176 -0.688190960236
-0.702046444776 0.69378047756 -0.16062203564
-0.425325404176 -0.688190960236 -0.587785252292
-0.587785252292 -0.425325404176 -0.688190960236
-0.688190960236 -0.587785252292 -0.425325404176
-0.16062203564 -0.702046444776 -0.69378047756
-0.259891913008 -0.862668480416 -0.433888564553
0.0 -0.850650808352 -0.525731112119
0.132792476828 0.966392597402 0.220117027473
0.264082750659 0.916244175191 0.301258879093
0.131655371352 0.924304600611 0.358228793487
0.0 0.961938357784 0.273266528913
0.133071104141 0.987688340595 0.0822424652791
0.0 0.990438881957 0.137952242128
0.131200378813 0.864929335863 0.484441642061
0.0 0.915043421233 0.403355348617
0.0 0.850650808352 0.525731112119
-0.131200378813 0.864929335863 0.484441642061
-0.131655371352 0.924304600611 0.358228793487
-0.259891913008 0.862668480416 0.433888564553
-0.132792476828 0.966392597402 0.220117027473
-0.264082750659 0.916244175191 0.301258879093
-0.26286555606 0.951056516295 0.162459848116
-0.133071104141 0.987688340595 0.0822424652791
-0.383613732685 0.843911474622 0.375038567478
-0.386187385588 0.891006524188 0.238676930319
-0.5 0.809016994375 0.309016994375
-0.525731112119 0.850650808352 0.0
-0.396525177464 0.914857743445 -0.0761780342124
-0.78384304242 0.615642020874 0.0810862934433
-0.622785464303 0.778605872826 -0.0768840702267
-0.702046444776 0.69378047756 0.16062203564
-0.606825149272 0.758652300163 0.237086325351
-0.0810862934433 0.78384304242 0.615642020874
-0.213022865649 0.792649229259 0.571251659136
-0.346153014789 0.783451698363 0.516121620051
-0.296004592578 0.702309846744 0.647411893882
-0.468429850867 0.757935420048 0.453990499739
-0.601500955008 0.707106781186 0.37174803446
-0.564254211766 0.646577791798 0.51337544123
-0.702309846744 0.647411893882 0.296004592578
-0.792649229259 0.571251659136 0.213022865649
-0.783451698363 0.516121620051 0.346153014789
-0.864929335863 0.484441642061 0.131200378813
-0.403355348617 0.0 0.915043421233
0.525731112119 0.0 0.850650808352
0.403355348617 0.0 0.915043421233
0.433888564553 -0.259891913008 0.862668480416
0.301683612961 -0.259052163504 0.917539630891
0.0 -0.691032478965 0.722823708117
-0.433888564553 -0.259891913008 0.862668480416
-0.301683612961 -0.259052163504 0.917539630891
-0.309016994375 -0.5 0.809016994375
-0.156473014125 -0.499756699865 0.851915158212
-0.16062203564 -0.702046444776 0.69378047756
-0.375038567478 0.383613732685 -0.843911474622
-0.643954748142 0.294754166588 -0.70600443598
-0.615642020874 -0.0810862934433 0.78384304242
-0.519553709322 -0.342271135182 0.782888506207
0.850650808352 -0.525731112119 0.0
0.862668480416 -0.433888564553 -0.259891913008
0.961938357784 -0.273266528913 0.0
0.951056516295 -0.162459848116 -0.26286555606
0.809016994375 -0.309016994375 -0.5
0.850650808352 0.0 -0.525731112119
0.951056516295 0.162459848116 -0.26286555606
0.809016994375 0.309016994375 -0.5
0.69378047756 -0.16062203564 -0.702046444776
0.69378047756 0.16062203564 -0.702046444776
0.961938357784 0.273266528913 0.0
0.862668480416 0.433888564553 -0.259891913008
0.259891913008 -0.862668480416 -0.433888564553
0.0 -0.961938357784 -0.273266528913
0.26286555606 -0.951056516295 -0.162459848116
0.5 -0.809016994375 -0.309016994375
0.0 -1.0 0.0
0.525731112119 -0.850650808352 0.0
0.26286555606 -0.951056516295 0.162459848116
0.5 -0.809016994375 0.309016994375
0.702046444776 -0.69378047756 -0.16062203564
0.702046444776 -0.69378047756 0.16062203564
0.433888564553 -0.259891913008 -0.862668480416
0.587785252292 -0.425325404176 -0.688190960236
0.309016994375 -0.5 -0.809016994375
0.688190960236 -0.587785252292 -0.425325404176
0.425325404176 -0.688190960236 -0.587785252292
0.16062203564 -0.702046444776 -0.69378047756
0.453801564829 0.487688311352 -0.745804431959
0.433888564553 0.259891913008 -0.862668480416
0.574952633724 0.239260424321 -0.782421828893
0.78384304242 0.615642020874 -0.0810862934433
0.782888506207 0.519553709322 -0.342271135182
0.672029090007 0.60305253265 -0.429772666708
0.706980220005 0.390982670301 -0.589331417834
0.809016994375 -0.309016994375 0.5
0.862668480416 -0.433888564553 0.259891913008
0.778605872826 -0.0768840702267 0.622785464303
0.69378047756 -0.16062203564 0.702046444776
0.615642020874 0.0810862934433 0.78384304242
0.433888564553 0.259891913008 0.862668480416
0.519553709322 0.342271135182 0.782888506207
-0.26286555606 -0.951056516295 -0.162459848116
0.663864736987 -0.587191188171 0.463130780147
0.587785252292 -0.425325404176 0.688190960236
0.425325404176 -0.688190960236 0.587785252292
-0.210007274159 -0.128232063422 0.969254085733
-0.228903919156 -0.382217376519 0.895272513195
-0.0719591046423 -0.374235702806 0.924537465982
0.0968767938029 -0.455198690875 -0.88510397053
-0.0955513933183 -0.40617869999 -0.90878424002
-0.123676426423 -0.565387243454 -0.815500709066
0.0664465427532 -0.608911721919 -0.790450107133
0.0337894653974 -0.742218264012 -0.669305849813
0.189421532437 -0.559446489292 -0.8069319108
-0.0955513933183 0.40617869999 -0.90878424002
0.231747209654 0.218817336638 -0.947846086664
0.209192279393 0.393677847055 -0.895129232559
0.0968767938029 0.455198690875 -0.88510397053
-0.123676426423 0.565387243454 -0.815500709066

CELLS 422 1688
3 0 1 2
3 3 4 5
3 6 7 8
3 9 8 10
3 8 11 12
3 13 14 10
3 15 16 17
3 18 19 20
3 19 20 3
3 3 20 5
3 21 22 18
3 18 22 19
3 23 24 22
3 24 25 22
3 24 26 25
3 22 25 19
3 23 27 24
3 27 16 24
3 24 16 26
3 19 25 3
3 25 26 3
3 0 28 29
3 28 30 31
3 32 33 34
3 32 30 33
3 34 33 13
3 30 28 35
3 28 0 35
3 36 37 38
3 36 39 37
3 37 39 40
3 41 34 36
3 34 42 36
3 34 13 42
3 36 42 39
3 39 42 10
3 13 42 10
3 35 43 30
3 30 43 33
3 43 44 33
3 43 45 44
3 33 44 13
3 13 44 14
3 23 46 47
3 47 46 7
3 7 48 8
3 8 48 11
3 7 49 48
3 49 50 48
3 49 21 50
3 48 50 11
3 7 46 49
3 46 51 49
3 46 23 51
3 49 51 21
3 11 50 52
3 50 21 52
3 12 53 8
3 8 53 10
3 12 54 53
3 54 55 53
3 54 56 55
3 53 55 10
3 57 58 11
3 11 58 12
3 12 58 54
3 58 59 54
3 58 57 59
3 54 59 56
3 56 60 55
3 60 61 55
3 60 62 61
3 55 61 10
3 63 64 65
3 62 60 63
3 60 66 63
3 60 56 66
3 63 66 64
3 59 66 67
3 59 56 66
3 68 69 70
3 69 71 70
3 69 72 71
3 70 71 73
3 72 74 71
3 74 75 71
3 74 76 75
3 71 75 73
3 76 74 77
3 73 75 78
3 75 79 78
3 75 76 79
3 78 79 80
3 81 80 15
3 21 51 22
3 51 23 22
3 80 79 82
3 79 76 82
3 80 81 78
3 81 83 78
3 81 84 83
3 78 83 73
3 84 85 83
3 85 86 83
3 85 87 86
3 83 86 73
3 73 86 70
3 86 88 70
3 70 88 68
3 29 89 0
3 2 90 0
3 35 90 0
3 82 91 80
3 80 91 15
3 82 92 91
3 92 93 91
3 92 26 93
3 91 93 15
3 26 92 3
3 82 92 3
3 1 94 2
3 94 15 2
3 17 95 15
3 2 95 15
3 77 96 97
3 96 98 97
3 96 4 98
3 97 98 82
3 77 99 96
3 99 100 96
3 99 101 100
3 96 100 4
3 82 98 3
3 98 4 3
3 45 102 103
3 102 104 103
3 102 105 104
3 103 104 14
3 45 106 102
3 106 107 102
3 106 35 107
3 102 107 105
3 14 104 108
3 104 109 108
3 104 105 109
3 108 109 110
3 110 109 111
3 109 112 111
3 109 105 112
3 111 112 113
3 105 114 112
3 114 115 112
3 114 116 115
3 112 115 113
3 105 107 114
3 107 117 114
3 107 35 117
3 114 117 116
3 113 115 118
3 115 119 118
3 115 116 119
3 118 119 120
3 120 119 121
3 119 122 121
3 119 116 122
3 121 122 2
3 35 117 90
3 117 122 90
3 117 116 122
3 90 122 2
3 17 123 95
3 123 124 95
3 123 125 124
3 95 124 2
3 120 126 121
3 126 124 121
3 126 125 124
3 121 124 2
3 110 111 127
3 111 128 127
3 111 113 128
3 127 128 9
3 113 129 128
3 129 130 128
3 129 6 130
3 128 130 9
3 113 118 129
3 118 131 129
3 118 120 131
3 129 131 6
3 9 130 8
3 130 6 8
3 120 132 131
3 132 133 131
3 132 47 133
3 131 133 6
3 6 133 7
3 47 133 7
3 120 126 132
3 126 134 132
3 126 125 134
3 132 134 47
3 125 135 134
3 135 136 134
3 135 27 136
3 134 136 47
3 125 123 135
3 123 137 135
3 123 17 137
3 135 137 27
3 47 136 23
3 136 27 23
3 110 127 10
3 127 9 10
3 52 138 11
3 11 138 57
3 139 140 141
3 140 142 141
3 140 62 142
3 141 142 65
3 64 143 65
3 65 143 5
3 52 138 144
3 138 145 144
3 138 57 145
3 144 145 146
3 146 147 148
3 147 143 148
3 147 64 143
3 148 143 5
3 14 108 10
3 108 110 10
3 15 93 16
3 26 93 16
3 1 149 94
3 149 150 94
3 149 84 150
3 94 150 15
3 52 151 144
3 151 152 144
3 151 18 152
3 144 152 146
3 146 152 20
3 18 152 20
3 5 148 20
3 146 148 20
3 18 151 21
3 52 151 21
3 27 137 16
3 137 17 16
3 77 97 76
3 76 97 82
3 153 154 155
3 154 156 155
3 154 157 156
3 155 156 38
3 157 158 156
3 158 159 156
3 158 160 159
3 156 159 38
3 157 161 158
3 161 162 158
3 161 68 162
3 158 162 160
3 38 159 163
3 159 164 163
3 159 160 164
3 163 164 41
3 101 165 166
3 165 167 166
3 165 168 167
3 166 167 169
3 168 170 167
3 170 171 167
3 170 172 171
3 167 171 169
3 168 173 170
3 173 174 170
3 173 153 174
3 170 174 172
3 169 171 5
3 171 172 5
3 68 161 175
3 161 176 175
3 161 157 176
3 175 176 177
3 157 178 176
3 178 179 176
3 178 168 179
3 176 179 177
3 157 154 178
3 154 173 178
3 154 153 173
3 178 173 168
3 177 179 180
3 179 165 180
3 179 168 165
3 180 165 101
3 31 181 28
3 28 181 29
3 29 181 182
3 181 183 182
3 181 31 183
3 182 183 68
3 41 184 164
3 184 185 164
3 184 32 185
3 164 185 160
3 32 186 185
3 186 187 185
3 186 31 187
3 185 187 160
3 31 186 30
3 32 186 30
3 160 187 162
3 187 183 162
3 187 31 183
3 162 183 68
3 41 184 34
3 184 32 34
3 38 163 36
3 41 163 36
3 153 155 37
3 38 155 37
3 188 189 37
3 153 189 37
3 40 190 37
3 37 190 188
3 188 190 191
3 190 192 191
3 190 40 192
3 191 192 139
3 139 192 193
3 192 194 193
3 192 40 194
3 193 194 10
3 40 194 39
3 39 194 10
3 101 166 100
3 166 195 100
3 166 169 195
3 100 195 4
3 4 195 5
3 195 169 5
3 153 189 196
3 189 197 196
3 189 188 197
3 196 197 65
3 139 191 141
3 191 197 141
3 191 188 197
3 141 197 65
3 172 198 5
3 5 198 65
3 65 198 196
3 198 174 196
3 198 172 174
3 196 174 153
3 35 106 43
3 45 106 43
3 45 103 44
3 44 103 14
3 139 193 61
3 10 193 61
3 62 140 61
3 61 140 139
3 65 142 63
3 62 142 63
3 57 199 145
3 199 200 145
3 199 67 200
3 145 200 146
3 67 201 200
3 201 147 200
3 201 64 147
3 200 147 146
3 67 199 59
3 57 199 59
3 64 201 66
3 67 201 66
3 72 202 203
3 202 204 203
3 202 205 204
3 203 204 77
3 77 204 99
3 204 206 99
3 204 205 206
3 99 206 101
3 101 206 180
3 206 207 180
3 206 205 207
3 180 207 177
3 177 207 69
3 205 207 69
3 205 202 69
3 202 72 69
3 68 175 69
3 177 175 69
3 77 203 74
3 72 203 74
3 15 150 81
3 84 150 81
3 1 208 85
3 87 208 85
3 1 149 85
3 84 149 85
3 87 209 86
3 86 209 88
3 29 182 88
3 68 182 88
3 88 210 29
3 210 89 29
3 88 209 210
3 209 211 210
3 209 87 211
3 210 211 89
3 89 212 0
3 0 212 1
3 87 211 208
3 211 212 208
3 211 89 212
3 208 212 1

CELL_TYPES 422
5
5
5
5
5
5
5
5
5
5
5
5
5
5
5
5
5
5
5
5
5
5
5
5
5
5
5
5
5
5
5
5
5
5
5
5
5
5
5
5
5
5
5
5
5
5
5
5
5
5
5
5
5
5
5
5
5
5
5
5
5
5
5
5
5
5
5
5
5
5
5
5
5
5
5
5
5
5
5
5
5
5
5
5
5
5
5
5
5
5
5
5
5
5
5
5
5
5
5
5
5
5
5
5
5
5
5
5
5
5
5
5
5
5
5
5
5
5
5
5
5
5
5
5
5
5
5
5
5
5
5
5
5
5
5
5
5
5
5
5
5
5
5
5
5
5
5
5
5
5
5
5
5
5
5
5
5
5
5
5
5
5
5
5
5
5
5
5
5
5
5
5
5
5
5
5
5
5
5
5
5
5
5
5
5
5
5
5
5
5
5
5
5
5
5
5
5
5
5
5
5
5
5
5
5
5
5
5
5
5
5
5
5
5
5
5
5
5
5
5
5
5
5
5
5
5
5
5
5
5
5
5
5
5
5
5
5
5
5
5
5
5
5
5
5
5
5
5
5
5
5
5
5
5
5
5
5
5
5
5
5
5
5
5
5
5
5
5
5
5
5
5
5
5
5
5
5
5
5
5
5
5
5
5
5
5
5
5
5
5
5
5
5
5
5
5
5
5
5
5
5
5
5
5
5
5
5
5
5
5
5
5
5
5
5
5
5
5
5
5
5
5
5
5
5
5
5
5
5
5
5
5
5
5
5
5
5
5
5
5
5
5
5
5
5
5
5
5
5
5
5
5
5
5
5
5
5
5
5
5
5
5
5
5
5
5
5
5
5
5
5
5
5
5
5
5
5
5
5
5
5
5
5
5
5
5
5
5
5
5
5
5
5
5
5
5
5
5
5
5
5
5
5
5
5
5
5
5
5
5
5
5
5
5
5
5
5
5
5
5
5
5

CELL_DATA 422
SCALARS cell_data_0 double
LOOKUP_TABLE default
5.68462495064e-05
8.17590337059e-05
2.32786306186e-05
7.11297815244e-05
3.56148845349e-05
5.49683939021e-06
2.1727588179e-05
0.000114998083832
0.000263873989002
0.000213856584736
5.34929235648e-05
6.74258119083e-05
0.000177134480162
0.000287337484813
0.000178820883264
0.000115400625382
0.000106999766354
0.000105506789782
7.16965816195e-05
0.000149127998067
0.000159265534139
0.000202772436937
0.000276712155699
0.000244955061521
0.00023449212902
0.000130790270307
0.000225340071059
0.000100756683286
0.000547819771392
0.000248908562313
0.000208277130832
0.00013781817869
0.000150549553759
6.06134401114e-05
7.1527797164e-05
3.80497642742e-06
2.62243151624e-05
7.69939206015e-05
0.000110752056566
0.000112148501113
3.92187744582e-05
7.93501668056e-05
3.28035725071e-05
1.2671640605e-05
5.67786733961e-06
7.92673970564e-06
1.21315139118e-05
4.78603748025e-06
3.21003115086e-06
5.08750199975e-07
3.5344276029e-06
7.13485026338e-06
2.23755953114e-05
2.08309111121e-05
1.22136532571e-05
1.22413435257e-05
9.85241244431e-06
5.3694176471e-05
5.29873937376e-05
3.04205629128e-05
6.53834485522e-06
3.05067061838e-05
3.1956183536e-06
2.35525604005e-05
1.9954130294e-05
8.68133564033e-06
2.96777399041e-06
1.16141406354e-05
1.67780960998e-05
3.04923800609e-05
2.53032193098e-05
2.51818811772e-05
2.00890124571e-05
5.32412059706e-05
2.99730015827e-05
3.2765765277e-05
3.62654206151e-05
2.59678946543e-05
3.5073435386e-05
2.57084488449e-05
2.24951180731e-05
3.3097800295e-05
3.03818505249e-05
4.06385350647e-05
3.54206849974e-05
4.04180557611e-05
3.14578927126e-05
4.47722598726e-05
4.13388322766e-05
3.57574800754e-05
2.72916367922e-05
2.14710176018e-05
2.01909742456e-05
3.15887956409e-05
3.7754782209e-05
5.2997930989e-05
2.66569252058e-05
2.409034609e-05
2.06109701907e-05
2.33983062498e-05
2.56864749654e-05
3.2656533618e-05
2.76255162525e-05
3.45920349883e-05
4.1308180668e-05
3.92772440217e-05
3.85107439791e-05
3.08569760058e-05
2.87575231756e-05
1.35531261227e-05
2.37074897945e-05
4.91673415043e-07
3.25820282366e-05
3.17009302507e-05
1.09928726049e-05
1.80292629016e-06
2.68151760023e-07
6.77996972486e-07
2.69679781434e-05
6.12175681763e-05
4.16725211789e-05
2.06176716107e-05
2.32954360065e-06
3.46849251801e-07
1.99494202377e-05
1.43669777663e-05
7.28119634035e-06
7.02005015933e-06
1.20375476551e-05
8.13545460214e-06
2.12746205226e-06
6.82965820286e-06
4.13582827591e-05
4.4097279728e-05
1.2081233947e-07
4.55335110657e-08
2.93314612423e-07
3.29497318791e-06
2.53594571045e-06
2.59532720228e-07
1.11288277852e-06
1.00490790239e-06
3.39415659675e-06
3.7674823601e-07
9.23340881684e-08
3.88975294014e-06
4.08847009452e-06
1.33295922127e-06
4.91080345377e-07
8.37459270716e-07
1.50945101299e-06
2.58035514583e-06
7.57429970365e-07
6.69297588258e-07
1.99429815156e-07
9.3117722787e-07
1.70703736688e-06
1.69601394215e-06
1.17068269883e-07
3.28220540776e-07
4.90141067025e-07
1.1299132706e-06
6.10744810325e-06
5.38293233233e-09
8.47469171558e-06
8.56609074711e-07
3.40699562483e-06
5.87617474006e-06
3.98673547113e-06
1.78004039748e-06
8.8611869291e-06
2.0383934587e-07
2.89720705142e-06
9.79367034369e-06
2.60854750761e-06
2.03708843012e-06
5.10425053506e-06
1.59946217236e-06
1.58506915033e-05
1.62817820941e-05
4.27504909367e-06
1.38064675373e-05
1.08990157241e-05
2.30378325996e-05
1.33048763498e-05
1.07080744416e-05
4.08320711641e-06
1.60441815561e-05
9.029647814e-06
1.45774183616e-05
2.18686679655e-06
2.89498169026e-06
1.50919568497e-05
2.38531129416e-05
4.8492277466e-06
1.82304764585e-05
1.78558312394e-06
1.36653523681e-05
4.14638477766e-08
1.69658842585e-05
9.32977710208e-06
1.67594926305e-05
2.25619358768e-05
3.84650146079e-05
2.1705212285e-05
2.66208989633e-05
5.64441804177e-06
7.41594582577e-06
5.89066435206e-06
1.11618007929e-05
2.17583395492e-05
3.27736620307e-05
3.21799437193e-05
6.5957978813e-06
2.02310765136e-05
2.88915039152e-05
1.99687471761e-05
2.094516511e-05
2.6487747201e-05
1.47071766918e-05
3.14740602387e-05
2.96647491376e-05
1.62885919898e-05
2.92890370191e-05
2.4008028404e-05
2.23476836073e-05
2.0715662513e-05
1.70405093283e-05
1.74774405006e-05
2.06472674452e-06
3.26203483201e-07
2.17242201388e-06
8.52414154436e-06
1.3230717627e-05
1.71922372233e-05
9.82635369479e-06
1.47050451428e-05
9.33403151555e-08
2.16123863383e-05
1.73414509677e-05
8.06314633546e-06
1.47553895417e-05
1.00610468913e-05
7.90495271308e-05
3.71909180242e-06
2.51802110379e-05
2.53592777667e-06
5.16818226447e-06
1.23130571599e-05
1.49989384888e-05
1.98160089308e-05
1.7304400008e-05
3.70112070721e-05
1.29066102968e-05
8.64062860949e-05
4.8723963386e-05
7.40627077633e-05
6.61680776415e-07
3.05853597549e-05
6.74139544897e-05
4.84157871948e-05
1.45777512025e-05
2.49001557863e-05
9.7799347554e-06
5.79107589979e-05
4.05104362705e-07
2.23034984938e-05
5.78619430465e-06
1.9661518601e-06
3.77816251003e-06
4.60098401375e-05
4.39228147889e-05
6.14610815619e-05
2.46363215851e-05
6.5799104365e-05
9.62362651847e-05
6.93099017402e-05
2.88265571604e-05
5.86696712539e-05
4.97524549111e-05
0.000169366279039
0.000105049898221
2.75312140339e-05
2.40456351589e-05
4.65676626655e-05
3.19897863575e-05
8.53621104077e-05
7.3232769352e-06
8.88340644414e-05
9.36006490278e-07
9.85844215471e-05
3.0138773614e-05
4.8605972972e-05
8.18567594869e-05
1.75323824768e-05
1.46312498402e-05
5.63105361905e-05
9.22696557728e-06
8.98171736387e-05
0.000135692851251
1.97815194226e-05
4.06138838937e-06
5.74308943915e-06
1.54585961247e-05
1.46449506177e-05
3.02882673941e-06
3.65264276728e-05
1.73045612478e-05
3.26284790365e-05
1.97309770321e-06
6.97830653729e-06
1.51938238885e-05
5.32566487517e-05
9.99480846986e-05
2.1729415036e-06
1.05719807232e-05
2.96682144226e-07
8.81607962286e-06
3.71620356293e-05
5.55511353225e-05
0.000107128284196
7.57872752426e-05
0.000120451235416
0.000191128431484
0.000151644896145
0.000132982332722
0.00016673157233
0.000177482889785
2.58337402852e-05
7.53738559529e-06
3.05730776393e-05
1.05618248329e-05
1.85244233113e-06
4.42539352286e-06
2.18983826094e-06
2.12650633147e-05
9.024504222e-06
3.30165474516e-05
7.92094710046e-07
3.7793738879e-07
4.99099032358e-05
1.41324024549e-06
9.6251995945e-06
0.000110400183587
2.23888567994e-05
1.80321026804e-05
2.42896079121e-05
1.30922327135e-05
2.70102070646e-05
3.1736723759e-05
3.69248396639e-05
9.74856718671e-06
0.000168605467207
9.89861578452e-05
8.43822330113e-05
0.000113163960266
0.000126806428264
6.8208961821e-05
6.02053913299e-06
1.89716830205e-05
1.23607052032e-05
1.53052612339e-05
2.11089819237e-05
1.26017919334e-06
1.67415454104e-05
1.64142892457e-05
3.27937682396e-05
2.8431638904e-05
1.59748277347e-05
1.22844919631e-05
1.21823804534e-05
1.1011438232e-05
1.11584080837e-05
1.02771782905e-05
1.65882042565e-05
9.50906074759e-06
1.35840294055e-05
1.87788010395e-05
1.51568671982e-05
2.16114425385e-05
1.48173014185e-05
3.56112077485e-06
4.97809141885e-06
9.79897372801e-06
1.64469921369e-06
4.13294034184e-07
1.89944148132e-07
1.02704396008e-06
4.49506824301e-06
5.05475949156e-06
1.16714661693e-05
3.29848891426e-06
3.53599504724e-05
5.48295544538e-05
4.69763723807e-05
1.81685894422e-05
2.87987093869e-05
1.75489237296e-05
1.61791018478e-05
3.36013103808e-05
2.86534745801e-05
1.63825037601e-06
2.2782343373e-05
1.51791440483e-05
1.41410944508e-05
2.32485096761e-05
1.24847206584e-05
1.77682697577e-05
1.7464804473e-05
1.31107995837e-05
1.12995072094e-06
9.70275681406e-06
9.96089992974e-06
2.28312022181e-06
1.00814331696e-05
1.17874775111e-05
1.11528012257e-05
2.64936861847e-05
9.53853803461e-06
5.04261307802e-06
5.24487609007e-06
4.80804133312e-06

