# vtk DataFile Version 3.0
File Name: Molecule/sphere_dip_sim/sphere_dip_sim_0-s3.vtk
ASCII
DATASET UNSTRUCTURED_GRID
FIELD FieldData 1
TIME 1 1 double
0.0
POINTS 108 double
0.0 1.0 0.0
0.0 0.850650808352 -0.525731112119
-0.5 0.809016994375 -0.309016994375
-0.525731112119 0.0 -0.850650808352
-0.809016994375 -0.309016994375 -0.5
-0.809016994375 0.309016994375 -0.5
-1.0 0.0 0.0
-0.850650808352 -0.525731112119 0.0
-0.309016994375 0.5 -0.809016994375
-0.850650808352 0.525731112119 0.0
-0.5 -0.809016994375 -0.309016994375
0.0 -0.850650808352 0.525731112119
-0.309016994375 -0.5 -0.809016994375
0.0 -0.850650808352 -0.525731112119
0.26286555606 0.951056516295 0.162459848116
0.0 0.961938357784 0.273266528913
0.259891913008 0.862668480416 0.433888564553
0.0 0.850650808352 0.525731112119
-0.259891913008 0.862668480416 0.433888564553
-0.26286555606 0.951056516295 0.162459848116
-0.5 0.809016994375 0.309016994375
-0.702046444776 0.69378047756 0.16062203564
-0.16062203564 0.702046444776 0.69378047756
-0.425325404176 0.688190960236 0.587785252292
-0.309016994375 0.5 0.809016994375
-0.688190960236 0.587785252292 0.425325404176
-0.587785252292 0.425325404176 0.688190960236
-0.862668480416 0.433888564553 0.259891913008
-0.809016994375 0.309016994375 0.5
0.309016994375 0.5 0.809016994375
-0.433888564553 0.259891913008 0.862668480416
-0.162459848116 0.26286555606 0.951056516295
-0.525731112119 0.0 0.850650808352
-0.273266528913 0.0 0.961938357784
0.525731112119 0.0 0.850650808352
0.273266528913 0.0 0.961938357784
0.309016994375 -0.5 0.809016994375
0.0 -0.486964520207 0.873421751538
-0.309016994375 -0.5 0.809016994375
0.5 0.809016994375 0.309016994375
-0.961938357784 0.273266528913 0.0
-0.433888564553 0.259891913008 -0.862668480416
-0.69378047756 -0.16062203564 0.702046444776
-0.463130780147 -0.663864736987 0.587191188171
-0.809016994375 -0.309016994375 0.5
-0.69378047756 0.16062203564 0.702046444776
-0.850650808352 0.0 0.525731112119
-0.951056516295 0.162459848116 0.26286555606
-0.951056516295 -0.162459848116 0.26286555606
-0.433888564553 -0.259891913008 -0.862668480416
0.850650808352 -0.525731112119 0.0
0.809016994375 -0.309016994375 -0.5
1.0 0.0 0.0
0.809016994375 0.309016994375 -0.5
0.525731112119 0.0 -0.850650808352
0.850650808352 0.525731112119 0.0
0.5 -0.809016994375 -0.309016994375
0.0 -1.0 0.0
0.5 -0.809016994375 0.309016994375
0.309016994375 -0.5 -0.809016994375
0.259891913008 0.862668480416 -0.433888564553
0.309016994375 0.5 -0.809016994375
0.587191188171 0.463130780147 -0.663864736987
0.5 0.809016994375 -0.309016994375
0.702046444776 0.69378047756 -0.16062203564
0.702046444776 0.69378047756 0.16062203564
0.525731112119 0.850650808352 0.0
0.862668480416 0.433888564553 0.259891913008
0.950095300354 -0.124060408023 0.286230563367
0.809016994375 0.309016994375 0.5
0.809016994375 -0.309016994375 0.5
0.69378047756 0.16062203564 0.702046444776
0.688190960236 0.587785252292 0.425325404176
0.396525177464 0.914857743445 -0.0761780342124
0.386187385588 0.891006524188 0.238676930319
-0.707106781186 0.37174803446 0.601500955008
-0.516121620051 0.346153014789 0.783451698363
-0.647411893882 0.296004592578 0.702309846744
-0.571251659136 0.213022865649 0.792649229259
-0.758652300163 0.237086325351 0.606825149272
0.0761780342124 0.396525177464 0.914857743445
-0.0822424652791 0.133071104141 0.987688340595
0.162459848116 0.26286555606 0.951056516295
0.0 0.0 1.0
-0.220117027473 0.132792476828 0.966392597402
-0.137952242128 0.0 0.990438881957
0.137952242128 0.0 0.990438881957
0.301683612961 0.259052163504 0.917539630891
0.142443140087 -0.253835534286 0.956701350149
0.0 -0.251573297929 0.967838248763
-0.142443140087 -0.253835534286 0.956701350149
0.124060408023 -0.286230563367 -0.950095300354
0.0664465427532 -0.608911721919 -0.790450107133
0.335692209402 -0.147871074393 -0.930292903286
0.273266528913 0.0 -0.961938357784
0.0628188945277 -0.144934938207 -0.987445011217
0.0 0.0 -1.0
-0.161501284767 -0.284672260142 -0.944922768973
-0.224799542734 -0.134651124684 -0.965056599484
-0.273266528913 0.0 -0.961938357784
-0.484441642061 -0.131200378813 -0.864929335863
-0.484441642061 0.131200378813 -0.864929335863
-0.224799542734 0.134651124684 -0.965056599484
-0.161501284767 0.284672260142 -0.944922768973
0.0628188945277 0.144934938207 -0.987445011217
0.124060408023 0.286230563367 -0.950095300354
0.335692209402 0.147871074393 -0.930292903286
0.0664465427532 0.608911721919 -0.790450107133

CELLS 212 848
3 0 1 2
3 3 4 5
3 4 6 5
3 4 7 6
3 1 8 2
3 8 5 2
3 2 5 9
3 7 10 11
3 12 10 4
3 12 13 10
3 4 10 7
3 14 15 16
3 14 0 15
3 16 15 17
3 17 15 18
3 15 19 18
3 15 0 19
3 18 19 20
3 20 19 2
3 0 19 2
3 9 21 2
3 20 21 2
3 17 18 22
3 18 23 22
3 18 20 23
3 22 23 24
3 20 25 23
3 25 26 23
3 23 26 24
3 20 21 25
3 21 27 25
3 21 9 27
3 25 27 28
3 17 22 29
3 22 24 29
3 24 30 31
3 30 32 33
3 34 35 36
3 36 37 11
3 32 33 38
3 38 37 11
3 39 16 29
3 16 17 29
3 6 40 5
3 5 40 9
3 8 41 5
3 32 42 38
3 42 43 38
3 42 44 43
3 38 43 11
3 44 43 7
3 7 43 11
3 32 45 42
3 45 46 42
3 42 46 44
3 28 47 46
3 47 48 46
3 47 6 48
3 46 48 44
3 28 27 47
3 27 40 47
3 27 9 40
3 47 40 6
3 44 48 7
3 48 6 7
3 49 12 4
3 50 51 52
3 51 53 52
3 51 54 53
3 52 53 55
3 13 56 57
3 56 58 57
3 56 50 58
3 57 58 11
3 54 51 59
3 51 56 59
3 51 50 56
3 59 56 13
3 1 60 61
3 60 62 61
3 60 63 62
3 61 62 54
3 55 64 53
3 64 62 53
3 64 63 62
3 53 62 54
3 55 64 65
3 64 66 65
3 64 63 66
3 65 66 39
3 63 60 0
3 60 1 0
3 55 67 52
3 67 68 52
3 67 69 68
3 52 68 50
3 50 68 70
3 68 71 70
3 68 69 71
3 70 71 34
3 55 65 67
3 65 72 67
3 65 39 72
3 67 72 69
3 69 72 29
3 39 72 29
3 34 71 29
3 69 71 29
3 13 57 10
3 10 57 11
3 50 70 36
3 34 70 36
3 11 58 36
3 36 58 50
3 14 73 0
3 0 73 63
3 63 73 66
3 73 74 66
3 73 14 74
3 66 74 39
3 39 74 16
3 74 14 16
3 28 75 25
3 25 75 26
3 26 76 24
3 24 76 30
3 26 77 76
3 77 78 76
3 77 45 78
3 76 78 30
3 26 75 77
3 75 79 77
3 75 28 79
3 77 79 45
3 30 78 32
3 78 45 32
3 31 80 24
3 24 80 29
3 31 81 80
3 81 82 80
3 81 83 82
3 80 82 29
3 33 84 30
3 30 84 31
3 31 84 81
3 84 85 81
3 84 33 85
3 81 85 83
3 83 86 82
3 86 87 82
3 86 35 87
3 82 87 29
3 29 87 34
3 87 35 34
3 35 88 36
3 88 37 36
3 35 86 88
3 86 89 88
3 86 83 89
3 88 89 37
3 33 90 38
3 90 37 38
3 33 85 90
3 85 89 90
3 85 83 89
3 90 89 37
3 91 92 12
3 12 92 13
3 13 92 59
3 92 93 59
3 92 91 93
3 59 93 54
3 54 93 94
3 93 95 94
3 93 91 95
3 94 95 96
3 91 97 95
3 97 98 95
3 97 49 98
3 95 98 96
3 49 97 12
3 91 97 12
3 96 98 99
3 98 100 99
3 98 49 100
3 99 100 3
3 41 101 5
3 101 3 5
3 45 79 46
3 79 28 46
3 3 100 4
3 100 49 4
3 3 101 99
3 101 102 99
3 101 41 102
3 99 102 96
3 41 103 102
3 103 104 102
3 103 105 104
3 102 104 96
3 105 103 8
3 41 103 8
3 96 104 94
3 104 106 94
3 104 105 106
3 94 106 54
3 54 106 61
3 106 107 61
3 106 105 107
3 61 107 1
3 1 107 8
3 105 107 8

CELL_TYPES 212
5
5
5
5
5
5
5
5
5
5
5
5
5
5
5
5
5
5
5
5
5
5
5
5
5
5
5
5
5
5
5
5
5
5
5
5
5
5
5
5
5
5
5
5
5
5
5
5
5
5
5
5
5
5
5
5
5
5
5
5
5
5
5
5
5
5
5
5
5
5
5
5
5
5
5
5
5
5
5
5
5
5
5
5
5
5
5
5
5
5
5
5
5
5
5
5
5
5
5
5
5
5
5
5
5
5
5
5
5
5
5
5
5
5
5
5
5
5
5
5
5
5
5
5
5
5
5
5
5
5
5
5
5
5
5
5
5
5
5
5
5
5
5
5
5
5
5
5
5
5
5
5
5
5
5
5
5
5
5
5
5
5
5
5
5
5
5
5
5
5
5
5
5
5
5
5
5
5
5
5
5
5
5
5
5
5
5
5
5
5
5
5
5
5
5
5
5
5
5
5
5
5
5
5
5
5
5
5
5
5
5
5

CELL_DATA 212
SCALARS cell_data_0 double
LOOKUP_TABLE default
2.2045837194e-05
3.40079043133e-05
5.95451522665e-05
2.27907597166e-06
3.85307303332e-05
2.06241845264e-06
3.85124343842e-05
5.13000148319e-05
5.93680199165e-05
2.80584080356e-06
6.30277910757e-07
0.000124848811566
5.13778019683e-05
8.4061600087e-05
0.000116117572245
0.000190943534699
5.7347477956e-05
0.000123734386065
4.68454815121e-05
7.72624434745e-05
7.37030278971e-05
0.00010058530929
9.46739749925e-05
0.000136634326318
9.86360460713e-05
2.54350489001e-05
5.38853883253e-05
4.96801363088e-05
2.88493142874e-06
6.78653284592e-05
8.55294635509e-05
4.70845726289e-05
1.75864717681e-05
1.4334802317e-05
4.9023057548e-05
2.41120465926e-05
5.02130001776e-05
0.000110382422012
4.96079354028e-05
8.59289420684e-05
5.72778315599e-05
4.82545031289e-05
3.13391748841e-05
4.37554238435e-05
3.9668614327e-05
5.24472087246e-05
6.16416848076e-05
2.04187957282e-05
7.66730363857e-07
4.02131673858e-05
5.0860653121e-05
6.58750529716e-06
1.46219762954e-05
8.31709368841e-06
2.16622443697e-07
4.50446458436e-06
2.08229177653e-06
3.81592819044e-06
3.19424751921e-06
1.27799896336e-06
3.98461265327e-06
2.81042436426e-06
7.86733164715e-06
8.65633720108e-06
1.8566138536e-06
4.3132404279e-05
0.000107151549505
0.000142797806019
1.94531358221e-05
0.000133335068194
0.000127190848918
6.60639018779e-05
9.8051593789e-05
1.60201419361e-05
8.93004647152e-05
2.34319398401e-05
0.000154500698277
3.25157764102e-05
2.72718318201e-05
4.677701049e-05
9.65839982213e-06
7.7593474461e-05
9.63833860769e-05
5.54677926735e-06
4.17494328289e-05
3.01820063602e-05
2.50241745745e-05
2.32254941173e-05
2.67530520456e-05
1.93296038726e-05
2.10084595414e-05
5.5131196634e-06
4.91963780484e-05
2.92434115341e-06
8.61593076643e-06
1.58513025161e-05
2.00115059029e-05
1.87747780117e-05
2.24142709618e-05
5.11329477841e-05
3.3207085756e-05
1.90488561601e-05
7.60855845088e-06
2.40444741658e-05
2.33311427612e-05
5.80328398671e-06
7.72061185185e-05
1.77366862786e-05
6.54647667017e-05
1.43196483611e-05
3.69498596526e-05
5.25554233702e-05
2.15743386441e-05
7.51503843542e-05
3.02564475626e-05
3.0872840934e-05
3.27248387071e-05
2.26805572714e-05
2.73963480812e-05
1.47899318789e-05
3.54426510031e-05
4.74054149249e-05
1.1838843452e-05
1.04523709268e-05
1.67842708473e-06
2.86834097377e-06
1.50994745673e-05
2.85379592699e-05
1.98912290177e-05
1.40827937463e-05
8.26448261538e-06
3.28816382966e-05
1.49401541163e-05
3.29111406815e-05
5.0301990358e-06
5.35589444591e-07
4.15467194297e-05
4.94852758135e-05
9.42275795496e-06
1.39773019875e-05
2.6893197984e-05
3.89115542801e-06
2.12533398548e-05
1.50937146412e-05
3.7882244566e-06
3.71384071859e-06
1.9706751365e-05
1.76689362135e-05
2.48247046735e-05
2.60315024845e-05
1.99211549998e-06
1.51754467952e-05
6.84639247599e-06
6.09815005344e-06
3.22493976217e-05
6.46293398778e-06
8.06853977828e-06
9.96357873255e-06
3.86102705463e-05
2.24843543315e-05
8.46913161081e-05
6.58461506316e-05
3.71542099115e-05
4.25256776333e-05
3.48737268279e-05
2.79920709806e-05
5.43205373931e-05
4.35033672268e-05
2.60248727767e-05
4.83138230703e-06
2.83094622052e-05
3.94941381036e-05
5.53970239797e-06
1.21575059893e-05
1.81971966262e-05
1.5682174458e-05
3.90896186195e-05
1.0597563893e-05
1.60409454265e-05
2.4536784467e-05
4.28083107718e-05
4.49240658168e-05
2.7717524451e-05
1.19169615597e-05
1.13533180618e-05
1.65347543575e-05
1.45756696913e-05
1.0645004163e-05
2.62155532142e-05
2.48133147315e-05
1.79015812483e-05
1.6347544613e-05
1.15416221627e-05
6.70037174574e-07
5.53259541692e-06
2.57157643191e-05
1.73166487835e-05
3.74269868242e-06
1.47023134723e-05
2.12580576274e-05
5.01249614108e-05
1.7232536441e-05
1.19733320072e-05
1.22751910274e-05
1.37077060102e-05
8.69753509042e-08
3.67573212125e-05
2.26305730915e-05
7.04829153258e-05
8.89232163935e-06
3.20438575404e-05
5.69377588766e-05

