# vtk DataFile Version 3.0
File Name: Molecule/sphere_excent/sphere_excent_0-s12.vtk
ASCII
DATASET UNSTRUCTURED_GRID
FIELD FieldData 1
TIME 1 1 double
0.0
POINTS 108 double
0.0013327226043 0.84967064857 0.52711474895
-0.50519573689 0.76694852114 0.39273914695
-0.33292946219 0.54332268238 0.76924049854
-0.31409886479 -0.56170582771 0.76492828131
0.002111654263 -0.85045844316 0.52532887459
0.055042490363 -0.42364788055 0.90218293667
0.5236287117 0.00015234979219 0.85184949636
0.33505219221 -0.51042467356 0.79096651077
0.80678206682 -0.31038954854 0.50267893076
0.50013488531 -0.80905753374 0.30837365985
0.85103029013 -0.52528166771 0.0033014223445
0.99656385183 -0.052132219076 0.060068130493
0.77313560247 0.30160427094 0.55579918623
0.51904785633 0.74836117029 0.41055250168
0.36133959889 0.51102417707 0.77903950214
-0.83200842142 -0.31666335464 -0.45457839966
-0.8492462635 -0.52794784307 0.0017277258448
-0.9970356822 -0.053800955415 0.03179384768
-0.00032228816417 0.85017192364 -0.52643167973
-0.31134265661 0.51158553362 -0.79712438583
-0.48389720917 0.77904623747 -0.39632987976
-0.50044196844 -0.80843430758 -0.30958411098
-0.49939182401 -0.81072300673 0.30545160174
-7.4780073192e-05 -0.99993985891 0.00088244274957
-0.0042495713569 -0.86396986246 -0.50078189373
-0.80668532848 -0.31395125389 0.50061112642
-0.57686007023 -0.0024332487956 0.81585884094
-0.82072979212 0.2692347765 0.49990066886
0.4974334538 -0.81153893471 -0.30680683255
0.80800271034 -0.38543650508 -0.44493257999
0.19548159838 0.48452362418 -0.8509978652
0.0020599432755 0.99989110231 0.00097894272767
-0.2765352726 0.9449826479 0.17457544804
-0.27482870221 0.94579917192 -0.17295609415
-0.53444004059 0.84510320425 -0.00080845440971
0.27472564578 0.94865512848 -0.15674264729
0.27956756949 0.94348341227 0.1769091934
0.49710837007 0.86715686321 0.016239898279
0.49067762494 0.80291128159 -0.33652028441
0.58973753452 0.47657376528 -0.65132695436
0.41301673651 0.67828857899 -0.60733264685
0.66575723886 0.60011547804 -0.44137480855
0.95351833105 -0.1731608212 -0.24668353796
0.86854451895 -0.065521582961 -0.4911981523
0.95970207453 0.12490516901 -0.24966756999
0.53907358646 0.010915557854 -0.84214222431
0.43193221092 -0.25944024324 -0.86376017332
0.27073660493 0.0091666122898 -0.96248865128
0.1153838709 -0.2814617455 -0.95118671656
0.26948347688 -0.56457656622 -0.7797191143
-0.062477532774 0.044666603208 -0.9965197444
0.68353509903 -0.20336315036 -0.70100235939
0.57602196932 -0.45784255862 -0.67685222626
0.71829402447 0.33694136143 -0.60854369402
0.76704287529 0.45875024796 -0.44830554724
0.43953177333 0.4504737556 -0.77708381414
0.42315328121 0.24365450442 -0.87263894081
0.57662260532 0.2715523839 -0.77045762539
0.70103037357 0.16919006407 -0.69276219606
0.83372724056 0.14874596894 -0.53176146746
0.82776027918 0.32434123755 -0.45779064298
0.73394519091 0.0014988955809 -0.67906701565
-0.45269724727 0.26066309214 0.85123962164
-0.68072861433 0.55055397749 0.48162585497
0.0030994962435 0.52659994364 0.84992319345
-0.15282796323 0.27010256052 0.95065671206
0.16897049546 0.26980116963 0.94800066948
0.045630834997 0.0021299519576 0.99840581417
-0.28365829587 -0.0015558826271 0.95895755291
-0.44046750665 -0.25825229287 0.85969078541
-0.17874626815 -0.28094983101 0.94217544794
0.9424829483 0.15205678344 0.29734045267
0.96344858408 0.26477327943 0.044711407274
0.86011970043 0.43551972508 0.2654697597
0.84883230925 0.52844011784 -0.020251622424
-0.94947594404 0.12576048076 -0.28326672316
-0.7060995698 -0.1278514415 -0.69518065453
-0.78412687778 0.27206215262 -0.55534356833
-0.86533582211 0.42900127172 -0.25896015763
-0.95992743969 0.28013843298 0.002252146136
-0.83971178532 0.54241579771 0.017491204664
-0.68119907379 0.55826127529 -0.4705144763
-0.4463967979 0.27480408549 -0.84914588928
-0.71208328009 0.67352557182 -0.19769912958
-0.70496571064 0.67818087339 0.20649917424
-0.28493762016 -0.52501994371 -0.80193674564
-0.24324797094 -0.11854913086 -0.96101516485
-0.5264107585 0.039137568325 -0.84794038534
-0.4259416759 -0.26134178042 -0.86499291658
-0.58891767263 -0.43082818389 -0.68372172117
0.53465592861 0.83110541105 -0.15272961557
0.68919461966 0.70028579235 -0.18537127972
0.68733149767 0.72645920515 0.001568074571
0.71767413616 0.67217302322 0.18136896193
0.54616731405 0.81620126963 0.18811905384
-0.8488830328 0.45509648323 0.26922953129
0.19124746323 -0.25792708993 0.94660949707
0.86320757866 0.43113133311 -0.26283863187
0.78514122963 0.56629103422 -0.25015696883
0.90106135607 0.25987637043 -0.34755775332
0.92806053162 0.34175080061 -0.14768400788
-0.048676975071 -0.15749314427 0.98621284962
0.1298443675 -0.73414987326 -0.66653883457
-0.0047051464207 -0.57322305441 -0.81948250532
-0.14474955201 -0.71815782785 -0.68074935675
-0.20194962621 0.28299966455 -0.93751144409
-0.30840083957 0.049191843718 -0.94938206673
-0.46818435192 -0.10345143825 -0.87749046087

CELLS 212 848
3 0 1 2
3 3 4 5
3 6 7 8
3 7 9 8
3 7 4 9
3 8 9 10
3 10 11 8
3 8 12 6
3 13 14 12
3 13 0 14
3 12 14 6
3 15 16 17
3 18 19 20
3 16 21 22
3 21 23 22
3 21 24 23
3 22 23 4
3 16 22 25
3 22 3 25
3 22 4 3
3 26 27 25
3 27 17 25
3 25 17 16
3 15 21 16
3 24 28 23
3 28 9 23
3 28 10 9
3 23 9 4
3 29 10 28
3 30 19 18
3 31 32 0
3 0 32 1
3 31 33 32
3 33 34 32
3 33 20 34
3 32 34 1
3 20 33 18
3 18 33 31
3 35 36 37
3 35 31 36
3 31 35 18
3 18 35 38
3 13 36 0
3 36 31 0
3 39 40 41
3 41 40 38
3 38 40 18
3 40 30 18
3 29 42 10
3 10 42 11
3 29 43 42
3 43 44 42
3 42 44 11
3 45 46 47
3 46 48 47
3 46 49 48
3 47 48 50
3 45 51 46
3 51 52 46
3 51 29 52
3 46 52 49
3 49 52 28
3 28 52 29
3 47 50 30
3 29 51 43
3 53 39 54
3 39 55 40
3 55 30 40
3 30 55 56
3 55 57 56
3 55 39 57
3 56 57 45
3 45 57 58
3 57 53 58
3 57 39 53
3 58 53 59
3 43 59 44
3 60 59 53
3 59 61 58
3 59 43 61
3 58 61 45
3 30 56 47
3 47 56 45
3 45 61 51
3 51 61 43
3 26 62 27
3 27 62 63
3 2 64 0
3 0 64 14
3 2 65 64
3 65 66 64
3 65 67 66
3 64 66 14
3 2 62 65
3 62 68 65
3 62 26 68
3 65 68 67
3 14 66 6
3 66 67 6
3 26 69 68
3 69 70 68
3 69 3 70
3 3 69 25
3 25 69 26
3 11 71 8
3 71 12 8
3 11 72 71
3 72 73 71
3 72 74 73
3 71 73 12
3 12 73 13
3 17 75 15
3 15 75 76
3 77 75 78
3 75 79 78
3 75 17 79
3 78 79 80
3 77 81 82
3 19 81 20
3 20 81 83
3 81 78 83
3 81 77 78
3 83 78 80
3 27 79 17
3 20 83 34
3 34 83 84
3 44 72 11
3 48 85 86
3 87 76 77
3 77 76 75
3 88 89 76
3 88 85 89
3 76 89 15
3 15 89 21
3 21 89 85
3 38 90 91
3 90 92 91
3 90 37 92
3 91 92 74
3 74 92 93
3 92 94 93
3 92 37 94
3 93 94 13
3 37 90 35
3 35 90 38
3 13 94 36
3 36 94 37
3 38 91 41
3 74 93 73
3 73 93 13
3 1 63 2
3 2 63 62
3 1 84 63
3 84 95 63
3 84 80 95
3 63 95 27
3 67 96 6
3 96 7 6
3 80 84 83
3 34 84 1
3 60 54 97
3 54 98 97
3 54 41 98
3 97 98 74
3 44 99 100
3 99 97 100
3 99 60 97
3 100 97 74
3 41 54 39
3 53 54 60
3 60 99 59
3 59 99 44
3 70 101 68
3 68 101 67
3 67 101 96
3 101 5 96
3 101 70 5
3 96 5 7
3 7 5 4
3 5 70 3
3 27 95 79
3 79 95 80
3 44 100 72
3 72 100 74
3 74 98 91
3 91 98 41
3 49 102 103
3 102 104 103
3 102 24 104
3 103 104 85
3 19 82 81
3 82 87 77
3 85 104 21
3 104 24 21
3 24 102 28
3 28 102 49
3 50 105 30
3 105 19 30
3 50 106 105
3 106 82 105
3 106 87 82
3 105 82 19
3 88 86 85
3 48 86 50
3 49 103 48
3 48 103 85
3 50 86 106
3 86 107 106
3 86 88 107
3 106 107 87
3 87 107 76
3 107 88 76

CELL_TYPES 212
5
5
5
5
5
5
5
5
5
5
5
5
5
5
5
5
5
5
5
5
5
5
5
5
5
5
5
5
5
5
5
5
5
5
5
5
5
5
5
5
5
5
5
5
5
5
5
5
5
5
5
5
5
5
5
5
5
5
5
5
5
5
5
5
5
5
5
5
5
5
5
5
5
5
5
5
5
5
5
5
5
5
5
5
5
5
5
5
5
5
5
5
5
5
5
5
5
5
5
5
5
5
5
5
5
5
5
5
5
5
5
5
5
5
5
5
5
5
5
5
5
5
5
5
5
5
5
5
5
5
5
5
5
5
5
5
5
5
5
5
5
5
5
5
5
5
5
5
5
5
5
5
5
5
5
5
5
5
5
5
5
5
5
5
5
5
5
5
5
5
5
5
5
5
5
5
5
5
5
5
5
5
5
5
5
5
5
5
5
5
5
5
5
5
5
5
5
5
5
5
5
5
5
5
5
5
5
5
5
5
5
5

CELL_DATA 212
SCALARS cell_data_0 double
LOOKUP_TABLE default
3.53205200164e-05
6.07121997273e-05
5.68252812769e-05
1.20291800994e-05
6.75991935952e-06
8.84233924355e-06
1.37858441264e-05
4.80939593898e-05
3.53045198663e-05
3.80200982297e-05
6.38205666689e-05
1.14125361803e-07
7.53438000103e-05
5.34738427195e-06
1.19454770612e-05
6.1115092096e-05
1.47825027325e-05
2.01984148137e-05
4.74954205992e-05
2.73849909137e-05
1.07769942813e-05
2.57206502503e-05
1.34689901866e-05
4.99569914568e-06
5.15571061394e-05
1.37481779237e-05
7.91372151429e-06
1.40650519715e-05
2.17289323674e-05
9.26008644335e-05
7.14041872047e-06
1.30763036678e-05
3.04914927747e-06
2.75636984348e-06
1.59564550933e-06
6.09717054598e-06
3.52156613459e-05
2.90713340521e-05
3.13367641436e-06
3.66205194652e-06
2.6195229447e-05
2.98980752872e-05
1.38804685223e-05
8.76231310438e-06
7.19552156133e-07
9.04029112465e-07
3.15841589641e-05
4.8673477926e-05
1.17323795605e-05
3.7105674322e-06
6.0431469179e-06
1.20975254507e-06
1.30510329709e-06
2.73586535245e-05
7.28013906485e-07
1.28008422809e-06
4.12520949815e-07
2.55828528773e-05
3.55840770011e-07
7.76673377224e-06
1.12033488637e-06
1.4215826027e-07
1.42646933284e-05
3.76613837524e-06
7.91398546226e-06
9.32609693123e-07
5.00694117135e-08
1.53868091279e-06
1.77412576889e-06
1.59944142833e-05
1.64484147249e-05
4.68983638393e-05
5.81120528355e-05
1.85919004779e-05
1.5677542362e-05
1.97917037341e-05
2.05650271261e-05
3.04337449416e-05
6.36373134337e-05
6.82645845176e-05
7.57363628074e-05
2.30972060559e-06
2.27655123774e-05
7.65186827673e-05
3.62153264841e-05
5.49777149321e-05
9.37997076355e-06
2.07262648654e-05
2.51405609274e-05
1.86622179786e-05
3.76000181397e-05
8.36711683427e-05
2.14006513389e-06
7.78229685915e-06
2.32499538137e-05
4.0435664999e-05
8.78105738409e-05
8.37128219128e-05
0.000105607743977
2.00836162155e-05
4.9776594716e-05
3.46891235836e-05
4.68859345803e-05
3.1431101953e-05
7.68110857041e-06
1.19583382321e-05
2.93549008083e-06
2.19672644197e-06
2.07832721528e-06
5.50432329108e-06
1.42019451808e-05
1.61998075464e-06
5.50459886571e-07
1.15618825683e-07
1.68872979408e-06
1.97740625391e-06
5.58514182578e-07
4.12517963737e-06
7.11911687552e-06
2.08564034205e-06
1.31028117718e-06
2.24259163172e-06
2.1374671326e-06
6.1459379161e-06
3.83294487802e-08
1.66428525685e-06
2.12568238064e-06
2.87883834008e-06
6.37129968981e-05
5.39983145776e-07
1.31607269816e-06
3.62883137884e-06
1.66241573137e-06
5.7029188303e-06
8.70805145104e-06
1.4216595809e-07
5.87884923241e-07
8.98345391284e-07
7.07402919761e-07
1.93025518714e-07
1.90768692441e-06
1.79077718518e-06
3.10281722373e-06
8.16309060304e-07
5.02486389661e-08
4.22227329744e-06
2.38964540124e-06
1.1586608671e-06
5.03976390906e-07
5.83691554738e-06
1.48707933842e-05
2.35257577139e-05
5.40185025403e-06
4.81679228446e-06
1.1301922497e-06
6.13896963613e-06
6.61757852363e-05
7.46302394426e-05
1.19725358751e-06
4.92869111514e-06
1.19708154288e-05
2.65248521881e-06
1.58230299728e-06
5.0945799146e-06
2.33244902417e-05
2.20679635467e-05
3.98704102357e-05
3.27993651572e-06
5.567404885e-07
9.27022875515e-06
6.41769771645e-05
5.41153911179e-05
4.2462053783e-05
5.00467182971e-05
1.88364706106e-05
1.98896869548e-05
1.75683959387e-05
3.20189771443e-05
4.99791465496e-05
3.94169550393e-05
4.61422660205e-06
6.39328946446e-07
6.57180537153e-07
2.78396436845e-06
3.38703314065e-06
9.24789527162e-08
5.65837377217e-05
5.37779252755e-05
1.76562732462e-05
5.85398912371e-05
6.19392372011e-06
5.78700833032e-05
4.56289957791e-06
3.90685245981e-05
3.54981476273e-05
1.73202573408e-06
3.2491711888e-06
8.04994473104e-06
2.97722215699e-07
1.57553014497e-07
2.71714033175e-05
2.192654386e-06
1.96151107939e-06
1.79202132624e-07
8.10254994156e-05
9.16882544689e-05
9.25953588741e-08
5.22041311955e-09
2.20352439107e-07
1.67771477132e-05
2.10042113034e-05
1.88170301881e-07

