# vtk DataFile Version 3.0
File Name: Molecule/sphere_excent/sphere_excent_0-s28.vtk
ASCII
DATASET UNSTRUCTURED_GRID
FIELD FieldData 1
TIME 1 1 double
0.0
POINTS 353 double
0.33744329214 -0.62608975172 0.70301985741
0.001805930282 -0.85127156973 0.52479177713
0.5003579855 -0.80984711647 0.30565133691
0.8506475687 -0.32957881689 0.40932804346
0.86637663841 -0.49299430847 0.075008839369
0.9867118597 -0.13302305341 0.093389973044
0.52657490969 0.71583485603 0.45737501979
0.40001091361 0.56739211082 0.71810543537
0.71950531006 0.35851976275 0.59458768368
-0.54362946749 -0.81409263611 -0.19893795252
-0.0018084755866 -0.99933665991 0.029102742672
-0.46687972546 -0.84853345156 0.24571686983
-0.89944684505 0.16134473681 0.40538680553
-0.98865568638 -0.13121423125 0.072554782033
-0.8301461339 -0.29215496778 0.47429487109
-0.83967214823 -0.53123790026 0.093655511737
0.47561571002 -0.86055803299 -0.18103913963
0.0078930938616 0.9996380806 0.017379282042
-0.26829954982 0.94600790739 0.18152727187
-0.0016254652292 0.87571400404 0.48037385941
-0.42449420691 0.80067288876 0.41837337613
-0.25749716163 0.95202702284 -0.1655703932
-0.51454705 0.85737854242 0.00047669012565
-0.48748824 0.80720424652 -0.3329076767
-0.56896859407 0.76368737221 0.29902091622
0.039889894426 0.93517786264 -0.35130265355
0.26469576359 0.95460659266 -0.13640071452
0.27283918858 0.93358922005 0.2300927341
0.45184570551 0.89173841476 0.025799367577
0.39146879315 0.83830165863 -0.37888279557
0.22171020508 0.74769765139 0.62433964014
0.58894771338 0.53933286667 -0.60164743662
0.42467665672 0.70778095722 -0.56454205513
0.58615940809 0.66330695152 -0.46405988932
0.16181538999 0.80344873667 -0.57263696194
0.94278913736 -0.26057824492 -0.20870992541
0.81092005968 -0.39543119073 -0.43050819635
0.87648010254 -0.13345064223 -0.46252125502
0.97582286596 -0.022313801572 -0.21759189665
0.23701347411 -0.0069471090101 -0.97097635269
0.16768178344 -0.20867879689 -0.96244108677
0.030397281051 0.032048497349 -0.99894404411
0.67915660143 -0.63997000456 -0.35974508524
0.49381688237 -0.6746622324 -0.54855060577
0.68809527159 -0.46145427227 -0.55892413855
0.62297481298 0.3157299161 -0.71568477154
0.70285654068 0.33778181672 -0.62528055906
0.68072009087 0.21878892183 -0.6990391016
0.68003165722 -0.22849489748 -0.69657844305
0.75617522001 -0.082998670638 -0.64868158102
0.75522768497 -0.30298417807 -0.58046787977
-0.61477649212 -0.12808729708 0.77772551775
-0.46178534627 -0.32828116417 0.82392221689
-0.37713947892 -0.12965810299 0.91692912579
-0.27499207854 -0.30437251925 0.91198503971
-0.59972190857 -0.47753098607 0.64174085855
0.93519157171 0.11361630261 0.33451426029
0.96762317419 0.21182663739 0.13696269691
0.84204363823 0.4434299469 0.30699449778
-0.9552012682 0.047804441303 -0.2922809124
-0.87273615599 -0.31945493817 -0.36835005879
-0.78712618351 -0.12675720453 -0.60349172354
-0.83219128847 0.19411732256 -0.51957976818
-0.87014913559 0.40612107515 -0.27911657095
-0.9679184556 0.24989551306 0.024053981528
-0.85410088301 0.51739537716 -0.01447337307
-0.66680026054 0.5996478796 -0.44244921207
-0.70715361834 0.68568623066 -0.17280375957
-0.69072675705 0.69399279356 0.2024820298
-0.77652317286 0.6221049428 0.083740308881
-0.46808886528 -0.34079769254 -0.81511574984
-0.642570436 -0.44491231441 -0.62207233906
-0.60493063927 -0.18606248498 -0.77395570278
-0.50619447231 -0.5415725708 -0.66962039471
0.50384664536 0.84824597836 -0.16299539804
0.61472702026 0.72050482035 -0.3176125288
0.64183825254 0.76694148779 0.0086013898253
0.6516905427 0.73433727026 -0.18662746251
0.8090416193 0.58769440651 0.0068953209557
0.71131771803 0.6748290062 0.19701611996
0.53904914856 0.81885683537 0.19709187746
0.062262751162 -0.56159615517 0.82492697239
-0.85015678406 0.43736714125 0.28687688708
0.51149880886 0.28513270617 0.81070202589
-0.011392373592 0.31840658188 0.94784367085
0.16688993573 0.32271462679 0.93098801374
0.02659204416 0.5324819088 0.84572982788
-0.037584040314 0.12239564955 0.99179005623
0.1483990401 0.14533118904 0.97815686464
0.087871626019 0.0024591267575 0.99610573053
0.20393185318 0.57707029581 0.79078030586
0.31801524758 0.3997592628 0.85944771767
0.34313201904 0.17735347152 0.92242211103
0.5133471489 -0.026478225365 0.85759991407
0.28027072549 -0.019977699965 0.95967465639
-0.014051751234 -0.92910552025 -0.3686209023
0.21791616082 -0.91954648495 -0.32686135173
0.37629312277 -0.45993971825 -0.80422282219
0.55230528116 -0.48959469795 -0.67343181372
0.36140701175 -0.59347587824 -0.71891343594
0.85767871141 0.13209210336 -0.49675998092
0.77613949776 0.20640259981 -0.59581375122
0.83555096388 0.29065406322 -0.46544331312
0.80297988653 0.048256367445 -0.59390252829
0.71690881252 0.086698055267 -0.69174349308
0.59863877296 0.10008598864 -0.79479300976
0.65072721243 -0.016116729006 -0.75913488865
0.51502031088 -0.03320389241 -0.85644924641
0.60270643234 -0.13909988105 -0.78567618132
0.062885202467 -0.86494296789 -0.49777755141
0.3252235055 -0.80939400196 -0.4881978035
0.28568607569 -0.70646494627 -0.64692366123
-0.26379585266 -0.89777517319 -0.35270643234
0.14613832533 -0.7398031354 -0.65674525499
-0.0059618107043 -0.77529734373 -0.63150018454
0.063187763095 -0.68406903744 -0.72668081522
-0.053848788142 -0.68361502886 -0.72783070803
-0.132433936 -0.72505193949 -0.67566776276
0.094608202577 -0.5923871994 -0.80007374287
-0.024159863591 -0.60247331858 -0.797768116
-0.09790546447 -0.85711675882 -0.50576591492
-0.24444234371 -0.81230217218 -0.5291531682
-0.42757481337 -0.76631015539 -0.47810843587
-0.12630294263 -0.60989689827 -0.78232127428
-0.12104603648 -0.53561609983 -0.83569979668
0.19423943758 -0.64729124308 -0.73698484898
-0.75308787823 0.40279492736 -0.52036845684
-0.68264210224 0.31712087989 -0.65844392776
-0.65078437328 0.43404552341 -0.62273782492
-0.72352033854 0.08524966985 -0.68418717384
-0.38334444165 0.18898685277 -0.90408587456
-0.46669220924 0.089783988893 -0.87983328104
-0.49093487859 0.20118571818 -0.84753537178
0.51438975334 -0.31488057971 0.79776227474
0.67696928978 -0.23099979758 0.69912481308
0.61391353607 -0.47865977883 0.62761259079
-0.75546306372 0.045928422362 0.65302598476
-0.58037662506 0.13729418814 0.80280834436
-0.69880270958 0.23941875994 0.67337852716
0.85064929724 0.022408569232 0.52544617653
0.34129217267 -0.3851288259 0.857401371
0.37386023998 -0.19406476617 0.90696507692
-0.22079978883 -0.45884308219 -0.86057901382
-0.36699959636 -0.50444847345 -0.78143620491
-0.29879635572 -0.37672483921 -0.87669825554
0.64852809906 0.13521836698 0.74901139736
0.22478024662 -0.19614385068 0.95441752672
0.090957656503 -0.39985021949 -0.91186070442
-0.012104323134 -0.29752221704 -0.95457363129
-0.14824850857 -0.36933723092 -0.91739183664
-0.031277541071 -0.4088781774 -0.91203713417
-0.1106402725 -0.45529174805 -0.88341116905
0.00013329111971 -0.50631511211 -0.86230617762
-0.22381980717 -0.55101907253 -0.80392235518
-0.26584890485 -0.61257511377 -0.74432098866
0.92427265644 0.059211216867 -0.37679064274
0.91253459454 0.40168619156 0.077168732882
0.99328839779 0.10662834346 -0.043346662074
0.94164663553 0.16216413677 -0.29490351677
0.96798795462 0.19098745286 -0.16276861727
0.9276252985 0.28031286597 -0.24680127203
0.89613980055 0.26922339201 -0.35256797075
0.93620431423 0.32017421722 -0.14488089085
0.8809555769 0.35547998548 -0.31219762564
0.89363002777 0.3943067193 -0.21434819698
0.839235425 0.44025546312 -0.3182900548
0.83418798447 0.38118413091 -0.39823570848
0.90188866854 0.4256670177 -0.073798805475
0.84739404917 0.49810478091 -0.18375842273
0.89613342285 0.18491499126 -0.4034883678
0.96007877588 0.27841630578 -0.026928579435
-0.041714977473 -0.15424749255 -0.9871430397
-0.17480793595 -0.24511063099 -0.95358467102
-0.19992142916 -0.11984734982 -0.97245568037
-0.32136437297 -0.26770436764 -0.90822887421
-0.24385866523 0.87207686901 -0.4237729311
-0.071049258113 0.53222686052 -0.84360909462
-0.1292385906 0.62293511629 -0.77151435614
0.016284381971 0.60782438517 -0.79389685392
-0.038328297436 0.72847229242 -0.68398100138
-0.22722397745 0.68680542707 -0.69040322304
0.12887814641 0.67244380713 -0.72882074118
-0.28535982966 0.57212388515 -0.7688959837
-0.052461728454 0.83755689859 -0.54341208935
0.70712935925 -0.70091021061 -0.091796018183
0.83258801699 -0.51010000706 -0.21592545509
0.41103690863 0.59581917524 -0.68997681141
0.27710467577 0.68082511425 -0.67795664072
0.28174960613 0.57131451368 -0.77085483074
0.40051433444 0.48247048259 -0.77882778645
-0.33715459704 0.76610451937 -0.54698866606
-0.48686543107 0.70006990433 -0.52232933044
-0.36667898297 0.65748351812 -0.65824401379
-0.48125648499 0.60510724783 -0.6341317296
0.15672172606 0.40001055598 -0.90288215876
0.15054932237 0.53572624922 -0.83085674047
0.28960859776 0.4430064261 -0.84844380617
-0.40619194508 0.54944390059 -0.73008930683
-0.18608115613 0.78351789713 -0.59279412031
0.031563300639 0.46804863214 -0.88313215971
-0.12507665157 -0.031870421022 -0.99161219597
-0.176322788 0.091361194849 -0.98003715277
-0.25970336795 -0.010086327791 -0.96564680338
-0.32554042339 0.092592284083 -0.94097727537
-0.33307003975 -0.097433641553 -0.93783342838
-0.40250685811 -0.010633455589 -0.91532534361
-0.47337630391 -0.13625693321 -0.87010425329
-0.5275401473 -0.034678261727 -0.84875899553
-0.57517904043 0.055865962058 -0.81609272957
-0.65552860498 -0.027491334826 -0.75463324785
-0.63835555315 0.12603108585 -0.75922912359
-0.56109410524 0.15640757978 -0.81282776594
-0.28081911802 -0.18125855923 -0.94245779514
-0.38170525432 -0.19157277048 -0.90407264233
-0.079621560872 0.20108054578 -0.97630870342
0.079373709857 0.195241943 -0.97739911079
-0.0073000909761 0.33261951804 -0.9430206418
-0.17871336639 0.31680509448 -0.93150621653
-0.2514411211 0.20310851932 -0.94633209705
-0.33168587089 0.31693318486 -0.88853245974
-0.43617650867 0.25564336777 -0.86273169518
-0.17742490768 0.5217140317 -0.83446806669
-0.34644863009 0.4652492404 -0.81457549334
-0.11083184928 0.4286724925 -0.8965921402
-0.2456356287 0.4274187088 -0.87011402845
[...]
CELL_DATA 702
SCALARS cell_data_0 double
LOOKUP_TABLE default
1.94228757402e-05
7.43440174783e-06
1.35529094768e-07
1.82410014772e-05
1.05920397367e-05
3.85823696895e-06
1.5265176184e-05
1.07206140364e-05
1.20735453239e-05
3.63144776855e-06
2.24693642009e-08
1.21127598131e-06
1.93614286255e-06
3.43055505498e-06
1.93646536452e-06
3.43858549665e-06
4.66800671736e-06
3.03007701936e-06
2.99617557616e-06
3.75536323793e-06
4.68555252461e-06
1.36667215871e-05
1.79682316701e-06
1.59857128976e-07
6.22432740011e-07
7.69945635365e-06
3.09755263829e-05
6.62055226931e-05
0.000115185554763
7.53861476099e-05
2.44116765658e-05
7.0246132354e-07
2.88827256433e-07
1.2341234929e-06
1.37520598948e-05
8.71520073921e-06
1.39134470512e-05
8.08014283399e-06
3.49081128416e-06
4.34624830498e-06
9.98734208246e-06
1.40393154713e-05
6.65845031549e-07
6.04637887065e-06
1.09545222893e-06
1.46806198334e-06
3.05804237806e-07
3.51022885498e-07
9.8549820323e-06
4.5488067964e-06
1.08719151145e-06
5.87363668872e-06
4.98780751545e-06
9.97174242188e-06
5.37465900316e-06
4.9300341098e-05
3.95826423289e-05
4.02187540005e-05
3.50082780351e-05
9.60159383076e-05
4.82946508666e-05
8.85831856083e-05
0.000138915805778
5.21817140153e-05
0.000122909129895
2.443078037e-05
4.0491096802e-05
3.99524520105e-05
2.82922284096e-05
6.33978906537e-05
5.31955753251e-05
2.91226086144e-05
2.06980330224e-05
1.61318611783e-05
1.46201394588e-05
1.16265972523e-05
1.11951654505e-05
1.18957130067e-05
1.4371111007e-05
1.02155619827e-05
9.15028762398e-06
1.12839118384e-05
1.59854235216e-05
1.20024140221e-05
1.00419786388e-05
1.25164866489e-05
1.52270620073e-05
1.40240548343e-06
3.9935307678e-06
1.82311458653e-06
2.32924506202e-06
3.43141543088e-07
3.25781780546e-07
2.20129298359e-08
3.43444952972e-07
2.06059891073e-07
1.15962564897e-05
1.14873252321e-05
2.12335974395e-07
4.55821656803e-08
4.25219846215e-07
4.27481600113e-06
3.42995745547e-07
1.37690741973e-06
1.32979240653e-06
1.44693130244e-06
4.04948659535e-07
2.67572833798e-05
3.25622245762e-05
6.9614345548e-06
1.14184143247e-05
5.72749167281e-06
9.60026639856e-06
1.58592697868e-05
2.85963671829e-05
4.97502059071e-05
1.05586451872e-05
5.83959553898e-06
1.38624034234e-05
3.34658398984e-08
5.77556735993e-06
9.61794511057e-06
1.78537657676e-05
8.64679845506e-06
1.88627763059e-05
3.57292986283e-05
2.93820507344e-05
1.52645189576e-05
2.47089025822e-08
1.21955843993e-05
6.56272600965e-06
1.29466339532e-05
1.21589477266e-05
1.89911818439e-05
1.91050489085e-05
1.47336628551e-05
1.40436113881e-05
1.07137730627e-05
5.90712078625e-06
8.19474737951e-06
8.02602579265e-06
8.01369136237e-06
9.57652434607e-06
1.25476697877e-05
1.33881003745e-05
2.91803924579e-07
1.11806423282e-05
8.60646455728e-06
1.99260519688e-05
1.47341342905e-05
2.00466387154e-06
3.40181615222e-07
4.20234744648e-07
4.51224051711e-07
2.86576252241e-07
3.2395922265e-07
3.43516885788e-07
2.88731468469e-07
4.70890982412e-07
7.79457601464e-06
1.19017916656e-06
5.62548466743e-06
5.76038467167e-06
1.20912333805e-05
4.58866145985e-05
2.39876504368e-06
1.48533425067e-06
2.88912170085e-05
1.35261692718e-06
1.47607351951e-05
4.03514776954e-08
5.01900097758e-08
2.06408659539e-07
5.55238661863e-08
9.31571618597e-08
6.8474490933e-06
2.62956784575e-07
8.06900679441e-08
4.13325294155e-07
4.21354366331e-07
9.03342091946e-06
1.34428800807e-06
7.35038143459e-07
1.34002869298e-06
1.29739674668e-07
5.2498396428e-09
1.24419503774e-08
1.32152589377e-05
1.46804102637e-05
5.58816019642e-07
4.45937116861e-07
1.01275228296e-06
1.06051688935e-06
8.34323508674e-07
5.53383706916e-07
1.23540788084e-06
1.18488731345e-05
2.1357496077e-06
2.81701353623e-07
1.82459141625e-07
2.38582904302e-07
8.80615674462e-08
1.96199489278e-07
6.93823953537e-06
1.01383772479e-05
2.73223286527e-07
3.4723747458e-07
3.48513911277e-07
1.6740967398e-06
8.91979473034e-08
6.15897583324e-08
1.13977815643e-07
8.87955027218e-08
1.77035816706e-07
5.15845077973e-07
4.03612909797e-07
2.80610223258e-06
2.02711437141e-06
4.29262935874e-06
1.92368418529e-06
1.92130066087e-06
9.93663143777e-07
1.44211852258e-08
1.60340761848e-06
1.58025346176e-06
2.34508792603e-06
1.92752750237e-05
2.03235499536e-05
7.76188362902e-08
1.79610128849e-08
9.04142378961e-08
1.96841756096e-07
1.49824310269e-07
1.61753238442e-06
1.85529621945e-07
1.69373693629e-08
1.62609836581e-07
3.57763307896e-07
1.15974463047e-07
9.93988950155e-08
2.61340224185e-07
1.79836951347e-06
6.61665288847e-08
1.27446706532e-07
4.14784767079e-06
4.67676189512e-07
2.58783421152e-07
2.17248090274e-07
8.77836524405e-09
2.0826862271e-06
3.34157025975e-08
7.80800834536e-08
7.3063025151e-08
4.61100481942e-08
4.75254014836e-07
4.25086397071e-07
3.41253442903e-06
8.62323161048e-08
4.1520548578e-08
9.31326312884e-08
1.94230672405e-08
1.30137084176e-08
1.2372328473e-08
1.36514102474e-08
7.81068702694e-09
2.94597268042e-08
1.62744604205e-08
1.00774600575e-06
8.73913048535e-08
1.01849955795e-06
3.2654810835e-08
1.29728816537e-06
3.00837437717e-05
1.06720432219e-05
1.01011066054e-06
9.13440252553e-06
9.32647306776e-07
1.9431017166e-07
3.9229799045e-06
2.57184553058e-08
1.4142571887e-08
2.37061043217e-08
9.45846826728e-09
7.19063693823e-06
5.99475011997e-06
4.09547497802e-08
5.89587951235e-08
3.93911278954e-06
1.29200787503e-07
1.44749155957e-07
2.42623384433e-08
1.63422690864e-08
2.44897484317e-08
4.22381126466e-08
1.29501864546e-05
3.28490388663e-08
3.71905138995e-08
2.7421151636e-08
6.99519708611e-08
5.55952717382e-09
5.9411639331e-08
3.20319926534e-07
2.04405211078e-08
1.01986442824e-05
1.17111145944e-05
2.5098228383e-07
2.65651971125e-09
4.45593703196e-08
6.54678675359e-08
1.13965270088e-07
4.43015722493e-06
1.15804939427e-07
1.46059337621e-07
7.18059136617e-09
2.2964167022e-05
2.153799906e-05
8.43382509907e-06
9.97920674797e-06
6.8695316784e-06
7.38089046948e-06
8.15796623012e-06
8.5369471237e-06
1.73133763289e-05
9.9096691987e-06
9.04399728483e-06
6.77673509831e-06
1.83391145311e-05
1.18541676552e-05
6.13369930149e-06
6.76668071213e-06
1.30221558152e-05
1.23174626764e-05
9.96065538883e-06
1.156370121e-05
8.65144541702e-06
1.08023970354e-05
1.47033934088e-05
9.15048654532e-06
1.1189590933e-05
2.81657740185e-06
9.4469567087e-06
1.63695989786e-05
1.55507364583e-05
1.1130145961e-05
1.43101788773e-05
6.57779112625e-06
1.67120362991e-05
2.17011131697e-05
9.01710848892e-06
1.62245871322e-05
5.9788901651e-06
1.22174624895e-06
6.65385970609e-06
1.4893484422e-05
6.47476879985e-06
3.7173761883e-07
9.25603381128e-06
1.61844720148e-05
1.86833921751e-05
1.68639724603e-05
9.23159837794e-06
2.23655334143e-05
1.9107026294e-05
1.84756677007e-05
1.60777819738e-05
1.74415419877e-05
1.46388772477e-05
9.78874053566e-06
1.6049916767e-05
1.14215714853e-05
1.12675092917e-05
1.29486669838e-05
1.51696026774e-05
1.41101341417e-05
1.59917571791e-05
6.85702728427e-06
1.9200176435e-05
1.39573513809e-05
9.87714112582e-06
1.35101751561e-05
1.34371219994e-05
1.56763411648e-05
8.85624661585e-06
6.56847023591e-07
4.31867301152e-06
9.15518294828e-06
1.42316003562e-05
5.28697204429e-06
5.67011939172e-06
6.17240748672e-06
1.29601843734e-07
1.31219863485e-07
1.39899023978e-07
1.06355637786e-05
1.39435225419e-07
6.13945606091e-08
1.07666059052e-07
1.1887451432e-08
2.4395913845e-07
1.62906626736e-06
1.06348330771e-06
2.37053536632e-06
6.24863672063e-06
5.67409667644e-06
1.95892590331e-06
1.98370350194e-06
6.69973360582e-06
2.0671632406e-06
1.51675869671e-05
1.51355873511e-05
1.88450622522e-08
2.00116921603e-08
2.985139765e-06
3.33962160537e-06
2.3624817407e-06
1.2612094528e-08
4.5904570531e-06
3.23011784584e-06
3.25380039244e-06
6.21298439164e-06
1.00546747781e-05
1.99543312735e-05
2.66764148082e-05
2.0311292429e-06
3.35447348294e-08
4.59533277645e-06
1.31817513585e-08
8.21596714996e-09
9.48450487282e-10
2.70787409676e-06
4.81936297246e-07
9.01495773757e-07
3.48085820691e-06
6.6969405397e-06
9.74486473189e-06
1.1030793949e-05
5.83708255351e-08
5.7913401795e-07
6.27238595115e-07
4.65547535277e-08
5.56744309128e-07
6.50873415469e-07
5.15433836784e-06
5.29131519412e-06
7.60771970977e-06
1.63620152082e-06
2.57224389696e-06
4.69424532758e-06
5.20303526791e-06
8.81936602294e-06
7.92898825416e-06
8.56411810619e-06
7.3518108033e-06
6.16181723477e-06
4.44864421706e-06
8.286281043e-06
4.26281537939e-06
4.20948983059e-06
4.27274570544e-06
4.66098835859e-06
6.14916787266e-06
1.58468335044e-08
4.46849641481e-08
5.49643967842e-08
6.97517211802e-06
1.74485976371e-05
1.05482612789e-05
2.76069414596e-06
5.98174379528e-06
1.45741703554e-06
6.63017333747e-06
2.95000926191e-06
1.68215574111e-06
1.34087126342e-06
1.03155130258e-05
3.29184850026e-06
4.70851917931e-06
4.15813219505e-06
2.57718975341e-06
4.32816077166e-07
3.45148887124e-06
2.58689866252e-06
1.70201107722e-06
9.1910103535e-09
1.83853797962e-08
3.59543865189e-06
3.61368260672e-06
9.83275908806e-07
3.94420780085e-06
1.44699377923e-06
2.52466383409e-08
3.64705893864e-06
7.97225455811e-06
1.4038390999e-05
1.20921379603e-05
8.71535547366e-06
1.14865778927e-05
1.19028786953e-05
2.47973248186e-06
2.55408240045e-06
4.76802309504e-06
3.80277440517e-06
1.19038647623e-06
1.62895021754e-06
1.44541690648e-06
1.4773766445e-06
7.88796481154e-06
1.00209318629e-07
3.36010507034e-08
2.6700947657e-07
2.02016245301e-06
2.13531507983e-06
2.17163276538e-06
3.5607426631e-06
6.44389134781e-07
6.738307042e-07
4.66737921503e-06
7.25778840372e-06
5.49558410795e-06
7.87285651699e-06
8.44738614489e-06
9.26549154788e-06
6.74577934872e-06
7.89739384446e-06
7.5930094134e-06
6.23717700691e-06
4.71142163885e-06
5.40792955864e-06
5.35953425152e-06
9.21824100435e-06
9.03563843294e-06
2.05883988476e-05
2.64818838854e-05
7.75161388072e-06
8.66975160746e-06
7.78483357598e-06
1.07991647271e-05
4.10608774368e-07
3.63928987365e-07
1.5958094226e-07
1.10202418755e-07
5.30630762671e-08
1.57481426136e-07
1.82250166374e-07
6.07985060075e-08
2.29403501395e-06
2.22414874815e-06
2.21454795607e-06
5.20678078172e-06
5.74981970168e-06
6.44988010988e-06
3.12936157805e-06
6.74859119401e-07
4.18222619987e-06
1.24786577531e-05
5.40293582002e-06
4.54245053187e-06
1.53739963714e-05
3.48920539688e-07
1.54988592761e-05
2.5833771939e-05
1.28082528265e-05
1.15096243796e-05
1.14312954838e-05
2.74854588154e-06
3.13536824924e-07
8.091502991e-08
1.02791949485e-05
7.82707053841e-06
1.3370073791e-06
1.86282824338e-05
1.51104632738e-06
1.5159390598e-06
3.48145783856e-08
4.67780339257e-06
2.45437115988e-08
9.6574182018e-10
1.65667112107e-06
2.81339298215e-08
3.51950501857e-06
2.42925466849e-06
1.92185748371e-06
3.04591061028e-06
5.78518310627e-06
7.13087676281e-06
2.64005653714e-08
3.13558451154e-06
1.10400847414e-05
3.55447035927e-06
1.90618492637e-08
3.92237870615e-07
1.02882792136e-05
4.67947913662e-07
3.35740533075e-08
8.60713067644e-07
1.02236721522e-05
4.28676501595e-07
1.46517061983e-07
1.39414425428e-06
9.58528615192e-07
1.45143258882e-05
1.41747178263e-06
1.87410170978e-05
1.61351594053e-05
7.26607143842e-06
8.42424864146e-08
5.40783425599e-08
1.05298290151e-06
1.66957942998e-05
1.41946937829e-05
1.22425134991e-05
2.45043737365e-05
4.26302740402e-05
2.48679071224e-07
6.64019960395e-07
6.57923803421e-08
2.99263553461e-06
6.04628967303e-06
2.94903883032e-06
4.91901296838e-10
2.38807658957e-09
5.82745435424e-06
3.71475222397e-06
4.07084444421e-08
6.12803388206e-08
6.75564329602e-08
8.63312005169e-08
6.87540936237e-06
3.09126372024e-09
9.0917349267e-08
3.60609474122e-06
5.95537431428e-07
8.46220153412e-07
2.59243320769e-07
1.04659165589e-07
6.75783201476e-06
7.41605793286e-06
1.290604839e-07
5.17518149252e-08
1.78263830407e-07
1.17201204445e-06
3.93358777532e-06
1.8081459495e-07
1.39433567438e-06
8.67888629142e-06
2.48317374925e-08
1.00450323936e-06
6.37988693981e-06
1.40330122889e-06
2.11847868557e-06
1.50513188754e-05
1.29082769813e-05
1.17028652107e-05
1.09078562674e-05
5.16848197527e-06
7.35809314573e-06
2.17458455485e-05
9.23134482574e-06
6.20044793853e-06
6.83333148213e-06
4.59718826567e-06
1.56567233414e-07
4.49395066398e-06
1.5717466806e-07
1.61692785307e-05
6.01755986593e-06
3.813869014e-06
6.23777456386e-08
3.78775994674e-07
9.60595835852e-06
9.63082444437e-06
4.40114084817e-06
8.96152443344e-07
2.0967392076e-08
7.45036068153e-06
9.34988066734e-09
6.83748560736e-06
1.11482447944e-05
2.27804585212e-06
1.94829557973e-06
2.99833146789e-06
1.35493421966e-05
5.36661059507e-06
2.03130586927e-07
6.58828945162e-06
1.62403082249e-05
5.99858897078e-06
9.28506930408e-07
4.48673803495e-07
6.71287286885e-06
1.2368160224e-05
2.93882668992e-06
1.77022300844e-06
1.88062180947e-06
3.68963605176e-06
5.29703669448e-06
1.26646360226e-05
3.33442249234e-07
1.13953326777e-07
1.0068537151e-05
1.26448160034e-06
1.01206674544e-07

