# vtk DataFile Version 3.0
File Name: Molecule/sphere_excent/sphere_excent_0-s8.vtk
ASCII
DATASET UNSTRUCTURED_GRID
FIELD FieldData 1
TIME 1 1 double
0.0
POINTS 225 double
1.0 1.61803399 0.61803399
0.52573111 1.90211303 0.3249197
0.51978383 1.72533696 0.86777713
0.0 1.92387672 0.54653306
0.0 2.0 0.0
0.0 1.70130162 1.05146222
-0.51978383 1.72533696 0.86777713
-0.52573111 1.90211303 0.3249197
-1.0 1.61803399 0.61803399
-1.05146222 1.70130162 0.0
-1.40409289 1.38756095 0.32124407
-1.40409289 1.38756095 -0.32124407
-1.0 1.61803399 -0.61803399
-1.70130162 1.05146222 0.0
-0.32124407 1.40409289 1.38756095
-0.85065081 1.37638192 1.17557051
-0.61803399 1.0 1.61803399
-1.37638192 1.17557051 0.85065081
-1.17557051 0.85065081 1.37638192
-1.61803399 0.61803399 1.0
-1.72533696 0.86777713 0.51978383
-0.86777713 0.51978383 1.72533696
-1.38756095 0.32124407 1.40409289
-1.05146222 0.0 1.70130162
0.32124407 1.40409289 1.38756095
0.0 1.05146222 1.70130162
0.61803399 1.0 1.61803399
-0.3249197 0.52573111 1.90211303
0.3249197 0.52573111 1.90211303
0.0 0.0 2.0
-0.54653306 0.0 1.92387672
0.86777713 0.51978383 1.72533696
0.54653306 0.0 1.92387672
1.05146222 0.0 1.70130162
-0.86777713 -0.51978383 1.72533696
-0.3249197 -0.52573111 1.90211303
-0.61803399 -1.0 1.61803399
0.0 -1.05146222 1.70130162
0.3249197 -0.52573111 1.90211303
0.61803399 -1.0 1.61803399
-0.32124407 -1.40409289 1.38756095
0.32124407 -1.40409289 1.38756095
0.0 -1.70130162 1.05146222
0.86777713 -0.51978383 1.72533696
1.38756095 -0.32124407 1.40409289
1.17557051 -0.85065081 1.37638192
1.61803399 -0.61803399 1.0
0.85065081 -1.37638192 1.17557051
1.37638192 -1.17557051 0.85065081
1.0 -1.61803399 0.61803399
0.51978383 -1.72533696 0.86777713
1.72533696 -0.86777713 0.51978383
1.40409289 -1.38756095 0.32124407
1.70130162 -1.05146222 0.0
1.05146222 0.0 -1.70130162
0.86777713 -0.51978383 -1.72533696
0.54653306 0.0 -1.92387672
0.3249197 -0.52573111 -1.90211303
0.0 0.0 -2.0
0.0 -1.05146222 -1.70130162
-0.61803399 -1.0 -1.61803399
-0.3249197 -0.52573111 -1.90211303
0.32124407 -1.40409289 -1.38756095
0.0 -1.70130162 -1.05146222
-0.32124407 -1.40409289 -1.38756095
-0.54653306 0.0 -1.92387672
-0.86777713 -0.51978383 -1.72533696
-1.05146222 0.0 -1.70130162
1.92387672 -0.54653306 0.0
1.90211303 -0.3249197 0.52573111
2.0 0.0 0.0
1.90211303 0.3249197 0.52573111
1.70130162 0.0 1.05146222
1.61803399 0.61803399 1.0
1.92387672 0.54653306 0.0
1.72533696 0.86777713 0.51978383
1.70130162 1.05146222 0.0
1.38756095 0.32124407 1.40409289
1.40409289 1.38756095 0.32124407
1.37638192 1.17557051 0.85065081
0.85065081 1.37638192 1.17557051
1.17557051 0.85065081 1.37638192
-1.38756095 -0.32124407 -1.40409289
-1.38756095 0.32124407 -1.40409289
-1.70130162 0.0 -1.05146222
-1.61803399 -0.61803399 -1.0
-1.61803399 0.61803399 -1.0
-1.90211303 -0.3249197 -0.52573111
-1.90211303 0.3249197 -0.52573111
-1.72533696 -0.86777713 -0.51978383
-1.92387672 -0.54653306 0.0
-1.70130162 -1.05146222 0.0
-1.72533696 0.86777713 -0.51978383
-1.92387672 0.54653306 0.0
0.0 1.70130162 -1.05146222
-0.32124407 1.40409289 -1.38756095
-0.51978383 1.72533696 -0.86777713
-0.85065081 1.37638192 -1.17557051
-0.61803399 1.0 -1.61803399
-1.17557051 0.85065081 -1.37638192
-1.37638192 1.17557051 -0.85065081
-0.86777713 0.51978383 -1.72533696
-1.40409289 -1.38756095 -0.32124407
-1.40409289 -1.38756095 0.32124407
-1.05146222 -1.70130162 0.0
-1.0 -1.61803399 -0.61803399
-1.0 -1.61803399 0.61803399
-0.52573111 -1.90211303 -0.3249197
-0.52573111 -1.90211303 0.3249197
0.0 -2.0 0.0
-0.51978383 -1.72533696 -0.86777713
0.0 -1.92387672 -0.54653306
-0.51978383 -1.72533696 0.86777713
0.0 -1.92387672 0.54653306
-1.72533696 -0.86777713 0.51978383
-1.37638192 -1.17557051 0.85065081
-1.61803399 -0.61803399 1.0
-0.85065081 -1.37638192 1.17557051
-1.17557051 -0.85065081 1.37638192
-1.38756095 -0.32124407 1.40409289
-1.70130162 0.0 1.05146222
-1.90211303 0.3249197 0.52573111
-1.90211303 -0.3249197 0.52573111
-2.0 0.0 0.0
-1.17557051 -0.85065081 -1.37638192
-0.85065081 -1.37638192 -1.17557051
-1.37638192 -1.17557051 -0.85065081
0.51978383 -1.72533696 -0.86777713
0.52573111 -1.90211303 -0.3249197
1.0 -1.61803399 -0.61803399
1.05146222 -1.70130162 0.0
0.52573111 -1.90211303 0.3249197
1.40409289 -1.38756095 -0.32124407
1.38756095 -0.32124407 -1.40409289
1.61803399 -0.61803399 -1.0
1.37638192 -1.17557051 -0.85065081
1.17557051 -0.85065081 -1.37638192
0.85065081 -1.37638192 -1.17557051
1.72533696 -0.86777713 -0.51978383
0.86777713 0.51978383 -1.72533696
0.3249197 0.52573111 -1.90211303
0.61803399 1.0 -1.61803399
-0.3249197 0.52573111 -1.90211303
0.0 1.05146222 -1.70130162
0.32124407 1.40409289 -1.38756095
0.85065081 1.37638192 -1.17557051
0.76722747 1.68782295 -0.75007714
1.0 1.61803399 -0.61803399
1.03851698 1.68035577 -0.31286893
1.40409289 1.38756095 -0.32124407
0.77237477 1.78201305 -0.47735386
0.7992141 1.82596499 -0.16464716
0.52573111 1.90211303 -0.3249197
1.05146222 1.70130162 0.0
0.5328094 1.92772253 0.0
0.7992141 1.82596499 0.16464716
0.5281655 1.83248835 -0.60251776
0.51978383 1.72533696 -0.86777713
0.26331074 1.8486092 -0.71645759
0.26558495 1.93278519 -0.44023406
0.0 1.92387672 -0.54653306
1.42256347 1.40581406 0.0
1.24047916 1.56040874 -0.1622837
1.24047916 1.56040874 0.1622837
1.2136503 1.5173046 0.47417265
1.03851698 1.68035577 0.31286893
-0.52573111 1.90211303 -0.3249197
-0.5328094 1.92772253 0.0
-0.7992141 1.82596499 -0.16464716
-0.7992141 1.82596499 0.16464716
-0.26558495 1.93278519 -0.44023406
-0.26331074 1.8486092 -0.71645759
-0.5281655 1.83248835 -0.60251776
1.17557051 0.85065081 -1.37638192
1.29315558 1.02675088 -1.12850842
1.61803399 0.61803399 -1.0
1.37638192 1.17557051 -0.85065081
1.02675088 1.12850842 -1.29315558
1.12850842 1.29315558 -1.02675088
0.59200919 1.40461969 -1.29482379
0.69230603 1.56690339 -1.03224324
0.42604573 1.58529846 -1.14250332
1.90211303 0.3249197 -0.52573111
1.93278519 0.44023406 -0.26558495
1.83248835 0.60251776 -0.5281655
1.8486092 0.71645759 -0.26331074
1.72533696 0.86777713 -0.51978383
1.58529846 1.14250332 -0.42604573
1.56690339 1.03224324 -0.69230603
1.40461969 1.29482379 -0.59200919
1.38756095 0.32124407 -1.40409289
1.29482379 0.59200919 -1.40461969
1.14250332 0.42604573 -1.58529846
1.03224324 0.69230603 -1.56690339
1.8486092 -0.71645759 -0.26331074
1.83248835 -0.60251776 -0.5281655
1.93278519 -0.44023406 -0.26558495
1.90211303 -0.3249197 -0.52573111
1.68782295 -0.75007714 -0.76722747
1.78201305 -0.47735386 -0.77237477
1.68035577 -0.31286893 -1.03851698
1.82596499 -0.16464716 -0.7992141
1.70130162 0.0 -1.05146222
1.82596499 0.16464716 -0.7992141
1.92772253 0.0 -0.5328094
1.5173046 -0.47417265 -1.2136503
1.56040874 -0.1622837 -1.24047916
1.40581406 0.0 -1.42256347
1.56040874 0.1622837 -1.24047916
0.60251776 -0.5281655 -1.83248835
0.75007714 -0.76722747 -1.68782295
0.47735386 -0.77237477 -1.78201305
0.61803399 -1.0 -1.61803399
0.31286893 -1.03851698 -1.68035577
0.16464716 -0.7992141 -1.82596499
0.47417265 -1.2136503 -1.5173046
0.1622837 -1.24047916 -1.56040874
-1.92772253 0.0 -0.5328094
-1.97537668 -0.16448493 -0.26614221
-1.97537668 0.16448493 -0.26614221
1.03224324 -0.69230603 -1.56690339
0.907981 -0.9368597 -1.51587084
1.02675088 -1.12850842 -1.29315558
0.74349607 -1.20300191 -1.41421356
0.59200919 -1.40461969 -1.29482379

CELLS 446 1784
3 0 1 2
3 1 3 2
3 1 4 3
3 2 3 5
3 5 3 6
3 3 7 6
3 3 4 7
3 6 7 8
3 8 9 10
3 9 11 10
3 9 12 11
3 10 11 13
3 5 6 14
3 6 15 14
3 6 8 15
3 14 15 16
3 8 17 15
3 17 18 15
3 17 19 18
3 15 18 16
3 8 10 17
3 10 20 17
3 10 13 20
3 17 20 19
3 16 18 21
3 18 22 21
3 18 19 22
3 21 22 23
3 5 14 24
3 14 25 24
3 14 16 25
3 24 25 26
3 16 27 25
3 27 28 25
3 27 29 28
3 25 28 26
3 16 21 27
3 21 30 27
3 21 23 30
3 27 30 29
3 26 28 31
3 28 32 31
3 28 29 32
3 31 32 33
3 23 34 30
3 34 35 30
3 34 36 35
3 30 35 29
3 36 37 35
3 37 38 35
3 37 39 38
3 35 38 29
3 36 40 37
3 40 41 37
3 40 42 41
3 37 41 39
3 29 38 32
3 38 43 32
3 38 39 43
3 32 43 33
3 33 43 44
3 43 45 44
3 43 39 45
3 44 45 46
3 39 47 45
3 47 48 45
3 47 49 48
3 45 48 46
3 39 41 47
3 41 50 47
3 41 42 50
3 47 50 49
3 46 48 51
3 48 52 51
3 48 49 52
3 51 52 53
3 54 55 56
3 56 57 58
3 59 60 61
3 57 61 58
3 62 63 64
3 59 64 60
3 58 61 65
3 61 66 65
3 61 60 66
3 65 66 67
3 53 68 51
3 68 69 51
3 68 70 69
3 51 69 46
3 70 71 69
3 71 72 69
3 71 73 72
3 69 72 46
3 70 74 71
3 74 75 71
3 74 76 75
3 71 75 73
3 46 72 44
3 72 77 44
3 72 73 77
3 44 77 33
3 76 78 75
3 78 79 75
3 75 79 73
3 0 80 79
3 80 81 79
3 80 26 81
3 79 81 73
3 0 2 80
3 2 24 80
3 2 5 24
3 80 24 26
3 73 81 77
3 81 31 77
3 81 26 31
3 77 31 33
3 67 82 83
3 82 84 83
3 82 85 84
3 83 84 86
3 85 87 84
3 84 88 86
3 85 89 87
3 89 90 87
3 89 91 90
3 86 88 92
3 88 93 92
3 92 93 13
3 94 95 96
3 95 97 96
3 95 98 97
3 96 97 12
3 98 99 97
3 99 100 97
3 99 86 100
3 97 100 12
3 98 101 99
3 101 83 99
3 101 67 83
3 99 83 86
3 12 100 11
3 100 92 11
3 100 86 92
3 11 92 13
3 91 102 103
3 102 104 103
3 102 105 104
3 103 104 106
3 105 107 104
3 107 108 104
3 107 109 108
3 104 108 106
3 105 110 107
3 110 111 107
3 110 63 111
3 107 111 109
3 106 108 112
3 108 113 112
3 108 109 113
3 112 113 42
3 91 103 114
3 103 115 114
3 103 106 115
3 114 115 116
3 106 117 115
3 117 118 115
3 117 36 118
3 115 118 116
3 106 112 117
3 112 40 117
3 112 42 40
3 117 40 36
3 116 118 119
3 118 34 119
3 118 36 34
3 119 34 23
3 23 22 119
3 22 120 119
3 22 19 120
3 119 120 116
3 19 121 120
3 121 122 120
3 121 123 122
3 120 122 116
3 19 20 121
3 20 93 121
3 20 13 93
3 121 93 123
3 116 122 114
3 122 90 114
3 122 123 90
3 114 90 91
3 67 66 82
3 66 124 82
3 66 60 124
3 82 124 85
3 60 125 124
3 125 126 124
3 125 105 126
3 124 126 85
3 60 64 125
3 64 110 125
3 64 63 110
3 125 110 105
3 85 126 89
3 126 102 89
3 126 105 102
3 89 102 91
3 63 127 111
3 127 128 111
3 127 129 128
3 111 128 109
3 129 130 128
3 130 131 128
3 130 49 131
3 128 131 109
3 129 132 130
3 132 52 130
3 132 53 52
3 130 52 49
3 109 131 113
3 131 50 113
3 131 49 50
3 113 50 42
3 54 133 55
3 134 135 136
3 135 129 137
3 138 132 135
3 138 53 132
3 135 132 129
3 137 129 127
3 62 127 63
3 54 56 139
3 56 140 139
3 56 58 140
3 139 140 141
3 58 142 140
3 142 143 140
3 142 98 143
3 140 143 141
3 58 65 142
3 65 101 142
3 65 67 101
3 142 101 98
3 141 143 144
3 143 95 144
3 143 98 95
3 144 95 94
3 145 146 147
3 147 148 149
3 147 150 148
3 150 151 148
3 150 152 151
3 148 151 153
3 152 154 151
3 154 155 151
3 154 1 155
3 151 155 153
3 1 154 4
3 4 154 152
3 155 1 0
3 147 146 150
3 146 156 150
3 146 157 156
3 150 156 152
3 157 158 156
3 158 159 156
3 158 160 159
3 156 159 152
3 160 158 94
3 94 158 157
3 152 159 4
3 159 160 4
3 149 161 76
3 76 161 78
3 149 162 161
3 162 163 161
3 162 153 163
3 161 163 78
3 78 163 164
3 163 165 164
3 163 153 165
3 164 165 0
3 166 167 4
3 4 167 7
3 166 168 167
3 168 169 167
3 168 9 169
3 167 169 7
3 9 168 12
3 12 168 166
3 7 169 8
3 169 9 8
3 160 170 4
3 4 170 166
3 160 171 170
3 171 172 170
3 171 96 172
3 170 172 166
3 96 171 94
3 94 171 160
3 166 172 12
3 172 96 12
3 78 164 79
3 164 0 79
3 153 162 148
3 148 162 149
3 0 165 155
3 155 165 153
3 173 174 175
3 175 174 176
3 173 177 174
3 177 178 174
3 177 145 178
3 174 178 176
3 145 177 141
3 141 177 173
3 176 178 147
3 178 145 147
3 145 179 180
3 179 181 180
3 179 144 181
3 180 181 157
3 144 179 141
3 141 179 145
3 157 181 94
3 181 144 94
3 145 180 146
3 146 180 157
3 182 183 70
3 70 183 74
3 182 184 183
3 184 185 183
3 184 186 185
3 183 185 74
3 186 184 175
3 175 184 182
3 74 185 76
3 185 186 76
3 186 187 76
3 76 187 149
3 186 188 187
3 188 189 187
3 188 176 189
3 187 189 149
3 176 188 175
3 175 188 186
3 149 189 147
3 189 176 147
3 190 191 175
3 175 191 173
3 190 192 191
3 192 193 191
3 192 139 193
3 191 193 173
3 139 192 54
3 54 192 190
3 173 193 141
3 193 139 141
3 138 194 53
3 53 194 68
3 138 195 194
3 195 196 194
3 195 197 196
3 194 196 68
3 138 198 195
3 198 199 195
3 198 134 199
3 195 199 197
3 68 196 70
3 196 197 70
3 134 200 199
3 200 201 199
3 200 202 201
3 199 201 197
3 202 203 201
3 203 204 201
3 203 182 204
3 201 204 197
3 182 203 175
3 175 203 202
3 197 204 70
3 204 182 70
3 134 205 200
3 205 206 200
3 205 133 206
3 200 206 202
3 133 207 206
3 207 208 206
3 207 190 208
3 206 208 202
3 190 207 54
3 54 207 133
3 202 208 175
3 208 190 175
3 133 205 136
3 205 134 136
3 134 198 135
3 198 138 135
3 55 209 56
3 209 57 56
3 55 210 209
3 210 211 209
3 210 212 211
3 209 211 57
3 212 213 211
3 213 214 211
3 213 59 214
3 211 214 57
3 57 214 61
3 61 214 59
3 212 215 213
3 215 216 213
3 215 62 216
3 213 216 59
3 59 216 64
3 64 216 62
3 87 217 84
3 217 88 84
3 87 218 217
3 218 219 217
3 218 123 219
3 217 219 88
3 123 218 90
3 90 218 87
3 88 219 93
3 219 123 93
3 136 220 133
3 133 220 55
3 55 220 210
3 220 221 210
3 220 136 221
3 210 221 212
3 137 222 135
3 135 222 136
3 136 222 221
3 222 223 221
3 222 137 223
3 221 223 212
3 212 223 215
3 223 224 215
3 223 137 224
3 215 224 62
3 62 224 127
3 127 224 137

CELL_TYPES 446
5
5
5
5
5
5
5
5
5
5
5
5
5
5
5
5
5
5
5
5
5
5
5
5
5
5
5
5
5
5
5
5
5
5
5
5
5
5
5
5
5
5
5
5
5
5
5
5
5
5
5
5
5
5
5
5
5
5
5
5
5
5
5
5
5
5
5
5
5
5
5
5
5
5
5
5
5
5
5
5
5
5
5
5
5
5
5
5
5
5
5
5
5
5
5
5
5
5
5
5
5
5
5
5
5
5
5
5
5
5
5
5
5
5
5
5
5
5
5
5
5
5
5
5
5
5
5
5
5
5
5
5
5
5
5
5
5
5
5
5
5
5
5
5
5
5
5
5
5
5
5
5
5
5
5
5
5
5
5
5
5
5
5
5
5
5
5
5
5
5
5
5
5
5
5
5
5
5
5
5
5
5
5
5
5
5
5
5
5
5
5
5
5
5
5
5
5
5
5
5
5
5
5
5
5
5
5
5
5
5
5
5
5
5
5
5
5
5
5
5
5
5
5
5
5
5
5
5
5
5
5
5
5
5
5
5
5
5
5
5
5
5
5
5
5
5
5
5
5
5
5
5
5
5
5
5
5
5
5
5
5
5
5
5
5
5
5
5
5
5
5
5
5
5
5
5
5
5
5
5
5
5
5
5
5
5
5
5
5
5
5
5
5
5
5
5
5
5
5
5
5
5
5
5
5
5
5
5
5
5
5
5
5
5
5
5
5
5
5
5
5
5
5
5
5
5
5
5
5
5
5
5
5
5
5
5
5
5
5
5
5
5
5
5
5
5
5
5
5
5
5
5
5
5
5
5
5
5
5
5
5
5
5
5
5
5
5
5
5
5
5
5
5
5
5
5
5
5
5
5
5
5
5
5
5
5
5
5
5
5
5
5
5
5
5
5
5
5
5
5
5
5
5
5
5
5
5
5
5
5
5
5
5
5
5
5
5
5
5
5
5
5
5
5
5
5
5
5
5
5
5
5
5
5
5
5
5
5
5
5
5
5
5
5
5
5

CELL_DATA 446
SCALARS cell_data_0 double
LOOKUP_TABLE default
2.33358273394e-06
2.60964137161e-06
6.49887071887e-07
3.32195018704e-06
3.3261488518e-06
2.53298165928e-06
7.19870724407e-07
2.26814662459e-06
6.83185596778e-07
6.66043265603e-07
2.43059837446e-06
6.42404350271e-07
4.81996420718e-06
4.95729940015e-06
2.27797672618e-06
8.01389918634e-07
1.42943347124e-06
5.84347142869e-06
3.09986799925e-06
3.59106912343e-06
7.57180098197e-07
2.04698935913e-06
9.00434197056e-07
9.5068704189e-08
7.14685972723e-06
1.01298406065e-05
4.77127787992e-06
1.21632762232e-05
5.62961276905e-06
9.32168945622e-06
6.54788120919e-06
7.72460333323e-06
1.84517638773e-05
2.80095593311e-05
3.53536500208e-05
2.24471039715e-05
1.41124578437e-05
2.46967168428e-05
1.87629696133e-05
2.94836548249e-05
1.83595307563e-05
1.0519829798e-05
2.25250151621e-05
1.08115460435e-05
1.39100835337e-05
1.12436456564e-05
1.8399136834e-05
2.30805947766e-05
2.21051359474e-05
1.54357335165e-05
2.09973397489e-05
2.8411653328e-05
1.13541170944e-05
8.5198620298e-06
6.29526303177e-06
1.14722071553e-05
2.31853099919e-05
1.21568264922e-05
1.74626957578e-05
1.12976499551e-05
9.51670582227e-06
8.00867082395e-06
1.18913727839e-05
1.86526439724e-06
9.78457179655e-06
5.63464901269e-06
9.98127511271e-06
5.69321078261e-06
7.61553257063e-06
4.95361157734e-06
4.88070780815e-06
8.06313717251e-06
9.91190893235e-06
2.62215017286e-06
1.31414864944e-05
1.84373011433e-06
1.58571539614e-06
3.37391966568e-05
2.56965828002e-05
4.50782355762e-05
4.17484027682e-06
2.3701457148e-05
3.793455799e-05
3.61210108183e-06
2.17311436217e-05
5.79407690961e-06
8.06758083781e-06
7.68969289039e-06
1.102047677e-05
1.33375235168e-05
1.8386617427e-06
3.63906725267e-06
1.30747294069e-05
1.3941136559e-05
3.75027583793e-07
3.05989368427e-07
3.0584188915e-06
1.94113391728e-05
5.52026681614e-06
6.6750159877e-06
8.11737213284e-06
8.92277911745e-06
9.10918722755e-08
1.42304799421e-06
2.17794836247e-05
1.58758860749e-06
4.7086061363e-06
2.92922049168e-06
1.87249596672e-05
2.56899385827e-06
5.13662389841e-06
4.78442972609e-06
2.84197967181e-06
1.04796143529e-05
1.00332676591e-05
1.09299956447e-05
1.00339574119e-05
2.02729784135e-05
2.84494816137e-05
3.85777765971e-05
4.43983175008e-05
4.15825859277e-05
3.71769896407e-05
2.33774444092e-05
4.85513585938e-06
1.61535552255e-06
1.57473003912e-05
3.69368691016e-08
8.18156295727e-07
4.51811853103e-06
1.72430218619e-06
1.16710081703e-05
2.92714041847e-06
1.48323650958e-05
8.61011799483e-07
1.88807217768e-05
1.61987620186e-06
1.46475469119e-05
9.64559084841e-06
1.34776246541e-05
2.92848951502e-05
2.50875783789e-06
6.47551770889e-07
1.31737795292e-05
5.21027540614e-07
4.17922985307e-07
6.91649430258e-07
1.25545062854e-05
1.7728896209e-05
1.18427343059e-05
1.77205781164e-06
7.3006008891e-06
1.97613897402e-05
1.14094686151e-05
6.45265790945e-07
8.14240720442e-07
7.30517179778e-06
1.44145617972e-05
2.71871097777e-06
3.92725804235e-06
3.31663926462e-06
1.47468096293e-06
2.63236496465e-06
1.38601552438e-05
2.27618381049e-06
8.32348176837e-06
4.99470748832e-06
9.89215701584e-06
5.60142219604e-06
8.47121023034e-06
5.09818166522e-06
4.85646951792e-06
7.29365271828e-06
6.48345623542e-06
6.37781984202e-06
1.22956043101e-05
1.05075274519e-05
9.46159680424e-06
6.1735061154e-06
4.43215097562e-06
5.19766880642e-06
2.68902547744e-06
3.7594720328e-06
2.08972552948e-05
2.75752919103e-06
6.60384725012e-08
1.91180691702e-06
1.10468197817e-06
1.86289139473e-05
1.14963436622e-06
1.99371093679e-06
2.14904997156e-05
1.0295645401e-06
1.1601102023e-05
7.86990259973e-06
2.0173611645e-05
2.43787431717e-05
2.08667159803e-05
1.34091383268e-06
1.75370260764e-05
1.78923449071e-05
2.09630622095e-05
2.06053487106e-06
3.3036323632e-06
1.36221504011e-05
1.65909017288e-05
2.21258230266e-06
1.5280419415e-05
2.45997090653e-06
1.52108681736e-06
1.01939141388e-07
6.41610448469e-06
8.14116606354e-06
6.72307639097e-06
4.57668690893e-07
2.52630092679e-05
9.67314771511e-06
6.48395052756e-06
6.57594474852e-07
7.8724007977e-07
1.8581295415e-05
4.93327453439e-06
2.64533138799e-06
1.50535931949e-05
3.35824247115e-06
7.02808046212e-06
4.75262345508e-07
6.94383089544e-06
3.45076321038e-06
3.00703720631e-06
6.32857054771e-06
6.72019916474e-06
2.32562927499e-06
1.20571440999e-06
5.10324732807e-07
3.33057972843e-05
1.22072956177e-05
4.23061235637e-05
2.4572270101e-06
1.72015045757e-05
1.73472834668e-05
3.60572265663e-05
2.32611594899e-06
5.06848626722e-06
1.46578290978e-05
1.24556054358e-05
8.23922946052e-07
1.35824337208e-05
2.25360256415e-06
1.94282396834e-06
3.06375751582e-06
1.80776593143e-06
5.91791279534e-07
2.14005196667e-07
6.94219533154e-09
9.97996496355e-08
1.5349762367e-08
3.96972271737e-07
1.62233698874e-07
1.36604003098e-06
2.000625715e-06
5.69547938394e-07
1.47943752116e-06
4.04679259457e-07
6.09314448767e-08
1.33801133759e-07
1.33415272045e-07
2.31520589073e-07
6.85675202485e-08
5.86650171801e-08
1.31334157648e-06
1.29343710597e-06
1.85242204164e-06
2.0605287426e-06
6.65637794116e-07
4.21955506112e-07
3.89826150961e-08
3.12598875111e-07
3.5036891069e-07
4.23146737552e-07
4.72787703379e-07
4.85071639958e-07
4.24594660716e-07
3.5755013053e-07
1.67331802293e-06
1.1396011683e-06
3.55354332814e-07
4.12264806418e-07
3.13705971413e-07
4.96733226726e-07
2.97585302636e-07
6.92627521031e-08
6.49822309105e-07
9.92171531958e-08
1.71344800509e-06
1.49241868813e-06
1.57557529882e-07
1.44298960095e-07
2.18360854493e-07
2.00800838737e-07
1.96058065612e-06
7.7964934014e-07
8.7796466293e-08
1.18898686568e-06
1.15314072892e-06
7.13093726769e-07
1.5072350642e-07
2.73577126874e-07
1.80651808537e-07
4.27782266182e-07
4.90167962953e-06
5.07890233302e-06
5.18541555394e-07
3.11446539995e-07
1.57779404514e-07
4.87621164797e-07
6.91662885768e-06
8.52280823275e-06
3.38637608085e-06
2.19458085682e-06
1.41032568671e-07
2.80861668605e-07
1.65826026919e-07
5.85247007169e-08
5.84272578503e-06
5.82727816868e-06
1.08494411364e-06
1.23229000945e-06
9.91035334799e-08
5.84407527339e-08
1.08886341882e-06
2.8150751216e-07
5.52679302623e-07
1.66089047589e-07
3.18728611961e-07
8.69367621077e-09
4.79098852522e-06
5.24889208706e-06
5.62934331863e-07
1.15867207015e-06
1.22944531245e-06
6.70802913033e-07
2.48344435065e-07
1.91458725695e-07
4.40118958044e-08
2.2264842377e-08
3.49859192927e-06
4.35808235554e-06
2.20656081587e-06
2.21092156684e-06
5.97674387637e-06
4.35666407544e-06
1.01637425754e-06
4.03319191501e-07
2.43179719917e-07
5.30948741435e-07
8.50280572462e-07
2.56263886448e-06
7.29712273957e-06
6.17660235585e-06
1.11607537277e-06
5.65149621255e-06
6.19456620302e-07
1.21566272814e-07
1.29368040821e-06
2.94742938044e-06
5.92386183055e-07
5.2054467908e-08
1.56445558177e-08
1.36823977265e-06
5.81924608908e-06
2.63038487733e-06
4.56081161321e-08
3.64981656046e-09
1.78182845657e-06
1.70896455313e-06
1.97085043108e-06
4.28090359222e-08
7.08293259927e-07
1.62091134143e-06
6.49802062945e-06
9.68813648779e-06
3.08931214836e-06
1.23562041346e-06
4.04595551272e-08
1.43549537162e-08
9.92297748474e-07
1.44938077853e-06
1.06589173183e-06
3.31546001152e-08
5.70351396574e-07
1.39525655615e-06
2.21067383933e-06
3.26419506853e-06
7.53658240165e-06
4.97755242643e-06
2.31374730806e-06
2.05535353675e-07
1.97220103555e-08
1.25210886365e-06
1.57744486372e-07
3.20731661937e-07
6.46052337753e-08
1.00200605982e-08
1.11430685094e-05
1.5931600949e-07
1.33332640042e-05
9.13491697524e-09
3.41963098901e-07
1.78980897333e-07
9.84227697277e-07
1.46945001084e-06
1.10841882598e-05
2.03232638925e-09
6.81135956586e-08
2.9004685094e-07
1.75235430593e-06
1.05841842488e-06
7.21918135079e-06
5.34250606645e-06
8.53250955974e-07
5.4607804469e-09
7.53631636136e-06
3.30467752747e-07
1.26105797681e-05
1.46372809553e-06
1.77191083723e-07
1.12631507354e-05
2.3979732448e-06
2.41531435328e-06
5.8197298659e-08
5.47394587781e-09
6.38459992667e-08
1.10498977792e-05
8.54918049065e-08
1.54126965906e-07
7.61937809698e-08
2.08736278223e-09
4.74445177727e-08
1.32169221853e-05
1.10801894851e-05
2.35390473921e-09
3.92173426931e-08
6.71381556476e-08
3.35957860031e-07
2.68162812022e-07

