# vtk DataFile Version 3.0
File Name: Molecule/sphere_excent/sphere_excent_0-s3.vtk
ASCII
DATASET UNSTRUCTURED_GRID
FIELD FieldData 1
TIME 1 1 double
0.0
POINTS 171 double
1.70130162 -1.05146222 0.0
1.72533696 -0.86777713 -0.51978383
1.92387672 -0.54653306 0.0
1.90211303 -0.3249197 -0.52573111
1.61803399 -0.61803399 -1.0
2.0 0.0 0.0
1.70130162 0.0 -1.05146222
1.90211303 0.3249197 -0.52573111
1.61803399 0.61803399 -1.0
1.38756095 -0.32124407 -1.40409289
1.38756095 0.32124407 -1.40409289
1.05146222 0.0 -1.70130162
1.92387672 0.54653306 0.0
1.72533696 0.86777713 -0.51978383
1.70130162 1.05146222 0.0
1.40409289 1.38756095 -0.32124407
1.37638192 1.17557051 -0.85065081
1.0 1.61803399 -0.61803399
1.17557051 0.85065081 -1.37638192
0.85065081 1.37638192 -1.17557051
0.61803399 1.0 -1.61803399
0.86777713 0.51978383 -1.72533696
0.32124407 1.40409289 -1.38756095
0.51978383 1.72533696 -0.86777713
0.0 1.70130162 -1.05146222
1.40409289 1.38756095 0.32124407
1.05146222 1.70130162 0.0
1.0 1.61803399 0.61803399
0.52573111 1.90211303 0.3249197
0.51978383 1.72533696 0.86777713
0.0 1.92387672 0.54653306
0.0 2.0 0.0
0.0 1.70130162 1.05146222
-0.51978383 1.72533696 0.86777713
-0.52573111 1.90211303 0.3249197
-1.0 1.61803399 0.61803399
-0.52573111 1.90211303 -0.3249197
-1.05146222 1.70130162 0.0
-1.0 1.61803399 -0.61803399
0.0 1.92387672 -0.54653306
-0.51978383 1.72533696 -0.86777713
-1.40409289 1.38756095 0.32124407
-1.40409289 1.38756095 -0.32124407
-1.70130162 1.05146222 0.0
-0.32124407 1.40409289 1.38756095
-0.85065081 1.37638192 1.17557051
-0.61803399 1.0 1.61803399
-1.37638192 1.17557051 0.85065081
-1.17557051 0.85065081 1.37638192
-1.61803399 0.61803399 1.0
-1.72533696 0.86777713 0.51978383
-0.86777713 0.51978383 1.72533696
-1.38756095 0.32124407 1.40409289
-1.05146222 0.0 1.70130162
0.32124407 1.40409289 1.38756095
0.0 1.05146222 1.70130162
0.61803399 1.0 1.61803399
-0.3249197 0.52573111 1.90211303
0.3249197 0.52573111 1.90211303
0.0 0.0 2.0
-0.54653306 0.0 1.92387672
0.86777713 0.51978383 1.72533696
0.54653306 0.0 1.92387672
1.05146222 0.0 1.70130162
-0.86777713 -0.51978383 1.72533696
-0.3249197 -0.52573111 1.90211303
-0.61803399 -1.0 1.61803399
0.0 -1.05146222 1.70130162
0.3249197 -0.52573111 1.90211303
0.61803399 -1.0 1.61803399
-0.32124407 -1.40409289 1.38756095
0.32124407 -1.40409289 1.38756095
0.0 -1.70130162 1.05146222
0.86777713 -0.51978383 1.72533696
1.38756095 -0.32124407 1.40409289
1.17557051 -0.85065081 1.37638192
1.61803399 -0.61803399 1.0
0.85065081 -1.37638192 1.17557051
1.37638192 -1.17557051 0.85065081
1.0 -1.61803399 0.61803399
0.51978383 -1.72533696 0.86777713
1.72533696 -0.86777713 0.51978383
1.40409289 -1.38756095 0.32124407
0.86777713 -0.51978383 -1.72533696
0.54653306 0.0 -1.92387672
0.3249197 -0.52573111 -1.90211303
0.61803399 -1.0 -1.61803399
0.0 0.0 -2.0
0.0 -1.05146222 -1.70130162
-0.3249197 -0.52573111 -1.90211303
-0.61803399 -1.0 -1.61803399
0.32124407 -1.40409289 -1.38756095
-0.32124407 -1.40409289 -1.38756095
0.0 -1.70130162 -1.05146222
-0.54653306 0.0 -1.92387672
-0.86777713 -0.51978383 -1.72533696
-1.05146222 0.0 -1.70130162
1.90211303 -0.3249197 0.52573111
1.90211303 0.3249197 0.52573111
1.70130162 0.0 1.05146222
1.61803399 0.61803399 1.0
1.72533696 0.86777713 0.51978383
1.38756095 0.32124407 1.40409289
1.37638192 1.17557051 0.85065081
0.85065081 1.37638192 1.17557051
1.17557051 0.85065081 1.37638192
-1.38756095 -0.32124407 -1.40409289
-1.38756095 0.32124407 -1.40409289
-1.70130162 0.0 -1.05146222
-1.61803399 -0.61803399 -1.0
-1.61803399 0.61803399 -1.0
-1.90211303 -0.3249197 -0.52573111
-1.90211303 0.3249197 -0.52573111
-2.0 0.0 0.0
-1.72533696 -0.86777713 -0.51978383
-1.92387672 -0.54653306 0.0
-1.70130162 -1.05146222 0.0
-1.72533696 0.86777713 -0.51978383
-1.92387672 0.54653306 0.0
-0.32124407 1.40409289 -1.38756095
-0.85065081 1.37638192 -1.17557051
-0.61803399 1.0 -1.61803399
-1.17557051 0.85065081 -1.37638192
-1.37638192 1.17557051 -0.85065081
-0.86777713 0.51978383 -1.72533696
-1.40409289 -1.38756095 -0.32124407
-1.40409289 -1.38756095 0.32124407
-1.05146222 -1.70130162 0.0
-1.0 -1.61803399 -0.61803399
-1.0 -1.61803399 0.61803399
-0.52573111 -1.90211303 -0.3249197
-0.52573111 -1.90211303 0.3249197
0.0 -2.0 0.0
-0.51978383 -1.72533696 -0.86777713
0.0 -1.92387672 -0.54653306
-0.51978383 -1.72533696 0.86777713
0.0 -1.92387672 0.54653306
-1.72533696 -0.86777713 0.51978383
-1.37638192 -1.17557051 0.85065081
-1.61803399 -0.61803399 1.0
-0.85065081 -1.37638192 1.17557051
-1.17557051 -0.85065081 1.37638192
-1.38756095 -0.32124407 1.40409289
-1.70130162 0.0 1.05146222
-1.90211303 0.3249197 0.52573111
-1.90211303 -0.3249197 0.52573111
-1.17557051 -0.85065081 -1.37638192
-0.85065081 -1.37638192 -1.17557051
-1.37638192 -1.17557051 -0.85065081
0.51978383 -1.72533696 -0.86777713
0.52573111 -1.90211303 -0.3249197
1.0 -1.61803399 -0.61803399
1.05146222 -1.70130162 0.0
0.52573111 -1.90211303 0.3249197
1.40409289 -1.38756095 -0.32124407
1.17557051 -0.85065081 -1.37638192
1.37638192 -1.17557051 -0.85065081
0.85065081 -1.37638192 -1.17557051
0.3249197 0.52573111 -1.90211303
-0.3249197 0.52573111 -1.90211303
0.0 1.05146222 -1.70130162
0.76722747 1.68782295 -0.75007714
1.03851698 1.68035577 -0.31286893
0.77237477 1.78201305 -0.47735386
0.7992141 1.82596499 -0.16464716
0.52573111 1.90211303 -0.3249197
0.5328094 1.92772253 0.0
0.7992141 1.82596499 0.16464716
0.5281655 1.83248835 -0.60251776
0.26331074 1.8486092 -0.71645759
0.26558495 1.93278519 -0.44023406

CELLS 338 1352
3 0 1 2
3 1 3 2
3 1 4 3
3 2 3 5
3 4 6 3
3 6 7 3
3 6 8 7
3 3 7 5
3 4 9 6
3 9 10 6
3 9 11 10
3 6 10 8
3 5 7 12
3 7 13 12
3 7 8 13
3 12 13 14
3 14 13 15
3 13 16 15
3 13 8 16
3 15 16 17
3 8 18 16
3 18 19 16
3 18 20 19
3 16 19 17
3 8 10 18
3 10 21 18
3 10 11 21
3 18 21 20
3 19 22 23
3 19 20 22
3 23 22 24
3 14 15 25
3 15 26 25
3 25 26 27
3 27 28 29
3 28 30 29
3 28 31 30
3 29 30 32
3 32 30 33
3 30 34 33
3 30 31 34
3 33 34 35
3 31 36 34
3 36 37 34
3 36 38 37
3 34 37 35
3 31 39 36
3 39 40 36
3 39 24 40
3 36 40 38
3 35 37 41
3 37 42 41
3 37 38 42
3 41 42 43
3 32 33 44
3 33 45 44
3 33 35 45
3 44 45 46
3 35 47 45
3 47 48 45
3 47 49 48
3 45 48 46
3 35 41 47
3 41 50 47
3 41 43 50
3 47 50 49
3 46 48 51
3 48 52 51
3 48 49 52
3 51 52 53
3 32 44 54
3 44 55 54
3 44 46 55
3 54 55 56
3 46 57 55
3 57 58 55
3 57 59 58
3 55 58 56
3 46 51 57
3 51 60 57
3 51 53 60
3 57 60 59
3 56 58 61
3 58 62 61
3 58 59 62
3 61 62 63
3 53 64 60
3 64 65 60
3 64 66 65
3 60 65 59
3 66 67 65
3 67 68 65
3 67 69 68
3 65 68 59
3 66 70 67
3 70 71 67
3 70 72 71
3 67 71 69
3 59 68 62
3 68 73 62
3 68 69 73
3 62 73 63
3 63 73 74
3 73 75 74
3 73 69 75
3 74 75 76
3 69 77 75
3 77 78 75
3 77 79 78
3 75 78 76
3 69 71 77
3 71 80 77
3 71 72 80
3 77 80 79
3 76 78 81
3 78 82 81
3 78 79 82
3 81 82 0
3 11 83 84
3 83 85 84
3 83 86 85
3 84 85 87
3 86 88 85
3 88 89 85
3 88 90 89
3 85 89 87
3 86 91 88
3 91 92 88
3 91 93 92
3 88 92 90
3 87 89 94
3 89 95 94
3 89 90 95
3 94 95 96
3 0 2 81
3 2 97 81
3 2 5 97
3 81 97 76
3 5 98 97
3 98 99 97
3 98 100 99
3 97 99 76
3 5 12 98
3 12 101 98
3 12 14 101
3 98 101 100
3 76 99 74
3 99 102 74
3 99 100 102
3 74 102 63
3 14 25 101
3 25 103 101
3 25 27 103
3 101 103 100
3 27 104 103
3 104 105 103
3 104 56 105
3 103 105 100
3 27 29 104
3 29 54 104
3 29 32 54
3 104 54 56
3 100 105 102
3 105 61 102
3 105 56 61
3 102 61 63
3 96 106 107
3 106 108 107
3 106 109 108
3 107 108 110
3 109 111 108
3 111 112 108
3 111 113 112
3 108 112 110
3 109 114 111
3 114 115 111
3 114 116 115
3 111 115 113
3 110 112 117
3 112 118 117
3 112 113 118
3 117 118 43
3 24 119 40
3 119 120 40
3 119 121 120
3 40 120 38
3 121 122 120
3 122 123 120
3 122 110 123
3 120 123 38
3 121 124 122
3 124 107 122
3 124 96 107
3 122 107 110
3 38 123 42
3 123 117 42
3 123 110 117
3 42 117 43
3 116 125 126
3 125 127 126
3 125 128 127
3 126 127 129
3 128 130 127
3 130 131 127
3 130 132 131
3 127 131 129
3 128 133 130
3 133 134 130
3 133 93 134
3 130 134 132
3 129 131 135
3 131 136 135
3 131 132 136
3 135 136 72
3 116 126 137
3 126 138 137
3 126 129 138
3 137 138 139
3 129 140 138
3 140 141 138
3 140 66 141
3 138 141 139
3 129 135 140
3 135 70 140
3 135 72 70
3 140 70 66
3 139 141 142
3 141 64 142
3 141 66 64
3 142 64 53
3 53 52 142
3 52 143 142
3 52 49 143
3 142 143 139
3 49 144 143
3 144 145 143
3 144 113 145
3 143 145 139
3 49 50 144
3 50 118 144
3 50 43 118
3 144 118 113
3 139 145 137
3 145 115 137
3 145 113 115
3 137 115 116
3 96 95 106
3 95 146 106
3 95 90 146
3 106 146 109
3 90 147 146
3 147 148 146
3 147 128 148
3 146 148 109
3 90 92 147
3 92 133 147
3 92 93 133
3 147 133 128
3 109 148 114
3 148 125 114
3 148 128 125
3 114 125 116
3 93 149 134
3 149 150 134
3 149 151 150
3 134 150 132
3 151 152 150
3 152 153 150
3 152 79 153
3 150 153 132
3 151 154 152
3 154 82 152
3 154 0 82
3 152 82 79
3 132 153 136
3 153 80 136
3 153 79 80
3 136 80 72
3 11 9 83
3 9 155 83
3 9 4 155
3 83 155 86
3 4 156 155
3 156 157 155
3 156 151 157
3 155 157 86
3 4 1 156
3 1 154 156
3 1 0 154
3 156 154 151
3 86 157 91
3 157 149 91
3 157 151 149
3 91 149 93
3 11 84 21
3 84 158 21
3 84 87 158
3 21 158 20
3 87 159 158
3 159 160 158
3 159 121 160
3 158 160 20
3 87 94 159
3 94 124 159
3 94 96 124
3 159 124 121
3 20 160 22
3 160 119 22
3 160 121 119
3 22 119 24
3 23 161 19
3 19 161 17
3 17 162 15
3 15 162 26
3 17 163 162
3 163 164 162
3 163 165 164
3 162 164 26
3 165 166 164
3 166 167 164
3 166 28 167
3 164 167 26
3 28 166 31
3 31 166 165
3 26 167 27
3 167 28 27
3 17 161 163
3 161 168 163
3 161 23 168
3 163 168 165
3 23 169 168
3 169 170 168
3 169 39 170
3 168 170 165
3 39 169 24
3 24 169 23
3 165 170 31
3 170 39 31

CELL_TYPES 338
5
5
5
5
5
5
5
5
5
5
5
5
5
5
5
5
5
5
5
5
5
5
5
5
5
5
5
5
5
5
5
5
5
5
5
5
5
5
5
5
5
5
5
5
5
5
5
5
5
5
5
5
5
5
5
5
5
5
5
5
5
5
5
5
5
5
5
5
5
5
5
5
5
5
5
5
5
5
5
5
5
5
5
5
5
5
5
5
5
5
5
5
5
5
5
5
5
5
5
5
5
5
5
5
5
5
5
5
5
5
5
5
5
5
5
5
5
5
5
5
5
5
5
5
5
5
5
5
5
5
5
5
5
5
5
5
5
5
5
5
5
5
5
5
5
5
5
5
5
5
5
5
5
5
5
5
5
5
5
5
5
5
5
5
5
5
5
5
5
5
5
5
5
5
5
5
5
5
5
5
5
5
5
5
5
5
5
5
5
5
5
5
5
5
5
5
5
5
5
5
5
5
5
5
5
5
5
5
5
5
5
5
5
5
5
5
5
5
5
5
5
5
5
5
5
5
5
5
5
5
5
5
5
5
5
5
5
5
5
5
5
5
5
5
5
5
5
5
5
5
5
5
5
5
5
5
5
5
5
5
5
5
5
5
5
5
5
5
5
5
5
5
5
5
5
5
5
5
5
5
5
5
5
5
5
5
5
5
5
5
5
5
5
5
5
5
5
5
5
5
5
5
5
5
5
5
5
5
5
5
5
5
5
5
5
5
5
5
5
5
5
5
5
5
5
5
5
5
5
5
5
5
5
5
5
5
5
5

CELL_DATA 338
SCALARS cell_data_0 double
LOOKUP_TABLE default
6.00252151069e-07
6.06337934609e-06
7.0201643466e-06
4.90597231312e-06
1.66791191373e-05
3.86051843663e-05
2.35235584018e-05
2.24033089088e-05
9.52551264654e-06
2.04604183903e-05
1.20557674278e-05
1.51181144999e-05
1.30111597664e-05
1.77499162997e-05
1.39886996141e-05
2.55410876964e-06
1.38477589792e-05
3.0408817234e-05
9.6997460004e-06
2.60199342065e-05
3.41002178634e-05
5.3694562571e-05
3.2623156937e-05
1.98740376095e-05
2.91191598433e-05
6.15667825972e-05
2.92844514223e-05
4.05021584665e-05
7.67729358498e-05
4.61316168531e-05
5.49784555024e-05
4.63360120021e-05
0.000137559431429
7.94249410992e-05
2.21131080894e-05
5.24995873276e-05
2.62942496957e-05
1.81839970634e-05
3.24114600722e-05
6.72744109223e-05
2.18282501785e-05
3.13116815024e-05
2.89373741195e-05
9.53872419882e-05
5.79061171816e-05
4.32047216222e-05
5.07670518295e-05
9.06515687606e-05
5.46612242053e-05
2.89913135637e-05
2.97805405132e-05
5.41009935407e-05
3.63193676949e-05
9.97535352558e-06
1.11274213215e-05
3.3210134367e-05
2.93600220536e-05
5.32806673248e-06
1.04907976355e-05
1.77053150393e-05
8.09197373261e-07
4.63873609427e-06
5.81278275575e-06
1.24744288928e-05
4.68531861656e-06
9.05818853164e-07
1.18988440282e-05
8.65064185443e-06
5.50107341061e-06
1.21434563518e-05
6.17524331398e-06
9.79556867728e-06
1.10488765253e-05
1.05403702478e-05
1.67314866554e-05
2.30721906737e-05
2.18952634948e-05
1.67021287643e-05
1.53544852112e-05
1.95224634667e-05
1.54450570834e-05
1.51020683278e-05
1.05115986848e-05
1.19838025654e-05
1.41700638284e-05
8.00129144571e-06
9.71579402126e-06
8.75769016629e-06
1.00081567372e-05
1.03260501163e-05
1.19599251909e-05
1.03573551977e-05
1.11565570584e-05
1.23232117658e-05
7.91679135058e-06
5.92185125223e-06
5.28523665887e-06
7.49490002623e-06
1.03279232452e-05
8.93107442015e-06
9.44981261823e-06
8.33178796546e-06
7.06848997894e-06
6.20010476346e-06
7.48190602013e-06
5.81654442853e-06
7.1775365454e-06
4.83559315313e-06
4.33607694172e-06
5.57979730051e-06
6.08399027649e-06
5.17656797161e-06
4.8342792672e-06
3.52913826981e-06
2.79089654882e-06
7.75595872227e-07
1.17482598161e-06
7.00459297665e-07
6.82194818194e-06
1.82951681417e-05
1.95293292378e-05
1.48340652882e-05
2.17634865978e-05
2.75091760515e-05
1.30942646752e-05
2.40204567722e-05
1.73780659615e-05
1.14629029145e-05
6.57638418793e-06
3.80390199551e-06
7.90111264061e-06
5.18830052286e-06
6.41585708347e-06
4.87728604195e-07
7.71580592993e-07
1.18169805896e-06
1.27444827946e-06
2.02076264953e-06
2.33627227025e-06
3.67648599407e-06
3.74510023645e-06
4.16089615921e-06
7.57740882083e-08
6.20003458676e-07
6.64766002876e-08
2.01750157267e-06
5.19043417735e-06
6.06436941157e-06
5.07144307463e-06
7.1736178622e-06
1.80556263644e-05
1.61526903376e-05
1.49074148441e-05
2.45662527011e-06
4.35099747157e-06
6.38227758795e-06
8.40345127625e-06
5.34816541263e-06
2.18221944404e-06
2.6653992411e-07
3.07061636643e-07
7.45529983049e-06
6.07403378009e-06
8.06984397893e-06
7.75967223622e-06
7.88862625115e-06
1.35171759192e-06
1.0173614973e-06
2.55390821337e-06
1.73328591337e-06
1.92711725637e-06
7.56901208726e-07
1.87118677649e-08
4.27217540672e-07
1.3349041836e-06
9.0041786118e-07
1.11953859259e-06
4.48142575223e-08
4.68209310522e-08
8.70157867122e-07
8.33788799272e-08
1.04311353639e-06
1.46798361585e-05
1.56318231644e-05
2.83189894013e-06
1.07652132806e-05
1.99611855452e-06
3.52357057634e-06
3.90830020006e-06
2.11696377315e-06
1.55626314068e-06
1.86656359711e-06
1.6297028608e-06
2.36265984825e-06
7.03512158106e-06
7.09679243005e-06
2.07322685592e-06
2.97131710516e-06
4.41538438704e-07
2.6850946929e-07
5.24249387424e-07
1.62694483984e-06
2.7248259704e-07
3.18588725702e-07
5.24889269872e-07
9.81702136493e-07
1.74252562429e-06
2.67062136707e-06
3.11130750165e-06
5.03701623481e-07
3.25966589606e-07
2.92929170455e-06
2.00127438811e-06
9.56394000177e-07
6.1735365649e-07
5.65174255152e-06
6.37063664859e-07
2.02941084899e-06
3.4993722636e-06
3.98032928288e-06
7.86838792939e-06
2.67728895195e-06
3.93715438276e-08
3.97944130007e-06
4.86677758867e-06
8.07492299875e-06
6.1866715217e-06
1.01952244886e-05
1.08024894598e-05
9.71781123779e-06
9.39956302576e-06
6.50424701774e-06
5.21630361007e-06
5.22725508772e-06
4.2960814398e-06
3.68245731865e-06
1.942502155e-06
4.25903147822e-06
2.46649682271e-06
6.43450143969e-07
2.68773557308e-08
7.71665411543e-07
1.88972171517e-06
2.25503906891e-07
9.39626282374e-07
4.03504913725e-07
7.35288676299e-07
7.66727370084e-07
1.24873215124e-06
3.07091883503e-06
1.35244830628e-06
7.15473955093e-07
1.00968258712e-06
3.51835901165e-06
8.99902402751e-07
1.45712204558e-06
1.56499687432e-06
2.05637071699e-06
2.12639043206e-06
5.44138352535e-07
1.51339810122e-06
4.40248883352e-07
1.49619967623e-06
1.6220155753e-06
1.25119471988e-06
9.65821698268e-07
1.92203124381e-06
2.81023094487e-08
8.04189131685e-07
7.77619779843e-07
6.6533828264e-07
1.72033421474e-06
1.58288772106e-07
1.96589534773e-06
2.19522988824e-08
3.08921471865e-07
1.62893241725e-06
1.60660168229e-06
7.9962754218e-06
7.75345286088e-06
3.69031350954e-06
7.64550266231e-06
7.52331679239e-07
1.41965056429e-07
4.44336898244e-07
2.89730501389e-06
5.80685980517e-07
4.16598742723e-07
8.76662026146e-07
1.38987521589e-07
1.04044248418e-05
6.13033272197e-06
6.46277127342e-07
6.90137387491e-06
2.04710251438e-05
1.96617743109e-05
4.02504621955e-06
1.50384777085e-05
2.03986980072e-06
3.57933670131e-07
1.0206034124e-06
5.92675775729e-07
1.91930370123e-06
7.29093770303e-07
8.74589670594e-07
1.20155560041e-06
3.08897608704e-05
3.56566791729e-05
2.22567685918e-06
3.52072128007e-05
1.13266119299e-05
3.49813340746e-06
6.65032396866e-06
3.51418003279e-05
8.55042718455e-08
1.01694327174e-10
8.43802991303e-06
1.1588271091e-05
8.63675556022e-06
3.23763404078e-08
3.71933107601e-06
1.23624705951e-05
5.70795272669e-06
1.46235609344e-05
2.04855275748e-05
5.21550229947e-06
1.60679584193e-07
1.03407983113e-07
2.69569113776e-06
7.1452991434e-06
2.64015742529e-06
1.52067101319e-09
7.3576726965e-06
7.19755893611e-06
1.52735041764e-05
5.82911248343e-06
1.22503439231e-05
1.25446502301e-05

