# vtk DataFile Version 3.0
File Name: Molecule/sphere_excent/sphere_excent_0-s6.vtk
ASCII
DATASET UNSTRUCTURED_GRID
FIELD FieldData 1
TIME 1 1 double
0.0
POINTS 197 double
1.70130162 -1.05146222 0.0
1.72533696 -0.86777713 -0.51978383
1.92387672 -0.54653306 0.0
1.90211303 -0.3249197 -0.52573111
1.61803399 -0.61803399 -1.0
2.0 0.0 0.0
1.70130162 0.0 -1.05146222
1.90211303 0.3249197 -0.52573111
1.61803399 0.61803399 -1.0
1.38756095 -0.32124407 -1.40409289
1.38756095 0.32124407 -1.40409289
1.05146222 0.0 -1.70130162
1.0 1.61803399 0.61803399
0.52573111 1.90211303 0.3249197
0.51978383 1.72533696 0.86777713
0.0 1.92387672 0.54653306
0.0 2.0 0.0
0.0 1.70130162 1.05146222
-0.51978383 1.72533696 0.86777713
-0.52573111 1.90211303 0.3249197
-1.0 1.61803399 0.61803399
-1.05146222 1.70130162 0.0
-1.40409289 1.38756095 0.32124407
-1.40409289 1.38756095 -0.32124407
-1.0 1.61803399 -0.61803399
-1.70130162 1.05146222 0.0
-0.32124407 1.40409289 1.38756095
-0.85065081 1.37638192 1.17557051
-0.61803399 1.0 1.61803399
-1.37638192 1.17557051 0.85065081
-1.17557051 0.85065081 1.37638192
-1.61803399 0.61803399 1.0
-1.72533696 0.86777713 0.51978383
-0.86777713 0.51978383 1.72533696
-1.38756095 0.32124407 1.40409289
-1.05146222 0.0 1.70130162
0.32124407 1.40409289 1.38756095
0.0 1.05146222 1.70130162
0.61803399 1.0 1.61803399
-0.3249197 0.52573111 1.90211303
0.3249197 0.52573111 1.90211303
0.0 0.0 2.0
-0.54653306 0.0 1.92387672
0.86777713 0.51978383 1.72533696
0.54653306 0.0 1.92387672
1.05146222 0.0 1.70130162
-0.86777713 -0.51978383 1.72533696
-0.3249197 -0.52573111 1.90211303
-0.61803399 -1.0 1.61803399
0.0 -1.05146222 1.70130162
0.3249197 -0.52573111 1.90211303
0.61803399 -1.0 1.61803399
-0.32124407 -1.40409289 1.38756095
0.32124407 -1.40409289 1.38756095
0.0 -1.70130162 1.05146222
0.86777713 -0.51978383 1.72533696
1.38756095 -0.32124407 1.40409289
1.17557051 -0.85065081 1.37638192
1.61803399 -0.61803399 1.0
0.85065081 -1.37638192 1.17557051
1.37638192 -1.17557051 0.85065081
1.0 -1.61803399 0.61803399
0.51978383 -1.72533696 0.86777713
1.72533696 -0.86777713 0.51978383
1.40409289 -1.38756095 0.32124407
0.86777713 -0.51978383 -1.72533696
0.54653306 0.0 -1.92387672
0.3249197 -0.52573111 -1.90211303
0.61803399 -1.0 -1.61803399
0.0 0.0 -2.0
0.0 -1.05146222 -1.70130162
-0.3249197 -0.52573111 -1.90211303
-0.61803399 -1.0 -1.61803399
0.32124407 -1.40409289 -1.38756095
-0.32124407 -1.40409289 -1.38756095
0.0 -1.70130162 -1.05146222
-0.54653306 0.0 -1.92387672
-0.86777713 -0.51978383 -1.72533696
-1.05146222 0.0 -1.70130162
1.90211303 -0.3249197 0.52573111
1.90211303 0.3249197 0.52573111
1.70130162 0.0 1.05146222
1.61803399 0.61803399 1.0
1.92387672 0.54653306 0.0
1.72533696 0.86777713 0.51978383
1.70130162 1.05146222 0.0
1.38756095 0.32124407 1.40409289
1.40409289 1.38756095 0.32124407
1.37638192 1.17557051 0.85065081
0.85065081 1.37638192 1.17557051
1.17557051 0.85065081 1.37638192
-1.38756095 -0.32124407 -1.40409289
-1.38756095 0.32124407 -1.40409289
-1.70130162 0.0 -1.05146222
-1.61803399 -0.61803399 -1.0
-1.61803399 0.61803399 -1.0
-1.90211303 -0.3249197 -0.52573111
-1.90211303 0.3249197 -0.52573111
-2.0 0.0 0.0
-1.72533696 -0.86777713 -0.51978383
-1.92387672 -0.54653306 0.0
-1.70130162 -1.05146222 0.0
-1.72533696 0.86777713 -0.51978383
-1.92387672 0.54653306 0.0
0.0 1.70130162 -1.05146222
-0.32124407 1.40409289 -1.38756095
-0.51978383 1.72533696 -0.86777713
-0.85065081 1.37638192 -1.17557051
-0.61803399 1.0 -1.61803399
-1.17557051 0.85065081 -1.37638192
-1.37638192 1.17557051 -0.85065081
-0.86777713 0.51978383 -1.72533696
-1.40409289 -1.38756095 -0.32124407
-1.40409289 -1.38756095 0.32124407
-1.05146222 -1.70130162 0.0
-1.0 -1.61803399 -0.61803399
-1.0 -1.61803399 0.61803399
-0.52573111 -1.90211303 -0.3249197
-0.52573111 -1.90211303 0.3249197
0.0 -2.0 0.0
-0.51978383 -1.72533696 -0.86777713
0.0 -1.92387672 -0.54653306
-0.51978383 -1.72533696 0.86777713
0.0 -1.92387672 0.54653306
-1.72533696 -0.86777713 0.51978383
-1.37638192 -1.17557051 0.85065081
-1.61803399 -0.61803399 1.0
-0.85065081 -1.37638192 1.17557051
-1.17557051 -0.85065081 1.37638192
-1.38756095 -0.32124407 1.40409289
-1.70130162 0.0 1.05146222
-1.90211303 0.3249197 0.52573111
-1.90211303 -0.3249197 0.52573111
-1.17557051 -0.85065081 -1.37638192
-0.85065081 -1.37638192 -1.17557051
-1.37638192 -1.17557051 -0.85065081
0.51978383 -1.72533696 -0.86777713
0.52573111 -1.90211303 -0.3249197
1.0 -1.61803399 -0.61803399
1.05146222 -1.70130162 0.0
0.52573111 -1.90211303 0.3249197
1.40409289 -1.38756095 -0.32124407
1.17557051 -0.85065081 -1.37638192
1.37638192 -1.17557051 -0.85065081
0.85065081 -1.37638192 -1.17557051
0.86777713 0.51978383 -1.72533696
0.3249197 0.52573111 -1.90211303
0.61803399 1.0 -1.61803399
-0.3249197 0.52573111 -1.90211303
0.0 1.05146222 -1.70130162
0.32124407 1.40409289 -1.38756095
0.85065081 1.37638192 -1.17557051
0.76722747 1.68782295 -0.75007714
1.0 1.61803399 -0.61803399
1.03851698 1.68035577 -0.31286893
1.40409289 1.38756095 -0.32124407
0.77237477 1.78201305 -0.47735386
0.7992141 1.82596499 -0.16464716
0.52573111 1.90211303 -0.3249197
1.05146222 1.70130162 0.0
0.5328094 1.92772253 0.0
0.7992141 1.82596499 0.16464716
0.5281655 1.83248835 -0.60251776
0.51978383 1.72533696 -0.86777713
0.26331074 1.8486092 -0.71645759
0.26558495 1.93278519 -0.44023406
0.0 1.92387672 -0.54653306
1.42256347 1.40581406 0.0
1.24047916 1.56040874 -0.1622837
1.24047916 1.56040874 0.1622837
1.2136503 1.5173046 0.47417265
1.03851698 1.68035577 0.31286893
-0.52573111 1.90211303 -0.3249197
-0.5328094 1.92772253 0.0
-0.7992141 1.82596499 -0.16464716
-0.7992141 1.82596499 0.16464716
-0.26558495 1.93278519 -0.44023406
-0.26331074 1.8486092 -0.71645759
-0.5281655 1.83248835 -0.60251776
1.17557051 0.85065081 -1.37638192
1.29315558 1.02675088 -1.12850842
1.37638192 1.17557051 -0.85065081
1.02675088 1.12850842 -1.29315558
1.12850842 1.29315558 -1.02675088
0.59200919 1.40461969 -1.29482379
0.69230603 1.56690339 -1.03224324
0.42604573 1.58529846 -1.14250332
1.93278519 0.44023406 -0.26558495
1.83248835 0.60251776 -0.5281655
1.8486092 0.71645759 -0.26331074
1.72533696 0.86777713 -0.51978383
1.58529846 1.14250332 -0.42604573
1.56690339 1.03224324 -0.69230603
1.40461969 1.29482379 -0.59200919
1.29482379 0.59200919 -1.40461969
1.14250332 0.42604573 -1.58529846
1.03224324 0.69230603 -1.56690339

CELLS 390 1560
3 0 1 2
3 1 3 2
3 1 4 3
3 2 3 5
3 4 6 3
3 6 7 3
3 6 8 7
3 3 7 5
3 4 9 6
3 9 10 6
3 9 11 10
3 6 10 8
3 12 13 14
3 13 15 14
3 13 16 15
3 14 15 17
3 17 15 18
3 15 19 18
3 15 16 19
3 18 19 20
3 20 21 22
3 21 23 22
3 21 24 23
3 22 23 25
3 17 18 26
3 18 27 26
3 18 20 27
3 26 27 28
3 20 29 27
3 29 30 27
3 29 31 30
3 27 30 28
3 20 22 29
3 22 32 29
3 22 25 32
3 29 32 31
3 28 30 33
3 30 34 33
3 30 31 34
3 33 34 35
3 17 26 36
3 26 37 36
3 26 28 37
3 36 37 38
3 28 39 37
3 39 40 37
3 39 41 40
3 37 40 38
3 28 33 39
3 33 42 39
3 33 35 42
3 39 42 41
3 38 40 43
3 40 44 43
3 40 41 44
3 43 44 45
3 35 46 42
3 46 47 42
3 46 48 47
3 42 47 41
3 48 49 47
3 49 50 47
3 49 51 50
3 47 50 41
3 48 52 49
3 52 53 49
3 52 54 53
3 49 53 51
3 41 50 44
3 50 55 44
3 50 51 55
3 44 55 45
3 45 55 56
3 55 57 56
3 55 51 57
3 56 57 58
3 51 59 57
3 59 60 57
3 59 61 60
3 57 60 58
3 51 53 59
3 53 62 59
3 53 54 62
3 59 62 61
3 58 60 63
3 60 64 63
3 60 61 64
3 63 64 0
3 11 65 66
3 65 67 66
3 65 68 67
3 66 67 69
3 68 70 67
3 70 71 67
3 70 72 71
3 67 71 69
3 68 73 70
3 73 74 70
3 73 75 74
3 70 74 72
3 69 71 76
3 71 77 76
3 71 72 77
3 76 77 78
3 0 2 63
3 2 79 63
3 2 5 79
3 63 79 58
3 5 80 79
3 80 81 79
3 80 82 81
3 79 81 58
3 5 83 80
3 83 84 80
3 83 85 84
3 80 84 82
3 58 81 56
3 81 86 56
3 81 82 86
3 56 86 45
3 85 87 84
3 87 88 84
3 84 88 82
3 12 89 88
3 89 90 88
3 89 38 90
3 88 90 82
3 12 14 89
3 14 36 89
3 14 17 36
3 89 36 38
3 82 90 86
3 90 43 86
3 90 38 43
3 86 43 45
3 78 91 92
3 91 93 92
3 91 94 93
3 92 93 95
3 94 96 93
3 96 97 93
3 96 98 97
3 93 97 95
3 94 99 96
3 99 100 96
3 99 101 100
3 96 100 98
3 95 97 102
3 97 103 102
3 97 98 103
3 102 103 25
3 104 105 106
3 105 107 106
3 105 108 107
3 106 107 24
3 108 109 107
3 109 110 107
3 109 95 110
3 107 110 24
3 108 111 109
3 111 92 109
3 111 78 92
3 109 92 95
3 24 110 23
3 110 102 23
3 110 95 102
3 23 102 25
3 101 112 113
3 112 114 113
3 112 115 114
3 113 114 116
3 115 117 114
3 117 118 114
3 117 119 118
3 114 118 116
3 115 120 117
3 120 121 117
3 120 75 121
3 117 121 119
3 116 118 122
3 118 123 122
3 118 119 123
3 122 123 54
3 101 113 124
3 113 125 124
3 113 116 125
3 124 125 126
3 116 127 125
3 127 128 125
3 127 48 128
3 125 128 126
3 116 122 127
3 122 52 127
3 122 54 52
3 127 52 48
3 126 128 129
3 128 46 129
3 128 48 46
3 129 46 35
3 35 34 129
3 34 130 129
3 34 31 130
3 129 130 126
3 31 131 130
3 131 132 130
3 131 98 132
3 130 132 126
3 31 32 131
3 32 103 131
3 32 25 103
3 131 103 98
3 126 132 124
3 132 100 124
3 132 98 100
3 124 100 101
3 78 77 91
3 77 133 91
3 77 72 133
3 91 133 94
3 72 134 133
3 134 135 133
3 134 115 135
3 133 135 94
3 72 74 134
3 74 120 134
3 74 75 120
3 134 120 115
3 94 135 99
3 135 112 99
3 135 115 112
3 99 112 101
3 75 136 121
3 136 137 121
3 136 138 137
3 121 137 119
3 138 139 137
3 139 140 137
3 139 61 140
3 137 140 119
3 138 141 139
3 141 64 139
3 141 0 64
3 139 64 61
3 119 140 123
3 140 62 123
3 140 61 62
3 123 62 54
3 11 9 65
3 9 142 65
3 9 4 142
3 65 142 68
3 4 143 142
3 143 144 142
3 143 138 144
3 142 144 68
3 4 1 143
3 1 141 143
3 1 0 141
3 143 141 138
3 68 144 73
3 144 136 73
3 144 138 136
3 73 136 75
3 11 66 145
3 66 146 145
3 66 69 146
3 145 146 147
3 69 148 146
3 148 149 146
3 148 108 149
3 146 149 147
3 69 76 148
3 76 111 148
3 76 78 111
3 148 111 108
3 147 149 150
3 149 105 150
3 149 108 105
3 150 105 104
3 151 152 153
3 153 154 155
3 153 156 154
3 156 157 154
3 156 158 157
3 154 157 159
3 158 160 157
3 160 161 157
3 160 13 161
3 157 161 159
3 13 160 16
3 16 160 158
3 161 13 12
3 153 152 156
3 152 162 156
3 152 163 162
3 156 162 158
3 163 164 162
3 164 165 162
3 164 166 165
3 162 165 158
3 166 164 104
3 104 164 163
3 158 165 16
3 165 166 16
3 155 167 85
3 85 167 87
3 155 168 167
3 168 169 167
3 168 159 169
3 167 169 87
3 87 169 170
3 169 171 170
3 169 159 171
3 170 171 12
3 172 173 16
3 16 173 19
3 172 174 173
3 174 175 173
3 174 21 175
3 173 175 19
3 21 174 24
3 24 174 172
3 19 175 20
3 175 21 20
3 166 176 16
3 16 176 172
3 166 177 176
3 177 178 176
3 177 106 178
3 176 178 172
3 106 177 104
3 104 177 166
3 172 178 24
3 178 106 24
3 87 170 88
3 170 12 88
3 159 168 154
3 154 168 155
3 12 171 161
3 161 171 159
3 179 180 8
3 8 180 181
3 179 182 180
3 182 183 180
3 182 151 183
3 180 183 181
3 151 182 147
3 147 182 179
3 181 183 153
3 183 151 153
3 151 184 185
3 184 186 185
3 184 150 186
3 185 186 163
3 150 184 147
3 147 184 151
3 163 186 104
3 186 150 104
3 151 185 152
3 152 185 163
3 7 187 5
3 5 187 83
3 7 188 187
3 188 189 187
3 188 190 189
3 187 189 83
3 190 188 8
3 8 188 7
3 83 189 85
3 189 190 85
3 190 191 85
3 85 191 155
3 190 192 191
3 192 193 191
3 192 181 193
3 191 193 155
3 181 192 8
3 8 192 190
3 155 193 153
3 193 181 153
3 10 194 8
3 8 194 179
3 10 195 194
3 195 196 194
3 195 145 196
3 194 196 179
3 145 195 11
3 11 195 10
3 179 196 147
3 196 145 147

CELL_TYPES 390
5
5
5
5
5
5
5
5
5
5
5
5
5
5
5
5
5
5
5
5
5
5
5
5
5
5
5
5
5
5
5
5
5
5
5
5
5
5
5
5
5
5
5
5
5
5
5
5
5
5
5
5
5
5
5
5
5
5
5
5
5
5
5
5
5
5
5
5
5
5
5
5
5
5
5
5
5
5
5
5
5
5
5
5
5
5
5
5
5
5
5
5
5
5
5
5
5
5
5
5
5
5
5
5
5
5
5
5
5
5
5
5
5
5
5
5
5
5
5
5
5
5
5
5
5
5
5
5
5
5
5
5
5
5
5
5
5
5
5
5
5
5
5
5
5
5
5
5
5
5
5
5
5
5
5
5
5
5
5
5
5
5
5
5
5
5
5
5
5
5
5
5
5
5
5
5
5
5
5
5
5
5
5
5
5
5
5
5
5
5
5
5
5
5
5
5
5
5
5
5
5
5
5
5
5
5
5
5
5
5
5
5
5
5
5
5
5
5
5
5
5
5
5
5
5
5
5
5
5
5
5
5
5
5
5
5
5
5
5
5
5
5
5
5
5
5
5
5
5
5
5
5
5
5
5
5
5
5
5
5
5
5
5
5
5
5
5
5
5
5
5
5
5
5
5
5
5
5
5
5
5
5
5
5
5
5
5
5
5
5
5
5
5
5
5
5
5
5
5
5
5
5
5
5
5
5
5
5
5
5
5
5
5
5
5
5
5
5
5
5
5
5
5
5
5
5
5
5
5
5
5
5
5
5
5
5
5
5
5
5
5
5
5
5
5
5
5
5
5
5
5
5
5
5
5
5
5
5
5
5
5
5
5
5
5
5
5
5
5
5
5
5
5
5
5
5
5
5
5
5
5
5
5
5
5
5
5
5
5
5

CELL_DATA 390
SCALARS cell_data_0 double
LOOKUP_TABLE default
4.88605612022e-05
0.000125098234412
8.92668708629e-05
5.67541803643e-05
7.77140402867e-05
0.000120127297358
5.44462387788e-05
7.01046344601e-05
6.57550090322e-05
9.53731944022e-05
5.5655976427e-05
4.16439028308e-05
1.1023625439e-06
6.25056373131e-07
1.84230870643e-06
2.86578486974e-06
3.29852685396e-06
2.66680520463e-06
3.52217223386e-07
2.62864276126e-06
1.82137725055e-06
1.56648209326e-06
2.3620092597e-07
1.47799192938e-06
4.11361156254e-06
4.17296687997e-06
3.61510187054e-06
6.14893360208e-06
4.35561128818e-06
5.35422328665e-06
5.51076990655e-06
7.63250070695e-06
2.57288750237e-06
2.50902035245e-06
1.88839268468e-06
3.22833211941e-06
7.7408700869e-06
6.15517533609e-06
5.58808713475e-06
7.68271877838e-06
5.96624935251e-06
9.24308335808e-06
9.28620247524e-06
1.0201756436e-05
1.87687459374e-05
2.62597743527e-05
2.93672888676e-05
1.80601570833e-05
1.41395620681e-05
1.76600488079e-05
1.14694323424e-05
2.10843403701e-05
1.5020952266e-05
1.95731949038e-05
2.05563836457e-05
1.31013586324e-05
1.7620106557e-05
2.18849458841e-05
1.67643150762e-05
1.73155503723e-05
1.75604880002e-05
2.61114778377e-05
2.11089253649e-05
2.74879972618e-05
1.12640335629e-05
1.03297384868e-05
6.29565223931e-06
1.15239499032e-05
2.21767008033e-05
1.87176292988e-05
1.77137899805e-05
1.04595453203e-05
7.12541706289e-06
6.64576846455e-06
1.12125540307e-05
6.34642728318e-06
9.79761495127e-06
5.80639954716e-06
3.88468739344e-07
5.52951519748e-06
8.14129710577e-06
4.72582456869e-06
4.61170606799e-06
2.74189058583e-07
1.78529807968e-06
2.40644209401e-06
2.96982120415e-06
1.65357073436e-06
2.54697251912e-06
2.72722035342e-06
4.77596715824e-06
9.83571194959e-06
5.64033313149e-06
2.11542855201e-06
5.93280486251e-06
9.84504064083e-06
3.78766600956e-06
1.02473933411e-06
3.92869856397e-07
4.86892439431e-06
7.57635179226e-06
4.46916934413e-07
3.50048229259e-06
3.83038238309e-07
8.59332104174e-06
7.91908585442e-06
9.84108284989e-06
1.4762188851e-06
2.12373102855e-06
3.60339504595e-06
4.28221391933e-06
3.95938916429e-06
1.00052805125e-05
7.47470929057e-06
8.25652882158e-06
2.56401132455e-06
5.37105673094e-06
6.01432446136e-06
5.25854450718e-06
7.61891961665e-06
2.07121746224e-07
9.06576633601e-07
2.81111778226e-06
3.51647853331e-06
6.50603137356e-06
8.8854340929e-06
5.31414509503e-06
2.4558220319e-06
5.36896156918e-06
4.73728882133e-06
7.30457046311e-06
6.05497782843e-06
9.89920965937e-06
1.03665346226e-05
1.02470273029e-05
2.01864215495e-06
2.79865247252e-06
1.75337636501e-05
1.0205573061e-05
1.82072475129e-05
5.10419543833e-07
1.30426175514e-05
8.93069860897e-06
1.83128408735e-05
2.82177712798e-06
1.84277160163e-06
1.28102822841e-05
8.36165339564e-06
3.02436832807e-06
1.49821085234e-05
1.76786515894e-06
3.3045020542e-06
8.31796892468e-06
2.13373191955e-05
5.49778629144e-06
3.25368398306e-05
3.33680792174e-05
3.65618389545e-05
2.00654104327e-05
2.64504122608e-05
1.67414501675e-05
5.91000414259e-06
2.03361217462e-05
7.13376651166e-06
6.93996327676e-06
1.95814489071e-05
3.58244825293e-07
4.50004111103e-07
4.83311695771e-07
1.33248653163e-05
6.32259524753e-06
1.16521849481e-05
1.75492541377e-06
2.40182858833e-05
4.67722490461e-06
1.17505807391e-05
2.37064423835e-07
3.65152186479e-07
2.38856112378e-05
2.48667726277e-06
2.55779834185e-06
1.97738050851e-05
3.21724786123e-06
7.45244590587e-07
1.51312393233e-06
5.12824012158e-06
1.47246087115e-05
4.49825484537e-07
5.8663294852e-06
7.70374162629e-06
7.08644452051e-06
5.82140013429e-07
5.19203649289e-06
3.90777463602e-06
8.13374079593e-06
4.01131353747e-07
1.04756914806e-05
1.14465203159e-05
1.22083204034e-05
6.95789067394e-06
4.86914329303e-06
4.83755443366e-06
2.25073610846e-06
4.25374064684e-06
3.43911317667e-06
5.50115211013e-06
8.96119618307e-06
2.88511416944e-06
1.63164827784e-06
9.21641735232e-07
1.07602430558e-05
1.43936408497e-05
1.08740013319e-06
9.58498342401e-06
3.58672208139e-07
6.67770957648e-07
3.38419344206e-07
2.81764230964e-06
1.49781611111e-05
3.00103350994e-06
4.54824987046e-07
1.40112043086e-05
1.52132522745e-05
3.08724188639e-06
2.79184723712e-08
4.00597649276e-07
1.23958169859e-05
1.81336644477e-05
3.04395501584e-06
1.48140043431e-05
2.13238763805e-06
2.48943122556e-07
2.08994548863e-07
3.9461739216e-05
2.45663895612e-05
4.52682991717e-05
1.30548748211e-06
6.1649261649e-06
2.60331746615e-05
3.94251102762e-05
9.87834267182e-07
1.17455662652e-06
5.03132601433e-06
2.08305282941e-05
2.42618849596e-06
3.120583412e-06
3.21944214593e-06
3.38161327214e-05
3.49691810447e-05
3.56937245802e-05
4.49877427732e-06
3.05740608124e-06
1.50032486137e-06
5.4610749448e-05
4.46169452131e-06
3.5487498108e-05
3.07716591191e-05
2.41417931713e-05
4.35191035367e-05
3.12362811778e-06
2.74913822609e-07
4.31470661658e-05
1.1702277929e-07
1.90462962637e-05
2.14926581315e-05
1.07818622275e-05
2.04553903791e-05
1.26946254001e-05
4.16697589095e-06
1.26302754403e-05
3.96345908828e-06
8.96623832535e-06
5.64631885837e-06
4.16417609401e-06
1.5536263679e-05
1.03990303244e-05
1.52391581252e-05
1.48933571947e-05
1.34608322714e-05
2.65047701699e-06
5.71754621054e-06
2.12020587373e-07
1.52503179077e-07
4.14682598636e-07
6.84864817297e-07
3.50167210887e-07
2.02870802075e-07
1.21084826894e-08
8.01851253691e-07
9.66803132686e-07
1.93087706736e-06
1.0094435055e-06
2.82985678554e-07
5.14769202435e-08
1.70971365725e-06
5.04326559802e-07
2.11593515723e-06
5.1517709292e-07
1.12436615907e-06
9.12551767345e-07
1.94554085798e-06
4.39516766553e-06
2.69830023301e-06
2.85350142809e-06
4.34178816477e-06
5.92305087985e-07
2.64809753806e-06
1.54833605007e-08
7.0746187437e-07
4.97017451715e-07
1.62733129966e-07
2.30868030338e-07
6.63828565978e-07
9.05976605977e-08
1.74076449272e-07
1.9369343121e-07
2.91175520284e-07
3.04585577711e-07
3.71475949665e-07
4.50766346045e-07
3.14951071677e-08
1.18986900317e-07
1.06433309266e-06
8.66580911717e-07
1.69358875547e-06
9.69806585841e-08
3.14777921259e-07
1.36669130993e-07
1.18014772857e-07
2.06579002828e-07
3.94714802718e-08
1.27688068519e-06
2.08181290546e-07
3.62747284302e-07
2.89640739485e-07
4.81326863913e-07
6.14185360517e-07
2.15534561633e-06
2.66419462414e-07
7.92802749407e-07
6.1714685514e-06
5.84486855715e-06
1.96488313389e-06
1.56112470531e-08
9.85941708124e-07
1.70506823764e-06
2.85206713569e-06
4.91540246506e-06
4.6739552099e-06
2.93139478916e-06
8.37149264314e-07
1.0720062384e-07
1.89765957453e-06
1.78626547225e-06
4.11181117108e-06
2.38165083578e-06
4.13610913116e-06
4.22278079882e-06
8.07120424824e-07
1.52659437486e-06
7.00395034447e-06
6.22886205098e-06
3.49950407404e-06
3.70872319098e-08
6.99276868011e-06
2.91358906391e-06
1.74908789356e-05
9.86061756628e-06
4.93300979362e-06
1.17379814449e-05
1.20173862287e-05
3.96963460855e-06
6.96005787476e-06
1.53456899828e-09
1.51445433763e-06
2.47124513576e-06
5.01576610978e-06
1.70799542842e-05
6.09727265648e-06
4.0819985704e-06
7.88155138783e-06
5.21965957972e-06
2.75169255998e-06
1.00421000697e-09
3.84457912825e-06
1.58230080407e-06
8.06176479288e-06
5.89410162977e-06
3.98110112202e-06
8.70834454505e-06

