# vtk DataFile Version 3.0
File Name: Molecule/sphere_excent/sphere_excent_0-s41.vtk
ASCII
DATASET UNSTRUCTURED_GRID
FIELD FieldData 1
TIME 1 1 double
0.0
POINTS 601 double
0.34555149078 -0.65455549955 0.67241221666
0.098129235208 -0.84477084875 0.52449482679
0.46871113777 -0.81130492687 0.34579905868
0.82235819101 -0.53793597221 0.18055482209
0.63850909472 -0.53511375189 0.55194956064
0.67392772436 -0.72498124838 0.13669882715
0.47270932794 0.70402741432 0.52987647057
0.43445891142 0.54932630062 0.71371364594
0.65375518799 0.4133540988 0.63321095705
-0.32748422027 0.83280980587 0.44620007277
-0.30938765407 0.92502164841 0.22018958628
-0.50223493576 0.81923615932 0.27660617232
0.080756045878 0.94693690538 -0.30962508917
0.26251468062 0.95036566257 -0.16617615521
0.35213834047 0.88166290522 -0.31405836344
0.26713901758 0.90965408087 0.31694614887
0.23483484983 0.77086544037 0.59207803011
0.68920856714 -0.62291294336 -0.36907947063
0.57057011127 -0.6486504674 -0.50361949205
0.67696118355 -0.50244390965 -0.53781157732
0.67907351255 0.61577785015 0.39926162362
-0.51549375057 0.80438518524 -0.29496711493
-0.67845976353 0.72145313025 -0.1383921802
-0.55525237322 0.83051425219 -0.020387753844
-0.47464162111 -0.34146663547 -0.81126362085
-0.53796875477 -0.4760119319 -0.69575625658
-0.62220883369 -0.33955299854 -0.70538270473
0.44461679459 0.88147103786 -0.15952131152
0.55594813824 0.78077679873 -0.28476753831
-0.91176629066 0.13989803195 0.38513052464
-0.86918342113 0.38655486703 0.30836132169
-0.95385056734 0.28440418839 0.094949051738
0.50827544928 0.32360747457 0.79779928923
-0.025362530723 0.37045052648 0.92847681046
0.17334716022 0.37133863568 0.91210919619
0.033413678408 0.53628313541 0.84340399504
0.21641653776 0.58611446619 0.78079938889
0.34610787034 0.41175967455 0.84303879738
0.37741541862 0.19054092467 0.90603899956
0.62513548136 0.15626238286 0.76434671879
0.19471813738 0.1589063704 0.96782511473
0.29972860217 -0.012981230393 0.95390832424
0.10151030868 0.020960062742 0.99460399151
0.51524156332 -0.053665623069 0.85518413782
0.38654366136 -0.45837318897 -0.80028438568
0.52592158318 -0.53037518263 -0.66484886408
0.36490774155 -0.5936164856 -0.71725976467
0.86396896839 0.098832502961 -0.49372246861
0.78494626284 0.16877517104 -0.59613054991
0.84433096647 0.25023299456 -0.47378084064
0.80695849657 0.018422700465 -0.59030991793
0.72432017326 0.055880106986 -0.68718487024
0.72828918695 -0.089639544487 -0.67934495211
0.6843791604 0.16496005654 -0.71022212505
0.88388025761 -0.077446699142 -0.46084305644
0.620870471 0.089225143194 -0.77883690596
0.64955407381 -0.022204689682 -0.75998240709
0.52956014872 -0.019683582708 -0.8480451107
0.60707724094 -0.13852161169 -0.78246593475
0.15876674652 -0.7434220314 -0.64970386028
0.00082829024177 -0.79157477617 -0.61102825403
0.077566847205 -0.68398708105 -0.72536748648
-0.03992748633 -0.69229233265 -0.72047752142
-0.12021077424 -0.74392849207 -0.65734523535
0.11801228672 -0.58770143986 -0.80043148994
-0.0027403431013 -0.60595327616 -0.79549920559
-0.1140479967 -0.87475889921 -0.47092106938
-0.27535000443 -0.91135853529 -0.30614891648
-0.27032226324 -0.83467668295 -0.47980338335
-0.069963060319 -0.93528324366 -0.3468503356
-0.46575546265 -0.77809643745 -0.42140465975
-0.48422220349 -0.84838277102 -0.21334211528
-0.10727390647 -0.61559069157 -0.7807226181
-0.10526527464 -0.53710889816 -0.83689755201
0.29526364803 -0.70247322321 -0.64757210016
0.21364994347 -0.64707618952 -0.73187446594
0.034989669919 -0.88394892216 -0.46631211042
-0.81297284365 0.20228092372 -0.54606300592
-0.77365154028 0.35623863339 -0.52398115396
-0.70632058382 0.30202999711 -0.64021879435
-0.67641437054 0.43400835991 -0.59507000446
-0.40213495493 0.15798842907 -0.90171986818
-0.49034723639 0.11033897102 -0.86436766386
-0.49136275053 0.19389991462 -0.84909468889
0.52521157265 -0.3610561192 0.77025640011
0.69163477421 -0.26309415698 0.67243462801
0.85454326868 -0.30883648992 0.41768079996
-0.62216085196 -0.1330152452 0.77125740051
-0.63252443075 0.092696599662 0.76899075508
-0.78016376495 -0.0077354717068 0.62546640635
-0.74405539036 0.19629476964 0.63834244013
0.9197550416 0.12188279629 0.37307408452
0.88063746691 -0.0098336273804 0.47341662645
0.95816999674 -0.081129364669 0.27429011464
0.36178186536 -0.39620602131 0.84379595518
0.38658747077 -0.21019652486 0.89796191454
-0.22103735805 -0.46070066094 -0.85953778028
-0.37835755944 -0.50581485033 -0.77523285151
-0.33283177018 -0.38942998648 -0.85881882906
0.24685676396 -0.18596485257 0.95103782415
0.10073966533 -0.22557020187 -0.96897906065
0.09824347496 -0.372936517 -0.9226347208
-0.014888418838 -0.2902764082 -0.95624691248
-0.025825195014 -0.39367085695 -0.9188196063
-0.10581752658 -0.44770362973 -0.88787525892
-0.093834258616 -0.32982617617 -0.93915718794
0.016277819872 -0.49908000231 -0.8663957119
-0.17322546244 -0.36860343814 -0.91299760342
-0.21545208991 -0.5555986762 -0.80303549767
-0.27528989315 -0.61551725864 -0.73846155405
0.92844361067 0.046877745539 -0.3684220612
0.83541858196 0.48216876388 0.26376637816
0.90227425098 0.42361459136 0.080031387508
0.81082701683 0.57405287027 0.11402509362
0.97933489084 0.047118913382 -0.19638438523
0.94633293152 0.15644907951 -0.28278136253
0.97048050165 0.18857818842 -0.15033075213
0.9332947731 0.26889881492 -0.23803019524
0.89913964272 0.25936830044 -0.35252085328
0.9404463172 0.31109213829 -0.1370357275
0.89118748903 0.34236180782 -0.29760563374
0.89969289303 0.3876824975 -0.20065818727
0.85363030434 0.4285004735 -0.29611966014
0.84794735909 0.35712912679 -0.3916952014
0.90446698666 0.42003196478 -0.074231624603
0.84910392761 0.49500018358 -0.18432617188
0.83394038677 0.55060130358 -0.03687023744
0.90235453844 0.16261070967 -0.39916312695
0.99233347178 0.12066726387 -0.025818794966
0.95894193649 0.2822971344 -0.026078604162
0.97085869312 0.21634317935 0.10273616016
-0.27453613281 -0.29715955257 -0.91435754299
-0.37937378883 -0.24709041417 -0.89158475399
-0.47115588188 0.62010043859 -0.62724983692
-0.35306319594 0.66461628675 -0.65847885609
-0.38509079814 0.57730650902 -0.72000354528
-0.26699587703 0.61241084337 -0.74405699968
-0.23665630817 0.70836377144 -0.66398394108
-0.5189319253 0.68646430969 -0.5091355443
-0.63729077578 0.63226211071 -0.440461725
-0.59417575598 0.56397813559 -0.57350122929
-0.57976770401 -0.22434583306 -0.78324127197
-0.47534164786 -0.15891291201 -0.86528205872
-0.58846598864 0.045327715576 -0.80720472336
-0.69056791067 -0.034667775035 -0.72238457203
-0.66872560978 0.09815428406 -0.73701679707
-0.75928843021 0.056106317788 -0.64831221104
-0.79264557362 -0.099760711193 -0.60149258375
-0.57499849796 0.14455884695 -0.80523180962
-0.16910411417 -0.13577057421 -0.97619694471
-0.1117002815 -0.04662777856 -0.99264800549
-0.045169290155 -0.13036903739 -0.98977488279
0.0067444480956 -0.0033004372381 -0.99990326166
-0.26578006148 -0.20168296993 -0.94268250465
-0.34396860003 -0.14496442676 -0.92759650946
-0.16760721803 -0.23150222003 -0.95794075727
-0.19184555113 0.55296891928 -0.81080549955
-0.30728062987 0.5117123723 -0.80230861902
-0.27600848675 0.40777382255 -0.87034130096
-0.36384120584 0.42795088887 -0.82734268904
-0.071085475385 0.55188518763 -0.83086568117
-0.13428786397 0.62914079428 -0.76508849859
-0.32708975673 0.083660192788 -0.94127827883
-0.24173629284 0.16257788241 -0.95656049252
-0.22641217709 0.063502572477 -0.97182917595
-0.4330470562 0.058956466615 -0.89936023951
-0.39052823186 -0.58992630243 0.70668756962
-0.303668648 -0.47783043981 0.82427209616
-0.47904932499 -0.40969726443 0.77613216639
-0.60387170315 -0.46164792776 0.6493703723
-0.41801583767 -0.11929993331 0.90048587322
-0.24834036827 -0.15643167496 0.95592445135
-0.32989826798 -0.0028586289845 0.94388341904
0.032724767923 -0.12758043408 0.9912776947
0.1570289433 -0.10787029564 0.98168426752
0.11627710611 -0.25676998496 0.95943903923
-0.019661020488 -0.24030590057 0.97047996521
-0.0081677548587 -0.38043650985 0.92471116781
0.13500577211 -0.40098744631 0.90609139204
0.086147539318 -0.56188368797 0.82255554199
0.24978752434 -0.32228028774 0.91311514378
-0.13147611916 -0.28854644299 0.9483602643
-0.13601048291 -0.47841054201 0.86753040552
-0.25467762351 -0.34168326855 0.90463781357
-0.19919505715 -0.61033177376 0.76652848721
-0.21796026826 0.38315585256 0.89760357141
-0.15136198699 0.25468811393 0.95511710644
-0.49683436751 0.018255911767 0.86763560772
-0.4723123014 0.19502659142 0.85937076807
-0.33999058604 0.13785167038 0.92985928059
-0.30798831582 0.26520684361 0.91361522675
-0.4243426919 0.38787141442 0.81815701723
-0.20930606127 0.12286815792 0.97007215023
-0.064748898149 0.1056465432 0.99227309227
-0.17576111853 -0.01729625836 0.98427420855
-0.040874313563 -0.027475740761 0.99879515171
-0.10452325642 -0.14229518175 0.98428094387
-0.59844869375 0.29218280315 0.74593865871
0.23133949935 -0.48537120223 0.84311461449
0.42323800921 0.072156734765 -0.90313595533
0.52565670013 0.11386270076 -0.84305298328
0.14294667542 -0.48856064677 -0.86074018478
0.25494593382 -0.53972768784 -0.80230021477
0.24267214537 -0.42487838864 -0.87210315466
0.58981156349 0.20606763661 -0.78080499172
0.43653184175 -0.6675067544 -0.60317128897
-0.13104255497 -0.67768931389 -0.72356957197
-0.14327533543 -0.80835658312 -0.57102882862
0.36371845007 0.49834337831 -0.78698080778
0.36810493469 0.37232011557 -0.8519538641
0.2865922153 0.44512239099 -0.84830987453
0.26005592942 0.33267477155 -0.90646541119
-0.23303064704 -0.75873428583 -0.60827863216
-0.20722150803 -0.69251984358 -0.69096285105
-0.29478549957 -0.68986797333 -0.66117423773
-0.34389540553 -0.75171732903 -0.56266891956
-0.38169848919 -0.67399156094 -0.63247925043
-0.36107519269 -0.61568588018 -0.7004044652
-0.45931312442 -0.59430301189 -0.66021603346
-0.45416346192 -0.69108635187 -0.56227368116
-0.1901537627 -0.63083219528 -0.75225353241
-0.62317371368 0.5721719861 0.53311562538
-0.5607458353 0.47075200081 0.68114894629
-0.39373037219 0.63627940416 0.66342222691
[...]
CELL_DATA 1198
SCALARS cell_data_0 double
LOOKUP_TABLE default
1.47473308258e-05
7.57973508589e-06
9.29400075959e-06
2.54972416584e-05
3.23076542441e-06
8.10020919768e-06
1.87316916844e-05
6.31731253543e-06
3.90263335098e-07
2.10800861261e-06
1.15369739317e-05
8.06215073797e-06
3.13775776948e-06
1.28786759542e-05
1.17758101501e-05
1.05066219366e-05
8.48794547348e-06
8.99647441734e-06
1.2250578671e-05
8.75964449243e-06
1.3967925848e-05
1.28816894989e-05
1.14840476382e-05
2.3166462782e-05
1.49540407747e-06
2.89373391696e-07
2.52890516937e-07
7.77610344925e-07
3.48832399897e-07
6.36669702904e-07
1.11355607549e-07
4.58314383762e-07
8.66406370791e-07
6.1009792134e-07
4.61247129387e-06
5.3002988814e-07
8.75585844144e-08
1.75115847137e-08
6.51771932067e-08
2.4933964077e-08
7.79554765062e-06
4.50450302044e-07
1.3180530753e-05
9.89155263206e-08
2.34603072593e-07
4.00672211678e-08
2.49222942628e-07
2.97375920802e-07
1.84498563683e-07
1.10637240436e-05
1.50901484004e-07
6.53055442853e-08
1.77647512986e-05
7.56795630527e-06
1.25849064437e-05
9.99366457612e-06
1.00482572637e-05
1.32163577073e-05
8.59126239472e-06
4.84482426148e-06
7.13166000979e-06
1.73362475991e-06
6.45808054692e-06
9.35442785675e-06
1.66422908248e-05
8.00760332269e-06
2.25507113309e-05
1.26990931583e-05
1.18390979062e-05
1.79806849887e-05
1.16995469669e-05
1.22152557919e-08
3.25998417963e-08
1.961469293e-07
1.78725275476e-07
1.21620594864e-07
1.26909657895e-07
1.51608301922e-07
4.38052037463e-07
3.65522496215e-07
1.8068741187e-07
2.53997705047e-07
4.27213947081e-08
3.33760713349e-07
1.56982633892e-06
1.10604816653e-05
1.445586079e-05
6.60699691123e-06
4.86149369874e-06
6.89393198831e-06
2.24807580543e-05
2.42433582918e-05
1.05539754428e-05
4.50029857225e-06
2.1516647013e-05
3.54341765683e-05
2.43208757502e-05
2.6393918577e-05
1.14157954942e-05
1.37140746975e-05
1.19503237034e-05
2.19127097214e-05
1.93564266283e-05
4.36922138231e-06
2.91182717442e-06
2.41918239476e-05
1.76050591036e-05
1.24705477302e-05
1.49750525989e-05
3.95856707724e-05
2.68312180691e-05
1.6873258297e-05
2.50721635923e-05
2.24940983456e-05
9.30607911688e-06
5.60481968623e-06
8.75944599905e-06
1.36367611878e-05
2.39600562764e-05
3.66067705429e-05
1.8176404584e-05
1.9914031615e-08
1.74492406646e-06
6.0901990473e-08
1.08135473321e-06
8.4706101039e-06
1.24545984108e-05
7.38070494011e-08
9.54046110705e-06
2.06949299499e-08
9.08239987582e-09
6.85271479915e-06
1.95976211979e-05
5.17569776309e-06
3.41558771816e-06
6.02019145282e-08
5.22055802925e-06
1.12018699925e-05
5.43922182795e-08
2.45715884004e-08
9.46640559741e-06
8.9499594591e-06
1.11433899413e-05
4.79257111343e-06
4.80966862449e-06
4.35488473722e-06
7.48842978234e-06
5.04368696769e-06
9.5292352601e-06
1.35042788554e-05
1.08073142942e-05
8.20574038537e-06
1.45362727237e-05
1.37001673089e-05
1.60024420234e-05
9.44344859925e-06
1.17157706911e-05
8.3635558887e-06
1.22697200902e-05
9.33743218423e-06
6.98778014642e-06
1.09518264818e-05
5.75720924896e-06
5.46300671186e-06
6.76453983816e-06
8.85576731659e-06
1.0275426326e-05
5.31356355282e-06
1.14818078028e-05
8.1971510547e-06
1.1136973515e-05
9.15561719054e-06
1.19375546208e-05
7.51899563913e-06
7.91039876057e-06
7.78361443444e-06
9.60678252396e-06
5.21968824318e-06
4.3891844304e-06
5.49728377406e-06
4.17293380558e-06
8.0196998605e-06
1.13109255858e-05
6.59728533993e-06
1.13270338692e-05
5.84338586334e-06
7.21824972111e-06
9.23226353193e-06
8.22281612691e-06
1.06983938352e-05
9.88233631183e-06
1.11846051985e-05
9.37591247922e-06
5.92596514232e-06
9.34706675252e-06
9.51103092397e-06
1.07408083268e-05
4.45139250802e-06
4.82080265842e-07
5.6039263146e-07
8.16552454495e-07
1.38314671911e-06
2.15772119973e-07
6.5767015438e-07
1.26047773697e-06
4.06997696268e-08
3.07976563643e-07
1.99033582695e-08
7.22606160034e-07
4.73581647604e-08
2.02432535206e-08
8.10942696743e-07
4.37454208926e-07
5.17036967751e-08
8.59343432223e-08
1.05216111359e-07
1.13857053223e-07
1.10704742262e-05
1.16818281915e-05
1.02830143938e-07
8.08085303118e-08
1.07909759549e-07
5.89654770495e-08
2.04736394122e-06
4.18225976937e-06
4.89151423987e-06
1.42240146423e-06
2.91723272676e-06
2.8284521406e-06
3.22915299647e-06
6.43928561959e-06
9.64805917726e-06
4.74875461255e-06
3.92435250412e-06
3.96542673004e-06
1.17407824728e-07
5.95840605242e-08
2.16896992638e-06
2.74603320758e-06
2.44857036382e-06
3.27075524483e-06
2.86337030002e-06
7.44472807305e-06
9.19331102067e-06
3.77556273865e-06
2.23459055275e-05
1.72992332952e-05
3.27402040316e-07
4.84726019461e-08
8.95620678016e-08
1.02552519721e-07
7.1008204025e-08
5.31114980813e-06
6.41762734165e-06
3.83585624856e-06
4.12042823129e-06
4.78246349154e-06
4.48064979786e-06
8.20619401143e-06
1.3282751426e-05
1.13729607648e-05
6.61733563347e-06
4.8243092577e-06
7.16855214181e-06
5.9881696601e-06
5.12668905937e-06
6.4805949542e-06
6.39849656382e-06
6.12821986431e-06
5.71393829374e-08
5.87920050407e-08
9.65858978386e-08
6.60278649252e-08
4.49834434087e-08
4.76520671774e-08
7.83222556053e-09
3.41307902556e-08
2.103745826e-08
3.36570026695e-08
2.23345491924e-08
2.93689550854e-09
3.38878211232e-08
8.8835219116e-09
1.70243505339e-08
3.68708607499e-09
2.40394931578e-08
7.02571374046e-09
1.84519136525e-09
4.94910339492e-09
1.13770202575e-08
5.28199874486e-09
2.82571924161e-08
2.44202506654e-08
3.45284639396e-08
2.1654068081e-08
3.45893696734e-08
1.81584707999e-08
6.90124701528e-08
2.62915478433e-08
2.24401013793e-08
2.33111198581e-08
6.21213212095e-08
7.22923494145e-06
7.47477257345e-06
8.31723572716e-06
8.99716277382e-06
2.54435355097e-05
1.4141139788e-05
4.10766120005e-07
1.2135700218e-06
8.22430453739e-08
1.28097565949e-07
8.48856275311e-08
1.25736882658e-07
1.56043127656e-07
3.9872680495e-06
7.36991817942e-06
5.93919152752e-06
8.46436675663e-06
8.64875635617e-06
9.00872885284e-06
8.12111091861e-06
8.60699031586e-06
1.06357707001e-05
7.51125575052e-06
5.12277311196e-06
4.72542199259e-06
6.21856953058e-06
6.96363848947e-06
8.7301043615e-06
1.61947729784e-05
7.57394112521e-06
7.13262740194e-06
9.40501865484e-06
1.01429454533e-05
8.83533633298e-07
1.16838507592e-07
2.18811532289e-09
2.69271607849e-08
1.10363914988e-07
3.28985082025e-07
6.76711572627e-08
1.12539989692e-07
1.94867915722e-07
2.41335495797e-07
1.67146509257e-07
1.37019222106e-07
9.75005856094e-08
1.27962520456e-06
1.02989147793e-05
1.07761476391e-05
6.33166097272e-06
3.94308892093e-07
1.59014806578e-07
1.93534245764e-07
1.49174269532e-07
1.20159921342e-07
9.79031394933e-07
3.96634685117e-07
3.63256609719e-07
1.82601481072e-07
5.65544432245e-07
2.25286668519e-07
2.50823479934e-07
1.64662149953e-07
2.66540722542e-07
4.98751968619e-07
1.79708511677e-07
2.77728213662e-07
1.26857354531e-07
5.01165783947e-07
2.99187772102e-07
2.78247024851e-07
1.92363544299e-07
4.64420147912e-06
3.23431540371e-07
1.49350248447e-07
1.27083480852e-07
1.05918182201e-07
4.5807868628e-06
2.00257498966e-07
1.4827482282e-07
8.54611383469e-08
1.12784173725e-07
9.86814088268e-08
1.23320657248e-07
5.21159142552e-08
2.10392259178e-07
1.41433270001e-06
1.71415666887e-06
1.72409937849e-06
1.41141836177e-06
1.36872986796e-06
1.60676683789e-07
1.6758813418e-06
6.65487029343e-07
9.07289428555e-07
1.01236920009e-06
8.28579633567e-07
9.24085328843e-07
6.3181482422e-07
5.04822605898e-07
9.73910351107e-07
4.60702688993e-06
5.77276811198e-07
7.10170266277e-08
4.58140476624e-06
3.20208031903e-06
5.99096870319e-07
2.58223505647e-07
1.94778490237e-07
6.56358799549e-06
8.20266232864e-07
9.02978169443e-07
1.78496472957e-06
1.7647650619e-06
9.69055756979e-07
2.86181503497e-06
6.40745971689e-07
5.25371902271e-06
2.7031509262e-06
2.62274192988e-06
6.47177503082e-07
6.07033595358e-06
3.67263669823e-07
1.7389982225e-07
4.88341004949e-06
1.04673241633e-05
5.69572234571e-06
7.54792605487e-06
1.05512193074e-05
7.04716572884e-08
1.07465109463e-05
2.78651101442e-06
1.14225491582e-06
1.54338636265e-06
1.44512585845e-06
1.14274583258e-06
1.33543822452e-06
1.74349754286e-06
3.76513537008e-07
7.14474057105e-07
6.17704467255e-07
3.59514558551e-07
5.03263587293e-07
7.24118708447e-07
8.0295151069e-07
7.02179703497e-07
2.42170731244e-07
3.1562324173e-06
4.17585636406e-06
8.016226099e-07
5.00310280944e-07
8.76674600391e-07
8.8786094481e-07
2.69305704423e-06
1.62058511715e-06
1.312068756e-06
6.54334279671e-06
4.78233412399e-06
3.65586783199e-06
2.83707686545e-06
6.54081960651e-07
1.42101409891e-06
2.80888485506e-07
2.14332387253e-06
2.01853633131e-06
2.10213019398e-06
1.54030960846e-06
1.40551738999e-07
1.4810895014e-06
3.47710873019e-06
3.47122916209e-06
2.03023743006e-06
1.56446789877e-06
3.12837282598e-07
2.20773293201e-06
2.45957137174e-06
1.07576701489e-06
1.01568134453e-06
1.42069171451e-07
1.73904016593e-07
2.92903059297e-06
2.87936977171e-07
1.12714594459e-07
1.11893360481e-06
7.79852521314e-08
2.96830850566e-06
1.20856641114e-06
6.60619418799e-07
1.15249762939e-07
2.37579095269e-06
1.96335785938e-07
5.29566482063e-07
2.84209702405e-06
2.4346704955e-06
2.27479422533e-06
6.31902124101e-07
2.08449446076e-06
2.27179189596e-06
3.06805957392e-06
4.18723970023e-06
5.38153224587e-06
2.89544975022e-06
9.61152413829e-07
1.77142255502e-06
7.58798119678e-07
3.95497322255e-07
2.70213712978e-07
1.76345010737e-07
2.7085320217e-06
2.02222783771e-06
2.0303680132e-07
4.69019370361e-06
2.01501500118e-06
4.71541234479e-05
2.33475779868e-06
1.97035033733e-06
1.0519327693e-06
1.98723310712e-06
1.37095059133e-06
7.03825565419e-07
1.42416412514e-07
2.23087846251e-06
1.91646877217e-06
1.0963164128e-06
2.99402190191e-06
6.38314137424e-06
5.06287958993e-06
3.03033639326e-05
8.78422107721e-08
2.8929576269e-07
9.16903987099e-07
7.82155096181e-07
9.2944250868e-08
3.66733588605e-07
1.2312366039e-07
1.94341011848e-08
1.81107521765e-06
3.7257003418e-06
1.12881060773e-06
4.06805007046e-06
3.10404865142e-05
2.08290018519e-06
1.2718244507e-05
2.67091270926e-05
1.3689766332e-05
1.75378666489e-07
3.47345849723e-07
3.1448691503e-07
5.71315430199e-07
2.9591566733e-07
9.81952994399e-07
2.2542623369e-07
8.98235130609e-07
1.12730186113e-06
1.3489554542e-05
1.47778857298e-06
1.40830936621e-06
1.00573365636e-06
3.84613623759e-06
1.31449108237e-05
7.91260359247e-06
8.21884091722e-06
9.22446421889e-06
8.04570040926e-08
1.23823383689e-05
5.54465105915e-05
1.03084295803e-05
1.2441105395e-05
2.0711684962e-07
2.7114845909e-06
2.56984279818e-06
1.5281540141e-05
4.25046784172e-05
1.79325524182e-05
1.48465451829e-05
5.36761938063e-06
5.73590203331e-06
1.83340754916e-06
4.13880947657e-06
2.2289088551e-06
2.2676121386e-06
2.67564569911e-06
4.1837614406e-06
1.5934264131e-06
1.24450709947e-06
4.3015955915e-06
2.41783298683e-05
2.95002266121e-06
3.1520705329e-06
1.64754185995e-06
1.56120155055e-07
1.42963357261e-07
1.44153144079e-07
1.65045730899e-08
2.90527486424e-08
1.73961255652e-08
1.91869443961e-08
6.74647438315e-07
3.78493226162e-06
6.76525969004e-07
4.23638337964e-07
9.44207022585e-07
6.49543305784e-06
9.06227979665e-06
4.66481036367e-06
3.9676212177e-06
3.22659150337e-06
5.14081077989e-06
1.0613096331e-08
1.32177470577e-07
4.11390066833e-07
1.16571315203e-07
3.12856453969e-07
9.29289314919e-07
5.59077198335e-07
1.76215854723e-06
1.77467104629e-06
2.00064898109e-06
5.5055429254e-07
6.2043225624e-07
5.98564510543e-06
7.53209791128e-07
1.34662695318e-05
4.85483394523e-07
4.64196847091e-07
7.47154401913e-06
2.12058487134e-07
6.49742909024e-06
6.67653204715e-06
8.53169504638e-06
7.14605972945e-06
7.39889004336e-06
5.23340689254e-06
5.17757360877e-06
1.42050481596e-06
1.29226122576e-06
1.23810899536e-07
3.22631477119e-08
8.08209780951e-07
2.38761849564e-07
6.03709550513e-06
4.32441177977e-07
7.3893735177e-08
1.30468178255e-06
1.32860969722e-07
4.59614477823e-08
2.78898837957e-06
4.97756294353e-07
6.82185826122e-07
3.99495724585e-07
1.71273460721e-07
5.75556675356e-08
1.04712374909e-07
5.09184643879e-07
1.48525725393e-06
1.82980025268e-06
1.98756842614e-05
1.82548696432e-06
4.42376555762e-06
2.23491407859e-05
7.97284618568e-07
7.12193332077e-07
2.39971531263e-05
1.41023689298e-05
4.86183027001e-06
3.63738288553e-06
3.42914972419e-05
4.84834553959e-06
3.62455813267e-06
1.00699628441e-06
2.35917226369e-06
1.08231433637e-06
1.41015742859e-06
5.57602423471e-06
5.87584968183e-06
2.0148605063e-06
1.33533567365e-05
1.10587870418e-06
1.79309370598e-06
7.41995601764e-07
1.62275324749e-06
3.94950639687e-06
1.69404877667e-05
2.5916777873e-06
2.7922438634e-06
2.53201954756e-06
2.42137387314e-06
6.09017544668e-06
4.75339639374e-06
1.17921793148e-06
6.70763652253e-07
8.35121968361e-07
4.73289466755e-07
6.390333882e-07
3.32712166534e-05
8.01774562869e-07
8.90592164844e-07
5.66434019576e-07
8.62567315002e-06
6.9140317585e-06
1.46263900884e-07
9.68314254995e-08
2.03396288673e-05
5.47912397525e-06
1.58401575682e-05
2.97814024871e-05
1.70424631989e-05
3.03181247829e-06
9.86934985937e-06
4.4792122374e-06
7.09226573289e-06
2.31152415214e-08
5.05431953731e-07
6.62525171946e-07
1.41084669619e-06
1.69058712956e-05
4.37382136556e-06
1.52585336642e-05
1.07738192465e-05
1.52299718542e-05
4.93824723213e-07
5.42880294796e-07
6.21078257665e-06
4.90791730028e-07
1.83696694889e-06
1.24833496518e-05
6.35906649143e-07
2.90752639573e-06
1.97877801249e-05
1.8681172673e-05
2.19436070664e-05
2.60454876984e-07
1.6651451199e-07
2.14937918529e-08
7.76954503132e-07
1.13502164248e-07
4.48386436518e-07
5.79106228442e-07
3.77794076016e-08
9.72768856354e-07
1.95598744029e-06
1.53545225802e-05
9.47709511647e-07
2.29350254324e-06
1.23339655679e-06
8.90390615513e-06
1.14702412996e-07
1.8215287452e-07
7.48463828416e-06
9.86857925385e-06
9.04667366813e-06
1.00672861019e-05
1.38283711221e-05
1.10202046177e-05
6.02311959986e-06
7.13568659093e-06
1.59737933191e-05
1.82316734525e-05
1.40632645462e-05
1.30176728477e-05
2.91774275366e-05
1.20143177547e-05
2.40109655307e-08
5.32700383602e-11
1.114724027e-08
1.92811139179e-08
9.13568059287e-09
1.05074700243e-07
1.7337362745e-08
2.17958980078e-09
1.18600647361e-08
4.11886927131e-09
2.14604140336e-08
1.39847717102e-08
9.78851947483e-09
3.25473865088e-09
1.42588506496e-08
2.23559679782e-09
8.58186005119e-08
5.86440489146e-08
4.90545701539e-08
4.93349810039e-08
4.70962495896e-08
4.95057156632e-06
4.40030574461e-06
3.74490088081e-06
5.31041011126e-06
5.30918785168e-06
3.4030613334e-06
3.96774510973e-06
3.83207691739e-06
1.70189281903e-06
1.96674368721e-07
4.37306849294e-07
2.28451315215e-05
8.07871733721e-06
7.81566787062e-06
1.23527249923e-05
1.20519341887e-05
1.87531902888e-05
1.36933458608e-05
1.89735821642e-06
9.90401143376e-06
1.52143998214e-07
2.6070502638e-07
1.10915719404e-06
1.25046766185e-05
1.19103652584e-05
1.32043963565e-05
2.98080496829e-06
2.97761782307e-06
5.72613696883e-07
4.86621666442e-07
5.4839692269e-08
1.62704637848e-06
8.79944581939e-07
2.56739000626e-06
4.80422389265e-06
5.00459090659e-06
2.75229031449e-06
6.59335199363e-07
9.15075330179e-07
9.89791838872e-07
1.08665308223e-06
6.01255695886e-07
1.30534454294e-06
1.41487624269e-07
2.43235665329e-07
9.39361249934e-07
3.97211065916e-07
6.17433710707e-07
8.41447142129e-08
6.21163179196e-07
1.03357040231e-06
3.83550868813e-07
1.09980600671e-06
5.14728249092e-06
4.61797214617e-06
2.27493750854e-06
2.68390100125e-06
1.48593024423e-06
9.34291114101e-07
5.07336167914e-07
6.17302313427e-07
1.97864815836e-07
1.57970738916e-07
1.09051717735e-09
2.38747412835e-07
2.49058931788e-08
1.73441047367e-08
1.55602039026e-08
7.223046671e-09
9.08376439839e-09
8.96400237608e-09
1.12141293584e-08
1.78333333801e-08
1.39129520234e-08
2.48180814518e-09
1.25407382031e-08
2.43636169043e-09
3.8261772803e-09
3.57550192558e-09
1.05006488173e-08
1.97632500522e-08
2.01502355573e-06
1.69438540649e-06
4.07100761065e-08
3.54231795567e-08
1.0783180355e-06
4.09198494579e-07
1.81820668291e-09
2.31962793281e-09
4.98958678123e-09
6.8421064552e-09
2.13768546275e-06
1.01909261468e-06
2.34584881752e-09
2.58997140111e-11
1.05950746292e-08
5.60060332975e-09
5.51413666778e-09
1.07006845814e-09
1.18609879283e-08
1.43589151153e-09
1.34690481607e-08
1.86105911873e-09
2.66301508151e-09
1.55435821742e-08
8.38560243675e-07
2.37339075941e-10
3.47300364393e-09
1.79187900254e-08
1.34627305806e-06
2.58092136486e-06
1.09654797864e-06
7.53184723919e-06
6.03227570613e-06
1.38824641244e-05
7.29466756598e-06
1.89050118386e-07
1.0536762598e-06
1.56754639664e-06
1.51835897693e-06
6.35044697083e-07
5.03922149352e-07
3.91502322016e-07
2.74189976991e-09
3.42912494243e-07
4.20142155676e-10
3.7140127561e-09
7.18730151569e-09
8.35264592957e-09
6.15362584112e-09
3.23643048966e-08
4.58240010208e-10
1.20022439987e-08
3.36608001849e-09
6.85692957011e-09
5.74863197246e-09
1.73421992844e-08
8.4412443902e-07
7.87462608702e-07
1.80454575043e-08
2.27336408043e-08
1.13948609597e-08
7.65151633839e-09
7.69604394281e-07
1.09683961712e-06
8.64766649437e-09
7.51275594902e-09
9.90466977021e-07
1.12592196412e-06
5.56237420745e-06
4.56893355412e-06
4.61067202414e-06
6.4236493278e-06
1.43051345516e-06
2.07954117953e-05
6.99873384037e-07
7.47061187383e-07
7.53871590997e-07
1.00418822717e-06
8.16249178663e-07
6.02563086935e-07
2.83336525072e-08
1.74260516457e-08
2.94840004338e-07
5.79324637177e-09
4.26078683478e-07
8.70697785909e-06
5.13257772872e-07
2.89042954303e-07
2.70465949393e-07
3.14784126365e-06
6.05824944415e-06
3.76248035503e-08
4.84797670407e-07
3.37988410293e-06
1.71478431745e-05
2.69187709656e-06
1.24871867408e-06
7.46799710383e-06
1.61603567539e-05
1.2332747039e-06
2.51627331735e-07
4.87905226875e-07
3.96293721466e-07
5.55844696811e-06
5.84202909531e-06
6.01707801442e-06
5.41741295523e-08
9.85834162143e-07
5.17641029789e-06
4.81904109208e-06
4.95134203226e-06
6.90934415613e-08
5.27176696436e-06
1.01298108188e-06
1.28602978922e-05
3.17488432594e-05
9.1015240786e-06
5.93723641822e-08
1.00595960508e-05
1.15165607137e-05
1.21792382401e-05
1.06172922789e-05
1.1182284561e-05
8.55086789281e-07
3.39535033151e-08
3.8764651726e-06
5.15680423882e-06
4.26765284973e-06
9.41649386197e-09
1.70579413281e-06
5.52452263737e-06
7.23447610611e-08
7.230631963e-06
1.34537923799e-07
1.62973616832e-06
5.06960230169e-06
5.98207866799e-06
8.81020232093e-08
4.68493946069e-07
7.27688009606e-07
2.95523714572e-08
3.51659845064e-08
3.17107994946e-08
1.86471459115e-06
2.2387382537e-06
2.86841697951e-08
7.41010811563e-07
2.87465567393e-08
2.39224483702e-08
3.8950476331e-06
4.68658612739e-06
3.76062657727e-09
1.86484992244e-08
4.77958806434e-06
1.34325565203e-06
8.16578207882e-06
6.98223753276e-07
8.84380006745e-07
7.05630104733e-07
7.43945604147e-07
9.85019979005e-07
8.06008859698e-07
9.81945097608e-06
2.63722794945e-06
3.34787122333e-07
6.39830200357e-06
9.81175726637e-06
3.97473606861e-06
4.93945298181e-06
3.74044979958e-07
3.92102473302e-07
4.54763851511e-07
7.5004296819e-07
3.96705575946e-07
1.28915358614e-05
6.15701189486e-06
2.31982642784e-08
8.24204183248e-07
1.76490934621e-07
1.01825419544e-08
1.67251929578e-06
2.03643884938e-08
1.58486640659e-07
3.07231180541e-08
1.16691700721e-07
1.47435053021e-07
1.20218485792e-06
6.19113594766e-06
1.23032877871e-06
1.15802821234e-06
1.75089493358e-07
2.38640348133e-07
8.32668265905e-06
5.57066192997e-06
9.7808899727e-06
3.16475699947e-07
6.86399201424e-06
6.40651609335e-06
1.07289236807e-05
3.85338442935e-07
6.01674863222e-07
6.42584411525e-06
5.51781653863e-06
2.43049172321e-08
6.3990216215e-06
2.27061683606e-08
3.86041918614e-06
2.55500086257e-07
1.95473993011e-06
3.54401849394e-06
1.90185911392e-06
5.48786121157e-06
4.7878929277e-06
2.87065544313e-07
2.07536960192e-06
5.39660981315e-07
8.82645514695e-06
1.5088933895e-06
7.39475722764e-08
5.96741508808e-06
2.60344857526e-06
7.67238835334e-06
2.77054075705e-08
8.17844895009e-06
1.62590151428e-06
1.13214652039e-05
8.06709651863e-07
7.96398783703e-07
3.8204384149e-07
3.06545651874e-07
9.0252303308e-06
5.05980793316e-07
4.23745012629e-07
3.58761306822e-07
1.08995415067e-05
2.96089767102e-07
4.72642938727e-06
4.54995310568e-06
7.25407169405e-06
2.18808762321e-07
1.10777293806e-07
5.53148915187e-06
8.02315614822e-06
2.82029008879e-07
8.05881533425e-06
8.02697524166e-07
3.11474710174e-06
9.44688256528e-06