# vtk DataFile Version 3.0
File Name: Molecule/sphere_excent/sphere_excent_0-s2.vtk
ASCII
DATASET UNSTRUCTURED_GRID
FIELD FieldData 1
TIME 1 1 double
0.0
POINTS 162 double
1.70130162 -1.05146222 0.0
1.72533696 -0.86777713 -0.51978383
1.92387672 -0.54653306 0.0
1.90211303 -0.3249197 -0.52573111
1.61803399 -0.61803399 -1.0
2.0 0.0 0.0
1.70130162 0.0 -1.05146222
1.90211303 0.3249197 -0.52573111
1.61803399 0.61803399 -1.0
1.38756095 -0.32124407 -1.40409289
1.38756095 0.32124407 -1.40409289
1.05146222 0.0 -1.70130162
1.92387672 0.54653306 0.0
1.72533696 0.86777713 -0.51978383
1.70130162 1.05146222 0.0
1.40409289 1.38756095 -0.32124407
1.37638192 1.17557051 -0.85065081
1.0 1.61803399 -0.61803399
1.17557051 0.85065081 -1.37638192
0.85065081 1.37638192 -1.17557051
0.61803399 1.0 -1.61803399
0.86777713 0.51978383 -1.72533696
0.51978383 1.72533696 -0.86777713
0.32124407 1.40409289 -1.38756095
0.0 1.70130162 -1.05146222
1.40409289 1.38756095 0.32124407
1.05146222 1.70130162 0.0
1.0 1.61803399 0.61803399
0.52573111 1.90211303 -0.3249197
0.52573111 1.90211303 0.3249197
0.0 2.0 0.0
0.0 1.92387672 -0.54653306
0.51978383 1.72533696 0.86777713
0.0 1.92387672 0.54653306
0.0 1.70130162 1.05146222
-0.51978383 1.72533696 0.86777713
-0.52573111 1.90211303 0.3249197
-1.0 1.61803399 0.61803399
-0.52573111 1.90211303 -0.3249197
-1.05146222 1.70130162 0.0
-1.0 1.61803399 -0.61803399
-0.51978383 1.72533696 -0.86777713
-1.40409289 1.38756095 0.32124407
-1.40409289 1.38756095 -0.32124407
-1.70130162 1.05146222 0.0
-0.32124407 1.40409289 1.38756095
-0.85065081 1.37638192 1.17557051
-0.61803399 1.0 1.61803399
-1.37638192 1.17557051 0.85065081
-1.17557051 0.85065081 1.37638192
-1.61803399 0.61803399 1.0
-1.72533696 0.86777713 0.51978383
-0.86777713 0.51978383 1.72533696
-1.38756095 0.32124407 1.40409289
-1.05146222 0.0 1.70130162
0.32124407 1.40409289 1.38756095
0.0 1.05146222 1.70130162
0.61803399 1.0 1.61803399
-0.3249197 0.52573111 1.90211303
0.3249197 0.52573111 1.90211303
0.0 0.0 2.0
-0.54653306 0.0 1.92387672
0.86777713 0.51978383 1.72533696
0.54653306 0.0 1.92387672
1.05146222 0.0 1.70130162
-0.86777713 -0.51978383 1.72533696
-0.3249197 -0.52573111 1.90211303
-0.61803399 -1.0 1.61803399
0.0 -1.05146222 1.70130162
0.3249197 -0.52573111 1.90211303
0.61803399 -1.0 1.61803399
-0.32124407 -1.40409289 1.38756095
0.32124407 -1.40409289 1.38756095
0.0 -1.70130162 1.05146222
0.86777713 -0.51978383 1.72533696
1.38756095 -0.32124407 1.40409289
1.17557051 -0.85065081 1.37638192
1.61803399 -0.61803399 1.0
0.85065081 -1.37638192 1.17557051
1.37638192 -1.17557051 0.85065081
1.0 -1.61803399 0.61803399
0.51978383 -1.72533696 0.86777713
1.72533696 -0.86777713 0.51978383
1.40409289 -1.38756095 0.32124407
0.86777713 -0.51978383 -1.72533696
0.54653306 0.0 -1.92387672
0.3249197 -0.52573111 -1.90211303
0.61803399 -1.0 -1.61803399
0.0 0.0 -2.0
0.0 -1.05146222 -1.70130162
-0.3249197 -0.52573111 -1.90211303
-0.61803399 -1.0 -1.61803399
0.32124407 -1.40409289 -1.38756095
-0.32124407 -1.40409289 -1.38756095
0.0 -1.70130162 -1.05146222
-0.54653306 0.0 -1.92387672
-0.86777713 -0.51978383 -1.72533696
-1.05146222 0.0 -1.70130162
1.90211303 -0.3249197 0.52573111
1.90211303 0.3249197 0.52573111
1.70130162 0.0 1.05146222
1.61803399 0.61803399 1.0
1.72533696 0.86777713 0.51978383
1.38756095 0.32124407 1.40409289
1.37638192 1.17557051 0.85065081
0.85065081 1.37638192 1.17557051
1.17557051 0.85065081 1.37638192
-1.38756095 -0.32124407 -1.40409289
-1.38756095 0.32124407 -1.40409289
-1.70130162 0.0 -1.05146222
-1.61803399 -0.61803399 -1.0
-1.61803399 0.61803399 -1.0
-1.90211303 -0.3249197 -0.52573111
-1.90211303 0.3249197 -0.52573111
-2.0 0.0 0.0
-1.72533696 -0.86777713 -0.51978383
-1.92387672 -0.54653306 0.0
-1.70130162 -1.05146222 0.0
-1.72533696 0.86777713 -0.51978383
-1.92387672 0.54653306 0.0
-0.32124407 1.40409289 -1.38756095
-0.85065081 1.37638192 -1.17557051
-0.61803399 1.0 -1.61803399
-1.17557051 0.85065081 -1.37638192
-1.37638192 1.17557051 -0.85065081
-0.86777713 0.51978383 -1.72533696
-1.40409289 -1.38756095 -0.32124407
-1.40409289 -1.38756095 0.32124407
-1.05146222 -1.70130162 0.0
-1.0 -1.61803399 -0.61803399
-1.0 -1.61803399 0.61803399
-0.52573111 -1.90211303 -0.3249197
-0.52573111 -1.90211303 0.3249197
0.0 -2.0 0.0
-0.51978383 -1.72533696 -0.86777713
0.0 -1.92387672 -0.54653306
-0.51978383 -1.72533696 0.86777713
0.0 -1.92387672 0.54653306
-1.72533696 -0.86777713 0.51978383
-1.37638192 -1.17557051 0.85065081
-1.61803399 -0.61803399 1.0
-0.85065081 -1.37638192 1.17557051
-1.17557051 -0.85065081 1.37638192
-1.38756095 -0.32124407 1.40409289
-1.70130162 0.0 1.05146222
-1.90211303 0.3249197 0.52573111
-1.90211303 -0.3249197 0.52573111
-1.17557051 -0.85065081 -1.37638192
-0.85065081 -1.37638192 -1.17557051
-1.37638192 -1.17557051 -0.85065081
0.51978383 -1.72533696 -0.86777713
0.52573111 -1.90211303 -0.3249197
1.0 -1.61803399 -0.61803399
1.05146222 -1.70130162 0.0
0.52573111 -1.90211303 0.3249197
1.40409289 -1.38756095 -0.32124407
1.17557051 -0.85065081 -1.37638192
1.37638192 -1.17557051 -0.85065081
0.85065081 -1.37638192 -1.17557051
0.3249197 0.52573111 -1.90211303
-0.3249197 0.52573111 -1.90211303
0.0 1.05146222 -1.70130162

CELLS 320 1280
3 0 1 2
3 1 3 2
3 1 4 3
3 2 3 5
3 4 6 3
3 6 7 3
3 6 8 7
3 3 7 5
3 4 9 6
3 9 10 6
3 9 11 10
3 6 10 8
3 5 7 12
3 7 13 12
3 7 8 13
3 12 13 14
3 14 13 15
3 13 16 15
3 13 8 16
3 15 16 17
3 8 18 16
3 18 19 16
3 18 20 19
3 16 19 17
3 8 10 18
3 10 21 18
3 10 11 21
3 18 21 20
3 17 19 22
3 19 23 22
3 19 20 23
3 22 23 24
3 14 15 25
3 15 26 25
3 15 17 26
3 25 26 27
3 17 28 26
3 28 29 26
3 28 30 29
3 26 29 27
3 17 22 28
3 22 31 28
3 22 24 31
3 28 31 30
3 27 29 32
3 29 33 32
3 29 30 33
3 32 33 34
3 34 33 35
3 33 36 35
3 33 30 36
3 35 36 37
3 30 38 36
3 38 39 36
3 38 40 39
3 36 39 37
3 30 31 38
3 31 41 38
3 31 24 41
3 38 41 40
3 37 39 42
3 39 43 42
3 39 40 43
3 42 43 44
3 34 35 45
3 35 46 45
3 35 37 46
3 45 46 47
3 37 48 46
3 48 49 46
3 48 50 49
3 46 49 47
3 37 42 48
3 42 51 48
3 42 44 51
3 48 51 50
3 47 49 52
3 49 53 52
3 49 50 53
3 52 53 54
3 34 45 55
3 45 56 55
3 45 47 56
3 55 56 57
3 47 58 56
3 58 59 56
3 58 60 59
3 56 59 57
3 47 52 58
3 52 61 58
3 52 54 61
3 58 61 60
3 57 59 62
3 59 63 62
3 59 60 63
3 62 63 64
3 54 65 61
3 65 66 61
3 65 67 66
3 61 66 60
3 67 68 66
3 68 69 66
3 68 70 69
3 66 69 60
3 67 71 68
3 71 72 68
3 71 73 72
3 68 72 70
3 60 69 63
3 69 74 63
3 69 70 74
3 63 74 64
3 64 74 75
3 74 76 75
3 74 70 76
3 75 76 77
3 70 78 76
3 78 79 76
3 78 80 79
3 76 79 77
3 70 72 78
3 72 81 78
3 72 73 81
3 78 81 80
3 77 79 82
3 79 83 82
3 79 80 83
3 82 83 0
3 11 84 85
3 84 86 85
3 84 87 86
3 85 86 88
3 87 89 86
3 89 90 86
3 89 91 90
3 86 90 88
3 87 92 89
3 92 93 89
3 92 94 93
3 89 93 91
3 88 90 95
3 90 96 95
3 90 91 96
3 95 96 97
3 0 2 82
3 2 98 82
3 2 5 98
3 82 98 77
3 5 99 98
3 99 100 98
3 99 101 100
3 98 100 77
3 5 12 99
3 12 102 99
3 12 14 102
3 99 102 101
3 77 100 75
3 100 103 75
3 100 101 103
3 75 103 64
3 14 25 102
3 25 104 102
3 25 27 104
3 102 104 101
3 27 105 104
3 105 106 104
3 105 57 106
3 104 106 101
3 27 32 105
3 32 55 105
3 32 34 55
3 105 55 57
3 101 106 103
3 106 62 103
3 106 57 62
3 103 62 64
3 97 107 108
3 107 109 108
3 107 110 109
3 108 109 111
3 110 112 109
3 112 113 109
3 112 114 113
3 109 113 111
3 110 115 112
3 115 116 112
3 115 117 116
3 112 116 114
3 111 113 118
3 113 119 118
3 113 114 119
3 118 119 44
3 24 120 41
3 120 121 41
3 120 122 121
3 41 121 40
3 122 123 121
3 123 124 121
3 123 111 124
3 121 124 40
3 122 125 123
3 125 108 123
3 125 97 108
3 123 108 111
3 40 124 43
3 124 118 43
3 124 111 118
3 43 118 44
3 117 126 127
3 126 128 127
3 126 129 128
3 127 128 130
3 129 131 128
3 131 132 128
3 131 133 132
3 128 132 130
3 129 134 131
3 134 135 131
3 134 94 135
3 131 135 133
3 130 132 136
3 132 137 136
3 132 133 137
3 136 137 73
3 117 127 138
3 127 139 138
3 127 130 139
3 138 139 140
3 130 141 139
3 141 142 139
3 141 67 142
3 139 142 140
3 130 136 141
3 136 71 141
3 136 73 71
3 141 71 67
3 140 142 143
3 142 65 143
3 142 67 65
3 143 65 54
3 54 53 143
3 53 144 143
3 53 50 144
3 143 144 140
3 50 145 144
3 145 146 144
3 145 114 146
3 144 146 140
3 50 51 145
3 51 119 145
3 51 44 119
3 145 119 114
3 140 146 138
3 146 116 138
3 146 114 116
3 138 116 117
3 97 96 107
3 96 147 107
3 96 91 147
3 107 147 110
3 91 148 147
3 148 149 147
3 148 129 149
3 147 149 110
3 91 93 148
3 93 134 148
3 93 94 134
3 148 134 129
3 110 149 115
3 149 126 115
3 149 129 126
3 115 126 117
3 94 150 135
3 150 151 135
3 150 152 151
3 135 151 133
3 152 153 151
3 153 154 151
3 153 80 154
3 151 154 133
3 152 155 153
3 155 83 153
3 155 0 83
3 153 83 80
3 133 154 137
3 154 81 137
3 154 80 81
3 137 81 73
3 11 9 84
3 9 156 84
3 9 4 156
3 84 156 87
3 4 157 156
3 157 158 156
3 157 152 158
3 156 158 87
3 4 1 157
3 1 155 157
3 1 0 155
3 157 155 152
3 87 158 92
3 158 150 92
3 158 152 150
3 92 150 94
3 11 85 21
3 85 159 21
3 85 88 159
3 21 159 20
3 88 160 159
3 160 161 159
3 160 122 161
3 159 161 20
3 88 95 160
3 95 125 160
3 95 97 125
3 160 125 122
3 20 161 23
3 161 120 23
3 161 122 120
3 23 120 24

CELL_TYPES 320
5
5
5
5
5
5
5
5
5
5
5
5
5
5
5
5
5
5
5
5
5
5
5
5
5
5
5
5
5
5
5
5
5
5
5
5
5
5
5
5
5
5
5
5
5
5
5
5
5
5
5
5
5
5
5
5
5
5
5
5
5
5
5
5
5
5
5
5
5
5
5
5
5
5
5
5
5
5
5
5
5
5
5
5
5
5
5
5
5
5
5
5
5
5
5
5
5
5
5
5
5
5
5
5
5
5
5
5
5
5
5
5
5
5
5
5
5
5
5
5
5
5
5
5
5
5
5
5
5
5
5
5
5
5
5
5
5
5
5
5
5
5
5
5
5
5
5
5
5
5
5
5
5
5
5
5
5
5
5
5
5
5
5
5
5
5
5
5
5
5
5
5
5
5
5
5
5
5
5
5
5
5
5
5
5
5
5
5
5
5
5
5
5
5
5
5
5
5
5
5
5
5
5
5
5
5
5
5
5
5
5
5
5
5
5
5
5
5
5
5
5
5
5
5
5
5
5
5
5
5
5
5
5
5
5
5
5
5
5
5
5
5
5
5
5
5
5
5
5
5
5
5
5
5
5
5
5
5
5
5
5
5
5
5
5
5
5
5
5
5
5
5
5
5
5
5
5
5
5
5
5
5
5
5
5
5
5
5
5
5
5
5
5
5
5
5
5
5
5
5
5
5
5
5
5
5
5
5
5
5
5
5
5
5
5
5
5
5
5
5

CELL_DATA 320
SCALARS cell_data_0 double
LOOKUP_TABLE default
3.40014523289e-07
9.48289095183e-07
1.97754955939e-06
2.05414268e-07
9.66412285625e-06
1.67338481633e-05
1.66802774876e-05
4.30936547301e-06
2.45769749477e-05
3.13277017789e-05
1.7633369711e-05
1.22483999444e-05
9.78868399029e-06
1.70857696447e-05
8.96345369323e-06
7.58510596074e-06
2.90464131173e-06
2.38531067509e-05
2.20466024154e-05
1.69552631637e-05
3.55245633658e-05
7.28470935457e-05
3.31814317829e-05
4.59860879702e-05
1.29342717187e-05
2.54215684046e-05
1.23170840008e-05
1.82523321766e-05
3.79789676572e-05
6.88356929301e-05
3.45585246831e-05
3.56942062427e-05
2.44006813618e-05
7.65419991508e-05
2.91297164064e-05
6.08869761852e-05
0.000111184422116
0.000203927788245
0.000101906303612
7.45687035103e-05
7.46973574838e-05
0.000120801277275
3.95601736687e-05
6.78085809941e-05
5.78182038035e-05
9.98140442203e-05
4.20634683702e-05
3.27995448486e-05
1.81879659301e-05
7.2692807124e-05
4.040978673e-05
3.61835362208e-05
4.80708054329e-05
9.53955916038e-05
3.1848250014e-05
4.8619513054e-05
2.76182113356e-05
8.92340228462e-05
5.91382684791e-05
4.65007732121e-05
2.13061892679e-05
4.26554798657e-05
2.06690454962e-05
1.47880143893e-05
5.24531534722e-06
1.03131031215e-05
5.52132561362e-06
7.71127194504e-06
6.49411801482e-06
1.28145870341e-05
6.42476091689e-06
9.30288063741e-06
1.80328760122e-05
3.45605896375e-05
1.24320616875e-05
1.06192753265e-05
1.1771007366e-05
8.1104124191e-06
4.34065674669e-06
1.21765807943e-05
5.24111850252e-06
9.31125409331e-06
1.14829775424e-05
1.04800651237e-05
1.70127863947e-05
2.38557646394e-05
2.45839638332e-05
1.60591728312e-05
1.52492840519e-05
2.08267205056e-05
1.58176234503e-05
1.98216232499e-05
1.07453396287e-05
1.28384462634e-05
1.49714515085e-05
8.13162477894e-06
1.20184178826e-05
1.21911579879e-05
9.97171482174e-06
1.43399892309e-05
1.18701992649e-05
1.05394347852e-05
1.10385301289e-05
1.282950656e-05
7.68282875469e-06
5.55345523127e-06
5.19260922078e-06
7.23357825533e-06
1.04257700033e-05
9.05262236691e-06
9.53193225357e-06
8.34851576979e-06
6.90318716927e-06
6.42789447804e-06
7.82930497267e-06
5.87048897688e-06
7.43124306204e-06
5.09443670434e-06
4.07846299402e-06
5.64381766849e-06
5.94211813797e-06
4.01482533327e-06
4.34944254873e-06
3.40214694423e-06
2.79981737805e-06
1.83569227115e-06
2.35088910132e-06
5.88243404249e-07
9.78867247838e-06
1.32593444934e-05
9.12934028813e-06
8.03155301483e-06
1.60035088977e-05
2.05383053123e-05
1.55665797127e-05
8.49591889287e-06
1.80772134706e-05
2.9369560647e-05
1.42405500284e-05
1.87857506588e-05
4.2754882413e-06
2.97630437991e-06
3.35528730152e-06
3.61857358771e-07
9.56055460314e-07
1.38934659091e-06
1.41619590031e-06
2.04266635786e-06
2.35208695686e-06
3.65108810374e-06
4.08342276046e-06
4.226949579e-06
2.23045671452e-06
1.38422552581e-06
2.20035896063e-06
2.33356481163e-06
5.12020779925e-06
5.510706001e-06
5.2394923588e-06
6.63744713496e-06
1.80517542503e-05
1.74556885829e-05
1.61479952636e-05
2.5185810378e-06
4.32659375954e-06
6.39045667737e-06
7.85837162519e-06
5.34509203198e-06
1.11126430136e-05
1.01814415399e-05
1.08294761691e-05
7.49144982362e-06
6.16278627345e-06
7.68230833059e-06
7.47648463212e-06
7.41133257582e-06
1.35238083495e-06
2.02165183209e-06
3.38099668075e-06
4.81300101602e-06
2.0022900549e-06
5.56377548661e-08
7.34014386029e-07
4.2912796135e-06
4.40262810637e-07
1.04672529497e-06
1.19978219667e-06
1.65824961691e-07
2.37824428797e-06
9.51113289528e-07
1.30437579683e-07
1.15457276681e-06
3.1731199729e-05
3.50896723155e-05
3.4045000154e-06
2.95578839225e-05
4.5748352842e-06
2.68248530026e-06
5.41694128708e-06
8.37518199203e-07
4.98209487593e-06
3.63263036295e-06
2.57147973608e-06
5.04882375133e-06
4.64640861626e-06
5.3179458196e-06
3.00601463678e-06
3.52148399542e-06
6.40211928856e-07
5.18123746979e-08
1.39577695176e-06
9.23149994202e-07
1.15120043421e-06
1.09635091306e-06
1.03960159749e-06
1.77232124558e-06
3.61580199204e-06
3.49680990299e-06
4.26017283154e-06
8.21177345533e-07
2.13031815483e-06
9.09852776482e-07
9.87706656439e-08
1.96223742153e-06
2.69543398131e-07
3.20875507721e-06
5.60853413097e-08
7.84438966545e-08
1.71155515288e-06
5.06982639015e-06
6.28989387141e-06
1.58635668074e-06
7.75083634626e-07
4.72534978308e-06
4.86695216419e-06
8.19423164338e-06
4.55906204459e-06
1.06334948786e-05
1.15717775124e-05
1.10129306792e-05
9.57610063843e-06
5.15374016424e-06
4.76434830195e-06
4.88636218611e-06
3.78852467239e-06
3.02951606008e-06
1.83580319247e-07
4.24367003095e-06
6.32153100955e-07
2.48571809499e-06
1.22237231676e-06
4.72435319029e-07
2.25681479907e-06
1.11757841681e-06
7.73924597317e-07
4.69696565452e-07
9.98272105258e-07
8.90527330313e-07
5.1569239827e-07
2.46578690077e-06
6.6954317685e-07
2.02426014033e-07
1.68896124714e-06
1.6787249783e-06
7.36949305407e-06
1.11407748614e-05
1.09490229961e-05
4.33938057939e-06
8.21995473848e-07
3.77403030529e-07
1.31259563264e-06
8.60512834145e-07
1.81211972738e-06
1.34558893622e-06
1.85467939441e-08
9.76800739364e-07
3.1410211263e-07
1.98719307059e-07
1.15825580036e-06
1.82988422671e-07
8.67796386634e-08
3.61971721893e-07
4.96495472476e-07
6.76442969135e-07
7.94741770761e-07
1.65691446998e-06
2.48911289204e-06
3.00793992483e-06
1.98123151173e-05
1.90084983726e-05
1.2175342056e-05
5.64752637196e-06
6.62857785963e-07
3.06506809928e-09
1.18561596095e-07
1.40020215025e-06
1.4364314103e-06
7.49595927299e-07
1.21889523828e-07
9.17929699915e-08
6.41177644461e-06
4.87027216338e-06
1.72808026726e-07
5.14735594741e-06
1.37659274918e-05
1.29080392544e-05
4.72766207274e-06
6.88943875051e-06
9.70910730267e-07
1.00256038177e-09
1.36104595695e-06
2.58841096703e-07
9.75990332628e-07
1.9710271879e-06
2.190241835e-06
3.52851903222e-06
1.12927657763e-05
1.23325674736e-05
1.80009624096e-06
1.35488477666e-05

