# vtk DataFile Version 3.0
File Name: Molecule/sphere_excent/sphere_excent_0-s1.vtk
ASCII
DATASET UNSTRUCTURED_GRID
FIELD FieldData 1
TIME 1 1 double
0.0
POINTS 42 double
0.85065078735 -0.52573114634 0.0
0.80892920494 -0.30898347497 -0.49994572997
0.99989145994 -9.7521670739e-09 4.178319557e-07
0.8089287281 0.30898413062 -0.49994596839
0.52573114634 0.0 -0.85065078735
0.85065078735 0.52573114634 0.0
0.49994561076 0.80892938375 -0.30898311734
0.30898275971 0.49994546175 -0.80892956257
4.4408920985e-16 0.85065078735 -0.52573108673
0.49994587898 0.80892896652 0.3089838028
-8.4288416247e-07 0.99989140034 5.4063709065e-09
-4.4408920985e-16 0.85065078735 0.52573108673
-0.49994584918 0.80892896652 0.3089838028
-0.49994596839 0.8089287281 -0.30898413062
-0.85065078735 0.52573108673 4.4408920985e-16
-0.30898311734 0.49994561076 0.80892938375
-0.80892956257 0.30898275971 0.49994546175
-0.52573108673 5.5511151231e-17 0.85065078735
0.30898344517 0.49994570017 0.80892914534
-4.8660275809e-10 -8.3941046114e-07 0.99989140034
0.52573114634 0.0 0.85065078735
-0.3089838028 -0.49994584918 0.80892896652
0.30898413062 -0.49994596839 0.8089287281
0.0 -0.85065078735 0.52573114634
0.80892914534 -0.30898344517 0.49994570017
0.49994543195 -0.80892956257 0.30898275971
0.30898311734 -0.49994558096 -0.80892938375
1.2810824401e-08 -4.7860773122e-09 -0.99989140034
-0.30898413062 -0.49994593859 -0.8089287281
4.4408920985e-16 -0.85065078735 -0.52573108673
-0.52573114634 0.0 -0.85065078735
0.80892908573 0.30898341537 0.49994567037
-0.80892938375 -0.30898311734 -0.49994558096
-0.80892914534 0.30898344517 -0.49994570017
-0.99989134073 3.287883743e-09 4.1392792127e-07
-0.85065072775 -0.52573108673 0.0
-0.30898341537 0.49994564056 -0.80892908573
-0.49994546175 -0.80892956257 -0.30898275971
-0.49994570017 -0.80892914534 0.30898344517
4.2680741785e-07 -0.99989134073 8.4696401004e-09
-0.80892908573 -0.30898341537 0.49994567037
0.49994564056 -0.80892908573 -0.30898344517

CELLS 80 320
3 0 1 2
3 1 3 2
3 1 4 3
3 2 3 5
3 5 3 6
3 3 7 6
3 3 4 7
3 6 7 8
3 5 6 9
3 6 10 9
3 6 8 10
3 9 10 11
3 11 10 12
3 10 13 12
3 10 8 13
3 12 13 14
3 11 12 15
3 12 16 15
3 12 14 16
3 15 16 17
3 11 15 18
3 15 19 18
3 15 17 19
3 18 19 20
3 17 21 19
3 21 22 19
3 21 23 22
3 19 22 20
3 20 22 24
3 22 25 24
3 22 23 25
3 24 25 0
3 4 26 27
3 26 28 27
3 26 29 28
3 27 28 30
3 0 2 24
3 2 31 24
3 2 5 31
3 24 31 20
3 5 9 31
3 9 18 31
3 9 11 18
3 31 18 20
3 30 32 33
3 32 34 33
3 32 35 34
3 33 34 14
3 8 36 13
3 36 33 13
3 36 30 33
3 13 33 14
3 35 37 38
3 37 39 38
3 37 29 39
3 38 39 23
3 35 38 40
3 38 21 40
3 38 23 21
3 40 21 17
3 17 16 40
3 16 34 40
3 16 14 34
3 40 34 35
3 30 28 32
3 28 37 32
3 28 29 37
3 32 37 35
3 29 41 39
3 41 25 39
3 41 0 25
3 39 25 23
3 4 1 26
3 1 41 26
3 1 0 41
3 26 41 29
3 4 27 7
3 27 36 7
3 27 30 36
3 7 36 8

CELL_TYPES 80
5
5
5
5
5
5
5
5
5
5
5
5
5
5
5
5
5
5
5
5
5
5
5
5
5
5
5
5
5
5
5
5
5
5
5
5
5
5
5
5
5
5
5
5
5
5
5
5
5
5
5
5
5
5
5
5
5
5
5
5
5
5
5
5
5
5
5
5
5
5
5
5
5
5
5
5
5
5
5
5

CELL_DATA 80
SCALARS cell_data_0 double
LOOKUP_TABLE default
1.14976779519e-06
1.39148563311e-06
5.17484774226e-07
8.80215282903e-07
9.33779174334e-07
5.90923900215e-07
4.95996884118e-07
5.58545446403e-09
1.2105583567e-06
3.38030472332e-06
3.10319775464e-06
6.43797263527e-06
6.08412434289e-06
3.2911178689e-06
3.03110797737e-06
1.33835837937e-06
1.87824341267e-05
6.01817716022e-06
2.954441638e-06
1.04473013738e-05
1.71807002801e-05
0.000102843192119
2.59834234435e-05
2.22442981978e-05
2.34838336719e-05
0.00010791233694
1.74260414162e-05
3.1202597452e-05
1.17688250127e-05
6.0187729878e-06
1.72996513432e-05
3.3578590893e-06
2.72038119899e-07
2.92445613203e-07
4.70637549649e-07
3.39134748345e-07
3.91886555564e-06
1.32798651058e-05
3.87576117568e-06
6.99383064271e-06
3.13002698504e-06
7.47760145862e-06
1.80452625464e-05
1.09936601841e-05
4.94972683822e-07
1.42115163506e-06
1.05089580554e-06
9.5793610266e-07
7.14702367971e-08
4.91872520704e-07
9.26078214625e-07
9.2748533774e-07
1.21001155349e-06
3.31188539946e-06
3.01586493783e-06
6.23300803021e-06
3.16788584212e-06
7.47270703239e-06
1.80320467006e-05
1.10841204219e-05
6.36379054107e-06
1.32677233173e-05
3.7101491066e-06
3.78972514024e-06
4.26678303234e-07
5.69054368623e-07
6.61576958206e-08
8.86813540691e-07
3.06215307918e-06
3.34220911804e-06
1.23410990417e-06
6.29513067861e-06
6.28504367427e-07
6.93687397868e-07
9.48675991217e-07
7.40916897119e-08
2.95808450625e-07
3.79333142077e-07
4.2002595062e-08
3.07933923819e-07

