# vtk DataFile Version 3.0
File Name: Molecule/sphere_excent/sphere_excent_0-s18.vtk
ASCII
DATASET UNSTRUCTURED_GRID
FIELD FieldData 1
TIME 1 1 double
0.0
POINTS 348 double
0.523907125 0.0019044796936 -0.85180109739
0.30854573846 -0.49567070603 -0.81191313267
0.0016962528462 0.00085457961541 -0.99989169836
-0.24943761528 -0.4775134027 -0.84173870087
0.0068600554951 -0.84700411558 -0.53169614077
-0.48953959346 -0.0094632701948 -0.87107861042
0.79659765959 -0.3041908741 -0.52076220512
0.51262056828 -0.76696872711 -0.38303846121
0.26097175479 0.48339951038 -0.83498251438
-0.28820952773 0.4838065207 -0.82576316595
-0.010121893138 0.8298382163 -0.55616003275
0.17008349299 -0.15132288635 0.97354072332
0.29377898574 -0.15387912095 0.94333422184
0.23379509151 -0.0039532175288 0.97222524881
0.22349336743 -0.30033072829 0.92721486092
-0.46365511417 0.36653524637 0.80640441179
-0.33032628894 0.37450256944 0.8663495779
-0.37910446525 0.5324665308 0.75679588318
-0.47822007537 0.65779739618 0.58180689812
-0.5362341404 0.49302643538 0.68412512541
0.95889848471 0.13109439611 0.2489707917
0.90696597099 0.0071430616081 0.41988071799
0.96161395311 -0.1455181092 0.23113961518
-0.84750944376 0.27635324001 0.45253583789
-0.94981652498 0.1624699682 0.26482886076
-0.88009589911 -0.0090362550691 0.4746863842
-0.94847500324 -0.18323564529 0.25731253624
-0.85202258825 -0.28385469317 0.43967533112
-0.75353175402 -0.16782230139 0.63420766592
-0.2091935575 0.59672003984 0.77469605207
-0.32186976075 0.67371571064 0.66513746977
-0.74667078257 0.12496201694 0.65095210075
-0.71990460157 0.34347131848 0.60237896442
0.1370152086 -0.76450794935 0.62970978022
-0.023331727833 -0.85777622461 0.51351624727
0.24270953238 -0.87589126825 0.41708362103
0.43066233397 -0.73919337988 0.51777678728
0.50482290983 -0.80309563875 0.31512260437
0.35868415236 0.005715853069 0.93339693546
0.31506431103 0.14790455997 0.93675881624
0.63343602419 0.32501748204 0.70074790716
0.47565191984 0.37508282065 0.79555511475
0.56525498629 0.18842312694 0.80300122499
0.70280355215 0.13379719853 0.69801676273
0.59300100803 0.010986234993 0.80500274897
0.30792540312 0.32937675714 0.89162153006
0.42488732934 0.23063370585 0.8753567934
0.46201065183 0.088720314205 0.88240414858
0.46829554439 -0.051611278206 0.88178133965
0.57854634523 0.49380347133 0.64877212048
-0.025835160166 -0.70880323648 0.704862535
-0.19972461462 -0.7193852663 0.66520953178
-0.19521981478 -0.59629064798 0.77860379219
-0.36837774515 -0.5733255744 0.73117077351
0.57978832722 -0.42683833838 0.69393074512
0.71798610687 -0.43488752842 0.54329389334
0.71497273445 -0.24039107561 0.6562345624
0.82897460461 -0.20536190271 0.51892071962
0.60088735819 -0.62144529819 0.50251275301
0.71661728621 -0.60342890024 0.34944143891
-0.51065027714 -0.81047040224 0.28675061464
-0.56306946278 -0.63207793236 0.53174889088
-0.69595956802 -0.62008720636 0.3614180088
-0.71977096796 -0.45753702521 0.52127194405
-0.51611477137 0.82520031929 0.2285617739
-0.45339798927 0.78047251701 0.43039885163
-0.2598502636 0.89292037487 0.36470139027
-0.29161763191 0.79025679827 0.53885370493
-0.65487790108 0.62531787157 0.42265167832
-0.040948525071 0.72839987278 0.68386203051
-0.18068221211 0.70994120836 0.68063491583
-0.066773883998 0.63686203957 0.76804769039
-0.1101077199 0.80110639334 0.58820104599
0.066874153912 0.78377515078 0.61731517315
0.10041804612 0.66294169426 0.74157458544
-0.26391768456 -0.94932019711 0.17000906169
-0.24116507173 -0.89233475924 0.38145714998
0.00034913164563 -0.9637414813 0.26682710648
-0.011115680449 -0.99904102087 -0.041344277561
0.26923948526 -0.94567781687 -0.18172414601
0.50028473139 -0.86308580637 -0.06364877522
0.27432230115 -0.95253205299 0.13220611215
-0.11907606572 0.25673612952 0.95908254385
0.010602837428 0.26364263892 0.96456760168
-0.053454421461 0.3533859551 0.93395107985
0.066120438278 0.35874411464 0.93108779192
0.14507675171 0.26612046361 0.95260196924
0.033900756389 0.46684515476 0.88366276026
-0.056299902499 0.18255354464 0.98157680035
0.059720009565 0.1527993083 0.9864513278
-0.29365429282 -0.46148604155 0.83709692955
-0.42154991627 -0.41877683997 0.80429720879
-0.34431305528 -0.32559370995 0.88054853678
-0.19379360974 -0.35785976052 0.91342329979
-0.46081703901 -0.25653782487 0.84937912226
0.014359085821 0.035150993615 0.99926704168
0.12095057219 0.047574996948 0.99149632454
0.18073512614 0.13237145543 0.97456651926
-0.35379779339 -0.18569004536 0.91666483879
-0.20411153138 0.33610418439 0.91944044828
-0.22876431048 0.47573497891 0.84929823875
-0.11314201355 0.43888151646 0.89138746262
0.17716749012 0.40890368819 0.89520150423
-0.22225096822 0.19825042784 0.9545045495
-0.3148162663 0.23451241851 0.91960686445
-0.085945218801 0.53910428286 0.83780407906
0.039562460035 0.57394737005 0.81788146496
-0.87005788088 -0.49254509807 -0.020599914715
-0.73683530092 -0.66267883778 -0.13182847202
-0.69318467379 -0.71188312769 0.11277825385
-0.49795994163 -0.86596339941 0.042501632124
-0.261182338 -0.25097456574 0.93204861879
-0.23435789347 -0.15298521519 0.96004259586
-0.1609082818 -0.23827126622 0.95776116848
-0.12939020991 -0.13170515001 0.98272973299
-0.068043544888 -0.43656370044 0.89707452059
-0.049042366445 -0.30502048135 0.95065534115
0.01333568804 -0.13229443133 0.99110490084
0.035359352827 -0.054257918149 0.99783140421
-0.042925924063 -0.053191084415 0.99764275551
0.3474008739 -0.31554803252 0.88303571939
0.48778995872 -0.2808727026 0.82637321949
0.41681560874 -0.41670799255 0.80783051252
0.32670083642 -0.54128611088 0.77477121353
0.27786445618 -0.43221950531 0.85788077116
0.16810947657 0.5311217308 0.83026069403
0.30049583316 0.45702290535 0.83711546659
0.23793335259 0.60984528065 0.7557811141
0.36155262589 0.55138391256 0.751550138
-0.36808776855 -0.7067386508 0.60420149565
-0.24751111865 -0.80776154995 0.53504407406
-0.40553766489 -0.78320264816 0.47127863765
-0.052216842771 -0.57326424122 0.81765860319
-0.16774143279 -0.48517486453 0.85815507174
0.062786504626 -0.51612794399 0.85418897867
0.099158793688 -0.63779348135 0.76377522945
-0.019740572199 0.99955242872 0.0028161599766
-0.23588290811 0.95545130968 -0.17463310063
-0.28523367643 0.95395708084 0.079835638404
-0.55150544643 0.83122521639 -0.0032085832208
-0.73351055384 0.62819266319 0.24901588261
-0.54471546412 0.048351306468 0.83647841215
-0.44041934609 -0.087754324079 0.89347189665
-0.38462471962 0.020850330591 0.9227951169
-0.31514006853 -0.072359979153 0.94625622034
-0.2638759017 0.01880232431 0.96434098482
0.11485848576 -0.33291724324 0.9358741045
0.15186464787 -0.43076971173 0.88957804441
0.041439086199 -0.39911285043 0.91594964266
-0.42177417874 0.13477180898 0.89659148455
-0.50869780779 0.19710351527 0.83806395531
-0.41509544849 0.2629468739 0.87062549591
-0.54251754284 0.30506616831 0.78256052732
-0.31016355753 0.11459393799 0.94371789694
0.62300515175 0.70035946369 0.34826722741
0.55875742435 0.67309361696 0.48368600011
0.69200509787 0.58925116062 0.41671568155
0.2420745939 -0.65030527115 0.72007012367
0.37447878718 -0.6377645731 0.67304873466
0.29407557845 -0.73896032572 0.60606920719
0.19441483915 -0.54316669703 0.81680637598
0.4474658072 -0.5236209631 0.7250007391
0.49697336555 -0.60140585899 0.62563043833
-0.042440123856 0.099117159843 0.99413973093
-0.086445525289 0.027645416558 0.99581325054
-0.12640731037 0.09435646981 0.98746562004
-0.20467244089 -0.061408948153 0.97685736418
0.42692402005 0.68258368969 -0.5929582119
0.25930285454 0.87133860588 -0.41646704078
0.02556983009 0.96126461029 -0.27410411835
0.25128921866 0.94716793299 -0.19813217223
-0.24936568737 -0.94169461727 -0.22429639101
-0.45142656565 -0.80969393253 -0.37388265133
-0.57851094007 -0.42175039649 -0.69805192947
-0.40764248371 -0.67747187614 -0.61216521263
-0.64552491903 -0.59208339453 -0.48248064518
-0.80760484934 -0.29887285829 -0.50806850195
-0.61657816172 -0.2075021565 0.75925797224
-0.5477848053 -0.12452536821 0.82733750343
-0.64056187868 -0.077228561044 0.76368033886
-0.88579380512 -0.39928379655 0.23614707589
0.72624075413 -0.024252872914 0.68700438738
0.80896341801 0.32370352745 0.4903241396
0.81591910124 0.088338971138 0.57063704729
0.89948260784 0.23658117652 0.36708685756
0.80263143778 -0.099520638585 0.58765566349
-0.8047298789 -0.55692595243 0.2056581974
-0.80238771439 -0.46576979756 0.37330326438
-0.46996954083 -0.86677366495 -0.16711492836
-0.29888388515 -0.95364999771 -0.033922255039
-0.61547076702 -0.78368890285 -0.083617866039
-0.62179750204 -0.73327112198 -0.27496874332
-0.77945798635 -0.53870928288 -0.31936594844
-0.17308838665 0.023453079164 0.98462748528
-0.12503822148 -0.041446208954 0.99128901958
-0.21123994887 0.87822198868 -0.42819875479
-0.14782877266 0.16824619472 0.97458982468
-0.21329903603 0.10149297118 0.97169739008
0.8670181036 0.49750605226 -0.013400464319
0.86291468143 0.43113338947 -0.26359397173
0.71609008312 0.67818671465 -0.16459524632
0.68800508976 0.57697868347 -0.44036075473
0.81002312899 0.26714605093 -0.52134078741
0.52622109652 0.78160434961 -0.33466124535
0.58298540115 0.42417350411 -0.69297266006
0.80066883564 0.5882832408 0.11196967959
0.53325605392 0.84305024147 -0.068526595831
0.66641998291 0.74124610424 0.078247137368
0.45535412431 0.87703984976 0.15096218884
0.23260627687 0.96531015635 0.1172369495
0.26193249226 0.91632550955 0.30207517743
0.035763941705 0.97059720755 0.23746578395
0.09323053062 0.90002286434 0.42473980784
-0.89265912771 -0.37184530497 -0.25459948182
-0.93873625994 -0.13927218318 -0.31497067213
-0.96567863226 -0.24544982612 -0.084899231791
-0.9923363924 0.016753461212 -0.12267369032
0.55601680279 -0.13639461994 0.81989628077
0.64692294598 -0.11809380352 0.75334346294
0.60452270508 -0.24099230766 0.75909203291
-0.97269064188 -0.0049791038036 0.23188231885
-0.99414885044 0.082262217999 0.069685049355
-0.99259054661 -0.10083264112 0.067616179585
-0.94727128744 -0.30509737134 0.097706086934
0.68661981821 -0.70686691999 0.16665792465
0.54026812315 -0.83242344856 0.12310025841
[...]
CELL_DATA 692
SCALARS cell_data_0 double
LOOKUP_TABLE default
3.58875760507e-07
4.69313477134e-07
5.47248217799e-09
1.62012903575e-07
1.01264710859e-06
5.83392596549e-07
2.21229090804e-07
2.58740038401e-07
2.58067389047e-08
8.55579869429e-07
2.08174069823e-07
1.84918508533e-07
2.21044478731e-07
5.03517382645e-08
1.59380239029e-07
6.11733409352e-07
7.01270829973e-07
7.73906424267e-07
5.66606023825e-07
1.41667796441e-07
2.10751699214e-07
6.99829091989e-07
3.21372309225e-07
7.36952109217e-08
4.33391014337e-07
6.13095647091e-08
5.10839130356e-07
7.71089012894e-07
1.97193408063e-07
1.49194412454e-07
3.13917905506e-07
3.44545445332e-07
8.67549597707e-08
7.5332154885e-08
1.74056810779e-07
1.55988116825e-07
3.21573441054e-07
4.37426398957e-07
2.51080096159e-07
9.66663564121e-09
1.04001556882e-07
6.72914695289e-07
5.96641995534e-08
2.44537232486e-07
3.02226755062e-07
1.8717399083e-07
2.88830643305e-09
1.7217392213e-07
2.51703259451e-07
4.86770216312e-08
2.39741304246e-07
3.52741126545e-07
5.93625232256e-08
1.25932668294e-07
5.58724670536e-08
9.51925353771e-08
7.14599354859e-08
5.3460157337e-08
2.40595457169e-07
3.31506005652e-07
4.55631280241e-08
1.82307805827e-07
9.58201892349e-08
3.83233980338e-07
3.16308027791e-07
1.01287222135e-07
1.25003798635e-07
1.53777317211e-07
6.40420675528e-07
6.40211247226e-07
1.21344117455e-07
3.43657122136e-07
1.41043844452e-07
2.43401136309e-07
3.13048747453e-08
7.96748004916e-08
5.68531673903e-08
2.21414293914e-08
3.19006801272e-07
3.58201152893e-09
2.63974410051e-07
4.19918868873e-07
1.27282442671e-07
6.51754858242e-07
4.94892139271e-07
3.77343662787e-07
4.00459306129e-07
1.63331450907e-07
2.4153121507e-07
3.02767067729e-07
2.07856838808e-08
7.3243397929e-08
4.54267694783e-07
2.77336166827e-07
3.25120333785e-07
1.08703745458e-06
1.77735691816e-07
3.16225408754e-08
2.20051596157e-08
2.53397458019e-07
1.18743119508e-07
2.54197682899e-08
3.15931885938e-07
1.73464098976e-07
2.55563260223e-07
5.65285231937e-08
7.03975771938e-08
5.11413380045e-07
3.43539842284e-07
2.79079456636e-08
2.26047444662e-07
4.9257360106e-08
3.22041548751e-07
2.28767511552e-07
1.34770563346e-07
5.56461913312e-08
1.45286794011e-07
2.94431840631e-07
4.98746182945e-08
3.11295501158e-07
5.07322665362e-07
5.09290696418e-08
1.1858613114e-07
6.73884213645e-07
3.38676987308e-07
2.78964170209e-07
8.64697351107e-08
5.4475055902e-08
3.89124734467e-07
3.15828127766e-07
3.97771379042e-07
1.81142988421e-07
2.92776920253e-07
7.49921836607e-07
1.14956030444e-07
2.2277691212e-07
2.77423499554e-07
6.29932196193e-08
3.54196526932e-07
1.06133843477e-07
9.472629942e-10
1.3251539572e-07
4.39386798336e-07
1.88196729608e-07
3.43048008877e-08
1.96305885795e-07
4.6678475859e-07
2.75358255859e-07
2.80037628705e-07
1.80844595197e-07
8.49379922195e-08
3.73126634728e-07
1.40580814622e-08
1.54311565301e-07
9.19695875442e-08
4.67633867402e-07
9.59762407245e-08
1.06023035475e-08
1.96986880806e-07
1.14486245156e-07
1.27817890351e-07
5.79498541694e-09
5.69153809088e-07
4.19133834296e-07
2.20294519386e-07
3.71147988817e-08
1.63867599308e-07
1.21839895884e-07
1.15683382151e-07
2.07678187536e-07
5.75833069644e-08
2.36041488087e-07
2.05944157821e-07
5.01912414146e-07
2.57468078111e-07
1.2536344745e-07
9.78042847122e-08
2.72405349047e-07
4.20202180305e-07
4.67324718961e-07
4.97036663742e-08
3.55778603136e-08
1.14019188403e-07
1.00289218489e-07
1.54469360039e-08
2.42298747561e-08
1.05990314204e-07
8.51119103232e-08
1.74853282061e-07
1.17859788554e-07
3.59719242452e-08
5.33400001259e-09
1.10352321931e-08
1.46684933331e-07
9.12606498572e-08
1.23737387994e-07
5.65097016153e-08
4.81341863314e-07
2.90839179383e-07
1.16117904493e-08
3.05013835947e-08
3.06428089059e-07
2.21778035905e-07
1.11364816427e-07
6.62010201744e-08
1.43356786957e-07
6.40226544946e-07
2.17828632232e-08
1.37567827628e-07
3.27725690859e-07
1.53039716313e-07
2.17566070052e-07
1.52636528046e-07
2.62757207976e-08
1.83068597326e-07
2.59302821833e-07
1.62416963714e-07
2.95126723887e-07
3.8385266148e-07
1.31312423449e-07
2.02894143544e-07
5.16166736797e-07
2.32863160984e-08
1.51836742698e-07
1.34031819875e-07
2.75481912602e-07
1.22177085683e-07
1.8074706421e-08
5.39276465535e-08
1.05072220789e-07
6.83882551256e-07
5.40424812317e-08
2.30673557788e-07
4.46496898249e-07
8.3795549757e-08
1.81370014296e-07
2.52902953593e-08
6.69404100141e-08
1.26752107266e-07
1.61285580856e-07
3.2354961241e-07
5.07791913923e-08
2.99241753864e-07
2.80921924737e-07
1.09350527568e-07
3.01885088721e-08
7.29242721418e-08
2.38227838331e-07
3.7268590462e-07
7.36229133579e-08
1.53912340487e-07
2.45752266992e-08
5.06216397533e-08
1.41174138278e-07
5.05986958811e-08
8.81655100516e-08
1.83479257731e-07
3.5861806421e-08
2.02001667986e-08
2.60897416931e-07
1.00671586127e-07
1.86538775725e-07
1.01513971159e-07
1.11430459934e-08
7.95733685403e-08
7.22326231187e-08
3.02342622351e-07
2.59461100014e-07
4.62174816573e-07
2.11214305012e-07
2.80200348666e-08
2.4396602898e-07
6.07642371904e-08
4.76579425271e-08
1.25675872107e-08
1.94655970712e-08
9.75832094087e-08
1.70082404537e-08
4.45744236826e-08
3.48055705364e-07
2.27610368088e-07
8.27055439429e-08
1.50131265683e-07
9.88521519893e-08
3.40658624031e-08
1.21240392758e-07
1.14080560897e-07
1.62359248426e-07
4.83617096549e-08
6.47321079095e-07
3.26773957374e-08
1.95489666031e-07
3.56146183848e-07
1.4257661298e-07
9.69111049275e-08
1.82687861835e-07
1.88282134912e-07
1.62065214193e-07
8.544099989e-08
3.7219660822e-07
1.41519710423e-07
5.49895079596e-08
1.03095816758e-07
3.44981035344e-08
6.4064293571e-08
1.40849415285e-07
2.20737347787e-07
1.23182964513e-07
1.12063258898e-07
1.35416638946e-07
2.24509333909e-08
3.09953885624e-07
9.18867673038e-09
2.86916855416e-08
4.70524762305e-09
1.36394009271e-07
1.10000587958e-07
5.00834402193e-08
4.10888475415e-08
1.10524567138e-07
9.06813660125e-09
2.96713025483e-07
5.88558564508e-07
1.34943831137e-07
3.56936631779e-08
3.04048820627e-07
2.65715803385e-08
1.67780189287e-08
6.00120600733e-08
3.06193959409e-07
4.58687612212e-08
2.84856202508e-08
9.53470849438e-08
5.16946346953e-08
2.13824116518e-07
1.29613510281e-07
1.09040237058e-07
5.44280158437e-08
1.89058541977e-08
1.20565766441e-07
2.60698077598e-08
9.94915372977e-08
1.46421035607e-07
1.89783089263e-08
1.50206643047e-07
2.46949913597e-08
6.03928952674e-08
1.23546759936e-07
1.08196282101e-07
1.10423213813e-07
9.96995211456e-08
7.0643926984e-08
2.74786249349e-08
1.10160467699e-07
3.81724240007e-08
6.81225318712e-08
8.08934879204e-09
5.46082499282e-09
1.74295079544e-08
5.18829590979e-08
2.9740043245e-07
5.41340382515e-07
2.55437299814e-08
1.20844892686e-08
3.77346127261e-07
7.22367197727e-08
8.17954697562e-08
2.16944014985e-08
7.08669589536e-08
6.23894435123e-08
5.289463974e-09
1.98825248261e-07
1.46976089847e-08
7.412485016e-08
1.30799335556e-07
8.48070048639e-07
2.53119859466e-07
2.08339612597e-07
3.66084128956e-07
1.22314004855e-07
4.37900095792e-08
2.26058052862e-09
1.36059813367e-07
1.84536773445e-07
3.8750205607e-08
4.20410804742e-08
3.75251024158e-09
1.21934414201e-07
1.37920783331e-07
7.97567491692e-08
9.48497108357e-08
1.0012338059e-07
6.32549136456e-07
3.89317346225e-07
6.62665193405e-08
2.88385896408e-07
1.16926828985e-08
1.00007229467e-08
6.2924787224e-08
8.9916680276e-08
3.9858326182e-07
4.74895022703e-08
2.4071527063e-07
2.74850883982e-07
4.12158397604e-08
6.96215013907e-08
4.51141830213e-09
2.65827558073e-07
1.35712069717e-07
5.20241744613e-08
3.78865718699e-08
4.68961597665e-08
5.58806115567e-08
4.91351386931e-08
5.96720953165e-08
3.2694939562e-08
2.42310869275e-08
2.37437505032e-07
3.33125943268e-08
1.19548134003e-07
4.4537641043e-07
1.38221520498e-07
4.94031244285e-08
2.39647245189e-07
1.82833248865e-08
4.71678074111e-09
2.02848491959e-07
1.84788372822e-07
2.9022506348e-07
7.52000733214e-09
3.8846201802e-08
7.0458400033e-08
7.4715816096e-08
3.39924915795e-07
1.0187584687e-07
1.04120459374e-07
8.23737165519e-08
1.0300620841e-07
1.55930096601e-07
1.68936747358e-07
1.38305970219e-07
7.88741096078e-08
1.76293250684e-07
2.82658191574e-07
2.65210732105e-07
2.70671323018e-07
3.88369074219e-09
2.03213245967e-08
6.28975417152e-08
3.32051728239e-07
4.34507639347e-08
3.01019617005e-08
1.66095434003e-08
1.84732429892e-08
7.17545706669e-08
7.66859240795e-08
5.47171668168e-07
1.13166245132e-07
1.11122777549e-07
3.61061151421e-07
4.96688193755e-08
2.22163622001e-08
8.43533952713e-08
6.4672037553e-08
7.07832188371e-08
1.21230698412e-07
5.48097597102e-08
5.43143915813e-08
4.64729335219e-09
9.65071208248e-08
1.21587140836e-08
8.09237183119e-08
1.06844020961e-07
3.9456478362e-08
1.37553131432e-07
1.34106060026e-07
1.47555748253e-08
3.79032022685e-08
2.4964707656e-07
1.16350796428e-07
1.36974645656e-07
2.40203465982e-07
1.68725971475e-08
1.53878920233e-07
1.70912892706e-08
6.31453218966e-08
1.33354463564e-09
2.73473517136e-07
7.9710068746e-08
8.51794422229e-08
1.70914629026e-07
2.60529907248e-07
1.74545032188e-07
8.86951864255e-08
1.35106006078e-07
1.5300936749e-07
2.21844466105e-07
2.35233993533e-07
1.03263792965e-07
1.3512610957e-07
3.09203032479e-07
1.53819453802e-07
2.33425763365e-08
2.11576422565e-09
2.2254543639e-07
9.92398961365e-09
1.266675604e-07
2.71460730551e-07
2.47602791574e-07
2.95352604293e-07
4.34315604237e-08
1.15841691667e-07
1.46194743796e-07
4.35133394533e-08
1.27398330405e-08
1.34902323951e-07
2.22680089739e-08
8.34982438299e-08
1.99200972706e-08
6.8521362326e-09
5.59386637205e-08
2.80641698197e-07
5.4358064848e-08
1.3773425401e-07
4.428579597e-08
4.19833372993e-07
3.09386179337e-07
4.52354115127e-07
4.20815787815e-07
1.46232737835e-07
1.23468495893e-07
1.27241098532e-07
2.4172809405e-07
1.59371443082e-07
1.7112405427e-07
6.32764639305e-08
9.92966228965e-08
4.12701766872e-08
5.10133498619e-08
1.10578083527e-07
1.24867328578e-07
1.25143247627e-07
1.50876369585e-08
2.27868831802e-07
3.72756599858e-08
5.62225284485e-08
1.08141545853e-08
8.8447956308e-08
7.83058078306e-08
4.38357584446e-08
2.02086503238e-09
6.59891690643e-08
1.01997050894e-07
6.98350330422e-08
4.91476753069e-07
3.33670850107e-07
3.52259508972e-07
9.87299319987e-08
4.27568101646e-07
4.74966984437e-07
2.63487368045e-07
2.49318991334e-07
5.35282701669e-07
2.80010092454e-07
3.53457011751e-07
6.2939256183e-07
4.45931768189e-08
2.36359115131e-07
1.37396804544e-07
2.18872140293e-07
2.50252321927e-07
1.60558376751e-07
9.34928142655e-09
9.5111021824e-08
3.36865517483e-08
3.33089811663e-08
1.51668540106e-07
7.0091448509e-08
5.85162297353e-08
4.52685851792e-07
2.4131780679e-07
1.89149722281e-07
9.12352721068e-08
1.15057810029e-07
1.3382621946e-07
2.78211256652e-07
1.3622963398e-07
1.64663371832e-07
3.18121785235e-07
2.79064205062e-08
1.55153131949e-07
2.27909189595e-07
8.5586318218e-08
6.04344586028e-08
1.05069190116e-07
3.15184074452e-07
5.9774072035e-08
1.79351813739e-07
4.92254494806e-08
1.74684272854e-07
4.4085339489e-07
1.01951941478e-07
1.17560363382e-07
8.96429390252e-08
4.33201655032e-07
6.05258906595e-08
1.39265581421e-07
2.01499331829e-07
2.04221457522e-07
4.89494811098e-08
9.52421938903e-08
6.94736683503e-08
2.41912996284e-08
1.78954851177e-08
1.95269651061e-07
1.03011363317e-07
6.62351568777e-08
1.18652851965e-07
1.30894453267e-07
7.11558054951e-08
2.95311358379e-08
1.26812157125e-07
2.24524392103e-07
4.86263213573e-08
2.84938551353e-08
5.11080632806e-07
4.626280377e-08
1.07440213332e-07
6.54549714848e-08
1.04619472947e-07
2.56385014601e-08
3.61944866058e-07
2.08072406697e-07
4.11120601652e-07
3.66603615712e-07
9.88065666967e-08
1.0781127333e-07
2.89491316384e-07
1.7353194251e-07
2.51053697877e-07
5.44059533031e-08
2.5618482223e-07
5.19634370315e-08
3.28550796428e-07
9.80913772825e-08
2.98299998549e-07
6.65646469293e-08
3.00243070641e-07
1.63266354104e-07
5.01835475614e-08
2.6403792023e-08
2.13538375783e-07
4.03102231901e-08
1.07107416542e-07
1.31141600732e-07
2.8433476423e-07
2.26642242228e-07
1.25307468909e-07
4.85579074325e-08
1.31402172891e-07
3.32180296363e-07
7.3796171159e-08
5.37220361561e-08
3.69489676953e-07
1.72563594109e-07
1.61611872532e-07
4.05788198546e-07
1.30222121983e-07
6.84030511832e-08
3.39321793181e-08
9.50588837553e-08
6.66782152872e-08
6.64370081924e-08
2.40212604177e-07
6.26828286769e-08
3.236732815e-08
2.01117681082e-07
1.12847831946e-07
3.24864498282e-07
4.18288220018e-08
6.83414547051e-08
1.00361645535e-07
1.64644744482e-07
1.4523611444e-07
3.92417008432e-08
1.04260859263e-07
1.98974090106e-07
1.82775840344e-08
5.39189352789e-08
1.94872769168e-07
3.61344485094e-08
1.62780735823e-08

