# vtk DataFile Version 3.0
File Name: Molecule/sphere_excent/sphere_excent_0-s29.vtk
ASCII
DATASET UNSTRUCTURED_GRID
FIELD FieldData 1
TIME 1 1 double
0.0
POINTS 1587 double
-0.43159928918 0.78499728441 0.44437786937
-0.33090108633 0.79376929998 0.51013845205
-0.31118130684 0.85985600948 0.40468928218
0.29233840108 0.34958234429 0.89013123512
0.26281356812 0.41214048862 0.87237250805
0.22621841729 0.35807943344 0.90582495928
-0.41202792525 0.25220695138 0.87553137541
-0.39613753557 0.20313321054 0.89543557167
-0.35567817092 0.25889283419 0.89803856611
-0.52983093262 0.31191423535 0.78853607178
-0.50934863091 0.24595700204 0.82460945845
-0.47113323212 0.33122715354 0.81750190258
0.62363964319 0.70441418886 0.33890217543
0.60923177004 0.65365231037 0.44863063097
0.69243651628 0.61943948269 0.36954471469
0.12709090114 -0.6696574688 0.73171299696
0.16458715498 -0.73215901852 0.66064614058
0.21322435141 -0.65930229425 0.720903337
0.43497386575 -0.57736313343 0.69095778465
0.41375938058 -0.54019504786 0.73276233673
0.38476529717 -0.59830236435 0.70280218124
0.576603055 -0.64323365688 0.50379788876
0.51229292154 -0.62759244442 0.58620077372
0.47250601649 -0.73188918829 0.49095648527
-0.44282084703 -0.60177922249 -0.66417914629
-0.5961971879 -0.61830121279 -0.51141870022
-0.59673762321 -0.43033730984 -0.67677634954
-0.77440565825 -0.58285564184 0.24571350217
-0.71255332232 -0.61894083023 0.33042168617
-0.7895386219 -0.50695115328 0.34585005045
-0.19264669716 -0.96133041382 -0.19492141902
-0.078323870897 -0.9965903163 -0.022891951725
-0.29905763268 -0.95199018717 -0.062439016998
-0.47340086102 -0.79646277428 -0.3757738173
-0.6357947588 -0.7078012228 -0.30713841319
-0.72402960062 -0.66882967949 -0.16843374074
-0.78293663263 -0.54909151793 -0.29199704528
-0.21522173285 -0.043821841478 0.97557681799
-0.16112779081 -0.044895749539 0.98590689898
-0.16980935633 0.011646877043 0.98530298471
-0.030925843865 0.99731302261 -0.066041454673
0.0044756461866 0.96807587147 -0.25039878488
-0.19270995259 0.95922857523 -0.20643696189
-0.19425339997 0.89338040352 -0.40516993403
0.79310888052 0.33112385869 -0.51110118628
0.62313884497 0.42216649652 -0.65737819672
0.68599510193 0.54639297724 -0.47851476073
-0.89506667852 -0.36717927456 -0.25277218223
-0.96669578552 -0.22566980124 -0.12076162547
-0.94898337126 -0.12935298681 -0.2862932086
-0.90430873632 -0.42375355959 -0.050921883434
-0.99211782217 -0.03578119725 -0.11817274243
-0.9983997941 0.036209188402 0.039817716926
-0.99098515511 -0.12369976193 0.051344782114
-0.97932440042 -0.030802395195 0.19897462428
-0.96103274822 -0.16325031221 0.22297728062
-0.95701813698 -0.28907480836 0.024782206863
0.5969286561 -0.79672390223 0.093647800386
0.69046115875 -0.72286111116 0.027711071074
0.67141014338 -0.71900129318 0.17951796949
0.59680694342 0.76620906591 0.23781070113
0.70446556807 0.67234688997 0.22734951973
0.65200567245 0.74983763695 0.11236759275
0.5254598856 0.78050661087 0.33865523338
0.3746522069 0.90098708868 -0.21749220788
0.23383277655 0.94748210907 -0.21791903675
0.33607462049 0.93924158812 -0.065298333764
0.14840058982 0.98509639502 -0.086255468428
0.22809463739 0.97183716297 0.05874877423
-0.82329833508 -0.55184441805 -0.13212475181
-0.5067474246 -0.020382689312 -0.86174571514
-0.70111644268 -0.11030164361 -0.70415043831
-0.6753283143 0.14241969585 -0.7236276865
-0.83132612705 0.039478022605 -0.55324745178
-0.79152238369 0.29621592164 -0.53440463543
-0.91120690107 0.16066408157 -0.37834021449
-0.87880408764 0.36938476562 -0.30004641414
0.77709805965 0.56106388569 0.28511348367
0.48424252868 -0.14611190557 0.86265611649
0.48978886008 -0.07848995924 0.86831593513
0.40892413259 -0.1225367412 0.90419763327
-0.68638730049 -0.29467618465 0.66473793983
-0.64959985018 -0.38091063499 0.65793842077
-0.61023527384 -0.31321886182 0.72747910023
0.11168047786 0.89359813929 0.43468672037
-0.003319196403 0.91514235735 0.40262117982
0.029467023909 0.86153334379 0.50640386343
0.5482057929 -0.10280568898 0.82974505424
0.77014309168 -0.60891801119 0.1895300895
0.70566129684 -0.64437633753 0.29460194707
0.74707919359 0.66039270163 0.073785051703
0.79283046722 0.58819031715 0.15946897864
0.85528761148 0.47685578465 0.20272265375
0.7668839097 0.45282199979 0.45449131727
0.72292166948 0.41813755035 0.54960405827
0.78767967224 0.33382084966 0.51778995991
0.24648688734 0.6240196228 0.74151992798
0.29851537943 0.6590308547 0.69032484293
0.20122654736 0.69459122419 0.69064885378
0.34985718131 0.5880843401 0.72920334339
-0.59315413237 0.56019645929 0.57816618681
-0.64254260063 0.46999642253 0.60474228859
-0.57810497284 0.50396519899 0.64168679714
-0.009870743379 -0.21199202538 0.977214396
-0.037009555846 -0.1636364609 0.98581725359
-0.057908218354 -0.1963056922 0.97879058123
0.0072529497556 -0.15453575552 0.98796111345
-0.38771352172 0.87202858925 -0.29868122935
-0.55912852287 0.80645680428 -0.19232280552
-0.43161195517 0.89046698809 -0.14318501949
-0.56818783283 0.73794394732 -0.36334845424
-0.56250220537 -0.2550201118 0.78648215532
-0.52974087 -0.33499774337 0.77915006876
-0.61797565222 -0.20953829587 0.75768226385
-0.57502675056 -0.17002885044 0.80021351576
-0.57502454519 0.3448137641 -0.74128323793
-0.42672416568 0.22195243835 -0.87671279907
-0.79012131691 0.48953095078 0.36881384254
-0.81162875891 0.53076547384 0.24400837719
-0.86741387844 0.40881446004 0.28350573778
-0.78125536442 0.60377961397 0.15837496519
-0.86614358425 0.46676599979 0.17748112977
-0.72943526506 0.63890254498 0.24436017871
-0.93196034431 0.2951117456 0.20989485085
-0.93554002047 0.34787267447 0.058694694191
-0.9630548954 0.2490773201 0.10135875642
-0.96267968416 0.25959640741 -0.070786818862
0.055264867842 -0.18734119833 0.98070091009
-0.80490893126 0.59008353949 -0.060810022056
-0.89048844576 0.44865381718 -0.061845496297
-0.84554493427 0.52812314034 0.075761139393
0.37408307195 0.63322931528 0.67744684219
0.42480826378 0.57883560658 0.69581592083
0.72286105156 0.30827981234 0.61841744184
0.78390359879 0.23699313402 0.57381552458
0.67893534899 0.24409492314 0.69235110283
0.74119275808 0.21280859411 0.63664215803
0.62776464224 0.32132938504 0.70898026228
0.61546713114 0.21277478337 0.75882434845
-0.68138682842 0.0058420300484 0.73179990053
-0.65275859833 -0.088764473796 0.75228023529
-0.62125951052 -0.019273316488 0.78336954117
-0.12352524698 0.94851106405 0.29133307934
0.0066721499898 0.96743750572 0.25301662087
-0.11330723763 0.97663956881 0.18218888342
-0.69841688871 0.68734383583 -0.19920997322
-0.58575075865 0.81019705534 -0.020339608192
-0.69320642948 0.71872603893 -0.053529970348
-0.29684442282 0.46311327815 -0.83510708809
-0.39563784003 0.65494555235 -0.64354228973
-0.1496874094 0.66311949492 -0.73336976767
-0.020572425798 0.80943709612 -0.58677625656
-0.23429200053 0.78048199415 -0.57959365845
-0.38426142931 0.79457587004 -0.47011873126
-0.60610383749 0.25304436684 0.75360906124
-0.64964777231 0.29731857777 0.69968664646
-0.67578780651 0.21577826142 0.70471000671
-0.81731879711 0.54213857651 -0.19466133416
-0.7182046771 0.6169129014 -0.32150775194
0.64046144485 0.54654681683 0.53951972723
0.57098031044 0.58119356632 0.57963556051
0.60071200132 0.51713550091 0.60960263014
0.66760987043 -0.18095098436 -0.72216457129
0.76550710201 -0.32630366087 -0.55400043726
0.61040443182 -0.38911744952 -0.68987262249
0.238478899 0.47848030925 -0.8450524807
0.0026241084561 0.52294617891 -0.8523004055
0.10363142192 0.66704767942 -0.73775291443
0.20809322596 -0.32341462374 0.92307460308
0.24667054415 -0.26068153977 0.93338286877
0.17017388344 -0.25697731972 0.95128297806
-0.93554317951 -0.11437930912 0.33410945535
-0.91722327471 -0.22474339604 0.3282558322
-0.88329994678 -0.18746095896 0.42958256602
-0.82296133041 -0.21858718991 0.5243241787
-0.83736896515 -0.30444392562 0.45366832614
-0.8150870204 0.052503202111 0.57693469524
-0.76304793358 0.0889903754 0.6401027441
-0.8082152009 0.16469843686 0.56534212828
0.7329351306 -0.31064230204 0.60511308908
0.79198890924 -0.31191414595 0.52476578951
0.78038030863 -0.22870668769 0.58166080713
0.83477658033 -0.2174501121 0.5057169199
-0.020063381642 -0.96870005131 -0.24525025487
0.12897510827 -0.98875451088 -0.071806013584
0.064842239022 -0.99019312859 0.11122467369
0.072117015719 0.059540297836 0.99561113119
0.11259412766 0.048127826303 0.99247688055
0.10901898891 0.098770067096 0.98904192448
0.23801226914 0.11572998017 0.96433985233
0.22683919966 0.051076062024 0.97246158123
0.28773966432 0.062015227973 0.95558440685
0.29501289129 -0.31608140469 0.90170514584
0.31866943836 -0.24350956082 0.91605204344
0.37340432405 -0.29722127318 0.87876152992
0.28901925683 -0.44573798776 0.84721148014
0.33314153552 -0.37933862209 0.86321812868
0.26638913155 -0.37902504206 0.88611841202
0.33250075579 0.51851147413 0.78778129816
0.3852172792 0.51113456488 0.76826560497
0.3727723062 0.45047879219 0.8111333847
0.1400244832 -0.35284778476 0.9250665307
0.17857199907 -0.39007595181 0.90325540304
-0.0021440526471 0.031677410007 0.99948948622
0.025806745514 0.080635547638 0.99640214443
-0.019974375144 0.083281032741 0.99632161856
0.32733461261 0.62342399359 -0.71004098654
0.22523611784 0.76471340656 -0.6036991477
0.42076689005 0.72211879492 -0.54859608412
0.83156758547 0.22388401628 0.50828957558
0.85085195303 0.28344646096 0.4423558116
0.87427574396 0.18727844954 0.44786024094
0.51428234577 0.56887388229 -0.64164191484
0.43093439937 0.46737593412 -0.77190560102
0.27669659257 0.85210716724 -0.4435326755
0.88639312983 -0.34145829082 0.31259775162
0.92827832699 -0.28213617206 0.24218481779
0.92147070169 -0.23541153967 0.30818977952
0.86864322424 -0.43826434016 0.2307498157
0.82583427429 -0.42488196492 0.37035176158
0.85211783648 -0.3061440289 0.42420041561
-0.77211338282 -0.19718973339 0.60393732786
-0.76752525568 -0.30198714137 0.56533050537
0.38137969375 -0.21418188512 0.89895385504
-0.77080982924 -0.0097806975245 0.63690757751
0.23596565425 -0.5359775424 -0.8105250597
0.0089571345598 -0.50370335579 -0.86375081539
[...]
CELL_DATA 3170
SCALARS cell_data_0 double
LOOKUP_TABLE default
6.58139266699e-08
9.52940695953e-08
3.53523796473e-08
6.32125330781e-09
1.70455382539e-08
3.28022899824e-08
5.18883278606e-09
5.85601054632e-08
4.17034769974e-08
5.02477375117e-08
1.27187943593e-07
7.25112600442e-08
6.18828537045e-08
1.90660941073e-08
2.84918122224e-08
2.09543175625e-08
7.56129692958e-08
3.54536470383e-08
3.54820967766e-08
4.78265259541e-08
2.56223388632e-08
2.98337338108e-08
3.09002077141e-08
7.63216404325e-09
3.04580502671e-08
1.29720570693e-08
4.23630563117e-08
1.02732953643e-08
2.21286505834e-08
9.66052293485e-09
3.73927675211e-08
8.42512855343e-09
1.77956720991e-08
3.96274194245e-08
1.51802394357e-09
6.28699625998e-08
3.78970999889e-08
1.52642160719e-08
4.63923054255e-08
1.14449044454e-08
5.77689359981e-08
2.98323235136e-08
9.17565981314e-08
5.87011696429e-08
3.00385784552e-08
2.55120342464e-08
1.64266169279e-09
6.64688013433e-08
1.54413328485e-08
8.27890616017e-09
1.22861273256e-08
2.72597179649e-08
1.52339665792e-08
5.37125439298e-08
6.27698540263e-08
1.503262968e-08
6.3393424486e-08
2.92918452351e-08
5.94883217463e-08
6.27879558597e-08
8.40233962246e-09
1.41872045463e-08
4.26423158583e-08
1.17886805021e-07
4.65901868717e-08
1.50491398782e-08
7.75209471479e-09
1.28297723021e-09
3.77945531589e-08
1.01300085049e-07
3.09348468387e-08
3.76950302686e-08
1.27934150578e-08
1.94884791045e-09
2.36313680138e-08
8.91311533961e-08
1.12356895886e-07
1.50459949247e-08
2.17754308487e-08
1.36636892139e-07
7.17331568711e-08
5.11777398909e-08
4.5984804921e-09
3.27600146832e-08
6.05049905135e-08
1.46407612837e-08
2.92808281647e-08
3.85606731722e-08
4.31931982805e-08
1.87121248928e-08
3.91989691257e-08
1.41953931397e-08
3.17056309164e-08
1.76593736996e-08
2.00060402327e-08
6.44461024562e-08
5.16266977323e-08
5.37686515473e-08
2.01557689518e-08
2.9220954551e-08
5.48602968177e-08
1.17170321743e-08
2.96936635627e-08
4.0832517454e-08
2.86912996875e-08
3.51810994106e-08
3.61314276962e-08
1.56956443058e-07
7.12183276828e-08
1.02094962367e-08
9.10597446757e-08
1.48433035457e-09
2.28590918706e-08
4.15202076477e-08
4.99401614414e-08
5.85395715715e-08
8.84237222113e-08
7.91995825701e-08
2.05303519448e-08
4.24330496004e-08
9.62767140627e-08
4.37901262005e-08
6.67214004039e-08
1.43087175723e-08
3.48661879168e-08
7.43993479802e-09
1.42389798949e-08
1.01881090615e-08
2.52978423455e-08
1.80702785098e-08
3.66023281868e-09
1.75640004238e-08
4.58830484583e-08
4.11238899975e-08
4.82576446896e-08
2.92262782785e-08
6.13637626011e-08
8.26528562351e-08
4.41585860829e-08
1.32283585425e-08
1.53214015442e-08
3.09179684949e-08
3.02209339914e-08
5.37379196836e-08
7.11217182209e-08
2.59740929512e-08
2.95872929921e-08
1.80709343109e-09
3.0624021271e-08
2.41830542523e-08
1.7517447909e-08
3.38553554373e-08
6.15780454963e-08
3.4858571411e-08
3.4021395449e-08
6.12969071279e-08
1.26797469165e-08
7.01665320792e-08
2.94124171189e-08
3.29300561126e-08
2.69576177436e-08
5.60250731426e-08
9.36999742093e-09
3.12116347747e-09
6.62878849931e-09
3.39548454517e-08
7.39871611233e-08
9.31799799942e-10
4.0354623702e-08
3.70696536038e-08
4.33980900909e-08
1.1590584149e-08
9.02742797486e-09
2.93624784428e-08
1.85497423779e-08
3.327931002e-08
2.14589735153e-08
2.38039550373e-08
4.19360444907e-08
5.87953773012e-08
2.45407398129e-08
2.0623922382e-08
4.51983016342e-08
1.01736760921e-07
5.31965923473e-08
5.14164821703e-08
7.26275965177e-08
1.99607089867e-08
6.19258307517e-08
2.26944080766e-09
4.59848873508e-11
4.91730726664e-08
1.56910744136e-08
1.68112017404e-08
6.74047293149e-08
3.6867298418e-08
1.88928558901e-08
7.15856803275e-09
3.70460855825e-08
2.0177823083e-08
2.10338370524e-08
3.9759090089e-08
6.18142961301e-08
3.66167284803e-09
2.46418942066e-08
6.58373733537e-08
4.40743747678e-08
4.23396444063e-08
8.10051330701e-09
1.76300573983e-08
1.52582471061e-08
5.88291111912e-08
4.01055769149e-08
3.44840417569e-08
4.45729821668e-08
3.13588256062e-09
1.64626135898e-08
7.91690618559e-08
5.378504287e-09
3.93912935537e-08
4.57304259943e-08
5.01659856098e-08
3.54095269228e-08
2.11834431352e-08
2.92094777356e-08
3.5232613178e-08
2.33494920049e-08
8.40394709777e-08
1.92700620163e-08
7.94206822894e-08
2.57760999592e-08
4.30864197195e-08
8.94249734366e-08
5.50477559575e-08
7.87640357905e-09
4.45581839566e-10
1.85102167682e-08
5.27217743901e-08
1.73561022442e-08
5.59771256417e-09
2.39461624355e-08
2.48941374817e-08
2.2005390561e-08
7.90696521231e-08
6.04886561287e-08
5.10991721352e-09
4.01535147511e-08
1.21252942778e-08
4.09729383162e-08
2.08520943638e-08
1.74977011045e-09
5.98737485547e-08
2.46704901465e-08
6.28158066707e-09
5.65291116894e-09
1.7858750248e-08
2.70125482263e-08
9.48918358307e-09
1.84219227668e-08
3.06478510702e-08
2.89029833489e-08
1.46694137437e-08
3.22949609506e-09
9.08047194917e-08
6.14796756903e-08
7.95182377954e-09
3.14200238445e-08
1.63200421486e-08
1.57121083785e-08
6.83706343519e-08
2.47921615249e-08
8.86750235696e-08
2.40050250347e-08
6.1640773709e-08
4.50023758338e-08
2.46070934283e-08
4.29022928057e-09
3.21447153743e-10
2.80941522519e-08
3.73505746546e-08
2.3952989175e-08
1.01781890886e-08
2.7585406725e-09
4.42972218357e-08
2.1953215244e-09
5.61844270759e-08
3.22862384952e-09
1.15102017438e-08
3.09517887627e-08
9.10705930001e-08
2.02704669182e-08
3.46561725375e-08
1.07523763518e-08
3.93607923925e-09
2.9847816969e-08
2.51435086704e-08
3.15231426527e-08
3.79346677342e-08
3.51645399626e-08
4.40540655422e-08
2.44468111225e-08
7.27287405943e-08
6.54846044052e-08
6.06343193454e-08
1.06570752031e-08
1.6285926948e-08
6.62130186248e-08
8.30114620813e-09
1.84866744862e-08
8.07031018574e-09
3.48467313899e-08
4.97985590936e-08
1.12139885766e-08
6.39195228979e-08
5.32816668532e-08
2.81310864884e-09
2.8576653231e-08
2.03267216199e-08
5.04986727336e-08
2.86262341701e-08
3.86622611686e-08
1.57129354822e-08
2.22985502923e-08
6.25981094195e-08
2.17693268281e-09
4.58448150678e-09
7.0701139646e-08
1.84483813804e-08
4.31309010193e-08
5.3228147875e-09
9.9102377953e-08
7.33281457718e-08
9.87497311947e-09
4.60676468866e-09
4.44437786122e-08
2.47799360685e-08
6.89800798044e-08
1.83357401076e-09
1.86701908838e-08
3.78436258713e-08
8.53721314802e-08
3.7327779589e-10
1.02602218453e-07
1.04286138808e-08
9.37511153532e-08
1.81765580112e-08
4.27860911637e-08
8.19329279068e-08
7.14739765046e-09
6.95874870425e-09
1.38049463413e-08
5.75980093243e-09
1.52993042801e-08
2.33953160602e-08
8.61542478376e-09
2.60107683404e-08
1.31259909366e-10
1.34026004549e-08
5.42376060599e-08
1.07413994449e-08
2.57391406716e-08
1.91066006529e-08
2.09780882532e-08
1.74457403717e-08
3.22715246914e-08
1.01680991248e-07
2.1002959735e-08
7.86698443443e-08
5.1915236481e-08
9.8185531442e-08
8.9140948344e-08
1.89032153047e-08
2.31315634569e-08
3.9310755541e-08
5.81423042629e-09
4.28870914379e-09
2.2291563933e-08
8.35651431184e-08
4.44949343446e-08
1.02245123754e-07
5.08762621612e-09
1.48352013585e-08
2.96623633269e-08
4.25669179793e-08
1.35237600026e-08
2.67172101612e-08
7.04901771362e-08
1.771444826e-08
4.38871658175e-08
2.63329906016e-08
8.84674349358e-09
1.21674928701e-08
8.56883391814e-09
3.41942066247e-08
8.93975650831e-09
8.827743291e-09
9.88674609685e-09
5.58964022684e-08
4.34720321023e-09
1.85304259072e-08
9.83239609495e-08
6.97062371992e-09
1.33356513674e-08
3.61892120145e-08
2.98618852881e-08
1.84370444529e-08
1.61503183802e-08
2.51287057104e-08
2.45858427982e-08
5.15463911166e-08
2.58781358741e-08
5.8688442471e-08
5.27828330537e-08
5.30199128613e-09
2.90188288027e-08
5.65558125537e-08
1.77431561297e-08
4.45074921547e-09
7.34949004006e-08
5.27542807173e-08
7.69455860134e-08
9.15576362399e-08
3.09449048306e-08
9.57083623393e-09
2.74297963243e-08
3.50775062415e-08
1.73071297403e-08
2.95995730573e-09
2.42371459749e-09
1.4534735317e-08
4.43944668046e-08
1.98953617669e-08
1.08353576724e-08
2.49750665894e-08
1.85121606639e-08
4.79748625295e-08
5.29691562449e-08
2.61116276883e-08
7.20996412342e-08
1.15520071159e-07
5.56015280749e-08
5.82943032064e-08
1.04075741678e-08
5.05761295854e-08
8.09863666177e-08
2.21358470488e-08
2.69957139212e-08
2.14546442299e-08
3.29861169961e-08
1.02783487415e-08
2.66583967716e-08
3.17136809986e-08
8.20873127661e-08
3.85186545457e-08
5.02624900709e-08
6.35395388997e-08
7.0964882433e-08
4.96620328516e-10
3.89549795874e-08
1.60628351746e-08
2.71293286871e-08
4.4875440831e-08
1.63699523933e-08
3.60439030935e-08
1.57717944633e-08
3.88264767486e-09
5.17329426618e-08
6.35064344062e-08
5.72735255327e-09
3.35342693588e-08
1.67304444789e-09
1.39386161825e-08
1.5093396186e-09
3.08729806434e-08
1.12674778697e-07
6.64228320508e-08
4.92205364822e-08
4.50329773353e-08
1.26703698607e-09
1.90407568709e-08
3.54843615484e-08
1.58764261564e-09
2.97734654061e-09
2.93781152889e-08
3.05025615643e-09
3.73198170598e-08
7.29287054517e-08
2.36386398773e-08
3.52787173957e-09
3.25282779457e-08
2.82212694204e-08
9.19652382554e-09
2.95493012468e-09
2.24909619123e-08
3.19253929256e-08
3.6365411079e-08
1.55573403797e-08
8.58395147879e-09
2.53209063872e-08
4.60568800432e-08
9.50184892154e-08
1.57082509054e-08
1.50251726173e-08
2.16608481079e-08
1.45841257299e-08
7.37450092063e-09
5.12141961327e-08
5.11833348503e-08
8.1350826818e-09
6.60738974856e-08
1.67561111119e-08
2.80248093669e-08
3.44285467319e-08
1.90204119521e-08
6.46087574746e-08
3.57365798684e-08
5.14162134705e-08
4.38641397214e-09
2.74436429691e-08
5.4138941561e-08
4.38098792419e-09
8.96201493034e-09
3.33980672983e-09
2.2250649915e-08
3.10058094538e-08
1.5228410041e-08
1.19833733761e-08
3.78145571819e-08
4.0803679261e-08
2.39925053019e-08
6.79248642304e-09
5.83645071561e-09
7.33667661467e-08
2.75524780434e-09
2.06993328293e-08
5.68719402239e-08
3.7074667763e-08
7.28026430703e-09
2.31993873112e-09
2.13618898772e-08
2.09235936876e-08
3.55262045653e-08
7.32737927573e-08
4.82208198998e-09
2.01847295988e-08
1.8961159197e-08
2.5500125524e-08
2.60086031607e-08
3.19688687555e-08
3.91757466313e-08
2.06296524697e-08
8.61858592366e-08
1.10873233558e-08
2.327564791e-08
1.74661925119e-08
4.65717483125e-08
3.58843197e-08
2.31671320278e-08
4.63358057056e-08
1.15979388541e-08
8.09670467384e-10
1.29616753157e-08
1.59907646836e-07
1.95539505034e-08
1.75107890717e-08
3.88860104434e-08
3.88937784092e-08
4.03203806924e-08
1.24318645325e-09
3.20933491495e-08
1.4651787127e-08
2.6709725194e-08
1.57079830263e-08
3.54555868532e-08
1.27649240871e-08
3.18947413232e-09
3.65464045325e-08
6.41909866821e-08
9.65786421716e-09
4.60473508354e-08
2.9542533964e-08
9.60444692809e-09
4.13438393603e-09
2.22276587624e-08
9.28910542653e-10
2.65915371869e-08
8.49718443507e-09
2.24732077851e-08
5.6274088603e-08
1.23765723859e-08
2.21403416298e-08
2.87473507571e-08
1.25061527853e-08
4.62176545853e-08
9.46452166677e-09
2.16409129149e-08
1.91338852478e-08
3.74625415616e-08
3.42572585549e-08
5.160823175e-08
4.49023927101e-08
4.80426453014e-08
2.89014736943e-08
2.73977991716e-09
5.6426113528e-08
1.870958553e-08
2.9657920806e-08
3.8338256651e-09
2.00378714083e-08
1.18360820906e-08
7.22466234466e-08
5.04133611353e-08
1.21904306326e-09
5.14461774403e-08
1.01072921436e-08
3.9498268671e-08
2.90922823043e-09
3.91158304485e-08
1.85802641798e-08
4.77266136029e-08
6.99369909285e-10
3.74156793858e-08
4.54471491416e-09
2.00430634696e-08
9.66422618128e-09
1.81670973312e-09
4.32388777544e-08
1.7709496104e-08
4.15195793723e-08
2.47195078983e-08
2.06873396184e-09
2.43696552471e-08
6.32847898776e-09
4.10654373556e-09
4.37549411454e-08
1.55162056801e-08
3.30820415567e-08
1.35816861842e-08
2.39555770686e-08
8.00001118527e-09
5.04367349148e-08
5.04415999889e-08
2.6097729399e-08
8.31080824055e-09
1.78526698696e-08
3.13188344179e-08
5.06981662139e-09
1.00316562624e-09
3.17374672078e-09
2.6607133856e-08
1.88708886432e-08
3.27557223214e-08
9.12032339348e-08
5.92339168496e-08
2.14359803787e-08
2.68631738615e-08
2.73489405483e-08
1.4169052619e-08
5.2360535048e-08
6.79025247757e-08
1.00078361576e-08
2.52455662345e-09
3.20850325975e-08
2.014823042e-08
2.23471845219e-08
1.70408348156e-08
3.37548516628e-08
3.744515487e-08
2.47930170445e-08
1.7231848824e-08
3.69217415293e-08
5.13748485798e-08
1.78934559624e-08
1.35049689269e-08
7.10644837664e-08
2.33931525589e-08
2.82136828651e-08
5.5248358539e-08
4.15177148913e-08
3.37045791586e-08
2.48973650931e-08
1.88319583847e-09
1.22964244022e-08
3.74881015113e-09
7.00650951866e-08
6.52049207329e-08
4.55804399461e-08
1.7562880985e-08
5.20717890485e-09
3.669729138e-09
1.98151677972e-08
2.45665150704e-08
1.97344479889e-09
5.37613183213e-08
3.71836877036e-08
5.67383117583e-08
4.11860748129e-08
2.75247104061e-09
2.99786056458e-08
9.44576196479e-08
2.11176443859e-08
2.27377994269e-08
6.41883642623e-08
2.01876498315e-08
6.52267599792e-09
5.60562461272e-09
4.92171464452e-09
2.38394312267e-08
2.77102020189e-09
2.77313053664e-09
4.04554499767e-08
2.97785308074e-08
4.80364721949e-08
3.10569915705e-09
4.08063476896e-08
2.48082461608e-08
6.66902638089e-08
3.05071062277e-08
1.5010130565e-08
3.33666413572e-08
1.41720969623e-08
1.19953410883e-08
1.2245139227e-08
4.07364300962e-08
3.99305247149e-08
9.96140050286e-09
2.50016496742e-08
1.25075953518e-08
2.27335241573e-08
4.49955494513e-08
1.20073922665e-08
9.89523025253e-10
6.12363778267e-08
7.78973577198e-09
3.64575790806e-08
1.07447566631e-08
1.54012211382e-08
9.31119184321e-08
8.01991247718e-10
6.45795257e-09
2.66022880392e-08
2.70792125117e-09
1.05357964001e-08
5.56162799545e-08
2.49304624665e-09
3.14814768609e-08
1.21887677536e-08
1.46746322607e-08
1.1668128065e-08
1.05243220844e-08
1.82446229692e-08
4.51041224679e-08
4.37555896069e-08
2.05512367519e-08
3.26476168827e-08
3.66627079245e-09
2.72798784907e-08
2.38483910586e-08
1.32069991919e-08
4.57519538994e-08
4.76088498542e-08
5.92815932424e-08
3.21040250315e-08
8.70822177995e-09
1.32368759121e-08
5.66762431666e-09
3.51019142329e-08
1.225022057e-08
2.47736872745e-08
3.19242665788e-08
3.78612936716e-08
2.11585747524e-09
9.66707328576e-09
3.60021556089e-09
4.36559885969e-08
3.93203433272e-08
3.31623178975e-08
4.81590967961e-08
3.35324802682e-08
5.84040670319e-09
4.51747706177e-08
2.92977873354e-08
1.60315002603e-08
2.06051619258e-08
1.17793888925e-08
5.18083842974e-08
2.15686041925e-08
1.93559588646e-08
9.19307619295e-08
1.08914031026e-08
1.87076382115e-09
1.45537059191e-08
2.82051907165e-08
2.55481981834e-08
4.69629062919e-08
1.17167236417e-09
2.58158623076e-08
1.05282787921e-08
1.68294218925e-08
4.35695762858e-10
1.9752081518e-08
9.55647232097e-09
4.35004604323e-08
2.046439169e-08
4.78174457358e-08
1.52128154524e-08
1.70932930632e-08
4.44960464672e-08
3.40640439972e-09
1.98289625438e-08
2.39834105159e-08
1.51822210855e-08
4.68191993808e-08
3.58778499798e-08
3.47216608029e-09
2.73983920434e-08
1.03966471822e-08
3.72434787101e-08
6.22826306261e-09
2.49291056502e-08
3.75983078633e-08
5.437532062e-08
3.4739748785e-09
5.16394009009e-08
5.63096185179e-08
2.86079622447e-08
4.56493464424e-08
6.68490031413e-08
4.23152410334e-09
2.80207090955e-09
4.00353142537e-09
2.49376722669e-08
6.99835633838e-09
1.13699653874e-08
3.06900641888e-08
2.39623535778e-08
8.93623126751e-09
1.5851327356e-08
1.34295023602e-08
1.94771309263e-08
9.7477230787e-09
2.31035388352e-08
1.56749989245e-08
9.3037931955e-09
1.32665568163e-07
1.18666172946e-08
2.66455036906e-08
1.17544061108e-08
6.37535848777e-10
3.11940500815e-09
8.63302175917e-08
4.53841023693e-08
9.26780129389e-09
3.33682454742e-08
3.24934418382e-08
9.78758156041e-09
8.29473641391e-08
2.10414946516e-08
3.67799180764e-08
1.81936709165e-08
3.95808064777e-09
4.23251356587e-08
7.27640212506e-08
3.30284401334e-08
2.73830822698e-08
2.89683454546e-08
2.16734481475e-08
6.98009743078e-08
1.06144917825e-08
5.37377931893e-08
1.48399741422e-08
4.6150297959e-08
4.05333969665e-08
2.93249069176e-08
5.13331608824e-08
2.62585242021e-08
3.99265680807e-08
4.70776288061e-08
3.33829467742e-08
7.34545927039e-08
2.62359440271e-08
2.805828089e-08
1.64226489272e-08
1.91064351435e-08
6.82172259803e-08
3.04155006781e-08
5.1195149598e-08
2.56220322069e-08
6.02762750543e-10
3.76306642437e-09
2.6672979707e-08
5.12938111213e-09
4.36207044104e-08
2.5402222844e-08
2.75613119839e-08
1.18300499524e-08
3.75899646602e-09
2.34096932675e-08
1.04880034557e-08
1.53038055983e-08
2.9451650514e-08
5.54389406281e-08
2.06822653662e-08
1.21833453009e-08
2.95501637848e-08
5.07954956322e-08
1.35020707999e-08
1.413999323e-08
1.34286635506e-09
5.71212599574e-08
4.30341037475e-09
1.42625068859e-08
3.43453554732e-08
5.4448856054e-08
1.2822481015e-08
4.25576138137e-09
7.56957712769e-09
1.71408964589e-08
2.89932046854e-08
5.22171441975e-08
1.09261651843e-07
4.25973151253e-08
2.650617539e-08
1.77288890634e-08
8.57027572372e-08
2.76877878265e-08
3.46855452956e-08
3.01427223668e-08
1.73396823418e-08
1.20559670242e-08
7.98511978535e-09
2.05361117625e-08
4.56071452244e-09
3.37315841906e-08
1.89745283096e-08
8.50322773693e-08
8.2753265867e-08
4.60744097481e-08
2.55788742651e-08
2.60804213332e-08
2.90020921148e-08
8.11305060643e-09
1.05942991315e-08
2.3337661651e-09
1.07164207912e-08
1.53366027408e-08
4.84959606209e-08
1.67506125495e-08
1.69198003804e-08
2.47928551047e-08
2.24389935276e-09
2.06283856976e-09
1.44842233854e-08
4.0486343363e-08
3.37543379548e-08
3.22580225125e-08
1.85300511356e-08
1.61977031266e-08
1.9820707076e-08
1.92914693316e-08
5.35849364784e-09
2.85666656457e-08
1.02395478281e-08
5.50790425375e-09
1.45202727899e-08
2.14568570664e-08
1.09745599116e-09
2.50032507339e-08
2.13843636597e-08
9.78344478796e-09
2.3604863681e-09
1.61658260414e-08
3.84984908355e-09
3.11249144535e-09
1.78107247313e-08
7.44401352903e-08
4.04008606797e-08
3.73164553012e-08
1.7036272741e-07
3.9862096287e-08
1.97999023562e-09
4.6850413117e-08
7.96159600269e-09
1.10063289912e-08
1.52048507455e-08
2.95218654672e-08
1.74931792636e-08
3.24659959337e-08
3.00081653536e-09
1.31866311942e-08
2.43963395083e-08
1.46636563013e-08
2.01866655496e-08
3.04956422532e-08
6.33515760088e-09
3.08628736897e-08
3.89092531485e-08
9.94951469625e-09
2.60117634531e-08
2.17621688631e-08
1.60329672265e-08
1.76040168045e-08
7.80660966851e-09
8.14974513412e-08
7.49291145921e-10
2.60355715365e-08
9.56720249901e-09
2.06316477507e-08
1.01584489685e-08
1.51306088069e-08
7.03952505832e-09
4.36382200673e-08
6.95080597482e-09
3.65208568085e-08
4.01149811838e-10
5.65811275952e-08
1.97118169018e-08
2.51444073665e-08
1.71166813101e-08
1.31943432222e-08
8.14167635081e-09
2.56069466223e-08
6.30312110349e-09
8.86787589879e-09
4.36275424967e-08
2.01839320684e-08
1.60231760842e-08
3.59525158436e-08
1.35756148494e-08
3.53953391995e-08
3.38464724848e-08
2.06468414901e-08
2.92397854348e-09
3.47635435336e-09
1.53851527909e-08
1.20843378703e-09
2.99848121563e-08
1.93738856233e-08
3.54306069354e-08
2.32683378605e-08
8.88093142399e-09
1.41137896471e-08
1.861542102e-09
9.60756766281e-09
2.38311535587e-08
1.69633809066e-08
2.74510167737e-08
1.37550639765e-08
4.84152887448e-08
1.79207064977e-08
2.89799069713e-08
4.58199846243e-10
2.23076710354e-08
3.78352263194e-08
2.23578600429e-08
4.07133074616e-08
1.34517628439e-08
5.82103140233e-09
7.98655670214e-09
1.82234332964e-08
2.29800634298e-08
3.50977141457e-08
1.13311201811e-08
1.05586711426e-08
3.67550636742e-09
2.59932215001e-08
1.74959122184e-08
3.25754317125e-09
1.79697172271e-08
4.58599260336e-08
9.09060539704e-09
1.89036693792e-08
4.87024633054e-08
8.88602630476e-09
1.57494047238e-08
8.05412222679e-09
7.13620622122e-08
2.40307907474e-08
7.60618276191e-08
4.03573945541e-08
2.21445068915e-08
9.68383820265e-08
4.2699293152e-08
3.3067537881e-08
1.31407819435e-07
3.53130707177e-08
3.46081693725e-08
1.09209796682e-08
2.32357887955e-08
4.24463340511e-08
5.10578144225e-08
7.27512649637e-09
1.58029994438e-08
3.25011553658e-08
7.75573288617e-08
3.08345579176e-08
5.69228029289e-08
1.9211335697e-08
8.41896609349e-08
3.92815105275e-08
5.23585779602e-08
2.6616911825e-08
1.72590859481e-08
2.49017667807e-08
9.00258820532e-09
1.99751442891e-09
1.37928572541e-08
5.41684173362e-08
1.71456652982e-08
1.16253037078e-08
2.05628765497e-08
5.0099116395e-08
1.52767553883e-08
2.40447706188e-08
1.00628168157e-08