# vtk DataFile Version 3.0
File Name: Molecule/sphere_excent/sphere_excent_0-s2.vtk
ASCII
DATASET UNSTRUCTURED_GRID
FIELD FieldData 1
TIME 1 1 double
0.0
POINTS 45 double
0.85065078735 -0.52573114634 -3.5349401184e-10
0.80892920494 -0.30898344517 -0.49994572997
0.99989193678 -1.0625544746e-06 1.3585281522e-06
0.80892831087 0.30898475647 -0.49994617701
0.52573055029 2.0859189931e-08 -0.85065114498
0.85065054893 0.52573156357 3.9911080307e-07
0.49994546175 0.80892956257 -0.30898278952
0.30898210406 0.49994522333 -0.8089299202
-6.5908722036e-07 0.85065090656 -0.52573090792
0.49994555116 0.80892920494 0.30898523331
-1.6427255787e-06 0.99989140034 2.3861078446e-08
-4.2032291958e-07 0.85065048933 0.52573156357
-0.49994555116 0.80892914534 0.30898526311
-0.49994620681 0.80892831087 -0.30898472667
-0.85065114498 0.52573055029 2.020908596e-08
-0.30898416042 0.49994170666 0.80894231796
-0.80893063545 0.30897939205 0.49995350838
-0.52552103996 -0.00017909800226 0.85077822208
0.30898478627 0.49994185567 0.80894196033
6.0033235059e-06 0.016857551411 0.99819582701
0.52540373802 -8.1782869529e-05 0.85083627701
0.32207229733 -0.50430321693 0.79914486408
0.80909407139 -0.30889907479 0.49979394674
0.5000115633 -0.80901145935 0.30876371264
-4.8010565479e-07 -0.8504178524 0.5260579586
0.30898281932 -0.49994546175 -0.80892956257
-1.6203859587e-08 -1.9550268959e-08 -0.99989140034
-0.30898478627 -0.49994620681 -0.80892831087
-1.5796874919e-08 -0.85065114498 -0.52573055029
-0.52573162317 3.813971432e-07 -0.85065048933
0.80892699957 0.30897697806 0.49996128678
-0.80892962217 -0.30898281932 -0.49994543195
-0.80892920494 0.30898341537 -0.49994567037
-0.99989193678 -1.1410593288e-06 1.5103339592e-06
-0.85065048933 -0.52573162317 4.1882725554e-07
-0.30898344517 0.49994561076 -0.80892908573
-0.49994620681 -0.80893039703 -0.3089812398
-0.50001037121 -0.80901122093 0.30876561999
8.2321344053e-07 -0.99989557266 1.591018372e-05
-0.80909627676 -0.30890265107 0.4997882843
-0.32209810615 -0.50428789854 0.79914301634
0.49994680285 -0.80892825127 -0.3089863956
-0.16186529398 -0.26323789358 0.95107096434
1.2294864973e-05 -0.52515357733 0.85102510452
0.16188883781 -0.26321786642 0.95107191801

CELLS 86 344
3 0 1 2
3 1 3 2
3 1 4 3
3 2 3 5
3 5 3 6
3 3 7 6
3 3 4 7
3 6 7 8
3 5 6 9
3 6 10 9
3 6 8 10
3 9 10 11
3 11 10 12
3 10 13 12
3 10 8 13
3 12 13 14
3 11 12 15
3 12 16 15
3 12 14 16
3 15 16 17
3 11 15 18
3 15 19 18
3 15 17 19
3 18 19 20
3 20 21 22
3 21 23 22
3 21 24 23
3 22 23 0
3 4 25 26
3 25 27 26
3 25 28 27
3 26 27 29
3 0 2 22
3 2 30 22
3 2 5 30
3 22 30 20
3 5 9 30
3 9 18 30
3 9 11 18
3 30 18 20
3 29 31 32
3 31 33 32
3 31 34 33
3 32 33 14
3 8 35 13
3 35 32 13
3 35 29 32
3 13 32 14
3 34 36 37
3 36 38 37
3 36 28 38
3 37 38 24
3 34 37 39
3 37 40 39
3 37 24 40
3 39 40 17
3 17 16 39
3 16 33 39
3 16 14 33
3 39 33 34
3 29 27 31
3 27 36 31
3 27 28 36
3 31 36 34
3 28 41 38
3 41 23 38
3 41 0 23
3 38 23 24
3 4 1 25
3 1 41 25
3 1 0 41
3 25 41 28
3 4 26 7
3 26 35 7
3 26 29 35
3 7 35 8
3 40 42 17
3 17 42 19
3 40 43 42
3 43 44 42
3 43 21 44
3 42 44 19
3 21 43 24
3 24 43 40
3 19 44 20
3 44 21 20

CELL_TYPES 86
5
5
5
5
5
5
5
5
5
5
5
5
5
5
5
5
5
5
5
5
5
5
5
5
5
5
5
5
5
5
5
5
5
5
5
5
5
5
5
5
5
5
5
5
5
5
5
5
5
5
5
5
5
5
5
5
5
5
5
5
5
5
5
5
5
5
5
5
5
5
5
5
5
5
5
5
5
5
5
5
5
5
5
5
5
5

CELL_DATA 86
SCALARS cell_data_0 double
LOOKUP_TABLE default
1.26386261843e-06
1.08879358974e-06
2.81687392977e-07
2.06473632216e-06
1.12723289489e-06
9.45865192625e-07
4.22958856281e-07
1.01842871395e-07
6.31133851536e-07
3.14065559393e-06
3.13106885559e-06
7.08643998059e-06
7.13096310657e-06
2.99396093875e-06
3.05588322666e-06
6.61958306541e-07
2.00794297416e-05
5.20891118757e-06
5.24589714244e-06
4.95291938147e-06
1.43529963641e-05
0.000107845948125
6.21586010482e-05
5.7525858549e-05
2.92847593273e-05
6.45110396786e-06
1.0653950289e-06
5.86147759379e-06
4.01215327531e-07
4.1978161955e-07
1.90253736292e-07
3.47895945135e-07
3.72947759909e-06
1.78256273747e-05
2.46440444463e-06
1.83785238953e-05
5.29295335056e-06
6.47468505314e-06
1.92031213263e-05
4.31825941624e-06
2.62582161266e-07
1.12275185482e-06
1.23517127267e-06
2.06967037816e-06
6.80652430007e-08
9.28506335265e-07
4.88760600027e-07
1.03860769497e-06
3.96528400066e-07
3.12092325485e-06
2.68601222683e-06
5.74785808185e-06
5.86432055774e-06
7.77229677837e-06
2.07399018977e-06
2.8303090636e-05
1.75922037063e-05
1.7547834469e-05
2.38165414933e-06
3.60492805374e-06
6.88342572166e-07
8.70839605634e-07
5.75869245614e-08
5.65040193966e-07
2.68943721657e-06
3.00827097329e-06
4.42767428199e-07
5.90509760121e-06
7.90952813896e-07
9.33740375559e-07
6.00526507625e-07
2.26728877522e-09
4.89280110664e-07
3.27375108925e-07
4.1031251693e-07
2.55690799171e-07
3.52769853906e-05
2.03087108336e-05
3.68297526209e-06
3.34249234546e-05
3.92588525892e-06
4.89275598716e-05
2.14543844983e-06
1.4569749999e-06
2.0999683979e-05
3.48792726463e-05

