# vtk DataFile Version 3.0
File Name: Molecule/sphere_excent/sphere_excent_0-s28.vtk
ASCII
DATASET UNSTRUCTURED_GRID
FIELD FieldData 1
TIME 1 1 double
0.0
POINTS 1377 double
0.96673452854 0.10300590098 0.23381133378
0.93132734299 0.0006249435246 0.36400938034
0.96313625574 -0.080692626536 0.25642198324
-0.4331882596 0.78424459696 0.44407755136
-0.32536643744 0.79443824291 0.51243448257
-0.30969077349 0.86051982641 0.40435618162
0.29245382547 0.34775605798 0.89079785347
0.26630756259 0.41184154153 0.87137228251
0.2243142873 0.35291785002 0.90835648775
-0.4133271277 0.25349631906 0.87448346615
-0.3963573873 0.20289297402 0.89538925886
-0.35515832901 0.25791305304 0.89852464199
-0.53554135561 0.31036874652 0.78531777859
-0.50792557001 0.24382849038 0.82609397173
-0.4700986743 0.33031731844 0.8184401989
0.62358945608 0.70352387428 0.34088361263
0.60462450981 0.65186470747 0.45714178681
0.69123923779 0.61671203375 0.37590399384
0.12785117328 -0.66866886616 0.73248255253
0.15785080194 -0.73817020655 0.65545976162
0.21600085497 -0.66004532576 0.71925455332
0.43374508619 -0.57900744677 0.69030696154
0.4159219265 -0.53829574585 0.73284840584
0.38423013687 -0.60048085451 0.70113998652
0.57577091455 -0.64243024588 0.50577133894
0.51127284765 -0.62630182505 0.58846527338
0.47059026361 -0.73190993071 0.49276065826
-0.43697327375 -0.60778325796 -0.66223466396
-0.6031832695 -0.61285156012 -0.50912064314
-0.60210806131 -0.42302250862 -0.67621791363
-0.77649152279 -0.579390347 0.24734382331
-0.71283572912 -0.61803674698 0.33149331808
-0.79113543034 -0.50394105911 0.34656444192
-0.20091088116 -0.95866310596 -0.19868402183
-0.074696779251 -0.99692767859 -0.022080296651
-0.30911257863 -0.94982504845 -0.046420201659
-0.45265778899 -0.8763101697 -0.16392013431
-0.48621302843 -0.87261360884 0.038874529302
-0.61998003721 -0.78061449528 -0.070266842842
-0.65302741528 -0.752622962 0.081566244364
-0.47315815091 -0.7985137701 -0.37176015973
-0.63263970613 -0.71362030506 -0.29900288582
-0.722864151 -0.67082881927 -0.16556817293
-0.78183984756 -0.54776215553 -0.29683196545
-0.21437503397 -0.044805299491 0.97571319342
-0.16047757864 -0.044413994998 0.98603147268
-0.16520899534 0.017245555297 0.98608213663
-0.42322847247 -0.89585781097 0.13059669733
-0.26667359471 -0.95611053705 0.12114464492
-0.032559435815 0.99745935202 -0.062615849078
0.0043470524251 0.96756839752 -0.25220301747
-0.1957462728 0.9592423439 -0.20329065621
-0.19434469938 0.89371430874 -0.4043597281
-0.13847978413 0.069061599672 0.98792558908
-0.10345029831 0.023046953604 0.99434405565
0.85164141655 0.43856528401 -0.28268328309
0.69126027822 0.55480509996 -0.46102073789
0.73686373234 0.62602519989 -0.25390121341
0.79455465078 0.328756392 -0.51058888435
0.62165385485 0.411344558 -0.66476470232
-0.89477908611 -0.36682677269 -0.25433892012
-0.96697294712 -0.22535422444 -0.11951121688
-0.94657999277 -0.12673348188 -0.29427042603
-0.90294915438 -0.42691859603 -0.048137035221
-0.99196356535 -0.029855681583 -0.11987870187
-0.99800688028 0.042001824826 0.041839331388
-0.99123442173 -0.12096650153 0.052826046944
-0.97775572538 -0.027529070154 0.20635415614
-0.96064990759 -0.16292372346 0.2248776257
-0.95635479689 -0.29097867012 0.027716893703
0.59198057652 -0.80024248362 0.093934208155
0.69091325998 -0.72249412537 0.026336118579
0.67159098387 -0.71913164854 0.1782977879
0.59218847752 0.76963526011 0.23772107065
0.7041426301 0.67231953144 0.22841331363
0.65163481236 0.75044041872 0.11022528261
0.52545636892 0.77938449383 0.34117978811
0.38097831607 0.8975225091 -0.22007748485
0.23645624518 0.94668734074 -0.21859230101
0.34828084707 0.93564194441 -0.056931629777
0.507640481 0.8579646349 -0.076847665012
0.47618237138 0.87503069639 0.078774638474
0.1500928551 0.98502111435 -0.084511235356
0.2288454622 0.97136878967 0.062628336251
-0.82186359167 -0.55419480801 -0.13137540221
-0.50561136007 -0.019170116633 -0.86241227388
-0.7023050189 -0.12027835846 -0.70099055767
-0.67688006163 0.14333447814 -0.72198909521
-0.83486044407 0.032849844545 -0.54807090759
-0.79337435961 0.29719612002 -0.53124141693
-0.91377562284 0.16006855667 -0.37192812562
-0.87984907627 0.37549507618 -0.29092460871
0.91139578819 0.11170688272 0.3959415555
0.93017625809 0.19500944018 0.31003502011
0.95230364799 0.25583446026 0.15711571276
0.99152255058 0.10679604113 0.069732427597
0.7775785327 0.55930513144 0.28720229864
0.48384028673 -0.14517097175 0.86305451393
0.48850876093 -0.078756727278 0.86902141571
0.40525767207 -0.12596033514 0.90548437834
0.37948831916 -0.20514795184 0.90216463804
0.32917487621 -0.16626566648 0.92944735289
-0.68754982948 -0.28695374727 0.66649180651
-0.64957398176 -0.38276010752 0.65680426359
-0.60556560755 -0.32382261753 0.72691464424
0.10982892662 0.89399302006 0.43435567617
-0.013185830787 0.91577130556 0.40003323555
0.037509772927 0.85757815838 0.51292580366
0.1702273339 0.83619558811 0.52134150267
0.10025651753 0.78998559713 0.60473650694
0.25379022956 0.86799806356 0.42676708102
0.5544692874 -0.099320687354 0.82601064444
0.77226150036 -0.6069367528 0.18695114553
0.70669126511 -0.64279431105 0.29555696249
0.74673819542 0.66123747826 0.0677844733
0.79255956411 0.58939087391 0.15580095351
0.85745561123 0.47359213233 0.20087835193
0.29893517494 0.79850137234 0.52253621817
0.21103075147 0.77192783356 0.59967947006
0.76407414675 0.45791503787 0.45370402932
0.71784538031 0.42600461841 0.55065077543
0.78626006842 0.33439055085 0.5195915699
0.24711175263 0.62282323837 0.74232399464
0.2984559536 0.65925985575 0.69010180235
0.19804507494 0.69643944502 0.68953734636
0.35051995516 0.58689796925 0.72985082865
-0.70198941231 0.46452912688 0.53977417946
-0.72889238596 0.37484675646 0.57289457321
-0.64360457659 0.46030598879 0.6114397049
-0.59084886312 0.56217002869 0.57854866982
-0.57473194599 0.50431883335 0.64439857006
-0.0098599689081 -0.21326488256 0.97693628073
-0.038818266243 -0.16362777352 0.98576468229
-0.06073037535 -0.19839322567 0.97813057899
0.0080349631608 -0.15391685069 0.988052845
-0.38792741299 0.87223601341 -0.29776802659
-0.55740630627 0.8077133894 -0.19210809469
-0.43102687597 0.89177674055 -0.1355804503
-0.57021439075 0.73385423422 -0.36785295606
-0.56264293194 -0.25511232018 0.78632521629
-0.52809762955 -0.33638083935 0.77966994047
-0.62103283405 -0.20752935112 0.75551754236
-0.57568854094 -0.1669434607 0.80029171705
-0.9595361352 0.26961243153 -0.078899465501
-0.8972863555 0.43548250198 -0.071899361908
-0.57520073652 0.37066295743 -0.72833508253
-0.42675197124 0.22552113235 -0.87577307224
-0.78956067562 0.48952293396 0.36998984218
-0.81193953753 0.53062021732 0.24328657985
-0.86820787191 0.40947467089 0.27979701757
-0.78207135201 0.60256290436 0.15898659825
-0.84869885445 0.52210825682 0.07973946631
-0.72722059488 0.64076542854 0.24600620568
-0.93089944124 0.29420778155 0.21547874808
-0.93478947878 0.3486123383 0.065479114652
-0.9630023241 0.24785272777 0.10466082394
0.053592093289 -0.19523188472 0.97927933931
-0.58363616467 -0.424474895 0.69219624996
-0.80772328377 0.58641088009 -0.05970749259
0.91749000549 -0.12697920203 0.3761793375
0.37861555815 0.63261801004 0.67524981499
0.42943477631 0.57109999657 0.69887626171
-0.67669159174 0.21123249829 0.70515435934
-0.61984848976 0.16127789021 0.76794850826
-0.59763288498 0.25019103289 0.76173400879
-0.64915597439 0.29722696543 0.70017039776
-0.59426116943 0.34846335649 0.72485178709
0.72152155638 0.30891391635 0.61966598034
0.78491872549 0.23487339914 0.57324528694
0.67868691683 0.23958277702 0.69407814741
0.74263334274 0.21187356114 0.63520491123
0.62671047449 0.31961318851 0.71071618795
0.61067891121 0.21215419471 0.76280301809
-0.68485718966 0.0027092001401 0.72820568085
-0.65073311329 -0.091238722205 0.75365626812
-0.62119007111 -0.019985057414 0.78340554237
-0.12213969231 0.94633966684 0.29827481508
0.0072608008049 0.96731561422 0.25346839428
-0.11736594141 0.97602850199 0.18242111802
-0.6985129714 0.68712329865 -0.19964079559
-0.57893943787 0.81483078003 -0.020329032093
-0.69264394045 0.71940946579 -0.051167014986
-0.29667139053 0.46433901787 -0.83448785543
-0.40622591972 0.6515956521 -0.63948357105
-0.15002225339 0.66351377964 -0.73293352127
-0.019183252007 0.81229221821 -0.58279788494
-0.2355825156 0.78085261583 -0.57856881618
-0.38535001874 0.79436409473 -0.46958521008
-0.81896865368 0.53923457861 -0.19600452483
-0.72131431103 0.61391192675 -0.31981956959
0.64389431477 0.54069840908 0.54100751877
0.56735527515 0.58476024866 0.57895565033
0.5975998044 0.51592981815 0.61344462633
0.66831862926 -0.1814366132 -0.7213588953
0.77187860012 -0.32195001841 -0.54708385468
0.61032861471 -0.3892608881 -0.68984091282
0.23872222006 0.47638460994 -0.84615403414
0.0026579704136 0.52291846275 -0.85232055187
0.10420659184 0.66739159822 -0.73735904694
0.20660315454 -0.32158631086 0.92404764891
0.24583481252 -0.25940716267 0.93396580219
0.16735903919 -0.25539129972 0.95221728086
-0.93477141857 -0.11407447606 0.33638608456
-0.91361582279 -0.23105937243 0.33296564221
-0.88271987438 -0.1841159761 0.43213641644
-0.82191759348 -0.21845547855 0.52600193024
-0.83989554644 -0.30517619848 0.4479174614
-0.81760388613 0.05290286988 0.57320761681
-0.75987648964 0.087883032858 0.6440436244
-0.80812209845 0.16633746028 0.56494104862
0.34576663375 0.021877558902 0.93806821108
0.28717032075 0.053334712982 0.9563922286
0.31193161011 -0.025196528062 0.94976663589
0.73020708561 -0.30824941397 0.60943108797
0.79131758213 -0.31694272161 0.52230137587
0.77853423357 -0.22167813778 0.58713972569
0.83543896675 -0.21337290108 0.50613307953
-0.016869815066 -0.96677535772 -0.25238761306
0.13207925856 -0.9876717329 -0.078980207443
0.062800303102 -0.98890602589 0.13454313576
0.071196340024 0.059171378613 0.99569410086
0.11168698967 0.048163216561 0.99257600307
0.11485914886 0.10257916152 0.98805135489
0.17386716604 0.12351279706 0.97697860003
0.15941603482 0.059523571283 0.98540318012
0.23768638074 0.11571252346 0.96442270279
0.21942256391 0.055659733713 0.97403788567
[...]
CELL_DATA 2750
SCALARS cell_data_0 double
LOOKUP_TABLE default
1.24036850296e-07
5.69740135797e-08
7.4211394696e-08
1.4927587175e-08
4.27594099784e-08
2.73296121277e-08
4.43126864427e-08
1.36809796218e-08
6.92208636046e-08
5.01698898153e-08
3.14806129476e-09
1.05119490725e-08
1.04510330606e-07
6.90177030104e-08
8.08680457414e-08
8.7219637338e-08
2.92150761557e-08
1.84457985961e-08
3.14152545049e-08
1.74723121078e-08
1.98393283123e-08
1.23911130056e-07
1.3656040103e-07
1.9998828803e-08
3.22116382372e-08
3.63337276257e-08
7.38363828123e-09
7.24029934428e-09
3.46738308193e-08
5.71886511016e-09
1.58169138591e-08
2.8926961553e-08
1.95133505976e-08
2.53434727082e-09
1.66586333463e-08
6.85699308073e-09
3.03165913976e-08
6.96319533545e-09
5.14630954564e-08
2.32641472599e-08
1.3222879567e-07
2.00515730521e-08
4.51567378041e-08
1.97975989457e-08
7.10376234998e-08
8.14159603858e-09
2.68730755381e-08
1.26784959482e-08
3.40260572241e-08
9.52129035154e-08
5.0133444944e-08
1.64205368373e-08
1.21162643336e-07
7.30563945829e-08
5.53812557573e-08
1.30952754475e-07
1.1022225208e-08
4.21505086746e-08
2.70594481093e-09
1.09500059454e-07
8.11319432726e-08
7.46244445321e-09
1.84658699804e-08
1.65149458541e-09
3.44380209027e-08
1.10484612682e-08
1.60334394624e-08
7.41006849082e-08
1.89116365154e-07
5.52483121728e-08
3.93186577673e-08
1.66756587805e-08
7.12300745495e-08
4.90865519478e-08
7.06584501776e-08
1.33836672974e-08
6.72789181286e-10
4.55568738616e-09
3.82187119193e-08
1.43116539036e-08
3.40907346114e-08
3.55261533013e-10
1.31696695855e-07
1.54807117886e-08
6.07014931335e-08
3.36592264001e-08
3.68846495699e-08
2.28108812327e-08
5.18442941444e-08
5.52578472832e-09
1.08123148391e-08
1.18496811272e-08
2.38790012785e-08
2.1666958516e-08
2.14087377052e-08
3.09711959373e-08
1.36287037004e-08
4.96476808602e-08
2.55341550314e-08
1.18805301417e-08
2.50291590517e-08
2.50209677296e-08
1.42948101184e-08
7.61914986695e-08
1.59186023169e-08
2.79700223988e-08
8.34584353993e-08
7.51442368314e-08
6.82846076825e-08
1.32285301782e-08
1.45785398279e-08
4.1603884554e-08
9.59602743986e-08
2.38388901672e-08
6.135183557e-08
3.41062930529e-08
1.11140824355e-08
6.25339554359e-08
1.63649468592e-08
1.70501902194e-08
6.14991190847e-08
2.44128170413e-08
6.55243814036e-08
1.49438172982e-08
2.66108528014e-08
4.94960086307e-08
9.82013058235e-09
2.29770104823e-08
2.86378450774e-08
4.00688408858e-08
1.88648444226e-08
9.56510238679e-08
3.09576713319e-08
5.69613188012e-08
1.39133824391e-08
4.46398951334e-08
7.94429514844e-08
1.21910593238e-08
4.73736584497e-09
3.74112000462e-09
3.01907699033e-08
9.11967544149e-08
2.62286591464e-08
6.17350129133e-08
2.32551427053e-08
3.46811739967e-08
1.61061827512e-09
3.4876500919e-08
3.17538550684e-08
9.63940371655e-08
5.06856692558e-08
2.13453544551e-08
8.01034110539e-08
7.27860755443e-09
1.3592947156e-08
1.18381179375e-07
3.72362298507e-08
5.88246327129e-08
4.69188555777e-08
3.83069418903e-08
6.8517496659e-08
1.66165000591e-08
4.60221680023e-08
1.66982645932e-08
4.76285386354e-08
1.50602002095e-08
5.48754050605e-09
2.75781362219e-08
1.64630055563e-09
7.75478798449e-09
4.13257867311e-08
5.56554388385e-08
2.73710972911e-08
2.15944665119e-08
4.27348342835e-09
2.22023761791e-08
6.08327359221e-08
8.15775569907e-08
4.24347254065e-08
7.45231786966e-09
8.95727622593e-08
1.30362795358e-07
6.41103582953e-08
2.84834167474e-08
1.71942715348e-08
6.7318441892e-09
8.64834272682e-08
1.23378889317e-08
1.76724804472e-08
9.16165125242e-08
1.38363716984e-08
5.06459274698e-08
4.0385579491e-08
7.78687635078e-08
3.91020954062e-08
4.77501483852e-08
2.60824746664e-08
9.40192831905e-09
1.33657694994e-08
4.89669118327e-08
2.46940718142e-08
2.01951302222e-08
1.77339933034e-08
1.11424408902e-08
8.68949918084e-09
5.20500286229e-08
7.52132433313e-08
5.694574369e-08
7.61960634411e-09
1.08727555768e-08
2.65670572023e-08
8.3695633019e-09
2.29930027199e-08
4.08295320382e-08
9.02793001219e-08
6.85806115602e-10
4.54446756721e-08
6.73698687971e-08
4.12263189696e-08
2.92529010991e-09
1.140308212e-08
1.94163788725e-08
5.89129390841e-08
2.89654525418e-08
6.65799399758e-08
4.82711566754e-08
3.27961635297e-08
7.06649862537e-08
3.72358481222e-08
1.0796228693e-08
5.20219480223e-08
2.40166719563e-08
1.11091000264e-09
6.7855049115e-08
7.83296875574e-08
9.629940915e-08
1.19417164338e-08
9.83906891067e-09
3.42502591608e-08
2.68413772582e-08
2.69756915563e-10
5.30346102202e-08
6.20584127326e-08
1.02964367783e-09
6.74342291989e-10
2.80689718729e-08
5.45448516545e-08
3.37693114696e-08
6.47240871997e-09
8.00767951689e-10
2.92243387729e-08
7.53908808298e-08
3.92194291e-08
2.60335501427e-10
4.44705533796e-08
7.98991203023e-08
4.53385272224e-08
7.07626882164e-09
2.25476300388e-09
2.90327193708e-08
1.25175553068e-08
7.92909694363e-09
1.20265746587e-08
3.72936351596e-08
1.3624252884e-08
5.34796516743e-08
1.35999939988e-07
2.37405385162e-08
8.27439129544e-09
8.49604421709e-08
7.52225533463e-09
8.0601098839e-08
2.84626792322e-08
2.69429978687e-08
8.45172100618e-08
3.35393614612e-08
3.63223528672e-09
1.59867929129e-08
1.43412588949e-08
1.76439353822e-08
5.03197604589e-08
2.26637449397e-08
1.00865630822e-08
7.52372243184e-09
1.31803140525e-07
2.96709245957e-08
4.88474793581e-08
2.89001169355e-09
5.42639864055e-08
3.11563141639e-09
3.93773029367e-08
4.12735585223e-08
1.23176308412e-08
2.57637740052e-09
1.80911867825e-09
3.59725814498e-08
3.02238324024e-08
4.71708090293e-08
7.28213780062e-08
6.85674125046e-09
1.12563483465e-08
4.10559798889e-08
1.8796569451e-08
8.5398424389e-08
1.24611171934e-08
9.55151494779e-10
9.100947011e-09
1.91526296929e-08
5.5605139282e-08
1.05745991506e-08
7.08551810665e-09
5.05194898195e-09
1.52695061349e-08
3.59649156832e-08
5.11511493179e-08
9.16298738973e-09
4.37363882733e-09
2.32198018509e-08
1.36097668871e-07
4.8793954205e-08
3.3061039479e-08
4.13376017467e-08
2.93277345687e-08
1.04802957389e-08
7.67680455898e-10
6.4930980872e-09
5.37927169672e-08
4.09544727475e-08
1.27814382694e-08
8.46104240568e-08
5.58726131714e-08
9.36852159831e-09
4.94207264935e-08
4.38822650558e-08
2.67173726139e-08
5.40408212269e-08
3.44160283466e-08
7.839172711e-08
8.00996663303e-09
4.04404203394e-08
4.48722619187e-08
8.54612334276e-10
5.52090488714e-08
3.13177900084e-08
1.60555323864e-08
3.56015829004e-08
2.91718688291e-08
8.89880639994e-08
8.02301667488e-08
3.76037972849e-08
5.15990666279e-08
4.93670830395e-08
5.21822427793e-09
3.02780948853e-08
5.24258790174e-08
1.50906294032e-08
2.48101995516e-08
2.47975315693e-08
3.88381624912e-08
1.50048705413e-08
3.53942242325e-08
6.80838905854e-08
2.44272329314e-08
7.93378634302e-09
1.01707100838e-07
3.0327321343e-08
3.99905953278e-08
2.48811308768e-08
1.84531491287e-08
4.98847131022e-09
3.40007383865e-08
2.75004540298e-08
6.38150122043e-08
3.85800900084e-08
8.71502729504e-08
6.94438884636e-09
1.88521959577e-08
8.01047212484e-08
2.29316232113e-08
4.14933503872e-08
1.14507497008e-08
1.86348551564e-09
6.42188514534e-08
2.094893673e-08
5.63187988031e-08
4.5123936534e-08
2.77582646188e-08
1.64300425453e-08
1.32200527787e-07
7.27017003234e-08
9.78437876929e-08
8.75551601523e-08
1.73447556209e-08
1.03160177523e-08
1.38081050024e-07
8.33215504563e-08
2.52839240361e-08
7.87229468148e-08
3.11599419307e-08
5.33417975141e-08
8.27872941004e-08
2.20069762993e-08
2.71811911468e-08
4.61404840828e-08
3.99424174143e-08
9.09402137346e-09
2.18643385149e-08
5.20970477678e-08
1.16794919129e-07
1.24505336993e-08
4.76233027828e-08
4.49606883645e-08
1.28264423344e-09
1.35532262322e-07
2.39039919069e-08
1.68626982228e-08
6.3028324888e-08
2.94888363576e-08
4.04909462474e-08
5.90196248737e-09
2.22005302712e-09
1.03591783146e-08
4.199577776e-08
4.38339431739e-09
1.12079311924e-08
2.22361671461e-08
8.6026772381e-10
1.23933538751e-08
6.20333951716e-08
6.89405271592e-08
8.83795378911e-08
4.86164778968e-08
9.05749625542e-08
1.16210473084e-08
1.00371538894e-07
2.60569597542e-08
6.50921396141e-08
2.71858562453e-08
3.51307610683e-08
2.62257702229e-08
8.62553362608e-09
8.14390782413e-10
1.22965197127e-07
2.52942516299e-08
7.69128764622e-08
6.20880159571e-08
4.22772159759e-08
3.44390380341e-08
5.13427831808e-08
1.57526551497e-08
3.26602154061e-08
5.99299321501e-08
4.14223600326e-08
2.7416833137e-08
1.91209331208e-08
4.24396817175e-08
5.21112621631e-08
5.28528326095e-08
2.05335560762e-09
7.60040048346e-09
3.02413140286e-08
1.03512039566e-09
3.0913480346e-08
3.51493286064e-08
1.38930278395e-08
1.05225538318e-07
2.93056601577e-09
4.36965795596e-08
2.01993740241e-09
3.86987925019e-09
1.98545409193e-08
1.51794197008e-08
1.68105405215e-08
3.30585050259e-08
1.48355819151e-09
2.80644882984e-08
1.87674013596e-08
5.41511941674e-08
4.09668253415e-08
1.31071471247e-08
3.36832325264e-09
9.67128052823e-08
4.28134831689e-08
1.35304234335e-08
6.3955866295e-08
3.82400377074e-09
3.41995664705e-08
3.23607003951e-08
3.42836527939e-08
5.44977987405e-08
7.5983996857e-08
4.1702804454e-08
2.98102863462e-08
1.81319903545e-07
1.01087300258e-07
2.4094768747e-08
3.43822250701e-08
3.1827742985e-09
9.16699217637e-09
2.80504710278e-08
2.71505040819e-08
1.1037008769e-08
2.07376015229e-08
2.15624443983e-08
1.30173254391e-08
2.50186195731e-09
2.93641209757e-08
1.59417274982e-08
2.55832736391e-08
3.26588851781e-10
7.03971588975e-08
1.08229670221e-08
4.68580342497e-09
3.77647161939e-08
7.36998500599e-08
8.37755237236e-09
2.34159243081e-08
5.38063563058e-09
1.00485296795e-08
5.17938781788e-08
2.61821496274e-08
9.04560420997e-09
6.71815641216e-08
2.3881035348e-08
1.03412080434e-08
5.40790086895e-08
2.09257728137e-08
5.07355607313e-08
4.48088108409e-08
8.28796688774e-09
6.68653357624e-09
6.41326856509e-08
1.2497890757e-08
1.44548254611e-08
5.48586630779e-09
3.33635239867e-08
4.84376650617e-08
2.62431170193e-08
1.37730911636e-09
3.95471142584e-08
6.22762878407e-08
2.96824608962e-08
1.04989179611e-08
1.54284899416e-09
1.80225961696e-08
1.67105502263e-08
3.41979568902e-08
2.35611311458e-08
2.57538543613e-08
3.79831870517e-08
2.70191828319e-08
3.89465572803e-08
3.51231343023e-08
4.79235063491e-08
3.41074804446e-08
6.98890271288e-08
2.98211190096e-09
4.08675034879e-08
4.08238726665e-08
4.23859803561e-08
2.04544919478e-08
4.0922925565e-08
3.9039850937e-08
1.92300723627e-08
4.70539706138e-08
1.86337790642e-09
8.5218551e-09
2.07814990807e-08
1.42421861364e-10
1.35291226399e-08
1.23355651961e-08
2.33936701236e-08
4.8639419491e-08
8.51285249137e-09
8.35407813859e-08
2.71818209953e-08
6.03741702957e-08
2.28426911414e-08
3.2413580235e-08
2.858567125e-08
4.50458586511e-08
6.58317633964e-09
1.1993123168e-09
6.50533786595e-08
4.65952899229e-08
6.36333680558e-08
9.13450815457e-08
2.99687305156e-08
1.00623693938e-07
3.29757777228e-09
1.55154091909e-08
4.96316918978e-08
4.04520983906e-10
3.48586407809e-08
2.63135653386e-08
4.85921803374e-09
2.616215837e-08
1.45696282675e-08
5.85362297686e-09
3.25728037467e-08
6.60364141421e-08
1.60825639766e-07
7.15823935072e-08
1.71320679201e-08
6.49640007917e-08
1.34799611469e-07
4.87967513239e-08
1.45445673098e-08
1.05727595588e-08
3.22943356842e-08
1.4023309694e-08
2.54930343092e-08
1.25626884835e-08
6.15034458418e-08
4.01754899113e-08
5.54624747455e-09
9.65342949931e-09
3.91154319041e-08
9.53930890908e-08
9.07192584462e-09
1.12684107851e-08
1.19415907505e-09
5.57466197111e-08
7.14839687183e-09
3.45510621346e-08
5.59138405546e-08
1.39492254726e-08
6.68411429371e-08
1.06587325221e-07
2.33127028548e-08
2.38536861215e-09
3.09263297662e-08
3.25668756837e-08
3.17798290801e-08
3.00959719813e-08
4.09376308405e-08
1.78045143864e-08
6.23200112917e-09
1.01417304162e-08
2.38020880349e-08
2.32662528917e-08
2.78588950882e-09
2.00667386675e-09
5.62761505757e-09
7.30392514097e-09
5.89153129721e-09
3.46280847385e-08
1.41894685041e-08
1.36760355627e-08
2.64915607346e-08
3.92622357288e-08
4.86988745668e-09
4.87010412807e-08
1.75770100954e-08
2.21040963081e-08
3.39516568773e-08
1.03956375869e-07
2.47641914801e-08
3.14817626315e-08
1.34419069656e-08
3.36453845167e-08
6.78582332924e-09
7.00191008562e-08
1.38622442945e-08
5.33108907753e-08
1.43797715308e-08
2.53423790228e-08
2.02114695839e-08
4.4152599347e-08
2.5830368055e-08
1.22789259052e-07
6.61785711031e-08
4.61487013621e-08
5.08251976413e-08
7.71511163708e-09
6.32209087853e-09
1.76393302181e-09
2.80293317626e-08
2.58865718252e-08
3.9714680586e-08
5.92618043983e-08
1.30993703987e-08
1.10515143615e-08
5.99057043794e-08
2.77321873395e-08
1.69011179276e-07
4.70025669018e-08
7.21877165231e-09
5.31945682603e-10
1.17161519111e-08
6.04252820172e-08
3.86491669648e-08
7.36689459248e-08
4.56081260127e-09
3.56645561696e-08
4.68944464876e-08
1.11128692776e-08
2.69476060174e-08
3.27392044999e-09
5.28121585564e-08
9.71382234082e-08
3.07873133385e-08
1.08189646121e-07
8.66704312233e-09
5.8014988274e-09
5.93064689295e-08
3.23002532989e-08
1.04252544493e-07
2.203557838e-08
7.29685357476e-09
3.32203203316e-09
4.6855692619e-08
1.5135657461e-08
6.79178143621e-08
6.7067105523e-08
3.36784464267e-08
6.37102553553e-08
1.62386587958e-08
6.72329315379e-09
2.30397231456e-08
3.86294214546e-08
6.31699938441e-08
5.4073609274e-09
2.96912973937e-08
6.99836223334e-09
2.44458470432e-08
6.66411163547e-08
6.29291193539e-08
3.33931892041e-08
1.63713524035e-09
6.18114042309e-08
1.08235953238e-07
3.31504739216e-08
6.99431472426e-08
6.81334136935e-08
5.30702049017e-08
1.30485964026e-08
3.36951994832e-08
8.34208841892e-09
2.26467210272e-08
4.31596325056e-08
6.26394360081e-08
4.56939052003e-09
1.48022951786e-08
1.63780387094e-08
2.40831811896e-08
5.00032667105e-09
1.88812440311e-08
5.22726747757e-08
4.36466193259e-08
1.49593850429e-08
6.8615880398e-08
4.24143099247e-08
1.23803246166e-08
4.47828741252e-08
7.54959777262e-10
9.48217041655e-09
1.02504336063e-08
6.19079126439e-08
5.61288102186e-09
1.05283966155e-08
2.00253859902e-08
4.91396537762e-08
5.94933355882e-08
2.66314961585e-08
3.98187408215e-08
6.6642135257e-08
2.04579916861e-08
1.6107758301e-08
7.55799259187e-08
2.59758323732e-08
7.7035729184e-08
1.08641529395e-07
2.12642951487e-08
2.24349275723e-08
2.76291641751e-08
8.63549232726e-09
4.40609338839e-08
1.45445982427e-07
1.55522397492e-08
1.63861294101e-07
7.77084507263e-08
5.19910650173e-09
1.29370262369e-08
1.58399103536e-08
5.36577148369e-08
5.06938858017e-09
4.02478065382e-08
8.3204095203e-09
2.25059775875e-08
4.61029818595e-08
7.79380969783e-09
1.26464975543e-08
2.79564120044e-08
5.19160486278e-08
2.48132597922e-08
7.10283564676e-08
5.40163378249e-08
1.07703989612e-07
3.315046352e-08
1.40241669471e-08
1.29024821285e-08
5.70401066117e-08
1.49221639254e-08
7.78094470767e-09
4.15887656931e-08
5.43355571699e-08
4.02393274201e-09
7.84864875111e-09
1.43714461718e-08
8.34102734231e-09
3.08871274917e-08
1.17499038555e-08
2.63367944109e-08
2.16601782524e-08
3.35378859365e-08
7.88926884699e-09
4.38688614944e-09
2.75671519406e-08
3.07163198222e-08
4.85179147754e-08
2.52322336996e-08
4.87035567916e-08
6.17685366218e-08
6.59850095729e-08
4.20292366037e-08
1.40776178374e-08
1.11375546882e-09
4.5152708376e-08
1.2420752073e-08
6.04483225604e-08
5.46408363377e-08
3.88447530086e-08
1.43770727566e-08
4.72694244451e-09
3.22775003116e-08
5.38198783998e-09
1.92595981189e-08
4.8783992764e-08
4.5314830566e-10
2.39949128586e-08
4.08272753263e-08
2.5295601884e-08
2.59750383758e-08
8.3501247297e-09
1.30716521373e-08
3.77221357823e-08
5.16292787104e-09
3.25910432682e-09
1.18251959329e-09
3.43225436917e-08
1.09948555186e-08
4.27204183676e-09
9.11114389674e-09
1.40649077787e-08
9.32887484659e-09
1.63559233834e-08
3.34533454234e-08
3.41639129679e-08
3.67437024122e-09
2.93201797168e-09
1.19432751355e-08
5.00466526935e-08
1.56883289654e-08
4.85628070891e-09
7.25988268057e-09
4.89101950529e-08
3.07130761557e-08
1.00595067548e-08
2.50121828929e-08
1.0261011869e-09
2.39888073486e-08
4.25408555107e-08
1.150797267e-08
1.78877066677e-08
2.59673572052e-08
2.7835026955e-09
4.54434294456e-09
1.03457189444e-08
8.73715349639e-09
5.64200572155e-08
2.13166892651e-08
1.99598153277e-08
3.72606956124e-08
1.34450071917e-08
1.16361077982e-08
8.87439508436e-09
2.90054093179e-10
3.02037010952e-08
1.84715279995e-08
3.45651122077e-08
2.94026887573e-08
4.74033748062e-08
5.93616999856e-08
3.22728741045e-08
9.59959697565e-09
9.51235598297e-09
3.08956055582e-08
4.16298998151e-09
2.46359864717e-09
8.02950501738e-09
2.69375604554e-08
9.6266951921e-08
1.23113033299e-08
7.43748535631e-09
5.68789009054e-08
2.67041380305e-08
5.03073967172e-08
4.81488338621e-09
1.35221826067e-08
2.66853336706e-09
8.91976345767e-09
1.89147550608e-08
4.70936864757e-09
1.43237793852e-08
2.2429140245e-08
1.52853724225e-08
1.29258131437e-08
3.74168706072e-08
8.45606933597e-08
3.44773262549e-08
7.49740094852e-08
1.60770302665e-08
3.62605328488e-08
2.78901024723e-08
1.36940149047e-08
4.48614705501e-08
1.80687648647e-08
3.1195881578e-08
7.10058655961e-09
2.16834027512e-08
2.50170336434e-08
1.74786784823e-08
4.12798018566e-08
3.41403407373e-08
4.29405669009e-08
2.62094586549e-08
7.98984577245e-08
1.62803153152e-08
8.32325150538e-08
2.01385334221e-08
4.46044234918e-08
6.03804288909e-10
5.7759697295e-09
3.72936601843e-08
7.73590131537e-09
6.18496247174e-08
4.20057393605e-08
2.0034919193e-08
4.46785099809e-08
6.17418602717e-08
3.01075196605e-08
1.134980462e-08
6.26614058559e-09
1.480815808e-09
3.97478068235e-08
7.62696581981e-08
2.26430093764e-08
2.79095341023e-08
9.35341201063e-08
3.05950272851e-09
1.75375276082e-08
3.41645043593e-08
3.16654665661e-08
3.26330699062e-08
1.17519460493e-08
1.28478758882e-08
1.00320248849e-08
3.57932775105e-08
4.04481816971e-08
1.15235255205e-08
1.91448238974e-08
7.64743681461e-09
5.15180342089e-09
1.52405250025e-08
5.38591796795e-09
2.20119370431e-08
1.00307768556e-08
2.71158494908e-08
1.36174943844e-08
1.63584478176e-08
1.9209379832e-09
4.76543750564e-08
2.18225644843e-09
2.52677616594e-08
1.08682944147e-08
2.36460028277e-08
1.65164702756e-08
4.57646840425e-09
2.45451131497e-09
8.41845119661e-09
1.27904808235e-08
1.61987303801e-08
7.5448475682e-08
4.0679051082e-08
6.53735943033e-08
3.44687286881e-08
2.14968787148e-08
2.62493269993e-08
2.11853732774e-08
2.63717526019e-08
6.19862831013e-08
6.35627552287e-08
2.22580601028e-08
1.662812546e-08
3.69002627228e-08
4.54429105811e-08
2.0739268148e-08
1.77204099696e-08
1.72477986228e-08
1.04969183293e-08
4.28137239518e-08
4.64040623249e-08
3.55955086496e-08
2.9992554589e-08
3.28974822486e-08
3.79169946174e-08
1.84132058538e-09
1.38801998897e-09
8.70104042443e-09
1.98370465346e-08
4.53701946266e-08
2.29307860304e-08
5.59703306494e-08
1.04368461027e-08
9.70456259296e-09
3.66596738758e-08
6.81911296298e-08
2.58524946121e-08
3.19124282898e-08
1.89163141515e-09
4.62997718109e-08
4.3346786387e-08
9.77552536204e-09
2.28422434005e-08
1.74220531803e-08
3.52699915733e-09
8.47186324609e-09
7.37003396711e-09
2.95640294966e-08
2.99043828278e-08
4.84356811941e-08
5.40049997536e-08
3.36912675711e-08
3.59944673093e-08
6.99408202345e-09
4.60103294168e-08
7.02797483262e-08
4.4343793697e-08
2.61009047509e-08
1.48804870942e-08
2.7045370835e-08
5.82944168625e-08
5.69363577633e-08
3.09661607151e-09
2.56279301475e-08
1.02149373819e-08
3.38643314368e-09
8.57997965077e-09
2.72321674812e-09
2.45210141406e-08
5.57833117384e-08
9.85841843923e-09
2.15188370751e-08
5.48629925794e-08
4.96039219481e-09
7.27520288562e-09
6.07349464195e-09
8.64314828083e-09
8.95856129785e-09
6.6545602731e-09
2.29639858151e-08
2.9499098504e-08
3.25001948944e-08
1.66050389581e-08
2.36664711255e-08
1.96186861695e-08
2.76255707776e-08
5.82687820179e-08
4.51187705317e-08
3.21699019538e-08
3.78291661169e-08
3.39782223191e-08
4.59422273928e-09
2.4989520603e-10
1.47193347074e-08
4.75815093432e-08
2.2839173059e-08
3.29429055637e-09
4.40139391162e-08
5.84201265981e-11
1.38187481217e-08
2.89729216009e-09
3.32565766366e-08
3.20384622159e-08
2.90509725073e-08
1.93395240753e-08
1.57472226293e-08
1.74004879961e-08
6.69121672265e-08
4.55537533151e-08
2.54784288755e-09
5.43700130531e-10
5.98329303401e-09
1.55001170065e-08
1.11960087858e-08
1.3794217362e-08
8.93791076901e-09
2.8588799749e-08
6.1614841535e-09
3.73121057212e-09
5.05059123818e-08
3.03185239697e-09
1.11966015518e-08