# vtk DataFile Version 3.0
File Name: Molecule/sphere_excent/sphere_excent_0-s16.vtk
ASCII
DATASET UNSTRUCTURED_GRID
FIELD FieldData 1
TIME 1 1 double
0.0
POINTS 272 double
0.85910099745 -0.508271873 -0.035811781883
0.80419933796 -0.3080945611 -0.50844180584
0.99156928062 -0.0035883048549 -0.11934190243
0.81167519093 0.27557900548 -0.51237380505
0.52466624975 0.00087843625806 -0.85130053759
0.30802041292 -0.49748301506 -0.81098455191
8.355153841e-05 0.00048297614558 -0.99993145466
-0.269025594 -0.4851244092 -0.83124935627
0.0043388567865 -0.84888958931 -0.52878302336
-0.50962501764 -0.0055949087255 -0.8582778573
-0.019759204239 0.83684551716 -0.54603642225
-0.30921727419 0.4964979291 -0.81096524
-0.51738196611 0.77420598269 -0.36148488522
-0.79811024666 0.31970459223 -0.50924485922
0.52208435535 -0.76651364565 -0.37356197834
0.28323054314 0.49310737848 -0.82052081823
0.1536449343 -0.14249713719 0.97760236263
0.30164593458 -0.15493565798 0.94028043747
0.23207770288 -0.0012007192709 0.97262638807
0.22055974603 -0.30346003175 0.92681384087
-0.87598609924 -0.010044656694 0.48199507594
-0.73886716366 -0.16707511246 0.65095937252
-0.73371392488 0.11671981961 0.66921180487
-0.46886432171 0.35361149907 0.80898350477
-0.32426527143 0.37363156676 0.86899709702
-0.37584498525 0.53501158953 0.75655633211
0.29519736767 0.32332393527 0.89891886711
0.15714597702 0.26654100418 0.95089632273
0.30631828308 0.1631847173 0.93780463934
-0.67212289572 0.60407304764 0.42400103807
-0.5598372221 0.48499080539 0.67178422213
-0.47648227215 0.66119891405 0.57938843966
0.96362119913 -0.15245851874 0.21843774617
0.95707726479 0.14911623299 0.24443337321
0.89529252052 -0.00021211931016 0.44433757663
0.8501367569 -0.30706334114 0.42467725277
-0.84041666985 0.29259616137 0.45381569862
-0.95334786177 0.17133256793 0.24522396922
-0.95291960239 -0.17311280966 0.24622665346
-0.85126900673 -0.29205036163 0.43532133102
0.3747356236 0.70411521196 0.60229325294
0.35609066486 0.56165373325 0.74661296606
0.58520406485 0.50259947777 0.63612061739
0.69258117676 0.57949578762 0.42870137095
0.80457603931 0.33106958866 0.49109235406
0.12630790472 0.6640470624 0.73685657978
0.22003462911 0.75383400917 0.61818194389
-0.19968694448 0.59060323238 0.7816645503
-0.32279607654 0.67861300707 0.65950888395
-0.70535618067 0.36348611116 0.60849326849
-0.6125061512 0.25758695602 0.74731343985
-0.55704379082 0.04386202246 0.82891941071
0.47508239746 0.36936381459 0.79843473434
0.1447711885 -0.75809758902 0.63545292616
-0.020733224228 -0.85639166832 0.51591336727
0.24547883868 -0.87412452698 0.41918632388
0.42612025142 -0.73525160551 0.52682602406
0.51080393791 -0.80374187231 0.30211010575
0.35562163591 0.0090485531837 0.93455964327
0.64444231987 0.31052365899 0.698551476
0.70596569777 0.14334271848 0.69350242615
0.56372731924 0.18347533047 0.80531907082
0.5894626379 0.00025297421962 0.8075003624
0.4226218164 0.22975900769 0.87669694424
0.45968830585 0.086717016995 0.88383793831
0.45700800419 -0.065092533827 0.88634264469
-0.023975830525 -0.70660358667 0.70713800192
-0.19801689684 -0.71829611063 0.66690289974
-0.1903320998 -0.59381759167 0.78160560131
-0.37881210446 -0.56997531652 0.72888058424
0.57930916548 -0.43081358075 0.6917848587
0.71472889185 -0.4348026216 0.54778903723
0.70860487223 -0.22649547458 0.66642838717
0.5985442996 -0.62414127588 0.50202512741
0.72271496058 -0.59254932404 0.3542765379
-0.55788874626 -0.43770217896 0.70393967628
-0.55582094193 -0.63335001469 0.53824198246
-0.50987625122 -0.81072592735 0.2873698473
-0.69993472099 -0.61145251989 0.36800038815
-0.71915537119 -0.43987169862 0.53508937359
-0.51646143198 0.82667082548 0.22151319683
-0.45372754335 0.78088241816 0.42913687229
-0.24165579677 0.90073615313 0.36024916172
-0.28533259034 0.79386544228 0.53710103035
-0.045916415751 0.72676301003 0.6851747036
-0.18277344108 0.70584607124 0.68416786194
-0.065904654562 0.63403207064 0.77043765783
-0.10764503479 0.80614060163 0.581425488
0.065134368837 0.78710216284 0.61325699091
-0.26459744573 -0.94929087162 0.16895149648
-0.24625940621 -0.88930642605 0.38521909714
-0.0021964753978 -0.96347081661 0.2677641511
-0.012726958841 -0.99911987782 -0.03904510662
0.26937910914 -0.94696259499 -0.17508985102
0.50774395466 -0.85986685753 -0.046102628112
0.27250254154 -0.9526489377 0.13543914258
-0.12554356456 0.25130927563 0.95958834887
0.0077765388414 0.26279395819 0.96481871605
-0.054552655667 0.35485041142 0.93331921101
0.065613940358 0.36064198613 0.93037986755
0.034322597086 0.46868345141 0.88266456127
-0.058607209474 0.17931620777 0.98204302788
0.059430513531 0.15330316126 0.98638564348
-0.29290288687 -0.45759883523 0.83949297667
-0.42332628369 -0.41724389791 0.80417668819
-0.34669744968 -0.32158014178 0.88111329079
-0.19367320836 -0.35292518139 0.91536617279
-0.47848668694 -0.2670558989 0.83644109964
0.117492266 0.035846412182 0.9923760891
0.0096570178866 0.035271972418 0.99931365252
0.17765414715 0.13228400052 0.97515696287
-0.3521887362 -0.17939344049 0.91841489077
-0.20156486332 0.33381348848 0.92081856728
-0.22579355538 0.4751676321 0.85039615631
-0.11319608986 0.43942946196 0.8910998702
0.17353852093 0.41255822778 0.89421337843
-0.2228449434 0.18872925639 0.95621317625
-0.31477573514 0.22583481669 0.92171525955
-0.081369161606 0.5379974246 0.83897078037
0.043021954596 0.57490170002 0.81709480286
0.17808687687 0.53142827749 0.82816755772
-0.87074315548 -0.49142098427 -0.016778582707
-0.73038589954 -0.66778278351 -0.13871403039
-0.69542741776 -0.70872026682 0.11862742901
-0.50384891033 -0.86270815134 0.030132520944
-0.26085162163 -0.24620075524 0.93340188265
-0.23136864603 -0.147666201 0.96158790588
-0.15832340717 -0.2350243181 0.95900481939
-0.11234461516 -0.13632340729 0.98420596123
-0.072724469006 -0.43395483494 0.89794415236
-0.032772742212 -0.28404849768 0.9577755928
0.0013506803662 -0.13962861896 0.99015420675
-0.043412789702 -0.050662577152 0.99776339531
0.046620566398 -0.050972729921 0.99754852057
0.34664273262 -0.31469103694 0.88363242149
0.48903492093 -0.27036094666 0.82881104946
0.41568422318 -0.4150211513 0.80926007032
0.32683628798 -0.54285871983 0.77360373735
0.27445206046 -0.43390980363 0.85810577869
0.30126446486 0.45167267323 0.8397654295
-0.36876291037 -0.70629495382 0.60431754589
-0.2472948283 -0.80603182316 0.53773546219
-0.40665477514 -0.78135824203 0.47348538041
-0.055362727493 -0.56853365898 0.82069861889
-0.16937568784 -0.47910025716 0.86122310162
0.060814674944 -0.51819014549 0.85304278135
0.10360781848 -0.63680630922 0.76398080587
-0.0070684673265 0.99970972538 0.0072122970596
-0.26224896312 0.94804054499 -0.17941322923
-0.2748093605 0.95643723011 0.098455093801
-0.52627241611 0.84778630733 -0.04980263859
-0.77594316006 0.58926677704 0.21562163532
-0.84677433968 0.52911090851 0.0017964576837
-0.43921497464 -0.082977816463 0.89450645447
-0.3824800849 0.019726185128 0.92373031378
-0.3096986711 -0.067332096398 0.94837832451
-0.25449869037 0.019201856107 0.96676999331
0.10755924881 -0.32273676991 0.93990331888
0.1458247602 -0.42949658632 0.89116108418
0.03879642114 -0.40152597427 0.91499352455
-0.42269971967 0.12690375745 0.89731264114
-0.50429171324 0.19200752676 0.84184503555
-0.40970057249 0.25533264875 0.87568610907
-0.30638387799 0.10960830748 0.94552898407
0.43485054374 0.78389376402 0.44227951765
0.55094242096 0.67098337412 0.49619716406
0.61550760269 0.7078307271 0.34554341435
0.24518714845 -0.64815932512 0.72092759609
0.37538015842 -0.63593477011 0.67428708076
0.29591110349 -0.73341655731 0.61184579134
0.19335448742 -0.54323846102 0.81700330973
0.44851157069 -0.52167916298 0.72576534748
0.49639859796 -0.59880781174 0.62858599424
0.032479126006 0.97067922354 0.2364859879
-0.04602253437 0.098104760051 0.99409794807
-0.094019308686 0.029197532684 0.99503588676
-0.13149787486 0.094201415777 0.98677933216
-0.19631913304 -0.060092728585 0.97861254215
0.43044281006 0.68226140738 -0.59088504314
0.25758934021 0.86810553074 -0.42367887497
0.023845883086 0.96190643311 -0.27174270153
0.25807011127 0.94774907827 -0.18593341112
-0.25430959463 -0.94259113073 -0.21433618665
-0.46104225516 -0.80889046192 -0.36318516731
-0.58231043816 -0.42504665256 -0.69300806522
-0.41231334209 -0.68092942238 -0.60522007942
-0.65410989523 -0.59147852659 -0.47132882476
-0.8091045022 -0.29135194421 -0.50995582342
-0.60362315178 -0.21853321791 0.76663923264
-0.63993453979 -0.072962000966 0.7647228241
-0.54299384356 -0.12421984971 0.83051604033
-0.88268983364 -0.40734130144 0.23385848105
0.8047516942 -0.1000071913 0.58468383551
0.72490602732 -0.025687362999 0.68836289644
0.80691277981 0.073083296418 0.58368259668
0.89773088694 0.24304822087 0.36694687605
-0.80546087027 -0.55673861504 0.20365457237
-0.79924285412 -0.46316644549 0.38283085823
-0.47868439555 -0.86164718866 -0.16867870092
-0.29447409511 -0.95509380102 -0.030075654387
-0.61639869213 -0.78280621767 -0.084989868104
-0.61553043127 -0.74008089304 -0.27035546303
-0.77964782715 -0.53431260586 -0.32576560974
-0.17254596949 0.023886714131 0.98471438885
-0.12158917636 -0.04211081937 0.9916882515
-0.14996829629 0.16592103243 0.97466009855
-0.21359492838 0.099941641092 0.97179281712
0.8618336916 0.43392670155 -0.26214614511
0.85541653633 0.51798659563 0.0030693123117
0.71151953936 0.68300783634 -0.16440923512
0.68876898289 0.5799216032 -0.43531155586
0.52099269629 0.78830170631 -0.32679882646
0.58476090431 0.42613765597 -0.69027376175
0.80229991674 0.58689844608 0.10614384711
0.52469259501 0.84863722324 -0.063231706619
0.67499452829 0.73226815462 0.08522401005
0.46129965782 0.86993151903 0.16925129294
0.24058957398 0.9632948637 0.11735846102
0.26961147785 0.91056060791 0.31161630154
0.079852037132 0.89252954721 0.44292098284
-0.88721245527 -0.38317540288 -0.25597795844
-0.93892008066 -0.14691066742 -0.31077587605
-0.96587383747 -0.2480815351 -0.07340696454
-0.99291813374 0.018043853343 -0.11687077582
0.55422252417 -0.13747492433 0.82095181942
0.64611244202 -0.11481987685 0.75454717875
0.60394519567 -0.23411132395 0.76164406538
-0.97276139259 -0.0011206421768 0.23179200292
-0.99393224716 0.083338990808 0.071518912911
-0.9934207201 -0.091078437865 0.06624173373
-0.95700997114 0.28383460641 -0.055892281234
-0.94382244349 -0.31350424886 0.10331214219
0.69825053215 -0.69785511494 0.15232984722
0.5383617878 -0.8332260251 0.1263346225
0.70063865185 -0.71337544918 -0.018585244194
0.80639493465 -0.56571894884 0.17113862932
0.56048280001 0.79027426243 0.24690291286
0.73451536894 0.64381563663 0.20542800426
0.44180044532 0.840092659 0.31378188729
0.52333027124 0.76638537645 0.37255188823
0.27138033509 0.85157865286 0.44818729162
0.40130952001 0.88654434681 -0.22955104709
0.36968967319 0.92885839939 -0.0038591320626
0.15496131778 0.98532313108 -0.07038731128
-0.6963365674 -0.14455881715 -0.70294493437
-0.68870359659 0.15869823098 -0.70724117756
-0.84642612934 0.012295888737 -0.53229415417
-0.93205487728 0.17002214491 -0.31980833411
-0.86063915491 0.43539986014 -0.26399746537
-0.77819794416 0.45624345541 0.43089944124
-0.87657630444 0.42172011733 0.22962008417
0.87895041704 -0.42593172193 0.21303369105
0.99367624521 0.088649094105 0.069550149143
0.86586177349 0.43053779006 0.25367423892
0.9323413372 0.33559983969 0.13032060862
0.96070218086 0.27411872149 -0.045601978898
0.79274010658 0.50581246614 0.33937323093
0.47046354413 -0.16597113013 0.86671566963
0.40277770162 -0.21077632904 0.89068126678
0.38766428828 -0.11672119796 0.9143589735
0.80087482929 -0.45674744248 0.38654476404
-0.64798796177 -0.4319614768 0.62744766474
-0.73179042339 -0.31146198511 0.60551857948
-0.65955889225 -0.31156146526 0.68405520916
-0.076388351619 0.90674871206 0.41432860494
-0.015200553462 0.85596913099 0.51657342911
-0.16695180535 0.86142104864 0.4796102643
0.1657512486 0.83019393682 0.53215360641
0.057500798255 -0.21555651724 0.97475814819
0.044229522347 -0.29531422257 0.95445495844
0.12170314789 -0.23970970511 0.96317762136
0.3142657578 0.78773850203 0.5296676755

CELLS 540 2160
3 0 1 2
3 1 3 2
3 1 4 3
3 4 5 6
3 5 7 6
3 5 8 7
3 6 7 9
3 10 11 12
3 11 13 12
3 4 1 5
3 1 14 5
3 1 0 14
3 5 14 8
3 4 6 15
3 6 11 15
3 6 9 11
3 15 11 10
3 16 17 18
3 16 19 17
3 20 21 22
3 23 24 25
3 26 27 28
3 29 30 31
3 31 30 25
3 2 32 0
3 33 34 32
3 32 34 35
3 36 37 20
3 20 38 39
3 21 20 39
3 25 30 23
3 40 41 42
3 43 42 44
3 45 41 46
3 25 47 48
3 36 22 49
3 22 50 49
3 22 51 50
3 49 50 30
3 52 42 41
3 29 49 30
3 20 22 36
3 30 50 23
3 53 54 55
3 56 55 57
3 17 58 18
3 18 58 28
3 44 59 60
3 59 61 60
3 59 52 61
3 60 61 62
3 28 63 26
3 26 63 52
3 52 63 61
3 63 64 61
3 63 28 64
3 61 64 62
3 62 64 65
3 64 58 65
3 64 28 58
3 52 59 42
3 42 59 44
3 54 66 67
3 66 68 67
3 67 68 69
3 70 71 72
3 72 71 35
3 71 73 74
3 71 70 73
3 74 73 57
3 75 76 69
3 77 76 78
3 76 79 78
3 80 81 82
3 81 83 82
3 81 31 83
3 31 81 29
3 29 81 80
3 84 85 86
3 85 84 87
3 84 88 87
3 84 45 88
3 85 48 47
3 25 48 31
3 31 48 83
3 87 83 85
3 48 85 83
3 53 66 54
3 57 73 56
3 77 89 90
3 89 91 90
3 89 92 91
3 90 91 54
3 14 93 8
3 8 93 92
3 14 94 93
3 94 95 93
3 93 95 92
3 96 97 98
3 97 99 98
3 97 27 99
3 98 99 100
3 96 101 97
3 101 102 97
3 97 102 27
3 69 103 104
3 103 105 104
3 103 106 105
3 104 105 107
3 18 108 16
3 109 108 102
3 108 110 102
3 108 18 110
3 102 110 27
3 69 104 75
3 75 104 107
3 107 105 111
3 24 112 113
3 112 98 114
3 112 96 98
3 114 98 100
3 99 27 115
3 96 112 116
3 117 112 24
3 27 110 28
3 28 110 18
3 47 118 86
3 118 119 86
3 118 100 119
3 86 119 45
3 41 45 120
3 100 118 114
3 118 113 114
3 118 47 113
3 114 113 112
3 24 113 25
3 113 47 25
3 92 95 91
3 55 95 57
3 54 91 55
3 55 91 95
3 68 103 69
3 47 86 85
3 84 86 45
3 121 122 123
3 123 124 77
3 111 125 126
3 125 127 126
3 125 106 127
3 126 127 128
3 106 129 130
3 128 127 130
3 130 127 106
3 130 131 128
3 128 131 132
3 131 133 132
3 131 16 133
3 132 133 109
3 19 134 17
3 135 136 70
3 137 136 138
3 136 134 138
3 136 135 134
3 138 134 19
3 100 115 120
3 115 139 120
3 115 26 139
3 120 139 41
3 41 139 52
3 139 26 52
3 78 123 77
3 67 140 141
3 140 142 141
3 140 76 142
3 141 142 90
3 68 143 144
3 143 129 144
3 143 145 129
3 144 129 106
3 145 143 146
3 66 143 68
3 76 140 69
3 69 140 67
3 77 124 89
3 109 133 108
3 108 133 16
3 106 125 105
3 105 125 111
3 26 115 27
3 99 115 100
3 100 120 119
3 119 120 45
3 90 142 77
3 77 142 76
3 67 141 54
3 141 90 54
3 68 144 103
3 103 144 106
3 147 148 149
3 148 150 149
3 148 12 150
3 149 150 80
3 12 148 10
3 80 150 151
3 150 12 152
3 51 153 154
3 153 155 154
3 153 111 155
3 154 155 156
3 19 157 158
3 157 159 158
3 158 159 145
3 111 153 107
3 51 160 161
3 160 162 161
3 160 117 162
3 161 162 23
3 23 162 24
3 24 162 117
3 156 163 154
3 163 160 154
3 163 117 160
3 154 160 51
3 164 40 165
3 166 165 43
3 43 165 42
3 42 165 40
3 51 161 50
3 50 161 23
3 137 167 168
3 167 169 168
3 167 53 169
3 168 169 56
3 56 169 55
3 55 169 53
3 145 146 170
3 146 167 170
3 146 53 167
3 170 167 137
3 137 168 171
3 168 172 171
3 168 56 172
3 171 172 70
3 147 149 173
3 82 149 80
3 53 146 66
3 66 146 143
3 70 172 73
3 73 172 56
3 101 174 102
3 174 109 102
3 109 174 175
3 174 176 175
3 174 101 176
3 145 170 158
3 138 170 137
3 19 158 138
3 138 158 170
3 156 155 177
3 126 155 111
3 109 175 132
3 145 159 129
3 129 159 130
3 137 171 136
3 136 171 70
3 15 10 178
3 179 180 181
3 179 10 180
3 92 182 8
3 8 182 183
3 7 184 9
3 7 185 184
3 185 186 184
3 185 183 186
3 184 186 187
3 183 185 8
3 8 185 7
3 107 188 75
3 21 188 189
3 188 190 189
3 188 107 190
3 189 190 51
3 38 191 39
3 34 192 35
3 35 192 72
3 62 193 60
3 21 189 22
3 22 189 51
3 60 194 44
3 44 194 195
3 34 194 192
3 194 193 192
3 194 60 193
3 192 193 72
3 121 196 191
3 196 197 191
3 196 78 197
3 191 197 39
3 39 197 79
3 79 197 78
3 183 182 198
3 182 199 198
3 182 92 199
3 198 199 124
3 122 200 123
3 200 124 123
3 122 201 200
3 201 198 200
3 201 183 198
3 200 198 124
3 183 201 186
3 201 202 186
3 201 122 202
3 186 202 187
3 202 122 121
3 128 177 126
3 126 177 155
3 156 177 203
3 177 204 203
3 177 128 204
3 203 204 175
3 78 196 123
3 123 196 121
3 124 199 89
3 89 199 92
3 147 180 148
3 148 180 10
3 51 190 153
3 153 190 107
3 163 116 117
3 117 116 112
3 96 116 205
3 116 206 205
3 116 163 206
3 205 206 176
3 156 203 206
3 176 203 175
3 176 206 203
3 156 206 163
3 96 205 101
3 101 205 176
3 175 204 132
3 132 204 128
3 3 207 2
3 208 207 209
3 207 210 209
3 207 3 210
3 209 210 211
3 3 212 210
3 212 178 210
3 212 15 178
3 210 178 211
3 15 212 4
3 4 212 3
3 208 209 213
3 209 214 215
3 209 211 214
3 215 214 216
3 216 217 218
3 217 173 218
3 217 147 173
3 218 173 219
3 187 220 221
3 220 222 221
3 220 121 222
3 221 222 223
3 62 224 225
3 224 226 225
3 224 135 226
3 225 226 72
3 72 226 70
3 70 226 135
3 37 227 20
3 227 38 20
3 37 228 227
3 228 229 227
3 228 223 229
3 227 229 38
3 228 37 230
3 38 229 231
3 229 222 231
3 229 223 222
3 231 222 121
3 65 224 62
3 82 173 149
3 57 232 74
3 94 233 95
3 233 57 95
3 57 233 232
3 233 234 232
3 233 94 234
3 232 234 235
3 0 234 14
3 234 94 14
3 216 236 215
3 236 237 215
3 236 166 237
3 43 237 166
3 216 238 236
3 238 239 236
3 238 164 239
3 236 239 166
3 166 239 165
3 165 239 164
3 219 240 218
3 240 238 218
3 240 164 238
3 218 238 216
3 211 178 179
3 179 178 10
3 211 241 214
3 241 242 214
3 241 181 242
3 214 242 216
3 181 243 242
3 243 217 242
3 243 147 217
3 242 217 216
3 181 241 179
3 179 241 211
3 147 243 180
3 180 243 181
3 38 231 191
3 191 231 121
3 62 225 193
3 193 225 72
3 121 220 202
3 202 220 187
3 9 244 245
3 244 246 245
3 244 187 246
3 245 246 13
3 13 247 248
3 247 230 248
3 247 223 230
3 248 230 152
3 9 245 11
3 11 245 13
3 13 248 12
3 12 248 152
3 36 249 250
3 249 151 250
3 249 29 151
3 250 151 152
3 152 151 150
3 151 29 80
3 35 251 32
3 32 251 0
3 2 252 32
3 252 33 32
3 33 195 34
3 34 195 194
3 44 195 253
3 195 254 253
3 195 33 254
3 253 254 208
3 208 254 255
3 254 252 255
3 254 33 252
3 255 252 2
3 36 250 37
3 37 250 230
3 44 256 43
3 43 256 237
3 29 249 49
3 49 249 36
3 135 257 258
3 257 259 258
3 257 65 259
3 258 259 17
3 17 259 58
3 58 259 65
3 35 260 251
3 260 235 251
3 260 74 235
3 251 235 0
3 74 260 71
3 71 260 35
3 75 261 76
3 76 261 79
3 79 262 39
3 39 262 21
3 79 261 262
3 261 263 262
3 261 75 263
3 262 263 21
3 219 264 265
3 264 266 265
3 264 82 266
3 265 266 87
3 219 265 267
3 88 265 87
3 88 267 265
3 219 267 240
3 40 46 41
3 45 46 88
3 87 266 83
3 83 266 82
3 130 268 131
3 131 268 16
3 135 258 134
3 134 258 17
3 157 269 159
3 269 130 159
3 130 269 268
3 269 270 268
3 269 157 270
3 268 270 16
3 16 270 19
3 19 270 157
3 187 244 184
3 184 244 9
3 21 263 188
3 188 263 75
3 208 255 207
3 207 255 2
3 13 246 247
3 221 246 187
3 223 247 221
3 221 247 246
3 152 230 250
3 228 230 223
3 65 257 224
3 224 257 135
3 82 264 173
3 173 264 219
3 0 235 234
3 232 235 74
3 237 213 215
3 215 213 209
3 208 213 253
3 213 256 253
3 213 237 256
3 253 256 44
3 240 271 164
3 164 271 40
3 40 271 46
3 271 267 46
3 271 240 267
3 46 267 88

CELL_TYPES 540
5
5
5
5
5
5
5
5
5
5
5
5
5
5
5
5
5
5
5
5
5
5
5
5
5
5
5
5
5
5
5
5
5
5
5
5
5
5
5
5
5
5
5
5
5
5
5
5
5
5
5
5
5
5
5
5
5
5
5
5
5
5
5
5
5
5
5
5
5
5
5
5
5
5
5
5
5
5
5
5
5
5
5
5
5
5
5
5
5
5
5
5
5
5
5
5
5
5
5
5
5
5
5
5
5
5
5
5
5
5
5
5
5
5
5
5
5
5
5
5
5
5
5
5
5
5
5
5
5
5
5
5
5
5
5
5
5
5
5
5
5
5
5
5
5
5
5
5
5
5
5
5
5
5
5
5
5
5
5
5
5
5
5
5
5
5
5
5
5
5
5
5
5
5
5
5
5
5
5
5
5
5
5
5
5
5
5
5
5
5
5
5
5
5
5
5
5
5
5
5
5
5
5
5
5
5
5
5
5
5
5
5
5
5
5
5
5
5
5
5
5
5
5
5
5
5
5
5
5
5
5
5
5
5
5
5
5
5
5
5
5
5
5
5
5
5
5
5
5
5
5
5
5
5
5
5
5
5
5
5
5
5
5
5
5
5
5
5
5
5
5
5
5
5
5
5
5
5
5
5
5
5
5
5
5
5
5
5
5
5
5
5
5
5
5
5
5
5
5
5
5
5
5
5
5
5
5
5
5
5
5
5
5
5
5
5
5
5
5
5
5
5
5
5
5
5
5
5
5
5
5
5
5
5
5
5
5
5
5
5
5
5
5
5
5
5
5
5
5
5
5
5
5
5
5
5
5
5
5
5
5
5
5
5
5
5
5
5
5
5
5
5
5
5
5
5
5
5
5
5
5
5
5
5
5
5
5
5
5
5
5
5
5
5
5
5
5
5
5
5
5
5
5
5
5
5
5
5
5
5
5
5
5
5
5
5
5
5
5
5
5
5
5
5
5
5
5
5
5
5
5
5
5
5
5
5
5
5
5
5
5
5
5
5
5
5
5
5
5
5
5
5
5
5
5
5
5
5
5
5
5
5
5
5
5
5
5
5
5
5
5
5
5
5
5
5
5
5
5
5
5
5
5
5
5
5
5
5
5
5
5
5
5
5
5
5
5
5
5
5
5
5
5
5
5
5
5
5
5
5
5
5
5
5
5
5
5
5
5
5
5
5
5
5
5
5
5
5
5
5
5
5
5
5
5
5
5
5
5
5

CELL_DATA 540
SCALARS cell_data_0 double
LOOKUP_TABLE default
7.92861483589e-07
5.7706789712e-07
7.43584528215e-07
3.59445388707e-07
4.87502125954e-07
2.225197207e-07
1.13375597922e-07
3.63088348332e-07
1.44226523441e-06
7.74499565372e-08
2.97378712195e-07
8.51321337241e-07
6.08242001756e-08
1.86983735203e-07
6.5748357148e-07
3.47009622565e-08
1.6667371644e-07
7.44197448384e-07
8.42073980821e-07
6.26269511083e-07
6.04062345419e-07
6.05167587798e-07
4.47680466996e-09
2.36987758776e-08
1.91813576834e-06
7.89959567987e-08
2.18906774752e-07
4.59911064229e-07
5.91361345399e-07
4.40193878826e-07
1.35452639216e-07
3.31287460303e-07
1.29584602137e-06
1.67175649089e-06
4.36707739293e-07
3.72048943414e-07
8.14757888754e-07
9.25107292665e-07
7.7418257534e-08
1.58094728747e-07
1.25215341103e-06
2.68082021921e-07
5.54400631387e-07
2.53878963461e-07
1.41108915068e-07
7.11968229523e-07
1.95111743385e-07
5.39474596877e-07
5.93732582797e-07
5.72896107207e-07
4.46517322059e-07
7.2662003449e-07
4.28725482867e-07
3.98604650484e-07
1.25256235785e-07
5.21155331439e-08
4.24699686234e-09
2.77888422083e-07
2.619417997e-07
2.62077621502e-07
1.01380457568e-06
6.78268708268e-07
3.92446643113e-07
3.23708761389e-08
2.36824694866e-07
2.14484995884e-07
2.47800236018e-07
1.065203142e-07
3.51046787434e-07
1.77104608661e-07
8.16172967016e-07
3.95970744252e-07
2.88612054084e-07
1.08250883496e-07
2.66207461078e-07
2.27570101438e-07
1.12620353697e-07
3.47309982132e-07
1.55957314817e-07
7.72673712274e-08
2.01748915748e-07
7.07722921561e-09
6.36729530037e-08
1.19583519095e-07
2.18867110003e-07
2.51567469188e-07
5.38341390737e-08
1.27169998933e-07
5.15269945261e-08
2.72686506619e-07
3.86211944324e-07
1.49706734528e-07
9.67637396836e-08
9.00939174786e-10
5.5056855207e-07
7.45978764026e-07
2.25403082162e-07
5.36710139247e-07
3.11825259872e-07
3.60602763957e-07
4.38217032444e-08
1.64073740158e-07
8.6741192109e-09
2.47209537517e-07
5.56593634872e-07
4.08739940133e-07
5.19455332928e-08
5.87416191117e-07
3.49825240893e-07
9.01255369884e-07
2.57621987196e-07
5.34562168031e-07
1.18237603163e-06
4.1662611536e-09
2.51719001341e-08
9.33207510977e-08
1.8183599294e-07
3.94391026949e-07
1.7087993459e-07
2.4565442897e-08
4.21543283331e-07
1.40849733796e-07
1.95892542304e-07
2.62141608664e-07
2.80931706798e-07
9.10951257354e-07
1.66793481156e-07
1.155882202e-07
7.73532029093e-08
1.75997758139e-07
5.75546318493e-07
2.31190363766e-07
1.47155666814e-07
3.00696970643e-07
1.27734084831e-07
2.51268199831e-07
1.57528413861e-07
8.26006601848e-08
4.78325123769e-07
2.3012470573e-07
2.28283506447e-07
1.53075994113e-07
7.98029921543e-08
4.91270526064e-07
2.54995090529e-07
3.04085236025e-07
1.68044998798e-07
2.29212985945e-07
4.09312792601e-07
3.91116540376e-07
7.82654883761e-07
1.95913945464e-07
7.98191824274e-08
1.18614381741e-06
1.91971468447e-07
5.96114757971e-07
4.62732740835e-08
3.62377691248e-07
4.4983091878e-07
2.82667699945e-07
2.3030866292e-07
3.80978097156e-08
1.19893447793e-07
2.887816712e-07
3.87427731635e-07
2.01156389954e-07
3.07724329606e-08
7.59128721837e-07
8.36054857687e-08
5.83789398225e-07
2.62591214388e-07
1.6472337943e-07
9.96839918192e-08
6.84971720658e-08
1.57277303689e-07
1.12297203903e-07
4.49228899658e-09
2.3953160478e-07
3.54077864234e-07
1.49940658862e-07
2.31689911311e-07
3.67364965554e-07
3.98494577649e-07
1.71989238878e-07
6.90077546448e-07
1.21532813512e-06
3.48120391676e-07
9.50532115705e-08
2.16491026218e-07
2.02588647761e-08
5.64622374766e-08
5.26496220662e-07
2.28359841612e-07
1.74008896637e-07
3.95738089019e-07
1.15361148887e-07
6.21789910151e-08
1.7256047881e-07
5.1020498473e-08
2.49797053124e-08
1.42220080402e-06
5.00091932452e-07
7.0249410692e-07
9.51086902643e-07
4.89007917134e-07
5.50913747573e-07
5.32745786556e-07
1.48411570021e-07
9.7668655373e-08
6.2529031676e-08
2.90058865938e-08
8.90504888564e-09
7.1230418837e-07
5.06800388052e-07
8.01265728854e-08
3.4274899532e-07
2.47957315259e-08
3.35322020839e-07
9.95356126618e-08
2.56882512361e-07
2.47781576049e-07
4.24233151574e-07
4.38654282617e-07
1.24632738789e-07
8.81969154093e-08
7.62107078773e-07
1.03000968501e-06
2.20357173038e-07
6.1469106622e-08
1.40257451674e-08
6.50911575015e-08
1.93529444458e-08
1.15489391493e-07
3.12345410884e-08
5.29564858991e-08
1.58534556574e-07
9.3067185227e-09
1.32984580899e-07
1.24932863826e-07
1.20554499067e-07
6.27503791559e-08
7.05522570012e-08
1.3257577798e-08
1.18372151613e-07
1.48950085459e-08
1.6329752575e-07
2.2429814491e-07
3.79365876786e-07
2.4951511443e-07
5.3019210234e-08
2.34131669367e-07
1.11862236166e-09
2.75723007318e-07
1.43843618715e-07
4.2586263161e-10
1.012968066e-07
2.61415407901e-07
8.91489842503e-08
9.87390592756e-08
3.73588362876e-07
6.06862577476e-07
2.09809275365e-07
1.12345984722e-08
5.43457999118e-08
2.53440080201e-07
1.73290364059e-07
1.82182799779e-07
6.13929820711e-07
1.98337215353e-07
1.4270250921e-07
2.8290074169e-07
5.95891855438e-07
1.65413159883e-09
1.76810386616e-07
1.52020345222e-07
3.50825326466e-07
2.02775059083e-07
1.20566606904e-06
3.1680377235e-07
2.50542333924e-07
3.39474033e-07
3.2964127578e-07
1.40940712161e-07
1.01667054123e-06
2.9399607493e-08
3.57903623143e-07
8.79926928975e-07
5.04997263148e-07
4.80008337421e-07
4.93505016396e-07
7.33280311067e-07
2.69544321863e-07
3.89008993578e-07
1.48896140588e-07
3.80721002163e-08
1.45186005828e-07
8.95611466907e-08
1.92023560262e-08
1.24488750836e-07
2.56355883264e-07
3.15978940407e-07
4.06655615441e-08
4.18648069239e-07
3.35192981391e-07
1.88563084337e-07
6.38971951632e-08
8.34258316017e-08
1.00704448208e-07
2.40264483969e-07
5.79123986237e-08
4.62909180916e-08
1.12950074563e-07
1.70442709983e-07
7.15668398996e-08
2.1080676733e-08
2.23087385152e-08
2.6684536662e-07
1.47714693744e-07
1.09586126471e-07
2.40977114264e-07
2.6485671294e-08
1.7534963585e-07
1.83305915114e-07
1.06625396893e-08
1.280787499e-07
4.01906352163e-07
9.67471066511e-08
2.91985007394e-07
6.09903052775e-07
4.75016797978e-07
2.865612649e-07
2.64316328964e-07
5.77207412058e-08
4.55948658427e-08
2.86174036084e-09
1.36030424154e-08
2.7609255483e-07
1.04126874642e-07
4.13953125995e-08
1.37935354013e-07
3.51615551871e-07
1.35316830287e-07
1.39060671433e-07
6.15743540191e-07
1.59860862513e-07
1.73793240829e-07
7.21363013535e-07
1.35642624235e-07
1.75682390487e-07
3.62311563047e-07
7.22683249507e-07
8.08672780306e-08
2.0460109032e-08
2.85857560066e-07
7.67279827913e-08
1.74599544943e-08
3.14057730456e-07
3.51548272244e-07
2.8612975397e-07
1.5319890344e-07
2.32519907297e-07
2.72346921845e-07
1.27905662351e-07
8.75155600581e-08
8.27030171874e-09
1.36710752752e-08
9.23802045482e-08
3.39354370012e-08
6.08173224104e-08
3.49463606481e-07
8.99644587984e-08
5.88935760727e-08
2.81818737832e-07
5.79137552631e-08
3.83035118189e-07
1.92420930014e-07
1.09528370268e-07
3.13760909008e-08
4.89647363949e-08
5.27007817224e-08
8.25264678756e-08
5.54822235963e-09
7.94214629161e-08
9.17922626016e-08
9.79858051306e-07
5.67452452116e-07
2.52857028869e-07
1.64764193077e-07
3.66216508741e-07
4.1692473058e-08
2.35570811633e-07
2.22745906251e-07
2.58774242496e-07
1.98711739347e-07
8.00458600961e-08
1.01605137466e-08
1.47297569403e-07
1.54160120991e-07
2.62490664996e-07
1.01545177743e-08
9.02049223005e-08
9.94291019699e-08
9.64042300203e-08
5.87196519751e-08
5.77945735549e-08
1.42719474907e-08
3.16832232522e-07
5.46357170515e-08
1.81879954168e-07
5.24298324694e-08
1.53557136169e-07
7.76244444272e-08
2.9263436868e-08
2.93589510735e-07
1.02581914778e-07
8.79384358571e-08
3.99339769626e-08
9.7379535744e-08
8.1722632069e-08
4.31492997304e-08
1.59885488593e-08
9.59545269036e-08
8.37316313673e-08
6.40957020215e-08
7.61624082194e-08
4.02278292651e-07
5.68441806404e-08
1.07592239265e-07
3.54372959213e-07
3.02328323849e-07
1.10785441998e-07
4.83091329944e-07
5.96350030368e-07
3.29386165648e-07
3.58672853684e-07
8.73080054231e-07
1.22772186175e-07
1.66192880936e-07
1.26813076286e-07
7.55842446458e-07
3.79566004625e-07
2.15069705333e-07
6.90097437499e-07
1.36695003358e-06
6.6149920052e-07
8.43869575726e-08
3.24459809353e-07
1.69718962668e-07
9.66686770644e-07
2.43739515356e-07
6.05675842358e-08
2.32501093744e-07
2.84854546403e-07
1.76087442121e-07
7.57553129413e-08
4.36480056188e-08
3.08530666251e-07
4.02568377133e-07
5.17028437164e-07
6.82550240454e-07
4.42343933766e-09
1.42998202381e-06
3.48391402258e-07
5.76690629072e-08
4.10371220202e-07
5.68553078293e-07
3.05711287714e-07
2.49779561235e-07
1.60210577224e-08
6.16765171042e-07
2.73276322812e-07
9.9638589284e-08
2.05614941282e-07
5.79256752715e-07
2.79249165423e-07
7.56439811411e-07
3.80735248506e-08
4.38348271131e-07
2.37097241005e-07
3.13099068101e-07
2.32069269119e-08
2.28595639846e-07
2.77332722481e-08
1.7604368578e-07
4.32181379443e-07
2.28892218547e-07
1.77670836804e-07
1.51126423048e-07
2.96635413725e-07
2.58606323286e-08
7.36453499824e-08
1.76450148713e-08
2.95784186219e-07
1.90361661845e-07
5.42152357824e-07
4.68085994815e-07
6.45583563849e-08
3.52972234997e-07
1.56551194579e-07
1.66033378959e-07
5.60846981716e-08
2.46739006002e-07
1.21276850578e-07
2.69804236814e-07
3.67424412438e-07
3.62082600692e-07
2.39745855448e-07
6.16891931061e-07
1.45169209555e-07
3.15077186782e-07
1.21773635692e-07
9.94011476465e-08
3.01532724241e-07
4.63761060085e-07
7.43847241462e-08
1.1197982933e-07
4.8129007946e-07
5.68618135181e-09
5.7341328161e-08
4.62173844572e-07
2.98978743895e-07
4.20258443761e-08
8.44662140319e-08
7.98647619427e-08
9.27938654881e-09
2.12658048204e-07
3.82594395007e-07
5.98523247727e-08
3.64758552399e-07
1.93356310129e-07
1.73545053476e-08
2.17833436065e-07
1.5286088919e-07
2.00699012421e-07
8.33254351881e-08
1.61262531567e-07
4.13318534282e-07
1.78285820061e-07
1.11185932992e-07
8.24171755531e-08

