# vtk DataFile Version 3.0
File Name: Molecule/sphere_excent/sphere_excent_0-s13.vtk
ASCII
DATASET UNSTRUCTURED_GRID
FIELD FieldData 1
TIME 1 1 double
0.0
POINTS 180 double
0.85197925568 -0.5238249898 -0.010082332417
0.80646139383 -0.30952122808 -0.50394397974
0.99602413177 0.0023741088808 -0.089719042182
0.80565577745 0.31148165464 -0.50393521786
0.52526009083 7.5713025581e-05 -0.85094201565
0.85118943453 0.52491229773 -0.00059708557092
0.49947667122 0.8080689311 -0.31263455749
0.30862495303 0.49986249208 -0.80913585424
-0.00017401487275 0.85046070814 -0.52605205774
0.4744207263 0.84942603111 0.22103869915
0.012791496702 0.99867635965 -0.0040861899033
0.06332232058 0.887406528 0.45300623775
0.3085052669 -0.49938169122 -0.80953502655
-4.4758431613e-05 3.1394663438e-06 -0.99989420176
-0.30869284272 -0.49990361929 -0.8091288209
0.001530317124 -0.85059314966 -0.52590072155
-0.52549791336 5.850004527e-06 -0.8507989049
-0.80649715662 -0.3106418848 -0.50298917294
-0.80648583174 0.31041687727 -0.50332039595
-0.99571150541 0.0024224529043 -0.090818718076
-0.86659920216 -0.49564352632 -0.001394595718
-0.85126614571 0.52494156361 -0.0015297813807
-0.30856573582 0.49956542253 -0.80938279629
-0.50444418192 0.796687603 -0.32805320621
-0.48009628057 -0.80896234512 -0.33591479063
-0.017396578565 -0.99725484848 -0.035702988505
0.51397287846 -0.78314095736 -0.34738832712
0.13076992333 -0.14082300663 0.98117095232
0.31140875816 -0.15452931821 0.93760085106
0.22956262529 0.0086248544976 0.97304558754
0.20823533833 -0.31729087234 0.92449510098
0.58431649208 -0.015984395519 0.81115710735
0.49473810196 -0.26303362846 0.82780236006
0.70789194107 -0.17827534676 0.6833717823
0.57808583975 -0.44493511319 0.68329995871
-0.57601177692 -0.43760359287 0.69003653526
-0.49970379472 -0.25883111358 0.82603228092
-0.70413225889 -0.16603535414 0.69047564268
-0.54665344954 0.012069626711 0.83665418625
-0.87024778128 -0.009084510617 0.49258255959
-0.72542250156 0.12557753921 0.67642611265
-0.45701503754 0.3264875412 0.82563459873
-0.30272138119 0.37758350372 0.8747267127
-0.36882555485 0.53924542665 0.75711244345
0.2812037766 0.34158870578 0.89594805241
0.1484862566 0.26503425837 0.95269930363
0.30506101251 0.16781289876 0.93736606836
-0.68759208918 0.59576010704 0.41507062316
-0.56369775534 0.47926011682 0.67236816883
-0.46833357215 0.67005908489 0.57524961233
-0.83127683401 0.30414032936 0.46412265301
-0.50783503056 0.83318209648 0.21525113285
0.96060121059 -0.15414892137 0.23138214648
0.84399050474 -0.32358393073 0.42707839608
0.95556169748 0.16056881845 0.24768601358
0.86839109659 -0.00604738947 0.49605837464
0.81039690971 0.31958708167 0.49092173576
-0.95842140913 0.15409368277 0.24010305107
-0.9607784152 -0.15469513834 0.23012733459
-0.84467566013 -0.32249835134 0.42646172643
0.72131031752 0.12506300211 0.68068766594
0.69003474712 0.59039843082 0.41602051258
0.38770323992 0.71391588449 0.57935738564
0.34624737501 0.56003564596 0.75241279602
0.58865183592 0.49297973514 0.64027297497
0.10586374253 0.66135579348 0.74128687382
-0.18160021305 0.57990652323 0.79401582479
-0.18963198364 0.69573408365 0.69278329611
-0.70300239325 0.36336302757 0.61132448912
-0.60785096884 0.2543259263 0.75229674578
0.47444730997 0.35428455472 0.80536454916
0.16922667623 -0.73834520578 0.65069329739
-0.018191566691 -0.85581719875 0.51690346003
0.24939897656 -0.87046694756 0.42449960113
0.41367658973 -0.71935385466 0.55619865656
0.51738226414 -0.80891346931 0.27868145704
0.35350674391 0.012381169014 0.93534678221
0.44588544965 -0.073086358607 0.8920430541
0.64524662495 0.30414843559 0.70082050562
0.55819028616 0.1769630909 0.81062120199
0.4188348949 0.22847931087 0.87883853912
0.45544654131 0.085813090205 0.88611727953
-0.23873542249 0.89213317633 0.38227039576
0.72089195251 -0.5883153677 0.3654859066
-0.71238803864 -0.59217661619 0.37618815899
-0.021559180692 -0.7050101757 0.70876193047
-0.19712910056 -0.72063702345 0.66452014446
-0.1770849824 -0.58498412371 0.79080551863
-0.36470964551 -0.56617820263 0.7386777997
0.71738821268 -0.4255002439 0.55166935921
0.59137070179 -0.63069778681 0.50231462717
-0.55536907911 -0.64042580128 0.53045541048
-0.50600171089 -0.81213957071 0.29034054279
-0.71662807465 -0.4220277071 0.5549698472
-0.45598948002 0.78159761429 0.42545598745
-0.26674467325 0.80030107498 0.53672754765
-0.10187034309 0.80435943604 0.58467614651
-0.059663243592 0.71878069639 0.69252604246
-0.065186411142 0.62958031893 0.77414882183
0.04358201474 0.78274333477 0.61945110559
-0.32278174162 0.69605696201 0.64101094007
-0.51967805624 -0.85394906998 -0.0089037138969
-0.26388850808 -0.9510833025 0.15930192173
-0.25722050667 -0.87998116016 0.39902916551
-0.0065258760005 -0.96333473921 0.26820665598
0.26661127806 -0.94924843311 -0.16703605652
0.52830737829 -0.84890466928 -0.020980799571
0.27097117901 -0.95237338543 0.14039897919
-0.14653986692 0.2304983139 0.96191346645
0.0035205667373 0.2601814568 0.96554124355
-0.052785053849 0.36284264922 0.93023633957
0.066762015224 0.36498236656 0.92857581377
0.036002997309 0.47474658489 0.87929773331
-0.060841575265 0.16425731778 0.98434114456
0.060806129128 0.15528191626 0.98599386215
-0.28757071495 -0.45122244954 0.84474903345
-0.42079490423 -0.41724979877 0.8054754138
-0.34764790535 -0.31638523936 0.88265484571
-0.19351300597 -0.34380081296 0.91882997751
0.11380976439 0.041184820235 0.99258667231
-0.0027377046645 0.040048018098 0.99907380342
0.17581264675 0.13543188572 0.97505682707
-0.34700268507 -0.15739060938 0.92369669676
-0.19335241616 0.33669760823 0.92150276899
-0.22023241222 0.47806191444 0.85023635626
-0.11651778221 0.44063442945 0.89002072811
0.16476473212 0.42237898707 0.89117991924
-0.32308414578 0.20306955278 0.92274105549
-0.076651506126 0.53623950481 0.84058493376
0.039282988757 0.57900542021 0.81432545185
0.17984101176 0.52873849869 0.82939934731
-0.70542740822 -0.69006890059 -0.16123646498
-0.7001144886 -0.70127594471 0.13496394455
-0.22759245336 -0.14067296684 0.96354949474
-0.11584545672 -0.12447103858 0.98534667492
-0.2327568382 0.02094290033 0.97205197811
-0.26201182604 -0.24067601562 0.93456679583
-0.15651661158 -0.23287591338 0.95983749628
-0.11903838068 0.029754564166 0.99207049608
-0.08170504868 -0.43151199818 0.89830237627
-0.0088411709294 -0.28536707163 0.9576895833
0.00083506619558 -0.13383072615 0.99095141888
-0.05373981595 -0.045305717736 0.99748456478
0.042606987059 -0.046154025942 0.99803853035
0.34378916025 -0.31411480904 0.8849645853
0.41017484665 -0.4149582386 0.81202071905
0.3264375627 -0.55055600405 0.7681710124
0.26930612326 -0.43872520328 0.85731083155
0.29932814837 0.45793345571 0.83698034286
-0.37308207154 -0.7054874897 0.60258924961
-0.24472162127 -0.80457431078 0.54120206833
-0.41089308262 -0.77694314718 0.47697684169
-0.063842870295 -0.55405008793 0.82952433825
-0.17273840308 -0.46528050303 0.86798244715
0.051316432655 -0.52711033821 0.84806907177
0.11266044527 -0.63511091471 0.7640439868
-0.26263546944 0.94974458218 -0.17020525038
-0.27050596476 0.95735812187 0.10245828331
-0.51894962788 0.85331982374 -0.051584806293
-0.43991181254 -0.071344062686 0.8951190114
-0.38560882211 0.020504022017 0.9224306345
-0.30258029699 -0.059691209346 0.95105046034
0.099362514913 -0.31295317411 0.94461500645
0.13101303577 -0.43043357134 0.89273267984
0.029615104198 -0.40774819255 0.91249495745
-0.43257376552 0.10909859091 0.89473670721
-0.49901282787 0.17381696403 0.84886908531
-0.40230709314 0.24968780577 0.88084614277
-0.28606706858 0.1058646664 0.95227521658
-0.15273173153 0.098258972168 0.98327022791
0.59321200848 0.73180711269 0.33488222957
0.44914937019 0.79159086943 0.41378429532
0.55266582966 0.67026370764 0.49539217353
0.25302708149 -0.64668661356 0.71942919493
0.37410378456 -0.63683968782 0.67415821552
0.29848840833 -0.72633588314 0.61907428503
0.18984857202 -0.54505264759 0.81659084558
0.45308986306 -0.51516801119 0.72746145725
0.49743115902 -0.59287697077 0.63331913948
-0.042774237692 0.098448105156 0.9941765666

CELLS 356 1424
3 0 1 2
3 1 3 2
3 1 4 3
3 2 3 5
3 5 3 6
3 3 7 6
3 3 4 7
3 6 7 8
3 5 6 9
3 6 10 9
3 6 8 10
3 9 10 11
3 4 12 13
3 12 14 13
3 12 15 14
3 13 14 16
3 16 17 18
3 17 19 18
3 17 20 19
3 18 19 21
3 8 22 23
3 22 18 23
3 22 16 18
3 23 18 21
3 24 15 25
3 16 14 17
3 14 24 17
3 14 15 24
3 4 1 12
3 1 26 12
3 1 0 26
3 12 26 15
3 4 13 7
3 13 22 7
3 13 16 22
3 7 22 8
3 27 28 29
3 27 30 28
3 31 32 33
3 32 34 33
3 35 36 37
3 37 36 38
3 39 37 40
3 41 42 43
3 44 45 46
3 47 48 49
3 49 48 43
3 50 47 21
3 21 47 51
3 2 52 0
3 0 52 53
3 2 54 52
3 54 55 52
3 54 56 55
3 52 55 53
3 56 54 5
3 5 54 2
3 50 57 39
3 57 58 39
3 57 19 58
3 39 58 59
3 19 57 21
3 21 57 50
3 59 58 20
3 58 19 20
3 53 55 33
3 31 33 60
3 37 39 59
3 43 48 41
3 5 61 56
3 62 63 64
3 61 64 56
3 63 62 65
3 43 66 67
3 50 40 68
3 40 69 68
3 40 38 69
3 68 69 48
3 70 64 63
3 50 68 47
3 47 68 48
3 38 40 37
3 39 40 50
3 48 69 41
3 71 72 73
3 74 73 75
3 28 76 29
3 29 76 46
3 56 60 55
3 55 60 33
3 31 77 32
3 32 77 28
3 56 78 60
3 78 79 60
3 78 70 79
3 60 79 31
3 46 80 44
3 44 80 70
3 70 80 79
3 80 81 79
3 80 46 81
3 79 81 31
3 31 81 77
3 81 76 77
3 81 46 76
3 77 76 28
3 70 78 64
3 64 78 56
3 10 82 11
3 53 83 0
3 83 75 0
3 20 84 59
3 72 85 86
3 85 87 86
3 86 87 88
3 34 89 33
3 33 89 53
3 53 89 83
3 89 90 83
3 89 34 90
3 83 90 75
3 35 91 88
3 92 91 84
3 91 93 84
3 91 35 93
3 84 93 59
3 59 93 37
3 93 35 37
3 51 94 82
3 94 95 82
3 94 49 95
3 11 82 96
3 49 94 47
3 47 94 51
3 97 67 98
3 67 97 96
3 97 99 96
3 97 65 99
3 96 99 11
3 11 99 62
3 99 65 62
3 67 100 43
3 43 100 49
3 49 100 95
3 96 95 67
3 100 67 95
3 95 96 82
3 71 85 72
3 75 90 74
3 24 25 101
3 92 102 103
3 102 104 103
3 102 25 104
3 103 104 72
3 26 105 15
3 15 105 25
3 26 106 105
3 106 107 105
3 106 75 107
3 105 107 25
3 75 106 0
3 0 106 26
3 108 109 110
3 109 111 110
3 109 45 111
3 110 111 112
3 108 113 109
3 113 114 109
3 109 114 45
3 88 115 116
3 115 117 116
3 115 118 117
3 116 117 36
3 29 119 27
3 120 119 114
3 119 121 114
3 119 29 121
3 114 121 45
3 88 116 35
3 35 116 36
3 36 117 122
3 42 123 124
3 123 110 125
3 123 108 110
3 125 110 112
3 111 45 126
3 108 123 127
3 127 123 42
3 45 121 46
3 46 121 29
3 66 128 98
3 128 129 98
3 128 112 129
3 98 129 65
3 63 65 130
3 112 128 125
3 128 124 125
3 128 66 124
3 125 124 123
3 42 124 43
3 124 66 43
3 25 107 104
3 73 107 75
3 72 104 73
3 73 104 107
3 87 115 88
3 66 98 67
3 97 98 65
3 20 131 132
3 131 101 132
3 131 24 101
3 132 101 92
3 24 131 17
3 17 131 20
3 133 134 135
3 122 136 133
3 136 137 133
3 136 118 137
3 133 137 134
3 135 134 138
3 118 139 140
3 134 137 140
3 140 137 118
3 27 141 140
3 140 141 134
3 134 141 142
3 141 143 142
3 141 27 143
3 142 143 120
3 30 144 28
3 28 144 32
3 32 145 34
3 146 145 147
3 145 144 147
3 145 32 144
3 147 144 30
3 112 126 130
3 126 148 130
3 126 44 148
3 130 148 63
3 63 148 70
3 148 44 70
3 20 132 84
3 84 132 92
3 86 149 150
3 149 151 150
3 149 91 151
3 150 151 103
3 87 152 153
3 152 139 153
3 152 154 139
3 153 139 118
3 154 152 155
3 85 152 87
3 91 149 88
3 88 149 86
3 92 101 102
3 102 101 25
3 120 143 119
3 119 143 27
3 118 136 117
3 117 136 122
3 44 126 45
3 111 126 112
3 112 130 129
3 129 130 65
3 103 151 92
3 92 151 91
3 86 150 72
3 150 103 72
3 87 153 115
3 115 153 118
3 10 156 157
3 156 158 157
3 156 23 158
3 157 158 51
3 23 156 8
3 8 156 10
3 51 158 21
3 158 23 21
3 38 159 160
3 159 161 160
3 159 122 161
3 160 161 135
3 30 162 163
3 162 164 163
3 162 140 164
3 163 164 154
3 140 162 27
3 162 30 27
3 122 159 36
3 36 159 38
3 38 165 166
3 165 167 166
3 165 127 167
3 166 167 41
3 41 167 42
3 42 167 127
3 127 168 108
3 108 168 169
3 135 168 160
3 168 165 160
3 168 127 165
3 160 165 38
3 9 170 5
3 170 61 5
3 9 171 170
3 171 172 170
3 171 62 172
3 170 172 61
3 61 172 64
3 64 172 62
3 62 171 11
3 11 171 9
3 38 166 69
3 69 166 41
3 146 173 174
3 173 175 174
3 173 71 175
3 174 175 74
3 74 175 73
3 73 175 71
3 154 155 176
3 155 173 176
3 155 71 173
3 176 173 146
3 146 174 177
3 174 178 177
3 174 74 178
3 177 178 34
3 10 157 82
3 82 157 51
3 71 155 85
3 85 155 152
3 34 178 90
3 90 178 74
3 113 179 114
3 179 120 114
3 120 179 138
3 179 169 138
3 179 113 169
3 138 169 135
3 135 169 168
3 169 113 108
3 154 176 163
3 147 176 146
3 30 163 147
3 147 163 176
3 135 161 133
3 133 161 122
3 120 138 142
3 142 138 134
3 154 164 139
3 139 164 140
3 146 177 145
3 145 177 34

CELL_TYPES 356
5
5
5
5
5
5
5
5
5
5
5
5
5
5
5
5
5
5
5
5
5
5
5
5
5
5
5
5
5
5
5
5
5
5
5
5
5
5
5
5
5
5
5
5
5
5
5
5
5
5
5
5
5
5
5
5
5
5
5
5
5
5
5
5
5
5
5
5
5
5
5
5
5
5
5
5
5
5
5
5
5
5
5
5
5
5
5
5
5
5
5
5
5
5
5
5
5
5
5
5
5
5
5
5
5
5
5
5
5
5
5
5
5
5
5
5
5
5
5
5
5
5
5
5
5
5
5
5
5
5
5
5
5
5
5
5
5
5
5
5
5
5
5
5
5
5
5
5
5
5
5
5
5
5
5
5
5
5
5
5
5
5
5
5
5
5
5
5
5
5
5
5
5
5
5
5
5
5
5
5
5
5
5
5
5
5
5
5
5
5
5
5
5
5
5
5
5
5
5
5
5
5
5
5
5
5
5
5
5
5
5
5
5
5
5
5
5
5
5
5
5
5
5
5
5
5
5
5
5
5
5
5
5
5
5
5
5
5
5
5
5
5
5
5
5
5
5
5
5
5
5
5
5
5
5
5
5
5
5
5
5
5
5
5
5
5
5
5
5
5
5
5
5
5
5
5
5
5
5
5
5
5
5
5
5
5
5
5
5
5
5
5
5
5
5
5
5
5
5
5
5
5
5
5
5
5
5
5
5
5
5
5
5
5
5
5
5
5
5
5
5
5
5
5
5
5
5
5
5
5
5
5
5
5
5
5
5
5
5
5
5
5
5
5
5
5
5
5
5
5
5
5
5
5
5
5

CELL_DATA 356
SCALARS cell_data_0 double
LOOKUP_TABLE default
5.46883179788e-07
2.59955745246e-07
6.25507733446e-07
6.46410137543e-07
3.98682613152e-07
1.43903507615e-06
7.64123561086e-07
6.80923719129e-07
7.03492557335e-07
1.77310535144e-08
2.03897526044e-06
9.84759737126e-07
3.90585008239e-07
8.17200578083e-07
1.88225818359e-07
3.3264850888e-07
1.88451361876e-07
4.10002912403e-07
7.32534081471e-07
5.98126551656e-07
1.09340395622e-07
6.3006385797e-07
1.86017604621e-07
5.66296580658e-07
3.76686819856e-07
6.54672876847e-07
2.0791384689e-06
1.25694594799e-06
1.87959350162e-07
1.94056985095e-07
1.0518043729e-07
4.71496396303e-07
4.61329087228e-07
8.44782668402e-07
3.7853418231e-07
4.63208914046e-07
9.31156956089e-08
1.19097420123e-06
9.46637290931e-07
6.03362788275e-07
6.39334227922e-08
2.47822566743e-06
1.10979417812e-06
7.98915770297e-07
8.48423699079e-07
1.03688409848e-07
9.00498151704e-08
1.02410821457e-06
1.26154858197e-06
5.86881975869e-07
6.61104647521e-07
1.46831663443e-06
2.29331968785e-08
1.19645208564e-08
6.48772448857e-08
1.20461150329e-06
6.79436200252e-07
2.62343479536e-07
3.11586349141e-07
1.2867957144e-06
5.87269000448e-08
7.54568514342e-07
2.50647015714e-07
1.1053663083e-07
5.72812494336e-07
3.91214847101e-07
1.60223510763e-07
6.63110850587e-07
5.1438522463e-07
1.0212049213e-06
1.98720336488e-07
2.52607287177e-07
5.09293420154e-08
9.76466556806e-07
8.60081453462e-08
1.92569115519e-07
8.5228786717e-07
7.32904029543e-07
1.65119003277e-06
7.50894880121e-07
4.24330699939e-07
4.81283952206e-07
1.75589570726e-07
4.54624387673e-08
4.62631034618e-07
4.06682494149e-08
1.34486469845e-07
4.70429735915e-07
3.98092421375e-07
1.71929544508e-06
5.82801688023e-07
5.19190161059e-07
2.69724038379e-07
1.42037560676e-07
6.50946706993e-07
4.69973792697e-08
1.07711506157e-07
3.60590487749e-07
4.55509597379e-07
1.55822717095e-07
4.0685925447e-09
1.5216377392e-09
3.01189145466e-07
3.22963272731e-07
8.28382511598e-07
6.44388664203e-07
4.16040284093e-07
2.41265208053e-07
5.00289911933e-07
2.18770779234e-07
1.27101137203e-06
2.17364921016e-06
3.50490692744e-07
5.82206970287e-08
3.24748791494e-08
8.16426270902e-07
8.20898695112e-07
8.08021209754e-07
9.05390455222e-08
1.03429586402e-06
8.62897951236e-07
1.28055101341e-06
1.05363928335e-07
1.87639514831e-07
1.45221851329e-07
1.1207180549e-06
5.38398800926e-07
1.33664647074e-06
3.07877425115e-07
2.56471276585e-07
8.62689166644e-07
2.02582198502e-07
3.50794152062e-07
2.63425946092e-07
6.41476679788e-08
3.8234304417e-07
1.48681065335e-07
8.27443935534e-07
1.4114963099e-06
6.86017002701e-07
1.36703671249e-06
5.46157504419e-07
4.48919481128e-07
2.85901777094e-07
3.47261161444e-07
3.98745059898e-07
6.37923982891e-08
1.20719145083e-07
2.2549721359e-08
2.15486972703e-06
3.04257699012e-07
8.18799452399e-08
1.41722662967e-06
3.35152323273e-07
6.85380280681e-07
6.81371557656e-07
9.63247015764e-07
8.05112180864e-07
3.68129674284e-07
3.61237596996e-07
1.57492958968e-06
8.92642622762e-07
7.11811558143e-07
2.57796889803e-07
8.08536563175e-09
1.09576364539e-08
3.96878940338e-07
1.54923334888e-07
1.15425890134e-07
3.49822497781e-07
2.40230941052e-07
6.13880350477e-07
4.43964406024e-07
9.58912956146e-07
4.24390442191e-07
2.53968451745e-07
1.12519923463e-06
1.15102625862e-07
2.0566683675e-07
5.44468778095e-07
2.86819440079e-07
4.10514217892e-07
1.58400234346e-07
3.69597705991e-07
2.04808134598e-07
9.8340332713e-08
1.73095430829e-07
8.06280428026e-07
2.13055789443e-07
4.13411176561e-07
3.46586760795e-07
2.33946620699e-07
1.02608301695e-07
2.14302736327e-07
4.08273627052e-08
6.16457369533e-08
1.17182114724e-07
2.73722183393e-07
1.82469660858e-07
2.66395711576e-07
1.38428586551e-07
4.67480569681e-07
3.24454329176e-07
4.80780957719e-07
1.13099980934e-06
2.77303132767e-07
3.87285901015e-07
2.9730305112e-07
3.86658711421e-07
3.93263346823e-07
1.72060882847e-06
1.42839870966e-07
7.3820003863e-07
6.37726061277e-07
1.68407550622e-06
1.5600402857e-08
1.75079340365e-07
3.19332532779e-07
1.38608384428e-06
1.94582478152e-06
1.11262530717e-06
3.87993458813e-07
4.91425838953e-07
4.48733477872e-07
5.65737147579e-07
1.12692417937e-06
3.62238246327e-07
1.340993282e-06
3.09298341284e-07
9.25235778795e-08
2.96543390552e-07
2.80953431589e-07
4.76535035332e-07
5.18170780184e-07
5.75356219837e-07
2.13341774749e-07
1.90492735803e-07
1.53905237714e-07
2.07560501996e-07
7.77906173764e-07
2.15709237439e-07
2.77938739799e-07
6.80296113485e-07
2.16868814885e-07
1.20418849514e-08
2.57424534959e-07
1.59171218656e-07
1.64503892648e-07
1.37991650559e-07
1.21792313831e-07
2.24380149145e-09
5.63357117675e-07
7.82309385703e-08
2.74341139013e-07
4.07515729567e-07
6.20760364086e-08
2.76405937568e-07
6.01971670533e-07
5.45574650259e-07
3.57269673824e-07
2.60977422357e-07
1.63705626513e-07
1.97221820079e-07
3.35807694436e-09
5.02952078516e-07
6.57173461203e-07
1.75083201553e-07
4.04988503676e-08
4.13906261409e-07
1.89450294487e-07
3.56897645669e-07
2.46353486792e-07
6.70397182319e-07
1.2482252208e-06
9.10366343674e-07
2.79108431484e-08
1.43821719894e-07
2.21597845129e-07
4.38761410165e-07
7.02625450825e-07
8.51154763434e-07
1.64156130413e-07
1.97491942239e-07
2.47519056319e-07
3.85796043254e-07
4.41283321289e-07
8.88076511958e-07
6.80497007956e-08
5.77080381109e-07
1.15619355842e-07
2.05050084224e-07
6.79213240153e-07
8.97187213989e-07
5.80552770965e-07
6.78983701513e-08
1.99958659433e-07
4.02359119221e-07
6.48468761262e-08
4.27133966275e-07
1.86106014494e-06
1.41642160902e-07
6.71282957831e-07
4.37687762792e-07
5.25612074057e-08
4.42143585212e-07
1.62607120169e-07
1.56462403967e-06
3.83828824711e-07
3.40967769487e-07
5.08840823087e-08
4.11824918865e-07
6.30961592277e-07
1.33377496495e-06
1.55484816617e-07
3.72281247978e-07
3.75092314543e-07
1.46077285351e-07
1.29354036509e-07
1.40095450621e-07
2.81570852183e-07
3.29649136937e-09
1.49512779933e-07
2.796232831e-07
3.18295263782e-07
1.30460635766e-07
1.70151202427e-07
2.14878603809e-07
4.09616752391e-07
1.98432875289e-07
3.81443810824e-07
1.99187417961e-07
2.71582122519e-07
3.38174804187e-07
1.0441382859e-06
9.28108843403e-08
1.41512871181e-07
5.58271618492e-08
3.5265788297e-08
1.86178411665e-07
1.95397633785e-07
2.48011482556e-07
1.3414985458e-06
1.1112541306e-06
3.71135055469e-07
9.16247437956e-08
3.54905650588e-08
1.57213079028e-07
2.88930095851e-07
1.51577583965e-07
5.48506522225e-07
3.55831283249e-07
4.04984197492e-07
8.58029428945e-07
6.45744928925e-07
2.15562763678e-07
3.44017220781e-07

