# vtk DataFile Version 3.0
File Name: Molecule/sphere_excent/sphere_excent_0-s4.vtk
ASCII
DATASET UNSTRUCTURED_GRID
FIELD FieldData 1
TIME 1 1 double
0.0
POINTS 55 double
0.85065662861 -0.52572184801 -3.0571805837e-05
0.80892890692 -0.3089825809 -0.49994692206
0.99989467859 3.9033466237e-06 -1.3499885426e-05
0.80892759562 0.30898606777 -0.49994677305
0.52572947741 9.6331760346e-08 -0.85065186024
0.85065078735 0.52573114634 -1.5476939552e-06
0.49994668365 0.80893057585 -0.30898016691
0.30898094177 0.49994495511 -0.80893057585
-1.8250274252e-06 0.85065120459 -0.52573043108
0.5000141263 0.80900150537 0.30878463387
-3.0623659768e-06 0.99989557266 2.258871973e-05
1.2115170875e-06 0.85026168823 0.52631431818
-0.50001007318 0.80900239944 0.30878910422
-0.49994853139 0.80892705917 -0.30898699164
-0.85065329075 0.52572715282 -6.7808564381e-06
-0.3346926868 0.50866550207 0.79231977463
-0.80938917398 0.30871111155 0.49950492382
-0.53282684088 0.00017781187489 0.84556269646
0.53258490562 8.3860366431e-05 0.84571731091
0.34440305829 -0.51238453388 0.7866191268
0.80983644724 -0.30857142806 0.49896377325
0.50028139353 -0.80926936865 0.30782261491
0.00026444063406 -0.84996116161 0.52669012547
0.30898216367 -0.49994525313 -0.80893003941
-2.3524512471e-07 -8.731896628e-08 -0.99989140034
-0.30898606777 -0.49994674325 -0.80892753601
-1.2079635781e-07 -0.85065239668 -0.52572864294
-0.52573245764 1.0324297364e-06 -0.85065001249
0.80931013823 0.3089081049 0.49948734045
0.33475339413 0.50868648291 0.79225772619
-0.80893009901 -0.30898216367 -0.49994528294
-0.80892938375 0.30898326635 -0.49994572997
-0.99989509583 -2.3454085749e-06 -2.0977302484e-05
-0.85065406561 -0.52572596073 -2.1958780053e-05
-0.30898359418 0.49994561076 -0.80892908573
-0.49994722009 -0.80892717838 -0.30898928642
-0.50015670061 -0.80917280912 0.30821430683
2.6988527679e-06 -0.99989581108 5.9710466303e-05
-0.80958330631 -0.30875590444 0.49921962619
-0.34440889955 -0.51238495111 0.78660899401
0.49994939566 -0.80891722441 -0.30901479721
0.00012256526679 -0.52602493763 0.85052251816
-0.16571563482 -0.27890479565 0.94469463825
0.16575619578 -0.27890789509 0.94467896223
3.0639776014e-06 0.52605670691 0.85047829151
-0.16239373386 0.27329897881 0.94814896584
0.16239134967 0.27332633734 0.94814252853
-2.9228027415e-05 0.02973561734 0.99911689758
-0.34572985768 -0.14101783931 0.92716306448
-0.26495039463 0.0085563687608 0.96384996176
-0.090803518891 -0.12373027205 0.98826789856
-0.00029289940721 -0.26852786541 0.96325278282
0.090678289533 -0.12310481817 0.98834609985
0.26525586843 0.0088934469968 0.96377658844
0.34545648098 -0.14056539536 0.92734760046

CELLS 106 424
3 0 1 2
3 1 3 2
3 1 4 3
3 2 3 5
3 5 3 6
3 3 7 6
3 3 4 7
3 6 7 8
3 5 6 9
3 6 10 9
3 6 8 10
3 9 10 11
3 11 10 12
3 10 13 12
3 10 8 13
3 12 13 14
3 11 12 15
3 12 16 15
3 12 14 16
3 15 16 17
3 18 19 20
3 19 21 20
3 19 22 21
3 20 21 0
3 4 23 24
3 23 25 24
3 23 26 25
3 24 25 27
3 0 2 20
3 2 28 20
3 2 5 28
3 20 28 18
3 5 9 28
3 9 29 28
3 9 11 29
3 28 29 18
3 27 30 31
3 30 32 31
3 30 33 32
3 31 32 14
3 8 34 13
3 34 31 13
3 34 27 31
3 13 31 14
3 33 35 36
3 35 37 36
3 35 26 37
3 36 37 22
3 33 36 38
3 36 39 38
3 36 22 39
3 38 39 17
3 17 16 38
3 16 32 38
3 16 14 32
3 38 32 33
3 27 25 30
3 25 35 30
3 25 26 35
3 30 35 33
3 26 40 37
3 40 21 37
3 40 0 21
3 37 21 22
3 4 1 23
3 1 40 23
3 1 0 40
3 23 40 26
3 4 24 7
3 24 34 7
3 24 27 34
3 7 34 8
3 39 41 42
3 41 19 43
3 19 41 22
3 22 41 39
3 15 44 11
3 11 44 29
3 15 45 44
3 45 46 44
3 45 47 46
3 44 46 29
3 17 45 15
3 29 46 18
3 42 48 39
3 39 48 17
3 17 48 49
3 48 50 49
3 48 42 50
3 49 50 47
3 43 51 41
3 41 51 42
3 42 51 50
3 51 52 50
3 51 43 52
3 50 52 47
3 47 52 53
3 52 54 53
3 52 43 54
3 53 54 18
3 18 54 19
3 19 54 43
3 17 49 45
3 45 49 47
3 47 53 46
3 46 53 18

CELL_TYPES 106
5
5
5
5
5
5
5
5
5
5
5
5
5
5
5
5
5
5
5
5
5
5
5
5
5
5
5
5
5
5
5
5
5
5
5
5
5
5
5
5
5
5
5
5
5
5
5
5
5
5
5
5
5
5
5
5
5
5
5
5
5
5
5
5
5
5
5
5
5
5
5
5
5
5
5
5
5
5
5
5
5
5
5
5
5
5
5
5
5
5
5
5
5
5
5
5
5
5
5
5
5
5
5
5
5
5

CELL_DATA 106
SCALARS cell_data_0 double
LOOKUP_TABLE default
1.02605416448e-06
1.00670382274e-06
3.62805559237e-07
1.23807919607e-06
5.67430876183e-07
1.01430683795e-06
4.86339802774e-07
3.358668719e-07
5.61534760145e-07
3.51074888387e-06
2.02355046329e-06
2.61479516956e-06
2.64943212349e-06
3.486653841e-06
1.86903876282e-06
3.90822581631e-07
2.89494188022e-06
8.81658282511e-07
6.06224605605e-06
2.19358472207e-05
4.00747712591e-05
3.93791219141e-06
9.5257827788e-07
6.71685290152e-06
3.7311833689e-07
4.02792697292e-07
1.02711771629e-07
4.37326619028e-07
3.21058195943e-06
1.96820188188e-05
2.87274144602e-06
2.6751524089e-05
6.10143059939e-06
1.8686153813e-06
1.68316523172e-06
2.36750004426e-05
4.10231051539e-07
9.46787014909e-07
9.29304774549e-07
1.0718635366e-06
2.92077264478e-07
9.29919830312e-07
5.68281646394e-07
5.60041127587e-07
6.80385145035e-07
3.01705499009e-06
2.11294965215e-06
3.29218437777e-06
6.44823254538e-06
4.88830809688e-06
2.25573752514e-07
3.90809979866e-05
2.59543069205e-05
1.94119168603e-05
2.9063627045e-06
3.05149391682e-06
5.55605822349e-07
1.0307706093e-06
1.73889005824e-07
3.99083595138e-07
1.90790621034e-06
2.98116591487e-06
6.20822928082e-07
3.46907889658e-06
6.06056513469e-07
9.03271682576e-07
2.74547775076e-07
1.80921464525e-07
3.46442682875e-07
4.89103537854e-07
3.39210573576e-07
1.31155825307e-08
2.35076318917e-06
2.8968020996e-06
1.46467623029e-06
2.07653891252e-06
9.87951591892e-06
1.04602177052e-05
1.7125746208e-05
4.5183073181e-07
1.92576978411e-06
1.73359023903e-05
3.68872647414e-05
3.54983008887e-05
5.3028468481e-06
6.58921004471e-06
2.12200708362e-05
2.86718007724e-06
4.59633761042e-06
2.6619979493e-07
2.93784710998e-06
2.91670399455e-06
3.03300842299e-06
6.64003255649e-07
2.93141563981e-06
6.83129011063e-06
2.18971348372e-07
2.68376372663e-06
4.63740336544e-06
2.13679298924e-05
6.36216044779e-06
5.01078218202e-06
2.36237287586e-06
6.08229494023e-06
6.29958541116e-06
2.1286119708e-06

