# vtk DataFile Version 3.0
File Name: Molecule/sphere_excent/sphere_excent_0-s3.vtk
ASCII
DATASET UNSTRUCTURED_GRID
FIELD FieldData 1
TIME 1 1 double
0.0
POINTS 48 double
0.85065227747 -0.52572882175 -8.1689713625e-06
0.80892914534 -0.30898326635 -0.49994599819
0.99989283085 5.2823577334e-07 -9.9038572898e-07
0.80892795324 0.30898535252 -0.49994641542
0.52573001385 4.8154404908e-08 -0.85065150261
0.85065031052 0.5257319212 1.1779056877e-06
0.49994623661 0.80893015862 -0.30898162723
0.30898150802 0.49994504452 -0.80893027782
-1.2535114138e-06 0.85065096617 -0.52573078871
0.49994555116 0.80893480778 0.30899742246
-2.3776444777e-06 0.99989527464 7.9426499724e-06
-8.8908382168e-07 0.85048925877 0.52598881721
-0.4999435246 0.80893528461 0.30899941921
-0.4999473691 0.80892843008 -0.30898407102
-0.850651443 0.52573007345 5.1965861303e-07
-0.3223759532 0.50410121679 0.79969227314
-0.80909508467 0.30888706446 0.49981695414
-0.52508896589 -8.6727159214e-05 0.85099452734
0.5249851346 1.1858792277e-06 0.85105919838
0.33422219753 -0.50864875317 0.79237258434
0.80936866999 -0.30871832371 0.4995187521
0.50011998415 -0.80912274122 0.30834752321
0.00015055852418 -0.85019475222 0.52640473843
0.3089825213 -0.49994537234 -0.80892974138
-9.9038224732e-08 -4.871458259e-08 -0.99989140034
-0.30898544192 -0.49994644523 -0.80892789364
-5.6407714055e-08 -0.85065168142 -0.52572971582
-0.52573204041 7.257579e-07 -0.85065019131
0.80908727646 0.30888432264 0.49983054399
0.32234913111 0.50411689281 0.79969525337
-0.8089299202 -0.3089825511 -0.49994522333
-0.80892932415 0.30898341537 -0.49994558096
-0.99989306927 -1.1320828435e-06 -4.6620843932e-06
-0.85065168142 -0.52572977543 -7.5262464634e-06
-0.30898350477 0.49994561076 -0.80892908573
-0.49994671345 -0.80892944336 -0.30898362398
-0.50005030632 -0.80906099081 0.30856585503
1.6110494698e-06 -0.99989593029 3.7569698179e-05
-0.8092187047 -0.30881556869 0.49965581298
-0.33423060179 -0.50864028931 0.79237347841
0.49994790554 -0.80892455578 -0.30899623036
-0.16210396588 -0.26407369971 0.95081597567
5.538867299e-06 0.013915120624 0.99968987703
2.176261296e-05 -0.52528274059 0.85092645884
0.16211444139 -0.26406645775 0.95081675053
-8.7225532752e-07 0.52553445101 0.85078495741
-0.16171465814 0.27215600014 0.9486131072
0.16173228621 0.27216565609 0.94860744476

CELLS 92 368
3 0 1 2
3 1 3 2
3 1 4 3
3 2 3 5
3 5 3 6
3 3 7 6
3 3 4 7
3 6 7 8
3 5 6 9
3 6 10 9
3 6 8 10
3 9 10 11
3 11 10 12
3 10 13 12
3 10 8 13
3 12 13 14
3 11 12 15
3 12 16 15
3 12 14 16
3 15 16 17
3 18 19 20
3 19 21 20
3 19 22 21
3 20 21 0
3 4 23 24
3 23 25 24
3 23 26 25
3 24 25 27
3 0 2 20
3 2 28 20
3 2 5 28
3 20 28 18
3 5 9 28
3 9 29 28
3 9 11 29
3 28 29 18
3 27 30 31
3 30 32 31
3 30 33 32
3 31 32 14
3 8 34 13
3 34 31 13
3 34 27 31
3 13 31 14
3 33 35 36
3 35 37 36
3 35 26 37
3 36 37 22
3 33 36 38
3 36 39 38
3 36 22 39
3 38 39 17
3 17 16 38
3 16 32 38
3 16 14 32
3 38 32 33
3 27 25 30
3 25 35 30
3 25 26 35
3 30 35 33
3 26 40 37
3 40 21 37
3 40 0 21
3 37 21 22
3 4 1 23
3 1 40 23
3 1 0 40
3 23 40 26
3 4 24 7
3 24 34 7
3 24 27 34
3 7 34 8
3 39 41 17
3 17 41 42
3 39 43 41
3 43 44 41
3 43 19 44
3 41 44 42
3 19 43 22
3 22 43 39
3 42 44 18
3 44 19 18
3 15 45 11
3 11 45 29
3 15 46 45
3 46 47 45
3 46 42 47
3 45 47 29
3 42 46 17
3 17 46 15
3 29 47 18
3 47 42 18

CELL_TYPES 92
5
5
5
5
5
5
5
5
5
5
5
5
5
5
5
5
5
5
5
5
5
5
5
5
5
5
5
5
5
5
5
5
5
5
5
5
5
5
5
5
5
5
5
5
5
5
5
5
5
5
5
5
5
5
5
5
5
5
5
5
5
5
5
5
5
5
5
5
5
5
5
5
5
5
5
5
5
5
5
5
5
5
5
5
5
5
5
5
5
5
5
5

CELL_DATA 92
SCALARS cell_data_0 double
LOOKUP_TABLE default
1.62124253468e-06
9.07869527242e-07
2.54561748723e-07
1.55657885272e-06
6.10059303268e-07
1.10218378048e-06
6.33680557432e-07
1.78584674078e-07
6.82995962984e-07
3.32673652556e-06
2.0002404218e-06
3.50308988522e-06
3.49528808936e-06
3.08394876567e-06
2.09262995284e-06
4.31224477634e-07
2.56165871526e-06
5.14669618366e-07
6.29381462233e-06
2.03192585091e-05
2.0365391155e-05
5.84643911637e-07
2.56986030012e-07
6.67852160605e-06
3.88315096188e-07
4.11586689036e-07
1.02560081231e-09
3.27057664467e-07
2.83629575542e-06
2.00311993875e-05
2.63446984951e-06
3.06479860033e-05
6.39490101203e-06
1.55250177485e-06
1.39143967973e-06
2.1636933079e-05
3.47851052695e-07
8.21024382609e-07
1.4790375983e-06
1.61761890065e-06
2.27672314427e-07
1.11418567494e-06
5.49608898969e-07
5.00982955388e-07
9.51327004187e-07
3.32949915036e-06
1.84807190424e-06
2.46704918843e-06
6.48195671635e-06
1.62803716966e-06
4.55321327219e-07
1.94468511529e-05
3.00149858486e-05
1.96486042336e-05
2.48710320297e-06
2.50146677223e-06
6.12796149248e-07
1.06394322876e-06
1.68913945326e-07
4.27781076526e-07
2.1275690846e-06
3.20187011111e-06
6.30480101712e-07
2.64756097133e-06
4.49257047227e-07
1.02207557522e-06
5.5835296415e-07
2.63807773181e-07
4.30338042038e-07
4.57803321511e-07
3.98759631092e-07
6.9512077312e-08
1.05471316362e-05
3.76405182227e-05
1.03088119927e-05
5.8149588658e-06
1.04643115576e-05
2.98099852707e-05
5.71475458015e-06
6.46733171832e-06
3.68710796989e-05
1.00743666698e-05
5.06059149776e-06
5.7521679015e-06
1.05151194211e-05
9.77180098915e-06
3.22209890176e-05
1.05716918642e-05
3.19507915743e-05
1.22047091039e-05
1.12403755001e-05
2.84724804403e-05

