# vtk DataFile Version 3.0
File Name: Molecule/sphere_excent/sphere_excent_0-s27.vtk
ASCII
DATASET UNSTRUCTURED_GRID
FIELD FieldData 1
TIME 1 1 double
0.0
POINTS 1188 double
0.96638166904 0.10590073466 0.23426261544
0.92992913723 0.0048060356639 0.36726969481
0.96378028393 -0.083770014346 0.25245904922
-0.4373061657 0.782523036 0.44279175997
-0.31708824635 0.79525458813 0.51613581181
-0.30780220032 0.86174052954 0.40303134918
-0.061204172671 0.71493464708 0.69645643234
-0.16362905502 0.67866843939 0.71576291323
-0.055808071047 0.65264517069 0.75559067726
0.051967680454 0.68437165022 0.7271232605
0.29180055857 0.34452682734 0.89224225283
0.27418854833 0.41079539061 0.86951702833
0.22342802584 0.35325750709 0.90843957663
-0.32569724321 -0.30733686686 0.89390921593
-0.28282099962 -0.25571677089 0.92443650961
-0.34992778301 -0.22242195904 0.90996134281
-0.20564836264 -0.579215765 0.78881162405
-0.1924136281 -0.49607676268 0.84660422802
-0.27469134331 -0.52031242847 0.80845844746
-0.41570189595 0.2570105195 0.87227523327
-0.39709573984 0.20200717449 0.89526319504
-0.35339379311 0.2567114234 0.89954304695
-0.53109204769 0.31808686256 0.78530794382
-0.50645548105 0.24047955871 0.82787269354
-0.46538245678 0.32993704081 0.82117366791
0.62371611595 0.70262098312 0.34248274565
0.59265822172 0.65519791842 0.46826416254
0.69056373835 0.61149638891 0.38449180126
0.12766997516 -0.66631692648 0.73459345102
0.15641984344 -0.74612039328 0.64716982841
0.22153437138 -0.66113728285 0.71613955498
0.43037432432 -0.58241665363 0.68939530849
0.4212577641 -0.53427541256 0.73272889853
0.38323107362 -0.60518628359 0.69733685255
0.57506430149 -0.64153802395 0.50770682096
0.50996977091 -0.6250590086 0.59090423584
0.46845757961 -0.73190033436 0.4947873354
-0.4282463491 -0.61602324247 -0.66059577465
-0.61273038387 -0.60543102026 -0.50567364693
-0.61026257277 -0.41310656071 -0.67570906878
0.80414646864 0.060808934271 0.59121006727
0.72663116455 0.11464574188 0.67733919621
0.72421598434 -0.026755068451 0.68904292583
0.78537362814 -0.10714966804 0.60886651278
0.71601384878 -0.182224527 0.67386096716
-0.77935838699 -0.5750272274 0.2482971549
-0.7129586339 -0.61727833748 0.33263865113
-0.79302835464 -0.50022858381 0.34743595123
-0.21401932836 -0.95526218414 -0.20386332273
-0.30841347575 -0.95017570257 -0.044375956059
-0.45589897037 -0.87332028151 -0.17169070244
-0.070859223604 -0.99731427431 -0.020252723247
-0.48698142171 -0.87170290947 0.054753880948
-0.61227613688 -0.78620117903 -0.083627395332
-0.65989458561 -0.74682831764 0.080732800066
-0.72241806984 -0.67160761356 -0.16415803134
-0.62856328487 -0.72247123718 -0.28778281808
-0.47277131677 -0.80022388697 -0.3688172996
-0.77978038788 -0.54517197609 -0.30574920774
-0.21408557892 -0.046365324408 0.97569489479
-0.15976072848 -0.043447375298 0.98616540432
-0.16646808386 0.018668793142 0.98580956459
-0.26961433887 -0.95526981354 0.12158726901
-0.035001870245 0.99759477377 -0.057888939977
0.0051521854475 0.96659517288 -0.25556486845
-0.20003400743 0.95918220282 -0.19886082411
-0.19467367232 0.89387029409 -0.40380832553
-0.13739435375 0.072135880589 0.98782294989
-0.10146915913 0.026456592605 0.99440842867
0.86177414656 0.42352604866 -0.27904564142
0.68413096666 0.56862139702 -0.45679742098
0.7363114953 0.63023453951 -0.24369499087
0.79515451193 0.3263669908 -0.51107734442
0.55547130108 0.75902122259 -0.33733317256
0.62018287182 0.39719337225 -0.67639923096
0.43823981285 0.71923166513 -0.53884589672
-0.89471381903 -0.36636570096 -0.25542083383
-0.96716493368 -0.22590476274 -0.11709430069
-0.9427639246 -0.123941347 -0.30674517155
-0.90131050348 -0.43060746789 -0.044955663383
-0.99153292179 -0.02170284465 -0.12262105197
0.61579608917 -0.019655985758 0.78764295578
0.56062430143 -0.092114567757 0.82290124893
0.64949160814 -0.11973971128 0.75087684393
0.63728994131 -0.22303517163 0.73750811815
-0.99731981754 0.049675635993 0.044668674469
-0.99155026674 -0.11780879647 0.053981091827
-0.9756141305 -0.022858917713 0.21571235359
-0.96037489176 -0.16240853071 0.22639384866
-0.9555003643 -0.29336047173 0.031282022595
0.58427989483 -0.80555987358 0.09384483844
0.69208902121 -0.72138857841 0.024144470692
0.67182374001 -0.71915125847 0.17726436257
0.58471268415 0.77539306879 0.23613072932
0.70410323143 0.6719506979 0.22966772318
0.65157967806 0.75087970495 0.10721813142
0.52566552162 0.77771669626 0.34439200163
0.3894867897 0.89277809858 -0.22332464159
0.23885402083 0.94586515427 -0.21957165003
0.34966635704 0.93526083231 -0.05454069376
0.50809884071 0.85672056675 -0.085505105555
0.47789496183 0.87279045582 0.09142151475
0.1514634639 0.9849383831 -0.082937657833
0.22971081734 0.97084760666 0.066845700145
-0.82044458389 -0.55654209852 -0.12995515764
-0.50411903858 -0.017788941041 -0.86332291365
-0.7040424943 -0.13365647197 -0.69740372896
-0.67849034071 0.14396251738 -0.72035509348
-0.83900600672 0.023612830788 -0.54112565517
-0.79497408867 0.29810622334 -0.52836018801
-0.91725486517 0.15872637928 -0.36273926497
-0.87636232376 0.38204553723 -0.29250437021
0.90969437361 0.110329099 0.40008291602
0.92576509714 0.19989442825 0.31877818704
0.95208376646 0.27112182975 0.13509817421
0.99193388224 0.10514290631 0.062238737941
0.77799290419 0.55709886551 0.29052984715
0.48310738802 -0.1442079097 0.86360388994
0.48589810729 -0.077585302293 0.87055647373
0.40507537127 -0.12486173213 0.90571630001
0.38018080592 -0.20515345037 0.90186774731
0.32397913933 -0.15556667745 0.93318748474
0.73821878433 -0.44452413917 0.50731706619
0.81920206547 -0.42190137506 0.38828980923
0.79124987125 -0.32838863134 0.51579660177
-0.69065088034 -0.27054873109 0.67066901922
-0.65001803637 -0.38604855537 0.65428930521
-0.6044985652 -0.3246499896 0.72742432356
-0.76214313507 -0.30869606137 0.56868857145
-0.75850194693 -0.19501928985 0.6216417551
0.10846571624 0.89452916384 0.43357151747
-0.031213089824 0.91742533445 0.39664328098
0.033597555012 0.85791933537 0.51251393557
0.16941460967 0.83557903767 0.52258825302
0.10100761801 0.78543275595 0.61015468836
0.25872206688 0.86677962542 0.42597612739
-0.80068659782 -0.31227114797 -0.51081395149
-0.70439606905 -0.12847164273 0.69802188873
0.89523893595 0.44236552715 -0.041445016861
0.95533204079 0.26879420877 -0.11296536028
0.92661452293 0.14465484023 -0.34699058533
0.77512025833 -0.60423856974 0.18319427967
0.70777505636 -0.64096707106 0.2968840003
0.74672871828 0.66184711456 0.060353539884
0.79177862406 0.59167081118 0.1502943933
0.86116731167 0.46788811684 0.19655847549
0.41301178932 0.7722992301 0.48229181767
0.29946050048 0.79722690582 0.52416223288
0.3898999393 0.71317493916 0.58247518539
0.21260295808 0.77062267065 0.60077190399
0.75945973396 0.4663413465 0.45185479522
0.71638166904 0.42669269443 0.5519951582
0.78515344858 0.33415174484 0.52140271664
0.24878363311 0.62084037066 0.74337315559
0.29726755619 0.66040056944 0.68950086832
0.19237455726 0.69963228703 0.68759053946
0.35061565042 0.58494615555 0.73134100437
-0.70058351755 0.46752658486 0.53894609213
-0.72844976187 0.37582981586 0.57280910015
-0.6425331831 0.4609375298 0.61207866669
-0.5875736475 0.56485784054 0.57926553488
-0.57052743435 0.50555354357 0.6470798254
-0.0095083490014 -0.21279020607 0.97705149651
-0.0405257456 -0.16242191195 0.98589026928
-0.06639752537 -0.20408578217 0.97670358419
0.0092103332281 -0.15265513957 0.98823416233
-0.38803747296 0.87223744392 -0.29760533571
-0.55533343554 0.80939894915 -0.19087159634
-0.4312594831 0.89316225052 -0.12405578792
-0.57230085135 0.72835326195 -0.37518331409
-0.56660020351 0.82366502285 -0.021172598004
-0.56050944328 -0.2559248805 0.78755283356
-0.52635592222 -0.33761060238 0.78032881021
-0.63166594505 -0.20850734413 0.74664890766
-0.57728117704 -0.16147556901 0.79999428988
-0.96038472652 0.26448249817 -0.082801878452
-0.89841157198 0.43337005377 -0.07050537318
-0.5748950243 0.38595432043 -0.7195302844
-0.42549595237 0.22813618183 -0.87570941448
-0.78860324621 0.4893720448 0.37213137746
-0.81223523617 0.53053802252 0.2424903512
-0.86944335699 0.41088321805 0.27293899655
-0.78261399269 0.60195505619 0.15859048069
-0.85337466002 0.51226598024 0.086543999612
-0.72430574894 0.64337050915 0.24765390158
-0.92934143543 0.29168492556 0.22409427166
-0.93266379833 0.35189378262 0.074025526643
-0.96345537901 0.24466180801 0.1071517989
0.056084487587 -0.19487699866 0.97916668653
-0.58146637678 -0.42575019598 0.69323003292
-0.81017905474 0.58312219381 -0.058290887624
0.93618929386 -0.15148071945 -0.3138282299
0.98657786846 0.0017113274662 -0.16065140069
0.91278910637 -0.1337955296 0.38440313935
0.38707447052 0.63403558731 0.66942769289
0.47245958447 0.61801290512 0.62831091881
0.4373818934 0.55716758966 0.70583885908
-0.75259155035 0.094210632145 0.65172946453
-0.67403036356 0.1002465114 0.73182702065
-0.67962437868 0.2011937499 0.70543664694
-0.61887764931 0.15990233421 0.76901906729
-0.59759861231 0.25012394786 0.76177275181
-0.64825350046 0.29899471998 0.70015275478
-0.59393203259 0.34962162375 0.72455668449
-0.47239091992 0.39378449321 0.78852182627
-0.53908127546 0.40158516169 0.74035584927
0.7199780941 0.31057941914 0.6206638217
0.78626829386 0.23137044907 0.57259857655
0.67987763882 0.23090699315 0.69603824615
0.7454970479 0.2115124464 0.63183689117
0.62510550022 0.31825116277 0.7126814723
0.60502147675 0.21442952752 0.76650875807
0.48649144173 0.68179410696 0.5462974906
0.59073483944 0.51036328077 0.62494122982
0.55983090401 0.59783428907 0.57376092672
0.51556497812 0.53366923332 0.67031806707
-0.64573872089 -0.094215922058 0.75736790895
-0.69439971447 -0.0051336190663 0.71956014633
-0.76157200336 -0.017421292141 0.64768970013
-0.62057429552 -0.02050983347 0.78385919333
-0.11906268448 0.94286233187 0.31091463566
0.0088447667658 0.96709960699 0.25412502885
-0.12315230817 0.97556936741 0.18135473132
-0.69862180948 0.6869250536 -0.19992350042
-0.69234246016 0.71982896328 -0.048506870866
-0.16930067539 0.88047647476 0.44205847383
-0.29639038444 0.46563887596 -0.83387374878
[...]
CELL_DATA 2372
SCALARS cell_data_0 double
LOOKUP_TABLE default
7.38043649144e-08
6.25085995676e-09
8.87835821553e-09
1.17474093847e-07
4.75464212196e-08
1.40827922917e-07
1.23182870612e-07
2.97224472057e-08
3.28454764536e-08
6.06044259411e-09
5.32701554832e-08
4.11678647165e-10
6.51086265725e-08
5.43324737316e-08
2.09912619491e-07
9.97239478416e-08
2.99780205816e-08
3.60640591015e-08
9.34468103475e-10
3.1729745041e-08
7.30298114183e-08
2.73153674747e-08
1.23824388913e-07
1.52152344554e-08
4.21431659233e-08
4.89410557978e-08
3.98322126338e-08
5.72671426965e-08
2.07208510007e-08
8.85736243665e-08
2.86060902006e-08
2.89180610083e-08
8.96699499011e-08
3.35821698435e-09
3.05728077248e-08
3.01906183828e-08
5.86661911768e-08
1.75419607863e-07
3.73802666349e-08
3.0171958563e-08
3.07572347319e-08
5.22876867692e-10
1.23063596955e-08
4.30545734975e-08
2.21393073285e-09
1.39955415875e-08
3.98872039345e-08
6.67478804142e-08
1.05653634639e-07
2.30298944021e-08
2.51400689468e-08
5.01143184373e-08
2.29739716349e-08
9.45573662487e-09
1.8372465138e-08
7.99621602606e-08
4.7209118411e-08
2.16587692966e-08
7.39140854188e-10
6.40731118144e-08
4.95320072474e-08
2.02718368427e-07
7.79747041033e-08
1.86615057834e-08
2.70726339731e-08
1.49172297705e-08
7.59593393973e-08
1.62639629974e-08
4.14079767869e-08
4.5141908791e-08
2.93356290308e-08
9.08600015708e-08
4.196310571e-08
1.11894025911e-07
9.16833009521e-09
3.76528001063e-08
5.99417915128e-08
4.28537242411e-08
5.78013762863e-08
5.77307410759e-08
2.04674795488e-07
1.19637305821e-07
1.74871380944e-09
1.14426525875e-07
1.64149122582e-08
7.47374461765e-08
2.15379970543e-08
5.86032484951e-08
5.08070800886e-08
1.66066749815e-08
9.21351301757e-08
2.20042006977e-08
2.13463780317e-08
8.9110897621e-08
6.48600483652e-08
6.80149016699e-08
7.37619396108e-08
8.32773477116e-08
3.33369129652e-08
4.49516117292e-10
1.46859211332e-08
9.14038787035e-08
6.37533574238e-08
4.40669316574e-08
5.26542580978e-08
1.15555182065e-08
6.16169317777e-08
9.25587190748e-08
2.8906464198e-08
1.95299902398e-08
5.36251755309e-08
3.52804140751e-08
1.66718301461e-08
4.18659520082e-08
5.84550247712e-08
1.16379454444e-08
4.93567081515e-09
2.86272481708e-08
4.54491226652e-08
1.36820451083e-08
2.05356549184e-07
1.50618954175e-08
1.24667478038e-07
4.62195880731e-08
3.09223412587e-08
1.4713451017e-07
4.35405300629e-08
6.75727180692e-09
3.99035100576e-08
1.17909659323e-07
2.63884308308e-08
4.29513892154e-08
3.59084182846e-08
5.84502134813e-08
1.36708656605e-08
1.19952499956e-07
3.61008400767e-08
1.28535171323e-07
3.62420313782e-09
3.06113273506e-08
3.01834061104e-08
1.0574697417e-08
1.22398139829e-07
1.12111079011e-07
3.94372976156e-08
4.10136583605e-09
8.28991850958e-08
4.50884728502e-09
1.82588338977e-09
2.88567190563e-08
1.44103282584e-08
2.81116198782e-08
1.69352102638e-08
1.10719625571e-07
7.24418937595e-08
9.43402697867e-08
1.82916678714e-08
2.97645223005e-08
2.32015797071e-08
1.45059773212e-08
9.92805409753e-09
4.155290412e-08
5.4016163994e-08
3.94048847057e-08
6.02945450021e-08
9.61935615725e-09
9.81122267488e-09
4.43942242127e-08
6.25936034379e-08
5.27115584415e-08
5.59308808387e-09
6.01065483073e-08
4.55177026174e-08
5.40051316998e-08
2.14578063867e-08
4.31096567619e-08
7.03425102303e-08
3.7155585578e-08
2.57141837094e-08
8.38043006699e-09
4.83224553959e-08
5.81993306727e-08
5.8644373758e-08
1.9846659642e-08
1.21168488386e-07
5.13581695771e-08
3.40974033599e-08
2.00759395931e-08
1.72178315977e-08
3.45152145602e-08
1.91790428758e-07
3.06066745522e-08
6.95424464085e-08
4.33626221971e-08
4.57861993023e-09
7.48581730516e-08
2.88517136212e-08
3.63587811762e-08
2.12287043979e-08
1.23672990947e-08
1.44512850412e-08
7.35578794376e-08
2.94852954097e-08
3.79417171266e-08
8.10491104604e-08
3.35729864724e-08
3.03760377255e-08
4.95035865097e-08
1.88239046325e-08
1.07935233176e-08
6.44788782286e-08
1.68911085252e-08
6.35338901831e-08
3.04744346228e-08
7.02096431513e-08
2.55023790165e-08
5.12514725076e-08
2.55043651182e-08
9.29975468942e-08
1.30315560867e-07
7.72297306223e-08
6.59164850741e-08
7.84594149878e-08
2.85942755822e-08
3.82216076424e-09
7.47874996716e-08
4.24655811441e-08
1.13633974863e-08
2.24719212626e-08
2.16710190408e-08
4.32668361174e-08
2.93852262946e-08
1.01248578059e-07
1.40600905972e-08
3.68200447716e-09
1.03543934724e-08
3.06328901747e-09
1.96291683337e-08
3.8762483976e-08
1.76270880187e-08
9.36891438338e-08
6.23913123811e-08
1.09965906046e-07
3.76196922532e-08
7.05181918804e-08
7.9642584758e-08
1.09028615816e-07
1.88136221441e-08
2.92361666379e-09
4.26700601867e-08
7.13100556102e-08
5.34187380708e-09
7.21612349927e-09
1.51821007891e-08
7.68202781678e-08
1.61033322413e-08
4.20729439442e-08
8.48094258283e-08
1.64218532669e-08
2.29077053138e-08
1.05799830895e-08
1.78947291196e-08
3.35235649311e-08
5.47124108914e-08
4.9045884556e-09
1.76672374143e-09
1.54144667238e-07
3.80884219812e-08
5.96536603703e-08
7.54126756172e-08
3.4959917454e-08
7.30813717321e-08
1.34223108821e-08
4.9212649647e-08
2.26317515994e-10
5.23969742236e-08
2.23185863352e-08
7.97478773402e-08
7.84304999203e-08
4.27553579768e-08
1.2154796837e-07
4.15891782506e-08
1.24740827279e-07
3.28726378089e-08
1.17196656097e-08
3.55736879223e-09
6.90574882557e-08
8.62707725942e-08
5.99166484622e-08
1.59809794034e-08
5.07186205807e-08
9.12831082161e-08
2.52179511057e-08
3.52262781605e-08
4.25571164252e-08
7.9743250267e-09
5.27086734228e-08
5.5606499883e-08
2.81498881707e-09
2.87346792025e-08
6.32245140016e-08
5.04997888748e-08
1.37458381078e-08
4.82784448897e-08
7.91974081426e-08
3.02564294032e-08
9.40078220273e-08
8.8410004913e-10
5.42824608664e-09
9.10367507739e-08
1.79737439902e-08
4.22787247588e-10
3.32484484052e-08
3.6262646053e-08
2.44803765775e-08
3.84588139191e-08
4.88292306248e-08
2.21737450619e-08
4.24743117659e-08
5.85195833442e-08
1.44449490948e-08
3.41290998085e-08
7.34557609765e-08
4.72447949746e-08
1.14770114697e-08
1.48273284189e-08
2.60904353676e-08
2.7781775806e-08
6.46969188311e-08
4.20792283836e-08
5.47136315074e-08
4.43013598838e-08
1.46269975784e-08
7.62917231376e-09
1.49102412222e-08
2.50567777277e-08
5.01195045315e-08
6.47273701752e-08
5.53044899602e-08
3.15906354165e-08
4.62614535179e-08
4.06699917568e-08
4.4090528494e-08
2.04337378736e-08
6.40687341484e-08
5.10004186583e-08
3.58700139725e-08
6.27503499292e-09
6.77754321166e-08
6.17597325137e-08
4.37275301524e-08
1.6225179694e-07
2.38476220649e-08
2.4002255373e-08
4.52290763317e-08
5.25279282954e-08
7.6081118784e-08
5.79602477755e-08
9.83522604334e-08
5.09067577989e-08
1.979298264e-08
1.18642157833e-08
1.226128721e-08
3.83112112067e-08
1.82423751649e-08
2.05965677526e-08
1.60274112129e-07
4.63728706133e-08
4.19127839887e-08
7.78159596132e-08
5.71215063507e-08
9.49538147047e-08
5.50037786338e-08
8.24263790101e-08
5.33281384099e-08
1.5469334391e-08
8.84182539425e-09
6.55755675034e-09
2.99683403583e-08
2.53737107077e-08
3.1671798347e-08
2.63534593058e-08
6.19413942197e-08
7.74679432429e-08
1.49411241821e-08
6.04661254022e-09
9.71243413203e-09
8.5754658592e-08
5.86691893974e-09
3.48574032342e-09
1.74641739675e-08
1.908530136e-08
7.06335541514e-09
5.73235914908e-09
9.25738342864e-08
8.5782455304e-08
1.55939566867e-07
2.4491202646e-08
4.02813908594e-08
1.78888013695e-08
3.67736645451e-08
6.35609458435e-09
9.96278277051e-09
4.19317838249e-08
2.62563225477e-08
1.46713666007e-08
1.63354517131e-09
4.00201457326e-08
1.95909131839e-08
1.35593784281e-08
2.11394732917e-08
3.27374282973e-08
1.11442829319e-09
7.89578407579e-08
4.0179439951e-09
3.82137156357e-08
5.47946388228e-08
7.29462617655e-08
9.40028716571e-09
7.16133384689e-08
7.54099962731e-08
5.6694081123e-08
9.02616470999e-08
1.09274140337e-07
1.88091614754e-08
5.21744675117e-08
1.1164024314e-08
8.05537154073e-08
3.67928118885e-08
4.3864710855e-09
6.94053084228e-08
1.1542289201e-07
2.78447241135e-08
2.06806042015e-08
2.16619608937e-08
4.668556099e-08
1.5215603127e-08
2.994520395e-08
3.77121641169e-08
6.29704402559e-09
1.39777830161e-08
1.34924710781e-08
6.16777325974e-08
5.96491107286e-08
7.64211584466e-08
5.92827328799e-08
1.08498577304e-07
1.32762036237e-07
7.89043979451e-08
8.54917007129e-09
2.41491857487e-08
8.1376041265e-08
1.57530866533e-08
4.84868990259e-08
3.42727042501e-08
1.85213314193e-08
9.59004989423e-08
1.05016764765e-07
8.46957243949e-08
1.45238882207e-08
2.46738615837e-08
1.54749334748e-08
8.64497258469e-09
8.11989139802e-08
4.16561086786e-08
4.74294866917e-08
6.45821419139e-08
2.88804231506e-08
5.83007208925e-09
4.98753399739e-08
6.93966223377e-08
4.95756709953e-08
1.09254107287e-08
1.14872878082e-08
7.80473681077e-08
9.51584522731e-09
3.34057851388e-08
5.51322140526e-08
9.59732295838e-10
1.02778339773e-08
1.01069262497e-07
4.13305802445e-08
7.48067709976e-08
3.10550510689e-08
4.66008028936e-08
6.93339210288e-08
3.38250137949e-08
1.31753256566e-08
2.56529672448e-08
6.74919573017e-08
5.82103393624e-08
2.95404530298e-08
2.09514646756e-08
9.4549817955e-08
7.25010356873e-08
4.04462520989e-08
4.53653556007e-08
3.84658437883e-08
5.92135566185e-08
8.7500971215e-08
8.98412708862e-08
3.14944452755e-08
3.68141453283e-08
3.78091416765e-08
1.02929742546e-07
7.45525037718e-08
9.24458407502e-09
3.3529834323e-09
1.9654733555e-08
2.42687629445e-09
4.27088093838e-08
2.6352776335e-08
8.02631728272e-08
3.72228861101e-08
5.27314630347e-08
6.35245081902e-08
2.01301758899e-08
8.61448201981e-08
4.27661001409e-08
1.13926981559e-07
3.43434390812e-08
3.43275968862e-10
3.51924380926e-08
9.22965623815e-08
5.73710181375e-08
4.47860833218e-08
2.39964307723e-08
1.9956496914e-08
3.42902124124e-08
9.3784549217e-08
2.86086623631e-09
5.87358865676e-09
5.15200491198e-08
1.13794942863e-08
8.49714149163e-08
3.83048329961e-08
4.33070361053e-08
9.11491425975e-08
3.77386838381e-09
6.05224319043e-10
6.83461231112e-08
2.96805326401e-08
7.38020161317e-08
8.31825776482e-09
2.72956105933e-10
3.41761297925e-08
7.74909722511e-08
8.1954118224e-09
2.0303145926e-08
3.19949004729e-09
6.54305994901e-08
1.18875670226e-09
4.39918386437e-08
6.50282709098e-08
2.71034233613e-08
1.10397370945e-08
4.02678646863e-08
3.88960911798e-08
5.08781620059e-08
7.24435175039e-08
3.52046437351e-11
5.43607436517e-08
7.80368732599e-09
5.76725535319e-09
1.42650337397e-07
2.86239899677e-08
3.5591015185e-08
8.76928792114e-08
5.78600289396e-08
3.60087501063e-08
9.44776408259e-09
8.70002409462e-08
6.41880282158e-08
4.59969723988e-09
2.63247500708e-08
9.34671409673e-08
2.27553847544e-08
6.76470013698e-08
1.11157685826e-08
2.83280160054e-08
3.29685048072e-08
7.35644240772e-09
1.35965422096e-08
1.07554992443e-08
4.08318118664e-08
2.5908380954e-08
5.6728552449e-08
1.18674086061e-09
2.17735795329e-08
1.12553586054e-08
3.71667669909e-08
5.63184465944e-08
6.3678921993e-08
5.30615641182e-09
2.41532410489e-08
4.11491272938e-08
5.76030356214e-08
8.38415085283e-08
3.17850463228e-09
5.96913351718e-08
1.33125042992e-08
8.61671102768e-09
3.99654489481e-09
4.20020837963e-08
7.53183566408e-08
1.06258229696e-07
1.19978048658e-08
3.50780580889e-08
7.57999928953e-08
5.12312940263e-09
3.43775100884e-09
3.40674730247e-08
1.17960093372e-08
2.5633411475e-08
3.25498825545e-08
4.13069153647e-08
1.22487457455e-08
2.05210118939e-08
9.81592084876e-08
2.15892040717e-09
1.11118848866e-07
3.95822932357e-08
1.63417991922e-08
2.60250349307e-08
1.15626174605e-09
1.5918422984e-08
1.80097899881e-08
3.21108817085e-08
1.14975443762e-07
6.87799830297e-08
7.15214143145e-08
1.68528813302e-08
6.73047469107e-09
3.69558942501e-08
9.42690886447e-08
3.61188264623e-08
6.52143630788e-10
6.42699948627e-08
3.68490834586e-08
5.02993832784e-08
4.46884702695e-08
6.28678427507e-08
2.43652702806e-08
2.30028512624e-08
6.12291176656e-08
4.74164582377e-09
1.0829169321e-08
3.54357745765e-08
9.85965172551e-09
6.08005835045e-09
1.61146764684e-08
9.38177531112e-09
4.4846895537e-08
5.98948186387e-08
2.09827269774e-08
3.54428861787e-08
4.51232531485e-08
4.93823245065e-08
1.04601973101e-08
2.10215861091e-08
4.77758403466e-08
6.69629622985e-08
1.00332332159e-08
7.86777783475e-08
3.83280364713e-08
6.66414302716e-08
5.05991963803e-08
6.93687053921e-08
5.22173661345e-08
1.14986438522e-08
9.13192297725e-08
9.62618710005e-08
2.30222243718e-08
4.93400376089e-08
2.39147693079e-09
3.93730045934e-08
5.91281162687e-08
1.27759088229e-08
4.57703569217e-08
3.50104853741e-08
6.70763296272e-08
4.17476759329e-08
3.20466679444e-08
2.73465081638e-08
1.1490270122e-07
1.67315209317e-08
2.70670936556e-08
1.58649455077e-08
1.02524529168e-08
3.93672179766e-08
9.66300887495e-10
2.13399201758e-08
5.18027257167e-08
3.58621212945e-08
7.96916334365e-08
9.14677904226e-10
8.28815591157e-09
3.37721184288e-09
1.5946211403e-08
5.86418170332e-08
2.9813042497e-09
1.26143554464e-08
3.60158438823e-08
4.71110507224e-08
9.47492258081e-08
4.5367143622e-08
8.19236175547e-08
6.69767711855e-09
5.96039059724e-08
2.27667960229e-10
9.75172455739e-08
1.84208465841e-08
1.77229293093e-08
1.3178249698e-08
9.7540664163e-08
8.52825871985e-08
1.28689316019e-08
7.0116298014e-08
1.92499278487e-08
5.06751463659e-09
2.67263466997e-08
6.3589366581e-08
2.22343538612e-08
4.52842490341e-08
1.89678257947e-08
2.87026305589e-08
3.51339980345e-08
7.25448937715e-08
3.56211276567e-08
5.21005438437e-08
1.0377102191e-07
7.19125462559e-08
5.63040308076e-08
2.29355498958e-08
6.30561150258e-08
6.44480483072e-09
1.04334499168e-09
4.32544814341e-08
5.09918165387e-08
2.19660342955e-09
7.28376109802e-08
3.47792451335e-08
6.12307143697e-08
1.33548590405e-08
3.87413242413e-09
1.76535104735e-08
8.40034650066e-08
1.55970527653e-08
1.87839714628e-08
1.33221579636e-08
4.91872953847e-08
3.36202551888e-09
5.66023027927e-09
5.44075672913e-08
5.1420085659e-08
5.28989895636e-08
9.68392699456e-10
2.20270609027e-08
1.40592579378e-09
8.87888240266e-09
3.23782312707e-08
4.41246157934e-08
1.20782037989e-08
1.27498116929e-07
1.68114793567e-08
1.90309366577e-08
7.8798760162e-08
1.61062702606e-08
3.81765845608e-08
3.5377468309e-09
7.5234297377e-08
1.32847218935e-08
1.83330257071e-08
1.11355204306e-08
2.1175585915e-08
9.51464383167e-08
6.15004191475e-08
1.98598540848e-08
7.52562823957e-09
1.1035821174e-07
4.68099939549e-09
7.59111046134e-08
9.77839222487e-08
6.99461864431e-08
2.8402264666e-08
1.27338417866e-08
6.99071833002e-09
5.22345106969e-08
1.26196482012e-08
5.62609829245e-08
2.02391011038e-09
9.87917904218e-10
5.23798042075e-08
1.94903682199e-08
9.88204954471e-10
6.84293024779e-08
5.73326231345e-08
2.95282369376e-08
2.18486670944e-08
1.4051559794e-09
2.52700820437e-08
3.98461186665e-08
5.08989335865e-09
2.84938127219e-08
3.01906238819e-08
7.0615186198e-09
6.31265388897e-08
5.8172547712e-10
2.37079270787e-08
1.58211721154e-08
3.96599692872e-08
8.78840022426e-09
4.49789615544e-08
6.81987028789e-08
2.1844474164e-08
5.88438880918e-09
8.29512141957e-08
7.64883532994e-08
3.193396004e-08
3.23210301164e-08
1.3314034618e-08
1.10445625699e-08
8.23878156657e-09
2.89326337633e-08
3.07033605193e-09
2.62744859968e-08
2.3065967004e-09
6.83814977779e-08
3.14767637062e-08
2.20798271534e-08
5.45474388054e-08
3.3125520706e-08
1.52789206721e-08
5.22775562854e-08
1.93296116857e-08
1.42993329501e-09
4.30354907803e-08
5.75385558848e-08
5.47560176907e-08
5.47497276401e-08
1.76816268588e-08
4.0084471293e-08
4.31438274405e-08
2.51890396155e-08
1.56373265725e-08
5.27574653634e-08
6.20406776072e-08
2.80762657224e-08
3.47163359877e-09
2.41627124485e-09
3.68415585078e-08
6.59698623841e-08
2.41278845108e-08
1.11738977052e-07
1.3609086775e-07
5.50381858577e-08
1.02556874774e-09
1.43391102052e-07
4.45428925209e-08
3.68058273813e-08
4.10603825553e-08
1.4615213153e-08
1.50298969151e-08
4.48966693861e-08
4.91553612061e-08
1.35498277981e-07
8.19733490036e-08
7.84543445571e-10
6.18581576988e-08
3.31185758154e-08
4.43085494685e-08
1.26845838069e-08
8.44981555178e-08
8.37939850456e-08
5.23755748152e-08
2.54308232644e-08
8.17276090118e-08
1.32282982949e-09
6.97691575424e-08
1.79680989254e-08
7.63521453113e-08
1.00252324616e-08
4.9505581624e-08
8.08972370976e-08
5.73277637437e-08
4.64197505837e-08
6.01370481803e-09
2.30545373302e-08
1.29765994584e-08
1.05790489968e-08
1.76607272412e-09
2.75637594096e-08
1.5176242353e-08
1.18292615878e-08
3.606560755e-08
7.23762370392e-08
2.67706186774e-08
2.79628012744e-08
6.42166177086e-08
3.32871458353e-08
3.90165369268e-09
1.01578022636e-09
2.25741043756e-08
3.55439207966e-08
7.07261665047e-08
1.3373002326e-08
2.28179938952e-08
3.94907148795e-08
1.11334011214e-08
1.99684163034e-08
1.3348276807e-08
1.88962886682e-08
3.44453579697e-09
2.66663211664e-08
8.86240243119e-08
1.21211203939e-07
6.16607654945e-08
4.45867816809e-08
6.40669904747e-08
7.42600153185e-08
1.08852274873e-07
4.9969372116e-08
1.70690825944e-08
2.93136819975e-08
3.34964369713e-08
6.23226367161e-08
3.27249652787e-08
3.9346487163e-08
7.61459042353e-08
2.49810908864e-09
2.25217883202e-09
4.18380059414e-08
3.2957775313e-08
3.69041204636e-09
1.73656074601e-08
1.21357124493e-08
3.22084533404e-08
2.60083094224e-08
7.18762342145e-09
5.49301228753e-08
6.88386942273e-09
5.41612126221e-08
6.28475623065e-08
8.60285332851e-08
1.14381879112e-08
7.31895209065e-08
2.51532770779e-08
1.11525265792e-08
5.70565404302e-09
6.28728967262e-08
4.01667590205e-08
9.95050422229e-09
2.41646309732e-08
1.01310625126e-08
2.77580227139e-08
1.06172226996e-08
5.01079665974e-09
3.18166609541e-08
4.48327012558e-08
6.14196464412e-08
1.84167801858e-08
9.03294377479e-09
2.56413088457e-10
8.72414869471e-08
2.96974118696e-08
3.26526720335e-08
2.01614729353e-08
9.55822098263e-09
6.24306647852e-09
6.69437824334e-10
2.44712441637e-08
2.53673964622e-08
9.55326519568e-08
9.34018014253e-08
3.37686683551e-08
1.13082426089e-08
9.6762889061e-08
3.91437393594e-08
2.4654065081e-08
8.5987264236e-09
1.32544925203e-09
2.78741051285e-08
1.868351393e-08
1.52470581096e-07
7.10707900084e-08
1.6868836358e-08
2.43136343334e-08
1.0447950364e-08
3.99322845692e-08
4.39299622058e-08
2.7606514772e-08
7.75709571085e-09
1.07741417715e-08
1.60410838439e-08
8.03720441118e-09
1.47931437221e-08
2.08955539777e-08
3.60854410111e-08
3.78302482682e-08
2.95764263382e-08
6.08986599476e-08
2.99774822389e-08
7.07683757631e-09
2.08629469942e-08
3.0423752004e-08
8.17612827234e-10
8.5380412157e-09
9.39630471752e-09
4.65901652629e-08
4.62645028383e-08
3.4012605516e-09
8.75417621493e-08
1.82294081839e-08
3.76878728166e-08
7.52748581652e-08
1.39050763888e-07
1.29144653145e-07
2.34748270334e-08
1.02130748313e-07
4.62960703355e-08
1.16139965625e-07
3.15758031044e-09
5.97690414053e-08
4.79396388762e-09
9.92661533914e-10
7.94105463702e-08
3.86680950991e-08
1.39366583351e-08
3.3732823414e-08
1.87573556387e-08
7.54958260038e-10
4.94908973573e-08
2.77408830451e-08
4.54648372308e-08
3.28855806199e-08
2.25990198432e-08
7.53503951949e-08
5.27315677328e-08
2.09874512953e-08
3.9608551117e-08
7.7264051334e-09
3.33177029947e-08
9.96603785152e-09
7.61853806011e-09
3.01365082594e-08
2.35434400695e-08
6.15900863618e-09
6.48041936897e-08
2.02335645839e-08
5.34989091315e-08
3.08424789153e-08
2.60869771547e-08
3.25946864095e-08
4.52694206715e-08
3.92814514026e-08
2.83293518135e-08
3.10896282162e-08
5.48586955111e-08
4.63323413836e-09
3.02517471448e-09
5.01985878103e-08
5.00487966234e-08
5.7934488077e-08
2.19064453187e-08
2.68372515654e-08
4.58122123002e-08
6.22287824469e-08
2.49910671443e-08
2.13575777102e-08
6.63882505684e-08
2.36598879201e-08
6.71288967909e-08
2.13964072174e-08
7.10539843037e-08
1.7092465933e-08
5.526751817e-09
1.60265839937e-08
3.50942999041e-08
2.49651664759e-08
3.95102524769e-08
2.40894468039e-08
1.1968908175e-09
2.6478757202e-08
3.09287561918e-08
8.2970598671e-09
2.87653376257e-08
2.33297267065e-08
5.87253985186e-08
2.89789861318e-08
6.74149611502e-08
2.23586957771e-08
2.09530840969e-08
4.76327544563e-08
4.52189222949e-08
3.08070980568e-08
2.98229740842e-09
2.2695321916e-08
5.5448629452e-09
2.93579358561e-08
1.91858797993e-08
2.55689819418e-08
2.95256727151e-08
8.70731976914e-08
6.07137846203e-08
3.56535816166e-08
5.99617791402e-08
1.4082527998e-09
8.8464296312e-08
3.7482226847e-09
9.44733194407e-09
5.61635008078e-10
9.78551854093e-09
5.85456207879e-08
5.67200724904e-09
7.03967414317e-09