# vtk DataFile Version 3.0
File Name: Molecule/sphere_excent/sphere_excent_0-s25.vtk
ASCII
DATASET UNSTRUCTURED_GRID
FIELD FieldData 1
TIME 1 1 double
0.0
POINTS 896 double
0.96602535248 0.10644556582 0.23541636765
0.92573547363 0.024189412594 0.37617859244
0.96873009205 -0.09041133523 0.23025159538
-0.45840522647 0.77309948206 0.43820494413
-0.30631244183 0.79996418953 0.51586920023
-0.30213701725 0.86729127169 0.39390861988
-0.50025230646 0.64537215233 0.57724875212
-0.59127289057 0.65948200226 0.46084618568
-0.62539726496 0.67509365082 0.38443255424
-0.054954320192 0.71679145098 0.69481676817
-0.17592063546 0.6903834939 0.70167416334
-0.072739452124 0.64194691181 0.76325702667
0.44180622697 -0.89107775688 0.10230527818
0.3076672554 -0.94942986965 0.041242055595
0.50049114227 -0.86072403193 -0.090582251549
-0.096640720963 0.56176400185 0.82109671831
0.015486588702 0.58671247959 0.80950897932
0.061087850481 0.67658054829 0.73378753662
-0.15341590345 0.5870654583 0.79430401325
0.32798981667 -0.55420398712 0.76503622532
0.4078848362 -0.44726645947 0.79587203264
0.29761585593 -0.46601656079 0.83319735527
0.29029217362 0.33764016628 0.89538621902
0.27394193411 0.41299808025 0.868483603
0.22001075745 0.35406082869 0.90895301104
-0.33471632004 -0.3096434176 0.88999032974
-0.28083157539 -0.25437265635 0.92543953657
-0.34961894155 -0.21909455955 0.91088825464
-0.24207428098 -0.81082493067 0.53250157833
-0.22109644115 -0.88760834932 0.40354156494
-0.082571782172 -0.8664842844 0.49209484458
-0.20516633987 -0.57822436094 0.78963196278
-0.17764618993 -0.49840661883 0.84811031818
-0.28873234987 -0.51304733753 0.80786442757
0.11838043481 -0.34321814775 0.93175679445
0.044853903353 -0.38176611066 0.92306280136
0.12261977792 -0.44165176153 0.88873159885
-0.42786988616 0.26637363434 0.8636624217
-0.39694690704 0.19204996526 0.89727312326
-0.34328502417 0.25973632932 0.90226274729
-0.52955043316 0.31386834383 0.78798788786
-0.50395131111 0.22535431385 0.83356380463
-0.45129075646 0.32959464192 0.82910072803
-0.31543180346 0.15216915309 0.93658018112
-0.31722947955 0.21554502845 0.92333126068
0.62390768528 0.70184445381 0.34375792742
0.58442950249 0.6639572978 0.46575471759
0.69248086214 0.60051548481 0.39985823631
0.23981742561 -0.65550100803 0.71606385708
0.34967103601 -0.63806331158 0.68577426672
0.26980099082 -0.74233216047 0.6131631732
0.15339231491 -0.74746352434 0.64634519815
0.12201398611 -0.65607041121 0.74465876818
0.23086601496 -0.53942227364 0.80970323086
0.42948043346 -0.54657942057 0.71885967255
0.57463276386 -0.63913780451 0.51116830111
0.50646311045 -0.62223774195 0.59668934345
0.46223562956 -0.73181551695 0.50055533648
-0.13202142715 0.085056766868 0.98758667707
-0.093359343708 0.031348396093 0.99499732256
-0.081432774663 0.11426581442 0.98997217417
-0.25547078252 0.014033054933 0.96669238806
-0.30889177322 -0.052458941936 0.94963914156
-0.22077134252 -0.053557086736 0.97380030155
-0.41293299198 -0.62676990032 -0.65985053778
-0.6287150979 -0.59549039602 -0.4999858737
-0.60483920574 -0.41549342871 -0.6792794466
-0.80531650782 -0.31187343597 -0.50404447317
-0.62817257643 -0.20705807209 0.75000780821
-0.57871496677 -0.14830854535 0.8019412756
-0.63518631458 -0.092954859138 0.76677215099
0.81032305956 0.068424269557 0.58157110214
0.72409051657 -0.024532139301 0.68925714493
0.79405552149 -0.10019776225 0.59950143099
0.7252882123 0.11760002375 0.67827379704
0.71563851833 -0.18484413624 0.67352896929
-0.78978133202 -0.56135797501 0.24425524473
-0.71177625656 -0.61688566208 0.33581361175
-0.797126472 -0.48750558496 0.35503357649
-0.21813099086 -0.95323807001 -0.20877602696
-0.30605709553 -0.95107787848 -0.041108947247
-0.45728173852 -0.8728864193 -0.17023552954
-0.06065429002 -0.99793750048 -0.014281058684
-0.48810979724 -0.87100476027 0.055559564382
-0.6129502058 -0.78585469723 -0.081959322095
-0.66481041908 -0.7413546443 0.089853443205
-0.72337818146 -0.67211204767 -0.15780754387
-0.62835168839 -0.72395682335 -0.28455421329
-0.4708302319 -0.802067101 -0.36734840274
-0.77698558569 -0.54187649488 -0.32024136186
-0.17915451527 0.024903766811 0.98350125551
-0.15378035605 -0.038125656545 0.98713713884
-0.27004340291 -0.95415985584 0.12882786989
-0.043932318687 0.99759727716 -0.041901007295
0.012676540762 0.96144813299 -0.27078106999
-0.21572105587 0.95925176144 -0.18255347013
-0.19654127955 0.89309841394 -0.40435656905
-0.25793793797 0.18866312504 0.94742614031
-0.21714736521 0.10590855777 0.9703861475
-0.29379203916 0.11099272966 0.94894224405
-0.15101625025 0.15039865673 0.97699761391
0.86136233807 0.42579641938 -0.27695053816
0.68571484089 0.56988018751 -0.45286437869
0.73524701595 0.64174598455 -0.20653155446
0.79659432173 0.32047769427 -0.5122923255
0.53978508711 0.7712417841 -0.33716869354
0.61912310123 0.39444553852 -0.67897427082
0.43655699492 0.71653258801 -0.54368758202
-0.89547497034 -0.3651766181 -0.2544029355
-0.93689036369 -0.12764254212 -0.32550391555
-0.9670009017 -0.22997620702 -0.11009699106
-0.89665007591 -0.4405323267 -0.03880526498
-0.99093967676 0.0089486930519 -0.13425979018
0.60992652178 -0.020815044641 0.79219228029
0.55715996027 -0.11149124056 0.82284772396
0.64855718613 -0.12113111466 0.75147330761
0.62576377392 -0.23601870239 0.74342906475
-0.94651013613 0.14690932631 0.28718802333
-0.97345358133 -0.016600122675 0.22830161452
-0.90762364864 0.0035113818012 0.41953080893
-0.99547344446 0.071839995682 0.062633819878
-0.99206745625 -0.11216472834 0.056948240846
-0.95958298445 -0.16452755034 0.2282358855
-0.95302885771 -0.29979336262 0.041114185005
0.56836986542 -0.81638419628 0.098343662918
0.69806104898 -0.71547996998 0.01484795846
0.67404568195 -0.7168943882 0.17769375443
0.46929079294 0.87502628565 0.11587832123
0.57333642244 0.78508156538 0.2343351841
0.65429472923 0.74961841106 0.097149603069
0.70452094078 0.67055565119 0.23234449327
0.42243903875 0.85023617744 0.31397023797
0.52903926373 0.77012044191 0.35527324677
0.28167489171 0.86188012362 0.42167279124
0.26602756977 0.91819310188 0.29244273901
0.4120593667 0.78292870522 0.4654327035
0.27451899648 0.86690336466 -0.41289621592
0.40276110172 0.88732516766 -0.22451636195
0.51490724087 0.85179829597 -0.095049500465
0.3526519835 0.93449956179 -0.049004219472
0.24156922102 0.94549185038 -0.2182392776
0.15427690744 0.98477119207 -0.079116523266
0.23444789648 0.9684368968 0.079683840275
-0.81707680225 -0.56317144632 -0.12101031095
-0.5000873208 -0.014860576019 -0.86574143171
-0.70441997051 -0.13330411911 -0.69709533453
-0.68197542429 0.14441137016 -0.71683263779
-0.84649050236 0.011151212268 -0.53221923113
-0.79644721746 0.30174997449 -0.52394276857
-0.93080246449 0.15775996447 -0.32979139686
-0.86538314819 0.40267524123 -0.29785561562
-0.96547418833 0.23895901442 -0.10392181575
0.99436360598 0.09038221091 0.056134514511
0.90364515781 0.10483320802 0.41370549798
0.91917216778 0.21702416241 0.32859897614
0.94746226072 0.29208382964 0.13045279682
0.88176161051 0.35055974126 0.31487798691
0.86829853058 0.45562398434 0.19548791647
0.88761049509 0.4587328136 -0.028680577874
0.96147412062 0.25693362951 -0.096622407436
0.98874634504 0.00160793541 -0.14927701652
0.77905708551 0.55321484804 0.29494228959
0.47977051139 -0.14331720769 0.86558306217
0.48068520427 -0.07514359802 0.8735486865
0.40461429954 -0.12252213061 0.90624403954
0.38259536028 -0.20598167181 0.90062201023
0.32326865196 -0.1539593339 0.93369072676
0.73606169224 -0.44486856461 0.51011532545
0.81705886126 -0.42678585649 0.38743543625
0.78932124376 -0.32983565331 0.51780033112
-0.71475297213 -0.4659076333 0.52099329233
-0.65934431553 -0.39606893063 0.63850998878
-0.75046175718 -0.32683777809 0.57438421249
-0.6882597208 -0.27158105373 0.67268997431
-0.6029189229 -0.32769656181 0.72738856077
-0.76200246811 -0.17725004256 0.62278872728
0.1069445163 0.89717662334 0.42805090547
-0.037876613438 0.91679036617 0.39753329754
0.019973009825 0.85866969824 0.51140040159
0.16653090715 0.8353471756 0.52386444807
0.097055591643 0.77832436562 0.62021094561
-0.17095740139 0.87115842104 0.45975092053
0.06330126524 -0.2923476398 0.95377504826
0.14315542579 -0.25254967809 0.9569273591
0.074019156396 -0.19633971155 0.97773760557
0.14044442773 -0.14752757549 0.97899925709
0.20369246602 -0.31520068645 0.92691624165
-0.70127785206 -0.12602314353 0.70164513588
0.92793095112 0.14514775574 -0.34312736988
0.78453016281 -0.59500843287 0.16918990016
0.70982587337 -0.63630908728 0.30170038342
0.7498729229 0.65921455622 0.044972196221
0.78816020489 0.60008895397 0.12986117601
0.3014793992 0.79522877932 0.5260540843
0.38052818179 0.71409451962 0.58709931374
0.21996405721 0.76567697525 0.60418045521
-0.29609495401 0.46703898907 -0.83316665888
-0.57602775097 0.410174191 -0.70697331429
-0.4432323873 0.63972681761 -0.62780016661
-0.67844265699 0.5337215066 -0.50481808186
-0.56908798218 0.72626107931 -0.38549953699
-0.59469801188 0.55925953388 0.57726454735
-0.55793374777 0.50603562593 0.65712624788
0.99333459139 -0.11309324205 0.023557841778
0.95539438725 -0.26496788859 -0.13056519628
0.95415133238 -0.29284787178 0.054427351803
0.65743231773 0.54403322935 0.52134948969
0.7520903945 0.48043364286 0.45118623972
0.71343886852 0.42665672302 0.55574846268
0.78322851658 0.33539876342 0.52349877357
0.25609284639 0.61097681522 0.74906599522
0.29388591647 0.66657632589 0.68456840515
0.18076308072 0.70491337776 0.68587708473
0.35202303529 0.57920891047 0.73518747091
-0.69554966688 0.47898843884 0.53446304798
-0.72911119461 0.37741801143 0.57085698843
-0.63963657618 0.46059831977 0.6152857542
-0.0084674237296 -0.21534919739 0.97645902634
-0.043003298342 -0.16077075899 0.98605841398
-0.069823585451 -0.20645569265 0.97594606876
0.012462582439 -0.14723050594 0.98885422945
0.096341907978 -0.10929871351 0.98927235603
0.085610315204 -0.033860418946 0.99566245079
0.14193081856 -0.066157363355 0.98762226105
-0.40648174286 0.90582764149 -0.11943156272
-0.31326109171 0.94867920876 0.037075281143
-0.3879956305 0.872166574 -0.29790633917
[...]
CELL_DATA 1788
SCALARS cell_data_0 double
LOOKUP_TABLE default
8.83013258997e-08
9.03631830322e-08
2.46066703054e-07
8.81949843442e-08
3.43187926874e-08
5.47367346818e-08
6.31018433705e-08
1.06734126871e-07
1.26741874749e-07
7.95622186994e-08
1.67004202839e-07
3.46818788073e-08
1.87905876744e-08
1.80071441921e-07
8.67069911046e-08
1.50952168731e-07
3.47189478775e-08
9.01963350294e-08
1.79492282479e-07
2.91859849278e-08
7.13024891523e-08
1.08608865074e-07
1.23585255417e-08
1.13474067024e-07
2.88950746103e-07
6.82293055557e-08
1.19579116835e-07
1.12153318619e-07
1.69770951591e-07
8.20234110197e-08
1.00640613539e-07
1.55608901826e-08
7.08325585164e-08
3.06235166519e-08
3.94003899139e-08
8.41185372994e-09
4.78668367071e-08
4.54069562382e-08
4.27635884356e-08
6.31927627853e-08
1.20905489973e-07
1.03839304747e-07
1.54006872429e-08
1.19802444877e-07
1.44904672772e-08
9.38700543898e-08
8.89880463872e-09
1.04727075082e-07
1.33557891863e-08
1.50479081937e-07
9.74542771208e-09
1.8988816382e-08
2.84953209732e-08
7.23824311811e-08
2.50791085171e-08
1.00057267944e-07
1.78873273468e-07
2.3681573568e-07
3.46138318e-08
2.10881838942e-07
2.42364703054e-08
6.27330444518e-08
8.63527907762e-10
2.9990841254e-08
2.8441579883e-08
5.23950634899e-08
8.09048598478e-09
4.80183044442e-08
7.54974970861e-08
4.2200446583e-08
3.39503399798e-08
2.26079077153e-08
3.97576479541e-08
1.25323563134e-07
6.92346899372e-08
6.95062030203e-08
4.63527061709e-08
8.91243723604e-08
3.67596498118e-08
9.50268663769e-08
6.14845296785e-09
3.30489736086e-08
3.49004257428e-08
1.42945161771e-08
2.43630802634e-08
5.9896673307e-08
3.98259980526e-08
1.96017766465e-08
1.18845574898e-08
1.44347339884e-09
2.00979792493e-07
5.86368201161e-08
5.66725346087e-08
7.44160229061e-08
2.12400624219e-08
1.41402385075e-07
2.26770308651e-08
7.39523051455e-08
1.83292368865e-08
1.10795586086e-07
1.37361804003e-08
6.25385168674e-08
8.38929118279e-08
1.01016423569e-07
2.48091764322e-08
3.57625980965e-08
2.55924158937e-08
1.45164358805e-07
9.23454105528e-08
1.51923841681e-08
9.92194518683e-08
1.15608543407e-08
1.90779356754e-07
7.59877192607e-08
3.61303101647e-08
2.53430320467e-08
9.0529082044e-08
8.7206453686e-08
3.61519696619e-08
5.83899668142e-08
3.82111454377e-08
3.64477879213e-08
8.15872700115e-08
1.22437759045e-07
3.98177120639e-08
1.46017075552e-07
1.93908317647e-07
9.67311422932e-08
3.78881811988e-08
2.61798025761e-08
1.3736923071e-08
9.72757876413e-08
1.36722947396e-07
1.53957697746e-07
7.69478795419e-08
3.84657204463e-08
2.87957354195e-08
1.60248980724e-07
2.08648884226e-07
2.79301632451e-08
2.49028684528e-08
1.29126544268e-08
5.53218260076e-09
9.21213098331e-08
2.35784524043e-08
5.13819871113e-08
4.63027786959e-08
8.49328312845e-08
3.31052499848e-08
4.6103350902e-08
2.52285802119e-08
6.52211766095e-08
7.80100927856e-08
4.23640536069e-08
5.26486351442e-08
2.40591487715e-08
1.34953584587e-08
2.99728733676e-08
9.20382876633e-08
1.34504892892e-08
1.04643958078e-07
1.55334693553e-08
1.03005876388e-07
3.54933656341e-08
1.17560849988e-07
6.3315284068e-08
8.78643919322e-08
8.24107021912e-08
4.45316237117e-09
9.54301759076e-08
7.43584811152e-08
5.47500530775e-08
4.20754723887e-08
4.36652418147e-08
3.97488428165e-08
1.24256682764e-08
6.95472150092e-08
1.64385608584e-07
1.66622997387e-07
4.2952544756e-08
3.76300090496e-08
2.00788714812e-08
1.73231831248e-08
1.01258886565e-07
1.80669859292e-07
8.64084514805e-09
3.84597985589e-08
2.46892002224e-08
1.71981887406e-07
1.42359959099e-08
1.33372868088e-07
6.23288694844e-08
3.21359240745e-09
1.42366989947e-07
4.94376770649e-08
1.20330909067e-08
2.19257885805e-08
3.11811933019e-08
1.69987838816e-07
1.5078503822e-07
2.55992186984e-08
8.9314510121e-08
9.14586708884e-08
3.84849593881e-08
1.62083854433e-08
6.2028623296e-08
5.94039162752e-08
1.36367719818e-07
7.18695464344e-08
3.55616365733e-08
1.45054575597e-07
2.26185915066e-08
1.35206625411e-08
9.26890246049e-08
3.71825559443e-08
5.68871078194e-08
9.78430550043e-08
1.13560092995e-07
1.72071420004e-08
3.95070840209e-08
2.62708823701e-08
1.28448324202e-08
9.32329375165e-08
2.66834125988e-08
1.98576254055e-08
8.57868498792e-08
1.51340508727e-08
3.63589806814e-08
2.25229586894e-08
7.45059458367e-08
2.96736331028e-08
6.06634557973e-08
2.17493459487e-08
5.59849229428e-10
2.55584524081e-08
5.36403028001e-08
2.25491978201e-08
1.13383228449e-07
5.12507450847e-08
3.63434508281e-08
2.71273905275e-08
1.01949959751e-07
6.83782092356e-08
2.23503907873e-08
7.276643225e-08
6.80238404831e-08
4.68389318623e-08
5.43115114625e-08
1.16148540013e-07
2.81497837437e-08
5.2924411631e-08
9.86866321569e-09
2.74966305796e-08
1.22458294648e-07
1.60629044861e-09
1.21135429664e-07
6.4632869099e-09
7.6038392315e-08
4.10389651671e-08
4.40698355927e-08
4.70320849617e-08
3.25420984073e-08
7.82173674543e-08
1.19642334495e-07
8.30370592303e-08
1.80540639258e-07
7.41305319907e-08
8.75208797149e-08
5.22683169336e-08
2.39765948784e-08
4.15251218459e-08
1.8945103435e-08
1.90137834024e-08
2.99000075519e-09
7.30776872316e-09
4.70471878441e-08
2.76670395843e-08
7.10671936442e-08
1.5798327455e-08
6.28559712515e-08
3.76448488562e-08
5.35154294645e-08
5.51554353127e-08
3.40168052886e-08
1.43788303625e-08
1.60179211441e-07
9.4334232653e-08
2.51521632385e-08
1.30959606352e-08
1.66257938687e-08
9.68151372563e-08
6.97910414916e-09
7.63473920709e-08
4.57482781742e-09
7.13925315562e-08
3.56688605862e-08
1.47610536507e-07
4.02007894772e-08
4.73385598716e-08
1.09414383552e-07
1.13498522218e-07
2.20226280902e-07
6.45502447468e-08
1.99430600568e-08
6.12564508906e-08
4.27274757874e-08
5.00937785375e-08
8.74462948647e-08
7.69339780132e-08
5.53675980357e-08
7.28684741849e-08
5.67322236229e-08
7.44348663509e-08
3.48753587532e-08
3.00842079576e-08
1.10256301768e-07
7.62764699136e-08
2.85051821337e-08
7.86202063646e-08
9.61242017569e-08
5.7684215867e-08
8.19730269495e-08
4.20181138839e-08
1.14137056329e-08
1.31089960236e-07
5.83818929954e-08
4.12048917077e-08
1.4863151932e-08
2.15952003555e-08
1.46161574674e-09
1.77892955209e-10
4.92717234714e-08
6.63453877322e-08
6.66011397109e-09
6.37859294022e-08
1.23218435251e-07
9.92419047709e-08
6.48972001828e-08
5.26243333937e-09
1.13730538777e-07
6.82452682859e-08
6.72960194248e-09
4.62001848778e-08
6.23897602784e-08
4.64354727281e-08
9.28109949914e-08
8.06340601419e-08
1.93599181455e-08
1.09707176792e-09
3.11246432636e-09
3.8028815444e-08
6.37784442435e-08
3.24611999355e-08
2.40984418844e-08
3.33584816142e-08
2.10685926381e-10
1.21215561941e-08
3.79773421492e-08
5.28847995595e-08
9.65802251788e-08
1.48827157128e-08
3.8824262093e-08
4.6940262736e-09
1.6763955778e-08
7.17171674207e-08
1.4773147214e-08
7.3032389382e-08
7.32907902987e-09
5.35275261938e-08
2.04078877163e-08
4.27696785523e-08
2.79775786257e-08
1.26699694133e-08
2.79239765212e-08
7.78753511843e-08
4.47351252952e-08
4.72407987412e-08
7.44754647232e-08
1.82731500236e-07
2.79903471279e-08
1.56771364431e-08
4.30604540975e-10
4.83679905323e-08
4.25442979833e-08
1.73708275301e-09
6.50299391399e-08
2.08823428427e-08
1.32891362763e-08
8.81177750671e-08
5.98355433563e-09
1.956467012e-07
9.30698981854e-09
5.00123584096e-08
7.42729092491e-08
9.32452875255e-08
7.48800065437e-08
8.03195463745e-08
3.77605735362e-08
4.30600793382e-08
1.21015064831e-07
8.98655821199e-09
6.48777900692e-08
3.89200513794e-09
3.98409974921e-08
4.55065753305e-08
5.68694395809e-08
1.40978042483e-08
3.23325349021e-08
1.42118101483e-07
8.9562808814e-08
1.43739840104e-08
5.90764144176e-09
7.77175057668e-08
1.13566207699e-08
1.82081972181e-08
6.54352560859e-09
2.80527868142e-08
1.17830312841e-07
4.52764273703e-08
1.00562930744e-07
6.64814416107e-08
7.06668392337e-08
8.52110316933e-08
2.46974873414e-08
5.82883808093e-08
1.44266183671e-07
7.18786193865e-08
3.18760655457e-08
4.63453245402e-08
3.62611415954e-08
2.20804155547e-08
1.98666128092e-08
3.82999944375e-08
1.08711733211e-08
4.17506382791e-08
3.34975121272e-08
4.56779011674e-08
1.55798364362e-07
3.9767567342e-08
4.77160506052e-08
1.08898382468e-08
1.17072598945e-07
4.10335476178e-08
3.59267026015e-08
5.95005139121e-08
3.19385602708e-08
3.45057007171e-08
4.45932035959e-08
8.40333175875e-08
1.29600253553e-08
8.73480633354e-08
5.21501825179e-09
1.09655515543e-08
1.32342510484e-07
3.62470235864e-08
3.0686912249e-08
2.27582666007e-08
7.80475554387e-08
8.83373640771e-08
3.94140055247e-08
8.68807291297e-08
7.96664575616e-08
1.33116255227e-08
8.87738693063e-09
1.04929435227e-08
5.04921709198e-08
4.55516583019e-08
2.37853080199e-08
5.70212812958e-08
3.72993378732e-08
1.58394125696e-08
3.15774143828e-08
6.35791052211e-08
8.73741004753e-08
1.25510722231e-08
3.15794725799e-09
2.44041669839e-08
1.27935322157e-09
6.21049019159e-08
6.21351284085e-08
8.53810371801e-08
4.24718879428e-08
1.83066141261e-08
1.89819723853e-08
2.80111989798e-09
1.24081427595e-08
3.39947232547e-08
2.5577555216e-08
3.41724167882e-08
2.14202997047e-08
4.13104191031e-08
3.4753940894e-08
4.6771537347e-08
8.63255533527e-08
2.4323020069e-08
3.14336393595e-08
1.66374578585e-08
6.97697968489e-08
1.10270776602e-07
8.64406024907e-08
1.14098074996e-07
1.76461615636e-08
2.2030043986e-08
4.8327584341e-08
2.22535154973e-08
2.92853533914e-09
4.30357541307e-08
6.22815428928e-08
1.29313300038e-08
1.04786124906e-07
3.52654965256e-08
7.22837331722e-08
1.72706281376e-08
3.25545996431e-08
1.3439160567e-07
6.41510399959e-08
2.20402496398e-07
4.89869869159e-08
8.74411005887e-09
1.98985909548e-08
2.61708271352e-08
1.14101251715e-08
4.44642998886e-08
7.77610197093e-08
2.08812126163e-08
2.97019974737e-10
5.15383218367e-08
1.05637715662e-08
7.27670861049e-08
2.84757397603e-08
2.76248018798e-08
9.08041809689e-10
2.67531325893e-08
2.59934288631e-08
1.41270357678e-08
3.79594969942e-10
9.68034918546e-08
1.9530320514e-08
5.08048316378e-08
9.51544499848e-09
9.92034147e-08
8.77883297848e-08
8.36752887014e-08
4.71879746873e-09
2.41337268819e-08
1.4048506264e-08
1.48376832665e-08
2.21388123082e-08
1.36161220061e-08
1.43815518131e-07
6.2242590426e-08
2.33289866894e-08
2.95822009017e-08
7.45177820378e-09
1.23777012503e-07
7.84677312276e-08
2.90432519987e-08
2.61108610589e-08
2.80689514149e-08
1.37344727358e-08
6.58149006339e-09
7.54060551781e-08
3.96391715113e-08
6.82132913814e-08
7.44222278462e-08
4.79653099271e-08
6.39228726076e-08
8.59512284724e-09
2.87764974946e-08
5.82716766883e-08
8.22350809074e-09
3.29760693903e-08
2.02124242959e-07
1.18241635997e-08
8.9610927905e-10
1.87810943258e-08
2.13533527828e-08
5.32082681581e-09
2.9463465314e-09
1.44020614312e-08
8.45002375325e-09
1.21707491324e-08
6.53225703127e-09
4.69567744084e-09
8.4280142487e-08
2.06990353619e-08
5.80738049426e-08
6.04246916242e-08
8.21615776694e-08
5.44454902657e-08
1.07930644883e-07
1.07567328153e-08
5.05478661396e-08
6.50918787044e-08
3.21078496483e-08
1.11887081551e-07
7.09565520275e-08
7.50694125464e-08
1.12529517816e-07
1.1079899172e-07
7.66354802057e-08
3.28958502373e-08
2.78576672589e-08
8.62355855684e-08
3.21802377847e-08
4.11979619456e-08
2.28319267262e-08
5.4370196576e-08
4.51422576549e-08
6.55003402798e-08
6.46014078302e-08
4.95661859236e-08
4.28416966826e-08
3.87092811763e-08
3.96503734455e-08
5.82131149206e-08
2.84707217939e-08
5.38498183463e-08
1.90030171135e-08
7.47038994103e-08
1.4539815568e-08
3.16638703527e-08
6.53533611368e-09
4.34047574559e-08
7.33888748036e-08
6.95251287073e-08
1.90023917479e-08
2.38506409264e-08
1.82253904718e-08
2.89673045519e-08
9.16539294695e-08
6.40845195636e-09
1.1272952516e-07
7.60723074981e-08
2.0520870958e-08
1.33470795565e-08
4.05240819522e-08
4.00212253604e-08
2.96231955009e-08
4.20440554918e-08
2.0691621388e-08
5.82564004834e-08
1.19568550158e-07
6.06954105852e-08
2.32612984382e-08
3.74459968067e-08
6.17055933774e-08
3.32235391121e-08
1.62468061548e-08
8.0411066832e-08
1.15676746969e-07
5.06200697456e-08
1.20071997677e-08
9.13612070763e-08
2.92997078143e-08
6.99677961821e-08
3.49195663919e-08
3.03488054108e-08
3.35614215918e-08
7.73099107178e-09
1.15927712462e-07
5.06512531274e-08
1.46396437367e-08
1.90120804713e-08
3.34409856608e-08
5.45754435761e-08
9.69555861656e-09
1.78277018006e-07
5.71982164283e-08
1.07001690412e-08
4.42327712521e-08
4.74370883234e-08
7.3497773857e-08
6.06502964042e-08
2.12637938999e-09
2.22718546295e-08
3.68542704348e-08
9.07058377895e-08
2.03222779278e-08
1.42113471125e-08
1.60836035879e-08
6.16352246983e-08
1.54940607598e-07
3.40638682266e-08
3.50848871735e-08
6.74133302848e-08
7.61627806142e-08
2.17336993178e-08
2.51357445847e-08
1.11019359498e-07
9.88835018757e-08
8.22722988249e-08
2.70247585722e-08
1.05016282064e-07
5.03256717912e-08
2.07870421317e-09
2.50988534239e-08
8.49189817815e-08
2.34248707899e-08
3.55329575401e-08
5.8129894242e-08
9.05708208801e-08
9.90936207232e-08
3.60513423845e-08
6.43109750027e-08
2.66979865976e-08
4.74809412011e-09
1.60624550029e-08
1.39202646482e-09
3.26158759227e-08
2.06646196216e-08
1.14790329042e-08
6.03070180405e-09
1.59101066061e-07
6.00267430013e-08
6.20009894842e-08
1.14245761227e-07
2.36315742038e-08
3.98048188502e-08
1.16050812207e-08
7.75299229698e-08
7.98899635808e-08
7.20491736519e-08
6.76663070564e-08
6.92714658667e-09
7.96441034813e-08
2.09264876864e-08
3.27324703474e-08
6.3501481701e-08
2.85668116119e-08
5.88777215615e-09
6.17761992697e-08
1.74367575268e-08
7.07688923803e-08
7.41046674831e-08
1.3452187844e-08
3.02961774336e-08
4.72366435896e-08
5.72113224979e-10
2.11800470721e-08
9.31860567669e-08
2.33430271001e-08
2.90000352187e-08
3.54768399856e-09
6.19255159477e-08
2.70002909292e-08
7.3269285245e-08
2.15417012365e-08
1.65868430385e-07
2.58410928753e-08
2.79027858738e-09
6.42855062444e-10
2.82528628907e-08
2.62207881177e-08
3.8206550317e-08
2.35810404557e-08
3.82588430494e-08
7.76663480743e-08
9.41551296628e-08
3.76038330887e-08
3.99593585315e-08
3.16741119293e-08
1.18462519938e-08
6.32411317073e-08
1.97815033493e-09
1.54349033312e-08
6.18181615199e-08
1.68361416222e-07
8.10152320171e-08
1.07799504182e-07
4.33348132827e-08
6.77747985667e-08
5.5154942909e-08
5.33739523944e-08
5.00916862415e-08
1.14918296222e-07
1.05493533926e-08
2.27755112192e-08
1.70796167773e-08
1.29645074192e-08
2.58195946055e-08
3.65813703134e-08
2.04161371723e-08
1.68522624651e-08
3.200796784e-08
8.68609921286e-08
8.47819561378e-08
4.02786046526e-08
7.09242219848e-08
2.67119686538e-08
5.49570376401e-08
1.06518088813e-10
2.11876630443e-08
8.0145489214e-08
2.741206478e-08
4.79176523065e-08
3.17272698204e-08
2.32553676143e-08
1.07652910319e-08
2.80617685262e-08
3.43732820223e-08
1.96383622419e-08
8.79684142708e-08
2.08930597644e-07
4.13760512457e-08
3.28471494222e-08
3.89804728519e-08
4.12538368601e-08
1.85456947033e-08
2.5526419781e-09
2.84405106823e-08
4.29816062327e-08
2.75512072371e-08
5.1332848422e-08
2.59470322097e-08
2.06401365314e-08
8.04092649552e-09
3.54097709789e-08
4.38301974244e-10
2.45028084245e-09
7.22683225459e-08
7.58155385482e-08
7.16351736786e-08
9.89577332393e-08
3.25506866641e-08
3.1928632111e-09
6.71571655073e-08
9.96847356263e-08
8.7120640283e-08
1.42751919765e-08
9.47176848821e-09
3.96547207807e-08
6.02064098592e-08
1.51631386148e-08
4.64513055095e-08
5.96990620667e-09
2.53590708329e-08
5.17296174161e-08
2.03120295576e-08
2.08998468568e-08
1.00524235621e-07
3.3725040402e-08
6.30457405608e-08
1.42572578292e-08
8.0000509656e-08
1.26699270153e-08
4.77771268924e-08
7.65151418914e-08
2.49041658826e-08
1.09134611547e-08
9.05340826666e-08
6.20275087787e-08
5.65751570132e-08
2.47494752286e-08
1.16883235909e-07
4.14314884812e-08
3.17888431254e-08
4.68888521419e-08
2.33799251766e-08
9.54658620694e-08
1.57513290268e-08
4.72621100375e-08
2.32867058166e-08
1.23850128561e-08
4.14041500853e-08
5.35646229046e-08
8.23004089928e-08
3.97809225923e-08
7.81995275636e-08
3.99871305012e-08
2.48538799054e-08
4.91074164927e-08
3.19627586793e-08
3.04268436577e-08
3.35267564324e-08
2.10918593944e-08
7.2886789691e-08
3.44690218849e-08
4.727887614e-08
8.72581241607e-09
1.07919969152e-08
4.52614115787e-09
6.19384223766e-08
3.48989340763e-08
1.00962345482e-07
3.88766796933e-08
1.09659906558e-08
5.37728570351e-08
2.10799331095e-09
4.99817496173e-08
2.36956746103e-08
3.03572834858e-08
6.06444598804e-08
4.12356671137e-09
4.72020398426e-09
5.45993318634e-08
2.63832010583e-08
7.75215201054e-08
1.98223720354e-08
2.3653519098e-08
3.78667131978e-08
4.73696569208e-08
6.96359199488e-08
5.15232323719e-08
2.43808106099e-08
4.47210332576e-08
5.15241846129e-08
9.72206676718e-08
9.83024433102e-08
7.54222037225e-08
1.09142570419e-07
5.39082930367e-08
9.95740823155e-08
8.95643126299e-08
2.00093204396e-08
2.83190873858e-09
3.11534664844e-08
1.73977451932e-09
3.52404762196e-08
2.28282394354e-07
9.75802617338e-08
8.07810769738e-08
3.3911899934e-08
7.63962986411e-08
3.38309986733e-08
1.13762004491e-07
1.31993798328e-08
4.57121921501e-09
4.70200157327e-08
1.93210737245e-08
1.13375565023e-07
5.63490484273e-08
1.9497668936e-08
9.83108860856e-09
6.93323174147e-08
5.82289884166e-08
3.58441404099e-08
2.36589294749e-08
7.83339927418e-09
9.30276472308e-08
3.35053400236e-08
1.2836833128e-07
6.26320329699e-08
8.53036557372e-08
1.02674154721e-08
1.21918455009e-07
1.14924378144e-08
4.99853640743e-08
4.68983619635e-08
1.90779314294e-08
3.63526753303e-08
4.31600428432e-08
3.4630490744e-08
1.5908403732e-08
1.50515487765e-08
9.31484819058e-09
5.49541429627e-08
3.04951802902e-08
5.74989273797e-09
2.09726297595e-09
1.69638013557e-09
2.6027559067e-09
2.95329166051e-08
6.05418863572e-08
7.51055624742e-08
3.43522444577e-09
2.95321648966e-08
3.33350669588e-08
2.13127553959e-08
2.41932121773e-08
6.70784150526e-08
1.26796621898e-08
3.68680750746e-09
2.25292808844e-08
7.32022504914e-08
1.90411476612e-08
7.00306976221e-08
1.27267763356e-07
8.51942272124e-08
6.4628303725e-08
5.61283335136e-08
2.68193162538e-08
4.14349931617e-09
7.84345292629e-08
1.59537362527e-08
9.33165885965e-09
3.93585512047e-08
2.8057137127e-10
2.21370751268e-08
2.59248155475e-08
3.73915162827e-08
5.33525248966e-08
6.65339893898e-08
1.86958753592e-08
1.82973981491e-08
2.81544034989e-08
6.36573234871e-08
4.28481480497e-08
2.4457491363e-08
5.65769031531e-08
7.13272484716e-09
9.65460333578e-09
8.04144501734e-08
3.85369394881e-08
1.15843616669e-08
4.18866575204e-09
8.23191828233e-09
2.6613863967e-08
8.80116980944e-09
1.12466453044e-08
4.44918853132e-08
8.84391128782e-08
4.4966149682e-08
5.38853800413e-08
3.20648613235e-08
3.7078536666e-08
8.10360947349e-08
8.57045619381e-08
1.43141384273e-07
2.6802277254e-08
1.08039563434e-07
4.86730777904e-08
4.26107961905e-08
4.1187467358e-08
5.35525526421e-08
3.17421961743e-08
1.53214217151e-08
2.97335832068e-08
2.7786512175e-08
3.58472697865e-08
4.42159692506e-09
3.14110817593e-08
1.18091352582e-07
1.08580197298e-07
1.1996947812e-07
6.83336420741e-08
2.69399704936e-08
2.15990395936e-08
4.8563821059e-09
6.20629380637e-08
3.78450017681e-08
2.27448305537e-08
1.51399118864e-08
2.40282124383e-08
1.37726117764e-07
2.2248662496e-08
8.7197221222e-09
1.18215688262e-08
4.98471895931e-08
8.2948085588e-08
8.0839185185e-09
2.85405058986e-08
2.46298347076e-08
3.96745778287e-08
2.16756143371e-09
9.19771722394e-08
7.70176268208e-08
1.10568959222e-07
2.30579020007e-08
1.71705468899e-07
5.50292297115e-08
2.15376874579e-08
9.92129676359e-08
5.53584729844e-08
8.73524578262e-09
6.90074843126e-08
5.39793404499e-08
1.80553397711e-07
1.08413174155e-07
6.60820925557e-08
4.61854624836e-08
5.92750882988e-08
4.69136212862e-08
3.88697511182e-08
1.58346146907e-08
1.82276749842e-08
2.90755596589e-09
2.31799671604e-07
4.43558325638e-08
1.69906487392e-08
8.68676767762e-08
1.32412811515e-07
8.48014331161e-08
9.96702340398e-08
9.84965916781e-08
6.62723975742e-08
4.76415552196e-08
3.73463393084e-08
2.35128993097e-08
2.74505610689e-08
1.52401300628e-08
6.69794781617e-08
4.29013673753e-08
2.6719907577e-08
3.02939489008e-08
5.25608953744e-08
3.58053606594e-08
1.02372509193e-08
2.31695613193e-08
7.51225425374e-08
3.47609163235e-08
1.00672419582e-08
6.0045515089e-09
1.43277014782e-07
2.04184048241e-08
1.60814958202e-07
6.74991382006e-08
5.13446720459e-08
1.38605852369e-08
2.14963300211e-08
5.64922378781e-08
3.65065827355e-08
9.36627591663e-08