# vtk DataFile Version 3.0
File Name: Molecule/sphere_excent/sphere_excent_0-s11.vtk
ASCII
DATASET UNSTRUCTURED_GRID
FIELD FieldData 1
TIME 1 1 double
0.0
POINTS 133 double
0.85164505243 -0.52435058355 -0.006089755334
0.80756616592 -0.3095767796 -0.5019826293
0.99727338552 0.0020016587805 -0.070991747081
0.80705142021 0.31042462587 -0.50229859352
0.52552556992 2.6416371838e-05 -0.85077822208
0.85121911764 0.52480906248 0.0003095738939
0.49977147579 0.80856400728 -0.31059494615
0.30882963538 0.49991893768 -0.80901312828
6.0290781221e-06 0.85055482388 -0.52589911222
0.48390215635 0.83682137728 0.25479543209
-0.00027867866447 1.0000653267 -0.00400222186
0.034980766475 0.87563121319 0.47973909974
-0.4996522665 0.80791044235 -0.3126450181
-0.49900829792 0.83428734541 0.22871002555
-0.85094559193 0.52532279491 5.3477415349e-05
0.30889111757 -0.49993145466 -0.80899387598
-1.6607828002e-05 -2.6580912618e-06 -0.9998921752
-0.30894985795 -0.49995088577 -0.80894988775
0.00017716930597 -0.85075557232 -0.52552360296
-0.5256562829 1.1050449757e-05 -0.85069710016
-0.80762833357 -0.30964875221 -0.50184249878
-0.80765283108 0.30993059278 -0.50162631273
-0.99724775553 0.0016299842391 -0.071573533118
-0.85148489475 -0.52452009916 -0.0058711650781
-0.30884212255 0.49985721707 -0.80904966593
-0.49975946546 -0.80909109116 -0.30910441279
-0.50213772058 -0.81230348349 0.29392576218
-0.00050248252228 -0.99970090389 -0.010406183079
0.50471234322 -0.79847151041 -0.32361149788
0.024395234883 -0.52358812094 0.8511095643
0.32700052857 -0.54240471125 0.77360886335
0.20857769251 -0.33280479908 0.91961246729
-0.53377705812 0.016344498843 0.84536248446
-0.33468621969 -0.14669181406 0.93080341816
-0.2383480221 0.027453871444 0.97075885534
-0.11241340637 -0.12960126996 0.98514562845
-0.19528469443 -0.33255940676 0.92197394371
-0.010007309727 0.040449332446 0.99799311161
0.0021327214781 -0.2893320024 0.95713472366
0.10951907933 -0.12967291474 0.98549741507
0.31579452753 -0.15114633739 0.93658173084
0.22613435984 0.01988196373 0.97370100021
0.47464251518 -0.28205543756 0.83370959759
0.57658052444 -0.0074855405837 0.8165397048
0.70304501057 -0.17447473109 0.68932145834
0.58465999365 -0.45000940561 0.67419022322
-0.58629965782 -0.43963187933 0.67954671383
-0.48597854376 -0.27257955074 0.82904839516
-0.70075660944 -0.16402728856 0.69434022903
-0.86680477858 -0.0066625997424 0.49862003326
-0.71872484684 0.13504040241 0.68142330647
0.038670659065 0.48081055284 0.87398838997
0.26875466108 0.37532016635 0.88700258732
0.33470529318 0.54890871048 0.76558798552
-0.3398449719 0.18490703404 0.92204040289
-0.45137369633 0.30878961086 0.83700060844
-0.27846866846 0.38300007582 0.8804282546
-0.36639279127 0.53822487593 0.75902462006
0.47460651398 0.3364571929 0.81254631281
0.13602381945 0.25779634714 0.95623135567
0.3114105165 0.16900762916 0.93475031853
-0.13462129235 0.24306279421 0.95993614197
-0.68794691563 0.59318637848 0.41827586293
-0.57070559263 0.47176456451 0.67109960318
-0.45805239677 0.68165344 0.56972646713
-0.82527780533 0.30269521475 0.47556480765
0.95872181654 -0.15589728951 0.23792165518
0.83829027414 -0.32905742526 0.43379387259
0.95392179489 0.16057124734 0.2538895905
0.86502456665 -0.004444740247 0.50187653303
0.80705159903 0.31751444936 0.4977991581
-0.95594263077 0.15601301193 0.24866652489
-0.95874321461 -0.15679521859 0.2371725291
-0.83817619085 -0.32886445522 0.43397009373
0.71358770132 0.13807679713 0.68587255478
0.68247622252 0.59968262911 0.41805571318
0.41322115064 0.7133461833 0.56419599056
0.59179848433 0.4826194644 0.64519947767
0.074464142323 0.671241045 0.73431122303
-0.17646412551 0.57250750065 0.79937887192
-0.18854364753 0.69579201937 0.69287449121
-0.70383924246 0.36417552829 0.60995841026
-0.60358434916 0.25155544281 0.75670522451
0.18258599937 -0.72706758976 0.66181182861
0.41235253215 -0.71128243208 0.56911271811
0.2527269721 -0.86729437113 0.42895501852
-0.020694633946 -0.85734677315 0.51423478127
0.51482594013 -0.8112847805 0.27638483047
0.35349568725 0.013426525518 0.93532621861
0.44299846888 -0.069051623344 0.89379960299
0.64478731155 0.30483219028 0.70094865561
0.54806214571 0.1719173044 0.81842499971
0.41788569093 0.22641928494 0.87983113527
0.45285791159 0.086447224021 0.88738203049
-0.24719102681 0.88660651445 0.38958725333
0.71229618788 -0.59282213449 0.37407156825
-0.70602983236 -0.59508806467 0.3832039237
-0.20210593939 -0.73045676947 0.65142172575
-0.54883641005 -0.65053719282 0.52214944363
-0.26850777864 -0.86679494381 0.42015463114
-0.15927985311 -0.56661081314 0.80857503414
-0.017776243389 -0.70710414648 0.70663362741
-0.34988033772 -0.5591660738 0.75033015013
0.7212048173 -0.41463264823 0.55490553379
0.58512955904 -0.63798838854 0.50045275688
-0.72146439552 -0.41186085343 0.55608040094
-0.46102765203 0.77953851223 0.4237600565
-0.24307343364 0.80641537905 0.53941756487
-0.096358545125 0.79585886002 0.59712082148
-0.069829896092 0.71285790205 0.69756138325
-0.063174948096 0.62674719095 0.77652144432
0.027775177732 0.78293824196 0.62054401636
-0.31719774008 0.70312815905 0.63585215807
-0.26078867912 -0.95258766413 0.15597693622
-0.0097327157855 -0.96337807178 0.267567873
0.26453742385 -0.95045667887 -0.16333222389
0.52896356583 -0.84853124619 -0.018509510905
0.27036657929 -0.95205807686 0.14348137379
0.0024675596505 0.2599363029 0.96568351984
-0.05094287172 0.37162849307 0.92677378654
0.075217522681 0.36935666203 0.92589920759
-0.060793317854 0.15392123163 0.98613786697
0.061838265508 0.15582644939 0.98582071066
-0.28042444587 -0.44794660807 0.84893476963
-0.41466659307 -0.4204005003 0.80692976713
-0.34471863508 -0.31334155798 0.88486254215
0.11199804395 0.043604817241 0.99275231361
0.17505387962 0.13838879764 0.97474974394
-0.19123995304 0.32675170898 0.92550092936
-0.12304172665 0.44061946869 0.88914781809
-0.075807385147 0.53343248367 0.84243261814
0.037593126297 0.58746492863 0.80817323923
-0.21740953624 0.48073869944 0.84926909208

CELLS 262 1048
3 0 1 2
3 1 3 2
3 1 4 3
3 2 3 5
3 5 3 6
3 3 7 6
3 3 4 7
3 6 7 8
3 5 6 9
3 6 10 9
3 6 8 10
3 9 10 11
3 10 12 13
3 10 8 12
3 13 12 14
3 4 15 16
3 15 17 16
3 15 18 17
3 16 17 19
3 19 20 21
3 20 22 21
3 20 23 22
3 21 22 14
3 8 24 12
3 24 21 12
3 24 19 21
3 12 21 14
3 23 25 26
3 25 18 27
3 19 17 20
3 17 25 20
3 17 18 25
3 20 25 23
3 4 1 15
3 1 28 15
3 1 0 28
3 15 28 18
3 4 16 7
3 16 24 7
3 16 19 24
3 7 24 8
3 29 30 31
3 32 33 34
3 33 35 34
3 33 36 35
3 34 35 37
3 31 38 29
3 29 38 36
3 36 38 35
3 38 39 35
3 38 31 39
3 35 39 37
3 39 40 41
3 39 31 40
3 40 31 42
3 43 42 44
3 42 45 44
3 42 30 45
3 46 47 48
3 48 47 32
3 49 48 50
3 32 47 33
3 30 42 31
3 51 52 53
3 32 54 55
3 54 56 55
3 55 56 57
3 53 52 58
3 52 59 60
3 61 54 34
3 34 54 32
3 62 63 64
3 64 63 57
3 65 62 14
3 14 62 13
3 2 66 0
3 0 66 67
3 2 68 66
3 68 69 66
3 68 70 69
3 66 69 67
3 70 68 5
3 5 68 2
3 65 71 49
3 71 72 49
3 71 22 72
3 49 72 73
3 22 71 14
3 14 71 65
3 73 72 23
3 72 22 23
3 67 69 44
3 43 44 74
3 48 49 73
3 57 63 55
3 9 75 5
3 5 75 70
3 9 76 75
3 76 77 75
3 76 53 77
3 75 77 70
3 53 76 78
3 11 76 9
3 57 79 80
3 65 50 81
3 50 82 81
3 50 32 82
3 81 82 63
3 58 77 53
3 65 81 62
3 62 81 63
3 32 50 48
3 49 50 65
3 63 82 55
3 55 82 32
3 30 83 84
3 83 85 84
3 83 86 85
3 84 85 87
3 29 83 30
3 40 88 41
3 41 88 60
3 30 84 45
3 70 74 69
3 69 74 44
3 43 89 42
3 42 89 40
3 70 90 74
3 90 91 74
3 90 58 91
3 74 91 43
3 60 92 52
3 52 92 58
3 58 92 91
3 92 93 91
3 92 60 93
3 91 93 43
3 43 93 89
3 93 88 89
3 93 60 88
3 89 88 40
3 58 90 77
3 77 90 70
3 13 94 10
3 10 94 11
3 67 95 0
3 95 87 0
3 26 96 23
3 23 96 73
3 97 98 99
3 100 29 36
3 86 101 97
3 101 100 97
3 101 29 100
3 97 100 102
3 45 103 44
3 44 103 67
3 67 103 95
3 103 104 95
3 103 45 104
3 95 104 87
3 46 98 102
3 102 98 97
3 26 98 96
3 98 105 96
3 98 46 105
3 96 105 73
3 73 105 48
3 105 46 48
3 13 106 94
3 106 107 94
3 106 64 107
3 11 94 108
3 64 106 62
3 62 106 13
3 109 80 110
3 80 109 108
3 109 111 108
3 109 78 111
3 108 111 11
3 11 111 76
3 111 78 76
3 80 112 57
3 57 112 64
3 64 112 107
3 108 107 80
3 112 80 107
3 107 108 94
3 29 101 83
3 83 101 86
3 87 104 84
3 84 104 45
3 27 113 25
3 25 113 26
3 26 113 99
3 113 114 99
3 113 27 114
3 99 114 86
3 28 115 18
3 18 115 27
3 28 116 115
3 116 117 115
3 116 87 117
3 115 117 27
3 87 116 0
3 0 116 28
3 61 118 119
3 118 120 119
3 118 59 120
3 119 120 51
3 61 121 118
3 121 122 118
3 121 37 122
3 118 122 59
3 102 123 124
3 123 125 124
3 123 36 125
3 124 125 47
3 41 126 39
3 39 126 37
3 37 121 34
3 34 121 61
3 37 126 122
3 126 127 122
3 126 41 127
3 122 127 59
3 102 124 46
3 46 124 47
3 47 125 33
3 33 125 36
3 56 128 129
3 128 119 129
3 128 61 119
3 129 119 51
3 51 120 52
3 52 120 59
3 61 128 54
3 54 128 56
3 59 127 60
3 60 127 41
3 79 130 110
3 130 131 110
3 130 51 131
3 110 131 78
3 78 131 53
3 131 51 53
3 51 130 129
3 130 132 129
3 130 79 132
3 129 132 56
3 56 132 57
3 132 79 57
3 27 117 114
3 85 117 87
3 86 114 85
3 85 114 117
3 26 99 98
3 97 99 86
3 36 123 100
3 100 123 102
3 79 110 80
3 109 110 78

CELL_TYPES 262
5
5
5
5
5
5
5
5
5
5
5
5
5
5
5
5
5
5
5
5
5
5
5
5
5
5
5
5
5
5
5
5
5
5
5
5
5
5
5
5
5
5
5
5
5
5
5
5
5
5
5
5
5
5
5
5
5
5
5
5
5
5
5
5
5
5
5
5
5
5
5
5
5
5
5
5
5
5
5
5
5
5
5
5
5
5
5
5
5
5
5
5
5
5
5
5
5
5
5
5
5
5
5
5
5
5
5
5
5
5
5
5
5
5
5
5
5
5
5
5
5
5
5
5
5
5
5
5
5
5
5
5
5
5
5
5
5
5
5
5
5
5
5
5
5
5
5
5
5
5
5
5
5
5
5
5
5
5
5
5
5
5
5
5
5
5
5
5
5
5
5
5
5
5
5
5
5
5
5
5
5
5
5
5
5
5
5
5
5
5
5
5
5
5
5
5
5
5
5
5
5
5
5
5
5
5
5
5
5
5
5
5
5
5
5
5
5
5
5
5
5
5
5
5
5
5
5
5
5
5
5
5
5
5
5
5
5
5
5
5
5
5
5
5
5
5
5
5
5
5
5
5
5
5
5
5
5
5
5
5
5
5

CELL_DATA 262
SCALARS cell_data_0 double
LOOKUP_TABLE default
5.20908268245e-07
3.01142474057e-07
2.54413725858e-07
6.14167261807e-07
5.59994770967e-07
1.62397736506e-06
5.53405336732e-07
4.32356862885e-07
4.38226410162e-07
1.76038935208e-06
2.62172034184e-08
1.38161759951e-06
2.59445603351e-06
1.34020749132e-07
1.21360030793e-06
4.42810319325e-07
7.45560888638e-07
4.47722330973e-07
3.14406267639e-07
1.91908541379e-07
6.96615195612e-07
6.89998924694e-07
9.24839759811e-07
5.36032044174e-07
1.34285715034e-06
6.2185535207e-07
3.03948510682e-07
3.14149203326e-06
1.85297975027e-06
4.4115271907e-07
1.46571895506e-06
7.60415097655e-07
1.22079448798e-06
2.36420534005e-07
7.06442461389e-07
4.17589247588e-07
2.40880970792e-07
3.48212462985e-07
6.61975060597e-07
4.4130173997e-07
1.87020325972e-07
1.48133203216e-06
2.37564650675e-06
2.71473428618e-06
2.98195147611e-06
1.58676046355e-07
7.04103192039e-08
2.68655897734e-06
1.75787527987e-06
2.52716134008e-07
1.78454391432e-06
3.81190191623e-06
2.40450662122e-06
3.13493726936e-08
3.02819819711e-09
2.47189503843e-06
1.47145388948e-06
2.73746118753e-08
3.00745663601e-07
8.34482054613e-07
1.70838599956e-06
1.79719346388e-06
2.86897237426e-06
3.56111398941e-06
1.43110703048e-06
1.20669090331e-06
7.18183177925e-07
1.4840227277e-06
1.79787798638e-06
1.46921120707e-06
9.68253292529e-07
1.96129899756e-07
1.36296706741e-07
1.93770633296e-06
1.82208472875e-07
5.21024223049e-07
5.3064030157e-07
1.36156871437e-06
1.07865299182e-07
7.87606612044e-08
5.70681803958e-08
1.10429463155e-06
3.74719760842e-07
7.29480676873e-07
4.23747962945e-07
1.58939016499e-06
9.36897303196e-08
7.82848549892e-07
7.95667141857e-07
2.58476621529e-07
8.49765980961e-07
6.64065943693e-07
1.43393468704e-07
9.79113265246e-07
8.84485139029e-07
3.15209236012e-07
1.86330511816e-06
2.58938856579e-06
4.9025798795e-07
5.49609181074e-07
1.08315020412e-07
1.72072170502e-07
1.02336029364e-06
4.25736199346e-07
4.31903645599e-07
4.33227384469e-07
1.6420512401e-06
9.04573515612e-07
1.75827236597e-06
6.11690753172e-07
2.42869619367e-07
5.2501488862e-07
3.52953293862e-07
9.65621474849e-07
2.11633378646e-06
1.59808543455e-06
2.96736672338e-07
1.07376636992e-06
8.72672974156e-08
2.34345148141e-06
1.25456822764e-07
3.53634845231e-07
2.2672045168e-06
8.89822339178e-07
2.54481660992e-06
1.56637105226e-06
1.54927535763e-06
9.9497807977e-07
3.08599276464e-07
9.55503489955e-07
6.41796439449e-07
3.81616947011e-07
1.17933625134e-07
3.80519775534e-07
3.09004628389e-07
1.83450781847e-07
3.82168091442e-07
3.75220418938e-07
3.13657077647e-08
7.55598432153e-07
6.48798458449e-07
8.63564809401e-09
4.68785626895e-08
1.43865493558e-06
2.38848972193e-06
3.64558627278e-08
1.33589469453e-06
4.11724175335e-07
1.34008504307e-06
5.13162491933e-06
3.41110223531e-06
5.57547498974e-07
4.86641326615e-07
1.40723751176e-06
1.04123278178e-06
4.40665954676e-07
6.88242751107e-07
7.4196051786e-07
5.26335449051e-07
2.35499541044e-07
1.15044145379e-06
5.79130378373e-07
1.34905293228e-06
2.86703540529e-06
6.02113683232e-07
2.420017407e-07
8.2529948367e-07
8.89903205464e-07
1.10790764047e-06
1.10448461841e-06
7.74417783337e-08
1.55120349838e-06
3.16389468155e-07
3.32787818504e-07
7.32141911808e-07
7.78439611257e-07
7.61985954134e-07
2.66167219995e-07
1.13363766894e-06
1.70592458312e-06
1.21510589424e-06
1.93637549637e-06
6.8096434689e-07
3.9056717305e-07
8.95695988254e-09
1.06385340133e-07
5.3115921468e-07
6.96249227814e-08
3.58740096617e-07
9.07107111621e-07
6.15076487498e-07
9.41150025862e-07
1.21893447638e-06
8.84976586743e-08
2.16764149242e-06
6.55273060467e-07
1.45805933033e-06
9.93799805424e-07
1.63881719167e-07
6.79696353967e-07
9.31498342073e-07
1.06829876796e-06
3.33173312755e-07
5.65282136624e-07
1.67648132043e-06
1.20840404841e-06
3.13733518098e-07
1.27283828267e-06
2.62569859408e-09
1.361683641e-06
1.48709038552e-06
6.55414399656e-07
1.79039742725e-06
3.10162728834e-07
3.95971685789e-07
1.96713905941e-06
1.08704239124e-06
7.24698532362e-08
5.14489489743e-07
7.63089537667e-07
4.27691182215e-07
1.59102464708e-06
9.90013471392e-07
1.2770508997e-06
4.48601607886e-07
1.62801414103e-07
1.08010780153e-07
1.05268543866e-06
1.43740903167e-06
7.40922860831e-07
2.20733138175e-07
6.37500338837e-07
4.958840192e-07
5.09320971902e-07
5.13968448298e-07
8.98959035801e-07
6.68079617803e-07
7.20459118526e-07
9.6779247088e-08
6.56014668656e-07
3.60025834823e-07
6.45834033499e-07
1.55787921087e-06
1.28767755554e-06
4.68634829537e-07
1.92949903918e-06
5.86325098364e-07
7.55401286279e-07
5.52243137008e-07
1.63595677118e-08
5.42375943801e-07
5.52649099155e-07
1.00063169324e-06
5.18891030894e-07
4.90955592657e-07
1.4682698078e-06
1.81312099227e-06
1.46590764517e-06
6.46031666622e-07
2.02494966307e-07
1.04167687885e-07
2.38044305079e-07

