# vtk DataFile Version 3.0
File Name: Molecule/sphere_excent/sphere_excent_0-s22.vtk
ASCII
DATASET UNSTRUCTURED_GRID
FIELD FieldData 1
TIME 1 1 double
0.0
POINTS 591 double
-0.47478422523 0.65898430347 0.58328950405
-0.52150171995 0.5073788166 0.6858741641
-0.38066232204 0.54214060307 0.74857366085
0.96310979128 0.11317370832 0.24369345605
0.91784751415 0.024971347302 0.39618390799
0.96722060442 -0.10734783113 0.22984316945
-0.45434170961 0.39673921466 0.79737734795
-0.2183508873 0.60146743059 0.76850044727
-0.32117518783 0.67031127214 0.66896957159
0.43233305216 -0.74343144894 0.51018333435
0.26302587986 -0.86968904734 0.4148157239
0.47809720039 -0.81658053398 0.32039323449
-0.52032524347 -0.80403321981 0.28552371264
-0.56433200836 -0.65952903032 0.49466279149
-0.6927396059 -0.63235634565 0.34638944268
-0.71198266745 -0.4805804491 0.51169359684
-0.51005095243 0.82708454132 0.23603439331
-0.45307341218 0.77775716782 0.43564644456
-0.28712517023 0.87804627419 0.3819155395
-0.30805334449 0.78536623716 0.53677201271
-0.6302010417 0.64441454411 0.43269249797
-0.039255026728 0.72782468796 0.68464416265
-0.17914308608 0.70143449306 0.68912124634
-0.070757739246 0.64077717066 0.76444894075
0.071707814932 0.77979785204 0.62186312675
-0.098153993487 0.80199223757 0.58822339773
0.075345695019 0.66798216105 0.73976844549
0.47246339917 -0.7915982604 -0.38752123713
0.50673812628 -0.85704296827 -0.08880418539
0.30804780126 -0.93094539642 -0.192416206
0.29321843386 -0.94653218985 0.11068660021
-0.10853798687 0.27540394664 0.95496505499
0.010242082179 0.26683872938 0.96368449926
-0.043936666101 0.34187340736 0.93858855963
0.064989387989 0.35786339641 0.93150728941
0.12489096075 0.27020272613 0.9545339942
-0.36716341972 -0.56405836344 0.73941403627
-0.29254955053 -0.49179160595 0.8199378252
-0.41871732473 -0.43605750799 0.79637688398
-0.32201293111 0.24325241148 0.9149158597
-0.23257425427 0.34074899554 0.91050571203
-0.33915299177 0.36580255628 0.86635756493
-0.10510184616 0.5559720397 0.82439690828
0.029806215316 0.57388192415 0.81840139627
-0.21486458182 0.48444411159 0.84723448753
-0.67685258389 -0.7254345417 0.11511303484
-0.49064972997 -0.86968415976 0.053457353264
-0.23020151258 -0.16242413223 0.95917564631
-0.15759690106 -0.23405832052 0.95907360315
-0.13947281241 -0.13315673172 0.98122918606
-0.16464541852 -0.37101891637 0.91348671913
-0.061111703515 -0.44559836388 0.89312583208
-0.05980913341 -0.3202123642 0.94544744492
0.017253750935 -0.13254113495 0.99102586508
0.028322724625 -0.057970590889 0.9979107976
-0.04918333143 -0.059603087604 0.99698734283
0.0004060503561 0.019289849326 0.99979448318
0.32728332281 -0.54797524214 0.7698520422
0.40978425741 -0.43275922537 0.80295479298
0.29383844137 -0.46179062128 0.83685660362
0.056256432086 0.46849143505 0.88161277771
0.174861148 0.41544348001 0.89265316725
0.16365040839 0.51680380106 0.83988243341
0.272043854 0.44100749493 0.85516965389
0.29013574123 0.34257304668 0.89352452755
0.20961971581 0.35312116146 0.91161090136
-0.38304415345 -0.71270364523 0.58745384216
-0.40904566646 -0.78531289101 0.46455159783
-0.24841877818 -0.80955582857 0.53185707331
-0.51399070024 -0.6303845644 0.5816398859
-0.23700357974 -0.88990974426 0.38773980737
-0.044744066894 -0.56411379576 0.82421380281
-0.16521307826 -0.49326699972 0.85401576757
0.061989951879 -0.51757097244 0.85336709023
-0.33646264672 -0.31152164936 0.88855993748
-0.27258813381 -0.25453066826 0.92771017551
-0.35122859478 -0.20473612845 0.91317409277
-0.050187975168 -0.8725156188 0.48480907083
-0.20192915201 -0.58355736732 0.78640836477
-0.039665289223 0.99831944704 -0.01418823842
-0.21809644997 0.95960086584 -0.17759826779
-0.31055107713 0.9488414526 0.053918872029
-0.56037712097 0.82784765959 0.012459056452
-0.71131598949 0.65300607681 0.25942930579
-0.68950647116 0.71759587526 0.090065404773
-0.37989982963 0.01421623677 0.92470914125
-0.31477570534 -0.062944658101 0.94679588079
-0.27259376645 0.021651502699 0.96187746525
0.1175250411 -0.34068712592 0.93279784918
0.037977267057 -0.39739391208 0.91685003042
0.12860624492 -0.4430629909 0.88718920946
-0.41471275687 0.15895836055 0.8952152133
-0.42643070221 0.27659827471 0.86111682653
-0.50972646475 0.19785241783 0.83729088306
-0.52959442139 0.30715855956 0.79067140818
-0.31425771117 0.12217550725 0.94143098593
0.62480390072 0.69957196712 0.34674352407
0.573959589 0.67380154133 0.4653930366
0.69198662043 0.59695374966 0.40598118305
0.24065601826 -0.65502822399 0.71629291773
0.37240198255 -0.64395177364 0.66822910309
0.28969618678 -0.7480083704 0.59702211618
0.13289152086 -0.75484144688 0.64171385765
0.1177226454 -0.63316202164 0.76448965073
0.19602012634 -0.54374426603 0.81603270769
0.43639925122 -0.53805816174 0.72111898661
0.49333584309 -0.61578589678 0.61420154572
0.58099138737 -0.63392293453 0.51018697023
-0.039805602282 0.090730011463 0.9949169755
-0.084611982107 0.023666163906 0.99613565207
-0.12324014306 0.096418514848 0.98767483234
-0.21570853889 -0.063461661339 0.97437512875
0.26100564003 0.87282603979 -0.41216301918
0.020474305376 0.95907384157 -0.28236737847
0.24433502555 0.94614249468 -0.21197687089
-0.0031596971676 0.83477514982 -0.55040955544
-0.40137791634 -0.64908820391 -0.64422780275
-0.635017097 -0.59287452698 -0.49498730898
-0.59133708477 -0.41822963953 -0.68888318539
-0.80520266294 -0.30872899294 -0.50606769323
-0.62451773882 -0.20300933719 0.75415831804
-0.56016391516 -0.14340506494 0.81576412916
-0.63229548931 -0.088995948434 0.76956701279
0.81523406506 0.071165077388 0.57468736172
0.72481435537 -0.023140586913 0.68854928017
0.79518568516 -0.10076910257 0.59789705276
0.72190505266 0.12255767733 0.68088102341
0.71375465393 -0.19575951993 0.67224472761
-0.80542474985 -0.54998886585 0.2185934484
-0.80186891556 -0.47437512875 0.3632850945
-0.88954335451 -0.38882094622 0.23957645893
-0.83592027426 -0.32504153252 0.44166529179
-0.23022255301 -0.94717502594 -0.22111414373
-0.30291125178 -0.95228797197 -0.037343170494
-0.46120074391 -0.87114840746 -0.16838830709
-0.038550443947 -0.99900710583 -0.011437723413
-0.61388021708 -0.78513920307 -0.081490986049
-0.73300254345 -0.6652982831 -0.13905720413
-0.62716203928 -0.72676122189 -0.28013145924
-0.45985934138 -0.8064956665 -0.37118884921
-0.77918767929 -0.5417022109 -0.31522619724
-0.17695951462 0.024258838966 0.98391312361
-0.13188640773 -0.042619291693 0.99033695459
-0.26580536366 -0.95124143362 0.15129545331
-0.2016851753 0.88922464848 -0.41012531519
-0.23489245772 0.20009304583 0.95077043772
-0.21521945298 0.10605122149 0.97078424692
-0.14676953852 0.16301384568 0.97546476126
0.87818467617 0.47751930356 -0.025989234447
0.86195617914 0.42727205157 -0.27269846201
0.72493088245 0.6684910059 -0.16592209041
0.68699097633 0.57187020779 -0.44834497571
0.79980224371 0.30429089069 -0.51673096418
0.53365957737 0.77447342873 -0.33958348632
0.61369216442 0.39428704977 -0.68397814035
0.43447247148 0.70917165279 -0.55465734005
0.79533320665 0.59577357769 0.11088257283
0.54076397419 0.837202847 -0.081427007914
0.65833848715 0.74942219257 0.069815091789
0.44871029258 0.88357275724 0.13322772086
0.23649483919 0.96513289213 0.10677344352
0.25591644645 0.92278325558 0.2874995172
0.0408555381 0.96592026949 0.2534416616
0.10822995007 0.90678858757 0.40713351965
-0.89609652758 -0.3632376492 -0.25490891933
-0.9378862381 -0.13017697632 -0.32166731358
-0.96619826555 -0.23763547838 -0.099146105349
-0.88047266006 -0.47208693624 -0.032508909702
-0.9915009737 0.011985867284 -0.12970511615
0.59565770626 -0.018663842231 0.80257934332
0.55564701557 -0.12617820501 0.82116609812
0.6475302577 -0.12168734521 0.75225812197
0.61631166935 -0.23761883378 0.75057125092
-0.9462351799 0.1516289413 0.28522673249
-0.97279047966 -0.014533307403 0.23119163513
-0.9006357193 0.0021210703999 0.43388453126
-0.99488157034 0.07656762749 0.066127724946
-0.99213045835 -0.1082508862 0.06282440573
-0.9564999342 -0.19006335735 0.22083136439
-0.94872409105 -0.30439093709 0.084456674755
0.54012280703 -0.83261668682 0.12247899175
0.61454379559 -0.72088652849 0.31950300932
0.70106387138 -0.71290951967 -0.0013705820311
0.68111103773 -0.71001386642 0.17851039767
0.79606801271 -0.58288413286 0.1633271575
0.73467737436 -0.65067982674 -0.18957054615
0.5748270154 0.78357058764 0.23564428091
0.70843559504 0.66528624296 0.23532116413
0.42268717289 0.84901797771 0.31691944599
0.52545714378 0.76623392105 0.36987891793
0.42503431439 0.77811592817 0.4624684453
0.28159460425 0.85939520597 0.42662346363
0.40447917581 0.88753783703 -0.22055248916
0.35572871566 0.93378466368 -0.039206709713
0.15903051198 0.98449200392 -0.072808451951
-0.84877365828 -0.51701635122 0.10075215995
-0.81261616945 -0.57529890537 -0.089197948575
-0.48957893252 -0.010359735228 -0.87165945768
-0.70445793867 -0.13307663798 -0.69711792469
-0.69092708826 0.14414674044 -0.7080398798
-0.84794038534 0.011100124568 -0.52992367744
-0.7975961566 0.30920022726 -0.51780211926
-0.9314814806 0.16312798858 -0.32521545887
-0.86347907782 0.41237232089 -0.28968131542
-0.9645588994 0.24508099258 -0.09802069515
-0.85619693995 0.29548498988 0.42365929484
-0.78300577402 0.47355005145 0.403147012
-0.87192702293 0.41305485368 0.26274648309
0.99367964268 0.093437843025 0.062353856862
0.91543543339 0.22486713529 0.33342838287
0.9448890686 0.29872110486 0.13365915418
0.87433063984 0.35356363654 0.3315333426
0.86722683907 0.44766494632 0.21665909886
0.96081894636 0.26338386536 -0.084419488907
0.98946142197 0.0038734283298 -0.14429342747
0.77923333645 0.54564505816 0.30797153711
-0.73469245434 0.37133786082 0.56710135937
0.48041474819 -0.2613119483 0.8369025588
0.4694211483 -0.15778116882 0.86875551939
0.40081807971 -0.20994916558 0.89177441597
0.40146395564 -0.11811570078 0.90823161602
0.47017651796 -0.059836711735 0.88023167849
0.31921827793 -0.15066070855 0.93555557728
0.87965458632 -0.43114313483 0.20040117204
0.7710826993 -0.53644293547 0.34012520313
0.8609727025 -0.50625896454 -0.047832675278
0.73202174902 -0.44566443563 0.51514714956
[...]
CELL_DATA 1178
SCALARS cell_data_0 double
LOOKUP_TABLE default
4.46748211214e-08
4.15232358833e-08
4.39619520428e-07
2.52868228717e-07
1.00979372349e-07
1.26008529017e-07
2.53022347205e-07
1.20022268138e-07
2.00857588177e-07
1.67112571018e-08
3.61365935673e-08
1.4789796233e-07
1.14292995455e-07
1.42286912282e-07
5.09258018912e-09
6.06116261851e-08
6.54007395899e-08
3.18813831294e-07
1.83530441835e-08
3.51428828752e-08
3.2694367833e-07
2.34964145988e-07
3.62600093791e-07
1.23968219871e-07
4.15153812649e-07
9.63138878597e-08
1.45287313953e-07
1.17788857932e-07
1.78027266164e-07
8.38175275278e-08
8.96747576774e-08
1.60250521634e-07
2.66762326717e-08
4.36083001972e-08
1.01834646076e-08
5.71692468077e-08
2.26023024729e-08
8.26325659615e-08
1.52701518668e-07
2.2542364292e-07
3.79206145014e-07
9.58638224698e-08
1.3563199219e-07
5.15391929209e-08
1.2432873215e-07
1.46820702758e-07
5.54847620762e-08
1.27702007185e-07
6.04631232134e-07
2.56558421716e-07
1.28276663376e-07
1.72082022627e-07
2.05587753592e-07
1.79527682895e-07
1.63543185739e-07
1.66944051228e-07
1.18195062585e-07
6.25888326538e-10
8.91964020164e-08
8.08581298751e-09
8.63074075782e-08
1.10288094388e-08
2.67813977149e-07
3.36165483023e-08
3.08417742355e-07
1.64969838635e-07
8.27658772987e-08
7.96708099373e-08
1.30559267748e-07
2.63196312955e-08
2.94999885138e-08
2.9275843207e-07
2.92835854912e-07
1.81221598279e-07
2.14922023768e-07
1.9342713658e-07
2.97733504898e-08
1.2861409234e-07
1.50631993838e-07
4.15152650671e-08
2.75979698539e-08
1.46448279275e-08
6.95966435358e-08
7.17926005239e-08
1.87534205458e-08
4.10286501687e-08
2.55989603989e-07
2.07335908944e-08
1.03491278087e-07
1.33620672327e-09
2.59346543085e-07
4.46780157475e-09
5.12373683043e-08
4.63216206742e-08
4.07276182995e-09
1.22708306423e-07
1.07613136082e-07
1.08744894841e-08
9.66178168642e-08
2.1286014574e-08
4.49645051863e-09
1.54992662922e-07
3.16224124064e-08
1.15959081314e-07
3.88333088052e-08
3.31792829396e-08
4.28542958226e-08
6.32123565092e-08
1.04686142395e-08
8.66348974833e-08
4.26419787488e-08
1.31064207206e-07
4.36634011639e-08
1.04901039675e-07
1.41449955625e-07
6.86581407227e-08
1.54607396336e-07
4.18764352994e-10
1.76803896294e-07
4.51514203731e-08
9.58626812133e-08
1.11290678554e-07
6.29304695567e-08
1.43754500219e-07
7.05333577051e-08
1.63431319748e-08
9.13233135853e-09
5.7433581382e-08
4.27121454948e-09
4.30208995831e-09
1.57926657541e-07
3.86226804274e-07
8.26559199424e-08
1.06723937059e-07
1.67429874348e-08
3.54860460967e-08
4.96350350743e-08
5.50386226157e-09
9.62526324302e-08
1.59642708586e-07
1.28105815588e-07
1.59695746234e-07
2.0146185919e-07
1.54298346892e-07
6.74208755323e-08
1.78066403093e-07
6.87435472759e-08
5.34904477839e-08
9.4452272647e-10
3.10993171869e-08
2.70352770153e-07
5.79202227426e-11
1.15594283259e-07
8.05904363424e-08
9.92370822294e-08
4.83934757095e-08
5.90959867487e-08
1.48353665478e-07
5.19369446688e-08
7.27267348343e-08
2.92479724341e-07
1.5949047485e-07
2.58219301637e-08
1.72841327769e-09
8.53928593297e-08
1.91771692259e-07
5.80602596337e-08
3.33340808937e-08
1.49016158944e-08
3.71485666914e-08
5.17763994628e-08
1.97275967583e-08
7.02408574544e-08
9.8992704723e-08
1.14999136774e-07
1.99303796208e-08
7.87594219859e-08
8.61168585071e-08
1.38199980319e-07
1.03543768299e-07
1.31337615339e-07
8.55378721111e-08
1.88549105096e-08
2.11254044425e-09
4.67187299361e-08
2.12202204279e-08
4.64585394454e-08
8.63480195605e-08
8.62835297838e-08
9.67874525458e-08
8.00076067832e-08
9.82273472251e-08
3.12765535655e-07
1.14520664711e-07
2.41145620161e-07
1.01335711534e-07
4.28739941643e-08
7.33828861938e-08
1.31494328706e-07
1.19314441424e-07
2.41945188655e-08
1.3594996349e-08
1.03311885727e-07
2.9711423874e-08
8.84333141598e-08
8.36796779934e-08
2.56554118211e-07
1.88412321803e-08
1.08088961765e-07
2.21757686311e-09
1.31473007231e-07
2.64132862152e-09
1.31293202261e-07
1.43834403108e-08
7.50479403841e-08
1.15547936921e-10
1.25840104324e-08
6.53351438996e-08
2.55009236847e-07
2.80763688003e-07
8.06625302008e-08
1.12967893608e-07
1.51105683696e-07
5.70842894485e-08
5.2350844973e-08
1.77974248712e-07
5.07762777247e-08
1.43446514043e-07
3.46726072674e-08
1.14444954366e-07
7.01466737974e-08
3.42540885494e-08
1.2532289829e-07
2.6234932952e-08
1.2253149757e-07
1.02392229432e-08
3.25172817599e-08
1.1359066896e-07
2.04635441271e-08
1.0802703424e-07
2.22437459547e-08
4.07300324136e-08
2.12626017963e-07
1.19844119098e-07
2.53009976915e-07
6.98226906677e-08
1.87703692052e-07
8.93388108396e-08
1.05056460347e-07
2.14873004842e-08
3.39723631531e-08
5.84308547996e-09
1.29937713929e-07
1.08428790592e-07
8.10653839243e-08
9.24548928411e-08
1.41477973587e-07
1.05332969748e-07
6.17333189177e-08
1.32295196892e-07
4.07906777555e-08
2.01864354802e-07
6.02006754839e-08
1.35402477033e-07
2.01105676857e-07
9.05981855947e-08
9.92798000452e-08
9.4879927024e-10
4.87912315946e-08
1.15023216798e-09
2.34125236923e-09
6.71490861362e-08
5.44912174939e-09
7.19861848111e-08
7.90443923529e-09
1.56763864524e-07
2.78095795046e-08
9.66047300052e-08
1.3194688895e-08
2.09152886106e-08
1.32329118278e-07
1.41907879042e-07
1.27725279151e-07
1.8794563697e-08
1.4468011188e-07
1.37691900749e-08
9.87527294665e-09
2.17200299948e-09
3.34335366128e-08
3.86150214179e-08
1.45445261902e-08
1.32257014179e-07
1.44152210158e-07
4.43292971508e-08
2.44364978046e-07
2.54747793315e-07
1.46043334016e-07
6.96687652945e-08
1.69504676494e-07
7.71112479237e-08
1.35712915391e-07
3.38395828483e-07
1.35306552487e-08
9.01857349304e-08
6.58381499064e-08
6.85209304191e-08
9.67813883748e-08
5.61577538814e-08
1.00947868586e-07
1.58072230932e-07
5.34100618802e-09
1.85773327389e-08
3.39220264601e-08
1.69421935894e-08
6.03621103716e-08
6.76318251e-09
9.03015471872e-08
8.40847843902e-08
5.50694877978e-08
1.02130231041e-07
1.10538340665e-07
6.05798598518e-08
1.29023991272e-07
4.90085461687e-08
1.2532914383e-08
4.05462546491e-09
3.74472066112e-08
5.98674221222e-08
1.21043944702e-07
1.21672587652e-07
4.46647198378e-08
7.9355467472e-08
9.36696896459e-08
2.12768641759e-07
5.76952191925e-08
9.0817076123e-08
2.81485916643e-08
9.85503675783e-08
1.94581156573e-08
6.97735044084e-09
4.99539049825e-08
3.94027131608e-09
9.73827510896e-08
1.40581732185e-07
1.94661058034e-07
1.2069034478e-07
6.76808071611e-08
7.62139859491e-08
4.47594012667e-08
1.45634981354e-08
2.33701207932e-08
3.73694294625e-08
3.77854196308e-08
1.34119111414e-07
9.35071165377e-08
1.25689706001e-07
7.85279435664e-08
1.03048382243e-07
3.24235220319e-08
1.55830007033e-08
9.42464577713e-09
1.2343955769e-07
3.95645281656e-08
4.22024766571e-08
8.30280404081e-08
7.25864809502e-08
6.36146217922e-09
5.59274067103e-08
8.02509800096e-09
3.49707263784e-08
5.18436706228e-08
1.94432341243e-08
1.00213143047e-07
1.43024637186e-07
6.38992780289e-08
4.62145042619e-08
1.0293638463e-07
9.26369862191e-10
4.90606864335e-09
2.471402649e-07
3.01493089958e-07
3.15363973595e-08
2.84266254336e-08
4.34821180501e-08
1.09996208367e-07
3.2409616425e-08
1.19346807666e-07
5.22929782479e-08
5.91572869922e-08
2.99157351241e-08
9.11688982504e-08
4.77198950385e-08
3.78440831188e-07
9.87870257708e-09
6.58822215293e-08
1.743696922e-07
2.6503476876e-07
1.25473647354e-07
2.86792802647e-09
1.52681669529e-07
9.26729951061e-09
9.76070697539e-08
5.01512015743e-09
3.41315098211e-08
3.61071346864e-08
5.46158636621e-08
4.09582043814e-08
5.97523250608e-09
7.42780324905e-08
3.80778819499e-08
1.18698863278e-07
5.25453895278e-08
2.02740032754e-08
2.53608621311e-08
4.74621542011e-08
7.52504804053e-08
9.65621539403e-08
5.46890468263e-08
6.98584340947e-08
2.03335523173e-07
1.44170343053e-07
6.28502877458e-08
7.70540113955e-08
2.36881492812e-08
5.35191954399e-09
1.55313715783e-07
7.1214789775e-08
9.09022033804e-08
6.32769628304e-08
1.03611972193e-07
7.78525415881e-08
6.32856426233e-08
1.74192108991e-09
4.33534527746e-08
1.41233868098e-08
3.64689355284e-08
4.46618141795e-09
6.20225722327e-08
1.24761976241e-08
2.76370642616e-08
2.41750202147e-08
1.27966103911e-08
5.86906419767e-10
4.82812151833e-08
6.20819530384e-08
1.63611363245e-08
8.05963568774e-08
1.80406290479e-08
1.12481492458e-07
4.35764080791e-08
4.5377788323e-08
4.56903241517e-08
1.17859443939e-07
9.78273086687e-08
5.93853391904e-08
1.59564007775e-07
4.09014185001e-08
3.20316273626e-08
7.31534198379e-08
1.21322456951e-08
8.86002552716e-08
1.59119863816e-07
4.78737562503e-09
1.53945213113e-07
9.694445722e-08
8.86670176917e-08
1.99666522717e-08
4.28392063456e-08
9.21371931037e-08
2.78035137598e-08
2.76504861691e-12
6.47351284914e-08
3.55939235604e-08
8.48754832215e-08
1.30021344209e-07
6.55288428246e-08
4.32223561207e-08
7.48050757943e-09
8.35000841597e-08
1.74010528935e-07
4.51479620518e-08
3.68047376409e-07
5.9844297647e-08
7.76758731334e-08
5.99494422469e-08
2.53272586717e-07
6.06959545407e-08
8.14146380122e-09
5.59806872663e-08
1.83039854336e-07
1.16028709677e-07
9.57934044156e-08
1.71834693424e-07
1.10216294872e-07
4.17015745277e-08
1.72637253016e-07
9.70426551655e-08
8.72719528902e-08
2.43526942412e-07
8.76386160049e-08
2.41834349425e-08
1.3498994822e-07
3.05207915033e-08
5.85481570683e-08
1.75671177952e-07
1.54284581344e-08
2.73160319329e-08
9.15398634928e-08
2.63750897986e-09
3.10513043872e-08
7.48757417733e-08
7.16947211647e-09
1.1552984718e-08
5.55452446054e-08
2.39489587779e-08
2.71230614202e-08
6.40679707471e-08
3.76952681315e-08
6.53259460902e-08
7.02370036877e-08
1.07845255483e-08
1.31812094716e-08
1.18084485776e-07
7.05364370121e-08
1.57822775594e-08
5.55407506378e-09
2.29348930653e-08
1.7669924347e-07
7.98097991846e-08
7.38238427475e-08
1.06445437776e-07
2.7234033924e-09
3.02835281922e-09
1.08298288354e-07
1.27799465417e-07
2.63000400741e-08
5.2915359275e-08
8.10571226038e-08
9.41351593131e-08
1.03293702355e-08
4.43458101655e-08
5.05151517332e-08
3.47000225196e-08
8.87008760208e-09
3.34818823271e-09
6.10676784402e-08
6.08652161621e-08
4.82081199166e-08
4.4457086094e-08
9.98680321967e-08
2.58953317283e-08
4.52477386313e-08
6.98148643576e-08
5.48123558179e-09
1.37012309228e-10
4.09843402429e-08
9.48694823155e-08
7.75949893651e-08
3.76623665724e-08
2.98971180546e-07
1.38530827898e-07
1.72342445697e-08
1.10027713968e-08
1.75484687012e-07
1.33808918889e-07
1.7542122047e-08
6.18559034976e-08
9.91818519128e-09
1.3722936751e-07
5.36018722622e-09
2.81032453332e-09
1.04849434689e-07
2.56723485225e-08
1.96154469708e-08
8.39687098691e-08
1.2795809211e-07
3.06904949518e-07
5.31296082333e-08
8.58248311779e-08
2.86490775977e-08
2.41858800245e-08
1.20715893973e-07
1.23670178598e-07
3.44068648317e-08
1.45729841172e-08
3.99824658551e-08
1.68332846396e-08
1.82244035914e-07
1.02456335032e-07
1.39871951931e-08
5.18191554043e-08
3.55684504169e-08
9.74038295622e-08
6.1472512398e-08
6.09269928181e-08
8.93464075426e-08
1.32080871665e-08
4.67755876649e-08
5.59931507139e-08
1.89044280493e-08
1.30334342555e-07
1.01788933203e-07
9.19508767139e-08
1.5542384436e-08
1.02896361854e-08
6.52015511611e-08
7.82322256432e-08
1.28148095862e-07
3.22837532869e-08
4.37649376335e-08
1.84954681676e-07
6.0328060486e-08
6.47446825923e-08
5.41502505834e-08
2.98410581536e-07
1.39264623847e-07
6.11471257275e-08
3.08761557819e-09
2.34561595019e-08
1.07026383362e-07
2.73628656975e-08
1.28831692646e-07
6.58585370502e-08
2.20720473314e-08
8.64938873399e-10
2.60444910699e-08
1.18172901944e-07
6.71540227554e-08
2.05090858359e-07
3.00935177212e-08
8.52886720631e-08
9.54725574992e-08
1.75634608032e-08
9.13793049211e-08
3.531353403e-08
3.24197390219e-08
3.69814291233e-09
1.31116190675e-07
1.48624325362e-07
1.20831547455e-08
3.2499532822e-08
8.85979152123e-08
8.92314949545e-08
2.17313819469e-07
1.87638625009e-08
9.32959187747e-08
4.59188224766e-08
2.19680352473e-08
1.04745462458e-07
4.1238072752e-09
3.32356426057e-08
2.52004344212e-08
2.80785647807e-08
6.84703193669e-08
1.27744210172e-08
2.48973109352e-08
4.54857902421e-08
5.90586075622e-08
4.17796528906e-09
5.82474366903e-09
3.75596422027e-10
1.30299320313e-07
1.21278393128e-07
8.85771924977e-09
1.41825026451e-07
1.36226966003e-08
6.35779149008e-08
2.03954738695e-08
1.79218553134e-08
6.66123676306e-08
2.54448318213e-07
1.25867985478e-08
1.76958703819e-08
7.98266397369e-08
1.41423335377e-08
4.28576444189e-08
5.84320333736e-08
8.15774963921e-08
3.15288072498e-08
4.71600491908e-08
6.32150970347e-10
4.26332222609e-08
4.80684365924e-08
2.54595793597e-08
4.30650487418e-08
1.52917456818e-09
4.4441246516e-08
1.21706488367e-07
1.57511277944e-07
3.13666862659e-08
9.3461847155e-08
3.89903584071e-08
6.73948009081e-09
3.05588327597e-08
9.44422169503e-08
3.4187695523e-08
4.1473047651e-09
3.5567907487e-08
3.04059750418e-09
3.52756293246e-08
9.52261888687e-08
3.07382203268e-08
7.9991816272e-08
3.29626054036e-08
1.96749455722e-08
1.05585343247e-08
2.49802707229e-08
7.0585791273e-08
9.55591896902e-08
6.17319253536e-08
1.07847537332e-08
2.95318821969e-08
3.34250881344e-08
6.79983162111e-08
6.40365803434e-08
2.69960914698e-08
4.37493686918e-08
1.284355011e-08
5.3665945776e-08
5.57901768656e-08
2.33221636899e-08
3.54810779995e-08
7.19659926725e-08
7.41135423142e-09
7.22409685423e-08
1.34217076322e-08
7.29728992036e-08
9.99709816796e-08
6.60441620707e-08
6.44012775022e-08
9.07462370655e-08
3.76752909348e-08
4.50100756688e-08
6.39798976482e-08
1.29270764209e-09
4.65165565899e-09
7.49029146266e-08
6.63154406707e-11
3.13927209587e-08
1.41853832498e-07
2.2535151607e-07
2.14749317802e-08
1.3801062585e-07
8.27947512e-09
1.216660259e-07
1.29423973832e-07
1.12221024788e-07
3.73047094434e-08
6.82123178977e-08
3.39547272777e-08
1.0799269311e-07
5.41589273005e-08
1.69307920485e-07
2.46252687558e-07
9.69899866251e-08
1.31639630461e-07
7.84423612085e-08
8.4892428592e-08
3.91655951356e-08
3.21635756818e-08
1.4076125768e-08
1.27019244755e-07
9.02773793959e-08
2.75188223783e-08
4.91363297243e-08
2.28593210606e-08
4.81412933844e-09
4.57941190786e-08
1.71792004892e-08
9.17404049444e-08
1.22209264078e-07
1.63446217723e-07
1.53428031183e-07
1.30900360496e-07
2.64229139507e-09
1.03599223711e-07
5.67063025686e-08
3.62530898709e-09
2.44812991016e-08
3.34305102104e-08
6.17957088127e-08
4.53284539799e-07
1.46040651117e-07
1.60565190171e-08
4.13887238785e-08
4.7661989364e-08
5.21241119616e-09
5.61984454805e-08
1.05029783347e-07
5.44283895809e-08
1.02159782551e-09
1.88681132116e-08
1.7295814606e-07
6.09439054138e-08
6.78023842955e-08
2.07740501651e-07
1.4113594518e-07
3.94325115951e-08
1.44914338886e-07
2.74792350394e-07
1.76619854574e-07
6.84655652188e-08
2.4855413881e-09
8.69012294384e-10
7.01371603184e-08
3.27994657275e-08
4.56933922935e-08
7.28813940089e-08
2.93440996571e-08
5.82115543203e-08
3.79061170281e-08
4.78400875123e-08
4.49044341001e-08
1.42892857995e-09
2.21248239659e-08
9.6184022914e-08
8.11137793496e-08
5.74252740819e-08
1.26795317252e-07
1.27993630725e-07
7.0296666674e-08
1.35448894622e-08
1.55180613183e-08
2.72292887151e-08
6.63069250822e-08
2.37255883986e-08
2.32269580753e-07
6.70786094125e-08
1.52690055871e-07
1.2233527401e-07
3.22459902006e-07
2.76433826464e-09
1.81496308245e-07
9.95210405478e-09
1.32108045168e-07
9.4014363406e-08
2.42645614983e-08
1.76548561897e-08
4.69132050142e-08
2.10653420599e-08
5.52485888577e-09
1.86648196075e-08
3.0069611932e-08
1.74978330218e-08
1.05415519477e-09
3.17740225336e-08
1.08716657409e-07
6.94423148384e-08
5.67679867956e-08
8.76371583954e-08
1.81020368688e-07
1.81001937473e-07
1.85876715413e-08
7.3801518328e-08
8.10303651977e-08
9.90597699438e-10
2.05474023902e-08
4.52845337427e-08
1.17512095597e-07
4.69995005836e-08
1.12734907797e-07
1.17090968642e-07
1.05549020152e-08
2.93101693154e-08
6.18224233492e-09
2.98706196501e-09
6.41685177391e-08
4.4174605646e-08
6.94007677011e-08
7.23279013647e-08
1.19858430332e-07
3.32091303346e-08
8.38081715008e-08
8.90940767943e-08
5.05962228077e-08
2.29827727938e-08
2.07994767034e-08
4.89659125264e-08
7.73508030628e-08
1.23555798397e-07
1.01505483084e-07
9.52249838052e-08
3.0746473839e-08
5.94814254043e-09
1.11237522917e-07
1.18806547141e-07
6.19648150357e-08
8.34872607639e-08
6.01637422939e-08
2.98758631098e-08
1.80043572587e-08
3.7706922713e-08
1.20845977749e-08
1.16002770789e-07
2.14049353678e-10
1.09380048673e-09
4.00267810231e-08
1.27351433254e-08
5.6721186066e-08
9.50366372383e-08
8.40516393414e-08
5.28860877264e-08
1.67326797925e-08
1.29074455528e-08
2.42112248679e-08
6.79223545373e-08
2.34415920774e-08
1.9913590516e-08
2.15380547474e-08
2.64010882898e-08
4.10870900034e-08
3.4495569486e-08
1.28378757869e-07
1.21470797756e-07
4.18840379184e-08
9.15658880645e-08
5.45370555063e-08
1.78943013394e-07
2.92349269494e-08
1.222139718e-07
2.5281768936e-08
2.13258402407e-08
1.12362696216e-07
4.79162370831e-08
8.43210767537e-08
4.06504903911e-08
8.0924333035e-09
1.09949244544e-07
8.56311100777e-08
4.35254053627e-08
1.91399223192e-08
6.0485144945e-08
1.22202443847e-07
1.45616446957e-07
4.75383279144e-09
9.53702075124e-08
1.26545576518e-07
1.07637172193e-07
1.02988471554e-07
4.93713195651e-08
2.2263616967e-07
1.01852858063e-07
5.75852747599e-09
4.07898515323e-08
1.57985269349e-07
1.86536185795e-07
1.12154061203e-07
3.47055217299e-08
6.04142498575e-08
3.70843678507e-08
6.65069098929e-08
3.87069828193e-08
2.85061843639e-08
1.94440919628e-07
5.53271174031e-08
2.02307036538e-07
9.59179624494e-08
8.99409613042e-08
1.62748537483e-08
1.00373740951e-07
1.06834880939e-07
2.85086576286e-08
1.30623439645e-07
1.42998785816e-07
8.32436712583e-08
3.01284622044e-07
1.22856863451e-07
1.60531330159e-07
6.31014153856e-08
5.82820718029e-08
3.80178741455e-09
2.79423675432e-07
2.99010572884e-08
3.14860641575e-09
1.90797822712e-07
4.31319932053e-07
1.06902050763e-07
1.15162520473e-09
1.13988126988e-08
1.65843536918e-07
9.73327938265e-08
7.16011767354e-08
7.47017551199e-08
8.7785126634e-08
7.50479613291e-08
4.12214398425e-08
8.77206504077e-08
1.38305302969e-07
2.34533643887e-07
2.24296122399e-07
3.19329921069e-08
1.75564536235e-07
2.14289505756e-07
1.4308245763e-07
7.54961764903e-08
6.21541134021e-08
5.38439239232e-08
1.99442531403e-07
1.77281418658e-07
1.14467564178e-07
9.7523917789e-08
1.61293793153e-07
7.31900131712e-08
1.22847330728e-08
2.05859793266e-08
6.28343381191e-08
4.68640947805e-09
1.08294695686e-07
7.89860592498e-08
1.03657677392e-07
1.1309476501e-07
2.11195009293e-08
1.82400233584e-07
1.6019177553e-08
7.53156874051e-08
2.56120447756e-08
1.09033896158e-07
1.33645006586e-07
5.06910423139e-08
2.44045745669e-08
4.75043404349e-08
2.27244065175e-08
7.6731810833e-08
6.28923961044e-08
9.53854013054e-08
2.43986275421e-09
5.54810315781e-08
8.97295328988e-08
8.46898991021e-09
3.01302627694e-07
6.20926680536e-08
5.80762389652e-08
1.8728926686e-08
3.4420866815e-08
6.72735924481e-09
1.37357659829e-07
8.1736266571e-08
4.76643093764e-08
8.46481923505e-08
1.84754514081e-07
8.48332446868e-08
3.76763184739e-08
8.34738695597e-09
7.32177762288e-08
4.61159827273e-08
2.67559297912e-08
2.09456240186e-08
7.47490745308e-08
1.94070128235e-08
1.7070017762e-07
2.71860259152e-09
6.83290716997e-08
1.35950320541e-07
1.01921310352e-08
8.98038003117e-09
4.81784926454e-08
1.46226818284e-07
4.24492639225e-08
4.23925836068e-08
1.55084265508e-07
1.09999443031e-07
9.43066938465e-08
1.64704623973e-07
2.17188286874e-08
6.34984814106e-08
1.62927420124e-07
1.22665145256e-08
3.20449328213e-08
1.00344847615e-07
3.62927772374e-09
3.23157597456e-08
5.28308033933e-08
2.3340931126e-08
1.3741029604e-08
1.31034720973e-07
2.88848460759e-08
3.50522761299e-09
7.23166229614e-08
8.79154670324e-08
9.75718856004e-08
6.56460046822e-08
1.41949025983e-10
9.42361876356e-08
1.89070442051e-08
3.1649539689e-08
5.06377553298e-08
2.39849468053e-08
5.63027077092e-08
2.12355887962e-09
5.74639451111e-09
6.40768106483e-08
6.2723903216e-08
5.14989030764e-08
3.78520107428e-08
1.72626495687e-08
1.19589908375e-08
1.26617895756e-08
6.46091071139e-08
1.18557921015e-08
2.28548843253e-07
9.58303143501e-08
5.38745375672e-08
2.81295276587e-08
4.49296914729e-09
1.18974778758e-07
4.04798962954e-08
6.51556827982e-08
1.2832787892e-08
2.23147168556e-07
1.45716769213e-08
1.06940391861e-07
6.00497633452e-08
1.06725226717e-07
9.78355895093e-08