# vtk DataFile Version 3.0
File Name: Molecule/sphere_excent/sphere_excent_0-s14.vtk
ASCII
DATASET UNSTRUCTURED_GRID
FIELD FieldData 1
TIME 1 1 double
0.0
POINTS 207 double
0.85218805075 -0.5235517025 -0.012408500537
0.80585765839 -0.30921918154 -0.50513666868
0.99526399374 0.0026670137886 -0.097924262285
0.80485498905 0.31202694774 -0.50478059053
0.52507299185 0.00012455352407 -0.85105389357
0.85111171007 0.5250325799 -0.0010942453519
0.51260524988 0.79689621925 -0.31382697821
0.3084204495 0.50008684397 -0.80903351307
0.46952599287 0.85693132877 0.20110940933
0.015182253905 0.99776405096 0.011030869558
0.074008598924 0.89182549715 0.44311779737
0.30815821886 -0.49889031053 -0.80999684334
-6.9634144893e-05 2.2310490749e-05 -0.9999050498
-0.29385456443 -0.49407413602 -0.81647479534
0.002338146558 -0.85023957491 -0.5265892148
-0.5253278017 -0.00039288558764 -0.85088938475
-0.81384497881 -0.29677933455 -0.49731275439
-0.80575633049 0.31084984541 -0.50421816111
-0.99494802952 0.0032820056658 -0.098850861192
-0.87345439196 -0.48426213861 -0.0089046368375
-0.85133695602 0.52482581139 -0.0026093109045
-0.012553407811 0.84376007318 -0.5336509943
-0.30858886242 0.49896997213 -0.80973881483
-0.50988811255 0.78855460882 -0.3410281539
0.5173561573 -0.77712106705 -0.35723042488
0.13669404387 -0.14523687959 0.97980231047
0.31138759851 -0.15575289726 0.93741601706
0.23053991795 0.0043553542346 0.97288537025
0.21424587071 -0.31119948626 0.92552793026
0.58731538057 -0.018815729767 0.80891466141
0.50151139498 -0.25691404939 0.82576584816
0.69986349344 -0.1960247606 0.68508422375
0.57891559601 -0.43907421827 0.68667775393
-0.87225604057 -0.0096728056669 0.48900926113
-0.7175937891 -0.1724358052 0.6723742485
-0.72838097811 0.12204387784 0.67398613691
-0.46190318465 0.33764058352 0.81900078058
-0.31234911084 0.37557128072 0.87243145704
-0.36982601881 0.53947412968 0.75645673275
0.28700712323 0.33307412267 0.89771026373
0.15198802948 0.26620724797 0.95183473825
0.30477264524 0.1663967073 0.93773919344
-0.68759179115 0.59662103653 0.41383683681
-0.56164741516 0.4816981554 0.67246335745
-0.47209861875 0.66620486975 0.57687473297
-0.83394026756 0.30470392108 0.45935791731
-0.51200431585 0.83034795523 0.21683950722
0.96168965101 -0.15331383049 0.22768497467
0.84608632326 -0.32157102227 0.42472946644
0.95641994476 0.16076248884 0.24437908828
0.8805770278 -0.0031118644401 0.47237491608
0.81227481365 0.3194604218 0.48806220293
-0.95956373215 0.15336722136 0.23571071029
-0.96161317825 -0.15397287905 0.22668595612
-0.84800690413 -0.30811008811 0.42922872305
0.69682204723 0.58194875717 0.41690054536
0.37349635363 0.71361398697 0.59055435658
0.3515035212 0.55997389555 0.75015890598
0.58786386251 0.49658119678 0.63846355677
0.11770503223 0.66070187092 0.7405077219
-0.18355217576 0.58151656389 0.79244154692
-0.32336297631 0.68790328503 0.64879089594
-0.70334285498 0.36335477233 0.61093580723
-0.60935628414 0.25566110015 0.75062251091
-0.55056864023 0.025492422283 0.8334800005
0.47444990277 0.36051779985 0.8027536273
0.15852220356 -0.74706339836 0.64435178041
-0.01857643947 -0.85565704107 0.5171765089
0.24805375934 -0.87182050943 0.42251375318
0.41786518693 -0.72609913349 0.5448384881
0.51866823435 -0.80799555779 0.27908179164
0.35405892134 0.011421917938 0.93515330553
0.44797804952 -0.074348084629 0.89086824656
0.64513605833 0.30563759804 0.70020765066
0.71401393414 0.134048298 0.68678551912
0.56116467714 0.17874604464 0.8081908226
0.41986206174 0.2290609777 0.87820059061
0.45692953467 0.085421763361 0.88536202908
-0.23515838385 0.89518278837 0.3773817718
0.72435075045 -0.58643680811 0.36174580455
-0.022493571043 -0.70517641306 0.70860302448
-0.19685783982 -0.71884995699 0.6666226387
-0.18264916539 -0.58929693699 0.78662610054
-0.37022954226 -0.56796985865 0.73469698429
0.71608704329 -0.42955267429 0.55034404993
0.59442949295 -0.62795674801 0.50222921371
-0.57344937325 -0.43644505739 0.69314146042
-0.55596387386 -0.63736617565 0.53331786394
-0.50753611326 -0.81173944473 0.28866392374
-0.70714014769 -0.59955090284 0.37284377217
-0.71536439657 -0.4253539443 0.55411738157
-0.45485806465 0.78165590763 0.42660322785
-0.2743652761 0.79852509499 0.53569847345
-0.10368240625 0.80845069885 0.57861804962
-0.055059108883 0.72151875496 0.68991887569
-0.1900729686 0.69669663906 0.69171619415
-0.065396025777 0.63086616993 0.7730807662
0.051588553935 0.78326570988 0.61833125353
-0.26412755251 -0.95020538568 0.16410928965
-0.25299197435 -0.88406485319 0.39259171486
-0.0049575236626 -0.96337360144 0.26816663146
-0.015243669972 -0.99922031164 -0.036848165095
0.26769256592 -0.94852149487 -0.16942937672
0.52850484848 -0.8487342 -0.022939378396
0.27123337984 -0.95254993439 0.13872747123
-0.14160877466 0.24116803706 0.95985144377
0.0045141931623 0.26101756096 0.96532934904
-0.05412197113 0.3596149683 0.93147271872
0.065492108464 0.36335393786 0.92932415009
0.03509863466 0.4721763432 0.88074594736
-0.060401715338 0.17163740098 0.98332750797
0.059993043542 0.15473641455 0.98612046242
-0.28989598155 -0.4533342123 0.84283345938
-0.42232474685 -0.41695156693 0.80483472347
-0.34757086635 -0.31782448292 0.88214629889
-0.19350227714 -0.34734532237 0.91752004623
-0.48901987076 -0.26350995898 0.83103626966
0.11461434513 0.039375588298 0.99255883694
0.002893406665 0.036601636559 0.99927842617
0.17632122338 0.13432794809 0.97511804104
-0.34930816293 -0.1669484973 0.92161273956
-0.19696336985 0.33403322101 0.921651721
-0.2222110033 0.47647109628 0.85058957338
-0.11479683965 0.44036069512 0.89041912556
0.16834688187 0.41850656271 0.89238125086
-0.22234214842 0.17638479173 0.95853954554
-0.31787031889 0.21228444576 0.92359691858
-0.077356666327 0.53678953648 0.84014296532
0.040798190981 0.57687401772 0.81579190493
0.17826332152 0.53022789955 0.82886075974
-0.71513277292 -0.6795669198 -0.15103039145
-0.69825977087 -0.70412808657 0.12841044366
-0.51281577349 -0.85687887669 0.0081954468042
-0.26128137112 -0.24215818942 0.93435704708
-0.22971394658 -0.14029367268 0.96307939291
-0.15698242188 -0.23349104822 0.95960658789
-0.11412978917 -0.1297493577 0.98480850458
-0.078790582716 -0.43213695288 0.89828151464
-0.016424726695 -0.28188332915 0.95901292562
0.001147959847 -0.13576363027 0.99069005251
-0.048178561032 -0.047256864607 0.99773746729
0.042913347483 -0.047931328416 0.9978889823
0.34510192275 -0.3141823411 0.88438898325
0.41317307949 -0.414247334 0.81085795164
0.32677018642 -0.54695791006 0.77068740129
0.27074635029 -0.43689420819 0.85778784752
0.29933416843 0.45524284244 0.83846306801
-0.37074357271 -0.70580029488 0.60366547108
-0.24616277218 -0.80472791195 0.54026287794
-0.40911346674 -0.77870559692 0.47563990951
-0.060556750745 -0.56056571007 0.8256111145
-0.17137946188 -0.47060510516 0.86542952061
0.056085344404 -0.52281314135 0.85045325756
0.1093936637 -0.63583111763 0.76395094395
-0.26236626506 0.94924366474 -0.17299535871
-0.27656215429 0.9560097456 0.098713070154
-0.51856482029 0.85345858335 -0.05200316757
-0.43829777837 -0.076091244817 0.8955552578
-0.38291543722 0.019894903526 0.92361521721
-0.30497300625 -0.061709940434 0.95028865337
-0.23989129066 0.022438818589 0.97043544054
0.099300406873 -0.31363597512 0.94435942173
0.13723143935 -0.43025431037 0.89199596643
0.033426355571 -0.40507775545 0.91360491514
-0.42729076743 0.11616645753 0.89646297693
-0.50036561489 0.18065942824 0.84661918879
-0.4058008492 0.25026470423 0.87900626659
-0.29654398561 0.10564290732 0.94900912046
0.59531539679 0.73097878695 0.33261522651
0.44566947222 0.79288983345 0.4148760438
0.55240643024 0.67060261965 0.49511989951
0.24978044629 -0.646887362 0.72043412924
0.3753721416 -0.63569229841 0.6745402813
0.29758787155 -0.72818547487 0.61727833748
0.19135017693 -0.54423266649 0.81680005789
0.45085722208 -0.5184725523 0.72655010223
0.49626740813 -0.59519004822 0.63205558062
-0.045492585748 0.097707167268 0.99419361353
-0.10795497149 0.030777521431 0.99333441257
-0.14222323895 0.096109844744 0.98489332199
-0.18437716365 -0.056031733751 0.98096990585
0.25672772527 0.8619466424 -0.43697744608
0.26998570561 0.94848662615 -0.16540084779
0.013929480687 0.96163278818 -0.27413967252
-0.2587813437 -0.94382512569 -0.20229223371
-0.47292047739 -0.80848288536 -0.34724894166
-0.58556932211 -0.42622512579 -0.68953716755
-0.41409698129 -0.68427354097 -0.60041582584
-0.66749846935 -0.58989590406 -0.45351532102
-0.60477107763 -0.21507298946 0.76679807901
-0.63318067789 -0.076563127339 0.77008080482
-0.53545564413 -0.12464404851 0.83537435532
-0.88098055124 -0.41578188539 0.22562141716
0.7989949584 -0.094954542816 0.5933521986
0.72372937202 -0.026369895786 0.68961530924
0.80199611187 0.060761075467 0.59417456388
-0.80731451511 -0.55655539036 0.19718681276
-0.793176651 -0.46227264404 0.39585053921
-0.49443820119 -0.85157442093 -0.17262840271
-0.28553587198 -0.95774489641 -0.025551145896
-0.61797887087 -0.78146773577 -0.085967615247
-0.6056215167 -0.75115478039 -0.26108527184
-0.78189438581 -0.5242267251 -0.33549654484
-0.17416575551 0.024921592325 0.98439019918
-0.1193132028 -0.04413581267 0.99187344313
-0.15129560232 0.16459685564 0.97469133139
-0.21649308503 0.10044129938 0.97107487917

CELLS 410 1640
3 0 1 2
3 1 3 2
3 1 4 3
3 2 3 5
3 5 3 6
3 3 7 6
3 3 4 7
3 5 6 8
3 8 9 10
3 4 11 12
3 11 13 12
3 11 14 13
3 12 13 15
3 15 16 17
3 16 18 17
3 16 19 18
3 17 18 20
3 21 22 23
3 22 17 23
3 22 15 17
3 23 17 20
3 4 1 11
3 1 24 11
3 1 0 24
3 11 24 14
3 4 12 7
3 12 22 7
3 12 15 22
3 7 22 21
3 25 26 27
3 25 28 26
3 29 30 31
3 30 32 31
3 33 34 35
3 36 37 38
3 39 40 41
3 42 43 44
3 44 43 38
3 45 42 20
3 20 42 46
3 2 47 0
3 0 47 48
3 2 49 47
3 49 50 47
3 49 51 50
3 47 50 48
3 51 49 5
3 5 49 2
3 45 52 33
3 52 53 33
3 52 18 53
3 33 53 54
3 18 52 20
3 20 52 45
3 53 18 19
3 34 33 54
3 38 43 36
3 5 55 51
3 56 57 58
3 55 58 51
3 57 56 59
3 38 60 61
3 45 35 62
3 35 63 62
3 35 64 63
3 62 63 43
3 65 58 57
3 45 62 42
3 42 62 43
3 33 35 45
3 43 63 36
3 66 67 68
3 69 68 70
3 26 71 27
3 27 71 41
3 29 72 30
3 30 72 26
3 51 73 74
3 73 75 74
3 73 65 75
3 74 75 29
3 41 76 39
3 39 76 65
3 65 76 75
3 76 77 75
3 76 41 77
3 75 77 29
3 29 77 72
3 77 71 72
3 77 41 71
3 72 71 26
3 65 73 58
3 58 73 51
3 9 78 10
3 48 79 0
3 79 70 0
3 67 80 81
3 80 82 81
3 81 82 83
3 32 84 31
3 31 84 48
3 48 84 79
3 84 85 79
3 84 32 85
3 79 85 70
3 86 87 83
3 88 87 89
3 87 90 89
3 87 86 90
3 54 90 34
3 90 86 34
3 46 91 78
3 91 92 78
3 91 44 92
3 10 78 93
3 44 91 42
3 42 91 46
3 94 95 96
3 95 94 93
3 94 97 93
3 94 59 97
3 93 97 10
3 10 97 56
3 97 59 56
3 95 61 60
3 38 61 44
3 44 61 92
3 93 92 95
3 61 95 92
3 92 93 78
3 66 80 67
3 70 85 69
3 88 98 99
3 98 100 99
3 98 101 100
3 99 100 67
3 24 102 14
3 14 102 101
3 24 103 102
3 103 104 102
3 103 70 104
3 102 104 101
3 70 103 0
3 0 103 24
3 105 106 107
3 106 108 107
3 106 40 108
3 107 108 109
3 105 110 106
3 110 111 106
3 106 111 40
3 83 112 113
3 112 114 113
3 112 115 114
3 113 114 116
3 27 117 25
3 118 117 111
3 117 119 111
3 117 27 119
3 111 119 40
3 83 113 86
3 86 113 116
3 116 114 120
3 37 121 122
3 121 107 123
3 121 105 107
3 123 107 109
3 108 40 124
3 105 121 125
3 126 121 37
3 40 119 41
3 41 119 27
3 60 127 96
3 127 128 96
3 127 109 128
3 96 128 59
3 57 59 129
3 109 127 123
3 127 122 123
3 127 60 122
3 123 122 121
3 37 122 38
3 122 60 38
3 101 104 100
3 68 104 70
3 67 100 68
3 68 100 104
3 82 112 83
3 60 96 95
3 94 96 59
3 19 130 131
3 131 132 88
3 120 133 134
3 133 135 134
3 133 115 135
3 134 135 136
3 115 137 138
3 136 135 138
3 138 135 115
3 25 139 138
3 138 139 136
3 136 139 140
3 139 141 140
3 139 25 141
3 140 141 118
3 28 142 26
3 26 142 30
3 30 143 32
3 144 143 145
3 143 142 145
3 143 30 142
3 145 142 28
3 109 124 129
3 124 146 129
3 124 39 146
3 129 146 57
3 57 146 65
3 146 39 65
3 89 131 88
3 81 147 148
3 147 149 148
3 147 87 149
3 148 149 99
3 82 150 151
3 150 137 151
3 150 152 137
3 151 137 115
3 152 150 153
3 80 150 82
3 87 147 83
3 83 147 81
3 88 132 98
3 118 141 117
3 117 141 25
3 115 133 114
3 114 133 120
3 39 124 40
3 108 124 109
3 109 129 128
3 128 129 59
3 99 149 88
3 88 149 87
3 81 148 67
3 148 99 67
3 82 151 112
3 112 151 115
3 9 154 155
3 154 156 155
3 154 23 156
3 155 156 46
3 23 154 21
3 46 156 20
3 156 23 20
3 64 157 158
3 157 159 158
3 157 120 159
3 158 159 160
3 28 161 162
3 161 163 162
3 161 138 163
3 162 163 152
3 138 161 25
3 161 28 25
3 120 157 116
3 64 164 165
3 164 166 165
3 164 126 166
3 165 166 36
3 36 166 37
3 37 166 126
3 160 167 158
3 167 164 158
3 167 126 164
3 158 164 64
3 8 168 5
3 168 55 5
3 8 169 168
3 169 170 168
3 169 56 170
3 168 170 55
3 55 170 58
3 58 170 56
3 56 169 10
3 10 169 8
3 64 165 63
3 63 165 36
3 144 171 172
3 171 173 172
3 171 66 173
3 172 173 69
3 69 173 68
3 68 173 66
3 152 153 174
3 153 171 174
3 153 66 171
3 174 171 144
3 144 172 175
3 172 176 175
3 172 69 176
3 175 176 32
3 9 155 78
3 78 155 46
3 66 153 80
3 80 153 150
3 32 176 85
3 85 176 69
3 110 177 111
3 177 118 111
3 118 177 178
3 177 179 178
3 177 110 179
3 152 174 162
3 145 174 144
3 28 162 145
3 145 162 174
3 160 159 180
3 134 159 120
3 118 178 140
3 152 163 137
3 137 163 138
3 144 175 143
3 143 175 32
3 21 181 7
3 7 181 6
3 6 182 8
3 182 9 8
3 6 181 182
3 181 183 182
3 181 21 183
3 182 183 9
3 101 184 14
3 14 184 185
3 13 186 15
3 15 186 16
3 13 187 186
3 187 188 186
3 187 185 188
3 186 188 16
3 185 187 14
3 14 187 13
3 116 189 86
3 86 189 34
3 34 189 190
3 189 191 190
3 189 116 191
3 190 191 64
3 19 192 53
3 53 192 54
3 50 193 48
3 48 193 31
3 31 194 29
3 29 194 74
3 34 190 35
3 35 190 64
3 74 195 51
3 51 195 50
3 50 195 193
3 195 194 193
3 195 74 194
3 193 194 31
3 19 196 192
3 196 197 192
3 196 89 197
3 192 197 54
3 54 197 90
3 90 197 89
3 185 184 198
3 184 199 198
3 184 101 199
3 198 199 132
3 130 200 131
3 200 132 131
3 130 201 200
3 201 198 200
3 201 185 198
3 200 198 132
3 185 201 188
3 201 202 188
3 201 130 202
3 188 202 16
3 16 202 19
3 202 130 19
3 136 180 134
3 134 180 159
3 160 180 203
3 180 204 203
3 180 136 204
3 203 204 178
3 89 196 131
3 131 196 19
3 132 199 98
3 98 199 101
3 9 183 154
3 154 183 21
3 64 191 157
3 157 191 116
3 167 125 126
3 126 125 121
3 105 125 205
3 125 206 205
3 125 167 206
3 205 206 179
3 160 203 206
3 179 203 178
3 179 206 203
3 160 206 167
3 105 205 110
3 110 205 179
3 178 204 140
3 140 204 136

CELL_TYPES 410
5
5
5
5
5
5
5
5
5
5
5
5
5
5
5
5
5
5
5
5
5
5
5
5
5
5
5
5
5
5
5
5
5
5
5
5
5
5
5
5
5
5
5
5
5
5
5
5
5
5
5
5
5
5
5
5
5
5
5
5
5
5
5
5
5
5
5
5
5
5
5
5
5
5
5
5
5
5
5
5
5
5
5
5
5
5
5
5
5
5
5
5
5
5
5
5
5
5
5
5
5
5
5
5
5
5
5
5
5
5
5
5
5
5
5
5
5
5
5
5
5
5
5
5
5
5
5
5
5
5
5
5
5
5
5
5
5
5
5
5
5
5
5
5
5
5
5
5
5
5
5
5
5
5
5
5
5
5
5
5
5
5
5
5
5
5
5
5
5
5
5
5
5
5
5
5
5
5
5
5
5
5
5
5
5
5
5
5
5
5
5
5
5
5
5
5
5
5
5
5
5
5
5
5
5
5
5
5
5
5
5
5
5
5
5
5
5
5
5
5
5
5
5
5
5
5
5
5
5
5
5
5
5
5
5
5
5
5
5
5
5
5
5
5
5
5
5
5
5
5
5
5
5
5
5
5
5
5
5
5
5
5
5
5
5
5
5
5
5
5
5
5
5
5
5
5
5
5
5
5
5
5
5
5
5
5
5
5
5
5
5
5
5
5
5
5
5
5
5
5
5
5
5
5
5
5
5
5
5
5
5
5
5
5
5
5
5
5
5
5
5
5
5
5
5
5
5
5
5
5
5
5
5
5
5
5
5
5
5
5
5
5
5
5
5
5
5
5
5
5
5
5
5
5
5
5
5
5
5
5
5
5
5
5
5
5
5
5
5
5
5
5
5
5
5
5
5
5
5
5
5
5
5
5
5
5
5
5
5
5
5
5
5
5
5
5
5
5
5
5
5
5
5
5
5
5
5
5
5
5

CELL_DATA 410
SCALARS cell_data_0 double
LOOKUP_TABLE default
3.44945466469e-07
2.26494371157e-07
4.78106198816e-07
5.11833048448e-07
8.49339672363e-07
2.15911803145e-06
6.73838607554e-07
1.97170852048e-06
2.21661108577e-06
2.59700317835e-07
4.99157878215e-07
8.55485869652e-08
2.53332887527e-08
9.06561386874e-07
1.0953069928e-07
1.46261415389e-06
5.91742951578e-07
7.78119827593e-08
5.98911271999e-07
3.7148845259e-07
3.84242113907e-07
1.34103040966e-07
5.02308129445e-07
1.18419495068e-08
7.17127614503e-08
4.54348253231e-07
9.3496055631e-07
5.97348214648e-07
1.87834664225e-07
9.83107149049e-09
3.2993700723e-07
1.95846799888e-06
2.60771161593e-07
1.07490726687e-06
7.60679706214e-07
7.30340480042e-07
2.90615363852e-07
2.01688605295e-07
1.11809688968e-06
1.09728621406e-06
7.00067455454e-07
6.37693969956e-07
1.01072252445e-06
4.69141080232e-07
1.91296631116e-07
3.10046117815e-07
1.12982454443e-06
6.9126488209e-07
2.69368472481e-07
1.33961256421e-07
1.42608644076e-06
7.5648887515e-07
8.51629479501e-07
3.64675923895e-07
1.14988303905e-06
1.49213631232e-07
5.05394255767e-07
9.13886542383e-07
1.44023537661e-07
1.05558630213e-07
6.7179199642e-08
1.22702624785e-06
1.51425242831e-07
3.36995687916e-07
1.29021000535e-06
6.71146304019e-07
1.01483302988e-06
6.3087787531e-07
4.48449214855e-07
2.87845105577e-07
1.21299866043e-07
5.96643283243e-07
1.60721365229e-07
2.23215844615e-07
2.47230783744e-07
1.29684699294e-07
7.99756145733e-07
2.5660504753e-08
1.17401040527e-07
4.2034025713e-07
6.29395272465e-07
5.38198141369e-07
3.91431295435e-07
2.98473793619e-08
9.43145724264e-08
1.28460970789e-08
1.12696613847e-07
3.04561457468e-07
2.52503386975e-07
5.63524591504e-07
3.38118500237e-07
6.03942548429e-07
1.083408481e-07
5.1422656293e-07
1.60098171804e-08
1.23964836003e-06
3.31400745749e-07
3.07854967665e-08
6.0954478649e-08
6.69044977447e-07
1.51274149865e-07
7.4659903088e-07
7.04160828466e-08
8.9286831496e-07
7.65134454499e-07
9.85444508715e-07
2.15702048917e-07
7.04986596959e-07
5.26267518275e-07
2.45599063161e-07
1.27075451348e-06
2.74507946264e-07
2.80793879457e-07
8.6966901655e-07
7.70858094486e-08
8.28838643656e-08
4.08401494591e-07
1.67821594917e-07
4.27817487058e-07
3.94236505993e-08
5.99659149019e-07
1.26726660166e-06
5.38708762923e-07
1.0186872522e-06
1.78561617373e-07
5.62112190304e-07
7.21712686251e-08
6.90834925405e-07
4.24948883282e-07
1.01410419515e-07
8.72571373926e-08
3.54712096768e-08
3.88463472036e-07
3.1061570488e-07
2.05452967312e-08
1.19764108151e-07
3.02605418609e-08
6.08454688354e-07
9.08009076663e-07
3.10331096262e-07
6.63391314014e-07
4.27101034321e-08
1.71910726713e-06
4.31958029356e-07
7.60200936198e-07
3.7930227922e-07
7.72045805388e-09
3.25286451858e-08
3.70488562924e-07
2.37549371494e-07
4.50418786365e-08
5.10703849204e-07
5.7766050242e-08
5.36183050424e-07
1.86142031094e-07
1.14141071645e-06
3.8080780826e-07
5.51752898729e-07
1.20882183621e-06
8.29795681297e-08
1.51599567716e-08
1.13331822833e-07
1.86044533753e-07
5.35804732072e-07
1.78137539671e-07
3.87476896466e-07
1.48157146308e-07
2.0422897778e-07
8.66766410176e-08
5.15725241377e-07
1.91495123688e-07
6.2092125269e-07
5.05937761947e-07
1.52205127426e-07
6.32416690145e-08
2.41141432098e-08
5.25044644258e-07
2.22399921683e-07
3.17646913303e-07
1.08905152238e-07
1.95192242748e-07
6.01684232277e-08
1.08835087047e-07
9.55932674054e-09
3.43082541071e-07
3.2278085914e-07
4.9606051532e-07
2.88279119992e-07
3.45330421693e-07
4.20231080281e-07
1.66991586547e-07
2.92183814405e-07
6.11208646877e-08
3.839438107e-07
3.9719627165e-07
2.3518693701e-07
9.8603700348e-07
6.22123456544e-07
9.39290119743e-08
6.27307851334e-07
6.33016501337e-07
3.08211531776e-07
2.32939621308e-07
1.29300961771e-06
4.34959413579e-08
9.40474222507e-08
5.21241478905e-07
1.97999104776e-08
4.77837391529e-07
3.13725651542e-07
6.43589968631e-07
1.1012039585e-07
2.85044900401e-07
8.15625107361e-09
2.87448066369e-07
5.41184703027e-07
4.42774725851e-07
3.73920743315e-07
5.71806606122e-08
1.71520093179e-07
1.58388287149e-07
6.13974746775e-09
1.68456248474e-07
3.86764330777e-08
1.26423001959e-07
9.1949871762e-08
4.14349448362e-07
4.93851038983e-08
6.77747764499e-08
2.32155923437e-07
2.77296503804e-07
4.31606558466e-07
3.84347775022e-07
9.5058899727e-07
2.56829343545e-07
9.10407758297e-08
1.97723876933e-07
4.09795457341e-08
3.17038603797e-07
6.00018008796e-07
4.88926008992e-08
1.27844103397e-08
2.37214321385e-07
1.18205771679e-07
3.59417991399e-07
2.61778312556e-07
1.79665512699e-07
6.3084516009e-07
1.10486576077e-06
3.71473230531e-07
6.41622727015e-07
8.01856495393e-07
3.30823366365e-07
1.84790974252e-07
4.91307221184e-07
2.89263239592e-07
2.15150244075e-07
7.78466193836e-08
3.32144116745e-07
9.16416804411e-07
2.87096891546e-08
9.0316873535e-07
2.75759716422e-07
1.00354177763e-06
7.15360057301e-07
8.75971491083e-08
2.14550631046e-07
1.09209750395e-07
3.01376410942e-07
8.83449067376e-09
2.91627398246e-07
1.16053201649e-07
2.78051225958e-07
6.26452113624e-08
4.23421511269e-07
1.19885714762e-07
1.57896213142e-06
9.7814183832e-08
3.36612291615e-07
2.17161145697e-07
5.67624243527e-07
9.2019924782e-07
1.03642225442e-06
2.81604903025e-07
7.32688517346e-07
2.94808075884e-07
6.96116155084e-08
9.84374901608e-09
1.23176389104e-07
2.33593419039e-07
1.73143734588e-09
9.19314855139e-08
2.67266838801e-07
2.09263215133e-07
5.44321620992e-08
2.09563016536e-07
1.02094399907e-08
1.34721520609e-07
1.47963225763e-08
3.33554592883e-07
3.23746582467e-07
4.71200600459e-07
2.71840185926e-07
7.49422871884e-07
2.93936656757e-07
1.00853072088e-07
8.33151047131e-08
7.0061889756e-08
2.32688090144e-07
1.78542814991e-07
2.38441242218e-07
3.84006037189e-08
7.53076760331e-08
2.09155435262e-07
2.18494489236e-07
1.40616494687e-07
2.93057643532e-08
5.00003356954e-07
6.32567967623e-07
4.61020937186e-07
9.32665444004e-09
3.59079247325e-07
4.53920346646e-07
2.80008640627e-07
2.02952477193e-06
4.93505146292e-07
4.54183911379e-07
8.61749092731e-07
4.84907886585e-07
1.1857119101e-07
2.24247413376e-07
2.13165619788e-07
1.53965580541e-07
2.82777353273e-07
6.02579378167e-07
5.40997790273e-07
1.26153196772e-07
3.4224598475e-07
5.1983036071e-07
5.32348699591e-07
1.16926883591e-07
7.99162500311e-07
1.05757698503e-06
2.30533321462e-07
3.04608932909e-07
1.4983038986e-07
3.89377198551e-07
3.73145303489e-08
4.79776124538e-07
1.04891552202e-07
6.02532970909e-07
1.17020807044e-07
8.67325475015e-07
1.91186978032e-07
1.05103777174e-07
1.88619474902e-07
4.03573144069e-07
2.21145335641e-07
1.50210898409e-07
2.22623658039e-07
6.62111887426e-07
6.57291022658e-07
3.30422485598e-08
9.43081951702e-08
4.32340871146e-07
3.62606496262e-07
4.22212228622e-07
1.64815487541e-07
5.04591316778e-07
4.15346986578e-07
1.80830586739e-07
1.0498943604e-08
5.61592318325e-08
7.45579359778e-08
4.12903995028e-07
8.05236339298e-08
3.14159703832e-07
4.35434507635e-07
5.3652133841e-07
4.60601232615e-07
8.16122632718e-07
4.62624740337e-07
3.44227436987e-07
3.19192713616e-07
3.3143403329e-07
2.89045123673e-07
3.01694450728e-07
2.07430618088e-07
9.54725445775e-08
3.35074568298e-08
1.05593122703e-07
2.41819636954e-07
1.51797108531e-07
1.86123980568e-07
4.01975702209e-07
6.38473666607e-07
7.92381388223e-07
1.11641097539e-06
6.06648102001e-07
2.69330373312e-08
2.5689913758e-07
3.18905871824e-07
6.30177399107e-08
2.89499688572e-07
2.37962360902e-07
3.24534792945e-07
2.78972077467e-07
3.15485944754e-07
1.38776720875e-07
1.52105935422e-07

