# vtk DataFile Version 3.0
File Name: Molecule/sphere_excent/sphere_excent_0-s8.vtk
ASCII
DATASET UNSTRUCTURED_GRID
FIELD FieldData 1
TIME 1 1 double
0.0
POINTS 85 double
0.85091549158 -0.52544623613 -0.0023085505236
0.80876845121 -0.30901125073 -0.5002592206
0.99841785431 0.0010564818513 -0.033821679652
0.8085309267 0.30931586027 -0.5005158782
0.52570468187 4.1909815991e-06 -0.85066729784
0.8509761095 0.52511119843 0.0003037705319
0.49998754263 0.80890977383 -0.30902430415
0.30896428227 0.4999448657 -0.80893981457
-7.6769310908e-07 0.85065108538 -0.5257307291
0.49480649829 0.81724393368 0.29100960493
-2.1951129384e-05 0.99997031689 -0.00020675448468
0.0044011422433 0.85441827774 0.51881074905
-0.49114853144 0.82439953089 0.2805570066
-0.49988025427 0.80875760317 -0.30976355076
-0.85064017773 0.52567023039 0.00056242692517
0.32369658351 -0.55641198158 0.76489585638
-0.00028150397702 -0.85045963526 0.52619075775
0.50092208385 -0.80964899063 0.30600613356
0.82942438126 -0.32890349627 0.44894987345
0.30897533894 -0.49993976951 -0.8089376092
-2.4609385036e-06 -8.0356016952e-08 -0.99989157915
-0.30898973346 -0.49994468689 -0.80892837048
-7.5841870739e-07 -0.85065501928 -0.5257242918
-0.52573388815 2.4802657208e-06 -0.85064905882
-0.80879747868 -0.30903688073 -0.50019389391
-0.80882370472 0.30911028385 -0.50012749434
-0.99837350845 0.0015165472869 -0.033683128655
-0.85103660822 -0.52523887157 -0.0024519430008
-0.30897253752 0.49993658066 -0.80894225836
-0.49994572997 -0.80891096592 -0.30906924605
-0.50094759464 -0.80946081877 0.30645295978
-9.0334970082e-07 -0.9999049902 9.8950557003e-05
-0.82975292206 -0.3287088275 0.44951710105
-0.32370635867 -0.55647802353 0.76482886076
0.49994882941 -0.80888277292 -0.30914485455
3.5320696043e-05 -0.53248494864 0.84649574757
-0.19630001485 -0.31693917513 0.92735260725
0.19620582461 -0.31671348214 0.92744988203
-0.13187579811 0.25909274817 0.95633327961
0.1342034936 0.25882741809 0.95616567135
0.0084537211806 0.51559448242 0.85471367836
8.8298911578e-05 0.05736348778 0.99836426973
-0.47084999084 -0.27761417627 0.83747178316
-0.54165899754 0.0204930529 0.84043371677
-0.33676970005 -0.14450146258 0.93044215441
-0.24577157199 0.021319156513 0.96898424625
-0.10687042028 -0.12446188182 0.98643553257
-0.00039823324187 -0.2794572413 0.9600699544
0.10612930357 -0.1244892031 0.98650556803
0.24639979005 0.022048978135 0.96888238192
0.33531454206 -0.14254675806 0.93128395081
0.35296174884 0.16365411878 0.92087209225
0.47060465813 -0.27764052153 0.83753246069
0.55098712444 0.016671799123 0.83344197273
0.69639492035 -0.1738281101 0.69600445032
0.60393810272 -0.44015079737 0.66404825449
0.79850417376 0.31466373801 0.51061981916
0.86123132706 -0.0021764587145 0.50802612305
-0.60423326492 -0.4394569397 0.66447842121
-0.69722694159 -0.16441011429 0.69768410921
-0.8626793623 -0.0024222091306 0.50575679541
-0.70428955555 0.15829601884 0.6907723546
0.46927011013 0.28447714448 0.83521920443
-0.26289844513 0.38751447201 0.88364750147
0.26448619366 0.38798999786 0.88272231817
0.34832680225 0.54582351446 0.76110166311
-0.34752717614 0.17282512784 0.92144346237
-0.45341467857 0.29325655103 0.84136003256
-0.35544130206 0.5353474021 0.7658149004
-0.44465538859 0.6977725029 0.56156682968
-0.68863898516 0.58946812153 0.42245900631
-0.59241873026 0.4489762187 0.66663908958
-0.81182008982 0.30192664266 0.49770754576
0.95692956448 -0.15823121369 0.24345541
0.95195102692 0.16128474474 0.26064258814
-0.95258063078 0.15968023241 0.25917512178
-0.95688575506 -0.15843643248 0.24343825877
0.68369853497 0.59290200472 0.4255450666
0.43486520648 0.70485299826 0.55721187592
0.59851813316 0.45941480994 0.65548294783
0.015265374444 0.70199257135 0.70969283581
-0.17553512752 0.55069947243 0.81604236364
-0.18298837543 0.71234077215 0.67759728432
-0.71014428139 0.37011161447 0.59862303734
-0.59331524372 0.24305357039 0.76745855808

CELLS 166 664
3 0 1 2
3 1 3 2
3 1 4 3
3 2 3 5
3 5 3 6
3 3 7 6
3 3 4 7
3 6 7 8
3 5 6 9
3 6 10 9
3 6 8 10
3 9 10 11
3 11 10 12
3 10 13 12
3 10 8 13
3 12 13 14
3 15 16 17
3 18 17 0
3 4 19 20
3 19 21 20
3 19 22 21
3 20 21 23
3 23 24 25
3 24 26 25
3 24 27 26
3 25 26 14
3 8 28 13
3 28 25 13
3 28 23 25
3 13 25 14
3 27 29 30
3 29 31 30
3 29 22 31
3 30 31 16
3 27 30 32
3 30 16 33
3 23 21 24
3 21 29 24
3 21 22 29
3 24 29 27
3 22 34 31
3 34 17 31
3 34 0 17
3 31 17 16
3 4 1 19
3 1 34 19
3 1 0 34
3 19 34 22
3 4 20 7
3 20 28 7
3 20 23 28
3 7 28 8
3 33 35 36
3 35 15 37
3 15 35 16
3 16 35 33
3 38 39 40
3 38 41 39
3 33 36 42
3 43 44 45
3 44 46 45
3 44 36 46
3 45 46 41
3 37 47 35
3 35 47 36
3 36 47 46
3 47 48 46
3 47 37 48
3 46 48 41
3 41 48 49
3 48 50 49
3 48 37 50
3 49 50 51
3 50 37 52
3 38 45 41
3 41 49 39
3 53 52 54
3 52 55 54
3 52 15 55
3 54 55 18
3 18 55 17
3 17 55 15
3 56 53 57
3 33 58 30
3 30 58 32
3 32 58 59
3 58 42 59
3 58 33 42
3 59 42 43
3 60 59 61
3 43 42 44
3 44 42 36
3 15 52 37
3 50 52 53
3 56 62 53
3 63 38 40
3 39 64 40
3 40 64 65
3 43 66 67
3 66 63 67
3 66 38 63
3 67 63 68
3 65 64 62
3 64 51 62
3 64 39 51
3 62 51 53
3 38 66 45
3 45 66 43
3 53 51 50
3 49 51 39
3 12 69 11
3 12 70 69
3 70 71 69
3 69 71 68
3 72 70 14
3 14 70 12
3 2 73 0
3 0 73 18
3 2 74 73
3 74 57 73
3 74 56 57
3 73 57 18
3 56 74 5
3 5 74 2
3 72 75 60
3 75 76 60
3 75 26 76
3 60 76 32
3 26 75 14
3 14 75 72
3 32 76 27
3 76 26 27
3 18 57 54
3 54 57 53
3 59 60 32
3 68 71 67
3 9 77 5
3 5 77 56
3 9 78 77
3 78 79 77
3 78 65 79
3 77 79 56
3 65 78 80
3 11 78 9
3 68 81 82
3 81 80 82
3 81 40 80
3 82 80 11
3 11 80 78
3 80 40 65
3 72 61 83
3 61 84 83
3 61 43 84
3 83 84 71
3 56 79 62
3 62 79 65
3 40 81 63
3 63 81 68
3 68 82 69
3 69 82 11
3 72 83 70
3 70 83 71
3 43 61 59
3 60 61 72
3 71 84 67
3 67 84 43

CELL_TYPES 166
5
5
5
5
5
5
5
5
5
5
5
5
5
5
5
5
5
5
5
5
5
5
5
5
5
5
5
5
5
5
5
5
5
5
5
5
5
5
5
5
5
5
5
5
5
5
5
5
5
5
5
5
5
5
5
5
5
5
5
5
5
5
5
5
5
5
5
5
5
5
5
5
5
5
5
5
5
5
5
5
5
5
5
5
5
5
5
5
5
5
5
5
5
5
5
5
5
5
5
5
5
5
5
5
5
5
5
5
5
5
5
5
5
5
5
5
5
5
5
5
5
5
5
5
5
5
5
5
5
5
5
5
5
5
5
5
5
5
5
5
5
5
5
5
5
5
5
5
5
5
5
5
5
5
5
5
5
5
5
5
5
5
5
5
5
5

CELL_DATA 166
SCALARS cell_data_0 double
LOOKUP_TABLE default
1.36540645558e-06
4.71778637335e-07
3.49834301121e-08
7.98998608008e-07
5.03344677403e-07
1.51629070038e-06
5.64710308778e-07
5.44519306703e-07
4.76894797361e-07
2.53609355038e-06
2.22640444332e-07
1.12465812603e-06
1.95926519409e-07
1.79143691083e-06
3.28766157595e-07
4.05796868238e-07
7.63257905216e-06
5.244465316e-06
4.23877409446e-07
5.59977695616e-07
3.17250104169e-07
4.25969287663e-07
8.95215426966e-08
6.21836936871e-07
1.25334655939e-06
8.82748745004e-07
5.48534976799e-07
1.52818774576e-06
5.62124514516e-07
4.59037669178e-07
2.41266523547e-06
2.27425973826e-06
7.66059513856e-07
2.12396942808e-07
5.52107175402e-06
7.00374449229e-06
8.29921361328e-07
1.55121305044e-06
3.81579612737e-07
2.98893292735e-07
7.12530468563e-07
2.4774949871e-06
1.95982138281e-06
8.26418934006e-07
6.48632308235e-07
1.43831973503e-06
2.90734653705e-07
4.13437989266e-07
3.91186970941e-07
6.12690909816e-07
2.39928401691e-07
3.81154695191e-07
3.85862208145e-07
2.02014761338e-07
1.49789388268e-06
1.95973505122e-06
4.98440456014e-06
2.32755404743e-06
2.13425632272e-06
2.22664371018e-06
1.70941189088e-06
1.89360865288e-06
1.24962396514e-06
1.4460103989e-06
1.37649604717e-06
1.50030260837e-06
1.41157730296e-06
1.12391269756e-06
8.93735600921e-07
4.19890720911e-07
3.73288335916e-06
4.94386192317e-07
8.24947108878e-08
4.6075784048e-07
4.29619288871e-06
5.41390785355e-06
2.23236379051e-06
1.50260813839e-06
2.19589121907e-06
8.80901542777e-07
4.79377808724e-06
2.50483875874e-06
3.45100492767e-06
1.54316190542e-06
6.22330528554e-06
2.56532226383e-06
1.66399044185e-06
2.40001887478e-06
4.27765008605e-06
4.65653104671e-06
1.28048130145e-06
1.41804063105e-07
3.64468386803e-06
2.83505073827e-06
1.11143439736e-05
2.02577944441e-06
1.25761616702e-06
2.50159788964e-06
7.51053189971e-07
6.38801371432e-08
1.31852629727e-06
3.07399460393e-07
1.68576372905e-06
9.24288519894e-07
4.87775378454e-08
7.06116956361e-06
5.31883104187e-07
9.64935762223e-07
1.12411789874e-05
1.67943497138e-06
5.7818433115e-06
4.25901759866e-06
4.92541577222e-07
7.6151137147e-07
3.44001226916e-06
2.30980174455e-07
1.37906137822e-06
3.32675528949e-06
1.25799129723e-06
2.2339832457e-06
1.51210082881e-06
2.06508979845e-07
1.89804191053e-06
7.87440643592e-07
9.26921242982e-07
1.65324255956e-06
9.18001645208e-07
6.79706993029e-07
2.66091738761e-07
5.90342263363e-07
2.66013561708e-06
1.46644070341e-06
1.59538060397e-08
1.98718590489e-06
1.56901662941e-06
2.38047773766e-06
6.88510726486e-07
3.08826827034e-06
4.12061063927e-06
2.49817727336e-06
1.06471126131e-06
8.80733574225e-07
6.03266348008e-06
1.11725678294e-06
1.60882986293e-06
1.05038868442e-06
4.11014832838e-06
6.42378148526e-06
1.63470556009e-06
1.51367058683e-06
1.53266265607e-06
9.99900550393e-07
2.15103339376e-06
1.68378912505e-06
1.20809765097e-06
4.59629389897e-07
1.05108548263e-06
1.49527520203e-06
7.84746722898e-07
2.24293635234e-06
4.48547688545e-07
8.23179354913e-08
3.38296819458e-07
1.25306225273e-06
1.13693384771e-06
5.2355641733e-07

