# vtk DataFile Version 3.0
File Name: Molecule/sphere_excent/sphere_excent_0-s6.vtk
ASCII
DATASET UNSTRUCTURED_GRID
FIELD FieldData 1
TIME 1 1 double
0.0
POINTS 67 double
0.85067749023 -0.52574598789 -0.0006354523357
0.80892246962 -0.30897074938 -0.49996462464
0.99997013807 0.0001103725881 -0.0004215547815
0.80892419815 0.30898877978 -0.49995243549
0.52572798729 5.6571587947e-07 -0.85065275431
0.85065799952 0.52572453022 -4.6189459681e-05
0.4999473691 0.80892688036 -0.30899250507
0.30897977948 0.49994474649 -0.8089312315
-2.9300949791e-06 0.85065197945 -0.52572917938
0.50033158064 0.80927145481 0.30780544877
-3.8826515265e-06 0.99989742041 6.5271371568e-05
7.7987233453e-06 0.84982067347 0.52693390846
-0.5003298521 0.80926656723 0.30781900883
-0.49995166063 0.80891627073 -0.30901575089
-0.85066992044 0.52570599318 -6.4553991251e-05
-0.35093525052 0.52889835835 0.77117520571
-0.80992889404 0.3080188334 0.49892678857
0.33120524883 -0.535192132 0.7763543725
-5.7373545133e-05 -0.84988206625 0.52696031332
0.50065845251 -0.80934715271 0.30715098977
0.82965707779 -0.307120502 0.46461129189
0.30898088217 -0.49994376302 -0.80893146992
-6.4090113483e-07 -1.3766423024e-07 -0.99989140034
-0.30898711085 -0.49994650483 -0.80892723799
-3.1733003425e-07 -0.8506539464 -0.52572602034
-0.5257332325 1.5765098169e-06 -0.85064947605
0.80982327461 0.30818149447 0.49900245667
0.35061985254 0.52915799618 0.77110475302
-0.80893099308 -0.30898079276 -0.49994674325
-0.80892950296 0.3089799583 -0.49994835258
-0.99997001886 8.6155487224e-05 -0.00043206172995
-0.85067021847 -0.52575701475 -0.00060616096016
-0.30898353457 0.49994528294 -0.80892938375
-0.49995058775 -0.80892258883 -0.30901020765
-0.50057053566 -0.80924922228 0.30756312609
3.7488175622e-06 -0.99990028143 0.00011414798064
-0.82947206497 -0.30725774169 0.46482849121
-0.33129069209 -0.53513014317 0.7763453722
0.49995669723 -0.80890280008 -0.30905681849
7.9867415479e-05 -0.52855354548 0.8489459157
-0.18446391821 -0.30002769828 0.93496471643
0.18439875543 -0.29992863536 0.93501371145
-1.8093451217e-05 0.52893406153 0.84880280495
-0.14959365129 0.26789557934 0.95049482584
0.15013284981 0.26751860976 0.95056319237
4.8272886488e-07 0.049675460905 0.99868923426
-0.46512660384 -0.27247032523 0.8423833251
-0.53236818314 0.017344962806 0.84633171558
-0.33912050724 -0.14289590716 0.92976760864
-0.25294741988 0.015322419815 0.96710437536
-0.10094147921 -0.12273564935 0.98724943399
-0.0004162932164 -0.27283158898 0.96199470758
0.10060407966 -0.12236561626 0.98732662201
0.25348386168 0.015684822574 0.96694993973
0.33814433217 -0.14104469121 0.93039029837
0.5319750309 0.017051113769 0.84658300877
0.46481573582 -0.27224081755 0.842631042
0.69637227058 -0.15810991824 0.69993644953
0.60388350487 -0.43319928646 0.6688734293
-0.60363519192 -0.43322253227 0.6690775156
-0.69626200199 -0.15830042958 0.70001351833
-0.45894920826 0.27846080065 0.84312593937
0.45860475302 0.27847099304 0.84330511093
-0.26126033068 0.39492487907 0.88085502386
0.26107627153 0.39511814713 0.88082069159
-0.352945894 0.15942722559 0.92179691792
0.35274958611 0.15929032862 0.92189407349

CELLS 130 520
3 0 1 2
3 1 3 2
3 1 4 3
3 2 3 5
3 5 3 6
3 3 7 6
3 3 4 7
3 6 7 8
3 5 6 9
3 6 10 9
3 6 8 10
3 9 10 11
3 11 10 12
3 10 13 12
3 10 8 13
3 12 13 14
3 11 12 15
3 12 16 15
3 12 14 16
3 17 18 19
3 20 19 0
3 4 21 22
3 21 23 22
3 21 24 23
3 22 23 25
3 0 2 20
3 2 26 20
3 2 5 26
3 5 9 26
3 9 27 26
3 9 11 27
3 25 28 29
3 28 30 29
3 28 31 30
3 29 30 14
3 8 32 13
3 32 29 13
3 32 25 29
3 13 29 14
3 31 33 34
3 33 35 34
3 33 24 35
3 34 35 18
3 31 34 36
3 34 18 37
3 16 30 36
3 16 14 30
3 36 30 31
3 25 23 28
3 23 33 28
3 23 24 33
3 28 33 31
3 24 38 35
3 38 19 35
3 38 0 19
3 35 19 18
3 4 1 21
3 1 38 21
3 1 0 38
3 21 38 24
3 4 22 7
3 22 32 7
3 22 25 32
3 7 32 8
3 37 39 40
3 39 17 41
3 17 39 18
3 18 39 37
3 15 42 11
3 11 42 27
3 43 44 42
3 43 45 44
3 37 40 46
3 47 48 49
3 48 50 49
3 48 40 50
3 49 50 45
3 41 51 39
3 39 51 40
3 40 51 50
3 51 52 50
3 51 41 52
3 50 52 45
3 45 52 53
3 52 54 53
3 52 41 54
3 53 54 55
3 54 41 56
3 43 49 45
3 45 53 44
3 55 56 57
3 56 58 57
3 56 17 58
3 57 58 20
3 20 58 19
3 19 58 17
3 55 57 26
3 26 57 20
3 37 59 34
3 34 59 36
3 36 59 60
3 59 46 60
3 59 37 46
3 60 46 47
3 36 60 16
3 16 60 47
3 47 46 48
3 48 46 40
3 17 56 41
3 54 56 55
3 47 61 16
3 16 61 15
3 27 62 26
3 26 62 55
3 15 63 42
3 63 43 42
3 44 64 42
3 42 64 27
3 47 65 61
3 65 63 61
3 65 43 63
3 61 63 15
3 27 64 62
3 64 66 62
3 64 44 66
3 62 66 55
3 43 65 49
3 49 65 47
3 55 66 53
3 53 66 44

CELL_TYPES 130
5
5
5
5
5
5
5
5
5
5
5
5
5
5
5
5
5
5
5
5
5
5
5
5
5
5
5
5
5
5
5
5
5
5
5
5
5
5
5
5
5
5
5
5
5
5
5
5
5
5
5
5
5
5
5
5
5
5
5
5
5
5
5
5
5
5
5
5
5
5
5
5
5
5
5
5
5
5
5
5
5
5
5
5
5
5
5
5
5
5
5
5
5
5
5
5
5
5
5
5
5
5
5
5
5
5
5
5
5
5
5
5
5
5
5
5
5
5
5
5
5
5
5
5
5
5
5
5
5
5

CELL_DATA 130
SCALARS cell_data_0 double
LOOKUP_TABLE default
2.39577639816e-06
1.55538058465e-06
1.1190498929e-06
9.50391828038e-07
2.84900016009e-08
5.44038196794e-07
7.20801992573e-07
2.18936333097e-07
3.0341120313e-08
2.94256308431e-06
1.59904621898e-06
3.73169346513e-06
3.80467069224e-06
2.83657479738e-06
1.78822956997e-06
2.34840278136e-07
3.34011942599e-07
9.37428266345e-06
1.83707741212e-06
8.71292477271e-06
4.65899919964e-06
1.38882379946e-07
5.84263104135e-07
1.1845714798e-07
1.21631599003e-07
7.62738902657e-06
1.1512972346e-05
4.80348279602e-06
2.22855072195e-06
8.63316980065e-06
5.99092175326e-07
1.11630583605e-06
1.40962234062e-06
2.53667137702e-06
9.62804059522e-07
3.5699102988e-07
5.52412450413e-07
6.51547989728e-07
3.77350091894e-08
1.00619680291e-06
2.28770902925e-06
1.03934860385e-06
2.32989488482e-08
4.45021231184e-06
8.08720721191e-06
1.11422792114e-05
4.43965568094e-06
7.36940315421e-06
6.16510922966e-07
4.07473005123e-07
2.5209438074e-07
2.13277798636e-07
1.07029368055e-06
2.29968011742e-06
9.33646726066e-07
5.07383002217e-07
7.4509224462e-07
6.02104272834e-07
4.05725347459e-07
3.7074009929e-07
2.93045109522e-07
3.88178681481e-07
8.35657255339e-08
1.91533473505e-07
3.33575733906e-08
3.80198561372e-07
2.32161410218e-06
2.96582461198e-06
4.58463024142e-06
4.97735238668e-06
3.36458860475e-06
1.01977087625e-06
1.41952388619e-06
5.78802480996e-07
1.14492405099e-06
2.65170740722e-06
1.40250938184e-06
1.13522873533e-06
1.56130239036e-06
1.96489615441e-06
1.64156450412e-06
1.98215232419e-06
2.79693037281e-06
1.47077353851e-06
1.06921636936e-06
2.87194137176e-06
9.24364236831e-07
2.17671817497e-06
6.49165738406e-06
6.62374797506e-06
1.73271154981e-06
7.73301268979e-07
1.40039696111e-06
6.40264123409e-06
6.54250431128e-06
8.95438116707e-07
3.42094681936e-06
6.0274156509e-06
1.118794251e-06
6.72624193915e-06
6.46708565941e-06
8.76077265382e-07
1.5246049829e-06
1.83861506896e-06
5.87810260371e-06
3.48008000774e-06
1.19271369053e-08
2.10326514587e-06
1.82712574158e-06
6.59990355697e-09
2.89885891965e-06
1.08035049736e-07
3.08443216504e-07
3.30111170551e-06
2.24431457816e-06
6.8796162063e-07
3.45097739954e-07
2.25941381624e-06
4.37820217623e-06
4.57235093953e-06
4.08002051261e-06
5.86843943768e-06
6.01646564667e-06
4.48732958249e-06
4.08781461941e-06
4.24173913135e-06
2.82165399192e-07
2.40922657136e-06
2.35816011678e-06
1.68616944499e-07

