# vtk DataFile Version 3.0
File Name: Molecule/sphere_excent/sphere_excent_0-s12.vtk
ASCII
DATASET UNSTRUCTURED_GRID
FIELD FieldData 1
TIME 1 1 double
0.0
POINTS 154 double
0.85182565451 -0.52407759428 -0.0079179378226
0.80703353882 -0.30964356661 -0.50288289785
0.99658972025 0.0020631249063 -0.080856770277
0.8063814044 0.31091380119 -0.50308489799
0.52541029453 4.3065338104e-05 -0.85084944963
0.85122716427 0.52483189106 -0.0001046845864
0.49961039424 0.8083307147 -0.31152904034
0.30874052644 0.49989274144 -0.80906605721
2.5250965336e-06 0.85046648979 -0.52604812384
0.48148646951 0.84125095606 0.24501289427
-0.00051260006148 1.0000647306 -0.005985500291
0.050260044634 0.88179463148 0.46512627602
-0.49956700206 0.80744838715 -0.31411084533
-0.50348514318 0.83682543039 0.21314753592
-0.85116040707 0.52502423525 -0.00060550199123
0.30874654651 -0.49974855781 -0.80919492245
-2.7135916753e-05 -2.8683612072e-06 -0.99989295006
-0.30891734362 -0.49997216463 -0.80896174908
0.0006053611869 -0.85079139471 -0.52551978827
-0.52559041977 1.0572858628e-05 -0.85074067116
-0.80710810423 -0.31005361676 -0.50239896774
-0.80709195137 0.31026169658 -0.50239634514
-0.99645966291 0.0019075736636 -0.081850618124
-0.85851240158 -0.50842863321 -0.0032542920671
-0.30875426531 0.4997997582 -0.80912160873
-0.48870447278 -0.80946516991 -0.3196298182
-0.004982936196 -0.9983882308 -0.024948596954
0.50968843699 -0.79049736261 -0.33619850874
-0.53241121769 0.016125859693 0.84620773792
-0.34478566051 -0.14405275881 0.92726230621
-0.23691113293 0.028203789145 0.9710906744
0.19772706926 -0.3267596066 0.92338359356
0.0027692348231 -0.29137066007 0.95656746626
0.045909672976 -0.52370214462 0.8489420414
0.1222378388 -0.13552607596 0.9828286171
0.31246298552 -0.15302819014 0.9374781847
0.2282333225 0.013652353548 0.97329449654
0.58082789183 -0.012187592685 0.81363999844
0.48593702912 -0.27122929692 0.82995951176
0.70540034771 -0.17629638314 0.68645757437
0.57743573189 -0.45230811834 0.67886978388
-0.5802052021 -0.43866145611 0.68570005894
-0.49410787225 -0.26523086429 0.82714474201
-0.70218670368 -0.16466379166 0.69274526834
-0.86846321821 -0.0079619083554 0.49572917819
-0.72203749418 0.12970875204 0.67909651995
-0.33788597584 0.18804554641 0.92219442129
-0.45199021697 0.31259915233 0.83528959751
-0.29001021385 0.38078269362 0.87792104483
-0.36771470308 0.53880906105 0.75795871019
0.27362370491 0.35436415672 0.8926756382
0.14365392923 0.26261222363 0.95391982794
0.30686280131 0.16878399253 0.93653708696
-0.14323168993 0.23596611619 0.96065950394
-0.68777829409 0.5946918726 0.41643282771
-0.56666195393 0.47605234385 0.67185026407
-0.46368831396 0.67510056496 0.57281988859
-0.82848846912 0.30353996158 0.46954223514
0.95961147547 -0.15504233539 0.23487190902
0.84140378237 -0.32603120804 0.43020215631
0.95472258329 0.1605155766 0.25089755654
0.8666420579 -0.0052675837651 0.49909609556
0.80884623528 0.31854870915 0.49420371652
-0.95720303059 0.15498627722 0.24440094829
-0.95969831944 -0.15586771071 0.23379360139
-0.8416647315 -0.32538604736 0.43006029725
0.71769106388 0.1310736984 0.68322038651
0.68191868067 0.60249775648 0.4148915112
0.40736037493 0.71718502045 0.56430667639
0.5903186202 0.48830723763 0.6424549818
0.33827656507 0.55823850632 0.7570258975
0.091229699552 0.66437780857 0.73988687992
-0.17935313284 0.57722550631 0.7963835001
-0.18912054598 0.69529891014 0.69331938028
-0.70312082767 0.36359977722 0.61109614372
-0.60600525141 0.25302872062 0.75424838066
0.47476428747 0.34648242593 0.80853062868
0.32569313049 -0.55593430996 0.76432329416
0.18425826728 -0.72807532549 0.6604000926
0.40919968486 -0.7119385004 0.57066553831
0.25088042021 -0.86889761686 0.42672562599
-0.018728449941 -0.85645782948 0.51583737135
0.51611316204 -0.81001490355 0.27777728438
0.35330915451 0.013087906875 0.9354069829
0.44406461716 -0.071314305067 0.89308065176
0.64474523067 0.30424797535 0.70123916864
0.55376124382 0.17499524355 0.81403034925
0.41820120811 0.22760626674 0.87936061621
0.45400303602 0.086158044636 0.88682407141
-0.2426481992 0.88961654902 0.38598996401
0.71687477827 -0.59037446976 0.3694640696
-0.70937585831 -0.593326509 0.38000631332
-0.019828226417 -0.70527768135 0.70845335722
-0.19869814813 -0.72423881292 0.65969854593
-0.16941140592 -0.57761454582 0.79718112946
-0.35805034637 -0.56344717741 0.74372905493
0.7188783288 -0.42090940475 0.55324858427
0.5881152153 -0.63410753012 0.50189357996
-0.55326932669 -0.64485871792 0.52714544535
-0.50415223837 -0.81271797419 0.2920653224
-0.71877276897 -0.41753664613 0.55542969704
-0.458011657 0.78112852573 0.424231112
-0.25672891736 0.80243057013 0.53792130947
-0.099273063242 0.80035740137 0.59065043926
-0.064386449754 0.71597290039 0.69492411613
-0.064534783363 0.62827378511 0.77525991201
0.035304281861 0.78279983997 0.62012547255
-0.31973829865 0.69942003489 0.63876396418
-0.52268654108 -0.85213327408 -0.0080372802913
-0.26271909475 -0.95250087976 0.15258821845
-0.26201122999 -0.87351626158 0.40876233578
-0.0080215595663 -0.96334278584 0.26816174388
0.26582723856 -0.94987744093 -0.16488295794
0.52843075991 -0.84886068106 -0.019437316805
0.27077752352 -0.95216310024 0.14199578762
0.0030980282463 0.26076102257 0.96539789438
-0.051301691681 0.36664438248 0.92883324623
0.069579824805 0.36684063077 0.92757868767
0.037349633873 0.47807607055 0.87738931179
-0.061326656491 0.15313327312 0.98625093699
0.06119832769 0.15541802347 0.98595267534
-0.010693505406 0.047498382628 0.99877977371
-0.28453844786 -0.44936487079 0.84675872326
-0.41775158048 -0.41853260994 0.80641883612
-0.34657135606 -0.31513822079 0.8835464716
-0.19377735257 -0.33929914236 0.920388937
0.112818636 0.042829401791 0.99267089367
0.17535716295 0.13667978346 0.97496205568
-0.19195151329 0.33245527744 0.92326521873
-0.21842540801 0.47961178422 0.84987038374
-0.119257465 0.44053140283 0.88967138529
0.16025978327 0.42687040567 0.88979876041
-0.07602968812 0.53521615267 0.84129589796
0.03812219575 0.58234190941 0.81195324659
0.1832562983 0.52607023716 0.83021187782
-0.70385450125 -0.69150590897 -0.16183966398
-0.70143812895 -0.69850027561 0.14186917245
0.26916256547 -0.44050121307 0.85641914606
-0.22631773353 -0.13978530467 0.96401447058
-0.11477784067 -0.13191388547 0.984575212
-0.26360705495 -0.23997440934 0.9343367815
-0.15580554307 -0.23313127458 0.95989537239
-0.061698708683 -0.045946352184 0.99704873562
-0.083502858877 -0.43214288354 0.89774882793
-0.00014748657122 -0.1320694536 0.99117338657
0.044313892722 -0.044915642589 0.99803340435
0.34347108006 -0.31327691674 0.8855047822
0.40755990148 -0.41627520323 0.8126963973
0.30055260658 0.46120071411 0.83472234011
-0.37679988146 -0.70497274399 0.60083132982
-0.242124632 -0.80508518219 0.54167872667
-0.41315120459 -0.77490645647 0.47832277417
-0.069705553353 -0.54612076283 0.83487701416
-0.17480091751 -0.45956432819 0.87068402767

CELLS 304 1216
3 0 1 2
3 1 3 2
3 1 4 3
3 2 3 5
3 5 3 6
3 3 7 6
3 3 4 7
3 6 7 8
3 5 6 9
3 6 10 9
3 6 8 10
3 9 10 11
3 10 12 13
3 10 8 12
3 13 12 14
3 4 15 16
3 15 17 16
3 15 18 17
3 16 17 19
3 19 20 21
3 20 22 21
3 20 23 22
3 21 22 14
3 8 24 12
3 24 21 12
3 24 19 21
3 12 21 14
3 25 18 26
3 19 17 20
3 17 25 20
3 17 18 25
3 4 1 15
3 1 27 15
3 1 0 27
3 15 27 18
3 4 16 7
3 16 24 7
3 16 19 24
3 7 24 8
3 28 29 30
3 31 32 33
3 32 31 34
3 34 35 36
3 34 31 35
3 37 38 39
3 38 40 39
3 41 42 43
3 43 42 28
3 44 43 45
3 28 42 29
3 28 46 47
3 46 48 47
3 47 48 49
3 50 51 52
3 53 46 30
3 30 46 28
3 54 55 56
3 56 55 49
3 57 54 14
3 14 54 13
3 2 58 0
3 0 58 59
3 2 60 58
3 60 61 58
3 60 62 61
3 58 61 59
3 62 60 5
3 5 60 2
3 57 63 44
3 63 64 44
3 63 22 64
3 44 64 65
3 22 63 14
3 14 63 57
3 65 64 23
3 64 22 23
3 59 61 39
3 37 39 66
3 43 44 65
3 49 55 47
3 9 67 5
3 5 67 62
3 9 68 67
3 68 69 67
3 68 70 69
3 67 69 62
3 70 68 71
3 11 68 9
3 49 72 73
3 57 45 74
3 45 75 74
3 45 28 75
3 74 75 55
3 76 69 70
3 57 74 54
3 54 74 55
3 28 45 43
3 44 45 57
3 55 75 47
3 47 75 28
3 77 78 79
3 78 80 79
3 78 81 80
3 79 80 82
3 33 78 77
3 35 83 36
3 36 83 52
3 77 79 40
3 62 66 61
3 61 66 39
3 37 84 38
3 38 84 35
3 62 85 66
3 85 86 66
3 85 76 86
3 66 86 37
3 52 87 50
3 50 87 76
3 76 87 86
3 87 88 86
3 87 52 88
3 86 88 37
3 37 88 84
3 88 83 84
3 88 52 83
3 84 83 35
3 76 85 69
3 69 85 62
3 13 89 10
3 10 89 11
3 59 90 0
3 90 82 0
3 23 91 65
3 81 92 93
3 92 94 93
3 93 94 95
3 40 96 39
3 39 96 59
3 59 96 90
3 96 97 90
3 96 40 97
3 90 97 82
3 41 98 95
3 99 98 91
3 98 100 91
3 98 41 100
3 91 100 65
3 65 100 43
3 100 41 43
3 13 101 89
3 101 102 89
3 101 56 102
3 11 89 103
3 56 101 54
3 54 101 13
3 104 73 105
3 73 104 103
3 104 106 103
3 104 71 106
3 103 106 11
3 11 106 68
3 106 71 68
3 73 107 49
3 49 107 56
3 56 107 102
3 103 102 73
3 107 73 102
3 102 103 89
3 33 92 78
3 78 92 81
3 82 97 79
3 79 97 40
3 25 26 108
3 99 109 110
3 109 111 110
3 109 26 111
3 110 111 81
3 27 112 18
3 18 112 26
3 27 113 112
3 113 114 112
3 113 82 114
3 112 114 26
3 82 113 0
3 0 113 27
3 53 115 116
3 115 117 116
3 115 51 117
3 116 117 118
3 53 119 115
3 119 120 115
3 119 121 120
3 115 120 51
3 95 122 123
3 122 124 123
3 122 125 124
3 123 124 42
3 36 126 34
3 121 119 30
3 30 119 53
3 121 126 120
3 126 127 120
3 126 36 127
3 120 127 51
3 95 123 41
3 41 123 42
3 42 124 29
3 48 128 129
3 128 116 130
3 128 53 116
3 130 116 118
3 117 51 131
3 53 128 46
3 46 128 48
3 51 127 52
3 52 127 36
3 72 132 105
3 132 133 105
3 132 118 133
3 105 133 71
3 70 71 134
3 118 132 130
3 132 129 130
3 132 72 129
3 130 129 128
3 48 129 49
3 129 72 49
3 26 114 111
3 80 114 82
3 81 111 80
3 80 111 114
3 94 122 95
3 72 105 73
3 104 105 71
3 23 135 136
3 135 108 136
3 135 25 108
3 136 108 99
3 25 135 20
3 20 135 23
3 77 137 33
3 33 137 31
3 29 138 30
3 138 139 30
3 29 140 138
3 140 141 138
3 140 125 141
3 138 141 139
3 139 142 30
3 30 142 121
3 125 143 32
3 32 143 33
3 139 141 32
3 32 141 125
3 34 144 32
3 32 144 139
3 139 144 142
3 144 145 142
3 144 34 145
3 142 145 121
3 31 146 35
3 35 146 38
3 38 147 40
3 147 77 40
3 77 147 137
3 147 146 137
3 147 38 146
3 137 146 31
3 118 131 134
3 131 148 134
3 131 50 148
3 134 148 70
3 70 148 76
3 148 50 76
3 23 136 91
3 91 136 99
3 93 149 150
3 149 151 150
3 149 98 151
3 150 151 110
3 94 152 153
3 152 143 153
3 152 33 143
3 153 143 125
3 33 152 92
3 92 152 94
3 98 149 95
3 95 149 93
3 99 108 109
3 109 108 26
3 121 145 126
3 126 145 34
3 125 140 124
3 124 140 29
3 50 131 51
3 117 131 118
3 118 134 133
3 133 134 71
3 110 151 99
3 99 151 98
3 93 150 81
3 150 110 81
3 94 153 122
3 122 153 125

CELL_TYPES 304
5
5
5
5
5
5
5
5
5
5
5
5
5
5
5
5
5
5
5
5
5
5
5
5
5
5
5
5
5
5
5
5
5
5
5
5
5
5
5
5
5
5
5
5
5
5
5
5
5
5
5
5
5
5
5
5
5
5
5
5
5
5
5
5
5
5
5
5
5
5
5
5
5
5
5
5
5
5
5
5
5
5
5
5
5
5
5
5
5
5
5
5
5
5
5
5
5
5
5
5
5
5
5
5
5
5
5
5
5
5
5
5
5
5
5
5
5
5
5
5
5
5
5
5
5
5
5
5
5
5
5
5
5
5
5
5
5
5
5
5
5
5
5
5
5
5
5
5
5
5
5
5
5
5
5
5
5
5
5
5
5
5
5
5
5
5
5
5
5
5
5
5
5
5
5
5
5
5
5
5
5
5
5
5
5
5
5
5
5
5
5
5
5
5
5
5
5
5
5
5
5
5
5
5
5
5
5
5
5
5
5
5
5
5
5
5
5
5
5
5
5
5
5
5
5
5
5
5
5
5
5
5
5
5
5
5
5
5
5
5
5
5
5
5
5
5
5
5
5
5
5
5
5
5
5
5
5
5
5
5
5
5
5
5
5
5
5
5
5
5
5
5
5
5
5
5
5
5
5
5
5
5
5
5
5
5
5
5
5
5
5
5
5
5
5
5
5
5
5
5
5
5
5
5

CELL_DATA 304
SCALARS cell_data_0 double
LOOKUP_TABLE default
5.5449446947e-07
1.51412983862e-07
4.13885752452e-07
4.32530203145e-07
5.6748842242e-07
1.37524383982e-06
6.0366983237e-07
3.76371739941e-07
6.37134631498e-07
1.53232623333e-06
7.28490593476e-08
1.3628815021e-06
2.53039724336e-06
1.11788757502e-07
1.18718192378e-06
3.64330526393e-07
7.7043465195e-07
7.47523869261e-08
2.59697364057e-07
1.20858408075e-07
5.39918017397e-07
7.37535653421e-07
8.56475477306e-07
5.53012484321e-07
1.28904825385e-06
5.51509402165e-07
2.26208299246e-07
6.92261314539e-07
6.24050336775e-07
2.0645655163e-06
1.22971898925e-06
2.19400373047e-07
4.33010400065e-07
8.09187078965e-08
4.71178620572e-07
4.0239632489e-07
5.86587436152e-07
4.33395527926e-07
4.08416468382e-07
3.07464191609e-06
2.58063243786e-06
2.99174260427e-08
1.07838275065e-06
1.11970679684e-06
1.62761956322e-06
3.53571254853e-08
1.52319831123e-07
9.39542214516e-07
1.43564523496e-06
8.37439605043e-07
2.47564617696e-06
1.53894961993e-06
3.50430987837e-07
1.15588984702e-06
1.69796702806e-07
9.92678908999e-07
3.23396930764e-07
1.40337693413e-07
1.85186439571e-06
2.89368484368e-08
6.21493989002e-07
4.54503954948e-07
1.40106224835e-06
2.87497782817e-08
1.30103080464e-07
5.14536268623e-07
9.94545724338e-07
3.73022783809e-07
7.09058265344e-07
2.12016766939e-07
1.30398812253e-06
1.67558143625e-07
9.65586892721e-07
5.75565503917e-07
3.76960814601e-07
4.56514997812e-07
7.06941230647e-07
3.40267954976e-08
8.45358114716e-07
6.10272727014e-07
3.3290298697e-07
1.88534247398e-06
2.37441941279e-06
6.47571354461e-07
6.04119430155e-07
1.22006429127e-07
4.67404934175e-07
7.67276110272e-07
8.99020370081e-07
1.25716250333e-07
1.38721761458e-07
1.59720333946e-06
7.82117997896e-07
1.98277982398e-06
8.41363109179e-07
3.77830231334e-07
4.68048907652e-07
1.18789070699e-07
1.00496229971e-06
2.3024277411e-06
1.6291182996e-06
2.39270839695e-07
1.21972499837e-06
3.27760582651e-07
2.3901917239e-06
4.58464963644e-08
2.21951991643e-07
3.18295078476e-06
5.61522688005e-07
2.10534608962e-06
1.08995314158e-06
1.67243699616e-07
6.14041615159e-07
2.28806187571e-07
4.99928387243e-07
2.67899673156e-07
1.65463740166e-07
3.95428022657e-07
5.23951952506e-07
3.23720726587e-07
2.77662542891e-07
2.41319769065e-07
4.18875781856e-07
1.49714352716e-07
8.07369146751e-07
6.35590810283e-07
5.20500201046e-07
2.04818899788e-07
1.52715124645e-06
1.78475601648e-06
3.00373921531e-08
1.13276156214e-06
2.15672705455e-06
4.65058152389e-07
9.46815377371e-08
2.34277285282e-07
5.04489009302e-07
6.77958203365e-07
5.72842705728e-07
5.12833430758e-07
1.61300916547e-07
9.41945455632e-07
1.93178464038e-06
1.33716497743e-07
5.09340138889e-07
1.94897780124e-07
1.2317031765e-06
6.48301644802e-07
1.00461699009e-06
1.02575094773e-06
5.85680311521e-08
1.27589267343e-06
3.88097356626e-07
3.23953186001e-07
8.76045657793e-07
3.65047026916e-07
5.90329222604e-07
1.3917793332e-07
1.12442619997e-06
1.62451423047e-06
1.47142802902e-06
1.95238856212e-06
5.07322129811e-07
4.39412930871e-07
1.13653695795e-07
2.49675616879e-07
5.36834367336e-07
2.82017131621e-08
3.48647548913e-07
2.80483538776e-07
5.00815085136e-07
8.05152987552e-07
2.2968411477e-06
4.0054170147e-07
2.12316703587e-07
1.47596779835e-06
1.27785311761e-07
4.74382268928e-07
7.33956917028e-07
8.12434386263e-07
1.01627597525e-06
4.74856552493e-07
6.4154694992e-07
1.71021231983e-06
8.45735969435e-07
5.07028318832e-07
2.39011759803e-07
4.96836350297e-08
4.97730207104e-08
1.34000323771e-06
3.14312730087e-07
1.26063332988e-06
7.07221483369e-07
4.72413511978e-07
5.81451942823e-07
1.09171607845e-06
4.9157098169e-07
7.46830324927e-07
2.70487766886e-06
5.40691241889e-07
2.86028558339e-07
3.26866936806e-07
1.22744226076e-06
8.23689230266e-08
2.63505970395e-07
5.74610053172e-07
8.17328933888e-07
1.60474385874e-07
1.87985970635e-07
4.68626412925e-07
3.80064881756e-07
4.7453869962e-08
1.19771206434e-07
9.79581417075e-07
1.76071462098e-08
4.51580587933e-08
3.6369022654e-07
3.44995451752e-07
1.2981366953e-07
3.44152073187e-07
3.82504293764e-07
1.41107347695e-07
8.6974649196e-08
8.42897488139e-08
3.47868572973e-07
7.77738305729e-08
1.88430929407e-07
6.16061779839e-07
6.67338289865e-07
7.05942690401e-08
1.37527771498e-06
5.66893804659e-08
2.53157775604e-07
4.61811253591e-08
2.52384696228e-07
5.71694760715e-07
1.87054129668e-06
4.38060281691e-08
5.57126442655e-07
4.67929055144e-07
2.05505976105e-07
1.93640061238e-07
2.15263212482e-06
2.12294298888e-07
2.45745771396e-07
1.02546421734e-06
4.5537400491e-07
4.16220133312e-07
5.00328911602e-07
1.31817971765e-06
9.52209881089e-07
9.93038235135e-07
1.37814446113e-07
1.46836927052e-07
9.98421189268e-07
1.44859556782e-06
1.03122363818e-06
3.89093823678e-07
6.78388105145e-07
6.93980668313e-07
1.43480267662e-07
6.60343340833e-08
1.13828876249e-06
2.53136445719e-07
9.14636929617e-07
1.078783336e-06
2.87928842506e-07
7.80978147205e-07
1.79284219394e-07
5.08987600772e-07
2.94888070821e-07
8.729393018e-07
2.85976119402e-07
9.00896801481e-08
8.57995460465e-07
3.32640632401e-07
1.64227345488e-07
6.17588516762e-07
5.87820946937e-08
6.95676786278e-08
3.58228074568e-07
5.16437102152e-07
9.02739739884e-07
2.9005423025e-07
1.01853531208e-06
8.93489500148e-07
3.62250412664e-07
2.29827453577e-08
2.27596069465e-07
5.24875587881e-07
4.98592090601e-07
7.35195864026e-07
3.05701232528e-07
3.64117601182e-07
2.27595582965e-07
3.35939501955e-07
8.69202641577e-07
6.0819344974e-07
3.44225936177e-07
1.47887606608e-07
1.01895342713e-07
4.01638485782e-07
1.93198838727e-07
5.03953352681e-07

