# vtk DataFile Version 3.0
File Name: Molecule/sphere_excent/sphere_excent_0-s20.vtk
ASCII
DATASET UNSTRUCTURED_GRID
FIELD FieldData 1
TIME 1 1 double
0.0
POINTS 450 double
-0.0064790528268 0.014256481081 -0.9984318018
-0.47691097856 -0.0080214515328 -0.87777137756
-0.29210618138 0.46105667949 -0.83514732122
-0.45635065436 0.3853610456 0.80162996054
-0.33238059282 0.37647846341 0.86470884085
-0.3770493269 0.53315526247 0.75733852386
-0.47725981474 0.65776056051 0.58266711235
-0.52646547556 0.50211894512 0.68578195572
0.9609208703 0.12010063976 0.24859012663
0.91375434399 0.019326416776 0.4053851068
0.96511399746 -0.12049499899 0.23107746243
-0.21421678364 0.59973871708 0.77101260424
-0.32134777308 0.67114788294 0.66802668571
0.13213931024 -0.76865160465 0.62570428848
-0.022433614358 -0.8649302721 0.50130975246
0.24018616974 -0.87735134363 0.41539600492
0.43257462978 -0.74079763889 0.51390308142
0.50026476383 -0.80371671915 0.3214699924
0.62245899439 0.33867239952 0.70525300503
0.49176207185 0.36716553569 0.78931295872
0.5557461977 0.2136194855 0.8028819561
0.43016320467 0.22985580564 0.87297427654
0.46466884017 0.091198273003 0.88074058294
0.33799979091 0.14400970936 0.9297747612
0.58612215519 -0.010753830895 0.81009882689
0.47377064824 -0.046987723559 0.87933444977
0.36152890325 0.0051050516777 0.93230873346
0.58396929502 0.48373562098 0.65191453695
-0.21407352388 -0.71659350395 0.66265726089
-0.19896537066 -0.59859734774 0.77589780092
-0.35457235575 -0.57914882898 0.73400908709
0.71087682247 -0.61211711168 0.34608152509
0.59308588505 -0.63155353069 0.49787127972
-0.5099645257 -0.81114244461 0.28608468175
-0.56368213892 -0.64451479912 0.51606154442
-0.69378352165 -0.62702977657 0.35375574231
-0.71539241076 -0.47049406171 0.51621836424
-0.51224833727 0.82599210739 0.23464985192
-0.45337605476 0.77905082703 0.43293187022
-0.27458611131 0.88413029909 0.37728115916
-0.29547140002 0.78677070141 0.54186451435
-0.64038944244 0.63691222668 0.42824393511
-0.039445243776 0.72822993994 0.68417346478
-0.18107448518 0.71108335257 0.67937391996
-0.068896889687 0.63878017664 0.76627290249
-0.11023841053 0.79914826155 0.59088009596
0.069544717669 0.78135979176 0.62011575699
0.090029597282 0.66250044107 0.7435914278
-0.26286846399 -0.94981235266 0.16900059581
-0.23729710281 -0.89446598291 0.37889966369
0.0023709968664 -0.96414333582 0.26527887583
-0.027899824083 -0.99897533655 -0.022536085919
0.4896453023 -0.77894413471 -0.38942191005
0.50228536129 -0.86051017046 -0.078166857362
0.29346829653 -0.93690150976 -0.1839184016
0.27564641833 -0.95248311758 0.12906265259
-0.11635705084 0.25986602902 0.95859110355
0.011173012666 0.26525110006 0.96412926912
-0.052458573133 0.3538544178 0.93382698298
0.065755411983 0.35784927011 0.93146049976
0.13398601115 0.26474690437 0.95493274927
0.032767318189 0.46605059505 0.88414275646
-0.054473463446 0.18472965062 0.98127943277
0.056101869792 0.17271529138 0.98334765434
-0.29293948412 -0.47613993287 0.82847625017
-0.41867771745 -0.42152994871 0.80434638262
-0.35024791956 -0.31819212437 0.88070684671
-0.45614519715 -0.24963708222 0.85416072607
0.16691441834 0.14379797876 0.97530084848
-0.35391050577 -0.18849636614 0.91607314348
-0.20549108088 0.33885526657 0.91812574863
-0.23065318167 0.47721734643 0.84796220064
-0.11380831897 0.4389796257 0.89125984907
0.17657084763 0.40701851249 0.89614927769
-0.22207574546 0.20503690839 0.95315551758
-0.3173635602 0.24107661843 0.91706758738
-0.090396359563 0.54015856981 0.83666604757
0.034267656505 0.57316327095 0.81871551275
-0.87059044838 -0.49152174592 -0.022812427953
-0.73976236582 -0.6604116559 -0.12788546085
-0.69139844179 -0.71416461468 0.10925010592
-0.49384319782 -0.86808592081 0.049338821322
-0.2618753016 -0.2549700737 0.93077152967
-0.23865947127 -0.1563308686 0.95843422413
-0.16319973767 -0.24228438735 0.95635741949
-0.1802598089 -0.35872635245 0.91546487808
-0.13680271804 -0.1321863085 0.98172795773
-0.064391948283 -0.44061073661 0.89536356926
-0.058023631573 -0.31545370817 0.94711625576
0.016615828499 -0.13142134249 0.99119180441
0.030990023166 -0.056262578815 0.9979249835
-0.046023610979 -0.056441504508 0.99731630087
0.0039261691272 0.024118887261 0.99960821867
0.48948675394 -0.28078296781 0.8255662322
0.42222964764 -0.41798204184 0.80420285463
0.58781468868 -0.33602997661 0.7350615859
0.32718873024 -0.54269009829 0.77359640598
0.28964233398 -0.45381116867 0.84247964621
0.3714466393 -0.30988922715 0.87484359741
0.16316501796 0.53003466129 0.83211570978
0.27776268125 0.4502530694 0.8482247591
0.29914900661 0.34270638227 0.88999462128
0.23617435992 0.60977196693 0.7565382719
0.31794238091 0.51405888796 0.79631924629
-0.3684643805 -0.70708614588 0.60353642702
-0.24746567011 -0.80935335159 0.53263473511
-0.40528747439 -0.7849958539 0.46851220727
-0.052665572613 -0.57877755165 0.81370043755
-0.16677901149 -0.48980769515 0.85571306944
0.062268424779 -0.51652991772 0.85398894548
0.097818531096 -0.63769358397 0.76403981447
-0.017789300531 -0.69961076975 0.71357762814
-0.11655268073 -0.71077412367 0.69294786453
-0.027483316138 0.99946808815 -0.00079550570808
-0.22402693331 0.9584851265 -0.17554967105
-0.29927206039 0.95148843527 0.062423720956
-0.5717510581 0.81949871778 0.0071879057214
-0.71361601353 0.64988619089 0.25791782141
-0.52769047022 0.047006398439 0.84800767899
-0.44036790729 -0.090496055782 0.89324229956
-0.38699775934 0.022716134787 0.92176890373
-0.31977197528 -0.075296111405 0.94449388981
-0.27025485039 0.019416797906 0.96258670092
0.11737711728 -0.33760467172 0.93392515182
0.039926990867 -0.39774957299 0.91661208868
0.13392265141 -0.43992358446 0.88792294264
-0.42096015811 0.14012473822 0.89617192745
-0.5098939538 0.19677643478 0.83741503954
-0.42217946053 0.27090921998 0.86489975452
-0.53467947245 0.3044590354 0.78832393885
-0.31203344464 0.11935304105 0.94251787663
0.6246984005 0.69884949923 0.34837555885
0.56889337301 0.67447006702 0.47049108148
0.69212549925 0.59371930361 0.41037732363
0.23999689519 -0.6528493166 0.71846067905
0.37353929877 -0.64039510489 0.67107117176
0.29202637076 -0.74377655983 0.60113805532
0.19464986026 -0.54377782345 0.8163485527
0.45083382726 -0.52502459288 0.72176247835
0.49631440639 -0.60817760229 0.61912018061
0.5620393157 -0.43418163061 0.70289081335
0.59180307388 -0.53075695038 0.6065415144
-0.039734762162 0.10023458302 0.99415099621
-0.083916895092 0.025903027505 0.99612212181
-0.12386571616 0.095136709511 0.98771554232
-0.21124836802 -0.062276214361 0.97542709112
0.26065376401 0.87268733978 -0.41267329454
0.022037120536 0.9599608779 -0.27910208702
0.24716021121 0.94657766819 -0.2062099427
-0.0061974842101 0.83329445124 -0.55253118277
-0.0086615737528 -0.84149217606 -0.53646707535
-0.24432568252 -0.94098877907 -0.2330300957
-0.44290190935 -0.81015491486 -0.38282346725
-0.25191962719 -0.47465148568 -0.84227305651
-0.57490926981 -0.41755628586 -0.70341777802
-0.40116658807 -0.67329508066 -0.62082624435
-0.63966107368 -0.5921459794 -0.48999762535
-0.805996418 -0.30496391654 -0.50709956884
-0.62181758881 -0.20323972404 0.7562918067
-0.5499830842 -0.12425298989 0.82588273287
-0.63744181395 -0.086338967085 0.76552081108
0.81464749575 0.076446339488 0.5747435689
0.72584867477 -0.022836690769 0.68746954203
0.79757463932 -0.099551513791 0.59483218193
0.7164902091 0.12735770643 0.68541413546
0.71326696873 -0.21068519354 0.66765576601
-0.80448555946 -0.55739414692 0.20514689386
-0.88851541281 -0.39299091697 0.23653127253
-0.80273205042 -0.47024172544 0.36685350537
-0.84069138765 -0.31063258648 0.44238123298
-0.46494930983 -0.86927825212 -0.16769483685
-0.30108803511 -0.95289671421 -0.036083064973
-0.61469727755 -0.78441995382 -0.08251914382
-0.62487566471 -0.72947496176 -0.27813088894
-0.77994728088 -0.5403444171 -0.31556332111
-0.17488627136 0.023698711768 0.98429954052
-0.12867702544 -0.041674017906 0.99081003666
-0.20635814965 0.88456559181 -0.41745704412
-0.14642444253 0.17075096071 0.97436845303
-0.21392287314 0.10377550125 0.97131854296
0.87424176931 0.48471280932 -0.021503219381
0.8626267314 0.42854273319 -0.26844161749
0.72080981731 0.67308360338 -0.16510513425
0.68741983175 0.57404744625 -0.44473323226
0.80317622423 0.28466382623 -0.52155143023
0.53009337187 0.77730572224 -0.33861687779
0.60271525383 0.40249544382 -0.68785065413
0.43160048127 0.69916641712 -0.56852126122
0.79750579596 0.59219944477 0.11457288265
0.53797990084 0.8395652771 -0.075002118945
0.66157466173 0.74616587162 0.073569230735
0.45141625404 0.88101327419 0.14038492739
0.22720405459 0.96698242426 0.11433847994
0.25770863891 0.92008519173 0.29448586702
0.044682517648 0.9704426527 0.23709657788
0.10220762342 0.90453183651 0.41354349256
-0.89512008429 -0.36529007554 -0.25564035773
-0.93834972382 -0.13367503881 -0.31864622235
-0.96583092213 -0.24202366173 -0.0928998366
-0.9918795228 0.014454673044 -0.12652669847
0.55733406544 -0.13955722749 0.81846016645
0.64765012264 -0.12177288532 0.75216478109
0.60818231106 -0.23977655172 0.75651913881
-0.94741046429 0.15637421608 0.27793478966
-0.97264558077 -0.010060945526 0.23197831213
-0.89193361998 -0.001898302231 0.45045295358
-0.99448275566 0.079939059913 0.068053878844
-0.99219912291 -0.10576979816 0.066191896796
-0.95424264669 -0.18701831996 0.23235683143
-0.94929158688 -0.30071413517 0.091749817133
0.67855244875 -0.71273058653 0.17597641051
0.5396450758 -0.83315056562 0.12044632435
0.70093601942 -0.71307468414 -0.0083310808986
0.79842048883 -0.57899171114 0.1654381603
0.72321867943 -0.65556913614 -0.21053805947
0.57507705688 0.78282338381 0.23765480518
0.71354752779 0.6597096324 0.23520675302
0.42578604817 0.84719985723 0.31765720248
0.52541798353 0.76566064358 0.37112703919
0.42637485266 0.77823090553 0.46096721292
0.28042349219 0.85690110922 0.43237215281
0.40410643816 0.88781017065 -0.22022989392
0.35833522677 0.93309360743 -0.030747773126
0.16035683453 0.98454457521 -0.069847509265
-0.70325833559 -0.13426798582 -0.69821339846
-0.70130127668 0.14317363501 -0.69828605652
[...]
CELL_DATA 896
SCALARS cell_data_0 double
LOOKUP_TABLE default
7.29622717116e-07
1.74611457575e-07
2.3669467159e-07
8.18380397251e-08
5.41405883e-08
1.60975319742e-07
5.62783903116e-07
1.05639301719e-07
5.7016888422e-08
3.61614250825e-07
1.60441455893e-07
1.62169041335e-07
4.13317788628e-07
1.35299425338e-08
4.38094390101e-07
1.51896094872e-09
5.55048975365e-07
5.00305973238e-07
2.03708336635e-07
1.0362438656e-07
1.67704973435e-07
1.46256918104e-07
1.17417729111e-07
2.69121085727e-08
2.61674589745e-07
6.73155012208e-08
1.41998522123e-07
3.77207434285e-08
3.24863897699e-08
1.78284493976e-07
1.4049643006e-07
1.73723079566e-07
2.25439749554e-07
4.59156179373e-09
1.28405333907e-07
4.14814528549e-07
2.11571160713e-07
2.820770686e-07
2.40680197857e-07
1.22998026534e-08
1.16187973089e-07
9.91531770921e-08
9.4395978015e-08
1.57978618332e-08
2.92860500769e-08
5.58370862097e-08
1.89741673609e-07
1.47614087588e-07
3.13902433174e-07
4.70494630194e-07
3.7866285515e-07
2.0767227743e-07
2.85458893208e-07
4.83105771757e-07
4.58763798732e-09
1.64360034566e-07
2.68797256088e-07
6.75153226877e-08
2.65665245326e-07
8.65478846998e-08
8.10416811441e-08
4.82971587786e-08
1.04651103189e-07
5.33200029113e-07
2.80121441272e-07
1.89088811452e-07
2.48986950414e-07
3.37389852137e-07
1.0791310829e-07
4.19579979765e-07
3.80635514699e-07
1.09505665303e-08
4.77198860697e-08
4.54735062865e-08
4.34818066601e-08
1.44505543496e-07
2.29982193701e-07
2.29498810921e-07
1.595360926e-07
3.35670432434e-07
1.07344795232e-08
1.29947715637e-07
8.32623957393e-08
3.80086764099e-07
6.92125020981e-08
8.60625324742e-08
5.1909116702e-07
2.30319046153e-07
6.17552252712e-09
2.50337680648e-07
3.25063276895e-07
1.33036236307e-07
2.31820714534e-07
2.59666176425e-07
1.99788917894e-07
2.58025366906e-07
2.5463027671e-07
2.04132915888e-07
1.70715979996e-07
1.50331279713e-07
2.00013600009e-07
1.62619175417e-07
7.70718290985e-08
8.12440425768e-08
5.56736549773e-07
1.73209980389e-07
2.28079645901e-07
4.19400628418e-09
2.31293709859e-07
2.03010794182e-07
2.48389420285e-07
9.14807358956e-08
3.58909392492e-07
1.68503132812e-07
1.62040707806e-07
1.24113243915e-07
1.96569259649e-07
1.4323672783e-07
1.47420583017e-07
1.91372345753e-09
2.49389704305e-08
1.11193570208e-07
8.79293074224e-08
6.72373874913e-08
2.22467671079e-08
1.13597853094e-07
2.34592819889e-07
6.46942056617e-08
4.63646064135e-08
1.55218406068e-07
5.94591182964e-08
1.36117159774e-07
8.36710831337e-08
6.98518593345e-08
4.51515275389e-08
2.59595123785e-08
8.58055648038e-08
8.78932159893e-08
7.18384694016e-08
2.14413705056e-07
1.13696834939e-07
6.00041949813e-08
6.54815514796e-08
1.913191943e-07
1.1524082637e-07
8.72752431068e-09
5.21166433435e-09
2.17127303332e-07
4.7691209478e-07
1.68826950435e-07
8.70500719491e-08
8.22006008871e-09
3.98367409374e-07
1.54755572215e-07
2.01955653804e-07
1.27454338821e-07
1.2233073216e-07
1.53419694499e-08
2.77627144454e-09
3.89415686819e-07
4.27619798211e-08
1.8126548153e-07
3.83221846561e-08
6.26792601014e-08
2.60639440796e-07
3.61759783068e-08
2.18543834331e-07
7.34730752019e-07
7.27336535694e-07
2.56861076569e-07
1.16534333647e-07
2.41462586847e-07
1.05842149019e-08
6.1416073305e-07
1.33198985483e-07
5.90279629027e-08
3.81787610868e-09
2.47074480882e-07
9.9134108774e-09
6.84852404954e-08
2.64951295533e-08
4.29887528382e-08
9.50404316451e-09
1.10686011805e-07
3.80235168055e-07
6.72827733992e-08
3.66509405458e-09
2.13558728553e-07
2.14337440166e-07
1.21626094629e-07
2.13727896302e-09
1.97319770305e-07
1.59013607016e-07
3.81854803899e-08
3.72220394368e-08
9.98770049684e-08
3.80663925801e-08
1.68210687497e-07
8.58383950865e-08
1.6522401678e-07
5.34235008646e-08
1.6759219497e-08
9.97853140063e-08
6.40474183483e-08
6.45248353071e-08
1.22690938069e-07
2.40436612553e-07
7.24441314788e-08
1.46837133392e-08
3.00875678788e-08
5.17500378822e-08
4.41714026858e-07
2.03317714555e-07
1.84857437035e-07
7.51425003923e-08
3.83396997958e-08
5.1703688935e-08
2.83651519755e-08
1.53770895031e-07
1.52804610493e-07
1.17847632661e-07
8.18649434008e-08
1.51061107461e-07
2.60175166421e-07
2.65453551469e-07
2.11969973997e-07
3.14993217627e-07
7.76310035262e-08
8.26930936235e-08
1.93807870897e-08
1.34222634396e-07
2.04600634243e-07
7.9566031813e-08
8.41759228e-08
1.82150888333e-07
1.69055120105e-07
2.33012184051e-07
1.46678372524e-07
1.82944142642e-07
3.16613635527e-07
1.00435294855e-07
3.05524932012e-08
2.24726163927e-07
8.82024193317e-09
8.0601135788e-08
2.51390878334e-07
6.69698719423e-08
3.91612970899e-07
1.82766383605e-07
2.72219630769e-07
6.06972665779e-08
1.75802929824e-08
2.07729771347e-08
4.83162713163e-08
4.60534711031e-08
4.32275644276e-08
1.39098825166e-07
9.67170798679e-08
2.20988635114e-08
2.74750880347e-07
3.45886495677e-08
3.39504403941e-08
3.12888957673e-07
4.35472137807e-08
7.36180968976e-08
5.32483031522e-08
1.44200775182e-07
5.85855475355e-08
2.42175570498e-08
7.77128554541e-08
1.22148574004e-07
7.95554915043e-08
9.46202971419e-08
9.39200055728e-08
1.63052351226e-08
6.84873683699e-08
8.64072561309e-08
6.22675148707e-08
1.13390476074e-07
1.25631086102e-07
1.29660990242e-07
2.01148211064e-07
3.31045806121e-08
8.22356935373e-10
3.012363307e-08
1.01146584188e-07
1.10274341092e-07
2.02852892484e-08
7.08155367818e-09
7.65999177541e-08
9.04818330743e-08
6.27381639342e-08
3.37216490146e-08
8.53311638512e-10
1.49728124459e-09
2.70847753311e-08
3.97598241515e-07
2.77160390439e-07
5.58053921041e-08
6.66146705267e-08
3.77005837597e-07
9.80514305331e-09
1.13891989244e-08
6.63888722858e-08
1.02258257306e-07
6.86191066216e-09
1.53092306504e-07
7.25674271542e-08
2.20177297624e-07
6.49702826104e-08
1.46297343043e-07
2.261332556e-07
6.2406567844e-09
1.81150045575e-07
1.30522919848e-07
2.13914357454e-07
3.01998366725e-08
5.93723869319e-08
2.11084272141e-08
3.11478408972e-08
1.01472946006e-07
3.04295099219e-07
1.79630451505e-07
1.45720473528e-07
5.52039026451e-08
1.32293859484e-07
1.8306221645e-07
1.01555580585e-07
1.42617926967e-07
2.6441767798e-08
1.98318934561e-08
2.24633425447e-07
4.45658531138e-08
1.12009770287e-07
1.87787126528e-07
1.28512825111e-07
2.2896741739e-08
7.24168541897e-08
1.74749903984e-08
1.2133470867e-07
3.18098288586e-08
1.04483498035e-07
4.65273021703e-08
2.38006675749e-07
1.48553941128e-07
2.44850368845e-08
2.38350964555e-08
4.13690260284e-08
2.02896227583e-07
1.01399417202e-07
2.16204740389e-08
1.47680167325e-07
2.24242974613e-07
9.14990094369e-08
1.73184012986e-07
6.93535513459e-08
2.71859503804e-09
6.9265193647e-08
1.59601409002e-07
1.9912327986e-07
1.31813708897e-07
1.43126205017e-07
1.45149470789e-07
8.07945116799e-08
1.47742452019e-07
1.07977097358e-07
3.30789015533e-08
6.92429458281e-08
4.00846349957e-08
1.80571667178e-07
1.31471353378e-07
2.05585298458e-07
2.59852552246e-07
2.6700902853e-07
1.30344472493e-07
8.63285952647e-08
8.40450671424e-08
8.69173595478e-08
9.62775124755e-08
7.72634758146e-08
3.45892803749e-08
1.04667083242e-07
1.11249110756e-08
1.39140655206e-07
4.34271171716e-07
2.08923656153e-08
8.32141851737e-08
1.88586691153e-07
1.32470001991e-07
7.22793910784e-08
1.05538333891e-07
1.09775759858e-07
1.37092227807e-07
5.72321762739e-08
5.80000720941e-08
1.59177985259e-07
1.07247402683e-09
5.08192504238e-08
7.06707836716e-09
1.34751827693e-07
1.38617673294e-07
8.1010793614e-08
6.78671040097e-08
1.99261452363e-07
2.71398976258e-08
2.68720039025e-08
1.09929940223e-07
3.08378827907e-07
1.03020200465e-07
2.18202421498e-07
1.19584878298e-07
2.98337028088e-08
2.47703303588e-08
2.42801264514e-08
5.54255404769e-08
2.46265161661e-07
1.84911973645e-07
1.42196943379e-07
5.17248669873e-08
2.16831626173e-07
1.03742397543e-07
2.80794804009e-08
5.20079246736e-08
3.2811885671e-08
1.75218681324e-07
7.89135158289e-09
1.4935750067e-08
7.76906245265e-08
3.21989517088e-09
9.69969882446e-08
2.85217190885e-07
1.66445944623e-07
2.48046914612e-07
1.0935697842e-07
2.46510017852e-07
1.90224862184e-07
4.57366440105e-08
2.48329301111e-08
1.2025405126e-07
5.09620321517e-08
6.10449423753e-08
5.06172618273e-08
1.14566181984e-07
5.35964617784e-08
2.36900268817e-07
1.96744156989e-08
1.24941864634e-07
8.42605006051e-08
3.26350940654e-07
2.93777274381e-07
4.37392626947e-07
2.57513848294e-07
2.40711225858e-07
7.6668499155e-08
1.15508140157e-07
1.55108745113e-07
1.3085322503e-07
1.01299885806e-07
6.66844888148e-09
4.52114997245e-08
1.94735250834e-08
1.11854000828e-07
1.03142408191e-07
6.54586024159e-08
1.74075653957e-07
5.07412021315e-09
5.40316539009e-08
1.05043288114e-07
2.98913378838e-08
4.77693148323e-08
4.98834680794e-08
9.85130006945e-09
2.74779679354e-08
4.65088891271e-08
1.20409662781e-07
8.75721074345e-08
1.54823169365e-07
2.98313279932e-08
3.57478927741e-08
2.05026912684e-08
4.91964358633e-09
1.85948635281e-07
3.21249906567e-07
2.02610722133e-07
1.60837601619e-07
6.13094042473e-08
8.7219407774e-08
6.2664905184e-08
9.10074297373e-08
9.78177295214e-08
6.27456194599e-08
1.48345883255e-07
9.64324625781e-08
4.97379801068e-07
1.30383211028e-09
2.29459642319e-08
1.34388938269e-07
2.50965310034e-08
8.1213429247e-08
1.21266524839e-08
5.3823206238e-08
8.43408731206e-09
2.04323937478e-07
6.56342466741e-08
3.11334804651e-08
9.42651377937e-08
2.81589290287e-07
1.13056970965e-07
4.5733994978e-08
1.32313873786e-07
6.17597271992e-08
7.26318564189e-08
2.56959754058e-07
2.99767087265e-07
2.2742875753e-08
1.01592143968e-07
2.5489567256e-09
1.97146116277e-07
7.78644895367e-08
2.80953915622e-08
4.86452537914e-08
2.30667758654e-08
2.82762884229e-08
4.1218196605e-08
7.25654291147e-08
6.91235138928e-08
8.22219961633e-08
3.67991222895e-07
6.80190739444e-08
1.1053910607e-07
1.81416565199e-07
1.24888631266e-07
1.05531626462e-07
3.3025915874e-08
1.65792540593e-08
1.877603461e-08
4.00609967718e-08
5.32689758098e-10
3.60628880762e-08
7.43348436975e-08
5.57124649592e-08
1.10540508839e-07
7.96503904812e-08
1.4491690461e-08
1.21291557411e-07
9.42773595023e-08
6.5979450999e-08
1.3277541314e-07
1.09212570189e-08
2.4131132697e-08
1.30164356912e-07
9.31342164312e-10
1.66854397649e-08
1.6162947464e-07
1.50887481873e-07
8.11220066429e-08
1.84189462507e-07
6.73563630898e-09
1.74480978416e-08
7.43546025265e-08
3.36098637762e-07
1.67999394139e-08
6.65292489474e-08
2.45065961117e-08
6.67218947403e-08
5.76740625956e-08
5.69967075022e-08
8.71601432195e-09
1.02395856869e-08
2.51958857898e-08
3.14184834546e-08
1.45940167613e-08
1.40634587981e-08
4.72216299151e-08
4.90840807583e-08
2.28164063157e-08
6.58027268755e-08
3.37923383498e-08
8.14736622264e-08
1.29997689912e-08
1.52699725539e-08
4.74845102607e-08
1.68799812447e-07
6.55173759873e-08
2.40414199977e-08
5.72397158194e-08
1.36134378557e-07
8.24054060168e-09
7.58287942451e-08
1.06368828581e-07
7.75549648605e-08
7.51292382206e-08
9.53609521675e-08
4.37905853635e-07
5.12486769057e-08
8.85300039896e-08
4.18072421545e-07
8.56309185369e-08
1.65292164983e-07
2.5071304819e-08
6.73158850242e-08
9.09842783871e-08
8.77465502537e-08
4.46265384225e-08
2.90381199064e-08
4.61251340562e-09
7.89300176871e-08
3.62818023431e-08
2.33415728663e-08
1.50931146923e-07
3.67266020856e-08
1.25052343582e-07
1.01752541864e-07
1.17718037917e-07
1.42119956782e-07
2.33737603499e-08
3.89286323405e-08
1.43198224271e-07
1.6036594884e-07
4.16684286595e-08
2.18816905957e-08
3.41695617504e-08
1.29829306571e-08
5.52667015862e-09
4.22384706755e-07
1.94264109191e-07
2.15678598937e-07
6.47645516532e-08
1.14495950343e-07
2.57288060261e-08
1.49819857635e-07
1.28904904735e-07
2.87963088194e-08
7.18036963018e-08
1.52777387235e-07
1.10753630413e-07
9.74836810418e-08
2.1721697161e-07
5.5525733437e-08
1.2700922496e-07
3.04049472725e-08
6.12380204592e-08
9.55802505568e-08
2.13096326121e-08
1.3531319183e-07
7.93633615235e-09
4.11958268463e-08
4.15892685206e-08
2.13882898024e-09
3.61158292725e-08
1.01731689317e-07
1.00016478146e-07
1.0394510644e-07
1.78359919002e-07
1.18136725187e-07
2.77283016981e-08
9.05879516411e-08
1.62553175965e-07
3.44460121765e-08
6.2408415183e-08
9.77071426801e-08
2.37051275747e-08
1.35059369805e-09
9.31686972601e-08
3.83541933594e-08
5.75952580696e-11
1.08229653419e-07
4.30129876357e-09
1.14530362261e-07
2.3161005536e-08
3.94931830199e-08
8.33467677385e-08
5.38702350367e-08
1.25677131936e-07
6.74285462373e-09
3.44186744219e-08
1.66653767309e-07
8.81389069885e-08
4.23822471084e-08
6.14825425089e-08
6.24098935051e-08
4.35349665782e-08
3.28252438181e-08
6.24181593056e-08
1.79746828262e-08
7.27845295978e-08
3.24324090076e-08
9.03395037726e-08
1.29025208007e-08
3.44827140993e-08
7.06191660205e-08
6.10638994427e-08
9.32861882749e-08
1.22962267205e-07
4.88542122859e-08
2.07723592241e-08
2.9741287264e-08
3.76891201995e-08
7.27927632615e-08
3.04904005954e-07
7.28813775298e-08
1.77017643238e-07
1.30197607532e-07
4.52093873405e-09
5.08915609968e-08
5.99296977865e-08
1.71136831566e-07
3.17320133951e-08
2.18593392671e-08
1.13011301628e-07
5.67020265892e-08
4.00472392054e-08
4.8656271445e-08
1.38740805687e-07
4.98943789497e-08
4.54630333129e-08
3.02757986646e-08
6.54974533434e-09
2.65829454083e-07
1.8515857592e-07
1.11124197239e-07
1.74591711499e-07
1.0568652789e-07
2.05987700571e-08
4.98839239815e-08
5.48744204168e-08
3.45163414691e-08
1.14957691807e-07
5.855417434e-08
1.11435289635e-07
1.21512776955e-07
1.17895211859e-07
3.90675319897e-08
2.58820106834e-07
2.59127318256e-07
9.89835645537e-08
4.13427301734e-07
2.50270402642e-07
7.85801376945e-08
1.2805328009e-07
5.75559250292e-08
2.05302774255e-07
6.82905243269e-08
2.13899579509e-08
3.43896505558e-07
8.51169723585e-08
1.24691116068e-07
1.81282156529e-07
1.30238114613e-07
2.8894854544e-07
4.0822505614e-08
4.46893975182e-07
6.8450580703e-08
5.16657151389e-08
1.91598942122e-07
4.9573356533e-09
2.88327540462e-07
2.16134376727e-07
7.0509867797e-09
2.18702528665e-07
4.12679999058e-07
5.08439471109e-07
3.25572994893e-08
3.97564886933e-07
5.77502099264e-08
3.67094557175e-09
1.22878911704e-08
2.03846300729e-07
7.09446416865e-08
3.56719548042e-07
1.06630959216e-07
1.90196306814e-07
2.00249805859e-08
1.22294835341e-07
2.04080828801e-07
1.93784644021e-08
4.29212050779e-08
1.38181688565e-07
2.37288173423e-07
8.49486136683e-08
2.14819599194e-09
6.36475387264e-08
2.08969312457e-07
2.0529330861e-07
1.01593323577e-07
6.39533019614e-08
8.61797301189e-08
2.44851420197e-07
1.80004062445e-08
3.35685262279e-09
3.11496986523e-07
3.0104954132e-07
2.95590082808e-07
1.48755881893e-07
9.32453208703e-08
5.22612006572e-08
1.28033246274e-09
2.00358435768e-08
2.06854388826e-08
4.24454091211e-08
7.92400289238e-08
3.78841674428e-08
5.19060026372e-08
2.15153513109e-07
2.24591774557e-09
1.10058795825e-07
1.97790312098e-08
3.53262157069e-08
4.11000921627e-08
1.69517961696e-07
4.26330420055e-08
9.92325147857e-08
8.50868929872e-08
1.30534184456e-07
5.2389475823e-08
4.25668550084e-08
2.12916177396e-08
6.46738257883e-08
1.85307127172e-08
2.7785796349e-08
2.02472460351e-08
4.5874739655e-08
1.17702520006e-07
1.13105100872e-07
8.25945239072e-08
1.53019828345e-08
5.04371366632e-08
6.68436200713e-08
5.9161101492e-08
4.30592982234e-08
1.04199011801e-07
2.65514281435e-07
4.51836605961e-08
1.31477173538e-07
3.37246279777e-08
9.67286705702e-08
8.76233568779e-08
8.45563030085e-08
2.15253082183e-08
1.00275232595e-07
8.12385488889e-08
1.20216309658e-08
6.34785387759e-08
9.75635169566e-08
1.06465289043e-07
1.17555941847e-08
1.76629780679e-08
1.01357210934e-07
1.54861732113e-08
4.71079146628e-08
8.80429057761e-08
6.82937034202e-08
1.06588360493e-08
9.75400973917e-09
4.00009211705e-08
2.46893251552e-08
5.28225177577e-08
2.08625418231e-08
1.34718882485e-09
7.58040036084e-08
3.93768060696e-08
2.68416511473e-08
3.54785209305e-08
5.36138502003e-08
2.73957815854e-07
7.7076260698e-09
7.72784327178e-08
1.17423258552e-07
1.03014241789e-07
1.09285770536e-07
2.43899310968e-07
8.36605853512e-08
7.85139681541e-08
1.37999416938e-08
6.39586663709e-09
3.59830566674e-08
2.05853485528e-08
1.14615823486e-07
1.2527776078e-07
6.55671151919e-08
1.65178059129e-07
8.65435146654e-08
2.29140124678e-08
4.44889479078e-08
9.04889055135e-08
1.21715001534e-07
2.55061158226e-08
1.21587255915e-07
1.89137963714e-09
5.23429544789e-08
9.71244919501e-09
4.07301377196e-08
1.22054657326e-07
1.23526650396e-08
1.3408518396e-08
2.75654564803e-08

