# vtk DataFile Version 3.0
File Name: Molecule/sphere_excent/sphere_excent_0-s17.vtk
ASCII
DATASET UNSTRUCTURED_GRID
FIELD FieldData 1
TIME 1 1 double
0.0
POINTS 306 double
0.80315345526 -0.30779770017 -0.51047855616
0.81398558617 0.26194339991 -0.51619750261
0.98672986031 0.0068060895428 -0.1419095993
0.52428019047 0.0012981053442 -0.85155838728
0.3081549108 -0.49654126167 -0.81152737141
0.0007305482286 0.00076954218093 -0.99993687868
-0.25831928849 -0.48127567768 -0.83703285456
0.0055811936036 -0.84801381826 -0.53020685911
-0.49673435092 -0.010102169588 -0.86644154787
0.52352076769 -0.76220858097 -0.38047635555
0.85733312368 -0.509722054 -0.052540849894
0.27109137177 0.48805201054 -0.82828718424
-0.3000010848 0.48835387826 -0.81835019588
-0.022794852033 0.83367180824 -0.55082118511
0.1611674726 -0.14929404855 0.97547608614
0.29586473107 -0.15427833796 0.94252824783
0.23272298276 -0.0028562340885 0.97246962786
0.2220916003 -0.3015769124 0.92712891102
-0.87810832262 -0.0093956850469 0.47821992636
-0.74692380428 -0.15919655561 0.64465600252
-0.73622572422 0.11508562416 0.66674387455
-0.47164332867 0.35902175307 0.80508774519
-0.32827436924 0.37388652563 0.86740618944
-0.3785404563 0.53331100941 0.75642740726
0.29820951819 0.32057344913 0.89896786213
0.15927943587 0.26614883542 0.95064711571
0.30756941438 0.16171137989 0.93765288591
-0.47784799337 0.65901327133 0.58078324795
-0.54586333036 0.48462212086 0.68219798803
0.95815050602 0.1391877234 0.24701850116
0.90082788467 -0.0045379484072 0.4324336648
0.96251809597 -0.14827150106 0.22556768358
0.8533809185 -0.29628962278 0.42741885781
-0.8444994688 0.28325465322 0.45347851515
-0.95129054785 0.16634599864 0.25656029582
-0.95042395592 -0.17901684344 0.25259763002
-0.85177081823 -0.28694418073 0.43797820807
0.38504120708 0.6985886693 0.6020796895
0.36583399773 0.55618268251 0.74600237608
0.57232707739 0.50620532036 0.64370465279
-0.20513540506 0.59415072203 0.77767515182
-0.32225748897 0.67582046986 0.6627677083
-0.71302878857 0.35253667831 0.6045923233
-0.61561435461 0.25625157356 0.7451466918
-0.55935311317 0.04990785569 0.82726359367
0.47521686554 0.37248802185 0.79697871208
-0.63356232643 0.41915223002 0.64946687222
0.14038464427 -0.76168221235 0.63229858875
-0.022038681433 -0.8570445776 0.51478332281
0.24410048127 -0.87504899502 0.41804605722
0.42880895734 -0.73765569925 0.52142477036
0.50765192509 -0.80321061611 0.30968275666
0.35699501634 0.0077166529372 0.93405652046
0.80409866571 0.32762464881 0.49553993344
0.64338934422 0.31390380859 0.69798928499
0.7041208148 0.1456759274 0.69492030144
0.5642952323 0.18597225845 0.80429601669
0.59106248617 0.0065255537629 0.80643445253
0.42407158017 0.23011112213 0.87590533495
0.46082630754 0.087750598788 0.88314545155
0.46329656243 -0.0571763888 0.88387537003
-0.02485672012 -0.70765018463 0.70605576038
-0.19888049364 -0.71875154972 0.66615450382
-0.1929859072 -0.59514349699 0.77998328209
-0.38099631667 -0.57063448429 0.72733414173
0.57948738337 -0.42833092809 0.69323265553
0.71533840895 -0.43606108427 0.5460088253
0.71266710758 -0.23614534736 0.65942960978
0.59988862276 -0.62272650003 0.50218379498
0.71918833256 -0.59878969193 0.35136407614
-0.54881578684 -0.44690832496 0.70565706491
-0.55575489998 -0.63175112009 0.54026407003
-0.51051902771 -0.81043815613 0.28705716133
-0.69739937782 -0.61610925198 0.36528402567
-0.72226119041 -0.44958335161 0.5243293047
-0.5168132782 0.82579034567 0.22480562329
-0.453412503 0.78069120646 0.42993152142
-0.24894930422 0.90191656351 0.35225000978
-0.28892874718 0.79216498137 0.53756195307
-0.66331380606 0.61701440811 0.4216272831
-0.0429847911 0.72791934013 0.68421834707
-0.18120862544 0.70847505331 0.68195575476
-0.066202588379 0.6355919838 0.76914077997
-0.10925996304 0.80301040411 0.58568292856
0.065516978502 0.78525811434 0.61555433273
0.11021314561 0.6630423069 0.73966318369
-0.26436525583 -0.94922226667 0.16979561746
-0.24354109168 -0.89099037647 0.38308182359
-0.00088644400239 -0.96359062195 0.26735731959
-0.011857946403 -0.99908334017 -0.040186159313
0.26955720782 -0.9462531805 -0.17848442495
0.50089007616 -0.86361753941 -0.054083615541
0.27342653275 -0.95261740685 0.13377887011
-0.12161570787 0.25443983078 0.9593411088
0.0095426030457 0.26326656342 0.96466708183
-0.054102469236 0.3537825644 0.93375957012
0.066376365721 0.35953769088 0.93075674772
0.03420541063 0.46753001213 0.88328677416
-0.057448588312 0.18125772476 0.9817506671
0.059773925692 0.15265011787 0.98646581173
-0.29364621639 -0.45962926745 0.83811694384
-0.42294403911 -0.41790613532 0.80402225256
-0.34580934048 -0.32369509339 0.88067615032
-0.19379042089 -0.35531076789 0.91443866491
-0.46714589 -0.26102781296 0.84406614304
0.012254155241 0.03534675017 0.99927920103
0.1197340861 0.043377101421 0.99184113741
0.17900778353 0.13227330148 0.97491264343
-0.35327136517 -0.18314999342 0.91734617949
-0.20305001736 0.33482888341 0.92013460398
-0.22740612924 0.47527840734 0.84991067648
-0.11303732544 0.43907567859 0.89130067825
0.1755644381 0.41043326259 0.8948327899
-0.22254000604 0.19388777018 0.95529687405
-0.31461942196 0.23061749339 0.92064160109
-0.083652436733 0.53856033087 0.83838158846
0.04185853526 0.57441842556 0.81746065617
-0.87017172575 -0.49239760637 -0.018997706473
-0.73426252604 -0.66471034288 -0.13480083644
-0.69423949718 -0.71044331789 0.11534705013
-0.50061368942 -0.86453849077 0.037162140012
-0.26096445322 -0.24859197438 0.93274611235
-0.23248980939 -0.15079267323 0.96083498001
-0.15958186984 -0.23649448156 0.9584441781
-0.1227966845 -0.13302740455 0.98325997591
-0.070280827582 -0.43501120806 0.89763826132
-0.040366359055 -0.29517051578 0.95429384708
0.0093121919781 -0.13430950046 0.9907913208
0.039252314717 -0.053009591997 0.99764710665
-0.041861817241 -0.05189910531 0.99776887894
0.34704187512 -0.31498068571 0.88337403536
0.48815208673 -0.27658075094 0.8274936676
0.41632071137 -0.41584083438 0.80852472782
0.32677170634 -0.54183340073 0.77435654402
0.27622166276 -0.43290099502 0.85805827379
0.17273265123 0.53164082766 0.82892006636
0.30164399743 0.45448359847 0.83804488182
0.23988957703 0.61282539368 0.75254958868
-0.36845716834 -0.70652323961 0.60422492027
-0.24745602906 -0.80688613653 0.53636616468
-0.40574520826 -0.78234738111 0.47261333466
-0.053577177227 -0.5711607337 0.819021523
-0.16854850948 -0.48237463832 0.85956603289
0.062006752938 -0.51694470644 0.85373902321
0.10121583939 -0.63727802038 0.76392358541
-0.014340414666 0.99963116646 0.0046969689429
-0.24552491307 0.95223873854 -0.17532138526
-0.27506449819 0.95647096634 0.097324751318
-0.53827887774 0.8377378583 -0.022116035223
-0.74874329567 0.61194705963 0.23644906282
-0.44007509947 -0.0856744349 0.89382559061
-0.38333010674 0.02000502497 0.9233520031
-0.31244286895 -0.070126697421 0.94729471207
-0.25962901115 0.018818786368 0.96545690298
0.11212767661 -0.32901537418 0.93750059605
0.14908103645 -0.43007349968 0.89036995173
0.040649693459 -0.40009915829 0.91555333138
-0.42216968536 0.13146442175 0.89692425728
-0.50623136759 0.19655317068 0.8395639658
-0.41087213159 0.25837659836 0.87417656183
-0.30864930153 0.11209852993 0.94450521469
0.43130940199 0.78140854836 0.45027682185
0.55078971386 0.67050540447 0.49699178338
0.62041151524 0.70286989212 0.34754237533
0.69155925512 0.58597761393 0.42145258188
0.24349889159 -0.6491471529 0.72062516212
0.37496644258 -0.63672101498 0.67376863956
0.29502686858 -0.7362370491 0.60889321566
0.19397516549 -0.5430932045 0.81695705652
0.44787099957 -0.52270704508 0.72541320324
0.4967058897 -0.60022318363 0.62698298693
0.026840679348 0.97077304125 0.23667414486
-0.044375415891 0.098604008555 0.99410617352
-0.089621111751 0.02832737565 0.99547332525
-0.12854975462 0.094148017466 0.9871969223
-0.20075170696 -0.060890048742 0.97768104076
0.42895799875 0.68226587772 -0.5918494463
0.25808012486 0.87019985914 -0.41943857074
0.028612179682 0.96204692125 -0.27099430561
0.25409185886 0.94760727882 -0.1927832216
-0.25185844302 -0.94211059809 -0.21952845156
-0.45602324605 -0.80929273367 -0.36893644929
-0.58043950796 -0.42356854677 -0.69537055492
-0.41022312641 -0.67919719219 -0.60853660107
-0.64937961102 -0.59187120199 -0.47747960687
-0.80835813284 -0.29528340697 -0.50890696049
-0.61189931631 -0.21240314841 0.76116555929
-0.64387375116 -0.069967135787 0.76171982288
-0.54565012455 -0.12408210337 0.82879436016
-0.8842240572 -0.4031240046 0.23541007936
0.80823040009 -0.10182861239 0.5796276927
0.72608160973 -0.025117695332 0.68715316057
0.81180936098 0.081698022783 0.57656419277
0.89816218615 0.2396287173 0.36812832952
-0.80498552322 -0.55683016777 0.20508992672
-0.801189363 -0.46437376738 0.37737724185
-0.47373151779 -0.86462813616 -0.16758701205
-0.29710975289 -0.95424920321 -0.032066415995
-0.61589729786 -0.78327715397 -0.08430275321
-0.619143188 -0.73620778322 -0.2729652226
-0.77939856052 -0.53702712059 -0.32216411829
-0.1726153791 0.023562803864 0.98471003771
-0.12320036441 -0.041728451848 0.99150675535
-0.14884348214 0.16702772677 0.97464317083
-0.21326415241 0.10057218373 0.97180116177
0.86270946264 0.4322527051 -0.26196116209
0.86194521189 0.50592291355 -0.0071598980576
0.71365773678 0.68074434996 -0.16445028782
0.68831729889 0.57851284742 -0.43788555264
0.5237814188 0.78470474482 -0.33115559816
0.58434277773 0.42500886321 -0.69132632017
0.80177795887 0.58718651533 0.10942523181
0.5296216011 0.84549182653 -0.065633445978
0.6699835062 0.73754656315 0.081329099834
0.45806694031 0.87401652336 0.15874867141
0.23601409793 0.96440941095 0.11775360256
0.26536870003 0.91368633509 0.30659943819
0.087265834212 0.89657902718 0.43254464865
-0.89047086239 -0.37669590116 -0.25485938787
-0.93885111809 -0.14286711812 -0.31291621923
-0.96570944786 -0.24693380296 -0.079715147614
-0.99264389277 0.017592703924 -0.12013898045
0.55526721478 -0.13679492474 0.82034194469
0.64632219076 -0.11664567143 0.75407600403
0.60411000252 -0.23769895732 0.76039177179
-0.97275555134 -0.0028663896956 0.23169828951
-0.99403965473 0.082864761353 0.070505164564
[...]
CELL_DATA 608
SCALARS cell_data_0 double
LOOKUP_TABLE default
7.83190435588e-07
5.3150980023e-07
2.82020719568e-07
5.23664366411e-07
2.10175610801e-07
2.35906051335e-07
8.7175169726e-08
1.26724190958e-07
1.49715865077e-06
6.02263155395e-08
1.73809459768e-07
3.20441737767e-07
1.13694436931e-07
3.46512866082e-07
6.0417407529e-07
3.97994681445e-07
4.49600024917e-07
8.29049388298e-08
8.80151402564e-07
5.47937187741e-07
3.6134019604e-08
5.59679787832e-07
6.74921927742e-07
3.01534390152e-07
9.50781253779e-08
1.52188219989e-07
1.07978243343e-06
3.29289547602e-07
2.70382476959e-07
1.74628644468e-07
8.73900765879e-07
3.85327283178e-07
2.274800545e-07
1.02142292052e-06
2.44305353735e-07
3.69687060253e-08
2.33519276161e-07
7.24170336536e-08
1.22564763121e-06
7.50049350302e-07
5.45471085975e-07
5.41927465853e-08
6.7026029153e-07
3.46748492663e-07
4.33232123233e-07
1.55411086842e-08
9.5021183604e-08
1.71954527223e-07
2.8589648558e-07
2.33077648384e-07
2.50801611285e-07
4.43848402075e-07
4.18394180503e-07
2.28749471244e-07
1.38512709981e-07
3.04480970272e-08
1.44490905988e-07
3.94705424608e-08
2.2408809436e-07
2.69275250832e-07
7.62554217561e-07
3.83914665767e-07
1.65748047982e-07
3.51851932986e-08
2.944094731e-07
5.22586903475e-08
2.6341712145e-07
5.20236729831e-07
1.05665614028e-07
1.52683858144e-07
6.62358220276e-08
1.10244575521e-07
2.78667153714e-08
3.17941674373e-07
1.10444488698e-07
2.89404684706e-07
2.54727475877e-08
1.41450866465e-07
6.49595767274e-08
4.24574092753e-07
3.15562461616e-07
3.16513887495e-07
3.45593811161e-08
8.35861971766e-09
7.14438605984e-07
7.32619626242e-07
1.54998265269e-07
3.28148855166e-07
9.47519254488e-08
4.85443412262e-07
2.30092503853e-07
5.32937450728e-08
6.3839240586e-08
3.92454403602e-07
5.03691416787e-07
2.64760409218e-07
1.74257498594e-07
4.8295850358e-07
1.21816603387e-07
6.83654396257e-07
1.76946481945e-07
3.13834675603e-07
1.64665679951e-07
3.60717686941e-08
2.20179413139e-07
2.6842202872e-07
6.78632241114e-10
3.35233885683e-09
1.86450486166e-07
5.27623036514e-09
1.64346159687e-07
3.93223033507e-07
1.91998299122e-07
6.7518754006e-07
3.1474647334e-07
1.31764292683e-07
1.28045269609e-07
2.23962055077e-07
1.26075690633e-07
3.45329709e-08
2.54831205877e-07
1.17763279689e-07
4.10814051581e-07
3.14593726448e-07
3.63610412289e-08
4.46647003969e-07
2.73493643432e-07
4.06340564077e-08
3.39549388479e-07
8.256748746e-08
3.8416095274e-07
2.93923821164e-07
2.70917940751e-07
4.8515318197e-08
1.34958415136e-07
2.88635020992e-07
2.29048308481e-07
5.89103798992e-07
5.93456832043e-07
8.76039073972e-10
1.30339265026e-07
4.76809145751e-07
5.26259105034e-07
3.91205941977e-07
2.55445457731e-07
2.910065376e-09
5.0400914616e-07
6.6399883972e-07
4.79906339028e-08
2.99086334781e-07
6.86231275583e-07
9.47510120401e-08
2.72040223778e-07
6.06952324648e-08
2.24995775439e-07
1.10234650647e-07
6.69463008754e-08
2.85899403411e-07
5.50318961657e-08
1.21050844165e-07
2.66429041855e-07
1.38849087525e-07
6.0580148333e-08
3.37176574112e-07
2.1773656074e-07
4.47767669386e-07
3.72326470331e-07
1.74811200709e-07
4.56863181298e-08
1.62897718347e-07
7.06177244466e-09
1.23832610834e-07
1.32861041442e-09
1.48718534407e-07
4.71380324335e-09
4.33876780505e-07
6.99214899238e-08
3.91690964484e-09
6.56002660719e-09
1.7974494792e-07
3.01099227132e-07
2.08295873917e-07
5.95462561947e-07
5.15572406246e-07
1.00010690508e-07
1.39606601016e-07
3.4743891161e-08
9.58159902589e-08
4.10764237742e-09
3.11301570647e-07
4.76796745535e-07
5.3414454661e-08
1.78940317404e-07
8.71725590737e-09
2.60736458276e-07
3.45033731397e-08
4.95039577699e-08
3.4926960684e-07
3.75609287549e-07
4.65199964784e-07
3.75702317787e-07
3.42678509859e-08
8.22640859213e-07
1.22488816467e-07
3.93217389745e-08
1.83179623137e-08
3.09854092909e-07
2.93491915135e-08
1.18981300789e-07
8.5861172909e-08
3.70785706359e-08
9.91112407752e-08
1.43922140292e-08
1.93618839326e-07
1.44459494978e-08
1.60673825009e-07
2.15847109249e-08
8.1372738338e-08
1.28856787236e-07
3.58623442665e-08
5.69003098619e-08
1.78024777902e-07
1.96893477013e-07
3.61080759331e-07
1.62221789789e-07
6.38656488517e-08
1.22883014186e-09
8.2250608442e-08
1.51555852287e-07
1.42768933652e-07
1.74039398802e-08
1.23622806804e-07
5.24540536854e-07
1.11125415039e-08
1.424042617e-07
3.20720547618e-07
2.76885750657e-07
2.93416753259e-07
1.22199635062e-07
9.650299945e-08
1.58214171801e-07
2.99601629522e-07
2.04716726221e-07
5.22392888564e-07
2.16409633771e-07
1.20556058346e-07
2.16801154618e-07
5.68316130674e-07
8.77832416464e-09
1.55001684304e-07
2.84334547183e-07
2.64661494638e-07
7.63108817356e-08
1.25495139086e-07
6.46850404033e-08
4.29479261994e-07
1.46366427531e-08
7.90351096858e-07
1.06637126985e-07
3.77773961877e-07
8.3020361368e-07
2.20161343591e-07
5.02712752476e-07
2.09758379827e-07
5.09165779495e-07
1.94247362685e-07
4.68246757489e-07
2.30103371112e-07
2.22613774293e-08
4.61287288956e-08
5.27632221395e-08
3.89018793956e-08
6.70364397935e-08
2.91993071316e-07
2.55438874203e-07
5.95268910009e-08
3.81646367371e-07
2.91024285338e-07
1.07060404147e-07
1.17303576982e-07
4.12945435848e-08
2.49913069224e-07
1.59929417969e-07
2.46628471173e-08
6.79655746528e-08
3.82220283247e-08
1.13735354759e-09
9.90106826225e-08
7.67865966003e-09
1.26459260603e-09
3.69689567904e-08
5.19747214337e-08
4.73218870753e-08
1.48719957219e-07
2.59224538496e-08
1.63525988289e-07
1.70984676517e-07
6.28853410019e-08
1.3887591961e-07
9.10740715705e-08
7.4057873617e-08
9.11260055024e-09
5.38404764745e-07
1.38909501349e-07
1.74142595386e-07
2.58476302873e-07
1.21765851326e-07
2.04826990832e-07
2.22525993481e-08
1.52454405787e-08
9.61457181023e-08
2.19745105387e-08
1.09902497444e-08
2.0880731086e-07
2.88858603897e-07
2.11653830432e-07
3.21460513178e-07
1.81235812584e-07
4.65383506976e-09
6.22404569886e-08
6.54801434865e-07
2.76007278186e-08
4.60452345197e-09
3.48122200571e-07
5.90972803441e-07
1.06332215384e-07
1.04339128703e-07
1.69274038124e-07
1.07965350058e-08
1.51645672642e-07
1.87276755469e-07
3.13251512055e-07
2.3061464502e-07
2.72367251696e-07
1.42662296745e-07
2.16288739947e-07
2.51736492185e-08
9.98980310827e-08
1.81790691727e-08
5.76976095163e-08
1.61311749702e-07
1.17313955081e-07
6.45814286583e-08
3.3999223398e-07
2.15301074105e-07
3.39726894236e-07
2.65089071749e-08
7.96536520244e-09
1.25237505086e-07
5.25421953068e-08
8.0167621158e-08
4.51058860732e-08
4.25923524769e-08
2.64308542727e-08
8.62312561946e-08
7.67528527726e-08
2.25843926483e-07
7.50186076749e-07
5.05857740034e-07
1.54508987648e-07
9.30069504796e-08
3.6898027407e-07
1.56509495619e-07
6.58139249813e-08
1.58792043241e-07
1.44549571746e-08
2.32283387282e-07
3.72559788242e-08
9.0842219239e-08
1.15517320201e-07
2.45128948233e-08
1.66810251425e-07
9.11712705193e-08
9.57713448491e-08
1.45491328884e-08
1.9897969702e-07
5.49465466781e-08
1.39701790988e-07
1.32256709976e-07
2.89452535763e-07
3.02851658849e-08
1.29337533324e-07
2.80131635706e-08
3.11864621115e-08
8.42977581618e-08
8.17574242499e-08
1.10036318558e-07
2.69483118522e-08
1.29517438534e-08
4.84696284727e-08
6.83287513356e-08
1.64039222193e-07
7.23330586423e-08
9.19685719812e-09
2.61633447801e-08
3.33843735918e-08
1.90757126232e-08
4.73961434065e-08
4.73385750891e-07
3.89525972821e-08
5.80482528171e-08
3.96816431775e-07
1.49013276094e-07
5.84404669603e-08
7.20228613528e-08
2.81045778359e-09
1.28776977766e-08
4.06774580542e-08
1.94081653881e-07
5.9977701503e-07
1.85415469543e-09
2.01783792099e-07
2.22494053937e-07
3.93847600879e-07
4.33096931991e-07
2.41720790055e-07
3.01647044185e-07
3.31265602363e-07
7.9548082642e-08
1.20683488471e-07
2.89418958316e-08
1.00122464451e-07
1.39643807328e-07
1.34739065779e-08
5.57474719509e-07
1.07715309303e-07
2.10744407753e-07
1.36697066385e-07
2.41694308284e-07
6.57807035282e-08
5.1089304429e-07
2.78168679985e-07
1.3566462746e-07
3.14155565039e-07
3.56147940245e-07
2.50780121838e-07
3.6093564024e-07
3.24672055468e-08
4.12239056447e-07
6.84852388484e-08
2.35641702519e-07
2.5797922959e-07
8.23268178974e-08
6.05666934143e-08
1.75508598814e-07
1.23914080308e-07
1.30131381886e-07
2.00948773366e-07
1.17456384767e-07
1.76453959521e-07
4.34472225058e-08
5.84468986592e-09
1.28335031569e-09
7.44666486702e-08
5.34265171829e-08
4.53563315707e-08
2.65416448783e-07
4.26698298669e-07
1.08589980298e-07
3.64253130934e-07
1.54741488621e-08
8.98087832691e-08
3.0798933549e-07
1.17003031372e-07
8.7000187522e-08
4.47980542817e-07
2.89313819795e-07
2.20263967414e-07
3.67025650845e-09
8.24504880361e-08
1.78178875783e-08
1.24715284499e-09
3.12316414799e-07
4.61367103538e-09
9.26726053316e-09
5.73268542107e-08
6.89213699599e-08
7.30466151668e-08
2.19730554105e-08
9.11910441658e-08
2.0345442165e-07
1.20715765495e-07
3.35007207641e-07
1.5972475136e-07
2.88234740706e-07
2.50634676053e-07
8.87892464139e-08
1.64183573885e-08
6.32294557464e-08
3.2053409308e-07
1.05457546503e-08
2.37670255702e-07
1.65411413567e-07
7.65026799495e-08
7.25073017547e-08
1.13269873937e-07
8.93123379212e-08
4.61245544196e-07
4.00364685412e-07
1.07067238688e-06
6.92347039736e-07
3.51185360768e-07
1.71456481444e-07
4.45057230131e-07
1.13162660025e-07
1.21409017444e-07
3.56768218705e-07
5.7769854197e-07
3.10159080916e-07
4.74445484431e-07
5.1094852065e-08
8.77680119777e-08
2.26110006795e-07
3.99358153619e-07
1.48995207201e-07
3.22197786628e-07
2.76498471119e-07
1.4475946668e-07
1.61574078033e-07
3.22006980961e-07
1.90048549333e-07
3.242852245e-07
1.56477033355e-07
1.74366748383e-07
2.26974579257e-08
1.14671793106e-07
1.63111903401e-07
3.16290102766e-08
2.73157560327e-07
2.02314004264e-07
1.20415487133e-07
1.33106782163e-07
2.28105508235e-07
3.24370935599e-08
2.92871981469e-07
2.33098109996e-07
3.01787280287e-08
1.4276251102e-07
1.37663057789e-07
2.03210273277e-07
1.70541634683e-07
2.69649942039e-08
1.62639642667e-07
3.08745959703e-07
1.35738411775e-07
2.82332226575e-07
1.74109712915e-07
5.41210217721e-07
6.50414502138e-08
2.42404922401e-07
1.79025839663e-07
3.90728561585e-08
6.0704533465e-07
1.07814864508e-07
4.93088863974e-07
1.8135692398e-07
1.32683532463e-07
1.02041062374e-06
2.90170174406e-07
2.66192198893e-08
2.34140390658e-07
2.22960418611e-07
3.63669761534e-08
1.9038083504e-07
4.3731074947e-08
1.72895243015e-07
5.36497821392e-08
1.25528677226e-07
2.65332033078e-07
5.12870561252e-07
1.20475156759e-08
1.88674817868e-08
1.64809081341e-07
2.51081191343e-07
1.58195795151e-07
1.27687717524e-07
1.83490487772e-07
7.0008530312e-08
3.13389413039e-07
3.7845018786e-07
2.94162188768e-07
7.4251779189e-07
3.35800483795e-07
1.50610329905e-07
1.63723729528e-07
5.40055578288e-07
4.74383935772e-08
1.57245273331e-07
4.07164448912e-08
1.05031744472e-07
5.60088331988e-08
1.62183287613e-07
3.57000582742e-07
1.79434567732e-07
2.54767871126e-07
6.85990325231e-08
4.09114778567e-09
4.5320126742e-07
2.07864941398e-07
8.37661772044e-09
9.40046241115e-08
2.53472458101e-07
2.0619886888e-07
1.06198142193e-07
7.40888776016e-08
2.4459800903e-07
3.48877000545e-09
4.1669206574e-08

