# vtk DataFile Version 3.0
File Name: Molecule/sphere_excent/sphere_excent_0-s23.vtk
ASCII
DATASET UNSTRUCTURED_GRID
FIELD FieldData 1
TIME 1 1 double
0.0
POINTS 672 double
0.96412968636 0.110585697 0.24093843997
0.91923940182 0.026379041374 0.39286145568
0.96797865629 -0.10336989164 0.22865629196
-0.37143102288 0.56275641918 0.73744720221
-0.22096903622 0.5999969244 0.768876791
-0.31018152833 0.66734707355 0.67613905668
-0.5665358305 -0.66713643074 0.48323109746
-0.71133804321 -0.48462179303 0.5090700388
-0.70139092207 -0.62112605572 0.34873282909
-0.50998365879 0.8271830678 0.23585763574
-0.45435637236 0.77643591166 0.43657264113
-0.29341927171 0.87565362453 0.38283988833
-0.30707889795 0.79324114323 0.52524542809
-0.48812165856 0.64907687902 0.58286964893
-0.62691187859 0.64692759514 0.43383210897
-0.04047915712 0.72833222151 0.68403035402
-0.17700536549 0.69612777233 0.69546073675
-0.071024999022 0.64262974262 0.76288175583
0.072126716375 0.77938425541 0.62235319614
-0.089954599738 0.80431157351 0.58679908514
0.068298228085 0.67182219028 0.7373059988
0.46709525585 -0.79482984543 -0.3873603642
0.50988960266 -0.85497879982 -0.092297665775
0.31333485246 -0.92964333296 -0.19111436605
0.42825469375 -0.89628589153 0.10544655472
0.29369878769 -0.94966924191 0.085954025388
-0.3705804944 -0.56164801121 0.73966085911
-0.29257303476 -0.49590486288 0.8175265789
-0.41939944029 -0.43947720528 0.79423451424
-0.10862606019 0.55893737078 0.82196706533
0.02797633782 0.57456022501 0.8179821372
-0.20641249418 0.48905017972 0.84734112024
-0.22422884405 -0.16551499069 0.96025723219
-0.15528203547 -0.22945305705 0.96078211069
-0.14844633639 -0.14292597771 0.97838628292
-0.16004735231 -0.37842524052 0.91154140234
-0.060225792229 -0.44778722525 0.8921418786
-0.059612665325 -0.32178017497 0.94494903088
0.017095949501 -0.13343916833 0.99090737104
0.024614896625 -0.059964220971 0.99786144495
-0.045929245651 -0.10331434011 0.99354308844
-0.043675579131 -0.049644764513 0.9976053834
-0.00010729854694 0.017911780626 0.99984079599
0.32628059387 -0.55075252056 0.76829278469
0.40771129727 -0.43643090129 0.80209326744
0.29471537471 -0.46425077319 0.83520793915
0.29028612375 0.33985736966 0.8945119977
0.27330762148 0.42530634999 0.8621917367
0.21408973634 0.35440453887 0.91017782688
-0.38562753797 -0.71355700493 0.58472490311
-0.41319400072 -0.78515142202 0.46099019051
-0.2497600168 -0.80937689543 0.53150904179
-0.23785400391 -0.88722062111 0.39447754622
-0.045297276229 -0.5563416481 0.82954210043
-0.1640098542 -0.49470895529 0.85342592001
0.052327480167 -0.51151275635 0.85742169619
-0.33461558819 -0.30997681618 0.88985615969
-0.27696609497 -0.25359520316 0.92679309845
-0.3498750329 -0.21211118996 0.91233670712
0.051169149578 0.47664505243 0.87737369537
0.15317994356 0.51558512449 0.84257334471
-0.61418640614 -0.72187030315 0.31888821721
-0.50774198771 -0.80921423435 0.29447519779
-0.064811080694 -0.86958259344 0.48774793744
-0.20381437242 -0.58055013418 0.78826755285
-0.046483568847 0.99822056293 -0.022481063381
-0.21695140004 0.95957994461 -0.17925137281
-0.31459748745 0.94777613878 0.050181169063
-0.5553650856 0.83134025335 0.01218532864
-0.7094066143 0.65407592058 0.26185357571
-0.6858484745 0.72046452761 0.097144015133
0.11738574505 -0.34199011326 0.9323271513
0.036728445441 -0.39752578735 0.91684728861
0.12669889629 -0.44400715828 0.88700181246
-0.41206562519 0.1679173857 0.89529031515
-0.42730149627 0.27815598249 0.86022979021
-0.50357919931 0.20990306139 0.83776825666
-0.32598096132 0.23179611564 0.91640162468
-0.52895706892 0.30857601762 0.79054516554
-0.45715364814 0.3851763308 0.80139446259
-0.35040766001 0.37019857764 0.85985082388
-0.31493982673 0.133768484 0.93940871954
0.62458437681 0.70026111603 0.34574392438
0.57550132275 0.6733686924 0.46410274506
0.69197309017 0.59835034609 0.40394350886
0.24133442342 -0.65601396561 0.71514683962
0.36921435595 -0.64539325237 0.66861736774
0.27891367674 -0.74510735273 0.60460603237
0.14132863283 -0.74907070398 0.64694660902
0.11871305108 -0.6456669569 0.75350946188
0.21571280062 -0.53995883465 0.81289702654
0.43383541703 -0.54185891151 0.71973353624
0.48999917507 -0.62210077047 0.61026406288
0.44784232974 -0.73320806026 0.51092588902
0.36298435926 -0.74335503578 0.56146454811
0.5770829916 -0.63587206602 0.51240861416
-0.040206864476 0.085423059762 0.99547290802
-0.085689730942 0.022133592516 0.99608528614
-0.1275588721 0.089246749878 0.98773980141
-0.26259827614 0.017050342634 0.96443933249
-0.31251123548 -0.056874901056 0.9481227994
-0.21579900384 -0.064908891916 0.97425311804
0.26094636321 0.87267363071 -0.41251894832
0.019999826327 0.95866519213 -0.28378930688
0.24326299131 0.94590967894 -0.21430975199
-0.0018611281412 0.83518385887 -0.54982560873
-0.40164011717 -0.64021158218 -0.65343791246
-0.6327021122 -0.59369850159 -0.49698343873
-0.59685242176 -0.417578578 -0.68474471569
-0.80512875319 -0.31005454063 -0.50540822744
-0.62537264824 -0.20399008691 0.75318914652
-0.57064002752 -0.14461706579 0.80822527409
-0.63272881508 -0.090200453997 0.7691116333
0.81577181816 0.069629691541 0.57412827015
0.72448402643 -0.023544408381 0.68888223171
0.79459100962 -0.100901559 0.5986776948
0.72342771292 0.12054697424 0.6796656847
0.71433609724 -0.19113461673 0.67307007313
-0.80360084772 -0.54930567741 0.22860595584
-0.80140656233 -0.4752509594 0.36315175891
-0.88090032339 -0.39801335335 0.25339007378
-0.83453530073 -0.32979112864 0.44098570943
-0.22525277734 -0.94951534271 -0.21677385271
-0.30368819833 -0.95200389624 -0.037972573191
-0.45963361859 -0.87189555168 -0.16896186769
-0.046163599938 -0.9985871911 -0.0090172346681
-0.48955157399 -0.87024027109 0.054646387696
-0.61360996962 -0.7853782177 -0.081478774548
-0.67199420929 -0.73230743408 0.1038139835
-0.72813421488 -0.66910403967 -0.14746752381
-0.62762749195 -0.72575050592 -0.28164577484
-0.46504345536 -0.80478495359 -0.3686620295
-0.77832973003 -0.54211235046 -0.31656548381
-0.17727133632 0.023590466008 0.98387950659
-0.1380546093 -0.034944903105 0.98974895477
-0.26836580038 -0.95258998871 0.14044889808
-0.19972667098 0.89089381695 -0.40758424997
-0.24288935959 0.19622208178 0.9498154521
-0.21636523306 0.10664516687 0.97046488523
-0.14806205034 0.15689499676 0.97632992268
0.87945812941 0.47511130571 -0.027825994417
0.86160588264 0.42692884803 -0.27436923981
0.72666925192 0.66649585962 -0.16640658677
0.6867236495 0.57128500938 -0.44949698448
0.79860067368 0.31100252271 -0.51484465599
0.53539150953 0.7734041214 -0.33931306005
0.61633628607 0.39335685968 -0.68214672804
0.43535485864 0.71238124371 -0.55003559589
0.79445558786 0.59750509262 0.10787796974
0.54173260927 0.83628338575 -0.084464654326
0.65709066391 0.75068646669 0.068094544113
0.4482703805 0.88433134556 0.12991474569
0.24450039864 0.96386426687 0.10254763067
0.25531497598 0.92404824495 0.28399533033
0.036801248789 0.96379190683 0.2634858489
0.11104535311 0.90710121393 0.40574750304
-0.89605075121 -0.36400780082 -0.2539268434
-0.93757867813 -0.12910051644 -0.32297483087
-0.96652907133 -0.23561261594 -0.10172864795
-0.88798612356 -0.45678526163 -0.035334069282
-0.99132114649 0.010857151821 -0.13121071458
0.60205256939 -0.020190993324 0.79803597927
0.55525708199 -0.11877033114 0.82293623686
0.64760231972 -0.12158904225 0.7522149682
0.62096136808 -0.23780837655 0.74682801962
-0.94609165192 0.14982166886 0.28685313463
-0.9729488492 -0.016295537353 0.23036579788
-0.90348303318 0.0030047392938 0.42813360691
-0.99505841732 0.074909001589 0.065049000084
-0.99212694168 -0.10943166912 0.060802385211
-0.95788550377 -0.1762650162 0.22589804232
-0.94826447964 -0.30990278721 0.060053229332
0.55411142111 -0.82364428043 0.11503107101
0.7019058466 -0.71216231585 0.0022066342644
0.67822951078 -0.71264129877 0.17851862311
0.79455536604 -0.58568638563 0.16006694734
0.73830783367 -0.64860779047 -0.18324050307
0.57416373491 0.78438472748 0.23451657593
0.70663839579 0.66763073206 0.23417268693
0.42169120908 0.84982937574 0.31608784199
0.52526766062 0.76667720079 0.36922803521
0.42450541258 0.7783703804 0.46254006028
0.28193899989 0.86053818464 0.42410904169
0.40458485484 0.88730591536 -0.22125975788
0.3553404212 0.93376266956 -0.043245993555
0.15782277286 0.98453682661 -0.074657522142
-0.81341785192 -0.5714905858 -0.10303761065
-0.4938557744 -0.011814111844 -0.8692868948
-0.70461392403 -0.13297007978 -0.6969730854
-0.68731147051 0.14442069829 -0.7116035223
-0.84754544497 0.011158349924 -0.53054964542
-0.79725599289 0.30669489503 -0.51981312037
-0.9312633276 0.1613278389 -0.32673951983
-0.86432099342 0.40868553519 -0.29252684116
-0.96494835615 0.24259328842 -0.10035911947
-0.85705655813 0.29782143235 0.42032361031
-0.78166681528 0.47802981734 0.4005099535
-0.87197417021 0.41283577681 0.26296311617
0.99390929937 0.092345066369 0.060265243053
0.9171937108 0.22054329515 0.33160427213
0.94582664967 0.29616877437 0.13286164403
0.87704873085 0.35225060582 0.3257676363
0.86766070127 0.45112422109 0.20812544227
0.9610041976 0.26133954525 -0.08892762661
0.98923152685 0.0030084992759 -0.14586031437
0.7792262435 0.54838967323 0.30316472054
-0.73733586073 0.3760599494 0.56073868275
0.47416383028 -0.14864514768 0.86751610041
0.46911934018 -0.064819097519 0.88069337606
0.40270835161 -0.11986520886 0.90744119883
0.39002284408 -0.20827293396 0.89662098885
0.32162547112 -0.15262676775 0.93444871902
0.87857097387 -0.43439695239 0.1981561482
0.77759307623 -0.53585720062 0.32732126117
0.86216002703 -0.50435447693 -0.046699848026
0.73353093863 -0.44541960955 0.51324260235
0.81384032965 -0.43536943197 0.38393396139
0.78703689575 -0.33056905866 0.52075970173
-0.65185159445 -0.40865817666 0.63879328966
-0.58449530602 -0.50562399626 0.63425719738
-0.74742335081 -0.32735520601 0.57799094915
-0.68479430676 -0.27452796698 0.67497229576
-0.6000353694 -0.32980060577 0.72879815102
-0.75973576307 -0.17769914865 0.62543529272
-0.045486543328 0.91540598869 0.39972400665
0.0053824479692 0.85848850012 0.51275509596
[...]
CELL_DATA 1340
SCALARS cell_data_0 double
LOOKUP_TABLE default
5.99142322286e-08
2.47564681984e-07
4.11072661288e-07
3.22040489775e-08
2.59076579258e-08
2.06068719392e-07
5.90551113145e-09
1.84133000103e-08
2.23796387301e-07
5.08059715232e-08
1.05178910372e-07
8.89665639212e-08
5.38790735339e-09
1.08077177237e-07
8.87170575501e-10
3.49093331158e-08
1.37069806264e-07
1.08739496367e-07
1.92530121839e-07
8.87838891281e-08
1.37610149045e-07
1.45918952641e-07
1.86663554503e-07
1.08100535309e-07
1.45903765219e-07
1.16402172018e-08
1.09041682549e-07
1.57055053161e-07
1.51452666854e-07
3.61855638584e-08
7.44171359671e-08
9.16028612506e-08
3.82763674292e-08
2.52837133228e-07
8.37698493787e-08
1.58286019452e-08
1.45844620861e-07
2.32675189306e-08
2.36691812525e-07
1.42490428018e-07
1.01502952678e-07
4.23495433039e-08
1.94138425646e-07
1.45815057081e-07
7.58691974416e-08
3.52615473899e-07
9.78645663542e-08
1.37265666114e-07
2.27965232794e-08
5.7691097121e-08
8.85254398194e-08
5.72372701233e-08
2.18776646536e-07
4.30388778435e-08
4.01058542664e-08
2.44346983168e-08
9.59080789619e-08
6.15344111447e-08
1.40602898939e-07
1.2166921722e-07
8.52898438914e-08
2.15805048684e-07
2.30610029797e-07
5.27661581263e-08
1.04302389744e-07
1.98735838389e-08
1.96616571003e-07
1.6781372122e-08
3.80301293892e-08
4.29088710111e-08
5.08989453711e-09
3.59886225129e-08
8.09488287122e-08
2.3958700816e-08
1.14770166396e-07
5.60689528869e-08
7.23097097654e-08
1.03065753185e-07
2.36038939945e-08
1.73835606426e-07
6.91032295094e-08
1.6050415929e-07
3.53307891496e-08
6.10022939576e-08
7.69561004947e-09
1.29803479262e-07
5.63224575256e-08
8.57480612556e-08
3.85665694505e-08
1.22829821563e-07
3.86107211722e-07
2.36732011369e-08
3.93909839443e-08
6.47375043196e-08
4.4558366551e-08
1.58491502105e-07
1.42142523489e-07
4.15864778956e-08
1.69663812317e-07
1.49148931003e-07
7.55754322388e-08
9.43973250135e-08
4.22413548605e-08
5.31435320209e-08
7.68099716518e-08
5.29488299086e-08
2.92182076611e-08
8.73295954413e-08
3.26405751044e-08
2.87947219065e-09
9.00987853708e-08
2.32669260735e-07
8.72164410897e-08
1.66144484206e-07
2.30613664082e-07
2.42904557438e-07
3.27617218713e-08
8.83380323687e-08
8.19714502666e-08
3.43924881227e-08
1.5987801462e-08
5.37117407054e-08
1.31465172425e-07
4.12669518293e-08
5.90485947915e-08
1.01335965331e-07
6.8758277145e-08
2.30543426407e-08
7.63330071531e-08
3.47295180132e-08
2.09244730584e-08
1.52125726602e-09
1.08405180036e-07
1.4633026371e-07
2.08493608489e-07
1.07390834455e-07
8.86263050805e-08
1.09851206134e-08
5.18729526174e-08
2.81891092395e-08
1.34550474971e-07
4.65708431827e-08
1.19037739681e-07
1.25377638887e-07
1.11610661004e-08
2.10364033679e-07
8.88359241904e-08
7.76935464527e-08
8.05996735414e-08
3.81098410694e-08
3.12525968791e-08
6.13823369509e-09
3.28608999162e-08
2.53826611773e-08
6.67531045939e-08
1.80245715728e-08
8.05674745891e-08
1.12510880238e-07
7.25684109832e-08
1.03775811085e-07
5.51935624886e-08
1.69499955468e-07
2.78209355238e-08
6.86563622531e-08
6.62111746517e-08
1.55085798054e-07
5.79332565066e-09
1.85401843344e-08
6.87686336039e-08
6.01621688783e-08
6.50375418383e-08
2.38187079139e-08
2.4627100793e-07
1.27018456047e-07
1.40171460197e-07
2.45438677067e-08
7.39283492812e-08
2.63910658359e-08
1.02348630819e-07
5.6071008058e-08
7.01921906831e-08
3.61704143743e-08
7.41432707591e-08
8.27685996957e-08
3.31624066454e-07
2.92473059531e-08
7.37833684441e-08
6.68223379621e-09
3.12394551149e-08
9.17132774023e-08
4.051436532e-08
2.03597561305e-07
4.96032016143e-08
1.90505842398e-08
7.07895979065e-10
4.85738704675e-09
3.19423387694e-08
1.26382633359e-07
3.04863765061e-08
5.2585727248e-09
3.61926936281e-08
1.05400173581e-07
1.97884554466e-08
7.59884413158e-08
5.01135150211e-08
2.06902762986e-08
9.42904222163e-08
3.03774127455e-08
8.10419823132e-09
7.00666516055e-08
1.11655431655e-07
7.77936409881e-08
4.72455364148e-08
3.99314271398e-08
1.56749085709e-07
6.7061412652e-08
8.82155773199e-08
1.58050476275e-07
6.38920237998e-08
8.86590198976e-08
1.04605188917e-08
8.3254614477e-09
1.42028991061e-07
3.20034188355e-08
1.75320038161e-07
6.98347651952e-08
6.78735824829e-08
9.49597530926e-08
1.2281478779e-07
4.20172410342e-08
2.40644985379e-08
4.33710666179e-08
1.18665308156e-08
1.04341000575e-08
5.86259652452e-08
7.08659190144e-08
2.12046880545e-08
3.86078810712e-08
1.22641289562e-07
4.410999342e-08
1.63027448727e-07
1.14601438949e-07
7.46020407177e-08
6.31045885899e-08
1.6407500196e-07
1.09396520527e-07
1.83471962878e-09
1.05371585685e-07
1.07086026697e-09
4.17266385156e-09
2.78326425396e-08
5.53666595851e-08
6.40924981743e-08
1.41696042864e-08
1.22605007436e-07
1.68168845252e-07
5.06405113306e-08
3.38186282223e-07
3.96767887982e-07
2.02836446966e-08
4.26721643022e-08
1.63660095929e-07
1.54389801232e-07
4.29627667209e-08
2.06118062566e-08
2.18338714054e-08
3.71011751178e-09
9.27069148268e-08
1.1186302147e-07
1.73114042562e-07
5.79440855014e-08
7.86843694653e-09
7.46646632399e-09
6.93771934926e-08
7.26301183071e-09
7.41043626626e-08
2.03481156685e-07
9.42121389274e-08
8.41724962802e-08
2.66230021731e-08
3.49644926247e-08
5.50407150614e-08
7.04469608653e-08
5.13139789967e-08
6.665652669e-08
3.15993556788e-08
8.85360283276e-08
1.37873483152e-07
1.0887441124e-07
7.56671664978e-09
3.34640872798e-08
7.61600004301e-08
1.85903439741e-07
7.76130838718e-08
9.15926218403e-08
1.45380382173e-09
1.5298555858e-07
1.09598768914e-07
1.81111357716e-08
3.20838569577e-08
3.84335122673e-08
3.8494652311e-08
2.18994668294e-07
1.1331505954e-07
1.3339951094e-07
1.76311826195e-07
8.87518292445e-08
2.85530262784e-08
4.84111941608e-08
1.47133899817e-07
5.83702072158e-08
3.06885653235e-08
8.78260989554e-08
2.91021909836e-08
6.17956030705e-08
1.05621215698e-07
1.27000557035e-07
1.79780127611e-08
6.85346168741e-09
2.08249831541e-08
9.20240473415e-08
6.69707165492e-08
1.09792693406e-07
6.93025330721e-09
3.20739590463e-08
5.38349252474e-08
3.33491172975e-08
2.16596885875e-08
6.82405194767e-08
6.52194537164e-08
7.53254085135e-08
2.30729330703e-07
1.60302471694e-08
6.35174414531e-08
1.48746518557e-07
4.42524832279e-08
2.14604137735e-07
1.08658526028e-08
7.92775825657e-08
5.44949784183e-08
2.5530125562e-07
1.57947662302e-08
1.03017312663e-07
4.19227230215e-08
9.12014065634e-08
8.81015432943e-08
1.63105873677e-07
2.23256462259e-08
7.30146686948e-08
1.67462056642e-07
1.9934535214e-07
1.11081531205e-07
2.84753719499e-08
2.50182810159e-08
9.07049409057e-09
1.04916381476e-07
2.5049293422e-08
1.46421260161e-09
5.31498434656e-08
1.46327221367e-07
1.14181037117e-08
9.47309697112e-08
8.28747884222e-08
1.68627692063e-08
9.88101722334e-08
3.57615175667e-09
2.69721958075e-08
1.67077380659e-07
1.76718926562e-08
2.2743247722e-08
1.27729494277e-07
1.38244851016e-07
1.04472842584e-07
1.99425386394e-07
1.69006678068e-07
2.95700423139e-08
1.26317569803e-07
2.2907548116e-08
9.68644738773e-08
1.4473121333e-08
5.03058752432e-08
4.63084155471e-09
8.72986519019e-08
1.11866159547e-07
9.42422836093e-08
4.84127780127e-08
7.04512417629e-09
5.74350709141e-08
5.17505377211e-08
7.53433843931e-08
4.70843082539e-08
1.34412261702e-07
9.15826069433e-08
7.5934929932e-08
2.34710837524e-08
9.2807627456e-09
9.60963719754e-09
4.95365017712e-08
3.20745464187e-08
6.90171563345e-08
5.17561367194e-08
4.40363879082e-08
4.32330419882e-08
1.60940964029e-08
3.45197976616e-08
1.0550183278e-07
7.56583691174e-08
1.52156750562e-07
1.69277586884e-08
2.48324657458e-08
1.42850200632e-08
5.50898294479e-08
3.90637161356e-08
1.02539385408e-07
2.00774918601e-07
3.81376650968e-08
1.41767660214e-07
1.02178973834e-07
5.51466826938e-08
3.20343810421e-08
2.04167432598e-08
1.05456356917e-07
3.87967068367e-08
4.15696954886e-08
3.09266482549e-08
1.11986912736e-08
1.08218166181e-08
1.14986285723e-07
4.58489963025e-08
5.09454747672e-09
4.1308410775e-08
7.47778690053e-08
9.63093841783e-09
3.89060371984e-08
5.86933699327e-09
2.56782268137e-08
1.51870741176e-08
1.52229787174e-07
6.23695350801e-08
2.43290723014e-08
5.19890081662e-08
3.2147292615e-08
2.82052605158e-08
1.00401943618e-07
4.86346202083e-08
1.54272146904e-07
6.59285973898e-08
7.64372984179e-10
1.44729302986e-08
3.70757021501e-08
3.98438493465e-08
4.8463944541e-09
7.44893946982e-08
7.94798735202e-08
5.25267152605e-08
1.39904303335e-07
1.29993039086e-07
8.24864841977e-08
7.61086623669e-08
3.95714827441e-08
9.22434259403e-09
6.31829667154e-08
3.68353154864e-08
1.53061866012e-07
5.99675823361e-08
8.9777153299e-08
7.58282020493e-08
9.90524010743e-09
3.46273518866e-08
4.50674424118e-08
1.00464403335e-07
1.16475541569e-07
9.13245612773e-08
1.00813813821e-07
4.02540378666e-08
9.39728461034e-09
3.79639447661e-08
1.62626044889e-07
9.60603256311e-08
1.06557903732e-08
5.62337999659e-08
1.80108684589e-08
1.37624368974e-09
1.28749868668e-07
3.69079806667e-08
3.92796582442e-09
8.7606593574e-08
5.64738909711e-08
3.43814030996e-08
5.9038031357e-08
5.59237372258e-08
2.98700585072e-08
5.91137622585e-09
2.7610137357e-08
8.62426107418e-08
4.98086021687e-08
3.72301834674e-09
2.62011182263e-08
5.45724969814e-08
5.75555270758e-08
4.33910907311e-08
7.68638534679e-08
1.51937510281e-08
7.44841166103e-09
9.28945930299e-08
9.35812932371e-08
1.45053376631e-07
1.43352033269e-08
2.7440768671e-08
3.34715368009e-09
2.27967231716e-07
1.16873783629e-07
1.50143279901e-07
5.01745224484e-08
1.49984788041e-07
8.09991211165e-08
1.41067808451e-07
2.58118068986e-08
3.99732326993e-08
1.12721591603e-07
6.2757536254e-08
1.14380792712e-07
3.9791312563e-08
3.36084457331e-09
7.30386204351e-09
9.24045335556e-08
2.24688532329e-08
5.80700670391e-08
1.00496080845e-11
4.49737448155e-08
2.9347798311e-08
2.5154499671e-08
1.90426261942e-08
5.41062047191e-08
3.45549059286e-09
1.55517215954e-08
8.04267064914e-08
4.42194226108e-08
9.82665217791e-08
3.8101062713e-08
5.1516273655e-08
1.07152224356e-07
4.70218992676e-08
6.18614991271e-08
4.59621734786e-08
3.38655128021e-08
7.98317063049e-08
1.08218726822e-07
1.89090231315e-07
3.81934847684e-08
1.52927641566e-08
6.58457143424e-08
2.44515597752e-07
6.90275597468e-08
5.35062849719e-08
6.93808662991e-08
4.00923087971e-08
3.77191647234e-08
9.02448197598e-09
1.00300090959e-07
6.64212650733e-08
1.55427957625e-07
1.68536903706e-08
4.58995905769e-08
5.53088934662e-08
8.2412061781e-08
9.96796703295e-08
7.17626506474e-08
2.60164356736e-08
2.75105612197e-08
2.14247695619e-07
1.15248978128e-07
1.29646692429e-07
8.18034678715e-08
4.01808190152e-08
1.92143436752e-07
9.78393676863e-09
4.7240189906e-08
2.9356902281e-08
8.56152637932e-09
1.21176849528e-07
2.69976493649e-09
1.14563729761e-07
1.84043946202e-08
7.65095823873e-08
5.67212458886e-08
4.63373231439e-08
1.68905156937e-07
4.67566830213e-08
8.17344224264e-08
5.36560021187e-09
2.15750314009e-08
7.79091619977e-08
1.37190301931e-08
9.15413421083e-09
4.48800787065e-08
9.00921284231e-08
3.19580295881e-08
8.34229357647e-09
1.96398282585e-08
1.2125185219e-08
8.39430552311e-08
1.66699729252e-08
3.37476901732e-08
1.73312786039e-08
1.37395824384e-07
1.12136605977e-07
2.51366905569e-08
5.63718684921e-08
4.65945053223e-08
8.10191747763e-08
2.54908883527e-08
4.20091727925e-08
1.9101862124e-07
1.24444520164e-08
7.21769431059e-09
7.16794684288e-08
2.5813222784e-08
4.44876176188e-08
4.62428372925e-08
4.0364254174e-08
1.23191188864e-08
4.43480369149e-08
5.66865827977e-08
9.3670004135e-08
3.19577005634e-08
3.27056645851e-08
3.43848300482e-09
2.43534184063e-08
8.97563732699e-08
5.78536357685e-08
7.41026226921e-08
6.19348731476e-08
2.30339698814e-08
7.5653133857e-08
1.51430006371e-07
2.160208065e-08
1.1861156912e-07
3.59717366282e-08
6.91408670542e-09
1.28997225216e-08
4.51174267181e-08
1.73082704941e-08
1.03174486697e-08
1.7414464848e-08
2.84490779722e-08
1.26777321757e-09
4.48659197825e-08
7.02779113049e-08
3.79701347252e-09
8.41130745894e-09
1.7603324232e-07
9.00146549305e-08
2.2255597558e-09
3.3661673244e-08
1.39451594165e-07
7.80725275234e-08
1.28587966206e-07
7.76823342514e-08
6.94759173408e-08
8.24369175495e-08
5.13599802433e-08
3.62131296091e-08
6.20067679209e-08
3.18645625269e-09
2.26063528385e-08
2.62902647686e-08
3.2945765262e-08
7.59190611994e-08
3.94401001983e-08
8.02754072184e-08
5.77836884747e-08
5.50144290077e-08
1.41601899504e-07
3.89822210559e-08
2.93502213947e-08
4.0773953845e-08
2.29792464646e-08
1.04511996846e-08
4.98367124214e-08
5.22113824889e-08
1.83402771931e-07
2.96921692545e-07
2.5909584025e-08
8.45483638201e-08
2.20093513334e-07
1.15325536014e-07
2.86264919962e-08
6.05924794879e-08
6.79846876469e-08
5.77159541702e-08
1.16013896736e-08
4.44421488403e-09
1.4422991498e-08
9.11246857033e-08
1.29771892533e-07
1.93320877922e-08
6.52451161902e-09
3.63266730871e-09
6.21514118386e-08
1.49797006151e-07
7.91480674263e-08
2.83915754232e-08
2.84025350117e-10
2.11468265439e-08
4.14972727828e-08
5.3430604606e-09
7.37567845023e-08
8.12865685316e-08
1.2612755327e-07
1.74532317073e-07
5.40021140429e-08
2.11951506684e-08
5.96112631431e-09
2.53541485273e-08
1.0997296518e-07
2.14456708723e-09
5.48618472212e-08
1.40619045343e-08
6.45571760012e-08
4.44701082442e-08
4.48604212738e-08
5.24025498692e-08
1.3177507385e-07
6.90602515885e-09
1.68955171978e-07
7.37667019968e-08
3.03540695155e-08
2.62178279026e-08
5.99045747714e-08
8.84722478604e-08
7.02862490854e-08
1.14258766911e-07
3.77784512061e-08
6.55202358935e-08
8.39602246969e-08
1.39941996277e-07
8.2843813935e-08
4.59811208357e-08
5.78415274601e-08
3.58174743318e-08
1.60725578436e-08
2.88579224343e-08
2.67303062644e-08
4.42360543667e-09
1.62540616938e-08
1.58847954849e-08
4.31800456991e-09
2.87151872381e-10
2.81874971959e-08
2.98904186028e-08
5.4422584678e-08
3.85120108531e-08
7.36932147239e-08
8.36143913921e-08
1.51214902358e-07
8.54592704396e-09
6.45525513963e-08
5.34302464883e-08
7.43142383653e-09
1.35336519231e-07
9.54266296396e-09
1.66576708282e-07
9.07607139542e-08
1.39744620467e-07
2.61422444848e-08
1.89250790854e-08
4.8011403866e-08
1.18284370947e-07
1.53231791824e-07
6.54994119021e-08
1.74139470814e-08
1.35461282289e-07
1.59251378412e-08
8.9333396798e-09
3.37864832667e-08
3.26703406944e-08
1.18198293952e-07
1.72908220898e-08
8.64212826273e-09
2.07171734301e-08
1.30232837602e-08
4.16865401633e-09
2.00547059536e-08
1.09551989495e-07
1.49023593145e-07
8.19102516528e-08
2.10512379799e-08
1.15299016328e-07
1.00866888007e-07
2.00412851105e-08
6.93236173914e-08
2.09122471799e-07
7.49399275867e-08
6.52147218205e-08
9.52613609356e-08
7.89436252588e-09
1.0833215825e-08
1.10670011299e-08
1.88078631666e-08
8.99820602164e-08
5.74349416316e-08
1.14482605667e-07
8.90595581456e-08
8.39047585916e-08
5.07212039687e-08
3.94642158826e-08
6.43865705894e-08
3.12522762217e-08
5.37519734802e-09
1.16588947778e-08
3.97879423158e-08
4.04242733971e-08
1.33823799666e-07
9.47448782169e-08
1.16042637846e-07
1.34660815547e-07
3.12975449463e-08
3.79887727654e-08
5.25105856466e-08
1.9761110083e-08
4.99730580714e-08
4.67275718245e-08
3.73591571108e-08
1.87542951785e-08
2.95273426304e-08
2.29756473483e-08
8.97392483306e-08
3.02212532168e-08
1.9536673736e-08
3.45980398344e-08
1.39175290306e-07
5.67198632991e-08
4.55116962501e-08
1.94470544145e-08
2.20104370548e-08
3.42931510576e-09
6.09838895969e-08
1.26457854817e-07
2.10322456999e-08
8.85264218087e-08
7.16314561882e-09
3.4774888654e-08
1.01889481284e-07
2.16551752521e-08
1.70621774412e-08
8.33138687436e-08
9.10520512407e-08
1.55345891405e-08
1.10287519582e-07
1.77466903784e-08
9.72622887478e-08
1.12648440348e-07
9.91737995241e-08
1.19429527538e-08
5.44695892482e-08
3.86198158347e-08
1.70360458454e-08
7.70661549073e-08
8.29534426822e-08
5.66611072329e-08
1.44554770012e-07
8.76622336476e-08
6.02405827164e-09
1.17260553539e-07
4.26972754287e-08
4.65229496267e-08
6.34925478237e-08
6.71097608496e-08
2.32939163135e-08
5.69506368298e-08
1.09122978177e-08
6.78301677661e-08
1.93624028267e-08
3.02940934413e-07
8.25093691453e-08
4.12689279206e-08
4.85500013957e-08
2.33314035302e-08
6.62022544036e-08
7.41590824099e-08
4.67346920855e-08
4.93015381607e-08
4.9105793594e-08
3.66009784731e-08
6.6583382205e-08
1.46264271207e-08
1.09788249722e-07
4.04835729625e-08
5.33739723472e-08
2.80690711243e-08
3.89379819708e-08
3.23180997106e-09
7.22913591433e-08
4.85237199874e-08
1.68952081558e-07
4.89918830939e-08
1.8461592532e-07
3.09089175171e-08
8.99859722727e-08
2.20163494619e-07
2.20149449108e-07
3.45226097051e-07
3.27821042956e-07
1.3816489814e-07
1.84738314381e-08
2.3414332388e-08
1.30628879978e-07
1.25205582758e-07
9.00579429903e-08
7.36154893153e-08
2.3224533075e-07
5.91616252631e-08
5.99340972732e-08
3.53699082046e-08
5.73265417895e-08
9.67097609213e-08
1.16683164772e-07
2.7901200617e-09
8.7805062519e-09
4.10097026537e-08
5.2666656911e-08
1.01670763872e-07
1.28802413824e-07
6.13434450804e-08
6.01984089644e-08
2.64998644979e-07
1.19046989733e-08
1.27990093896e-08
9.87081280529e-08
1.3216065561e-08
8.89474598793e-10
7.47773060033e-08
2.63113558649e-08
3.0847030897e-08
3.86039788532e-08
7.02439345488e-08
1.67262244092e-07
5.15436498728e-08
2.42154833501e-08
1.42748473282e-08
4.46914519328e-08
2.44669353199e-08
8.09866282398e-08
2.98959240036e-08
7.26199601764e-08
1.05798089527e-07
2.17154244026e-07
1.55714105934e-07
6.866312314e-08
1.16615218972e-08
1.55439981099e-08
3.08303039639e-09
7.91182496475e-08
1.42079650591e-07
1.71943355044e-08
4.86940223983e-09
8.55569575591e-08
1.38800335444e-08
3.19433959282e-08
1.87550051782e-08
7.59486388377e-08
1.98405578861e-08
3.25728264952e-08
3.10515256901e-08
1.66139414098e-07
4.37400251877e-09
2.97487086675e-08
9.89814948245e-08
7.03571484343e-08
2.59939956545e-08
6.09198582865e-09
2.30774918659e-08
4.85407028505e-08
3.84369662889e-08
3.84515307751e-08
3.94622423133e-08
2.02349175602e-08
1.15406952802e-07
1.02210615e-07
4.8335719887e-09
7.15589522975e-08
6.70810989651e-09
3.86880848022e-08
2.27245069674e-08
3.93954073671e-08
1.72382277555e-08
4.08002226571e-09
1.42551959575e-07
1.06779623871e-08
2.29804019592e-08
2.946865356e-08
1.11048858725e-07
1.59011857469e-08
8.87818063504e-08
4.60862665688e-08
2.29190815983e-08
2.50559655653e-08
2.35597894359e-08
4.26492398721e-08
3.69887235561e-08
5.32501341763e-08
2.51993633721e-08
2.27228803542e-08
2.41916094563e-10
6.14286727695e-08
9.1643172408e-09
4.34678325149e-08
3.25117072525e-08
3.06300123204e-07
8.69429176275e-09
2.1236373263e-08
1.74424791717e-07
1.00930502881e-07
7.28696970458e-08
4.08669182733e-08
2.40565154851e-09
3.22146779044e-08
3.27574752462e-08
2.04747860876e-09
8.25715206601e-08
3.94221823765e-08
9.78871453244e-08
2.33044069172e-08
2.98989659405e-08
6.53496702566e-08
2.3721633753e-08
1.21333108488e-08
5.73212131205e-08
3.32536905916e-08
4.85436016058e-08
9.25024266837e-09
5.12617135264e-08
3.00529586294e-08
2.57868805347e-09
7.6044736978e-08
1.04550429706e-07
2.89997230483e-08
2.15480875005e-08
3.35667626507e-08
1.08658996308e-07
3.27620366556e-08
2.03245258688e-07
5.58333093504e-09
2.43223082053e-08
2.94460948647e-08
8.89283610608e-09
7.48858474376e-08
6.85637363932e-08
5.81878187715e-08
2.47556958059e-07
4.51062067976e-08
9.47927546964e-08
2.35103555072e-08
2.65457742244e-08
7.79442327759e-08
2.75133945411e-08
3.79992905159e-09
3.6707783556e-08
3.4234581893e-08
4.92566662377e-09
9.07035457462e-09
1.61355359253e-08
6.26069640508e-08
3.89536094376e-08
1.90792229555e-08
4.44879730785e-08
3.55625328078e-08
1.03376716508e-07
4.833681985e-08
1.06417139728e-08
2.30752965067e-08
3.66688273023e-08
5.0436570496e-08
2.13317900331e-08
5.53979110212e-08
6.70434097775e-08
1.2578083307e-07
6.25902652872e-08
1.52815008318e-08
4.30512543485e-08
4.08738399406e-10
2.16762659448e-07
1.87004032925e-08
1.55677319748e-07
3.48725326985e-07
4.62967226369e-08
2.27111779274e-08
5.48465593416e-08
5.64835167683e-08
9.76277333953e-08
1.24360753534e-07
1.55380738407e-08
2.89824847342e-08
6.81536121808e-09
5.16761295497e-09
6.6425455923e-08
1.36783136084e-08
5.22017443338e-08
2.56316546614e-08
6.57110506469e-08
3.01236502615e-08
8.23029684753e-08
6.09324884277e-09
3.88650773789e-08
2.17884231976e-08
1.33951203616e-07
7.70912926108e-08
3.60093286443e-08
6.42135724989e-08
5.72653696681e-08
7.24867544429e-08
1.18995821171e-07