# vtk DataFile Version 3.0
File Name: Molecule/sphere_excent/sphere_excent_0-s10.vtk
ASCII
DATASET UNSTRUCTURED_GRID
FIELD FieldData 1
TIME 1 1 double
0.0
POINTS 111 double
0.85139262676 -0.52465599775 -0.0046436288394
0.80808228254 -0.30932226777 -0.5012845993
0.99789506197 0.0019277667161 -0.060104183853
0.80764132738 0.30998781323 -0.50160032511
0.52561026812 1.6615533241e-05 -0.85072565079
0.8511775732 0.52483862638 0.00051501672715
0.49989721179 0.80874097347 -0.30985149741
0.30889490247 0.49993467331 -0.80897599459
5.3345711422e-06 0.85061138868 -0.52580183744
0.486915797 0.83146089315 0.26545241475
-0.00012450774375 1.0000553131 -0.0023773689754
0.020737327635 0.86808931828 0.49278613925
-0.49974408746 0.80826741457 -0.3116029501
-0.49325439334 0.83171182871 0.24727012217
-0.85077226162 0.52554756403 0.00047440305934
0.30893406272 -0.49993121624 -0.80896240473
-1.0426403605e-05 -8.325609997e-07 -0.99989181757
-0.3089735806 -0.49993994832 -0.80893880129
-2.755504056e-07 -0.85065490007 -0.52572435141
-0.52570158243 7.5497960097e-06 -0.85066914558
-0.80813205242 -0.30937594175 -0.50116610527
-0.80815964937 0.30959907174 -0.50098711252
-0.99785900116 0.0018014764646 -0.060269076377
-0.85140132904 -0.52466005087 -0.0045403144322
-0.30890569091 0.49989634752 -0.80899828672
-0.49990934134 -0.80891823769 -0.30917578936
-0.49364817142 -0.81543409824 0.30097183585
0.00036112451926 -0.99986314774 0.00064232503064
-0.023248430341 -0.8572371006 0.51153004169
0.50006514788 -0.80862605572 -0.31003767252
0.51318049431 -0.81224089861 0.27488350868
0.013484490104 -0.52800303698 0.84818458557
0.32593908906 -0.54604566097 0.77143734694
0.20532295108 -0.32875445485 0.92162072659
-0.1221030131 0.25366029143 0.9593487978
0.1259175688 0.2534378767 0.95901268721
0.019780913368 0.49557837844 0.86727017164
-0.0001580909593 0.059052616358 0.99825459719
-0.33829286695 -0.55407714844 0.75876283646
-0.20469355583 -0.33069479465 0.92077463865
-0.47509098053 -0.28202316165 0.83354610205
-0.53561687469 0.017002424225 0.84426021576
-0.33515480161 -0.14608520269 0.93076330423
-0.2403704226 0.02594897151 0.97028237581
-0.11069283634 -0.12714444101 0.98563545942
0.00021815302898 -0.28648528457 0.95790052414
0.1089939177 -0.1277679354 0.98578387499
0.2216245681 0.027814289555 0.97428756952
0.32042759657 -0.14877180755 0.93532818556
0.47393083572 -0.28123751283 0.83439856768
0.57057070732 -0.0010503539816 0.82046037912
0.70099121332 -0.1729836911 0.69184207916
0.59294486046 -0.44691589475 0.66854447126
-0.59402668476 -0.44107881188 0.67167007923
-0.69953233004 -0.16369874775 0.69561356306
-0.86528468132 -0.0052441488951 0.50125133991
-0.714854002 0.14135201275 0.68398505449
-0.26151031256 0.38694301248 0.88416618109
0.26726177335 0.37955632806 0.88554668427
0.33808338642 0.54846447706 0.76436269283
-0.34207895398 0.18128928542 0.92195802927
-0.45080372691 0.30455738306 0.83879619837
-0.3646312058 0.53730362654 0.76051694155
0.4735558033 0.32383006811 0.81785726547
0.32042467594 0.16828274727 0.9317175746
-0.68818873167 0.59177428484 0.41985738277
-0.57614332438 0.46580281854 0.67030721903
-0.45198401809 0.68888181448 0.5654386282
-0.82158178091 0.30202850699 0.48214969039
0.95800250769 -0.15662279725 0.24034325778
0.83437800407 -0.33281010389 0.43798005581
0.95317548513 0.16071848571 0.25656068325
0.86357498169 -0.0035985852592 0.5043438077
0.80497157574 0.31658399105 0.50171971321
-0.95472210646 0.15715695918 0.25264286995
-0.95798689127 -0.15726014972 0.23995278776
-0.83414667845 -0.33292967081 0.43839272857
0.70886820555 0.14648669958 0.6886459589
0.68298619986 0.59705519676 0.42096507549
0.4199436307 0.7102419138 0.56289637089
0.59352350235 0.47616186738 0.64833158255
0.050879374146 0.67533749342 0.73046910763
-0.17121735215 0.56058806181 0.80997180939
-0.18706938624 0.69762223959 0.69036638737
-0.70527416468 0.36525395513 0.60766667128
-0.6006962657 0.24950873852 0.75969266891
0.17900621891 -0.72716253996 0.66280537844
0.41649267077 -0.71132791042 0.56601643562
0.25494402647 -0.86535680294 0.43144363165
0.3537555933 0.013258526102 0.93522715569
0.44339087605 -0.066662296653 0.89379525185
0.64567250013 0.30597746372 0.69961071014
0.54046475887 0.1674091965 0.82412928343
0.41715887189 0.22483843565 0.8805539012
0.45229652524 0.086871437728 0.88762748241
-0.24954128265 0.8825019598 0.39680281281
0.70698410273 -0.59566348791 0.37918484211
-0.70167648792 -0.59770846367 0.38696873188
-0.19391551614 -0.72594463825 0.65483993292
-0.56092000008 -0.64604878426 0.51438683271
-0.1606515348 -0.56282186508 0.81084758043
-0.01355548203 -0.70870608091 0.70510041714
0.72398930788 -0.40640512109 0.55715042353
0.58144086599 -0.64308983088 0.49817499518
-0.72397470474 -0.40521234274 0.55793511868
-0.46556600928 0.77745723724 0.42261233926
-0.23629306257 0.8053124547 0.54336416721
-0.076655708253 0.70995551348 0.70006847382
-0.094336017966 0.79153186083 0.60376054049
0.021318495274 0.78405076265 0.61956089735
-0.31616708636 0.70715939999 0.63212943077

CELLS 218 872
3 0 1 2
3 1 3 2
3 1 4 3
3 2 3 5
3 5 3 6
3 3 7 6
3 3 4 7
3 6 7 8
3 5 6 9
3 6 10 9
3 6 8 10
3 9 10 11
3 10 12 13
3 10 8 12
3 13 12 14
3 4 15 16
3 15 17 16
3 15 18 17
3 16 17 19
3 19 20 21
3 20 22 21
3 20 23 22
3 21 22 14
3 8 24 12
3 24 21 12
3 24 19 21
3 12 21 14
3 23 25 26
3 25 27 26
3 25 18 27
3 26 27 28
3 19 17 20
3 17 25 20
3 17 18 25
3 20 25 23
3 18 29 27
3 29 30 27
3 29 0 30
3 4 1 15
3 1 29 15
3 1 0 29
3 15 29 18
3 4 16 7
3 16 24 7
3 16 19 24
3 7 24 8
3 31 32 33
3 34 35 36
3 34 37 35
3 38 39 40
3 41 42 43
3 42 44 43
3 42 39 44
3 43 44 37
3 33 45 31
3 31 45 39
3 39 45 44
3 45 46 44
3 45 33 46
3 44 46 37
3 37 46 47
3 46 48 47
3 46 33 48
3 48 33 49
3 34 43 37
3 37 47 35
3 50 49 51
3 49 52 51
3 49 32 52
3 53 40 54
3 53 38 40
3 54 40 41
3 55 54 56
3 41 40 42
3 42 40 39
3 32 49 33
3 57 34 36
3 35 58 36
3 36 58 59
3 41 60 61
3 60 57 61
3 60 34 57
3 61 57 62
3 59 58 63
3 58 35 64
3 34 60 43
3 43 60 41
3 47 64 35
3 65 66 67
3 67 66 62
3 68 65 14
3 14 65 13
3 2 69 0
3 0 69 70
3 2 71 69
3 71 72 69
3 71 73 72
3 69 72 70
3 73 71 5
3 5 71 2
3 68 74 55
3 74 75 55
3 74 22 75
3 55 75 76
3 22 74 14
3 14 74 68
3 76 75 23
3 75 22 23
3 70 72 51
3 50 51 77
3 54 55 76
3 62 66 61
3 9 78 5
3 5 78 73
3 9 79 78
3 79 80 78
3 79 59 80
3 78 80 73
3 59 79 81
3 11 79 9
3 62 82 83
3 82 36 81
3 81 36 59
3 68 56 84
3 56 85 84
3 56 41 85
3 84 85 66
3 63 80 59
3 36 82 57
3 57 82 62
3 68 84 65
3 65 84 66
3 41 56 54
3 55 56 68
3 66 85 61
3 61 85 41
3 32 86 87
3 86 88 87
3 86 28 88
3 87 88 30
3 30 88 27
3 27 88 28
3 31 86 32
3 48 89 47
3 47 89 64
3 32 87 52
3 73 77 72
3 72 77 51
3 50 90 49
3 49 90 48
3 73 91 77
3 91 92 77
3 91 63 92
3 77 92 50
3 64 93 58
3 58 93 63
3 63 93 92
3 93 94 92
3 93 64 94
3 92 94 50
3 50 94 90
3 94 89 90
3 94 64 89
3 90 89 48
3 63 91 80
3 80 91 73
3 13 95 10
3 10 95 11
3 70 96 0
3 96 30 0
3 26 97 23
3 23 97 76
3 28 98 26
3 26 98 99
3 38 100 39
3 100 31 39
3 28 101 98
3 101 100 98
3 101 31 100
3 98 100 38
3 52 102 51
3 51 102 70
3 70 102 96
3 102 103 96
3 102 52 103
3 96 103 30
3 53 99 38
3 38 99 98
3 26 99 97
3 99 104 97
3 99 53 104
3 97 104 76
3 76 104 54
3 104 53 54
3 13 105 95
3 105 106 95
3 105 67 106
3 95 106 11
3 67 105 65
3 65 105 13
3 81 107 82
3 82 107 83
3 83 107 108
3 107 109 108
3 107 81 109
3 108 109 11
3 11 109 79
3 109 81 79
3 83 110 62
3 62 110 67
3 67 110 106
3 108 106 83
3 110 83 106
3 106 108 11
3 31 101 86
3 86 101 28
3 30 103 87
3 87 103 52

CELL_TYPES 218
5
5
5
5
5
5
5
5
5
5
5
5
5
5
5
5
5
5
5
5
5
5
5
5
5
5
5
5
5
5
5
5
5
5
5
5
5
5
5
5
5
5
5
5
5
5
5
5
5
5
5
5
5
5
5
5
5
5
5
5
5
5
5
5
5
5
5
5
5
5
5
5
5
5
5
5
5
5
5
5
5
5
5
5
5
5
5
5
5
5
5
5
5
5
5
5
5
5
5
5
5
5
5
5
5
5
5
5
5
5
5
5
5
5
5
5
5
5
5
5
5
5
5
5
5
5
5
5
5
5
5
5
5
5
5
5
5
5
5
5
5
5
5
5
5
5
5
5
5
5
5
5
5
5
5
5
5
5
5
5
5
5
5
5
5
5
5
5
5
5
5
5
5
5
5
5
5
5
5
5
5
5
5
5
5
5
5
5
5
5
5
5
5
5
5
5
5
5
5
5
5
5
5
5
5
5
5
5
5
5
5
5
5
5
5
5
5
5

CELL_DATA 218
SCALARS cell_data_0 double
LOOKUP_TABLE default
1.04715671914e-06
6.49312178503e-07
1.26141678212e-07
7.8463365439e-07
5.99523532413e-07
1.56889393694e-06
5.46047938405e-07
6.20736280603e-07
5.46607266344e-07
1.82094593601e-06
1.07831538012e-08
1.79768113931e-06
2.59449237081e-06
2.02251871768e-07
1.13014946609e-06
2.81526578034e-07
5.14233640457e-07
3.92059960519e-07
3.561367283e-07
2.24124248117e-07
7.58974127474e-07
8.5508111228e-07
9.66311115209e-07
2.85758638862e-07
1.57211279911e-06
6.32542488757e-07
2.96725633201e-07
8.533755341e-07
1.49303885913e-06
5.52504979382e-07
4.87741663755e-06
6.2348223171e-07
1.88927225226e-06
3.44263147092e-07
7.42732998802e-07
4.19435499253e-07
4.14724593885e-06
3.41757384096e-07
7.22369058743e-07
1.62261980408e-06
1.19516193145e-07
2.43581982796e-07
4.30307355495e-07
5.39517320538e-07
3.43756123803e-07
3.61650981413e-07
1.80158086709e-06
3.53740337574e-06
1.68521834964e-06
4.5922782821e-06
2.86034650992e-06
2.21846388546e-06
1.60325861918e-06
7.9555745459e-07
2.84132757773e-08
2.92864805533e-06
1.60094181651e-06
8.97098060477e-07
1.88872464989e-06
2.50184927496e-06
1.29715444141e-06
7.47349076729e-07
1.18613560163e-06
2.1537292994e-07
2.9478764116e-06
3.40817564265e-06
2.81725677929e-06
1.95107202917e-06
2.12237022863e-07
1.01201244943e-06
5.80138749798e-07
1.39862137128e-06
2.10507099751e-06
7.06606210832e-07
1.62433951035e-06
2.77674340112e-06
3.43309526095e-06
1.40560852271e-06
2.65448764219e-06
2.0091605264e-06
1.21895980718e-06
1.78121128203e-06
3.88237610586e-07
9.31350966268e-07
1.02315376824e-06
3.96673472485e-07
1.14862243613e-06
9.2364985847e-07
2.42552912087e-07
3.53264926668e-07
2.32896630572e-06
2.20600547262e-07
7.89902481383e-07
4.42648678269e-07
1.44142437971e-06
3.12985756481e-07
2.00531244024e-07
5.62547679509e-08
1.10400983576e-06
2.70315832976e-07
7.41538023307e-07
5.12118938694e-07
1.73002967596e-06
8.85613652481e-09
8.42574335726e-07
8.18216103132e-07
3.08572734641e-08
7.53554979742e-07
8.04124971484e-07
2.43528297568e-07
1.2432945474e-06
1.10514007364e-06
2.59544935813e-07
2.39999967902e-06
3.17214397219e-06
5.21457840893e-07
1.16555102228e-06
2.11550006065e-08
1.44848437228e-06
1.18316410798e-06
7.02824979594e-07
3.45708822697e-06
4.95155447091e-07
4.87607109799e-07
4.65644189621e-07
1.95248421743e-06
1.02269738844e-06
1.70696451775e-06
1.82804780088e-06
1.00822484737e-06
6.52807639496e-07
1.41689186789e-08
6.18299092652e-07
5.41319354773e-07
9.06189373198e-07
1.93325641366e-06
7.76834222597e-07
7.63372519876e-07
4.85091605965e-07
1.44218106889e-06
1.6446468717e-06
1.84023010266e-06
2.29558196991e-06
5.3756602249e-07
1.81512665705e-06
2.70519833004e-06
1.01336177139e-06
3.13901968546e-06
1.15134290752e-06
1.73270756666e-06
1.12867639396e-06
9.87763967828e-07
1.09115576324e-06
7.90553682954e-07
1.3446706363e-06
1.87406477166e-07
7.75418668589e-07
2.67730911783e-07
2.23064553039e-07
8.42066097786e-07
8.14237067172e-07
5.8625324303e-07
1.22722104598e-06
1.9323161472e-07
1.48677391565e-07
6.16769076003e-08
1.48470197239e-06
2.18754698198e-06
1.2201857224e-06
9.09582518365e-07
1.21541399728e-07
1.69750578724e-06
1.40243304646e-06
1.5051859442e-07
1.6514701232e-06
1.00838642413e-06
2.20961257804e-06
2.02184040397e-06
1.77227793611e-07
1.97725838699e-06
2.37905584829e-07
1.16184164722e-06
6.4780748736e-07
1.61172004591e-06
4.67840038972e-07
1.62728760519e-06
4.69123735233e-07
2.73310201079e-06
2.98556962297e-06
1.22584250426e-06
9.04879775385e-07
9.54830610947e-07
1.24375224907e-06
5.62233784014e-07
1.15685403985e-06
5.31537335288e-07
1.7171379177e-06
1.22031062741e-06
2.24066273635e-07
1.0748595682e-06
1.01241549279e-06
1.72319955835e-07
9.09385957741e-07
6.8466012973e-07
1.5164617568e-06
1.41478778459e-06
5.19741595267e-07
2.96639042778e-06
6.42384963515e-07
4.53116147774e-07
5.56847334997e-09
7.58411114756e-07
4.77016444911e-07
3.20147561172e-07
2.48662845248e-07
2.18587157017e-07
1.59682448103e-06
1.50753393691e-06

