# vtk DataFile Version 3.0
File Name: Molecule/sphere_excent/sphere_excent_0-s9.vtk
ASCII
DATASET UNSTRUCTURED_GRID
FIELD FieldData 1
TIME 1 1 double
0.0
POINTS 95 double
0.85110569 -0.52513897419 -0.0034564016387
0.80847203732 -0.30912777781 -0.5007044673
0.99806177616 0.0017872637836 -0.047814507037
0.80813783407 0.30961832404 -0.50100278854
0.52566862106 9.3343805929e-06 -0.85068958998
0.85109597445 0.52493369579 0.00051059329417
0.49997249246 0.80884641409 -0.30932044983
0.30893871188 0.49994260073 -0.80895262957
3.1291583582e-06 0.85063946247 -0.5257499814
0.49053567648 0.82493656874 0.27737760544
-5.6652184867e-05 1.0000076294 -0.0011321750935
0.0038355221041 0.86035132408 0.50813496113
-0.48762756586 0.83053958416 0.26894953847
-0.4997985661 0.80856657028 -0.31045374274
-0.85066181421 0.52566820383 0.00064292585012
0.82956969738 -0.33783969283 0.44288730621
0.51005721092 -0.8061555028 0.29376527667
0.30896168947 -0.49993696809 -0.80894631147
-5.3921385188e-06 -2.2873739169e-07 -0.99989175797
-0.30898609757 -0.49994251132 -0.80893141031
-1.3404139736e-06 -0.85065436363 -0.52572548389
-0.52572566271 4.3025856939e-06 -0.85065418482
-0.80851370096 -0.30916264653 -0.50061136484
-0.80855774879 0.30931779742 -0.50047916174
-0.99804073572 0.0020113973878 -0.047834433615
-0.85124874115 -0.52489209175 -0.0036086793989
-0.30894854665 0.49992251396 -0.8089620471
-0.49992862344 -0.8089094162 -0.30911901593
-0.50137525797 -0.80960303545 0.30546733737
0.00012055240222 -0.99982863665 0.00039485798334
-0.016046185046 -0.84926187992 0.52422392368
-0.82955360413 -0.33784091473 0.44331660867
-0.32070976496 -0.56527113914 0.75951427221
0.50000959635 -0.80879724026 -0.30942204595
0.00023175140086 -0.53485476971 0.8448985219
-0.20063370466 -0.32376116514 0.92412739992
0.3245408237 -0.55032455921 0.76858067513
0.20122598112 -0.32326206565 0.92427718639
-0.12626968324 0.25610128045 0.95806288719
0.12981545925 0.25559577346 0.95784473419
0.014599988237 0.50477880239 0.86150056124
0.00020336918533 0.05865111202 0.99828988314
-0.472959131 -0.27991291881 0.8354934454
-0.53818112612 0.018424382433 0.84253227711
-0.33583706617 -0.14531105757 0.9306563139
-0.24279876053 0.023870829493 0.96970629692
-0.10900340229 -0.12574613094 0.98603564501
-0.00033861218253 -0.28286024928 0.95899218321
0.10815967619 -0.12593589723 0.98610115051
0.23225070536 0.025479460135 0.9715397954
0.32717743516 -0.14609475434 0.93331968784
0.47261449695 -0.27959722281 0.83570885658
0.56193816662 0.0076344795525 0.82548397779
0.69871604443 -0.17285443842 0.69423019886
0.60393637419 -0.44377186894 0.66189092398
-0.60437750816 -0.44293886423 0.66200810671
-0.69844669104 -0.16385632753 0.69665557146
-0.86388874054 -0.003820072161 0.5036777854
-0.71030765772 0.14881777763 0.68708890676
-0.26250496507 0.3866160512 0.88408076763
0.26612260938 0.38371405005 0.88408303261
0.34277328849 0.54729562998 0.76300579309
-0.34471389651 0.17744472623 0.92168825865
-0.45174670219 0.29940757155 0.84020471573
-0.36127957702 0.53620100021 0.76273554564
0.47182232141 0.30667898059 0.82441490889
0.33352828026 0.16605371237 0.92693680525
-0.4444848001 0.69893193245 0.56024694443
-0.68838512897 0.59064173698 0.42125818133
-0.58352786303 0.45840886235 0.66880744696
-0.81717336178 0.30163240433 0.48941987753
0.95728796721 -0.15757916868 0.2424094528
0.95253145695 0.16093866527 0.25879049301
0.86232352257 -0.0027784921695 0.50644814968
0.80247586966 0.31579250097 0.5061852932
-0.95357775688 0.15841701627 0.25622686744
-0.95726835728 -0.15794971585 0.24225029349
0.70357352495 0.15685743093 0.69154679775
0.68341255188 0.59475153685 0.42352297902
0.42748317122 0.70722222328 0.56093126535
0.59570771456 0.46869280934 0.65182995796
0.027932908386 0.6984012723 0.71361404657
-0.17382188141 0.5565212965 0.81239843369
-0.18425051868 0.70907115936 0.68070876598
-0.7074021101 0.36699423194 0.60393667221
-0.5973252058 0.24674503505 0.76322746277
0.17391455173 -0.72688567638 0.66466277838
0.42213642597 -0.71107137203 0.56248366833
0.25735756755 -0.86403483152 0.43263575435
0.35368287563 0.012179848738 0.93535941839
0.44479084015 -0.064687602222 0.8932711482
0.64787650108 0.30743226409 0.69684743881
0.52996605635 0.16094681621 0.83161908388
0.4156819582 0.22416819632 0.88141489029
0.45291396976 0.088000148535 0.88721209764

CELLS 186 744
3 0 1 2
3 1 3 2
3 1 4 3
3 2 3 5
3 5 3 6
3 3 7 6
3 3 4 7
3 6 7 8
3 5 6 9
3 6 10 9
3 6 8 10
3 9 10 11
3 11 10 12
3 10 13 12
3 10 8 13
3 12 13 14
3 15 16 0
3 4 17 18
3 17 19 18
3 17 20 19
3 18 19 21
3 21 22 23
3 22 24 23
3 22 25 24
3 23 24 14
3 8 26 13
3 26 23 13
3 26 21 23
3 13 23 14
3 25 27 28
3 27 29 28
3 27 20 29
3 28 29 30
3 25 28 31
3 28 30 32
3 21 19 22
3 19 27 22
3 19 20 27
3 22 27 25
3 20 33 29
3 33 16 29
3 33 0 16
3 4 1 17
3 1 33 17
3 1 0 33
3 17 33 20
3 4 18 7
3 18 26 7
3 18 21 26
3 7 26 8
3 32 34 35
3 34 36 37
3 30 34 32
3 38 39 40
3 38 41 39
3 32 35 42
3 43 44 45
3 44 46 45
3 44 35 46
3 45 46 41
3 37 47 34
3 34 47 35
3 35 47 46
3 47 48 46
3 47 37 48
3 46 48 41
3 41 48 49
3 48 50 49
3 48 37 50
3 50 37 51
3 38 45 41
3 41 49 39
3 52 51 53
3 51 54 53
3 51 36 54
3 53 54 15
3 15 54 16
3 32 55 28
3 28 55 31
3 31 55 56
3 55 42 56
3 55 32 42
3 56 42 43
3 57 56 58
3 43 42 44
3 44 42 35
3 36 51 37
3 59 38 40
3 39 60 40
3 40 60 61
3 43 62 63
3 62 59 63
3 62 38 59
3 63 59 64
3 61 60 65
3 60 39 66
3 38 62 45
3 45 62 43
3 49 66 39
3 12 67 11
3 12 68 67
3 68 69 67
3 67 69 64
3 70 68 14
3 14 68 12
3 2 71 0
3 0 71 15
3 2 72 71
3 72 73 71
3 72 74 73
3 71 73 15
3 74 72 5
3 5 72 2
3 70 75 57
3 75 76 57
3 75 24 76
3 57 76 31
3 24 75 14
3 14 75 70
3 31 76 25
3 76 24 25
3 15 73 53
3 52 53 77
3 56 57 31
3 64 69 63
3 9 78 5
3 5 78 74
3 9 79 78
3 79 80 78
3 79 61 80
3 78 80 74
3 61 79 81
3 11 79 9
3 64 82 83
3 82 81 83
3 82 40 81
3 83 81 11
3 11 81 79
3 81 40 61
3 70 58 84
3 58 85 84
3 58 43 85
3 84 85 69
3 65 80 61
3 40 82 59
3 59 82 64
3 64 83 67
3 67 83 11
3 70 84 68
3 68 84 69
3 43 58 56
3 57 58 70
3 69 85 63
3 63 85 43
3 36 86 87
3 86 88 87
3 86 30 88
3 87 88 16
3 16 88 29
3 29 88 30
3 30 86 34
3 34 86 36
3 50 89 49
3 49 89 66
3 36 87 54
3 54 87 16
3 74 77 73
3 73 77 53
3 52 90 51
3 51 90 50
3 74 91 77
3 91 92 77
3 91 65 92
3 77 92 52
3 66 93 60
3 60 93 65
3 65 93 92
3 93 94 92
3 93 66 94
3 92 94 52
3 52 94 90
3 94 89 90
3 94 66 89
3 90 89 50
3 65 91 80
3 80 91 74

CELL_TYPES 186
5
5
5
5
5
5
5
5
5
5
5
5
5
5
5
5
5
5
5
5
5
5
5
5
5
5
5
5
5
5
5
5
5
5
5
5
5
5
5
5
5
5
5
5
5
5
5
5
5
5
5
5
5
5
5
5
5
5
5
5
5
5
5
5
5
5
5
5
5
5
5
5
5
5
5
5
5
5
5
5
5
5
5
5
5
5
5
5
5
5
5
5
5
5
5
5
5
5
5
5
5
5
5
5
5
5
5
5
5
5
5
5
5
5
5
5
5
5
5
5
5
5
5
5
5
5
5
5
5
5
5
5
5
5
5
5
5
5
5
5
5
5
5
5
5
5
5
5
5
5
5
5
5
5
5
5
5
5
5
5
5
5
5
5
5
5
5
5
5
5
5
5
5
5
5
5
5
5
5
5
5
5
5
5
5
5

CELL_DATA 186
SCALARS cell_data_0 double
LOOKUP_TABLE default
1.33913224e-06
8.61005586241e-07
3.30764124255e-08
5.71537065207e-07
5.76230538092e-07
1.57142179504e-06
3.10128468155e-07
5.89137283858e-07
3.58763846718e-07
2.27138694383e-06
3.67292140698e-07
3.96860108217e-07
2.84323376298e-07
1.66088966391e-06
4.33466318827e-07
4.43720787983e-07
3.71942700129e-06
3.76743023933e-07
5.32169354158e-07
4.25862229732e-07
3.90696946041e-07
9.75094379407e-08
7.40761801036e-07
1.12385567382e-06
6.83676350609e-07
6.9309773553e-07
1.54904894691e-06
4.4202968591e-07
6.7719342503e-07
2.20581771652e-06
2.38493482549e-06
1.00810588914e-06
2.1128089529e-06
5.09174336306e-06
5.12842518866e-06
6.62898698055e-07
1.60701057504e-06
3.66799062676e-07
2.91958054273e-07
5.2462663957e-07
3.61899902935e-06
4.1079707525e-06
8.23785267033e-07
1.76830691956e-06
5.63179676793e-07
9.85810340636e-08
3.20918052343e-07
6.32577288313e-07
3.72454220881e-07
4.11193924553e-07
4.43431945456e-07
2.78878203144e-06
5.91471932978e-06
3.94264633152e-06
1.95377967642e-06
2.42630220044e-06
2.23626534911e-06
2.20244992641e-06
1.84948046248e-06
7.85512057272e-07
3.37842540419e-07
1.47813262152e-06
6.8782915921e-07
1.06911413129e-06
2.29322840066e-06
1.39423342496e-06
8.09974906388e-07
1.31122985994e-06
1.26413876198e-06
4.98848900463e-07
3.86498083429e-06
4.18855190565e-06
4.92004914267e-06
3.33741505943e-06
8.07359668311e-07
3.35697158708e-06
7.71720429804e-06
1.366967941e-06
5.52833402976e-06
1.96795505526e-06
1.86322536203e-06
1.79940178891e-06
3.9471062773e-06
3.57525768268e-06
9.03320442246e-07
6.63689457064e-08
4.17746558856e-06
2.68137558366e-06
1.67595060199e-06
1.61541524505e-06
1.26007284091e-06
7.43363832921e-07
1.61660035488e-06
2.52525727947e-07
8.81541269135e-07
5.58501435555e-07
6.70383339321e-08
1.11657033498e-06
6.21274183625e-07
5.58142561114e-06
4.25076152211e-06
4.18289757598e-07
7.15638416449e-07
3.10192615566e-06
5.50599190409e-07
1.64297365575e-06
1.95161829295e-06
1.09088252816e-06
9.95464391213e-07
3.11426551152e-07
5.37532383845e-07
1.50782486076e-06
1.94405794061e-07
8.1470442182e-07
1.40436592564e-06
8.57853678165e-07
6.01694041424e-07
1.61538116804e-07
6.28895259654e-07
2.69456334168e-06
1.39563355669e-06
6.2108160601e-07
7.12915257717e-07
8.47661537681e-07
1.88300147874e-06
3.9713899122e-08
2.62998521673e-06
3.64446205142e-06
9.80797030347e-07
1.9542151464e-06
4.81348999164e-07
4.75950621148e-06
1.32297415673e-07
1.16189313454e-06
8.54488363305e-07
3.76684349344e-06
6.19115648566e-06
2.62221800054e-06
1.62915128495e-06
1.09477092297e-06
5.73260106907e-07
2.0959637902e-06
1.24338668168e-06
9.58978483639e-07
1.55690607175e-06
1.2273218519e-06
7.30964166717e-07
2.25473951323e-06
4.67910864983e-07
2.82891822141e-07
2.1624543596e-08
9.41659623858e-07
7.92643897659e-07
1.21891806998e-06
1.65400226389e-06
3.29261449697e-06
1.71526301864e-06
3.4090385199e-06
9.54752853366e-07
1.20354776061e-06
3.6345198158e-06
1.22110571811e-06
1.29623566344e-06
2.21704672404e-06
3.62900747393e-07
6.02806316692e-07
1.62786885733e-06
4.97498108231e-06
1.19284647928e-06
1.40999791073e-06
1.31931743158e-06
1.1625678182e-06
1.24540340005e-06
1.54963404558e-06
1.26092410686e-06
2.12256593546e-07
8.2864737417e-07
6.18048119576e-07
3.88121067786e-07
9.88897171514e-07
1.27715558999e-06
1.05776315968e-06
1.27454426777e-06
6.81947732333e-08
1.88071909858e-09
1.12531842414e-07

