# vtk DataFile Version 3.0
File Name: Molecule/sphere_excent/sphere_excent_0-s7.vtk
ASCII
DATASET UNSTRUCTURED_GRID
FIELD FieldData 1
TIME 1 1 double
0.0
POINTS 76 double
0.85078626871 -0.52566289902 -0.0014063932467
0.8089209795 -0.30895161629 -0.49999964237
0.99794399738 0.00031456688885 -0.018382202834
0.80879157782 0.30910268426 -0.50016313791
0.52572232485 1.5627472294e-06 -0.85065627098
0.8508387208 0.52539020777 -3.5343568015e-05
0.49996191263 0.80891960859 -0.3090057373
0.30897602439 0.49994423985 -0.80893421173
-3.1408735595e-06 0.85065239668 -0.52572846413
0.50050294399 0.80962520838 0.30687406659
-1.2738450096e-05 0.99990516901 8.9547102107e-05
-0.00022638963128 0.84978836775 0.52707517147
-0.49471133947 0.81690531969 0.29326784611
-0.49993491173 0.80887651443 -0.30927571654
-0.85061854124 0.52568900585 0.00028596713673
0.32708534598 -0.54633551836 0.77055203915
-0.00018003063451 -0.85008972883 0.52671259642
0.50082284212 -0.80943858624 0.30664655566
0.82934367657 -0.31828787923 0.45626035333
0.30898085237 -0.49994215369 -0.80893337727
-1.1290260318e-06 -1.2740230204e-07 -0.99989145994
-0.30898863077 -0.49994578958 -0.80892783403
-4.4680814426e-07 -0.85065472126 -0.52572476864
-0.52573353052 1.8063255993e-06 -0.85064929724
0.80024272203 0.31632319093 0.50519055128
0.35487356782 0.54403042793 0.75865066051
-0.80893588066 -0.30897390842 -0.49996179342
-0.80894488096 0.30899110436 -0.49994128942
-0.99843597412 0.00090158707462 -0.017978893593
-0.85084676743 -0.52555119991 -0.00145439466
-0.3089825511 0.4999435246 -0.80893278122
-0.49995198846 -0.80891889334 -0.30903333426
-0.50079405308 -0.80929452181 0.30707153678
2.0112943275e-06 -0.99990224838 0.00012085099297
-0.82924026251 -0.31856063008 0.45620375872
-0.32714384794 -0.54632675648 0.77048176527
0.4999576807 -0.80889469385 -0.30909338593
5.6934783061e-05 -0.53036135435 0.84782373905
-0.19101592898 -0.30895888805 0.93096673489
0.1909301579 -0.30878812075 0.93104571104
-0.34567928314 0.5340128541 0.77047109604
0.00061563123018 0.53017014265 0.84796500206
-0.13936620951 0.26317286491 0.9538308382
0.14063924551 0.26277250051 0.95384961367
5.7348726841e-05 0.054608546197 0.99848794937
-0.46807157993 -0.27508938313 0.83983504772
-0.54158860445 0.024614779279 0.83840847015
-0.3379419148 -0.14358815551 0.9302008152
-0.24937474728 0.018391750753 0.9681789875
-0.10420895368 -0.12343063205 0.98683345318
-0.00041447381955 -0.27595123649 0.96109157801
0.10370088369 -0.12325876206 0.9869120121
0.24956354499 0.018921880051 0.96808791161
0.33629581332 -0.14158092439 0.93107932806
0.5420588851 0.016602452844 0.83914363384
0.46793830395 -0.27487576008 0.83994907141
0.69603079557 -0.16634890437 0.69835299253
0.60398930311 -0.43637639284 0.66655296087
0.86163818836 -0.00044489162974 0.50730478764
-0.6039686799 -0.43612894416 0.66676563025
-0.69610482454 -0.1657076627 0.69875466824
-0.86171847582 -0.0015218355693 0.50722336769
-0.80448496342 0.30267071724 0.50628191233
-0.60527402163 0.43844228983 0.66435617208
0.46402391791 0.28151679039 0.83916640282
-0.26242494583 0.39067706466 0.88237410784
0.26335272193 0.39202436805 0.88155299425
-0.3505461812 0.16723887622 0.92147505283
-0.45620763302 0.28606057167 0.84256142378
0.35075965524 0.16703486443 0.92148804665
-0.44463679194 0.69714307785 0.56241178513
-0.68879812956 0.58844465017 0.42351263762
0.95670711994 -0.15921638906 0.2435785979
0.95157581568 0.16166897118 0.26161423326
-0.95182037354 0.16092555225 0.26123613119
-0.95665663481 -0.15933890641 0.24370746315

CELLS 148 592
3 0 1 2
3 1 3 2
3 1 4 3
3 2 3 5
3 5 3 6
3 3 7 6
3 3 4 7
3 6 7 8
3 5 6 9
3 6 10 9
3 6 8 10
3 9 10 11
3 11 10 12
3 10 13 12
3 10 8 13
3 12 13 14
3 15 16 17
3 18 17 0
3 4 19 20
3 19 21 20
3 19 22 21
3 20 21 23
3 5 9 24
3 9 25 24
3 9 11 25
3 23 26 27
3 26 28 27
3 26 29 28
3 27 28 14
3 8 30 13
3 30 27 13
3 30 23 27
3 13 27 14
3 29 31 32
3 31 33 32
3 31 22 33
3 32 33 16
3 29 32 34
3 32 16 35
3 23 21 26
3 21 31 26
3 21 22 31
3 26 31 29
3 22 36 33
3 36 17 33
3 36 0 17
3 33 17 16
3 4 1 19
3 1 36 19
3 1 0 36
3 19 36 22
3 4 20 7
3 20 30 7
3 20 23 30
3 7 30 8
3 35 37 38
3 37 15 39
3 15 37 16
3 16 37 35
3 40 41 11
3 11 41 25
3 42 43 41
3 42 44 43
3 35 38 45
3 46 47 48
3 47 49 48
3 47 38 49
3 48 49 44
3 39 50 37
3 37 50 38
3 38 50 49
3 50 51 49
3 50 39 51
3 49 51 44
3 44 51 52
3 51 53 52
3 51 39 53
3 52 53 54
3 53 39 55
3 42 48 44
3 44 52 43
3 54 55 56
3 55 57 56
3 55 15 57
3 56 57 18
3 18 57 17
3 17 57 15
3 24 54 58
3 35 59 32
3 32 59 34
3 34 59 60
3 59 45 60
3 59 35 45
3 60 45 46
3 60 46 61
3 46 45 47
3 47 45 38
3 15 55 39
3 53 55 54
3 62 46 63
3 25 64 24
3 24 64 54
3 40 65 41
3 65 42 41
3 43 66 41
3 41 66 25
3 46 67 68
3 67 65 68
3 67 42 65
3 68 65 40
3 25 66 64
3 66 69 64
3 66 43 69
3 64 69 54
3 42 67 48
3 48 67 46
3 54 69 52
3 52 69 43
3 12 70 11
3 11 70 40
3 12 71 70
3 71 63 70
3 71 62 63
3 70 63 40
3 62 71 14
3 14 71 12
3 2 72 0
3 0 72 18
3 2 73 72
3 73 58 72
3 73 24 58
3 72 58 18
3 24 73 5
3 5 73 2
3 62 74 61
3 74 75 61
3 74 28 75
3 61 75 34
3 28 74 14
3 14 74 62
3 34 75 29
3 75 28 29
3 18 58 56
3 56 58 54
3 62 61 46
3 60 61 34
3 40 63 68
3 68 63 46

CELL_TYPES 148
5
5
5
5
5
5
5
5
5
5
5
5
5
5
5
5
5
5
5
5
5
5
5
5
5
5
5
5
5
5
5
5
5
5
5
5
5
5
5
5
5
5
5
5
5
5
5
5
5
5
5
5
5
5
5
5
5
5
5
5
5
5
5
5
5
5
5
5
5
5
5
5
5
5
5
5
5
5
5
5
5
5
5
5
5
5
5
5
5
5
5
5
5
5
5
5
5
5
5
5
5
5
5
5
5
5
5
5
5
5
5
5
5
5
5
5
5
5
5
5
5
5
5
5
5
5
5
5
5
5
5
5
5
5
5
5
5
5
5
5
5
5
5
5
5
5
5
5

CELL_DATA 148
SCALARS cell_data_0 double
LOOKUP_TABLE default
1.21896547592e-06
7.65778666746e-07
3.12948671129e-08
8.44247840972e-07
4.69971203496e-07
1.45999490914e-06
3.96242166787e-07
6.6742360885e-07
1.7935217088e-06
3.8086801846e-06
1.08130919713e-06
1.67981320428e-06
3.35745308433e-06
2.22638028626e-07
1.41068769453e-07
6.30788258732e-08
8.5973349412e-06
5.97076844969e-06
4.20985004082e-07
4.88863744133e-07
3.55814421013e-07
2.68386713144e-07
5.51047208015e-06
1.19256667103e-05
2.68639484334e-06
3.86674986186e-08
6.68527893849e-07
1.62509205355e-06
8.85422200782e-07
2.15739580485e-07
1.8836437027e-06
4.84249758832e-07
3.93996805992e-07
2.11613949545e-06
2.56719531813e-06
8.56770462507e-07
1.85800114144e-07
5.54384073185e-06
8.21612033831e-06
5.97539621021e-07
1.33964108427e-06
4.18071840526e-07
2.5983655823e-07
8.40013946009e-07
2.31689159241e-06
2.04079398584e-06
4.31962161622e-07
5.88962143772e-07
1.4002035888e-06
1.84844845769e-07
2.84421925268e-07
4.04829494768e-07
4.99423313698e-07
3.4228434522e-07
3.27831616308e-07
1.48039003695e-07
1.6336163026e-07
2.19084791873e-06
2.52892031651e-06
9.06381760213e-06
8.40933054244e-07
3.62411749516e-06
8.02810763534e-07
1.85244896202e-06
5.82852963372e-08
5.82733315404e-07
2.55989723047e-06
1.13500066109e-06
1.48743496774e-06
1.60006255067e-06
1.97611537442e-06
1.16218004731e-06
1.67952556222e-06
9.13223899033e-07
1.12153999611e-06
1.47484069626e-07
2.54616740325e-06
7.84062795785e-07
1.51069527534e-06
6.14897270834e-06
5.08520905676e-06
2.6899693475e-06
1.56995133512e-06
3.3786947158e-06
1.16357491364e-06
5.48702165177e-06
2.61392043534e-06
3.60115383935e-06
3.02702665172e-06
5.10388639391e-06
5.34201614884e-07
2.0985524212e-06
3.11355294832e-06
1.79570161925e-06
2.83141035642e-06
6.48389680728e-07
1.84893839086e-06
1.74062921196e-06
8.43606578299e-08
1.13132115081e-05
2.73637105283e-06
3.12566268317e-06
1.16962292585e-06
2.61525164228e-06
3.69946513133e-07
1.8795426794e-06
4.68139502655e-06
4.21977170506e-06
1.37279295195e-06
2.47002115298e-06
5.80494479747e-06
2.96203419119e-06
3.8532692848e-06
4.51836373917e-06
9.31740410004e-07
2.75347578045e-06
7.49951277912e-07
4.67593928823e-07
2.08092076878e-06
4.2254001176e-06
3.11505732882e-06
2.43904356043e-06
2.40467571133e-06
3.70465145958e-06
3.94192657383e-06
8.81609710292e-07
7.13494129773e-07
3.77265406139e-06
6.90372141355e-07
3.92210511628e-06
2.24458696922e-06
6.84604842987e-08
2.10467653699e-06
1.09126681949e-07
1.47376174029e-06
3.09327951764e-06
1.36034759764e-06
2.01652833159e-07
9.764806015e-07
1.87491009983e-06
3.69302728008e-06
1.16293036921e-06
5.78094187397e-07
1.0926950032e-06
1.74188271152e-06
2.22040329688e-07
3.26604414653e-06
4.65912157044e-06

