# vtk DataFile Version 3.0
File Name: Molecule/sphere_excent/sphere_excent_0-s30.vtk
ASCII
DATASET UNSTRUCTURED_GRID
FIELD FieldData 1
TIME 1 1 double
0.0
POINTS 1822 double
-0.41111889482 0.25184699893 0.87607997656
-0.3962816596 0.20316368341 0.89536750317
-0.35565766692 0.25960764289 0.89783942699
-0.52749598026 0.31232455373 0.79002398252
-0.51023930311 0.24724580348 0.82371681929
-0.47073861957 0.33206596971 0.81738990545
0.62391930819 0.70516186953 0.33684042096
0.61219376326 0.65509617329 0.44264256954
0.69365805387 0.62105500698 0.36468520761
0.12598198652 -0.67013758421 0.73146820068
0.16763567924 -0.72644996643 0.6661516428
0.2114559859 -0.65903031826 0.7217206955
0.43553107977 -0.57665836811 0.69120252132
0.41295078397 -0.54114246368 0.73254793882
0.38473683596 -0.59738820791 0.7036203146
0.57747089863 -0.64396518469 0.50189268589
0.51302993298 -0.62897378206 0.58408629894
0.474244982 -0.73188775778 0.48930034041
-0.44632291794 -0.59742158651 -0.66608065367
-0.59100478888 -0.62221962214 -0.51309996843
-0.59292954206 -0.43551623821 -0.67701518536
-0.77288907766 -0.58572250605 0.24376136065
-0.71226161718 -0.61982584 0.32943040133
-0.7882656455 -0.50942903757 0.34512993693
-0.47400730848 -0.793810606 -0.38047963381
-0.6376863122 -0.70366990566 -0.31301507354
-0.21602401137 -0.043394561857 0.97542107105
-0.16222418845 -0.045167185366 0.98571252823
-0.1720739305 0.008033358492 0.98501229286
-0.034757625312 0.99597340822 -0.079152412713
0.0052314838395 0.96813046932 -0.25021573901
-0.19060753286 0.95907276869 -0.2091511488
-0.19429881871 0.89292293787 -0.4061486125
0.79129850864 0.34685242176 -0.50240063667
0.62781983614 0.42338162661 -0.65274518728
0.68345141411 0.54144489765 -0.48911643028
-0.9002816081 -0.3532986939 -0.25342452526
-0.9666441083 -0.22557973862 -0.12131922692
-0.95039576292 -0.1318217963 -0.28102177382
-0.9056173563 -0.42054644227 -0.053594294935
-0.99214613438 -0.040371775627 -0.11720427126
-0.99867486954 0.03170511499 0.038071665913
-0.99078601599 -0.12603715062 0.049667343497
-0.98052483797 -0.033195082098 0.19295434654
-0.96150040627 -0.16353705525 0.22072742879
-0.95754861832 -0.2874751687 0.022348675877
0.60017383099 -0.79441696405 0.093292459846
0.69042140245 -0.72285437584 0.028619464487
0.67118179798 -0.71892118454 0.18066486716
0.59986263514 0.76409214735 0.23715214431
0.70487976074 0.67220252752 0.22649797797
0.65267783403 0.74901014566 0.11399583519
0.52560323477 0.78139537573 0.33638638258
0.37233695388 0.90374881029 -0.20992308855
0.23141168058 0.94809478521 -0.21783336997
0.32454690337 0.94309872389 -0.066543355584
0.14618608356 0.98527503014 -0.087811246514
0.2270192802 0.97224915028 0.055914245546
-0.69958794117 -0.10270732641 -0.70682948828
-0.82927852869 0.044034793973 -0.55621159077
-0.68905979395 0.13309949636 -0.71168375015
-0.78949028254 0.2947755754 -0.53793090582
-0.90893751383 0.16100981832 -0.38384103775
-0.87954133749 0.35954502225 -0.30899533629
0.77660000324 0.56250059605 0.28373080492
-0.68557208776 -0.29964515567 0.66334670782
-0.65015596151 -0.37969082594 0.6581364274
-0.61284148693 -0.30785512924 0.72777372599
0.11041852087 0.89368718863 0.43484920263
0.0016387663782 0.91468930244 0.40400224924
0.026080228388 0.86415147781 0.5024061203
0.76159954071 -0.62116914988 0.18273147941
0.70505404472 -0.64578992128 0.29304713011
0.74750268459 0.65947765112 0.078249663115
0.79269194603 0.58756762743 0.162267223
0.85384976864 0.47900816798 0.2036575973
0.2450145334 0.63172090054 0.73553282022
0.29786106944 0.65751594305 0.6919862628
0.20270083845 0.69389867783 0.69094616175
0.35069209337 0.58590096235 0.7305586338
0.28043824434 0.60042738914 0.74850124121
-0.5945301652 0.55883073807 0.57808697224
-0.64246302843 0.47520902753 0.60095393658
-0.5801975131 0.5041911602 0.63964682817
-0.010569511913 -0.21015408635 0.97760498524
-0.035808820277 -0.16333146393 0.98591089249
-0.056184161454 -0.19579230249 0.9790173173
-0.38743826747 0.87165242434 -0.30011719465
-0.55496037006 0.80698233843 -0.20123320818
-0.43249723315 0.88915657997 -0.14884150028
-0.56628262997 0.74055445194 -0.36137577891
-0.56203401089 -0.25504073501 0.78681093454
-0.53086435795 -0.33359876275 0.77899938822
-0.61701112986 -0.21137017012 0.75799036026
-0.57489436865 -0.17209748924 0.79989558458
-0.79045337439 0.4895914197 0.36809793115
-0.80974537134 0.53100574017 0.24894045293
-0.86687749624 0.40885224938 0.28515207767
-0.78396588564 0.60029673576 0.15812791884
-0.86339145899 0.47223973274 0.17681643367
-0.73129212856 0.63737249374 0.24283996224
-0.9328276515 0.29554781318 0.20567137003
-0.93574517965 0.34830409288 0.053415659815
-0.96319794655 0.24995861948 0.097857154906
-0.96474844217 0.25405246019 -0.066377572715
-0.80284446478 0.59283739328 -0.06115667522
-0.88670349121 0.45816749334 -0.055971711874
-0.84323972464 0.5324742794 0.069147974253
0.37098279595 0.63387340307 0.67858535051
0.42189627886 0.58294993639 0.69431579113
0.78730487823 0.32442751527 0.52389878035
0.723782897 0.30745574832 0.61776846647
0.783408463 0.23731769621 0.574395895
0.68748414516 0.23881994188 0.68543249369
0.74132567644 0.21282801032 0.63650316
-0.12416626513 0.94978266954 0.2871389389
0.0068737594411 0.96756702662 0.25251448154
-0.11038027704 0.97715485096 0.18139879405
-0.69782030582 0.6879273653 -0.19913317263
-0.29639840126 0.46189004183 -0.83595919609
-0.38606345654 0.65819764137 -0.64614611864
-0.14905184507 0.66272586584 -0.73385959864
-0.021339133382 0.80721944571 -0.58985942602
-0.23296189308 0.78014749289 -0.58053690195
-0.38286349177 0.7948704958 -0.47075638175
-0.61152219772 0.254165411 0.74910598993
-0.64995837212 0.29731035233 0.69940155745
-0.67643135786 0.2180839926 0.70346146822
0.72607147694 0.4139547348 0.54883009195
-0.81512320042 0.54562562704 -0.19394217432
-0.71611714363 0.61873960495 -0.32275927067
0.6397767663 0.54895830154 0.53791540861
0.57329910994 0.57950639725 0.57913702726
0.60204041004 0.51772731543 0.60784339905
0.66404056549 -0.18178147078 -0.72518956661
0.76118671894 -0.32863751054 -0.55885189772
0.61001414061 -0.38912642002 -0.69022160769
0.22513377666 0.4879488647 -0.84259176254
0.0016445537331 0.52309089899 -0.85219883919
0.10259746015 0.66674220562 -0.73819297552
0.21413245797 -0.3207873106 0.92258542776
0.24788826704 -0.26113542914 0.93293023109
0.17872360349 -0.25875279307 0.9491494894
-0.93637365103 -0.11452104151 0.33171796799
-0.91953569651 -0.22131861746 0.32444486022
-0.88374018669 -0.18965002894 0.42774906754
-0.8240005374 -0.2185575515 0.52270662785
-0.83603352308 -0.30395814776 0.4566540122
0.73471039534 -0.31143701077 0.60261291265
0.79227358103 -0.31054544449 0.52522712946
0.78148657084 -0.2327272892 0.57876688242
0.83457243443 -0.22002445161 0.50495010614
0.072802320123 0.059805579484 0.99554926157
0.11293037981 0.047849573195 0.9924518466
0.10601226985 0.096472688019 0.98964989185
0.28616544604 -0.31195262074 0.90578752756
0.31834179163 -0.25095206499 0.91409814358
0.28784403205 -0.44429907203 0.84836685658
0.33340296149 -0.38782158494 0.85917311907
0.27072006464 -0.37573039532 0.88627660275
0.33108520508 0.51841181517 0.788443923
0.38343834877 0.51246964931 0.7683147788
0.37039253116 0.45398736 0.8103402257
-0.00073904008605 0.031585857272 0.99949640036
0.026582203805 0.07983340323 0.99645322561
-0.018364425749 0.082950085402 0.99638354778
0.32643711567 0.62388449907 -0.71007597446
0.22210605443 0.75260609388 -0.61950927973
0.41500967741 0.72305482626 -0.55178064108
0.83119058609 0.22441890836 0.50867044926
0.85022199154 0.28409722447 0.44315728545
0.87439191341 0.18780763447 0.44739577174
0.51351976395 0.57059335709 -0.64078021049
0.4408583343 0.47377389669 -0.76111751795
0.89033383131 -0.32732892036 0.31536459923
0.92851859331 -0.28229883313 0.24118119478
0.92175841331 -0.24007359147 0.30436846614
-0.77492177486 -0.1984013617 0.60004323721
-0.76918029785 -0.30016320944 0.56409567595
0.38120996952 -0.21930681169 0.89802718163
0.38036704063 -0.28900009394 0.87835848331
-0.77239453793 0.086909875274 0.62890958786
-0.81091183424 0.04260193184 0.58325177431
-0.77169686556 -0.0062405904755 0.63591837883
0.85120642185 -0.30789992213 0.42498543859
0.22136075795 -0.53049361706 -0.8170132637
0.0060043754056 -0.50373673439 -0.8637791276
0.12958981097 -0.30964908004 -0.94191265106
-0.11869966984 -0.25766471028 -0.95888137817
-0.22930841148 -0.42698273063 -0.87467139959
-0.0026730357204 -0.047793708742 -0.99880087376
0.13575163484 -0.70063626766 -0.70041143894
-0.069780439138 -0.67847204208 -0.73044961691
0.32455351949 -0.68321609497 -0.65291285515
0.23322792351 -0.81671786308 -0.52758568525
0.014280052856 -0.82786238194 -0.55971497297
0.54447358847 0.062256060541 -0.83638912439
0.28717514873 0.079694792628 -0.95446783304
0.40525889397 0.25403779745 -0.87782394886
0.17347422242 0.30010399222 -0.93781304359
0.24085493386 -0.0079905902967 0.97048527002
0.23231096566 -0.05631338805 0.97100478411
0.27858293056 -0.0208894182 0.96016967297
0.29804730415 0.34661221504 0.88926541805
0.34542402625 0.29997470975 0.88919579983
0.35115918517 0.35412719846 0.86673247814
-0.063125252724 -0.85859328508 0.5087043047
-0.033023677766 -0.80070340633 0.59813755751
-0.13840091228 -0.78871059418 0.59898084402
-0.079396463931 -0.74095577002 0.66683387756
0.72815811634 -0.46009084582 0.50789672136
0.6694971323 -0.48409375548 0.56333053112
0.66796797514 -0.55969756842 0.49052551389
0.59547334909 -0.55796772242 0.5780081749
-0.33011129498 -0.38382059336 0.86237853765
-0.28583097458 -0.35790878534 0.88892585039
-0.32609906793 -0.31820398569 0.89013850689
-0.23628410697 -0.80053216219 0.55073016882
-0.23234462738 -0.74532413483 0.6248961091
-0.15617220104 -0.41781827807 0.89499932528
-0.22253583372 -0.43360027671 0.87318480015
-0.1902615428 -0.48317372799 0.85457032919
0.21501031518 -0.21815547347 0.95184355974
0.81634664536 0.46571093798 0.34157076478
0.87484794855 0.38638582826 0.29196417332
0.83391427994 0.37773033977 0.40142130852
0.1300611347 0.0026772278361 0.99150407314
[...]
CELL_DATA 3640
SCALARS cell_data_0 double
LOOKUP_TABLE default
3.82108360891e-08
4.02779367203e-08
2.21474812373e-08
5.06407455814e-08
1.96139007401e-08
8.39624456086e-08
4.41640927563e-08
1.87258336893e-09
1.30020446516e-07
7.42511024474e-08
8.11662022022e-08
2.14549222145e-08
6.93811422413e-08
9.6572838137e-09
9.62316944178e-08
4.3060376006e-08
1.80704555245e-09
3.43241769519e-09
4.0627891e-11
2.15204408649e-09
8.25919309184e-08
4.3651492641e-08
1.83906982766e-08
1.86495705211e-08
1.70753054759e-08
7.11450923828e-08
6.71724780883e-08
1.15324913826e-08
2.06097190186e-08
2.6564679753e-08
3.19362380827e-08
1.23453174231e-07
3.02562387073e-08
2.65689238399e-08
8.37849458724e-08
4.71522967269e-08
2.02593843831e-08
3.69671859741e-08
1.40062330937e-08
2.60020545987e-08
1.15764615999e-08
2.02555066622e-08
5.25084938626e-09
2.85657876517e-09
6.29979508127e-08
4.99425875416e-08
1.69689945423e-08
1.10763899239e-08
4.3300468027e-10
3.87739226445e-08
4.26628331787e-08
5.58310346511e-09
3.87142106953e-08
2.71651622443e-08
3.13854611617e-09
3.35494744756e-08
2.18114585364e-09
1.49464164815e-08
7.10688898801e-09
4.3594028431e-08
1.6864067066e-08
3.11705318161e-08
5.53414582725e-08
9.36466357507e-08
5.21210718727e-08
2.74526913991e-09
1.4630721988e-08
8.16880635361e-08
1.1930242891e-08
7.46231692003e-08
4.45459404712e-08
3.09598535586e-08
1.57390380108e-08
1.77101598842e-08
3.12691010397e-09
6.45517585629e-08
1.25213985412e-08
2.28386630995e-08
3.90865651714e-08
5.74333437094e-08
4.74030309366e-08
2.59318742318e-08
1.66255033505e-08
2.9227891928e-08
3.04703917842e-08
4.84829856208e-08
7.50366028545e-09
5.8107003145e-09
4.79838078605e-09
3.89014848012e-08
2.16799391723e-08
1.96691920852e-08
6.38357922664e-08
9.36627617187e-08
9.2542088022e-08
1.50443850904e-08
1.76475125658e-08
9.51425255927e-08
4.53625547568e-08
4.75400940066e-08
6.88773209537e-09
1.383853878e-08
3.56311740226e-08
2.60239675048e-11
1.08065647845e-08
1.23340877614e-08
2.02200960596e-08
4.31324394977e-09
3.94491124549e-08
1.08516703804e-08
3.77110271877e-08
1.71810502818e-07
3.0265643739e-08
8.92538328926e-08
3.11745697087e-08
4.21164722012e-10
6.50767129013e-08
8.77542143407e-09
3.96207303784e-08
7.99800231545e-09
2.79316155668e-08
7.04123234016e-08
1.43362777308e-08
3.69615175027e-08
3.36079724968e-08
1.4172451777e-08
4.60169712367e-08
2.89188366832e-08
7.73100555234e-08
1.36573098067e-08
3.7564612024e-08
6.89730653292e-09
2.9942429434e-08
3.91706126413e-08
3.88081729986e-08
9.48547831266e-08
2.48040021693e-08
6.59109299946e-08
3.14515807528e-09
2.42746210491e-08
4.11968454273e-09
5.76639320907e-08
5.27430136682e-09
1.90698296175e-08
3.10491445771e-09
5.71130502335e-08
1.65648453592e-08
8.1194322088e-09
3.31879466767e-08
5.54698102768e-09
1.04375240384e-08
8.12203477477e-08
4.51587239126e-09
9.92427530151e-09
3.24359353855e-08
1.89906863494e-09
2.50301494063e-09
2.71665182313e-09
5.0042455986e-08
1.08449426348e-08
1.13049233876e-08
2.91480525004e-08
3.72859503201e-08
1.04869138582e-08
2.89378806663e-08
6.59437287705e-08
1.86083536968e-08
2.35356355598e-08
5.92126964062e-08
2.79932670193e-08
2.48119528137e-08
2.32631204094e-08
1.5884426072e-08
2.94586254892e-09
6.94803638473e-08
5.09754015789e-08
5.37712953889e-08
1.47542573631e-08
2.30825670998e-08
7.39811050638e-08
2.71257419609e-08
4.43915237818e-08
4.18792416618e-09
3.13571291892e-09
2.68177181839e-08
1.25164734591e-08
7.30343352308e-09
2.06085007385e-08
3.27761247755e-08
9.5599730864e-09
1.56600512955e-08
9.44949159577e-09
1.47020677496e-08
2.99992232839e-08
2.37097150424e-08
6.22435496832e-09
1.96433909648e-08
4.59355089516e-08
9.98740481653e-08
1.45314461554e-11
1.11971635689e-10
6.26202030872e-09
1.52830250963e-08
2.4928479162e-08
3.12496960891e-09
4.84618220557e-09
1.35746028819e-08
6.82094449769e-08
1.56756620645e-08
1.5196676824e-08
3.4341705091e-08
3.31892455519e-08
3.81377091707e-08
2.30397784373e-08
1.51625463876e-08
2.65185987262e-08
2.60852644707e-08
4.2309462994e-08
4.19064436692e-08
1.67417027677e-08
2.91721483044e-08
2.8602152052e-08
3.43735313917e-08
1.55950268842e-08
6.77549722528e-08
3.62263251195e-08
1.22612464819e-08
1.72554716806e-09
1.69111184821e-08
1.99938548434e-08
2.46836469822e-08
2.44233105992e-08
5.8610794338e-09
4.93943369498e-09
4.97113130299e-08
2.44514223667e-08
1.63758959397e-09
4.02857922167e-08
6.60068820069e-08
3.12544672423e-08
7.92387488726e-08
6.42580093138e-08
5.73655060554e-09
3.25579758949e-08
6.58272645407e-08
5.26496314879e-08
5.95330794704e-08
3.8095348305e-08
4.88768199323e-08
7.56185646827e-08
1.5795351752e-08
3.71459044319e-08
3.95288535471e-08
1.89156594607e-08
2.71710222692e-08
6.04789449473e-08
6.50092105496e-08
3.70312337846e-09
7.55434577004e-08
6.21501854507e-08
4.11374002891e-08
6.41262622708e-09
4.15671455112e-09
4.80945507231e-08
6.38484489664e-08
1.00944471702e-09
1.54934208047e-08
2.72609942844e-08
3.65606310663e-09
8.95807911809e-08
3.78652286106e-09
1.52228449824e-08
1.05539278133e-08
1.88292877536e-08
6.67805593952e-09
6.78934619906e-08
3.20964492315e-08
1.32147825064e-08
9.02992298176e-08
3.38123567166e-08
5.71079125663e-08
5.54320486842e-09
4.29354387427e-08
3.24393302044e-09
5.11284613832e-08
9.60272079977e-09
2.69012986758e-08
1.50955394837e-08
5.36384292637e-08
1.97028218692e-08
3.17982859314e-09
2.35808455752e-08
5.31781253839e-08
3.80403305022e-08
3.21864942656e-08
1.64424111545e-08
5.55022720536e-09
1.45101011806e-08
1.4162516337e-08
4.4946225837e-08
3.74409431054e-08
5.88557439397e-09
4.90180028078e-09
1.89693076718e-08
2.51445058319e-08
2.38478858606e-08
1.33353795718e-09
2.2085252304e-08
3.41988742064e-08
5.04222656216e-09
1.08846794944e-08
7.54059413327e-08
1.4986053509e-08
4.43629967329e-08
3.68478075793e-08
9.22691930939e-10
1.44698070044e-08
1.09537186201e-08
5.54774716152e-08
4.08389619378e-09
1.87519465917e-08
2.10093360767e-08
3.66391390842e-08
7.73586859207e-08
5.11555078185e-08
3.10274952796e-08
3.63260139064e-08
4.24157937302e-10
2.11488306231e-08
5.92387031685e-08
1.7486371625e-09
2.75136532226e-08
6.39388151173e-09
2.84460713328e-08
3.83681419537e-09
4.07721867582e-08
4.40462078442e-08
1.44951541379e-08
3.24641206152e-08
4.31392772697e-08
4.61365546876e-08
5.12012718717e-08
4.89946280636e-08
9.02516953921e-09
5.14412685753e-09
3.24031997124e-08
6.04234094711e-09
3.99624138457e-08
5.08393268722e-08
1.0236250521e-08
6.78902906727e-08
6.13456730491e-08
2.5267804756e-08
1.82628831132e-10
2.93352785646e-09
4.68315841577e-08
4.92930330886e-08
9.85158162837e-09
9.36236332094e-09
3.11724398791e-08
4.50648944813e-08
4.09925715465e-09
2.34361798986e-09
3.32100036855e-08
3.82728137426e-09
5.98562643365e-08
4.25999780872e-08
6.08906720098e-09
1.49072938405e-09
1.95887976949e-08
7.30463053568e-08
2.45395871283e-08
3.3947674072e-08
1.54420084871e-09
1.23521692129e-08
3.12537822743e-08
3.15311451078e-08
7.11555861761e-09
1.17904066589e-08
4.94303331101e-09
2.62229119056e-08
3.30169537646e-08
4.2377347891e-09
3.93517001138e-08
1.19830858288e-08
3.62532031141e-08
9.70816702576e-08
1.74780358464e-09
3.90080396901e-08
1.41989126592e-08
9.53890018303e-09
5.29535088007e-09
6.22252122711e-08
2.14771331315e-08
7.02481839452e-08
1.95948726582e-08
6.50607344002e-08
3.92901023346e-08
1.10473776841e-08
3.72017819358e-09
1.15633240668e-08
2.22388999484e-08
3.15531119692e-08
2.74719047496e-09
2.76497056616e-08
2.16126244738e-08
2.10693518796e-08
2.98025143145e-08
6.95854222012e-08
4.30292903538e-08
1.2860347994e-08
3.67427605506e-08
4.09391492147e-08
7.34131039286e-08
2.33737394941e-08
9.45535744038e-10
4.06030781038e-09
6.17225980223e-09
1.4171466133e-08
3.81388931236e-10
4.02724850367e-08
2.8150550702e-08
7.28289468721e-08
2.68539060448e-08
4.50168121374e-08
1.60809688532e-08
4.17828177672e-08
6.67705009416e-09
3.30496989632e-09
3.67582150236e-09
1.04892045584e-08
1.04513301112e-08
2.53751647391e-08
8.80267273121e-09
1.49655224479e-08
3.24057830522e-08
1.51920592326e-08
1.04345642661e-08
2.08257885308e-08
3.25394438587e-08
6.97532859507e-09
2.9672292915e-08
3.15837791523e-08
3.453765763e-08
9.2386551059e-09
6.96622986297e-08
5.4313186642e-08
3.94155519259e-08
7.82055315725e-08
1.01069258604e-10
2.3386982779e-08
2.39765993859e-08
1.05396483762e-08
5.61881847316e-08
8.36719913642e-09
3.68921399046e-08
2.14707799889e-08
1.92362174953e-08
3.82078436465e-08
8.21307547363e-08
9.40746848333e-09
1.49133860447e-08
1.05302417651e-08
7.1339940545e-08
5.8621718523e-09
1.4303697593e-08
5.85693616021e-08
3.00875074716e-09
3.41360339801e-09
2.44127584585e-08
2.15763858698e-08
6.91055743661e-08
4.66705649355e-08
2.15384344311e-08
5.63672294198e-08
2.18170549202e-08
5.3759976935e-08
2.16360507479e-08
2.62727546449e-08
1.09891784046e-08
4.46351522422e-08
4.5710789041e-08
2.55796091625e-08
4.00307126025e-08
1.88206669054e-08
1.12188228035e-08
5.93103569098e-08
3.95940941922e-08
3.64164523378e-08
3.39079298191e-08
1.02578621791e-08
5.47106137287e-08
6.06118807673e-09
4.3212753055e-08
1.65269679423e-08
2.80638743688e-08
1.1301080956e-08
1.20979032273e-08
3.57979497194e-08
4.15552561355e-08
1.66949864022e-08
7.05142240284e-09
2.2069060476e-08
5.31161151588e-08
1.93527165857e-09
1.01163473115e-07
2.65505374669e-08
1.20517168919e-08
1.1776713904e-08
3.899367118e-09
2.01160667816e-09
2.96563255799e-08
4.14406328681e-09
7.03697858391e-09
1.24509286602e-08
5.2405821289e-09
1.09371838605e-08
1.03311871919e-08
9.86005134115e-09
1.4856935036e-08
2.69522127173e-08
1.42545636456e-09
3.21932990166e-08
1.92129866111e-08
1.54315018999e-08
2.33494958181e-08
9.55100467187e-09
2.95013683219e-09
9.27263318446e-09
1.95394931457e-09
8.74945534147e-09
2.53959698078e-08
7.90610649235e-08
1.04939612049e-08
5.25554476375e-08
1.52499163828e-08
7.43171243145e-08
1.13262001279e-08
7.97055175733e-09
8.41244353724e-08
4.61809484713e-09
1.25737234744e-08
7.4191999612e-09
1.7254302181e-08
1.6455760701e-08
1.64151900467e-08
6.82496007978e-08
3.66880123394e-08
3.69510755863e-08
2.72380215462e-08
3.49110068062e-09
3.82509032424e-08
3.76688713799e-09
1.03709876575e-08
3.46681655881e-09
2.79535069032e-08
8.58244963405e-09
1.92440456513e-08
3.16998160317e-08
4.74725855057e-08
8.27522544447e-09
2.222789995e-08
1.66120934055e-08
1.99924157487e-08
3.04416735822e-08
2.73638940451e-08
1.95080853811e-08
1.06862211646e-08
2.93890027564e-09
3.27339940087e-08
1.67201796934e-08
9.40975240433e-09
7.49246446136e-08
3.34680907185e-08
4.11766681155e-09
2.39660878746e-08
3.85279512519e-08
3.18372301561e-08
1.77149923326e-08
5.60733611386e-08
4.39999289868e-08
1.42367988662e-09
3.37443187435e-08
3.38107664264e-08
1.7578213987e-08
2.73079893096e-08
2.90183951807e-09
2.53112610423e-08
5.98991103759e-10
5.66381251376e-08
6.55077343407e-08
1.96655823622e-08
5.44724199589e-08
5.93461297074e-09
8.82925455812e-09
4.42626041953e-08
1.5817511585e-08
2.49300446015e-08
8.61095005745e-09
5.53742710282e-08
1.44803798207e-08
1.12105733847e-08
3.65221270106e-08
2.20564467457e-08
1.23769702477e-08
2.54141073754e-09
2.18704374772e-08
1.11131713363e-08
9.58917452783e-09
1.13726462764e-08
6.44099456369e-09
4.09107273986e-08
1.11706852149e-08
1.76605930707e-09
5.50736139063e-09
1.03264523337e-08
2.78087219623e-09
2.91330544553e-08
8.04478767012e-11
8.70894400124e-09
5.10801793995e-08
1.48904419444e-08
2.57352452011e-08
8.92608511091e-09
1.14485544659e-08
2.18090773406e-08
2.16206720892e-08
2.84353516019e-10
5.96768873194e-09
1.1585297292e-10
5.3955669027e-09
8.75932418506e-09
3.38821713254e-08
2.35343397625e-08
4.20812564399e-08
5.31634786084e-08
4.18221386725e-10
3.30562038996e-08
5.04367933657e-08
4.6312169639e-09
3.16835268824e-09
8.71498822659e-09
3.12032434765e-09
8.1413877731e-08
1.56979043844e-08
3.88154997554e-09
1.84865533708e-08
3.27452293576e-08
7.94631837035e-09
5.69198420465e-08
4.04278579569e-08
2.2226092971e-08
2.45154202552e-08
2.18289923158e-08
4.71629911198e-09
3.35561285234e-08
1.23724593227e-08
1.65965649315e-08
6.80620275636e-09
1.36793295688e-08
3.63935079745e-09
4.22114533968e-08
3.983221396e-09
2.59006761002e-08
4.59850469471e-08
5.78833237654e-08
3.46806091556e-08
6.91798637777e-09
6.25868381012e-09
1.83268498608e-08
5.78428024288e-09
5.39055142464e-09
1.60178048515e-09
4.30396651289e-08
9.37801181126e-09
2.70334031085e-08
4.12867736571e-08
2.63051767177e-09
1.58083341333e-08
1.18054806366e-09
4.35925859936e-08
5.01483097106e-08
8.03504689736e-08
6.57162018555e-08
7.36253411953e-08
3.13966032512e-08
2.24632161094e-08
3.84410726395e-09
3.53443010242e-09
5.71556340245e-08
6.41702266086e-08
1.50177215895e-08
2.37669961082e-08
1.03011652446e-08
8.26284774594e-08
3.23619580562e-10
4.61178820525e-08
6.74080401665e-08
1.53289004722e-08
3.20419121499e-08
4.99821888631e-08
7.61766287314e-09
1.01944097474e-08
5.43280418952e-08
2.75045001335e-10
2.92931712339e-08
8.1213663648e-09
9.83336241113e-09
1.79108337864e-08
7.03773458374e-08
6.85238596275e-09
2.58203936266e-08
2.97313247222e-09
4.24371709999e-08
3.81285077139e-08
4.33002765226e-09
1.01028924499e-08
7.38183648396e-08
2.17113703881e-09
1.66404369889e-08
7.49615290802e-09
4.52251344908e-09
8.01810844292e-10
4.89086851304e-08
6.4820670363e-08
4.22158861554e-08
1.40825450904e-08
5.19712844111e-09
4.88010791236e-08
8.97345496273e-09
5.41129725051e-08
1.87690215316e-08
7.14995824249e-09
4.95351866528e-08
3.29002784679e-08
1.91599527882e-08
1.22275396869e-08
5.83611781352e-09
5.24953477206e-08
1.63613470051e-08
1.39704079509e-08
1.67587242581e-08
4.18611997067e-10
4.23502004351e-08
5.25263416619e-10
1.15810630928e-08
4.09267161679e-08
1.1049721005e-08
6.9104369321e-09
3.53207017272e-08
4.52659562551e-08
3.22865897902e-08
4.99310108009e-09
2.5588243566e-08
3.34216580447e-09
4.63650481871e-08
9.08440707653e-09
4.3688243773e-09
7.97134312679e-09
1.12294819195e-08
1.89795705468e-08
3.25572207855e-08
3.38787014219e-08
8.47155403166e-09
2.4912359051e-08
6.00272440617e-08
1.53164270932e-08
1.07986867988e-08
3.04963002129e-08
3.82992969687e-08
7.32711565855e-10
4.22342591589e-09
3.12192228661e-10
1.49619950218e-08
1.22172328243e-08
4.58312873813e-08
3.4373837059e-08
1.79803870901e-08
4.81670193781e-09
2.05049349146e-08
1.94989231496e-09
5.13111103182e-08
1.16378656953e-08
3.13074382366e-09
1.16088474601e-08
1.13132385027e-08
8.30262350978e-09
7.07005092575e-08
4.97561611455e-08
4.36500418465e-08
2.8149112681e-08
3.86410117231e-08
2.63489333027e-08
4.23368853795e-08
6.18541669833e-09
1.9798468707e-08
7.67480499921e-09
1.47312261857e-08
3.94866306745e-08
3.03334721587e-08
1.63245684916e-08
9.52407963216e-09
2.16377955814e-08
5.96078072093e-08
1.05122774965e-08
2.15012665047e-08
1.62448718475e-08
1.16691353318e-09
5.15947959105e-08
1.44185097054e-08
2.79767759262e-08
1.53305893254e-08
3.23847785053e-09
3.0984123732e-09
6.26228432923e-09
2.51152837943e-08
2.1406428908e-08
2.54857758594e-08
2.09579641269e-08
8.07032469119e-09
1.28043338682e-08
1.99504552787e-08
9.111792267e-09
5.63579222471e-08
3.94262958433e-09
5.34672172573e-10
1.44997907924e-08
3.94463387951e-09
5.98635051803e-08
4.00152999993e-08
3.02347904568e-08
3.53147594243e-08
1.95999183133e-08
4.89512970734e-08
6.38242398131e-08
1.81599130105e-08
1.57039352827e-08
2.83844355616e-08
6.93891004064e-09
6.16551392305e-08
1.23159070549e-08
5.4042787292e-08
2.14221215104e-08
1.61330007566e-08
5.0301017566e-10
1.82831174079e-08
2.5111495602e-09
2.53256886164e-08
8.60380623679e-09
1.08314062723e-08
1.46157270923e-08
5.69016138516e-09
4.47981195704e-08
1.67605868821e-09
1.0953303966e-08
1.7961725268e-09
4.15181304707e-08
3.61956116908e-09
5.33892081968e-08
6.33468755792e-09
2.20002125775e-08
2.53113166065e-08
4.38973044878e-08
1.79790181305e-08
1.13789074397e-08
1.4704122125e-08
2.87821658551e-09
1.12151056797e-08
1.47058623559e-08
8.89983794054e-09
1.83579259705e-08
9.73100747366e-10
2.39170167106e-08
6.29261093259e-08
5.62887689408e-08
8.00511224706e-08
2.05692159841e-09
6.25848591987e-08
1.95362147391e-08
5.74790210343e-09
7.3732647565e-09
2.96726444019e-08
2.91248818605e-08
4.10821804214e-09
1.75380243622e-08
3.01860147868e-08
1.80318990575e-08
1.39125471589e-08
4.62385580195e-08
3.47217005269e-08
1.98327136184e-08
2.00927201047e-08
1.41849429802e-08
3.54616478403e-08
3.0387537715e-08
4.89047037439e-08
9.56511408178e-09
9.26066062394e-09
2.41032128925e-09
2.97447471941e-10
1.46690247749e-08
1.14751487252e-09
8.12537554307e-09
8.28082007823e-09
3.16292043889e-09
1.76038538801e-08
1.96628617065e-08
9.42649572341e-09
1.59849689953e-08
3.80498249261e-08
6.70605056226e-09
3.93266699257e-08
3.22556108466e-08
3.27171700804e-09
2.38898937204e-08
5.55651632092e-09
4.74489225198e-08
1.44681288603e-08
4.63744945466e-09
1.41062841209e-08
5.40876139748e-08
1.42479544027e-08
2.66803052092e-08
1.55862808499e-08
6.87131825587e-09
4.81919845571e-09
1.21149258663e-07
1.23901390078e-08
4.34330255494e-08
3.87710299036e-09
2.51300702728e-08
4.24158537642e-08
4.52218098373e-08
4.46403369509e-08
2.29083726506e-08
2.01689730465e-08
1.86759099317e-08
8.56008580604e-09
1.11436147177e-08
1.37139857248e-08
4.86179006645e-09
1.63059076685e-09
6.46873123199e-09
7.99116107208e-09
8.08740513659e-08
2.58036916711e-08
2.46708426382e-08
1.60261923432e-08
3.67486848569e-08
2.5783401536e-08
2.58082825141e-09
3.44375066708e-09
4.82387917977e-08
1.66862592816e-08
5.02987527199e-08
4.22432313327e-08
6.85186828937e-09
5.65771672852e-08
4.68134030442e-08
1.39028278723e-08
2.30790529448e-08
1.56811157076e-09
2.26280587866e-08
2.81493605847e-09
3.21043355004e-09
5.568359758e-09
6.24329656151e-09
1.76889307203e-09
3.22169571395e-08
1.3604796204e-09
1.47093115108e-08
9.97021081513e-09
1.37619554391e-08
5.30559345323e-08
2.71082552695e-08
3.2353950652e-08
2.78180337206e-08
1.35512220707e-09
1.67223119146e-08
6.85780907409e-09
6.07279921798e-09
7.7479715675e-08
5.42162389309e-08
2.03043148658e-09
2.99223159604e-09
1.17764153687e-08
3.18464173776e-08
2.06467351306e-08
1.30241734854e-08
1.8457837215e-08
3.07641598382e-08
1.01207972275e-08
1.28972680631e-10
4.10081940091e-09
1.59745498742e-08
2.94016228348e-08
3.39385272469e-08
4.52265255347e-10
2.14240556043e-08
1.11524981368e-08
3.93227749675e-08
1.85533495214e-08
2.67072304144e-08
2.95418867393e-08
8.7473148845e-08
4.62234674954e-08
1.97265530968e-08
1.2107294977e-08
1.91776058134e-08
1.59108279443e-08
2.38959517135e-08
3.568732522e-08
9.68403830222e-08
1.62189305786e-08
1.31267316731e-08
1.04706013194e-08
1.70277214694e-08
2.97496723686e-08
6.08493638025e-08
1.51239182433e-08
5.62077785e-09
2.91847082453e-08
2.13592249239e-08
4.8278757547e-08
4.80152556834e-08
1.82079279864e-09
7.6254840158e-08
1.00265754483e-08
1.08758487934e-07
5.72056534013e-08
4.37017789742e-09
5.11487337988e-08
3.55569631029e-08
3.36205135453e-08
1.8954901331e-08
7.24929044896e-09
6.19453180204e-08
1.32639119013e-08
1.83903232891e-09
7.67406786615e-08
5.09455734543e-08
6.36635455179e-09
4.82968777105e-09
7.62725408303e-09
3.63992767125e-08
2.18024378326e-08
2.69203866647e-08
1.57322641098e-08
4.01904583629e-08
4.11733741899e-09
2.39736920508e-08
1.57067798e-08
2.06225942962e-08
2.86890829628e-08
1.70284083448e-08
3.04115300504e-08
2.34598069587e-08
1.00932757396e-08
4.13873740011e-08
1.99425307963e-08
6.25229495638e-09
1.01225402363e-08
1.95722153855e-08
1.72109021783e-08
1.3453150863e-08
1.1809765841e-08
1.51456319538e-08
1.91955927453e-09
2.96334613447e-08
4.01735260368e-08
5.42826773384e-08
6.38821693986e-08
8.43287579277e-09
4.39854885546e-08
8.41223011167e-09
7.0937682954e-09
3.07025193153e-08
1.82565076339e-09
6.50905154501e-08
6.30073549978e-08
4.4467451582e-08
5.06507900343e-08
5.66835934321e-08
2.15254035728e-08
8.04852755639e-08
1.04306209102e-08
1.46075396276e-08
8.66030433114e-09
8.7477219266e-09
1.70173538042e-08
1.49358355831e-08
3.23403242284e-09
3.04473138885e-09
1.66301652442e-08
7.0524844294e-09
1.94581034861e-08
4.67981832751e-09
1.24837918419e-08
3.08485512235e-09
1.40075201026e-08
4.94316443689e-08
5.57864020834e-08
1.36340721911e-08
3.95143783757e-08
1.25688594448e-09
2.3945532132e-08
2.09202255948e-08
3.19749169367e-08
8.34799086486e-09
3.0938800542e-08
2.67698700264e-08
3.04851857679e-09
3.02479691975e-09
5.60856341046e-09