# vtk DataFile Version 3.0
File Name: Molecule/sphere_excent/sphere_excent_0-s5.vtk
ASCII
DATASET UNSTRUCTURED_GRID
FIELD FieldData 1
TIME 1 1 double
0.0
POINTS 61 double
0.85066539049 -0.5257126689 -7.4820709415e-05
0.80892950296 -0.30898118019 -0.49994885921
0.99990642071 7.3958326539e-06 -3.6796351196e-05
0.80892813206 0.30898615718 -0.49994719028
0.52572894096 1.80136837e-07 -0.85065215826
0.8506526947 0.5257294178 -1.7040092644e-05
0.49994686246 0.80892938375 -0.30898287892
0.30898040533 0.4999448657 -0.80893087387
-2.3780696665e-06 0.85065156221 -0.52572989464
0.50014567375 0.80911153555 0.30837920308
-3.5170278352e-06 0.99989563227 4.2267158278e-05
7.4305044109e-06 0.85002958775 0.5266507864
-0.50014072657 0.80911034346 0.30838912725
-0.49994978309 0.80892288685 -0.30899682641
-0.85065889359 0.52571946383 -2.8086715247e-05
-0.3452373147 0.51291000843 0.78526449203
-0.80975353718 0.30844151974 0.49908816814
-0.52991491556 0.01815491356 0.84563738108
0.33629575372 -0.5229241848 0.78260099888
9.1491179774e-05 -0.84983456135 0.52692878246
0.50051647425 -0.8092867732 0.30752381682
0.81958788633 -0.30783617496 0.47950750589
0.30898159742 -0.49994456768 -0.80893057585
-4.114174601e-07 -1.2087815549e-07 -0.99989140034
-0.30898651481 -0.49994656444 -0.80892723799
-2.2463183313e-07 -0.85065305233 -0.52572745085
-0.52573287487 1.3292399217e-06 -0.85064977407
0.80954754353 0.3086502552 0.49920776486
0.3449177146 0.51323163509 0.78527736664
0.52948772907 0.017803126946 0.84591913223
-0.80893141031 -0.30898180604 -0.49994555116
-0.80893009901 0.30898204446 -0.49994644523
-0.99990671873 -7.7752883954e-06 -4.76900168e-05
-0.8506590724 -0.52572143078 -5.3391519032e-05
-0.30898359418 0.49994552135 -0.80892914534
-0.49995332956 -0.80892533064 -0.30899521708
-0.50037062168 -0.80925118923 0.30793637037
4.0428403736e-06 -0.99989908934 9.052905807e-05
-0.81939357519 -0.30796784163 0.47977650166
-0.3363994956 -0.52283936739 0.78256458044
0.49995797873 -0.80891102552 -0.30903083086
0.00010178333469 -0.52709883451 0.84984225035
-0.17625446618 -0.28997740149 0.93939512968
0.17622388899 -0.28994619846 0.93941658735
-8.2210444816e-06 0.52716171741 0.849817276
-0.16345825791 0.274630934 0.94756412506
0.16340894997 0.27470386028 0.94755417109
-2.2956888643e-05 0.041291095316 0.99883246422
-0.46121445298 -0.26933321357 0.84564656019
-0.34160351753 -0.14184558392 0.92892348766
-0.25839728117 0.012210244313 0.96559548378
-0.096698857844 -0.12264321744 0.98774755001
-0.00039213921991 -0.27028727531 0.96273690462
0.096451178193 -0.12211006135 0.98782914877
0.25894394517 0.012473464012 0.96545678377
0.34115147591 -0.14063179493 0.92926830053
0.46101054549 -0.26927128434 0.84577322006
0.69622927904 -0.15896236897 0.69978678226
0.60337001085 -0.43094396591 0.6708573103
-0.60310554504 -0.43094456196 0.67110723257
-0.69610542059 -0.15907602012 0.69988483191

CELLS 118 472
3 0 1 2
3 1 3 2
3 1 4 3
3 2 3 5
3 5 3 6
3 3 7 6
3 3 4 7
3 6 7 8
3 5 6 9
3 6 10 9
3 6 8 10
3 9 10 11
3 11 10 12
3 10 13 12
3 10 8 13
3 12 13 14
3 11 12 15
3 12 16 15
3 12 14 16
3 15 16 17
3 18 19 20
3 21 20 0
3 4 22 23
3 22 24 23
3 22 25 24
3 23 24 26
3 0 2 21
3 2 27 21
3 2 5 27
3 5 9 27
3 9 28 27
3 9 11 28
3 27 28 29
3 26 30 31
3 30 32 31
3 30 33 32
3 31 32 14
3 8 34 13
3 34 31 13
3 34 26 31
3 13 31 14
3 33 35 36
3 35 37 36
3 35 25 37
3 36 37 19
3 33 36 38
3 36 19 39
3 16 32 38
3 16 14 32
3 38 32 33
3 26 24 30
3 24 35 30
3 24 25 35
3 30 35 33
3 25 40 37
3 40 20 37
3 40 0 20
3 37 20 19
3 4 1 22
3 1 40 22
3 1 0 40
3 22 40 25
3 4 23 7
3 23 34 7
3 23 26 34
3 7 34 8
3 39 41 42
3 41 18 43
3 18 41 19
3 19 41 39
3 15 44 11
3 11 44 28
3 15 45 44
3 45 46 44
3 45 47 46
3 44 46 28
3 17 45 15
3 28 46 29
3 39 42 48
3 17 49 50
3 49 51 50
3 49 42 51
3 50 51 47
3 43 52 41
3 41 52 42
3 42 52 51
3 52 53 51
3 52 43 53
3 51 53 47
3 47 53 54
3 53 55 54
3 53 43 55
3 54 55 29
3 55 43 56
3 17 50 45
3 45 50 47
3 47 54 46
3 46 54 29
3 29 56 57
3 56 58 57
3 56 18 58
3 57 58 21
3 21 58 20
3 20 58 18
3 29 57 27
3 27 57 21
3 39 59 36
3 36 59 38
3 38 59 60
3 59 48 60
3 59 39 48
3 60 48 17
3 38 60 16
3 16 60 17
3 17 48 49
3 49 48 42
3 18 56 43
3 55 56 29

CELL_TYPES 118
5
5
5
5
5
5
5
5
5
5
5
5
5
5
5
5
5
5
5
5
5
5
5
5
5
5
5
5
5
5
5
5
5
5
5
5
5
5
5
5
5
5
5
5
5
5
5
5
5
5
5
5
5
5
5
5
5
5
5
5
5
5
5
5
5
5
5
5
5
5
5
5
5
5
5
5
5
5
5
5
5
5
5
5
5
5
5
5
5
5
5
5
5
5
5
5
5
5
5
5
5
5
5
5
5
5
5
5
5
5
5
5
5
5
5
5
5
5

CELL_DATA 118
SCALARS cell_data_0 double
LOOKUP_TABLE default
2.62102759073e-06
1.54657535944e-06
1.01545540465e-06
5.94525278071e-07
6.03908881992e-07
5.70794445051e-07
4.51878852183e-07
2.29501794047e-07
2.41362459336e-08
3.87102813704e-06
1.94365162711e-06
1.99949806269e-06
2.06771211008e-06
3.69405267008e-06
1.93487142424e-06
1.77433028104e-07
1.22388036781e-06
2.80946538178e-06
3.97211500103e-06
1.69429087999e-05
1.04992536442e-05
4.06608916873e-06
1.16769229572e-07
7.04040256277e-07
1.30878191536e-07
8.76952636393e-08
8.91484657025e-06
1.2728641048e-05
3.57480967824e-06
4.00064161568e-06
3.73643635544e-06
2.4207255422e-07
1.86468444443e-05
1.03156488133e-06
1.48605423883e-06
2.53719896461e-06
6.36096873301e-07
3.2020947395e-07
5.25668599735e-07
5.8659735888e-07
5.89074762659e-07
1.27539757598e-07
2.70708684425e-06
1.29773627578e-06
2.13464380287e-07
3.88625540716e-06
9.82701512727e-06
1.24523347219e-05
3.57584918267e-06
8.71551147125e-06
7.64085270342e-07
3.49369458581e-07
5.3936954496e-07
5.90115415939e-07
1.09784908291e-06
2.57405417191e-06
1.00604042927e-07
5.95213564129e-08
8.7213482396e-07
1.4735546699e-07
5.83945851272e-07
4.66191057603e-07
3.18042242993e-07
3.08499829276e-07
2.61373874608e-07
2.63785411939e-07
1.5820472949e-06
1.99418691189e-06
3.15564335682e-06
3.51657667106e-06
9.87614504422e-06
1.01761102711e-05
1.66612578888e-05
1.13115902722e-07
5.41877405179e-07
1.69324500965e-05
3.42381562861e-05
3.33204237218e-05
1.02757248799e-06
1.28720637561e-05
4.49746649479e-06
4.54310354674e-06
1.41243593924e-06
1.51673469278e-06
1.64648499538e-06
2.81519664739e-06
1.3859669942e-06
2.92938505096e-06
4.73166610309e-06
1.63307449687e-06
4.43018385824e-06
4.66082746273e-06
1.25824107388e-05
5.90301304252e-06
3.4465031298e-06
2.20261732919e-06
2.59025606669e-06
2.96725872045e-06
3.79042921028e-06
5.03713643525e-06
1.48954373142e-06
3.71909681573e-06
4.23362395554e-06
2.25759269438e-06
1.3965736149e-05
1.22405813887e-05
2.50005801505e-06
4.35305494715e-06
3.63032815067e-06
4.51524300331e-06
1.69671464445e-06
3.02780318212e-06
1.19672767126e-05
1.40667475201e-05
4.00201509007e-06
5.89101081799e-06
1.26818866201e-06
4.11386754132e-06

