# vtk DataFile Version 3.0
File Name: Molecule/sphere_excent/sphere_excent_0-s21.vtk
ASCII
DATASET UNSTRUCTURED_GRID
FIELD FieldData 1
TIME 1 1 double
0.0
POINTS 509 double
-0.4551204741 0.39168208838 0.79940122366
-0.33310750127 0.37772333622 0.86389112473
-0.37566903234 0.53392422199 0.75745511055
-0.47623455524 0.65822601318 0.58297252655
-0.52342998981 0.50486886501 0.68618094921
0.96202743053 0.11630126089 0.24633939564
0.91612440348 0.022766055539 0.40023505688
0.96630859375 -0.11286368221 0.23066818714
-0.21578609943 0.60059833527 0.76993441582
-0.3211273253 0.67040842772 0.66888552904
0.43270856142 -0.74190413952 0.51209700108
0.24989999831 -0.87804991007 0.40597102046
0.4902895093 -0.81026917696 0.31898039579
0.62021839619 0.34212839603 0.70566946268
0.49335464835 0.35838896036 0.79235327244
0.55470609665 0.22023813426 0.80216503143
0.43264141679 0.22681753337 0.87250882387
0.47681322694 0.092942930758 0.87341576815
0.5857347846 -0.014518300071 0.8103646636
0.47552755475 -0.045346040279 0.87850642204
-0.50906938314 -0.81185549498 0.28566947579
-0.56311637163 -0.64917385578 0.51107472181
-0.6928255558 -0.63008081913 0.35026651621
-0.71371519566 -0.47566556931 0.51389598846
-0.51000028849 0.82688063383 0.23660370708
-0.45319208503 0.7783357501 0.43440678716
-0.27966582775 0.88158583641 0.37987163663
-0.29685723782 0.78529602289 0.54325681925
-0.63474172354 0.64098733664 0.43093875051
-0.039274051785 0.72802084684 0.68441486359
-0.18152180314 0.71125686169 0.67907851934
-0.070225544274 0.63941514492 0.76563829184
-0.10982415825 0.79860496521 0.59169542789
0.070635005832 0.78049761057 0.62109720707
0.087126888335 0.66228073835 0.74412441254
-0.26261967421 -0.95007050037 0.16805748641
-0.23682169616 -0.89509445429 0.37774711847
0.0031438702717 -0.96425586939 0.26485225558
-0.033884905279 -0.9990927577 -0.016562243924
-0.038158781826 -0.86904865503 0.49124109745
0.47985616326 -0.78662705421 -0.38830685616
0.50409305096 -0.85918414593 -0.084033168852
0.30153039098 -0.93377155066 -0.18822337687
0.27593180537 -0.95271617174 0.12679365277
-0.11569263786 0.26116922498 0.95831161737
0.01041035261 0.26675730944 0.96370691061
-0.04699274525 0.34524297714 0.93713116646
0.064994193614 0.35768136382 0.93157821894
0.13156628609 0.26495942473 0.95522409678
-0.053971420974 0.18602783978 0.98105818033
0.054784644395 0.17625841498 0.98282682896
-0.36210638285 -0.56907987595 0.73775136471
-0.29273986816 -0.48562765121 0.82335478067
-0.41838240623 -0.43044674397 0.79946368933
0.16415973008 0.14900186658 0.975040555
-0.2192003727 0.33407890797 0.91666895151
-0.23134149611 0.47783640027 0.84744882584
0.1746840477 0.40588137507 0.89702761173
-0.22334338725 0.20761026442 0.95231717825
-0.31941220164 0.24286803603 0.91590994596
-0.10036093742 0.55086016655 0.8281776309
0.031814295799 0.57285779715 0.81901627779
-0.87099522352 -0.49075517058 -0.023752242327
-0.74059790373 -0.65977329016 -0.12662144005
-0.69058275223 -0.71513974667 0.10799808055
-0.49222880602 -0.86894309521 0.051350910217
-0.35436490178 -0.18950001895 0.91569453478
-0.26162272692 -0.25631114841 0.93048685789
-0.24061596394 -0.15761992335 0.95771682262
-0.16426225007 -0.24400103092 0.95574402809
-0.17266455293 -0.35921359062 0.91698038578
-0.13913340867 -0.13302446902 0.98129361868
-0.062821134925 -0.4429449439 0.89431989193
-0.059172712266 -0.31807476282 0.94620245695
0.017139211297 -0.13182164729 0.99112683535
0.029574701563 -0.05707622692 0.99792438745
-0.047598086298 -0.058042094111 0.99715167284
0.0017491772305 0.021182375029 0.99972647429
0.32793420553 -0.54517066479 0.77155089378
0.41450670362 -0.42764744163 0.80328172445
0.29233196378 -0.45855256915 0.83911180496
0.047663684934 0.46740353107 0.88232594728
0.1628754884 0.52972769737 0.83237427473
0.27458173037 0.44592869282 0.85180485249
0.29272028804 0.34554713964 0.89134514332
0.23484313488 0.61017417908 0.75663375854
0.31290471554 0.51573717594 0.79741406441
-0.37809449434 -0.71113079786 0.59179115295
-0.40519058704 -0.78655803204 0.46597754955
-0.24750651419 -0.80999928713 0.53166157007
-0.042478814721 -0.57435518503 0.8172929883
-0.16621416807 -0.49135920405 0.85492283106
0.062425184995 -0.51693248749 0.85373550653
0.09833291918 -0.63695162535 0.76458442211
-0.34013065696 -0.31367450953 0.88616997004
-0.19948914647 -0.58862733841 0.78299468756
-0.030217584223 0.99941384792 -0.0026790415868
-0.22034291923 0.95925712585 -0.17632463574
-0.3051994741 0.9500387311 0.058093804866
-0.56717586517 0.82329648733 0.013019637205
-0.71309161186 0.65185546875 0.25778648257
-0.69256591797 0.71544897556 0.079270392656
-0.42585855722 -0.095701098442 0.89914214611
-0.32027888298 -0.076280601323 0.94423621893
-0.38796263933 0.023241553456 0.92135190964
-0.27250421047 0.019949883223 0.96192288399
0.11756828427 -0.33925914764 0.93330967426
0.03890908137 -0.39746132493 0.9167842865
0.13054518402 -0.44184350967 0.88752603531
-0.46004894376 -0.23634982109 0.85525929928
-0.52481812239 0.061536878347 0.84865891933
-0.42045760155 0.14322060347 0.89593601227
-0.51023310423 0.19718299806 0.83712297678
-0.42451161146 0.27414992452 0.86278408766
-0.53175520897 0.30563768744 0.78984868526
-0.31275296211 0.12141394615 0.94202929735
0.62487059832 0.69905823469 0.34765669703
0.57188224792 0.67428982258 0.46725034714
0.69205141068 0.59540474415 0.40806254745
0.23913989961 -0.65378981829 0.71787804365
0.37320020795 -0.6418300271 0.66983622313
0.29114064574 -0.74571442604 0.5991307497
0.13281168044 -0.76035815477 0.63490706682
0.19476094842 -0.54434126616 0.81594914198
0.44098326564 -0.53283721209 0.72201025486
0.49468326569 -0.6123688221 0.61646306515
-0.0078262686729 -0.6990866065 0.71466213465
0.58584058285 -0.63254606724 0.50589424372
-0.039304230362 0.10096097738 0.99410450459
-0.083858259022 0.025158941746 0.99615597725
-0.1233278513 0.0956408903 0.98773902655
-0.21388290823 -0.062695205212 0.97483628988
0.2609321177 0.87285596132 -0.4121465683
0.021137231961 0.95949143171 -0.28081718087
0.2456189841 0.94633281231 -0.20933957398
-0.004600466229 0.83416575193 -0.5512753129
-0.40095406771 -0.65954560041 -0.63297998905
-0.63741606474 -0.59240192175 -0.49248942733
-0.58417528868 -0.41836208105 -0.69435220957
-0.8054972291 -0.30708134174 -0.50660085678
-0.62348008156 -0.20241381228 0.75518727303
-0.55814540386 -0.13527728617 0.81833553314
-0.63420587778 -0.08824967593 0.76800864935
0.81480926275 0.073323242366 0.57498818636
0.72530317307 -0.022969571874 0.68804252148
0.79618287086 -0.1002959162 0.59662121534
0.71979796886 0.12476798892 0.68261766434
0.71344482899 -0.20213466883 0.67049759626
-0.80445086956 -0.55769437551 0.2043954134
-0.88955026865 -0.39083448052 0.23629133403
-0.8024700284 -0.47272640467 0.36424210668
-0.83779799938 -0.31907182932 0.442366153
-0.2364269495 -0.94432604313 -0.22626051307
-0.30181056261 -0.95267391205 -0.036132391542
-0.4629586339 -0.87027949095 -0.16780309379
-0.61430805922 -0.78476041555 -0.082154303789
-0.62661999464 -0.72783851624 -0.27870303392
-0.45249566436 -0.80834555626 -0.37567484379
-0.7802541256 -0.54068851471 -0.31430318952
-0.17598620057 0.023936476558 0.98409688473
-0.13039062917 -0.042076282203 0.99056828022
-0.20393180847 0.88710898161 -0.41341000795
-0.14619469643 0.17202243209 0.97417080402
-0.21443144977 0.10503091663 0.97107183933
0.87652444839 0.4805932641 -0.023979345337
0.86231350899 0.42777568102 -0.2707310617
0.72297662497 0.6706931591 -0.16548199952
0.68724167347 0.57279145718 -0.44677761197
0.80127704144 0.29571342468 -0.51899474859
0.5318877697 0.77574205399 -0.33944034576
0.60955601931 0.39702814817 -0.68599426746
0.43326532841 0.70491212606 -0.56066173315
0.79631382227 0.59400093555 0.11327450722
0.53954571486 0.83828049898 -0.078263156116
0.6598110199 0.74793696404 0.071620896459
0.4499823451 0.88238859177 0.13654886186
0.22525660694 0.96769207716 0.11229613423
0.25661715865 0.92150866985 0.2910438776
0.046675037593 0.97053140402 0.23636871576
0.10551268607 0.90609413385 0.40941783786
-0.89577537775 -0.36303555965 -0.25660446286
-0.93811130524 -0.13160251081 -0.32026660442
-0.96595823765 -0.24028195441 -0.096116282046
-0.99168694019 0.013196240179 -0.12815442681
0.55719912052 -0.13955691457 0.81855535507
0.64760053158 -0.122081846 0.75213772058
0.6083099246 -0.23528070748 0.75797855854
0.48891660571 -0.26324281096 0.83094036579
-0.94666486979 0.15379263461 0.28233021498
-0.97267907858 -0.012442699634 0.23174881935
-0.89694219828 0.00050542876124 0.44109541178
-0.99467784166 0.078308343887 0.067129313946
-0.99213892221 -0.10724896938 0.064689651132
-0.95566338301 -0.18868717551 0.22552493215
-0.94998109341 -0.29943624139 0.088719852269
0.53975939751 -0.8329885602 0.12165819854
0.61483961344 -0.71728211641 0.32656946778
0.70112931728 -0.71286803484 -0.0048290388659
0.67986345291 -0.71126067638 0.17813563347
0.79710304737 -0.58123159409 0.16418668628
0.72989749908 -0.65297502279 -0.1982204169
0.57521981001 0.78299021721 0.23667521775
0.7106872201 0.66266262531 0.23578703403
0.42399421334 0.84818577766 0.31745529175
0.5255253315 0.76588982344 0.37049746513
0.42564219236 0.77803945541 0.46201279759
0.28112453222 0.85822284222 0.42932555079
0.40433096886 0.88771009445 -0.22017174959
0.35655707121 0.93363898993 -0.03500751406
0.15999270976 0.98448604345 -0.071219600737
-0.484297961 -0.0090157594532 -0.87472808361
-0.70401883125 -0.13346911967 -0.69749325514
-0.69539058208 0.14369483292 -0.70357400179
-0.84818422794 0.011060092598 -0.52953475714
-0.79786646366 0.31164467335 -0.51592296362
-0.93168890476 0.16487154365 -0.32373157144
-0.86234861612 0.41667354107 -0.28667220473
-0.96403378248 0.24825188518 -0.095059268177
-0.85491609573 0.29287007451 0.42793288827
-0.78420174122 0.46896576881 0.40612116456
-0.871920228 0.41362535954 0.26180836558
0.99346482754 0.09443449229 0.064333543181
0.9132412672 0.23025652766 0.33555051684
0.94380390644 0.30186772346 0.1340162158
0.87153935432 0.35546007752 0.33679044247
0.86683613062 0.44279646873 0.22696520388
[...]
CELL_DATA 1014
SCALARS cell_data_0 double
LOOKUP_TABLE default
9.07366252189e-08
2.72742135268e-07
1.6151365423e-08
1.67848558175e-07
1.01402852724e-07
2.3592571992e-07
2.64419521337e-07
3.54789887833e-07
2.58582081472e-07
2.97273074937e-07
1.65805649086e-07
2.4801854366e-07
1.48305973453e-07
1.02451444521e-07
1.77972162087e-07
2.24555983125e-08
2.3099761026e-07
4.41905908454e-08
1.03095098861e-07
1.45855690221e-07
7.4156036035e-08
1.90243398273e-07
1.42257630425e-07
1.84864389342e-07
3.02841164812e-07
2.37293908902e-08
3.67553847274e-07
2.9941353368e-07
1.57315029524e-07
6.18306848499e-08
2.91313189638e-09
5.66771089002e-09
2.87266359266e-07
1.52152422611e-07
8.85965076031e-08
8.50791225668e-08
2.95736372539e-07
1.34770099826e-07
2.67994167236e-07
3.23247209623e-07
1.58540802908e-07
2.85029017435e-07
5.76754681564e-07
4.63214978006e-08
2.19399240609e-07
5.15472263876e-08
5.04945014893e-08
1.79280289905e-07
3.15846787195e-07
1.87747179439e-08
2.54555870767e-07
1.73159802273e-07
3.3126741175e-07
2.37752909233e-07
1.56883807589e-07
2.96554805171e-07
1.29294314898e-07
6.03464686784e-08
1.70737544629e-07
3.1270038985e-07
2.06417445908e-07
6.31842710123e-08
2.11732668365e-07
4.25373901356e-08
1.25083460826e-08
4.91637658426e-08
6.76233764682e-08
2.3126388575e-07
1.23537182098e-07
1.40410587945e-07
2.11709986148e-08
1.01391872484e-07
2.2601855688e-08
1.55696545926e-07
1.41392372713e-07
2.01780638635e-07
1.17719152953e-07
7.37726009292e-08
2.50848720334e-07
1.92517180014e-07
1.64511045959e-07
9.38384230837e-09
5.63247683879e-08
2.72054612881e-07
1.16421014463e-07
1.36984171402e-07
2.6900351369e-07
1.75503102949e-07
2.26407084702e-07
2.22390393548e-07
1.57136978928e-07
6.74571655175e-08
3.26374167725e-09
8.81873771036e-08
7.37144100187e-08
3.65356192507e-07
9.83815093917e-08
1.16933695492e-07
2.1640369243e-07
1.18253281634e-07
3.62085815854e-08
3.61091651875e-08
1.61004505546e-07
2.10703854759e-07
2.21717552443e-07
4.32323719722e-07
1.27665011029e-07
1.25730081339e-07
5.37120845546e-08
6.45549131973e-08
7.33114851992e-09
1.84966758701e-07
1.01512262556e-07
1.17763812076e-08
2.26762998578e-07
2.16326823226e-07
6.07083330159e-08
6.42579351933e-08
1.26432244773e-07
9.2099429397e-09
3.6489512408e-07
1.3996541295e-07
3.7209967035e-07
4.38249434604e-08
2.25106471341e-07
7.6261662707e-08
7.7255994669e-08
5.9597217857e-08
5.4702593787e-08
3.37499725213e-07
7.62452174104e-08
2.79169251324e-07
1.2622899255e-08
1.64808862809e-07
1.24622704766e-07
1.77250482337e-07
2.28535059982e-08
2.95628883365e-08
1.08117728184e-07
1.45477840085e-07
5.59849459626e-08
1.38005518572e-07
5.05822589924e-08
9.05866027758e-08
8.05008582021e-09
7.55703964186e-08
3.30501839797e-08
8.30825574347e-08
9.30889474575e-08
4.37111090543e-08
7.30667202443e-08
7.68261840021e-08
7.69170954841e-08
4.2529852629e-08
7.74839878389e-08
2.83038266031e-08
2.56082017885e-08
1.37329476436e-07
1.26205797337e-07
4.68387896351e-08
1.00929660441e-07
3.68570018973e-08
1.26398284653e-07
1.00963741292e-07
1.69011162319e-08
1.30537300862e-07
9.99327647582e-08
2.83442011082e-08
1.85659300033e-07
3.70485271219e-07
9.69287356191e-08
2.31362529989e-07
3.22320506113e-08
2.63160438769e-08
9.73516864517e-08
1.48306011914e-07
1.79716057486e-07
7.09031207075e-08
1.0215444858e-07
3.53071673981e-08
2.78277274807e-08
7.90722458326e-08
7.14194121667e-08
1.39288916002e-07
3.07864502037e-07
2.83239793013e-07
2.25939397497e-07
1.23892340178e-07
1.21732720929e-07
2.13604942347e-08
4.94289926808e-09
8.26970387234e-08
9.22288718923e-08
1.98947611628e-08
9.29370742078e-08
1.56936629388e-07
1.15861819766e-07
1.66996624521e-07
1.69674292692e-07
1.01208529112e-07
3.68007546255e-07
3.10776875195e-09
3.75657340933e-08
1.38858007844e-07
6.26360135532e-09
3.94146198607e-08
7.10443226305e-08
2.83574248151e-07
2.97830646437e-07
4.83641700736e-08
2.58008679839e-07
4.80781604283e-09
5.01377434425e-08
8.50710704127e-08
2.22569704619e-08
8.71367287751e-08
7.41965929553e-09
1.36052411489e-07
1.5093077773e-07
7.1410992031e-08
6.5241852491e-08
1.19181443013e-07
3.165622835e-08
6.22403254379e-09
8.52711819156e-08
8.54924974928e-08
1.80582952928e-07
4.9184145057e-08
6.06061909227e-08
1.49889730474e-08
9.03683157109e-08
9.89228182322e-08
1.5428644248e-07
1.17409759568e-07
4.66156330925e-09
5.3039988344e-08
1.33596237241e-07
1.95971756721e-08
7.75988484916e-08
9.30477227663e-08
7.22854631806e-08
1.4736418843e-07
6.61903688172e-08
1.45317259073e-09
4.80928991824e-09
1.32926818711e-07
7.3982046846e-08
8.05588598291e-08
5.59660748183e-08
5.02064331343e-08
1.01608238926e-07
6.32926668426e-08
1.61423277741e-07
7.26212961514e-09
3.27991647797e-08
6.87089789128e-08
2.93355137321e-07
1.30555969311e-07
8.72851472598e-08
2.22192067461e-08
1.42088994977e-07
1.89687997657e-07
8.73973079131e-09
3.18814962192e-08
1.47308364158e-07
8.47899568605e-08
4.63270496582e-08
2.10735792984e-07
1.78995827007e-07
4.07406200418e-08
2.05765366653e-07
6.087945606e-08
7.69059557173e-08
4.41491297433e-08
2.04405237446e-07
7.33977613528e-08
9.52247472441e-08
5.43749830384e-08
1.28884727569e-08
6.5063826138e-08
1.19561114691e-07
3.54024053627e-08
1.08471754775e-07
6.0544540594e-08
1.99422878943e-07
9.00152023352e-08
8.688997195e-08
3.58945883523e-08
3.34372222391e-07
7.39786082501e-08
6.70030806402e-08
2.04362004748e-07
8.33042421074e-08
9.82632899276e-08
5.74134864726e-08
4.5220778796e-08
9.13429989704e-08
2.26401581339e-08
1.59435766717e-07
8.85584911233e-08
5.99658163112e-08
1.28375761739e-07
6.3641281403e-08
7.91242961452e-08
3.66119378812e-08
2.8060210779e-07
4.73381069571e-08
7.09394935451e-08
1.53720863116e-07
1.21838293048e-07
8.33421406221e-08
1.09703653315e-07
1.8492062228e-08
7.78549072702e-08
6.32216520021e-08
7.4681111336e-08
6.32547305357e-08
6.97991579434e-08
1.12714252043e-07
1.51782527665e-07
7.83980195525e-08
1.01638089476e-07
5.66158314308e-08
1.2378809651e-07
1.35088345081e-07
2.12405363282e-07
2.0298908552e-08
2.04590515469e-07
1.84094868911e-08
9.08129613787e-08
2.24301188343e-07
3.2613654125e-08
6.03428759029e-08
4.21601348491e-08
3.84084843156e-08
1.44723007229e-07
4.60661424183e-08
8.74737594067e-08
1.2452584878e-07
7.51695570721e-08
6.34125685642e-08
7.13401338589e-08
1.81874479176e-08
1.5394746879e-07
1.78995845486e-07
2.27514159514e-08
8.93567983813e-08
1.28975652116e-07
9.92407627367e-08
4.646661976e-09
1.3885130628e-08
4.59315307944e-08
1.26779276154e-07
2.92197638824e-08
2.55187610429e-09
6.3047011071e-08
1.56746415607e-07
1.11985783259e-09
1.19208084279e-07
5.92900019003e-08
1.9271616097e-07
6.70573210135e-08
3.38659309196e-07
2.86879381375e-07
3.33858472563e-07
9.34766450912e-08
3.34743008632e-08
1.39633094463e-07
1.22572574985e-07
5.59296524442e-08
1.43789566305e-07
7.68469314515e-08
1.01670575047e-07
1.91046997299e-08
9.70149965694e-08
1.40479638259e-07
8.85722495809e-08
3.51718081377e-09
4.41584588752e-08
2.17860617871e-07
1.01349179039e-07
5.50900866431e-08
6.0654499326e-09
3.74678482791e-08
6.84459483555e-08
1.22854704629e-07
1.63283795231e-08
1.38801061378e-07
8.48721119308e-08
4.86643436468e-08
1.45521738973e-07
3.73480326086e-08
5.25202052472e-08
1.07834235507e-08
7.08838794899e-09
2.98159424478e-08
4.99950171773e-08
2.87301744295e-08
1.62178131623e-07
1.52285067051e-07
6.74374356916e-08
5.46819521934e-08
7.45964616007e-08
2.50920551012e-07
5.09721307444e-08
1.18879316868e-07
4.39859727842e-08
1.91173114373e-07
7.65600437297e-08
9.05698911225e-09
9.35386307881e-08
9.6951775607e-08
9.25020279225e-09
1.46136109631e-07
8.56766541912e-08
1.21747935085e-07
1.02414851499e-07
9.37061734906e-08
3.34459535125e-08
1.76390922727e-07
1.3087595993e-07
4.67031786211e-08
1.7017274882e-08
7.65514623165e-08
6.24773028074e-08
3.85128970795e-08
9.13997819199e-08
1.5969706817e-07
3.23507303532e-09
5.29926764821e-08
1.21143300756e-09
9.69656737637e-08
1.07622491872e-07
2.27100525826e-07
1.81518860717e-07
1.0696558201e-07
7.51678966256e-08
5.67385550247e-08
7.56060060082e-10
1.09593914299e-08
3.36690258858e-08
1.93010955653e-07
4.7887808186e-08
2.07982102933e-08
1.00379840403e-07
1.15850743029e-07
6.74927162471e-08
8.65145456037e-08
6.7303621989e-09
7.80918587253e-08
2.23087057564e-08
1.49015517144e-07
1.86978656546e-07
1.40356662864e-08
8.71746382988e-09
3.4231470789e-07
9.48478669262e-08
4.40250907389e-08
1.45452122642e-08
1.76161551497e-07
1.00651790211e-07
3.11466340909e-07
1.14433935544e-08
4.40480392626e-08
5.45290085568e-08
5.12321715377e-08
1.65028354837e-08
4.60440538219e-08
1.61973012544e-07
1.06184448735e-08
4.72836596698e-08
2.41927376068e-08
1.09340502438e-07
1.69601260779e-07
2.24630512827e-08
2.41291613395e-07
1.21689342289e-08
1.09593271141e-07
1.12528038046e-07
1.05381750722e-08
1.24715054655e-08
2.34613314638e-08
7.37738874273e-08
4.38911871702e-09
6.26105046364e-08
1.43326416416e-08
3.17803130528e-08
9.8988591726e-08
4.65392372473e-08
3.89621663462e-08
4.72608493893e-08
3.14140518596e-07
1.02080762931e-08
1.05873945811e-07
2.19926408407e-07
2.94183561537e-08
7.29089800569e-09
1.9962119638e-07
5.74998275389e-08
1.50058073166e-08
1.40676454282e-07
1.80571558406e-07
4.66251493076e-08
1.55726257888e-07
1.90745589856e-07
7.76025922195e-08
3.68900026609e-08
9.84335737218e-08
1.98942992291e-08
7.70805325491e-08
6.48961509972e-08
3.78040373348e-08
1.26199584539e-07
8.68249871181e-08
6.17296853935e-09
6.44984526944e-08
7.51759105367e-09
1.44011135577e-07
1.50112416695e-07
3.33285136544e-08
8.21000863343e-08
1.33635950533e-07
1.39583727785e-08
2.47091593505e-08
7.6781590254e-08
5.76486412542e-08
5.34016280567e-08
8.06589251129e-08
5.58555854021e-09
6.67655704982e-08
1.00156732047e-08
1.64808942343e-08
5.90027975208e-08
6.9983772869e-08
9.06633970034e-08
4.88698301816e-08
8.34959364692e-08
6.46237515024e-09
8.51129731987e-08
5.57928992807e-08
5.46276364267e-08
8.46769442397e-08
7.89255137652e-09
4.96428176478e-08
5.6350567891e-08
2.45765202768e-08
1.54668210257e-07
6.45641122952e-08
1.79171330072e-08
3.31303638453e-08
2.65843903912e-08
2.50614953658e-08
1.85239298455e-08
4.51643754921e-08
2.39867560259e-08
9.68686931091e-08
2.00782663652e-09
9.79749194224e-08
1.7202537155e-08
1.05276192708e-07
7.30614369981e-09
3.58259135548e-08
8.35971231233e-08
8.38076125628e-08
3.49898581426e-08
5.3593559977e-08
1.51954443281e-08
1.7650352731e-08
3.9266885806e-09
2.29960460633e-07
8.21185748866e-08
1.12495190413e-07
3.26621801326e-08
1.32215807442e-07
7.81953103173e-08
1.21980453234e-07
1.62745191416e-07
2.61109169319e-08
3.97845967655e-08
1.54581142727e-07
9.93350755538e-08
6.5326102767e-08
7.73328999868e-08
1.09110383157e-07
1.88353902472e-09
3.9207951831e-09
7.35517444153e-08
2.93191731981e-08
3.41510754265e-08
1.43987188496e-07
1.30375336856e-07
1.86400550945e-08
1.19492752913e-08
2.22499472671e-08
1.33431745889e-07
1.06817486099e-07
1.02142512123e-07
2.75503409234e-08
3.41217151303e-08
5.66705166222e-08
4.13648409183e-09
7.99904687425e-08
1.65372905914e-07
3.04223096681e-08
1.88591207035e-08
4.32089320579e-08
4.00580693313e-08
9.87896381761e-08
5.1625461457e-08
9.17949702642e-08
9.16764189877e-08
1.96971359376e-09
1.95733147926e-08
2.7511477269e-07
4.66978599185e-08
1.37287442196e-08
4.38567829964e-08
1.92516252835e-07
3.46780129245e-08
7.05379654227e-09
1.82870659942e-07
4.43901678284e-08
3.59178156996e-08
6.49059873466e-08
5.81543575813e-08
1.4742612235e-08
3.42228726767e-08
5.03992580763e-08
4.55864324646e-08
3.4834029819e-08
4.35843269432e-08
6.738735242e-08
8.41074102821e-08
1.17533017894e-08
3.60613003398e-08
4.15277965446e-08
5.95887113929e-08
1.68120039196e-07
2.64012720158e-08
1.4708832279e-07
2.92080418356e-08
1.27247243244e-07
6.92162359333e-08
1.9248231098e-07
6.11810711215e-08
2.1022205776e-07
1.5749562043e-07
1.55567249549e-08
2.01017896723e-08
9.36410697544e-08
9.71737127282e-08
2.94921939836e-08
3.17350341101e-08
1.00499774598e-07
4.16002814043e-08
2.00862518167e-08
4.94591001911e-08
1.30001809826e-07
2.88172382248e-08
6.31813373216e-08
2.74642703539e-08
8.54611576023e-08
2.2615489731e-07
1.11205179026e-07
3.15386212664e-08
9.39985369861e-08
7.02492611238e-09
3.55121241149e-08
2.4405329217e-08
7.5370649268e-08
4.64763860795e-09
1.96958305041e-08
3.38967126171e-08
1.13110003569e-07
7.36331201341e-08
4.02826508591e-08
1.97262458795e-10
5.83561742177e-09
9.33275584478e-08
4.20018872649e-08
3.33486593853e-08
8.82887746179e-08
2.18270186414e-08
7.35767115528e-08
5.14614541034e-08
2.01031360346e-08
3.94270710255e-08
6.50081748137e-08
1.27333649281e-07
3.11534380589e-08
9.68957427969e-08
8.97078886281e-08
1.64556769441e-07
4.45874083635e-08
6.26899166731e-08
1.47360879086e-08
1.1085840366e-08
2.18195500414e-08
5.32967169773e-08
6.64352335643e-08
7.14190228739e-08
1.72333443783e-07
6.34269857186e-08
1.02137156574e-07
6.67056599539e-08
2.44293827681e-07
5.53612283153e-08
2.49474761888e-07
1.59928947245e-07
1.5559611773e-07
8.76555365065e-08
1.72834363734e-07
1.48421586546e-07
8.5545177778e-09
1.97356867536e-07
8.31732862245e-08
2.32743586924e-07
8.95798961811e-08
4.50809277917e-09
1.5907322672e-07
7.65580534527e-08
7.39277164629e-08
8.83013038729e-09
2.2217636292e-08
1.35914330489e-08
5.84053768748e-09
9.97115788613e-08
7.61216793876e-08
2.68290402937e-08
7.81867415701e-08
2.6564271412e-08
4.90398230118e-08
4.877827374e-08
4.02758476875e-08
3.54737012863e-08
2.87038056287e-08
1.15630381116e-07
2.10979966864e-08
6.02562181336e-08
4.64293120471e-08
1.06359820798e-07
1.13144898367e-07
4.11789082413e-08
6.93409329894e-08
7.68348197094e-08
2.29564857463e-08
3.31891832044e-08
1.44714982802e-10
1.39043731832e-08
1.36309719302e-07
9.23990105803e-08
7.56025423714e-08
1.09580255144e-07
2.04861868731e-07
2.47166133535e-07
1.16322754449e-07
6.40184754073e-08
4.96195056318e-08
2.60524325321e-07
1.59527965803e-08
2.13913664186e-08
4.379465364e-08
2.38945296875e-08
6.28012272989e-10
7.95862030722e-08
4.9666895158e-08
1.76373352134e-08
4.68544231049e-08
1.09060222746e-09
5.55478151965e-08
8.23035037526e-08
4.59260757342e-08
2.82977670915e-08
4.77566182734e-08
9.12157332664e-08
5.53182627e-08
7.63956373094e-08
2.60542190005e-08
7.75008669756e-08
3.75576132065e-08
1.02025212678e-07
2.15400243839e-07
2.70844543832e-07
8.69360374558e-08
4.32153638299e-08
3.202470846e-09
5.74774134424e-08
3.1302642053e-08
9.01561388799e-08
5.19175262645e-08
3.8068360293e-08
1.69674327059e-08
4.8743342876e-08
1.12198982398e-08
2.54263366973e-08
8.81280868331e-09
1.07063167482e-07
7.89377646317e-09
3.63738048603e-08
3.55647018638e-08
6.6162999005e-08
5.64785487884e-09
8.85848157632e-08
7.9426517201e-09
2.00407560157e-08
1.15484075385e-07
1.72382362432e-07
5.11188133589e-08
4.35582266504e-09
2.20706893075e-09
4.24503101523e-08
3.91416679778e-08
4.21946435703e-08
1.17142078137e-07
2.79104869204e-09
3.81399488766e-08
4.96535268688e-08
3.35384537656e-08
5.78048563143e-08
8.42981462148e-08
2.85415343773e-08
3.51382568395e-08
1.0455531424e-08
6.39337239214e-08
1.0856384506e-07
6.86192457179e-08
4.90047506431e-08
8.53440892737e-08
2.27816837016e-07
2.73481000144e-07
1.17075856881e-07
1.81761515306e-07
7.13264345834e-08
1.28811825654e-07
3.44736817671e-07
4.76651919784e-08
1.99215873677e-08
1.0164841563e-07
5.42219468064e-08
1.40941863641e-07
2.12903788479e-08
5.76305696973e-08
7.79362178629e-08
5.77015894199e-08
8.84255240698e-08
1.07541714299e-07
8.34827091326e-08
1.90532403111e-07
2.71476728329e-07
9.47395506076e-08
1.86391951256e-07
4.75327099363e-08
1.33948834757e-07
2.19706475976e-07
9.8795936274e-08
6.79807095508e-08
1.2896504107e-07
2.30809918774e-07
1.60034785938e-07
4.80006615755e-08
2.51242662205e-08
1.43112849673e-07
1.84826016036e-07
1.63050042007e-07
4.92426614971e-08
1.46639808244e-07
3.850283418e-08
3.03161764358e-08
7.85856248488e-08
9.09821709267e-08
7.1214195957e-08
2.23495537089e-08
1.02453486196e-07
3.21168899676e-08
1.02813327514e-07
5.01850447479e-08
2.22551832141e-08
8.581020342e-08
8.6017527382e-08
4.01570292008e-08
2.91049760531e-07
9.82336159649e-08
2.95033764581e-08
1.0533074666e-07
5.59790015045e-08
2.58410065221e-08
7.83235155312e-08
8.39810231907e-08
2.82311113822e-08
3.01159543934e-08
5.18338505889e-08
4.59593344516e-09
7.29775317942e-08
7.21461927608e-08
1.44311213441e-08
1.50406103719e-08
9.1622127085e-08
1.93711424903e-08
1.09937364505e-07
4.72053810753e-09
3.40748605963e-08
1.23154188032e-07
1.52607115135e-08
7.31604301117e-08
4.02792639366e-08
1.44005060407e-08
2.98278198154e-08
7.04768331887e-08
8.55867336613e-08
1.33261309441e-08
4.89109975055e-08
3.77484378077e-08
3.79143715466e-08
5.50911002935e-08
1.6586917825e-08
9.256866141e-08
7.16814954003e-08
2.48140374908e-08
1.14636300354e-07
1.17942823851e-07
3.18181319708e-08
2.74610859924e-08
5.21290495937e-08
2.84444305625e-08
5.36289193836e-08
1.51136313013e-08
8.80279306611e-08
1.83735928126e-08
1.21356217018e-07
2.19783030204e-07
8.03398875719e-08
8.18768304676e-08
4.61004548433e-09
1.83870209599e-07
6.17867164859e-08
1.25513697439e-07
9.04101208958e-08
3.23518296029e-08
5.47079411166e-08
1.16965247225e-07
1.3224474884e-08
1.48968848632e-08
4.24030065251e-08
4.0948291855e-08
5.72391086841e-09
3.9603690773e-08
1.97208602128e-08
1.30086537879e-08
6.06057891641e-08
9.43502773636e-09
6.37520760203e-08
2.08310825048e-07
2.49364093349e-07
2.0406288583e-09
1.05997111073e-07
7.80036841404e-08
5.81896851159e-08
5.54889164103e-08
7.20237344866e-08
1.60061611186e-07
7.5049468189e-08
3.7242251248e-08
1.92214639561e-07
2.01862907048e-07
1.40553654881e-08
5.39435230199e-08
2.89487722566e-08
1.89243726409e-09
1.03674295431e-07
1.3749135303e-08
7.19732041948e-08
5.89289626875e-08
2.26562630483e-07
3.85989155395e-08
2.30982490186e-08
8.13447550236e-08
4.4075960014e-10
1.12961596172e-08
2.99434233414e-08
6.22568996945e-08
3.33651710621e-08
2.19186877021e-07
1.30075473467e-07
4.1015743725e-08
1.10586769456e-08
8.09975091063e-08
2.22551835883e-08
6.89812219502e-09
1.52162285726e-08
3.20328921483e-08
1.81012890414e-08
7.86887969551e-08
2.32791327345e-08
1.58378872082e-07
9.9505612992e-08
1.52908439728e-07
1.45882375668e-07
5.5400142431e-08
4.1589967764e-08
4.39637868464e-08
8.56852895455e-08
2.54155264836e-09
4.35615673786e-08
7.47865678898e-08
3.0396729408e-08
1.31968263961e-08
4.81550154212e-08
4.73936562223e-08
2.37213863991e-08
2.45727316571e-08
1.20129197572e-07
1.78206566594e-08
2.27050824287e-08
4.35967191842e-08

