# vtk DataFile Version 3.0
File Name: Molecule/sphere_excent/sphere_excent_0-s26.vtk
ASCII
DATASET UNSTRUCTURED_GRID
FIELD FieldData 1
TIME 1 1 double
0.0
POINTS 1032 double
0.9662014246 0.1058633104 0.2349588722
0.92823410034 0.012281165458 0.37023225427
0.96571356058 -0.087617352605 0.24305693805
-0.4453432858 0.77884966135 0.44084736705
-0.30624985695 0.80118918419 0.5140812397
-0.30532693863 0.8641846776 0.39936906099
-0.059014797211 0.7149489522 0.69650804996
-0.16770152748 0.68285620213 0.71053171158
-0.062159389257 0.64927446842 0.75766146183
0.012732604519 0.58991527557 0.80730217695
0.060583088547 0.6782053709 0.73234987259
0.28999054432 0.33708626032 0.89569586515
0.27422896028 0.41095468402 0.86941742897
0.22178241611 0.3535900712 0.90871715546
-0.33559808135 -0.30956584215 0.88968098164
-0.28264141083 -0.25488725305 0.92474377155
-0.35011559725 -0.22074513137 0.91031587124
-0.20549964905 -0.57855725288 0.78932863474
-0.18489465117 -0.49980530143 0.84604597092
-0.28067913651 -0.51663273573 0.80873453617
0.12299737334 -0.35379171371 0.92694038153
0.046254508197 -0.37879317999 0.92427092791
0.12255059928 -0.44184786081 0.88867241144
-0.42299634218 0.26572859287 0.86619967222
-0.39789542556 0.19940473139 0.89546114206
-0.34867760539 0.25633782148 0.90141695738
-0.53038108349 0.31607267261 0.78662997484
-0.50558066368 0.23325042427 0.83054840565
-0.45551323891 0.32589954138 0.82839357853
0.62383198738 0.70218777657 0.34315821528
0.58946555853 0.65858918428 0.46745869517
0.69299703836 0.60109090805 0.3980204165
0.23371104896 -0.66308629513 0.71091651917
0.26865887642 -0.74137759209 0.61490315199
0.34515437484 -0.63764178753 0.68858730793
0.15524841845 -0.74664002657 0.64686745405
0.12708720565 -0.66265457869 0.7378666997
0.42624202371 -0.53399002552 0.72946572304
0.33508619666 -0.55829524994 0.75866401196
0.42280676961 -0.58868587017 0.68842148781
0.57460606098 -0.64047497511 0.50953733921
0.50865989923 -0.62361890078 0.59351021051
0.46578282118 -0.73185867071 0.49734202027
-0.42164903879 -0.62117469311 -0.65994131565
-0.62728095055 -0.59611994028 -0.50105381012
-0.60780566931 -0.41422748566 -0.67745196819
-0.80548840761 -0.31241551042 -0.50346380472
-0.62958961725 -0.20823597908 0.74845182896
-0.58054757118 -0.15009994805 0.80027890205
-0.63641536236 -0.094317667186 0.76556622982
0.80763930082 0.053375355899 0.58657664061
0.72402745485 -0.02577477321 0.68927508593
0.79400467873 -0.10012313724 0.5996055007
0.72634494305 0.11591415107 0.67739248276
0.71624708176 -0.18273936212 0.67348915339
-0.78351587057 -0.56932902336 0.24778603017
-0.71275013685 -0.61682015657 0.33392226696
-0.79506802559 -0.49512341619 0.3497672081
-0.21575088799 -0.95442187786 -0.20598965883
-0.3072682023 -0.95061528683 -0.042783685029
-0.45648378134 -0.87316578627 -0.17093575001
-0.066113375127 -0.99766713381 -0.01736959815
-0.48753663898 -0.87134939432 0.055331032723
-0.61260998249 -0.78604966402 -0.082693167031
-0.66203391552 -0.74439328909 0.084955401719
-0.72256833315 -0.67218029499 -0.1612675488
-0.62860900164 -0.72318583727 -0.28591638803
-0.47222784162 -0.80106371641 -0.36775699258
-0.77640742064 -0.54150336981 -0.32227155566
-0.21558594704 -0.04915067926 0.97516304255
-0.15771085024 -0.041304685175 0.98655664921
-0.17032639682 0.020308353007 0.98497736454
-0.26996609569 -0.95472073555 0.12493254244
-0.038606986403 0.99769836664 -0.051238067448
0.0074934749864 0.96470242739 -0.26131284237
-0.20624755323 0.95894289017 -0.19229492545
-0.19534897804 0.8937074542 -0.40369531512
-0.13519816101 0.076958462596 0.98776906729
-0.097417443991 0.032470263541 0.99468404055
0.86154145002 0.42473581433 -0.27802816033
0.68509072065 0.5693911314 -0.45440277457
0.73595863581 0.63564991951 -0.22829888761
0.79576814175 0.32380062342 -0.51156699657
0.54169178009 0.7703512907 -0.33620974422
0.61979997158 0.39570474625 -0.67761880159
0.4371574223 0.71798789501 -0.54135751724
-0.89513510466 -0.36546111107 -0.25526860356
-0.93651789427 -0.12708216906 -0.3267865181
-0.9670907855 -0.22733439505 -0.11421497166
-0.89930772781 -0.4350476265 -0.04166636616
-0.99053835869 -0.0097813336179 -0.12700217962
0.61301547289 -0.020590635017 0.7898196578
0.55870395899 -0.098304823041 0.82331997156
0.64907437563 -0.12085198611 0.75107264519
0.63109666109 -0.2271964699 0.741525352
-0.94309324026 0.14484550059 0.29837310314
-0.97361916304 -0.015929643065 0.22746495903
-0.91186594963 0.010988799855 0.40946429968
-0.99661302567 0.061138674617 0.049461618066
-0.99186128378 -0.11455437541 0.055639024824
-0.96003907919 -0.16264557838 0.22756585479
-0.95440948009 -0.29626938701 0.035659793764
0.57257378101 -0.81438344717 0.092821337283
0.69447243214 -0.71916604042 0.02049151063
0.67239260674 -0.71866744757 0.17690137029
0.47553989291 0.87244862318 0.11074784398
0.57330292463 0.78548771143 0.2329916209
0.65178358555 0.75129801035 0.10240134597
0.70429712534 0.67134636641 0.23076243699
0.43132588267 0.84908819199 0.30316928029
0.52663785219 0.77515476942 0.34850072861
0.28550696373 0.86374378204 -0.41315829754
0.40191432834 0.88717252016 -0.22662346065
0.50737738609 0.85612630844 -0.097732029855
0.35108467937 0.93495291471 -0.051571894437
0.24060089886 0.94525182247 -0.22030594945
0.15284124017 0.98484325409 -0.081101179123
0.23163707554 0.96985936165 0.072374224663
-0.81901210546 -0.55935108662 -0.12695027888
-0.50236260891 -0.016363942996 -0.86441558599
-0.70419579744 -0.13363008201 -0.69725745916
-0.68009215593 0.1442463398 -0.71874380112
-0.84591764212 0.011056004092 -0.53316402435
-0.79611349106 0.29951334 -0.52585738897
-0.92276376486 0.15660861135 -0.34955775738
-0.87126851082 0.39095297456 -0.29450818896
0.90695261955 0.10862717777 0.40620335937
0.92006397247 0.21750353277 0.32561850548
0.94794994593 0.29112276435 0.12910281122
0.88360059261 0.35031792521 0.31004393101
0.86856323481 0.45725211501 0.19062505662
0.89414381981 0.44597625732 -0.028476091102
0.96173340082 0.25436902046 -0.10075651109
0.99305987358 0.10441090167 0.050222415477
0.98855757713 0.0011370519642 -0.15065450966
0.77896541357 0.55506813526 0.29173013568
0.48192563653 -0.14363768697 0.8643463254
0.48350518942 -0.077106229961 0.8719035387
0.40488752723 -0.12374312431 0.90595364571
0.38112157583 -0.20539562404 0.9014018178
0.32366284728 -0.15470291674 0.93343877792
0.73716396093 -0.44466426969 0.50870627165
0.81817156076 -0.42405241728 0.38814392686
0.79032540321 -0.32914492488 0.51671850681
-0.69006484747 -0.27031624317 0.67133933306
-0.65303122997 -0.39115765691 0.6481038928
-0.603720963 -0.32613965869 0.72742724419
-0.75719702244 -0.31545418501 0.57092255354
-0.75898134708 -0.18870258331 0.62270486355
0.10733685642 0.89550375938 0.43173331022
-0.03446380049 0.91710209846 0.39712890983
0.028099421412 0.85845679045 0.51175940037
0.16794897616 0.83538919687 0.52335500717
0.10185242444 0.77829122543 0.619589746
0.26710000634 0.86480432749 0.42421266437
-0.17503750324 0.87374508381 0.45363104343
-0.70250338316 -0.12727276981 0.70014631748
0.92731815577 0.14494392276 -0.3449857235
0.77906638384 -0.60043817759 0.1776201427
0.70884639025 -0.63883548975 0.29881599545
0.74743455648 0.66166931391 0.052249539644
0.79041570425 0.59501886368 0.14191313088
0.41245180368 0.77614879608 0.47603929043
0.30021882057 0.7961871624 0.52530938387
0.38631734252 0.71386116743 0.58391022682
0.21546380222 0.76865196228 0.60224127769
-0.29623615742 0.46643909812 -0.83344727755
-0.57540583611 0.40850934386 -0.7084839344
-0.44299671054 0.63825082779 -0.62950956821
-0.66873669624 0.53343522549 -0.51668965816
-0.56973510981 0.72469317913 -0.38750237226
-0.59072005749 0.56223791838 0.57866132259
-0.56457668543 0.5080088973 0.65030276775
-0.50101780891 0.63580483198 0.5862056613
0.99132281542 -0.12592899799 0.012438508682
0.95916444063 -0.25074487925 -0.12553577125
0.95601665974 -0.28902620077 0.042352564633
0.65786081553 0.54433512688 0.52049392462
0.75272268057 0.4817622602 0.44876918197
0.71478068829 0.42684751749 0.55390095711
0.78366166353 0.33428266644 0.52354604006
0.25239652395 0.61753338575 0.74481070042
0.29570549726 0.66257804632 0.68800109625
0.18142436445 0.70511502028 0.68548250198
0.35115543008 0.58228325844 0.73318076134
-0.6987336874 0.4720235467 0.53728282452
-0.72837406397 0.37675854564 0.57228195667
-0.64101582766 0.46146702766 0.61326342821
-0.0093098031357 -0.21308523417 0.9769949913
-0.041414618492 -0.16163389385 0.98598563671
-0.067538388073 -0.20491704345 0.97644883394
0.010113503784 -0.15082535148 0.98848354816
-0.38805902004 0.87217265368 -0.29777723551
-0.55341523886 0.81079822779 -0.19010013342
-0.42056015134 0.89805817604 -0.12237016857
-0.56570744514 0.82431399822 -0.01645328477
-0.55653738976 -0.25718584657 0.78986060619
-0.52434408665 -0.33966401219 0.78074032068
-0.96149975061 0.25553122163 -0.090404585004
-0.89961802959 0.43107390404 -0.068533837795
-0.42346590757 0.23019360006 -0.87615221739
-0.78733021021 0.48822492361 0.37627258897
-0.81274133921 0.5301374197 0.24155542254
-0.87238121033 0.41347917914 0.2606535852
-0.86245054007 0.496596843 0.097027353942
-0.78355121613 0.60095500946 0.15770064294
-0.72060328722 0.64700090885 0.24901846051
-0.92811506987 0.28671950102 0.23741233349
-0.87616109848 0.2933216691 0.38135960698
-0.92837303877 0.36129617691 0.086064226925
-0.9646012187 0.23782390356 0.10885503888
0.061646070331 -0.19501286745 0.97861886024
-0.57797831297 -0.42742806673 0.69501894712
-0.81245684624 0.58003282547 -0.057024478912
0.79609388113 -0.30362951756 -0.52347135544
0.8442685008 -0.064862139523 -0.53173714876
0.9286390543 -0.15695801377 -0.3360414803
0.84939581156 -0.42751824856 -0.30628451705
0.72933119535 -0.51600903273 -0.44917133451
0.24766804278 0.28765457869 0.92514944077
0.30815237761 0.2653593123 0.91358107328
0.90582239628 -0.13187302649 0.40250968933
0.38733771443 0.63259363174 0.67062664032
0.47301784158 0.61659932137 0.62926763296
0.43844118714 0.55437469482 0.7073584795
-0.75189274549 0.093742787838 0.65255177021
-0.67198038101 0.10027675331 0.73368054628
[...]
CELL_DATA 2060
SCALARS cell_data_0 double
LOOKUP_TABLE default
5.31745386808e-08
6.44042312802e-08
2.92998047625e-08
7.00824862769e-08
4.0223217394e-08
9.31385448402e-08
1.01931464497e-07
1.94171451983e-08
1.28473981347e-07
3.10729288901e-09
1.76864223412e-08
1.00119867124e-08
2.30476723005e-07
3.99291214909e-08
3.47889280338e-08
9.74914333582e-08
6.19023411149e-08
1.65453251967e-08
1.65188837612e-08
4.15223858104e-08
3.60281141704e-08
6.94743526844e-08
8.80434203079e-08
2.72764487025e-08
6.04622342785e-08
3.59216608576e-08
4.04540984237e-08
9.80803637724e-08
2.2737676779e-09
1.17027447948e-07
8.44578824693e-09
8.61589809227e-08
7.10240267602e-09
9.5715206596e-08
1.15985705943e-08
1.51986894297e-07
2.85482045625e-08
3.41797462224e-08
1.07231518926e-07
1.39355039072e-08
7.18966141069e-08
8.69576012958e-08
6.49935104943e-08
1.14653020486e-08
2.57560377661e-09
2.07714722501e-08
7.12004689825e-08
2.04219518365e-08
4.70160349286e-08
6.14321884801e-08
5.48446421368e-08
4.50738228585e-08
3.16389443156e-08
1.64258517178e-07
9.99216646772e-08
4.28833550987e-08
1.75327546613e-09
2.41521876903e-08
8.35886412431e-08
4.46610366324e-08
1.76011466504e-08
4.67093852404e-08
3.00466332145e-08
4.30438011289e-08
6.31378208557e-08
1.34249237275e-07
4.87864061048e-08
1.43340189373e-08
6.82789321293e-08
1.55607469398e-07
1.14874366093e-07
2.10726590835e-08
7.73366843509e-08
5.73776804948e-10
5.9208775124e-08
5.24242597771e-08
1.41299399591e-07
1.61267891417e-08
4.6440417922e-08
1.45348922153e-09
1.08075918711e-07
6.71479529193e-09
7.98724992131e-08
4.13254562407e-08
6.9542440442e-08
3.35776979676e-08
5.79166401421e-09
2.77405419157e-08
8.00541132751e-08
6.99857582325e-08
1.14777535153e-07
1.63441928503e-07
4.29758845703e-08
6.39827375163e-08
1.05379267014e-07
1.28727770052e-07
3.32498081014e-08
3.06735859075e-08
1.22054133044e-08
1.05477382937e-07
4.24317122837e-08
2.46515310211e-08
7.3274358314e-09
8.30903603631e-08
9.56384863125e-08
1.05644404335e-07
1.19885487777e-08
1.59654086395e-08
5.27844210784e-08
3.9592147096e-08
7.8644276344e-08
7.32675780113e-08
1.2582909974e-07
9.36728164316e-08
3.58337012849e-09
2.95083445266e-08
7.67897577921e-09
1.00850666912e-07
8.07148995187e-08
8.58093530582e-08
4.72764121875e-08
3.18214297985e-08
7.05694705258e-08
3.66229679148e-08
1.44985630125e-07
1.04503346302e-07
1.49506493604e-07
6.54164880373e-08
1.313834868e-07
2.48127209184e-08
1.40686646343e-07
2.49127441912e-08
2.91693243824e-08
4.93197087063e-08
3.51702923904e-08
9.15260961501e-08
5.46914854425e-09
7.02750431294e-09
3.5619355301e-09
7.04026217186e-08
3.24642278013e-08
3.39352006158e-08
1.07803021771e-07
2.73421482657e-08
3.89955643664e-08
2.19123249585e-08
7.8094918426e-08
8.55840586833e-09
4.91767538386e-09
2.08288871825e-08
1.25955135134e-08
7.12257010791e-09
6.41879302989e-08
7.51692614449e-08
1.30738706643e-07
2.1412894162e-09
1.55028441894e-08
1.79796568619e-08
2.18218932062e-08
2.04930198755e-07
7.22096383795e-08
3.28263739081e-08
4.08590607106e-08
7.2436085304e-08
1.68661526649e-08
2.10596234657e-08
1.93592514326e-08
1.27120104121e-07
1.62373974953e-07
1.0423955277e-07
6.5567553374e-08
1.15418425106e-07
1.68630391245e-07
3.81943512431e-09
7.26985535978e-08
6.2383887202e-08
5.69278185227e-08
9.15607103031e-08
7.61689041172e-11
3.68599739224e-08
1.37885857256e-10
4.37876511952e-08
9.42916284035e-09
4.58887216304e-08
2.84295887126e-08
1.08387738077e-07
3.24210267865e-08
7.85845648298e-09
1.58134163904e-08
5.13460127659e-08
5.61365036821e-08
2.10525284703e-08
4.43527707498e-08
2.75079161238e-08
7.14995859551e-08
2.13833567497e-08
2.89175714233e-08
1.43500068609e-07
3.05504738593e-08
4.46183668639e-08
6.09637499798e-08
3.81556821068e-08
3.3813040753e-08
5.88059081861e-08
7.50092446273e-08
1.33378715836e-07
2.65528039636e-08
2.22661560676e-08
1.69678196858e-09
6.63516554493e-09
3.56872353014e-08
1.21348192768e-08
9.06770300638e-08
1.74924624838e-07
3.24456204516e-08
5.11718916595e-08
8.04142466044e-08
2.3710581259e-08
5.44853874343e-08
1.62725958294e-08
3.85782502353e-08
1.52827524664e-08
4.50469780506e-08
9.95811942151e-08
9.29339805475e-08
1.86788857336e-09
8.21355228045e-08
4.69633767354e-08
3.79312517196e-08
1.17251077544e-08
7.48704373005e-08
1.08735194403e-08
5.81196393214e-09
1.92105445107e-08
3.0014457366e-08
1.0081262905e-07
2.28721030965e-08
2.07763036199e-08
9.74672336025e-08
1.79485756555e-07
9.26115540489e-08
4.27332596667e-08
8.42072433365e-08
1.13598404782e-07
1.99342612513e-07
5.89021421073e-08
6.11594946485e-08
4.33585576719e-09
2.08830796237e-08
9.56677808443e-08
1.86089778675e-08
9.3534993332e-09
3.39708947258e-08
4.24644447842e-08
9.12094428193e-08
8.39322393066e-08
1.27187191379e-07
5.61960669318e-08
3.32807681179e-08
1.88214710651e-08
9.35682271135e-10
1.37396355773e-07
1.04629400324e-07
8.69722082197e-08
4.07111688657e-10
5.33881145748e-09
6.27544102969e-08
1.48550566528e-08
3.36999711178e-08
7.63903539134e-08
7.63369952273e-08
1.04189327772e-07
7.77315933299e-09
2.10952947354e-08
2.25458798338e-08
1.0446013473e-08
3.88196346774e-08
1.63003044363e-09
4.65145873881e-08
2.67158568725e-08
1.19749463732e-08
3.1650645477e-09
6.25197637531e-08
7.94362874756e-08
5.0684368134e-08
7.60087893442e-08
3.81572461821e-08
7.78596302879e-08
7.07805258304e-08
1.17145504227e-07
1.23794243187e-08
4.48825905231e-08
4.75995270802e-08
1.02985747862e-08
1.65613617399e-08
4.72821220911e-08
4.40046659844e-08
6.65079639725e-08
1.27801696591e-08
6.15520645788e-08
3.76820867692e-08
2.43206178059e-08
9.44041370041e-08
2.5156593299e-08
8.19229356162e-08
2.42592490457e-08
6.74823053135e-09
5.51836599695e-08
2.56751795613e-08
1.58011122282e-09
1.58638492401e-09
1.83112115037e-08
7.42254098582e-08
3.21748590784e-08
4.08027774979e-08
1.00982719243e-08
1.02432750444e-07
6.46023031792e-08
5.83001260367e-08
6.41904310487e-08
2.5285742787e-08
4.48047565305e-08
5.62941225283e-08
4.92513321703e-08
5.70014548988e-08
9.50348894725e-08
5.1613527989e-08
2.08948666022e-08
8.93035194961e-08
5.82853588898e-08
4.2964256021e-09
1.05362182261e-07
1.80326995824e-08
3.73736977134e-08
1.32523730129e-08
3.5990985297e-08
6.34212815418e-08
4.81398914389e-08
4.49191179798e-09
2.68487825771e-08
8.19843581571e-08
3.74210884618e-09
5.63292937256e-08
7.96377515072e-08
4.98372321983e-08
2.32923665789e-08
4.06378452088e-08
1.48501836177e-08
1.74864119918e-08
2.19287334583e-07
7.51784442351e-08
3.83358322395e-08
3.35038191986e-08
8.20683471865e-09
5.59165634738e-08
6.4390891143e-08
1.20139376344e-07
3.65928685809e-08
4.5798219663e-08
7.48816602895e-08
6.0342719992e-08
3.80537451368e-08
7.60682395097e-08
9.25061602113e-10
8.89370202579e-11
1.23769364425e-07
1.54024914912e-08
1.46881655121e-08
1.68568615586e-08
1.15489317195e-08
3.9176797446e-08
1.10524831822e-08
2.80299955294e-08
7.5165050636e-08
3.42177389751e-08
1.01827655749e-08
4.1574624251e-08
7.45881312299e-08
1.89033651512e-08
8.72074995348e-08
3.99287438436e-08
7.67746025488e-08
3.86579521894e-08
2.1666876013e-08
8.31201950476e-10
7.20010852579e-09
3.55035210157e-08
3.04701674667e-08
1.4066178778e-08
1.38151311547e-08
1.84410546295e-08
3.47175556317e-09
2.98786199851e-08
4.75456202866e-08
8.8843298037e-09
1.60019154991e-08
5.52335228562e-08
6.97629248193e-08
1.54498430032e-08
4.86951997593e-08
5.1887710585e-08
9.2173768353e-08
3.18330695865e-09
2.4414336612e-08
1.9955092094e-08
1.09315925332e-08
3.89005811145e-08
5.0863572763e-08
3.13685797816e-08
2.47844421774e-08
4.32179161988e-08
2.88311333156e-09
1.08541011754e-08
4.01277422927e-08
4.96934766502e-08
2.77746276519e-08
2.59887216877e-08
1.33630544883e-07
1.75836807026e-08
1.53811415545e-08
1.0644387866e-08
2.42743896973e-08
5.69672973306e-08
1.25219701067e-08
1.65367778839e-08
4.49583307827e-09
2.73155719608e-08
7.35699460204e-08
1.11231498952e-08
3.73922210239e-09
1.1994390717e-08
8.50057310265e-08
2.85992667104e-08
2.72041285675e-08
4.43001126759e-11
1.09153968067e-07
4.12768311226e-08
1.51102102754e-07
6.27961520986e-08
6.85222397339e-09
1.01763040173e-07
2.43558900053e-08
2.81742534544e-08
2.20022802524e-08
1.92517673992e-08
3.36853373914e-08
1.57206558415e-08
2.53820805089e-08
8.76691952769e-08
8.64836262654e-08
5.00996264735e-08
1.21113104983e-07
2.74410639688e-08
1.27600751582e-09
1.71414055798e-08
3.95943275572e-08
8.10509529566e-09
2.76351237101e-08
1.48368180849e-08
5.69464260609e-09
5.58580828186e-09
4.93331817074e-08
2.90958906059e-08
1.68019702233e-07
1.0892667299e-07
6.81188374097e-08
6.72191089158e-08
3.08131831366e-08
1.16901644606e-08
5.32477485391e-09
4.96951989129e-09
2.07870255101e-09
1.3321326169e-08
6.11413009588e-08
6.79435567922e-09
4.1990087073e-08
1.19194356331e-08
1.57972253231e-07
1.69780951471e-08
1.47939229962e-08
3.55254872393e-08
5.59611168958e-08
3.24237635821e-08
5.7241703348e-08
1.55433177886e-07
2.33656091197e-08
4.7582735578e-08
9.0013880563e-08
5.70527473538e-08
7.38316712829e-08
2.97445696291e-08
9.739327723e-09
1.2702356346e-08
1.13408822013e-07
4.01883549535e-08
9.56882772769e-08
4.31287521711e-08
1.25974401121e-07
3.95388839294e-08
1.60514250836e-09
8.70702871132e-09
2.27345531804e-08
3.46966984074e-08
1.25114551116e-08
1.79697280461e-08
5.35420207932e-08
8.99107464455e-09
3.85410582772e-08
7.56235717885e-08
1.14954476225e-07
1.29863077664e-08
5.61748232566e-08
6.15451019673e-08
1.80829654454e-08
8.93854085555e-08
9.58579578284e-08
8.01199768035e-08
5.7481491418e-09
6.02185376827e-08
4.28480193979e-08
7.77205090067e-10
7.67964694558e-08
1.82681054433e-08
5.21371277566e-08
8.89648514375e-09
3.02604428194e-08
2.52256787981e-08
6.335042837e-08
1.26532668551e-09
7.50830630541e-09
1.29852502847e-08
2.19912335049e-08
5.42680611179e-08
5.32884919767e-08
8.05366881545e-08
2.91983343422e-08
4.92724820993e-08
2.51199267829e-08
9.0481768448e-09
1.52299056499e-08
5.14245499956e-08
1.5230496068e-08
1.61235279068e-07
4.64090933696e-08
4.61037941174e-08
2.26845469717e-08
3.9350869669e-08
9.84025163011e-08
6.14577676975e-08
9.81529765642e-08
8.52480713067e-08
5.26734089431e-08
3.09886401006e-09
5.65005079258e-08
2.53137913543e-08
3.7547401937e-08
5.8377870664e-08
3.44301864139e-09
1.19696394796e-08
8.95185525496e-08
5.78856861774e-08
4.90079155909e-08
4.98096989932e-08
6.96553875221e-08
1.27205224245e-08
2.02367649648e-08
8.56418041783e-09
1.11713006327e-08
9.77335117677e-08
2.29209062105e-08
4.64735600999e-08
1.30491215555e-08
2.31911865297e-08
4.90575757967e-08
3.9172520723e-08
5.09498122989e-08
1.16656754775e-08
1.03247684298e-07
2.26287545655e-08
9.25013942412e-10
3.22991489504e-09
1.25883973285e-07
3.16488213529e-08
5.84253244275e-08
2.06076322236e-08
7.31430284871e-08
3.03768219931e-08
8.46575449467e-08
1.46389115506e-07
1.39391183907e-07
1.75194992305e-08
4.82060801295e-08
6.66081511428e-08
9.32772231519e-09
2.62075562711e-08
7.16945510147e-08
3.42691354467e-08
1.15546214297e-07
3.90121941488e-08
9.20975785906e-08
1.03811760492e-08
2.09968697696e-08
4.32124218907e-08
9.42996028011e-08
3.85018866841e-08
5.10226318465e-08
2.04019999894e-08
4.77153935228e-08
9.42223469225e-08
4.55281678338e-09
2.89738819633e-08
5.01657647664e-08
1.70886374908e-08
5.14633842126e-08
5.89462568854e-09
8.20778905739e-08
7.24231660361e-08
4.82487339664e-08
2.95730288234e-08
2.96102117337e-08
2.8286630333e-08
1.2572648577e-07
1.16336439243e-07
2.11150650469e-08
9.88252223781e-08
2.86583617744e-08
8.86325542546e-08
1.31829914053e-07
9.32076647159e-08
1.08593947832e-08
3.40111878969e-08
4.20568582748e-08
4.81678857683e-08
1.93005001517e-08
1.58809664527e-09
9.50433784326e-09
4.27985978121e-08
7.69078126203e-08
5.30766869229e-08
2.71729364133e-08
4.85704484543e-08
4.80032063551e-08
6.66007718028e-08
2.86519456491e-08
5.55267511319e-08
3.83684197206e-08
5.2321754579e-08
2.16187462391e-08
4.37732062982e-08
4.77449479999e-08
1.60033213193e-08
5.63198785435e-08
2.05049628939e-08
2.79271266332e-08
4.25748448615e-08
2.17538098398e-08
7.01716477913e-09
1.30751700944e-08
9.89883318931e-09
3.59070379768e-08
4.54626124959e-08
7.20757260668e-08
3.69481351523e-09
4.23157919259e-08
4.9545428423e-09
4.1617542667e-08
1.52730508887e-08
2.37303659217e-08
5.99577549578e-08
7.19224383641e-09
5.08599610963e-08
1.59538706537e-08
6.0660416162e-08
1.0498407597e-07
5.16812022838e-08
2.83736464394e-08
1.98063928441e-08
8.51766883435e-08
8.39288528773e-09
2.3436505038e-08
1.09128150385e-08
1.95537397504e-08
8.41849469387e-09
1.41886425718e-07
3.00502933618e-08
3.74706361189e-08
2.86272694116e-08
7.99692211189e-09
8.48956148992e-08
3.8298454546e-08
4.00025562876e-08
3.21317275776e-08
1.57644644435e-08
5.23992786083e-08
8.18745515767e-09
1.58905621524e-07
3.49507734792e-08
2.33126894106e-08
1.18495915933e-08
8.25065980768e-09
3.01324272983e-08
1.55651446936e-08
3.35609690703e-08
4.11597501812e-08
5.28813662541e-08
1.63113163563e-08
2.88989953438e-08
6.19014078043e-08
6.62457354021e-09
3.3323834998e-08
4.43908262641e-08
5.02985919007e-10
2.40186042806e-08
3.49538733364e-08
3.25923005154e-09
4.38591336802e-09
2.17835145167e-08
7.47402453521e-08
2.36327328165e-08
2.36560157544e-08
6.66119977188e-08
3.24239407174e-08
3.28377547288e-08
7.41464438024e-08
2.11241156557e-08
7.38552117924e-08
1.77159574858e-07
1.01230798666e-07
1.51644096315e-08
5.30745580667e-08
4.81962801071e-08
1.49982251621e-10
3.61456583377e-08
1.91864518987e-09
5.86532714055e-08
4.06219331158e-08
3.37659040976e-08
2.75104437246e-08
3.65504927529e-08
6.09875870882e-08
1.06725266125e-07
9.67059695311e-08
3.63368540011e-08
2.60819220786e-09
2.95876695617e-09
9.09853089264e-08
6.1448512814e-08
9.80930360836e-08
8.95617417109e-08
7.97259909373e-08
2.50228084811e-08
5.87141087971e-09
7.43606883422e-08
2.11227997579e-08
2.96025986853e-08
2.00153792763e-08
9.16932264695e-08
8.41232415398e-09
3.40385571546e-08
1.65070201731e-08
5.04203588782e-09
4.68501558598e-08
5.03751730991e-08
7.7360657995e-08
1.01504094795e-08
4.77932117108e-08
2.76224313013e-08
3.41440610844e-08
3.63411036474e-08
6.49732550889e-09
2.6269330245e-08
3.4428793299e-09
7.16404877352e-08
6.41084149308e-08
4.26633023453e-08
1.00315696662e-07
8.8740200408e-09
3.86942054502e-08
3.18832460152e-08
5.2667039555e-08
9.13105403079e-08
1.60260184298e-08
1.67760597942e-08
5.4083389467e-08
3.59209350811e-08
2.36466437609e-08
8.26781380435e-08
2.64037857754e-08
4.67199831782e-08
8.26967949302e-08
1.48357706805e-08
2.68483471332e-09
4.50467927379e-08
6.29048876593e-08
1.67308895094e-08
5.29440298329e-09
1.96207211409e-08
1.60065353428e-09
2.78756021622e-08
2.26901357221e-08
7.13851058348e-09
1.08239885338e-07
9.24760317524e-08
1.58581942772e-08
2.33696320805e-08
4.04929284635e-08
6.87240520146e-08
4.40958852301e-08
2.72252508193e-09
2.63393930118e-08
1.62116881709e-07
8.71042743434e-08
6.32534644743e-08
4.9185647729e-08
1.73751266243e-08
2.54940956084e-08
7.84877751733e-08
1.55169399229e-08
9.93538466231e-09
7.53953131838e-09
3.46783166279e-09
3.64199583192e-08
4.03323444728e-08
1.62396363941e-08
6.05544837951e-09
2.45340290839e-08
2.96321896811e-08
1.82194145005e-08
3.2810831128e-08
1.58908615773e-08
7.09780172188e-10
6.66773428941e-08
1.28453582045e-07
1.06273623282e-08
2.77358201143e-08
3.34129540127e-08
1.00037339591e-07
6.04619233444e-09
1.7958008139e-08
5.5138439965e-08
7.75847702627e-08
3.17257732407e-08
2.00428982445e-08
1.54428810305e-09
8.1159244654e-09
5.84321148027e-08
4.35896372576e-08
3.3927590704e-08
2.57686278204e-08
1.7862909719e-08
7.68492589544e-08
2.3157323011e-08
3.56355757466e-08
1.50808919799e-08
4.32545562051e-08
9.43614556101e-09
1.72299021777e-08
4.65253845818e-08
1.90752979202e-08
1.09729885149e-07
3.97875113167e-08
1.0624675616e-07
4.21105941121e-08
1.02439947442e-09
4.96155781481e-08
6.0946132644e-09
1.10339097153e-07
4.1168425049e-08
3.54007748166e-08
1.03824651662e-07
4.11126845177e-09
5.60613731655e-08
1.32933906022e-09
1.07983522701e-09
2.17028454961e-08
3.22200972756e-08
4.49028342776e-08
6.14324006034e-08
2.5262080452e-08
2.32344641932e-08
1.69964414908e-08
2.4926951627e-08
1.07653600456e-09
3.22751300228e-08
1.78584260961e-08
1.92489510983e-08
4.03858056183e-08
8.75315247887e-08
1.34004911729e-08
4.09385029725e-09
7.90197578689e-09
7.17882173789e-09
3.02614346619e-08
2.6271971987e-08
7.59669985581e-08
4.07122368495e-08
9.65357725851e-09
3.85036234493e-08
5.26266939901e-08
4.40883534194e-10
7.98774258863e-08
7.69716641307e-08
2.79292327751e-08
1.49696454222e-08
5.19082742694e-08
3.90831271875e-08
8.55247630823e-08
2.54851074926e-08
1.24461668518e-07
2.26843138086e-08
3.62284513258e-08
3.00658401964e-08
5.71339995995e-09
4.506260893e-08
3.44992115597e-08
6.4809490894e-08
5.93212123287e-08
2.09705004635e-08
8.2266203184e-08
9.23693472735e-09
1.01719544727e-07
2.67388713883e-08
8.99598853799e-08
7.5093421005e-09
2.93473311488e-08
4.82061295013e-09
3.66509953487e-09
2.02102772028e-08
1.67820030425e-08
7.37440161412e-08
6.0369027841e-08
6.23481606377e-08
8.97467545667e-08
4.87968209503e-08
6.82731468911e-08
6.21943268167e-09
2.2353426471e-08
9.39734367589e-10
4.91544098737e-08
1.42604392534e-08
1.91598961922e-08
2.91378797263e-08
9.48634075927e-08
6.34090035275e-08
2.21306079488e-08
1.28272870248e-08
7.22923671051e-08
6.51031447667e-09
4.43396362148e-08
3.63608637146e-08
5.83817028611e-08
4.53228329956e-08
7.04301529611e-08
1.00384139269e-08
4.21299309441e-08
5.88624310685e-08
1.54966307034e-08
3.0557302685e-08
5.75738152246e-08
2.65337211513e-08
5.79629734539e-08
8.1246917794e-09
7.69191677863e-08
2.0346907927e-08
6.56540820229e-09
5.26007555352e-09
1.22775592551e-08
1.13801544762e-08
6.38793831778e-09
3.1114436659e-08
1.50491163222e-07
3.24172568457e-08
1.72056896898e-08
5.38988442752e-08
2.94382523561e-08
5.66056072347e-08
3.32785986935e-08
2.42910953553e-08
1.64019535437e-08
4.47214635096e-09
1.91456799146e-08
5.28338761529e-08
5.97414784798e-08
1.25410190675e-07
1.02634091795e-07
8.19152554521e-08
8.03708452018e-08
3.9322002865e-10
7.90757275171e-08
5.5999974405e-09
7.39931781326e-08
8.80562097454e-08
1.30749253405e-08
5.5959102734e-09
2.15321511779e-08
3.92768298918e-08
6.12304971793e-08
4.85310915188e-08
2.16392753528e-08
6.70257971948e-08
2.57122611362e-08
6.16178464838e-08
1.5255276345e-07
3.77303541641e-08
1.08508653372e-07
1.06069248902e-08
5.39600372493e-08
2.50750989533e-08
1.12522314535e-07
5.82998989559e-09
8.82164768199e-09
5.67869325347e-08
3.78473753729e-08
9.51609795188e-08
7.06242570293e-08
7.19142639567e-08
7.51503389176e-08
5.49261237583e-08
1.78345236658e-08
1.104777172e-08
5.12341492724e-08
6.5792774666e-08
9.14120561917e-08
2.89284987932e-08
2.03211193948e-08
3.05212977996e-09
2.74261125372e-08
6.77910911953e-10
4.63629115295e-09
2.86431759826e-08
2.90819835897e-09
8.72036267429e-08
2.43268913689e-08
4.28696663244e-09
3.95193987835e-08
1.79207336162e-08
6.77021041756e-10
2.02416639873e-08
9.62981354502e-08
1.62104265317e-09
7.34639918976e-09
6.92225434922e-09
4.71711600402e-08
5.85265726602e-08
9.03150628904e-08
1.11940050724e-08
2.86392252003e-08
1.18991495032e-08
5.79711774892e-09
4.36585283118e-09
7.03086708121e-09
4.71958939295e-08
2.00842281103e-08
7.92895483617e-08
3.41576460348e-08
1.94787437304e-08
1.22229679372e-07
2.9186308413e-08
8.89801178187e-08
3.59602902645e-08
3.97941186303e-08
2.82677637336e-08
9.89413398476e-08
2.01539500136e-08
1.74681306302e-08
1.78639724856e-08
5.14685313212e-08
8.44960827893e-08
5.24824880023e-08
3.51935565825e-08
1.74031405116e-08
1.70265856978e-08
6.18821120416e-10
2.03562871967e-08
5.72737612525e-08
9.41498519155e-09
3.31205170396e-08
6.30285525769e-08
7.38973207878e-08
2.17819667535e-08
5.89771063476e-09
2.41432304312e-08
1.43462889093e-08
6.04717663932e-08
1.87365377353e-08
7.11377228416e-08
2.2757885469e-08
2.93431350503e-09
3.10427817576e-08
5.36238197175e-08
2.38168374629e-08
3.50336355482e-08
1.23606759149e-08
2.35727083203e-09
4.39776454045e-09
7.3244026184e-09
9.6258195486e-09
3.68403726994e-08
3.65353292973e-08
6.11232088008e-09
2.12073439218e-08
5.33861699941e-09
1.20808226241e-08
3.92071869313e-08
4.04516654077e-09
1.69349720893e-08
1.35991655479e-08
3.6715779369e-08
1.40054997754e-08
4.51235598215e-09
1.33414867692e-08
5.60351016878e-09
1.01999352891e-08
5.85222001192e-09