# vtk DataFile Version 3.0
File Name: Molecule/sphere_excent/sphere_excent_0-s19.vtk
ASCII
DATASET UNSTRUCTURED_GRID
FIELD FieldData 1
TIME 1 1 double
0.0
POINTS 397 double
0.29811787605 -0.50278925896 -0.80886209011
-0.24095924199 -0.47463428974 -0.84564983845
0.0032503125258 0.00092128594406 -0.99989396334
0.0073966109194 -0.83905827999 -0.54256117344
-0.48337468505 -0.0087017910555 -0.87430143356
0.5050881505 -0.76573121548 -0.39364382625
0.5220271945 0.020290017128 -0.84873855114
0.25637793541 0.46444487572 -0.84435337782
-0.29559099674 0.47262594104 -0.82857698202
0.17422884703 -0.15255397558 0.97272235155
0.29409044981 -0.14085644484 0.94493591785
0.23540437222 -0.016415670514 0.97136563063
-0.45865002275 0.37723249197 0.80392712355
-0.33152520657 0.37539184093 0.86551052332
-0.3783287704 0.53258144855 0.75710505247
-0.47797438502 0.65753132105 0.5823366046
-0.5305082202 0.4984369874 0.68516772985
0.95976287127 0.12494114041 0.24994443357
0.91101592779 0.014764012769 0.41160976887
0.9634296298 -0.13098932803 0.23108573258
-0.21211393178 0.59850293398 0.77254742384
-0.3215816617 0.67220914364 0.66682881117
0.1343524009 -0.76679289341 0.62755137682
-0.024538557976 -0.85854870081 0.51217138767
0.24135738611 -0.87661254406 0.41628500819
0.43185007572 -0.74016165733 0.51541131735
0.50238060951 -0.80335462093 0.31883832812
0.3599460125 0.0041499091312 0.93293476105
0.62669718266 0.33351770043 0.70357388258
0.48299181461 0.36834082007 0.79437279701
0.5587862134 0.20333124697 0.80295091867
0.31097662449 0.33845418692 0.88787692785
0.42543804646 0.2355941087 0.87357330322
0.38353398442 0.41169667244 0.82638031244
0.46349143982 0.090174682438 0.88145077229
0.32874655724 0.14578048885 0.93249291182
0.58819466829 -0.0032477881759 0.80838632584
0.47163361311 -0.048703800887 0.88029682636
0.58201384544 0.48719763756 0.65105861425
-0.026853248477 -0.70999783278 0.70362281799
-0.20027479529 -0.71991884708 0.66447335482
-0.19598214328 -0.59761148691 0.77740907669
-0.36013442278 -0.57626289129 0.73330813646
0.71661448479 -0.44655457139 0.53529959917
0.60139620304 -0.62108391523 0.50247138739
0.71417576075 -0.60731434822 0.34783428907
0.58035516739 -0.42606285214 0.69394463301
-0.51054871082 -0.81064915657 0.28643026948
-0.56374955177 -0.63884693384 0.52264404297
-0.69480955601 -0.62370449305 0.35749772191
-0.71737259626 -0.46461617947 0.51860439777
-0.51440066099 0.8253710866 0.23203253746
-0.4534188807 0.77981650829 0.43152266741
-0.26821318269 0.88776212931 0.37262549996
-0.2937451303 0.7884414196 0.54036092758
-0.64716297388 0.63183516264 0.4252461195
-0.039919763803 0.72839611769 0.6839542985
-0.18073806167 0.71070277691 0.67985022068
-0.067698948085 0.6379326582 0.76708269119
-0.11037702858 0.79992812872 0.5897860527
0.068279005587 0.78244996071 0.61885625124
0.094259165227 0.66276818514 0.74278903008
-0.26327615976 -0.9495614171 0.16973400116
-0.23908995092 -0.89345520735 0.38015505672
0.0014832691522 -0.96391201019 0.26616445184
-0.020341631025 -0.99870437384 -0.031046200544
0.50151515007 -0.86165672541 -0.070479787886
0.28350415826 -0.94060522318 -0.17909540236
0.2750992775 -0.95248699188 0.13068948686
-0.11744011939 0.2584746182 0.95882892609
0.011513591744 0.26395282149 0.96447068453
-0.052884589881 0.35343545675 0.9339645505
0.066170379519 0.35813137889 0.93132126331
0.13787209988 0.26498889923 0.95423477888
0.033408865333 0.46636557579 0.88393837214
-0.055262647569 0.18344922364 0.9814683795
0.05765972659 0.16591881216 0.98420238495
-0.29306608438 -0.46323797107 0.83634024858
-0.42027395964 -0.4200694859 0.80428957939
-0.34275174141 -0.32745683193 0.88046944141
-0.19382981956 -0.36047241092 0.91239362955
-0.45699366927 -0.25303271413 0.85262316465
0.17209213972 0.1387898773 0.97490102053
-0.3539096415 -0.18751201034 0.91626518965
-0.20487311482 0.33747899532 0.9187695384
-0.22982735932 0.47641915083 0.84863179922
-0.11341694742 0.43885183334 0.89137035608
0.1781822145 0.40794503689 0.89545357227
-0.22204707563 0.20190542936 0.95381230116
-0.31588548422 0.23798641562 0.9183652997
-0.088209740818 0.53963768482 0.83722937107
0.036860279739 0.57351577282 0.8183016181
-0.87025684118 -0.49216943979 -0.021792542189
-0.73857009411 -0.6613266468 -0.12957897782
-0.69225281477 -0.71310096979 0.11079738289
-0.49573501945 -0.8671143651 0.046442102641
-0.26145610213 -0.25323790312 0.93136394024
-0.23651836812 -0.15480440855 0.95922631025
-0.16228096187 -0.24034294486 0.95700919628
-0.13373997808 -0.13162691891 0.98220294714
-0.066267043352 -0.43855115771 0.89625424147
-0.054828781635 -0.3114066124 0.94850295782
0.015484701842 -0.1315035373 0.99119544029
0.032656144351 -0.055401910096 0.99789625406
-0.044449172914 -0.054975911975 0.99746322632
0.0076285321265 0.028560429811 0.99932765961
0.4883262217 -0.28351309896 0.82520091534
0.41744208336 -0.41734212637 0.80717563629
0.3266479969 -0.54110532999 0.77491617203
0.28519409895 -0.44583696127 0.84786450863
0.3618145287 -0.31176301837 0.8778976202
0.16405659914 0.5304954052 0.83152812719
0.28315484524 0.45728325844 0.84219884872
0.23732341826 0.60965251923 0.75627201796
0.32460793853 0.51141738892 0.79519581795
-0.36781251431 -0.70694088936 0.60412615538
-0.24751244485 -0.80860376358 0.53376793861
-0.40544015169 -0.78408527374 0.4698894918
-0.051125954837 -0.57502919436 0.81650072336
-0.16690850258 -0.4876550436 0.85691648722
0.063298925757 -0.51563555002 0.85445398092
0.097436860204 -0.63835340738 0.76355820894
-0.024060003459 0.9995175004 0.0010361471213
-0.22900564969 0.95730465651 -0.17490778863
-0.29283696413 0.95276921988 0.069249786437
-0.56287616491 0.82520216703 0.0026315914001
-0.72249549627 0.64044451714 0.25502234697
-0.53463357687 0.047467842698 0.84341961145
-0.44044208527 -0.089321747422 0.8933173418
-0.3858961761 0.021791731939 0.92224669456
-0.31760933995 -0.07406078279 0.94531267881
-0.26736295223 0.019023984671 0.96339261532
0.1165786013 -0.3355858922 0.93471926451
0.040671955794 -0.39814767241 0.9163954258
0.14008174837 -0.4366003871 0.88843202591
-0.42140382528 0.13760221004 0.89634597301
-0.50966405869 0.19704088569 0.83749198914
-0.41901817918 0.26721647382 0.86750847101
-0.53831863403 0.30407705903 0.78589493036
-0.31123363972 0.11702718586 0.94307029247
0.62417769432 0.6991289854 0.34871020913
0.56472671032 0.67424494028 0.47559407353
0.69192922115 0.59187430143 0.41320335865
0.24084445834 -0.65156382322 0.71936964989
0.37397399545 -0.63898777962 0.67216336727
0.29306545854 -0.74148505926 0.60348963737
0.19457997382 -0.54339677095 0.81661790609
0.44720324874 -0.52449196577 0.7245284915
0.49711546302 -0.60246765614 0.62447172403
-0.040762979537 0.099580019712 0.99416267872
-0.084652706981 0.026755969971 0.99601912498
-0.12487596273 0.094699643552 0.98762279749
-0.2081617862 -0.061852760613 0.97610664368
0.26005154848 0.87222647667 -0.41400408745
0.023471973836 0.96054756641 -0.27690348029
0.24902038276 0.94683218002 -0.20252011716
-0.0079637495801 0.83208763599 -0.55425107479
-0.2469162941 -0.94132769108 -0.22863103449
-0.44718158245 -0.80995088816 -0.37832266092
-0.57638031244 -0.41962775588 -0.70105355978
-0.40467563272 -0.67536473274 -0.61630934477
-0.64232122898 -0.59219646454 -0.48660677671
-0.80681777 -0.30210074782 -0.50746333599
-0.61962503195 -0.20476689935 0.75763934851
-0.54936039448 -0.12447865307 0.82628583908
-0.63850939274 -0.082498088479 0.76496487856
0.81503742933 0.081076495349 0.573394835
0.72626107931 -0.02315306291 0.68700420856
0.79941409826 -0.099073372781 0.59231513739
0.7111569047 0.13044057786 0.68994438648
0.71334928274 -0.22211793065 0.66279822588
-0.80463445187 -0.55702883005 0.20562520623
-0.88723307848 -0.3958543241 0.23648321629
-0.80260288715 -0.4681584537 0.36977922916
-0.8447855711 -0.29916805029 0.44154345989
-0.46720424294 -0.86817741394 -0.16712024808
-0.30018210411 -0.95321196318 -0.035125479102
-0.61508274078 -0.7840628624 -0.083005957305
-0.62369090319 -0.73104196787 -0.27662926912
-0.77967089415 -0.53973656893 -0.31721279025
-0.17388263345 0.023521983996 0.98448324203
-0.12688279152 -0.041444927454 0.99105238914
-0.20885266364 0.88154911995 -0.42236295342
-0.14701016247 0.1694855839 0.97449940443
-0.21354629099 0.10258441418 0.97152799368
0.87101513147 0.49049296975 -0.01798116602
0.86286890507 0.42975923419 -0.2658751905
0.71849149466 0.67561048269 -0.16480968893
0.68766707182 0.5754648447 -0.44272789359
0.80630177259 0.27067151666 -0.52500444651
0.52829366922 0.77928167582 -0.33681154251
0.59825265408 0.4115576148 -0.68568515778
0.42936685681 0.69143617153 -0.57894915342
0.79902487993 0.59023100138 0.11383312941
0.53594022989 0.84112763405 -0.071717895567
0.66372638941 0.74399459362 0.075739070773
0.45317652822 0.8792835474 0.14505033195
0.22957468033 0.96619367599 0.11604713649
0.25940135121 0.91839116812 0.2981505692
0.041272815317 0.97046464682 0.23750947416
0.098165497184 0.90256875753 0.41854828596
-0.8941321969 -0.36815044284 -0.25492829084
-0.93856203556 -0.13622008264 -0.31688639522
-0.96572595835 -0.24377211928 -0.089222438633
-0.9920899272 0.015668192878 -0.12473711371
0.55673551559 -0.13727729023 0.81924301386
0.64734381437 -0.11991295964 0.75273096561
0.60800218582 -0.24823448062 0.75358569622
0.71155709028 -0.33940809965 0.6142013073
-0.94845730066 0.15957531333 0.27186560631
-0.97267645597 -0.0077987527475 0.23192052543
-0.88567751646 -0.0052549741231 0.46324825287
-0.99430900812 0.081298090518 0.068908549845
-0.99236404896 -0.10367444158 0.067015744746
-0.95190316439 -0.18507543206 0.24221500754
-0.94842004776 -0.30252075195 0.094805106521
0.68226355314 -0.71004849672 0.1718621403
0.54016298056 -0.83265972137 0.12179414928
0.70028930902 -0.7135630846 -0.010916335508
0.8002346158 -0.57623010874 0.16623610258
0.71525865793 -0.66015517712 -0.22912882268
0.57408434153 0.78327077627 0.23866190016
0.71709430218 0.65641176701 0.232971102
0.42819163203 0.84602868557 0.3174842298
0.52505195141 0.76559561491 0.3717854619
0.427333951 0.77879726887 0.45903170109
0.27932295203 0.85553759336 0.43571159244
[...]
CELL_DATA 790
SCALARS cell_data_0 double
LOOKUP_TABLE default
1.14252642704e-06
2.636652078e-07
3.3885582967e-07
1.08201360644e-06
6.2716516108e-07
4.06908494441e-07
6.57862509344e-07
3.34021470475e-08
2.19044955121e-07
7.74276095061e-08
2.94044817517e-07
1.36672078273e-07
2.52594085073e-07
1.18175872273e-07
4.82565890617e-07
2.02244799926e-07
8.89536189372e-07
1.5738926699e-07
2.59868347479e-08
2.43619327388e-08
3.97135099033e-07
2.30467635137e-07
3.75261830828e-07
1.54592185238e-07
6.37858266489e-07
1.1034839239e-07
8.16430671915e-08
3.29353518802e-08
7.17241508825e-07
3.11767276235e-07
2.04921350888e-07
4.22859695424e-08
2.80290629212e-07
2.0468000182e-07
2.29563461298e-08
8.33381845393e-08
2.47597035354e-07
1.23331320013e-07
1.37124588189e-07
4.06138498605e-08
1.02033988299e-07
1.40562510027e-07
1.14923249295e-07
1.63898182133e-07
2.20078283231e-07
2.45924200323e-08
2.09299378277e-07
1.08976011129e-09
4.78409980969e-07
4.19850073293e-07
1.37938396834e-07
3.83258022669e-08
3.73205885605e-07
2.2624699234e-07
1.03837748783e-07
4.34982880236e-07
6.14565282499e-08
3.92275678668e-08
1.1830178071e-07
2.28384436077e-07
9.97127229438e-08
1.49582036748e-07
3.11648969687e-07
5.80402504811e-07
1.46082835958e-07
4.762982187e-07
9.29096354064e-08
2.71434844533e-07
2.62365270042e-07
1.60837140147e-07
1.71427912961e-07
3.41217466492e-07
2.61139784262e-07
2.38549892272e-07
2.13203758547e-07
2.26129886618e-07
8.97631134919e-08
1.71553985594e-07
2.90703740376e-07
2.90886723336e-08
3.67586478709e-07
8.23016829972e-08
3.92835313391e-07
1.0182472174e-07
4.76549898853e-07
3.47386363938e-07
1.81534542323e-07
1.18502300162e-07
3.41869922581e-07
9.10021965701e-08
2.07063795339e-07
2.69494476963e-07
2.94051612287e-07
1.29935670383e-07
1.28869250851e-07
2.26307750589e-07
1.61825270464e-07
6.28731591314e-08
4.06686539148e-07
3.49652969795e-08
3.26710733394e-08
3.41795490377e-07
1.83431606558e-07
1.27722193041e-07
1.80233925892e-07
3.00220408658e-07
3.95586295986e-07
3.06676451905e-07
3.3535127503e-07
3.87815282145e-07
9.43442623763e-08
3.16337453496e-07
1.58300042165e-07
9.98525847283e-09
1.57466995704e-07
3.22339579459e-07
1.5475864914e-07
1.42020953816e-07
4.09354880389e-07
4.66767529679e-07
1.30251909719e-07
1.53543466363e-07
6.09708296413e-09
1.18037675241e-08
1.75724131722e-07
1.12421282126e-07
2.68101808952e-07
7.60367806833e-08
4.51449502975e-07
1.84023181005e-09
1.54364677005e-07
5.85704179135e-08
2.61811038424e-07
2.41130533304e-08
8.1805964177e-08
4.38772235377e-07
2.31267031711e-07
1.07399923276e-07
4.4140774639e-08
1.58837724622e-07
9.36757830588e-08
1.13918487026e-07
3.9312653415e-08
2.28769306507e-07
3.00522629567e-07
2.99820163832e-07
1.49861360248e-07
1.06619357127e-07
1.5486495696e-07
9.41438326239e-08
4.133669865e-07
2.1286931625e-07
7.54296245017e-08
7.14907695452e-08
1.76043797936e-07
5.54351525912e-08
4.88213318442e-08
1.15279630731e-07
4.71090906514e-08
8.86041276515e-09
1.04029106098e-07
3.01066263291e-07
1.08724568268e-07
5.51670798832e-08
1.14842904083e-09
1.32626392632e-07
1.07452656123e-08
9.66297635527e-08
6.12343394709e-08
4.67362961437e-07
3.32228047406e-07
2.84887840211e-07
2.35376240212e-08
1.5960190526e-07
4.13330786188e-08
1.32725576145e-07
1.83019470891e-08
2.78435119302e-08
2.91064710977e-07
9.33277919349e-08
4.69449603412e-08
2.33080393878e-07
1.37913576433e-07
3.17198744797e-08
2.87895654163e-08
1.42368319012e-07
5.07161497166e-07
2.07153356075e-07
4.2174434329e-07
1.74640131458e-08
1.30700900563e-07
1.45441685247e-07
2.20210618611e-07
4.53012570615e-08
2.00461130886e-08
1.39763256898e-07
7.74480402088e-08
2.90180908375e-07
9.33081144567e-08
1.04709162521e-07
4.09764809565e-08
1.07161314013e-07
8.05284196588e-08
8.52715524993e-08
3.98778615915e-07
1.39063569902e-07
1.21531168073e-07
2.72506986912e-07
1.32419272555e-07
4.50623562988e-08
2.16735299611e-08
2.06350877048e-07
2.26135550924e-07
3.16868095048e-09
1.54018914257e-07
1.9325584179e-08
3.25810309123e-08
1.00900060268e-07
1.0790378927e-07
1.63835945689e-07
1.10025597641e-07
1.60294073164e-08
1.22266446548e-07
1.31654263004e-07
3.63886607623e-08
7.97472727497e-08
2.78979953763e-07
1.30480775197e-07
9.76386426663e-08
4.65582791521e-08
1.63107900674e-07
3.34160594211e-07
3.372294094e-07
1.93647817087e-07
6.52509348331e-08
1.33095750679e-07
1.70762984852e-07
1.70130798379e-08
9.2645082163e-08
3.26759455986e-08
6.84767442757e-08
5.68561740237e-08
1.12940833284e-07
1.97001836845e-07
2.03194435131e-07
2.38204868663e-07
2.80045903705e-07
4.44364907278e-08
6.1032633173e-08
3.82594227722e-10
1.39005376447e-07
8.3746512115e-08
6.5691670848e-09
1.36218820008e-07
2.09973016805e-08
1.54240482913e-07
1.54825990362e-07
1.75859882837e-07
6.29483520814e-08
3.44357134141e-08
2.91937374372e-07
1.80078663715e-07
1.48750098241e-08
9.02457733219e-08
1.06548886573e-07
4.2210176768e-08
1.30791789532e-07
1.88992221305e-07
1.95250968701e-07
3.25234894773e-07
1.26836735792e-07
1.0653551694e-07
3.93567591319e-07
1.18155680901e-07
5.65772254088e-08
5.25315936098e-08
7.83452276585e-09
2.56021554909e-08
5.50520159909e-08
1.19342463632e-07
1.61907253798e-08
6.26126960722e-08
4.24926156153e-07
9.60807707659e-08
9.05386648443e-09
2.61148065572e-07
5.19363041957e-08
1.12331521533e-07
1.08733161531e-07
1.82425401559e-07
1.18598577107e-08
1.59616697448e-08
3.40947225348e-08
1.95393257575e-08
1.06093106792e-07
6.80226720629e-08
7.73791376965e-08
5.67145911982e-08
9.60498593489e-08
7.58881405921e-08
1.77000379467e-08
5.88999607249e-08
1.30971315183e-07
8.18617591292e-08
1.9039799573e-07
6.08492006697e-08
4.65602765051e-09
6.92241521112e-08
1.54547024248e-07
8.69635852146e-08
3.15341877909e-08
8.49355461639e-08
1.42237858676e-07
5.50611706576e-08
8.19331053247e-08
7.85663129765e-08
8.95502134384e-08
3.24560881563e-08
1.06546439014e-07
2.25199356868e-07
3.45752317116e-07
1.5507288093e-07
7.26407068708e-08
3.18867362328e-07
7.78649372156e-08
1.64996774865e-08
3.53346605331e-08
1.74012933582e-07
8.76179844602e-08
2.76332280324e-08
2.10863853232e-07
1.12607258822e-07
1.22298675147e-09
1.32834954439e-07
2.80974999065e-07
6.10300883744e-08
7.45648015471e-08
3.28630719367e-08
1.28760866911e-07
3.21736329696e-08
1.76523183061e-08
5.26974320849e-08
6.24643009169e-08
9.04267235964e-08
2.81620381573e-07
1.96296920629e-07
9.12110197576e-09
6.12410563222e-08
1.19777773052e-07
3.65888928338e-07
8.39516909483e-08
1.31059261012e-07
7.16163118613e-08
3.94199453266e-08
4.2078905561e-08
8.8123941066e-08
8.17171886193e-09
2.96707524103e-07
1.73352085297e-07
8.99226819568e-08
1.36018224481e-07
2.45410243294e-08
2.35401219449e-07
2.25215110535e-08
6.7356198001e-08
3.71491422258e-08
1.23448803762e-07
7.0653934121e-08
4.43915434123e-08
2.83449909538e-08
4.97929710473e-09
2.48628961461e-07
3.63227509793e-09
9.75432945164e-10
6.06122580956e-08
1.83506724034e-07
1.47595834267e-07
5.60194173796e-08
2.08568875772e-07
1.3071992027e-07
3.22616925187e-07
1.12288456385e-07
5.55904368274e-08
5.7331000408e-08
9.82997583936e-08
1.08687370179e-07
3.65705856414e-07
1.24773021561e-08
3.88311373079e-09
1.13727973207e-07
1.08144122151e-07
1.31962685911e-07
1.33570321442e-07
1.83549128476e-07
2.22785426676e-08
1.6983052125e-07
2.49972329277e-07
1.71789863385e-07
2.4697389022e-07
1.25650011795e-08
1.45971626881e-09
3.34994782988e-08
7.35396717964e-07
1.31182842804e-07
1.68224211179e-08
1.02131347016e-08
8.38153852914e-08
4.07381394624e-08
8.04203291922e-08
4.31801650427e-07
2.72224636829e-08
1.01401793898e-07
3.08940452291e-07
3.06839220053e-08
7.40403058725e-08
4.85767166269e-08
2.67390304116e-08
9.00963346725e-08
5.91775317515e-08
4.03325665595e-09
6.862004192e-08
4.96777437941e-08
1.23188362241e-07
7.90222929822e-08
6.70465266659e-08
2.82476117619e-07
8.92229794076e-08
1.31411864684e-07
5.78570932298e-08
9.65334766437e-08
1.02214932886e-07
2.44905766013e-07
6.25146058122e-07
4.52115329096e-08
3.08111254277e-07
1.195630235e-07
1.41455270835e-07
2.52082491758e-08
6.13129704298e-08
2.18025485031e-08
1.58970222381e-08
2.11175022036e-08
1.73960455394e-07
2.24624232063e-07
1.03993613267e-07
1.86235254859e-07
1.10322654343e-07
2.0265223887e-07
2.13991198487e-07
4.98767499406e-08
3.4790151413e-08
3.51072174101e-07
1.99544473197e-07
5.07166768254e-08
2.24841461656e-08
1.14300431882e-07
1.21722261803e-08
8.38190070109e-08
2.47202116433e-07
2.77044250455e-07
2.43543457637e-07
2.37653123186e-08
1.02908322191e-07
2.40513709374e-08
5.2117716706e-08
4.52249574758e-10
6.70900955398e-08
6.47819680938e-08
5.29785273724e-08
3.66358962796e-08
7.12262690858e-08
5.93784615788e-08
2.45622444821e-07
2.5098585389e-08
2.0173321709e-07
1.81693026613e-08
3.88411064753e-07
2.43745951389e-07
3.12933539217e-07
3.27169733642e-07
1.94486041268e-07
6.99438649376e-09
1.86106868258e-07
9.99288167954e-08
4.6296161954e-08
5.3439596894e-08
2.21272244479e-08
2.27049519389e-08
2.80469144335e-08
1.04829050828e-07
1.59859590542e-07
7.5958807591e-08
1.4608372459e-08
1.72234442289e-07
1.09830929922e-09
7.55865019794e-08
3.98074449278e-09
9.50973706322e-08
6.53874545284e-09
1.36672914857e-07
5.11903286165e-08
1.76723145219e-09
5.88206701958e-08
1.48213165937e-07
1.75194538103e-07
2.00243547312e-09
4.4175454556e-07
2.74312409151e-08
7.95333009548e-07
3.0349574184e-08
4.13265283189e-08
2.47646669487e-07
1.74017910064e-07
5.80686059004e-07
1.7561485447e-07
2.69766753818e-08
1.39017002747e-07
1.59629931683e-07
1.21494663376e-07
8.62836138365e-08
3.66036120551e-08
5.4242959815e-09
1.03493871968e-07
1.10189440751e-07
1.38930917986e-08
7.21537345317e-08
8.6512396868e-09
3.54982540475e-08
6.81622004758e-09
5.05593563123e-07
3.81754976014e-08
1.35311538461e-07
3.39582528036e-07
5.82040061749e-08
7.00618111827e-08
1.52245409141e-09
4.34527768499e-08
2.90355563332e-08
2.18986900149e-07
1.13777879149e-07
2.88097190011e-07
2.7394226887e-08
1.49593760968e-07
3.28727285061e-07
1.83618395635e-07
5.51188882925e-08
6.67176968009e-08
5.3250018503e-08
9.28113700566e-08
1.63996733219e-07
2.72708399815e-07
5.90502352798e-08
6.61319218916e-08
8.32794293752e-09
1.03926509537e-07
3.59570722639e-08
3.38703832753e-08
8.24931317922e-08
1.21444448367e-07
1.15032131979e-07
8.02747008559e-08
2.75643069649e-07
1.08014904945e-07
3.96663593529e-08
3.62048956669e-07
6.55156667172e-08
9.05259986202e-09
2.42104168405e-07
9.00012632926e-08
9.47671813214e-08
1.94911669135e-07
6.80817374664e-08
9.03940280889e-08
4.66010893827e-08
1.85377032653e-07
1.65902416334e-07
7.20043307357e-09
4.89984636825e-08
2.36639810803e-08
1.25520494933e-07
7.02213401989e-08
8.37600642562e-08
3.52429378715e-08
7.83527380129e-08
7.34588700718e-08
1.00316992405e-07
1.1294335977e-07
1.63445112546e-07
1.99175691897e-08
5.09819710824e-08
2.18655342237e-07
3.02802012898e-08
5.52507969294e-08
7.39803462911e-08
2.32945468642e-07
1.85434592541e-07
4.57646310807e-09
1.62549048577e-08
1.31004355418e-07
7.36790397736e-08
1.07070660976e-07
5.60206268009e-09
9.52628356552e-09
2.9472217113e-08
2.54983386095e-07
3.11757559617e-08
7.87901158253e-10
7.30698169424e-08
3.46618010535e-08
7.54901401848e-09
1.42931961998e-07
1.86133472711e-07
4.26268821907e-09
1.17942808943e-07
8.41503861933e-08
2.10682108411e-08
1.94129845456e-08
9.47022830198e-09
1.23905866177e-08
9.61326923997e-08
1.74084146234e-07
1.50079901454e-08
6.9602688777e-08
1.17897655805e-07
1.11446085216e-07
2.24788480489e-08
1.38496171292e-08
1.1782876031e-07
7.16725307289e-08
9.0724267177e-08
3.15822995619e-07
1.98578221651e-07
3.45637170169e-07
3.17677320158e-07
1.89207527404e-07
6.70893869367e-07
1.71191700999e-07
3.02664849255e-07
4.21614859737e-07
1.48007877834e-07
4.09038240787e-07
2.58245929139e-07
3.23360107153e-07
5.2940819473e-07
1.01361977425e-07
1.20793352829e-07
1.01043114462e-07
1.8839095899e-07
7.77697601232e-08
1.6552760765e-08
4.89519928615e-08
1.41068728947e-07
1.14875891659e-07
7.87893892541e-08
1.35545644198e-07
5.76261160425e-07
2.04155097028e-07
1.61371101558e-07
4.10447105181e-08
1.87361346611e-07
1.39424913317e-07
4.0187784485e-07
1.08001728162e-08
1.32242317115e-07
1.56153588428e-07
1.67741239555e-07
1.36349130691e-07
6.75878404539e-08
4.02192471507e-07
5.595359899e-07
1.26685587869e-07
1.07699276161e-07
1.85057868633e-07
3.65380997771e-08
5.73360487163e-08
2.78884387312e-07
4.79434890235e-07
2.77663639196e-07
8.9416158144e-08
3.99623023252e-08
1.51250041127e-07
2.86180053837e-07
3.74166821201e-08
1.10836978017e-07
2.08850890033e-08
2.76458355924e-07
1.43146637533e-07
5.4072510621e-08
8.60530421511e-08
5.79905531364e-08
1.36804216142e-07
2.21146104712e-07
1.44710078365e-07
3.45942009076e-07
6.68707650792e-09
1.75629368908e-07
5.37368963233e-08
3.54220857001e-07
3.50723882407e-08
1.42434458418e-08
1.13194712429e-07
6.30829475288e-08
1.42032958083e-07
6.19545290314e-08
1.2422323044e-07
1.69544197143e-08
1.76575613659e-07
4.84253785548e-07
2.05253415255e-07
3.48637330268e-07
2.555767234e-08
4.10945676967e-08
1.89059800474e-07
5.49844181946e-08
3.44214275e-09
1.52863079318e-08
1.04263944975e-07
2.51050334341e-08
4.02179092452e-08
1.10944887396e-07
1.32917712529e-07
2.30326336617e-07
1.95764013933e-07
1.18718323247e-07
2.19307780973e-07
1.82186012743e-07
2.83503914112e-08
3.86409334346e-08
3.51792578778e-08
3.39639737585e-08
6.87925198423e-08
1.80240237168e-08
4.92634766289e-08
1.59669237506e-07
6.98546434717e-08
6.51007852181e-08
1.07151190894e-07
8.15546965031e-08
2.19052452033e-07
2.46932593295e-08
1.06698275398e-07
7.20527247022e-08
1.17448214579e-09
1.03834821011e-07
8.79361147138e-09
2.83029355424e-07
2.29664947588e-08
2.12893560666e-07
4.10808298537e-08
1.28886960797e-07
1.85226923251e-07
3.65291275087e-08
1.50370612618e-07
2.35773145733e-07
1.25286855387e-07
4.645118483e-08
8.3952439192e-08
1.30767303419e-07
1.89947429725e-07
2.826983768e-08
2.01291804759e-07
2.52303608313e-07
5.83368920593e-08
7.27165014059e-08
1.52268384666e-08
7.33221995764e-08
1.08612319436e-07
2.43894825948e-07
4.83366202987e-08
1.23597374111e-07
1.28503884289e-07
1.12913066711e-07
5.9638562214e-08
5.13343942669e-08
3.68966261376e-08
1.67806155139e-07
1.20661247996e-07
1.32960026696e-07
3.63805827614e-08
1.69445449964e-09
2.33577176769e-07
4.02360462998e-08
5.48553810813e-08
1.71725178784e-07
1.24950480536e-07
1.13764897864e-08
4.55977223591e-08
1.15822982792e-07
6.8936069605e-08
1.39579517428e-07

