# vtk DataFile Version 3.0
File Name: Molecule/sphere_test/sphere_test_0-s2.vtk
ASCII
DATASET UNSTRUCTURED_GRID
FIELD FieldData 1
TIME 1 1 double
0.0
POINTS 58 double
0.850650808352 -0.525731112119 0.0
0.809016994375 -0.309016994375 -0.5
1.0 0.0 0.0
0.809016994375 0.309016994375 -0.5
0.525731112119 0.0 -0.850650808352
0.850650808352 0.525731112119 0.0
0.5 0.809016994375 -0.309016994375
0.309016994375 0.5 -0.809016994375
0.0 0.850650808352 -0.525731112119
-0.309016994375 0.5 0.809016994375
0.0 0.0 1.0
0.309016994375 0.5 0.809016994375
-0.525731112119 0.0 0.850650808352
0.525731112119 0.0 0.850650808352
-0.309016994375 -0.5 0.809016994375
0.309016994375 -0.5 0.809016994375
0.0 -0.850650808352 0.525731112119
0.809016994375 -0.309016994375 0.5
0.5 -0.809016994375 0.309016994375
0.309016994375 -0.5 -0.809016994375
0.0 0.0 -1.0
-0.309016994375 -0.5 -0.809016994375
0.0 -0.850650808352 -0.525731112119
-0.525731112119 0.0 -0.850650808352
0.809016994375 0.309016994375 0.5
0.5 0.809016994375 0.309016994375
-0.809016994375 -0.309016994375 -0.5
-0.809016994375 0.309016994375 -0.5
-1.0 0.0 0.0
-0.850650808352 -0.525731112119 0.0
-0.850650808352 0.525731112119 0.0
-0.309016994375 0.5 -0.809016994375
-0.5 0.809016994375 -0.309016994375
-0.5 -0.809016994375 -0.309016994375
-0.5 -0.809016994375 0.309016994375
0.0 -1.0 0.0
-0.809016994375 -0.309016994375 0.5
-0.809016994375 0.309016994375 0.5
0.5 -0.809016994375 -0.309016994375
0.525731112119 0.850650808352 0.0
0.26286555606 0.951056516295 -0.162459848116
0.26286555606 0.951056516295 0.162459848116
0.0 1.0 0.0
0.259891913008 0.862668480416 0.433888564553
0.0 0.961938357784 0.273266528913
0.0 0.850650808352 0.525731112119
-0.259891913008 0.862668480416 0.433888564553
-0.26286555606 0.951056516295 0.162459848116
-0.5 0.809016994375 0.309016994375
-0.26286555606 0.951056516295 -0.162459848116
-0.525731112119 0.850650808352 0.0
-0.702046444776 0.69378047756 0.16062203564
-0.702046444776 0.69378047756 -0.16062203564
-0.16062203564 0.702046444776 0.69378047756
-0.425325404176 0.688190960236 0.587785252292
-0.688190960236 0.587785252292 0.425325404176
-0.587785252292 0.425325404176 0.688190960236
-0.862668480416 0.433888564553 0.259891913008

CELLS 112 448
3 0 1 2
3 1 3 2
3 1 4 3
3 2 3 5
3 5 3 6
3 3 7 6
3 3 4 7
3 6 7 8
3 9 10 11
3 9 12 10
3 11 10 13
3 12 14 10
3 14 15 10
3 14 16 15
3 10 15 13
3 13 15 17
3 15 18 17
3 15 16 18
3 17 18 0
3 4 19 20
3 19 21 20
3 19 22 21
3 20 21 23
3 0 2 17
3 2 24 17
3 2 5 24
3 17 24 13
3 5 25 24
3 25 11 24
3 24 11 13
3 23 26 27
3 26 28 27
3 26 29 28
3 27 28 30
3 8 31 32
3 31 27 32
3 31 23 27
3 29 33 34
3 33 35 34
3 33 22 35
3 34 35 16
3 29 34 36
3 34 14 36
3 34 16 14
3 36 14 12
3 12 37 36
3 37 28 36
3 36 28 29
3 23 21 26
3 21 33 26
3 21 22 33
3 26 33 29
3 22 38 35
3 38 18 35
3 38 0 18
3 35 18 16
3 4 1 19
3 1 38 19
3 1 0 38
3 19 38 22
3 4 20 7
3 20 31 7
3 20 23 31
3 7 31 8
3 6 39 5
3 5 39 25
3 6 40 39
3 40 41 39
3 40 42 41
3 39 41 25
3 42 40 8
3 8 40 6
3 25 41 43
3 41 44 43
3 41 42 44
3 43 44 45
3 45 44 46
3 44 47 46
3 44 42 47
3 46 47 48
3 42 49 47
3 49 50 47
3 49 32 50
3 47 50 48
3 32 49 8
3 8 49 42
3 48 50 51
3 50 52 51
3 50 32 52
3 51 52 30
3 45 46 53
3 46 54 53
3 46 48 54
3 53 54 9
3 48 55 54
3 55 56 54
3 55 37 56
3 54 56 9
3 48 51 55
3 51 57 55
3 51 30 57
3 55 57 37
3 9 56 12
3 56 37 12
3 45 53 11
3 53 9 11
3 25 43 11
3 43 45 11
3 30 52 27
3 27 52 32
3 37 57 28
3 57 30 28

CELL_TYPES 112
5
5
5
5
5
5
5
5
5
5
5
5
5
5
5
5
5
5
5
5
5
5
5
5
5
5
5
5
5
5
5
5
5
5
5
5
5
5
5
5
5
5
5
5
5
5
5
5
5
5
5
5
5
5
5
5
5
5
5
5
5
5
5
5
5
5
5
5
5
5
5
5
5
5
5
5
5
5
5
5
5
5
5
5
5
5
5
5
5
5
5
5
5
5
5
5
5
5
5
5
5
5
5
5
5
5
5
5
5
5
5
5

CELL_DATA 112
SCALARS cell_data_0 double
LOOKUP_TABLE default
0.000508728689255
0.000634549051703
0.000288764170847
0.000244510804559
0.000239176664018
0.000413553245578
0.00015357613597
0.000166234618901
0.000149394796998
0.00013818794674
0.000121786286637
0.000155276789876
0.00017884497248
6.63849810804e-05
0.00012662642036
5.00196114128e-05
4.90149270193e-05
4.12905996147e-05
3.69047425759e-05
1.44296893794e-05
1.6462902979e-05
6.01555251169e-06
1.06906605121e-05
0.000187990322793
2.92615283378e-05
5.27007536934e-05
4.2804635902e-05
1.38634665007e-05
5.43229809273e-05
5.00727725091e-05
1.74344670507e-05
1.69536787635e-05
0.000472477858205
0.000118257279723
2.66142462008e-05
4.18878409936e-05
5.05492910767e-05
0.000500157897981
9.95406313418e-06
2.11236948312e-05
1.81116715284e-05
0.000333352551563
5.05757225916e-05
4.1728274963e-05
6.89382149806e-05
4.56937881331e-05
2.86852277365e-05
0.000388720916565
4.45088705735e-06
2.7273830044e-05
2.15496694026e-05
0.000564512305907
5.35047789918e-06
9.99644098561e-07
8.90517545823e-05
1.66332608164e-05
0.000130518973966
0.000175034911874
0.000295215616555
1.31817594132e-05
3.60511057891e-05
9.46066850269e-05
4.40431773083e-05
7.46360285118e-05
4.20019922789e-05
1.71759441066e-06
3.71438720355e-05
4.60286649952e-06
7.25093485664e-06
4.56643299003e-06
1.2967302349e-05
6.79647392529e-05
6.14859550643e-06
4.18331050261e-06
4.83136470574e-06
2.33127415387e-06
4.92723523015e-06
4.36645233024e-07
5.25916161962e-06
3.70254630119e-06
3.693888973e-06
1.22826553202e-06
8.8692821774e-07
2.44298988295e-06
6.73581172946e-07
6.54554592806e-06
2.54405107073e-06
2.81547352786e-08
6.99091722849e-07
2.30231748258e-05
6.40070634351e-06
2.79030894147e-06
5.17680112765e-06
1.26189316735e-05
4.75749048612e-06
1.10620103798e-06
5.97555560043e-06
1.55025417549e-05
3.01617562644e-06
7.97234050575e-08
2.31500749748e-05
4.02772233587e-06
4.27145826756e-05
2.95801606731e-05
3.04560823084e-05
4.21677309955e-05
1.60977284248e-05
2.29216521664e-05
5.93813664493e-05
3.33685557465e-06
7.30232083104e-06
4.53765999926e-05

