# vtk DataFile Version 3.0
File Name: Molecule/sphere_cent/sphere_cent_0-s3.vtk
ASCII
DATASET UNSTRUCTURED_GRID
FIELD FieldData 1
TIME 1 1 double
0.0
POINTS 642 double
0.850650808352 -0.525731112119 0.0
0.864929335863 -0.484441642061 -0.131200378813
0.915043421233 -0.403355348617 0.0
0.924304600611 -0.358228793487 -0.131655371352
0.862668480416 -0.433888564553 -0.259891913008
0.961938357784 -0.273266528913 0.0
0.916244175191 -0.301258879093 -0.264082750659
0.966392597402 -0.220117027473 -0.132792476828
0.951056516295 -0.162459848116 -0.26286555606
0.843911474622 -0.375038567478 -0.383613732685
0.891006524188 -0.238676930319 -0.386187385588
0.809016994375 -0.309016994375 -0.5
0.990438881957 -0.137952242128 0.0
0.987688340595 -0.0822424652791 -0.133071104141
1.0 0.0 0.0
0.840177885327 -0.15643446504 -0.519258489728
0.912982492932 -0.0823235800317 -0.399607051702
0.850650808352 0.0 -0.525731112119
0.912982492932 0.0823235800317 -0.399607051702
0.963861263467 0.0 -0.266404701135
0.951056516295 0.162459848116 -0.26286555606
0.840177885327 0.15643446504 -0.519258489728
0.891006524188 0.238676930319 -0.386187385588
0.809016994375 0.309016994375 -0.5
0.987688340595 0.0822424652791 -0.133071104141
0.758652300163 -0.237086325351 -0.606825149272
0.78020437071 -0.08114185162 -0.620239582613
0.69378047756 -0.16062203564 -0.702046444776
0.702907030488 0.0 -0.711281734962
0.78020437071 0.08114185162 -0.620239582613
0.69378047756 0.16062203564 -0.702046444776
0.615642020874 -0.0810862934433 -0.78384304242
0.615642020874 0.0810862934433 -0.78384304242
0.525731112119 0.0 -0.850650808352
0.758652300163 0.237086325351 -0.606825149272
0.990438881957 0.137952242128 0.0
0.966392597402 0.220117027473 -0.132792476828
0.961938357784 0.273266528913 0.0
0.916244175191 0.301258879093 -0.264082750659
0.924304600611 0.358228793487 -0.131655371352
0.862668480416 0.433888564553 -0.259891913008
0.843911474622 0.375038567478 -0.383613732685
0.915043421233 0.403355348617 0.0
0.864929335863 0.484441642061 -0.131200378813
0.850650808352 0.525731112119 0.0
0.78384304242 0.615642020874 -0.0810862934433
0.792649229259 0.571251659136 -0.213022865649
0.702046444776 0.69378047756 -0.16062203564
0.783451698363 0.516121620051 -0.346153014789
0.702309846744 0.647411893882 -0.296004592578
0.688190960236 0.587785252292 -0.425325404176
0.757935420048 0.453990499739 -0.468429850867
0.606825149272 0.758652300163 -0.237086325351
0.601500955008 0.707106781186 -0.37174803446
0.5 0.809016994375 -0.309016994375
0.707106781186 0.37174803446 -0.601500955008
0.646577791798 0.51337544123 -0.564254211766
0.587785252292 0.425325404176 -0.688190960236
0.51337544123 0.564254211766 -0.646577791798
0.564254211766 0.646577791798 -0.51337544123
0.425325404176 0.688190960236 -0.587785252292
0.453990499739 0.468429850867 -0.757935420048
0.37174803446 0.601500955008 -0.707106781186
0.309016994375 0.5 -0.809016994375
0.468429850867 0.757935420048 -0.453990499739
0.647411893882 0.296004592578 -0.702309846744
0.571251659136 0.213022865649 -0.792649229259
0.516121620051 0.346153014789 -0.783451698363
0.433888564553 0.259891913008 -0.862668480416
0.484441642061 0.131200378813 -0.864929335863
0.375038567478 0.383613732685 -0.843911474622
0.383613732685 0.843911474622 -0.375038567478
0.346153014789 0.783451698363 -0.516121620051
0.259891913008 0.862668480416 -0.433888564553
0.296004592578 0.702309846744 -0.647411893882
0.213022865649 0.792649229259 -0.571251659136
0.16062203564 0.702046444776 -0.69378047756
0.237086325351 0.606825149272 -0.758652300163
0.131200378813 0.864929335863 -0.484441642061
0.0810862934433 0.78384304242 -0.615642020874
0.0 0.850650808352 -0.525731112119
0.78384304242 0.615642020874 0.0810862934433
0.711281734962 0.702907030488 0.0
0.702046444776 0.69378047756 0.16062203564
0.620239582613 0.78020437071 -0.08114185162
0.620239582613 0.78020437071 0.08114185162
0.525731112119 0.850650808352 0.0
0.519258489728 0.840177885327 -0.15643446504
0.606825149272 0.758652300163 0.237086325351
0.519258489728 0.840177885327 0.15643446504
0.5 0.809016994375 0.309016994375
0.386187385588 0.891006524188 -0.238676930319
0.399607051702 0.912982492932 -0.0823235800317
0.26286555606 0.951056516295 -0.162459848116
0.266404701135 0.963861263467 0.0
0.399607051702 0.912982492932 0.0823235800317
0.26286555606 0.951056516295 0.162459848116
0.133071104141 0.987688340595 -0.0822424652791
0.133071104141 0.987688340595 0.0822424652791
0.0 1.0 0.0
0.386187385588 0.891006524188 0.238676930319
0.264082750659 0.916244175191 -0.301258879093
0.131655371352 0.924304600611 -0.358228793487
0.132792476828 0.966392597402 -0.220117027473
0.0 0.961938357784 -0.273266528913
0.0 0.915043421233 -0.403355348617
0.0 0.990438881957 -0.137952242128
0.383613732685 0.843911474622 0.375038567478
0.264082750659 0.916244175191 0.301258879093
0.259891913008 0.862668480416 0.433888564553
0.132792476828 0.966392597402 0.220117027473
0.131655371352 0.924304600611 0.358228793487
0.0 0.961938357784 0.273266528913
0.0 0.990438881957 0.137952242128
0.131200378813 0.864929335863 0.484441642061
0.0 0.915043421233 0.403355348617
0.0 0.850650808352 0.525731112119
-0.131200378813 0.864929335863 0.484441642061
-0.131655371352 0.924304600611 0.358228793487
-0.259891913008 0.862668480416 0.433888564553
-0.132792476828 0.966392597402 0.220117027473
-0.264082750659 0.916244175191 0.301258879093
-0.26286555606 0.951056516295 0.162459848116
-0.133071104141 0.987688340595 0.0822424652791
-0.383613732685 0.843911474622 0.375038567478
-0.386187385588 0.891006524188 0.238676930319
-0.5 0.809016994375 0.309016994375
-0.133071104141 0.987688340595 -0.0822424652791
-0.266404701135 0.963861263467 0.0
-0.26286555606 0.951056516295 -0.162459848116
-0.399607051702 0.912982492932 -0.0823235800317
-0.399607051702 0.912982492932 0.0823235800317
-0.525731112119 0.850650808352 0.0
-0.386187385588 0.891006524188 -0.238676930319
-0.519258489728 0.840177885327 -0.15643446504
-0.5 0.809016994375 -0.309016994375
-0.519258489728 0.840177885327 0.15643446504
-0.132792476828 0.966392597402 -0.220117027473
-0.131655371352 0.924304600611 -0.358228793487
-0.264082750659 0.916244175191 -0.301258879093
-0.259891913008 0.862668480416 -0.433888564553
-0.131200378813 0.864929335863 -0.484441642061
-0.383613732685 0.843911474622 -0.375038567478
-0.606825149272 0.758652300163 0.237086325351
-0.620239582613 0.78020437071 0.08114185162
-0.702046444776 0.69378047756 0.16062203564
-0.620239582613 0.78020437071 -0.08114185162
-0.711281734962 0.702907030488 0.0
-0.702046444776 0.69378047756 -0.16062203564
-0.606825149272 0.758652300163 -0.237086325351
-0.78384304242 0.615642020874 0.0810862934433
-0.78384304242 0.615642020874 -0.0810862934433
-0.850650808352 0.525731112119 0.0
-0.0810862934433 0.78384304242 0.615642020874
-0.213022865649 0.792649229259 0.571251659136
-0.16062203564 0.702046444776 0.69378047756
-0.346153014789 0.783451698363 0.516121620051
-0.296004592578 0.702309846744 0.647411893882
-0.425325404176 0.688190960236 0.587785252292
-0.468429850867 0.757935420048 0.453990499739
-0.237086325351 0.606825149272 0.758652300163
-0.37174803446 0.601500955008 0.707106781186
-0.309016994375 0.5 0.809016994375
-0.601500955008 0.707106781186 0.37174803446
-0.564254211766 0.646577791798 0.51337544123
-0.688190960236 0.587785252292 0.425325404176
-0.646577791798 0.51337544123 0.564254211766
-0.51337544123 0.564254211766 0.646577791798
-0.587785252292 0.425325404176 0.688190960236
-0.757935420048 0.453990499739 0.468429850867
-0.707106781186 0.37174803446 0.601500955008
-0.809016994375 0.309016994375 0.5
-0.453990499739 0.468429850867 0.757935420048
-0.702309846744 0.647411893882 0.296004592578
-0.792649229259 0.571251659136 0.213022865649
-0.783451698363 0.516121620051 0.346153014789
-0.862668480416 0.433888564553 0.259891913008
-0.864929335863 0.484441642061 0.131200378813
-0.843911474622 0.375038567478 0.383613732685
-0.375038567478 0.383613732685 0.843911474622
-0.516121620051 0.346153014789 0.783451698363
-0.433888564553 0.259891913008 0.862668480416
-0.647411893882 0.296004592578 0.702309846744
-0.571251659136 0.213022865649 0.792649229259
-0.69378047756 0.16062203564 0.702046444776
-0.758652300163 0.237086325351 0.606825149272
-0.484441642061 0.131200378813 0.864929335863
-0.615642020874 0.0810862934433 0.78384304242
-0.525731112119 0.0 0.850650808352
0.0810862934433 0.78384304242 0.615642020874
0.0 0.711281734962 0.702907030488
0.16062203564 0.702046444776 0.69378047756
-0.08114185162 0.620239582613 0.78020437071
0.08114185162 0.620239582613 0.78020437071
0.0 0.525731112119 0.850650808352
-0.15643446504 0.519258489728 0.840177885327
0.237086325351 0.606825149272 0.758652300163
0.15643446504 0.519258489728 0.840177885327
0.309016994375 0.5 0.809016994375
-0.238676930319 0.386187385588 0.891006524188
-0.0823235800317 0.399607051702 0.912982492932
-0.162459848116 0.26286555606 0.951056516295
0.0 0.266404701135 0.963861263467
0.0823235800317 0.399607051702 0.912982492932
0.162459848116 0.26286555606 0.951056516295
-0.0822424652791 0.133071104141 0.987688340595
0.0822424652791 0.133071104141 0.987688340595
0.0 0.0 1.0
0.238676930319 0.386187385588 0.891006524188
-0.301258879093 0.264082750659 0.916244175191
-0.358228793487 0.131655371352 0.924304600611
-0.220117027473 0.132792476828 0.966392597402
-0.273266528913 0.0 0.961938357784
-0.403355348617 0.0 0.915043421233
-0.137952242128 0.0 0.990438881957
0.375038567478 0.383613732685 0.843911474622
0.301258879093 0.264082750659 0.916244175191
0.433888564553 0.259891913008 0.862668480416
0.220117027473 0.132792476828 0.966392597402
0.358228793487 0.131655371352 0.924304600611
0.273266528913 0.0 0.961938357784
0.137952242128 0.0 0.990438881957
0.484441642061 0.131200378813 0.864929335863
0.403355348617 0.0 0.915043421233
0.525731112119 0.0 0.850650808352
-0.484441642061 -0.131200378813 0.864929335863
-0.358228793487 -0.131655371352 0.924304600611
-0.433888564553 -0.259891913008 0.862668480416
[...]
CELL_DATA 1280
SCALARS cell_data_0 double
LOOKUP_TABLE default
5.61607631465e-09
7.4520364104e-09
6.92925118466e-09
5.38423598436e-09
2.14834604901e-09
8.08638676497e-09
4.36620365582e-09
5.08315911264e-09
5.56740978309e-09
6.05070471558e-09
7.31396330831e-09
6.75088222419e-09
6.03045240514e-09
7.85444443351e-09
1.13703157836e-08
7.5449035751e-09
1.3679608703e-08
5.85565217085e-09
6.73255557325e-09
7.47069055651e-09
1.35281354001e-08
1.34704813986e-08
1.29947777816e-08
1.21452269508e-08
1.01997573582e-08
8.56510046953e-09
1.27900335505e-08
8.15972397165e-09
8.74421786403e-09
7.2213773807e-09
7.40475392323e-09
9.97560985301e-09
3.79847850012e-10
3.49210173535e-09
4.92321162576e-09
5.40171662704e-09
4.98764682723e-09
4.24438042327e-09
1.29189122316e-09
3.11909580885e-09
4.59819659459e-10
9.33643570796e-10
5.59838289178e-10
3.56393028484e-09
6.27915973388e-09
1.40938233482e-09
2.91547416486e-09
5.40453202367e-09
4.8459683423e-09
5.09249277581e-10
7.74260425201e-09
4.80681594736e-10
7.2205133357e-10
4.92102786292e-09
4.33015394846e-09
3.7296579764e-09
7.14743148352e-09
9.52102599658e-10
4.88842925701e-09
1.70612434269e-09
8.2737955283e-10
1.38345548504e-09
1.33479846154e-09
3.3657111443e-09
2.68911371179e-09
6.40478440279e-10
4.01986203161e-10
5.45628857151e-09
2.34970541771e-09
4.8336802651e-10
3.82183467044e-09
3.51722858351e-09
1.57756076211e-09
2.67494650272e-09
9.72449293889e-10
7.44122110086e-10
7.35081035462e-09
4.7732589755e-09
4.8118163229e-09
8.04487096061e-09
1.70367279933e-08
7.38979765216e-09
5.38958586653e-10
1.33065370405e-08
3.15424427214e-09
1.45905311128e-09
5.1742276584e-09
5.68447766058e-09
1.91215441003e-09
4.84702080783e-09
5.1481522821e-09
8.14042537123e-09
6.69926532675e-09
2.44279967073e-09
1.00907182139e-09
7.54465786849e-09
5.82658735654e-09
2.49484663068e-09
3.97177379653e-09
1.21875425399e-08
1.25847794307e-09
1.56234688764e-09
9.48526005778e-10
4.61677980487e-09
4.0477337881e-09
2.01475935274e-09
1.90812687087e-09
3.8757958981e-09
1.41322607305e-08
6.43914368361e-09
3.77565052964e-09
1.19705837639e-08
8.19773689535e-09
4.33939222508e-10
8.50774456786e-09
3.49726439647e-09
8.31818061395e-10
3.75188592161e-09
2.99726158455e-09
9.84152497242e-10
6.73324011536e-09
7.36424300823e-10
7.52703687184e-09
2.99495587627e-10
4.01582041701e-09
1.38958611878e-09
1.11074084869e-09
2.85395392138e-10
5.02105450729e-09
1.22833562349e-09
4.42270906715e-09
5.97962210179e-09
3.35452071557e-10
4.20760282931e-09
2.77047083239e-10
4.31005890463e-10
5.60663217536e-09
1.13433405797e-09
6.88456002823e-09
8.99642157015e-09
3.13178289879e-09
3.47060556523e-09
7.80878080287e-09
2.34001478713e-09
1.27992142672e-08
1.12228088011e-08
8.38019452046e-09
6.73511028677e-09
1.27471131963e-08
1.5659874621e-08
9.74623053128e-09
1.01621630751e-08
6.96383448702e-09
1.14245990168e-08
9.50055917209e-09
7.33358233177e-09
5.98185423882e-09
1.34269582852e-08
8.20169137708e-09
1.8572746185e-08
4.08465394667e-09
2.05819252859e-09
4.47163526102e-09
1.08422178702e-08
4.11946853176e-09
1.6908471589e-09
1.89162941472e-10
3.78444583868e-09
5.45214454054e-09
2.2316137646e-09
2.57775139614e-09
4.35419962578e-09
9.33303697649e-09
7.39138365012e-09
8.46712293609e-09
1.37798744411e-08
1.26950611555e-09
2.01424242696e-09
1.11852900361e-08
5.96816550348e-09
9.44778337612e-09
6.87508523627e-09
8.08021498188e-10
4.51415891022e-09
1.09721386537e-08
5.4716675364e-09
1.01327970873e-08
5.70173996327e-09
5.16815333557e-09
4.48706994482e-09
3.50225284261e-09
3.78516188679e-09
5.49698060007e-09
1.26856743926e-09
7.0406702916e-10
1.04922383792e-09
4.79359630232e-09
5.284144703e-09
1.53108075271e-09
2.4496207286e-09
1.84907605012e-09
1.77060241795e-09
9.50107958512e-09
4.68143775042e-09
2.6380734877e-09
3.10550359636e-09
7.20669950167e-09
1.07933389955e-08
9.90281426288e-09
1.19985621165e-08
1.10671359338e-08
9.81325461308e-09
1.70692595645e-08
2.24666538178e-08
2.09088355031e-08
1.91939990292e-08
1.20405836923e-08
1.37299925435e-08
1.65273833026e-08
1.30730408517e-08
1.363663754e-08
1.18932520636e-08
1.3467291903e-08
6.20716056079e-09
1.44116230603e-08
5.12182576959e-09
6.39352840344e-09
4.77004363536e-09
5.20412234159e-09
5.29743687386e-09
7.01074455686e-09
3.30931645139e-09
4.47207730948e-09
3.54093793979e-10
4.90588847956e-09
1.29511376134e-09
4.5151773204e-09
3.89921291275e-10
6.04729287276e-11
4.52628693085e-09
9.42913080091e-09
1.65161998233e-09
7.18513975037e-09
4.977259534e-10
1.54899262945e-09
1.64795680405e-10
2.32948555352e-09
2.37937915972e-09
3.63351844652e-09
8.74031426411e-10
4.63812402277e-09
6.17265408803e-10
9.79329608165e-11
1.31353492121e-09
1.86952736967e-09
9.00077093163e-10
3.50339454675e-09
4.56396222658e-09
5.3026380696e-09
5.24168593575e-09
3.69180595443e-09
4.815414901e-09
2.97405790639e-09
1.5286208062e-09
8.05961214192e-09
8.8174920512e-09
1.34691704235e-08
1.39681964825e-08
6.3307432655e-09
6.34182313123e-09
7.23556871238e-09
1.02425233418e-08
9.48939676176e-10
5.34503516426e-10
5.25398820735e-09
3.59913410891e-09
1.3589092613e-08
1.03466581465e-08
1.08882029171e-08
1.00712046276e-08
9.47316900648e-09
8.71905731715e-09
1.03518354985e-08
8.46012552951e-09
7.60581262315e-09
7.35940512795e-09
7.18046344336e-09
1.20280844584e-08
1.07380414978e-08
2.53020734916e-09
5.5475106247e-10
8.51462796682e-09
5.16626667972e-09
6.3002678955e-09
4.75362729467e-09
4.08481994936e-09
2.39536898426e-09
3.57005633544e-09
3.62482757226e-09
8.91298107317e-11
5.75401249711e-09
1.22087659054e-09
1.05131820906e-10
6.74931426367e-09
5.76022356972e-09
1.02042276407e-09
7.4598879999e-09
7.17697019861e-10
1.22585497651e-10
1.44770183289e-09
1.02001381422e-09
4.45771499199e-09
9.43449254295e-09
1.81027528174e-09
6.63972131984e-09
2.662026041e-09
1.89363064875e-09
1.55630409758e-09
2.04123661409e-09
3.8581136234e-10
5.38159716021e-09
1.14052867705e-09
3.4310695527e-09
4.31811642456e-09
2.34065028337e-09
8.43253735607e-10
7.91170727804e-10
7.43071587866e-10
6.74860725785e-09
5.14649712862e-09
1.03958502887e-08
5.19260813107e-09
2.23037823284e-09
4.77756604104e-10
4.36226520498e-09
4.04432409043e-09
1.06579957123e-08
9.5876638848e-09
9.33640641118e-09
1.2223739426e-08
1.22849473085e-08
1.4020065965e-08
1.11447360671e-08
1.65769640709e-08
1.15889772406e-08
8.6164014338e-09
1.39636323793e-08
5.40258507494e-09
1.25141240219e-08
1.01148019119e-08
7.2850147902e-09
1.35842550884e-08
7.25512743243e-09
3.75826586654e-09
1.6802118318e-09
8.36188650772e-09
2.67735257782e-10
3.32581602506e-09
1.58107509723e-10
1.70448557083e-09
3.07180822896e-10
5.0076975193e-09
4.04804259825e-09
7.52161090689e-09
3.53060698484e-09
3.74155353989e-09
6.63556649167e-09
7.41525115121e-09
5.61729438643e-09
5.18969462879e-09
9.96724912569e-09
4.91782394747e-09
3.19291758787e-09
1.83149828096e-09
9.64627226863e-10
1.13994857224e-09
9.29202140431e-09
5.26827069888e-09
8.49843764674e-09
4.2660885559e-09
1.85630737793e-09
1.20975953225e-10
2.06567092543e-09
4.47915134463e-11
5.49233449905e-09
5.72738680195e-09
1.91599297702e-10
5.26475747868e-09
3.10200824575e-09
4.22900813732e-09
3.68104627902e-10
5.15304892572e-09
4.53746453566e-10
5.51153348107e-10
2.9784731154e-09
8.60745847976e-09
6.65994954554e-09
1.82268876342e-09
5.31455034334e-09
1.08140146458e-08
1.63542114556e-08
1.35451413659e-08
1.4743203304e-08
8.62510613597e-09
1.8640449695e-08
1.62055263812e-08
1.12691996393e-08
1.11880526053e-08
1.32472072831e-08
1.06680153322e-08
1.39299811221e-08
7.56201622537e-09
7.28767672778e-09
9.14983785871e-09
6.57157669506e-09
1.48604267551e-08
6.50107508799e-10
2.9291760693e-09
1.12505795722e-10
3.09157691793e-09
3.26598397071e-09
3.91845854873e-09
5.20714045645e-09
2.74122743713e-09
3.0143767308e-09
1.1412213731e-09
1.57606104088e-09
6.64914293645e-10
1.63610866256e-09
4.68658287946e-09
2.75209008235e-09
6.07578922932e-10
8.3627955536e-09
6.48490685451e-09
1.02970872387e-08
6.90651910566e-09
6.38507861737e-09
5.02992099894e-09
6.26372105673e-09
1.17052807419e-09
1.11036712892e-08
5.40949339642e-09
6.8260539163e-09
9.52537347539e-09
2.26310235058e-09
3.37757305994e-09
8.61169090503e-09
4.02468540726e-09
3.60254910035e-09
7.13527954512e-09
1.29562564601e-08
7.81617544837e-09
1.14679485076e-08
7.69589464844e-09
6.79082643444e-09
4.43024259491e-09
1.10359679598e-08
8.3368348298e-09
7.49953882999e-09
1.44459253825e-08
3.82441848451e-09
2.84394758253e-09
1.03884328591e-08
5.26184425431e-09
1.00730621792e-08
4.25029590069e-09
7.54302807237e-10
3.17884649718e-09
6.00158565213e-09
1.29090592472e-08
1.3319952313e-08
9.24467236204e-09
5.90762110987e-10
9.23110971228e-09
1.38583660472e-08
1.12602762374e-08
5.17370285804e-09
1.31380692808e-08
1.29232234922e-08
1.86417118347e-08
3.52760994178e-09
1.72665443762e-09
2.6877395776e-09
1.09095609328e-08
2.23482753243e-09
1.02500617171e-09
5.41431584706e-10
3.8132416675e-09
3.22759164956e-09
2.93257352365e-10
1.36780227728e-09
1.43387824015e-09
1.23435854845e-08
2.34743368271e-11
4.26624249589e-10
4.04689516275e-09
5.377645173e-10
1.40852799317e-09
2.89925983104e-09
3.42634160065e-09
1.1359188361e-09
3.98791959967e-09
1.90787716945e-09
1.73589057787e-09
3.81755310384e-09
9.57290390351e-10
4.31052554621e-09
3.9175525393e-09
3.79863944565e-09
4.47419848641e-09
4.02847776656e-09
6.57319660871e-09
6.52298958392e-09
6.43816774348e-09
5.83804426297e-09
6.10986384072e-09
2.78831370627e-09
5.10072270335e-09
7.27656583472e-09
5.94018190964e-10
8.10412403369e-09
7.65005233927e-09
7.72002140801e-09
1.30872508787e-08
6.65392820015e-09
6.35773866852e-09
1.02134641324e-08
4.97102309598e-09
1.27800634504e-08
6.70626540991e-09
8.17744964096e-09
5.06645966853e-09
1.09664949914e-08
1.00695330376e-08
1.56016109742e-08
9.70256577759e-09
9.34747031618e-09
8.97787196341e-09
1.22384078657e-08
1.18360871419e-08
6.54159676266e-09
6.86045731369e-09
1.13416648849e-08
1.39284348738e-08
1.35179932943e-09
1.87823024451e-09
5.02341523723e-10
5.43516754603e-09
3.32735282875e-09
1.88651489441e-09
5.10411271779e-09
4.18173217523e-10
2.19951346156e-09
6.60743997832e-11
2.01819646125e-09
1.26407678114e-09
3.53762596866e-09
1.97342457402e-11
3.88507122108e-10
4.10071528984e-09
8.07677816375e-10
9.73914181975e-10
5.67457144188e-09
1.04939773532e-10
6.30430803725e-11
1.29720932097e-09
1.74057247692e-09
4.26317821651e-09
5.4028613794e-09
3.44172393983e-09
6.28748658887e-09
5.33924767192e-09
1.48195369434e-09
1.04801235081e-10
1.28774895211e-09
2.23002872707e-09
6.18618885223e-09
6.94941761558e-09
5.67152353252e-09
8.12499639153e-09
1.19097832332e-09
7.03330929081e-09
4.41274456205e-09
6.59494570589e-09
2.84567274464e-09
7.76338940793e-09
1.11552003263e-08
1.20496535704e-08
7.99400591453e-09
7.1372529336e-09
1.07374306796e-08
5.91755599227e-09
6.01827036463e-09
6.2824861502e-10
5.70672822257e-09
3.94370526488e-09
1.30790269291e-08
1.0352453106e-08
1.32168776501e-08
1.14181202626e-08
1.30982350677e-08
1.38011696648e-08
1.8395889919e-08
1.24822232849e-08
6.88856844093e-09
6.02530637886e-09
9.61674800678e-09
1.34012538354e-08
5.37655285649e-09
7.78255898708e-10
1.08221340251e-09
6.77825399101e-09
2.11657817494e-09
2.09549765567e-09
2.64056521265e-09
1.31068123292e-09
2.15102732869e-09
1.25334019522e-09
2.25616116445e-09
3.84958019526e-11
4.24665106907e-09
8.68003004276e-10
1.17901037069e-09
1.97980611315e-09
4.28330977425e-09
1.16972448985e-09
4.3319600933e-09
3.42698928809e-09
3.74007111647e-09
4.93304662617e-09
6.56863021709e-09
1.72801425552e-09
2.57329406813e-09
4.92815205881e-09
3.28269278112e-10
5.13304824074e-09
2.60630450129e-09
1.68227052317e-09
1.5619432786e-09
5.28161060926e-10
2.93865156502e-09
4.47848816683e-10
5.7313434345e-09
5.51510971388e-10
3.74129353084e-09
1.20779359025e-10
4.9713851618e-10
2.48574389712e-09
7.04528627662e-09
1.45981431659e-09
3.06734175714e-09
6.36036604493e-09
1.07141235271e-09
6.93318857849e-10
3.67691671112e-09
2.94484403196e-09
1.60526832756e-08
1.41208592801e-08
1.33423841671e-08
1.46002660892e-08
1.3582682885e-08
1.57873096169e-08
1.43616885564e-08
1.66929014744e-08
9.92544640304e-09
1.10024886817e-08
1.79537358433e-08
1.12851167728e-08
1.13091489825e-08
1.00869349886e-08
1.13829120468e-08
1.45808645552e-08
1.47642734479e-09
2.9517121714e-09
5.03548352248e-10
4.28081036384e-09
9.19290489906e-10
1.02482217767e-09
3.78824240425e-10
1.2237271122e-09
4.57780721552e-09
2.64639114835e-09
2.95003369148e-09
3.38548242087e-09
5.49678506352e-09
1.03814815798e-09
3.6847270655e-09
2.0179232348e-09
1.9567962414e-09
1.53619999983e-09
7.3993581619e-09
9.72184453173e-10
9.64030802082e-10
6.81473491389e-09
5.17239582978e-09
2.33257138245e-09
7.60552471139e-09
1.88445911808e-09
4.33657226038e-09
5.62728497353e-09
2.94323017627e-09
2.22089453256e-09
5.362064566e-09
4.94490693933e-10
5.27391110547e-09
8.09077005674e-09
6.6002098277e-09
9.73519123183e-09
2.46007276509e-09
2.58434997448e-09
1.56914358174e-09
2.99447443115e-09
3.79943700261e-09
3.33460093644e-09
5.35240049216e-09
6.03086094349e-09
7.07334570725e-10
2.1586797316e-09
6.82126734101e-09
6.11478828929e-10
1.52360447053e-08
6.67630133547e-09
9.25680984275e-09
7.83447572234e-09
1.33525696647e-08
1.29938583294e-08
1.46556196022e-08
1.34972806042e-08
1.17007894118e-08
9.61051105754e-09
1.66247404751e-08
1.08152178925e-08
1.08997736678e-08
1.10329655041e-08
1.03299560526e-08
1.61634957869e-08
2.09204998235e-09
3.6598252313e-10
1.7179719121e-09
4.57710448684e-09
2.66786898607e-09
2.20128136061e-09
9.83699033163e-10
8.27675568665e-10
2.26076018704e-09
7.25996704589e-10
2.73952393551e-09
1.80454782994e-09
5.90228483382e-09
2.1192050901e-09
4.89512143851e-09
3.2476335291e-09
4.31376096071e-09
1.28511509625e-09
2.79838195291e-09
1.21436640356e-09
2.76000790035e-09
3.35028150108e-09
9.97505394192e-10
5.64136781938e-09
7.56032239068e-09
1.08016005273e-09
8.17305863226e-10
1.06974715615e-09
3.13510134335e-09
3.86257850471e-09
5.19964699584e-09
1.09293370257e-09
3.84923322329e-09
6.82641417591e-09
9.27454848775e-09
5.34586023374e-09
4.76641761042e-09
8.39396003147e-09
6.04806417888e-09
5.93886078479e-09
8.10072889912e-09
6.27494391862e-09
9.24912519309e-09
8.11023484174e-09
5.18806927654e-09
5.45497866911e-09
1.15345763036e-08
4.72356507452e-09
1.15461971831e-08
3.32939485477e-09
1.42010795506e-09
4.66618439804e-09
6.71645606954e-09
1.27330157305e-08
1.45207186951e-08
1.13567818919e-08
4.25093215326e-09
8.78947430943e-09
1.63142980097e-08
8.87370845149e-09
8.15463961352e-09
1.31564549319e-08
1.33699912504e-08
1.47995123906e-08
7.25618121741e-09
3.6176677256e-09
6.04864728002e-09
1.08805194314e-08
1.33086601481e-09
1.94624984774e-09
2.11413637626e-09
2.79728082466e-09
3.56589574847e-09
2.35542364939e-09
4.65056227561e-09
5.65626046668e-09
1.0393148862e-08
7.68804750834e-10
8.48511036507e-10
3.27694003089e-10
2.88033674918e-09
2.73591806328e-09
1.89345963373e-09
1.46875602775e-09
3.43465442767e-09
4.32205982188e-09
3.88077657717e-09
5.99090361696e-09
6.01047731461e-09
2.56695520667e-09
3.06311093558e-09
1.31765281031e-09
4.41852093508e-10
2.25948984527e-09
1.43217470275e-09
3.3736255092e-10
3.33155779107e-09
1.60143482924e-09
7.75960070927e-09
3.23488637409e-09
2.24568512151e-09
4.26158908737e-09
6.04722932409e-10
1.53444751429e-09
4.15412449312e-09
5.40375340222e-09
2.85339380215e-10
3.34293482207e-09
3.23345680028e-09
3.37181280142e-09
8.78972061388e-09
6.42841513237e-09
1.83161573825e-08
1.41279551694e-08
1.16088413167e-08
1.03843203696e-08
1.21217874515e-08
1.09864236616e-08
1.00073523079e-08
9.14362613205e-09
1.09831066698e-08
8.699777537e-09
1.1979987006e-08
5.36890145659e-09
3.73891122529e-09
5.29214247722e-09
6.52597876529e-09
1.29067199999e-08
3.29382418734e-09
5.84837379842e-09
7.79706005741e-09
9.4966894539e-09
6.31901675782e-09
9.09577997699e-09
4.94908967508e-09
9.49197269431e-09
7.10549234917e-09
5.10090302851e-09
5.49592582251e-09
5.65856609385e-09
8.53443577014e-09
5.07629649421e-09
9.1941143286e-09
6.44747992056e-09
5.63046656279e-09
5.6312294375e-09
9.12023091773e-09
3.20060270051e-09
3.34071783076e-10
1.33075048131e-10
1.71606851147e-09
2.3369518785e-10
7.86120944085e-09
1.37321463523e-09
7.08883592402e-09
8.15524967977e-11
1.93465399829e-09
9.38905920815e-10
1.33597694835e-09
2.64903559036e-09
5.200710708e-10
9.70797866036e-10
2.91873775459e-09
9.02904895879e-11
1.57866648038e-09
3.32545734495e-09
3.52038833264e-09
7.77077302287e-10
3.55774009124e-09
2.63652389201e-09
5.98564442274e-09
4.86866201126e-09
2.17097095967e-09
1.43793468867e-10
4.35318894448e-09
1.87576532104e-09
1.34346382927e-08
4.55330569641e-09
9.79379172976e-09
8.52464459698e-09
1.09088150928e-08
8.86313064161e-09
1.27059399326e-08
1.17861272346e-08
5.1565942275e-09
8.81511503254e-10
8.45222903996e-09
9.23367727948e-09
1.13255826469e-08
4.36121152344e-09
7.92313608173e-09
1.22846225105e-08
6.98077788671e-09
5.54690145068e-09
7.39896156966e-09
8.01247664708e-09
1.67425837183e-09
2.14103984202e-09
1.31332992213e-09
1.83641250995e-09
3.3373254313e-11
1.57217016722e-10
1.41106347933e-11
3.60521489804e-09
8.46452401357e-09
3.26744969764e-09
1.25941041836e-09
6.02709494885e-09
7.81988545275e-09
8.89498491507e-09
1.2433425521e-08
5.4749492132e-09
4.17916460923e-10
2.31990708054e-09
1.78176187107e-09
1.5436838895e-09
5.73730376019e-09
1.56364501853e-09
3.54896958648e-09
1.68065203505e-10
1.27761929725e-09
2.92493935397e-11
1.36727241119e-09
1.16871365903e-09
1.66308659915e-09
2.51811320697e-09
5.23436922741e-10
4.98378168875e-10
5.01097740965e-09
2.62178098436e-09
7.75988985606e-10
4.8737215558e-09
1.96782931903e-09
5.21063149361e-10
6.90382644186e-09
5.96725025762e-09
3.46733702346e-09
2.0066107039e-09
5.35397605957e-09
2.72890575223e-09
1.08903758325e-08
7.43542058655e-09
9.49850739197e-09
7.82396073985e-09
9.8214070146e-09
5.97397730288e-09
1.00642085093e-08
1.05496000171e-08
5.62086828949e-09
2.19012289766e-10
8.48313466329e-09
3.41413903143e-09
8.83437128594e-09
7.28175154244e-09
7.78754219949e-09
1.67745466592e-08
6.04073165834e-09
4.07890097132e-09
6.04593429395e-09
9.27493315904e-09
5.66499350302e-09
7.24139093972e-09
3.87342333997e-09
4.03769715043e-09
4.39182787906e-09
3.31392865587e-09
1.67189297104e-09
6.82454790614e-09
8.64272954678e-09
1.80358334462e-09
2.15827772241e-09
2.50811096566e-09
3.08129640773e-09
2.44038984475e-09
6.26558543435e-09
3.53906404377e-09
3.56391121255e-10
1.11364042518e-09
1.85501410417e-09
2.63893656107e-11
1.06665755256e-08
6.50760653447e-09
6.96500156845e-09
4.87789285916e-09
2.69852865726e-09
3.88625354447e-10
3.6971824224e-09
7.55750457017e-10
2.96531529924e-09
2.1313579458e-09
3.78565143053e-09
2.80479610472e-09
2.16493277829e-09
3.38571894955e-09
8.19793976772e-10
1.04026775881e-09
2.50735013632e-09
6.42400686531e-10
7.39545764993e-09
6.58464264669e-09
2.63657217762e-09
1.66632011189e-09
4.92061852849e-09
4.79599448207e-09
1.38447714625e-08
8.28204676032e-09
9.31458730945e-09
1.04934521106e-08
1.38400397481e-08
1.31830696006e-08
1.67573477806e-08
1.35847920698e-08
8.98399746664e-09
9.95633924234e-09
1.48372690978e-08
1.1353864846e-08
1.22499269984e-08
8.67227391227e-09
1.19976240511e-08
1.48698295074e-08
6.05626370475e-09
9.75179588844e-10
9.04585914333e-10
4.40840435356e-09
4.53991656889e-09
1.52769940676e-09
9.52297982732e-10
2.9168217953e-09
2.7093632472e-10
2.05134043288e-09
2.92338779651e-09
6.44725766853e-09
5.3817343404e-09
9.36023204371e-10
3.49322945393e-09
4.1345462108e-09
2.90478507056e-09
2.41761792985e-09
6.39930336816e-09
3.71818606615e-09
2.21979223099e-10
5.21299372104e-09
9.21951772841e-09
5.05274884228e-09
5.27832698195e-09
1.59081396027e-10
2.98418087623e-09
6.33537608308e-09
8.42237482207e-09
5.83725574628e-09
1.16730576794e-08
2.49789003207e-09
3.96186988659e-09
4.58297210226e-09
5.10414886474e-09
6.71681900192e-09
4.60995427342e-09
5.97104878632e-09
1.37134519415e-09
3.1626548226e-09
8.00471629997e-09
8.20728314759e-09
5.74034637975e-09
8.26847843316e-09
6.05100883389e-09
4.9034645875e-09
5.45828698674e-09
8.47782605827e-09
1.60167921727e-08
9.91988515118e-09
1.29103144945e-08
1.26275062596e-08
1.57785721364e-08
1.46502842732e-08
1.36362434278e-08
1.84440257521e-08
1.07844479002e-08
1.08822820224e-08