# vtk DataFile Version 3.0
File Name: Molecule/sphere_cent/sphere_cent_0-s3.vtk
ASCII
DATASET UNSTRUCTURED_GRID
FIELD FieldData 1
TIME 1 1 double
0.0
POINTS 242 double
0.67562299967 0.60093027353 -0.42340171337
0.43065461516 0.68471282721 -0.58793050051
0.50405198336 0.80649393797 -0.30885994434
0.2730243206 0.86092787981 -0.42712816596
0.29917234182 0.50035649538 -0.81195658445
0.16776938736 0.69203108549 -0.70057177544
0.52960324287 0.84724515676 -0.0042755845934
0.77600646019 0.58939641714 -0.21467585862
0.26623362303 0.95101243258 -0.15745832026
0.26574090123 0.9509986639 0.15754666924
-5.8873929447e-06 0.99998348951 -7.4591618613e-05
0.49352371693 0.81481671333 0.3026971817
0.0085259806365 0.96365272999 -0.26431646943
0.25536382198 0.86320072412 0.43556135893
0.00011985834863 0.96057766676 0.27809929848
2.9765118597e-05 0.8506373167 0.52575308084
-0.25511795282 0.86295723915 0.43607476354
-0.26563677192 0.95098644495 0.15789960325
-0.49999392033 0.80900555849 0.30901989341
-0.26624259353 0.9526822567 -0.13445615768
-0.52106839418 0.85348689556 -0.00010694058437
-0.70523244143 0.69121778011 0.15756285191
-0.70615214109 0.69051414728 -0.15692649782
-0.51685249805 0.80097007751 -0.29760453105
-0.85065352917 0.52572667599 2.1672236471e-05
-0.15774741769 0.70518738031 0.69132864475
-0.43023213744 0.68541902304 0.5874505043
-0.31406119466 0.50609177351 0.80310946703
-0.68533611298 0.58760720491 0.43008804321
-0.58724951744 0.42712640762 0.68758678436
-0.80716204643 0.3060362637 0.50418627262
-0.86292862892 0.43568629026 0.25594356656
-0.53435450792 0.0094621097669 0.84388071299
0.15786013007 0.70522940159 0.69127005339
2.3649783543e-05 0.5206451416 0.85369580984
0.31337910891 0.5049175024 0.8037250042
0.31290590763 -0.49754649401 -0.80895102024
0.16900004447 -0.26390028 -0.9487477541
0.55641263723 -0.23388454318 -0.79495936632
0.51030510664 -0.002761679003 -0.85911440849
0.0050551397726 -0.00011779537454 -0.99974352121
0.00026339388569 -0.52076625824 -0.85373598337
-0.15743632615 -0.26555433869 -0.95109951496
-0.30900967121 -0.49999365211 -0.80901098251
0.17279060185 -0.69768053293 -0.69401341677
-0.16885586083 -0.69186866283 -0.70115363598
-0.27702993155 5.4195115808e-06 -0.96078270674
-0.42097595334 -0.26686495543 -0.86640292406
0.43016207218 0.68552654982 0.587254107
0.58928561211 0.42745634913 0.68541890383
0.67928230762 0.5852279067 0.43974637985
-0.70085096359 -0.16856300831 -0.69233858585
-0.80901068449 -0.30900609493 -0.49999630451
-0.85342228413 0.00044777034782 -0.52119213343
-0.6939483881 0.17537671328 -0.69774961472
-0.80901050568 0.30901023746 -0.49999332428
-0.95109820366 -0.15788938105 -0.26547077298
-0.95096814632 0.15805914998 -0.26556172967
-0.99998855591 -2.2024219106e-06 1.7455324269e-05
-0.85632830858 -0.43749812245 -0.27312523127
-0.96439230442 -0.2626144588 0.009770215489
-0.8631786108 0.43569773436 -0.25505325198
-0.96046483517 0.27827373147 -0.00012332038023
-0.30898573995 0.50005537271 -0.80897700787
-0.58790957928 0.42953360081 -0.68540871143
-0.44270578027 0.66696554422 -0.59643250704
-0.68538182974 0.58783197403 -0.42972734571
-0.43585637212 0.25560534 -0.86288166046
-0.84096515179 -0.53811341524 0.010193554685
-0.70537650585 -0.69093102217 -0.1575832665
-0.70340621471 -0.69260710478 0.15961578488
-0.52081972361 -0.85368007421 0.00060816155747
-0.49998685718 -0.80902695656 -0.30897888541
-0.48392674327 -0.81665289402 0.31305199862
-0.26546666026 -0.95128679276 -0.15697905421
-0.26434838772 -0.95098334551 0.16029666364
-0.0059631671757 -0.99935823679 0.017762986943
-0.27309527993 -0.86101192236 -0.427516222
0.010079458356 -0.96448850632 -0.26147571206
-0.86289030313 -0.43540623784 0.25646680593
-0.69128441811 -0.58762067556 0.41809770465
-0.85146510601 -0.00072207831545 0.52451568842
-0.95101583004 0.15771022439 0.26577946544
-0.95075368881 -0.15748634934 0.26707041264
-0.80661505461 -0.29639792442 0.51097077131
-0.58752155304 -0.42993074656 -0.68551510572
-0.43002599478 -0.6853877902 -0.58759313822
-0.68492692709 -0.58815932274 -0.42989274859
0.25633898377 -0.86301630735 -0.43526789546
0.25827077031 -0.95050615072 -0.16741620004
0.57207679749 -0.43519887328 -0.69325757027
0.43165633082 -0.68517631292 -0.58673542738
0.50822389126 -0.8072218895 -0.29877066612
0.16123026609 0.26434281468 -0.95086914301
-0.15794619918 0.26555883884 -0.9510936141
-0.00017059338279 0.52069830894 -0.85378926992
-0.51340758801 0.010186365806 -0.85690104961
-0.15850268304 0.69334483147 -0.7019457221
0.52555090189 0.0012535232818 0.85067301989
0.44987088442 -0.26569584012 0.85232114792
0.69259774685 -0.15915550292 0.70342493057
0.59420663118 -0.42904385924 0.68020355701
0.33486837149 -0.50831717253 0.79232132435
0.80896818638 -0.30920699239 0.4999409914
0.43413886428 -0.68777763844 0.5817052722
0.68683964014 -0.58797639608 0.42726761103
0.49991199374 -0.8093816638 0.3081164062
0.17793256044 -0.70717859268 0.68360173702
0.25768306851 -0.8627204895 0.43502703309
-0.00079088367056 -0.85077399015 0.52544766665
0.8627204895 -0.43496417999 0.25747224689
0.7039539814 -0.6920593977 0.15910741687
0.85096108913 -0.52512073517 -0.0010702741565
0.96163439751 -0.27259895205 0.020260233432
0.94847011566 -0.16008076072 0.2732603848
0.99863982201 -9.8925949715e-05 0.032599896193
0.95061320066 0.15254445374 0.26993981004
0.85398727655 -0.0072306357324 0.52023506165
0.81868612766 0.28576463461 0.49746981263
0.9612776041 0.2726418674 0.021187867969
0.87185353041 0.41640755534 0.25514236093
0.84164851904 0.53792977333 0.0026672643144
0.69580668211 0.15282331407 0.70164167881
-0.2518786788 -0.86220794916 0.43935737014
-0.4178186357 -0.69643443823 0.58269029856
-0.17713882029 -0.70723730326 0.68362700939
-0.33475905657 -0.50844794512 0.79141879082
-0.59332412481 -0.41309452057 0.69068747759
-0.68690490723 -0.16669498384 0.70742845535
-0.45017302036 -0.26550287008 0.85203069448
0.70058137178 -0.6985027194 -0.14450626075
0.53937369585 -0.84156167507 0.0012838966213
0.25517052412 -0.95004397631 0.17652116716
0.0012371954508 -0.95905888081 0.28273072839
0.80902349949 -0.30895540118 -0.4999755919
0.89109104872 -0.24697826803 -0.38052469492
0.86164176464 -0.43055826426 -0.26714253426
0.92816859484 -0.34365358949 -0.13924628496
0.95157635212 -0.15969914198 -0.26261481643
0.98836910725 -0.09069917351 -0.12036134303
0.83514010906 -0.1566786319 -0.52703690529
0.91330581903 -0.081832259893 -0.3989726007
0.85204011202 2.3135809897e-05 -0.52343869209
0.91355532408 0.0810707286 -0.39853492379
0.96408867836 -0.00032290164381 -0.26557421684
0.95155888796 0.15996408463 -0.26252558827
0.8349635005 0.15641190112 -0.52744603157
0.89090675116 0.2466699183 -0.38105642796
0.80902260542 0.30898016691 -0.4999614656
0.98854070902 0.090355433524 -0.11923497915
0.696352005 0.16481339931 -0.698353827
0.70793277025 0.0040066684596 -0.70581358671
0.57411551476 0.21926864982 -0.78858089447
0.69649034739 -0.16395238042 -0.69858628511
0.92837381363 0.34373265505 -0.13787963986
0.86190551519 0.43144696951 -0.26596522331
0.76143836975 0.45458555222 -0.46131154895
0.69890236855 0.69774216413 0.15410783887
0.70765727758 0.36391842365 -0.60551816225
0.64617276192 0.51483923197 -0.56333851814
0.58749753237 0.42826923728 -0.6863322258
0.45369330049 0.46219459176 -0.76214390993
0.42861673236 0.26558196545 -0.86353355646
0.2142803818 0.79208046198 -0.57121878862
0.12856066227 0.86458516121 -0.48574623466
0.079576291144 0.78556668758 -0.6136251092
4.203827848e-05 0.85064631701 -0.52573788166
0.13327841461 0.92413586378 -0.35781368613
0.00079640233889 0.91358745098 -0.40661627054
-0.38952761889 0.89061915874 -0.23395289481
-0.13362117112 0.96646434069 -0.21912939847
-0.13055604696 0.9243503809 -0.35852408409
-0.26301977038 0.91728651524 -0.29896864295
-0.25539818406 0.86304074526 -0.43576100469
-0.12642841041 0.8647313714 -0.48595541716
-0.38215631247 0.84441846609 -0.37538444996
-0.43287160993 0.26791328192 0.86064058542
-0.2450325042 0.38234308362 0.89128774405
-0.15958607197 0.264898628 0.95077693462
-3.9410351746e-05 0.26731663942 0.9635899663
0.15947374701 0.26489809155 0.95079648495
-0.090768389404 0.12759684026 0.98750525713
0.09042301029 0.12757325172 0.98755079508
-1.5756459106e-05 -9.1125577455e-05 0.99997413158
0.24447576702 0.38176378608 0.89144051075
-0.26760697365 0.00070623063948 0.96345245838
-0.35094791651 0.13431093097 0.92649668455
-0.35205975175 -0.13454425335 0.92607867718
0.44345191121 0.26218315959 0.8562823534
0.34515964985 0.14293806255 0.92713594437
0.26567587256 0.00025707707391 0.96365064383
-0.25377741456 -0.38433650136 0.88714450598
-0.16164763272 -0.26524490118 0.95052081347
-0.090064965189 -0.12826251984 0.98753148317
-0.16371071339 -0.52991813421 0.83175700903
-0.08310457319 -0.40034177899 0.9125868082
-0.00016644224524 -0.52451235056 0.85139709711
0.08209015429 -0.3999248445 0.91286402941
-0.00055784889264 -0.2679040134 0.96344202757
0.16143502295 -0.26521390676 0.95056086779
0.16293403506 -0.53016299009 0.83179503679
0.25377199054 -0.38386309147 0.88760745525
0.089791186154 -0.1278835088 0.98763978481
-5.5434182286e-05 -0.69961100817 0.71383935213
0.34618195891 -0.14301578701 0.92665487528
1.7422498786e-05 -0.71022349596 -0.70383661985
0.078995518386 -0.78538018465 -0.61387974024
-0.078824728727 -0.78552311659 -0.61377865076
0.0026169631165 -0.85090321302 -0.52494853735
-0.48547896743 -0.12670135498 -0.8649481535
0.60626637936 0.70604974031 0.36551585793
0.78703278303 0.57246983051 0.22946658731
0.76562315226 0.4489955008 0.46042811871
-0.61254578829 -0.077970020473 -0.78657257557
-0.6124765873 0.078920826316 -0.78645819426
-0.70353239775 0.00036078624544 -0.71054911613
-0.92444807291 -0.35731983185 -0.13226684928
-0.86442357302 -0.48660364747 -0.1258765012
-0.91254985332 -0.40871307254 0.00039363830001
-0.078453876078 0.78574174643 -0.61354017258
-0.21182395518 0.79280602932 -0.57148641348
-0.29726046324 0.70173406601 -0.64739793539
-0.34629508853 0.78187388182 -0.51839280128
-0.47335770726 0.75491678715 -0.45354276896
-0.13218216598 -0.92471641302 -0.35663455725
-0.12781374156 -0.86508256197 -0.48506101966
0.00013275191304 -0.9140226841 -0.40566134453
-0.58974564075 -0.70766091347 0.38849499822
-0.74814498425 -0.45350965858 0.48438361287
-0.53343009949 -0.56821465492 0.62559860945
-0.57110989094 -0.21396134794 -0.79239606857
-0.21413987875 -0.79220157862 -0.57134687901
0.3958260417 -0.89130032063 -0.22148574889
0.14343060553 -0.98714864254 -0.062430128455
0.3912037909 -0.91753524542 0.065898090601
0.70589017868 -0.36482340097 -0.6068046093
0.76270991564 -0.4533342123 -0.46106758714
0.64528495073 -0.51354628801 -0.56555622816
0.68594795465 -0.58808231354 -0.4281707108
0.61163312197 -0.7041669488 -0.36037683487
0.7852755785 -0.57486575842 -0.22816061974
0.0010887612589 0.71048897505 -0.70358073711

CELLS 480 1920
3 0 1 2
3 2 1 3
3 1 4 5
3 2 6 7
3 2 8 6
3 8 9 6
3 8 10 9
3 6 9 11
3 2 3 8
3 8 12 10
3 11 9 13
3 9 14 13
3 9 10 14
3 13 14 15
3 15 14 16
3 14 17 16
3 14 10 17
3 16 17 18
3 10 19 17
3 19 20 17
3 17 20 18
3 18 20 21
3 20 22 21
3 20 23 22
3 21 22 24
3 15 16 25
3 16 26 25
3 16 18 26
3 25 26 27
3 18 28 26
3 28 29 26
3 28 30 29
3 26 29 27
3 18 21 28
3 21 31 28
3 21 24 31
3 28 31 30
3 29 30 32
3 15 25 33
3 25 34 33
3 25 27 34
3 33 34 35
3 36 37 38
3 39 37 40
3 36 41 37
3 41 42 37
3 41 43 42
3 37 42 40
3 36 44 41
3 41 45 43
3 40 42 46
3 42 47 46
3 42 43 47
3 48 49 50
3 48 35 49
3 11 13 48
3 13 33 48
3 13 15 33
3 48 33 35
3 51 52 53
3 54 53 55
3 52 56 53
3 56 57 53
3 56 58 57
3 53 57 55
3 52 59 56
3 56 60 58
3 55 57 61
3 57 62 61
3 57 58 62
3 61 62 24
3 63 64 65
3 64 66 65
3 64 55 66
3 63 67 64
3 67 54 64
3 64 54 55
3 23 66 22
3 66 61 22
3 66 55 61
3 22 61 24
3 68 69 70
3 69 71 70
3 69 72 71
3 70 71 73
3 72 74 71
3 74 75 71
3 74 76 75
3 71 75 73
3 72 77 74
3 74 78 76
3 68 70 79
3 70 80 79
3 30 81 32
3 30 82 81
3 82 83 81
3 82 58 83
3 81 83 84
3 30 31 82
3 31 62 82
3 31 24 62
3 82 62 58
3 84 83 79
3 83 60 79
3 83 58 60
3 47 43 85
3 51 85 52
3 43 86 85
3 86 87 85
3 86 72 87
3 85 87 52
3 43 45 86
3 86 77 72
3 52 87 59
3 87 69 59
3 87 72 69
3 88 89 78
3 90 91 36
3 36 91 44
3 91 88 44
3 91 92 88
3 40 93 39
3 40 94 93
3 94 95 93
3 94 63 95
3 93 95 4
3 40 46 94
3 46 67 94
3 46 96 67
3 94 67 63
3 4 95 5
3 95 63 97
3 98 99 100
3 99 101 100
3 99 102 101
3 100 101 103
3 102 104 101
3 104 105 101
3 104 106 105
3 101 105 103
3 102 107 104
3 107 108 104
3 107 109 108
3 104 108 106
3 103 105 110
3 105 111 110
3 105 106 111
3 110 111 112
3 112 113 110
3 113 114 110
3 113 115 114
3 110 114 103
3 115 116 114
3 116 117 114
3 116 118 117
3 114 117 103
3 115 119 116
3 119 120 116
3 119 121 120
3 116 120 118
3 103 117 100
3 117 122 100
3 117 118 122
3 100 122 98
3 73 123 124
3 123 125 124
3 123 109 125
3 124 125 126
3 84 127 128
3 127 129 128
3 127 126 129
3 128 129 32
3 92 130 131
3 130 111 131
3 130 112 111
3 131 111 106
3 76 132 133
3 132 108 133
3 132 106 108
3 133 108 109
3 134 135 136
3 135 137 136
3 135 138 137
3 136 137 112
3 112 137 113
3 137 139 113
3 137 138 139
3 113 139 115
3 134 140 135
3 140 141 135
3 140 142 141
3 135 141 138
3 142 143 141
3 143 144 141
3 143 145 144
3 141 144 138
3 142 146 143
3 146 147 143
3 146 148 147
3 143 147 145
3 138 144 139
3 144 149 139
3 144 145 149
3 139 149 115
3 148 146 150
3 146 151 150
3 146 142 151
3 150 151 152
3 39 151 153
3 151 140 153
3 151 142 140
3 153 140 134
3 115 149 119
3 149 154 119
3 149 145 154
3 119 154 121
3 145 147 154
3 147 155 154
3 147 148 155
3 154 155 121
3 148 156 155
3 156 7 155
3 156 0 7
3 155 7 121
3 121 7 157
3 7 0 2
3 148 158 156
3 158 159 156
3 158 160 159
3 156 159 0
3 0 159 1
3 1 159 160
3 160 161 1
3 161 4 1
3 4 161 162
3 161 152 162
3 161 160 152
3 162 152 39
3 39 152 151
3 152 158 150
3 152 160 158
3 150 158 148
3 5 163 1
3 1 163 3
3 3 163 164
3 163 165 164
3 163 5 165
3 164 165 166
3 11 157 6
3 6 157 7
3 3 167 8
3 167 12 8
3 3 164 167
3 164 168 167
3 164 166 168
3 167 168 12
3 19 169 20
3 169 23 20
3 12 170 10
3 10 170 19
3 12 171 170
3 171 172 170
3 171 173 172
3 170 172 19
3 12 168 171
3 168 174 171
3 168 166 174
3 171 174 173
3 19 172 169
3 172 175 169
3 172 173 175
3 169 175 23
3 32 176 29
3 29 176 27
3 27 177 34
3 177 178 34
3 178 179 34
3 179 180 34
3 178 181 179
3 181 182 179
3 181 183 182
3 179 182 180
3 180 184 34
3 34 184 35
3 183 181 185
3 181 186 185
3 181 178 186
3 185 186 187
3 32 186 176
3 186 177 176
3 186 178 177
3 176 177 27
3 35 184 188
3 184 189 188
3 184 180 189
3 188 189 98
3 180 182 189
3 182 190 189
3 182 183 190
3 189 190 98
3 126 191 129
3 191 187 129
3 191 192 187
3 129 187 32
3 32 187 186
3 187 193 185
3 187 192 193
3 185 193 183
3 126 194 191
3 194 195 191
3 194 196 195
3 191 195 192
3 196 197 195
3 197 198 195
3 197 199 198
3 195 198 192
3 196 200 197
3 200 201 197
3 200 102 201
3 197 201 199
3 192 198 193
3 198 202 193
3 198 199 202
3 193 202 183
3 102 200 107
3 200 203 107
3 200 196 203
3 107 203 109
3 109 203 125
3 203 194 125
3 203 196 194
3 125 194 126
3 183 202 190
3 202 204 190
3 202 199 204
3 190 204 98
3 199 201 204
3 201 99 204
3 201 102 99
3 204 99 98
3 44 205 41
3 205 45 41
3 44 206 205
3 206 207 205
3 206 208 207
3 205 207 45
3 47 209 46
3 46 209 96
3 11 210 157
3 210 211 157
3 210 50 211
3 157 211 121
3 121 211 120
3 211 212 120
3 211 50 212
3 120 212 118
3 50 210 48
3 48 210 11
3 118 212 49
3 49 212 50
3 98 122 188
3 49 122 118
3 35 188 49
3 49 188 122
3 96 213 214
3 213 215 214
3 213 51 215
3 214 215 54
3 54 215 53
3 53 215 51
3 59 216 56
3 216 60 56
3 59 217 216
3 217 218 216
3 217 68 218
3 216 218 60
3 166 219 174
3 219 220 174
3 219 97 220
3 174 220 173
3 97 221 220
3 221 222 220
3 221 65 222
3 220 222 173
3 65 221 63
3 63 221 97
3 173 222 175
3 222 223 175
3 222 65 223
3 175 223 23
3 23 223 66
3 66 223 65
3 96 214 67
3 67 214 54
3 77 224 74
3 224 78 74
3 77 225 224
3 225 226 224
3 225 208 226
3 224 226 78
3 109 123 133
3 75 123 73
3 76 133 75
3 75 133 123
3 73 227 70
3 70 227 80
3 80 228 79
3 79 228 84
3 84 228 127
3 228 229 127
3 228 80 229
3 127 229 126
3 126 229 124
3 229 227 124
3 229 80 227
3 124 227 73
3 84 128 81
3 81 128 32
3 60 218 79
3 79 218 68
3 96 209 213
3 209 230 213
3 209 47 230
3 213 230 51
3 51 230 85
3 85 230 47
3 45 231 86
3 231 77 86
3 45 207 231
3 207 225 231
3 207 208 225
3 231 225 77
3 68 217 69
3 69 217 59
3 78 226 88
3 88 226 208
3 92 232 88
3 88 232 89
3 89 233 78
3 78 233 76
3 76 233 132
3 233 234 132
3 233 89 234
3 132 234 106
3 106 234 131
3 234 232 131
3 234 89 232
3 131 232 92
3 134 235 153
3 235 38 153
3 235 90 38
3 153 38 39
3 39 38 37
3 38 90 36
3 134 236 235
3 236 237 235
3 236 238 237
3 235 237 90
3 90 237 91
3 91 237 238
3 238 239 91
3 239 92 91
3 92 239 130
3 239 240 130
3 239 238 240
3 130 240 112
3 112 240 136
3 240 236 136
3 240 238 236
3 136 236 134
3 208 206 88
3 88 206 44
3 4 162 93
3 93 162 39
3 97 241 95
3 95 241 5
3 5 241 165
3 241 219 165
3 241 97 219
3 165 219 166

CELL_TYPES 480
5
5
5
5
5
5
5
5
5
5
5
5
5
5
5
5
5
5
5
5
5
5
5
5
5
5
5
5
5
5
5
5
5
5
5
5
5
5
5
5
5
5
5
5
5
5
5
5
5
5
5
5
5
5
5
5
5
5
5
5
5
5
5
5
5
5
5
5
5
5
5
5
5
5
5
5
5
5
5
5
5
5
5
5
5
5
5
5
5
5
5
5
5
5
5
5
5
5
5
5
5
5
5
5
5
5
5
5
5
5
5
5
5
5
5
5
5
5
5
5
5
5
5
5
5
5
5
5
5
5
5
5
5
5
5
5
5
5
5
5
5
5
5
5
5
5
5
5
5
5
5
5
5
5
5
5
5
5
5
5
5
5
5
5
5
5
5
5
5
5
5
5
5
5
5
5
5
5
5
5
5
5
5
5
5
5
5
5
5
5
5
5
5
5
5
5
5
5
5
5
5
5
5
5
5
5
5
5
5
5
5
5
5
5
5
5
5
5
5
5
5
5
5
5
5
5
5
5
5
5
5
5
5
5
5
5
5
5
5
5
5
5
5
5
5
5
5
5
5
5
5
5
5
5
5
5
5
5
5
5
5
5
5
5
5
5
5
5
5
5
5
5
5
5
5
5
5
5
5
5
5
5
5
5
5
5
5
5
5
5
5
5
5
5
5
5
5
5
5
5
5
5
5
5
5
5
5
5
5
5
5
5
5
5
5
5
5
5
5
5
5
5
5
5
5
5
5
5
5
5
5
5
5
5
5
5
5
5
5
5
5
5
5
5
5
5
5
5
5
5
5
5
5
5
5
5
5
5
5
5
5
5
5
5
5
5
5
5
5
5
5
5
5
5
5
5
5
5
5
5
5
5
5
5
5
5
5
5
5
5
5
5
5
5
5
5
5
5
5
5
5
5
5
5
5
5
5
5
5
5
5
5
5
5
5
5
5
5
5
5
5
5
5
5
5
5
5
5
5
5
5
5
5
5
5
5
5
5
5
5
5
5
5
5
5
5
5
5
5
5
5
5
5
5
5
5
5
5
5
5
5
5
5
5
5
5
5
5
5
5
5
5
5
5
5
5
5
5
5
5

CELL_DATA 480
SCALARS cell_data_0 double
LOOKUP_TABLE default
2.6414082952e-07
3.34070167617e-08
6.24592633601e-08
1.1044404896e-06
2.09168204924e-07
2.49921751999e-07
1.71788465038e-07
1.18565230681e-07
8.29328308007e-08
4.45261343799e-08
5.01114445084e-08
5.30130584361e-08
5.48469855036e-08
7.43381405879e-08
1.38644458778e-07
3.02945871795e-08
6.74789301131e-08
1.06835126053e-07
8.83452108744e-08
1.32383914443e-07
1.24479642151e-07
4.10642008651e-10
8.04598890446e-08
1.10333067806e-08
7.68753877573e-08
1.57529821437e-07
5.0068862205e-08
1.11685266865e-07
9.88634667864e-08
5.18208656327e-08
3.04789249429e-08
1.02693623032e-07
1.96948339128e-08
6.1324572298e-08
9.14594764472e-09
7.96661566828e-08
5.46940033321e-08
2.03151081714e-06
7.97830753605e-08
6.25787055915e-08
1.13296912265e-08
1.23776487877e-07
7.20677198007e-07
1.10397069814e-06
1.0383453653e-07
2.26068443096e-07
2.45839410109e-07
1.87162118051e-07
5.79601564155e-08
1.02064393829e-08
1.35918148665e-07
5.3023166562e-08
7.84510528447e-08
2.4560224582e-07
1.58732401145e-07
2.07960013712e-08
9.50350185204e-08
1.95574008636e-08
1.07901062713e-08
5.74501108218e-08
8.88539001609e-08
8.78654419446e-08
1.11144467216e-07
1.63270221884e-07
9.9579137943e-08
3.47852462001e-08
4.81096210116e-08
5.21506967354e-09
2.77635026342e-08
9.82785140459e-08
1.71361505743e-07
1.61623462634e-07
2.73367212329e-07
2.74413023192e-07
6.54752662125e-08
1.43161492523e-07
6.28399665737e-08
4.36581383171e-08
1.33002561177e-07
3.27079144616e-08
6.44321441293e-08
1.11935188077e-08
4.12059453057e-08
1.92828777496e-07
3.11251018104e-08
7.38691232543e-08
1.31258151208e-07
2.22502588172e-07
2.28669915333e-08
1.76144117095e-07
2.31973440695e-07
1.17368032158e-08
1.33210536164e-07
2.10108656954e-06
1.24075530907e-08
1.72682586538e-07
2.00764238316e-07
1.19492223168e-07
1.25079881882e-08
6.0939200335e-08
2.07059195261e-07
9.51518091102e-08
1.21509501341e-07
1.00351728679e-08
9.73263391932e-08
5.48639836839e-08
3.25543420059e-08
2.19336062798e-07
2.04639768226e-07
1.48715253833e-08
1.93234666589e-07
4.57780621797e-08
1.60749250126e-07
5.20177828248e-09
1.60467730038e-07
1.33944832298e-07
1.08556259391e-07
2.17350112071e-09
1.24611328257e-07
8.51843825134e-08
1.15560179622e-07
1.29244695942e-06
2.51610027179e-07
2.11261607905e-07
1.61239326883e-07
1.7326039248e-07
1.80213076904e-07
1.34844884445e-07
3.70638004207e-08
6.06187091827e-09
3.9254774631e-09
7.75475828409e-08
2.90439469714e-08
1.34444228067e-08
1.0614207888e-08
1.8100675782e-08
1.20825621345e-07
1.82588041286e-07
1.81241505813e-07
1.70043450426e-07
1.80660142034e-09
1.25307071229e-07
1.68508811534e-07
1.27909649328e-07
9.404486104e-08
1.66356213252e-07
4.59050552538e-08
1.33717622154e-07
1.28696862915e-07
1.05727363884e-07
2.01079846106e-08
9.64447671025e-08
7.65821964568e-08
2.25100643574e-07
2.38940927675e-07
2.23142300961e-07
1.15270012345e-07
1.44067144823e-07
2.80134357499e-07
2.8754407677e-07
8.83341781977e-08
2.14445386493e-07
2.53493154918e-07
6.52701035834e-08
1.71496860123e-07
2.65491158426e-07
2.3041272566e-07
2.46615354895e-07
5.59247334368e-08
3.25871127774e-07
3.71109238842e-07
2.6503851565e-07
2.73117952285e-07
2.4362247668e-07
2.12778100685e-07
1.94012492129e-07
8.44366194876e-08
3.1453936026e-07
2.48448319616e-07
2.20044403293e-07
3.45674148524e-08
1.86218166866e-08
2.05018022537e-08
2.22889647319e-08
9.42444849748e-08
3.29632370678e-08
5.20731713686e-09
5.23095148677e-08
7.21217661693e-08
1.13399581786e-08
6.12209280369e-08
6.3250100751e-08
7.33940895179e-08
1.72099183315e-08
7.49215893656e-08
3.23594881808e-08
9.72856885732e-08
6.52531870625e-08
1.2332256794e-07
1.40003983064e-07
6.98477116369e-08
8.95873664665e-09
7.21654874682e-08
9.62913559526e-08
4.91328138784e-08
5.66625813417e-08
5.81977101455e-09
5.93739954917e-10
1.38224263318e-07
3.00641491155e-08
4.10870999041e-09
4.61843341984e-08
1.80998734267e-08
6.74368060321e-08
2.44605402902e-08
3.26618294238e-08
3.76254415729e-08
1.19545840468e-08
2.77112901425e-08
8.69779487773e-08
6.74156567685e-08
2.04896043583e-07
1.45674174557e-07
6.67629384328e-08
4.02815841026e-07
3.46539946089e-07
5.92951981867e-08
3.16146237969e-08
8.16007393535e-08
4.2998324517e-08
7.86547893336e-08
7.27331869673e-08
5.99361769019e-08
3.96876098895e-08
9.36042869503e-09
1.2198053365e-07
5.39267370526e-08
1.38483877036e-07
5.67297277823e-08
1.12863835817e-07
7.35667257521e-08
4.05426184997e-08
4.47895246161e-08
3.38501118902e-08
5.68845552067e-08
1.28284621812e-09
7.549155205e-08
5.06965227642e-08
8.23353070317e-08
1.31410712394e-06
3.66086120047e-09
1.80684408788e-08
4.90528405849e-08
9.95042778169e-09
4.71238411717e-08
6.10457756451e-08
1.73554646746e-09
4.05427220576e-09
1.46716857247e-07
7.39703434466e-08
9.6642805882e-08
5.92041627311e-08
5.78477880415e-08
1.21501726636e-07
5.08862704305e-08
1.46210558591e-08
6.3541539124e-08
4.45055553777e-08
1.04477249728e-07
5.3467593777e-08
6.53375375831e-08
9.08741715963e-08
4.22018004276e-07
2.18247691047e-08
1.35026948061e-08
6.5527995217e-09
2.40207777478e-08
4.09305168053e-08
1.23611293365e-07
1.34668625285e-08
5.66241422731e-08
1.3805250795e-07
7.9765575193e-08
7.37681100062e-08
3.85772661124e-08
2.48674164934e-08
1.35118102349e-09
2.33398974053e-08
1.12899395194e-07
7.03109741412e-10
5.13839284392e-08
7.25425661025e-08
9.88423804582e-08
2.55763700152e-08
1.17939855442e-07
3.99725993081e-08
9.38501806645e-09
3.71742897067e-08
3.24378879522e-08
7.96698600376e-09
6.74564078217e-08
1.42158630472e-07
5.59478454504e-08
9.51385533084e-08
1.06678267919e-07
6.02078687068e-08
3.28652981709e-08
1.16391497085e-08
6.32569615763e-08
3.03548985932e-08
5.22232012745e-08
6.10011003919e-08
5.06635469342e-08
2.69713242946e-09
7.6009313084e-08
4.40701932097e-08
7.87162338111e-08
7.54738743508e-09
9.70191256442e-08
1.01484530824e-07
9.01866465318e-08
2.12381858056e-08
1.02468740071e-07
9.64645099885e-08
5.88071632977e-08
1.86034844648e-08
6.6167380204e-09
7.44856831902e-08
2.35010556906e-08
3.86944180748e-08
2.93739110487e-09
2.2657893726e-08
3.79214345244e-09
6.24507216299e-08
7.36101496451e-09
6.64694982135e-08
2.00721740766e-08
2.50407719192e-08
7.59965119751e-08
3.45278726013e-08
1.81141503456e-08
4.94818464641e-08
7.39155133593e-08
6.49024884746e-09
4.76985842969e-08
7.56133909568e-08
1.34226812295e-08
1.02252946644e-07
1.95331721717e-08
7.77193153472e-08
2.90884168283e-08
5.36376671391e-08
3.73514651624e-08
4.53363315169e-08
2.3785559494e-08
2.63665922733e-07
1.18362804001e-08
2.77468978574e-08
2.09630474923e-07
2.1003867689e-08
2.27216207621e-07
2.00323149219e-07
1.80281680679e-07
2.54612156305e-07
6.99457712931e-08
1.62667805786e-08
4.64642806397e-08
8.44036534302e-08
4.41713656427e-08
5.89168824865e-08
1.10916170397e-09
4.92653365862e-08
5.97194017402e-08
1.33944640897e-08
6.27866982593e-08
8.21362958774e-08
5.51829846578e-08
2.4225772646e-09
1.66367601737e-08
4.09334144232e-08
3.22385472221e-08
1.60740915391e-08
4.12240880424e-08
1.97683187167e-08
1.63332056163e-08
4.79981945948e-08
3.22326973466e-08
3.81969256918e-09
5.15784341993e-08
7.21342283299e-08
5.36403912183e-08
5.37014022882e-08
1.01386661686e-07
2.54170851897e-08
2.0458875517e-08
1.31610552425e-08
4.26562286337e-08
1.5377211078e-08
3.63089489043e-08
7.91974408204e-08
2.0420437775e-07
4.16979980355e-09
2.60079805948e-07
3.15535118549e-07
1.16013211895e-07
7.25471760917e-08
6.82671591706e-08
1.84418397862e-07
2.90257670421e-08
1.16820108806e-07
2.86372114853e-08
6.70141038885e-08
3.83966615539e-08
8.43840468129e-08
2.69447425225e-08
8.09433102616e-09
2.08424842155e-07
4.36707886042e-07
3.43370301747e-09
4.04856716538e-08
7.04891613553e-08
1.65760021139e-08
1.03318702856e-07
4.49640684115e-08
4.15589113096e-08
6.55457269551e-08
1.63335765674e-08
2.10431430933e-08
6.96121751704e-08
1.50489817273e-10
2.9887758455e-08
5.05374095987e-08
3.28625305504e-08
5.92799281448e-08
6.75009799912e-09
1.90147467247e-08
1.02686952021e-07
9.15463608382e-08
1.04096921821e-07
2.99477563616e-07
1.46623192649e-07
7.34792053638e-08
3.09943891292e-08
5.17658368325e-08
5.69270273737e-08
8.48977421388e-08
2.61042169634e-08
4.38028356948e-08
3.72301665735e-08
9.34419347971e-08
2.38873764048e-08
1.55999471733e-07
6.4968046428e-07
5.73590715279e-08
5.0253232218e-08
2.00584147298e-08
1.2064324681e-07
1.21581673894e-07
4.47549068332e-08
2.01711201338e-08
1.69823196256e-08
6.9812057466e-09
3.64939156811e-08
5.92552289353e-08
5.49942250269e-08
4.74100083545e-09
4.02599718632e-08
7.18569237371e-08
8.10839197508e-09
7.04655983281e-08
5.27028949141e-09
3.48606635108e-08
9.61735322613e-08
2.78747700984e-07
6.19764233904e-09
1.79303855266e-08
7.16004373439e-08
2.39335142561e-09
3.41238195928e-08
5.46689960864e-08

