# vtk DataFile Version 3.0
File Name: Molecule/sphere_excent/sphere_excent_0-s3.vtk
ASCII
DATASET UNSTRUCTURED_GRID
FIELD FieldData 1
TIME 1 1 double
0.0
POINTS 48 double
0.85065084696 -0.5257306695 3.480788564e-06
0.80892878771 -0.30898344517 -0.49994593859
0.99989563227 -1.6762588757e-06 1.1497337255e-05
0.80892753601 0.30898556113 -0.49994665384
0.52573001385 4.072251869e-08 -0.85065150261
0.85064804554 0.52573597431 -1.3468083125e-05
0.49994570017 0.80892974138 -0.3089825213
0.30898147821 0.49994504452 -0.80893033743
-1.2777202301e-06 0.85065096617 -0.52573078871
0.49994918704 0.80893361568 0.30900347233
-2.6300240279e-06 0.9998947978 7.4867507465e-06
-9.2536174634e-06 0.85048925877 0.52596920729
-0.49994519353 0.80893439054 0.30899903178
-0.4999473989 0.80892843008 -0.30898410082
-0.850651443 0.52573007345 3.1519184063e-07
-0.32247626781 0.5045093894 0.79872786999
-0.80910533667 0.30889987946 0.49978151917
-0.52594393492 0.00041441764915 0.85054880381
-0.30859601498 -0.4997137785 0.80929851532
-0.029524270445 0.0040901177563 0.99821639061
-0.00031988983392 -0.85108834505 0.52506631613
0.30901870131 -0.53011065722 0.78833156824
0.49988588691 -0.80939751863 0.30812385678
0.80855315924 -0.30887898803 0.50049519539
0.30898246169 -0.49994543195 -0.80892980099
-9.5706681691e-08 -5.2248008586e-08 -0.99989140034
-0.30898541212 -0.49994641542 -0.80892795324
-1.1232556574e-07 -0.85065120459 -0.52573043108
-0.52573204041 7.254866432e-07 -0.85065019131
0.80948281288 0.30942976475 0.49889445305
0.54453921318 0.022831000388 0.83693379164
0.32200539112 0.49970525503 0.80243891478
-0.80892980099 -0.3089825511 -0.49994528294
-0.80892920494 0.30898347497 -0.49994561076
-0.99989211559 1.2170147556e-07 -2.5292699775e-06
-0.85065037012 -0.5257319212 1.0433799389e-06
-0.30898350477 0.49994561076 -0.80892908573
-0.49994474649 -0.80893015862 -0.30898213387
-0.49995824695 -0.80891954899 0.30899572372
-8.4222238002e-06 -0.99989134073 -4.9462010793e-05
-0.80892014503 -0.3089825213 0.49997222424
0.49994280934 -0.80892574787 -0.30900210142
0.2741741538 -0.0073091741651 0.96160656214
0.15415629745 0.26768136024 0.95103436708
0.1572881639 -0.26698994637 0.9504597187
0.43653562665 -0.25515383482 0.86265683174
-0.00034511182457 0.52520316839 0.85098463297
-0.16995154321 0.26868376136 0.94811666012

CELLS 92 368
3 0 1 2
3 1 3 2
3 1 4 3
3 2 3 5
3 5 3 6
3 3 7 6
3 3 4 7
3 6 7 8
3 5 6 9
3 6 10 9
3 6 8 10
3 9 10 11
3 11 10 12
3 10 13 12
3 10 8 13
3 12 13 14
3 11 12 15
3 12 16 15
3 12 14 16
3 15 16 17
3 17 18 19
3 18 20 21
3 21 22 23
3 21 20 22
3 23 22 0
3 4 24 25
3 24 26 25
3 24 27 26
3 25 26 28
3 0 2 23
3 2 29 23
3 2 5 29
3 23 29 30
3 5 9 29
3 9 31 29
3 9 11 31
3 29 31 30
3 28 32 33
3 32 34 33
3 32 35 34
3 33 34 14
3 8 36 13
3 36 33 13
3 36 28 33
3 13 33 14
3 35 37 38
3 37 39 38
3 37 27 39
3 38 39 20
3 35 38 40
3 38 18 40
3 38 20 18
3 40 18 17
3 17 16 40
3 16 34 40
3 16 14 34
3 40 34 35
3 28 26 32
3 26 37 32
3 26 27 37
3 32 37 35
3 27 41 39
3 41 22 39
3 41 0 22
3 39 22 20
3 4 1 24
3 1 41 24
3 1 0 41
3 24 41 27
3 4 25 7
3 25 36 7
3 25 28 36
3 7 36 8
3 42 30 43
3 21 44 18
3 18 44 19
3 19 44 42
3 44 45 42
3 44 21 45
3 42 45 30
3 30 45 23
3 45 21 23
3 15 46 11
3 11 46 31
3 15 47 46
3 47 43 46
3 47 19 43
3 46 43 31
3 19 47 17
3 17 47 15
3 31 43 30
3 42 43 19

CELL_TYPES 92
5
5
5
5
5
5
5
5
5
5
5
5
5
5
5
5
5
5
5
5
5
5
5
5
5
5
5
5
5
5
5
5
5
5
5
5
5
5
5
5
5
5
5
5
5
5
5
5
5
5
5
5
5
5
5
5
5
5
5
5
5
5
5
5
5
5
5
5
5
5
5
5
5
5
5
5
5
5
5
5
5
5
5
5
5
5
5
5
5
5
5
5

CELL_DATA 92
SCALARS cell_data_0 double
LOOKUP_TABLE default
9.19826645616e-08
2.82977425529e-07
1.90796504395e-08
2.3576288124e-08
2.2658653249e-07
2.01660102313e-07
9.75834718622e-08
1.34469825643e-07
6.49194431847e-07
2.8790877814e-07
1.97093423556e-07
9.96130414993e-07
1.13880402455e-06
1.06044684787e-06
4.49960268092e-07
6.98246010218e-07
7.61522286052e-06
1.52384749494e-07
9.2151750586e-07
8.97641720564e-06
1.93999440026e-05
2.34598206222e-06
8.35205165421e-06
8.18026648106e-06
1.49730201356e-06
1.09590200252e-08
5.12572706121e-08
9.37958493698e-11
3.12399949048e-08
4.38557844197e-07
2.28332119996e-06
6.92929063623e-07
3.48075846971e-06
1.48621825513e-06
2.29952726179e-07
4.07095092554e-07
9.35497855472e-06
1.19531922037e-07
2.85240547056e-07
5.66036531432e-07
4.95050057261e-07
8.34823499029e-08
1.6711421284e-08
7.13190415254e-09
1.3881288609e-07
5.85970896926e-07
2.84201015278e-07
1.92309241918e-07
1.10579583517e-06
1.09594676335e-06
3.59649027871e-07
1.1674485602e-06
1.48626041341e-05
1.26214352079e-05
1.35177976414e-06
2.0804094759e-06
1.78349545293e-06
3.76425814999e-08
1.24963208523e-10
3.93403575674e-08
1.51671575419e-07
3.06498319912e-07
3.72437993024e-07
2.65006229294e-07
6.37069504348e-07
4.67520361475e-08
1.96588781809e-07
9.49107721747e-08
2.969562286e-08
1.03505095067e-08
3.14087037223e-08
2.85420072001e-08
1.69482136491e-09
2.77519581524e-06
1.05024598978e-06
2.19044209736e-06
2.2777098201e-06
1.59039567577e-06
4.32680644108e-06
1.5459385755e-06
1.79391871952e-06
3.06472729151e-06
2.79328796792e-06
3.10438914647e-06
6.98669039852e-08
2.57169019526e-06
8.15137007473e-07
1.37673912611e-07
4.89247924317e-06
3.78799215919e-06
2.88194491351e-06
1.6219440831e-06

