# vtk DataFile Version 3.0
File Name: Molecule/sphere_excent/sphere_excent_0-s16.vtk
ASCII
DATASET UNSTRUCTURED_GRID
FIELD FieldData 1
TIME 1 1 double
0.0
POINTS 224 double
0.85544329882 -0.51368284225 0.005782912951
0.80607825518 -0.31113511324 -0.5034173131
0.9952968359 -0.0047832210548 -0.097061239183
0.80377477407 0.30868372321 -0.5085978508
0.52502882481 -0.00019406394858 -0.85109066963
0.866335392 0.49540320039 -0.06166710332
0.50028699636 0.80681586266 -0.31473577023
0.30847468972 0.49979141355 -0.80926561356
-0.002498824615 0.84950441122 -0.52767252922
0.014044381678 0.99814778566 -0.058064956218
0.30858337879 -0.49924749136 -0.80957233906
-4.9576028687e-05 -2.1018848201e-05 -0.99989712238
-0.3077634871 -0.49889311194 -0.81029510498
0.0031308289617 -0.84649002552 -0.53261208534
-0.52564811707 -0.00017908154405 -0.85070455074
-0.80847173929 -0.31127637625 -0.49925678968
-0.80807387829 0.30827265978 -0.50205868483
-0.9971293807 0.0058032306843 -0.072034791112
-0.30799025297 0.49772700667 -0.81081932783
-0.51662546396 0.77063256502 -0.3719124198
-0.81618005037 0.57481682301 -0.044221181422
-0.47011816502 -0.80145442486 -0.36947831511
0.48829814792 -0.8006297946 -0.34016227722
0.063658177853 -0.99254864454 -0.081083588302
-0.50089299679 0.024836985394 0.86503756046
-0.46146509051 -0.14843083918 0.8741992116
-0.32669013739 -0.018155731261 0.94471037388
-0.73537611961 0.2105871439 0.64310240746
-0.85525465012 0.30946460366 0.41536086798
-0.86819505692 0.031847640872 0.49089461565
0.28554752469 -0.59447258711 0.75167703629
0.37238922715 -0.71697372198 0.58764564991
0.55859130621 -0.50329166651 0.65753781796
0.066479019821 -0.85598605871 0.51266002655
0.080804131925 -0.71186107397 0.69762295485
-0.18352252245 0.70580524206 0.68206256628
-0.40559324622 0.6943872571 0.59214806557
-0.31453710794 0.54614645243 0.77655792236
-0.087152294815 0.54657971859 0.83272635937
-0.55276542902 0.4831789732 0.67792409658
0.18240183592 -0.46939495206 0.86391496658
0.08119776845 -0.5758677125 0.81276130676
0.3013908565 -0.040287841111 0.95222938061
0.34386068583 -0.24195207655 0.90706878901
0.47336676717 -0.10039777309 0.87510496378
0.36935704947 -0.42872750759 0.82448977232
0.48888128996 -0.29730820656 0.82001852989
0.40851408243 0.10441483557 0.90668797493
0.63555973768 -0.31562191248 0.70365959406
0.16350995004 0.28531235456 0.94433432817
0.2475913465 0.14477077127 0.95800685883
0.33298557997 0.2810677886 0.89993655682
0.51741534472 0.25662592053 0.81628185511
0.081813752651 0.43740087748 0.89536184072
0.082049578428 0.61055999994 0.78680306673
0.24249362946 0.43557614088 0.86656540632
0.6060743928 0.41312715411 0.67887598276
0.41739201546 0.42342406511 0.80393850803
0.56859570742 0.064187966287 0.81989169121
-0.74088257551 0.58222711086 0.33440738916
-0.53942149878 0.80268597603 0.25212565064
0.95998001099 -0.14965978265 0.23593893647
0.78685069084 -0.43769386411 0.42945548892
0.96131968498 0.1641279161 0.22165553272
0.88107544184 0.022519379854 0.47256559134
0.83855605125 0.31997519732 0.44096595049
0.82567924261 -0.27554365993 0.48581427336
-0.092730671167 0.17475108802 0.98023563623
0.072739027441 0.14706596732 0.98638427258
0.019915794954 0.27948305011 0.95989155769
-0.71664172411 0.43737953901 0.54325217009
-0.6005756855 0.62738466263 0.49566292763
0.75542926788 -0.061212986708 0.65170031786
-0.10528983176 -0.74699324369 0.65617382526
-0.11248748004 -0.63704270124 0.76205950975
0.31073302031 0.94054931402 0.13428173959
0.68544137478 0.71714323759 0.12408973277
0.49161610007 0.80444079638 0.33347764611
0.27319958806 0.87025171518 0.4085097909
0.023365288973 0.96058917046 0.27717205882
-0.8468862772 -0.53072267771 -0.029766386375
-0.95805162191 -0.2861135304 -0.013729996979
-0.50105798244 -0.81620019674 0.2877830267
-0.2814861536 -0.94739115238 0.1514814049
-0.2292829603 -0.89491838217 0.38166981936
0.033428248018 -0.96594166756 0.25484073162
-0.95677757263 -0.17634780705 0.22974693775
-0.86624795198 -0.45882186294 0.19515153766
0.40030387044 -0.81808769703 0.40866005421
0.44545605779 -0.87532955408 0.17681375146
-0.38698637486 0.14561887085 0.91051143408
-0.50108098984 0.24452641606 0.82974368334
-0.96338135004 0.15329533815 0.21860595047
-0.18669132888 0.27291187644 0.94374626875
-0.29427194595 0.2875456214 0.91134101152
-0.25398901105 0.1627946198 0.95338743925
0.0326570943 0.83605116606 0.54629784822
-0.22003665566 0.87715452909 0.42310896516
-0.27684995532 0.95236468315 0.12749908864
-0.27286618948 0.94534063339 -0.17890128493
-0.52986520529 0.84730994701 -0.039878483862
0.86224859953 0.45235404372 0.22762537003
0.74212294817 0.56293457747 0.36393788457
-0.95529550314 0.29445457458 -0.022686358541
-0.69721072912 -0.69658333063 -0.16908314824
-0.70380580425 -0.6944116354 0.14985497296
-0.54598724842 -0.8376737237 0.010253552347
-0.88807266951 0.41724854708 0.19280655682
-0.17330886424 0.4147695303 0.89301455021
-0.045958742499 0.40282565355 0.91403281689
-0.19006344676 -0.82099747658 0.53826081753
-0.29876288772 -0.74214929342 0.59992426634
-0.23019266129 -0.67532873154 0.70062208176
-0.43180388212 -0.65053850412 0.62463891506
-0.40565675497 -0.78044247627 0.47575524449
-0.088689811528 0.3062273562 0.94778680801
-0.055025365204 -0.22044274211 0.97376829386
-0.01156630367 -0.079898878932 0.9966519475
-0.1553992182 -0.12703835964 0.97922253609
-0.61934548616 0.10135927051 0.7785551548
-0.61623007059 -0.071629248559 0.78430467844
-0.72649025917 0.033321108669 0.68560910225
-0.73353046179 -0.10987035185 0.67060250044
-0.84018427134 -0.10777412355 0.53136986494
0.49063378572 0.55816406012 0.66895020008
0.57766914368 0.64563047886 0.49953094125
0.44618552923 0.7186716795 0.53249776363
0.67250210047 0.51383525133 0.53252917528
-0.30878293514 -0.5893471241 0.74593144655
-0.58930248022 -0.65669375658 0.4703785181
0.61652600765 -0.091642871499 0.78193306923
0.58210653067 -0.20270484686 0.78744274378
0.6948300004 -0.19712302089 0.69047385454
0.71059709787 -0.40265229344 0.57665407658
0.28776890039 0.54032999277 0.79012560844
-0.061188660562 0.052063968033 0.99674111605
-0.13467434049 -0.040970511734 0.98937541246
-0.18177615106 0.065142676234 0.98119473457
0.63093924522 0.69272565842 0.34913790226
-0.55557018518 -0.52751016617 0.64222949743
0.072843588889 -0.22356107831 0.9718183279
0.10889367014 -0.065240778029 0.99173426628
-0.33080351353 -0.20147284865 0.9218556881
-0.42386543751 0.40545839071 0.80964690447
0.55080455542 -0.67612028122 0.48923692107
0.58795773983 -0.74371105433 0.31688606739
0.69943809509 -0.59640622139 0.38748410344
0.67967247963 -0.72775173187 0.092098653316
-0.42363789678 -0.2786257565 0.86181026697
-0.30316147208 -0.31573230028 0.89879184961
-0.39881521463 -0.37883391976 0.8349634409
-0.36393734813 -0.46139621735 0.80909663439
-0.48252952099 -0.44970610738 0.75156462193
-0.42954283953 -0.54504644871 0.71988683939
-0.51177579165 -0.3467912972 0.78599458933
-0.60250866413 -0.41207939386 0.68346244097
-0.61692142487 -0.30805161595 0.72421461344
-0.5519105196 -0.23292058706 0.80049902201
-0.68174463511 -0.45804923773 0.57005506754
-0.71820670366 -0.33559128642 0.60941189528
-0.81282675266 -0.37285023928 0.44604077935
-0.79397416115 -0.22428651154 0.56494671106
-0.6774341464 -0.21430236101 0.70362752676
0.1261305362 -0.34978234768 0.92818087339
0.0049031060189 -0.48222783208 0.87554299831
0.20147925615 -0.2497998029 0.9471090436
0.24949280918 -0.35113289952 0.90249043703
0.050590407103 0.026384787634 0.99833726883
0.16469436884 0.040916591883 0.98548656702
-0.39533287287 0.29587963223 0.86959338188
-0.3168078661 0.40357041359 0.85834616423
-0.21969620883 -0.94922751188 -0.22236345708
-0.64521712065 0.34269919991 0.68256300688
-0.54287934303 0.35715165734 0.76011651754
-0.61238461733 0.2438416034 0.75196701288
-0.098922774196 -0.42326706648 0.90053278208
-0.0086441310123 -0.33585098386 0.94185805321
-0.17961448431 -0.20735412836 0.96158194542
-0.12618531287 -0.31419801712 0.9409724474
-0.025033127517 -0.58885425329 0.80769258738
-0.20819851756 -0.59175282717 0.77876794338
-0.30030712485 -0.5213958025 0.79851657152
-0.10034888238 -0.52749407291 0.84348243475
-0.19140353799 -0.51643133163 0.8346773386
-0.22303961217 -0.44726511836 0.86612588167
-0.12865406275 -0.99145656824 0.025217583403
-0.37425819039 -0.92225062847 -0.096180804074
0.19802267849 -0.065834738314 0.97799426317
0.24119590223 -0.15117861331 0.95851236582
0.16349385679 -0.15493126214 0.97427529097
-0.22865317762 -0.27902507782 0.93267577887
-0.20033323765 -0.36825108528 0.90779924393
-0.30645820498 -0.40322956443 0.86216527224
0.49686461687 -0.86475223303 -0.073376603425
0.70331656933 -0.69066560268 -0.16794535518
0.64821505547 -0.54454469681 0.53210431337
0.73023867607 0.36796960235 0.57549166679
0.78298974037 0.24032124877 0.57276940346
0.6677235961 0.29205340147 0.68411064148
0.7160897851 0.18761013448 0.67237442732
0.64871025085 0.13403879106 0.7487796545
-0.076049238443 0.782109797 0.61684793234
-0.31833228469 0.79475516081 0.5154542923
-0.3875669539 0.85393059254 0.34688150883
-0.47191825509 0.76791352034 0.43291819096
0.064575023949 0.72891771793 0.68140053749
-0.037472464144 0.67412525415 0.73757129908
0.66866821051 0.011455344036 0.74333894253
0.74310964346 0.072408512235 0.66405439377
0.18153327703 0.74721544981 0.63915318251
0.19989706576 0.63416999578 0.74654150009
0.31848233938 0.63598537445 0.7024499774
0.17134863138 0.53367501497 0.82813870907
0.16458874941 0.85196763277 0.49684739113
0.35622110963 0.80066817999 0.48163595796
0.29065293074 0.76213014126 0.57831960917
-0.74662238359 -0.57012623549 0.34192490578
-0.84652477503 -0.41457220912 0.33154308796
-0.88618457317 -0.20982728899 0.41235423088
-0.92560559511 -0.078964523971 0.3697347343
-0.72003060579 -0.52047753334 0.45866113901
-0.24930560589 -0.1185663119 0.96115648746
-0.22843037546 -0.037429254502 0.97282904387
0.37816020846 0.68526506424 0.62225502729

CELLS 444 1776
3 0 1 2
3 1 3 2
3 1 4 3
3 2 3 5
3 5 3 6
3 3 7 6
3 3 4 7
3 6 7 8
3 6 8 9
3 4 10 11
3 10 12 11
3 10 13 12
3 11 12 14
3 14 15 16
3 15 17 16
3 8 18 19
3 18 16 19
3 18 14 16
3 19 16 20
3 14 12 15
3 12 21 15
3 12 13 21
3 13 22 23
3 4 1 10
3 1 22 10
3 10 22 13
3 4 11 7
3 11 18 7
3 11 14 18
3 7 18 8
3 24 25 26
3 27 28 29
3 30 31 32
3 33 31 34
3 35 36 37
3 38 35 37
3 37 36 39
3 30 40 41
3 42 43 44
3 40 30 45
3 43 45 46
3 46 44 43
3 42 44 47
3 46 45 32
3 32 45 30
3 32 48 46
3 49 50 51
3 50 47 51
3 50 42 47
3 51 47 52
3 38 53 54
3 53 49 55
3 56 57 52
3 52 47 58
3 58 47 44
3 49 51 55
3 51 57 55
3 51 52 57
3 20 59 60
3 2 61 0
3 0 61 62
3 2 63 61
3 63 64 61
3 63 65 64
3 61 64 66
3 5 63 2
3 67 68 69
3 69 68 49
3 28 70 59
3 70 71 59
3 70 39 71
3 59 71 60
3 70 28 27
3 66 64 72
3 36 71 39
3 41 34 30
3 30 34 31
3 33 34 73
3 34 74 73
3 53 69 49
3 49 68 50
3 9 75 6
3 6 75 76
3 77 75 78
3 75 79 78
3 75 9 79
3 80 81 15
3 15 81 17
3 82 83 84
3 83 85 84
3 84 85 33
3 86 81 87
3 86 17 81
3 87 81 80
3 33 85 88
3 89 85 23
3 26 90 24
3 24 90 91
3 17 86 92
3 93 94 95
3 94 90 95
3 95 90 26
3 96 79 97
3 97 79 98
3 93 95 67
3 77 76 75
3 6 76 5
3 9 99 98
3 99 100 98
3 99 19 100
3 98 100 60
3 19 99 8
3 8 99 9
3 60 100 20
3 100 19 20
3 5 76 101
3 76 102 101
3 101 102 65
3 17 103 16
3 16 103 20
3 80 104 105
3 104 106 105
3 104 21 106
3 105 106 82
3 28 107 92
3 107 103 92
3 107 20 103
3 92 103 17
3 21 104 15
3 15 104 80
3 93 108 94
3 37 108 38
3 28 92 29
3 9 98 79
3 38 109 53
3 53 109 69
3 20 107 59
3 59 107 28
3 5 101 63
3 63 101 65
3 110 73 111
3 112 111 73
3 111 112 113
3 84 110 114
3 69 115 67
3 67 115 93
3 74 112 73
3 93 115 108
3 115 109 108
3 115 69 109
3 108 109 38
3 82 106 83
3 80 105 87
3 73 110 33
3 110 84 33
3 116 117 118
3 91 119 24
3 24 119 120
3 119 121 120
3 119 27 121
3 120 121 122
3 122 121 123
3 29 121 27
3 24 120 25
3 124 125 126
3 125 124 127
3 126 125 77
3 128 113 112
3 82 129 105
3 44 130 58
3 44 131 130
3 131 132 130
3 131 48 132
3 130 132 72
3 48 131 46
3 46 131 44
3 72 132 66
3 66 132 133
3 56 124 57
3 57 124 134
3 67 135 68
3 117 135 136
3 135 137 136
3 135 67 137
3 26 137 95
3 95 137 67
3 77 138 76
3 76 138 102
3 102 127 65
3 56 127 124
3 138 125 102
3 127 102 125
3 125 138 77
3 111 114 110
3 84 114 82
3 82 114 129
3 114 113 129
3 114 111 113
3 129 113 139
3 140 141 117
3 25 142 26
3 39 143 37
3 31 144 32
3 31 88 144
3 88 145 144
3 88 89 145
3 144 145 146
3 89 88 85
3 88 31 33
3 0 146 147
3 25 148 142
3 148 149 142
3 148 150 149
3 151 152 153
3 151 150 152
3 153 152 139
3 150 154 152
3 154 155 152
3 154 156 155
3 152 155 139
3 150 148 154
3 148 157 154
3 148 25 157
3 154 157 156
3 139 155 158
3 155 159 158
3 155 156 159
3 158 159 160
3 160 159 161
3 159 162 161
3 159 156 162
3 161 162 122
3 122 162 120
3 120 162 157
3 40 163 164
3 140 163 165
3 163 166 165
3 163 40 166
3 165 166 43
3 43 166 45
3 45 166 40
3 117 141 167
3 141 168 167
3 167 168 68
3 68 168 50
3 50 168 42
3 91 169 143
3 169 170 143
3 169 94 170
3 143 170 37
3 37 170 108
3 170 94 108
3 94 169 90
3 169 91 90
3 156 157 162
3 120 157 25
3 128 153 113
3 113 153 139
3 139 158 129
3 117 167 135
3 135 167 68
3 23 171 13
3 13 171 21
3 117 116 140
3 39 172 173
3 172 174 173
3 172 27 174
3 173 174 91
3 175 164 176
3 40 164 41
3 177 178 116
3 178 176 116
3 178 175 176
3 116 176 140
3 27 172 70
3 70 172 39
3 41 179 34
3 34 179 74
3 128 180 181
3 180 182 183
3 180 74 182
3 184 183 175
3 175 182 164
3 182 179 164
3 182 74 179
3 164 179 41
3 23 185 171
3 185 186 171
3 185 83 186
3 171 186 21
3 83 185 85
3 185 23 85
3 74 180 112
3 112 180 128
3 21 186 106
3 106 186 83
3 91 174 119
3 119 174 27
3 42 187 188
3 187 189 188
3 187 141 189
3 188 189 165
3 39 173 143
3 143 173 91
3 149 190 142
3 142 190 177
3 177 190 178
3 190 191 178
3 190 149 191
3 178 191 175
3 175 191 184
3 191 192 184
3 191 149 192
3 184 192 181
3 128 181 153
3 181 151 153
3 140 176 163
3 163 176 164
3 165 189 140
3 140 189 141
3 42 188 43
3 43 188 165
3 151 192 150
3 150 192 149
3 182 175 183
3 184 181 183
3 151 181 192
3 183 181 180
3 141 187 168
3 187 42 168
3 22 193 23
3 193 89 23
3 22 194 193
3 194 147 193
3 194 0 147
3 193 147 89
3 0 194 1
3 1 194 22
3 32 195 133
3 195 62 133
3 195 146 62
3 133 62 66
3 66 62 61
3 62 146 0
3 65 196 197
3 196 198 197
3 196 56 198
3 197 198 199
3 199 198 200
3 52 198 56
3 58 200 52
3 52 200 198
3 35 201 202
3 97 201 96
3 97 202 201
3 202 36 35
3 97 203 202
3 203 204 202
3 203 60 204
3 202 204 36
3 96 201 205
3 201 206 205
3 201 35 206
3 205 206 54
3 58 207 200
3 207 208 200
3 207 72 208
3 200 208 199
3 65 197 64
3 64 197 208
3 32 133 48
3 48 133 132
3 54 206 38
3 38 206 35
3 96 205 209
3 205 210 209
3 205 54 210
3 209 210 211
3 55 212 53
3 53 212 54
3 54 212 210
3 212 134 210
3 212 55 134
3 210 134 211
3 211 134 124
3 57 134 55
3 199 208 197
3 64 208 72
3 36 204 71
3 71 204 60
3 96 213 79
3 79 213 78
3 78 213 214
3 213 209 215
3 213 96 209
3 215 209 211
3 129 216 105
3 105 216 87
3 87 217 86
3 86 217 218
3 29 219 123
3 219 218 123
3 219 86 218
3 123 218 161
3 86 219 92
3 92 219 29
3 60 203 98
3 98 203 97
3 160 217 220
3 217 216 220
3 217 87 216
3 220 216 129
3 177 118 221
3 118 222 221
3 118 136 222
3 221 222 26
3 126 223 124
3 124 223 211
3 72 207 130
3 130 207 58
3 26 222 137
3 137 222 136
3 211 223 215
3 214 215 126
3 223 126 215
3 215 214 213
3 78 214 77
3 214 126 77
3 56 196 127
3 127 196 65
3 177 221 142
3 142 221 26
3 161 218 160
3 160 218 217
3 29 123 121
3 123 161 122
3 146 195 144
3 144 195 32
3 89 147 145
3 145 147 146
3 160 220 158
3 158 220 129
3 136 118 117
3 116 118 177

CELL_TYPES 444
5
5
5
5
5
5
5
5
5
5
5
5
5
5
5
5
5
5
5
5
5
5
5
5
5
5
5
5
5
5
5
5
5
5
5
5
5
5
5
5
5
5
5
5
5
5
5
5
5
5
5
5
5
5
5
5
5
5
5
5
5
5
5
5
5
5
5
5
5
5
5
5
5
5
5
5
5
5
5
5
5
5
5
5
5
5
5
5
5
5
5
5
5
5
5
5
5
5
5
5
5
5
5
5
5
5
5
5
5
5
5
5
5
5
5
5
5
5
5
5
5
5
5
5
5
5
5
5
5
5
5
5
5
5
5
5
5
5
5
5
5
5
5
5
5
5
5
5
5
5
5
5
5
5
5
5
5
5
5
5
5
5
5
5
5
5
5
5
5
5
5
5
5
5
5
5
5
5
5
5
5
5
5
5
5
5
5
5
5
5
5
5
5
5
5
5
5
5
5
5
5
5
5
5
5
5
5
5
5
5
5
5
5
5
5
5
5
5
5
5
5
5
5
5
5
5
5
5
5
5
5
5
5
5
5
5
5
5
5
5
5
5
5
5
5
5
5
5
5
5
5
5
5
5
5
5
5
5
5
5
5
5
5
5
5
5
5
5
5
5
5
5
5
5
5
5
5
5
5
5
5
5
5
5
5
5
5
5
5
5
5
5
5
5
5
5
5
5
5
5
5
5
5
5
5
5
5
5
5
5
5
5
5
5
5
5
5
5
5
5
5
5
5
5
5
5
5
5
5
5
5
5
5
5
5
5
5
5
5
5
5
5
5
5
5
5
5
5
5
5
5
5
5
5
5
5
5
5
5
5
5
5
5
5
5
5
5
5
5
5
5
5
5
5
5
5
5
5
5
5
5
5
5
5
5
5
5
5
5
5
5
5
5
5
5
5
5
5
5
5
5
5
5
5
5
5
5
5
5
5
5
5
5
5
5
5
5
5
5
5
5
5
5
5
5
5
5
5
5
5
5
5
5
5
5
5
5
5
5
5
5
5
5
5

CELL_DATA 444
SCALARS cell_data_0 double
LOOKUP_TABLE default
2.96622482544e-08
1.08117038995e-07
5.91944077286e-09
5.45137871326e-08
1.03074861343e-07
2.22029848685e-07
1.1390302429e-07
1.56710595848e-07
2.41793139409e-07
2.29195966734e-08
5.52870862266e-08
1.00602205074e-08
3.56523141155e-08
1.69436606036e-07
2.38198060386e-07
7.98228304525e-08
8.36031601259e-08
3.28003780708e-08
1.91981901668e-07
4.72359962724e-08
3.26269657224e-08
5.87847556562e-08
2.10689774459e-08
5.20634332214e-08
2.30772150161e-07
1.16780384066e-07
2.04960738556e-08
3.84759733189e-08
3.33333915485e-08
2.28870981622e-08
1.8111028092e-07
1.71083971877e-07
2.04729390058e-07
4.62052590652e-08
2.39783266364e-07
7.88819670198e-08
1.31881637228e-07
2.58831912635e-08
1.43702230444e-07
1.21847488204e-07
2.91714389406e-07
1.6246820803e-07
1.68623239195e-07
2.56393891603e-07
7.88199583955e-08
5.06634820889e-08
1.02264361457e-07
1.71717444583e-07
1.44594018654e-07
2.67312335357e-07
3.87048730224e-07
1.9318813065e-07
1.58304648266e-07
1.06279086561e-07
1.44858032589e-07
5.85407217732e-08
6.56822590974e-08
3.18934198734e-07
7.7610040646e-08
9.51440638962e-09
5.97907289064e-08
2.92633415825e-07
3.30035109649e-08
1.25370481289e-07
2.59620034653e-07
2.33952410968e-07
1.72125130823e-07
6.20767819705e-08
1.09713323975e-07
7.22198374543e-08
1.50200426818e-07
7.17340072921e-08
1.85904478487e-07
2.12025552344e-07
1.36273058466e-07
7.58846310837e-08
4.9805879093e-08
2.34401858104e-07
8.81928613768e-08
2.98868488207e-08
1.68275265227e-07
2.56423878261e-07
2.96210154366e-07
3.45940766352e-08
3.11000905673e-08
1.13458140449e-08
7.27161467443e-08
1.17583580487e-07
5.10143541489e-08
3.9368216206e-08
1.02905391158e-07
5.11208553589e-08
1.62558411901e-07
7.52967025256e-08
1.15767790814e-08
1.94962978256e-07
1.57199496154e-07
2.25729168383e-07
3.81497245276e-08
7.77017555352e-08
3.25992164098e-08
9.57272451088e-08
7.22348951906e-08
1.00717082807e-07
8.95382593148e-08
4.54898088894e-08
1.07338791596e-07
1.18391323953e-08
1.05097571476e-09
3.95122060614e-08
1.00008334481e-07
7.57303416506e-08
9.7958396076e-08
1.77020749511e-07
2.8603644989e-08
1.35516978402e-07
7.11676424196e-08
9.23832225981e-08
4.42606372575e-08
1.221176941e-07
1.32504359207e-08
1.80963886427e-08
1.74401692855e-08
8.45836322891e-09
1.08498749323e-07
5.84088750592e-08
7.9117796706e-08
1.5128373516e-07
6.59946128226e-08
5.30897089821e-08
3.21350912641e-08
3.69458226444e-08
1.54386299702e-07
4.85659398068e-08
7.31631602125e-08
3.01605272351e-08
1.1506878133e-07
8.37145911926e-08
4.95255295452e-08
4.29729994783e-08
2.5598167638e-08
1.91628546198e-08
1.64494679464e-08
4.91816102897e-08
3.12491970859e-08
4.13782026733e-08
4.87550112786e-08
4.61912156964e-08
3.77953600583e-08
5.90749605272e-08
1.02988693478e-08
7.2432296396e-10
2.04836545221e-08
5.45088278141e-08
6.66994551333e-08
1.6309231363e-07
1.83384984702e-07
2.06041064493e-07
5.33587156577e-08
1.19389369681e-07
9.34929197457e-08
1.33341386539e-07
7.09530855862e-08
4.85678270609e-08
8.25648866896e-08
2.79443897181e-10
2.5061344023e-08
6.10117059718e-08
2.22641873567e-07
1.24320197076e-07
1.52010616766e-07
2.55970061874e-08
8.1324200766e-08
9.3728793404e-08
4.82554595997e-08
9.45247341638e-08
1.99848664341e-07
2.883130102e-08
1.17855813003e-08
1.43632651342e-07
1.67107981186e-07
7.25206464308e-08
1.6013480944e-08
6.33885749551e-08
2.25272581785e-07
5.22026494323e-08
3.50411225408e-08
6.33834268665e-08
2.46271851796e-08
3.25965828008e-08
1.35561318614e-08
4.6108724291e-08
3.84704097127e-08
7.09513011167e-09
8.1319506773e-08
1.08859935294e-07
4.1513704352e-08
7.30731151398e-08
8.53769589472e-08
1.77681071374e-07
4.29290200358e-09
4.39237926615e-09
1.28780100659e-07
1.98138229798e-07
5.73771797849e-08
1.3573200389e-07
7.64499660105e-09
5.35960653885e-08
1.0210523524e-07
3.94462526347e-08
6.40635763949e-08
1.27461558403e-08
4.94024696867e-08
4.34275066435e-08
6.03149389303e-08
3.32117398525e-08
4.81024020237e-08
8.14492104226e-09
3.25922539409e-08
4.61438798653e-08
4.82597493721e-08
5.42689165302e-08
5.23470779186e-08
1.59567564036e-08
1.16764334575e-08
3.78994012589e-08
3.56002250784e-08
4.36180150578e-08
4.22441144095e-08
3.78832096329e-08
3.18315494988e-08
2.65416398126e-08
3.45591711758e-08
8.56388641873e-08
9.24854726272e-08
9.95037876225e-09
2.65861331686e-08
6.97535711096e-08
2.70388602775e-08
7.58918026532e-08
7.73441897706e-09
4.46375051472e-08
1.52518423509e-08
4.02768873001e-09
3.6830235624e-08
1.96351594707e-07
3.41059910422e-08
1.79903920211e-09
1.07107134259e-08
5.58919902335e-08
1.64083500023e-07
4.53916903735e-09
6.13617060678e-08
1.63872029048e-08
4.1008068639e-09
5.04899366316e-08
3.97145062143e-08
2.97398248863e-10
2.45461426653e-09
2.70571790757e-08
6.47874457884e-08
9.05603643719e-08
1.53026450615e-08
4.87109145167e-08
6.59903678927e-09
6.33074516549e-09
4.54387267054e-09
2.85857629914e-08
3.22580575824e-08
2.62931137896e-08
7.39041267869e-08
6.80700405466e-10
4.53336532847e-08
6.64948128562e-09
1.06430575411e-07
1.11759973056e-07
2.24618244518e-08
3.37440855049e-08
8.6644015978e-09
2.31700809051e-08
5.86525588053e-08
5.37177337483e-08
5.10074544933e-08
2.94586596151e-08
2.585354195e-08
8.31235365101e-08
9.55873034991e-09
1.97062712739e-08
4.86257764032e-08
3.73075773099e-08
3.8965477431e-08
6.69906645633e-08
5.98539641699e-09
3.04226360657e-08
3.50956681538e-09
1.40474550046e-08
1.01594058933e-07
1.52247066147e-08
3.13415380791e-08
1.25381455464e-08
1.51490167884e-08
1.81683945774e-10
1.15929100269e-07
8.29265426965e-08
5.99028118666e-08
5.32825302325e-08
2.69348464785e-08
1.88689306716e-09
4.20812330548e-09
3.09189342484e-08
3.67771790491e-08
4.45632459322e-08
3.62398600819e-08
4.86915170398e-08
2.46681002284e-08
4.31039019957e-08
7.47865947738e-08
2.15307510463e-07
3.7077045325e-08
1.05507372007e-08
2.22799061658e-07
9.07942112731e-08
2.53736384158e-08
8.62447631423e-09
4.32407763903e-08
4.61852591843e-08
3.9988398895e-09
2.54584484931e-08
1.06036201707e-08
5.1601425792e-08
1.01309691791e-09
2.4974860736e-08
9.63429203035e-08
4.33177783459e-08
1.37825011828e-07
6.25303150825e-08
1.38827711159e-07
2.29886092385e-08
7.51820313368e-08
4.4954577804e-08
2.85841286191e-08
1.3770317941e-07
4.42491295914e-08
1.39219692779e-07
9.76891808651e-08
1.61411115456e-08
7.3711420479e-08
2.91445405528e-08
5.11039930286e-08
2.97657047776e-07
3.87780969346e-08
1.98207174844e-08
6.74237399576e-08
2.11926659243e-08
5.35104973696e-08
1.65598463164e-07
2.21396796312e-10
8.78569472985e-09
4.78579353456e-08
1.16646338304e-08
7.32906272546e-08
2.7149020585e-08
1.20102462132e-07
5.87198945771e-08
8.30689146846e-08
3.56853725501e-08
4.53465035624e-08
2.53688799206e-08
3.16744485343e-08
1.03662217357e-08
3.9214734952e-08
7.31247128483e-08
1.3578096154e-08
1.94504525727e-07
8.14875126925e-09
1.24055274636e-08
6.25037262128e-09
2.25031763947e-08
1.9074055685e-08
1.47779462712e-07
3.70439339966e-08
1.68277347132e-08
5.71158467564e-09
1.61540443504e-10
9.57525511202e-08
1.75092083543e-08
2.8638840446e-08
1.67393899127e-07
8.89805253223e-08
4.82247428835e-09
6.93272236314e-09
5.19758785862e-09
1.93439850281e-08
3.70794635183e-08
4.0118774337e-08
6.82816096857e-09
4.4850564453e-08
1.3735739222e-08
1.73413371305e-08
2.65553627527e-08
2.85801264701e-08
1.66640799859e-09
3.28826602416e-08
2.34289818381e-08
4.77743812325e-08
2.50645121629e-08
4.41604502276e-08
6.82933490294e-08
8.52182531799e-09
1.17860268649e-08
2.3245501798e-08
8.94805830658e-10
1.38215652971e-08
3.80012597549e-09
4.35538779979e-09
6.56143066485e-08
1.35339275636e-09
8.68894826612e-09
8.95687647366e-09
8.23515832913e-09
1.85046789849e-08
2.1750814083e-08
2.37271027832e-08
1.27868243344e-08
2.27195922504e-08
1.09707655468e-08
3.0661390629e-08
2.6012837479e-08
1.02173437494e-07
6.27892797187e-08
4.49347148094e-08
7.24570948946e-08
3.48342965037e-08
2.81604915059e-08
1.42188161047e-08
4.8185183649e-08
8.2585699523e-09
6.28815772681e-09
4.79680178759e-08
1.55990460336e-07
2.22906989633e-08
3.4673982236e-08
1.34189847711e-08
5.61314079436e-08

