# vtk DataFile Version 3.0
File Name: Molecule/sphere_excent/sphere_excent_0-s2.vtk
ASCII
DATASET UNSTRUCTURED_GRID
FIELD FieldData 1
TIME 1 1 double
0.0
POINTS 51 double
0.85065078735 -0.52573108673 -6.0856786277e-09
0.80892920494 -0.30898347497 -0.49994575977
0.99989145994 -1.5749668236e-08 7.970304523e-07
0.80892878771 0.30898588896 -0.49994575977
0.52573108673 3.2096667546e-09 -0.85065078735
0.85065078735 0.52573114634 1.0259671335e-08
0.49993854761 0.80894392729 -0.30898568034
0.30897447467 0.49996179342 -0.80892807245
-0.0001906430989 0.85077828169 -0.52551621199
0.49992883205 0.80894935131 0.30899494886
0.01680450514 0.99859917164 0.00055357912788
-0.00047463417286 0.85069710016 0.52557843924
-0.2947024107 0.49452805519 0.81612116098
0.30921462178 0.49993777275 0.80889576674
0.00014004213153 -0.00018973645638 0.99992281199
-0.52581721544 0.00029649908538 0.85059219599
0.52573108673 -1.1605503225e-08 0.85065078735
-0.30899357796 -0.49993547797 0.80893731117
0.30898740888 -0.49994775653 0.8089274168
9.9467705184e-09 -0.85065078735 0.52573102713
0.80892920494 -0.30898341537 0.49994570017
0.49994525313 -0.8089299798 0.30898210406
0.30898278952 -0.49994540215 -0.80892962217
-8.2975753912e-07 1.3886236729e-06 -0.99989205599
-0.30898404121 -0.4999460876 -0.80892807245
-1.3162987145e-08 -0.85065078735 -0.52573108673
-0.52573114634 -1.7420433984e-09 -0.85065078735
0.80893170834 0.30898302794 0.49994453788
-0.80894011259 -0.30897504091 -0.49994465709
-0.808996737 0.30902245641 -0.49978652596
-0.99987852573 0.00016942391812 -4.7574107157e-05
-0.85065078735 -0.52573108673 1.8334246121e-08
-0.8560757041 0.51316130161 -0.009840708226
-0.30879932642 0.49977812171 -0.80918717384
-0.49521836638 0.80259692669 -0.32780057192
-0.49994465709 -0.80892980099 -0.30898180604
-0.49994713068 -0.8089287281 0.30898436904
7.6928927228e-07 -0.99989134073 4.1885151347e-08
-0.80885732174 -0.30933299661 0.4999820292
-0.81255358458 0.28913006186 0.50300556421
0.49994561076 -0.80892908573 -0.30898347497
-0.26262244582 0.95138174295 0.16120661795
-0.49741184711 0.80994641781 0.31058779359
-0.26302674413 0.9511039257 -0.16193605959
-0.52283549309 0.85248023272 -0.000604428933
-0.70414102077 0.69218301773 0.15862375498
-0.70369535685 0.69245105982 -0.15900145471
-0.42585471272 0.68726366758 0.5885592103
-0.68674266338 0.58732694387 0.42838284373
-0.58761787415 0.42576643825 0.68806642294
-0.86278128624 0.43504741788 0.25748687983

CELLS 98 392
3 0 1 2
3 1 3 2
3 1 4 3
3 2 3 5
3 5 3 6
3 3 7 6
3 3 4 7
3 6 7 8
3 5 6 9
3 6 10 9
3 6 8 10
3 9 10 11
3 11 12 13
3 12 14 13
3 12 15 14
3 13 14 16
3 15 17 14
3 17 18 14
3 17 19 18
3 14 18 16
3 16 18 20
3 18 21 20
3 18 19 21
3 20 21 0
3 4 22 23
3 22 24 23
3 22 25 24
3 23 24 26
3 0 2 20
3 2 27 20
3 2 5 27
3 20 27 16
3 5 9 27
3 9 13 27
3 9 11 13
3 27 13 16
3 26 28 29
3 28 30 29
3 28 31 30
3 29 30 32
3 8 33 34
3 33 29 34
3 33 26 29
3 31 35 36
3 35 37 36
3 35 25 37
3 36 37 19
3 31 36 38
3 36 17 38
3 36 19 17
3 38 17 15
3 15 39 38
3 39 30 38
3 38 30 31
3 26 24 28
3 24 35 28
3 24 25 35
3 28 35 31
3 25 40 37
3 40 21 37
3 40 0 21
3 37 21 19
3 4 1 22
3 1 40 22
3 1 0 40
3 22 40 25
3 4 23 7
3 23 33 7
3 23 26 33
3 7 33 8
3 10 41 11
3 11 41 42
3 10 43 41
3 43 44 41
3 43 34 44
3 41 44 42
3 34 43 8
3 8 43 10
3 42 44 45
3 44 46 45
3 44 34 46
3 45 46 32
3 42 47 11
3 11 47 12
3 42 48 47
3 48 49 47
3 48 39 49
3 47 49 12
3 42 45 48
3 45 50 48
3 45 32 50
3 48 50 39
3 12 49 15
3 49 39 15
3 32 46 29
3 29 46 34
3 39 50 30
3 50 32 30

CELL_TYPES 98
5
5
5
5
5
5
5
5
5
5
5
5
5
5
5
5
5
5
5
5
5
5
5
5
5
5
5
5
5
5
5
5
5
5
5
5
5
5
5
5
5
5
5
5
5
5
5
5
5
5
5
5
5
5
5
5
5
5
5
5
5
5
5
5
5
5
5
5
5
5
5
5
5
5
5
5
5
5
5
5
5
5
5
5
5
5
5
5
5
5
5
5
5
5
5
5
5
5

CELL_DATA 98
SCALARS cell_data_0 double
LOOKUP_TABLE default
0.000315711943713
0.00130526772373
0.000790376482486
0.000693680420952
0.000750202439662
0.00143619022958
0.000823327095662
0.000337963154197
0.000219329520635
0.000509546718526
0.00028153775029
0.000144290050298
6.07564114112e-05
0.000120029403223
0.00011738822633
6.96470084276e-05
9.09971198954e-05
8.77410839417e-05
5.22610059365e-05
6.96833464386e-05
6.87499718432e-05
5.2563418972e-05
3.73152663379e-05
4.43479831777e-06
9.09041223322e-06
1.96664281241e-05
7.88051383224e-06
1.93845936397e-05
0.000131116025331
6.86586129623e-05
4.80480861392e-05
5.40392252504e-05
3.49916561101e-05
3.52281369391e-05
3.20084594671e-05
5.4295301394e-05
2.76664607271e-06
3.47737752435e-06
3.6779762721e-06
4.0975776993e-06
4.98208086576e-05
4.9957727858e-05
1.96913176898e-05
1.57330217585e-05
4.39624126822e-05
2.31898374031e-05
1.02372401675e-05
9.09149803944e-06
5.17784676305e-05
4.13145187455e-05
5.83059922598e-05
4.45805662443e-05
2.85686416769e-05
1.44810832577e-05
7.67951830451e-06
9.84831295523e-06
1.10543423103e-05
2.64302965041e-06
2.46970049941e-05
1.12546693837e-05
1.07611211741e-05
1.11560441214e-05
0.00010892239403
0.000144645055217
0.000160257929162
6.79981356591e-06
0.000139968614773
0.000213257856075
2.89323753969e-05
0.000171421779473
3.16948950229e-05
4.38614369841e-06
3.24344011894e-05
1.42952138468e-06
6.86404143239e-06
5.08015244037e-06
1.51193882484e-05
5.32090761271e-05
2.57920085083e-06
6.51009277789e-08
6.05366629876e-06
1.87001870519e-06
7.95454811425e-06
2.65429846179e-05
3.59163419969e-06
7.62767727301e-07
7.23325991924e-06
1.24731646409e-05
2.84445826387e-06
3.47669195e-08
1.9598715372e-06
4.94560309487e-06
4.57907276728e-05
3.09544238593e-05
4.18178263692e-06
1.22733222198e-05
9.16024446823e-06
1.38206406928e-06

