# vtk DataFile Version 3.0
File Name: Molecule/sphere_excent/sphere_excent_0-s5.vtk
ASCII
DATASET UNSTRUCTURED_GRID
FIELD FieldData 1
TIME 1 1 double
0.0
POINTS 96 double
0.46302697062 0.83387714624 -0.29386696219
0.0007262994186 0.8511749506 -0.52482193708
0.060044590384 0.99670732021 0.0026722541079
0.47106984258 0.81732314825 0.32516798377
-0.0015925251646 0.85074293613 0.52553504705
-0.2641043663 0.49627649784 0.82460820675
0.31093326211 0.4999512434 0.80839419365
0.021342985332 -0.0027252491564 0.99815487862
0.52538472414 -0.00034624160617 0.85087400675
-0.3085616827 -0.5163782835 0.79700320959
7.8551493061e-06 -0.85065162182 0.52572947741
0.30879545212 -0.49998417497 0.80908805132
0.80838006735 -0.30847406387 0.50134974718
0.50047403574 -0.80871915817 0.3085424602
0.85751456022 -0.51072049141 0.023114256561
0.30427002907 -0.5172700882 -0.79862433672
-0.00042369510629 -0.8506641984 -0.52575558424
-0.30883386731 -0.4996688962 -0.80921405554
-0.019872713834 -0.0015887916088 -0.99818968773
-0.50728112459 0.00021942195599 -0.85782939196
0.99730837345 -0.034377653152 0.032970584929
0.79472839832 0.28846687078 0.53161197901
-0.30783367157 0.49648427963 -0.81131619215
-0.48737865686 0.78942584991 -0.36933878064
-0.80039918423 0.32587203383 -0.49768492579
-0.85076063871 -0.52555549145 -0.00019600133237
-0.49978420138 -0.80917346478 -0.30881860852
-0.49990224838 -0.80915248394 0.30865636468
-0.00031589818536 -0.99994027615 6.850653881e-05
-0.80771100521 -0.31202158332 0.50031852722
-0.53931957483 0.0092007527128 0.83948934078
-0.82341378927 0.24459922314 0.51037430763
-0.99709117413 -0.0023690324742 0.016819823533
-0.80267012119 -0.32700124383 -0.49542990327
0.46736952662 -0.82782459259 -0.30785140395
0.22376559675 0.14877414703 -0.96115404367
0.26235106587 0.50790143013 -0.81928145885
-0.25744214654 0.95317769051 0.15836176276
-0.4909838438 0.81236851215 0.31448847055
-0.25998464227 0.95138388872 -0.16432024539
-0.51670086384 0.85622084141 -0.0036363953259
-0.70936870575 0.68781369925 0.15360632539
-0.70785623789 0.68786227703 -0.15962417424
-0.86608725786 0.49879071116 -0.022489054129
-0.42401501536 0.68445926905 0.59307229519
-0.6844894886 0.58494442701 0.43505707383
-0.5864097476 0.42258381844 0.6908929944
-0.86509150267 0.43327212334 0.25212520361
0.95134782791 -0.16268774867 -0.2617174685
0.80195981264 -0.32702201605 -0.49939870834
0.85463994741 -0.00099156040233 -0.51923441887
0.94985789061 0.13786898553 -0.27709653974
0.70100641251 -0.15459401906 -0.69497793913
0.68721073866 0.15311053395 -0.70992815495
0.79936945438 0.29472690821 -0.52029699087
0.58584052324 0.43245282769 -0.68546158075
0.42439815402 0.68912577629 -0.5873709321
0.67115581036 0.5879805088 -0.44977882504
0.43847098947 0.26729255915 -0.85714322329
0.8510299325 0.52496659756 -0.0025808820501
0.69203162193 0.70857900381 -0.1370293051
0.70351713896 0.69238311052 0.16008992493
0.5168363452 0.85585516691 0.0094580957666
0.94812041521 0.15772517025 0.27545768023
0.96145319939 0.27278476954 0.029424693435
0.86260330677 0.43474620581 0.25863984227
0.68487328291 0.58737117052 0.43067646027
0.70457422733 -0.6920556426 -0.15688689053
0.67716538906 -0.59091180563 -0.43424034119
0.5313808918 -0.34486323595 -0.77121299505
0.85221761465 -0.45246323943 -0.26318690181
0.88876694441 0.25572317839 -0.3804333806
0.98874932528 0.09095621109 -0.11861380935
0.93162155151 0.33302175999 -0.14356178045
0.86279720068 0.43098384142 -0.26415011287
0.76806610823 0.45012611151 -0.45553129911
0.77988618612 0.57851421833 -0.23775425553
0.60533845425 0.7117087841 -0.35603991151
-0.14075386524 0.25488594174 0.95652377605
-0.40947023034 0.25303405523 0.87646257877
-0.27448141575 -0.0003677229688 0.96157246828
-0.43496307731 -0.25689509511 0.86284279823
-0.15976807475 -0.26507636905 0.95077675581
0.4974732101 -0.023434821516 -0.86708074808
0.41218784451 -0.26113554835 -0.87289118767
0.26509034634 -0.023525033146 -0.96361035109
0.15942636132 -0.2653388679 -0.95063012838
-0.69206053019 -0.15858410299 -0.70409959555
-0.69207459688 0.15832263231 -0.70425075293
-0.85219705105 -0.00015470948711 -0.52303123474
-0.9510576129 -0.16201940179 -0.26305118203
-0.95115530491 0.15847477317 -0.2650873363
-0.87314325571 0.41145899892 -0.26123526692
-0.96459925175 0.26302331686 -0.022931858897
0.59843468666 -0.098083898425 -0.79485958815
0.4657817781 0.11677232385 -0.87675964832

CELLS 188 752
3 0 1 2
3 3 2 4
3 4 5 6
3 6 7 8
3 9 10 11
3 7 11 8
3 8 11 12
3 11 13 12
3 11 10 13
3 12 13 14
3 15 16 17
3 18 17 19
3 14 20 12
3 12 21 8
3 3 4 6
3 21 6 8
3 1 22 23
3 22 24 23
3 25 26 27
3 26 28 27
3 26 16 28
3 27 28 10
3 25 27 29
3 27 9 29
3 27 10 9
3 30 31 29
3 31 32 29
3 29 32 25
3 17 26 33
3 17 16 26
3 33 26 25
3 16 34 28
3 34 13 28
3 28 13 10
3 15 34 16
3 18 22 35
3 18 19 22
3 36 22 1
3 2 37 4
3 4 37 38
3 2 39 37
3 39 40 37
3 39 23 40
3 37 40 38
3 23 39 1
3 1 39 2
3 38 40 41
3 40 42 41
3 40 23 42
3 41 42 43
3 38 44 4
3 4 44 5
3 38 45 44
3 45 46 44
3 45 31 46
3 44 46 5
3 38 41 45
3 41 47 45
3 41 43 47
3 45 47 31
3 46 31 30
3 24 42 23
3 31 47 32
3 14 48 20
3 49 50 48
3 50 51 48
3 49 52 50
3 52 53 50
3 50 53 54
3 55 56 57
3 55 36 56
3 54 53 55
3 53 58 55
3 55 58 36
3 0 56 1
3 56 36 1
3 59 60 61
3 60 62 61
3 60 0 62
3 61 62 3
3 3 62 2
3 2 62 0
3 20 63 12
3 63 21 12
3 20 64 63
3 64 65 63
3 64 59 65
3 63 65 21
3 59 61 65
3 61 66 65
3 61 3 66
3 65 66 21
3 21 66 6
3 6 66 3
3 34 67 13
3 67 14 13
3 49 68 69
3 68 34 15
3 49 70 68
3 70 67 68
3 70 14 67
3 68 67 34
3 14 70 48
3 48 70 49
3 54 71 50
3 50 71 51
3 51 72 48
3 48 72 20
3 20 72 64
3 72 73 64
3 72 51 73
3 64 73 59
3 51 71 73
3 71 74 73
3 74 71 75
3 73 74 59
3 54 75 71
3 75 76 74
3 75 57 76
3 74 76 59
3 59 76 60
3 76 77 60
3 76 57 77
3 60 77 0
3 57 75 55
3 55 75 54
3 0 77 56
3 56 77 57
3 5 78 6
3 78 7 6
3 5 79 78
3 79 80 78
3 79 30 80
3 78 80 7
3 30 81 80
3 81 82 80
3 81 9 82
3 80 82 7
3 7 82 11
3 11 82 9
3 83 84 85
3 84 86 85
3 84 15 86
3 85 86 18
3 18 86 17
3 17 86 15
3 19 87 88
3 87 89 88
3 87 33 89
3 88 89 24
3 33 90 89
3 90 91 89
3 90 32 91
3 89 91 24
3 32 90 25
3 25 90 33
3 24 91 92
3 91 93 92
3 91 32 93
3 92 93 43
3 19 88 22
3 22 88 24
3 9 81 29
3 29 81 30
3 33 87 17
3 17 87 19
3 30 79 46
3 46 79 5
3 24 92 42
3 42 92 43
3 43 93 47
3 47 93 32
3 52 94 53
3 94 83 53
3 83 95 53
3 53 95 58
3 83 94 84
3 94 69 84
3 94 52 69
3 84 69 15
3 15 69 68
3 49 69 52
3 58 35 36
3 36 35 22
3 18 35 85
3 35 95 85
3 35 58 95
3 85 95 83

CELL_TYPES 188
5
5
5
5
5
5
5
5
5
5
5
5
5
5
5
5
5
5
5
5
5
5
5
5
5
5
5
5
5
5
5
5
5
5
5
5
5
5
5
5
5
5
5
5
5
5
5
5
5
5
5
5
5
5
5
5
5
5
5
5
5
5
5
5
5
5
5
5
5
5
5
5
5
5
5
5
5
5
5
5
5
5
5
5
5
5
5
5
5
5
5
5
5
5
5
5
5
5
5
5
5
5
5
5
5
5
5
5
5
5
5
5
5
5
5
5
5
5
5
5
5
5
5
5
5
5
5
5
5
5
5
5
5
5
5
5
5
5
5
5
5
5
5
5
5
5
5
5
5
5
5
5
5
5
5
5
5
5
5
5
5
5
5
5
5
5
5
5
5
5
5
5
5
5
5
5
5
5
5
5
5
5
5
5
5
5
5
5

CELL_DATA 188
SCALARS cell_data_0 double
LOOKUP_TABLE default
3.73211324642e-06
1.85592903382e-05
7.11898922409e-05
0.000134553394694
6.23178518657e-05
0.000133239654386
7.87068452205e-05
5.36422685319e-05
4.28761629972e-05
5.99221734581e-05
8.96635881968e-05
0.000385096922988
7.92093989588e-05
4.96504991314e-05
3.59049430703e-05
7.51774477787e-05
8.82180130654e-06
4.98466822918e-06
2.72639368418e-05
3.6837513611e-06
1.48834331341e-05
1.74217154747e-05
6.66264586792e-07
5.28458075254e-05
4.2529365682e-05
4.04054380331e-05
2.58030303772e-05
6.25982051291e-06
3.9623965507e-05
5.55413965593e-05
2.27158711432e-05
1.42454824839e-05
3.34695394194e-06
1.97924968144e-05
5.06438375141e-05
7.18723803716e-05
0.000286891428558
5.66846403322e-06
1.06377081331e-05
1.1738172607e-05
2.7678610534e-06
5.63894320305e-06
1.12985790098e-05
1.84508294289e-07
6.97434460959e-06
5.65413622766e-08
4.23202203682e-06
2.6218274722e-05
2.72790253379e-05
4.98094022477e-05
1.60577865468e-05
2.96075425001e-05
8.43121300664e-06
1.19524964064e-05
1.17066602836e-05
2.14564806546e-05
4.58109659408e-06
3.74604734832e-06
2.14311434278e-05
7.83736442235e-06
3.49815043703e-05
2.68498073512e-05
1.14470532763e-05
5.29172095836e-05
6.70641175429e-06
8.32260815485e-07
5.80795987351e-06
1.9275969612e-08
1.09496684868e-06
1.8796289792e-07
4.1396855881e-07
1.71139101949e-06
1.94852289201e-06
2.55781978412e-06
3.95516835217e-07
2.6604745155e-06
2.7340160817e-05
1.3111965586e-07
5.6863884342e-07
2.95640493253e-06
7.62269760793e-06
4.02337438949e-06
4.09189663895e-08
1.45530392091e-05
2.25573557761e-06
1.67368904694e-07
2.71940500753e-05
3.48491293356e-06
2.87080714988e-05
2.28422452899e-07
3.31269092967e-06
3.78479025865e-06
2.87449875778e-05
2.29465663569e-05
4.7161050488e-07
4.15606421583e-05
8.59281185172e-06
2.1982054345e-05
4.44592328092e-06
6.25590952126e-07
2.18468577891e-05
1.72790701954e-06
2.48665227695e-05
4.90427053926e-06
8.70459915559e-07
3.42616977779e-07
6.80176023672e-07
8.04721318791e-07
5.63681929988e-07
2.81752145387e-07
5.19857873286e-07
1.75615637662e-05
1.97422493751e-07
2.4700767545e-07
4.50677094472e-07
1.6868304482e-05
8.09948522339e-07
1.22460553059e-07
1.16123968665e-07
1.62041356989e-05
1.67830664721e-05
8.26779429954e-08
1.5791635464e-07
2.74123819956e-07
2.83433885716e-07
1.46539332784e-06
4.28746753044e-07
1.29229152285e-07
6.33767513455e-05
5.90668857195e-05
3.36118699483e-05
4.44730316869e-05
3.41644176977e-06
6.01006815285e-05
4.74946417242e-07
1.95175259914e-05
2.13567120201e-05
7.26604705398e-05
0.000131561106886
9.55244682612e-05
0.000209071194611
5.10948969118e-05
7.8801670237e-05
3.05552507303e-05
0.000113479011522
4.15199572589e-05
2.65896627419e-05
5.22941279191e-07
3.27935648353e-07
3.75019959973e-08
7.52863357293e-07
1.18385185283e-06
2.2939007487e-06
3.1461898411e-07
1.77986212383e-06
6.58238242639e-06
1.19798064446e-08
7.8467522826e-07
1.8055698312e-06
1.64630207447e-05
5.28205063104e-05
1.00519463649e-07
2.65105185943e-05
1.29455304795e-05
1.28200454399e-05
8.55180198822e-05
4.2330936888e-06
1.58318441993e-05
1.10865406464e-05
3.82428165941e-05
1.38970079774e-05
3.86791397412e-06
5.3455460557e-07
6.89234385941e-05
7.09951885964e-05
1.90241071648e-06
0.000126982839707
3.56226802369e-05
4.52841049588e-07
5.23067687628e-05
1.10549114043e-05
6.04170937893e-06
2.09020850404e-06
6.5918709081e-07
2.07058349858e-05
8.34218249826e-07
1.70088569124e-06
6.28541564977e-05

