# vtk DataFile Version 3.0
File Name: Molecule/sphere_dip/sphere_dip_0-s2.vtk
ASCII
DATASET UNSTRUCTURED_GRID
FIELD FieldData 1
TIME 1 1 double
0.0
POINTS 66 double
0.809016994375 -0.309016994375 -0.5
0.809016994375 0.309016994375 -0.5
1.0 0.0 0.0
0.525731112119 0.0 -0.850650808352
0.850650808352 0.525731112119 0.0
0.5 0.809016994375 -0.309016994375
0.309016994375 0.5 -0.809016994375
0.0 0.850650808352 -0.525731112119
0.5 0.809016994375 0.309016994375
0.0 1.0 0.0
-0.309016994375 0.5 0.809016994375
0.0 0.0 1.0
0.309016994375 0.5 0.809016994375
-0.525731112119 0.0 0.850650808352
0.525731112119 0.0 0.850650808352
-0.309016994375 -0.5 0.809016994375
0.309016994375 -0.5 0.809016994375
0.0 -0.850650808352 0.525731112119
0.309016994375 -0.5 -0.809016994375
0.0 0.0 -1.0
-0.309016994375 -0.5 -0.809016994375
0.0 -0.850650808352 -0.525731112119
-0.525731112119 0.0 -0.850650808352
0.809016994375 0.309016994375 0.5
0.0 0.850650808352 0.525731112119
-0.809016994375 -0.309016994375 -0.5
-0.809016994375 0.309016994375 -0.5
-1.0 0.0 0.0
-0.850650808352 -0.525731112119 0.0
-0.850650808352 0.525731112119 0.0
-0.309016994375 0.5 -0.809016994375
-0.5 0.809016994375 -0.309016994375
-0.5 -0.809016994375 -0.309016994375
-0.5 -0.809016994375 0.309016994375
0.0 -1.0 0.0
-0.809016994375 -0.309016994375 0.5
-0.809016994375 0.309016994375 0.5
0.5 -0.809016994375 -0.309016994375
0.5 -0.809016994375 0.309016994375
0.850650808352 -0.525731112119 0.0
0.925325404176 -0.26286555606 0.0
0.0 0.925325404176 0.26286555606
-0.25 0.829833901363 0.417374053247
-0.25 0.904508497187 0.154508497188
-0.5 0.809016994375 0.309016994375
-0.25 0.904508497187 -0.154508497188
-0.5 0.809016994375 0.0
-0.675325404176 0.667374053247 0.154508497188
-0.675325404176 0.667374053247 -0.154508497188
-0.154508497188 0.675325404176 0.667374053247
-0.404508497188 0.654508497187 0.559016994375
-0.654508497187 0.559016994375 0.404508497188
-0.559016994375 0.404508497188 0.654508497187
-0.829833901363 0.417374053247 0.25
0.417374053247 -0.25 0.829833901363
0.667374053247 -0.154508497188 0.675325404176
0.559016994375 -0.404508497188 0.654508497187
0.809016994375 -0.309016994375 0.5
0.404508497188 -0.654508497187 0.559016994375
0.654508497187 -0.559016994375 0.404508497188
0.829833901363 -0.417374053247 0.25
0.675325404176 -0.667374053247 0.154508497188
0.904508497187 -0.154508497188 0.25
0.904508497187 0.154508497188 0.25
0.809016994375 0.0 0.5
0.667374053247 0.154508497188 0.675325404176

CELLS 128 512
3 0 1 2
3 0 3 1
3 2 1 4
3 4 1 5
3 1 6 5
3 1 3 6
3 5 6 7
3 4 5 8
3 5 9 8
3 5 7 9
3 10 11 12
3 10 13 11
3 12 11 14
3 13 15 11
3 15 16 11
3 15 17 16
3 3 18 19
3 18 20 19
3 18 21 20
3 19 20 22
3 4 8 23
3 8 12 23
3 8 24 12
3 22 25 26
3 25 27 26
3 25 28 27
3 26 27 29
3 7 30 31
3 30 26 31
3 30 22 26
3 28 32 33
3 32 34 33
3 32 21 34
3 33 34 17
3 28 33 35
3 33 15 35
3 33 17 15
3 35 15 13
3 13 36 35
3 36 27 35
3 35 27 28
3 22 20 25
3 20 32 25
3 20 21 32
3 25 32 28
3 21 37 34
3 37 38 34
3 34 38 17
3 3 0 18
3 0 37 18
3 0 39 37
3 18 37 21
3 3 19 6
3 19 30 6
3 19 22 30
3 6 30 7
3 2 40 0
3 0 40 39
3 9 41 8
3 8 41 24
3 24 41 42
3 41 43 42
3 41 9 43
3 42 43 44
3 9 45 43
3 45 46 43
3 45 31 46
3 43 46 44
3 31 45 7
3 7 45 9
3 44 46 47
3 46 48 47
3 46 31 48
3 47 48 29
3 24 42 49
3 42 50 49
3 42 44 50
3 49 50 10
3 44 51 50
3 51 52 50
3 51 36 52
3 50 52 10
3 44 47 51
3 47 53 51
3 47 29 53
3 51 53 36
3 10 52 13
3 52 36 13
3 24 49 12
3 49 10 12
3 16 54 11
3 11 54 14
3 14 54 55
3 54 56 55
3 54 16 56
3 55 56 57
3 16 58 56
3 58 59 56
3 58 38 59
3 56 59 57
3 38 58 17
3 17 58 16
3 57 59 60
3 59 61 60
3 59 38 61
3 60 61 39
3 39 40 60
3 40 62 60
3 40 2 62
3 60 62 57
3 2 63 62
3 63 64 62
3 63 23 64
3 62 64 57
3 23 63 4
3 4 63 2
3 57 64 55
3 64 65 55
3 64 23 65
3 55 65 14
3 14 65 12
3 12 65 23
3 29 48 26
3 26 48 31
3 36 53 27
3 53 29 27
3 39 61 37
3 37 61 38

CELL_TYPES 128
5
5
5
5
5
5
5
5
5
5
5
5
5
5
5
5
5
5
5
5
5
5
5
5
5
5
5
5
5
5
5
5
5
5
5
5
5
5
5
5
5
5
5
5
5
5
5
5
5
5
5
5
5
5
5
5
5
5
5
5
5
5
5
5
5
5
5
5
5
5
5
5
5
5
5
5
5
5
5
5
5
5
5
5
5
5
5
5
5
5
5
5
5
5
5
5
5
5
5
5
5
5
5
5
5
5
5
5
5
5
5
5
5
5
5
5
5
5
5
5
5
5
5
5
5
5
5
5

CELL_DATA 128
SCALARS cell_data_0 double
LOOKUP_TABLE default
0.00034545174999
7.27657543971e-05
0.000191714927913
0.00016765987846
0.00021849936829
2.09422836288e-07
7.58232605935e-05
9.64616289023e-05
0.000236206141872
0.000156792220785
0.000235864754777
0.000193961025454
0.000188978057306
0.00019757770093
0.000248495485781
8.02547152581e-05
0.000218486650328
0.000260545904912
5.90343899147e-05
0.000214633918811
4.9443753475e-06
4.42588570548e-05
2.50593036359e-05
2.03620898043e-05
1.12304110571e-05
8.65559786572e-05
4.49746290511e-06
1.03054075699e-05
7.15743643515e-06
6.35226133599e-05
7.6338850764e-05
5.37171476424e-06
6.60666204815e-05
1.68089417855e-06
5.89165505473e-05
5.30880652453e-05
3.13493780816e-05
9.15547511397e-05
1.28840996993e-05
8.30566289592e-05
8.30622501504e-05
6.61832872665e-05
5.6056864773e-05
1.30406335428e-05
6.30763403592e-05
7.18897199852e-05
6.37489585779e-06
5.81865844912e-06
6.26448045272e-05
2.30689737782e-06
0.000589901153907
1.11014173112e-05
0.000210775000996
0.000259278798903
0.000211600640268
5.97110088692e-05
0.000106325505321
0.000312702651112
4.40627042231e-05
4.0955056283e-06
1.17124946959e-06
3.62971918803e-06
2.16652482232e-05
9.85652749562e-05
2.54200710331e-05
1.79769744345e-06
2.2703995576e-05
0.000125551330245
2.71924266832e-05
3.14009400674e-05
0.000106710745502
9.15730221851e-06
3.53582731074e-05
1.19303354359e-05
2.97927173583e-06
9.33321408019e-06
9.22790802349e-05
1.19980396944e-05
0.00014172498159
8.48634074539e-06
2.36899336745e-05
1.96795810569e-05
0.000127830944752
3.60905227576e-05
2.60690286503e-05
7.10210126792e-05
5.37120202866e-05
1.76032008589e-05
2.77570374776e-05
4.73042053641e-05
0.000106978752812
0.000107734764922
2.25453347737e-05
2.07218557459e-05
2.01997057285e-05
7.90825748353e-06
1.64972249528e-05
1.08019682882e-05
4.31193559877e-07
8.94028688356e-06
2.82234900866e-06
1.78136211284e-05
1.07019964119e-06
8.61070343708e-07
4.96266027898e-07
0.000109402216349
0.000116986431894
1.59136787519e-06
2.89960965815e-05
1.07405880058e-06
2.91580222279e-05
1.33172980538e-06
8.68769027655e-07
1.94722786085e-06
4.63584653834e-07
4.9702645939e-05
9.12289891484e-07
1.42327513257e-06
1.32539997323e-06
1.39229201191e-05
5.22525590827e-05
2.71355353524e-05
1.4903537517e-05
5.66629461754e-05
0.000119705452201
5.91279302783e-05
0.000220974403275
8.13226045124e-07

