# vtk DataFile Version 3.0
File Name: Molecule/sphere_dip/sphere_dip_0-s3.vtk
ASCII
DATASET UNSTRUCTURED_GRID
FIELD FieldData 1
TIME 1 1 double
0.0
POINTS 114 double
0.5 0.809016994375 0.309016994375
0.309016994375 0.5 0.809016994375
0.809016994375 0.309016994375 0.5
0.0 0.850650808352 0.525731112119
-0.525731112119 0.0 -0.850650808352
-0.809016994375 -0.309016994375 -0.5
-0.809016994375 0.309016994375 -0.5
-1.0 0.0 0.0
-0.850650808352 -0.525731112119 0.0
-0.850650808352 0.525731112119 0.0
0.0 0.850650808352 -0.525731112119
-0.309016994375 0.5 -0.809016994375
-0.5 0.809016994375 -0.309016994375
-0.5 -0.809016994375 -0.309016994375
-0.5 -0.809016994375 0.309016994375
0.0 -1.0 0.0
0.0 -0.850650808352 -0.525731112119
0.0 -0.850650808352 0.525731112119
-0.809016994375 -0.309016994375 0.5
-0.309016994375 -0.5 0.809016994375
-0.525731112119 0.0 0.850650808352
-0.809016994375 0.309016994375 0.5
-0.309016994375 -0.5 -0.809016994375
0.5 -0.809016994375 -0.309016994375
0.5 -0.809016994375 0.309016994375
0.0 0.925325404176 0.26286555606
-0.25 0.829833901363 0.417374053247
-0.25 0.904508497187 0.154508497188
0.0 1.0 0.0
-0.5 0.809016994375 0.309016994375
-0.25 0.904508497187 -0.154508497188
-0.5 0.809016994375 0.0
-0.675325404176 0.667374053247 0.154508497188
-0.675325404176 0.667374053247 -0.154508497188
-0.154508497188 0.675325404176 0.667374053247
-0.404508497188 0.654508497187 0.559016994375
-0.309016994375 0.5 0.809016994375
-0.654508497187 0.559016994375 0.404508497188
-0.559016994375 0.404508497188 0.654508497187
-0.829833901363 0.417374053247 0.25
0.525731112119 0.0 0.850650808352
0.417374053247 -0.25 0.829833901363
0.667374053247 -0.154508497188 0.675325404176
0.559016994375 -0.404508497188 0.654508497187
0.309016994375 -0.5 0.809016994375
0.809016994375 -0.309016994375 0.5
0.404508497188 -0.654508497187 0.559016994375
0.654508497187 -0.559016994375 0.404508497188
0.829833901363 -0.417374053247 0.25
0.675325404176 -0.667374053247 0.154508497188
0.925325404176 -0.26286555606 0.0
0.904508497187 -0.154508497188 0.25
1.0 0.0 0.0
0.904508497187 0.154508497188 0.25
0.809016994375 0.0 0.5
0.850650808352 0.525731112119 0.0
0.667374053247 0.154508497188 0.675325404176
0.809016994375 -0.309016994375 -0.5
0.809016994375 0.0 -0.5
0.904508497187 -0.154508497188 -0.25
0.904508497187 0.154508497188 -0.25
0.809016994375 0.309016994375 -0.5
0.667374053247 -0.154508497188 -0.675325404176
0.667374053247 0.154508497188 -0.675325404176
0.525731112119 0.0 -0.850650808352
0.925325404176 0.26286555606 0.0
0.829833901363 0.417374053247 -0.25
0.675325404176 0.667374053247 -0.154508497188
0.654508497187 0.559016994375 -0.404508497188
0.5 0.809016994375 -0.309016994375
0.559016994375 0.404508497188 -0.654508497187
0.404508497188 0.654508497187 -0.559016994375
0.309016994375 0.5 -0.809016994375
0.417374053247 0.25 -0.829833901363
0.675325404176 0.667374053247 0.154508497188
0.5 0.809016994375 0.0
0.25 0.904508497187 -0.154508497188
0.25 0.904508497187 0.154508497188
-0.154508497188 0.25 0.904508497187
0.0 0.5 0.809016994375
0.154508497188 0.25 0.904508497187
0.0 0.0 1.0
-0.417374053247 0.25 0.829833901363
-0.26286555606 0.0 0.925325404176
0.417374053247 0.25 0.829833901363
0.26286555606 0.0 0.925325404176
-0.417374053247 -0.25 0.829833901363
-0.154508497188 -0.25 0.904508497187
0.0 -0.5 0.809016994375
0.154508497188 -0.25 0.904508497187
0.417374053247 -0.25 -0.829833901363
0.26286555606 0.0 -0.925325404176
0.154508497188 -0.25 -0.904508497187
0.309016994375 -0.5 -0.809016994375
0.0 0.0 -1.0
0.0 -0.5 -0.809016994375
-0.154508497188 -0.25 -0.904508497187
-0.26286555606 0.0 -0.925325404176
-0.417374053247 -0.25 -0.829833901363
-0.417374053247 0.25 -0.829833901363
0.559016994375 -0.404508497188 -0.654508497187
0.654508497187 -0.559016994375 -0.404508497188
0.404508497188 -0.654508497187 -0.559016994375
0.829833901363 -0.417374053247 -0.25
0.675325404176 -0.667374053247 -0.154508497188
0.850650808352 -0.525731112119 0.0
0.154508497188 0.25 -0.904508497187
-0.154508497188 0.25 -0.904508497187
0.0 0.5 -0.809016994375
0.962662702088 -0.13143277803 0.0
0.867171199276 -0.285941275218 -0.25
0.887988106264 -0.394298334089 0.0
0.762988106264 -0.596552582683 0.077254248594
0.587662702088 -0.738195523811 -0.0772542485935

CELLS 224 896
3 0 1 2
3 0 3 1
3 4 5 6
3 5 7 6
3 5 8 7
3 6 7 9
3 10 11 12
3 11 6 12
3 8 13 14
3 13 15 14
3 13 16 15
3 14 15 17
3 8 14 18
3 14 19 18
3 14 17 19
3 20 21 18
3 21 7 18
3 18 7 8
3 22 13 5
3 22 16 13
3 5 13 8
3 16 23 15
3 23 24 15
3 15 24 17
3 0 25 3
3 3 25 26
3 25 27 26
3 25 28 27
3 26 27 29
3 28 30 27
3 30 31 27
3 30 12 31
3 27 31 29
3 12 30 10
3 10 30 28
3 29 31 32
3 31 33 32
3 31 12 33
3 32 33 9
3 3 26 34
3 26 35 34
3 26 29 35
3 34 35 36
3 29 37 35
3 37 38 35
3 37 21 38
3 35 38 36
3 29 32 37
3 32 39 37
3 32 9 39
3 37 39 21
3 38 21 20
3 3 34 1
3 40 41 42
3 41 43 42
3 41 44 43
3 42 43 45
3 44 46 43
3 46 47 43
3 46 24 47
3 43 47 45
3 24 46 17
3 17 46 44
3 45 47 48
3 47 49 48
3 47 24 49
3 50 51 48
3 48 51 45
3 52 53 51
3 53 54 51
3 53 2 54
3 51 54 45
3 2 53 55
3 45 54 42
3 54 56 42
3 54 2 56
3 42 56 40
3 1 56 2
3 9 33 6
3 6 33 12
3 21 39 7
3 39 9 7
3 57 58 59
3 58 60 59
3 58 61 60
3 59 60 52
3 57 62 58
3 62 63 58
3 62 64 63
3 58 63 61
3 52 60 65
3 60 66 65
3 60 61 66
3 65 66 55
3 55 66 67
3 66 68 67
3 66 61 68
3 67 68 69
3 61 70 68
3 70 71 68
3 70 72 71
3 68 71 69
3 61 63 70
3 63 73 70
3 63 64 73
3 70 73 72
3 69 71 10
3 71 72 10
3 55 67 74
3 67 75 74
3 67 69 75
3 74 75 0
3 69 76 75
3 76 77 75
3 76 28 77
3 75 77 0
3 28 76 10
3 10 76 69
3 36 78 79
3 78 80 79
3 78 81 80
3 79 80 1
3 36 82 78
3 82 83 78
3 82 20 83
3 78 83 81
3 1 80 84
3 80 85 84
3 80 81 85
3 84 85 40
3 20 86 83
3 86 87 83
3 86 19 87
3 83 87 81
3 19 88 87
3 88 89 87
3 88 44 89
3 87 89 81
3 44 88 17
3 17 88 19
3 64 90 91
3 90 92 91
3 90 93 92
3 91 92 94
3 93 95 92
3 95 96 92
3 95 22 96
3 92 96 94
3 22 95 16
3 16 95 93
3 94 96 97
3 96 98 97
3 96 22 98
3 97 98 4
3 55 74 2
3 74 0 2
3 11 99 6
3 99 4 6
3 19 86 18
3 18 86 20
3 4 98 5
3 98 22 5
3 64 62 90
3 62 100 90
3 62 57 100
3 90 100 93
3 57 101 100
3 101 102 100
3 101 23 102
3 100 102 93
3 57 103 101
3 103 104 101
3 103 105 104
3 101 104 23
3 93 102 16
3 102 23 16
3 64 91 73
3 91 106 73
3 91 94 106
3 73 106 72
3 94 107 106
3 107 108 106
3 107 11 108
3 106 108 72
3 94 97 107
3 97 99 107
3 97 4 99
3 107 99 11
3 72 108 10
3 108 11 10
3 52 109 59
3 109 110 59
3 109 50 110
3 59 110 57
3 57 110 103
3 110 111 103
3 110 50 111
3 103 111 105
3 0 77 25
3 25 77 28
3 20 82 38
3 38 82 36
3 36 79 34
3 34 79 1
3 81 89 41
3 41 89 44
3 40 85 41
3 41 85 81
3 49 112 48
3 48 112 105
3 105 111 48
3 111 50 48
3 50 109 51
3 109 52 51
3 52 65 53
3 53 65 55
3 1 84 56
3 56 84 40
3 105 112 104
3 112 113 104
3 112 49 113
3 104 113 23
3 23 113 24
3 113 49 24

CELL_TYPES 224
5
5
5
5
5
5
5
5
5
5
5
5
5
5
5
5
5
5
5
5
5
5
5
5
5
5
5
5
5
5
5
5
5
5
5
5
5
5
5
5
5
5
5
5
5
5
5
5
5
5
5
5
5
5
5
5
5
5
5
5
5
5
5
5
5
5
5
5
5
5
5
5
5
5
5
5
5
5
5
5
5
5
5
5
5
5
5
5
5
5
5
5
5
5
5
5
5
5
5
5
5
5
5
5
5
5
5
5
5
5
5
5
5
5
5
5
5
5
5
5
5
5
5
5
5
5
5
5
5
5
5
5
5
5
5
5
5
5
5
5
5
5
5
5
5
5
5
5
5
5
5
5
5
5
5
5
5
5
5
5
5
5
5
5
5
5
5
5
5
5
5
5
5
5
5
5
5
5
5
5
5
5
5
5
5
5
5
5
5
5
5
5
5
5
5
5
5
5
5
5
5
5
5
5
5
5
5
5
5
5
5
5
5
5
5
5
5
5
5
5
5
5
5
5

CELL_DATA 224
SCALARS cell_data_0 double
LOOKUP_TABLE default
5.20190507463e-05
7.15192894181e-06
3.11894789645e-05
6.16231966258e-05
3.96551846045e-05
6.82919071518e-05
5.38798533788e-05
0.000105242416171
7.91916969876e-05
7.37586340796e-05
1.26294463484e-05
4.23623551382e-05
0.000112650256984
3.43192970985e-05
1.32942499055e-05
3.02144056954e-05
0.000156025750263
9.64495470066e-05
5.37838370085e-05
3.30119143782e-05
1.25655317584e-05
0.000120088467005
0.000121286647233
9.21196092172e-06
5.89308070954e-05
4.00265163178e-05
1.79178968648e-05
1.63584471637e-05
2.48621230122e-05
1.53343456686e-05
1.00775591743e-05
3.91842643449e-05
2.08380120968e-05
5.56419361384e-05
2.6045519492e-05
1.96858964605e-05
1.86886822583e-06
2.18304557131e-05
1.19868931184e-06
1.37824123989e-05
6.61982106771e-06
2.06353509619e-05
1.66469196058e-05
5.26303491595e-06
1.74459862716e-05
2.20693120076e-07
2.15785971038e-05
1.00457414053e-05
1.24505435088e-06
4.63091613282e-06
1.13342570524e-05
2.03682558995e-05
2.31688584058e-05
1.86999787965e-05
2.41478636685e-05
2.15992614988e-05
6.17941569698e-06
1.77956209073e-05
1.32992520608e-05
3.35468254077e-06
9.41554252593e-06
9.68024827436e-06
2.43103151639e-05
6.55079731711e-07
8.60415851012e-07
8.24807399925e-07
2.38370231094e-05
1.04477350959e-05
2.92514681359e-05
3.76105312519e-05
2.07263734239e-05
2.18988114936e-05
1.48281173087e-05
1.07820691832e-05
2.74789249302e-06
1.31615998129e-06
7.67157976613e-06
3.88829986754e-05
1.45805907355e-05
5.47734571507e-05
5.61154868779e-05
2.23991181892e-05
5.65715351132e-06
4.69260998488e-06
2.9704905176e-06
3.20987382593e-06
9.71289621219e-06
1.32976468307e-05
1.83649163429e-05
2.93275773142e-06
1.37061472133e-05
2.1832169561e-05
1.13600403943e-05
2.07877756045e-05
4.07119640939e-05
3.5581561692e-05
6.6349261672e-06
2.2872090521e-05
1.1606455818e-05
1.87612893988e-05
2.23912242305e-05
7.20920466892e-06
8.10860644458e-06
2.70217305401e-05
2.75573406486e-05
2.59341242578e-05
1.10834904888e-05
2.5450770531e-05
0.000117470198713
0.000179645078724
6.61484957495e-05
0.00012984830788
0.000131014746968
0.000266257460511
0.000203228478674
0.000136782782549
0.00014252932709
0.000117089700065
1.19097750753e-05
4.54396172117e-05
9.62284650425e-05
1.63454702982e-05
3.75793797431e-06
3.13174764758e-05
9.97581889936e-06
7.64840922177e-05
8.56371086218e-06
3.08907853338e-05
7.65633498597e-05
1.00947539859e-05
9.60706706045e-06
3.04644662029e-05
6.3614048375e-06
7.6804307351e-05
1.4751167559e-05
1.06762628505e-05
2.30311644309e-05
9.25132912209e-05
1.86994229105e-05
1.47781705618e-05
2.52271212687e-05
4.03469629794e-05
3.14974857496e-05
6.95705346993e-05
1.42182640171e-05
1.08988047259e-05
1.5517223164e-05
9.44811317604e-05
2.11064653132e-05
2.02515815085e-05
7.34690211712e-05
3.28351051975e-05
1.05255861966e-05
3.12364403275e-05
0.000123923719491
0.000133053548115
1.20565552399e-05
2.87757028701e-05
5.70240262107e-05
6.20774075292e-05
2.6613635603e-05
3.01176688053e-05
2.23017152892e-05
2.18386701251e-05
1.1796621256e-05
1.99538668066e-05
3.39881917007e-06
1.14766264268e-05
3.64382831969e-05
2.08970721305e-05
3.11161942787e-06
5.58368352241e-07
1.16602857613e-05
3.38257636762e-05
2.68185835246e-05
4.04795658792e-05
3.55083162069e-05
3.71840140802e-05
5.74325419222e-05
2.73134877531e-05
7.9497216517e-05
7.93297203349e-06
6.98052681144e-06
6.94274872787e-06
7.34444710575e-05
4.60090949961e-05
3.97923395451e-05
6.71096310267e-06
1.52511590633e-05
4.35136577435e-07
1.13564688628e-06
7.92479144307e-07
5.33320778856e-06
4.91911358384e-07
1.94755675319e-07
5.51957645208e-07
5.3667507625e-06
7.93439753064e-06
8.13314235429e-05
8.92873949288e-05
4.98074310626e-06
4.20960836617e-06
3.12783213714e-07
9.98938152967e-06
7.42080549953e-05
2.96955572157e-05
3.68240731178e-05
6.84389578878e-05
5.38756609344e-07
9.08727246434e-06
8.86659504842e-06
5.7788438349e-06
1.13816364486e-05
6.40326192169e-06
2.38460705535e-05
1.93191234732e-05
8.74997261864e-06
1.485940224e-05
6.79855354579e-06
1.20043281647e-06
1.20134863122e-07
1.3302724415e-05
2.66635598717e-05
7.50369569633e-07

