# vtk DataFile Version 3.0
File Name: Molecule/sphere_dip/sphere_dip_0-s5.vtk
ASCII
DATASET UNSTRUCTURED_GRID
FIELD FieldData 1
TIME 1 1 double
0.0
POINTS 335 double
0.5 0.809016994375 0.309016994375
0.0 0.850650808352 0.525731112119
0.309016994375 0.5 0.809016994375
0.0 0.925325404176 0.26286555606
-0.25 0.829833901363 0.417374053247
-0.25 0.904508497187 0.154508497188
-0.5 0.809016994375 0.309016994375
0.0 1.0 0.0
-0.25 0.904508497187 -0.154508497188
-0.5 0.809016994375 0.0
-0.5 0.809016994375 -0.309016994375
0.0 0.850650808352 -0.525731112119
-0.675325404176 0.667374053247 0.154508497188
-0.675325404176 0.667374053247 -0.154508497188
-0.154508497188 0.675325404176 0.667374053247
-0.404508497188 0.654508497187 0.559016994375
-0.309016994375 0.5 0.809016994375
-0.654508497187 0.559016994375 0.404508497188
-0.559016994375 0.404508497188 0.654508497187
-0.809016994375 0.309016994375 0.5
-0.829833901363 0.417374053247 0.25
-0.525731112119 0.0 0.850650808352
0.525731112119 0.0 0.850650808352
0.417374053247 -0.25 0.829833901363
0.667374053247 -0.154508497188 0.675325404176
0.559016994375 -0.404508497188 0.654508497187
0.309016994375 -0.5 0.809016994375
0.809016994375 -0.309016994375 0.5
0.404508497188 -0.654508497187 0.559016994375
0.654508497187 -0.559016994375 0.404508497188
0.5 -0.809016994375 0.309016994375
0.0 -0.850650808352 0.525731112119
0.829833901363 -0.417374053247 0.25
0.675325404176 -0.667374053247 0.154508497188
0.925325404176 -0.26286555606 0.0
0.904508497187 -0.154508497188 0.25
0.809016994375 0.0 0.5
0.667374053247 0.154508497188 0.675325404176
-0.154508497188 0.25 0.904508497187
0.0 0.5 0.809016994375
0.154508497188 0.25 0.904508497187
-0.417374053247 0.25 0.829833901363
-0.26286555606 0.0 0.925325404176
0.417374053247 0.25 0.829833901363
-0.154508497188 -0.25 -0.904508497187
-0.309016994375 -0.5 -0.809016994375
-0.417374053247 -0.25 -0.829833901363
-0.525731112119 0.0 -0.850650808352
-0.809016994375 -0.309016994375 -0.5
0.809016994375 -0.309016994375 -0.5
0.654508497187 -0.559016994375 -0.404508497188
0.559016994375 -0.404508497188 -0.654508497187
0.404508497188 -0.654508497187 -0.559016994375
0.5 -0.809016994375 -0.309016994375
0.309016994375 -0.5 -0.809016994375
0.829833901363 -0.417374053247 -0.25
0.675325404176 -0.667374053247 -0.154508497188
0.850650808352 -0.525731112119 0.0
0.962662702088 -0.13143277803 0.0
0.867171199276 -0.285941275218 -0.25
0.904508497187 -0.154508497188 -0.25
0.887988106264 -0.394298334089 0.0
0.762988106264 -0.596552582683 0.077254248594
0.587662702088 -0.738195523811 -0.0772542485935
-0.809016994375 0.309016994375 -0.5
-0.904508497187 0.154508497188 -0.25
-0.829833901363 0.417374053247 -0.25
-0.925325404176 0.26286555606 0.0
-0.850650808352 0.525731112119 0.0
-0.404508497188 0.654508497187 -0.559016994375
-0.309016994375 0.5 -0.809016994375
-0.559016994375 0.404508497188 -0.654508497187
-0.654508497187 0.559016994375 -0.404508497188
-0.850650808352 -0.525731112119 0.0
-0.675325404176 -0.667374053247 -0.154508497188
-0.675325404176 -0.667374053247 0.154508497188
-0.5 -0.809016994375 0.0
-0.5 -0.809016994375 -0.309016994375
-0.5 -0.809016994375 0.309016994375
-0.25 -0.904508497187 -0.154508497188
-0.25 -0.904508497187 0.154508497188
0.0 -1.0 0.0
-0.25 -0.829833901363 -0.417374053247
0.0 -0.925325404176 -0.26286555606
0.0 -0.850650808352 -0.525731112119
-0.829833901363 -0.417374053247 0.25
-0.654508497187 -0.559016994375 0.404508497188
-0.809016994375 -0.309016994375 0.5
-0.309016994375 -0.5 0.809016994375
-0.809016994375 0.0 0.5
-0.904508497187 0.154508497188 0.25
-0.904508497187 -0.154508497188 0.25
-1.0 0.0 0.0
-0.925325404176 -0.26286555606 0.0
0.25 -0.829833901363 -0.417374053247
0.25 -0.904508497187 -0.154508497188
0.5 -0.809016994375 0.0
0.25 -0.904508497187 0.154508497188
0.25 0.867171199276 0.285941275218
0.0 0.962662702088 0.13143277803
0.0 0.925325404176 -0.26286555606
0.762988106264 0.596552582683 -0.077254248594
0.675325404176 0.667374053247 0.0
0.762988106264 0.596552582683 0.077254248594
0.675325404176 0.667374053247 0.154508497188
0.675325404176 0.667374053247 -0.154508497188
0.587662702088 0.738195523811 -0.077254248594
0.587662702088 0.738195523811 0.077254248594
0.5 0.809016994375 0.0
0.587662702088 0.738195523811 -0.231762745782
0.5 0.809016994375 -0.154508497188
0.587662702088 0.738195523811 0.231762745782
0.5 0.809016994375 0.154508497188
0.375 0.856762745781 -0.231762745782
0.375 0.856762745781 -0.077254248594
0.25 0.904508497187 -0.154508497188
0.25 0.904508497187 0.0
0.375 0.856762745781 0.077254248594
0.125 0.952254248593 -0.077254248594
0.125 0.952254248593 0.077254248594
0.25 0.904508497187 0.154508497188
0.375 0.856762745781 0.231762745782
0.0 0.25 0.904508497187
-0.077254248594 0.125 0.952254248593
0.077254248594 0.125 0.952254248593
0.0 0.0 1.0
-0.208687026624 0.125 0.914916950682
-0.13143277803 0.0 0.962662702088
0.208687026624 0.125 0.914916950682
0.13143277803 0.0 0.962662702088
0.26286555606 0.0 0.925325404176
-0.417374053247 -0.25 0.829833901363
-0.208687026624 -0.125 0.914916950682
-0.077254248594 -0.125 0.952254248593
-0.154508497188 -0.25 0.904508497187
0.0 -0.25 0.904508497187
0.077254248594 -0.125 0.952254248593
0.26286555606 0.0 -0.925325404176
0.208687026624 -0.125 -0.914916950682
0.13143277803 0.0 -0.962662702088
0.077254248594 -0.125 -0.952254248593
0.154508497188 -0.25 -0.904508497187
0.0 0.0 -1.0
0.0 -0.25 -0.904508497187
0.0 -0.5 -0.809016994375
-0.077254248594 -0.125 -0.952254248593
-0.13143277803 0.0 -0.962662702088
-0.208687026624 -0.125 -0.914916950682
-0.26286555606 0.0 -0.925325404176
0.850650808352 0.525731112119 0.0
0.829833901363 0.417374053247 0.25
0.742171199276 0.488195523811 0.327254248594
0.809016994375 0.309016994375 0.5
0.654508497187 0.559016994375 0.404508497188
0.208687026624 0.125 -0.914916950682
0.077254248594 0.125 -0.952254248593
0.154508497188 0.25 -0.904508497187
-0.077254248594 0.125 -0.952254248593
0.0 0.25 -0.904508497187
-0.208687026624 0.125 -0.914916950682
-0.154508497188 0.25 -0.904508497187
0.125 0.914916950682 0.208687026624
0.208687026623 -0.125 0.914916950682
0.285941275218 -0.25 0.867171199275
0.154508497188 -0.25 0.904508497187
0.340119804654 -0.125 0.877579652769
-0.667374053247 0.154508497188 -0.675325404176
-0.154508497188 -0.675325404176 0.667374053247
-0.404508497188 -0.654508497187 -0.559016994375
-0.559016994375 -0.404508497188 -0.654508497187
-0.654508497187 -0.559016994375 -0.404508497188
-0.762988106264 0.596552582683 0.077254248594
-0.752579652769 0.542374053247 0.202254248594
-0.840242354857 0.471552582683 0.125
0.154508497188 -0.675325404176 0.667374053247
0.856762745781 -0.231762745782 0.375
1.0 0.0 0.0
0.952254248593 0.077254248594 0.125
0.952254248593 -0.077254248594 0.125
0.904508497187 0.0 0.25
0.904508497187 0.154508497188 0.25
0.856762745781 0.077254248594 0.375
0.856762745781 -0.077254248594 0.375
0.856762745781 0.231762745782 0.375
0.809016994375 0.154508497188 0.5
0.809016994375 -0.154508497188 0.5
0.559016994375 0.404508497188 0.654508497187
0.809016994375 -0.154508497188 -0.5
0.856762745781 -0.231762745782 -0.375
0.856762745781 -0.077254248594 -0.375
0.809016994375 0.0 -0.5
0.856762745781 0.077254248594 -0.375
0.904508497187 0.0 -0.25
0.904508497187 0.154508497188 -0.25
0.809016994375 0.154508497188 -0.5
0.856762745781 0.231762745782 -0.375
0.809016994375 0.309016994375 -0.5
0.952254248593 -0.077254248594 -0.125
0.952254248593 0.077254248594 -0.125
0.738195523811 -0.231762745782 -0.587662702088
0.738195523811 -0.077254248594 -0.587662702088
0.667374053247 -0.154508497188 -0.675325404176
0.667374053247 0.0 -0.675325404176
0.738195523811 0.077254248594 -0.587662702088
0.667374053247 0.154508497188 -0.675325404176
0.596552582683 -0.077254248594 -0.762988106264
0.596552582683 0.077254248594 -0.762988106264
0.525731112119 0.0 -0.850650808352
0.738195523811 0.231762745782 -0.587662702088
0.962662702088 0.13143277803 0.0
0.914916950682 0.208687026624 -0.125
0.925325404176 0.26286555606 0.0
0.867171199275 0.285941275218 -0.25
0.877579652769 0.340119804654 -0.125
0.829833901363 0.417374053247 -0.25
0.819425447869 0.363195523811 -0.375
0.887988106264 0.394298334089 0.0
0.840242354857 0.471552582683 -0.125
0.742171199275 0.488195523811 -0.327254248594
0.752579652769 0.542374053247 -0.202254248594
0.664916950682 0.613195523811 -0.279508497188
0.654508497187 0.559016994375 -0.404508497188
0.731762745781 0.434016994375 -0.452254248594
0.684016994375 0.356762745782 -0.577254248593
0.606762745781 0.481762745782 -0.529508497188
0.559016994375 0.404508497188 -0.654508497187
0.481762745782 0.529508497188 -0.606762745781
0.529508497188 0.606762745781 -0.481762745782
0.404508497188 0.654508497187 -0.559016994375
0.434016994375 0.452254248594 -0.731762745781
0.356762745782 0.577254248593 -0.684016994375
0.309016994375 0.5 -0.809016994375
0.577254248593 0.684016994375 -0.356762745782
0.452254248594 0.731762745781 -0.434016994375
0.5 0.809016994375 -0.309016994375
0.613195523811 0.279508497188 -0.664916950682
0.542374053247 0.202254248594 -0.752579652769
0.488195523811 0.327254248594 -0.742171199275
0.417374053247 0.25 -0.829833901363
0.471552582683 0.125 -0.840242354857
0.363195523811 0.375 -0.819425447869
0.202254248594 0.75257965277 -0.542374053247
0.154508497188 0.675325404176 -0.667374053247
0.340119804654 0.125 0.877579652769
0.471552582683 0.125 0.840242354857
0.394298334089 0.0 0.887988106264
-0.471552582683 -0.125 0.840242354857
-0.363195523811 -0.375 0.819425447869
-0.285941275218 -0.25 0.867171199275
-0.231762745782 -0.375 0.856762745781
-0.154508497188 -0.5 0.809016994375
-0.077254248594 -0.375 0.856762745781
0.0 -0.5 0.809016994375
0.154508497188 -0.5 0.809016994375
0.077254248594 -0.375 0.856762745781
0.231762745782 -0.375 0.856762745781
0.0 -0.675325404176 0.667374053247
0.471552582683 -0.125 -0.840242354857
0.394298334089 0.0 -0.887988106264
0.340119804654 -0.125 -0.877579652769
0.417374053247 -0.25 -0.829833901363
0.363195523811 -0.375 -0.819425447869
[...]
CELL_DATA 666
SCALARS cell_data_0 double
LOOKUP_TABLE default
5.19659961728e-05
9.66886212147e-05
0.000115606080419
7.2029139113e-05
8.19445452316e-05
7.97429644966e-05
6.42612440233e-05
3.40938788246e-05
9.21635037981e-05
1.90487854353e-05
1.58126498713e-05
1.75531926734e-05
4.50584136276e-05
4.90436672487e-05
6.53234957113e-05
3.61218846196e-06
1.45859890758e-05
4.86851110094e-06
6.0457964685e-06
3.32199181244e-06
8.53386686369e-06
2.90475967742e-05
2.49534647708e-05
5.0434015008e-08
2.83378803037e-05
2.624632377e-05
2.15243585301e-05
1.19407386333e-05
1.63150315291e-05
1.76748680844e-05
9.74653136036e-08
1.01632745289e-05
5.62742882476e-06
1.17522654317e-06
2.62211006799e-06
6.41549469634e-06
4.88800604005e-05
1.63279153943e-05
2.16317763173e-05
5.10951500011e-05
4.68478184543e-05
4.09597305837e-05
4.71513949795e-05
3.33783426564e-05
4.06973493726e-05
4.37679367876e-05
1.27046182348e-05
1.82589851998e-05
1.73820142043e-05
2.17284921443e-05
3.38140517079e-06
3.79919872316e-06
2.36358595094e-06
2.36434609436e-05
1.06349658667e-06
2.5307201478e-05
1.02931282204e-06
9.97154065122e-07
2.52236829958e-05
2.0473054149e-06
2.95480402967e-05
2.05429883937e-05
1.98644876776e-05
2.27438620795e-05
3.40060657807e-07
2.15857399869e-06
2.35291458836e-06
2.69575979449e-05
2.51853594652e-05
2.07450387139e-05
2.00047767774e-06
6.25236953703e-07
6.3408390491e-07
1.33590997141e-05
6.46807343446e-06
1.11126675711e-06
1.49944449462e-06
2.08389557398e-06
8.24152598053e-06
2.09351589688e-05
1.68011383244e-05
1.09180906443e-05
6.9359694738e-06
0.000200077410445
0.00035248388106
0.000242531675432
0.000308450388951
0.000186961590427
0.000323480065206
0.000255924536362
0.000388382102678
0.000140883930424
0.000248913990065
0.000161877770109
0.000214455993747
0.000326366201962
0.000254443347054
0.000163780586984
0.000268718974374
0.000270986448718
0.000246401235262
0.00031313959977
3.08911905724e-05
0.00016845404339
0.000281406057108
0.000226804712113
0.000239573509109
0.000280743139257
0.000164276011747
6.32447258453e-05
0.000157431443248
0.000154138448215
0.000323901272711
0.000239452464904
0.000297382117077
0.000326584764015
0.000373645137318
0.000209783594132
0.000296581240385
0.000185468693349
0.000110834709905
7.83137261681e-05
0.000120514415505
6.40885945131e-05
5.64200094247e-05
0.000155427033051
1.73394345253e-06
2.22039763747e-06
5.01664328354e-07
4.0298089966e-06
9.73234708703e-05
0.000119091531112
9.71227453747e-06
6.21459872823e-05
4.04045603602e-05
4.16160844234e-05
7.57068761823e-05
4.27748629963e-05
3.5255467581e-05
5.03012608479e-05
1.76470586837e-05
1.33801982129e-05
1.4942621979e-05
1.5188904059e-05
2.28500531505e-06
1.98582654405e-07
1.46565931487e-07
2.34132631923e-05
5.6228936097e-05
2.06270804321e-05
9.41615680241e-05
6.05597482452e-05
5.28430015818e-05
2.16182733079e-05
2.88199229146e-05
4.23211306821e-05
3.95782993751e-05
2.5400884446e-05
2.39269708201e-05
2.35413724555e-05
1.86515619565e-05
3.60055672471e-05
3.54409684834e-05
2.12946835526e-05
2.00850977349e-05
1.64433784065e-05
1.77983282894e-05
3.07744378936e-05
1.59090272001e-05
1.6402706509e-05
1.62338165162e-05
1.86564268141e-05
3.64561475309e-05
1.95177872278e-05
2.18332978386e-05
2.03904995055e-05
1.72252301093e-05
2.66954335936e-05
2.24131191978e-05
1.58199202468e-05
1.54072720546e-05
1.43686816385e-05
1.24320689142e-05
4.14445451114e-05
2.11353112004e-05
2.26315255434e-05
2.29829525922e-05
1.52468429065e-05
1.08524756858e-05
1.42069212998e-05
1.65936048056e-05
1.38200399716e-05
2.86309372247e-05
2.86138593071e-05
8.2544881066e-05
7.25239745029e-05
2.96685777708e-05
2.27210258577e-05
1.00126251417e-06
1.87234812833e-06
2.00735383215e-06
7.86919321863e-05
3.01071422576e-05
1.73447297138e-05
1.80612403014e-05
1.33055534882e-05
1.72483436621e-05
1.76481505938e-05
2.37959736292e-05
1.20066166687e-05
1.66417710012e-05
1.49350279398e-05
1.83132445081e-05
5.38770210313e-05
3.07090016495e-05
2.7614708814e-05
4.35391243619e-05
5.45495077518e-05
1.85618154119e-05
1.9117329619e-05
1.65185487154e-05
1.5128107498e-05
1.68806526351e-05
2.00705101064e-05
1.41492804453e-05
1.95644989412e-05
1.79952873533e-05
1.95864147534e-05
4.26040101232e-05
5.9628720325e-05
2.29330027179e-05
3.42854958859e-05
8.48469380111e-05
9.46309706611e-05
1.80232122927e-05
1.28872212656e-05
1.16419644148e-05
7.84891978034e-06
1.93458635022e-06
1.48953925956e-06
4.39976664542e-06
8.49646002945e-06
1.48586913107e-06
1.30027670266e-06
1.59357839897e-06
3.52110459151e-06
1.13361841796e-05
1.19084629455e-05
1.42422784952e-06
2.45775786867e-07
2.0871093399e-06
3.21764003046e-06
1.71489333412e-06
2.75830615173e-06
3.63463780359e-06
7.47916750329e-06
3.66768402388e-06
4.20572235239e-06
3.8873858965e-06
5.74744139582e-06
4.1153268078e-06
2.61148864864e-06
1.49266732478e-06
5.00193577063e-06
5.11229026319e-06
2.25958274113e-06
5.95745038521e-07
1.68654330889e-06
2.7130592687e-06
6.68745592695e-07
6.32631211674e-06
3.45604391355e-06
2.92884275967e-06
1.31834157414e-06
1.01135698993e-07
4.46636789993e-07
2.51939692205e-06
2.10892159686e-06
1.72948644524e-06
1.71683052706e-06
2.05375670289e-06
1.6068084556e-06
2.17758111317e-06
1.42595231766e-06
6.47270276518e-07
2.92085389019e-07
8.8425017045e-07
1.13575598635e-06
5.29531344569e-07
1.42357592021e-06
2.83673119596e-06
9.58854700966e-07
4.22618458693e-06
4.65074833331e-06
3.31643827029e-06
3.56210034204e-06
4.75574683917e-06
6.0424033031e-06
4.9517382685e-06
3.47752101508e-06
2.60680352944e-06
2.44311291739e-06
1.49915401382e-06
1.52458445051e-06
2.47375886658e-06
3.52571308209e-06
1.08190963588e-06
7.42452694282e-06
2.77852988769e-06
7.44370590319e-06
5.76423359623e-06
8.86821406658e-06
9.91160582725e-07
3.01005485956e-06
3.93975607935e-06
4.22902448595e-06
8.93091538582e-06
9.03016307786e-06
7.4993453105e-06
6.73147030926e-06
4.90043930293e-06
3.92518169916e-06
1.37263968029e-06
9.38858388723e-07
4.3765890231e-06
3.27907573229e-06
4.06418026928e-06
1.52269457848e-06
9.38497216504e-07
6.52839649375e-07
2.55333789162e-06
6.36194022868e-07
5.30234829832e-07
9.88138120223e-06
4.74271229985e-06
4.88774385118e-06
1.97277801301e-06
9.82975249603e-06
6.85635825443e-06
3.88566826546e-06
9.18215217028e-06
1.21886474633e-05
3.32452904471e-06
1.00503957271e-05
3.95796352452e-07
2.19606275127e-06
6.00049717893e-07
3.19257810078e-06
5.59113268863e-06
6.02564703057e-06
9.19618172047e-07
2.48176791716e-06
3.01413811141e-06
3.6169199709e-06
3.47989779359e-06
5.25470063131e-07
1.76072678346e-07
3.67575466117e-06
3.7470961475e-06
3.66932683797e-06
7.18569756446e-06
3.23785467866e-05
2.33773107585e-05
3.70547523828e-05
6.83512232803e-06
1.28006838558e-06
7.51468041454e-06
1.224140828e-07
2.00260156539e-05
2.50714805057e-05
3.35814042853e-06
9.21625311774e-07
1.11005285528e-06
1.02934092486e-05
2.01381388879e-06
7.86765343893e-06
1.16070320568e-05
1.4789405745e-05
4.9224995309e-06
1.67367929818e-06
2.99142916557e-06
1.42901401735e-05
1.35417320173e-07
1.54189497304e-06
4.47263861717e-06
6.68484248088e-07
1.72822885297e-07
4.88491016553e-06
1.10141973958e-05
6.68343165699e-06
9.74192706183e-07
1.62515891577e-06
6.46383140456e-06
1.23863419726e-05
5.12930447619e-06
3.68241281624e-06
6.46256479567e-07
1.3941210986e-05
7.52100026387e-06
1.33554717146e-05
1.32260826347e-05
1.78384267836e-05
2.86146481904e-05
1.89026631107e-05
7.95090096623e-06
1.74000112154e-05
3.97709673133e-06
1.2357868772e-05
5.31026902815e-06
8.1840984717e-08
1.07768294843e-05
6.33548135325e-06
1.73956313364e-05
2.75192784887e-05
1.41703497761e-05
9.52399777805e-06
1.14063802219e-05
3.78919012124e-06
5.33400211912e-06
2.22875391512e-05
4.56866584509e-06
6.46956493711e-05
8.74069795732e-05
4.10861221179e-05
5.98232186145e-06
8.8880316998e-06
2.60542104381e-05
2.14032180646e-05
2.8727752901e-06
2.26375390863e-06
1.64758095638e-06
1.9726903171e-07
1.1605998027e-05
4.40943377391e-06
7.71683995182e-06
5.51049081074e-06
1.35626368839e-06
8.50556771862e-06
7.63907964161e-06
1.25313052324e-05
2.66331031714e-06
2.42740046646e-06
1.14806312255e-05
6.0873091438e-06
4.66809484312e-06
2.94419693024e-07
1.18679429142e-05
5.92260157008e-08
1.44328999424e-05
6.99978299473e-07
1.91484314643e-06
7.32332158236e-06
1.50359169597e-05
3.72711642236e-06
3.43341832181e-06
4.79888919737e-06
1.44305340511e-05
1.05539131768e-05
7.29343967101e-06
9.85372003092e-06
1.41684481845e-05
8.54736426227e-06
1.013096144e-05
3.39651739081e-06
3.01299594019e-05
1.87252173789e-05
1.01187223978e-05
1.83157539253e-05
1.4112170493e-05
9.82872648377e-06
6.68330108641e-06
2.19947552891e-06
6.17565693954e-08
9.01557390778e-07
2.79511798861e-07
1.45691218034e-07
1.97291382066e-06
7.50235166326e-07
2.16500704219e-06
1.87954634371e-06
5.61238508373e-06
4.86094201438e-07
2.83118529415e-06
5.06076240489e-06
5.83954733258e-06
5.69968490553e-06
1.22877560248e-05
9.16379469771e-06
6.04844058396e-07
5.43838414161e-06
6.32464835354e-06
2.86956917803e-06
6.65089090657e-06
6.61039698221e-06
5.46336864819e-06
4.26779749826e-09
4.05620511868e-07
2.23761081277e-06
9.00153753304e-06
7.13355375001e-06
1.62910836962e-06
1.20367294942e-07
5.10938125763e-08
1.29929618184e-07
5.49193207332e-07
2.19363243481e-06
1.80721584717e-06
4.34443013312e-06
5.08838397279e-06
1.73145824621e-05
6.84918517389e-05
0.000177227970165
0.000150634187887
3.50319578949e-05
3.52019428073e-05
3.29984002762e-05
5.98656629941e-05
7.69512176773e-05
7.48949486171e-05
3.35400946355e-05
7.52625265055e-05
0.000111636201489
5.53863482359e-05
2.1628327102e-05
3.40213068045e-05
3.85344168858e-05
3.22226193908e-05
3.13313592616e-05
4.75377667951e-06
1.92196425851e-06
4.18074572828e-07
3.463181129e-07
3.35917992309e-06
8.97713717095e-07
1.83328679003e-06
1.75390551559e-06
4.22739439002e-06
2.76600140964e-06
3.52527574504e-06
1.85235096353e-06
1.03759251337e-05
1.79924034932e-06
2.26778564367e-07
5.62787789686e-07
1.21048032634e-05
4.59473420284e-07
6.58441072068e-06
1.11764754758e-06
4.32591646727e-06
1.68931904279e-07
1.15128828363e-06
3.61051513512e-07
4.10374329118e-06
2.87286581833e-06
1.02533913893e-05
1.69760928931e-05
1.3603473239e-05
6.21753389147e-06
1.0337269985e-05
2.93070408225e-05
9.67739542909e-06
8.42396088362e-07
1.01071831422e-06
1.15685385825e-07
2.9419880898e-07
4.3167687371e-07
9.63897183347e-06
2.672938271e-05
1.15871628188e-05
2.5039165882e-05
1.02752400619e-05
1.24417169132e-05
4.53515520536e-06
8.55406909103e-08
1.31737050394e-07
5.78268772501e-06
2.08401230958e-05
2.51500525037e-05
6.61228316699e-06
1.46167403596e-07
8.98924135054e-06
8.68487233574e-06
6.83356935932e-06
1.09970717432e-07
2.44975602959e-07
8.80298624803e-06
8.37603586712e-06
5.92898536771e-08
8.66035067787e-06
1.65056310744e-06
1.7644484485e-06
9.004447026e-08
8.54477835207e-06
3.18278478421e-06
8.76712045466e-06
4.70339413758e-09
4.85780254148e-08
3.14595593898e-06
8.72491622195e-06
2.75536673104e-08
1.51322725954e-07
8.70082089343e-08
2.90738973249e-06
6.85230262561e-08
1.01852543281e-07
1.04879185258e-06
1.41282129623e-05
1.1236839506e-05
1.42239871944e-05
1.92640671193e-05
8.79770885676e-06
3.55385210496e-07
8.30098759712e-06
4.47221842967e-06
6.18205962765e-06
3.50502285452e-06
8.27020198253e-06
9.64583413027e-06
1.21171615568e-05
1.35476012164e-05
1.35988143724e-05
1.18402662273e-05
1.43772940187e-05
1.72687428964e-05
1.75354478149e-05
1.44996669706e-05
2.2891694956e-05
1.92985459087e-05
1.21013695168e-06
8.16813498295e-07
1.26769171558e-05
4.79278470742e-06
9.80779298211e-06
1.41088908071e-05
1.3918210189e-05
1.81107725793e-05
2.0201739105e-05
1.51057957739e-05
1.24786978751e-05
1.43404440055e-05
1.41648930113e-05
1.23496097808e-05
8.77234037615e-06
3.69725838446e-07
9.75919602866e-06
4.73232706536e-06
4.61508896191e-06
2.15142880238e-07
9.75660866681e-06
8.68369139368e-06
1.5436617537e-05
1.84614282912e-05
1.82440991817e-05
1.49046515331e-05
2.49191063616e-05
9.39332722354e-06
4.95834131053e-06
1.23189246136e-09
1.12549588991e-07
9.42808873081e-08
8.94757851906e-06
7.80688800493e-06
1.3570216339e-05
5.34889312752e-06
8.06242694381e-06
1.2647242151e-05

