# vtk DataFile Version 3.0
File Name: Molecule/sphere_test/sphere_test_0-s2.vtk
ASCII
DATASET UNSTRUCTURED_GRID
FIELD FieldData 1
TIME 1 1 double
0.0
POINTS 80 double
0.850650808352 -0.525731112119 0.0
0.809016994375 -0.309016994375 -0.5
1.0 0.0 0.0
0.809016994375 0.309016994375 -0.5
0.525731112119 0.0 -0.850650808352
0.525731112119 0.0 0.850650808352
0.309016994375 -0.5 0.809016994375
0.809016994375 -0.309016994375 0.5
0.5 -0.809016994375 0.309016994375
0.0 -0.850650808352 0.525731112119
0.309016994375 -0.5 -0.809016994375
0.0 0.0 -1.0
-0.309016994375 -0.5 -0.809016994375
0.0 -0.850650808352 -0.525731112119
-0.525731112119 0.0 -0.850650808352
0.809016994375 0.309016994375 0.5
0.850650808352 0.525731112119 0.0
0.309016994375 0.5 0.809016994375
-0.809016994375 -0.309016994375 -0.5
-0.809016994375 0.309016994375 -0.5
-1.0 0.0 0.0
-0.850650808352 -0.525731112119 0.0
-0.850650808352 0.525731112119 0.0
-0.309016994375 0.5 -0.809016994375
-0.5 0.809016994375 -0.309016994375
-0.5 -0.809016994375 -0.309016994375
-0.5 -0.809016994375 0.309016994375
0.0 -1.0 0.0
-0.809016994375 -0.309016994375 0.5
-0.309016994375 -0.5 0.809016994375
-0.809016994375 0.309016994375 0.5
0.5 -0.809016994375 -0.309016994375
0.309016994375 0.5 -0.809016994375
0.829833901363 0.417374053247 -0.25
0.675325404176 0.667374053247 -0.154508497188
0.654508497187 0.559016994375 -0.404508497188
0.5 0.809016994375 -0.309016994375
0.559016994375 0.404508497188 -0.654508497187
0.404508497188 0.654508497187 -0.559016994375
0.25 0.829833901363 -0.417374053247
0.154508497188 0.675325404176 -0.667374053247
0.0 0.850650808352 -0.525731112119
0.675325404176 0.667374053247 0.154508497188
0.5 0.809016994375 0.0
0.5 0.809016994375 0.309016994375
0.25 0.904508497187 -0.154508497188
0.25 0.904508497187 0.154508497188
0.0 1.0 0.0
0.0 0.925325404176 -0.26286555606
0.25 0.829833901363 0.417374053247
0.0 0.925325404176 0.26286555606
0.0 0.850650808352 0.525731112119
-0.25 0.829833901363 0.417374053247
-0.25 0.904508497187 0.154508497188
-0.5 0.809016994375 0.309016994375
-0.25 0.904508497187 -0.154508497188
-0.5 0.809016994375 0.0
-0.25 0.829833901363 -0.417374053247
-0.675325404176 0.667374053247 0.154508497188
-0.675325404176 0.667374053247 -0.154508497188
-0.154508497188 0.675325404176 0.667374053247
-0.404508497188 0.654508497187 0.559016994375
-0.309016994375 0.5 0.809016994375
-0.654508497187 0.559016994375 0.404508497188
-0.559016994375 0.404508497188 0.654508497187
-0.829833901363 0.417374053247 0.25
-0.417374053247 0.25 0.829833901363
-0.667374053247 0.154508497188 0.675325404176
-0.525731112119 0.0 0.850650808352
0.154508497188 0.675325404176 0.667374053247
0.0 0.5 0.809016994375
-0.154508497188 0.25 0.904508497187
0.154508497188 0.25 0.904508497187
0.0 0.0 1.0
-0.26286555606 0.0 0.925325404176
-0.417374053247 -0.25 0.829833901363
-0.154508497188 -0.25 0.904508497187
0.0 -0.5 0.809016994375
0.154508497188 -0.25 0.904508497187
0.404508497188 0.654508497187 0.559016994375

CELLS 156 624
3 0 1 2
3 1 3 2
3 1 4 3
3 5 6 7
3 6 8 7
3 6 9 8
3 7 8 0
3 4 10 11
3 10 12 11
3 10 13 12
3 11 12 14
3 0 2 7
3 2 15 7
3 2 16 15
3 7 15 5
3 15 17 5
3 14 18 19
3 18 20 19
3 18 21 20
3 19 20 22
3 23 19 24
3 23 14 19
3 21 25 26
3 25 27 26
3 25 13 27
3 26 27 9
3 21 26 28
3 26 29 28
3 26 9 29
3 30 20 28
3 28 20 21
3 14 12 18
3 12 25 18
3 12 13 25
3 18 25 21
3 13 31 27
3 31 8 27
3 31 0 8
3 27 8 9
3 4 1 10
3 1 31 10
3 1 0 31
3 10 31 13
3 4 11 32
3 11 23 32
3 11 14 23
3 3 33 2
3 2 33 16
3 16 33 34
3 33 35 34
3 33 3 35
3 34 35 36
3 3 37 35
3 37 38 35
3 37 32 38
3 35 38 36
3 32 37 4
3 4 37 3
3 36 38 39
3 38 40 39
3 38 32 40
3 39 40 41
3 16 34 42
3 34 43 42
3 34 36 43
3 42 43 44
3 36 45 43
3 45 46 43
3 45 47 46
3 43 46 44
3 36 39 45
3 39 48 45
3 39 41 48
3 45 48 47
3 44 46 49
3 46 50 49
3 46 47 50
3 49 50 51
3 51 50 52
3 50 53 52
3 50 47 53
3 52 53 54
3 47 55 53
3 55 56 53
3 55 24 56
3 53 56 54
3 47 48 55
3 48 57 55
3 48 41 57
3 55 57 24
3 54 56 58
3 56 59 58
3 56 24 59
3 58 59 22
3 51 52 60
3 52 61 60
3 52 54 61
3 60 61 62
3 54 63 61
3 63 64 61
3 63 30 64
3 61 64 62
3 54 58 63
3 58 65 63
3 58 22 65
3 63 65 30
3 62 64 66
3 64 67 66
3 64 30 67
3 66 67 68
3 51 60 69
3 60 70 69
3 60 62 70
3 69 70 17
3 62 71 70
3 71 72 70
3 71 73 72
3 70 72 17
3 62 66 71
3 66 74 71
3 66 68 74
3 71 74 73
3 17 72 5
3 72 73 5
3 68 75 74
3 75 76 74
3 75 29 76
3 74 76 73
3 29 77 76
3 77 78 76
3 77 6 78
3 76 78 73
3 6 77 9
3 9 77 29
3 73 78 5
3 78 6 5
3 16 42 15
3 42 44 15
3 44 79 15
3 79 17 15
3 44 49 79
3 49 69 79
3 49 51 69
3 79 69 17
3 24 57 23
3 23 57 41
3 22 59 19
3 19 59 24
3 29 75 28
3 28 75 68
3 68 67 28
3 67 30 28
3 30 65 20
3 65 22 20
3 41 40 23
3 23 40 32

CELL_TYPES 156
5
5
5
5
5
5
5
5
5
5
5
5
5
5
5
5
5
5
5
5
5
5
5
5
5
5
5
5
5
5
5
5
5
5
5
5
5
5
5
5
5
5
5
5
5
5
5
5
5
5
5
5
5
5
5
5
5
5
5
5
5
5
5
5
5
5
5
5
5
5
5
5
5
5
5
5
5
5
5
5
5
5
5
5
5
5
5
5
5
5
5
5
5
5
5
5
5
5
5
5
5
5
5
5
5
5
5
5
5
5
5
5
5
5
5
5
5
5
5
5
5
5
5
5
5
5
5
5
5
5
5
5
5
5
5
5
5
5
5
5
5
5
5
5
5
5
5
5
5
5
5
5
5
5
5
5

CELL_DATA 156
SCALARS cell_data_0 double
LOOKUP_TABLE default
8.21663329597e-06
6.46132888252e-06
1.96650266474e-05
7.00521761547e-05
4.80384414069e-05
3.78811374886e-05
1.22543400497e-05
0.000201772563193
0.000167002387372
8.72323381835e-05
0.000147771155281
1.57906785632e-05
2.81038186422e-05
1.30151480779e-05
4.16669271756e-05
4.39548552662e-05
0.000100590881341
2.15262744913e-06
5.95819626759e-06
1.62072589595e-05
9.9876054097e-06
9.74423496702e-05
1.21904430443e-05
1.45457999089e-05
4.26580634055e-06
2.01330663523e-05
2.09820535244e-05
4.71994023112e-05
3.96260020698e-05
2.91248102782e-05
1.74013274451e-05
0.000100582066668
3.66245525375e-06
1.14153088965e-06
4.51673911533e-06
3.75083146345e-06
3.19031777989e-06
3.32894803569e-07
9.71576592571e-06
0.000130385163321
8.18226938687e-05
6.02812947399e-06
7.35990850917e-05
7.32309325287e-05
3.78943334451e-05
0.000142407968915
1.60288565294e-07
4.64106520592e-06
5.50560354266e-06
5.07837034467e-06
3.4901014483e-06
1.01621322059e-05
3.08038527014e-06
7.85486533424e-06
7.10317059601e-06
1.5835541819e-05
2.14462393621e-05
1.51134808236e-05
1.06660161998e-05
4.01061959309e-06
5.43553727903e-06
2.70526433626e-06
6.23176082689e-06
5.2235030784e-06
9.86751115395e-06
2.23385057512e-05
1.61367696544e-05
1.00489358221e-05
5.40594417975e-06
2.57308791862e-05
1.09191154349e-05
6.20628059423e-06
4.3692402929e-06
4.45035339879e-06
1.47603149039e-05
2.05388764559e-06
9.75962187662e-07
5.30746653549e-06
6.66632451592e-06
5.67977241906e-06
3.60886994407e-06
5.28839463307e-06
1.87906006018e-06
1.87794466529e-06
2.0795237896e-06
4.44651982396e-06
2.37320544285e-06
2.16005304108e-05
2.21153406478e-05
1.95497102807e-05
2.4067733777e-06
2.21708337565e-05
1.26825350709e-05
3.4307491393e-05
9.86539057097e-06
7.07320694389e-06
3.26788399029e-06
1.40092588956e-05
2.5573847369e-06
1.74209758002e-05
5.85233694608e-06
1.99912088021e-06
1.20357713665e-06
1.87907433299e-05
3.23807094329e-05
3.5133189282e-06
9.89471312023e-06
5.61823803325e-06
7.13531401741e-06
9.42700369651e-07
3.13022103066e-06
3.43913970734e-05
5.98562163024e-06
1.0607386449e-05
5.51216768234e-06
4.71869486383e-05
8.49457687611e-05
3.05303279235e-06
1.96588227621e-05
7.78574375381e-06
3.62842723288e-06
7.34529970461e-05
8.88747126018e-05
0.000133930755246
1.16797617453e-05
4.28416370494e-06
2.24294716098e-05
7.35811987747e-05
2.95393447885e-05
5.7063487053e-06
1.53345605634e-05
9.46012160139e-05
3.19394348648e-05
3.6936287206e-05
0.000155646440594
9.30210069154e-05
2.35228191298e-06
1.48614939525e-05
1.04547200341e-05
3.96295003645e-05
1.46099510016e-05
1.09760408688e-05
2.54432959161e-06
7.90264498301e-06
3.46222883889e-05
3.61159808292e-05
4.20536987285e-05
2.94900701599e-05
4.26397365945e-05
1.13692068956e-05
1.3087518827e-05
2.01325113646e-05
7.66409792752e-06
3.11953374919e-05
5.15907779531e-06
4.72606028729e-06

