# vtk DataFile Version 3.0
File Name: Molecule/methanol/methanol_8.0-2.vtk
ASCII
DATASET UNSTRUCTURED_GRID
FIELD FieldData 1
TIME 1 1 double
0.0
POINTS 419 double
1.611 0.0 -0.359
1.569 -0.375 -0.355
1.403 0.0 -0.933
1.445 -0.731 -0.342
1.245 -1.05 -0.322
1.252 -0.666 -0.918
0.98 -1.317 -0.296
1.07 -0.957 -0.9
0.828 -1.2 -0.876
0.662 -1.518 -0.264
0.538 -1.382 -0.847
0.308 -1.642 -0.229
0.216 -1.496 -0.815
-0.065 -1.684 -0.192
-0.124 -1.534 -0.781
-0.438 -1.642 -0.155
-0.464 -1.496 -0.747
-0.793 -1.518 -0.119
-0.787 -1.382 -0.715
-1.11 -1.317 -0.088
-1.076 -1.2 -0.686
-1.376 -1.05 -0.061
-1.318 -0.957 -0.662
-1.576 -0.731 -0.042
-1.5 -0.666 -0.644
-1.7 -0.375 -0.029
-1.613 -0.341 -0.633
-1.742 0.0 -0.025
-1.7 0.375 -0.029
-1.651 0.0 -0.629
-1.613 0.341 -0.633
-1.576 0.731 -0.042
-1.5 0.666 -0.644
-1.376 1.05 -0.061
-1.318 0.957 -0.662
-1.11 1.317 -0.088
-1.076 1.2 -0.686
-0.793 1.518 -0.119
-0.787 1.382 -0.715
-0.438 1.642 -0.155
-0.464 1.496 -0.747
-0.065 1.684 -0.192
-0.124 1.534 -0.781
0.308 1.642 -0.229
0.216 1.496 -0.815
0.662 1.518 -0.264
0.538 1.382 -0.847
0.98 1.317 -0.296
0.828 1.2 -0.876
1.245 1.05 -0.322
1.07 0.957 -0.9
1.445 0.731 -0.342
1.252 0.666 -0.918
1.569 0.375 -0.355
1.365 0.341 -0.929
1.907 0.0 0.656
1.87 0.368 0.656
1.87 0.184 0.974
1.87 -0.184 0.974
1.87 -0.368 0.656
1.87 -0.184 0.337
1.87 0.184 0.337
1.763 0.626 1.017
1.763 0.361 1.281
1.763 -0.0 1.378
1.763 -0.361 1.281
1.763 -0.626 1.017
1.763 -0.722 0.656
1.763 -0.626 0.294
1.763 -0.361 0.03
1.763 -0.0 -0.067
1.763 0.361 0.03
1.763 0.626 0.294
1.763 0.722 0.656
1.588 0.985 1.014
1.588 0.803 1.33
1.588 0.524 1.564
1.588 0.182 1.688
1.588 -0.182 1.688
1.588 -0.524 1.564
1.588 -0.803 1.33
1.588 -0.985 1.014
1.588 -1.049 0.656
1.588 -0.985 0.297
1.588 -0.803 -0.018
1.588 0.803 -0.018
1.588 0.985 0.297
1.588 1.049 0.656
1.354 1.285 1.016
1.354 1.14 1.349
1.354 0.911 1.631
1.354 0.614 1.841
1.354 0.272 1.962
1.354 -0.091 1.987
1.354 -0.447 1.913
1.354 -0.77 1.746
1.354 -1.035 1.498
1.354 -1.224 1.187
1.354 -1.322 0.837
1.354 -1.322 0.474
1.354 -1.224 0.124
1.354 1.14 -0.038
1.354 1.285 0.296
1.354 1.335 0.656
1.068 1.527 1.018
1.068 1.402 1.36
1.068 1.202 1.664
1.068 0.937 1.914
1.068 0.622 2.097
1.068 0.273 2.201
1.068 -0.091 2.222
1.068 -0.45 2.159
1.068 -0.785 2.015
1.068 -1.077 1.797
1.068 -1.311 1.518
1.068 -1.475 1.192
1.068 -1.559 0.838
1.068 -1.559 0.473
1.068 -1.475 0.119
1.068 1.402 -0.049
1.068 1.527 0.294
1.068 1.569 0.656
0.741 1.706 1.018
0.741 1.593 1.365
0.741 1.411 1.681
0.741 1.167 1.952
0.741 0.872 2.166
0.741 0.539 2.314
0.741 0.182 2.39
0.741 -0.182 2.39
0.741 -0.539 2.314
0.741 -0.872 2.166
0.741 -1.167 1.952
0.741 -1.411 1.681
0.741 -1.593 1.365
0.741 -1.706 1.018
0.741 -1.744 0.656
0.741 -1.706 0.293
0.741 -1.593 -0.054
0.741 1.593 -0.054
0.741 1.706 0.293
0.741 1.744 0.656
0.387 1.816 1.017
0.387 1.71 1.364
0.387 1.539 1.684
0.387 1.309 1.965
0.387 1.028 2.195
0.387 0.708 2.366
0.387 0.361 2.471
0.387 0.0 2.507
0.387 -0.361 2.471
0.387 -0.708 2.366
0.387 -1.028 2.195
0.387 -1.309 1.965
0.387 -1.539 1.684
0.387 -1.71 1.364
0.387 -1.816 1.017
0.387 -1.851 0.656
0.387 -1.816 0.294
0.387 -1.71 -0.053
0.387 1.71 -0.053
0.387 1.816 0.294
0.387 1.851 0.656
0.019 1.853 1.013
0.019 1.752 1.357
0.019 1.588 1.676
0.019 1.366 1.958
0.019 1.095 2.193
0.019 0.784 2.373
0.019 0.445 2.49
0.019 0.09 2.541
0.019 -0.269 2.524
0.019 -0.617 2.439
0.019 -0.944 2.29
0.019 -1.236 2.082
0.019 -1.484 1.822
0.019 -1.678 1.521
0.019 -1.811 1.187
0.019 -1.879 0.835
0.019 -1.879 0.476
0.019 -1.811 0.124
0.019 1.853 0.298
0.019 1.888 0.656
-0.349 1.851 0.656
-0.349 1.816 1.017
-0.349 1.71 1.364
-0.349 1.539 1.684
-0.349 1.309 1.965
-0.349 1.028 2.195
-0.349 0.708 2.366
-0.349 0.361 2.471
-0.349 0.0 2.507
-0.349 -0.361 2.471
-0.349 -0.708 2.366
-0.349 -1.028 2.195
-0.349 -1.309 1.965
-0.349 -1.539 1.684
-0.349 -1.71 1.364
-0.349 -1.816 1.017
-0.349 -1.851 0.656
-0.349 -1.816 0.294
-0.349 1.816 0.294
-0.703 1.744 0.656
-0.703 1.706 1.018
-0.703 1.593 1.365
-0.703 1.411 1.681
-0.703 1.167 1.952
-0.703 0.872 2.166
-0.703 0.539 2.314
-0.703 0.182 2.39
-0.703 -0.182 2.39
-0.703 -0.539 2.314
-0.703 -0.872 2.166
-0.703 -1.167 1.952
-0.703 -1.411 1.681
-0.703 -1.593 1.365
-0.703 -1.706 1.018
-0.703 -1.744 0.656
-0.703 -1.706 0.293
-0.703 1.706 0.293
-1.03 1.569 0.656
-1.03 1.527 1.018
-1.03 1.402 1.36
-1.03 1.202 1.664
-1.03 0.937 1.914
-1.03 0.622 2.097
-1.03 0.273 2.201
-1.03 -0.091 2.222
-1.03 -0.45 2.159
-1.03 -0.785 2.015
-1.03 -1.077 1.797
-1.03 -1.311 1.518
-1.03 -1.475 1.192
-1.03 -1.559 0.838
-1.03 -1.559 0.473
-1.03 -1.475 0.119
-1.03 1.527 0.294
-1.316 1.335 0.656
-1.316 1.285 1.016
-1.316 1.14 1.349
-1.316 0.911 1.631
-1.316 0.614 1.841
-1.316 0.272 1.962
-1.316 -0.091 1.987
-1.316 -0.447 1.913
-1.316 -0.77 1.746
-1.316 -1.035 1.498
-1.316 -1.224 1.187
-1.316 -1.322 0.837
-1.316 -1.322 0.474
-1.316 -1.224 0.124
-1.316 1.285 0.296
-1.55 1.049 0.656
-1.55 0.985 1.014
-1.55 0.803 1.33
-1.55 0.524 1.564
-1.55 0.182 1.688
-1.55 -0.182 1.688
-1.55 -0.524 1.564
-1.55 -0.803 1.33
-1.55 -0.985 1.014
-1.55 -1.049 0.656
-1.55 -0.985 0.297
-1.55 0.985 0.297
-1.725 0.722 0.656
-1.725 0.626 1.017
-1.725 0.361 1.281
-1.725 -0.0 1.378
-1.725 -0.361 1.281
-1.725 -0.626 1.017
-1.725 -0.722 0.656
-1.725 -0.626 0.294
-1.725 0.626 0.294
-1.832 0.368 0.656
-1.832 0.184 0.974
-1.832 -0.184 0.974
-1.832 -0.368 0.656
-1.832 0.184 0.337
-1.832 -0.184 0.337
1.239 0.357 -1.355
1.029 0.094 -1.751
1.029 0.454 -1.648
1.029 0.752 -1.423
1.029 -0.279 -1.716
1.029 -0.613 -1.549
0.752 -0.525 -1.886
0.752 -0.18 -1.988
0.752 0.18 -1.988
0.752 0.525 -1.886
0.752 0.827 -1.692
0.752 1.063 -1.42
1.029 0.949 -1.105
0.752 1.212 -1.093
0.752 -1.063 -1.42
0.425 -1.334 -1.266
0.425 -1.161 -1.581
0.752 -0.827 -1.692
0.425 -0.915 -1.843
0.425 -0.611 -2.036
0.425 -0.269 -2.147
0.425 0.09 -2.17
0.425 0.444 -2.102
0.425 0.769 -1.949
0.425 1.046 -1.72
0.425 1.258 -1.429
0.425 1.39 -1.094
0.065 -1.48 -1.102
0.065 -1.349 -1.445
0.065 -1.141 -1.748
0.065 -0.866 -1.991
0.065 -0.54 -2.162
0.065 -0.184 -2.25
0.065 0.184 -2.25
0.065 0.54 -2.162
0.065 0.866 -1.991
0.065 1.141 -1.748
0.065 1.349 -1.445
0.065 1.48 -1.102
-0.305 -1.48 -1.102
-0.305 -1.349 -1.445
-0.305 -1.141 -1.748
-0.305 -0.866 -1.991
-0.305 -0.54 -2.162
-0.305 -0.184 -2.25
-0.305 0.184 -2.25
-0.305 0.54 -2.162
-0.305 0.866 -1.991
-0.305 1.141 -1.748
-0.305 1.349 -1.445
-0.305 1.48 -1.102
-0.664 -1.424 -0.917
-0.664 -1.334 -1.266
-0.664 -1.161 -1.581
-0.664 -0.915 -1.843
-0.664 -0.611 -2.036
-0.664 -0.269 -2.147
-0.664 0.09 -2.17
-0.664 0.444 -2.102
-0.664 0.769 -1.949
-0.664 1.046 -1.72
-0.664 1.258 -1.429
-0.664 1.39 -1.094
-0.992 -1.212 -1.093
-0.992 -1.063 -1.42
-0.992 -0.827 -1.692
-0.992 -0.525 -1.886
-0.992 -0.18 -1.988
-0.992 0.18 -1.988
-0.992 0.525 -1.886
-0.992 0.827 -1.692
-0.992 1.063 -1.42
-0.992 1.212 -1.093
-1.269 -1.001 -0.924
-1.269 -0.865 -1.273
-1.269 -0.613 -1.549
-1.269 -0.279 -1.716
-1.269 0.094 -1.751
-1.269 0.454 -1.648
-1.269 0.752 -1.423
-1.269 0.949 -1.105
-1.479 -0.618 -1.094
-1.479 -0.357 -1.355
-1.479 -0.0 -1.451
-1.479 0.357 -1.355
-1.479 0.618 -1.094
-1.61 0.184 -1.055
0.752 -1.212 -1.093
1.467 -0.358 -0.642
1.365 -0.341 -0.929
1.507 -0.553 -0.3485
1.405 -0.536 -0.6355
1.161 -0.8115 -0.909
1.239 -0.357 -1.355
1.134 -0.485 -1.452
1.239 -0.1785 -1.403
1.239 0.1785 -1.403
1.029 -0.865 -1.273
0.8905 -1.0385 -1.183
0.8905 -0.964 -1.3465
0.752 -1.1375 -1.2565
0.8905 -0.846 -1.4825
0.752 -0.945 -1.556
1.029 -0.739 -1.411
0.8905 -0.72 -1.6205
1.321 0.1785 -1.144
1.321 0.0 -1.192
1.239 -0.0 -1.451
1.321 -0.1785 -1.144
1.2455 -0.5115 -1.1365
1.134 -0.611 -1.314
1.1405 -0.7655 -1.0955
1.0495 -0.911 -1.0865
0.911 -1.0845 -0.9965
-1.632 -0.1705 -0.631
-1.832 0.276 0.815
-1.832 0.0 0.974
-1.832 -0.276 0.815
-1.832 -0.276 0.4965
-1.832 0.276 0.4965
-1.85 0.092 0.815
-1.85 0.184 0.656
-1.868 -0.0 0.656
-1.85 -0.092 0.815
-1.85 -0.184 0.656
-1.85 -0.092 0.4965
-1.832 0.0 0.337
-1.85 0.092 0.4965
1.134 -0.1395 -1.5835
1.134 0.047 -1.601
1.029 -0.0925 -1.7335
-1.5445 -0.401 -1.0745
-1.61 -0.184 -1.055
-1.5445 -0.092 -1.253
-1.5445 0.092 -1.253
-1.61 0.0 -1.055
-1.546 -0.4795 -0.8635
-1.6115 -0.2625 -0.844
-1.6305 -0.092 -0.842
-1.6305 0.092 -0.842

CELLS 834 3336
3 0 1 2
3 3 4 5
3 4 6 7
3 7 6 8
3 6 9 8
3 8 9 10
3 9 11 10
3 10 11 12
3 11 13 12
3 12 13 14
3 13 15 14
3 14 15 16
3 15 17 16
3 16 17 18
3 17 19 18
3 18 19 20
3 19 21 20
3 20 21 22
3 21 23 22
3 22 23 24
3 23 25 24
3 24 25 26
3 25 27 26
3 27 28 29
3 29 28 30
3 28 31 30
3 30 31 32
3 31 33 32
3 32 33 34
3 33 35 34
3 34 35 36
3 35 37 36
3 36 37 38
3 37 39 38
3 38 39 40
3 39 41 40
3 40 41 42
3 41 43 42
3 42 43 44
3 43 45 44
3 44 45 46
3 45 47 46
3 46 47 48
3 47 49 48
3 48 49 50
3 49 51 50
3 50 51 52
3 51 53 52
3 52 53 54
3 53 0 54
3 54 0 2
3 55 56 57
3 55 57 58
3 55 58 59
3 55 59 60
3 55 60 61
3 55 61 56
3 57 56 62
3 57 62 63
3 57 63 64
3 58 57 64
3 58 64 65
3 58 65 66
3 59 58 66
3 59 66 67
3 59 67 68
3 60 59 68
3 60 68 69
3 60 69 70
3 61 60 70
3 61 70 71
3 61 71 72
3 56 61 72
3 56 72 73
3 56 73 62
3 62 73 74
3 62 74 75
3 63 62 75
3 63 75 76
3 63 76 77
3 64 63 77
3 64 77 78
3 65 64 78
3 65 78 79
3 65 79 80
3 66 65 80
3 66 80 81
3 67 66 81
3 67 81 82
3 67 82 83
3 68 67 83
3 68 83 84
3 69 68 84
3 72 71 85
3 72 85 86
3 73 72 86
3 73 86 87
3 73 87 74
3 74 87 88
3 74 88 89
3 75 74 89
3 75 89 90
3 76 75 90
3 76 90 91
3 77 76 91
3 77 91 92
3 77 92 93
3 78 77 93
3 78 93 94
3 79 78 94
3 79 94 95
3 80 79 95
3 80 95 96
3 80 96 97
3 81 80 97
3 81 97 98
3 82 81 98
3 82 98 99
3 83 82 99
3 83 99 100
3 84 83 100
3 86 85 101
3 86 101 102
3 87 86 102
3 87 102 103
3 87 103 88
3 88 103 104
3 88 104 105
3 89 88 105
3 89 105 106
3 90 89 106
3 90 106 107
3 91 90 107
3 91 107 108
3 92 91 108
3 92 108 109
3 93 92 109
3 93 109 110
3 93 110 111
3 94 93 111
3 94 111 112
3 95 94 112
3 95 112 113
3 96 95 113
3 96 113 114
3 97 96 114
3 97 114 115
3 98 97 115
3 98 115 116
3 98 116 117
3 99 98 117
3 99 117 118
3 100 99 118
3 102 101 119
3 102 119 120
3 103 102 120
3 103 120 121
3 103 121 104
[...]
CELL_DATA 834
SCALARS cell_data_0 double
LOOKUP_TABLE default
1.61934970541e-06
2.0037963532e-07
1.08079869046e-07
1.1469393426e-07
3.13937147263e-07
2.51143119695e-07
5.26976445296e-07
1.25687724318e-07
7.00690799049e-07
1.49289399864e-08
8.06512270373e-07
1.31162783974e-07
8.92081573708e-07
2.23511726229e-07
9.39335466247e-07
3.01411773146e-07
9.5606633969e-07
3.71821802301e-07
9.82984901149e-07
4.09712083063e-07
9.91505464708e-07
4.41860918121e-07
1.46388432505e-07
8.94885444803e-07
1.35970736781e-08
9.16610025243e-07
5.36939611488e-07
8.64595731477e-07
5.44920040408e-07
8.10078275688e-07
5.54690487561e-07
7.14889774609e-07
5.54914622537e-07
6.02510698209e-07
5.45491537733e-07
4.52820970818e-07
5.1680744263e-07
2.75911606895e-07
4.51586088567e-07
6.96877184143e-08
3.36250657829e-07
9.14444381332e-08
1.46178499378e-07
2.61936456121e-08
6.59740010976e-08
1.15925913157e-06
3.15743943529e-07
4.08632015298e-06
3.16424056574e-07
7.6169640888e-07
4.0074972677e-07
3.86897605375e-09
8.67617588044e-10
5.7173420141e-09
1.68454883786e-09
1.57422547638e-08
1.74163759926e-08
2.02396884872e-09
1.28831877913e-09
2.4237161985e-09
7.49946173349e-10
9.05016213116e-11
9.39269898989e-09
1.5571338584e-08
2.873313996e-08
7.49952141345e-08
5.3603874368e-08
4.40207628334e-08
2.0870593502e-08
4.43794497136e-08
6.40056234236e-08
5.7397546958e-08
4.12265223593e-08
1.85136907307e-08
2.05883592251e-10
9.55338972133e-09
1.27525932563e-08
6.3817942935e-09
5.46569456909e-09
4.97436322006e-10
5.00664131825e-09
7.57374391205e-09
7.80602281551e-09
1.03042400801e-08
1.04226342802e-08
2.85207900995e-09
3.4380018987e-09
2.52416400995e-08
3.04652263279e-08
4.90356921615e-08
9.91369861115e-08
4.88623650484e-08
3.25189022081e-08
6.33398481496e-08
4.03982092625e-08
2.87148590938e-08
6.23359684272e-09
1.17650673398e-08
2.22749260442e-08
2.46989748528e-08
2.00048655048e-08
1.84167771608e-08
1.17002571015e-08
9.45594947294e-09
1.41860652898e-09
1.03951485927e-09
6.94303431927e-09
1.0957804933e-08
1.46314838653e-08
1.74994708496e-08
2.02113463642e-08
1.85005904509e-08
2.05808959124e-08
1.89028351768e-08
1.03440400922e-08
5.90791216677e-09
1.43640259841e-08
1.46925763972e-08
3.13619604537e-08
1.51066752456e-08
3.40594625386e-09
3.10247531964e-08
1.62904048016e-08
9.33357000015e-09
1.0234720678e-08
2.5276082159e-08
3.59346658042e-08
3.63560024734e-08
3.11406936359e-08
2.87480016005e-08
2.32953062999e-08
1.98516964594e-08
1.39798165948e-08
1.05728645343e-08
3.75237386262e-09
3.65866097551e-10
6.65243808071e-09
9.55005009872e-09
1.52848240803e-08
1.86183704824e-08
2.29796673711e-08
2.53991115204e-08
2.88194090435e-08
2.88327567972e-08
3.07533208024e-08
2.58403558432e-08
2.5895873908e-08
1.51302528226e-08
1.38731375512e-08
5.69956747129e-09
1.32733617923e-10
8.77025658522e-10
2.38436278089e-09
2.93862066632e-09
1.01673699539e-08
1.04228170896e-08
2.77172034365e-08
4.01889195108e-08
4.96277201789e-08
4.8104878626e-08
4.23527058689e-08
3.79349313503e-08
3.24973122648e-08
2.82893816935e-08
2.29999232834e-08
1.85793238389e-08
1.29774100874e-08
8.65152304314e-09
2.99800760737e-09
9.00415942992e-10
6.61466170274e-09
1.04541153049e-08
1.61900301143e-08
1.98784921604e-08
2.47647044198e-08
2.85235430412e-08
3.37197135406e-08
3.47288740014e-08
3.90790635579e-08
3.79977416102e-08
3.92275486522e-08
3.46689170853e-08
2.92582614084e-08
1.97308353802e-08
5.38853998031e-09
4.20305955115e-10
9.46931635812e-09
2.06543180715e-09
3.54844522223e-09
3.31795842651e-08
3.46337116001e-08
3.0136129987e-08
4.61671266641e-08
5.42462201523e-08
6.14845774329e-08
5.70343585727e-08
5.13794675963e-08
4.61285614706e-08
4.080530709e-08
3.5244171882e-08
3.00879507002e-08
2.47171459829e-08
1.97044371731e-08
1.449870496e-08
9.51276979142e-09
4.61482160031e-09
2.30934155837e-10
4.86242089131e-09
9.82205278074e-09
1.44020268809e-08
1.93532560522e-08
2.36131814943e-08
2.83080869549e-08
3.25436552577e-08
3.64855247261e-08
4.0404537313e-08
4.27457622734e-08
4.5570261282e-08
4.41912808577e-08
4.43923210523e-08
3.47125392527e-08
2.6032989363e-08
4.88152249219e-09
2.3268180912e-08
4.3918431254e-08
2.59815289444e-08
6.23593675641e-09
1.99556220294e-09
5.61876365038e-08
5.41303724896e-08
4.88911924909e-08
6.18388629923e-08
6.71147329758e-08
7.14571935943e-08
6.48451693869e-08
5.9640290067e-08
5.22756306061e-08
4.74131311771e-08
4.01814983589e-08
3.55842746542e-08
2.88980351686e-08
2.47075455961e-08
1.83170296524e-08
1.40139652397e-08
7.95624010801e-09
3.79042719372e-09
1.88965896835e-09
5.99713113653e-09
1.15890792805e-08
1.57207357296e-08
2.1289235112e-08
2.53966283269e-08
3.08725149773e-08
3.4610802677e-08
3.98548075421e-08
4.32507075991e-08
4.74076529362e-08
4.88488145654e-08
4.99595738098e-08
4.82823043701e-08
3.99900119865e-08
2.78374666832e-08
3.5477092724e-09
2.7526608868e-08
2.25532162866e-08
2.73721907333e-08
3.826487031e-09
4.49609669956e-09
4.3106069993e-08
5.22684803681e-08
7.6225968135e-08
6.6247415178e-08
5.2670589572e-08
5.63737989158e-08
4.48720749267e-08
4.62339453959e-08
3.63223543384e-08
3.55180541264e-08
2.76597800285e-08
2.59030432713e-08
1.97442938709e-08
1.6614679281e-08
1.18185064248e-08
7.80196340972e-09
4.33841730035e-09
8.34353648563e-10
2.85850022643e-09
9.26317564113e-09
9.99803875445e-09
1.77268453023e-08
1.7163872289e-08
2.61634609631e-08
2.4327610896e-08
3.42902113229e-08
3.12401087414e-08
4.12419866641e-08
3.66648444586e-08
4.47632487237e-08
3.90117918642e-08
3.82314649875e-08
3.00491269613e-08
1.13492415494e-08
2.35034301412e-09
4.57062136856e-09
9.15250350491e-10
7.51486696056e-09
2.36329080174e-08
4.41284709732e-08
4.47919230893e-08
4.41472500291e-08
3.96478271673e-08
3.87846798189e-08
3.31114923991e-08
3.12072661477e-08
2.58932389999e-08
2.39198306078e-08
1.90876167481e-08
1.65614190114e-08
1.24080715233e-08
9.67499224932e-09
6.05072266412e-09
2.99828893266e-09
1.09367294072e-11
3.20550948737e-09
5.86886965841e-09
9.79615907155e-09
1.20282226792e-08
1.62991710591e-08
1.80765332721e-08
2.26491377051e-08
2.40399794919e-08
2.841862479e-08
2.91771065434e-08
3.21246158589e-08
3.16423035168e-08
2.92043373121e-08
2.59256783785e-08
1.22337388074e-08
3.7468020117e-09
1.69144793309e-09
4.06875555289e-09
2.62918632464e-08
3.55099076889e-08
4.68343020888e-08
4.65274406349e-08
4.18345536822e-08
4.04626346312e-08
3.41723814543e-08
3.17435438218e-08
2.59624655131e-08
2.29958179398e-08
1.79419610226e-08
1.46636805029e-08
1.04995814545e-08
6.47445232641e-09
3.00574975551e-09
1.56167148692e-09
4.04892876413e-09
9.27192650917e-09
1.1531262292e-08
1.73750105737e-08
1.90909662567e-08
2.29896100415e-08
2.65026189216e-08
2.89921532187e-08
3.17925344353e-08
3.23176694261e-08
3.26666900224e-08
2.81745096114e-08
1.69398471699e-08
3.12034803403e-09
3.96850387422e-08
3.06056025983e-08
1.13866108291e-08
2.78237946672e-08
3.75095311096e-08
4.78953407452e-08
4.70599702355e-08
4.23082711513e-08
4.02750420549e-08
3.34675206702e-08
3.0399908327e-08
2.37810243079e-08
1.94478695961e-08
1.44927565889e-08
9.1571298911e-09
5.4070714478e-09
1.55892947751e-09
4.13273421567e-09
9.25586581641e-09
1.36672913374e-08
1.76606701686e-08
2.29556260654e-08
2.56525461879e-08
3.04764584401e-08
3.11884525106e-08
3.21778141344e-08
3.02859077715e-08
1.80070150122e-08
7.24587362503e-09
4.58784428492e-08
8.13030225371e-08
4.5941443516e-08
2.19602760758e-09
2.75713815671e-08
3.77734779753e-08
4.71497649823e-08
4.67828846478e-08
4.06089591572e-08
3.81583209896e-08
3.01449610949e-08
2.4556469902e-08
1.81322416045e-08
9.70895551658e-09
5.69419555461e-09
1.40811271976e-09
7.7396799972e-09
1.27015909229e-08
2.01873778221e-08
2.31567463296e-08
2.93705954488e-08
3.03885191802e-08
3.0650407042e-08
2.38474094921e-08
1.11810574922e-08
1.76052092836e-08
6.16254012542e-08
5.56662807851e-08
1.45185199595e-08
2.76484269507e-08
3.74686342107e-08
4.63695144861e-08
4.63503158648e-08
3.58099117822e-08
2.9138219582e-08
1.98830998106e-08
9.96988874167e-09
7.01600743308e-10
7.95558364199e-09
1.9178841919e-08
2.23289775345e-08
2.72264881226e-08
2.41271250651e-08
1.72481714451e-08
1.59378191825e-08
3.69917955131e-08
3.86689314743e-08
2.5199045324e-08
2.95041245443e-08
3.73503957052e-08
4.10944149391e-08
1.57140508944e-08
1.05194492896e-09
1.80981962879e-08
1.56670169574e-08
3.15627368178e-08
3.73529955123e-08
3.3805451998e-08
9.06521096656e-06
7.58842410322e-06
4.39817800018e-07
4.7412489064e-07
9.83246858651e-07
4.11987723825e-07
1.0148677624e-06
2.22742222741e-07
4.83171425869e-07
1.5009880209e-07
5.11733926562e-07
2.9663907859e-07
1.02146028504e-06
3.79773080409e-07
3.56415823837e-07
5.66966985182e-07
4.11307850626e-07
5.2830430866e-08
1.43637863422e-07
2.27197827611e-08
5.08740601935e-08
3.61602534562e-09
1.72306125645e-08
8.07805645358e-08
8.55670229464e-09
5.08959182317e-08
3.64256118622e-06
2.74458807368e-06
1.89343607534e-06
1.3055030831e-06
1.79962655413e-06
2.41808075084e-06
3.13837846483e-06
7.26996054778e-07
2.62436024406e-08
6.34588805203e-08
2.75142665354e-08
4.0658090381e-10
2.66847774869e-08
1.24990982119e-08
1.06430258842e-07
2.15348890145e-07
2.86383800923e-07
4.37464171047e-08
2.80193869825e-07
8.51716754351e-07
3.03483850564e-07
9.16612686014e-07
3.04455824466e-07
9.28560992339e-07
2.92751841399e-07
9.22321412106e-07
2.80972343347e-07
8.80556221857e-07
2.62295632135e-07
8.38577777938e-07
6.00803648359e-06
3.05808387886e-06
1.41538130112e-06
3.52471081761e-08
1.0561594471e-06
2.64910282041e-06
8.58556218401e-07
3.40676178513e-07
8.70538564116e-07
1.40982366311e-07
2.13029617627e-07
3.11378845168e-08
5.68990033106e-08
2.94681308063e-08
4.46238999438e-07
6.94250026355e-07
1.14658885608e-06
1.59111018662e-06
1.63104685449e-06
8.78151470134e-07
1.02041897852e-06
5.98820876961e-07
1.27795221271e-06
7.1084266412e-07
6.63979377697e-07
2.4080895766e-07
2.67482221525e-07
7.85398158855e-08
6.79717384088e-08
2.82180534051e-07
1.52152542076e-07
1.84652296248e-07
4.91818231997e-08
5.92247062883e-08
2.59708116084e-07
4.34484672732e-07
7.13149612371e-07
7.932039609e-07
1.2894486875e-06
1.44688970176e-06
1.81526222328e-06
1.55488608011e-06
1.43491546513e-06
1.1849888873e-06
9.23339273538e-07
7.63206710068e-07
4.99960399118e-07
4.14031671842e-07
1.92375734305e-07
1.76515348008e-07
3.58136767445e-07
3.62845329822e-07
2.37756466907e-07
2.00378537711e-07
3.01405629286e-08
5.02805535445e-08
2.20976990933e-07
3.51127775133e-07
4.41575457689e-07
5.68491298019e-07
6.82480817678e-07
1.02314844503e-06
1.08180041819e-06
1.22379883304e-06
9.82117417421e-07
9.96779074963e-07
7.46541049403e-07
7.06586584475e-07
5.18337763963e-07
4.40010244764e-07
3.44331609844e-07
2.69178718238e-07
1.86852258678e-07
2.36090852613e-07
1.49196958033e-07
1.34610830831e-07
3.75111667974e-08
2.55512720794e-08
9.77123504955e-08
1.96914091017e-07
2.01789357067e-07
2.96847587637e-07
3.5895030772e-07
6.04605439746e-07
6.39016110739e-07
7.594614276e-07
6.27627472474e-07
7.03634675812e-07
5.39630272634e-07
5.65335965738e-07
4.33593136199e-07
4.23787162795e-07
3.60352461707e-07
3.54106028169e-07
6.16403478103e-08
3.15297178644e-08
6.18577850967e-08
2.22842829185e-08
1.43354320835e-08
4.34649782429e-09
3.31580582847e-08
6.80974541081e-08
7.97570315708e-08
2.70999881903e-07
3.36604782759e-07
4.54757046936e-07
3.91881740565e-07
4.41585910055e-07
3.69231060426e-07
3.96501789188e-07
3.43421273488e-07
3.58855338419e-07
3.46198305986e-07
3.61606162548e-07
3.63034764753e-08
1.61011570299e-09
2.37168546001e-08
2.47231720154e-08
3.95491723393e-08
1.02213390204e-07
1.0829516059e-07
1.95026616894e-07
2.2459756016e-07
2.23564508499e-07
2.44627515986e-07
2.48241935291e-07
2.01833991656e-07
2.51802672564e-07
2.52320537901e-07
3.18481018987e-07
8.58257922748e-07
8.88260956078e-07
6.69477281048e-07
7.32157072785e-07
6.84467242759e-06
3.35124453604e-06
6.15275412566e-06
6.9438094656e-07
7.16599985926e-07
2.90794365856e-07
5.11558548496e-07
1.66107620142e-05
1.94827246295e-05
6.15045773484e-08
4.39831040682e-08
4.58511718581e-07
6.34143671699e-07
2.48988461103e-07
5.18763841664e-07
1.62421644648e-07
4.3172533014e-07
1.27609128703e-07
3.5359822692e-07
1.2036344192e-07
2.60433806874e-07
1.12052707451e-07
1.48171432988e-07
3.2938795085e-08
2.54834074563e-09
7.49095627e-10
3.52112444739e-09
3.27133903467e-08
3.79128284636e-07
3.26255728996e-06
3.46663788015e-06
8.85995806601e-08
2.38354919785e-07
1.19042663663e-07
2.2191951349e-07
2.20041546741e-07
3.17557526105e-07
3.12956400971e-07
2.36307977546e-07
1.84640260294e-07
2.02572846424e-07
4.63433065689e-07
2.33768417677e-07
3.00995691893e-07
3.46905620596e-07
1.36499783864e-06
2.60554256909e-06
1.47312916248e-06
1.03127705789e-05
1.46648983957e-05
1.02672213535e-05
3.73417071642e-06
3.15846968543e-06
5.97693354227e-06
3.68585814845e-08
9.04355520247e-08
4.31571722274e-06
8.06045562173e-06
2.49296991061e-06
1.40888468382e-06
3.67187949045e-06
3.87426683188e-06
3.0107027685e-07
3.05851137402e-07
5.28787301964e-07
1.36887623611e-07
2.60221872859e-07
2.51688463872e-06
2.09871709805e-06
2.42488981089e-06
5.01839093772e-06
6.09858789237e-06
3.16600323404e-06
1.97792676999e-06
1.76602420495e-06
2.2183805233e-06
4.08912151649e-07
8.40311927894e-07
4.72966916e-06
4.71730038485e-06
2.96965296016e-06
3.51218536069e-06
3.51119737279e-06
4.39874593557e-06
2.77141888138e-06
3.32890832222e-06
3.7896247696e-06
4.01174705978e-06
2.89006020015e-06
3.30982450354e-06
3.87934694649e-06
2.18652321291e-06
1.10365310039e-06
2.36030394094e-06
1.8805836501e-06
8.46304015161e-07
5.83288491702e-07
3.81545390292e-07
1.04623180149e-06
2.72533117124e-07
2.10048654778e-06
5.48812711821e-07
1.28345966224e-07
2.56194008126e-07
1.10049336389e-07
2.27666127677e-07
1.95092830139e-07
2.55453597265e-07
4.31883797823e-07
1.1703961971e-07
2.35124414234e-08
1.63842499464e-08
3.3904534276e-07
3.26892595729e-07
1.30674961807e-08
5.78965830801e-09
2.89582077884e-09
2.32712051777e-09
2.74722148333e-09
1.25593981966e-08
3.63765631968e-09
9.03122290359e-10
5.10026014993e-06
1.28896056047e-08
8.07089398805e-10
1.36527780714e-10
3.16467681306e-09
1.29192483707e-06
7.76488267648e-10
1.17987809705e-09
6.6201835389e-11
1.24492365715e-06
5.76804590899e-09
2.64457766794e-09
7.64310180149e-10
1.23990282341e-06
1.78719727026e-09
1.47778759118e-09
1.4830983775e-09
1.23724579002e-06
6.42899977969e-06
2.34190900891e-06
1.29413139213e-09
5.33676612508e-06
2.22801461856e-09
2.41946855925e-06
6.41085733492e-06
5.46997652677e-06
5.88653584164e-09
4.25230599719e-06
2.39705403329e-06
2.23003976547e-06
1.50379930604e-06
1.26935042365e-06
6.87548521697e-07
7.36242628445e-07
2.80768544903e-07
4.16746480913e-07
2.80634553908e-07
3.01847963151e-06
9.0928657227e-07
1.95834185223e-09
1.23670503922e-07
2.02240893253e-06
2.86189341632e-06
5.27748362441e-06
3.39188778269e-07
5.66050097932e-07
3.38050779085e-07
1.74244369179e-08
1.29369582846e-07
1.59495481993e-07
1.48434500778e-07
1.76920212082e-07
1.65224559699e-07
1.72435632135e-07
1.4198644921e-07
1.79655954689e-08
3.0265945935e-10
2.05265170634e-06
4.31719448792e-06
2.41568569602e-07
2.20057446476e-06
2.83040533601e-06
2.26062659208e-06
1.95072745922e-06

