# vtk DataFile Version 3.0
File Name: Molecule/methanol/methanol_5.0-1.vtk
ASCII
DATASET UNSTRUCTURED_GRID
FIELD FieldData 1
TIME 1 1 double
0.0
POINTS 243 double
1.611 0.0 -0.359
1.543 -0.475 -0.352
1.403 0.0 -0.933
1.341 -0.432 -0.927
1.345 -0.911 -0.332
1.16 -0.83 -0.909
1.032 -1.273 -0.301
0.876 -1.16 -0.88
0.631 -1.532 -0.261
0.51 -1.396 -0.844
0.173 -1.667 -0.216
0.093 -1.519 -0.802
-0.304 -1.667 -0.168
-0.341 -1.519 -0.759
-0.762 -1.532 -0.123
-0.758 -1.396 -0.718
-1.163 -1.273 -0.083
-1.124 -1.16 -0.681
-1.475 -0.911 -0.051
-1.408 -0.83 -0.653
-1.674 -0.475 -0.032
-1.589 -0.432 -0.635
-1.742 -0.0 -0.025
-1.651 -0.0 -0.629
-1.674 0.475 -0.032
-1.589 0.432 -0.635
-1.475 0.911 -0.051
-1.408 0.83 -0.653
-1.163 1.273 -0.083
-1.124 1.16 -0.681
-0.762 1.532 -0.123
-0.758 1.396 -0.718
-0.304 1.667 -0.168
-0.341 1.519 -0.759
0.173 1.667 -0.216
0.093 1.519 -0.802
0.631 1.532 -0.261
0.51 1.396 -0.844
1.032 1.273 -0.301
0.876 1.16 -0.88
1.345 0.911 -0.332
1.16 0.83 -0.909
1.543 0.475 -0.352
1.341 0.432 -0.927
1.907 0.0 0.656
1.852 0.452 0.656
1.852 0.226 1.047
1.852 -0.226 1.047
1.852 -0.452 0.656
1.852 -0.226 0.264
1.852 0.226 0.264
1.69 0.76 1.094
1.69 0.439 1.415
1.69 -0.0 1.533
1.69 -0.439 1.415
1.69 -0.76 1.094
1.69 -0.877 0.656
1.69 -0.76 0.217
1.69 -0.439 -0.104
1.69 0.439 -0.104
1.69 0.76 0.217
1.69 0.877 0.656
1.432 1.167 1.108
1.432 0.925 1.499
1.432 0.558 1.776
1.432 0.115 1.902
1.432 -0.343 1.859
1.432 -0.754 1.654
1.432 -1.064 1.315
1.432 -1.23 0.886
1.432 -1.23 0.426
1.432 -1.064 -0.003
1.432 1.167 0.203
1.432 1.252 0.656
1.091 1.484 1.113
1.091 1.283 1.531
1.091 0.969 1.87
1.091 0.568 2.102
1.091 0.116 2.205
1.091 -0.346 2.17
1.091 -0.777 2.001
1.091 -1.139 1.712
1.091 -1.4 1.33
1.091 -1.536 0.887
1.091 -1.536 0.424
1.091 -1.4 -0.018
1.091 1.484 0.198
1.091 1.553 0.656
0.688 1.705 1.112
0.688 1.528 1.538
0.688 1.248 1.904
0.688 0.882 2.184
0.688 0.457 2.36
0.688 0.0 2.42
0.688 -0.457 2.36
0.688 -0.882 2.184
0.688 -1.248 1.904
0.688 -1.528 1.538
0.688 -1.705 1.112
0.688 -1.765 0.656
0.688 -1.705 0.199
0.688 1.705 0.199
0.688 1.765 0.656
0.247 1.815 1.122
0.247 1.642 1.558
0.247 1.366 1.938
0.247 1.004 2.238
0.247 0.579 2.438
0.247 0.118 2.526
0.247 -0.351 2.496
0.247 -0.798 2.351
0.247 -1.194 2.099
0.247 -1.516 1.757
0.247 -1.742 1.345
0.247 -1.859 0.89
0.247 -1.859 0.421
0.247 1.815 0.19
0.247 1.874 0.656
-0.209 1.815 1.122
-0.209 1.642 1.558
-0.209 1.366 1.938
-0.209 1.004 2.238
-0.209 0.579 2.438
-0.209 0.118 2.526
-0.209 -0.351 2.496
-0.209 -0.798 2.351
-0.209 -1.194 2.099
-0.209 -1.516 1.757
-0.209 -1.742 1.345
-0.209 -1.859 0.89
-0.209 -1.859 0.421
-0.209 1.815 0.19
-0.209 1.874 0.656
-0.65 1.765 0.656
-0.65 1.705 1.112
-0.65 1.528 1.538
-0.65 1.248 1.904
-0.65 0.882 2.184
-0.65 0.457 2.36
-0.65 0.0 2.42
-0.65 -0.457 2.36
-0.65 -0.882 2.184
-0.65 -1.248 1.904
-0.65 -1.528 1.538
-0.65 -1.705 1.112
-0.65 -1.765 0.656
-0.65 -1.705 0.199
-0.65 1.705 0.199
-1.053 1.553 0.656
-1.053 1.484 1.113
-1.053 1.283 1.531
-1.053 0.969 1.87
-1.053 0.568 2.102
-1.053 0.116 2.205
-1.053 -0.346 2.17
-1.053 -0.777 2.001
-1.053 -1.139 1.712
-1.053 -1.4 1.33
-1.053 -1.536 0.887
-1.053 -1.536 0.424
-1.053 1.484 0.198
-1.394 1.252 0.656
-1.394 1.167 1.108
-1.394 0.925 1.499
-1.394 0.558 1.776
-1.394 0.115 1.902
-1.394 -0.343 1.859
-1.394 -0.754 1.654
-1.394 -1.064 1.315
-1.394 -1.23 0.886
-1.394 -1.23 0.426
-1.394 1.167 0.203
-1.652 0.877 0.656
-1.652 0.76 1.094
-1.652 0.439 1.415
-1.652 -0.0 1.533
-1.652 -0.439 1.415
-1.652 -0.76 1.094
-1.652 -0.877 0.656
-1.652 -0.76 0.217
-1.652 0.76 0.217
-1.814 0.452 0.656
-1.814 0.226 1.047
-1.814 -0.226 1.047
-1.814 -0.452 0.656
-1.814 -0.226 0.264
-1.814 0.226 0.264
-1.868 -0.0 0.656
1.122 -0.451 -1.519
1.122 -0.781 -1.188
0.783 -0.878 -1.615
0.783 -0.475 -1.885
1.122 -0.0 -1.639
0.783 0.0 -1.979
0.783 0.475 -1.885
1.122 0.451 -1.519
0.783 0.878 -1.615
1.122 0.781 -1.188
0.783 1.147 -1.212
0.355 -0.989 -1.811
0.355 -0.586 -2.074
0.355 -0.121 -2.192
0.355 0.358 -2.152
0.355 0.798 -1.959
0.355 1.152 -1.634
0.355 1.381 -1.211
0.355 -1.284 -1.432
-0.12 -1.383 -1.403
-0.12 -1.125 -1.781
-0.12 -0.767 -2.067
-0.12 -0.342 -2.234
-0.12 0.115 -2.268
-0.12 0.561 -2.166
-0.12 0.957 -1.937
-0.12 1.268 -1.602
-0.12 1.467 -1.19
-0.594 -1.44 -0.977
-0.594 -1.284 -1.432
-0.594 -0.989 -1.811
-0.594 -0.586 -2.074
-0.594 -0.121 -2.192
-0.594 0.358 -2.152
-0.594 0.798 -1.959
-0.594 1.152 -1.634
-0.594 1.381 -1.211
-1.022 -1.147 -1.212
-1.022 -0.878 -1.615
-1.022 -0.475 -1.885
-1.022 0.0 -1.979
-1.022 0.475 -1.885
-1.022 0.878 -1.615
-1.022 1.147 -1.212
-1.362 -0.781 -1.188
-1.362 -0.451 -1.519
-1.362 -0.0 -1.639
-1.362 0.451 -1.519
-1.362 0.781 -1.188
-1.58 -0.237 -1.148
-1.58 0.237 -1.148
0.783 -1.147 -1.212
0.783 -1.0125 -1.4135
0.569 -1.081 -1.5235
0.569 -1.2155 -1.322

CELLS 482 1928
3 0 1 2
3 2 1 3
3 1 4 3
3 3 4 5
3 4 6 5
3 5 6 7
3 6 8 7
3 7 8 9
3 8 10 9
3 9 10 11
3 10 12 11
3 11 12 13
3 12 14 13
3 13 14 15
3 14 16 15
3 15 16 17
3 16 18 17
3 17 18 19
3 18 20 19
3 19 20 21
3 20 22 21
3 21 22 23
3 22 24 23
3 23 24 25
3 24 26 25
3 25 26 27
3 26 28 27
3 27 28 29
3 28 30 29
3 29 30 31
3 30 32 31
3 31 32 33
3 32 34 33
3 33 34 35
3 34 36 35
3 35 36 37
3 36 38 37
3 37 38 39
3 38 40 39
3 39 40 41
3 40 42 41
3 41 42 43
3 42 0 43
3 43 0 2
3 44 45 46
3 44 46 47
3 44 47 48
3 44 48 49
3 44 49 50
3 44 50 45
3 46 45 51
3 46 51 52
3 46 52 53
3 47 46 53
3 47 53 54
3 47 54 55
3 48 47 55
3 48 55 56
3 48 56 57
3 49 48 57
3 49 57 58
3 50 59 60
3 45 50 60
3 45 60 61
3 45 61 51
3 51 61 62
3 51 62 63
3 52 51 63
3 52 63 64
3 52 64 65
3 53 52 65
3 53 65 66
3 54 53 66
3 54 66 67
3 55 54 67
3 55 67 68
3 55 68 69
3 56 55 69
3 56 69 70
3 57 56 70
3 57 70 71
3 61 60 72
3 61 72 73
3 61 73 62
3 62 73 74
3 62 74 75
3 63 62 75
3 63 75 76
3 64 63 76
3 64 76 77
3 65 64 77
3 65 77 78
3 65 78 79
3 66 65 79
3 66 79 80
3 67 66 80
3 67 80 81
3 68 67 81
3 68 81 82
3 69 68 82
3 69 82 83
3 69 83 84
3 70 69 84
3 70 84 85
3 71 70 85
3 73 72 86
3 73 86 87
3 73 87 74
3 74 87 88
3 74 88 89
3 75 74 89
3 75 89 90
3 76 75 90
3 76 90 91
3 77 76 91
3 77 91 92
3 78 77 92
3 78 92 93
3 79 78 93
3 79 93 94
3 80 79 94
3 80 94 95
3 80 95 96
3 81 80 96
3 81 96 97
3 82 81 97
3 82 97 98
3 83 82 98
3 83 98 99
3 84 83 99
3 84 99 100
3 85 84 100
3 87 86 101
3 87 101 102
3 87 102 88
3 88 102 103
3 88 103 104
3 89 88 104
3 89 104 105
3 90 89 105
3 90 105 106
3 91 90 106
3 91 106 107
3 92 91 107
3 92 107 108
3 93 92 108
3 93 108 109
3 94 93 109
3 94 109 110
3 95 94 110
3 95 110 111
3 96 95 111
3 96 111 112
3 97 96 112
3 97 112 113
3 98 97 113
3 98 113 114
3 99 98 114
3 99 114 115
3 100 99 115
3 102 101 116
3 102 116 117
3 102 117 103
3 103 117 118
3 103 118 119
3 104 103 119
3 104 119 120
3 105 104 120
3 105 120 121
3 106 105 121
3 106 121 122
3 107 106 122
3 107 122 123
3 108 107 123
3 108 123 124
3 109 108 124
3 109 124 125
3 110 109 125
3 110 125 126
3 111 110 126
3 111 126 127
3 112 111 127
3 112 127 128
3 113 112 128
3 113 128 129
3 114 113 129
3 114 129 130
3 115 114 130
3 117 116 131
3 117 131 132
3 117 132 118
3 118 132 133
3 118 133 134
3 119 118 134
3 119 134 135
3 120 119 135
3 120 135 136
3 121 120 136
3 121 136 137
3 122 121 137
3 122 137 138
3 123 122 138
3 123 138 139
3 124 123 139
3 124 139 140
3 125 124 140
3 125 140 141
3 126 125 141
3 126 141 142
3 127 126 142
3 127 142 143
3 128 127 143
3 128 143 144
3 129 128 144
3 129 144 145
3 130 129 145
3 130 145 146
3 133 131 147
3 132 131 133
3 134 133 148
3 134 148 149
3 135 134 149
3 135 149 150
3 136 135 150
3 136 150 151
3 137 136 151
3 137 151 152
3 138 137 152
3 138 152 153
3 139 138 153
3 139 153 154
3 140 139 154
3 140 154 155
3 141 140 155
3 142 141 155
3 142 155 156
3 143 142 156
3 143 156 157
3 144 143 157
3 144 157 158
3 145 144 158
3 145 158 159
3 146 145 159
3 148 147 160
3 133 147 148
3 149 148 161
3 149 161 162
3 150 149 162
3 150 162 163
3 151 150 163
3 151 163 164
3 152 151 164
3 152 164 165
3 153 152 165
3 154 153 165
3 154 165 166
3 155 154 166
3 155 166 167
3 156 155 167
3 156 167 168
3 157 156 168
3 157 168 169
3 158 157 169
3 158 169 170
3 159 158 170
3 161 160 171
3 148 160 161
3 162 161 172
3 162 172 173
3 163 162 173
3 163 173 174
3 164 163 174
3 165 164 174
3 165 174 175
3 166 165 175
3 166 175 176
3 167 166 176
3 167 176 177
3 168 167 177
3 169 168 177
3 169 177 178
3 170 169 178
3 170 178 179
3 172 171 180
3 161 171 172
3 173 172 181
3 173 181 182
3 174 173 182
3 175 174 182
3 175 182 183
3 176 175 183
3 177 176 183
3 177 183 184
3 178 177 184
3 179 178 184
3 179 184 185
3 181 180 186
3 172 180 181
3 182 181 187
3 183 182 187
3 184 183 187
3 185 184 187
3 186 185 187
3 181 186 187
3 186 180 24
3 186 24 22
3 186 22 185
3 185 22 20
3 185 20 179
3 179 20 18
3 179 18 170
3 170 18 16
3 170 16 159
3 159 16 14
3 159 14 146
3 146 14 12
3 146 12 130
3 130 12 10
3 130 10 115
3 115 10 100
3 100 10 8
3 100 8 85
3 85 8 6
3 85 6 71
3 71 6 4
3 71 4 58
3 71 58 57
3 58 4 1
3 58 1 0
3 58 0 49
3 49 0 50
3 50 0 59
3 59 0 42
3 59 42 40
3 59 40 60
3 60 40 72
3 72 40 38
3 72 38 86
3 86 38 36
3 86 36 101
3 101 36 116
3 116 36 34
3 116 34 131
3 131 34 32
3 131 32 147
3 147 32 30
3 147 30 160
3 160 30 28
3 160 28 171
3 171 28 26
3 171 26 180
3 180 26 24
3 188 189 190
3 188 190 191
3 192 188 191
3 192 191 193
3 192 193 194
3 195 192 194
3 195 194 196
3 197 195 196
3 197 196 198
3 191 190 199
3 191 199 200
3 191 200 201
3 193 191 201
3 193 201 202
3 194 193 202
3 194 202 203
3 196 194 203
3 196 203 204
3 198 196 204
3 198 204 205
3 206 207 208
3 199 206 208
3 199 208 209
3 200 199 209
3 200 209 210
3 201 200 210
3 201 210 211
3 202 201 211
3 202 211 212
3 203 202 212
3 203 212 213
3 204 203 213
3 204 213 214
3 205 204 214
3 205 214 215
3 207 216 217
3 208 207 217
3 208 217 218
3 209 208 218
3 209 218 219
3 210 209 219
3 210 219 220
3 211 210 220
3 211 220 221
3 212 211 221
3 212 221 222
3 213 212 222
3 213 222 223
3 214 213 223
3 214 223 224
3 215 214 224
3 217 216 225
3 217 225 226
3 218 217 226
3 218 226 227
3 219 218 227
3 220 219 227
3 220 227 228
3 221 220 228
3 221 228 229
3 222 221 229
3 222 229 230
3 223 222 230
3 223 230 231
3 224 223 231
3 226 225 232
3 226 232 233
3 227 226 233
3 227 233 234
3 228 227 234
3 229 228 234
3 229 234 235
3 230 229 235
3 230 235 236
3 231 230 236
3 233 232 237
3 234 233 237
3 234 237 238
3 235 234 238
3 236 235 238
3 236 238 25
3 236 25 27
3 236 27 29
3 236 29 231
3 231 29 31
3 231 31 224
3 224 31 33
3 224 33 215
3 215 33 35
3 215 35 205
3 205 35 37
3 205 37 198
3 198 37 39
3 198 39 197
3 197 39 41
3 197 41 43
3 197 43 195
3 195 43 2
3 195 2 192
3 192 2 188
3 188 2 3
3 188 3 189
3 189 3 5
3 189 5 7
3 189 7 239
3 239 7 9
3 206 9 11
3 206 11 207
3 207 11 13
3 207 13 216
3 216 13 15
3 216 15 225
3 225 15 17
3 225 17 232
3 232 17 19
3 232 19 21
3 232 21 237
3 237 21 23
3 237 23 238
3 238 23 25
3 239 240 189
3 189 240 190
3 190 240 241
3 240 242 241
3 240 239 242
3 241 242 206
3 190 241 199
3 241 206 199
3 206 242 9
3 9 242 239

CELL_TYPES 482
5
5
5
5
5
5
5
5
5
5
5
5
5
5
5
5
5
5
5
5
5
5
5
5
5
5
5
5
5
5
5
5
5
5
5
5
5
5
5
5
5
5
5
5
5
5
5
5
5
5
5
5
5
5
5
5
5
5
5
5
5
5
5
5
5
5
5
5
5
5
5
5
5
5
5
5
5
5
5
5
5
5
5
5
5
5
5
5
5
5
5
5
5
5
5
5
5
5
5
5
5
5
5
5
5
5
5
5
5
5
5
5
5
5
5
5
5
5
5
5
5
5
5
5
5
5
5
5
5
5
5
5
5
5
5
5
5
5
5
5
5
5
5
5
5
5
5
5
5
5
5
5
5
5
5
5
5
5
5
5
5
5
5
5
5
5
5
5
5
5
5
5
5
5
5
5
5
5
5
5
5
5
5
5
5
5
5
5
5
5
5
5
5
5
5
5
5
5
5
5
5
5
5
5
5
5
5
5
5
5
5
5
5
5
5
5
5
5
5
5
5
5
5
5
5
5
5
5
5
5
5
5
5
5
5
5
5
5
5
5
5
5
5
5
5
5
5
5
5
5
5
5
5
5
5
5
5
5
5
5
5
5
5
5
5
5
5
5
5
5
5
5
5
5
5
5
5
5
5
5
5
5
5
5
5
5
5
5
5
5
5
5
5
5
5
5
5
5
5
5
5
5
5
5
5
5
5
5
5
5
5
5
5
5
5
5
5
5
5
5
5
5
5
5
5
5
5
5
5
5
5
5
5
5
5
5
5
5
5
5
5
5
5
5
5
5
5
5
5
5
5
5
5
5
5
5
5
5
5
5
5
5
5
5
5
5
5
5
5
5
5
5
5
5
5
5
5
5
5
5
5
5
5
5
5
5
5
5
5
5
5
5
5
5
5
5
5
5
5
5
5
5
5
5
5
5
5
5
5
5
5
5
5
5
5
5
5
5
5
5
5
5
5
5
5
5
5
5
5
5
5
5
5
5
5
5
5
5
5
5
5
5
5
5
5
5
5
5
5
5
5
5
5
5
5
5
5
5
5
5
5
5
5
5
5
5
5
5
5
5
5
5
5
5
5
5
5
5
5
5
5
5

CELL_DATA 482
SCALARS cell_data_0 double
LOOKUP_TABLE default
7.03507781036e-06
6.27815075564e-06
1.79484395171e-05
1.01724642832e-06
1.73453378484e-07
1.60335859986e-07
1.09752839885e-08
1.97565010967e-08
1.16909279259e-08
2.05799893425e-08
4.85657563646e-08
5.54653614063e-08
8.21326971369e-08
5.08875767317e-08
9.42707893528e-08
7.14484187593e-08
1.29467839882e-07
8.95755483239e-08
1.35788312723e-07
1.06004102489e-07
1.73279803211e-07
1.05312821891e-07
1.52001827552e-07
1.12040714243e-07
1.83365254378e-07
1.17034446839e-07
1.57782952457e-07
1.0867855146e-07
1.6975169817e-07
1.12661997127e-07
1.55686512481e-07
9.5384879419e-08
1.42416316657e-07
8.49939609123e-08
1.19875169357e-07
8.0482679863e-08
8.25369229289e-08
8.86626612095e-08
2.59914090046e-08
2.14050312165e-07
1.04626594991e-07
7.4805870668e-07
1.08326028852e-06
1.29949611272e-07
2.68227459644e-09
1.71331091735e-09
1.69942659521e-09
2.80366099398e-09
8.09256466146e-09
5.87240994417e-09
3.45421316082e-09
6.41644146701e-09
8.05551475937e-10
2.56989085272e-09
5.20451834129e-09
3.89398822936e-09
5.52630365867e-10
2.39166956558e-09
1.554003434e-07
1.87393754578e-07
2.1476287749e-07
4.60940322723e-08
9.76275913585e-09
1.14359993294e-08
4.86823130355e-09
1.60749297512e-08
2.09417045448e-08
1.29276982011e-08
1.21598505118e-08
3.41117379697e-09
2.77813105897e-09
7.10543349071e-09
1.24893659946e-08
1.59573862352e-08
1.26560129965e-08
1.52620380378e-08
1.0762694992e-08
4.72954097014e-09
3.00237359007e-09
1.72754432465e-07
1.64763440567e-07
1.3777526083e-08
5.08355371612e-09
1.82739304903e-08
3.22972245416e-08
3.45851193058e-08
2.80658988113e-08
2.50497385022e-08
1.81904703565e-08
1.41875949873e-08
4.93944974844e-09
6.61507759532e-10
7.59659145198e-09
1.24611508781e-08
1.80022889536e-08
2.28046085049e-08
2.74734703495e-08
2.7773818429e-08
3.01797641231e-08
2.24846763042e-08
2.28307247042e-08
1.29451049761e-08
2.19880840121e-10
1.46273794379e-09
2.97645977188e-09
1.52038270746e-08
3.07997013271e-08
3.68130355996e-08
4.91639278759e-08
4.72834974649e-08
4.05912788885e-08
3.58301124242e-08
2.91106287962e-08
2.39034294519e-08
1.6709590505e-08
1.14205785066e-08
4.10764678959e-09
5.98518188948e-10
7.94347902074e-09
1.29423420334e-08
2.04242355579e-08
2.52362991032e-08
3.25016897505e-08
3.50779435831e-08
4.08555748186e-08
4.11180647926e-08
4.19215242127e-08
3.4585053872e-08
2.83392071775e-08
1.63078612053e-08
8.12751306352e-09
1.80843586459e-09
4.49350218613e-08
5.44802478616e-08
5.48793083109e-08
6.31035019755e-08
6.04246899056e-08
5.15109072001e-08
4.58056639225e-08
3.76820036894e-08
3.16230038834e-08
2.45084883396e-08
1.78528724034e-08
1.15162107793e-08
5.05023492583e-09
9.51754364872e-10
7.8105463511e-09
1.35992394578e-08
2.08551588935e-08
2.54439228686e-08
3.31991851413e-08
3.69275658178e-08
4.49343282031e-08
4.6758854281e-08
5.13572425991e-08
4.72136484775e-08
4.59560403409e-08
3.53971319769e-08
1.85132964861e-08
6.49431720202e-09
6.53293729289e-08
7.38873568066e-08
7.15967932414e-08
7.81910297647e-08
7.10197850922e-08
6.28896009207e-08
5.31769787221e-08
4.60165102456e-08
3.61995673548e-08
3.01299847581e-08
2.04088516172e-08
1.50813092359e-08
5.2706368297e-09
1.01081105397e-09
8.84066635859e-09
1.31348852612e-08
2.3407244761e-08
2.7023803316e-08
3.76115826749e-08
4.09512203975e-08
5.11620898811e-08
5.3277672129e-08
5.94644494689e-08
5.72174577888e-08
5.31004038803e-08
4.73546236837e-08
1.57568474588e-08
1.59705166083e-09
8.06808414427e-08
8.75410563216e-08
8.58668287104e-08
5.25770669204e-08
2.41846826715e-08
4.52693258092e-08
1.94348289717e-08
3.39673604779e-08
1.36557674596e-08
2.31662806689e-08
8.46169405213e-09
1.27249957533e-08
3.45717161828e-09
2.93282858508e-09
1.09706030909e-09
6.85020483948e-09
5.73332058749e-09
1.61002357612e-08
1.06725442851e-08
2.64128329347e-08
1.60565354405e-08
3.58478823964e-08
2.06178966323e-08
4.19069234875e-08
2.30938838202e-08
3.94899218701e-08
1.6110921448e-08
6.63238055183e-09
7.8883982556e-09
1.79709173035e-08
5.38721136227e-08
3.88754825824e-09
3.91113927994e-09
2.18232257469e-09
1.31053392883e-09
1.06091005093e-09
4.60225831988e-10
8.02709816475e-10
1.45533229019e-10
7.12449745086e-10
1.04088781171e-10
3.35939277443e-10
1.96039562684e-10
3.85871832723e-10
1.20021464867e-10
5.39997516318e-10
5.55776138269e-11
9.22720088288e-13
3.3372841054e-10
4.76193027502e-10
1.07616561314e-09
2.3077300757e-09
2.37365643695e-09
3.70520581579e-09
4.72789961991e-09
8.9264036239e-09
6.78411783838e-09
4.56834292435e-09
4.33732569042e-09
2.02063529609e-09
1.41064161695e-09
9.36041046267e-10
4.09665355778e-10
6.05447655227e-10
3.64502593515e-10
4.98776692706e-10
2.88677200444e-10
1.90074389378e-10
1.07944941035e-09
8.29200671316e-10
1.47010569687e-09
1.01510968656e-09
1.12306327041e-09
2.29561210685e-09
2.63285931331e-09
5.52383370625e-09
7.56261926399e-09
1.03258182078e-08
8.96695333854e-09
4.86720179774e-09
4.44510495074e-09
1.83375968168e-09
1.45667205956e-09
1.14034433642e-09
4.36397081369e-10
1.07031659926e-09
1.67907789483e-09
7.63743725497e-10
1.06201709473e-09
1.2349983007e-09
1.34611907276e-09
2.19435625156e-09
4.11923753728e-09
4.22502410078e-09
1.0325046207e-08
1.18792887993e-08
1.11700935522e-08
4.69670086078e-09
4.79777647912e-09
1.92136590817e-09
2.04635413667e-09
2.38531981353e-09
1.83445966041e-09
1.87529167841e-09
5.14452956345e-09
5.01620878257e-09
1.09649545878e-08
1.0711897475e-08
1.11754711409e-08
1.26603723086e-08
3.33736345547e-09
3.17060262782e-09
3.45100619606e-09
9.21251254143e-09
8.32650342109e-09
9.23728695713e-09
1.68553545528e-08
2.39931452221e-08
1.82856296118e-08
2.4663390515e-08
1.71748927768e-08
1.66333351865e-08
3.88994958146e-08
6.33612978325e-08
5.59276732202e-08
6.81822228602e-08
3.40946798984e-08
2.05360668702e-08
6.38244329692e-08
8.98162040624e-08
7.35232613549e-08
6.5191282617e-08
4.19304585586e-08
2.6577918328e-08
2.07047904507e-08
8.76099751296e-09
2.20958657714e-08
1.47809023302e-08
1.8950691956e-07
6.38929742298e-06
6.06007099202e-06
5.4582297433e-08
9.9389495826e-08
6.09725391982e-08
8.82867533408e-09
1.05380881292e-08
4.60246009493e-08
1.47914750026e-08
6.23078023104e-09
1.00261855785e-08
2.26706411332e-08
3.18798276967e-08
1.78514840826e-08
6.79591538508e-09
1.24285808839e-08
1.11819273464e-08
5.45318851652e-09
2.13774743809e-08
1.77369337626e-08
2.00348905244e-08
1.59102145016e-08
1.87862463581e-08
1.41256256567e-08
1.8352302397e-08
4.27238526511e-06
5.05248160752e-06
4.95879424655e-06
2.0962743135e-06
2.40647603665e-06
3.98621110445e-06
1.23387194155e-06
7.02455221306e-06
1.12712931292e-05
9.77257778176e-06
8.89242727232e-06
7.33506827442e-06
5.16417075347e-06
3.49184598998e-07
7.95358441787e-08
7.4832618599e-07
5.33216653531e-07
6.51399940614e-07
5.0197246672e-07
8.9218517982e-07
2.95420633573e-07
1.77700965553e-07
1.54104151789e-07
6.37830566204e-09
2.34228127639e-08
1.51938169726e-07
2.35021649128e-07
4.6796835221e-07
4.73720947308e-07
8.06400593664e-07
5.8484810179e-07
5.92357739887e-07
2.70271130099e-07
6.8571467139e-07
9.76498709492e-07
1.10301230223e-07
1.93483446839e-07
1.85360905494e-07
1.75779903504e-07
1.34550455635e-07
6.21089435443e-08
1.48987453432e-08
7.79736004413e-08
1.09873278937e-07
2.0468982274e-07
1.95513092692e-07
2.62307582103e-07
1.76715032741e-07
1.82940874009e-07
3.38554486276e-07
6.7629356505e-07
2.37211917499e-08
1.70025287301e-08
7.01536590729e-08
7.86699662545e-08
1.02750008904e-07
3.57433637073e-08
3.05685647424e-09
7.41884246302e-08
6.40273882694e-08
1.19376391852e-07
4.15557981504e-08
6.88416698273e-08
2.05810896963e-07
5.20567550993e-07
5.34630875251e-08
3.20395845712e-08
3.45125062362e-08
3.40204983515e-08
3.40808135762e-08
1.35799245834e-08
4.11881744924e-08
5.55118300654e-09
8.09023657315e-08
3.26557970054e-07
7.58549506913e-08
1.56667397883e-08
1.78625286475e-06
1.52045685492e-06
1.45123292279e-06
2.32309964544e-06
4.48028597696e-08
4.85554158986e-08
3.38219081906e-07
1.8667573897e-07
5.42566960737e-07
2.54383122028e-07
6.67163604211e-07
3.09900652535e-07
8.39898294526e-07
3.99578862842e-07
6.71329531653e-07
1.97132524961e-07
9.81148009603e-06
7.90880953831e-06
7.94219662662e-06
5.42379525538e-06
4.99826262629e-06
1.339223156e-06
1.97271106684e-06
6.17192267381e-06
5.65023265397e-07
3.37595395561e-06
3.51361552052e-06
7.70383680818e-06
5.28982363775e-07
2.69599052526e-07
4.24587481752e-07
1.4555073288e-07
1.16033282396e-07
6.53635221643e-08
4.23976862859e-08
7.17948750059e-09
7.71720949236e-09
3.91282486899e-08
5.42790287256e-08
1.0017287778e-07
1.39121678561e-08
1.84783449856e-06
1.80107736802e-06
5.28000122141e-06
3.79369675168e-06
7.89006051622e-08
2.13860161827e-08
2.97612554726e-07
2.7645384881e-08
1.74068111887e-07
2.6303404133e-08
8.95840000872e-08
4.53180034996e-07

