# vtk DataFile Version 3.0
File Name: Molecule/methanol/methanol_8.0-4.vtk
ASCII
DATASET UNSTRUCTURED_GRID
FIELD FieldData 1
TIME 1 1 double
0.0
POINTS 385 double
1.611 0.0 -0.359
1.569 -0.375 -0.355
1.403 0.0 -0.933
1.445 -0.731 -0.342
1.245 -1.05 -0.322
1.252 -0.666 -0.918
1.07 -0.957 -0.9
0.98 -1.317 -0.296
0.828 -1.2 -0.876
0.662 -1.518 -0.264
0.538 -1.382 -0.847
0.308 -1.642 -0.229
0.216 -1.496 -0.815
-0.065 -1.684 -0.192
-0.124 -1.534 -0.781
-0.438 -1.642 -0.155
-0.464 -1.496 -0.747
-0.793 -1.518 -0.119
-0.787 -1.382 -0.715
-1.11 -1.317 -0.088
-1.076 -1.2 -0.686
-1.376 -1.05 -0.061
-1.318 -0.957 -0.662
-1.576 -0.731 -0.042
-1.5 -0.666 -0.644
-1.7 -0.375 -0.029
-1.613 -0.341 -0.633
-1.742 0.0 -0.025
-1.651 0.0 -0.629
-1.7 0.375 -0.029
-1.613 0.341 -0.633
-1.576 0.731 -0.042
-1.5 0.666 -0.644
-1.376 1.05 -0.061
-1.318 0.957 -0.662
-1.11 1.317 -0.088
-1.076 1.2 -0.686
-0.793 1.518 -0.119
-0.787 1.382 -0.715
-0.438 1.642 -0.155
-0.464 1.496 -0.747
-0.065 1.684 -0.192
-0.124 1.534 -0.781
0.308 1.642 -0.229
0.216 1.496 -0.815
0.662 1.518 -0.264
0.538 1.382 -0.847
0.98 1.317 -0.296
0.828 1.2 -0.876
1.245 1.05 -0.322
1.07 0.957 -0.9
1.445 0.731 -0.342
1.252 0.666 -0.918
1.569 0.375 -0.355
1.365 0.341 -0.929
1.907 0.0 0.656
1.87 0.368 0.656
1.87 0.184 0.974
1.87 -0.184 0.974
1.87 -0.368 0.656
1.87 -0.184 0.337
1.87 0.184 0.337
1.763 0.626 1.017
1.763 0.361 1.281
1.763 -0.0 1.378
1.763 -0.361 1.281
1.763 -0.626 1.017
1.763 -0.722 0.656
1.763 -0.626 0.294
1.763 -0.361 0.03
1.763 -0.0 -0.067
1.763 0.361 0.03
1.763 0.626 0.294
1.763 0.722 0.656
1.588 0.985 1.014
1.588 0.803 1.33
1.588 0.524 1.564
1.588 0.182 1.688
1.588 -0.182 1.688
1.588 -0.524 1.564
1.588 -0.803 1.33
1.588 -0.985 1.014
1.588 -1.049 0.656
1.588 -0.985 0.297
1.588 -0.803 -0.018
1.588 0.803 -0.018
1.588 0.985 0.297
1.588 1.049 0.656
1.354 1.285 1.016
1.354 1.14 1.349
1.354 0.911 1.631
1.354 0.614 1.841
1.354 0.272 1.962
1.354 -0.091 1.987
1.354 -0.447 1.913
1.354 -0.77 1.746
1.354 -1.035 1.498
1.354 -1.224 1.187
1.354 -1.322 0.837
1.354 -1.322 0.474
1.354 -1.224 0.124
1.354 1.14 -0.038
1.354 1.285 0.296
1.354 1.335 0.656
1.068 1.527 1.018
1.068 1.402 1.36
1.068 1.202 1.664
1.068 0.937 1.914
1.068 0.622 2.097
1.068 0.273 2.201
1.068 -0.091 2.222
1.068 -0.45 2.159
1.068 -0.785 2.015
1.068 -1.077 1.797
1.068 -1.311 1.518
1.068 -1.475 1.192
1.068 -1.559 0.838
1.068 -1.559 0.473
1.068 -1.475 0.119
1.068 1.402 -0.049
1.068 1.527 0.294
1.068 1.569 0.656
0.741 1.706 1.018
0.741 1.593 1.365
0.741 1.411 1.681
0.741 1.167 1.952
0.741 0.872 2.166
0.741 0.539 2.314
0.741 0.182 2.39
0.741 -0.182 2.39
0.741 -0.539 2.314
0.741 -0.872 2.166
0.741 -1.167 1.952
0.741 -1.411 1.681
0.741 -1.593 1.365
0.741 -1.706 1.018
0.741 -1.744 0.656
0.741 -1.706 0.293
0.741 -1.593 -0.054
0.741 1.593 -0.054
0.741 1.706 0.293
0.741 1.744 0.656
0.387 1.816 1.017
0.387 1.71 1.364
0.387 1.539 1.684
0.387 1.309 1.965
0.387 1.028 2.195
0.387 0.708 2.366
0.387 0.361 2.471
0.387 0.0 2.507
0.387 -0.361 2.471
0.387 -0.708 2.366
0.387 -1.028 2.195
0.387 -1.309 1.965
0.387 -1.539 1.684
0.387 -1.71 1.364
0.387 -1.816 1.017
0.387 -1.851 0.656
0.387 -1.816 0.294
0.387 -1.71 -0.053
0.387 1.71 -0.053
0.387 1.816 0.294
0.387 1.851 0.656
0.019 1.853 1.013
0.019 1.752 1.357
0.019 1.588 1.676
0.019 1.366 1.958
0.019 1.095 2.193
0.019 0.784 2.373
0.019 0.445 2.49
0.019 0.09 2.541
0.019 -0.269 2.524
0.019 -0.617 2.439
0.019 -0.944 2.29
0.019 -1.236 2.082
0.019 -1.484 1.822
0.019 -1.678 1.521
0.019 -1.811 1.187
0.019 -1.879 0.835
0.019 -1.879 0.476
0.019 -1.811 0.124
0.019 1.853 0.298
0.019 1.888 0.656
-0.349 1.851 0.656
-0.349 1.816 1.017
-0.349 1.71 1.364
-0.349 1.539 1.684
-0.349 1.309 1.965
-0.349 1.028 2.195
-0.349 0.708 2.366
-0.349 0.361 2.471
-0.349 0.0 2.507
-0.349 -0.361 2.471
-0.349 -0.708 2.366
-0.349 -1.028 2.195
-0.349 -1.309 1.965
-0.349 -1.539 1.684
-0.349 -1.71 1.364
-0.349 -1.816 1.017
-0.349 -1.851 0.656
-0.349 -1.816 0.294
-0.349 1.816 0.294
-0.703 1.744 0.656
-0.703 1.706 1.018
-0.703 1.593 1.365
-0.703 1.411 1.681
-0.703 1.167 1.952
-0.703 0.872 2.166
-0.703 0.539 2.314
-0.703 0.182 2.39
-0.703 -0.182 2.39
-0.703 -0.539 2.314
-0.703 -0.872 2.166
-0.703 -1.167 1.952
-0.703 -1.411 1.681
-0.703 -1.593 1.365
-0.703 -1.706 1.018
-0.703 -1.744 0.656
-0.703 -1.706 0.293
-0.703 1.706 0.293
-1.03 1.569 0.656
-1.03 1.527 1.018
-1.03 1.402 1.36
-1.03 1.202 1.664
-1.03 0.937 1.914
-1.03 0.622 2.097
-1.03 0.273 2.201
-1.03 -0.091 2.222
-1.03 -0.45 2.159
-1.03 -0.785 2.015
-1.03 -1.077 1.797
-1.03 -1.311 1.518
-1.03 -1.475 1.192
-1.03 -1.559 0.838
-1.03 -1.559 0.473
-1.03 -1.475 0.119
-1.03 1.527 0.294
-1.316 1.335 0.656
-1.316 1.285 1.016
-1.316 1.14 1.349
-1.316 0.911 1.631
-1.316 0.614 1.841
-1.316 0.272 1.962
-1.316 -0.091 1.987
-1.316 -0.447 1.913
-1.316 -0.77 1.746
-1.316 -1.035 1.498
-1.316 -1.224 1.187
-1.316 -1.322 0.837
-1.316 -1.322 0.474
-1.316 -1.224 0.124
-1.316 1.285 0.296
-1.55 1.049 0.656
-1.55 0.985 1.014
-1.55 0.803 1.33
-1.55 0.524 1.564
-1.55 0.182 1.688
-1.55 -0.182 1.688
-1.55 -0.524 1.564
-1.55 -0.803 1.33
-1.55 -0.985 1.014
-1.55 -1.049 0.656
-1.55 -0.985 0.297
-1.55 0.985 0.297
-1.725 0.722 0.656
-1.725 0.626 1.017
-1.725 0.361 1.281
-1.725 -0.0 1.378
-1.725 -0.361 1.281
-1.725 -0.626 1.017
-1.725 -0.722 0.656
-1.725 -0.626 0.294
-1.725 0.626 0.294
-1.832 0.368 0.656
-1.832 0.184 0.974
-1.832 -0.184 0.974
-1.832 -0.368 0.656
-1.832 -0.184 0.337
-1.832 0.184 0.337
-1.868 -0.0 0.656
1.239 -0.357 -1.355
1.029 -0.613 -1.549
1.029 -0.279 -1.716
1.239 -0.0 -1.451
1.029 0.094 -1.751
1.239 0.357 -1.355
1.029 0.454 -1.648
1.029 0.752 -1.423
1.029 -0.865 -1.273
0.752 -1.212 -1.093
0.752 -1.063 -1.42
0.752 -0.827 -1.692
0.752 -0.525 -1.886
0.752 -0.18 -1.988
0.752 0.18 -1.988
0.752 0.525 -1.886
0.752 0.827 -1.692
0.752 1.063 -1.42
1.029 0.949 -1.105
0.752 1.212 -1.093
0.425 -1.334 -1.266
0.425 -1.161 -1.581
0.425 -0.915 -1.843
0.425 -0.611 -2.036
0.425 -0.269 -2.147
0.425 0.09 -2.17
0.425 0.444 -2.102
0.425 0.769 -1.949
0.425 1.046 -1.72
0.425 1.258 -1.429
0.425 1.39 -1.094
0.065 -1.48 -1.102
0.065 -1.349 -1.445
0.065 -1.141 -1.748
0.065 -0.866 -1.991
0.065 -0.54 -2.162
0.065 -0.184 -2.25
0.065 0.184 -2.25
0.065 0.54 -2.162
0.065 0.866 -1.991
0.065 1.141 -1.748
0.065 1.349 -1.445
0.065 1.48 -1.102
-0.305 -1.48 -1.102
-0.305 -1.349 -1.445
-0.305 -1.141 -1.748
-0.305 -0.866 -1.991
-0.305 -0.54 -2.162
-0.305 -0.184 -2.25
-0.305 0.184 -2.25
-0.305 0.54 -2.162
-0.305 0.866 -1.991
-0.305 1.141 -1.748
-0.305 1.349 -1.445
-0.305 1.48 -1.102
-0.664 -1.424 -0.917
-0.664 -1.334 -1.266
-0.664 -1.161 -1.581
-0.664 -0.915 -1.843
-0.664 -0.611 -2.036
-0.664 -0.269 -2.147
-0.664 0.09 -2.17
-0.664 0.444 -2.102
-0.664 0.769 -1.949
-0.664 1.046 -1.72
-0.664 1.258 -1.429
-0.664 1.39 -1.094
-0.992 -1.212 -1.093
-0.992 -1.063 -1.42
-0.992 -0.827 -1.692
-0.992 -0.525 -1.886
-0.992 -0.18 -1.988
-0.992 0.18 -1.988
-0.992 0.525 -1.886
-0.992 0.827 -1.692
-0.992 1.063 -1.42
-0.992 1.212 -1.093
-1.269 -1.001 -0.924
-1.269 -0.865 -1.273
-1.269 -0.613 -1.549
-1.269 -0.279 -1.716
-1.269 0.094 -1.751
-1.269 0.454 -1.648
-1.269 0.752 -1.423
-1.269 0.949 -1.105
-1.479 -0.618 -1.094
-1.479 -0.357 -1.355
-1.479 -0.0 -1.451
-1.479 0.357 -1.355
-1.479 0.618 -1.094
-1.61 -0.184 -1.055
-1.61 0.184 -1.055
1.365 -0.341 -0.929
1.239 0.1785 -1.403
1.321 0.1785 -1.144
1.321 0.0 -1.192
1.239 0.08925 -1.427
1.28 0.08925 -1.2975
1.28 0.0 -1.3215
1.467 -0.358 -0.642
1.507 -0.553 -0.3485
1.405 -0.536 -0.6355
1.302 0.349 -1.142
1.343 0.25975 -1.0365
1.28 0.26775 -1.2495

CELLS 766 3064
3 0 1 2
3 3 4 5
3 5 4 6
3 4 7 6
3 6 7 8
3 7 9 8
3 8 9 10
3 9 11 10
3 10 11 12
3 11 13 12
3 12 13 14
3 13 15 14
3 14 15 16
3 15 17 16
3 16 17 18
3 17 19 18
3 18 19 20
3 19 21 20
3 20 21 22
3 21 23 22
3 22 23 24
3 23 25 24
3 24 25 26
3 25 27 26
3 26 27 28
3 27 29 28
3 28 29 30
3 29 31 30
3 30 31 32
3 31 33 32
3 32 33 34
3 33 35 34
3 34 35 36
3 35 37 36
3 36 37 38
3 37 39 38
3 38 39 40
3 39 41 40
3 40 41 42
3 41 43 42
3 42 43 44
3 43 45 44
3 44 45 46
3 45 47 46
3 46 47 48
3 47 49 48
3 48 49 50
3 49 51 50
3 50 51 52
3 51 53 52
3 52 53 54
3 53 0 54
3 54 0 2
3 55 56 57
3 55 57 58
3 55 58 59
3 55 59 60
3 55 60 61
3 55 61 56
3 57 56 62
3 57 62 63
3 57 63 64
3 58 57 64
3 58 64 65
3 58 65 66
3 59 58 66
3 59 66 67
3 59 67 68
3 60 59 68
3 60 68 69
3 60 69 70
3 61 60 70
3 61 70 71
3 61 71 72
3 56 61 72
3 56 72 73
3 56 73 62
3 62 73 74
3 62 74 75
3 63 62 75
3 63 75 76
3 63 76 77
3 64 63 77
3 64 77 78
3 65 64 78
3 65 78 79
3 65 79 80
3 66 65 80
3 66 80 81
3 67 66 81
3 67 81 82
3 67 82 83
3 68 67 83
3 68 83 84
3 69 68 84
3 72 71 85
3 72 85 86
3 73 72 86
3 73 86 87
3 73 87 74
3 74 87 88
3 74 88 89
3 75 74 89
3 75 89 90
3 76 75 90
3 76 90 91
3 77 76 91
3 77 91 92
3 77 92 93
3 78 77 93
3 78 93 94
3 79 78 94
3 79 94 95
3 80 79 95
3 80 95 96
3 80 96 97
3 81 80 97
3 81 97 98
3 82 81 98
3 82 98 99
3 83 82 99
3 83 99 100
3 84 83 100
3 86 85 101
3 86 101 102
3 87 86 102
3 87 102 103
3 87 103 88
3 88 103 104
3 88 104 105
3 89 88 105
3 89 105 106
3 90 89 106
3 90 106 107
3 91 90 107
3 91 107 108
3 92 91 108
3 92 108 109
3 93 92 109
3 93 109 110
3 93 110 111
3 94 93 111
3 94 111 112
3 95 94 112
3 95 112 113
3 96 95 113
3 96 113 114
3 97 96 114
3 97 114 115
3 98 97 115
3 98 115 116
3 98 116 117
3 99 98 117
3 99 117 118
3 100 99 118
3 102 101 119
3 102 119 120
3 103 102 120
3 103 120 121
3 103 121 104
3 104 121 122
3 104 122 123
3 105 104 123
3 105 123 124
3 106 105 124
3 106 124 125
3 107 106 125
3 107 125 126
3 108 107 126
3 108 126 127
3 109 108 127
3 109 127 128
3 110 109 128
3 110 128 129
3 111 110 129
3 111 129 130
3 112 111 130
3 112 130 131
3 112 131 132
3 113 112 132
3 113 132 133
3 114 113 133
3 114 133 134
3 115 114 134
3 115 134 135
3 116 115 135
3 116 135 136
3 117 116 136
3 117 136 137
3 118 117 137
3 118 137 138
3 120 119 139
3 120 139 140
3 121 120 140
3 121 140 141
3 121 141 122
3 122 141 142
3 122 142 143
3 123 122 143
3 123 143 144
3 124 123 144
3 124 144 145
3 125 124 145
3 125 145 146
3 126 125 146
3 126 146 147
3 127 126 147
3 127 147 148
3 128 127 148
3 128 148 149
3 129 128 149
3 129 149 150
3 130 129 150
3 130 150 151
3 131 130 151
3 131 151 152
3 132 131 152
3 132 152 153
3 133 132 153
3 133 153 154
3 134 133 154
3 134 154 155
3 135 134 155
3 135 155 156
3 136 135 156
3 136 156 157
3 136 157 158
3 137 136 158
3 137 158 159
3 138 137 159
3 140 139 160
3 140 160 161
3 141 140 161
3 141 161 162
3 141 162 142
3 142 162 163
3 142 163 164
3 143 142 164
3 143 164 165
3 144 143 165
3 144 165 166
3 145 144 166
3 145 166 167
3 146 145 167
3 146 167 168
3 147 146 168
3 147 168 169
3 148 147 169
3 148 169 170
3 149 148 170
3 149 170 171
3 150 149 171
3 150 171 172
3 151 150 172
3 151 172 173
3 152 151 173
3 152 173 174
3 153 152 174
3 153 174 175
3 154 153 175
3 154 175 176
3 155 154 176
3 155 176 177
3 156 155 177
3 156 177 178
3 157 156 178
3 157 178 179
3 158 157 179
3 158 179 180
3 159 158 180
3 162 161 181
3 162 181 182
3 162 182 163
3 163 182 183
3 163 183 184
3 164 163 184
3 164 184 185
3 165 164 185
3 165 185 186
3 166 165 186
3 166 186 187
3 167 166 187
3 167 187 188
3 168 167 188
3 168 188 189
3 169 168 189
3 169 189 190
3 170 169 190
3 170 190 191
3 171 170 191
3 171 191 192
3 172 171 192
3 172 192 193
3 173 172 193
3 173 193 194
3 174 173 194
3 174 194 195
3 175 174 195
3 175 195 196
3 176 175 196
3 176 196 197
3 177 176 197
3 177 197 198
3 178 177 198
3 178 198 199
3 179 178 199
3 179 199 200
3 180 179 200
3 183 181 201
3 182 181 183
3 184 183 202
3 184 202 203
3 185 184 203
3 185 203 204
3 186 185 204
3 186 204 205
3 187 186 205
3 187 205 206
3 188 187 206
3 188 206 207
3 189 188 207
3 189 207 208
3 190 189 208
3 190 208 209
3 191 190 209
3 191 209 210
3 192 191 210
3 192 210 211
3 193 192 211
3 193 211 212
3 194 193 212
3 194 212 213
3 195 194 213
3 195 213 214
3 196 195 214
3 196 214 215
3 197 196 215
3 197 215 216
3 198 197 216
3 198 216 217
3 199 198 217
3 200 199 217
3 200 217 218
3 202 201 219
3 183 201 202
3 203 202 220
3 203 220 221
3 204 203 221
3 204 221 222
3 205 204 222
3 205 222 223
3 206 205 223
3 206 223 224
3 207 206 224
3 207 224 225
3 208 207 225
3 208 225 226
3 209 208 226
3 209 226 227
3 210 209 227
3 210 227 228
3 211 210 228
3 211 228 229
3 212 211 229
3 213 212 229
3 213 229 230
3 214 213 230
3 214 230 231
3 215 214 231
3 215 231 232
3 216 215 232
3 216 232 233
3 217 216 233
3 217 233 234
3 218 217 234
3 218 234 235
3 220 219 236
3 202 219 220
3 221 220 237
3 221 237 238
3 222 221 238
3 222 238 239
3 223 222 239
3 223 239 240
3 224 223 240
3 224 240 241
3 225 224 241
3 225 241 242
3 226 225 242
3 226 242 243
3 227 226 243
3 228 227 243
3 228 243 244
3 229 228 244
3 229 244 245
3 230 229 245
3 230 245 246
3 231 230 246
3 231 246 247
3 232 231 247
3 232 247 248
3 233 232 248
3 233 248 249
3 234 233 249
3 235 234 249
3 235 249 250
3 237 236 251
3 220 236 237
3 238 237 252
3 238 252 253
3 239 238 253
3 239 253 254
3 240 239 254
3 240 254 255
3 241 240 255
3 241 255 256
3 242 241 256
3 243 242 256
3 243 256 257
3 244 243 257
3 244 257 258
3 245 244 258
3 245 258 259
3 246 245 259
3 247 246 259
3 247 259 260
3 248 247 260
3 248 260 261
3 249 248 261
3 249 261 262
3 250 249 262
3 252 251 263
3 237 251 252
3 253 252 264
3 253 264 265
3 254 253 265
3 254 265 266
3 255 254 266
3 256 255 266
3 256 266 267
3 257 256 267
3 257 267 268
3 258 257 268
3 259 258 268
3 259 268 269
3 260 259 269
3 260 269 270
3 261 260 270
3 262 261 270
3 262 270 271
3 264 263 272
3 252 263 264
3 265 264 273
3 265 273 274
3 266 265 274
3 267 266 274
3 267 274 275
3 268 267 275
3 269 268 275
3 269 275 276
3 270 269 276
3 271 270 276
3 271 276 277
3 273 272 278
3 264 272 273
3 274 273 279
3 275 274 279
3 276 275 279
3 277 276 279
3 278 277 279
3 273 278 279
3 278 272 29
3 278 29 27
3 278 27 277
3 277 27 25
3 277 25 271
3 271 25 23
3 271 23 262
3 262 23 21
3 262 21 250
3 250 21 19
3 250 19 235
3 235 19 17
3 235 17 218
3 218 17 15
3 218 15 200
3 200 15 180
3 180 15 13
3 180 13 11
3 180 11 159
3 159 11 9
3 159 9 138
3 138 9 7
3 138 7 118
3 118 7 100
3 100 7 4
3 100 4 84
3 84 4 3
3 84 1 69
3 69 1 70
3 70 1 0
3 70 0 53
3 70 53 71
3 71 53 85
3 85 53 51
3 85 51 49
3 85 49 101
3 101 49 119
3 119 49 47
3 119 47 139
3 139 47 45
3 139 45 160
3 160 45 43
3 160 43 41
3 160 41 181
3 160 181 161
3 181 41 201
3 201 41 39
3 201 39 219
3 219 39 37
3 219 37 236
3 236 37 35
3 236 35 251
3 251 35 33
3 251 33 263
3 263 33 31
3 263 31 272
3 272 31 29
3 280 281 282
3 283 280 282
3 283 282 284
3 285 284 286
3 285 286 287
3 288 289 290
3 288 290 291
3 281 288 291
3 281 291 292
3 282 281 292
3 282 292 293
3 284 282 293
3 284 293 294
3 286 284 294
3 286 294 295
3 286 295 296
3 287 286 296
3 287 296 297
3 298 287 297
3 298 297 299
3 290 289 300
3 290 300 301
3 291 290 301
3 291 301 302
3 292 291 302
3 292 302 303
3 292 303 304
3 293 292 304
3 293 304 305
3 294 293 305
3 294 305 306
3 295 294 306
3 295 306 307
3 296 295 307
3 296 307 308
3 297 296 308
3 297 308 309
3 299 297 309
3 299 309 310
3 300 311 312
3 301 300 312
3 301 312 313
3 302 301 313
3 302 313 314
3 303 302 314
3 303 314 315
3 304 303 315
3 304 315 316
3 305 304 316
3 305 316 317
3 306 305 317
3 306 317 318
3 307 306 318
3 307 318 319
3 308 307 319
3 308 319 320
3 309 308 320
3 309 320 321
3 310 309 321
3 310 321 322
3 311 323 324
3 312 311 324
3 312 324 325
3 313 312 325
3 313 325 326
3 314 313 326
3 314 326 327
3 315 314 327
3 315 327 328
3 316 315 328
3 316 328 329
3 317 316 329
3 317 329 330
3 318 317 330
3 318 330 331
3 319 318 331
3 319 331 332
3 320 319 332
3 320 332 333
3 321 320 333
3 321 333 334
3 322 321 334
3 323 335 336
3 324 323 336
3 324 336 337
3 325 324 337
3 325 337 338
3 326 325 338
3 326 338 339
3 327 326 339
3 327 339 340
3 328 327 340
3 328 340 341
3 329 328 341
3 329 341 342
3 330 329 342
3 330 342 343
3 331 330 343
3 331 343 344
3 332 331 344
3 332 344 345
3 333 332 345
3 333 345 346
3 334 333 346
3 336 335 347
3 336 347 348
3 337 336 348
3 337 348 349
3 338 337 349
3 338 349 350
3 339 338 350
3 340 339 350
3 340 350 351
3 341 340 351
3 341 351 352
3 342 341 352
3 342 352 353
3 343 342 353
3 343 353 354
3 344 343 354
3 344 354 355
3 345 344 355
3 345 355 356
3 346 345 356
3 347 357 358
3 348 347 358
3 349 348 358
3 349 358 359
3 350 349 359
3 350 359 360
3 351 350 360
3 351 360 361
3 352 351 361
3 352 361 362
3 353 352 362
3 354 353 362
3 354 362 363
3 355 354 363
3 355 363 364
3 356 355 364
3 358 357 365
3 359 358 365
3 359 365 366
3 360 359 366
3 360 366 367
3 361 360 367
3 361 367 368
3 362 361 368
3 363 362 368
3 363 368 369
3 364 363 369
3 366 365 370
3 367 366 370
3 367 370 371
3 368 367 371
3 369 368 371
3 369 371 30
3 369 30 32
3 369 32 34
3 369 34 364
3 364 34 36
3 364 36 356
3 356 36 38
3 356 38 346
3 346 38 40
3 346 40 334
3 334 40 42
3 334 42 322
3 322 42 44
3 322 44 310
3 310 44 46
3 310 46 299
3 299 46 48
3 299 48 298
3 298 48 50
3 298 50 52
3 298 52 287
3 287 52 285
3 280 2 372
3 280 372 5
3 280 5 288
3 280 288 281
3 288 5 6
3 288 6 289
3 289 6 8
3 289 8 10
3 289 10 300
3 300 10 12
3 300 12 311
3 311 12 14
3 311 14 323
3 323 14 16
3 323 16 335
3 335 16 18
3 335 18 347
3 347 18 20
3 347 20 357
3 357 20 22
3 357 22 24
3 357 24 365
3 365 24 26
3 365 26 370
3 370 26 28
3 370 28 371
3 371 28 30
3 285 373 284
3 374 2 375
3 375 2 280
3 373 376 284
3 376 283 284
3 375 377 374
3 374 377 373
3 373 377 376
3 377 378 376
3 377 375 378
3 376 378 283
3 283 378 280
3 378 375 280
3 1 379 2
3 2 379 372
3 1 380 379
3 380 381 379
3 380 3 381
3 379 381 372
3 372 381 5
3 381 3 5
3 3 380 84
3 84 380 1
3 54 382 52
3 285 382 52
3 374 383 2
3 2 383 54
3 285 384 382
3 384 383 382
3 384 374 383
3 382 383 54
3 285 384 373
3 384 374 373

CELL_TYPES 766
5
5
5
5
5
5
5
5
5
5
5
5
5
5
5
5
5
5
5
5
5
5
5
5
5
5
5
5
5
5
5
5
5
5
5
5
5
5
5
5
5
5
5
5
5
5
5
5
5
5
5
5
5
5
5
5
5
5
5
5
5
5
5
5
5
5
5
5
5
5
5
5
5
5
5
5
5
5
5
5
5
5
5
5
5
5
5
5
5
5
5
5
5
5
5
5
5
5
5
5
5
5
5
5
5
5
5
5
5
5
5
5
5
5
5
5
5
5
5
5
5
5
5
5
5
5
5
5
5
5
5
5
5
5
5
5
5
5
5
5
5
5
5
5
5
5
5
5
5
5
5
5
5
5
5
5
5
5
5
5
5
5
5
5
5
5
5
5
5
5
5
5
5
5
5
5
5
5
5
5
5
5
5
5
5
5
5
5
5
5
5
5
5
5
5
5
5
5
5
5
5
5
5
5
5
5
5
5
5
5
5
5
5
5
5
5
5
5
5
5
5
5
5
5
5
5
5
5
5
5
5
5
5
5
5
5
5
5
5
5
5
5
5
5
5
5
5
5
5
5
5
5
5
5
5
5
5
5
5
5
5
5
5
5
5
5
5
5
5
5
5
5
5
5
5
5
5
5
5
5
5
5
5
5
5
5
5
5
5
5
5
5
5
5
5
5
5
5
5
5
5
5
5
5
5
5
5
5
5
5
5
5
5
5
5
5
5
5
5
5
5
5
5
5
5
5
5
5
5
5
5
5
5
5
5
5
5
5
5
5
5
5
5
5
5
5
5
5
5
5
5
5
5
5
5
5
5
5
5
5
5
5
5
5
5
5
5
5
5
5
5
5
5
5
5
5
5
5
5
5
5
5
5
5
5
5
5
5
5
5
5
5
5
5
5
5
5
5
5
5
5
5
5
5
5
5
5
5
5
5
5
5
5
5
5
5
5
5
5
5
5
5
5
5
5
5
5
5
5
5
5
5
5
5
5
5
5
5
5
5
5
5
5
5
5
5
5
5
5
5
5
5
5
5
5
5
5
5
5
5
5
5
5
5
5
5
5
5
5
5
5
5
5
5
5
5
5
5
5
5
5
5
5
5
5
5
5
5
5
5
5
5
5
5
5
5
5
5
5
5
5
5
5
5
5
5
5
5
5
5
5
5
5
5
5
5
5
5
5
5
5
5
5
5
5
5
5
5
5
5
5
5
5
5
5
5
5
5
5
5
5
5
5
5
5
5
5
5
5
5
5
5
5
5
5
5
5
5
5
5
5
5
5
5
5
5
5
5
5
5
5
5
5
5
5
5
5
5
5
5
5
5
5
5
5
5
5
5
5
5
5
5
5
5
5
5
5
5
5
5
5
5
5
5
5
5
5
5
5
5
5
5
5
5
5
5
5
5
5
5
5
5
5
5
5
5
5
5
5
5
5
5
5
5
5
5
5
5
5
5
5
5
5
5
5
5
5
5
5
5
5
5
5
5
5
5
5
5
5
5
5
5
5
5
5
5
5
5
5
5
5
5
5
5
5
5
5
5
5
5
5
5
5
5
5
5
5
5
5
5
5
5
5
5
5
5
5
5
5
5
5
5
5
5
5
5
5
5
5
5
5
5
5
5
5
5
5
5
5
5
5
5
5
5
5
5
5
5
5
5
5
5
5
5
5
5
5
5
5
5
5
5
5
5
5
5
5
5
5
5
5
5
5
5
5
5
5
5
5
5
5
5
5
5
5
5

CELL_DATA 766
SCALARS cell_data_0 double
LOOKUP_TABLE default
5.45335956998e-08
8.09729690929e-09
6.80786680988e-09
1.78174837215e-10
1.17261780174e-09
2.21524323701e-09
1.60192199725e-09
2.64051310603e-09
1.64203437991e-09
2.47307936974e-09
1.4235306029e-09
2.60419506694e-09
1.59120371219e-09
2.30585026467e-09
1.28971720537e-09
1.9402917032e-09
1.10611876974e-09
2.01491057288e-09
1.27416990702e-09
2.24964365498e-09
1.1317944713e-09
1.92501180537e-09
9.993502174e-10
1.52275251745e-09
1.07905751376e-09
1.86839269473e-09
1.1367737896e-09
2.22967856015e-09
1.42812012871e-09
2.45771596867e-09
1.24741934582e-09
2.23233645037e-09
1.55244929943e-09
2.69636609443e-09
1.85099874338e-09
3.29844838335e-09
2.32246807555e-09
3.89564252537e-09
2.62383770926e-09
4.50562833005e-09
3.06924254478e-09
4.96385269489e-09
3.15631058643e-09
4.44251987979e-09
2.43584023016e-09
9.78807363497e-10
2.26288599518e-09
1.77636788831e-08
4.51613967526e-09
9.24440379688e-08
5.59713486523e-08
5.6363839965e-08
1.00440448332e-08
5.10374830108e-10
4.23435232446e-10
5.14560338458e-10
6.77126019699e-10
5.48837532728e-10
4.75391299853e-10
5.90471268602e-10
4.46412240657e-10
4.98650380525e-10
5.44919028624e-10
4.25066274537e-10
3.35442928636e-10
5.60803969109e-10
6.57045505089e-10
5.59009342203e-10
6.81540269975e-10
5.83412786719e-10
5.93412447099e-10
5.61566963917e-10
3.90738158028e-10
5.26226513608e-10
6.32760135578e-10
5.25711315964e-10
4.46556203275e-10
3.47017934029e-10
3.79256975607e-10
4.87519854672e-10
4.84337414374e-10
3.90357881603e-10
4.42842055762e-10
3.53530214134e-10
4.44778090111e-10
4.32278978502e-10
3.30257836365e-10
2.37436177375e-10
3.14747163386e-10
6.61005984672e-10
8.08593788231e-10
5.7452644361e-10
3.06790364496e-10
2.10327326254e-10
4.68835536337e-10
5.38788798589e-10
4.28428723633e-10
4.75205303917e-10
4.2090436534e-10
3.82127301844e-10
4.30339371019e-10
3.4664055702e-10
4.00000376046e-10
3.82163785736e-10
4.49833048555e-10
3.27558588425e-10
3.4718208457e-10
3.37343279576e-10
3.29438642041e-10
3.2969664859e-10
3.28727728957e-10
4.18323770428e-10
3.6231356281e-10
2.6881560268e-10
2.08270501026e-10
3.37423143347e-10
4.83323759537e-10
2.28992536222e-10
2.18307140898e-10
6.18190835005e-11
2.45486976003e-10
1.44796756956e-10
3.55696300113e-10
4.39018434686e-10
4.09839552447e-10
4.29747950078e-10
3.87964322198e-10
4.22786635951e-10
3.96927422381e-10
3.91116589012e-10
3.68346850226e-10
2.9762623122e-10
3.06183540656e-10
2.98316450303e-10
3.00128236553e-10
2.67064531681e-10
3.06919491383e-10
2.90925901244e-10
3.15418454822e-10
2.81020085402e-10
2.72365409908e-10
3.16696656536e-10
3.06626304001e-10
3.08828863655e-10
2.78008661753e-10
3.00601519162e-10
2.94125595678e-10
3.99231840117e-10
3.17955355742e-10
7.01689899944e-11
6.28323400484e-11
1.28049852523e-10
2.34053743821e-10
5.85669316347e-12
1.71069100282e-10
4.2352750285e-10
3.77632730384e-10
3.57369743197e-10
3.48143435209e-10
3.53764066374e-10
3.71503646694e-10
3.25555521388e-10
3.14205439708e-10
2.69948455041e-10
3.00901367382e-10
2.84012996351e-10
2.9943090506e-10
2.7368500635e-10
2.6619977743e-10
2.55849906642e-10
2.62006695498e-10
2.72637592807e-10
2.80805752982e-10
2.42426705411e-10
2.36578409519e-10
2.55098870282e-10
2.93785695381e-10
3.03589798917e-10
2.88237397277e-10
2.97416660239e-10
2.70209859271e-10
2.66640101732e-10
2.24642694353e-10
2.06995949445e-10
1.82380211741e-10
1.5613241288e-10
1.87217709947e-11
8.65807252637e-11
1.83432213557e-10
4.21188347548e-11
6.1537318506e-11
3.32156292888e-10
3.06200951893e-10
3.54249461608e-10
3.36598964265e-10
3.39881773307e-10
3.01752954287e-10
2.89831566223e-10
2.89534450578e-10
2.70921174693e-10
2.73751765763e-10
2.17667218147e-10
2.07242910227e-10
2.03056665442e-10
2.68612476601e-10
2.09693254665e-10
2.18284614344e-10
1.42980463752e-10
2.03210019007e-10
2.01779213203e-10
2.45442214556e-10
2.07002181737e-10
2.33013424227e-10
1.93642089616e-10
2.34427227962e-10
1.77204728472e-10
2.44879919242e-10
1.95289164812e-10
2.19227562188e-10
2.05384645504e-10
2.19678431538e-10
1.68728016745e-10
1.54958373502e-10
1.03855279595e-10
2.22955326344e-11
5.00206083362e-11
1.51757710342e-10
2.0074205187e-10
1.54550304937e-10
1.967807522e-11
2.66597996595e-10
2.47884552973e-10
2.75414740701e-10
2.56729984579e-10
2.75903560869e-10
2.72485722412e-10
2.59069807256e-10
2.54467376062e-10
2.34755931648e-10
2.59179288485e-10
2.48119130354e-10
2.1256745596e-10
1.90529545871e-10
1.98098167747e-10
1.90099331976e-10
1.45418310263e-10
2.0793570542e-10
2.06669393005e-10
2.08540134249e-10
1.54177779444e-10
1.80441179852e-10
1.98359325605e-10
1.73802912201e-10
1.53889554579e-10
1.68049426058e-10
1.59743018969e-10
1.90878899073e-10
1.71630928872e-10
1.76768007251e-10
1.92941180832e-10
1.6820070282e-10
1.45722884401e-10
1.07789444885e-10
7.87994454608e-11
1.97606713235e-11
1.86278578036e-11
1.39328196129e-11
1.12422558781e-10
9.8468506472e-12
2.6530570351e-12
2.13788895147e-10
2.1131080009e-10
2.34636696194e-10
2.1289760701e-10
2.20084234266e-10
2.33358219186e-10
2.02042307342e-10
2.03969342842e-10
1.924797259e-10
2.11101539819e-10
1.94153942475e-10
2.0833756405e-10
2.10088340248e-10
1.84742241335e-10
1.59562785985e-10
2.23198530198e-10
2.14426550776e-10
2.00687832432e-10
1.39251862575e-10
1.70650674804e-10
1.89607036651e-10
1.75431079991e-10
1.82862223979e-10
1.92781128374e-10
1.7267712727e-10
1.79076337442e-10
1.62553489963e-10
1.77260009858e-10
1.59090384476e-10
1.42390843607e-10
1.28383330985e-10
1.08093427021e-10
8.58359223122e-11
4.40724838197e-11
8.67846732734e-11
9.27742403978e-11
1.32532480732e-10
1.3617016957e-10
9.4964061607e-11
1.76430141586e-10
1.72485905126e-10
1.72273712114e-10
1.9357159367e-10
1.85400571081e-10
1.76996218885e-10
1.82863548083e-10
1.79002454374e-10
1.64081090606e-10
1.73380232317e-10
1.87127036237e-10
1.93666074174e-10
1.93729025064e-10
1.45467307823e-10
1.30909169818e-10
1.31882776368e-10
1.55229738216e-10
1.75624271684e-10
1.33503222822e-10
1.46332465527e-10
1.45019378323e-10
1.53882121712e-10
1.52998310128e-10
1.48586034105e-10
1.51585588888e-10
1.42618976799e-10
1.26344863065e-10
1.21923815133e-10
8.68055922751e-11
7.45263328866e-11
6.4199068322e-11
1.16345982134e-10
1.80531118424e-10
1.94643512791e-10
5.91561115082e-11
1.33751622791e-10
1.51300090343e-10
1.51769513169e-10
1.71393205259e-10
1.57523323745e-10
1.66118511887e-10
1.6726732823e-10
1.63129930717e-10
1.37997240287e-10
1.40602388369e-10
1.4476750723e-10
1.81155903377e-10
1.51630786354e-10
1.386979228e-10
1.31165625565e-10
1.38016833662e-10
1.51975452436e-10
1.24589078625e-10
1.3229139776e-10
1.35794873563e-10
1.53207479205e-10
1.2323830219e-10
1.23216029997e-10
1.17660397832e-10
1.16010869961e-10
1.06781131136e-10
7.59232139117e-11
7.70127494435e-12
1.92381933458e-11
4.32068302928e-11
1.49463840234e-10
1.31150720713e-10
4.83257123556e-13
1.00969184948e-10
1.28364788494e-10
1.26388150937e-10
1.41001499303e-10
1.39478819512e-10
1.44598113798e-10
1.42222025247e-10
1.28632357366e-10
1.33932002428e-10
1.34976169443e-10
1.63299621745e-10
1.38781662173e-10
1.10843641107e-10
1.07732596118e-10
1.25882310181e-10
1.12870239601e-10
1.33546725823e-10
1.20178953879e-10
1.05985879063e-10
1.04748499141e-10
1.04028051418e-10
9.32995837985e-11
1.02402260931e-10
5.90663682071e-11
3.38297276815e-11
9.37212402427e-11
7.9675653997e-12
1.9004168135e-10
1.91878154648e-10
7.33859655694e-12
6.9997429176e-11
1.06509786973e-10
1.08623461183e-10
1.21484899696e-10
1.19365849295e-10
1.12650633999e-10
1.03843034968e-10
1.18110433936e-10
1.25495473566e-10
1.55949946901e-10
1.25147817695e-10
1.02540713422e-10
8.83289191734e-11
1.06875568241e-10
1.06380351049e-10
9.5918984592e-11
9.21374279658e-11
8.81093352273e-11
4.66606095313e-11
3.19045735688e-11
4.1050110412e-11
6.81507324932e-11
2.14039116097e-10
1.5417901387e-10
6.02674086691e-12
5.76613905917e-11
1.00615723834e-10
1.05137016667e-10
1.02348680054e-10
1.09151919478e-10
9.72519829422e-11
1.06238284998e-10
1.11206181336e-10
1.00912613327e-10
1.00112813394e-10
9.5130844479e-11
8.70664415928e-11
2.46145768241e-11
4.88286962262e-11
6.98749335734e-11
9.13929696893e-11
2.0001713658e-10
1.23665689504e-10
1.31919545559e-11
7.43080076389e-11
9.06197608944e-11
9.13773976673e-11
8.52191571528e-11
8.29978399116e-11
3.62900274329e-11
3.94436219891e-11
3.72507447886e-11
8.81962587082e-11
2.11350503383e-11
1.32730765313e-10
1.71896039129e-10
7.53593123448e-11
4.92854065256e-11
1.26193951543e-08
1.2596295482e-08
1.23837497912e-08
1.223939635e-08
1.24433571633e-08
1.26986169881e-08
7.34643732184e-10
1.05606798555e-09
3.7349004173e-10
6.46720153175e-10
3.09143644637e-10
9.35729675338e-10
4.8529259037e-10
1.21889648113e-09
3.77724657432e-10
5.99537903111e-10
1.50904640978e-10
5.18341801253e-10
4.0209412755e-10
1.54033843698e-09
7.20403746337e-10
8.57508105106e-10
1.27266044009e-09
1.24148525599e-09
4.07462772099e-10
7.7450028945e-10
3.73195304964e-10
6.74978415752e-10
1.86378897484e-10
1.24233053139e-10
2.97041343633e-10
8.37201386516e-10
2.05092425154e-10
5.88427000537e-08
4.71673925108e-08
3.14564003873e-08
3.04685425553e-08
4.44096097055e-08
5.49271844566e-08
5.69687609707e-08
1.05462514961e-08
2.19821763679e-09
1.99138928534e-09
1.04488845191e-09
1.12663063681e-10
1.13017695532e-09
4.25876936388e-10
1.16539853863e-09
1.07818869455e-09
1.23187349077e-09
1.87554820353e-10
1.11585346632e-09
2.41015000688e-09
1.06707621382e-09
2.06616747286e-09
8.82331930848e-10
1.56125670484e-09
7.05016044041e-10
1.24674952937e-09
5.47038246691e-10
1.28364220631e-09
7.40850651161e-10
1.25012510057e-09
1.60340535809e-08
4.95832362837e-08
7.14806785233e-08
6.49671519571e-08
2.27355703225e-08
1.87940979354e-08
2.34403693571e-08
1.31992309589e-08
9.4653537893e-09
1.2147181135e-08
2.45159400073e-08
5.37132900127e-08
2.37527572023e-08
2.44153241074e-08
1.40740995959e-09
1.77402877131e-09
1.23040826147e-09
5.54799837825e-10
8.6237739028e-10
1.11601688389e-09
1.06393706488e-09
5.25048450025e-10
3.83845680945e-09
2.2148354297e-09
5.28607985308e-09
2.27550533153e-09
2.49899557724e-09
5.28634015351e-09
2.43213784579e-09
2.83571858199e-09
1.70129666889e-10
3.60657700781e-10
1.11842151178e-09
4.95672518184e-10
9.79420725882e-10
8.42617775739e-10
2.69073531831e-09
2.42524668349e-09
1.87433174697e-09
1.51868713492e-09
1.35600244131e-09
1.3775453409e-09
9.62204865702e-10
1.18782913473e-09
5.92729510919e-10
1.08291659624e-09
4.01242748611e-10
1.08424857469e-09
4.84241361146e-10
1.33185381582e-09
9.76430900638e-10
1.80643343516e-09
1.72097774827e-09
2.35641613226e-09
2.4229737905e-09
2.86765951088e-09
2.88488740008e-09
2.93215446752e-09
2.37505646066e-09
1.89942236651e-09
1.80109667516e-09
1.51391948951e-09
1.56336119837e-09
1.39493169323e-09
1.59501253775e-09
1.54020963806e-09
1.72411634011e-09
1.78386524468e-09
1.88846820122e-09
1.83943331545e-09
1.99864616898e-09
1.99612425391e-09
2.19423161935e-09
2.23149977278e-09
2.47137190786e-09
2.54838281078e-09
2.66620968888e-09