# vtk DataFile Version 3.0
File Name: Molecule/methanol/methanol_5.0-5.vtk
ASCII
DATASET UNSTRUCTURED_GRID
FIELD FieldData 1
TIME 1 1 double
0.0
POINTS 261 double
1.611 0.0 -0.359
1.543 -0.475 -0.352
1.403 0.0 -0.933
1.345 -0.911 -0.332
1.032 -1.273 -0.301
1.16 -0.83 -0.909
0.876 -1.16 -0.88
0.631 -1.532 -0.261
0.51 -1.396 -0.844
0.173 -1.667 -0.216
0.093 -1.519 -0.802
-0.304 -1.667 -0.168
-0.341 -1.519 -0.759
-0.762 -1.532 -0.123
-0.758 -1.396 -0.718
-1.163 -1.273 -0.083
-1.124 -1.16 -0.681
-1.475 -0.911 -0.051
-1.408 -0.83 -0.653
-1.674 -0.475 -0.032
-1.589 -0.432 -0.635
-1.742 -0.0 -0.025
-1.651 -0.0 -0.629
-1.674 0.475 -0.032
-1.589 0.432 -0.635
-1.475 0.911 -0.051
-1.408 0.83 -0.653
-1.163 1.273 -0.083
-1.124 1.16 -0.681
-0.762 1.532 -0.123
-0.758 1.396 -0.718
-0.304 1.667 -0.168
-0.341 1.519 -0.759
0.173 1.667 -0.216
0.093 1.519 -0.802
0.631 1.532 -0.261
0.51 1.396 -0.844
1.032 1.273 -0.301
0.876 1.16 -0.88
1.345 0.911 -0.332
1.16 0.83 -0.909
1.543 0.475 -0.352
1.341 0.432 -0.927
1.907 0.0 0.656
1.852 0.452 0.656
1.852 0.226 1.047
1.852 -0.226 1.047
1.852 -0.452 0.656
1.852 -0.226 0.264
1.852 0.226 0.264
1.69 0.76 1.094
1.69 0.439 1.415
1.69 -0.0 1.533
1.69 -0.439 1.415
1.69 -0.76 1.094
1.69 -0.877 0.656
1.69 -0.76 0.217
1.69 -0.439 -0.104
1.69 0.439 -0.104
1.69 0.76 0.217
1.69 0.877 0.656
1.432 1.167 1.108
1.432 0.925 1.499
1.432 0.558 1.776
1.432 0.115 1.902
1.432 -0.343 1.859
1.432 -0.754 1.654
1.432 -1.064 1.315
1.432 -1.23 0.886
1.432 -1.23 0.426
1.432 -1.064 -0.003
1.432 1.167 0.203
1.432 1.252 0.656
1.091 1.484 1.113
1.091 1.283 1.531
1.091 0.969 1.87
1.091 0.568 2.102
1.091 0.116 2.205
1.091 -0.346 2.17
1.091 -0.777 2.001
1.091 -1.139 1.712
1.091 -1.4 1.33
1.091 -1.536 0.887
1.091 -1.536 0.424
1.091 -1.4 -0.018
1.091 1.484 0.198
1.091 1.553 0.656
0.688 1.705 1.112
0.688 1.528 1.538
0.688 1.248 1.904
0.688 0.882 2.184
0.688 0.457 2.36
0.688 0.0 2.42
0.688 -0.457 2.36
0.688 -0.882 2.184
0.688 -1.248 1.904
0.688 -1.528 1.538
0.688 -1.705 1.112
0.688 -1.765 0.656
0.688 -1.705 0.199
0.688 1.705 0.199
0.688 1.765 0.656
0.247 1.815 1.122
0.247 1.642 1.558
0.247 1.366 1.938
0.247 1.004 2.238
0.247 0.579 2.438
0.247 0.118 2.526
0.247 -0.351 2.496
0.247 -0.798 2.351
0.247 -1.194 2.099
0.247 -1.516 1.757
0.247 -1.742 1.345
0.247 -1.859 0.89
0.247 -1.859 0.421
0.247 1.815 0.19
0.247 1.874 0.656
-0.209 1.815 1.122
-0.209 1.642 1.558
-0.209 1.366 1.938
-0.209 1.004 2.238
-0.209 0.579 2.438
-0.209 0.118 2.526
-0.209 -0.351 2.496
-0.209 -0.798 2.351
-0.209 -1.194 2.099
-0.209 -1.516 1.757
-0.209 -1.742 1.345
-0.209 -1.859 0.89
-0.209 -1.859 0.421
-0.209 1.815 0.19
-0.209 1.874 0.656
-0.65 1.765 0.656
-0.65 1.705 1.112
-0.65 1.528 1.538
-0.65 1.248 1.904
-0.65 0.882 2.184
-0.65 0.457 2.36
-0.65 0.0 2.42
-0.65 -0.457 2.36
-0.65 -0.882 2.184
-0.65 -1.248 1.904
-0.65 -1.528 1.538
-0.65 -1.705 1.112
-0.65 -1.765 0.656
-0.65 -1.705 0.199
-0.65 1.705 0.199
-1.053 1.553 0.656
-1.053 1.484 1.113
-1.053 1.283 1.531
-1.053 0.969 1.87
-1.053 0.568 2.102
-1.053 0.116 2.205
-1.053 -0.346 2.17
-1.053 -0.777 2.001
-1.053 -1.139 1.712
-1.053 -1.4 1.33
-1.053 -1.536 0.887
-1.053 -1.536 0.424
-1.053 1.484 0.198
-1.394 1.252 0.656
-1.394 1.167 1.108
-1.394 0.925 1.499
-1.394 0.558 1.776
-1.394 0.115 1.902
-1.394 -0.343 1.859
-1.394 -0.754 1.654
-1.394 -1.064 1.315
-1.394 -1.23 0.886
-1.394 -1.23 0.426
-1.394 1.167 0.203
-1.652 0.877 0.656
-1.652 0.76 1.094
-1.652 0.439 1.415
-1.652 -0.0 1.533
-1.652 -0.439 1.415
-1.652 -0.76 1.094
-1.652 -0.877 0.656
-1.652 -0.76 0.217
-1.652 0.76 0.217
-1.814 0.452 0.656
-1.814 0.226 1.047
-1.814 -0.226 1.047
-1.814 -0.452 0.656
-1.814 -0.226 0.264
-1.868 -0.0 0.656
-1.814 0.226 0.264
1.122 -0.451 -1.519
1.122 -0.781 -1.188
0.783 -0.878 -1.615
0.783 -0.475 -1.885
1.122 -0.0 -1.639
0.783 0.0 -1.979
0.783 0.475 -1.885
1.122 0.451 -1.519
0.783 0.878 -1.615
1.122 0.781 -1.188
0.783 1.147 -1.212
0.355 -0.989 -1.811
0.355 -0.586 -2.074
0.355 -0.121 -2.192
0.355 0.358 -2.152
0.355 0.798 -1.959
0.355 1.152 -1.634
0.355 1.381 -1.211
0.355 -1.284 -1.432
-0.12 -1.383 -1.403
-0.12 -1.125 -1.781
-0.12 -0.767 -2.067
-0.12 -0.342 -2.234
-0.12 0.115 -2.268
-0.12 0.561 -2.166
-0.12 0.957 -1.937
-0.12 1.268 -1.602
-0.12 1.467 -1.19
-0.594 -1.44 -0.977
-0.594 -1.284 -1.432
-0.594 -0.989 -1.811
-0.594 -0.586 -2.074
-0.594 -0.121 -2.192
-0.594 0.358 -2.152
-0.594 0.798 -1.959
-0.594 1.152 -1.634
-0.594 1.381 -1.211
-1.022 -1.147 -1.212
-1.022 -0.878 -1.615
-1.022 -0.475 -1.885
-1.022 0.0 -1.979
-1.022 0.475 -1.885
-1.022 0.878 -1.615
-1.022 1.147 -1.212
-1.362 -0.781 -1.188
-1.362 -0.451 -1.519
-1.362 -0.0 -1.639
-1.362 0.451 -1.519
-1.362 0.781 -1.188
-1.58 -0.237 -1.148
-1.58 0.237 -1.148
1.341 -0.432 -0.927
0.783 -1.147 -1.212
0.783 -1.0125 -1.4135
0.569 -1.081 -1.5235
0.569 -1.2155 -1.322
1.442 -0.4535 -0.6395
1.444 -0.693 -0.342
1.343 -0.6715 -0.6295
1.122 0.2255 -1.579
1.2625 0.2255 -1.226
1.2625 0.0 -1.286
-1.58 0.0 -1.148
1.2625 -0.2255 -1.226
-1.6155 -0.1185 -0.8885
-1.6155 0.1185 -0.8885
1.33275 0.0 -1.1095
1.19225 -0.2255 -1.4025
-1.814 0.339 0.46
-1.841 0.226 0.656
-1.841 0.113 0.46
-1.471 -0.509 -1.168
-1.4755 -0.6065 -0.9115
-1.5845 -0.3345 -0.8915

CELLS 518 2072
3 0 1 2
3 3 4 5
3 5 4 6
3 4 7 6
3 6 7 8
3 7 9 8
3 8 9 10
3 9 11 10
3 10 11 12
3 11 13 12
3 12 13 14
3 13 15 14
3 14 15 16
3 15 17 16
3 16 17 18
3 17 19 18
3 18 19 20
3 19 21 20
3 20 21 22
3 21 23 22
3 22 23 24
3 23 25 24
3 24 25 26
3 25 27 26
3 26 27 28
3 27 29 28
3 28 29 30
3 29 31 30
3 30 31 32
3 31 33 32
3 32 33 34
3 33 35 34
3 34 35 36
3 35 37 36
3 36 37 38
3 37 39 38
3 38 39 40
3 39 41 40
3 40 41 42
3 41 0 42
3 42 0 2
3 43 44 45
3 43 45 46
3 43 46 47
3 43 47 48
3 43 48 49
3 43 49 44
3 45 44 50
3 45 50 51
3 45 51 52
3 46 45 52
3 46 52 53
3 46 53 54
3 47 46 54
3 47 54 55
3 47 55 56
3 48 47 56
3 48 56 57
3 49 58 59
3 44 49 59
3 44 59 60
3 44 60 50
3 50 60 61
3 50 61 62
3 51 50 62
3 51 62 63
3 51 63 64
3 52 51 64
3 52 64 65
3 53 52 65
3 53 65 66
3 54 53 66
3 54 66 67
3 54 67 68
3 55 54 68
3 55 68 69
3 56 55 69
3 56 69 70
3 60 59 71
3 60 71 72
3 60 72 61
3 61 72 73
3 61 73 74
3 62 61 74
3 62 74 75
3 63 62 75
3 63 75 76
3 64 63 76
3 64 76 77
3 64 77 78
3 65 64 78
3 65 78 79
3 66 65 79
3 66 79 80
3 67 66 80
3 67 80 81
3 68 67 81
3 68 81 82
3 68 82 83
3 69 68 83
3 69 83 84
3 70 69 84
3 72 71 85
3 72 85 86
3 72 86 73
3 73 86 87
3 73 87 88
3 74 73 88
3 74 88 89
3 75 74 89
3 75 89 90
3 76 75 90
3 76 90 91
3 77 76 91
3 77 91 92
3 78 77 92
3 78 92 93
3 79 78 93
3 79 93 94
3 79 94 95
3 80 79 95
3 80 95 96
3 81 80 96
3 81 96 97
3 82 81 97
3 82 97 98
3 83 82 98
3 83 98 99
3 84 83 99
3 86 85 100
3 86 100 101
3 86 101 87
3 87 101 102
3 87 102 103
3 88 87 103
3 88 103 104
3 89 88 104
3 89 104 105
3 90 89 105
3 90 105 106
3 91 90 106
3 91 106 107
3 92 91 107
3 92 107 108
3 93 92 108
3 93 108 109
3 94 93 109
3 94 109 110
3 95 94 110
3 95 110 111
3 96 95 111
3 96 111 112
3 97 96 112
3 97 112 113
3 98 97 113
3 98 113 114
3 99 98 114
3 101 100 115
3 101 115 116
3 101 116 102
3 102 116 117
3 102 117 118
3 103 102 118
3 103 118 119
3 104 103 119
3 104 119 120
3 105 104 120
3 105 120 121
3 106 105 121
3 106 121 122
3 107 106 122
3 107 122 123
3 108 107 123
3 108 123 124
3 109 108 124
3 109 124 125
3 110 109 125
3 110 125 126
3 111 110 126
3 111 126 127
3 112 111 127
3 112 127 128
3 113 112 128
3 113 128 129
3 114 113 129
3 116 115 130
3 116 130 131
3 116 131 117
3 117 131 132
3 117 132 133
3 118 117 133
3 118 133 134
3 119 118 134
3 119 134 135
3 120 119 135
3 120 135 136
3 121 120 136
3 121 136 137
3 122 121 137
3 122 137 138
3 123 122 138
3 123 138 139
3 124 123 139
3 124 139 140
3 125 124 140
3 125 140 141
3 126 125 141
3 126 141 142
3 127 126 142
3 127 142 143
3 128 127 143
3 128 143 144
3 129 128 144
3 129 144 145
3 132 130 146
3 131 130 132
3 133 132 147
3 133 147 148
3 134 133 148
3 134 148 149
3 135 134 149
3 135 149 150
3 136 135 150
3 136 150 151
3 137 136 151
3 137 151 152
3 138 137 152
3 138 152 153
3 139 138 153
3 139 153 154
3 140 139 154
3 141 140 154
3 141 154 155
3 142 141 155
3 142 155 156
3 143 142 156
3 143 156 157
3 144 143 157
3 144 157 158
3 145 144 158
3 147 146 159
3 132 146 147
3 148 147 160
3 148 160 161
3 149 148 161
3 149 161 162
3 150 149 162
3 150 162 163
3 151 150 163
3 151 163 164
3 152 151 164
3 153 152 164
3 153 164 165
3 154 153 165
3 154 165 166
3 155 154 166
3 155 166 167
3 156 155 167
3 156 167 168
3 157 156 168
3 157 168 169
3 158 157 169
3 160 159 170
3 147 159 160
3 161 160 171
3 161 171 172
3 162 161 172
3 162 172 173
3 163 162 173
3 164 163 173
3 164 173 174
3 165 164 174
3 165 174 175
3 166 165 175
3 166 175 176
3 167 166 176
3 168 167 176
3 168 176 177
3 169 168 177
3 169 177 178
3 171 170 179
3 160 170 171
3 172 171 180
3 172 180 181
3 173 172 181
3 174 173 181
3 174 181 182
3 175 174 182
3 176 175 182
3 176 182 183
3 177 176 183
3 178 177 183
3 178 183 184
3 171 179 180
3 182 181 185
3 183 182 185
3 184 183 185
3 186 179 23
3 186 23 21
3 186 21 184
3 184 21 19
3 184 19 178
3 178 19 17
3 178 17 169
3 169 17 15
3 169 15 158
3 158 15 13
3 158 13 145
3 145 13 11
3 145 11 129
3 129 11 9
3 129 9 114
3 114 9 99
3 99 9 7
3 99 7 84
3 84 7 4
3 84 4 70
3 70 4 3
3 70 3 57
3 70 57 56
3 57 1 0
3 57 0 48
3 48 0 49
3 49 0 58
3 58 0 41
3 58 41 39
3 58 39 59
3 59 39 71
3 71 39 37
3 71 37 85
3 85 37 35
3 85 35 100
3 100 35 115
3 115 35 33
3 115 33 130
3 130 33 31
3 130 31 146
3 146 31 29
3 146 29 159
3 159 29 27
3 159 27 170
3 170 27 25
3 170 25 179
3 179 25 23
3 187 188 189
3 187 189 190
3 191 187 190
3 191 190 192
3 191 192 193
3 194 193 195
3 196 194 195
3 196 195 197
3 190 189 198
3 190 198 199
3 190 199 200
3 192 190 200
3 192 200 201
3 193 192 201
3 193 201 202
3 195 193 202
3 195 202 203
3 197 195 203
3 197 203 204
3 205 206 207
3 198 205 207
3 198 207 208
3 199 198 208
3 199 208 209
3 200 199 209
3 200 209 210
3 201 200 210
3 201 210 211
3 202 201 211
3 202 211 212
3 203 202 212
3 203 212 213
3 204 203 213
3 204 213 214
3 206 215 216
3 207 206 216
3 207 216 217
3 208 207 217
3 208 217 218
3 209 208 218
3 209 218 219
3 210 209 219
3 210 219 220
3 211 210 220
3 211 220 221
3 212 211 221
3 212 221 222
3 213 212 222
3 213 222 223
3 214 213 223
3 216 215 224
3 216 224 225
3 217 216 225
3 217 225 226
3 218 217 226
3 219 218 226
3 219 226 227
3 220 219 227
3 220 227 228
3 221 220 228
3 221 228 229
3 222 221 229
3 222 229 230
3 223 222 230
3 225 224 231
3 225 231 232
3 226 225 232
3 226 232 233
3 227 226 233
3 228 227 233
3 228 233 234
3 229 228 234
3 229 234 235
3 230 229 235
3 233 232 236
3 234 233 237
3 235 234 237
3 235 237 24
3 235 24 26
3 235 26 28
3 235 28 230
3 230 28 30
3 230 30 223
3 223 30 32
3 223 32 214
3 214 32 34
3 214 34 204
3 204 34 36
3 204 36 197
3 197 36 38
3 197 38 196
3 196 38 40
3 196 40 42
3 196 42 194
3 187 238 188
3 188 238 5
3 188 5 6
3 188 6 239
3 239 6 8
3 205 8 10
3 205 10 206
3 206 10 12
3 206 12 215
3 215 12 14
3 215 14 224
3 224 14 16
3 224 16 231
3 231 16 18
3 239 240 188
3 188 240 189
3 189 240 241
3 240 242 241
3 240 239 242
3 241 242 205
3 189 241 198
3 241 205 198
3 205 242 8
3 8 242 239
3 1 243 2
3 2 243 238
3 1 244 243
3 244 245 243
3 244 3 245
3 243 245 238
3 238 245 5
3 245 3 5
3 3 244 57
3 57 244 1
3 194 246 193
3 246 191 193
3 2 247 42
3 42 247 194
3 194 247 246
3 247 248 246
3 246 248 191
3 236 249 233
3 233 249 237
3 187 250 238
3 250 2 238
3 22 251 20
3 236 251 249
3 251 252 249
3 251 22 252
3 249 252 237
3 237 252 24
3 252 22 24
3 2 253 247
3 247 253 248
3 248 254 191
3 191 254 187
3 248 253 254
3 253 250 254
3 253 2 250
3 254 250 187
3 186 255 179
3 179 255 180
3 180 256 181
3 181 256 185
3 185 257 184
3 184 257 186
3 180 255 256
3 255 257 256
3 255 186 257
3 256 257 185
3 231 258 232
3 232 258 236
3 20 259 18
3 18 259 231
3 231 259 258
3 259 260 258
3 259 20 260
3 258 260 236
3 236 260 251
3 251 260 20

CELL_TYPES 518
5
5
5
5
5
5
5
5
5
5
5
5
5
5
5
5
5
5
5
5
5
5
5
5
5
5
5
5
5
5
5
5
5
5
5
5
5
5
5
5
5
5
5
5
5
5
5
5
5
5
5
5
5
5
5
5
5
5
5
5
5
5
5
5
5
5
5
5
5
5
5
5
5
5
5
5
5
5
5
5
5
5
5
5
5
5
5
5
5
5
5
5
5
5
5
5
5
5
5
5
5
5
5
5
5
5
5
5
5
5
5
5
5
5
5
5
5
5
5
5
5
5
5
5
5
5
5
5
5
5
5
5
5
5
5
5
5
5
5
5
5
5
5
5
5
5
5
5
5
5
5
5
5
5
5
5
5
5
5
5
5
5
5
5
5
5
5
5
5
5
5
5
5
5
5
5
5
5
5
5
5
5
5
5
5
5
5
5
5
5
5
5
5
5
5
5
5
5
5
5
5
5
5
5
5
5
5
5
5
5
5
5
5
5
5
5
5
5
5
5
5
5
5
5
5
5
5
5
5
5
5
5
5
5
5
5
5
5
5
5
5
5
5
5
5
5
5
5
5
5
5
5
5
5
5
5
5
5
5
5
5
5
5
5
5
5
5
5
5
5
5
5
5
5
5
5
5
5
5
5
5
5
5
5
5
5
5
5
5
5
5
5
5
5
5
5
5
5
5
5
5
5
5
5
5
5
5
5
5
5
5
5
5
5
5
5
5
5
5
5
5
5
5
5
5
5
5
5
5
5
5
5
5
5
5
5
5
5
5
5
5
5
5
5
5
5
5
5
5
5
5
5
5
5
5
5
5
5
5
5
5
5
5
5
5
5
5
5
5
5
5
5
5
5
5
5
5
5
5
5
5
5
5
5
5
5
5
5
5
5
5
5
5
5
5
5
5
5
5
5
5
5
5
5
5
5
5
5
5
5
5
5
5
5
5
5
5
5
5
5
5
5
5
5
5
5
5
5
5
5
5
5
5
5
5
5
5
5
5
5
5
5
5
5
5
5
5
5
5
5
5
5
5
5
5
5
5
5
5
5
5
5
5
5
5
5
5
5
5
5
5
5
5
5
5
5
5
5
5
5
5
5
5
5
5
5
5
5
5
5
5
5
5
5
5
5
5
5
5
5
5
5
5
5
5
5
5
5
5
5
5
5
5
5
5
5
5
5

CELL_DATA 518
SCALARS cell_data_0 double
LOOKUP_TABLE default
2.0597028459e-06
2.16814372089e-07
2.38673801672e-07
4.63598994131e-07
3.957153332e-07
8.20173307287e-07
2.00958214061e-07
1.06725970191e-06
2.47613392677e-08
1.17202123202e-06
2.2093051389e-07
1.24462246314e-06
3.41240054328e-07
1.27608576186e-06
4.62243323687e-07
1.2412947063e-06
5.47645597671e-07
1.20383147124e-06
6.18153999578e-07
1.20827020861e-06
6.54381771919e-07
1.15062933457e-06
7.17455151379e-07
1.03123500118e-06
7.37389486773e-07
8.9347400341e-07
7.59717667715e-07
6.786917093e-07
7.511494277e-07
4.07127369216e-07
6.84663556588e-07
8.01319475383e-08
5.04993220782e-07
1.63796281987e-07
1.59834070588e-07
4.13412933268e-07
3.0402594764e-07
3.93731280296e-06
2.5210301198e-07
8.21851561129e-07
4.15720013237e-07
5.73400539387e-09
8.08767341785e-10
1.4499026099e-08
1.11375760739e-08
2.99591520889e-08
3.20011314406e-08
1.85621717027e-09
5.40580752398e-09
5.18263025998e-09
3.60669442495e-09
6.06455946087e-09
5.72778201547e-09
2.65745884054e-08
8.38191229047e-08
1.55324816151e-07
8.24269546288e-08
1.36449848409e-08
1.10564574299e-07
7.35700090911e-08
2.40440552684e-08
9.30976953397e-09
3.06192244096e-08
3.34365640198e-08
1.70235354246e-08
1.22638741901e-08
5.34261866146e-09
1.32735686869e-08
2.36549028785e-08
2.44062553122e-08
2.93573508334e-08
9.88856599747e-09
1.51151612328e-08
2.18635175868e-09
7.17258035439e-08
6.54132665387e-08
1.41166897615e-07
4.98849241377e-08
3.5358727791e-08
1.08443831566e-08
4.10601819344e-08
6.26276199887e-08
6.05232812284e-08
4.75028954272e-08
3.98705571123e-08
2.35500034977e-08
1.45748687329e-08
2.85513555503e-09
9.96848098647e-09
2.63216813334e-08
3.38529778994e-08
4.5199071762e-08
4.79871416927e-08
5.42567748328e-08
4.58081616947e-08
4.54637768686e-08
1.84513703108e-08
1.54717202549e-08
5.67208967493e-09
3.23352793232e-09
8.04243590047e-09
3.74578976468e-09
1.49942745321e-08
5.51108718557e-08
7.62857121288e-08
9.39178195383e-08
8.64948723768e-08
7.2188724309e-08
6.05302918876e-08
4.63145590034e-08
3.53135879504e-08
2.13445642489e-08
1.10038741525e-08
3.57366489423e-09
1.33892029003e-08
2.816658996e-08
3.69658374989e-08
5.01058165212e-08
5.81047158449e-08
7.00393755256e-08
7.07940109477e-08
7.36104296079e-08
6.30344180075e-08
5.32041926274e-08
3.39641069058e-08
2.28916746367e-08
1.46899806346e-08
8.35440279506e-10
2.85276528973e-08
6.75518616705e-08
9.94273808865e-08
1.08859066809e-07
1.2119383301e-07
1.10716408116e-07
9.26284169605e-08
7.94821549657e-08
6.33569369038e-08
4.93878816373e-08
3.62567459005e-08
2.25346848835e-08
1.06774205588e-08
3.63264976147e-09
1.46350266342e-08
2.93367556612e-08
3.87096524436e-08
5.37052847348e-08
6.09008126549e-08
7.60348137344e-08
8.01551349473e-08
8.93407270165e-08
8.21647912082e-08
8.10341782225e-08
6.4087625662e-08
4.02627270914e-08
2.17616130812e-08
1.44006921034e-08
1.15813133428e-08
1.15655882012e-07
1.43147812562e-07
1.4303440258e-07
1.51308762603e-07
1.30450124302e-07
1.13095594792e-07
9.24193865018e-08
7.80814110965e-08
5.77952814606e-08
4.56816107624e-08
2.62978869619e-08
1.6013246458e-08
2.9891065556e-09
1.18591981342e-08
3.1362736682e-08
3.93218193644e-08
5.93715860145e-08
6.58687409205e-08
8.45986714609e-08
8.93828781699e-08
1.01208262035e-07
9.82204513951e-08
9.22278533807e-08
8.42237995947e-08
3.21802950632e-08
9.35710390122e-09
4.29611452642e-09
2.9015452133e-09
1.10848441986e-07
1.27217921952e-07
1.71914115007e-07
1.47342407825e-07
1.09847760014e-07
1.13633040666e-07
8.41364130546e-08
8.06809108831e-08
5.87368345764e-08
5.12338325881e-08
3.54959571563e-08
2.41634568784e-08
1.35227772731e-08
1.59558672201e-09
7.08471986752e-09
2.63102867725e-08
2.77849970262e-08
5.09827674913e-08
4.81186722906e-08
7.36949680538e-08
6.6639068835e-08
8.87313486139e-08
7.77964149915e-08
8.6362687244e-08
6.24701734903e-08
2.03007208757e-08
1.98360000511e-08
1.17265003028e-08
1.49940160815e-08
5.93317128503e-08
1.0667199055e-07
9.67444616877e-08
9.41032044834e-08
7.8067150837e-08
7.26455877142e-08
5.6375489894e-08
4.96089143843e-08
3.62636527864e-08
2.73881563429e-08
1.6771927605e-08
6.58477575856e-09
9.31594674588e-10
1.33433445818e-08
1.95974873444e-08
3.41188756889e-08
3.86281778139e-08
4.80825365897e-08
5.64076833402e-08
6.09973072402e-08
6.30963069704e-08
5.23042467104e-08
3.6121693906e-08
7.48852578261e-10
4.87798810359e-08
4.56281131988e-08
6.50444245141e-08
8.28052076956e-08
9.9434344966e-08
9.46157386043e-08
7.7968563777e-08
6.89638292062e-08
5.14732168208e-08
4.07247910262e-08
2.67774256326e-08
1.06723494255e-08
1.12534261375e-09
1.29969149493e-08
2.34812553783e-08
3.48862390812e-08
4.78749742009e-08
5.45079324748e-08
6.10792273127e-08
5.75392918753e-08
3.68352472736e-08
2.12692349667e-08
4.33949758102e-08
6.84509449084e-08
6.35736533249e-08
8.57136682748e-08
9.55440610911e-08
8.93290466864e-08
6.79614583869e-08
5.23672781201e-08
3.44717017833e-08
1.39306161548e-08
2.12901207669e-09
1.99801150862e-08
3.90280895187e-08
4.71924592859e-08
4.82861969488e-08
4.6151723704e-08
2.216529564e-08
5.59924681191e-08
9.44461704431e-08
9.70899813025e-08
6.16808952092e-08
8.21427879953e-08
8.28933842033e-08
5.65946037201e-08
3.02098288328e-08
1.85758411514e-09
2.335041826e-08
3.56215730417e-08
3.13810787381e-08
4.06038363879e-08
9.74552388125e-08
1.09306468984e-07
1.17432120564e-08
7.37775101197e-08
5.90960205765e-06
5.52012491218e-06
6.13741731603e-06
3.56561664207e-07
1.14639343601e-06
3.00778619527e-07
9.22516155819e-07
3.39268488978e-07
9.78926105933e-07
6.6867028261e-07
2.07519128312e-06
9.56347654651e-07
2.05700441504e-06
5.52148138941e-07
1.01309833559e-06
5.07345651607e-07
1.36594158293e-06
4.18492685204e-07
4.7348782453e-07
6.71067490204e-07
1.48628593892e-07
1.24771725976e-07
9.8392899366e-09
8.89891450376e-08
6.96513208555e-09
1.23435692634e-09
2.20565646547e-06
4.18943903386e-08
4.89194552863e-08
8.95040095112e-08
1.29952198712e-06
1.91330138373e-06
1.98074208344e-07
3.62557965134e-07
3.53351824382e-07
3.76012877046e-09
1.7253508352e-07
1.33877812005e-07
7.55876124415e-08
4.05324402611e-07
1.79098601596e-07
7.36065763246e-07
2.41677330417e-07
8.65314363928e-07
2.45639779594e-07
8.68427809801e-07
2.24052472958e-07
8.26431274668e-07
2.03842657781e-07
8.28906238124e-07
1.35926071553e-06
6.63304231926e-07
4.47498075629e-06
3.99292030378e-06
3.57089511153e-06
2.33496866433e-06
3.80205600566e-06
1.98486793925e-07
5.48219613086e-06
1.03719675268e-07
3.4268211611e-07
7.03615045996e-09
7.59011414581e-07
3.06714374852e-07
1.18467203846e-06
1.25039186866e-06
1.65570031251e-06
1.4638878841e-06
1.23840035394e-06
4.307894307e-07
2.98224072476e-07
2.38946617878e-07
5.18241471021e-08
7.92146771126e-08
4.19019629199e-07
4.96443509198e-07
1.00309243095e-06
8.50625923369e-07
1.03249550988e-06
6.4183166617e-07
1.19969722022e-06
1.35797498975e-06
1.684917261e-06
1.26429909987e-06
2.85388900382e-07
3.73738004136e-07
3.12242137085e-07
2.58879732777e-07
1.55997987508e-07
3.43382852894e-08
8.11431239356e-08
2.33935934755e-07
3.01771886165e-07
4.40321933292e-07
3.77682422046e-07
4.33388753591e-07
5.29977893089e-07
8.86692892817e-07
1.07771352491e-06
1.12960466043e-06
6.02518646096e-08
1.0114290225e-07
1.71191404532e-07
1.11522335799e-07
9.41978703387e-08
3.67482055023e-08
6.30542893808e-08
1.76570465986e-07
1.08310566443e-07
1.75411445843e-07
2.24807196629e-07
5.41396622493e-07
6.74748459642e-07
8.13718634969e-07
7.60151109555e-08
9.54066519721e-09
1.84224521117e-08
4.23346183221e-08
1.17487023334e-09
8.90932223258e-09
6.33538688912e-09
1.96330249872e-07
2.81588205303e-07
4.75391537702e-07
4.16161707359e-06
1.49444832243e-06
1.38347636383e-06
2.26909305963e-06
1.12117233582e-06
1.09466086902e-06
5.54957434488e-07
9.49451050368e-07
2.72985880098e-07
7.28320926156e-07
1.22255643869e-08
4.53222176986e-07
1.43211008744e-07
2.3961073901e-07
1.2362228128e-07
2.94623099016e-08
4.8410743573e-07
2.4104094487e-07
7.38415918878e-07
1.40225530855e-06
3.05616225849e-06
7.49480379963e-07
1.13840508951e-07
1.00643987553e-06
4.17698208444e-07
2.84673809981e-07
5.7929688372e-07
6.50532689258e-07
4.84127288348e-07
2.58980107094e-07
3.18146980267e-07
7.91862598884e-07
5.8141100826e-07
9.39354728895e-07
7.65594241319e-07
3.1350181561e-06
1.45977455437e-06
1.43976908988e-08
2.02106207547e-07
3.58680720238e-08
3.01790233285e-06
7.18179912304e-08
8.09479896262e-08
3.84964324013e-07
7.26096976262e-07
3.23170833604e-07
1.41875922663e-06
2.88883725152e-09
1.50140501558e-08
1.24694684482e-07
3.9723529411e-07
4.43961769697e-09
5.64893307921e-10
1.17226843786e-06
1.96529594512e-06
3.29888307664e-06
5.10372904321e-06
1.39245648693e-06
3.11255895512e-06
7.58087598731e-07
4.51555510175e-06
2.35586795677e-06
9.51386469937e-07
5.71641523446e-06
4.81491491275e-06
5.48180570904e-07
1.11291995583e-06
1.93859665421e-08
1.81799597675e-07
4.46430198502e-07
8.6146290459e-07
5.6717053771e-07
1.44542335064e-06
6.72181559389e-07
5.60804493992e-06
5.09040798991e-06
1.97595332174e-07
5.71873238616e-07
1.46847503908e-06
1.4692974287e-06
7.85778929473e-09
1.20092710683e-08
9.9673317361e-09
3.08921861287e-06
3.25901468639e-06
5.49930386751e-09
3.21315930613e-09
8.53048562629e-10
2.08091375066e-09
1.54128351418e-06
5.95428016395e-08
2.04263495319e-06
5.60534869447e-07
2.74574148788e-07
4.28999851607e-08
3.260124423e-08
2.25751416099e-07
1.40220700468e-06
1.00399086924e-06
1.61566923021e-07

