# vtk DataFile Version 3.0
File Name: Molecule/methanol/methanol_6.0-2.vtk
ASCII
DATASET UNSTRUCTURED_GRID
FIELD FieldData 1
TIME 1 1 double
0.0
POINTS 338 double
1.611 0.0 -0.359
1.554 -0.436 -0.353
1.403 0.0 -0.933
1.386 -0.842 -0.336
1.12 -1.191 -0.31
1.198 -0.767 -0.912
0.956 -1.085 -0.888
0.773 -1.459 -0.275
0.639 -1.329 -0.857
0.368 -1.627 -0.235
0.271 -1.482 -0.82
-0.065 -1.684 -0.192
-0.124 -1.534 -0.781
-0.499 -1.627 -0.149
-0.519 -1.482 -0.741
-0.903 -1.459 -0.108
-0.887 -1.329 -0.705
-1.251 -1.191 -0.074
-1.204 -1.085 -0.673
-1.517 -0.842 -0.047
-1.446 -0.767 -0.649
-1.684 -0.436 -0.031
-1.599 -0.397 -0.634
-1.742 0.0 -0.025
-1.684 0.436 -0.031
-1.651 0.0 -0.629
-1.517 0.842 -0.047
-1.599 0.397 -0.634
-1.446 0.767 -0.649
-1.251 1.191 -0.074
-1.204 1.085 -0.673
-0.903 1.459 -0.108
-0.887 1.329 -0.705
-0.499 1.627 -0.149
-0.519 1.482 -0.741
-0.065 1.684 -0.192
-0.124 1.534 -0.781
0.368 1.627 -0.235
0.271 1.482 -0.82
0.773 1.459 -0.275
0.639 1.329 -0.857
1.12 1.191 -0.31
0.956 1.085 -0.888
1.386 0.842 -0.336
1.198 0.767 -0.912
1.554 0.436 -0.353
1.351 0.397 -0.928
1.907 0.0 0.656
1.859 0.42 0.656
1.859 0.21 1.019
1.859 -0.21 1.019
1.859 -0.42 0.656
1.859 -0.21 0.292
1.859 0.21 0.292
1.72 0.709 1.065
1.72 0.409 1.365
1.72 -0.0 1.475
1.72 -0.409 1.365
1.72 -0.709 1.065
1.72 -0.819 0.656
1.72 -0.709 0.246
1.72 -0.409 -0.054
1.72 -0.0 -0.163
1.72 0.409 -0.054
1.72 0.709 0.246
1.72 0.819 0.656
1.495 1.106 1.058
1.495 0.902 1.412
1.495 0.588 1.675
1.495 0.204 1.815
1.495 -0.204 1.815
1.495 -0.588 1.675
1.495 -0.902 1.412
1.495 -1.106 1.058
1.495 -1.177 0.656
1.495 -1.106 0.253
1.495 -0.902 -0.101
1.495 0.902 -0.101
1.495 1.106 0.253
1.495 1.177 0.656
1.196 1.416 1.071
1.196 1.241 1.453
1.196 0.966 1.771
1.196 0.613 1.998
1.196 0.21 2.116
1.196 -0.21 2.116
1.196 -0.613 1.998
1.196 -0.966 1.771
1.196 -1.241 1.453
1.196 -1.416 1.071
1.196 -1.476 0.656
1.196 -1.416 0.24
1.196 1.416 0.24
1.196 1.476 0.656
0.838 1.651 1.063
0.838 1.506 1.446
0.838 1.273 1.783
0.838 0.966 2.055
0.838 0.603 2.246
0.838 0.205 2.344
0.838 -0.205 2.344
0.838 -0.603 2.246
0.838 -0.966 2.055
0.838 -1.273 1.783
0.838 -1.506 1.446
0.838 -1.651 1.063
0.838 -1.701 0.656
0.838 -1.651 0.249
0.838 1.651 0.249
0.838 1.701 0.656
0.439 1.794 1.065
0.439 1.658 1.454
0.439 1.439 1.803
0.439 1.147 2.094
0.439 0.798 2.314
0.439 0.409 2.45
0.439 0.0 2.496
0.439 -0.409 2.45
0.439 -0.798 2.314
0.439 -1.147 2.094
0.439 -1.439 1.803
0.439 -1.658 1.454
0.439 -1.794 1.065
0.439 -1.84 0.656
0.439 -1.794 0.246
0.439 1.794 0.246
0.439 1.84 0.656
0.019 1.843 1.061
0.019 1.713 1.448
0.019 1.503 1.798
0.019 1.222 2.094
0.019 0.884 2.323
0.019 0.505 2.474
0.019 0.102 2.54
0.019 -0.305 2.518
0.019 -0.699 2.409
0.019 -1.059 2.218
0.019 -1.37 1.954
0.019 -1.617 1.629
0.019 -1.789 1.258
0.019 -1.876 0.86
0.019 -1.876 0.452
0.019 -1.789 0.053
0.019 1.843 0.25
0.019 1.888 0.656
-0.401 1.84 0.656
-0.401 1.794 1.065
-0.401 1.658 1.454
-0.401 1.439 1.803
-0.401 1.147 2.094
-0.401 0.798 2.314
-0.401 0.409 2.45
-0.401 0.0 2.496
-0.401 -0.409 2.45
-0.401 -0.798 2.314
-0.401 -1.147 2.094
-0.401 -1.439 1.803
-0.401 -1.658 1.454
-0.401 -1.794 1.065
-0.401 -1.84 0.656
-0.401 -1.794 0.246
-0.401 1.794 0.246
-0.8 1.701 0.656
-0.8 1.651 1.063
-0.8 1.506 1.446
-0.8 1.273 1.783
-0.8 0.966 2.055
-0.8 0.603 2.246
-0.8 0.205 2.344
-0.8 -0.205 2.344
-0.8 -0.603 2.246
-0.8 -0.966 2.055
-0.8 -1.273 1.783
-0.8 -1.506 1.446
-0.8 -1.651 1.063
-0.8 -1.701 0.656
-0.8 -1.651 0.249
-0.8 1.651 0.249
-1.158 1.476 0.656
-1.158 1.416 1.071
-1.158 1.241 1.453
-1.158 0.966 1.771
-1.158 0.613 1.998
-1.158 0.21 2.116
-1.158 -0.21 2.116
-1.158 -0.613 1.998
-1.158 -0.966 1.771
-1.158 -1.241 1.453
-1.158 -1.416 1.071
-1.158 -1.476 0.656
-1.158 -1.416 0.24
-1.158 1.416 0.24
-1.457 1.177 0.656
-1.457 1.106 1.058
-1.457 0.902 1.412
-1.457 0.588 1.675
-1.457 0.204 1.815
-1.457 -0.204 1.815
-1.457 -0.588 1.675
-1.457 -0.902 1.412
-1.457 -1.106 1.058
-1.457 -1.177 0.656
-1.457 -1.106 0.253
-1.457 1.106 0.253
-1.682 0.819 0.656
-1.682 0.709 1.065
-1.682 0.409 1.365
-1.682 -0.0 1.475
-1.682 -0.409 1.365
-1.682 -0.709 1.065
-1.682 -0.819 0.656
-1.682 -0.709 0.246
-1.682 0.709 0.246
-1.821 0.42 0.656
-1.821 0.21 1.019
-1.821 -0.21 1.019
-1.821 -0.42 0.656
-1.821 -0.21 0.292
-1.821 0.21 0.292
-1.868 -0.0 0.656
1.172 0.415 -1.456
0.886 0.517 -1.776
0.886 0.857 -1.519
1.172 0.719 -1.152
0.886 1.082 -1.156
0.886 0.107 -1.892
0.518 0.0 -2.133
0.518 0.431 -2.065
0.518 0.821 -1.867
0.518 1.13 -1.558
0.518 1.328 -1.169
0.518 -1.328 -1.169
0.099 -1.458 -1.165
0.099 -1.278 -1.559
0.518 -1.13 -1.558
0.099 -0.995 -1.885
0.518 -0.821 -1.867
0.099 -0.631 -2.119
0.518 -0.431 -2.065
0.099 -0.216 -2.241
0.099 0.216 -2.241
0.099 0.631 -2.119
0.099 0.995 -1.885
0.099 1.278 -1.559
0.099 1.458 -1.165
-0.338 -1.458 -1.165
-0.338 -1.278 -1.559
-0.338 -0.995 -1.885
-0.338 -0.631 -2.119
-0.338 -0.216 -2.241
-0.338 0.216 -2.241
-0.338 0.631 -2.119
-0.338 0.995 -1.885
-0.338 1.278 -1.559
-0.338 1.458 -1.165
-0.757 -1.328 -1.169
-0.757 -1.13 -1.558
-0.757 -0.821 -1.867
-0.757 -0.431 -2.065
-0.757 0.0 -2.133
-0.757 0.431 -2.065
-0.757 0.821 -1.867
-0.757 1.13 -1.558
-0.757 1.328 -1.169
-1.125 -1.14 -0.95
-1.125 -0.986 -1.348
-1.125 -0.699 -1.663
-1.125 -0.317 -1.853
-1.125 0.107 -1.892
-1.125 0.517 -1.776
-1.125 0.857 -1.519
-1.125 1.082 -1.156
-1.411 -0.719 -1.152
-1.411 0.415 -1.456
-1.411 0.719 -1.152
1.172 -0.719 -1.152
1.351 -0.397 -0.928
1.4525 -0.4165 -0.6405
1.47 -0.639 -0.3445
1.3685 -0.6195 -0.632
1.029 -0.8525 -1.25
1.029 -0.709 -1.4075
0.886 -0.8425 -1.5055
0.886 -0.986 -1.348
0.886 -0.699 -1.663
1.172 -0.415 -1.456
1.172 -0.567 -1.304
1.029 -0.557 -1.5595
1.029 -0.366 -1.6545
0.886 -0.508 -1.758
0.886 -0.317 -1.853
1.172 -0.0 -1.567
1.172 -0.2075 -1.5115
1.029 -0.1585 -1.71
1.029 0.0535 -1.7295
0.886 -0.105 -1.8725
1.172 0.2075 -1.5115
1.029 0.261 -1.674
0.702 -1.157 -1.2585
0.702 -1.058 -1.453
0.518 -1.229 -1.3635
0.702 -0.9145 -1.6105
0.702 -0.565 -1.864
0.702 -0.374 -1.959
1.2875 0.2075 -1.1945
1.2875 0.0 -1.25
1.2875 -0.2075 -1.1945
1.064 -0.902 -1.02
0.921 -1.0355 -1.118
0.737 -1.2065 -1.0285
-1.625 -0.1985 -0.6315
-1.625 0.1985 -0.6315
-1.125 -0.508 -1.758
-1.268 -0.709 -1.4075
-1.268 -0.557 -1.5595
-1.411 -0.567 -1.304
-1.411 -0.415 -1.456
-1.268 -0.366 -1.6545
-1.268 -0.1585 -1.71
-1.411 -0.2075 -1.5115
-1.411 -0.0 -1.567
-1.411 0.2075 -1.5115
-1.411 0.567 -1.304
-1.502 -0.3155 -1.284
-1.502 -0.4675 -1.132
-1.593 -0.216 -1.112
-1.502 -0.108 -1.3395
-1.502 0.108 -1.3395
-1.593 0.0 -1.112
-1.593 0.216 -1.112
-1.502 0.3155 -1.284
-1.502 0.4675 -1.132
-1.505 0.558 -0.893
-1.596 0.3065 -0.873
-1.505 -0.558 -0.893
-1.596 -0.3065 -0.873
-1.622 -0.108 -0.8705
-1.622 0.108 -0.8705

CELLS 672 2688
3 0 1 2
3 3 4 5
3 5 4 6
3 4 7 6
3 6 7 8
3 7 9 8
3 8 9 10
3 9 11 10
3 10 11 12
3 11 13 12
3 12 13 14
3 13 15 14
3 14 15 16
3 15 17 16
3 16 17 18
3 17 19 18
3 18 19 20
3 19 21 20
3 20 21 22
3 21 23 22
3 23 24 25
3 24 26 27
3 27 26 28
3 26 29 28
3 28 29 30
3 29 31 30
3 30 31 32
3 31 33 32
3 32 33 34
3 33 35 34
3 34 35 36
3 35 37 36
3 36 37 38
3 37 39 38
3 38 39 40
3 39 41 40
3 40 41 42
3 41 43 42
3 42 43 44
3 43 45 44
3 44 45 46
3 45 0 46
3 46 0 2
3 47 48 49
3 47 49 50
3 47 50 51
3 47 51 52
3 47 52 53
3 47 53 48
3 49 48 54
3 49 54 55
3 49 55 56
3 50 49 56
3 50 56 57
3 50 57 58
3 51 50 58
3 51 58 59
3 51 59 60
3 52 51 60
3 52 60 61
3 52 61 62
3 53 52 62
3 53 62 63
3 53 63 64
3 48 53 64
3 48 64 65
3 48 65 54
3 54 65 66
3 54 66 67
3 55 54 67
3 55 67 68
3 55 68 69
3 56 55 69
3 56 69 70
3 57 56 70
3 57 70 71
3 57 71 72
3 58 57 72
3 58 72 73
3 59 58 73
3 59 73 74
3 59 74 75
3 60 59 75
3 60 75 76
3 61 60 76
3 64 63 77
3 64 77 78
3 65 64 78
3 65 78 79
3 65 79 66
3 66 79 80
3 66 80 81
3 67 66 81
3 67 81 82
3 68 67 82
3 68 82 83
3 69 68 83
3 69 83 84
3 69 84 85
3 70 69 85
3 70 85 86
3 71 70 86
3 71 86 87
3 72 71 87
3 72 87 88
3 73 72 88
3 73 88 89
3 74 73 89
3 74 89 90
3 74 90 91
3 75 74 91
3 79 78 92
3 79 92 93
3 79 93 80
3 80 93 94
3 80 94 95
3 81 80 95
3 81 95 96
3 82 81 96
3 82 96 97
3 83 82 97
3 83 97 98
3 84 83 98
3 84 98 99
3 84 99 100
3 85 84 100
3 85 100 101
3 86 85 101
3 86 101 102
3 87 86 102
3 87 102 103
3 88 87 103
3 88 103 104
3 89 88 104
3 89 104 105
3 90 89 105
3 90 105 106
3 90 106 107
3 91 90 107
3 93 92 108
3 93 108 109
3 93 109 94
3 94 109 110
3 94 110 111
3 95 94 111
3 95 111 112
3 96 95 112
3 96 112 113
3 97 96 113
3 97 113 114
3 98 97 114
3 98 114 115
3 99 98 115
3 99 115 116
3 100 99 116
3 100 116 117
3 101 100 117
3 101 117 118
3 102 101 118
3 102 118 119
3 103 102 119
3 103 119 120
3 104 103 120
3 104 120 121
3 105 104 121
3 105 121 122
3 106 105 122
3 106 122 123
3 106 123 124
3 107 106 124
3 109 108 125
3 109 125 126
3 109 126 110
3 110 126 127
3 110 127 128
3 111 110 128
3 111 128 129
3 112 111 129
3 112 129 130
3 113 112 130
3 113 130 131
3 114 113 131
3 114 131 132
3 115 114 132
3 115 132 133
3 116 115 133
3 116 133 134
3 117 116 134
3 117 134 135
3 118 117 135
3 118 135 136
3 119 118 136
3 119 136 137
3 120 119 137
3 120 137 138
3 121 120 138
3 121 138 139
3 122 121 139
3 122 139 140
3 123 122 140
3 123 140 141
3 124 123 141
3 124 141 142
3 126 125 143
3 126 143 144
3 126 144 127
3 127 144 145
3 127 145 146
3 128 127 146
3 128 146 147
3 129 128 147
3 129 147 148
3 130 129 148
3 130 148 149
3 131 130 149
3 131 149 150
3 132 131 150
3 132 150 151
3 133 132 151
3 133 151 152
3 134 133 152
3 134 152 153
3 135 134 153
3 135 153 154
3 136 135 154
3 136 154 155
3 137 136 155
3 137 155 156
3 138 137 156
3 138 156 157
3 139 138 157
3 139 157 158
3 140 139 158
3 140 158 159
3 141 140 159
3 141 159 160
3 142 141 160
3 145 143 161
3 144 143 145
3 146 145 162
3 146 162 163
3 147 146 163
3 147 163 164
3 148 147 164
3 148 164 165
3 149 148 165
3 149 165 166
3 150 149 166
3 150 166 167
3 151 150 167
3 151 167 168
3 152 151 168
3 152 168 169
3 153 152 169
3 153 169 170
3 154 153 170
3 154 170 171
3 155 154 171
3 155 171 172
3 156 155 172
3 156 172 173
3 157 156 173
3 157 173 174
3 158 157 174
3 158 174 175
3 159 158 175
3 160 159 175
3 160 175 176
3 162 161 177
3 145 161 162
3 163 162 178
3 163 178 179
3 164 163 179
3 164 179 180
3 165 164 180
3 165 180 181
3 166 165 181
3 166 181 182
3 167 166 182
3 167 182 183
3 168 167 183
3 168 183 184
3 169 168 184
3 170 169 184
3 170 184 185
3 171 170 185
3 171 185 186
3 172 171 186
3 172 186 187
3 173 172 187
3 173 187 188
3 174 173 188
3 174 188 189
3 175 174 189
3 176 175 189
3 176 189 190
3 178 177 191
3 162 177 178
3 179 178 192
3 179 192 193
3 180 179 193
3 180 193 194
3 181 180 194
3 181 194 195
3 182 181 195
3 182 195 196
3 183 182 196
3 183 196 197
3 184 183 197
3 185 184 197
3 185 197 198
3 186 185 198
3 186 198 199
3 187 186 199
3 187 199 200
3 188 187 200
3 188 200 201
3 189 188 201
3 190 189 201
3 190 201 202
3 192 191 203
3 178 191 192
3 193 192 204
3 193 204 205
3 194 193 205
3 194 205 206
3 195 194 206
3 196 195 206
3 196 206 207
3 197 196 207
3 197 207 208
3 198 197 208
3 199 198 208
3 199 208 209
3 200 199 209
3 200 209 210
3 201 200 210
3 202 201 210
3 202 210 211
3 204 203 212
3 192 203 204
3 205 204 213
3 205 213 214
3 206 205 214
3 207 206 214
3 207 214 215
3 208 207 215
3 209 208 215
3 209 215 216
3 210 209 216
3 211 210 216
3 211 216 217
3 213 212 218
3 204 212 213
3 214 213 219
3 215 214 219
3 216 215 219
3 217 216 219
3 218 217 219
3 213 218 219
3 218 212 24
3 218 24 23
3 218 23 217
3 217 23 21
3 217 21 211
3 211 21 19
3 211 19 202
3 202 19 17
3 202 17 190
3 190 17 15
3 190 15 176
3 176 15 13
3 176 13 160
3 160 13 11
3 160 11 142
3 142 11 9
3 142 9 124
3 124 9 107
3 107 9 7
3 107 7 91
3 91 7 4
3 91 4 75
3 75 4 76
3 76 4 3
3 76 1 61
3 61 1 62
3 62 1 0
3 62 0 45
3 62 45 63
3 63 45 77
3 77 45 43
3 77 43 41
3 77 41 78
3 78 41 92
3 92 41 39
3 92 39 108
3 108 39 37
3 108 37 125
3 125 37 143
3 143 37 35
3 143 35 161
3 161 35 33
3 161 33 177
3 177 33 31
3 177 31 191
3 191 31 29
3 191 29 203
3 203 29 26
3 203 26 212
3 212 26 24
3 220 221 222
3 223 220 222
3 223 222 224
3 225 226 227
3 221 225 227
3 221 227 228
3 222 221 228
3 222 228 229
3 224 222 229
3 224 229 230
3 231 232 233
3 234 233 235
3 236 234 235
3 236 235 237
3 238 236 237
3 238 237 239
3 226 238 239
3 226 239 240
3 227 226 240
3 227 240 241
3 228 227 241
3 228 241 242
3 229 228 242
3 229 242 243
3 230 229 243
3 230 243 244
3 232 245 246
3 233 232 246
3 233 246 247
3 235 233 247
3 235 247 248
3 237 235 248
3 239 237 248
3 239 248 249
3 239 249 250
3 240 239 250
3 240 250 251
3 241 240 251
3 241 251 252
3 242 241 252
3 242 252 253
3 243 242 253
3 243 253 254
3 244 243 254
3 246 245 255
3 246 255 256
3 247 246 256
3 247 256 257
3 248 247 257
3 248 257 258
3 249 248 258
3 249 258 259
3 250 249 259
3 250 259 260
3 251 250 260
3 251 260 261
3 252 251 261
3 252 261 262
3 253 252 262
3 253 262 263
3 254 253 263
3 255 264 265
3 256 255 265
3 256 265 266
3 257 256 266
3 258 257 266
3 259 258 267
3 259 267 268
3 260 259 268
3 260 268 269
3 261 260 269
3 261 269 270
3 262 261 270
3 262 270 271
3 263 262 271
3 265 264 272
3 269 268 273
3 270 269 273
3 271 270 274
3 274 28 30
3 274 30 271
3 271 30 32
3 271 32 263
3 263 32 34
3 263 34 254
3 254 34 36
3 254 36 244
3 244 36 38
3 244 38 230
3 230 38 40
3 230 40 224
3 224 40 42
3 224 42 223
3 223 42 44
3 223 44 46
3 223 46 220
3 275 276 5
3 231 8 10
3 231 10 232
3 232 10 12
3 232 12 245
3 245 12 14
3 245 14 255
3 255 14 16
3 255 16 264
3 264 16 18
3 264 18 20
3 264 20 272
3 1 277 2
3 2 277 276
3 1 278 277
3 278 279 277
3 278 3 279
3 277 279 276
3 276 279 5
3 279 3 5
3 3 278 76
3 76 278 1
3 275 280 281
3 280 282 281
3 280 283 282
3 281 282 284
3 285 286 287
3 286 281 287
3 286 275 281
3 287 281 284
3 285 287 288
3 287 289 288
3 287 284 289
3 288 289 290
3 291 292 293
3 292 288 293
3 292 285 288
3 293 288 290
3 291 293 294
3 293 295 294
3 293 290 295
3 294 295 225
3 220 296 297
3 296 294 297
3 296 291 294
3 297 294 225
3 220 297 221
3 297 225 221
3 283 298 299
3 298 300 299
3 298 231 300
3 299 300 234
3 284 282 301
3 282 299 301
3 282 283 299
3 301 299 234
3 284 301 236
3 301 234 236
3 238 302 236
3 284 302 236
3 290 289 303
3 289 302 303
3 289 284 302
3 303 302 238
3 290 303 226
3 303 238 226
3 225 295 226
3 295 290 226
3 234 300 233
3 300 231 233
3 2 304 46
3 220 304 46
3 220 304 296
3 304 305 296
3 304 2 305
3 296 305 291
3 291 305 292
3 305 306 292
3 305 2 306
3 292 306 285
3 285 306 276
3 306 2 276
3 275 286 276
3 285 286 276
3 6 307 5
3 275 307 5
3 275 307 280
3 307 308 280
3 307 6 308
3 280 308 283
3 283 308 298
3 308 309 298
3 308 6 309
3 298 309 231
3 231 309 8
3 309 6 8
3 25 310 23
3 22 310 23
3 27 311 24
3 25 311 24
3 266 312 258
3 258 312 267
3 272 313 265
3 266 313 265
3 266 313 314
3 313 315 314
3 313 272 315
3 314 315 316
3 267 312 317
3 312 314 317
3 312 266 314
3 317 314 316
3 267 317 318
3 317 319 318
3 317 316 319
3 318 319 320
3 267 318 268
3 268 318 320
3 320 321 268
3 268 321 273
3 273 322 270
3 270 322 274
3 316 315 323
3 315 324 323
3 315 272 324
3 323 324 325
3 320 319 326
3 319 323 326
3 319 316 323
3 326 323 325
3 320 326 327
3 326 328 327
3 326 325 328
3 327 328 329
3 273 321 330
3 321 327 330
3 321 320 327
3 330 327 329
3 274 322 331
3 322 330 331
3 322 273 330
3 331 330 329
3 274 331 332
3 331 333 332
3 331 329 333
3 332 333 27
3 274 332 28
3 332 27 28
3 22 334 20
3 272 334 20
3 272 334 324
3 334 335 324
3 334 22 335
3 324 335 325
3 325 335 336
3 335 310 336
3 335 22 310
3 336 310 25
3 325 336 328
3 336 337 328
3 336 25 337
3 328 337 329
3 329 337 333
3 337 311 333
3 337 25 311
3 333 311 27

CELL_TYPES 672
5
5
5
5
5
5
5
5
5
5
5
5
5
5
5
5
5
5
5
5
5
5
5
5
5
5
5
5
5
5
5
5
5
5
5
5
5
5
5
5
5
5
5
5
5
5
5
5
5
5
5
5
5
5
5
5
5
5
5
5
5
5
5
5
5
5
5
5
5
5
5
5
5
5
5
5
5
5
5
5
5
5
5
5
5
5
5
5
5
5
5
5
5
5
5
5
5
5
5
5
5
5
5
5
5
5
5
5
5
5
5
5
5
5
5
5
5
5
5
5
5
5
5
5
5
5
5
5
5
5
5
5
5
5
5
5
5
5
5
5
5
5
5
5
5
5
5
5
5
5
5
5
5
5
5
5
5
5
5
5
5
5
5
5
5
5
5
5
5
5
5
5
5
5
5
5
5
5
5
5
5
5
5
5
5
5
5
5
5
5
5
5
5
5
5
5
5
5
5
5
5
5
5
5
5
5
5
5
5
5
5
5
5
5
5
5
5
5
5
5
5
5
5
5
5
5
5
5
5
5
5
5
5
5
5
5
5
5
5
5
5
5
5
5
5
5
5
5
5
5
5
5
5
5
5
5
5
5
5
5
5
5
5
5
5
5
5
5
5
5
5
5
5
5
5
5
5
5
5
5
5
5
5
5
5
5
5
5
5
5
5
5
5
5
5
5
5
5
5
5
5
5
5
5
5
5
5
5
5
5
5
5
5
5
5
5
5
5
5
5
5
5
5
5
5
5
5
5
5
5
5
5
5
5
5
5
5
5
5
5
5
5
5
5
5
5
5
5
5
5
5
5
5
5
5
5
5
5
5
5
5
5
5
5
5
5
5
5
5
5
5
5
5
5
5
5
5
5
5
5
5
5
5
5
5
5
5
5
5
5
5
5
5
5
5
5
5
5
5
5
5
5
5
5
5
5
5
5
5
5
5
5
5
5
5
5
5
5
5
5
5
5
5
5
5
5
5
5
5
5
5
5
5
5
5
5
5
5
5
5
5
5
5
5
5
5
5
5
5
5
5
5
5
5
5
5
5
5
5
5
5
5
5
5
5
5
5
5
5
5
5
5
5
5
5
5
5
5
5
5
5
5
5
5
5
5
5
5
5
5
5
5
5
5
5
5
5
5
5
5
5
5
5
5
5
5
5
5
5
5
5
5
5
5
5
5
5
5
5
5
5
5
5
5
5
5
5
5
5
5
5
5
5
5
5
5
5
5
5
5
5
5
5
5
5
5
5
5
5
5
5
5
5
5
5
5
5
5
5
5
5
5
5
5
5
5
5
5
5
5
5
5
5
5
5
5
5
5
5
5
5
5
5
5
5
5
5
5
5
5
5
5
5
5
5
5
5
5
5
5
5
5
5
5
5
5
5
5
5
5
5
5
5
5
5
5
5
5
5
5
5
5
5
5
5
5
5
5
5
5
5
5
5
5
5
5
5
5
5
5
5
5
5
5
5
5
5
5
5
5
5
5
5
5
5
5
5
5
5
5
5
5
5
5
5
5
5
5
5
5
5
5

CELL_DATA 672
SCALARS cell_data_0 double
LOOKUP_TABLE default
1.79754726128e-06
2.2203220676e-07
2.10058238473e-07
3.02323641952e-07
3.8447899541e-07
6.04273371979e-07
2.31910046785e-07
8.43948696287e-07
4.09208886541e-08
9.8759113847e-07
1.25176256393e-07
1.07374082947e-06
2.62319809776e-07
1.10788444803e-06
3.78829858817e-07
1.15907431617e-06
4.38449548117e-07
1.1604391874e-06
5.16484795295e-07
1.55946291265e-07
9.30148102919e-08
9.51031853026e-07
2.83622953951e-08
9.74029074892e-07
6.58572765168e-07
8.77565511457e-07
6.78038441503e-07
7.13470492662e-07
6.72482181916e-07
5.14850576453e-07
6.37474429467e-07
2.63256907624e-07
5.45719558642e-07
8.02978850867e-09
3.49055709703e-07
1.21562609695e-07
4.17349857007e-08
6.10214207015e-07
2.95865138412e-07
4.1473479692e-06
5.09744757806e-08
9.13403276187e-07
3.4784309684e-07
5.47191916636e-09
8.0711331015e-10
8.92769970071e-09
3.14525706412e-09
2.41902935045e-08
2.61066904932e-08
1.03617585688e-09
3.1182090093e-09
4.24748614022e-09
2.66148316825e-09
3.39643405526e-09
8.60255986738e-09
2.09208152875e-08
4.50922250381e-08
1.27891613067e-07
9.07809641173e-08
7.74108668426e-08
3.65147789647e-08
7.26450075157e-08
1.05942947853e-07
8.81203510597e-08
6.10340532324e-08
2.37790414012e-08
3.93578816741e-09
2.02065055469e-08
2.26197826598e-08
1.19761728523e-08
9.69456776804e-09
3.14948101588e-10
8.37651294651e-09
1.30150024978e-08
1.58141938463e-08
1.97712070787e-08
2.13233724287e-08
4.00793662761e-09
3.60059531779e-10
4.00997634864e-08
4.73488143123e-08
6.13416538589e-08
1.50357681538e-07
7.57649129618e-08
6.16813936949e-08
9.35092983286e-08
5.17779207449e-08
3.48924181106e-08
5.56178265844e-10
2.50467823506e-08
4.14541608383e-08
4.33199717486e-08
3.36711379364e-08
3.07282050182e-08
1.95898808501e-08
1.43158283743e-08
2.0555084983e-09
3.06024009398e-09
1.52886733503e-08
1.93046162064e-08
2.85491019862e-08
3.09497422759e-08
3.80827601852e-08
3.46950582742e-08
3.69504111042e-08
2.21780185485e-08
2.24383825335e-08
1.01976850105e-08
5.3982336567e-09
1.6713866217e-08
3.80884731066e-08
1.88180569829e-10
3.0517397349e-08
5.00981427675e-08
6.56364328839e-08
6.08376511181e-08
5.32192795893e-08
4.55505099003e-08
3.74281492602e-08
2.98016910001e-08
1.99459738098e-08
1.33909968747e-08
2.19986316657e-09
3.16180099492e-09
1.43826679155e-08
2.04348238813e-08
2.86566734809e-08
3.51695795472e-08
4.11387367771e-08
4.69009196602e-08
5.09528994913e-08
5.08606694743e-08
4.91085026825e-08
4.04555447732e-08
3.86312233174e-08
2.60089688403e-08
2.29296204941e-08
3.45729496917e-09
9.50228119271e-09
3.57424549717e-08
5.96360639291e-08
7.23662753936e-08
8.36917827882e-08
7.78354975442e-08
6.7403768356e-08
5.95360062036e-08
4.9911334864e-08
4.12694488202e-08
3.22159413605e-08
2.38089781515e-08
1.58779648191e-08
7.8311971717e-09
1.90808074082e-10
8.14512897873e-09
1.59553868376e-08
2.34159359537e-08
3.11597751504e-08
3.8704217657e-08
4.54376037182e-08
5.24992772987e-08
5.69240290547e-08
6.32491129144e-08
6.0223416657e-08
6.08320268482e-08
4.97763807297e-08
4.31012966256e-08
3.00932889268e-08
2.18943359671e-08
4.98380862817e-09
1.43756178077e-08
6.64996249129e-08
8.8942806906e-08
9.44547134023e-08
1.02501551665e-07
9.10892818247e-08
8.18198035187e-08
7.02290985534e-08
6.1539234219e-08
5.01620752283e-08
4.17111618126e-08
3.11102356538e-08
2.34513472493e-08
1.37284662334e-08
6.53584044844e-09
3.04397023669e-09
1.00796852667e-08
1.95922647303e-08
2.61746479363e-08
3.56832789097e-08
4.20618475682e-08
5.11217044098e-08
5.70195518068e-08
6.45273194226e-08
6.83898366798e-08
7.2053529159e-08
6.92181241731e-08
5.65515099913e-08
4.06284004216e-08
5.32184220268e-09
5.88930459201e-09
1.02249052574e-08
1.06038568979e-09
2.61990858298e-08
6.5139420264e-08
7.85164001194e-08
1.12155339332e-07
9.79991384892e-08
7.79277129564e-08
8.06282508414e-08
6.37910564887e-08
6.26356604057e-08
4.87159264918e-08
4.5273685567e-08
3.41581981559e-08
2.88471386415e-08
2.04688826392e-08
1.35638536822e-08
7.59877830308e-09
1.29785377191e-09
4.67729246161e-09
1.57164969611e-08
1.68095538039e-08
2.99280012886e-08
2.8872331023e-08
4.37440551715e-08
4.08901084332e-08
5.63771742775e-08
5.12349198302e-08
6.4363654914e-08
5.68615887657e-08
5.5741413378e-08
4.35628888345e-08
4.76950915988e-09
1.17477660011e-08
2.27960080093e-08
5.44192012244e-09
9.21290105483e-09
3.73281089414e-08
6.71563155568e-08
6.80465186212e-08
6.59053092389e-08
5.78595731604e-08
5.4612018946e-08
4.57775260442e-08
4.16754416932e-08
3.32501822576e-08
2.8763489521e-08
2.14022779031e-08
1.69950310858e-08
1.07516048771e-08
5.58120527901e-09
8.37804950474e-11
5.63629934972e-09
1.00413245459e-08
1.65445824977e-08
2.03783374144e-08
2.75831410182e-08
3.08660952621e-08
3.79352738837e-08
4.02295335643e-08
4.53548736396e-08
4.60546283128e-08
4.27775720258e-08
3.8044831526e-08
9.44908844312e-09
7.37416584758e-09
1.56728814716e-08
1.34784635793e-08
4.15044912768e-08
5.519922982e-08
7.05750578364e-08
7.14995163229e-08
5.97917767648e-08
5.84732815891e-08
4.55747185551e-08
4.19550795375e-08
3.14328804669e-08
2.55748801429e-08
1.79326560538e-08
9.93769329e-09
4.27907425329e-09
6.26168463568e-09
9.73504873038e-09
1.64312374249e-08
2.43576307969e-08
2.84629370798e-08
3.78010816123e-08
3.95582546949e-08
4.77541911963e-08
4.61608943813e-08
4.33147903686e-08
3.46870523152e-08
4.19855320766e-09
2.6792468284e-08
3.41776439681e-08
2.53811773882e-08
4.60147363673e-08
5.82411039502e-08
7.41275636325e-08
6.94526339161e-08
6.07392746254e-08
5.37552482044e-08
4.28349366562e-08
3.41527604197e-08
2.46427162573e-08
1.34251550929e-08
6.49057811981e-09
6.99818595534e-09
1.26021019374e-08
2.20954025085e-08
3.02417679059e-08
3.7011010453e-08
4.36296353509e-08
4.59025905642e-08
3.99458131062e-08
3.20309221195e-08
1.58121143105e-08
4.88196145422e-08
5.60356510827e-08
3.30185989982e-08
4.36208123796e-08
6.12354739459e-08
7.02293664273e-08
7.07448358837e-08
5.23452438904e-08
4.27567719974e-08
2.86299469714e-08
1.43362801278e-08
1.04321885645e-09
1.11510079977e-08
2.90120001419e-08
3.31501252617e-08
4.04048122072e-08
3.83633827154e-08
2.76441189317e-08
2.9904730376e-08
6.57602206943e-08
7.14511295203e-08
4.43966459566e-08
4.61501869734e-08
5.8424805749e-08
6.56334818912e-08
4.4800413684e-08
2.41741563182e-08
1.73135686668e-09
1.79487783565e-08
2.75609193109e-08
2.49541767307e-08
2.62474434849e-08
6.90430310452e-08
7.66250116869e-08
3.67453929659e-08
4.21255402873e-08
5.74366781839e-08
6.88174237138e-06
6.36734029464e-06
6.01456019671e-06
6.25124509968e-06
6.92689373979e-06
7.21636772081e-06
3.13813415864e-08
3.52769625495e-08
1.7676169983e-09
4.52881710992e-07
4.56134628671e-07
9.88199530297e-07
4.15234800542e-07
1.06078808907e-06
3.87418616233e-07
1.03133334434e-06
3.98842612297e-07
1.07140899551e-06
3.97988710686e-07
9.9492320634e-07
1.59553884039e-07
3.41308026205e-07
1.30455491564e-07
2.3378518029e-07
5.13068498201e-07
1.08677154956e-07
1.08786681095e-07
3.92130760432e-09
3.61111648438e-09
2.56798343349e-08
3.10327426089e-06
2.31072352424e-06
1.37353550688e-06
9.41950420594e-07
1.46457000858e-06
2.02588131482e-06
2.15827661689e-06
2.32568771041e-07
9.00355421549e-09
5.66218946758e-11
8.04286916432e-08
8.89507173809e-08
4.46845021182e-07
2.18499981358e-07
1.74185194081e-07
7.05547148684e-07
2.71145247954e-07
8.71351567455e-07
2.90048612498e-07
9.3763857787e-07
2.7820248588e-07
9.11978654978e-07
2.62823067698e-07
9.05165630846e-07
2.41871079589e-07
2.77545586295e-07
1.93411549118e-06
1.61251299636e-06
5.16286976196e-07
7.21367715579e-07
9.00834661043e-07
7.84608074406e-07
2.07233670273e-06
1.16291191129e-06
1.91880906249e-06
1.23374154292e-06
1.94494864277e-07
2.05197051414e-07
6.86744877373e-07
1.43325824143e-06
1.18634751066e-06
1.32770193488e-06
1.27987450283e-06
2.04181811613e-06
9.61586322258e-07
9.24667704959e-07
6.91384166188e-07
1.20487116264e-06
8.8896303546e-07
7.69255073048e-07
5.5782980136e-07
5.66026575308e-07
2.02948649732e-07
1.33959334046e-07
1.19992432412e-07
2.79157514371e-07
6.9538812484e-07
1.25649257123e-06
1.83700206916e-06
1.62817781706e-06
1.62484143993e-06
1.79531288674e-06
1.42640618485e-06
1.50542025588e-06
1.15655906704e-06
1.11055094771e-06
8.44758865965e-07
7.80361204721e-07
6.9007340972e-07
6.43885445079e-07
6.13343584105e-08
2.85926459179e-09
9.06592785274e-08
2.45987728511e-07
6.71511977437e-07
8.59789500938e-07
1.11398737877e-06
9.96246223841e-07
1.14162114194e-06
9.30670217083e-07
9.97100223909e-07
8.32499124673e-07
8.87375445019e-07
7.30262042548e-07
7.18529608649e-07
6.45474634304e-07
6.72415891022e-07
1.5207863711e-07
1.32598521555e-07
1.2613465009e-07
2.88950024103e-07
5.18113977873e-07
6.20019077898e-07
1.03184999477e-06
1.07750711805e-06
1.15481847473e-05
4.01362917417e-06
7.77056935086e-06
8.49823932473e-07
7.58905213286e-09
7.18197889718e-07
8.28947767379e-07
2.00265445523e-05
1.46953435758e-05
2.78996137296e-06
4.83632761642e-07
8.82715652959e-07
4.82180365461e-07
8.22562248546e-07
6.61231273672e-07
1.31888205357e-07
4.84232149728e-07
5.95003969988e-08
3.28914761609e-07
3.22527588739e-08
1.54385463957e-07
4.50027829844e-07
2.15180970424e-07
5.30072259609e-07
3.27370368882e-07
7.70681468338e-07
3.70695810667e-06
8.88327932299e-07
1.60907311353e-07
6.43164210643e-08
2.43916492063e-07
3.21340975507e-07
3.91060163939e-07
3.46335010767e-07
5.46481036247e-07
2.98724157992e-07
3.46968566584e-07
4.28773087525e-07
1.09331534104e-06
2.82137703247e-06
1.41170381649e-06
5.3020583172e-06
5.0328944366e-06
2.36916633794e-06
1.43829837049e-06
2.26285302124e-07
1.88446147299e-06
4.79511647004e-07
2.28938436701e-06
1.83696262782e-07
3.01610510057e-06
2.63316680822e-06
1.93088999258e-06
6.11593893891e-07
2.89477549781e-06
1.58258801918e-06
4.48750623152e-07
2.85597035025e-07
1.67977415603e-06
6.26305559124e-07
1.08019693707e-07
2.11849529292e-06
3.64136924748e-07
1.12614833672e-06
5.41867439874e-07
2.29201971527e-06
1.34653616301e-06
8.6918297842e-07
2.57378773851e-07
6.36708736333e-08
2.72313363982e-07
7.87008968744e-07
1.18195869973e-07
2.05102975178e-07
6.18254068825e-07
3.71793469053e-07
6.60499453461e-06
5.13935579036e-06
5.53026992278e-06
9.22629278288e-06
1.1802209027e-05
2.84751639721e-06
6.01021998319e-06
7.60312493014e-06
8.94541438833e-06
5.81798637505e-06
5.0400786565e-06
2.20287131125e-07
4.17733564365e-06
3.39870025672e-06
3.34930915348e-06
1.69168106034e-08
7.3380307461e-08
7.06165163836e-07
4.5518692931e-07
9.31564825772e-06
8.71298860348e-06
9.97827546993e-07
1.02538360791e-06
1.16101804217e-07
6.56310991492e-07
1.8456149274e-07
1.37909198269e-06
5.84428875827e-06
4.35269010399e-06
2.65341548725e-06
3.93009610685e-06
1.90751052168e-06
3.0718465992e-06
1.16373824653e-07
2.12979402557e-06
4.67144880011e-07
1.01861621107e-07
2.2445161713e-09
7.01553411111e-07
1.39225125377e-06
1.31857866028e-07
2.13155757696e-07
8.153061966e-07
1.39900371861e-06
4.33617474425e-07
7.564732827e-07
6.37264271641e-07
1.47332826174e-08
3.28523727172e-07
1.2179186217e-08
3.26196522699e-08
1.78191406501e-07
2.07254848588e-07
4.42811319317e-07
1.32358583593e-07
3.00884075205e-08
1.3046361265e-08
2.60904256619e-07
5.93841419636e-08
5.08060834885e-08
1.02674757204e-08
6.73421174888e-08
2.18245048423e-08
4.95969573043e-08
2.53668615589e-09
1.61622589773e-08
3.97891135027e-07
4.29190167006e-07
3.59907680135e-06
3.86976769232e-06
2.13764975652e-06
5.05568645239e-07
6.75935562063e-08
1.23954831898e-08
1.06748800385e-08
2.50638069575e-07
5.08517218895e-09
3.59940425239e-07
2.48659351228e-08
1.42418062693e-08
3.80635406479e-09
4.08472531133e-07
3.46891121476e-08
8.28186421691e-10
2.07352300555e-06
8.0772511591e-08
1.28781418966e-08
3.71161899389e-07
1.74189085384e-06
2.45808563796e-07
7.60150239291e-09
9.4423686186e-08
1.72587869039e-06
3.9880518988e-07
2.81573458871e-08
2.43652752583e-06
4.50836852005e-09
5.3197369074e-07
3.50029348049e-07
4.50445275974e-07
5.11533008587e-07
4.2422402908e-07
1.97533824576e-09
1.7854966185e-07
8.32470705218e-08
6.90195747248e-08
3.21972295211e-08
1.29808430768e-07
1.27668274769e-08
1.07351853751e-08
4.41284290613e-08
1.23959416628e-09
2.02398349024e-06
1.75804982112e-06
1.45159102913e-08
2.28102897377e-08
1.3946488773e-09

