# vtk DataFile Version 3.0
File Name: Molecule/methanol/methanol_12.5-1.vtk
ASCII
DATASET UNSTRUCTURED_GRID
FIELD FieldData 1
TIME 1 1 double
0.0
POINTS 623 double
1.6048547029 0.014441092499 -0.37325504422
1.5719459057 -0.32988843322 -0.36762368679
1.4789123535 -0.018245371059 -0.6205201745
1.4435139894 -0.31841516495 -0.62857860327
1.4247461557 -0.025874521583 -0.79677730799
1.4807251692 -0.63540887833 -0.35556286573
1.3562573195 -0.60013270378 -0.62204450369
1.3789223433 -0.30789205432 -0.90941798687
1.2956672907 -0.59055787325 -0.88626027107
1.2757813931 -0.77095782757 -0.61365950108
1.3878387213 -0.83073753119 -0.34579148889
1.2052301168 -0.75449293852 -0.9134323597
1.1025056839 -1.0192497969 -0.59889960289
1.1927847862 -1.1070774794 -0.3256316483
1.0223052502 -1.0009710789 -0.91565662622
0.87067258358 -1.249242425 -0.56062448025
0.96010744572 -1.3406554461 -0.27661049366
0.80901181698 -1.2161154747 -0.8697040081
0.67927610874 -1.5125716925 -0.25502893329
0.59703499079 -1.416307807 -0.54601216316
0.54289454222 -1.3861218691 -0.82845330238
0.38045370579 -1.6263899803 -0.22678413987
0.30312371254 -1.5262902975 -0.51301455498
0.25363302231 -1.4952162504 -0.78267747164
0.16359092295 -1.6661207676 -0.2213344723
0.0066701099277 -1.5739388466 -0.48907643557
-0.028548112139 -1.5258024931 -0.8097383976
-0.19573386014 -1.576695919 -0.45284700394
-0.15567371249 -1.67679739 -0.19924464822
-0.2231246084 -1.5293456316 -0.77053904533
-0.46577510238 -1.629196763 -0.17340284586
-0.4905230701 -1.5235708952 -0.44405966997
-0.52441710234 -1.4831385612 -0.72247493267
-0.78713852167 -1.5133827925 -0.13956069946
-0.78306978941 -1.4177845716 -0.40582150221
-0.79914098978 -1.37471807 -0.7200460434
-1.0525877476 -1.2494286299 -0.37691253424
-1.0870393515 -1.3377981186 -0.080339975655
-1.0594741106 -1.2187900543 -0.66137307882
-1.3364964724 -1.0894999504 -0.087621808052
-1.282132864 -1.0238589048 -0.37804943323
-1.2790430784 -0.99588388205 -0.69386726618
-1.4530217648 -0.79005271196 -0.32881036401
-1.5189076662 -0.82318997383 -0.08082408458
-1.4515132904 -0.76709419489 -0.6193857789
-1.5416457653 -0.61084473133 -0.32960218191
-1.6177569628 -0.64934015274 -0.0072061512619
-1.5302903652 -0.59530317783 -0.6435109973
-1.6993644238 -0.33703842759 -0.066937983036
-1.6296036243 -0.30819183588 -0.34130081534
-1.6153322458 -0.30936685205 -0.65622061491
-1.6652663946 0.00041613070061 -0.30900043249
-1.7488566637 -0.0010199912358 0.01237761043
-1.6491519213 -0.00069542363053 -0.63954919577
-1.6988288164 0.33630469441 -0.069139763713
-1.6275589466 0.31570866704 -0.34530377388
-1.6138130426 0.3081625402 -0.6689234972
-1.548186779 0.60295927525 -0.31175014377
-1.6191139221 0.65139597654 0.0018619149923
-1.5262084007 0.60235148668 -0.65077781677
-1.5156325102 0.83284831047 -0.072716273367
-1.4532470703 0.77707207203 -0.36556535959
-1.3851006031 0.85757344961 -0.67758345604
-1.2837921381 1.0287271738 -0.35536426306
-1.3420934677 1.0929971933 -0.058647654951
-1.266592145 1.0110248327 -0.68094545603
-1.0940666199 1.327557683 -0.095456331968
-1.0527751446 1.2432844639 -0.39895796776
-1.0543243885 1.2086749077 -0.7176836133
-0.78569352627 1.4189031124 -0.39695996046
-0.80908381939 1.5051454306 -0.12961255014
-0.79701817036 1.3767980337 -0.71666800976
-0.48120328784 1.6256712675 -0.17313276231
-0.48783251643 1.5211863518 -0.45642000437
-0.5127427578 1.4803385735 -0.75496292114
-0.19464023411 1.5786018372 -0.44698148966
-0.16684398055 1.6805560589 -0.18064601719
-0.21889930964 1.5348497629 -0.75463956594
0.035654425621 1.6792929173 -0.20776575804
0.0032146759331 1.5725536346 -0.49236518145
-0.029156774282 1.5293687582 -0.79353916645
0.30427333713 1.5300029516 -0.50026345253
0.35985305905 1.6344530582 -0.22025811672
0.26123279333 1.4884755611 -0.80474245548
0.66756474972 1.5180863142 -0.25476509333
0.59748506546 1.4161303043 -0.54594779015
0.55446058512 1.3788253069 -0.83568590879
0.9538089633 1.3438494205 -0.27763828635
0.86728960276 1.246991992 -0.57167494297
0.81591379642 1.2191283703 -0.84733819962
1.2022167444 1.0970164537 -0.32598125935
1.0922145844 1.0242671967 -0.6127524972
1.0208001137 0.99295687675 -0.93714547157
1.2741713524 0.78655046225 -0.59351980686
1.3948702812 0.84103989601 -0.31738436222
1.2077519894 0.75509345531 -0.90702170134
1.4799770117 0.64263093472 -0.35278558731
1.3475902081 0.60325479507 -0.64250260592
1.2894285917 0.58606791496 -0.910192132
1.4487682581 0.31439757347 -0.61712551117
1.5801811218 0.32893672585 -0.34996902943
1.3772280216 0.31058388948 -0.9134824276
1.9070000648 3.1750460039e-07 0.65588116646
1.8779842854 0.32454320788 0.65587061644
1.8779820204 0.16220137477 0.93654668331
1.8779858351 -0.1615755707 0.93689870834
1.8779911995 -0.32447627187 0.65624785423
1.8780059814 -0.16218990088 0.37455534935
1.8780198097 0.16184639931 0.37437394261
1.8013218641 0.53864228725 0.96642154455
1.795650959 0.31842964888 1.207824707
1.801260829 0.00045314827003 1.2768770456
1.7956547737 -0.31868496537 1.2076628208
1.8013401031 -0.53838086128 0.96675926447
1.795702219 -0.63779997826 0.65577965975
1.8013576269 -0.53880411386 0.34501680732
1.7956199646 -0.31831967831 0.10261953622
1.8074244261 -0.0095019126311 0.055286765099
1.7969894409 0.31739771366 0.10652117431
1.8013105392 0.53860521317 0.34454798698
1.7957061529 0.637845397 0.65586137772
1.682115674 0.83746165037 0.95695990324
1.6804872751 0.68700832129 1.2264229059
1.6729081869 0.46331688762 1.438324213
1.6787432432 0.16040438414 1.5385667086
1.6794281006 -0.15340742469 1.5385479927
1.6715220213 -0.45046234131 1.4489711523
1.6787269115 -0.6849925518 1.2341381311
1.6791223288 -0.8421497345 0.96192985773
1.6646313667 -0.92512691021 0.65652728081
1.6788184643 -0.84296643734 0.34937795997
1.6790879965 -0.685297966 0.078667208552
1.6651078463 -0.46094766259 -0.146041587
1.6806691885 -0.16382880509 -0.21571837366
1.7291375399 0.1052968353 -0.13721555471
1.6682093143 0.46382579207 -0.13608205318
1.6798489094 0.68889063597 0.085695400834
1.6822680235 0.83730274439 0.35474994779
1.6782203913 0.90096366405 0.65595203638
1.5687459707 1.0335935354 0.95614272356
1.5774251223 0.94227355719 1.1487003565
1.5733017921 0.76692962646 1.4033163786
1.5648483038 0.54032313824 1.5897907019
1.573491931 0.35008895397 1.6655093431
1.5756264925 0.036610297859 1.7220788002
1.5738219023 -0.28323918581 1.6869460344
1.562707305 -0.56667917967 1.5776805878
1.573623538 -0.72162485123 1.4445523024
1.5763245821 -0.91672438383 1.2012642622
1.571895957 -1.042874217 0.90376216173
1.5010318756 -1.1695985794 0.65730661154
1.5723125935 -1.0423289537 0.4074935019
1.5757215023 -0.91759699583 0.10867075622
1.5738261938 -0.71733158827 -0.1379570812
1.5710524321 0.77068853378 -0.095388881862
1.576587677 0.93989098072 0.15554738045
1.5703265667 1.0304147005 0.35262832046
1.5670810938 1.0767490864 0.65527153015
1.3800371885 1.2686028481 0.97537565231
1.3784558773 1.1663399935 1.2494786978
1.381881237 1.0521278381 1.427479744
1.3807343245 0.84736388922 1.6508351564
1.3798854351 0.58572340012 1.8255399466
1.3808976412 0.28034704924 1.9318370819
1.3802349567 -0.043902263045 1.9626795053
1.3700019121 -0.33327716589 1.9297308922
1.3820976019 -0.52976936102 1.8483577967
1.3790850639 -0.79174906015 1.6978493929
1.3814607859 -1.0202063322 1.4720299244
1.3829399347 -1.1881713867 1.1936017275
1.3770136833 -1.2900009155 0.89100039005
1.3622237444 -1.3226153851 0.60112261772
1.3764111996 -1.2874673605 0.40483549237
1.3830783367 -1.1876615286 0.11727241427
1.3898382187 -1.021034956 -0.14080283046
1.3851528168 1.0474395752 -0.12254525721
1.3796434402 1.1631228924 0.05913734436
1.3802847862 1.2690366507 0.3386245966
1.3723039627 1.3146798611 0.65615648031
1.1413805485 1.4823511839 0.97732490301
1.1348934174 1.395103693 1.2631973028
1.1452461481 1.2900892496 1.4453064203
1.142059207 1.1108291149 1.688036561
1.1417096853 0.87018889189 1.8975478411
1.141063571 0.58911305666 2.0542654991
1.1289255619 0.31445914507 2.1479592323
1.1428260803 0.09989951551 2.1678612232
1.1453286409 -0.20113012195 2.1568081379
1.1455034018 -0.50460159779 2.0830984116
1.1410557032 -0.80244755745 1.9434219599
1.1412127018 -1.0434678793 1.7572238445
1.1323800087 -1.189571023 1.6057060957
1.1406413317 -1.347127676 1.3552490473
1.1416193247 -1.46223557 1.0591698885
1.139675498 -1.5132453442 0.7626619935
1.1353294849 -1.5165957212 0.5519720912
1.1407060623 -1.4621380568 0.24904893339
1.1469203234 -1.3392632008 -0.048956692219
1.1453968287 1.2947003841 -0.13183788955
1.1385054588 1.3893649578 0.044099919498
1.1412163973 1.4829505682 0.33606514335
1.1313585043 1.5240311623 0.65616750717
0.86988282204 1.6542787552 0.97598975897
0.86935847998 1.5640364885 1.2837508917
0.86492347717 1.4340173006 1.5440616608
0.87305879593 1.3077124357 1.7136042118
0.87107437849 1.0979934931 1.9324185848
0.87041920424 0.83785313368 2.1169095039
0.8686016202 0.54597306252 2.2498700619
0.86652350426 0.238526389 2.3254380226
0.87476170063 -0.051677539945 2.336302042
0.86392724514 -0.26207450032 2.3223276138
0.85725158453 -0.55376493931 2.2530021667
0.8675673604 -0.83634358644 2.1193296909
0.86887949705 -1.0964739323 1.9349850416
0.86384862661 -1.304872036 1.7224863768
0.87224972248 -1.4257507324 1.5518260002
0.87262362242 -1.5618988276 1.2843747139
0.87329781055 -1.6518031359 0.97953510284
0.86775261164 -1.685565114 0.65655595064
0.87305670977 -1.6519733667 0.3329654634
0.8777872324 -1.5557140112 0.018296036869
0.8731328845 1.5603599548 0.02247909829
0.86983788013 1.6540760994 0.33478143811
0.85843920708 1.6893051863 0.65586394072
0.57244712114 1.7756607533 0.97859352827
0.57218760252 1.6913986206 1.2856531143
0.56452381611 1.5654280186 1.5557010174
0.57493144274 1.4452368021 1.7331929207
0.57394647598 1.2427556515 1.9629483223
0.57382929325 0.99161338806 2.1627688408
0.57362908125 0.70667332411 2.3153679371
0.57684767246 0.4034242332 2.4130320549
0.57539361715 0.11170953512 2.455624342
0.56873333454 -0.10498438776 2.4577460289
0.57090938091 -0.40790429711 2.413841486
[...]
CELL_DATA 1242
SCALARS cell_data_0 double
LOOKUP_TABLE default
2.11537543051e-08
7.26671679622e-09
5.76910089769e-08
2.4335720021e-08
3.82485051908e-08
1.62109009248e-07
9.98536836355e-08
8.48936608535e-09
1.72677928741e-09
2.2137336809e-08
9.50873364634e-09
7.33978413217e-09
1.32549113348e-09
6.20947530441e-08
6.62192678373e-08
5.23223566886e-09
8.4087229215e-09
9.23765530771e-09
2.35156753971e-09
5.42731200733e-09
3.61330604301e-09
4.78831503846e-09
9.93107094427e-09
6.27096190662e-09
1.015196266e-08
2.30688080443e-10
9.45716132114e-10
3.25007337765e-09
1.16911389748e-08
8.62951280066e-10
2.67850521246e-09
1.46319460955e-09
2.79796464665e-09
4.59833357614e-09
3.50889473061e-09
1.48112643677e-09
7.92087269793e-09
2.81912339943e-09
2.60214675638e-09
1.04176756207e-08
1.14996488215e-08
4.47779909961e-09
3.95931231799e-09
1.34501749258e-08
1.31588748307e-08
4.802372118e-09
1.18153961011e-08
2.99860394027e-09
1.08749616367e-08
7.52587110073e-09
3.89330177378e-09
3.75132746384e-09
7.15327673511e-09
1.25460035417e-09
1.04136200474e-08
8.14662185784e-09
2.37865808408e-09
4.27393258199e-09
1.26147878434e-09
3.52378046589e-09
7.75495641199e-09
1.25282842924e-09
1.2139111227e-08
3.28929008626e-09
4.23743535899e-09
2.24101883754e-09
8.77952343692e-09
4.32422446601e-09
8.04307240986e-09
9.86797366348e-09
3.8374123981e-09
7.00349484188e-10
2.79988447424e-09
6.09773423521e-10
8.05146940745e-09
2.113566911e-09
6.65203187957e-09
1.27941144235e-09
3.23721622223e-09
3.92055066492e-09
4.59809374645e-09
5.46070002591e-10
1.41946820846e-08
1.33173045974e-08
5.7247858111e-09
1.4354882633e-08
9.40993846793e-10
1.88462691046e-09
3.04855058624e-09
9.314933831e-10
5.07850049903e-09
1.33328941357e-08
4.01784436565e-09
1.10348688937e-08
7.31101963039e-10
5.63338492296e-09
6.4651446813e-10
9.47301684622e-10
2.98465214981e-09
5.21485249751e-09
1.90591491226e-09
4.04410355559e-09
7.59783486145e-10
5.0063548076e-09
4.20850406711e-09
9.49700116236e-10
5.06049309137e-10
1.46783485329e-08
5.51796491258e-09
1.08343769423e-08
7.3847582618e-09
1.40219242945e-08
1.09331649669e-08
7.66498242617e-09
1.01656751692e-08
9.07985133828e-09
8.2269298676e-09
2.48866586721e-09
1.57966116774e-08
2.61500158969e-09
7.65215359054e-09
6.761450228e-08
7.20978507677e-08
1.50101264327e-09
3.72406911839e-09
1.43007835539e-08
1.33950231962e-08
1.8535920239e-08
2.82720333144e-08
1.60817700923e-07
1.70879243409e-07
1.90056716779e-09
3.03564291863e-08
1.03634031153e-10
5.81440099997e-11
3.96794565808e-11
7.14182330774e-11
8.24278030138e-11
1.10661243811e-10
2.30723724136e-10
9.38902390878e-11
5.49079214196e-11
2.46638790812e-10
1.74169217585e-11
8.75783542266e-11
4.00942887259e-10
5.40492028391e-11
1.43500715052e-10
4.54058222981e-11
6.76891370644e-11
8.26347516888e-11
1.23404029301e-10
1.50006725607e-10
2.05846308125e-11
3.78709258004e-10
1.59451382885e-10
1.45344754958e-10
3.88169500462e-11
6.24028118379e-11
5.47872485505e-11
1.06322495721e-10
1.01550116477e-10
1.03098366821e-10
2.55365616359e-11
9.95335386422e-11
1.57348447836e-10
1.8807417082e-10
2.4585665832e-10
1.43510798664e-10
2.09142971098e-10
1.19132610614e-10
4.436902451e-12
1.26316910127e-10
2.49892549848e-10
1.48416126378e-10
1.91910094759e-10
1.86630853997e-09
3.68446688904e-10
1.2594978465e-09
3.85854354025e-11
1.07900874964e-09
1.20899338873e-10
2.79277525542e-10
1.97828744236e-10
7.43363851025e-11
1.15310151221e-10
2.19639042461e-10
1.44209698087e-10
2.29559274858e-10
5.94542638213e-11
1.33138898314e-10
8.25540602725e-11
1.68346691127e-10
1.38061481732e-10
8.50166312415e-12
2.05325350892e-10
8.83053047659e-11
2.25682623897e-10
1.18569221987e-10
1.25450259875e-10
2.48765832956e-10
7.40608693826e-11
1.78806041646e-11
8.97430552234e-11
1.55126509982e-10
4.71517817463e-11
6.51560530477e-11
5.34825398563e-12
8.66574797468e-12
1.25082993155e-10
9.5159532187e-11
2.2254724792e-10
1.07688173208e-09
3.94048825898e-10
6.56799149034e-11
8.68428676059e-11
1.5311406003e-10
2.28348729672e-11
3.7857988675e-11
8.89585056312e-11
1.24883068139e-10
4.10597435239e-12
8.76926979147e-11
9.80738578168e-11
2.43663922534e-10
1.15626867704e-10
7.90376245587e-11
6.92524379407e-11
9.47791197244e-12
1.23832984984e-11
2.11279805183e-10
1.61235141827e-10
2.15610681052e-10
1.65595494105e-10
1.7914266421e-10
2.41687681116e-10
5.92789675703e-11
7.4998216665e-11
4.80906326734e-11
1.77428374424e-10
9.25608926127e-12
2.06619212934e-10
8.59583673496e-11
1.0772414275e-11
5.27729745506e-11
1.95778118262e-10
2.9736200554e-10
3.06537600895e-10
3.38710995347e-10
7.61542170894e-10
1.03538388443e-10
8.50149768276e-10
3.67598939131e-10
1.81429494472e-10
5.19563845323e-10
1.46116634834e-10
2.35197383206e-10
7.08516533683e-12
2.00708185879e-11
3.44589440863e-11
9.78929371608e-11
1.51980984007e-10
1.30538943942e-10
7.0144407798e-11
2.39156410929e-11
3.72647767079e-11
1.8056148615e-11
3.73359831518e-11
8.1012795307e-12
1.10243925847e-10
1.87247822811e-10
5.98289944537e-11
9.81780435844e-11
3.41007981349e-11
5.10289632872e-11
2.29510789769e-10
7.15010683207e-11
3.32895788963e-11
8.30566243273e-11
1.25983434631e-10
1.61603993837e-10
1.25602547103e-10
1.07638254226e-10
3.33784687168e-11
1.81559476322e-10
9.02243331175e-12
2.06280235473e-10
1.22793808085e-10
1.73396050431e-10
8.54613907099e-11
4.19691841689e-10
6.55630472784e-10
1.05146582034e-09
4.52857020879e-10
7.82488618036e-10
1.7947060767e-10
5.42992853819e-10
8.01948042238e-11
1.86547495849e-10
1.17901512685e-10
5.70392055088e-11
2.43221569514e-11
2.55410711063e-11
8.8117692883e-11
4.71371379253e-11
2.00584261078e-11
1.14264769267e-10
4.81480192242e-11
5.48727003586e-11
3.49845532317e-11
3.7334497817e-11
2.55813726689e-11
4.39666096652e-11
1.38954424041e-10
2.17065901372e-10
1.64797290111e-11
1.51511361428e-10
2.21087415967e-10
1.64432152987e-10
5.14593263006e-11
7.9804617961e-11
7.65384103707e-11
9.17791192196e-12
2.62122776295e-11
6.41003147394e-11
2.67131443435e-11
8.80658171441e-11
6.07488156941e-11
7.05327743435e-11
4.44135233617e-11
2.73649391533e-11
9.16691298266e-11
5.92745851533e-11
8.72141655418e-11
5.95881226606e-11
5.81414295627e-10
1.71930195552e-10
1.24464869102e-09
1.20795049285e-10
4.57549951239e-10
3.08669816793e-10
1.51543824958e-10
1.31441346734e-10
9.46656353516e-12
1.58150497044e-10
1.24295174019e-10
1.14153504097e-10
1.48532922621e-10
5.5471755934e-13
1.3111491669e-10
1.20996784227e-10
3.73743269376e-13
2.93276173185e-11
3.78473054221e-11
2.08149068852e-11
4.46997566546e-11
4.44782701152e-11
2.86391476949e-12
9.97845996917e-11
2.80070427844e-11
3.18147855301e-11
4.75923478891e-11
7.83038847212e-11
7.92755187041e-11
7.17281437059e-12
2.63153198914e-11
1.75597494496e-11
1.0383531725e-11
1.80574320956e-11
3.8385705111e-13
9.48944172041e-11
1.31274878117e-11
5.11079805479e-11
2.45678146365e-10
2.99415743167e-11
7.15676784275e-11
1.31809296258e-10
3.4338396255e-11
3.19126706739e-10
2.02182366272e-10
1.00387504817e-09
3.69370803252e-10
2.01754722182e-09
1.05923150257e-09
4.14612540499e-10
5.8060917668e-10
8.25908207299e-11
2.58017628924e-10
8.23552249763e-11
2.10970067103e-10
2.33108409294e-12
2.21047822648e-11
8.1092372372e-11
1.07755614659e-10
1.53195895059e-10
1.33168532291e-10
1.04702609572e-11
5.17449468447e-11
5.76032309586e-12
1.15122090505e-10
2.68078924228e-12
1.57716006173e-10
7.30237499242e-11
3.96721330314e-11
8.49443603067e-11
2.42280511448e-10
2.41157946493e-10
5.88434786742e-11
1.45495144827e-11
1.78927922589e-10
3.39183886532e-11
1.78512413321e-10
2.80677666843e-11
1.31048602374e-10
7.60838939786e-11
1.78529756383e-11
8.2932969932e-11
1.31434305795e-10
1.35437907432e-10
7.99639947452e-11
3.17578944754e-11
1.02898397081e-10
1.96800999974e-11
1.71478056987e-10
3.90618057137e-11
2.75358907984e-10
2.47159594225e-10
7.3020840621e-10
1.67413824844e-10
1.7405174231e-09
1.72153599714e-09
1.65378701937e-10
9.42778429237e-10
1.44346870163e-10
3.17290661755e-10
4.85519016457e-12
3.75137508772e-11
1.59934308819e-10
7.08660096914e-11
9.34938258561e-11
1.18642620344e-13
4.71326559514e-11
9.07561358809e-11
7.23347283008e-11
1.00031299246e-10
3.89812266807e-11
1.82249316219e-10
6.73029156142e-11
1.22003449205e-10
1.25066899557e-10
8.20329297442e-11
1.61740821226e-10
6.79372970082e-11
9.97019876811e-11
9.14878547385e-12
4.22185114127e-11
2.17581884212e-10
6.69058207473e-11
1.56596346819e-10
1.1023232797e-10
1.22247813645e-10
1.0344466949e-10
3.19710291338e-11
1.70990774498e-10
1.14791119885e-10
7.39092049655e-11
1.20106086238e-10
1.0929584905e-11
1.2714112492e-10
1.69085957014e-11
1.74602051433e-10
6.7970798083e-11
2.27928855236e-10
9.38430740006e-11
1.09651893245e-10
6.21080065462e-11
4.84832640546e-10
3.55304610476e-10
1.12521656701e-09
2.34860498947e-09
3.50304963935e-10
9.22025663071e-10
1.18152858113e-11
3.12132730294e-10
3.89443606492e-10
9.52308804439e-11
5.64087659163e-11
2.23135137584e-10
9.03220323512e-11
1.28452737819e-10
2.32366501159e-11
6.6041707945e-11
4.54773360868e-11
3.12013387794e-11
9.21840666735e-12
3.83914823821e-11
3.7078532982e-11
5.08264982219e-11
1.75538491452e-10
4.80194892689e-11
1.83764320008e-10
2.02143460976e-10
2.13190399693e-10
1.07828992037e-10
1.2276708157e-10
9.88015343279e-11
1.40772147219e-13
2.36294009497e-11
1.08694378303e-10
2.68587852867e-11
1.00126543229e-10
9.75867065344e-11
1.85602533754e-10
3.16544174071e-11
5.84888054038e-11
7.41657544696e-11
8.46448411262e-11
5.39419721789e-14
4.29983047465e-11
5.93409445912e-11
3.55160886386e-11
1.45037780654e-10
1.50837131058e-11
1.65870904977e-10
6.19418008582e-11
9.25372980563e-11
1.18774716173e-10
7.70237948486e-10
2.25781736856e-10
1.34778362115e-09
7.67456904082e-11
3.93286200787e-10
3.04950111877e-11
7.80735287479e-10
8.10632388684e-11
3.77659983491e-10
2.94702241929e-11
9.20469223781e-11
6.80131349858e-11
6.30423182092e-12
7.88933353537e-11
7.66161221436e-11
6.39177052093e-12
1.12846422518e-10
1.59217383202e-12
5.34548942622e-11
4.10122545207e-11
5.38249601514e-11
9.91317969446e-11
7.99048402838e-11
8.96170497454e-11
8.56195750847e-11
2.37178567523e-10
7.31649937823e-11
6.04625763375e-11
3.47095323244e-12
1.80295924913e-11
1.71273060125e-11
1.41640477659e-11
2.31679001033e-11
6.36476917952e-11
1.03084197837e-10
1.7190610098e-10
5.58041113146e-11
1.30355478038e-10
1.6077334387e-10
5.64011491713e-11
1.63822076698e-10
1.19213760286e-10
1.65087058225e-10
3.03674635701e-10
3.41626367668e-10
2.18671728019e-10
1.06843054626e-09
8.58291213052e-10
2.1721394285e-09
2.36263095306e-09
4.76789355298e-10
8.39187765153e-10
6.01596008577e-11
8.81563857784e-10
1.33267103575e-10
4.3611442795e-10
3.47596827895e-11
2.06654549238e-10
1.35187038195e-11
6.36270843194e-11
1.15420754944e-10
7.7931477062e-11
5.11573328223e-11
7.4054076334e-11
1.82634425633e-11
5.76420936286e-11
1.38465174678e-11
7.62549567344e-12
3.24975099608e-11
9.91805911056e-11
2.69169218936e-11
3.88568837231e-11
4.07551759038e-11
1.00408232501e-10
1.4541305493e-10
4.72034081793e-11
7.69903489427e-11
2.58356164403e-11
7.31275779207e-11
1.2381739604e-11
6.67878155164e-11
1.13843705213e-10
4.6103810592e-11
3.8189217194e-11
2.05966185884e-12
2.14828680265e-10
5.69842762811e-11
4.12963138702e-10
8.36418299857e-11
8.49476304865e-10
1.18291576171e-09
1.2935484445e-09
2.56980290882e-09
2.10194192827e-09
1.91192983848e-09
3.1507023656e-10
1.1456050945e-09
9.94240076809e-11
1.0018351708e-09
1.92211627481e-10
4.5843363194e-10
1.26248827876e-11
2.40109079501e-10
1.11204857947e-10
5.68409245359e-11
5.03500375642e-11
8.08024879465e-11
2.60342214958e-11
3.53472322421e-11
3.86716115477e-12
1.99289547159e-11
2.70407147907e-11
4.17528773003e-11
1.74748209718e-10
4.90644037971e-11
4.92714870255e-11
8.66865407405e-11
3.07406644635e-12
1.27953731854e-10
2.16838772949e-11
6.53924605556e-11
5.30179497032e-11
4.61969628464e-11
8.54998638873e-11
2.70417182702e-11
3.48877830787e-11
7.85200574184e-11
5.90970381924e-11
1.49024858235e-10
1.70385877638e-10
2.83302216942e-10
2.28084513595e-10
2.49489033842e-10
7.63621071339e-10
1.55888703121e-09
1.79656371453e-09
9.64857240021e-10
1.08495613557e-10
1.17658024222e-09
3.98001027595e-11
1.05136971449e-09
1.85657456295e-10
4.10346306595e-10
2.96432146666e-11
9.39907429059e-11
2.54121489462e-11
9.18888292906e-11
5.69993211502e-11
9.74650616326e-11
7.19375524519e-11
1.44168541993e-11
7.60256447668e-11
4.84592202456e-11
6.55020191136e-11
1.20725207072e-10
3.29182115752e-11
7.79534545679e-11
7.10546250465e-11
1.76146987697e-10
1.39947618812e-10
6.4533321469e-11
8.07853112167e-11
2.07774900085e-11
7.61073588542e-11
1.03579860696e-11
1.86642502246e-10
1.94939478812e-11
3.28628575313e-10
4.00382953181e-11
4.88336086655e-10
1.62885265799e-10
2.15363672595e-10
5.91018044346e-10
1.69968372634e-09
4.3918317806e-10
2.18881208402e-10
1.31988533871e-09
1.40293573028e-10
9.73770110415e-10
9.30798520231e-11
4.1193001276e-10
1.37612042509e-10
1.23691554297e-10
1.84667026608e-11
8.86453573525e-11
3.56743771928e-11
1.51818468546e-12
8.38756125906e-11
3.38918416018e-11
1.26657537924e-10
1.69968246283e-11
1.60361262552e-10
1.50202421453e-10
1.20174208522e-11
1.98201087669e-11
1.6312659006e-10
7.53669929773e-11
1.57059007985e-10
2.35324065812e-11
2.37078856094e-10
1.35616167358e-10
3.57958329195e-10
1.55029193513e-10
1.74458243054e-10
3.05277432663e-10
5.00784720381e-10
2.85751815276e-09
2.76455825023e-09
7.41243484371e-10
4.07055248911e-11
1.40469104639e-09
2.51841235861e-10
4.93116335388e-10
2.2013429128e-10
4.69133093264e-11
1.53039943012e-10
1.25301751467e-10
3.77922686047e-11
5.25286400033e-11
1.9134767084e-11
2.52303137748e-11
4.79375530475e-11
3.81754766043e-11
1.28539177038e-12
8.41437606554e-11
4.74449470863e-11
1.32423104144e-11
4.08534803369e-11
5.58044942009e-11
1.2755896773e-10
1.02046646484e-10
3.58215403191e-10
3.77285522576e-10
9.33646673268e-10
1.00497221722e-09
3.2040778374e-09
3.53656065736e-10
9.98980002838e-10
7.08084942103e-11
1.2194335231e-09
3.26577662978e-10
4.47428015001e-10
9.61417182362e-11
1.71831440275e-10
8.22546076783e-11
4.53737127347e-10
1.57963614358e-10
4.11876855885e-10
2.54274979946e-10
1.5077603246e-10
7.5283888868e-11
2.23816130463e-10
3.906588105e-10
6.06651784502e-10
1.71273658775e-09
1.28912381282e-09
2.18943680321e-09
3.09551669636e-10
1.32958121349e-09
3.84860042459e-10
3.84095393226e-10
1.61793007261e-10
8.35213667454e-10
4.24657478724e-10
3.7370946101e-10
2.49139770351e-10
6.6242983574e-10
2.21707366598e-09
9.54730800807e-10
3.67386785118e-09
5.85996434755e-10
1.94091642631e-09
6.48116285387e-10
1.06029597795e-09
5.53887204899e-10
4.22015186658e-10
1.57158640678e-09
3.17554568195e-10
5.154433623e-10
5.72128708235e-09
4.5133956341e-09
5.6456636809e-09
3.98541062825e-09
3.01027782053e-09
7.59291966124e-09
6.61569332303e-09
3.92747059984e-09
1.35782072357e-09
4.25821159515e-09
2.03679876233e-09
4.60453922967e-09
7.104997486e-09
1.50089513553e-09
4.31833751134e-09
2.53210955255e-09
4.76370221092e-09
4.30794406476e-09
7.53454073909e-09
3.09499115454e-10
6.49472550144e-10
3.40687792751e-09
2.56114085106e-09
3.15590807408e-09
1.93124503262e-09
3.18934705283e-09
2.75250722394e-10
2.12116596969e-09
1.62958788788e-09
7.11674143765e-10
1.50028144256e-09
1.03269451905e-09
5.3484443095e-10
1.00609914464e-09
1.75855510987e-10
4.79819244188e-10
8.22093263511e-10
3.34921135964e-10
2.38009631013e-09
6.33526186461e-10
1.42467112804e-09
7.31591182578e-10
3.85865264192e-10
3.38426820632e-10
7.79785098481e-10
1.08754699534e-09
1.04960406245e-09
2.23010387986e-09
5.78309974166e-10
4.471918931e-10
1.49330434835e-09
2.12872505018e-09
1.22943409146e-09
3.29073547561e-09
5.49971081222e-10
2.27659925412e-09
3.35982724942e-10
4.17713669547e-09
3.62396336745e-10
5.77068250748e-09
2.98143177288e-10
7.34492140874e-10
1.09216271769e-09
6.05118497595e-11
6.45100850155e-09
4.58463567328e-10
6.03856964915e-09
2.71128802246e-09
6.57108729683e-09
3.26086189494e-09
5.90417334225e-09
2.71153062215e-09
3.92607840609e-09
2.63919369525e-08
2.17814038882e-08
3.71864104684e-08
1.24132470637e-08
5.80902673982e-08
4.19979016481e-08
3.4439496868e-08
5.0365093879e-08
1.97053591221e-07
2.79035667724e-07
1.5870016247e-07
3.30746757016e-07
3.80718898415e-07
5.40848651497e-09
2.36142484949e-07
3.44360529247e-07
7.32080297416e-08
6.55573552211e-08
3.45809315808e-08
2.30678294213e-08
6.54232023015e-08
7.84904980044e-08
1.80117424096e-07
4.08074300239e-08
3.10664615916e-07
1.62080340978e-07
2.34319859017e-07
3.30982479804e-07
2.40589680884e-07
2.01848400874e-07
1.82708928e-07
7.21311847755e-08
6.13998277966e-08
4.35582409101e-08
1.23776416206e-08
1.34024838798e-09
1.05376608068e-08
1.70434860979e-08
3.97194751222e-08
2.59522109441e-08
8.44545838184e-08
5.27088633192e-08
1.09167460677e-08
9.48524185752e-08
3.89549242485e-08
7.47862753576e-08
4.21493520421e-08
7.1615216791e-08
4.97901052171e-08
6.27835608204e-08
6.13489779627e-08
4.31311029374e-08
4.12409226514e-08
1.36183837252e-08
6.62891491024e-09
3.03147898991e-09
1.67900830358e-08
4.90661650129e-09
1.17696904372e-09
1.55888822097e-09
2.06693674261e-09
4.32395881598e-10
6.70576102124e-09
6.17395784727e-09
1.5155379336e-09
4.19068817063e-09
4.30277979436e-09
4.77538959942e-09
8.72132747671e-09
1.30492621393e-09
1.14086882854e-08
2.2584433156e-09
1.18367587641e-08
6.73095534554e-09
8.15184755818e-09
9.18922201668e-09
5.94427578928e-09
7.05617035331e-09
3.22551851092e-09
3.36416707845e-09
1.32972007355e-08
9.29192593367e-09
1.50179537842e-09
2.70097359682e-09
8.54515447842e-10
1.67898943809e-10
6.01296740474e-09
1.42681700642e-09
8.77972549276e-09
2.32758277482e-10
7.27266340891e-09
6.23299593042e-10
7.55139968543e-09
1.88074495249e-09
1.77135742267e-08
4.22245534143e-09
2.18472668801e-08
9.84293619519e-09
2.19631967937e-08
1.29075139798e-08
1.77065112116e-08
8.18234486426e-09
1.13923138896e-08
1.40726308378e-08
1.29819189089e-08
1.24227722095e-08
8.51985671933e-09
7.7622610034e-09
5.47190842806e-09
2.9395107324e-09
4.14861518275e-09
5.39060500125e-09
1.78720323552e-09
3.54689854183e-09
2.48453014317e-09
1.26746827752e-09
1.66791773816e-09
2.68357423346e-09
1.49863365174e-10
1.18085643187e-09
4.94065358346e-09
3.84893952105e-09
4.23502966293e-10
7.48979986537e-09
2.76555235628e-09
8.43010723015e-09
5.54967326139e-09
6.21698570841e-09
5.48579200976e-09
7.80535344042e-09
2.44550355736e-09
7.60606702498e-09
6.55370439122e-09
6.67735923659e-09
5.69913224223e-09
4.70957944257e-09
5.33631771532e-09
3.34150182218e-09
2.59443864635e-09
1.84233599874e-09
8.53189332621e-10
5.15307858468e-10
1.34797148857e-09
1.08678617058e-09
1.82067297645e-09
2.36750297686e-12
3.13053041945e-10
2.11069007691e-10
1.78813229463e-09
1.98731753683e-09
1.22940625343e-09
6.14232295992e-11
5.86527061169e-10
5.89408233713e-10
9.86584527185e-10
8.30505382878e-10
3.78427519705e-09
2.56842266216e-10
1.30943721516e-09
1.24367197821e-10
9.40645200968e-10
5.68394010022e-11
8.56190185292e-10
1.89570570108e-09
2.3993927705e-09
6.25182505972e-11
1.80235375328e-09
3.95557782398e-09
5.33620427503e-10
2.54488819529e-09
2.35870793291e-09
2.69688265654e-10
2.96817266411e-09
4.75729019876e-10
1.03589310199e-10
2.76786219813e-09
1.63380183139e-09
1.06048504206e-09
2.82699061017e-09
1.06064185046e-09
3.07549055172e-09
4.60144321476e-10
3.07705552989e-09
1.67366588626e-10
9.82632196813e-10
2.61306975978e-09
1.09980242234e-09
8.11173886538e-10
2.080146061e-09
1.71616444772e-09
1.54749645334e-09
3.79292008834e-09
9.64894015062e-10
3.53834008652e-09
6.33723399407e-11
2.38907443676e-09
1.23389111849e-09
4.27273097196e-09
2.00382798574e-09
4.13006801442e-10
1.69101704695e-09
4.72779611719e-10
9.49187634609e-10
1.92882609012e-09
2.86173940849e-09
8.73166840284e-10
2.05941455914e-09
1.68627057867e-09
3.7656886499e-10
1.35831998705e-09
3.76284202139e-09
2.37325413297e-09
2.03756467105e-09
1.076643023e-09
1.92409077368e-09
8.94782208614e-10
2.13184931138e-09
4.18854085362e-09
1.18256767587e-09
3.18766842146e-09
1.91748121266e-11
5.20371568285e-09
2.02706103494e-09
1.7910571531e-09
6.05982658054e-10
2.476390384e-09
1.04223829313e-09
8.93549538954e-11
3.10376186372e-09
9.5329189051e-10
2.84700898866e-09
1.74859130218e-09
3.34351217765e-09
1.38273612655e-09
2.20987603979e-10