# vtk DataFile Version 3.0
File Name: Molecule/methanol/methanol_5.0-2.vtk
ASCII
DATASET UNSTRUCTURED_GRID
FIELD FieldData 1
TIME 1 1 double
0.0
POINTS 251 double
1.616268754 0.0037581804208 -0.3438590169
1.4516762495 -0.48263919353 -0.50907456875
1.385215044 -0.011068995111 -0.97073245049
1.3237118721 -0.46868392825 -0.93808430433
1.1734462976 -0.875841856 -0.72768187523
1.3150600195 -0.93501156569 -0.35424634814
1.0800908804 -1.20680058 -0.35642081499
0.93764001131 -1.124772191 -0.84440970421
0.66795134544 -1.5014983416 -0.30406796932
0.55018132925 -1.3701525927 -0.86366075277
0.11006317288 -1.5207074881 -0.79410219193
0.19734595716 -1.6727932692 -0.17839735746
-0.32072728872 -1.660980463 -0.18378554285
-0.34858763218 -1.5282719135 -0.72610187531
-0.80635637045 -1.5023263693 -0.15415927768
-0.80657696724 -1.3821300268 -0.68037199974
-1.2080780268 -1.2257767916 -0.10695550591
-1.1628081799 -1.113656044 -0.70743572712
-1.3949745893 -0.87705314159 -0.59576904774
-1.4428358078 -0.95800918341 -0.05876910314
-1.6543959379 -0.4997510314 -0.095524869859
-1.5740681887 -0.45946478844 -0.65974855423
-1.6578183174 -0.0010230826447 -0.60557574034
-1.7379050255 -0.0014533060603 -0.046710975468
-1.654792428 0.49784439802 -0.093611121178
-1.5740327835 0.45662969351 -0.66234773397
-1.3976697922 0.87271696329 -0.60005551577
-1.4436351061 0.9509216547 -0.073105879128
-1.2059897184 1.2137153149 -0.14953482151
-1.1642415524 1.1090188026 -0.71078664064
-0.79821997881 1.3864581585 -0.6883200407
-0.80740791559 1.5059599876 -0.13424809277
-0.3240801096 1.6531040668 -0.2132806927
-0.3552865684 1.5106352568 -0.77749425173
0.11295328289 1.5304803848 -0.7625297308
0.18835499883 1.6653461456 -0.21415321529
0.66997820139 1.5072643757 -0.28591582179
0.5597153306 1.3850328922 -0.81707668304
1.0740258694 1.2309787273 -0.31663012505
0.93613278866 1.125805974 -0.8467117548
1.3198685646 0.94401037693 -0.33515876532
1.1483229399 0.87270408869 -0.86939758062
1.4609285593 0.49891397357 -0.47347995639
1.9070004225 -3.9679889596e-07 0.65591865778
1.8443470001 0.48179811239 0.65596014261
1.8443447351 0.24112991989 1.0719177723
1.8443323374 -0.24048417807 1.0723381042
1.8443740606 -0.48176938295 0.65593999624
1.8441843987 -0.24074913561 0.23683695495
1.8441619873 0.24092257023 0.23655602336
1.670168519 0.79054164886 1.1145329475
1.6618893147 0.4629521966 1.460848093
1.6706814766 -0.0052206190303 1.5690549612
1.6632157564 -0.45945307612 1.461239934
1.668715477 -0.79348182678 1.1155787706
1.6629385948 -0.92789667845 0.656036973
1.6716681719 -0.79355597496 0.2107308954
1.6596785784 -0.47360086441 -0.15135407448
1.6662398577 0.46593159437 -0.13889211416
1.6688725948 0.79250478745 0.19439192116
1.6619699001 0.92918902636 0.65577471256
1.3962182999 1.2003054619 1.1268362999
1.3969603777 0.94926255941 1.5264443159
1.387365222 0.59115642309 1.8141856194
1.3941859007 0.12192173302 1.9421908855
1.3981380463 -0.36135077477 1.8920356035
1.3922606707 -0.78744411469 1.6827982664
1.3870170116 -1.1047303677 1.3409292698
1.3974878788 -1.2643433809 0.90305352211
1.3956701756 -1.2695090771 0.42110294104
1.3839278221 -1.1118865013 -0.020929481834
1.3924517632 1.2015894651 0.1729812175
1.3883713484 1.2995760441 0.65516912937
1.1306248903 1.448264122 1.1320710182
1.1311780214 1.2334047556 1.5519399643
1.1336784363 0.98617458344 1.8149620295
1.1283625364 0.58486127853 2.065144062
1.1233325005 0.12766873837 2.1785144806
1.1311947107 -0.34639519453 2.1397695541
1.1317867041 -0.80094343424 1.951634407
1.1309514046 -1.1628460884 1.639729619
1.1289958954 -1.3634624481 1.3377964497
1.1276602745 -1.5090202093 0.88595694304
1.1215310097 -1.5108271837 0.41180536151
1.1269842386 -1.3649388552 -0.017813285813
1.1290194988 1.4477937222 0.17292925715
1.1228153706 1.528080821 0.65530759096
0.72314459085 1.6843785048 1.1361902952
0.72409695387 1.4875231981 1.5793344975
0.71952831745 1.1910076141 1.9408934116
0.73745077848 0.90623128414 2.1464972496
0.72181981802 0.4768114686 2.3410601616
0.7246055603 -0.0076874406077 2.4062726498
0.71949380636 -0.48538085818 2.3395547867
0.7061123848 -0.90953445435 2.1596808434
0.72437602282 -1.1909272671 1.9391380548
0.72160464525 -1.4910956621 1.5756431818
0.72289514542 -1.6849546432 1.1351585388
0.72270089388 -1.7510973215 0.65562349558
0.71835243702 -1.6850421429 0.16668345034
0.72171890736 1.6852767467 0.17638847232
0.70985156298 1.7549632788 0.65617203712
0.26945984364 1.81014359 1.1249177456
0.26148280501 1.6322990656 1.5689946413
0.26202303171 1.3446494341 1.9563001394
0.26365348697 0.96222692728 2.2599592209
0.25276094675 0.52504056692 2.4525201321
0.25969469547 0.061776608229 2.5248925686
0.25810459256 -0.29329106212 2.5048849583
0.27433922887 -0.74393898249 2.3718192577
0.26342952251 -1.149527669 2.1323394775
0.26406756043 -1.4875669479 1.7894605398
0.26469710469 -1.7290920019 1.3712779284
0.26506713033 -1.8546392918 0.90499848127
0.26492699981 -1.8562140465 0.41578927636
0.26701843739 1.8108435869 0.19486045837
0.24594548345 1.8724471331 0.6569776535
-0.21684767306 1.8110415936 1.130694747
-0.22265325487 1.6273741722 1.580299139
-0.22365355492 1.3363735676 1.9658311605
-0.22461330891 0.9546277523 2.2646450996
-0.2142368257 0.50844174623 2.4581131935
-0.2176631093 0.056574225426 2.5264661312
-0.22381126881 -0.28888502717 2.5052473545
-0.21966050565 -0.74492520094 2.3736646175
-0.22412449121 -1.162535429 2.1227846146
-0.22526499629 -1.4967708588 1.7783013582
-0.22578576207 -1.7349661589 1.3581460714
-0.22611950338 -1.8567801714 0.89052337408
-0.23311431706 -1.8519181013 0.38058450818
-0.21694591641 1.8116339445 0.18726223707
-0.22235183418 1.8718546629 0.65647280216
-0.67440766096 1.7538551092 0.65568375587
-0.68587058783 1.6841288805 1.1362452507
-0.6878579855 1.4863853455 1.5796496868
-0.68072712421 1.1911221743 1.9420272112
-0.70186382532 0.90363681316 2.1460614204
-0.684435606 0.4768152535 2.3407258987
-0.68747484684 -0.0083842482418 2.4058308601
-0.68278050423 -0.48480001092 2.338937521
-0.67079430819 -0.91091752052 2.1568789482
-0.68921810389 -1.1905730963 1.9369841814
-0.68457823992 -1.4908279181 1.5750529766
-0.68621098995 -1.6843975782 1.1351361275
-0.68681097031 -1.7502598763 0.6547164917
-0.67617440224 -1.6905268431 0.19238391519
-0.68537646532 1.6858632565 0.18492476642
-1.0829800367 1.5293953419 0.65534174442
-1.0908454657 1.4497998953 1.131131053
-1.0916298628 1.2350455523 1.5518044233
-1.0942474604 0.98554623127 1.8166223764
-1.0897823572 0.58458846807 2.0655639172
-1.0835111141 0.12794676423 2.1796443462
-1.0905739069 -0.34566703439 2.1417818069
-1.0910176039 -0.80180692673 1.9533274174
-1.0924267769 -1.1632654667 1.6399577856
-1.090362668 -1.3635649681 1.3381228447
-1.088301301 -1.509873867 0.88565832376
-1.0898509026 -1.5067529678 0.40473133326
-1.0959409475 1.4484078884 0.1926304549
-1.3480906487 1.301805377 0.65638309717
-1.3565557003 1.2022891045 1.1271225214
-1.3572716713 0.95107114315 1.5274574757
-1.3480007648 0.59050357342 1.8161484003
-1.3535766602 0.12207514048 1.9451549053
-1.358678937 -0.36102887988 1.8939322233
-1.3534832001 -0.7873492837 1.684058547
-1.3471614122 -1.106490612 1.342019558
-1.3577260971 -1.2657673359 0.9040517807
-1.3590928316 -1.2670766115 0.41437962651
-1.3575484753 1.204911828 0.20295479894
-1.6243747473 0.92859268188 0.65614289045
-1.6333241463 0.78866845369 1.1134032011
-1.6244972944 0.46223238111 1.4601078033
-1.6335897446 -0.005523472093 1.5673838854
-1.6262154579 -0.45909944177 1.4594054222
-1.6312235594 -0.79263526201 1.1151458025
-1.6261049509 -0.92603105307 0.65615284443
-1.6366969347 -0.78752595186 0.23200912774
-1.6359574795 0.78639543056 0.21908983588
-1.8062368631 0.4821793437 0.65650433302
-1.806117177 0.24120947719 1.0726765394
-1.8061423302 -0.24076160789 1.0728609562
-1.8062781096 -0.48201552033 0.65689426661
-1.8078677654 -0.24353209138 0.25325405598
-1.8079895973 0.24313414097 0.25318074226
-1.8679431677 1.0438226127e-05 0.65736460686
1.1119744778 -0.81652021408 -1.1413594484
0.78161019087 -1.1463726759 -1.2147855759
0.78735899925 -0.88183712959 -1.6062630415
1.1275855303 -0.49962458014 -1.4798990488
0.78300511837 -0.49094322324 -1.8769179583
1.1098736525 0.78169959784 -1.213165164
0.7724519372 0.90131980181 -1.6001021862
0.77493274212 1.1479455233 -1.2202160358
0.35938307643 -1.2882733345 -1.4223726988
0.35418841243 -0.98467230797 -1.8150788546
0.35187405348 -0.58014160395 -2.0772366524
0.76231586933 -0.18219420314 -1.9764589071
0.74722838402 0.018664220348 -1.9970374107
0.34910127521 -0.11744944751 -2.1940023899
0.35505002737 0.35742875934 -2.152121067
0.7734555006 0.49236920476 -1.8844045401
0.35773423314 0.79658532143 -1.9586709738
0.356580019 1.1496739388 -1.6357147694
0.34868130088 1.3807005882 -1.2152229548
-0.12509430945 -1.4130808115 -1.3386143446
-0.11978876591 -1.1457043886 -1.7582676411
-0.11977676302 -0.77233177423 -2.0643010139
-0.12023068219 -0.32282519341 -2.2381005287
-0.11999551952 0.15785330534 -2.2641372681
-0.11951549351 0.61272829771 -2.1434366703
-0.11965054274 0.91378867626 -1.968256712
-0.11960931867 1.248306036 -1.6288820505
-0.11972200871 1.4672011137 -1.19465065
-0.59541839361 -1.4259216785 -1.0112603903
-0.59451162815 -1.278624773 -1.4398378134
-0.5924089551 -0.98402303457 -1.8156946898
-0.58447760344 -0.5830168128 -2.0781052113
-0.59308731556 -0.12281458825 -2.1919515133
-0.59470272064 0.35644865036 -2.152071476
-0.59677302837 0.79592078924 -1.9590892792
-0.59639710188 1.1496181488 -1.6354693174
-0.58899313211 1.3841689825 -1.2076734304
-1.0187364817 -1.1570302248 -1.1971805096
-1.0253937244 -0.88137161732 -1.607604146
-1.0220240355 -0.47488033772 -1.8849529028
-1.016379118 0.0034276552033 -1.9828308821
-1.0217721462 0.47320613265 -1.885700345
-1.0244268179 0.87443864346 -1.6158572435
-1.0194762945 1.1505955458 -1.2087271214
-1.3670409918 -0.81157189608 -1.1194425821
-1.3582999706 -0.49929329753 -1.4939594269
-1.3632215261 -0.03947680071 -1.6373333931
-1.3588045835 0.43455374241 -1.5329483747
-1.3684940338 0.77901905775 -1.1806060076
-1.5807359219 -0.24196219444 -1.1441591978
-1.5803853273 0.23948061466 -1.1460944414
1.2949793339 0.50053471327 -0.97064161301
1.1524810791 0.42300063372 -1.4813864231
1.1460083723 -0.040842015296 -1.5992262363
1.0130503178 -0.17551489174 -1.7571136951
1.0210841894 0.16920521855 -1.7501586676
0.90560823679 0.0062513370067 -1.8791059256
0.79137212038 0.29257431626 -1.937386632
1.0055869818 0.45715126395 -1.6734373569
1.3556935787 0.47851034999 -0.77171856165
1.4187495708 0.2932395637 -0.73091179132
1.3658188581 0.30176472664 -0.9468895793
1.0156039 0.6208037138 -1.5623650551
0.78829300404 0.73110496998 -1.7343273163

CELLS 498 1992
3 0 1 2
3 2 1 3
3 3 1 4
3 5 4 1
3 5 6 4
3 4 6 7
3 6 8 7
3 7 8 9
3 9 8 10
3 11 10 8
3 11 12 10
3 10 12 13
3 12 14 13
3 13 14 15
3 14 16 15
3 15 16 17
3 17 16 18
3 19 18 16
3 19 20 18
3 18 20 21
3 21 20 22
3 23 22 20
3 23 24 22
3 22 24 25
3 25 24 26
3 27 26 24
3 27 28 26
3 26 28 29
3 29 28 30
3 31 30 28
3 31 32 30
3 30 32 33
3 33 32 34
3 35 34 32
3 35 36 34
3 34 36 37
3 36 38 37
3 37 38 39
3 38 40 39
3 39 40 41
3 40 42 41
3 43 44 45
3 43 45 46
3 43 46 47
3 43 47 48
3 43 48 49
3 43 49 44
3 45 44 50
3 45 50 51
3 45 51 52
3 46 45 52
3 46 52 53
3 46 53 54
3 47 46 54
3 47 54 55
3 47 55 56
3 48 47 56
3 48 56 57
3 49 58 59
3 44 49 59
3 44 59 60
3 44 60 50
3 50 60 61
3 50 61 62
3 51 50 62
3 51 62 63
3 51 63 64
3 52 51 64
3 52 64 65
3 53 52 65
3 53 65 66
3 54 53 66
3 54 66 67
3 54 67 68
3 55 54 68
3 55 68 69
3 56 55 69
3 56 69 70
3 60 59 71
3 60 71 72
3 60 72 61
3 61 72 73
3 61 73 74
3 62 61 74
3 62 74 75
3 63 62 75
3 63 75 76
3 64 63 76
3 64 76 77
3 64 77 78
3 65 64 78
3 65 78 79
3 66 65 79
3 66 79 80
3 67 66 80
3 67 80 81
3 68 67 81
3 68 81 82
3 68 82 69
3 83 69 82
3 69 83 84
3 70 69 84
3 72 71 85
3 72 85 86
3 72 86 73
3 73 86 87
3 73 87 88
3 74 73 88
3 74 88 89
3 75 74 89
3 75 89 90
3 76 75 90
3 76 90 91
3 77 76 91
3 77 91 92
3 78 77 92
3 78 92 93
3 79 78 93
3 79 93 94
3 79 94 95
3 80 79 95
3 80 95 96
3 81 80 96
3 81 96 97
3 82 81 97
3 82 97 98
3 83 82 98
3 83 98 99
3 84 83 99
3 86 85 100
3 86 100 101
3 86 101 87
3 87 101 102
3 87 102 103
3 88 87 103
3 88 103 104
3 89 88 104
3 89 104 105
3 90 89 105
3 90 105 91
3 106 91 105
3 91 106 107
3 92 91 107
3 92 107 108
3 93 92 108
3 93 108 109
3 94 93 109
3 94 109 110
3 95 94 110
3 95 110 111
3 96 95 111
3 96 111 112
3 97 96 112
3 97 112 113
3 98 97 113
3 98 113 114
3 99 98 114
3 101 100 115
3 101 115 116
3 101 116 102
3 102 116 117
3 102 117 103
3 118 103 117
3 103 118 104
3 119 104 118
3 104 119 105
3 120 105 119
3 105 120 106
3 121 106 120
3 106 121 107
3 122 107 121
3 123 108 122
3 107 122 108
3 109 108 124
3 123 124 108
3 109 124 110
3 125 110 124
3 110 125 111
3 126 111 125
3 111 126 112
3 127 112 126
3 112 127 113
3 128 113 127
3 129 114 128
3 113 128 114
3 116 115 130
3 116 130 131
3 116 131 117
3 117 131 132
3 117 132 133
3 118 117 133
3 118 133 134
3 119 118 134
3 119 134 135
3 120 119 135
3 120 135 136
3 121 120 137
3 136 137 120
3 122 121 137
3 122 137 138
3 123 122 138
3 123 138 139
3 124 123 139
3 124 139 140
3 125 124 140
3 125 140 141
3 126 125 141
3 126 141 142
3 127 126 142
3 127 142 143
3 128 127 143
3 128 143 144
3 129 128 144
3 129 144 145
3 132 130 146
3 131 130 132
3 133 132 147
3 133 147 148
3 134 133 148
3 134 148 149
3 135 134 149
3 135 149 150
3 136 135 150
3 136 150 151
3 137 136 151
3 137 151 152
3 138 137 152
3 138 152 153
3 139 138 153
3 139 153 154
3 140 139 154
3 141 140 154
3 141 154 155
3 142 141 155
3 142 155 156
3 143 142 156
3 143 156 157
3 144 143 157
3 144 157 158
3 145 144 158
3 147 146 159
3 132 146 147
3 148 147 160
3 148 160 161
3 149 148 161
3 149 161 162
3 150 149 162
3 150 162 163
3 151 150 163
3 151 163 164
3 152 151 164
3 153 152 164
3 153 164 165
3 154 153 165
3 154 165 166
3 155 154 166
3 155 166 167
3 156 155 167
3 156 167 168
3 157 156 168
3 168 169 157
3 158 157 169
3 160 159 170
3 147 159 160
3 161 160 171
3 161 171 172
3 162 161 172
3 162 172 173
3 163 162 173
3 164 163 173
3 164 173 174
3 165 164 174
3 165 174 175
3 166 165 175
3 166 175 176
3 167 166 176
3 168 167 176
3 168 176 177
3 169 168 177
3 169 177 178
3 171 170 179
3 160 170 171
3 172 171 180
3 172 180 181
3 173 172 181
3 174 173 181
3 174 181 182
3 175 174 182
3 176 175 182
3 176 182 183
3 177 176 183
3 178 177 183
3 178 183 184
3 180 179 185
3 171 179 180
3 181 180 186
3 182 181 186
3 183 182 186
3 184 183 186
3 185 184 186
3 180 185 186
3 185 179 24
3 185 24 23
3 185 23 184
3 184 23 20
3 184 20 178
3 178 20 19
3 178 19 169
3 169 19 16
3 169 16 158
3 158 16 14
3 158 14 145
3 145 14 12
3 145 12 129
3 129 12 11
3 129 11 114
3 114 11 99
3 99 11 8
3 99 8 84
3 84 8 6
3 84 6 70
3 70 6 5
3 70 5 56
3 57 56 5
3 57 5 1
3 57 1 0
3 57 0 48
3 48 0 49
3 49 0 58
3 58 0 42
3 58 42 40
3 58 40 59
3 59 40 71
3 71 40 38
3 71 38 85
3 85 38 36
3 85 36 100
3 115 100 35
3 36 35 100
3 115 35 130
3 130 35 32
3 130 32 146
3 146 32 31
3 146 31 159
3 159 31 28
3 159 28 170
3 170 28 27
3 170 27 179
3 179 27 24
3 187 188 189
3 190 187 189
3 190 189 191
3 192 193 194
3 189 188 195
3 189 195 196
3 191 189 196
3 191 196 197
3 191 197 198
3 199 200 201
3 202 201 203
3 193 203 204
3 194 193 204
3 194 204 205
3 195 206 207
3 196 195 207
3 196 207 208
3 197 196 208
3 197 208 209
3 200 197 209
3 200 209 210
3 201 200 210
3 201 210 211
3 203 201 211
3 203 211 212
3 204 203 212
3 204 212 213
3 205 204 213
3 205 213 214
3 206 215 216
3 207 206 216
3 207 216 217
3 208 207 217
3 208 217 218
3 209 208 218
3 209 218 219
3 210 209 219
3 210 219 220
3 211 210 220
3 211 220 221
3 212 211 221
3 212 221 222
3 213 212 222
3 213 222 223
3 214 213 223
3 216 215 224
3 216 224 225
3 217 216 225
3 217 225 226
3 218 217 226
3 219 218 226
3 219 226 227
3 220 219 227
3 220 227 228
3 221 220 228
3 221 228 229
3 222 221 229
3 222 229 230
3 223 222 230
3 225 224 231
3 225 231 232
3 226 225 232
3 226 232 233
3 227 226 233
3 228 227 233
3 228 233 234
3 229 228 234
3 229 234 235
3 230 229 235
3 232 231 236
3 233 232 236
3 233 236 237
3 234 233 237
3 235 234 237
3 235 237 25
3 235 25 26
3 235 26 29
3 235 29 230
3 230 29 30
3 230 30 223
3 223 30 33
3 223 33 214
3 214 33 34
3 214 34 205
3 205 34 37
3 205 37 194
3 194 37 39
3 41 192 39
3 194 39 192
3 192 41 238
3 192 238 239
3 239 2 240
3 240 2 190
3 190 2 3
3 190 3 187
3 187 3 4
3 187 4 7
3 187 7 188
3 188 7 9
3 188 9 195
3 195 9 10
3 195 10 206
3 206 10 13
3 206 13 215
3 215 13 15
3 215 15 224
3 224 15 17
3 224 17 231
3 231 17 18
3 231 18 21
3 231 21 236
3 236 21 22
3 236 22 237
3 237 22 25
3 191 241 190
3 190 241 240
3 240 241 242
3 241 198 243
3 241 191 198
3 243 198 199
3 243 242 241
3 243 244 242
3 243 199 244
3 242 244 245
3 240 242 239
3 199 198 200
3 200 198 197
3 202 244 201
3 244 199 201
3 42 246 41
3 41 246 238
3 2 247 0
3 0 247 42
3 238 246 248
3 246 247 248
3 246 42 247
3 248 247 2
3 239 245 249
3 245 250 249
3 245 202 250
3 249 250 193
3 239 249 192
3 192 249 193
3 193 250 203
3 250 202 203
3 238 248 239
3 239 248 2
3 202 245 244
3 242 245 239

CELL_TYPES 498
5
5
5
5
5
5
5
5
5
5
5
5
5
5
5
5
5
5
5
5
5
5
5
5
5
5
5
5
5
5
5
5
5
5
5
5
5
5
5
5
5
5
5
5
5
5
5
5
5
5
5
5
5
5
5
5
5
5
5
5
5
5
5
5
5
5
5
5
5
5
5
5
5
5
5
5
5
5
5
5
5
5
5
5
5
5
5
5
5
5
5
5
5
5
5
5
5
5
5
5
5
5
5
5
5
5
5
5
5
5
5
5
5
5
5
5
5
5
5
5
5
5
5
5
5
5
5
5
5
5
5
5
5
5
5
5
5
5
5
5
5
5
5
5
5
5
5
5
5
5
5
5
5
5
5
5
5
5
5
5
5
5
5
5
5
5
5
5
5
5
5
5
5
5
5
5
5
5
5
5
5
5
5
5
5
5
5
5
5
5
5
5
5
5
5
5
5
5
5
5
5
5
5
5
5
5
5
5
5
5
5
5
5
5
5
5
5
5
5
5
5
5
5
5
5
5
5
5
5
5
5
5
5
5
5
5
5
5
5
5
5
5
5
5
5
5
5
5
5
5
5
5
5
5
5
5
5
5
5
5
5
5
5
5
5
5
5
5
5
5
5
5
5
5
5
5
5
5
5
5
5
5
5
5
5
5
5
5
5
5
5
5
5
5
5
5
5
5
5
5
5
5
5
5
5
5
5
5
5
5
5
5
5
5
5
5
5
5
5
5
5
5
5
5
5
5
5
5
5
5
5
5
5
5
5
5
5
5
5
5
5
5
5
5
5
5
5
5
5
5
5
5
5
5
5
5
5
5
5
5
5
5
5
5
5
5
5
5
5
5
5
5
5
5
5
5
5
5
5
5
5
5
5
5
5
5
5
5
5
5
5
5
5
5
5
5
5
5
5
5
5
5
5
5
5
5
5
5
5
5
5
5
5
5
5
5
5
5
5
5
5
5
5
5
5
5
5
5
5
5
5
5
5
5
5
5
5
5
5
5
5
5
5
5
5
5
5
5
5
5
5
5
5
5
5
5
5
5
5
5
5
5
5
5
5
5
5
5
5
5
5
5
5
5
5
5
5
5
5
5
5
5
5
5
5
5
5
5
5
5
5
5
5
5
5
5
5
5

CELL_DATA 498
SCALARS cell_data_0 double
LOOKUP_TABLE default
9.79971032964e-07
1.08388293798e-06
6.03615900988e-07
7.31513589031e-09
1.91491161024e-08
6.55956015019e-08
4.26903423464e-09
2.42161216043e-08
1.02071125085e-07
1.05884519962e-07
2.82920134516e-08
6.94110881726e-08
1.15466279155e-08
7.77529538207e-08
1.50983932208e-08
9.44750810415e-08
3.41253726574e-08
3.42664272848e-08
2.3175225973e-08
7.56227379193e-08
4.59187828225e-08
4.43484569975e-08
4.54785649e-08
7.5160921285e-08
7.0494502743e-09
2.62763609434e-08
2.18239126599e-08
4.75867281793e-08
1.61880997487e-08
6.46005163804e-09
7.77914946767e-08
2.79390337341e-08
2.61062585951e-08
2.52965806573e-08
9.7043595356e-08
4.30764318825e-08
7.02450112898e-08
8.11458035285e-08
5.54205342755e-09
1.8060631233e-10
1.20227116623e-07
1.64325124691e-09
1.00346204954e-09
9.34013705727e-10
9.9256923999e-10
7.79455368723e-09
1.11913268284e-09
8.25150778198e-10
1.05739125723e-09
7.02556447428e-10
1.740434922e-10
3.22220024651e-10
5.67673565008e-10
6.04535276097e-10
1.47214099638e-09
1.63650088777e-10
5.90600949434e-10
3.19147146781e-09
6.16380363657e-09
1.1571590848e-09
8.71252905662e-10
6.90203890287e-10
1.43578193159e-10
4.01368490019e-11
3.71631706948e-10
1.27718130937e-10
7.16708770578e-10
4.69470405536e-10
2.87483000948e-11
4.60400973199e-10
2.16356185845e-10
6.82843378955e-10
8.93175060675e-10
3.40896218552e-10
2.88323905829e-10
1.99041507212e-09
6.52087737122e-09
5.62924598062e-09
8.17441988891e-10
1.52554902484e-09
7.07411072947e-10
6.70018951411e-11
4.45764185143e-10
1.45183162219e-10
7.08771024961e-10
1.69238235955e-10
6.3439231328e-10
3.81814578341e-10
4.21660556458e-10
3.28568637496e-10
8.91963523703e-12
5.81006136277e-10
2.27044550367e-10
5.01758235775e-10
6.95202493125e-11
6.57912444273e-10
3.33571119659e-10
1.87465539854e-10
1.76670405238e-10
1.03437728833e-09
1.86677201986e-09
9.9246972724e-10
5.30849123723e-10
4.39842603905e-10
5.26010213236e-10
5.68014078996e-11
1.22715908527e-10
3.9833717634e-10
1.72707624448e-10
3.82280061401e-10
4.15389960623e-10
9.12829362794e-10
5.99584951591e-10
3.41548368499e-10
3.78860785458e-10
6.21868951539e-10
3.12238231899e-10
5.29565304542e-10
5.65961321907e-10
5.84812299839e-10
8.03266239277e-10
2.21752858416e-10
1.03168518861e-10
2.69262421543e-10
5.9194642871e-10
3.24965380069e-10
2.11721045118e-09
1.30367839835e-09
1.58713710743e-09
2.40341022487e-09
1.15646451783e-09
1.1248711816e-09
3.30350272986e-10
3.79910696905e-10
4.68003767408e-11
1.95334006297e-10
1.77418779826e-11
1.20845864188e-10
3.55027127036e-10
4.99357992498e-10
1.11191311881e-10
2.29897006983e-10
5.12781910697e-10
7.88538408029e-10
2.57758386541e-10
3.84814984198e-10
1.54386813446e-10
6.01979082576e-11
4.12603335598e-10
4.55182495884e-11
1.29011987687e-10
4.73894633972e-11
1.76884048298e-10
3.25058919431e-10
7.69006789556e-10
1.29804390925e-09
1.31262777718e-09
3.42691663914e-09
3.73963367885e-10
1.56518871563e-09
6.69204907483e-11
1.01597824483e-09
1.1138359312e-09
6.61075749685e-10
5.48109285809e-10
3.9835150223e-10
2.4944509239e-10
5.48650187463e-11
5.70771767926e-11
1.76614828124e-10
2.97231167034e-10
3.29853976274e-10
2.73482237988e-10
1.76089023592e-10
5.43869346422e-10
1.7772343026e-10
1.27463862938e-10
5.71221205225e-11
1.90175938254e-10
4.17560502867e-11
4.18226533866e-10
1.53252676316e-10
8.43942586637e-10
1.22704191781e-09
8.92042930362e-10
5.7417312916e-09
2.31419761523e-10
2.0781037027e-09
3.82569444765e-09
3.68726081997e-10
1.37237722484e-09
6.14385860694e-11
6.47838174784e-10
1.36151489546e-10
4.68520025878e-10
6.48426626973e-10
6.05736072191e-11
1.58972364176e-11
3.04641850647e-10
3.13320803047e-10
3.23180651177e-10
3.03560812009e-10
4.59038246632e-10
3.54417982903e-10
1.92611127104e-10
4.55826521093e-10
5.70816070238e-11
1.83621010054e-10
2.71805545505e-10
2.22354360374e-10
2.1712402728e-10
2.68954193376e-09
1.04631452601e-09
3.69250101784e-09
4.23320212646e-09
3.31095345374e-10
4.39924923032e-09
5.78008452151e-10
1.54416035219e-09
1.04399954332e-11
4.80408702815e-10
2.3191287607e-10
2.43672754338e-10
2.66542449341e-10
5.23331607735e-10
1.1321480825e-10
1.60207417115e-10
7.91390402586e-11
1.10720173148e-10
1.29391219891e-10
7.54951713491e-10
1.65573675874e-10
2.60104374492e-10
4.97339799855e-10
8.36292003227e-11
3.87437996913e-11
1.36067045098e-09
1.78386833407e-10
2.83155137425e-09
1.50331038596e-09
6.72612406864e-09
2.36570274827e-10
3.38296268893e-09
1.03897948552e-09
9.87282691701e-10
2.90878688656e-10
3.50633150008e-10
1.42289551884e-12
3.66821919639e-10
1.97262790012e-10
1.51652043415e-10
8.62455864382e-11
2.83407160615e-10
4.33881413476e-11
2.02232185072e-10
4.12778537055e-12
2.88731647989e-10
2.13166964223e-10
2.77100061788e-10
1.17994809885e-09
2.35437905392e-09
3.76591336336e-09
6.79373927943e-09
1.00546863839e-09
5.08187969725e-09
8.73345290098e-10
1.49454849697e-09
4.35492112412e-11
3.11598143018e-10
4.05026047783e-11
1.16423783032e-09
5.542115207e-10
7.43331343163e-10
6.27631867286e-10
1.04547835103e-09
1.835435162e-09
6.40694606001e-10
3.31927753901e-09
3.37151819707e-10
6.9777616994e-09
1.07768996669e-08
2.03623595488e-09
4.98022670678e-09
1.10046961288e-09
1.31348358363e-09
3.85301256181e-10
3.2252629033e-09
1.54866200423e-09
1.32784880948e-09
8.90777357857e-10
2.82933964861e-09
9.7101466801e-09
6.10411113455e-09
1.23149490945e-08
2.78112303154e-09
4.2679499569e-09
2.00982765446e-09
2.21499225496e-09
9.18298503257e-09
4.68590831993e-09
2.86946651042e-09
1.00512880091e-08
3.89647243438e-08
5.55951509065e-09
3.91641665605e-08
1.1823957119e-08
3.02861406453e-08
3.0601804116e-08
4.7545731017e-08
1.55268605064e-08
6.96501993681e-08
3.54852115333e-09
2.42989986177e-08
3.39179844666e-08
3.61684928746e-08
2.49886769395e-08
2.00465135621e-08
2.8423922403e-08
2.18121968507e-08
7.87921259424e-09
9.61060011744e-09
8.02340703759e-09
3.18197526267e-09
4.87844913566e-08
1.34956789658e-08
1.0506958136e-07
3.18725937747e-08
3.87435219623e-09
1.61946470672e-08
7.43348128581e-09
1.83246760039e-08
1.10559293143e-08
4.31845624485e-09
3.25991132569e-09
3.12901976218e-09
3.51382780992e-09
3.06746931292e-09
2.30670466228e-08
3.05090064262e-08
5.98130335938e-09
1.99772006795e-08
5.31323144077e-09
3.02574844954e-08
1.86520207068e-09
2.97388549633e-08
1.66571368928e-09
2.33020861188e-08
3.29409879916e-09
3.24621299652e-08
1.28616010248e-07
1.08528493037e-06
1.20342967828e-06
1.65711430324e-07
1.00819506924e-08
1.46529612009e-07
1.60897815474e-07
4.11752373987e-07
2.75250443695e-07
3.52099914069e-07
3.20783166278e-07
1.61871200077e-07
1.60424990192e-07
5.49621304607e-08
2.97451315988e-08
1.14515392652e-08
4.71144234645e-08
6.17989945321e-09
6.58291961594e-08
1.3372940188e-08
9.23707148375e-08
5.84449888858e-08
8.56101632738e-08
7.31488546066e-08
4.09765789856e-08
5.27251800976e-08
2.98722683539e-08
3.07329805133e-08
1.19722294169e-08
1.31311105711e-08
3.12206291101e-09
1.32521264604e-08
1.95981576021e-09
2.05385643758e-08
5.52278484097e-09
2.47814102466e-08
1.47686853683e-08
2.52295070661e-08
1.68914947969e-08
1.65374934669e-08
5.02578144392e-09
1.21016445308e-08
1.43689960109e-08
9.93538063848e-09
6.17816887507e-09
5.56395721015e-09
8.47706639906e-10
5.82513172262e-09
2.09401989066e-10
7.44470641144e-10
1.63185272617e-09
3.51133227794e-09
7.83286622e-10
6.00263508589e-09
1.12361235341e-09
2.64243369057e-09
3.02888181305e-09
1.97754236432e-09
2.82956703197e-09
7.92360873074e-09
5.30592283158e-09
1.32559373335e-08
3.26465111832e-09
8.15332552017e-09
4.03735262042e-09
3.87616356694e-09
9.06611271999e-09
6.75936333667e-09
1.3420957267e-08
1.3210314204e-08
9.31650107565e-09
6.24615673145e-09
6.81195344155e-09
1.86763893206e-08
1.25492362692e-09
3.32359780622e-08
1.41941774204e-08
2.60665456483e-09
3.78541188179e-08
9.04315427266e-09
3.02171920453e-08
4.1466813244e-09
2.57307634474e-08
3.88634072904e-09
2.47888486397e-08
2.03743467005e-08
3.10976462167e-08
1.47135209823e-07
1.36078977318e-07
2.4141123907e-07
4.53456029232e-07
2.35055109522e-08
7.14410660802e-08
1.1234262187e-06
3.34917950882e-07
3.78369532185e-07
6.18312376393e-08
1.73462174403e-07
1.51003543439e-08
9.43933009273e-08
2.58844922608e-08
5.22567723392e-08
2.50229935983e-08
6.66896145183e-09
1.33106680579e-08
7.80909122043e-09
3.50630531396e-08
1.45251885161e-08
1.14396786729e-08
2.82568831549e-08
5.60622517307e-09
3.33143387643e-08
1.92561557568e-08
3.54529347389e-08
4.45502317433e-07
7.7183115467e-08
3.2569729615e-07
6.03682516088e-08
1.45379468345e-07
5.99181936028e-08
1.1825685376e-07
6.63655066213e-08
6.39222225814e-08
1.3227083461e-07
8.26204902428e-07
1.42028201765e-07
2.71479889759e-07
1.6928226157e-07
9.61371014262e-08
3.84423749128e-08
8.02490654681e-08
1.86965664289e-06
3.01016669234e-08
2.6999871997e-09
7.30197885208e-08
8.6967395898e-09
4.04405123006e-07
1.50886753159e-07
1.46473622963e-09
1.33035180483e-07
6.26801690739e-08
4.84572414372e-07
1.88609580571e-07
8.03529673106e-08
1.61327659291e-07
1.86470353082e-07
2.99119247717e-08
2.6868821966e-08
1.2271020177e-07

