# vtk DataFile Version 3.0
File Name: Molecule/methanol/methanol_5.0-9.vtk
ASCII
DATASET UNSTRUCTURED_GRID
FIELD FieldData 1
TIME 1 1 double
0.0
POINTS 285 double
1.611 0.0 -0.359
1.543 -0.475 -0.352
1.403 0.0 -0.933
1.345 -0.911 -0.332
1.032 -1.273 -0.301
1.16 -0.83 -0.909
0.876 -1.16 -0.88
0.631 -1.532 -0.261
0.51 -1.396 -0.844
0.173 -1.667 -0.216
0.093 -1.519 -0.802
-0.304 -1.667 -0.168
-0.341 -1.519 -0.759
-0.762 -1.532 -0.123
-0.758 -1.396 -0.718
-1.163 -1.273 -0.083
-1.124 -1.16 -0.681
-1.475 -0.911 -0.051
-1.408 -0.83 -0.653
-1.674 -0.475 -0.032
-1.589 -0.432 -0.635
-1.742 -0.0 -0.025
-1.651 -0.0 -0.629
-1.674 0.475 -0.032
-1.589 0.432 -0.635
-1.475 0.911 -0.051
-1.408 0.83 -0.653
-1.163 1.273 -0.083
-1.124 1.16 -0.681
-0.762 1.532 -0.123
-0.758 1.396 -0.718
-0.304 1.667 -0.168
-0.341 1.519 -0.759
0.173 1.667 -0.216
0.093 1.519 -0.802
0.631 1.532 -0.261
0.51 1.396 -0.844
1.032 1.273 -0.301
0.876 1.16 -0.88
1.345 0.911 -0.332
1.16 0.83 -0.909
1.543 0.475 -0.352
1.341 0.432 -0.927
1.907 0.0 0.656
1.852 0.452 0.656
1.852 0.226 1.047
1.852 -0.226 1.047
1.852 -0.452 0.656
1.852 -0.226 0.264
1.852 0.226 0.264
1.69 0.76 1.094
1.69 0.439 1.415
1.69 -0.0 1.533
1.69 -0.439 1.415
1.69 -0.76 1.094
1.69 -0.877 0.656
1.69 -0.76 0.217
1.69 -0.439 -0.104
1.69 0.439 -0.104
1.69 0.76 0.217
1.69 0.877 0.656
1.432 1.167 1.108
1.432 0.925 1.499
1.432 0.558 1.776
1.432 0.115 1.902
1.432 -0.343 1.859
1.432 -0.754 1.654
1.432 -1.064 1.315
1.432 -1.23 0.886
1.432 -1.23 0.426
1.432 -1.064 -0.003
1.432 1.167 0.203
1.432 1.252 0.656
1.091 1.484 1.113
1.091 1.283 1.531
1.091 0.969 1.87
1.091 0.568 2.102
1.091 0.116 2.205
1.091 -0.346 2.17
1.091 -0.777 2.001
1.091 -1.139 1.712
1.091 -1.4 1.33
1.091 -1.536 0.887
1.091 -1.536 0.424
1.091 -1.4 -0.018
1.091 1.484 0.198
1.091 1.553 0.656
0.688 1.705 1.112
0.688 1.528 1.538
0.688 1.248 1.904
0.688 0.882 2.184
0.688 0.457 2.36
0.688 0.0 2.42
0.688 -0.457 2.36
0.688 -0.882 2.184
0.688 -1.248 1.904
0.688 -1.528 1.538
0.688 -1.705 1.112
0.688 -1.765 0.656
0.688 -1.705 0.199
0.688 1.705 0.199
0.688 1.765 0.656
0.247 1.815 1.122
0.247 1.642 1.558
0.247 1.366 1.938
0.247 1.004 2.238
0.247 0.579 2.438
0.247 0.118 2.526
0.247 -0.351 2.496
0.247 -0.798 2.351
0.247 -1.194 2.099
0.247 -1.516 1.757
0.247 -1.742 1.345
0.247 -1.859 0.89
0.247 -1.859 0.421
0.247 1.815 0.19
0.247 1.874 0.656
-0.209 1.815 1.122
-0.209 1.642 1.558
-0.209 1.366 1.938
-0.209 1.004 2.238
-0.209 0.579 2.438
-0.209 0.118 2.526
-0.209 -0.351 2.496
-0.209 -0.798 2.351
-0.209 -1.194 2.099
-0.209 -1.516 1.757
-0.209 -1.742 1.345
-0.209 -1.859 0.89
-0.209 -1.859 0.421
-0.209 1.815 0.19
-0.209 1.874 0.656
-0.65 1.765 0.656
-0.65 1.705 1.112
-0.65 1.528 1.538
-0.65 1.248 1.904
-0.65 0.882 2.184
-0.65 0.457 2.36
-0.65 0.0 2.42
-0.65 -0.457 2.36
-0.65 -0.882 2.184
-0.65 -1.248 1.904
-0.65 -1.528 1.538
-0.65 -1.705 1.112
-0.65 -1.765 0.656
-0.65 -1.705 0.199
-0.65 1.705 0.199
-1.053 1.553 0.656
-1.053 1.484 1.113
-1.053 1.283 1.531
-1.053 0.969 1.87
-1.053 0.568 2.102
-1.053 0.116 2.205
-1.053 -0.346 2.17
-1.053 -0.777 2.001
-1.053 -1.139 1.712
-1.053 -1.4 1.33
-1.053 -1.536 0.887
-1.053 -1.536 0.424
-1.053 1.484 0.198
-1.394 1.252 0.656
-1.394 1.167 1.108
-1.394 0.925 1.499
-1.394 0.558 1.776
-1.394 0.115 1.902
-1.394 -0.343 1.859
-1.394 -0.754 1.654
-1.394 -1.064 1.315
-1.394 -1.23 0.886
-1.394 -1.23 0.426
-1.394 1.167 0.203
-1.652 0.877 0.656
-1.652 0.76 1.094
-1.652 0.439 1.415
-1.652 -0.0 1.533
-1.652 -0.439 1.415
-1.652 -0.76 1.094
-1.652 -0.877 0.656
-1.652 -0.76 0.217
-1.652 0.76 0.217
-1.814 0.452 0.656
-1.814 0.226 1.047
-1.814 -0.226 1.047
-1.814 -0.452 0.656
-1.814 0.226 0.264
-1.814 -0.226 0.264
1.122 -0.451 -1.519
1.122 -0.781 -1.188
0.783 -0.878 -1.615
0.783 -0.475 -1.885
1.122 -0.0 -1.639
0.783 0.0 -1.979
0.783 0.475 -1.885
1.122 0.451 -1.519
0.783 0.878 -1.615
1.122 0.781 -1.188
0.783 1.147 -1.212
0.355 -0.989 -1.811
0.355 -0.586 -2.074
0.355 -0.121 -2.192
0.355 0.358 -2.152
0.355 0.798 -1.959
0.355 1.152 -1.634
0.355 1.381 -1.211
0.355 -1.284 -1.432
-0.12 -1.383 -1.403
-0.12 -1.125 -1.781
-0.12 -0.767 -2.067
-0.12 -0.342 -2.234
-0.12 0.115 -2.268
-0.12 0.561 -2.166
-0.12 0.957 -1.937
-0.12 1.268 -1.602
-0.12 1.467 -1.19
-0.594 -1.44 -0.977
-0.594 -1.284 -1.432
-0.594 -0.989 -1.811
-0.594 -0.586 -2.074
-0.594 -0.121 -2.192
-0.594 0.358 -2.152
-0.594 0.798 -1.959
-0.594 1.152 -1.634
-0.594 1.381 -1.211
-1.022 -1.147 -1.212
-1.022 -0.878 -1.615
-1.022 -0.475 -1.885
-1.022 0.0 -1.979
-1.022 0.475 -1.885
-1.022 0.878 -1.615
-1.022 1.147 -1.212
-1.362 -0.781 -1.188
-1.362 -0.451 -1.519
-1.362 -0.0 -1.639
-1.362 0.451 -1.519
-1.362 0.781 -1.188
-1.58 -0.237 -1.148
-1.58 0.237 -1.148
1.341 -0.432 -0.927
0.783 -1.147 -1.212
0.783 -1.0125 -1.4135
0.569 -1.081 -1.5235
0.569 -1.2155 -1.322
1.442 -0.4535 -0.6395
1.444 -0.693 -0.342
1.343 -0.6715 -0.6295
1.122 0.2255 -1.579
1.2625 0.2255 -1.226
-1.58 0.0 -1.148
1.33275 0.0 -1.1095
1.2625 0.0 -1.286
1.19225 -0.2255 -1.4025
1.2625 -0.2255 -1.226
-1.814 0.339 0.46
-1.841 0.226 0.656
-1.841 0.113 0.46
-1.868 -0.0 0.656
-1.471 -0.509 -1.168
-1.4755 -0.6065 -0.9115
-1.5845 -0.3345 -0.8915
-1.814 0.0 1.047
-1.814 -0.339 0.8515
-1.814 -0.339 0.46
-1.841 -0.113 0.8515
-1.841 0.113 0.8515
-1.841 -0.226 0.656
-1.841 -0.113 0.46
1.2315 -0.4415 -1.223
1.19225 -0.33825 -1.3725
1.30175 -0.32875 -1.0765
-1.63325 -0.05925 -0.75875
-1.6155 -0.1185 -0.8885
-1.6155 0.0 -0.8885
-1.6155 0.1185 -0.8885
-1.63325 0.05925 -0.75875
-1.471 0.509 -1.168
-1.4755 0.6065 -0.9115
-1.5845 0.3345 -0.8915
-1.59775 0.17775 -1.01825
-1.60225 0.27525 -0.76175
1.19225 0.2255 -1.4025
1.2625 0.11275 -1.256
1.19225 0.11275 -1.4325
-1.59775 -0.17775 -1.01825
-1.58225 -0.28575 -1.01975
-1.6 -0.2265 -0.89

CELLS 566 2264
3 0 1 2
3 3 4 5
3 5 4 6
3 4 7 6
3 6 7 8
3 7 9 8
3 8 9 10
3 9 11 10
3 10 11 12
3 11 13 12
3 12 13 14
3 13 15 14
3 14 15 16
3 15 17 16
3 16 17 18
3 17 19 18
3 18 19 20
3 19 21 20
3 20 21 22
3 21 23 22
3 22 23 24
3 23 25 24
3 24 25 26
3 25 27 26
3 26 27 28
3 27 29 28
3 28 29 30
3 29 31 30
3 30 31 32
3 31 33 32
3 32 33 34
3 33 35 34
3 34 35 36
3 35 37 36
3 36 37 38
3 37 39 38
3 38 39 40
3 39 41 40
3 40 41 42
3 41 0 42
3 42 0 2
3 43 44 45
3 43 45 46
3 43 46 47
3 43 47 48
3 43 48 49
3 43 49 44
3 45 44 50
3 45 50 51
3 45 51 52
3 46 45 52
3 46 52 53
3 46 53 54
3 47 46 54
3 47 54 55
3 47 55 56
3 48 47 56
3 48 56 57
3 49 58 59
3 44 49 59
3 44 59 60
3 44 60 50
3 50 60 61
3 50 61 62
3 51 50 62
3 51 62 63
3 51 63 64
3 52 51 64
3 52 64 65
3 53 52 65
3 53 65 66
3 54 53 66
3 54 66 67
3 54 67 68
3 55 54 68
3 55 68 69
3 56 55 69
3 56 69 70
3 60 59 71
3 60 71 72
3 60 72 61
3 61 72 73
3 61 73 74
3 62 61 74
3 62 74 75
3 63 62 75
3 63 75 76
3 64 63 76
3 64 76 77
3 64 77 78
3 65 64 78
3 65 78 79
3 66 65 79
3 66 79 80
3 67 66 80
3 67 80 81
3 68 67 81
3 68 81 82
3 68 82 83
3 69 68 83
3 69 83 84
3 70 69 84
3 72 71 85
3 72 85 86
3 72 86 73
3 73 86 87
3 73 87 88
3 74 73 88
3 74 88 89
3 75 74 89
3 75 89 90
3 76 75 90
3 76 90 91
3 77 76 91
3 77 91 92
3 78 77 92
3 78 92 93
3 79 78 93
3 79 93 94
3 79 94 95
3 80 79 95
3 80 95 96
3 81 80 96
3 81 96 97
3 82 81 97
3 82 97 98
3 83 82 98
3 83 98 99
3 84 83 99
3 86 85 100
3 86 100 101
3 86 101 87
3 87 101 102
3 87 102 103
3 88 87 103
3 88 103 104
3 89 88 104
3 89 104 105
3 90 89 105
3 90 105 106
3 91 90 106
3 91 106 107
3 92 91 107
3 92 107 108
3 93 92 108
3 93 108 109
3 94 93 109
3 94 109 110
3 95 94 110
3 95 110 111
3 96 95 111
3 96 111 112
3 97 96 112
3 97 112 113
3 98 97 113
3 98 113 114
3 99 98 114
3 101 100 115
3 101 115 116
3 101 116 102
3 102 116 117
3 102 117 118
3 103 102 118
3 103 118 119
3 104 103 119
3 104 119 120
3 105 104 120
3 105 120 121
3 106 105 121
3 106 121 122
3 107 106 122
3 107 122 123
3 108 107 123
3 108 123 124
3 109 108 124
3 109 124 125
3 110 109 125
3 110 125 126
3 111 110 126
3 111 126 127
3 112 111 127
3 112 127 128
3 113 112 128
3 113 128 129
3 114 113 129
3 116 115 130
3 116 130 131
3 116 131 117
3 117 131 132
3 117 132 133
3 118 117 133
3 118 133 134
3 119 118 134
3 119 134 135
3 120 119 135
3 120 135 136
3 121 120 136
3 121 136 137
3 122 121 137
3 122 137 138
3 123 122 138
3 123 138 139
3 124 123 139
3 124 139 140
3 125 124 140
3 125 140 141
3 126 125 141
3 126 141 142
3 127 126 142
3 127 142 143
3 128 127 143
3 128 143 144
3 129 128 144
3 129 144 145
3 132 130 146
3 131 130 132
3 133 132 147
3 133 147 148
3 134 133 148
3 134 148 149
3 135 134 149
3 135 149 150
3 136 135 150
3 136 150 151
3 137 136 151
3 137 151 152
3 138 137 152
3 138 152 153
3 139 138 153
3 139 153 154
3 140 139 154
3 141 140 154
3 141 154 155
3 142 141 155
3 142 155 156
3 143 142 156
3 143 156 157
3 144 143 157
3 144 157 158
3 145 144 158
3 147 146 159
3 132 146 147
3 148 147 160
3 148 160 161
3 149 148 161
3 149 161 162
3 150 149 162
3 150 162 163
3 151 150 163
3 151 163 164
3 152 151 164
3 153 152 164
3 153 164 165
3 154 153 165
3 154 165 166
3 155 154 166
3 155 166 167
3 156 155 167
3 156 167 168
3 157 156 168
3 157 168 169
3 158 157 169
3 160 159 170
3 147 159 160
3 161 160 171
3 161 171 172
3 162 161 172
3 162 172 173
3 163 162 173
3 164 163 173
3 164 173 174
3 165 164 174
3 165 174 175
3 166 165 175
3 166 175 176
3 167 166 176
3 168 167 176
3 168 176 177
3 169 168 177
3 169 177 178
3 171 170 179
3 160 170 171
3 172 171 180
3 172 180 181
3 173 172 181
3 174 173 181
3 175 174 182
3 176 175 182
3 177 176 183
3 178 177 183
3 171 179 180
3 184 179 23
3 184 23 21
3 184 21 185
3 185 21 19
3 185 19 178
3 178 19 17
3 178 17 169
3 169 17 15
3 169 15 158
3 158 15 13
3 158 13 145
3 145 13 11
3 145 11 129
3 129 11 9
3 129 9 114
3 114 9 99
3 99 9 7
3 99 7 84
3 84 7 4
3 84 4 70
3 70 4 3
3 70 3 57
3 70 57 56
3 57 1 0
3 57 0 48
3 48 0 49
3 49 0 58
3 58 0 41
3 58 41 39
3 58 39 59
3 59 39 71
3 71 39 37
3 71 37 85
3 85 37 35
3 85 35 100
3 100 35 115
3 115 35 33
3 115 33 130
3 130 33 31
3 130 31 146
3 146 31 29
3 146 29 159
3 159 29 27
3 159 27 170
3 170 27 25
3 170 25 179
3 179 25 23
3 186 187 188
3 186 188 189
3 190 186 189
3 190 189 191
3 190 191 192
3 193 192 194
3 195 193 194
3 195 194 196
3 189 188 197
3 189 197 198
3 189 198 199
3 191 189 199
3 191 199 200
3 192 191 200
3 192 200 201
3 194 192 201
3 194 201 202
3 196 194 202
3 196 202 203
3 204 205 206
3 197 204 206
3 197 206 207
3 198 197 207
3 198 207 208
3 199 198 208
3 199 208 209
3 200 199 209
3 200 209 210
3 201 200 210
3 201 210 211
3 202 201 211
3 202 211 212
3 203 202 212
3 203 212 213
3 205 214 215
3 206 205 215
3 206 215 216
3 207 206 216
3 207 216 217
3 208 207 217
3 208 217 218
3 209 208 218
3 209 218 219
3 210 209 219
3 210 219 220
3 211 210 220
3 211 220 221
3 212 211 221
3 212 221 222
3 213 212 222
3 215 214 223
3 215 223 224
3 216 215 224
3 216 224 225
3 217 216 225
3 218 217 225
3 218 225 226
3 219 218 226
3 219 226 227
3 220 219 227
3 220 227 228
3 221 220 228
3 221 228 229
3 222 221 229
3 224 223 230
3 224 230 231
3 225 224 231
3 225 231 232
3 226 225 232
3 227 226 232
3 227 232 233
3 228 227 233
3 228 233 234
3 229 228 234
3 232 231 235
3 233 232 236
3 234 26 28
3 234 28 229
3 229 28 30
3 229 30 222
3 222 30 32
3 222 32 213
3 213 32 34
3 213 34 203
3 203 34 36
3 203 36 196
3 196 36 38
3 196 38 195
3 195 38 40
3 195 40 42
3 195 42 193
3 187 237 5
3 187 5 6
3 187 6 238
3 238 6 8
3 204 8 10
3 204 10 205
3 205 10 12
3 205 12 214
3 214 12 14
3 214 14 223
3 223 14 16
3 223 16 230
3 230 16 18
3 238 239 187
3 187 239 188
3 188 239 240
3 239 241 240
3 239 238 241
3 240 241 204
3 188 240 197
3 240 204 197
3 204 241 8
3 8 241 238
3 1 242 2
3 2 242 237
3 1 243 242
3 243 244 242
3 243 3 244
3 242 244 237
3 237 244 5
3 244 3 5
3 3 243 57
3 57 243 1
3 193 245 192
3 245 190 192
3 2 246 42
3 42 246 193
3 235 247 232
3 232 247 236
3 2 248 246
3 249 250 190
3 190 250 186
3 249 248 250
3 248 251 250
3 248 2 251
3 184 252 179
3 179 252 180
3 180 253 181
3 185 254 184
3 180 252 253
3 252 254 253
3 252 184 254
3 253 254 255
3 230 256 231
3 231 256 235
3 20 257 18
3 18 257 230
3 230 257 256
3 257 258 256
3 257 20 258
3 181 259 174
3 174 259 182
3 182 260 176
3 176 260 183
3 183 261 178
3 178 261 185
3 182 259 262
3 259 263 262
3 259 181 263
3 262 263 255
3 183 260 264
3 260 262 264
3 260 182 262
3 264 262 255
3 185 261 265
3 261 264 265
3 261 183 264
3 265 264 255
3 186 266 187
3 266 237 187
3 186 267 266
3 267 268 266
3 267 251 268
3 266 268 237
3 237 268 2
3 2 268 251
3 251 267 250
3 250 267 186
3 255 263 253
3 253 263 181
3 185 265 254
3 254 265 255
3 22 269 20
3 269 270 20
3 270 271 247
3 271 272 247
3 270 269 271
3 269 273 271
3 269 22 273
3 271 273 272
3 273 22 24
3 236 274 233
3 233 274 234
3 234 274 275
3 274 276 275
3 274 236 276
3 275 276 24
3 234 275 26
3 275 24 26
3 272 277 247
3 247 277 236
3 236 277 276
3 277 278 276
3 277 272 278
3 276 278 24
3 24 278 273
3 273 278 272
3 246 279 193
3 193 279 245
3 246 280 279
3 280 281 279
3 280 249 281
3 279 281 245
3 245 281 190
3 281 249 190
3 235 282 247
3 282 270 247
3 249 280 248
3 248 280 246
3 258 283 256
3 256 283 235
3 235 283 282
3 283 284 282
3 283 258 284
3 282 284 270
3 270 284 20
3 284 258 20

CELL_TYPES 566
5
5
5
5
5
5
5
5
5
5
5
5
5
5
5
5
5
5
5
5
5
5
5
5
5
5
5
5
5
5
5
5
5
5
5
5
5
5
5
5
5
5
5
5
5
5
5
5
5
5
5
5
5
5
5
5
5
5
5
5
5
5
5
5
5
5
5
5
5
5
5
5
5
5
5
5
5
5
5
5
5
5
5
5
5
5
5
5
5
5
5
5
5
5
5
5
5
5
5
5
5
5
5
5
5
5
5
5
5
5
5
5
5
5
5
5
5
5
5
5
5
5
5
5
5
5
5
5
5
5
5
5
5
5
5
5
5
5
5
5
5
5
5
5
5
5
5
5
5
5
5
5
5
5
5
5
5
5
5
5
5
5
5
5
5
5
5
5
5
5
5
5
5
5
5
5
5
5
5
5
5
5
5
5
5
5
5
5
5
5
5
5
5
5
5
5
5
5
5
5
5
5
5
5
5
5
5
5
5
5
5
5
5
5
5
5
5
5
5
5
5
5
5
5
5
5
5
5
5
5
5
5
5
5
5
5
5
5
5
5
5
5
5
5
5
5
5
5
5
5
5
5
5
5
5
5
5
5
5
5
5
5
5
5
5
5
5
5
5
5
5
5
5
5
5
5
5
5
5
5
5
5
5
5
5
5
5
5
5
5
5
5
5
5
5
5
5
5
5
5
5
5
5
5
5
5
5
5
5
5
5
5
5
5
5
5
5
5
5
5
5
5
5
5
5
5
5
5
5
5
5
5
5
5
5
5
5
5
5
5
5
5
5
5
5
5
5
5
5
5
5
5
5
5
5
5
5
5
5
5
5
5
5
5
5
5
5
5
5
5
5
5
5
5
5
5
5
5
5
5
5
5
5
5
5
5
5
5
5
5
5
5
5
5
5
5
5
5
5
5
5
5
5
5
5
5
5
5
5
5
5
5
5
5
5
5
5
5
5
5
5
5
5
5
5
5
5
5
5
5
5
5
5
5
5
5
5
5
5
5
5
5
5
5
5
5
5
5
5
5
5
5
5
5
5
5
5
5
5
5
5
5
5
5
5
5
5
5
5
5
5
5
5
5
5
5
5
5
5
5
5
5
5
5
5
5
5
5
5
5
5
5
5
5
5
5
5
5
5
5
5
5
5
5
5
5
5
5
5
5
5
5
5
5
5
5
5
5
5
5
5
5
5
5
5
5
5
5
5
5
5
5
5
5
5
5
5
5
5
5
5
5
5
5
5
5
5
5
5
5
5
5
5
5
5
5
5
5
5
5
5
5
5
5
5
5

CELL_DATA 566
SCALARS cell_data_0 double
LOOKUP_TABLE default
2.11062803406e-06
2.24206472972e-07
2.44892224083e-07
4.6444621989e-07
3.97042241999e-07
8.21426678758e-07
2.00949183138e-07
1.06736111664e-06
2.48977813568e-08
1.17079362e-06
2.20884521656e-07
1.24343988086e-06
3.41765976289e-07
1.27569656071e-06
4.6222927216e-07
1.2389445739e-06
5.4932351884e-07
1.21290114388e-06
6.12614967174e-07
1.16897624617e-06
6.72982832538e-07
1.09355652821e-06
7.11805607877e-07
1.03319319842e-06
7.34279851735e-07
9.00486674463e-07
7.6098653141e-07
6.76833775694e-07
7.52381099819e-07
4.08406550142e-07
6.83505297683e-07
8.01198798617e-08
5.03293266175e-07
1.63608629115e-07
1.60008969222e-07
4.12612337381e-07
3.03781061876e-07
3.94206822691e-06
2.53645802347e-07
8.23879175434e-07
3.69709848377e-07
5.53327091984e-09
9.99257050842e-10
1.46931472725e-08
1.09589106527e-08
2.98201577012e-08
3.17512616311e-08
2.03625295969e-09
5.40741230889e-09
5.22051106514e-09
3.60961487047e-09
5.93938339386e-09
5.47093076377e-09
2.66209931403e-08
8.57743411889e-08
1.58744233944e-07
8.34692280837e-08
1.38323778181e-08
1.11128678471e-07
7.37834659856e-08
2.46159641103e-08
9.41281831378e-09
3.07564531918e-08
3.37150282339e-08
1.69518305629e-08
1.20404458106e-08
5.18937981139e-09
1.36273030221e-08
2.32889687961e-08
2.45547055429e-08
2.95281582823e-08
1.00532613995e-08
1.51431421287e-08
2.2816091948e-09
7.3865027563e-08
6.78641426969e-08
1.44017040757e-07
5.06015519066e-08
3.55069694445e-08
1.07417494267e-08
4.1055263898e-08
6.2764472523e-08
6.09346552193e-08
4.79034231212e-08
3.9712952527e-08
2.38457991227e-08
1.45146606815e-08
2.85376760607e-09
1.00038145358e-08
2.62255773305e-08
3.40351037348e-08
4.52691171524e-08
4.78719805133e-08
5.41641189041e-08
4.62671868834e-08
4.58820676323e-08
1.83644768639e-08
1.53231095494e-08
5.74175988826e-09
3.66672924606e-09
7.85185201573e-09
3.84085655625e-09
1.48606465653e-08
5.45777523835e-08
7.56239238567e-08
9.38485599993e-08
8.66367613207e-08
7.19822529108e-08
6.1031913837e-08
4.66247466707e-08
3.53230824613e-08
2.09880431338e-08
1.08239915243e-08
3.49315667785e-09
1.3355142206e-08
2.79378627508e-08
3.71393856733e-08
5.00528236437e-08
5.79511538051e-08
7.0058977379e-08
7.10782977977e-08
7.41717357415e-08
6.34607294989e-08
5.31018921491e-08
3.40906561268e-08
2.32153012599e-08
1.48406479645e-08
6.62758643776e-10
2.78215501208e-08
6.65350585629e-08
9.82155129951e-08
1.08677642094e-07
1.21957547995e-07
1.11371755241e-07
9.26628643788e-08
7.93303893717e-08
6.37549760794e-08
4.99891757351e-08
3.64835960487e-08
2.2563049052e-08
1.05194672655e-08
3.5832913409e-09
1.44936881694e-08
2.95491208463e-08
3.86915617368e-08
5.35423061015e-08
6.07065753153e-08
7.58105852586e-08
8.00954873777e-08
8.90949735848e-08
8.21106814611e-08
8.06656237711e-08
6.37548595693e-08
3.88945728015e-08
2.11406657303e-08
1.42368204309e-08
1.16826769595e-08
1.1460798611e-07
1.43965830026e-07
1.44305480078e-07
1.52249755455e-07
1.30082532184e-07
1.12903001932e-07
9.19765872608e-08
7.77182202024e-08
5.76556096349e-08
4.5566129936e-08
2.62045461846e-08
1.62349592871e-08
3.07268946735e-09
1.17169713897e-08
3.12992200859e-08
3.95336442434e-08
5.94327480881e-08
6.57962264657e-08
8.46653281422e-08
8.91522779792e-08
1.01459886552e-07
9.81779803438e-08
9.29636933379e-08
8.43491746497e-08
3.4613116073e-08
9.96914139127e-09
4.56092088803e-09
2.65709356749e-09
1.11487195946e-07
1.27503024099e-07
1.72154060449e-07
1.47136696046e-07
1.0980141488e-07
1.12669565333e-07
8.37019817779e-08
8.04619536699e-08
5.90638789251e-08
5.15186383483e-08
3.54628594702e-08
2.38403163433e-08
1.36071922099e-08
1.46549838633e-09
6.99298668601e-09
2.625338213e-08
2.78043714058e-08
5.11034841865e-08
4.81176717894e-08
7.37673545794e-08
6.66702200904e-08
8.91190518195e-08
7.83613993721e-08
8.75740424503e-08
6.3022962807e-08
2.24090528432e-08
1.99138068474e-08
1.18253873368e-08
1.55440160759e-08
5.93460203478e-08
1.06505924087e-07
9.63175378696e-08
9.34928086762e-08
7.81063984377e-08
7.25364317924e-08
5.65921129629e-08
4.96760815837e-08
3.61725843649e-08
2.73067890085e-08
1.70382087074e-08
6.79550889507e-09
8.84259734606e-10
1.34214412292e-08
1.96860735995e-08
3.4105794047e-08
3.85175956578e-08
4.80047511829e-08
5.60694644202e-08
6.08341622989e-08
6.31661760388e-08
5.26395276255e-08
3.69230484644e-08
1.52023801332e-09
4.8404770272e-08
4.57448159803e-08
6.36378739879e-08
8.22171202468e-08
9.90093534266e-08
9.47811949855e-08
7.77643045934e-08
6.90612338487e-08
5.12363928899e-08
4.06885147886e-08
2.6829039803e-08
1.08444087129e-08
1.12456906067e-09
1.30853298845e-08
2.34746573558e-08
3.49235565857e-08
4.7781181748e-08
5.42204949836e-08
6.11088694082e-08
5.77920379062e-08
3.77586578724e-08
2.2420301317e-08
4.2579450056e-08
6.72168925214e-08
6.46071316729e-08
8.49735567056e-08
9.62312500104e-08
8.91417244266e-08
6.79400490231e-08
5.23691036141e-08
3.46393262104e-08
1.40077114808e-08
2.0667766984e-09
2.01162519776e-08
3.89079354077e-08
4.69396884391e-08
4.81449040325e-08
4.6898140366e-08
2.30062852694e-08
5.68410802779e-08
9.57205678136e-08
9.68424810023e-08
6.22756082965e-08
8.3820244483e-08
8.2620567446e-08
5.53454452153e-08
2.96966948118e-08
1.8262311117e-09
3.70267557197e-08
3.30906376893e-08
9.57135444146e-08
1.05634593186e-07
7.34172277083e-08
4.7095104988e-06
3.66462250335e-06
3.8242222612e-06
1.11800954633e-06
4.43885196602e-07
9.74774666264e-07
6.6764588453e-07
2.07486793036e-06
9.53090525769e-07
2.05238535238e-06
5.51015545544e-07
1.01248838144e-06
5.07320033161e-07
1.36588241207e-06
4.18369013011e-07
4.73143527736e-07
6.72388039416e-07
1.49291997583e-07
1.25323313968e-07
9.81167921693e-09
8.92853300551e-08
9.23669789002e-09
1.36395853113e-09
2.24461960695e-06
4.23857243816e-08
5.0266164228e-08
8.95877427709e-08
1.29886467149e-06
1.91548044821e-06
1.98166931051e-07
3.6367485788e-07
3.53698704051e-07
3.97545540024e-09
1.72492199012e-07
1.33794049441e-07
7.52213628601e-08
4.04870379683e-07
1.78893157384e-07
7.38135886632e-07
2.42801050021e-07
8.63525598281e-07
2.43714188221e-07
8.73117436437e-07
2.28076385052e-07
8.30586917261e-07
2.02236105128e-07
7.92564824042e-07
2.01775480457e-06
1.38119918038e-06
3.0371723056e-06
6.65618479661e-08
1.67256508352e-06
6.91985166071e-07
2.05029559948e-06
6.29463717845e-08
8.53434339309e-07
8.10982905167e-07
7.994371864e-07
2.78397533347e-07
1.46993238516e-06
1.77097154379e-06
2.39882148452e-06
2.36567219258e-06
1.94407586473e-06
8.85901348889e-07
8.57351442353e-07
4.69484785271e-07
3.04650739055e-07
1.7288341406e-07
1.55537291051e-07
3.38158865064e-07
9.22156815032e-07
9.18174797464e-07
1.27726539438e-06
9.22914718246e-07
1.70357128648e-06
1.80873855131e-06
2.28240016005e-06
1.64114037189e-06
1.38763748832e-06
1.11669159553e-06
4.12912104441e-07
4.52911015331e-07
3.3869177939e-07
2.31355281139e-07
6.86984763737e-08
1.22755505366e-07
2.65887476795e-07
4.82833910192e-07
4.87937486532e-07
6.23802198971e-07
7.37814457304e-07
1.15750061438e-06
1.27737404785e-06
1.33925821446e-06
1.11496589166e-06
1.10877604692e-06
1.61629247063e-07
1.3273797161e-07
1.68236074236e-07
7.77765536121e-08
3.56282331391e-08
1.37690798063e-07
1.16111788196e-07
2.34770920617e-07
2.97189596816e-07
6.50721374009e-07
7.30924675777e-07
8.66104957787e-07
7.68043538434e-07
8.89908579075e-07
2.59715749428e-08
2.98652939329e-08
8.45297587161e-09
1.15741227777e-08
3.51634153508e-08
1.96059027127e-07
2.09177475883e-07
3.90708498454e-07
4.05753299263e-06
3.75849088002e-06
1.44373767368e-06
1.13119578018e-06
6.31787618324e-06
5.55370069959e-06
9.42751909538e-07
2.3463959221e-07
7.26706762775e-07
3.79563183547e-08
4.63393552281e-07
4.8851666517e-08
2.67902713075e-07
4.29136347416e-08
1.86056188104e-08
2.1613995766e-07
5.27700056877e-08
6.7622940742e-07
4.51141380725e-06
5.6243201843e-07
9.52586618352e-08
3.47911376852e-06
3.79893378941e-06
2.92640814232e-07
6.21749673318e-07
6.86315873753e-07
5.60620999012e-07
2.73346353278e-07
3.63909715219e-07
7.99017230556e-07
6.3023222306e-07
9.52306022594e-07
2.15152504577e-06
1.1617856782e-07
4.24408848011e-08
4.45556378464e-08
2.10626228756e-06
3.45615522373e-08
7.26833892398e-08
6.77304122609e-08
1.10797691464e-07
4.95254553878e-06
4.07365215672e-07
2.68973887155e-07
1.32585971265e-06
2.48203243828e-06
2.6473654076e-06
1.04351798474e-06
2.26365418629e-06
4.38722740331e-06
1.34676384866e-08
1.30569712309e-06
6.30008310688e-07
1.33741155005e-06
3.39406570051e-06
4.1712356826e-07
2.38218890711e-05
2.48896082501e-05
1.4301199089e-06
8.98523027241e-06
5.52298428195e-06
4.21147407464e-06
4.67857590839e-06
2.92928005573e-06
4.36366172088e-06
2.31434594742e-08
3.71285703851e-07
2.35299927016e-06
1.73034604134e-07
5.94001527438e-07
1.20771363982e-06
4.28631153499e-07
2.51753665838e-08
7.78916477229e-07
4.76203724141e-07
5.22847152823e-07
3.45603544635e-07
3.28420851728e-07
1.24805658841e-07
6.48243038453e-09
5.91937342613e-09
1.07458648797e-08
1.26575298778e-08
1.12789117165e-08
3.15402124127e-09
1.37450455425e-09
6.76905195818e-09
2.76065154417e-09
2.97858407686e-07
1.7342961052e-06
1.80056158782e-06
3.22433789848e-09
2.9563734873e-06
2.82428449598e-06
7.02943325823e-06
1.82681236462e-06
9.02033159003e-06
1.81644837411e-06
1.40128537823e-06
1.40538331776e-06
6.82878606874e-07
1.96269847812e-06
7.83309011676e-07
1.88998412628e-06
3.64774571846e-06
1.78420477109e-06
1.58581100097e-07
2.76136566102e-07
2.33827427506e-07
2.18702250558e-06
3.28340589795e-06
2.6749043751e-07
7.47013021459e-06
1.40650311581e-05
5.45118943431e-06
1.87214337036e-06
3.48942309893e-09
3.53918490173e-08
6.90989000426e-08
2.87416413303e-07
6.17148439054e-07
1.82226579002e-06
1.16054302936e-06
3.18294247393e-08
4.84735162677e-07
2.46529803716e-07
2.29651255125e-06
6.24076898093e-07
5.52863754324e-06
6.04487815721e-06
1.54868505505e-07
6.36257136427e-09
1.24782094116e-07
8.05739032871e-08
9.87009447199e-08
1.31015548947e-07
3.05901570049e-06
2.9877035532e-07
2.56955115655e-06
2.33095571097e-07
7.41631477183e-07
6.73963682139e-07
2.03259034751e-06
9.91881861918e-07
5.80346991562e-06
1.42169914981e-05
2.3044856579e-06
2.13593013065e-06
1.78021494986e-07
2.65064927484e-07
8.42733301436e-08
4.30441260537e-09
6.17026325091e-08
1.74183319413e-06
3.7497327384e-06
1.40985772951e-07

