# vtk DataFile Version 3.0
File Name: Molecule/methanol/methanol_8.0-4.vtk
ASCII
DATASET UNSTRUCTURED_GRID
FIELD FieldData 1
TIME 1 1 double
0.0
POINTS 408 double
1.445 -0.731 -0.342
1.245 -1.05 -0.322
1.252 -0.666 -0.918
1.07 -0.957 -0.9
0.98 -1.317 -0.296
0.828 -1.2 -0.876
0.662 -1.518 -0.264
0.538 -1.382 -0.847
0.308 -1.642 -0.229
0.216 -1.496 -0.815
-0.065 -1.684 -0.192
-0.124 -1.534 -0.781
-0.438 -1.642 -0.155
-0.464 -1.496 -0.747
-0.793 -1.518 -0.119
-0.787 -1.382 -0.715
-1.11 -1.317 -0.088
-1.076 -1.2 -0.686
-1.376 -1.05 -0.061
-1.318 -0.957 -0.662
-1.576 -0.731 -0.042
-1.5 -0.666 -0.644
-1.7 -0.375 -0.029
-1.613 -0.341 -0.633
-1.742 0.0 -0.025
-1.651 0.0 -0.629
-1.7 0.375 -0.029
-1.613 0.341 -0.633
-1.576 0.731 -0.042
-1.5 0.666 -0.644
-1.376 1.05 -0.061
-1.318 0.957 -0.662
-1.11 1.317 -0.088
-1.076 1.2 -0.686
-0.793 1.518 -0.119
-0.787 1.382 -0.715
-0.438 1.642 -0.155
-0.464 1.496 -0.747
-0.065 1.684 -0.192
-0.124 1.534 -0.781
0.308 1.642 -0.229
0.216 1.496 -0.815
0.662 1.518 -0.264
0.538 1.382 -0.847
0.98 1.317 -0.296
0.828 1.2 -0.876
1.245 1.05 -0.322
1.07 0.957 -0.9
1.445 0.731 -0.342
1.252 0.666 -0.918
1.907 0.0 0.656
1.87 0.368 0.656
1.87 0.184 0.974
1.87 -0.184 0.974
1.87 -0.368 0.656
1.87 -0.184 0.337
1.87 0.184 0.337
1.763 0.626 1.017
1.763 0.361 1.281
1.763 -0.0 1.378
1.763 -0.361 1.281
1.763 -0.626 1.017
1.763 -0.722 0.656
1.763 -0.626 0.294
1.763 -0.361 0.03
1.763 -0.0 -0.067
1.763 0.361 0.03
1.763 0.626 0.294
1.763 0.722 0.656
1.588 0.985 1.014
1.588 0.803 1.33
1.588 0.524 1.564
1.588 0.182 1.688
1.588 -0.182 1.688
1.588 -0.524 1.564
1.588 -0.803 1.33
1.588 -0.985 1.014
1.588 -1.049 0.656
1.588 -0.985 0.297
1.588 -0.803 -0.018
1.588 0.803 -0.018
1.588 0.985 0.297
1.588 1.049 0.656
1.354 1.285 1.016
1.354 1.14 1.349
1.354 0.911 1.631
1.354 0.614 1.841
1.354 0.272 1.962
1.354 -0.091 1.987
1.354 -0.447 1.913
1.354 -0.77 1.746
1.354 -1.035 1.498
1.354 -1.224 1.187
1.354 -1.322 0.837
1.354 -1.322 0.474
1.354 -1.224 0.124
1.354 1.14 -0.038
1.354 1.285 0.296
1.354 1.335 0.656
1.068 1.527 1.018
1.068 1.402 1.36
1.068 1.202 1.664
1.068 0.937 1.914
1.068 0.622 2.097
1.068 0.273 2.201
1.068 -0.091 2.222
1.068 -0.45 2.159
1.068 -0.785 2.015
1.068 -1.077 1.797
1.068 -1.311 1.518
1.068 -1.475 1.192
1.068 -1.559 0.838
1.068 -1.559 0.473
1.068 -1.475 0.119
1.068 1.402 -0.049
1.068 1.527 0.294
1.068 1.569 0.656
0.741 1.706 1.018
0.741 1.593 1.365
0.741 1.411 1.681
0.741 1.167 1.952
0.741 0.872 2.166
0.741 0.539 2.314
0.741 0.182 2.39
0.741 -0.182 2.39
0.741 -0.539 2.314
0.741 -0.872 2.166
0.741 -1.167 1.952
0.741 -1.411 1.681
0.741 -1.593 1.365
0.741 -1.706 1.018
0.741 -1.744 0.656
0.741 -1.706 0.293
0.741 -1.593 -0.054
0.741 1.593 -0.054
0.741 1.706 0.293
0.741 1.744 0.656
0.387 1.816 1.017
0.387 1.71 1.364
0.387 1.539 1.684
0.387 1.309 1.965
0.387 1.028 2.195
0.387 0.708 2.366
0.387 0.361 2.471
0.387 0.0 2.507
0.387 -0.361 2.471
0.387 -0.708 2.366
0.387 -1.028 2.195
0.387 -1.309 1.965
0.387 -1.539 1.684
0.387 -1.71 1.364
0.387 -1.816 1.017
0.387 -1.851 0.656
0.387 -1.816 0.294
0.387 -1.71 -0.053
0.387 1.71 -0.053
0.387 1.816 0.294
0.387 1.851 0.656
0.019 1.853 1.013
0.019 1.752 1.357
0.019 1.588 1.676
0.019 1.366 1.958
0.019 1.095 2.193
0.019 0.784 2.373
0.019 0.445 2.49
0.019 0.09 2.541
0.019 -0.269 2.524
0.019 -0.617 2.439
0.019 -0.944 2.29
0.019 -1.236 2.082
0.019 -1.484 1.822
0.019 -1.678 1.521
0.019 -1.811 1.187
0.019 -1.879 0.835
0.019 -1.879 0.476
0.019 -1.811 0.124
0.019 1.853 0.298
0.019 1.888 0.656
-0.349 1.851 0.656
-0.349 1.816 1.017
-0.349 1.71 1.364
-0.349 1.539 1.684
-0.349 1.309 1.965
-0.349 1.028 2.195
-0.349 0.708 2.366
-0.349 0.361 2.471
-0.349 0.0 2.507
-0.349 -0.361 2.471
-0.349 -0.708 2.366
-0.349 -1.028 2.195
-0.349 -1.309 1.965
-0.349 -1.539 1.684
-0.349 -1.71 1.364
-0.349 -1.816 1.017
-0.349 -1.851 0.656
-0.349 -1.816 0.294
-0.349 1.816 0.294
-0.703 1.744 0.656
-0.703 1.706 1.018
-0.703 1.593 1.365
-0.703 1.411 1.681
-0.703 1.167 1.952
-0.703 0.872 2.166
-0.703 0.539 2.314
-0.703 0.182 2.39
-0.703 -0.182 2.39
-0.703 -0.539 2.314
-0.703 -0.872 2.166
-0.703 -1.167 1.952
-0.703 -1.411 1.681
-0.703 -1.593 1.365
-0.703 -1.706 1.018
-0.703 -1.744 0.656
-0.703 -1.706 0.293
-0.703 1.706 0.293
-1.03 1.569 0.656
-1.03 1.527 1.018
-1.03 1.402 1.36
-1.03 1.202 1.664
-1.03 0.937 1.914
-1.03 0.622 2.097
-1.03 0.273 2.201
-1.03 -0.091 2.222
-1.03 -0.45 2.159
-1.03 -0.785 2.015
-1.03 -1.077 1.797
-1.03 -1.311 1.518
-1.03 -1.475 1.192
-1.03 -1.559 0.838
-1.03 -1.559 0.473
-1.03 -1.475 0.119
-1.03 1.527 0.294
-1.316 1.335 0.656
-1.316 1.285 1.016
-1.316 1.14 1.349
-1.316 0.911 1.631
-1.316 0.614 1.841
-1.316 0.272 1.962
-1.316 -0.091 1.987
-1.316 -0.447 1.913
-1.316 -0.77 1.746
-1.316 -1.035 1.498
-1.316 -1.224 1.187
-1.316 -1.322 0.837
-1.316 -1.322 0.474
-1.316 -1.224 0.124
-1.316 1.285 0.296
-1.55 1.049 0.656
-1.55 0.985 1.014
-1.55 0.803 1.33
-1.55 0.524 1.564
-1.55 0.182 1.688
-1.55 -0.182 1.688
-1.55 -0.524 1.564
-1.55 -0.803 1.33
-1.55 -0.985 1.014
-1.55 -1.049 0.656
-1.55 -0.985 0.297
-1.55 0.985 0.297
-1.725 0.722 0.656
-1.725 0.626 1.017
-1.725 0.361 1.281
-1.725 -0.0 1.378
-1.725 -0.361 1.281
-1.725 -0.626 1.017
-1.725 -0.722 0.656
-1.725 -0.626 0.294
-1.725 0.626 0.294
-1.832 0.368 0.656
-1.832 0.184 0.974
-1.832 -0.184 0.974
-1.832 -0.368 0.656
-1.832 -0.184 0.337
-1.832 0.184 0.337
-1.868 -0.0 0.656
1.569 -0.375 -0.355
1.611 0.0 -0.359
1.569 0.375 -0.355
1.239 -0.357 -1.355
1.029 -0.613 -1.549
1.029 -0.279 -1.716
1.029 -0.865 -1.273
0.752 -1.212 -1.093
0.752 -1.063 -1.42
0.752 -0.827 -1.692
0.752 -0.525 -1.886
1.029 0.949 -1.105
1.029 0.752 -1.423
0.752 1.063 -1.42
0.752 1.212 -1.093
0.425 -1.334 -1.266
0.425 -1.161 -1.581
0.425 -0.915 -1.843
0.425 -0.611 -2.036
0.425 -0.269 -2.147
0.752 -0.18 -1.988
0.425 0.09 -2.17
0.752 0.18 -1.988
0.425 0.444 -2.102
0.752 0.525 -1.886
0.425 0.769 -1.949
0.752 0.827 -1.692
0.425 1.046 -1.72
0.425 1.258 -1.429
0.425 1.39 -1.094
0.065 -1.48 -1.102
0.065 -1.349 -1.445
0.065 -1.141 -1.748
0.065 -0.866 -1.991
0.065 -0.54 -2.162
0.065 -0.184 -2.25
0.065 0.184 -2.25
0.065 0.54 -2.162
0.065 0.866 -1.991
0.065 1.141 -1.748
0.065 1.349 -1.445
0.065 1.48 -1.102
-0.305 -1.48 -1.102
-0.305 -1.349 -1.445
-0.305 -1.141 -1.748
-0.305 -0.866 -1.991
-0.305 -0.54 -2.162
-0.305 -0.184 -2.25
-0.305 0.184 -2.25
-0.305 0.54 -2.162
-0.305 0.866 -1.991
-0.305 1.141 -1.748
-0.305 1.349 -1.445
-0.305 1.48 -1.102
-0.664 -1.424 -0.917
-0.664 -1.334 -1.266
-0.664 -1.161 -1.581
-0.664 -0.915 -1.843
-0.664 -0.611 -2.036
-0.664 -0.269 -2.147
-0.664 0.09 -2.17
-0.664 0.444 -2.102
-0.664 0.769 -1.949
-0.664 1.046 -1.72
-0.664 1.258 -1.429
-0.664 1.39 -1.094
-0.992 -1.212 -1.093
-0.992 -1.063 -1.42
-0.992 -0.827 -1.692
-0.992 -0.525 -1.886
-0.992 -0.18 -1.988
-0.992 0.18 -1.988
-0.992 0.525 -1.886
-0.992 0.827 -1.692
-0.992 1.063 -1.42
-0.992 1.212 -1.093
-1.269 -1.001 -0.924
-1.269 -0.865 -1.273
-1.269 -0.613 -1.549
-1.269 -0.279 -1.716
-1.269 0.094 -1.751
-1.269 0.454 -1.648
-1.269 0.752 -1.423
-1.269 0.949 -1.105
-1.479 -0.618 -1.094
-1.479 -0.357 -1.355
-1.479 -0.0 -1.451
-1.479 0.357 -1.355
-1.479 0.618 -1.094
-1.61 -0.184 -1.055
-1.61 0.184 -1.055
1.403 0.0 -0.933
1.365 -0.341 -0.929
1.488 0.1705 -0.644
1.365 0.341 -0.929
1.384 0.1705 -0.931
1.507 0.0 -0.646
1.239 0.357 -1.355
1.2455 -0.5115 -1.1365
1.134 -0.611 -1.314
1.1405 -0.7655 -1.0955
1.486 -0.1875 -0.644
1.134 -0.1395 -1.5835
1.239 -0.0 -1.451
1.134 0.047 -1.601
1.029 -0.0925 -1.7335
1.029 0.094 -1.751
1.029 0.454 -1.648
1.134 0.5545 -1.389
1.1405 0.709 -1.1705
1.2455 0.5115 -1.1365
1.455 0.0 -0.7895
1.538 -0.1875 -0.5005
1.4105 0.5205 -0.6365
1.3085 0.5035 -0.9235
1.467 0.358 -0.642
1.029 0.274 -1.6995
0.8905 -0.043 -1.8695
0.8905 0.137 -1.8695
0.752 0.0 -1.988
0.8905 0.317 -1.818
1.507 -0.553 -0.3485
1.467 -0.358 -0.642
1.405 -0.536 -0.6355
0.8905 -0.402 -1.801
0.8905 -0.2295 -1.852
0.752 -0.3525 -1.937
0.8905 0.6405 -1.67
1.029 0.603 -1.5355
0.8905 0.7895 -1.5575
1.321 0.1785 -1.144
1.239 0.1785 -1.403
1.321 0.0 -1.192

CELLS 812 3248
3 0 1 2
3 2 1 3
3 1 4 3
3 3 4 5
3 4 6 5
3 5 6 7
3 6 8 7
3 7 8 9
3 8 10 9
3 9 10 11
3 10 12 11
3 11 12 13
3 12 14 13
3 13 14 15
3 14 16 15
3 15 16 17
3 16 18 17
3 17 18 19
3 18 20 19
3 19 20 21
3 20 22 21
3 21 22 23
3 22 24 23
3 23 24 25
3 24 26 25
3 25 26 27
3 26 28 27
3 27 28 29
3 28 30 29
3 29 30 31
3 30 32 31
3 31 32 33
3 32 34 33
3 33 34 35
3 34 36 35
3 35 36 37
3 36 38 37
3 37 38 39
3 38 40 39
3 39 40 41
3 40 42 41
3 41 42 43
3 42 44 43
3 43 44 45
3 44 46 45
3 45 46 47
3 46 48 47
3 47 48 49
3 50 51 52
3 50 52 53
3 50 53 54
3 50 54 55
3 50 55 56
3 50 56 51
3 52 51 57
3 52 57 58
3 52 58 59
3 53 52 59
3 53 59 60
3 53 60 61
3 54 53 61
3 54 61 62
3 54 62 63
3 55 54 63
3 55 63 64
3 55 64 65
3 56 55 65
3 56 65 66
3 56 66 67
3 51 56 67
3 51 67 68
3 51 68 57
3 57 68 69
3 57 69 70
3 58 57 70
3 58 70 71
3 58 71 72
3 59 58 72
3 59 72 73
3 60 59 73
3 60 73 74
3 60 74 75
3 61 60 75
3 61 75 76
3 62 61 76
3 62 76 77
3 62 77 78
3 63 62 78
3 63 78 79
3 64 63 79
3 67 66 80
3 67 80 81
3 68 67 81
3 68 81 82
3 68 82 69
3 69 82 83
3 69 83 84
3 70 69 84
3 70 84 85
3 71 70 85
3 71 85 86
3 72 71 86
3 72 86 87
3 72 87 88
3 73 72 88
3 73 88 89
3 74 73 89
3 74 89 90
3 75 74 90
3 75 90 91
3 75 91 92
3 76 75 92
3 76 92 93
3 77 76 93
3 77 93 94
3 78 77 94
3 78 94 95
3 79 78 95
3 81 80 96
3 81 96 97
3 82 81 97
3 82 97 98
3 82 98 83
3 83 98 99
3 83 99 100
3 84 83 100
3 84 100 101
3 85 84 101
3 85 101 102
3 86 85 102
3 86 102 103
3 87 86 103
3 87 103 104
3 88 87 104
3 88 104 105
3 88 105 106
3 89 88 106
3 89 106 107
3 90 89 107
3 90 107 108
3 91 90 108
3 91 108 109
3 92 91 109
3 92 109 110
3 93 92 110
3 93 110 111
3 93 111 112
3 94 93 112
3 94 112 113
3 95 94 113
3 97 96 114
3 97 114 115
3 98 97 115
3 98 115 116
3 98 116 99
3 99 116 117
3 99 117 118
3 100 99 118
3 100 118 119
3 101 100 119
3 101 119 120
3 102 101 120
3 102 120 121
3 103 102 121
3 103 121 122
3 104 103 122
3 104 122 123
3 105 104 123
3 105 123 124
3 106 105 124
3 106 124 125
3 107 106 125
3 107 125 126
3 107 126 127
3 108 107 127
3 108 127 128
[...]
CELL_DATA 812
SCALARS cell_data_0 double
LOOKUP_TABLE default
1.66683000928e-07
1.75875781503e-07
2.14883493344e-08
6.23496356012e-08
1.44209336119e-08
4.42838470331e-09
1.86878321197e-08
4.02263602939e-08
1.50061816666e-08
5.93768660864e-08
4.62628280097e-09
7.2854892283e-08
2.613570321e-09
7.76689319075e-08
4.48743588594e-09
7.95889322506e-08
1.12245792268e-08
8.39833911073e-08
1.94719720494e-08
8.46970572065e-08
2.50155436483e-08
8.309248655e-08
2.73420996992e-08
8.24090326644e-08
3.1978412062e-08
8.33825792935e-08
3.48075757095e-08
7.45721739899e-08
3.89117413669e-08
7.35980302646e-08
4.48657467446e-08
6.49755828687e-08
4.79852591022e-08
5.78449718533e-08
5.1673658454e-08
4.72161799739e-08
5.60418045681e-08
3.15195224809e-08
5.51381536906e-08
7.78817129122e-09
5.32260034388e-08
1.65783166545e-08
4.50235561326e-08
4.00535719378e-08
1.91173850312e-08
2.62070241287e-08
3.10111349264e-08
1.57012829179e-07
8.46299235828e-11
1.37660221067e-10
9.07408270595e-11
1.03121815346e-10
5.03000306068e-10
3.04722019726e-11
4.28506639553e-10
3.24294879973e-10
7.46704761306e-11
2.29487098987e-10
2.87543595428e-10
3.19246659214e-10
6.57020668016e-10
1.68404724039e-10
4.383748664e-10
8.78420876589e-11
9.6972853853e-11
1.42899705241e-09
1.05285616278e-10
1.75221245461e-09
4.46727456977e-10
2.88943071087e-10
3.49047152125e-10
1.82576497948e-10
9.38232312352e-11
1.49498375913e-10
1.57894992222e-10
5.00885768875e-11
4.07911323379e-11
2.25138613679e-10
2.33580873075e-10
2.81931752946e-10
6.57897836439e-11
1.45171357153e-10
1.96126639671e-10
1.21059546992e-10
4.90777470246e-10
9.83109974347e-11
3.10187076529e-10
9.35587736291e-10
5.52850619001e-10
6.82355721501e-10
2.3667895924e-11
7.59212843234e-10
6.52431579249e-10
3.74889918307e-10
2.1463111045e-10
1.10369102462e-10
3.66259578477e-11
1.19716125915e-10
1.31131745406e-10
1.52324313331e-10
1.49837113011e-10
8.39267247417e-11
1.01770058107e-10
1.58871337351e-10
1.07857370706e-10
2.13067449523e-10
1.68534068559e-10
1.14989187752e-10
1.55201888661e-10
2.73614683405e-11
2.87066523944e-11
3.67379674208e-10
1.20042388143e-10
2.2211846325e-10
3.55764315265e-10
1.69087062098e-09
9.31582624067e-11
1.48353194443e-09
8.49470155288e-10
8.73657228847e-10
1.94709964544e-10
4.1306411246e-10
1.1921776765e-12
3.39082652804e-11
4.63232746733e-11
7.86158256716e-11
4.98096663071e-11
1.4888740765e-10
6.40435938758e-11
2.40361368876e-11
9.73175470264e-11
2.85286375604e-11
8.64627672823e-12
2.30276939884e-10
5.60910998102e-11
9.15189702762e-11
1.21555224301e-10
1.54329373343e-10
6.20798049342e-11
1.41869097684e-10
2.10315169621e-11
3.41713350115e-11
5.28284599747e-11
8.68680168083e-11
8.55249372915e-11
2.44791053685e-10
3.17930263958e-10
1.26274779672e-09
2.77261480127e-10
5.35508085653e-11
3.76568161903e-10
1.05238404782e-09
1.98404485386e-10
3.12981249626e-10
2.13863086974e-10
5.34829756899e-11
9.84225192717e-11
5.86324148252e-12
2.79256850627e-11
4.66023341339e-11
5.3013610702e-11
2.12495209385e-10
1.61781461735e-10
3.73961624205e-11
8.52881991376e-11
1.29667152557e-11
2.41510744796e-11
1.40118328708e-10
4.65316133418e-11
5.02801969021e-11
2.14040594211e-11
6.81199198252e-11
6.67502755427e-11
1.16450221438e-11
1.27313651585e-10
6.64479696968e-11
5.56929994172e-11
1.31229422644e-10
1.84931507144e-10
2.03228437793e-12
3.08141676115e-10
1.00190066634e-10
3.77262112292e-10
2.82913422232e-10
1.15169449481e-09
1.28833503323e-10
1.04027169208e-09
8.89167679307e-10
6.98615190437e-10
2.91679597291e-10
3.02717168898e-10
1.13765859127e-10
8.87247097695e-11
8.18201808152e-11
2.9871073301e-11
1.82186098818e-11
9.9681545904e-11
3.55413387524e-11
2.22986978603e-11
1.82132697874e-10
2.09318226408e-10
4.83172168123e-11
5.58157172783e-11
1.03936944691e-10
3.95954150154e-11
5.50718921459e-11
4.4259264926e-11
5.89654886604e-11
8.17886586566e-11
3.5437360046e-12
2.89258274634e-11
3.14252127829e-11
1.56614296978e-11
3.38942898574e-11
7.12192103856e-11
3.91251867697e-11
3.19790521765e-11
1.22182295177e-10
2.89390298577e-10
3.88813513896e-11
4.66486079371e-10
1.79448534577e-10
2.09620388317e-09
4.98181369092e-10
4.35653010381e-09
2.82979052653e-09
6.8522389172e-10
1.23654066127e-09
2.1220409874e-10
4.58080099378e-10
1.20766435372e-10
2.51094083618e-10
3.7794014862e-11
1.1320021711e-10
5.70829442703e-11
2.61450117983e-11
6.29055561188e-11
8.54711849325e-12
5.97530642508e-11
4.68630153126e-11
1.9920215892e-10
1.98918295328e-10
4.50273536497e-11
5.066446336e-11
7.42158840988e-11
1.40181510417e-10
6.39519793528e-11
4.28581694581e-11
7.36411619886e-11
1.31758206419e-10
5.36330306259e-11
8.68408738388e-11
4.68715451312e-11
1.2619733657e-11
9.41326310189e-11
3.21879337907e-11
9.46037070462e-11
2.54373094495e-11
3.32062646821e-10
2.44436024985e-10
3.20586088704e-10
6.12787339857e-10
7.50365403864e-10
8.86149853184e-10
8.69732595726e-10
1.93658473503e-09
2.68442909733e-10
7.3535840481e-10
1.3419552278e-09
1.17891839008e-10
4.69234023563e-10
1.22430155092e-11
3.06096883721e-10
9.95121224018e-11
1.52101480768e-10
1.35605916422e-10
2.10261189905e-11
2.00454168275e-10
1.43600680501e-11
2.06269233181e-10
1.78929740284e-10
1.17031867915e-10
5.78491475693e-11
2.70833184153e-11
4.16024237213e-11
2.30360926671e-12
9.15081994639e-11
1.03337543087e-10
1.25242029939e-10
3.34008653891e-11
3.89576355224e-11
7.37542168404e-12
3.67394637168e-11
5.34981336844e-11
9.6858817427e-13
1.47287868267e-10
5.01890767542e-11
3.30101074201e-10
7.63593126398e-12
6.53038889778e-10
1.46614795595e-10
1.35380586377e-09
3.277555061e-11
6.91812701174e-10
2.9872415742e-10
1.72169027016e-09
1.96338012739e-10
6.2941452172e-10
1.06653665681e-10
4.28916279241e-10
6.3525710092e-11
2.34403693056e-10
2.92658305809e-11
1.61206749699e-10
7.96512921976e-11
9.76501398647e-11
2.91836870489e-11
8.66967159458e-11
6.78273680185e-11
3.16757459e-11
7.74026425138e-12
4.70931467589e-11
7.67463465691e-11
1.7357721394e-12
1.27374524628e-10
1.70025918848e-10
1.86878336587e-12
9.61271930402e-11
5.78107456343e-11
1.83999863969e-10
6.03114066179e-11
2.59988269557e-10
9.82128200349e-11
5.43569802128e-10
1.41992236824e-10
1.49740072522e-09
1.15464854115e-09
1.26406592392e-09
6.56959482362e-10
2.06336120526e-10
1.9981077994e-09
2.68355308261e-10
6.67027044656e-10
5.95720779918e-11
3.34551764576e-10
1.33666814526e-11
2.28183017029e-10
1.18521958413e-11
1.74129254342e-10
1.23207394598e-10
3.34590424431e-11
5.24982800527e-11
4.1610179098e-12
9.487292393e-11
8.87100055557e-11
2.00002716446e-10
3.4077534424e-11
2.04408912416e-10
6.79756430111e-11
4.39757401297e-11
1.14476579967e-10
1.08721917471e-10
1.18982752591e-10
5.6844658077e-11
2.42445332714e-10
7.60973553023e-11
5.02014337278e-10
1.62241829361e-10
1.48950309673e-09
2.56911672293e-10
3.01322631686e-09
1.30934429262e-09
6.53291124431e-11
2.13897953243e-09
3.47117567204e-10
7.15862988043e-10
5.19569212676e-11
3.33404695812e-10
3.18688971407e-11
1.97423611545e-10
9.36442259708e-11
5.39656627123e-11
1.31006117115e-10
3.18585766719e-11
1.56854304713e-10
1.90894988655e-10
3.3934154572e-11
1.09118865671e-10
2.6612813859e-11
1.76147642001e-10
1.04233933293e-10
7.57488412201e-11
2.10723743283e-10
5.18131924612e-11
3.6822503457e-10
2.76964811263e-10
8.50154651589e-10
5.31180224152e-10
1.9593653131e-09
4.79932454738e-09
4.68915050504e-09
2.03942815842e-09
6.5478371851e-11
2.24619281122e-09
4.67229303085e-10
7.07564643052e-10
8.51910725851e-11
3.30096675813e-10
1.11668682859e-10
1.58738185239e-10
1.80703259795e-10
1.20381158839e-11
3.7624709268e-13
2.09725942504e-10
9.64796540385e-11
2.61107319153e-10
2.38521722803e-10
2.85410440731e-10
4.55910740669e-10
3.71010478849e-11
4.21693024951e-10
9.08870453672e-11
1.16010608864e-09
5.19261855791e-10
2.75393314415e-09
2.14550940073e-09
3.13203990367e-09
4.33525299968e-10
2.23422894578e-09
5.72171953869e-10
6.59921709599e-10
8.57825928981e-12
2.47955775088e-10
9.97454178112e-11
7.37876782849e-10
2.69590556185e-10
6.65270359744e-10
4.65241038075e-10
3.54163825438e-10
2.10503572055e-11
4.89356560077e-10
5.78701885974e-10
1.12160393097e-09
3.5027245032e-09
3.08746538512e-09
3.79586970445e-09
7.75697480129e-10
2.28288396158e-09
4.8622964412e-10
5.40537677272e-10
1.37951620978e-10
1.4847170476e-09
7.55937842407e-10
5.7159139118e-10
3.36502835717e-10
1.16181182216e-09
4.30447774079e-09
9.43984263173e-10
4.04559931226e-09
1.1185860942e-09
1.81797480271e-09
8.74246755005e-10
7.73810243797e-10
2.73074672342e-09
1.11260114315e-09
7.1224545736e-10
4.8390376717e-09
2.73303549952e-08
4.10946860253e-09
2.68753564729e-08
4.92991585579e-09
2.26660335854e-08
6.14966909646e-09
2.55123215111e-08
3.42339415041e-09
1.0943583642e-08
2.28328375405e-09
1.04978000986e-08
1.41561263066e-08
2.69177843786e-08
1.34474907807e-08
1.048080464e-08
1.79476364354e-08
1.08896648236e-08
1.50936524587e-09
1.19599647894e-09
2.43058386644e-09
2.03338889661e-09
3.32982279613e-09
1.0479313337e-08
4.34075182017e-11
1.42906684716e-08
7.26425840613e-09
9.49179355137e-10
1.96112152491e-09
5.52269460317e-09
1.25071783856e-08
1.18662386004e-09
1.98477167446e-09
1.07149356135e-09
4.8026620215e-09
3.57296499988e-09
2.19355653821e-09
4.02458296914e-09
2.71879565159e-09
1.38361863152e-09
2.65470866419e-09
1.4319932145e-09
5.61590922263e-09
1.96173872418e-08
2.04974253911e-09
7.03053467068e-11
2.40963422163e-08
6.06172224366e-10
2.60084549305e-08
1.26318460831e-10
2.57050793239e-08
9.89951552007e-10
2.53919815287e-08
1.38298160485e-09
2.41838390747e-08
1.37005229464e-09
2.2732761196e-08
2.70311368788e-07
1.19084615341e-07
3.61687964194e-08
1.32982025797e-07
1.62756575272e-07
1.54246156515e-07
4.55795324804e-08
1.13853515779e-08
4.02331694021e-08
3.28398608519e-08
9.1304578508e-08
2.03118011413e-08
1.43012601937e-07
1.05450094078e-07
1.57599923862e-07
1.67776544401e-07
1.41413343566e-07
1.1893965689e-07
1.15232788229e-07
6.43776653579e-08
6.88675963759e-08
3.20128487684e-08
3.67621019468e-08
1.49149590632e-08
1.26657032965e-08
2.45012607467e-09
1.61985412068e-08
2.91066968291e-09
2.40166816632e-08
3.98856195564e-09
4.02201570262e-08
7.54993847561e-09
5.22778653119e-08
2.49264683746e-08
5.1356933432e-08
3.25070985213e-08
4.31198279666e-08
3.42698333458e-08
2.97029372729e-08
2.7213216237e-08
1.72587777233e-08
1.73172478201e-08
1.02380536897e-08
1.1300797438e-08
5.1016893586e-09
4.06500766942e-10
1.02543596594e-10
2.60357544715e-09
2.35007801677e-09
4.98792116257e-09
6.45934344049e-10
8.12010170273e-09
1.27687352756e-09
1.11751254371e-08
3.73769993628e-09
1.49144124429e-08
8.60753634589e-09
1.65592910994e-08
1.21328184488e-08
1.48741299315e-08
1.21821492206e-08
1.13970364176e-08
9.91726918695e-09
8.97360685385e-09
8.07160253037e-09
5.08951538668e-09
4.66820073559e-09
4.22438392004e-10
2.12921292451e-09
2.29781172211e-09
3.26312602885e-09
2.86386110541e-09
1.86926633607e-09
3.93210585304e-09
1.26975380472e-09
5.052165089e-09
6.57871981316e-10
4.87293878582e-09
1.82609126374e-09
4.59935089247e-09
2.07411437926e-09
4.17300588497e-09
2.71166646969e-09
2.71476566827e-09
2.31849547147e-09
2.45321221927e-09
1.1215409909e-09
8.57654899094e-10
1.76347453433e-09
1.76418420769e-09
1.07874687229e-09
1.28566870574e-09
2.09754599663e-10
8.73329800281e-10
1.32556642864e-10
1.29562865074e-09
9.02377976452e-10
8.6338385954e-10
3.05083382377e-10
9.31246335685e-10
3.77520532573e-11
1.90398395939e-09
3.80121392804e-11
6.73978864938e-10
1.05230466974e-09
2.68154389909e-10
1.75565710543e-09
1.26097097273e-09
1.12814681963e-09
1.76871540191e-09
1.22230806727e-09
7.45626908876e-11
1.34735161572e-09
5.67028146578e-09
1.73467593444e-09
4.72586597727e-09
2.70786081525e-09
3.45923903691e-09
3.38603587914e-10
1.39718738161e-09
1.76431537535e-09
1.72598464128e-09
3.11264761384e-09
3.59272044898e-09
5.97619110287e-09
9.81805666597e-09
1.45109181996e-09
3.05824399976e-09
3.85503924536e-09
3.38557806897e-09
6.14839588112e-09
2.75583974435e-09
1.03014703899e-09
3.60514725097e-09
1.60013620332e-09
1.05725253293e-08
1.12241740733e-08
2.19325573029e-09
2.50167336459e-09
3.94172801452e-09
1.13157189284e-08
3.22148188011e-09
1.88613013147e-08
2.37970265826e-08
5.01496268201e-09
2.83125244432e-08
3.27604776782e-09
2.33741086732e-08
3.96569387701e-09
2.02111968872e-08
3.46200718823e-09
1.58976331207e-08
3.38147210361e-10
1.19240517285e-08
2.86560956266e-09
7.63516355417e-09
8.73720563203e-09
4.82130983771e-09
2.70396303419e-08
6.29217413104e-09
5.05576871562e-08
1.85091136796e-08
7.25168583977e-08
1.89239563674e-08
3.30663717643e-09
2.47699754575e-08
7.81807021175e-09
1.53852137409e-08
1.02695857166e-08
9.76574066438e-09
1.44961676106e-08
3.5236918614e-09
1.27161091616e-08
4.42440889495e-09
2.45327681981e-08
7.68948160876e-09
1.18520606682e-08
1.68145577893e-08
4.01780957911e-09
2.39422526034e-08
2.31414192412e-09
2.54896125666e-08
1.02594593357e-08
2.54839326376e-08
2.73989950616e-08
1.37986457967e-07
3.65406399407e-08
1.11577508071e-08
4.79622840296e-08
1.24250638311e-07
4.21339020057e-08
4.51851010217e-08
6.68255640733e-09
1.35109087957e-07
7.95513044495e-08
2.6024519402e-07
6.48998534714e-09
4.43319965238e-08
4.88835539635e-08
1.09325698282e-07
7.90561015585e-08
1.08690703602e-08
1.07114987285e-08
8.86213326761e-08
1.18079135408e-07
1.61080823487e-07
2.17395176186e-07
5.57751292899e-08
7.04389478352e-08
6.75950134136e-08
9.6304452684e-09
2.24484338337e-08
8.0162013096e-08
3.79690338264e-08
9.6596924187e-08
8.9182194928e-08
1.76118545737e-08
6.79284188868e-09
1.31437106034e-09
3.42021649438e-09
3.09906625301e-09
1.49465724739e-09
3.3208515784e-08
2.43661774125e-08
1.0301179673e-07
7.91643889374e-08
3.15594099281e-09
1.05334592619e-08
8.69193014873e-08
7.85207006274e-08
1.10632490577e-07
3.47216197225e-08
1.60833485922e-08
6.00240972104e-08
2.34556028741e-08
2.19840487929e-08
2.07672042471e-08
3.7968736475e-08
1.4334406256e-08
3.29925908338e-08
7.10464903482e-08
6.41029968166e-08
4.17887341943e-08
1.45419110778e-07
1.59860594917e-09
5.32594196042e-08
4.09812448182e-08
2.96857943523e-08
1.39154375712e-08
3.83580437671e-09
5.85718300045e-09
4.45064791805e-09
7.63055101309e-08
2.07349480096e-07
8.63042884699e-08
1.28129898442e-09
7.8813281e-09
7.08912131802e-08
3.25196210507e-08
2.98299120939e-08
2.47947988528e-08
3.83695870356e-08
4.10845967641e-08
2.26061540782e-08
1.98021404026e-08
2.83376655181e-08
1.21421625996e-08
3.00001762478e-08
1.82886967023e-08
3.49905143104e-10
2.04210673078e-08
4.10705321366e-08
2.36634910067e-08
1.18792093237e-07
1.41630762109e-07
7.7171683785e-09
2.10950811967e-08
2.44439790685e-07
2.60502097058e-09
5.87875784015e-09
1.33551910436e-07
8.89363352731e-09
4.00290834605e-08
1.00980019666e-08
3.88640815434e-08
8.58022277042e-09
2.58081337694e-08
5.59156247908e-08
6.42406018337e-08

