# vtk DataFile Version 3.0
File Name: Molecule/methanol/methanol_1.0-5.vtk
ASCII
DATASET UNSTRUCTURED_GRID
FIELD FieldData 1
TIME 1 1 double
0.0
POINTS 62 double
1.0956412554 -1.2281798124 -0.25932633877
0.016644641757 -1.6795781851 -0.18629010022
0.91244477034 -1.1228166819 -0.88685536385
-0.12401426584 -1.5060265064 -0.93520712852
-1.1659936905 -1.0965396166 -0.7111043334
-1.217538476 -1.2289341688 -0.034849487245
-1.72985816 -0.00090733350953 -0.019581131637
-1.6391897202 0.00091169768712 -0.77850908041
-1.1655678749 1.088201046 -0.72643715143
-1.2066299915 1.2289403677 -0.061719726771
-0.12889418006 1.517999053 -0.91392552853
0.02810622938 1.6839978695 -0.1744338125
1.0849545002 1.2374176979 -0.26582527161
0.90661591291 1.111392498 -0.91354620457
1.9056185484 0.00032377807656 0.67655646801
1.5795476437 1.0587795973 0.64934754372
1.5741097927 0.50542277098 1.5979243517
1.5738494396 -0.57919889688 1.5532979965
1.5780203342 -1.0598586798 0.72874134779
0.58018219471 1.4501450062 1.7180998325
0.56850236654 0.55005711317 2.3730247021
0.59059381485 -0.55135327578 2.363566637
0.57961946726 -1.4502403736 1.7188402414
0.57155275345 -1.80377841 0.66054904461
0.57142037153 1.8036308289 0.65968823433
-0.54301720858 1.4604730606 1.7031915188
-0.53056502342 0.569673419 2.3673040867
-0.53592270613 -0.55683267117 2.3699603081
-0.54105746746 -1.4606671333 1.705245018
-0.54199713469 -1.802377224 0.64522516727
-0.54212272167 1.8025784492 0.64244896173
-1.5411528349 1.056278944 0.67647373676
-1.5354890823 0.50541341305 1.5980417728
-1.5373060703 -0.57840639353 1.5513060093
-1.5405939817 -1.0541439056 0.74964511395
-1.8628599644 -0.00036611157702 0.69528317451
1.6695042849 -0.010780001059 -0.23135229945
1.354227066 0.63018256426 -0.58546203375
0.88958197832 0.6300766468 -1.7067118883
-0.12161893398 0.31046032906 -2.239105463
-0.12117648125 1.1409523487 -1.7607241869
-0.121903494 -0.75512564182 -2.0697112083
-1.1439458132 -0.61340975761 -1.7011038065
-1.1473940611 0.61119067669 -1.6997036934
0.89027231932 -0.0013060411438 -1.8918074369
0.51170867682 -0.68145722151 -1.9556207657
1.2727147341 0.3343346417 -1.2863982916
1.1230287552 0.12882050872 -1.6274063587
1.2710108757 -0.0031229786109 -1.3858385086
1.128528595 -0.18560300767 -1.6107221842
1.2772221565 -0.33340066671 -1.2776168585
1.3874232769 -0.16303184628 -0.9982047677
1.3405375481 0.065452575684 -1.2017352581
1.0191751719 -0.47030499578 -1.6512633562
1.4646456242 0.0096257301047 -0.66797786951
1.3063173294 -0.61022824049 -0.7663012743
1.3610755205 0.23524016142 -1.0924054384
1.2760558128 0.59719645977 -0.93480932713
1.1234455109 0.76436257362 -1.2078629732
1.0126179457 -0.82733309269 -1.3558415174
1.1349513531 -0.81073409319 -1.1056300402
0.50709342957 -1.0866347551 -1.6228655577

CELLS 120 480
3 0 1 2
3 2 1 3
3 3 1 4
3 5 4 1
3 5 6 4
3 4 6 7
3 7 6 8
3 9 8 6
3 8 9 10
3 11 10 9
3 12 13 11
3 10 11 13
3 14 15 16
3 14 16 17
3 14 17 18
3 16 15 19
3 16 19 20
3 16 20 21
3 17 16 21
3 17 21 22
3 18 17 22
3 18 22 23
3 15 24 19
3 19 24 25
3 19 25 26
3 20 19 26
3 20 26 27
3 21 20 27
3 22 21 27
3 22 27 28
3 22 28 23
3 29 23 28
3 24 30 25
3 25 30 31
3 25 31 32
3 26 25 32
3 26 32 27
3 33 27 32
3 28 27 33
3 28 33 34
3 29 28 34
3 32 31 35
3 33 32 35
3 34 33 35
3 34 35 6
3 34 6 5
3 34 5 29
3 29 5 1
3 29 1 23
3 23 1 0
3 23 0 18
3 18 0 36
3 18 36 14
3 14 36 15
3 12 15 37
3 15 12 24
3 24 12 11
3 24 11 30
3 30 11 9
3 30 9 31
3 31 9 6
3 31 6 35
3 38 39 40
3 39 41 42
3 39 42 43
3 40 39 43
3 40 43 8
3 40 8 10
3 40 10 13
3 40 13 38
3 41 3 42
3 42 3 4
3 42 4 7
3 42 7 43
3 43 7 8
3 38 44 39
3 41 39 45
3 46 47 38
3 38 47 44
3 46 48 47
3 48 49 47
3 48 50 49
3 47 49 44
3 51 50 52
3 44 49 53
3 49 50 53
3 54 36 55
3 36 37 15
3 12 37 13
3 52 56 51
3 57 37 54
3 57 13 37
3 54 37 36
3 57 54 56
3 58 57 46
3 56 46 57
3 57 58 13
3 13 58 38
3 58 46 38
3 48 46 52
3 56 52 46
3 2 55 0
3 0 55 36
3 53 50 59
3 2 60 55
3 51 55 50
3 60 50 55
3 55 51 54
3 54 51 56
3 48 52 50
3 53 45 44
3 44 45 39
3 61 45 59
3 53 59 45
3 59 2 61
3 45 61 41
3 41 61 3
3 61 2 3
3 2 59 60
3 60 59 50

CELL_TYPES 120
5
5
5
5
5
5
5
5
5
5
5
5
5
5
5
5
5
5
5
5
5
5
5
5
5
5
5
5
5
5
5
5
5
5
5
5
5
5
5
5
5
5
5
5
5
5
5
5
5
5
5
5
5
5
5
5
5
5
5
5
5
5
5
5
5
5
5
5
5
5
5
5
5
5
5
5
5
5
5
5
5
5
5
5
5
5
5
5
5
5
5
5
5
5
5
5
5
5
5
5
5
5
5
5
5
5
5
5
5
5
5
5
5
5
5
5
5
5
5
5

CELL_DATA 120
SCALARS cell_data_0 double
LOOKUP_TABLE default
1.81867404927e-07
3.02145513869e-07
6.09017333418e-07
6.71051937255e-07
1.1086830477e-06
1.08253948793e-06
6.49486009198e-08
2.60940526802e-07
6.47202846187e-07
9.97621415866e-07
2.62866027888e-07
6.76013990132e-07
5.11276972308e-08
5.24876907157e-08
1.13196288656e-07
1.3382979347e-07
1.08302737931e-07
1.4870736779e-07
1.88604410333e-07
8.94413853612e-09
1.26290925122e-08
1.04548153619e-07
3.2757501829e-08
5.93936482476e-08
7.1416710438e-08
3.02609802501e-08
3.03847234257e-09
7.60927128261e-08
3.60428086486e-08
6.34994780469e-08
9.73574031828e-09
2.73342835786e-08
1.62414347486e-08
9.19939979346e-08
9.93486925028e-08
3.43745778351e-08
5.51772960861e-08
1.32980165654e-07
2.27043782475e-08
7.8660558855e-08
2.99642234342e-08
1.09855169917e-07
1.62666612199e-08
6.58659488517e-08
1.81138990956e-07
3.23838898675e-07
4.53029852566e-08
3.28003567242e-07
2.0757912623e-08
1.41540568165e-07
1.25446940487e-07
8.90826482745e-07
7.4681522437e-08
1.03340277626e-07
2.26778065757e-07
1.69354299884e-07
1.77021289423e-07
1.91862793691e-08
2.99649780171e-07
3.96559653429e-08
3.9818293624e-07
2.19130909551e-07
3.96687026595e-06
3.36067250475e-07
2.96164862203e-06
2.54033091117e-06
2.1811461833e-06
8.41121546093e-07
2.17092625694e-07
5.44932010579e-06
4.01441861313e-06
4.63480865284e-07
1.34848381225e-06
5.94683693915e-07
3.05184397817e-09
6.09137230942e-06
3.78811504883e-07
3.58630018708e-06
1.0892991111e-07
7.41500863947e-07
4.64301994419e-07
1.04761303299e-06
1.06945935719e-06
1.31693633596e-06
1.10890234939e-07
1.03564047588e-06
1.40718084354e-07
4.62280956582e-08
6.14239591443e-07
1.27409180943e-07
1.81590294477e-06
4.11607425739e-07
4.34046838574e-07
1.6274954927e-06
1.13097483303e-06
1.20234520016e-06
8.05344480982e-08
1.28153439791e-06
1.14267019171e-06
7.3933106389e-07
9.79259867672e-07
1.84668409163e-07
1.78354278241e-07
9.86668901354e-07
8.27398467502e-07
6.84801084408e-09
4.1784024933e-07
5.13245460239e-07
6.08738119261e-07
4.41451217695e-07
2.00250482418e-06
5.19874445369e-06
5.31588215871e-07
5.56267804938e-07
5.31260322804e-07
8.32624061063e-08
3.55559196035e-07
6.11604619373e-07
2.26444416567e-07
2.50227084955e-07

