# vtk DataFile Version 3.0
File Name: Molecule/methanol/methanol_2.0-3.vtk
ASCII
DATASET UNSTRUCTURED_GRID
FIELD FieldData 1
TIME 1 1 double
0.0
POINTS 105 double
1.428408742 -0.0018553407863 -0.87140154839
1.6061207056 -0.00069384422386 -0.37432062626
1.4001452923 -0.32352021337 -0.84913408756
0.81022113562 -1.2108304501 -0.87821781635
1.2614638805 -0.64111572504 -0.9098982811
0.96574676037 -1.3300942183 -0.28642168641
1.4634468555 -0.67764627934 -0.35647705197
0.34860444069 -1.6379780769 -0.20828922093
0.24930627644 -1.4744731188 -0.84610652924
-0.49966567755 -1.4861052036 -0.74497330189
-0.48240825534 -1.6374577284 -0.11995482445
-1.0930403471 -1.3348995447 -0.045188941061
-1.0675091743 -1.2093396187 -0.67191743851
-1.6034183502 -0.67108684778 -0.026711475104
-1.522918582 -0.60645753145 -0.64946782589
-1.7394123077 -0.00054790684953 -0.038327947259
-1.6374588013 -0.00015252473531 -0.66554671526
-1.5209907293 0.60369557142 -0.65736526251
-1.6022549868 0.67321753502 -0.024533037096
-1.0622217655 1.2092432976 -0.68922132254
-1.0891155005 1.3370329142 -0.066399887204
-0.48495155573 1.6375186443 -0.1152054593
-0.50027048588 1.480032444 -0.76175135374
0.34092667699 1.6423926353 -0.18915815651
0.25775533915 1.4783883095 -0.83616137505
0.96708458662 1.3386762142 -0.25179415941
0.82156801224 1.2029829025 -0.87269634008
1.4784537554 0.67589116096 -0.30641454458
1.2661319971 0.64667123556 -0.89090454578
1.4072754383 0.31372234225 -0.75281924009
1.9063718319 -0.0037564798258 0.66354966164
1.7430062294 0.76739895344 0.66072303057
1.7406755686 0.38229942322 1.3269855976
1.7412046194 -0.39194452763 1.3211824894
1.7421646118 -0.76891022921 0.65636128187
1.7470769882 -0.39097553492 0.028517201543
1.8005988598 0.30665180087 0.11312941462
1.380646348 1.0694745779 1.4065185785
1.3703988791 0.57984679937 1.8374208212
1.3793523312 -0.20041920245 1.9484256506
1.3723264933 -0.91222989559 1.6017816067
1.3795955181 -1.2493165731 1.0438234806
1.3860678673 -1.2398645878 0.26316592097
1.3733525276 1.3136656284 0.64015322924
0.73055368662 1.5639542341 1.4355949163
0.73113673925 1.0503181219 2.0519134998
0.73290503025 0.32824480534 2.3711774349
0.71543413401 -0.32950431108 2.37830019
0.72294086218 -1.0489425659 2.0567104816
0.72509640455 -1.5632070303 1.4429707527
0.72554403543 -1.7495279312 0.6485812068
0.7162078023 1.7532070875 0.6417979002
0.090936362743 1.7747658491 1.2916238308
0.092713139951 1.3525327444 1.9697282314
0.092673383653 0.68497508764 2.4125635624
0.089268900454 0.032682105899 2.541087389
-0.051710322499 -0.74366533756 2.388646841
-0.05383335799 -1.2999488115 2.0204916
-0.054456282407 -1.7498143911 1.355969429
-0.056718934327 -1.8831988573 0.55471414328
-0.05069963634 1.8851726055 0.61426919699
-0.68912374973 1.7486075163 0.65572756529
-0.68641656637 1.5665546656 1.4364335537
-0.68613290787 1.0531525612 2.0535473824
-0.68847620487 0.32950642705 2.3735938072
-0.67745482922 -0.32843491435 2.3785889149
-0.69203180075 -1.0471733809 2.0543148518
-0.694706738 -1.5594228506 1.4427444935
-0.69107913971 -1.7473677397 0.66103333235
-1.3383110762 1.3106427193 0.65754503012
-1.3425729275 1.0699862242 1.4061088562
-1.3326146603 0.57968431711 1.8371721506
-1.3408179283 -0.20029942691 1.9489597082
-1.3340377808 -0.91226363182 1.6020599604
-1.3387830257 -1.254357338 1.0372924805
-1.701023221 0.77035403252 0.67630934715
-1.7020097971 0.38305592537 1.3281632662
-1.7030396461 -0.39197733998 1.3213456869
-1.7009847164 -0.77707016468 0.65135461092
-1.8678070307 -0.00017589179333 0.656065166
1.1821688414 0.38552027941 -1.4388287067
0.6401604414 0.58653211594 -1.9352171421
0.64892041683 1.0826237202 -1.5050669909
0.65032839775 -0.92482727766 -1.6892846823
-0.12466243654 -1.1563203335 -1.7446391582
-0.12020929158 -0.48365855217 -2.1919255257
0.6322324872 -0.20226091146 -2.0596683025
-0.12057936192 0.16796243191 -2.2622365952
-0.12007669359 0.89889031649 -1.98066926
-0.12006649375 1.3395894766 -1.4882440567
-0.89333933592 -1.2393001318 -1.1727122068
-0.87861287594 -0.80412334204 -1.8011018038
-0.88933265209 -0.19453343749 -2.0493919849
-0.87922430038 0.58627146482 -1.934499979
-0.89071685076 1.0894856453 -1.493999362
-1.4468864202 -0.39083895087 -1.4018745422
-1.4454604387 0.38087579608 -1.4087100029
0.91746491194 -0.31980511546 -1.820651412
1.1930718422 -0.36934986711 -1.435656786
1.277634263 0.0067267548293 -1.3711184263
1.0179655552 0.14825865626 -1.7561135292
1.2844694853 0.45741018653 -1.1625310183
1.3448429108 0.22035011649 -1.1425642967
1.3425626755 -0.21872885525 -1.1467665434
1.2834299803 -0.44955220819 -1.1719343662

CELLS 206 824
3 0 1 2
3 3 4 5
3 6 5 4
3 5 7 3
3 8 3 7
3 8 7 9
3 10 9 7
3 11 12 10
3 9 10 12
3 11 13 12
3 12 13 14
3 13 15 14
3 16 14 15
3 16 15 17
3 18 17 15
3 17 18 19
3 20 19 18
3 20 21 19
3 22 19 21
3 21 23 22
3 22 23 24
3 23 25 24
3 24 25 26
3 25 27 26
3 26 27 28
3 28 27 29
3 30 31 32
3 30 32 33
3 30 33 34
3 30 34 35
3 30 35 36
3 30 36 31
3 32 31 37
3 32 37 38
3 32 38 39
3 33 32 39
3 33 39 40
3 33 40 41
3 34 33 41
3 34 41 42
3 35 34 42
3 31 43 37
3 37 43 44
3 37 44 45
3 38 37 45
3 38 45 46
3 39 38 46
3 39 46 47
3 40 39 48
3 47 48 39
3 40 48 49
3 41 40 49
3 41 49 50
3 42 41 50
3 43 51 44
3 44 51 52
3 44 52 53
3 45 44 53
3 45 53 54
3 46 45 54
3 46 54 55
3 47 46 55
3 47 55 56
3 48 47 56
3 48 56 57
3 49 48 57
3 49 57 58
3 50 49 58
3 50 58 59
3 51 60 52
3 52 60 61
3 52 61 62
3 53 52 62
3 53 62 63
3 54 53 63
3 54 63 64
3 55 54 64
3 55 64 65
3 56 55 65
3 56 65 66
3 57 56 66
3 57 66 67
3 58 57 67
3 58 67 68
3 59 58 68
3 62 61 69
3 62 69 70
3 63 62 70
3 63 70 71
3 64 63 71
3 64 71 72
3 65 64 72
3 65 72 66
3 73 66 72
3 67 66 73
3 67 73 74
3 68 67 74
3 70 69 75
3 70 75 76
3 71 70 76
3 72 71 76
3 72 76 77
3 73 72 77
3 74 73 77
3 74 77 78
3 76 75 79
3 77 76 79
3 78 77 79
3 78 79 13
3 15 13 79
3 78 13 11
3 78 11 74
3 74 11 68
3 68 11 10
3 68 10 59
3 59 10 7
3 59 7 50
3 50 7 5
3 50 5 42
3 42 5 6
3 42 6 35
3 35 6 1
3 35 1 36
3 36 1 27
3 36 27 31
3 31 27 43
3 43 27 25
3 43 25 51
3 51 25 23
3 51 23 60
3 60 23 21
3 60 21 61
3 61 21 20
3 61 20 69
3 69 20 18
3 69 18 75
3 75 18 79
3 15 79 18
3 80 81 82
3 83 84 85
3 86 83 85
3 86 85 87
3 81 86 87
3 81 87 88
3 82 81 88
3 82 88 89
3 84 90 91
3 85 84 91
3 85 91 92
3 87 85 92
3 87 92 93
3 88 87 93
3 88 93 94
3 89 88 94
3 91 90 95
3 92 91 95
3 92 95 96
3 93 92 96
3 94 93 96
3 94 96 17
3 94 17 19
3 94 19 22
3 94 22 89
3 89 22 24
3 89 24 82
3 82 24 26
3 82 26 28
3 83 4 3
3 83 3 8
3 83 8 84
3 84 8 9
3 84 9 90
3 90 9 12
3 90 12 14
3 90 14 95
3 95 14 16
3 95 16 96
3 96 16 17
3 86 97 83
3 83 97 98
3 80 99 100
3 97 100 98
3 99 98 100
3 100 97 86
3 80 100 81
3 100 86 81
3 0 29 1
3 1 29 27
3 28 101 82
3 82 101 80
3 80 101 102
3 101 29 102
3 101 28 29
3 102 29 0
3 80 102 99
3 99 102 103
3 4 2 6
3 6 2 1
3 98 103 104
3 103 2 104
3 103 0 2
3 104 2 4
3 98 104 83
3 104 4 83
3 0 103 102
3 99 103 98

CELL_TYPES 206
5
5
5
5
5
5
5
5
5
5
5
5
5
5
5
5
5
5
5
5
5
5
5
5
5
5
5
5
5
5
5
5
5
5
5
5
5
5
5
5
5
5
5
5
5
5
5
5
5
5
5
5
5
5
5
5
5
5
5
5
5
5
5
5
5
5
5
5
5
5
5
5
5
5
5
5
5
5
5
5
5
5
5
5
5
5
5
5
5
5
5
5
5
5
5
5
5
5
5
5
5
5
5
5
5
5
5
5
5
5
5
5
5
5
5
5
5
5
5
5
5
5
5
5
5
5
5
5
5
5
5
5
5
5
5
5
5
5
5
5
5
5
5
5
5
5
5
5
5
5
5
5
5
5
5
5
5
5
5
5
5
5
5
5
5
5
5
5
5
5
5
5
5
5
5
5
5
5
5
5
5
5
5
5
5
5
5
5
5
5
5
5
5
5
5
5
5
5
5
5
5
5
5
5
5
5

CELL_DATA 206
SCALARS cell_data_0 double
LOOKUP_TABLE default
4.33519819029e-07
2.20900018154e-07
9.04417003026e-07
2.40637770435e-08
1.13654721555e-08
8.12879454284e-09
2.77483642477e-07
2.52147760525e-07
5.24711848763e-08
6.20368248165e-07
6.45198171674e-08
2.15439926972e-08
3.10777409236e-08
1.4183360681e-07
4.652653999e-08
2.21596413045e-07
4.89347688897e-07
1.663278609e-07
1.22520478285e-07
2.42486433682e-07
3.04781033674e-07
6.21660176083e-08
1.75034773797e-07
2.60836435345e-07
2.9323287855e-07
3.8402381771e-07
1.60252329723e-08
2.5415382589e-09
4.30079148878e-08
8.22104573806e-09
6.01936572732e-08
3.67674736115e-08
1.91282854436e-08
3.35695531896e-08
6.59995103957e-09
7.13200459145e-09
6.76950777852e-08
1.54591935391e-08
8.83794782865e-08
4.40721404109e-08
1.39095906296e-07
4.77357402741e-08
1.25323834964e-08
3.57920074624e-08
6.34773607178e-11
1.72911668311e-08
3.88381201374e-08
1.18185274354e-08
2.60902580349e-08
2.41159238766e-08
4.24341594658e-09
2.63771094748e-08
2.43369029644e-08
1.1890613245e-07
3.21707473861e-08
3.42178299818e-09
8.78866289453e-09
1.55684281273e-08
1.82526061939e-08
1.49337929367e-10
2.30179933465e-08
2.89546211694e-08
2.28100961723e-08
1.93888268316e-08
2.3008612983e-08
7.69636858358e-09
3.77585771439e-08
1.88252701286e-08
1.06696198833e-08
2.04423055272e-08
4.53458807958e-09
1.53883031171e-08
2.46986355947e-08
4.4252217984e-10
7.20467456754e-09
2.27388650953e-08
2.10659255218e-10
7.42960045242e-10
1.97100488748e-08
1.08572894505e-08
3.74187020459e-08
5.10254765759e-09
1.86680311933e-08
3.79917159298e-09
1.92818941012e-09
3.28875874948e-08
1.58886244098e-08
9.06487948365e-09
8.58499879105e-09
4.25506456646e-10
1.34847629472e-08
1.99386071658e-08
1.22458533645e-08
1.65593835805e-08
1.71674286133e-08
1.65376002517e-09
2.874178929e-09
3.68991885468e-08
1.13491901182e-08
1.74758390369e-09
1.59952303927e-09
1.6038788088e-08
1.20120540699e-09
9.44032192745e-11
2.47832438964e-08
4.37094023765e-08
1.06807134131e-08
4.80824867657e-08
5.65419015425e-09
1.43297960403e-07
2.14241872046e-07
3.08774110204e-08
3.00686780077e-08
1.41580283316e-07
1.17166956662e-08
1.53009518567e-07
3.83313003096e-08
9.85770602938e-08
1.31392122581e-07
4.45206245643e-07
9.06353283287e-08
5.80856817824e-07
6.08267180767e-08
3.66243757787e-07
6.45726929064e-08
6.4795549248e-08
1.03459843735e-07
3.81482872626e-08
7.94833804611e-08
5.16496601249e-08
1.69467206171e-07
3.36589833034e-08
1.40648652058e-07
8.52939097634e-09
2.20525843306e-07
1.79833532449e-08
6.59246298616e-10
1.68991218928e-07
4.89431105523e-06
3.78528799232e-07
1.50773292884e-06
8.54943768651e-07
1.77104629495e-06
7.00530721822e-07
4.46161704751e-07
8.35258860789e-08
1.89499680644e-07
7.7681418907e-08
2.96239452986e-08
3.95255246355e-07
2.79205874192e-07
2.20495845251e-07
2.34493386523e-08
2.24751958504e-07
2.72197259637e-07
4.62607601208e-07
6.23884741025e-07
5.19533553747e-07
7.55173348669e-07
1.0676675414e-06
1.01735008379e-06
4.87405893323e-07
2.16447317179e-07
2.12252873123e-07
2.08328538676e-07
1.2971753322e-07
1.5173765591e-06
3.70278508238e-06
4.1002829226e-07
8.48007087155e-07
5.91671692614e-07
2.47324821046e-07
8.97184139535e-07
9.64702904136e-08
1.5551478085e-06
3.67239078436e-07
2.12627685331e-07
4.38720529871e-07
4.76012934495e-07
1.80210741031e-07
3.4593329948e-07
5.98153392337e-06
4.8494839802e-06
3.84736654351e-07
9.89607291198e-07
6.37244320441e-07
2.23896157272e-07
3.07944513074e-07
1.99902738586e-06
1.71651397634e-06
6.59148450998e-07
6.49220606469e-07
5.45984350277e-07
9.48973408217e-07
9.67654386385e-07
6.24036195553e-07
3.95059048482e-08
7.46538632784e-07
1.72917153346e-06
1.02627121434e-06
1.20166508942e-06
8.34057050187e-08
9.85677476156e-07
4.2084177537e-06
2.9990448436e-06
1.81069958091e-06

