# vtk DataFile Version 3.0
File Name: Molecule/methanol/methanol_2.0-0.vtk
ASCII
DATASET UNSTRUCTURED_GRID
FIELD FieldData 1
TIME 1 1 double
0.0
POINTS 96 double
1.2493978739 -0.66854590178 -0.91889464855
1.3979586363 -0.0063579338603 -0.94080400467
1.4447376728 -0.72985064983 -0.34077051282
1.6071802378 0.007578774821 -0.36601233482
0.82944840193 -1.198594451 -0.87590765953
0.98629546165 -1.315915823 -0.27994421124
0.21032176912 -1.4843533039 -0.84352558851
0.31791126728 -1.6471163034 -0.19350402057
-0.46193912625 -1.4960268736 -0.7477748394
-0.42685964704 -1.6502349377 -0.12394801527
-1.0772180557 -1.2084680796 -0.65312600136
-1.1054850817 -1.3247810602 -0.041218928993
-1.5717680454 -0.73604226112 -0.048674408346
-1.4971284866 -0.66075718403 -0.65780609846
-1.6462470293 0.00039980746806 -0.64430069923
-1.7435649633 -0.0012522778707 -0.0021822750568
-1.4961473942 0.66356509924 -0.65796542168
-1.5777950287 0.72986406088 -0.027116980404
-1.0744726658 1.202475667 -0.68150687218
-1.1151669025 1.3162350655 -0.062561973929
-0.44414120913 1.6465317011 -0.11772534251
-0.45809984207 1.4898868799 -0.76679986715
0.30219951272 1.6517010927 -0.18683546782
0.22179737687 1.4896903038 -0.82603549957
0.98010408878 1.3270026445 -0.2545799613
0.83579850197 1.1970342398 -0.8679112792
1.4500193596 0.74055719376 -0.30181092024
1.2538785934 0.66586339474 -0.91303855181
1.9070034027 9.8899226941e-07 0.65593594313
1.7626273632 0.72288715839 0.65608918667
1.7607172728 0.36073970795 1.287113905
1.7606897354 -0.36830049753 1.2821320295
1.7623382807 -0.72359836102 0.65590244532
1.7668539286 -0.364502877 0.054226461798
1.7688901424 0.34995356202 0.051695808768
1.3584378958 1.1155353785 1.3787387609
1.3480758667 0.5590813756 1.8738954067
1.3585910797 -0.18120419979 1.9729284048
1.3479374647 -0.87536758184 1.6695483923
1.3559806347 -1.2789113522 1.030436635
1.360855937 -1.2726975679 0.28558853269
1.3500378132 1.3379766941 0.64068686962
0.74312371016 1.5688899755 1.4129673243
0.74412447214 1.0835723877 2.0197658539
0.74258542061 0.38400071859 2.3559954166
0.74003607035 -0.3917094171 2.3551580906
0.73059910536 -1.0856348276 2.0242829323
0.7442625165 -1.5654013157 1.4196828604
0.74441093206 -1.7422344685 0.64784020185
0.73446321487 1.7457720041 0.64184063673
0.019144551829 1.746752739 1.3677910566
0.019159013405 1.3396754265 1.9842433929
0.019125495106 0.72589641809 2.3970983028
0.019016189501 7.8529279563e-05 2.5428731441
0.018707161769 -0.72617685795 2.3969557285
0.018635332584 -1.3400759697 1.9838649035
0.018752904609 -1.7468914986 1.3686412573
0.015028894879 -1.8870909214 0.62400811911
0.016040094197 1.8869737387 0.62047797441
-0.70100343227 1.7444908619 0.65181094408
-0.70475542545 1.5690908432 1.4128389359
-0.70613443851 1.0837152004 2.0196442604
-0.70467722416 0.3839661181 2.3559575081
-0.70157122612 -0.39188373089 2.3553082943
-0.69280797243 -1.085878849 2.0240249634
-0.70578205585 -1.5650962591 1.4202136993
-0.70376592875 -1.7433322668 0.65711176395
-1.3160007 1.3340083361 0.65784442425
-1.3201742172 1.1152678728 1.3791158199
-1.3103424311 0.55885577202 1.8737537861
-1.3206064701 -0.18119744956 1.9728959799
-1.3093008995 -0.87553554773 1.67010355
-1.316794157 -1.2825897932 1.0240752697
-1.7251523733 0.7193313241 0.66085088253
-1.7217741013 0.36046934128 1.2887705564
-1.7220269442 -0.36847022176 1.2830066681
-1.7245602608 -0.72386145592 0.64297157526
-1.8653923273 -0.0012185244123 0.67570447922
1.1968966722 -0.37511950731 -1.4212422371
0.65079128742 -0.87998789549 -1.7313095331
0.65010344982 -0.1879747808 -2.0512056351
1.1950334311 0.37824225426 -1.4228141308
0.63997203112 0.55149149895 -1.9507708549
0.6464188695 1.1124615669 -1.4622856379
-0.12492521852 -1.1655930281 -1.7322150469
-0.11986996979 -0.54710912704 -2.1699914932
-0.12008021772 0.18575909734 -2.2603077888
-0.12005593628 0.87541663647 -1.9965018034
-0.12016521394 1.3631078005 -1.4444705248
-0.89482682943 -1.2530453205 -1.1375466585
-0.87920278311 -0.86591178179 -1.7514275312
-0.88936424255 -0.18723386526 -2.050829649
-0.87998700142 0.55219525099 -1.9498596191
-0.89054268599 1.1173821688 -1.4525712729
-1.4477186203 -0.39109602571 -1.4006882906
-1.4461565018 0.38265991211 -1.4069886208

CELLS 188 752
3 0 1 2
3 3 2 1
3 0 2 4
3 5 4 2
3 6 4 7
3 5 7 4
3 6 7 8
3 9 8 7
3 8 9 10
3 11 10 9
3 11 12 10
3 10 12 13
3 13 12 14
3 15 14 12
3 16 14 17
3 15 17 14
3 16 17 18
3 19 18 17
3 19 20 18
3 18 20 21
3 20 22 21
3 21 22 23
3 22 24 23
3 23 24 25
3 24 26 25
3 25 26 27
3 26 3 27
3 27 3 1
3 28 29 30
3 28 30 31
3 28 31 32
3 28 32 33
3 28 33 34
3 28 34 29
3 30 29 35
3 30 35 36
3 30 36 37
3 31 30 37
3 31 37 38
3 31 38 39
3 32 31 39
3 32 39 40
3 33 32 40
3 29 41 35
3 35 41 42
3 35 42 43
3 36 35 43
3 36 43 44
3 37 36 44
3 37 44 45
3 38 37 45
3 38 45 46
3 38 46 47
3 39 38 47
3 39 47 48
3 40 39 48
3 41 49 42
3 42 49 50
3 42 50 51
3 43 42 51
3 43 51 52
3 44 43 52
3 44 52 53
3 45 44 53
3 45 53 54
3 46 45 54
3 46 54 55
3 47 46 55
3 47 55 56
3 48 47 56
3 48 56 57
3 49 58 50
3 50 58 59
3 50 59 60
3 51 50 60
3 51 60 61
3 52 51 61
3 52 61 62
3 53 52 62
3 53 62 63
3 54 53 63
3 54 63 64
3 55 54 64
3 55 64 65
3 56 55 65
3 56 65 66
3 57 56 66
3 60 59 67
3 60 67 68
3 61 60 68
3 61 68 69
3 62 61 69
3 62 69 70
3 63 62 70
3 63 70 71
3 64 63 71
3 65 64 71
3 65 71 72
3 66 65 72
3 68 67 73
3 68 73 74
3 69 68 74
3 70 69 74
3 70 74 75
3 71 70 75
3 72 71 75
3 72 75 76
3 74 73 77
3 75 74 77
3 76 75 77
3 76 77 15
3 76 15 12
3 76 12 11
3 76 11 72
3 72 11 66
3 66 11 9
3 66 9 57
3 57 9 7
3 57 7 48
3 48 7 5
3 48 5 40
3 40 5 2
3 40 2 33
3 33 2 3
3 33 3 34
3 34 3 26
3 34 26 29
3 29 26 41
3 41 26 24
3 41 24 49
3 49 24 22
3 49 22 58
3 58 22 20
3 58 20 59
3 59 20 19
3 59 19 67
3 67 19 17
3 67 17 73
3 73 17 15
3 73 15 77
3 78 79 80
3 81 78 80
3 81 80 82
3 81 82 83
3 79 84 85
3 80 79 85
3 80 85 86
3 82 80 86
3 82 86 87
3 83 82 87
3 83 87 88
3 84 89 90
3 85 84 90
3 85 90 91
3 86 85 91
3 86 91 92
3 87 86 92
3 87 92 93
3 88 87 93
3 90 89 94
3 91 90 94
3 91 94 95
3 92 91 95
3 93 92 95
3 93 95 16
3 93 16 18
3 93 18 21
3 93 21 88
3 88 21 23
3 88 23 83
3 83 23 25
3 83 25 27
3 83 27 81
3 81 27 1
3 81 1 78
3 78 1 0
3 78 0 79
3 79 0 4
3 79 4 6
3 79 6 84
3 84 6 8
3 84 8 89
3 89 8 10
3 89 10 13
3 89 13 94
3 94 13 14
3 94 14 95
3 95 14 16

CELL_TYPES 188
5
5
5
5
5
5
5
5
5
5
5
5
5
5
5
5
5
5
5
5
5
5
5
5
5
5
5
5
5
5
5
5
5
5
5
5
5
5
5
5
5
5
5
5
5
5
5
5
5
5
5
5
5
5
5
5
5
5
5
5
5
5
5
5
5
5
5
5
5
5
5
5
5
5
5
5
5
5
5
5
5
5
5
5
5
5
5
5
5
5
5
5
5
5
5
5
5
5
5
5
5
5
5
5
5
5
5
5
5
5
5
5
5
5
5
5
5
5
5
5
5
5
5
5
5
5
5
5
5
5
5
5
5
5
5
5
5
5
5
5
5
5
5
5
5
5
5
5
5
5
5
5
5
5
5
5
5
5
5
5
5
5
5
5
5
5
5
5
5
5
5
5
5
5
5
5
5
5
5
5
5
5
5
5
5
5
5
5

CELL_DATA 188
SCALARS cell_data_0 double
LOOKUP_TABLE default
9.9143778009e-07
5.0488225844e-06
4.44620792317e-07
4.41470792183e-07
1.76786226944e-07
7.31630138747e-08
2.48870405572e-07
8.73564450845e-08
3.23829079105e-07
3.86951633643e-07
4.12664400736e-07
1.97826194557e-07
1.68705931377e-07
2.92515863226e-07
1.58780852521e-07
4.0929106161e-07
2.47423010976e-07
3.68606923498e-07
2.96397948198e-07
1.11788006035e-07
1.34453303365e-07
2.53270727946e-07
1.06023333328e-07
2.62787879602e-07
2.28456533271e-08
7.62548648112e-08
2.02694996756e-06
1.26922925055e-06
5.52994863083e-08
4.06445846925e-09
7.25035893611e-08
8.95444747986e-08
2.48180935925e-07
3.01249877444e-08
3.68125184619e-08
2.38518328884e-08
1.01546406533e-08
1.75423749311e-08
5.98263388879e-08
1.60787422815e-08
9.01511827846e-08
2.6505583135e-08
2.50258028767e-07
5.10603252278e-09
6.3643403244e-09
8.37180232059e-09
9.38455810412e-09
1.09997910125e-08
2.0851502245e-08
2.47295073889e-09
2.57653952143e-08
2.12040664955e-08
1.06208904309e-09
1.82961915826e-08
1.073700222e-08
8.80615393457e-08
4.49482778727e-08
6.42109670379e-09
2.0597414108e-08
9.7079441642e-09
1.2335556271e-08
1.01866474527e-08
2.46135353157e-09
4.37719966833e-09
7.37363603867e-09
4.78538051168e-09
5.79682456036e-09
8.06386613447e-10
1.12541042503e-08
1.03350126425e-08
2.19868596038e-08
2.49321051189e-08
7.06814280343e-09
1.2675343812e-08
1.45799667301e-08
7.25597131877e-09
1.25543362096e-08
1.1210825475e-08
8.64971517888e-10
7.57963740171e-09
3.16509896853e-09
3.65387763249e-09
1.39343794909e-08
1.16839297994e-08
2.06786565214e-08
1.58973616657e-08
8.24342281622e-09
3.01064256496e-08
1.275552649e-08
1.05174350556e-08
1.24427264847e-08
4.92310292522e-09
3.58306123135e-09
1.13270454274e-08
7.30683284537e-09
1.36148339763e-08
7.62039597964e-09
1.90790567911e-09
3.37022892003e-09
4.37804598924e-08
1.58586512289e-08
3.78575224531e-09
5.41133266485e-09
1.99917297177e-08
2.17565865834e-09
2.29421969032e-09
3.20451690764e-08
4.18555332616e-08
7.64517034041e-09
4.2231099987e-08
1.14648828166e-08
1.45900997309e-07
1.86838223651e-07
5.22429657751e-08
9.94438649469e-09
1.75241230742e-07
4.09334301225e-08
1.08228511197e-07
4.55219648699e-08
9.10000131292e-08
2.99870362115e-08
3.31854995757e-07
3.05538520381e-07
1.40447153557e-06
2.33662742058e-07
6.00340143482e-07
1.32374087233e-07
5.77213396042e-08
2.67029324725e-08
9.16710246796e-08
1.02948144243e-07
4.97407795795e-08
1.41968598528e-07
3.221719581e-08
1.64487225178e-07
2.51519004672e-11
1.54799284359e-07
5.60118007564e-09
1.78129356966e-07
2.9115812785e-08
4.41815844999e-06
4.17407693088e-05
9.32466867112e-06
2.58049791593e-06
1.14185049186e-07
1.00130532028e-06
8.53288915242e-07
1.02985453845e-06
5.68734076548e-07
5.60253733162e-07
2.13354777348e-07
1.43568661307e-07
1.99723030125e-07
2.25407235805e-07
1.47503697369e-08
4.33190049905e-09
4.45957756471e-07
4.77641283422e-07
1.01817804649e-06
9.3160856829e-08
4.218272499e-07
7.15032480607e-07
2.50012131752e-07
7.46128490935e-07
1.02382934259e-06
3.12044051736e-07
5.27896707557e-07
1.94034426349e-07
3.11310611582e-07
2.21384690157e-07
7.66547756356e-08
2.16347702036e-06
4.05671187761e-06
3.2690713313e-06
2.68503248566e-05
1.70331673817e-06
3.57399653987e-06
4.83539305793e-06
6.31601864235e-07
6.71069106452e-07
4.98514061844e-07
6.55622204868e-07
7.88612570575e-07
3.29633586978e-07
1.56604248664e-06
3.55767400672e-07
1.54621917062e-08
2.89327242348e-07

