# vtk DataFile Version 3.0
File Name: Molecule/methanol/methanol_2.0-2.vtk
ASCII
DATASET UNSTRUCTURED_GRID
FIELD FieldData 1
TIME 1 1 double
0.0
POINTS 102 double
1.268263936 -0.61463606358 -0.9283233881
1.411916256 -0.025013998151 -0.90647006035
1.4653888941 -0.67299318314 -0.35757082701
1.608456254 0.0057204752229 -0.36453312635
0.81645846367 -1.2068954706 -0.87574493885
0.96210974455 -1.3355976343 -0.28034710884
0.34852662683 -1.6379835606 -0.208586514
0.24909211695 -1.4742230177 -0.84624201059
-0.48240715265 -1.6371637583 -0.12190794945
-0.49406912923 -1.4828279018 -0.75534141064
-1.063775301 -1.2170945406 -0.65935689211
-1.0938616991 -1.3343812227 -0.047072630376
-1.6049801111 -0.66692501307 -0.031507566571
-1.5225479603 -0.60706275702 -0.64958524704
-1.7389829159 -0.00038104571286 -0.041642267257
-1.6427407265 -0.0047773639672 -0.6517226696
-1.5209742785 0.60351157188 -0.65759325027
-1.6022611856 0.67319917679 -0.024532578886
-1.0622279644 1.2092343569 -0.6892311573
-1.0891076326 1.337036252 -0.06639329344
-0.48494672775 1.6375198364 -0.11520271748
-0.50027114153 1.4800336361 -0.76174873114
0.34084942937 1.6424212456 -0.18904621899
0.25778153539 1.4783892632 -0.83615738153
0.96708059311 1.3386698961 -0.25185227394
0.82161873579 1.2029718161 -0.87267774343
1.4771608114 0.67516458035 -0.31153973937
1.2647111416 0.64757764339 -0.89279818535
1.4002768993 0.31076663733 -0.85272991657
1.9063743353 -0.003742530942 0.66353529692
1.743000865 0.76744586229 0.66069543362
1.7406821251 0.38230648637 1.3269785643
1.7412030697 -0.39194560051 1.321185112
1.7421511412 -0.76900887489 0.65631663799
1.7469525337 -0.3924407661 0.028117667884
1.8008004427 0.3067638576 0.11367136985
1.3806461096 1.0694719553 1.4065189362
1.3703984022 0.57984685898 1.837421298
1.3793520927 -0.20041906834 1.948425889
1.3723247051 -0.91222941875 1.6017831564
1.3796103001 -1.2492631674 1.0438653231
1.3860318661 -1.2398340702 0.26327234507
1.3732563257 1.3137538433 0.64007550478
0.73056447506 1.5639529228 1.4355851412
0.73113709688 1.0503182411 2.0519132614
0.73290503025 0.32824474573 2.3711774349
0.71543413401 -0.32950431108 2.37830019
0.72294038534 -1.0489423275 2.0567109585
0.72507792711 -1.5632456541 1.4429454803
0.7259299159 -1.7495785952 0.6483361125
0.71620476246 1.7532099485 0.6417965889
0.090936347842 1.7747658491 1.2916238308
0.092713139951 1.3525327444 1.9697281122
0.0926733464 0.68497508764 2.4125635624
0.089268907905 0.0326821208 2.541087389
-0.051710404456 -0.74366533756 2.388646841
-0.053833417594 -1.2999504805 2.0204899311
-0.054376460612 -1.7497936487 1.3559820652
-0.056719630957 -1.8831892014 0.5546272397
-0.050698768348 1.8851728439 0.6142731905
-0.68912369013 1.7486073971 0.65572762489
-0.68641656637 1.5665546656 1.4364334345
-0.68613290787 1.0531525612 2.0535473824
-0.68847620487 0.32950642705 2.3735938072
-0.67745488882 -0.32843488455 2.3785889149
-0.69203168154 -1.0471733809 2.0543148518
-0.69470053911 -1.5594271421 1.4427431822
-0.6911137104 -1.747374773 0.66086643934
-1.3383091688 1.3106436729 0.65754914284
-1.3425728083 1.0699863434 1.4061090946
-1.3326137066 0.57968527079 1.8371729851
-1.3408176899 -0.20029881597 1.9489603043
-1.3340369463 -0.91226130724 1.6020629406
-1.3387906551 -1.2543519735 1.0372781754
-1.7010197639 0.7703563571 0.67631298304
-1.70201087 0.38305434585 1.3281620741
-1.7030416727 -0.39197957516 1.3213419914
-1.7010751963 -0.77700257301 0.65063333511
-1.8678318262 -0.00017980956181 0.65571111441
1.180549264 0.38594982028 -1.4392675161
0.64017474651 0.58661901951 -1.9351700544
0.64887428284 1.0827419758 -1.5050001144
0.64977502823 -0.92711228132 -1.6881729364
-0.12515810132 -1.1562918425 -1.7445240021
-0.11996643245 -0.48388189077 -2.1919300556
0.63106387854 -0.20157077909 -2.0597076416
-0.12063934654 0.16793856025 -2.2622616291
-0.12007524073 0.89889585972 -1.9806678295
-0.12007796019 1.3395842314 -1.488242507
-0.89359790087 -1.2396892309 -1.1718945503
-0.87857317924 -0.80417001247 -1.8010590076
-0.889359653 -0.19454888999 -2.04941082
-0.87922304869 0.58627229929 -1.9344981909
-0.89071387053 1.0894832611 -1.4940035343
-1.4470005035 -0.39090657234 -1.4016590118
-1.4456189871 0.38095718622 -1.4084368944
1.2077944279 -0.38909232616 -1.4023624659
0.92014253139 -0.32239112258 -1.8173236847
1.2719525099 0.0035945887212 -1.3803743124
1.0155229568 0.15201203525 -1.758708477
1.2835681438 0.45549380779 -1.1652420759
1.3399738073 0.23152214289 -1.1492935419

CELLS 200 800
3 0 1 2
3 3 2 1
3 0 2 4
3 5 4 2
3 5 6 4
3 7 4 6
3 8 9 6
3 7 6 9
3 9 8 10
3 11 10 8
3 11 12 10
3 10 12 13
3 12 14 13
3 15 13 14
3 15 14 16
3 17 16 14
3 16 17 18
3 19 18 17
3 19 20 18
3 21 18 20
3 20 22 21
3 21 22 23
3 22 24 23
3 23 24 25
3 24 26 25
3 25 26 27
3 27 26 28
3 29 30 31
3 29 31 32
3 29 32 33
3 29 33 34
3 29 34 35
3 29 35 30
3 31 30 36
3 31 36 37
3 31 37 38
3 32 31 38
3 32 38 39
3 32 39 40
3 33 32 40
3 33 40 41
3 34 33 41
3 30 42 36
3 36 42 43
3 36 43 44
3 37 36 44
3 37 44 45
3 38 37 45
3 38 45 46
3 39 38 47
3 46 47 38
3 39 47 48
3 40 39 48
3 40 48 49
3 41 40 49
3 42 50 43
3 43 50 51
3 43 51 52
3 44 43 52
3 44 52 53
3 45 44 53
3 45 53 54
3 46 45 54
3 46 54 55
3 47 46 55
3 47 55 56
3 48 47 56
3 48 56 57
3 49 48 57
3 49 57 58
3 50 59 51
3 51 59 60
3 51 60 61
3 52 51 61
3 52 61 62
3 53 52 62
3 53 62 63
3 54 53 63
3 54 63 64
3 55 54 64
3 55 64 65
3 56 55 65
3 56 65 66
3 57 56 66
3 57 66 67
3 58 57 67
3 61 60 68
3 61 68 69
3 62 61 69
3 62 69 70
3 63 62 70
3 63 70 71
3 64 63 71
3 64 71 65
3 72 65 71
3 66 65 72
3 66 72 73
3 67 66 73
3 69 68 74
3 69 74 75
3 70 69 75
3 71 70 75
3 71 75 76
3 72 71 76
3 73 72 76
3 73 76 77
3 75 74 78
3 76 75 78
3 77 76 78
3 77 78 12
3 14 12 78
3 77 12 11
3 77 11 73
3 73 11 67
3 67 11 8
3 67 8 58
3 58 8 6
3 58 6 49
3 49 6 5
3 49 5 41
3 41 5 2
3 41 2 34
3 34 2 3
3 34 3 35
3 35 3 26
3 35 26 30
3 30 26 42
3 42 26 24
3 42 24 50
3 50 24 22
3 50 22 59
3 59 22 20
3 59 20 60
3 60 20 19
3 60 19 68
3 68 19 17
3 68 17 74
3 74 17 78
3 14 78 17
3 79 80 81
3 82 83 84
3 85 82 84
3 85 84 86
3 80 85 86
3 80 86 87
3 81 80 87
3 81 87 88
3 83 89 90
3 84 83 90
3 84 90 91
3 86 84 91
3 86 91 92
3 87 86 92
3 87 92 93
3 88 87 93
3 90 89 94
3 91 90 94
3 91 94 95
3 92 91 95
3 93 92 95
3 93 95 16
3 93 16 18
3 93 18 21
3 93 21 88
3 88 21 23
3 88 23 81
3 81 23 25
3 81 25 27
3 96 1 0
3 96 0 82
3 82 0 4
3 82 4 7
3 82 7 83
3 83 7 9
3 83 9 89
3 89 9 10
3 89 10 13
3 89 13 94
3 94 13 15
3 94 15 95
3 95 15 16
3 85 97 82
3 82 97 96
3 79 98 99
3 98 97 99
3 98 96 97
3 99 97 85
3 79 99 80
3 99 85 80
3 96 98 1
3 1 28 3
3 3 28 26
3 27 100 81
3 81 100 79
3 79 100 101
3 100 28 101
3 100 27 28
3 101 28 1
3 79 101 98
3 98 101 1

CELL_TYPES 200
5
5
5
5
5
5
5
5
5
5
5
5
5
5
5
5
5
5
5
5
5
5
5
5
5
5
5
5
5
5
5
5
5
5
5
5
5
5
5
5
5
5
5
5
5
5
5
5
5
5
5
5
5
5
5
5
5
5
5
5
5
5
5
5
5
5
5
5
5
5
5
5
5
5
5
5
5
5
5
5
5
5
5
5
5
5
5
5
5
5
5
5
5
5
5
5
5
5
5
5
5
5
5
5
5
5
5
5
5
5
5
5
5
5
5
5
5
5
5
5
5
5
5
5
5
5
5
5
5
5
5
5
5
5
5
5
5
5
5
5
5
5
5
5
5
5
5
5
5
5
5
5
5
5
5
5
5
5
5
5
5
5
5
5
5
5
5
5
5
5
5
5
5
5
5
5
5
5
5
5
5
5
5
5
5
5
5
5
5
5
5
5
5
5
5
5
5
5
5
5

CELL_DATA 200
SCALARS cell_data_0 double
LOOKUP_TABLE default
1.3291666112e-06
2.25861419401e-06
4.28053949056e-07
6.55906513275e-07
5.2734058321e-08
1.23919999926e-08
2.07846406326e-07
7.2453013456e-08
7.78586439837e-08
2.53652411466e-07
6.02107449651e-07
5.46900253758e-08
1.11952776438e-08
3.73101945398e-08
1.48699515783e-07
3.65078743151e-08
2.24798536405e-07
4.91548490973e-07
1.71696213176e-07
1.27665495768e-07
2.45154043404e-07
3.06437608149e-07
6.22331524714e-08
1.75807340513e-07
2.51872407801e-07
2.29686995528e-07
4.07222166851e-07
4.52140108869e-08
2.15654745394e-08
7.01934521783e-08
6.41648738397e-08
1.91907358918e-07
6.38696968143e-08
2.09333576814e-08
3.31628312214e-08
1.1019056347e-08
1.98979996041e-08
5.98531324912e-08
1.86265858513e-09
6.62394032152e-08
2.01962595156e-08
1.74125160049e-07
3.62334414006e-08
7.78847126507e-09
3.57147076542e-08
4.34610919642e-09
1.64232720434e-08
4.12192845374e-08
1.28111248216e-08
3.58364971505e-08
2.05079522018e-08
7.19305682787e-09
7.29200364276e-09
5.50695473642e-09
5.27344028324e-08
3.30909697053e-08
6.00282920259e-09
8.38401537808e-09
1.58838694077e-08
2.04742260015e-08
2.14837830298e-09
2.54796588086e-08
2.78112370916e-08
1.94907918142e-08
1.50588893239e-08
1.8274576886e-08
4.96308966069e-10
2.82887179383e-08
8.47568014071e-09
5.58001635481e-09
2.18809502561e-08
4.01926569657e-09
1.53644465754e-08
3.0527793552e-08
3.74037403616e-09
7.80709097001e-09
1.77327620163e-08
3.21272138365e-09
7.74297293808e-09
2.68577789784e-08
9.02478913108e-09
3.61219617698e-08
5.9540652103e-09
1.94860668274e-08
5.33610234998e-09
1.43069750611e-09
3.36872159794e-08
1.68258749333e-08
1.14779964945e-08
7.62591965641e-09
3.4738533603e-09
1.25756675668e-08
1.89786429499e-08
1.24627835083e-08
1.68235874315e-08
1.82314648557e-08
1.49490399717e-09
3.29021811484e-09
3.7322263956e-08
1.10017212593e-08
1.46528181977e-09
1.13893273158e-09
1.54781531263e-08
1.92786264703e-09
1.56015372502e-10
2.6480134877e-08
4.55751814342e-08
1.02893809169e-08
4.72545462591e-08
1.17290114182e-08
1.19792539609e-07
2.05137007705e-07
3.59100238863e-08
2.51413485699e-08
1.50663092618e-07
2.60847278343e-08
1.36733659916e-07
4.03397569477e-08
7.05071480579e-08
3.41601086324e-08
2.66233471469e-07
2.34525681805e-07
1.00314431403e-06
1.27421524388e-07
6.90005322526e-07
6.30605691668e-09
5.73725273225e-08
9.08819306494e-08
4.05512826189e-08
7.97579320769e-08
5.17196585207e-08
1.67541939651e-07
3.29036266163e-08
1.401245805e-07
8.74748100074e-09
2.21093298019e-07
1.8519733718e-08
4.4565018801e-09
1.70235552185e-07
4.80563855075e-06
3.06971532929e-07
1.47687725802e-06
8.79467097661e-07
1.66057043214e-06
7.13856619569e-07
4.4526980289e-07
6.35938335721e-08
1.54848169753e-07
1.32488107183e-07
3.08047368714e-08
4.55035673032e-07
2.27147924769e-07
1.46901930595e-07
8.39563309065e-09
2.21163393178e-07
2.31640071962e-07
4.6977929143e-07
6.30545534875e-07
5.70897598265e-07
7.44469641093e-07
1.02759036624e-06
1.02316143028e-06
5.05926259338e-07
2.34319068833e-07
2.25326388042e-07
1.95957938197e-07
1.28077825999e-07
1.54219064693e-06
9.56632079702e-06
1.40606953471e-06
3.09428464381e-06
4.00585688245e-07
7.66537722458e-07
6.77236442642e-07
2.9739722092e-07
8.89122806779e-07
9.9516569049e-08
1.53505636627e-06
3.6804895969e-07
2.40014961186e-07
4.39107883228e-07
6.78842160705e-07
9.78074963446e-08
2.46220380124e-07
5.29689642009e-06
1.0268773951e-06
5.7507520236e-07
2.02712022044e-06
1.39240565858e-06
3.22599008449e-06
1.18409078474e-08
6.49130703038e-07
1.95025337627e-06
1.55099875452e-06
3.59915367705e-07
3.89506776713e-07
2.92378431844e-07
1.54830849547e-06
1.26343622832e-06
2.7195069067e-07

