# vtk DataFile Version 3.0
File Name: Molecule/methanol/methanol_1.0-2.vtk
ASCII
DATASET UNSTRUCTURED_GRID
FIELD FieldData 1
TIME 1 1 double
0.0
POINTS 51 double
0.9104822278 -1.1067010164 -0.91670536995
1.3986111879 -0.014463624917 -0.92998743057
1.0977879763 -1.2175058126 -0.27536517382
1.6126724482 0.0081888055429 -0.32240226865
0.016920767725 -1.678044796 -0.18712437153
-0.12957811356 -1.5046674013 -0.93705135584
-1.1664904356 -1.0966999531 -0.71194887161
-1.2170921564 -1.2292511463 -0.036024149507
-1.7298134565 -0.00095399445854 -0.019598443061
-1.639977932 0.0012852798682 -0.77839869261
-1.1643283367 1.0891423225 -0.72726809978
-1.2074569464 1.2294204235 -0.058439083397
-0.062216710299 1.5120071173 -0.82498687506
0.030457247049 1.6854655743 -0.16492190957
1.0916987658 1.2188942432 -0.28118777275
0.91505354643 1.0967921019 -0.91470843554
1.905236721 0.0010492046131 0.67409110069
1.5796707869 1.0596262217 0.65761858225
1.5725928545 0.5047724843 1.5987408161
1.5740505457 -0.5789386034 1.5531538725
1.5781571865 -1.0593591928 0.72692501545
0.58059197664 1.4500715733 1.7180298567
0.56848543882 0.55005556345 2.3730568886
0.59063023329 -0.55133533478 2.3635311127
0.57947528362 -1.450304389 1.7189025879
0.57172334194 -1.8036205769 0.66012877226
0.57173937559 1.8032736778 0.65993046761
-0.54296046495 1.4604796171 1.7032623291
-0.53054958582 0.56964838505 2.3672685623
-0.53592276573 -0.55683016777 2.3699572086
-0.54108017683 -1.4606301785 1.7052388191
-0.54207569361 -1.802200079 0.6451240778
-0.5420217514 1.8026264906 0.6428489089
-1.5411026478 1.0562727451 0.67662978172
-1.5354864597 0.50542646646 1.5980262756
-1.5373060703 -0.57840746641 1.5513079166
-1.5405791998 -1.0541604757 0.74954319
-1.8628311157 -0.00032271340024 0.69528210163
1.0089451075 -0.49157452583 -1.6465238333
-0.10426353663 -0.77637171745 -2.0534083843
0.97126382589 0.0038565583527 -1.8029354811
0.88938552141 0.62871730328 -1.7071279287
-0.12325160205 0.31192234159 -2.2382340431
-0.12056615204 1.1449942589 -1.7562310696
-1.1436052322 -0.61367356777 -1.7014456987
-1.147175312 0.61088693142 -1.7003016472
1.271982193 0.32058981061 -1.2918037176
1.2766205072 -0.31702846289 -1.286290288
1.1298443079 0.12984164059 -1.6197562218
1.2830634117 -0.0018082155148 -1.3616662025
1.1308521032 -0.19145950675 -1.6071445942

CELLS 98 392
3 0 1 2
3 3 2 1
3 2 4 0
3 0 4 5
3 5 4 6
3 7 6 4
3 7 8 6
3 6 8 9
3 9 8 10
3 11 10 8
3 10 11 12
3 13 12 11
3 14 15 13
3 12 13 15
3 14 3 15
3 1 15 3
3 16 17 18
3 16 18 19
3 16 19 20
3 18 17 21
3 18 21 22
3 18 22 23
3 19 18 23
3 19 23 24
3 20 19 24
3 20 24 25
3 17 26 21
3 21 26 27
3 21 27 28
3 22 21 28
3 22 28 29
3 23 22 29
3 24 23 29
3 24 29 30
3 24 30 25
3 31 25 30
3 26 32 27
3 27 32 33
3 27 33 34
3 28 27 34
3 28 34 29
3 35 29 34
3 30 29 35
3 30 35 36
3 31 30 36
3 34 33 37
3 35 34 37
3 36 35 37
3 36 37 8
3 36 8 7
3 36 7 31
3 31 7 4
3 31 4 25
3 25 4 2
3 25 2 20
3 20 2 3
3 20 3 16
3 16 3 17
3 17 3 14
3 17 14 26
3 26 14 13
3 26 13 32
3 32 13 11
3 32 11 33
3 33 11 8
3 33 8 37
3 38 39 40
3 41 42 43
3 42 39 44
3 42 44 45
3 43 42 45
3 43 45 10
3 43 10 12
3 43 12 15
3 43 15 41
3 38 0 39
3 39 0 5
3 39 5 44
3 44 5 6
3 44 6 9
3 44 9 45
3 45 9 10
3 41 40 42
3 42 40 39
3 1 46 15
3 15 46 41
3 38 47 0
3 47 1 0
3 46 48 41
3 41 48 40
3 46 49 48
3 49 50 48
3 49 47 50
3 48 50 40
3 47 49 1
3 1 49 46
3 40 50 38
3 50 47 38

CELL_TYPES 98
5
5
5
5
5
5
5
5
5
5
5
5
5
5
5
5
5
5
5
5
5
5
5
5
5
5
5
5
5
5
5
5
5
5
5
5
5
5
5
5
5
5
5
5
5
5
5
5
5
5
5
5
5
5
5
5
5
5
5
5
5
5
5
5
5
5
5
5
5
5
5
5
5
5
5
5
5
5
5
5
5
5
5
5
5
5
5
5
5
5
5
5
5
5
5
5
5
5

CELL_DATA 98
SCALARS cell_data_0 double
LOOKUP_TABLE default
5.16968931058e-06
1.08516313596e-05
5.83466517704e-08
1.53627825087e-07
3.23058004345e-07
6.17666143272e-07
7.57783377234e-07
3.73823420999e-07
2.07468526984e-07
3.49424648455e-07
5.23506660529e-07
5.55321304409e-07
2.75942702964e-07
3.14922976821e-07
2.4475519674e-06
1.26511773975e-05
1.35846421383e-07
3.2556321284e-08
2.82867269576e-07
1.70519646677e-09
6.5878584608e-08
1.25480978941e-07
2.39044853452e-07
1.16603978704e-07
9.42877853715e-08
4.34433105992e-07
5.6197972187e-08
7.27454662206e-09
6.21875588442e-08
5.69922626272e-08
3.5099571173e-09
1.291553642e-07
3.38101058168e-09
1.39067139773e-07
8.99104667743e-08
2.41083619535e-09
4.13749471447e-09
9.10076303772e-08
1.00418262584e-07
4.93009342185e-08
5.01617286479e-08
1.30639467764e-07
2.6818556389e-08
7.43564393776e-08
3.60142818723e-08
9.95253135417e-08
1.63185590645e-08
6.66651617613e-08
1.46788639527e-07
4.41238168141e-07
8.71098551183e-08
4.36986179191e-07
6.39931794598e-08
1.50529640952e-07
6.27332624386e-07
2.84625187013e-06
1.51488295363e-08
3.55252045143e-07
5.26541859712e-07
4.76770136972e-08
1.78694030734e-07
1.81020936763e-08
3.11089035522e-07
6.27674365143e-09
5.09925161592e-07
2.15786741256e-07
6.89854541325e-06
3.42133850779e-06
3.9679635511e-06
3.07026620156e-06
2.96991853239e-06
2.03594563807e-06
1.87802436387e-06
1.09984769755e-07
4.48661409389e-06
1.12738320953e-05
1.25852266422e-06
8.42748977482e-07
2.8011505855e-06
9.93093783696e-07
2.08680655189e-06
4.14215553546e-07
9.75667183864e-06
1.06576323537e-05
1.44877925094e-05
4.91449555632e-07
1.81574216029e-06
1.23933171067e-05
7.6699830741e-08
5.63668202029e-07
1.40805703427e-06
2.51288022544e-06
4.51022398418e-07
7.19314860409e-07
1.26027763106e-07
1.63225561353e-06
6.75526910087e-07
1.6922575903e-06

