# vtk DataFile Version 3.0
File Name: Molecule/methanol/methanol_0.5-6.vtk
ASCII
DATASET UNSTRUCTURED_GRID
FIELD FieldData 1
TIME 1 1 double
0.0
POINTS 49 double
0.62936294079 -1.2973877192 -1.0096898079
0.81912088394 -1.4220457077 -0.2486654222
-0.91868811846 -1.2759953737 -0.7324616909
-0.94918000698 -1.4323482513 -0.04714909941
-1.736536026 -0.0047004334629 0.022595474496
-1.4489971399 -0.62412130833 -1.1836457253
-1.6427221298 0.012247894891 -0.75514912605
-0.94319087267 1.2739193439 -0.73135226965
-0.95882594585 1.4226014614 -0.059065613896
-0.12296396494 1.5327222347 -0.88497102261
0.82178461552 1.4260317087 -0.27987936139
1.6067774296 0.012540138327 -0.35184377432
1.2219370604 0.71064013243 -1.005360961
1.9050345421 -0.010377774015 0.67516618967
1.3826076984 1.302562356 0.684237957
1.378144145 0.43824282289 1.8905485868
1.3700928688 -1.0247514248 1.4831713438
0.11305191368 1.3438879251 1.9758943319
-0.055541533977 0.033848989755 2.5357758999
-0.054732143879 -1.2962720394 2.0234003067
0.094345599413 -1.882135272 0.76183545589
-0.060540888458 1.8855116367 0.6639020443
-1.3421826363 0.45337188244 1.8450982571
-1.3418856859 -1.0196744204 1.4715021849
-0.87762737274 -1.0379580259 -1.5737453699
1.2051645517 -0.7604855895 -0.90271139145
1.0900807381 0.76225221157 -1.2576001883
1.1028097868 0.2956495285 -1.60871768
0.65371114016 0.97594034672 -1.6332874298
1.197491765 -0.62098050117 -1.209813118
0.6319668889 0.44291505218 -1.9985728264
0.76193755865 -0.1635389179 -1.9788731337
1.2638316154 0.17304007709 -1.3667674065
1.032574296 -0.16213044524 -1.7374005318
1.2052857876 -0.36732047796 -1.4159437418
0.90132623911 -0.63766890764 -1.6890386343
-0.12032011896 -0.30373179913 -2.23843503
0.041438560933 -0.9425650835 -1.9371043444
-1.0175657272 -0.32449868321 -1.9381148815
1.410426259 0.0034000952728 -0.90643799305
0.64291352034 1.2869286537 -1.0683917999
1.3517384529 0.076700054109 -1.1777480841
1.33497715 -0.23541031778 -1.1602926254
-0.1207273975 1.1418807507 -1.7623468637
-0.12048580498 0.47642797232 -2.1960861683
-0.88081431389 0.44059985876 -1.9942342043
-1.4469798803 0.23974366486 -1.4687311649
-1.0185911655 0.98959708214 -1.4888409376
1.3282186985 -0.4419669807 -0.95003849268

CELLS 94 376
3 0 1 2
3 3 2 1
3 3 4 2
3 2 4 5
3 6 4 7
3 8 7 4
3 7 8 9
3 10 11 12
3 13 14 15
3 13 15 16
3 15 14 17
3 15 17 18
3 16 15 18
3 16 18 19
3 16 19 20
3 14 21 17
3 18 17 22
3 18 22 23
3 19 18 23
3 20 19 23
3 20 23 3
3 20 3 1
3 20 1 16
3 16 1 13
3 13 1 11
3 13 11 14
3 14 11 10
3 14 10 21
3 8 21 9
3 21 8 22
3 21 22 17
3 22 8 4
3 22 4 23
3 23 4 3
3 24 0 2
3 0 25 1
3 1 25 11
3 26 27 28
3 25 0 29
3 30 27 31
3 27 32 33
3 32 34 33
3 33 34 35
3 30 31 36
3 31 37 36
3 31 35 37
3 36 37 38
3 24 37 0
3 0 37 35
3 35 31 33
3 33 31 27
3 39 12 11
3 10 12 40
3 39 41 12
3 26 12 32
3 41 32 12
3 12 26 40
3 27 26 32
3 34 32 42
3 40 9 10
3 10 9 21
3 28 30 43
3 44 43 30
3 44 45 43
3 28 43 40
3 6 7 46
3 45 47 43
3 47 9 43
3 47 7 9
3 43 9 40
3 45 44 36
3 36 44 30
3 30 28 27
3 26 28 40
3 25 48 11
3 11 48 39
3 6 5 4
3 2 5 24
3 24 5 38
3 5 46 38
3 5 6 46
3 38 46 45
3 34 29 35
3 35 29 0
3 25 29 48
3 29 42 48
3 29 34 42
3 48 42 39
3 24 38 37
3 36 38 45
3 39 42 41
3 41 42 32
3 45 46 47
3 47 46 7

CELL_TYPES 94
5
5
5
5
5
5
5
5
5
5
5
5
5
5
5
5
5
5
5
5
5
5
5
5
5
5
5
5
5
5
5
5
5
5
5
5
5
5
5
5
5
5
5
5
5
5
5
5
5
5
5
5
5
5
5
5
5
5
5
5
5
5
5
5
5
5
5
5
5
5
5
5
5
5
5
5
5
5
5
5
5
5
5
5
5
5
5
5
5
5
5
5
5
5

CELL_DATA 94
SCALARS cell_data_0 double
LOOKUP_TABLE default
3.90793997732e-06
6.49603566629e-07
1.77633762826e-06
5.89295909687e-06
2.04371026319e-06
1.67493503045e-06
1.35605192388e-06
2.51340333561e-06
2.05675217814e-07
8.40480745626e-07
6.12843888052e-07
2.48377253011e-07
5.7045010382e-07
6.04194433051e-07
3.25366346568e-07
1.21810106119e-07
7.64300491503e-07
6.80414306938e-07
6.93446039612e-08
1.94472106985e-07
2.89841320396e-07
9.90075643583e-07
6.16526263149e-07
1.79286442579e-06
5.05484809908e-07
1.06047146517e-06
7.74458261485e-07
2.63902880432e-07
1.47745400378e-06
1.00391502232e-06
2.01891599271e-07
3.28803678056e-06
4.55665817232e-07
1.57345873568e-06
3.79549014061e-06
1.93542973904e-07
2.66295829462e-06
2.5243653716e-06
4.77818031555e-07
4.71091803531e-06
3.17588146993e-08
8.41743758499e-06
1.89043126162e-06
1.8237993259e-06
2.03392175488e-06
2.47445857346e-06
6.54023742639e-08
1.25639752626e-06
1.98535287185e-06
8.36581453304e-07
1.19276800712e-06
3.4055023567e-06
1.81867474781e-07
4.72143175178e-06
4.88503954191e-07
2.89752810832e-06
3.66263782506e-07
1.37700821029e-06
4.46361778018e-06
1.96733523172e-07
3.59904279742e-07
7.29239298055e-07
7.88837997021e-07
1.71870208311e-07
8.45254423158e-08
2.62515329826e-06
4.86490356202e-07
2.44665770377e-06
1.4944215483e-06
2.99823464716e-08
2.76929614019e-08
5.67860112353e-07
4.35109777136e-07
1.20506550426e-06
6.71274032613e-07
2.16093794292e-06
1.38180822521e-06
4.03673091404e-06
5.60428470761e-07
1.45479125437e-06
1.76904917418e-06
4.22297506152e-07
9.78575236218e-07
3.59590887448e-06
1.50159112283e-07
3.73534131095e-08
1.21230358899e-06
7.90532982178e-07
6.61569922254e-08
2.96709351435e-07
1.22673525489e-06
1.68269216153e-06
7.58913284678e-07
1.65350900166e-06

