# vtk DataFile Version 3.0
File Name: Molecule/methanol/methanol_1.0-4.vtk
ASCII
DATASET UNSTRUCTURED_GRID
FIELD FieldData 1
TIME 1 1 double
0.0
POINTS 59 double
1.0978728533 -1.2183119059 -0.26865822077
0.01681430079 -1.6787279844 -0.18705308437
0.90712124109 -1.1075958014 -0.91674083471
-0.12856607139 -1.5054008961 -0.93725466728
-1.1660224199 -1.0966932774 -0.71250283718
-1.2172248363 -1.2293579578 -0.036055896431
-1.7298566103 -0.00094586343039 -0.019630692899
-1.6397644281 0.0013212773483 -0.77867269516
-1.165581584 1.0882025957 -0.72643709183
-1.2066283226 1.2289415598 -0.061713114381
-0.12888710201 1.5180038214 -0.91392159462
0.028096076101 1.6839959621 -0.17442652583
1.0848939419 1.2374476194 -0.26570230722
0.90653240681 1.1112606525 -0.91389298439
1.9055938721 0.00029780791374 0.67659443617
1.5795557499 1.0587795973 0.64934587479
1.5741020441 0.50542461872 1.5979434252
1.5738511086 -0.57920414209 1.5533049107
1.5779720545 -1.0597510338 0.72867429256
0.58017957211 1.4501450062 1.7180939913
0.56850206852 0.55005711317 2.3730249405
0.59059119225 -0.55134731531 2.363568306
0.57961839437 -1.4502364397 1.7188338041
0.57169079781 -1.8037650585 0.66018629074
0.57141661644 1.8036317825 0.65969330072
-0.54301780462 1.4604729414 1.7031908035
-0.53056490421 0.56967329979 2.3673040867
-0.53592276573 -0.55683219433 2.3699595928
-0.54105913639 -1.4606634378 1.705244422
-0.54217028618 -1.8021664619 0.6452447176
-0.54212385416 1.8025784492 0.64244765043
-1.5411506891 1.0562796593 0.67647725344
-1.5354884863 0.50541365147 1.5980427265
-1.5373053551 -0.57840716839 1.5513085127
-1.5405961275 -1.0541701317 0.74953949451
-1.8628562689 -0.00036557938438 0.69528532028
1.6694595814 -0.011186773889 -0.23177443445
1.3543411493 0.62997788191 -0.58585590124
1.0083383322 -0.48963928223 -1.6483598948
-0.10371515155 -0.77631437778 -2.0516605377
0.87377184629 0.00063794478774 -1.9057672024
0.88815909624 0.62984311581 -1.7066483498
-0.12442765385 0.31197297573 -2.2390766144
-0.12130638212 1.141305685 -1.7602199316
-1.1434669495 -0.6137253046 -1.701534152
-1.1472325325 0.61086201668 -1.7003382444
1.2712088823 0.33349850774 -1.2897623777
1.121966958 0.12787871063 -1.6293840408
1.28647995 -0.0037012670655 -1.3546175957
1.126087904 -0.19147619605 -1.61305058
1.2715954781 -0.30398529768 -1.3022341728
1.3834098577 -0.1619065702 -1.0098707676
1.3361600637 0.024432912469 -1.1722058058
1.4632908106 0.011369727552 -0.66912305355
1.3069739342 -0.61170440912 -0.7618162632
1.356913209 0.23160926998 -1.1064472198
1.2756677866 0.59640485048 -0.93641942739
1.1233086586 0.76422733068 -1.20825243
1.1300567389 -0.79050207138 -1.1328338385

CELLS 114 456
3 0 1 2
3 2 1 3
3 3 1 4
3 5 4 1
3 5 6 4
3 4 6 7
3 7 6 8
3 9 8 6
3 8 9 10
3 11 10 9
3 12 13 11
3 10 11 13
3 14 15 16
3 14 16 17
3 14 17 18
3 16 15 19
3 16 19 20
3 16 20 21
3 17 16 21
3 17 21 22
3 18 17 22
3 18 22 23
3 15 24 19
3 19 24 25
3 19 25 26
3 20 19 26
3 20 26 27
3 21 20 27
3 22 21 27
3 22 27 28
3 22 28 23
3 29 23 28
3 24 30 25
3 25 30 31
3 25 31 32
3 26 25 32
3 26 32 27
3 33 27 32
3 28 27 33
3 28 33 34
3 29 28 34
3 32 31 35
3 33 32 35
3 34 33 35
3 34 35 6
3 34 6 5
3 34 5 29
3 29 5 1
3 29 1 23
3 23 1 0
3 23 0 18
3 18 0 36
3 18 36 14
3 14 36 15
3 12 15 37
3 15 12 24
3 24 12 11
3 24 11 30
3 30 11 9
3 30 9 31
3 31 9 6
3 31 6 35
3 38 39 40
3 41 42 43
3 42 39 44
3 42 44 45
3 43 42 45
3 43 45 8
3 43 8 10
3 43 10 13
3 43 13 41
3 38 2 39
3 39 2 3
3 39 3 44
3 44 3 4
3 44 4 7
3 44 7 45
3 45 7 8
3 41 40 42
3 42 40 39
3 46 47 41
3 41 47 40
3 46 48 47
3 48 49 47
3 48 50 49
3 47 49 40
3 51 50 52
3 40 49 38
3 49 50 38
3 53 36 54
3 36 37 15
3 12 37 13
3 52 55 51
3 56 37 53
3 56 13 37
3 53 37 36
3 56 53 55
3 57 56 46
3 55 46 56
3 56 57 13
3 13 57 41
3 57 46 41
3 48 46 52
3 55 52 46
3 2 54 0
3 0 54 36
3 50 58 38
3 38 58 2
3 2 58 54
3 51 54 50
3 58 50 54
3 54 51 53
3 53 51 55
3 48 52 50

CELL_TYPES 114
5
5
5
5
5
5
5
5
5
5
5
5
5
5
5
5
5
5
5
5
5
5
5
5
5
5
5
5
5
5
5
5
5
5
5
5
5
5
5
5
5
5
5
5
5
5
5
5
5
5
5
5
5
5
5
5
5
5
5
5
5
5
5
5
5
5
5
5
5
5
5
5
5
5
5
5
5
5
5
5
5
5
5
5
5
5
5
5
5
5
5
5
5
5
5
5
5
5
5
5
5
5
5
5
5
5
5
5
5
5
5
5
5
5

CELL_DATA 114
SCALARS cell_data_0 double
LOOKUP_TABLE default
1.99858874208e-07
5.67470721601e-07
4.85198810822e-07
3.92657834288e-07
1.01750263274e-06
6.50986515802e-07
6.22338908374e-08
3.56694586943e-07
6.0206512048e-07
9.80209535011e-07
2.60702174824e-07
6.6237067973e-07
4.19408653094e-08
5.40499034113e-08
1.17604795427e-07
1.3424349249e-07
1.02641910138e-07
1.40692803088e-07
1.8424304772e-07
2.75285692788e-09
2.34626530899e-08
1.15946483007e-07
3.34389536589e-08
5.74612454491e-08
7.15113581573e-08
3.65519103903e-08
1.73446116796e-09
7.94493445767e-08
3.39372366866e-08
6.94421371231e-08
1.99643741051e-08
1.6945079568e-08
1.58996591191e-08
9.2644095704e-08
1.00287568114e-07
3.45898338203e-08
5.57532510202e-08
1.31340401133e-07
2.30610730452e-08
8.14057085653e-08
3.02216083905e-08
1.09106463006e-07
1.63911336209e-08
6.26044688832e-08
1.83484017771e-07
4.02897386596e-07
1.67011184947e-08
3.07827642093e-07
1.03416966628e-08
1.42843774569e-07
1.28759644612e-07
9.25724110935e-07
7.95646221925e-08
9.94557696292e-08
2.25312964337e-07
1.67146187544e-07
1.77411459095e-07
2.12304691926e-08
2.93547243069e-07
5.09007136644e-08
4.01008856809e-07
2.08273415906e-07
5.53492937967e-06
4.02400722357e-06
2.83056471049e-06
4.05985655791e-06
2.65127801572e-06
1.91251581066e-06
9.02879799426e-07
2.62058420962e-07
5.41731056783e-06
1.21793277177e-05
9.43959743569e-09
2.73188422868e-07
2.1889769697e-06
8.07644363162e-07
1.42516585494e-06
4.28565670651e-07
6.63434879441e-06
5.13894782213e-06
2.86718493697e-06
3.08528095775e-07
4.55105116849e-07
7.23008353797e-07
1.12368648906e-06
6.32881853313e-07
7.10585165614e-07
1.63407245654e-07
3.70806968749e-07
8.04321093431e-08
3.37791713267e-08
6.25931752591e-07
3.72264479104e-07
1.73021008868e-06
4.13031234786e-07
4.59676634459e-07
1.79587195639e-06
1.03339424601e-06
1.39547462441e-06
7.93310173976e-08
1.27125484585e-06
1.22759083402e-06
1.12981266724e-07
4.47796759189e-07
2.5191464358e-07
1.95558480758e-07
2.65405853092e-08
1.03889418103e-06
4.26020893868e-07
2.8783130933e-07
1.1732016016e-06
7.40183107293e-07
6.8997869951e-07
1.84685009132e-07

