# vtk DataFile Version 3.0
File Name: Molecule/methanol/methanol_0.5-4.vtk
ASCII
DATASET UNSTRUCTURED_GRID
FIELD FieldData 1
TIME 1 1 double
0.0
POINTS 38 double
1.401548624 -0.0015212779399 -0.93136656284
1.6065721512 0.011801656336 -0.34971892834
1.2072528601 -0.74424374104 -0.92247438431
0.62566387653 -1.3005896807 -1.0085515976
0.8182259798 -1.4208467007 -0.24987539649
-0.9185488224 -1.2790515423 -0.73148131371
-0.94887411594 -1.4307665825 -0.049212127924
-1.7304831743 -0.0029251719825 0.017563952133
-1.6427139044 -0.0035496540368 -0.77596181631
-0.92312908173 1.2781666517 -0.74287378788
-0.95283102989 1.4258214235 -0.059900529683
0.80928385258 1.4257156849 -0.27658194304
0.62838661671 1.2798415422 -1.0915291309
1.2179436684 0.71302878857 -1.0086661577
1.9047080278 -0.010171554051 0.67502069473
1.3816336393 1.3032774925 0.68298888206
1.378098011 0.4381942749 1.8905569315
1.3703410625 -1.0246175528 1.4829695225
0.11361028999 1.343350172 1.9758859873
-0.055440537632 0.033899504691 2.5356049538
-0.054744992405 -1.2962275743 2.0233688354
0.094361543655 -1.8822214603 0.76132965088
-0.059862673283 1.8821793795 0.68327581882
-1.3420989513 0.45522266626 1.845323801
-1.3415966034 -1.0196949244 1.4713464975
0.63246488571 0.45211192966 -1.995818615
-0.88236802816 0.45145824552 -1.9815155268
-0.88769203424 -1.0195418596 -1.5849686861
1.1085460186 0.28087171912 -1.6094533205
1.1020884514 0.75733780861 -1.238409996
0.90994262695 -0.64661341906 -1.6752901077
0.75915443897 -0.16421560943 -1.9834614992
1.217031002 -0.37765419483 -1.3918763399
1.2558894157 0.14479959011 -1.3864996433
1.034240365 -0.16510340571 -1.7345882654
-0.12483584881 -0.31246072054 -2.2392742634
0.058303438127 -0.943154037 -1.9295898676
1.3500757217 0.10947012901 -1.1738724709

CELLS 72 288
3 0 1 2
3 3 4 5
3 6 5 4
3 6 7 5
3 5 7 8
3 8 7 9
3 10 9 7
3 10 11 9
3 12 9 11
3 11 1 13
3 14 15 16
3 14 16 17
3 16 15 18
3 16 18 19
3 17 16 19
3 17 19 20
3 17 20 21
3 15 22 18
3 19 18 23
3 19 23 24
3 20 19 24
3 21 20 24
3 21 24 6
3 21 6 4
3 21 4 17
3 17 4 14
3 14 4 1
3 14 1 15
3 15 1 11
3 15 11 22
3 22 11 10
3 22 10 23
3 22 23 18
3 23 10 7
3 23 7 24
3 24 7 6
3 25 26 12
3 27 3 5
3 27 5 8
3 27 8 26
3 26 8 9
3 26 9 12
3 3 2 4
3 4 2 1
3 28 25 29
3 30 2 3
3 25 28 31
3 30 32 2
3 2 32 0
3 28 33 34
3 33 32 34
3 34 32 30
3 25 35 26
3 35 27 26
3 25 31 35
3 31 36 35
3 31 30 36
3 35 36 27
3 27 36 3
3 3 36 30
3 30 31 34
3 34 31 28
3 0 13 1
3 11 13 12
3 0 37 13
3 29 13 33
3 37 33 13
3 13 29 12
3 12 29 25
3 28 29 33
3 33 37 32
3 37 0 32

CELL_TYPES 72
5
5
5
5
5
5
5
5
5
5
5
5
5
5
5
5
5
5
5
5
5
5
5
5
5
5
5
5
5
5
5
5
5
5
5
5
5
5
5
5
5
5
5
5
5
5
5
5
5
5
5
5
5
5
5
5
5
5
5
5
5
5
5
5
5
5
5
5
5
5
5
5

CELL_DATA 72
SCALARS cell_data_0 double
LOOKUP_TABLE default
1.41258651975e-06
3.92946292336e-06
8.28175708738e-07
1.27700451048e-06
1.29256486675e-06
1.1658511319e-07
1.09711942579e-06
9.37978352237e-08
1.79123187931e-06
2.85585203114e-06
2.72168084941e-07
9.03756890629e-07
6.0001214126e-07
2.044798717e-07
6.15428639225e-07
5.71012250742e-07
3.9149559337e-07
6.32259794412e-08
7.94408811871e-07
5.71727060745e-07
1.17174434928e-07
1.84383655561e-07
2.62211973627e-07
9.14190726556e-07
6.55948172836e-07
1.82099565211e-06
9.91804830977e-07
8.14528799488e-07
7.37785384384e-07
2.40939883292e-07
1.08359434517e-06
8.54199674346e-07
1.01313860014e-07
3.49634440534e-06
4.80923823505e-07
1.92644596647e-06
8.35483936806e-06
2.19086161309e-06
1.59567353973e-06
5.75374396963e-06
4.56600608643e-06
1.24492205442e-05
3.87342807564e-08
1.10762197867e-06
1.0083131514e-06
5.42533024057e-06
2.78146457951e-06
1.68128216169e-06
8.27986391467e-06
5.49163874764e-07
6.1638810338e-06
2.9666715099e-06
3.60434102688e-06
2.46866852132e-06
1.48646850846e-06
1.95035906289e-06
2.65898804882e-06
1.40064163378e-06
7.61144016623e-07
1.72367966429e-06
1.54316428386e-07
1.45978215102e-06
1.7304718096e-06
8.63940692004e-07
9.28743806963e-07
1.43952608155e-07
1.4671202591e-06
5.96803991012e-07
5.55919582814e-06
3.15855261328e-06
4.34474080863e-07
2.23214738555e-06

