# vtk DataFile Version 3.0
File Name: Molecule/methanol/methanol_0.5-0.vtk
ASCII
DATASET UNSTRUCTURED_GRID
FIELD FieldData 1
TIME 1 1 double
0.0
POINTS 26 double
1.6049472094 0.022268230096 -0.33130228519
0.789904356 -1.4473330975 -0.23288977146
1.3806066513 -0.0075019737706 -0.9747633934
0.6161570549 -1.3104566336 -0.90703350306
-0.88575232029 -1.4538123608 -0.074116095901
-0.89970970154 -1.3072947264 -0.72986131907
-1.7309952974 -0.013765168376 0.031581416726
-1.6351337433 0.0038748257793 -0.68846863508
-0.91214746237 1.4476121664 -0.071785658598
-0.87670499086 1.3116466999 -0.75932812691
0.75884288549 1.4593471289 -0.24615807831
0.61954694986 1.3008203506 -0.91745495796
1.9040344954 -0.010597386397 0.67503345013
1.3564399481 1.3297885656 0.68411076069
1.3527264595 0.41641622782 1.9247231483
1.3453413248 -1.082962513 1.4457604885
0.041020262986 1.3283261061 1.9919518232
0.018877983093 -0.0081694545224 2.5385637283
0.018653875217 -1.3420126438 1.981195569
0.021352184936 -1.8858183622 0.68686842918
0.013690007851 1.883677721 0.68179726601
-1.3163740635 0.43123441935 1.8791579008
-1.3134877682 -1.0798830986 1.442122221
0.63442802429 0.36693549156 -2.0027530193
-0.86004149914 -1.0431416035 -1.5614792109
-0.87967306376 0.43511277437 -1.9807995558

CELLS 48 192
3 0 1 2
3 2 1 3
3 1 4 3
3 3 4 5
3 4 6 5
3 5 6 7
3 6 8 7
3 7 8 9
3 8 10 9
3 9 10 11
3 10 0 11
3 11 0 2
3 12 13 14
3 12 14 15
3 14 13 16
3 14 16 17
3 15 14 17
3 15 17 18
3 15 18 19
3 13 20 16
3 17 16 21
3 17 21 22
3 18 17 22
3 19 18 22
3 19 22 4
3 19 4 1
3 19 1 15
3 15 1 12
3 12 1 0
3 12 0 13
3 13 0 10
3 13 10 20
3 20 10 8
3 20 8 21
3 20 21 16
3 21 8 6
3 21 6 22
3 22 6 4
3 23 24 25
3 23 25 11
3 23 11 2
3 23 2 3
3 23 3 24
3 24 3 5
3 24 5 7
3 24 7 25
3 25 7 9
3 25 9 11

CELL_TYPES 48
5
5
5
5
5
5
5
5
5
5
5
5
5
5
5
5
5
5
5
5
5
5
5
5
5
5
5
5
5
5
5
5
5
5
5
5
5
5
5
5
5
5
5
5
5
5
5
5

CELL_DATA 48
SCALARS cell_data_0 double
LOOKUP_TABLE default
6.25274945796e-05
1.41615657295e-05
2.77739196458e-06
1.10458613219e-06
8.06435371181e-06
9.94463000279e-06
1.977426946e-06
6.16069308763e-06
3.28482873e-06
9.39859503193e-07
9.71103184502e-06
4.50441331512e-05
2.87941469527e-06
3.20349627932e-06
9.41020401147e-07
1.019604484e-06
8.84271523667e-07
2.9578258594e-07
1.45823900529e-06
2.34997466587e-07
1.51071212336e-06
8.41294130912e-07
8.90542092296e-07
5.12774023285e-07
5.0759825224e-07
3.93310659626e-07
2.20450054063e-06
4.02628279566e-06
1.42643367209e-05
4.91625132728e-06
4.08532172749e-06
6.68076875678e-07
1.80923450775e-06
1.01478999588e-06
5.96245414495e-08
2.88267292269e-06
4.9540462232e-07
1.54589464287e-06
4.35680648154e-05
1.43695092569e-05
0.000176941277329
0.000675592921406
4.99963599264e-05
8.84271993736e-06
5.38801197939e-06
2.9218210438e-05
1.8441490789e-06
1.14291881428e-05

