# vtk DataFile Version 3.0
File Name: Molecule/methanol/methanol_1.0-3.vtk
ASCII
DATASET UNSTRUCTURED_GRID
FIELD FieldData 1
TIME 1 1 double
0.0
POINTS 56 double
1.1025195122 -1.2186559439 -0.24811640382
0.89931792021 -1.0951193571 -0.94365119934
1.4477819204 -0.02540577203 -0.67975616455
0.015237281099 -1.6737898588 -0.17868027091
-0.13774521649 -1.4850564003 -0.97108161449
-1.1591976881 -1.0837904215 -0.73983860016
-1.2139089108 -1.2355265617 -0.0078819077462
-1.7182635069 -0.0016166376881 -0.015743162483
-1.6268526316 0.0021435758099 -0.81466543674
-1.1542400122 1.0700525045 -0.76910489798
-1.1950234175 1.2359461784 -0.048019826412
-0.073392227292 1.5002940893 -0.85049581528
0.040048837662 1.6872409582 -0.13950315118
1.0808721781 1.2513238192 -0.23249216378
0.89158666134 1.1103669405 -0.93359774351
1.9037239552 0.000399603392 0.69526034594
1.5758413076 1.0598779917 0.64458400011
1.5659426451 0.50553661585 1.6108590364
1.5662894249 -0.58296096325 1.561856389
1.5732227564 -1.064675808 0.72151988745
0.58739370108 1.4409532547 1.7200683355
0.56503361464 0.54259449244 2.3739533424
0.60750436783 -0.54485374689 2.3561484814
0.58613294363 -1.4412680864 1.7213989496
0.57108998299 -1.8024463654 0.66458666325
0.57059848309 1.8022096157 0.66504514217
-0.55084300041 1.4610834122 1.6912020445
-0.52719700336 0.58078253269 2.3628237247
-0.53705787659 -0.55539852381 2.3683774471
-0.54728496075 -1.4613679647 1.695191741
-0.54899823666 -1.7996854782 0.63702738285
-0.54948693514 1.8002325296 0.63307654858
-1.5375986099 1.0555340052 0.69548994303
-1.5261598825 0.50560766459 1.6116542816
-1.5296953917 -0.5815820694 1.5596541166
-1.5364633799 -1.0538332462 0.7621794343
-1.8582578897 -0.00062826031353 0.73012554646
1.6234993935 -0.015319181606 -0.22858268023
1.3586031199 0.63508534431 -0.55975604057
0.99952983856 -0.51403290033 -1.6428648233
-0.090611949563 -0.78335684538 -2.0411436558
0.93060147762 0.0076232356951 -1.8373771906
0.86977148056 0.64347583055 -1.7159919739
-0.1261742264 0.30596762896 -2.2383687496
-0.12241905183 1.1479395628 -1.7504482269
-1.1392507553 -0.61016088724 -1.7069984674
-1.1459573507 0.60473632812 -1.7052456141
1.2846903801 -0.33749735355 -1.261421442
1.2560583353 0.3401632309 -1.3122267723
1.1308035851 0.13472242653 -1.6155976057
1.2865476608 0.0030370661989 -1.3549820185
1.135608077 -0.18543078005 -1.6002818346
1.3771172762 -0.012333001941 -0.97816830873
1.3551133871 0.24742779136 -1.1059479713
1.2751734257 0.58933359385 -0.94040626287
1.1227231026 0.75498819351 -1.2183512449

CELLS 108 432
3 0 1 2
3 0 3 1
3 1 3 4
3 4 3 5
3 6 5 3
3 6 7 5
3 5 7 8
3 8 7 9
3 10 9 7
3 9 10 11
3 12 11 10
3 13 14 12
3 11 12 14
3 15 16 17
3 15 17 18
3 15 18 19
3 17 16 20
3 17 20 21
3 17 21 22
3 18 17 22
3 18 22 23
3 19 18 23
3 19 23 24
3 16 25 20
3 20 25 26
3 20 26 27
3 21 20 27
3 21 27 28
3 22 21 28
3 23 22 28
3 23 28 29
3 23 29 24
3 30 24 29
3 25 31 26
3 26 31 32
3 26 32 33
3 27 26 33
3 27 33 28
3 34 28 33
3 29 28 34
3 29 34 35
3 30 29 35
3 33 32 36
3 34 33 36
3 35 34 36
3 35 36 7
3 35 7 6
3 35 6 30
3 30 6 3
3 30 3 24
3 24 3 0
3 24 0 19
3 19 0 37
3 19 37 15
3 15 37 16
3 13 16 38
3 16 13 25
3 25 13 12
3 25 12 31
3 31 12 10
3 31 10 32
3 32 10 7
3 32 7 36
3 39 40 41
3 42 43 44
3 43 40 45
3 43 45 46
3 44 43 46
3 44 46 9
3 44 9 11
3 44 11 14
3 44 14 42
3 39 1 40
3 40 1 4
3 40 4 45
3 45 4 5
3 45 5 8
3 45 8 46
3 46 8 9
3 42 41 43
3 43 41 40
3 39 47 1
3 1 47 2
3 48 49 42
3 42 49 41
3 48 50 49
3 50 51 49
3 50 47 51
3 49 51 41
3 47 50 52
3 41 51 39
3 51 47 39
3 52 2 47
3 0 2 37
3 37 38 16
3 13 38 14
3 52 53 2
3 54 38 2
3 54 14 38
3 2 38 37
3 54 2 53
3 55 54 48
3 53 48 54
3 54 55 14
3 14 55 42
3 55 48 42
3 48 53 50
3 50 53 52

CELL_TYPES 108
5
5
5
5
5
5
5
5
5
5
5
5
5
5
5
5
5
5
5
5
5
5
5
5
5
5
5
5
5
5
5
5
5
5
5
5
5
5
5
5
5
5
5
5
5
5
5
5
5
5
5
5
5
5
5
5
5
5
5
5
5
5
5
5
5
5
5
5
5
5
5
5
5
5
5
5
5
5
5
5
5
5
5
5
5
5
5
5
5
5
5
5
5
5
5
5
5
5
5
5
5
5
5
5
5
5
5
5

CELL_DATA 108
SCALARS cell_data_0 double
LOOKUP_TABLE default
4.72860843462e-06
1.75220051478e-07
4.95011046722e-07
5.30457566647e-09
4.54978642815e-07
1.08836411108e-06
8.32158934998e-07
2.06661555338e-07
5.89341943661e-07
3.73614964337e-07
6.22849382348e-07
2.47248556171e-07
4.73031669625e-07
1.59699502354e-07
4.57889041371e-08
2.32741241712e-07
8.04539864502e-08
7.74723849278e-08
1.34423124963e-07
2.18201438462e-07
3.0040920274e-08
6.82212041623e-09
2.23528043378e-07
6.04412079276e-08
3.73006095335e-08
7.47894627422e-08
3.56474395782e-08
7.90383272188e-09
9.56644121265e-08
1.91323714031e-08
9.89086944792e-08
3.65061314242e-08
1.33780546118e-08
1.91105871375e-10
8.65685254508e-08
8.93885877341e-08
3.19738467494e-08
5.71755336585e-08
1.35245069683e-07
2.37709290259e-08
7.43259935299e-08
3.0539827837e-08
9.7988901387e-08
1.08149294889e-08
6.07395825316e-08
2.04555545537e-07
3.47871340358e-07
1.49136908242e-08
2.85492432251e-07
2.02062785493e-08
1.5053718062e-07
2.3431330695e-07
1.5459797186e-06
1.58046188889e-07
3.66216209977e-07
1.41325690962e-07
1.46405731957e-07
1.51073539255e-07
2.15672259682e-08
2.67381431079e-07
3.61207805628e-08
4.14469040386e-07
2.49018787753e-07
7.0465268679e-06
3.36949577793e-06
3.40744154212e-06
3.25586974576e-06
2.73404416366e-06
1.70084751162e-06
1.421935453e-06
7.09371036291e-08
4.69316911086e-06
9.33324879994e-06
5.99947485041e-07
6.92072180282e-07
2.22212244306e-06
9.36413330904e-07
1.65302552648e-06
6.27311485229e-07
7.66483111669e-06
8.44726645083e-06
4.04132487081e-07
1.4190757361e-05
1.9966286758e-06
2.5919749945e-07
4.08830485839e-07
8.07224812559e-07
7.09801948334e-08
5.37124356337e-07
6.58467206723e-07
7.43627539831e-07
1.75896446353e-06
1.78401936253e-06
3.73033797797e-06
4.76098568203e-07
6.41588198488e-07
1.78193249118e-06
1.24277033104e-06
6.01742785451e-07
1.02142054945e-06
1.84393886902e-06
8.50474907627e-07
6.72635148269e-07
2.26525368477e-08
1.35960133335e-06
9.52932074818e-07
6.66806934496e-07
2.11192317954e-06

