# vtk DataFile Version 3.0
File Name: Molecule/methanol/methanol_2.0-6.vtk
ASCII
DATASET UNSTRUCTURED_GRID
FIELD FieldData 1
TIME 1 1 double
0.0
POINTS 125 double
1.4194258451 -0.00035430732532 -0.87539315224
1.6076152325 0.0022174408659 -0.37105202675
1.4066070318 -0.31579911709 -0.75197732449
1.3066345453 -0.61322468519 -0.76289117336
1.4641839266 -0.68098640442 -0.35099458694
1.0483554602 -0.9974681139 -0.86842012405
0.25394845009 -1.4704722166 -0.85341155529
0.80301338434 -1.2315376997 -0.84306061268
0.34662330151 -1.6380307674 -0.20853941143
0.96566933393 -1.3327963352 -0.27760234475
-0.48261648417 -1.6373041868 -0.11942092329
-0.49964204431 -1.485904336 -0.74474900961
-1.0639855862 -1.217028141 -0.65886509418
-1.0931179523 -1.3346538544 -0.045972459018
-1.6034440994 -0.67114543915 -0.026208490133
-1.5234277248 -0.60608434677 -0.64844024181
-1.7375272512 -0.00066754571162 -0.05259373039
-1.6478370428 -6.385341112e-05 -0.75637686253
-1.5216127634 0.60291457176 -0.65664893389
-1.6022850275 0.67312467098 -0.024400901049
-1.0622473955 1.2092077732 -0.68924444914
-1.0890142918 1.3370653391 -0.066479481757
-0.48477959633 1.6375169754 -0.11543052644
-0.50088685751 1.4800895452 -0.75995355844
0.3442030251 1.6427931786 -0.18937623501
0.25966319442 1.4799292088 -0.8313575983
0.97135412693 1.3328282833 -0.25873765349
0.79844003916 1.2221386433 -0.87368535995
1.4801793098 0.67202937603 -0.30632048845
1.0595057011 0.9980237484 -0.83123779297
1.2841131687 0.61233103275 -0.89402729273
1.4062362909 0.31220373511 -0.75468707085
1.9063686132 -0.0037986484822 0.66355520487
1.7430046797 0.76683020592 0.66126072407
1.7406624556 0.38227370381 1.3270139694
1.7412040234 -0.39194497466 1.3211836815
1.7421705723 -0.76895165443 0.65634685755
1.7472273111 -0.39133045077 0.028970912099
1.8007339239 0.30606976151 0.1140870899
1.3806509972 1.0694961548 1.4064978361
1.3704010248 0.57984697819 1.8374197483
1.379352212 -0.20041947067 1.9484257698
1.3723254204 -0.91223013401 1.6017822027
1.3796076775 -1.2492985725 1.0438160896
1.3860833645 -1.2400077581 0.26382157207
1.3735536337 1.3134487867 0.63975220919
0.73050731421 1.5639492273 1.4356129169
0.73113459349 1.050316453 2.0519149303
0.73290473223 0.32824450731 2.3711776733
0.71543419361 -0.32950431108 2.37830019
0.72294068336 -1.0489426851 2.0567104816
0.72507947683 -1.5632184744 1.442980051
0.72572720051 -1.7495168447 0.64844816923
0.7163118124 1.753215313 0.64153903723
0.09097263217 1.7747744322 1.2916166782
0.092713937163 1.3525342941 1.9697271585
0.092673331499 0.68497514725 2.4125635624
0.089268893003 0.032682117075 2.541087389
-0.0517103374 -0.74366539717 2.388646841
-0.05383297801 -1.2999485731 2.0204920769
-0.054405242205 -1.7498209476 1.3559218645
-0.056498896331 -1.8832645416 0.55430191755
-0.050623528659 1.8852397203 0.61399847269
-0.68911141157 1.7486139536 0.65570789576
-0.68641513586 1.5665557384 1.4364327192
-0.68613290787 1.0531526804 2.0535473824
-0.68847620487 0.32950639725 2.3735938072
-0.67745488882 -0.32843488455 2.3785889149
-0.69203180075 -1.0471735001 2.0543148518
-0.69470310211 -1.5594255924 1.4427438974
-0.69105875492 -1.7473804951 0.66103321314
-1.3382973671 1.3106464148 0.65757322311
-1.3425726891 1.0699859858 1.4061098099
-1.332613945 0.57968437672 1.8371728659
-1.3408178091 -0.20029941201 1.9489599466
-1.3340364695 -0.91226303577 1.6020619869
-1.3387845755 -1.254355669 1.0372866392
-1.700986743 0.77037870884 0.67636036873
-1.7020107508 0.38305652142 1.328160882
-1.7030519247 -0.39197555184 1.3213278055
-1.7009934187 -0.77705985308 0.65139454603
-1.8679051399 -0.00018813856877 0.65469568968
0.63358420134 -0.90490740538 -1.715908289
-0.12155428529 -1.156104207 -1.7442133427
-0.11948817968 -0.48385766149 -2.1925852299
0.62408745289 -0.22353728116 -2.0592422485
-0.12039179355 0.16782878339 -2.2628176212
0.61709910631 0.58539152145 -1.9430553913
-0.1239926219 0.89655077457 -1.9824470282
-0.11463589221 1.3368643522 -1.4917958975
0.63022482395 0.8769518733 -1.7474294901
-0.89315974712 -1.2409211397 -1.1711585522
-0.87916457653 -0.80338895321 -1.8006631136
-0.88926029205 -0.19439995289 -2.0496838093
-0.88000386953 0.58641731739 -1.9331735373
-0.89031344652 1.0895866156 -1.4947504997
-1.4458405972 -0.39099031687 -1.4034072161
-1.4445528984 0.38057494164 -1.4102333784
0.63757044077 1.1815122366 -1.3594143391
0.77165776491 -1.0940203667 -1.3443181515
0.90361779928 -0.34392225742 -1.8263536692
1.0150119066 0.16859221458 -1.7575017214
1.2013252974 0.37713703513 -1.4199763536
1.13131392 -0.039402902126 -1.6238424778
1.2950839996 0.43719241023 -1.1507474184
1.3312772512 0.22585570812 -1.1736872196
1.3900567293 0.16493241489 -0.98555183411
1.2867888212 -0.0020165839233 -1.3539509773
1.2167036533 -0.36647164822 -1.397046566
1.3340332508 -0.23261781037 -1.1662479639
1.2597250938 -0.45417675376 -1.2178039551
1.2794393301 -0.55446332693 -1.0431691408
0.91002053022 0.48482677341 -1.766166687
1.0143868923 0.72618097067 -1.4723204374
1.0093449354 -0.7150143981 -1.485712409
1.1084614992 -0.352927953 -1.5860719681
1.0149849653 -0.14961253107 -1.7595050335
0.79781764746 -0.0042635183781 -1.9672130346
1.1967759132 0.64355039597 -1.1912325621
1.0396858454 -0.84164375067 -1.2928080559
1.3879184723 -0.17552685738 -0.98665606976
0.63349449635 0.13414829969 -2.0659315586
0.92050457001 1.0307738781 -1.1986578703
0.78935140371 0.31518232822 -1.9335706234
1.3743861914 0.0021007522009 -1.0785243511

CELLS 246 984
3 0 1 2
3 3 4 5
3 6 7 8
3 9 8 7
3 10 11 8
3 6 8 11
3 11 10 12
3 13 12 10
3 13 14 12
3 12 14 15
3 14 16 15
3 17 15 16
3 17 16 18
3 19 18 16
3 18 19 20
3 21 20 19
3 21 22 20
3 23 20 22
3 22 24 23
3 23 24 25
3 24 26 25
3 25 26 27
3 26 28 29
3 30 28 31
3 32 33 34
3 32 34 35
3 32 35 36
3 32 36 37
3 32 37 38
3 32 38 33
3 34 33 39
3 34 39 40
3 34 40 41
3 35 34 41
3 35 41 42
3 35 42 43
3 36 35 43
3 36 43 44
3 37 36 44
3 33 45 39
3 39 45 46
3 39 46 47
3 40 39 47
3 40 47 48
3 41 40 48
3 41 48 49
3 42 41 50
3 49 50 41
3 42 50 51
3 43 42 51
3 43 51 52
3 44 43 52
3 45 53 46
3 46 53 54
3 46 54 55
3 47 46 55
3 47 55 56
3 48 47 56
3 48 56 57
3 49 48 57
3 49 57 58
3 50 49 58
3 50 58 59
3 51 50 59
3 51 59 60
3 52 51 60
3 52 60 61
3 53 62 54
3 54 62 63
3 54 63 64
3 55 54 64
3 55 64 65
3 56 55 65
3 56 65 66
3 57 56 66
3 57 66 67
3 58 57 67
3 58 67 68
3 59 58 68
3 59 68 69
3 60 59 69
3 60 69 70
3 61 60 70
3 64 63 71
3 64 71 72
3 65 64 72
3 65 72 73
3 66 65 73
3 66 73 74
3 67 66 74
3 67 74 68
3 75 68 74
3 69 68 75
3 69 75 76
3 70 69 76
3 72 71 77
3 72 77 78
3 73 72 78
3 74 73 78
3 74 78 79
3 75 74 79
3 76 75 79
3 76 79 80
3 78 77 81
3 79 78 81
3 80 79 81
3 80 81 14
3 16 14 81
3 80 14 13
3 80 13 76
3 76 13 70
3 70 13 10
3 70 10 61
3 61 10 8
3 61 8 52
3 52 8 9
3 52 9 44
3 44 9 4
3 44 4 37
3 37 4 1
3 37 1 38
3 38 1 28
3 38 28 33
3 33 28 45
3 45 28 26
3 45 26 53
3 53 26 24
3 53 24 62
3 62 24 22
3 62 22 63
3 63 22 21
3 63 21 71
3 71 21 19
3 71 19 77
3 77 19 81
3 16 81 19
3 82 83 84
3 85 82 84
3 85 84 86
3 87 86 88
3 88 89 90
3 83 91 92
3 84 83 92
3 84 92 93
3 86 84 93
3 86 93 94
3 88 86 94
3 88 94 95
3 89 88 95
3 92 91 96
3 93 92 96
3 93 96 97
3 94 93 97
3 95 94 97
3 95 97 18
3 95 18 20
3 95 20 23
3 95 23 89
3 89 23 25
3 89 25 98
3 98 25 27
3 6 83 99
3 83 6 11
3 83 11 91
3 91 11 12
3 91 12 15
3 91 15 96
3 96 15 17
3 96 17 97
3 97 17 18
3 85 100 82
3 101 102 103
3 0 31 1
3 1 31 28
3 102 104 105
3 105 104 106
3 104 30 31
3 102 105 107
3 3 2 4
3 4 2 1
3 108 109 110
3 110 109 111
3 107 109 108
3 102 112 113
3 112 90 113
3 112 87 90
3 113 90 98
3 98 90 89
3 90 87 88
3 82 100 114
3 115 114 100
3 100 116 115
3 116 103 115
3 116 101 103
3 115 103 108
3 108 103 107
3 107 103 102
3 116 100 117
3 101 112 102
3 104 102 118
3 7 5 9
3 9 5 4
3 119 99 114
3 119 5 99
3 3 5 111
3 99 5 7
3 82 99 83
3 99 7 6
3 3 111 2
3 2 111 120
3 110 114 108
3 108 114 115
3 114 110 119
3 111 119 110
3 119 111 5
3 82 114 99
3 30 29 28
3 26 29 27
3 87 121 86
3 121 85 86
3 27 122 98
3 98 122 113
3 101 117 123
3 117 121 123
3 117 85 121
3 123 121 87
3 30 118 29
3 118 122 29
3 118 113 122
3 29 122 27
3 0 106 31
3 31 106 104
3 105 124 107
3 107 124 109
3 109 120 111
3 120 0 2
3 106 0 124
3 120 124 0
3 120 109 124
3 106 124 105
3 85 117 100
3 116 117 101
3 101 123 112
3 112 123 87
3 113 118 102
3 104 118 30

CELL_TYPES 246
5
5
5
5
5
5
5
5
5
5
5
5
5
5
5
5
5
5
5
5
5
5
5
5
5
5
5
5
5
5
5
5
5
5
5
5
5
5
5
5
5
5
5
5
5
5
5
5
5
5
5
5
5
5
5
5
5
5
5
5
5
5
5
5
5
5
5
5
5
5
5
5
5
5
5
5
5
5
5
5
5
5
5
5
5
5
5
5
5
5
5
5
5
5
5
5
5
5
5
5
5
5
5
5
5
5
5
5
5
5
5
5
5
5
5
5
5
5
5
5
5
5
5
5
5
5
5
5
5
5
5
5
5
5
5
5
5
5
5
5
5
5
5
5
5
5
5
5
5
5
5
5
5
5
5
5
5
5
5
5
5
5
5
5
5
5
5
5
5
5
5
5
5
5
5
5
5
5
5
5
5
5
5
5
5
5
5
5
5
5
5
5
5
5
5
5
5
5
5
5
5
5
5
5
5
5
5
5
5
5
5
5
5
5
5
5
5
5
5
5
5
5
5
5
5
5
5
5
5
5
5
5
5
5
5
5
5
5
5
5
5
5
5
5
5
5

CELL_DATA 246
SCALARS cell_data_0 double
LOOKUP_TABLE default
4.43214420943e-08
9.91239016228e-08
4.52538519308e-09
3.83249117192e-08
1.9836550682e-07
4.83609198924e-09
4.8165538063e-08
2.53891942973e-07
6.30575850676e-07
9.42623916449e-08
6.50335632051e-08
1.70701357239e-07
4.78542580897e-08
8.13248891222e-08
2.82163679221e-07
5.06027329787e-07
1.53471002485e-07
1.11897324924e-07
2.65754254308e-07
3.20389240013e-07
4.4217727795e-08
1.66312177384e-07
1.19017120788e-07
3.34935436597e-07
2.30256528207e-08
9.08284439359e-09
2.05993897173e-08
1.31630669749e-08
5.0983044383e-08
4.91827861704e-08
2.77410349228e-08
3.08181554691e-08
1.09036665089e-08
8.41849439891e-09
5.01080023457e-08
5.50455054567e-09
4.36064335245e-08
1.26307060538e-08
4.08559451382e-08
4.92875713268e-08
2.57294743476e-09
4.07731413587e-08
1.13079650171e-08
1.5398329217e-08
3.60602384655e-08
1.16624252944e-08
3.22827649591e-08
2.00740071188e-08
4.47877610724e-09
8.87882643887e-09
2.22990751713e-08
4.06640938319e-08
4.09059245377e-08
7.41003372233e-09
1.11986244049e-08
1.25204917241e-08
2.06186092419e-08
3.8793573345e-09
2.37670617399e-08
2.7588647746e-08
1.9920800572e-08
1.88000925273e-08
2.40424316071e-08
1.75420277173e-09
3.30988027008e-08
5.96549490727e-09
9.88709614408e-09
2.30339631107e-08
4.373564411e-09
1.48188020531e-08
3.04503176456e-08
4.33182080856e-09
8.86286442622e-09
1.69240848892e-08
2.76443896033e-09
3.35457381007e-09
2.11491642272e-08
8.71320271691e-09
3.63116137821e-08
6.15241838054e-09
1.9322101481e-08
4.22089760512e-09
8.00971941513e-11
3.29812295927e-08
1.58017035809e-08
8.77675460087e-09
6.92501051119e-09
1.5894923456e-09
1.52454606529e-08
2.11592129822e-08
1.40475398126e-08
1.74554800344e-08
1.76756952136e-08
1.108978096e-09
2.92377582285e-09
3.60821326696e-08
1.10314829085e-08
1.79534767086e-09
3.50456890579e-09
1.58277658893e-08
1.61166121274e-09
1.20470927456e-10
2.49395619461e-08
4.76905567563e-08
1.21367317542e-08
4.95394879506e-08
6.25602538863e-09
8.51946761918e-08
2.14288893849e-07
2.85205521233e-08
2.32623228422e-08
1.44859326393e-07
2.27992642757e-08
1.3634159511e-07
3.94511089517e-08
8.01055742917e-08
5.652701066e-08
9.23826844373e-08
1.41106436524e-08
4.11602971892e-07
1.55643761971e-08
3.94666496698e-07
4.53620095815e-08
4.33457358772e-08
1.39583934856e-07
5.41990420204e-08
8.13617053147e-08
5.00147879175e-08
1.68418126e-07
3.0679086728e-08
1.34867877319e-07
5.76562438389e-09
2.3004103537e-07
1.52898843065e-08
1.56709580443e-08
1.31028940532e-07
4.4952950195e-07
1.3298655261e-06
8.24641602063e-07
8.03214022463e-07
3.23958302081e-07
2.57420675076e-07
7.52127475715e-08
1.16415737966e-07
4.24712867083e-07
2.37291378393e-07
1.52867047457e-08
5.05161495929e-08
9.96527046006e-08
3.02598945285e-07
4.76446641814e-07
6.48516947015e-07
5.81390049292e-07
6.50302217902e-07
1.13041774732e-06
1.00685651403e-06
3.93421383149e-07
1.13746842207e-07
3.14670133256e-08
1.50155843051e-07
8.54026944831e-08
6.56211004656e-07
6.24804446168e-07
1.94410041952e-07
8.81293907624e-07
1.13245377283e-07
1.59475382686e-06
3.60830398569e-07
9.11074527601e-08
4.86520337208e-07
2.86366164949e-07
1.23389637755e-06
2.30445641558e-07
5.98799302573e-08
3.81021667195e-07
3.74462478024e-07
9.50900995275e-07
3.34324644888e-07
1.44215650664e-07
8.74199096283e-09
9.76263286775e-08
1.51356808029e-07
3.68772304299e-07
2.51945849212e-07
4.22144390454e-07
1.81300219432e-07
4.94999723834e-07
3.58163228735e-07
3.21957473396e-07
7.52579491705e-07
4.95972334393e-07
4.49750093654e-08
4.12032677301e-07
6.25284940416e-07
6.56870970469e-08
6.10372936595e-07
1.11664896777e-06
1.04133520014e-07
6.31042501513e-07
6.07799545955e-07
4.6973654999e-09
7.54280607878e-08
7.22654979722e-08
1.84184276724e-07
7.97184154426e-08
1.37309520155e-07
3.65930878165e-07
2.1625681108e-07
4.353776186e-07
4.80839783046e-07
1.03861389415e-07
1.88741515887e-07
4.81975325718e-07
1.66041745334e-07
3.18813160137e-07
8.64855146142e-08
4.11458478089e-08
2.21995994422e-08
7.45355121562e-07
5.69794537156e-07
5.17339240447e-08
1.45903928796e-07
5.36479019043e-08
5.40397268414e-08
4.63957400921e-09
1.31946426022e-07
4.81478662818e-07
3.90743404367e-07
2.94737043112e-07
7.36793481824e-08
3.23982972083e-07
5.36054805197e-07
1.01442085171e-07
6.41455039003e-08
1.1333284475e-07
3.1731226067e-07
5.9686081749e-08
3.8059923193e-08
1.88773978509e-07
2.37014844001e-07
5.24577108184e-08
7.14772327187e-07
1.51182420121e-07
1.17899982586e-08
2.03060049483e-07
6.76732729331e-08

