# vtk DataFile Version 3.0
File Name: Molecule/sphere_excent/sphere_excent_0-s15.vtk
ASCII
DATASET UNSTRUCTURED_GRID
FIELD FieldData 1
TIME 1 1 double
0.0
POINTS 136 double
0.0047628097236 1.6912387609 1.067425251
-1.0702158213 1.4886877537 0.79733109474
-0.65484464169 1.1234086752 1.518315196
-1.6236983538 0.60066771507 1.0012212992
-1.6884319782 1.0673178434 0.041818395257
0.75044846535 1.0291365385 1.5405778885
0.075564570725 0.88694423437 1.7897665501
0.6405044198 -1.0606254339 1.5676521063
0.0095483213663 -1.7080333233 1.0403858423
0.92205512524 -1.6482770443 0.65093505383
0.49536076188 -1.1868305206 -1.531472683
-0.01339652203 -1.7157566547 -1.0276147127
-0.63345170021 -1.0778623819 -1.5595316887
1.6180740595 -0.5157571435 1.0474820137
1.5527086258 0.51810526848 1.1480281353
1.0807551146 0.040486559272 1.6786638498
0.95030289888 1.5608547926 0.81056553125
-0.87442010641 -1.6795166731 -0.64261573553
0.0013217187952 -1.9993681908 0.0098158940673
-1.1853672266 -1.6059155464 0.080411463976
-0.89427775145 -1.6498128176 0.68886530399
-0.63999974728 -1.1906235218 1.4703317881
-1.1910731792 -0.0029186366592 1.6052994728
-1.6372497082 -0.52524280548 1.0188550949
-1.9915901423 0.12010546029 0.05962985009
0.90511375666 -1.6478201151 -0.67792731524
1.203817606 -1.5897635221 0.093957692385
0.0051158615388 1.999617815 0.0084691941738
-0.56305903196 1.8854973316 0.35836917162
-0.55000883341 1.8866281509 -0.36467239261
-1.091160059 1.6760867834 0.01224700734
-1.1473640203 1.4865089655 -0.68638962507
0.060380507261 1.7279419899 -1.0042896271
0.31302091479 1.8650057316 -0.63492125273
1.027446866 1.5989322662 -0.6122546196
1.0744415522 1.6863051653 0.043694928288
1.6705989838 1.0877436399 -0.13762263954
0.55032944679 1.9010664225 -0.25997576118
0.55803376436 1.8862791061 0.3603284657
1.6782257557 0.70012003183 -0.83048433065
1.3700615168 1.1669855118 -0.8724604845
1.1665662527 0.97006982565 -1.3030557632
0.83730834723 1.3340065479 -1.2261333466
1.7591918707 -0.94595789909 0.025780681521
1.9065511227 -0.36397248507 -0.48078376055
1.9890902042 -0.14628659189 0.13373433053
1.6125894785 -0.71850943565 -0.9396315217
1.7420591116 -0.15236914158 -0.97027653456
1.9179475307 0.29277640581 -0.48539862037
1.0865883827 0.020514708012 -1.6788671017
0.86394077539 -0.52750360966 -1.7250089645
0.5570987463 0.0140941469 -1.9206914902
0.27066650987 -0.5665474534 -1.8981137276
-0.037904251367 0.052853476256 -1.9986579418
1.3654265404 -0.42235830426 -1.3988946676
1.1477433443 -0.94350856543 -1.3380498886
0.33204972744 0.96884024143 -1.7166167498
1.4443593025 0.69212031364 -1.1978543997
0.87232923508 0.90305423737 -1.5566325188
0.84159529209 0.48124760389 -1.7492703199
1.1528835297 0.5684556365 -1.5323470831
1.4014911652 0.3396216929 -1.3857809305
1.6699931622 0.3059399426 -1.0569165945
1.4793442488 -0.0028850771487 -1.3458817005
-0.89892202616 0.50711941719 1.7123951912
-0.40372928977 0.57623779774 1.8720475435
-0.57754641771 -0.0022843405604 1.9147908688
-0.93610346317 -0.55735605955 1.6748086214
-0.33277636766 -0.54348295927 1.8941887617
-1.043487072 0.013557840139 -1.7059952021
-1.3639515638 -0.31295233965 -1.4287897348
-1.3764576912 0.35727518797 -1.4056808949
-1.7046848536 0.012294393964 -1.0461220741
-1.6035872698 -0.6824182272 -0.98009467125
-1.6056069136 0.75550717115 -0.91335749626
-0.9732105732 1.193803072 -1.2733310461
-0.86338025331 0.51636618376 -1.7283380032
-1.3280010223 -1.1637516022 0.93544912338
-0.36520695686 -0.45099449158 -1.9141207933
-0.58501660824 0.035886127502 -1.9120596647
-0.83085143566 -0.43985620141 -1.7655435801
-0.35327783227 0.54837155342 -1.890550971
-0.56657922268 0.99646377563 -1.6376627684
0.4216222167 0.47380119562 1.8961479664
1.8811519146 0.28745174408 0.61320739985
1.9263439178 0.52893686295 0.098549507558
1.7267473936 0.86013716459 0.52785128355
1.4292577505 1.3349680901 0.41925853491
1.3686449528 1.1171398163 0.93685382605
-0.30877837539 1.4110511541 -1.3813441992
-0.57603025436 1.6573815346 -0.95905768871
0.4536665976 1.5645000935 -1.1528406143
-0.074881121516 0.30191886425 1.9753196239
0.18720345199 -0.053503327072 1.9891682863
-0.067618079484 -0.30760079622 1.9743310213
-1.6842513084 -0.93415600061 -0.53913319111
-1.8790823221 -0.44417637587 -0.51941549778
-1.3390129805 -1.224542141 -0.83963471651
-1.3913816214 -1.3845876455 -0.38202616572
-1.6824327707 -1.0735172033 0.11270870268
-1.4241840839 -1.3491063118 0.38690423965
-1.6892100573 -0.92948198318 0.53120791912
1.6902301311 -0.95279848576 -0.4851218164
1.3838686943 -1.2071861029 -0.79195916653
1.3896489143 -1.3904824257 -0.36253491044
-1.5346487761 -1.2788168192 -0.063960909843
-1.7120434046 -1.0136139393 -0.20030322671
1.3429008722 -1.1656149626 0.9068646431
0.92048877478 -0.5353192091 1.6892784834
1.7218503952 -0.86183351278 0.54037374258
1.436852932 -1.339394927 0.37307599187
-1.8400535583 -0.74291467667 -0.24922056496
-1.8171998262 -0.82996410131 0.052677027881
-1.9225773811 -0.54472953081 0.059861391783
1.5625399351 -1.2443784475 -0.092911824584
-1.8465604782 -0.56488406658 0.51830202341
-0.011750637554 -1.1550978422 1.6316351891
0.42179200053 -0.53488099575 1.8806259632
0.62068492174 -0.06734585762 1.8997168541
-0.44080638885 -0.88260000944 1.7397079468
0.13092556596 -0.80603051186 1.8253439665
-1.835162878 -0.21692061424 -0.76405155659
-1.9284056425 0.083697974682 -0.5218500495
-1.9376008511 -0.28845721483 -0.39963161945
-1.8921046257 0.58450865746 -0.27933084965
-1.7095507383 0.93091762066 -0.45723387599
-1.9071619511 -0.2192171216 0.55421882868
0.78281152248 1.7779521942 -0.47517687082
0.57540518045 1.7222437859 -0.83785867691
0.92215418816 1.5102885962 -0.93191093206
-1.9831279516 -0.23330493271 0.084173254669
-1.923225522 -0.49350491166 -0.23961506784
-1.8198121786 0.42671990395 -0.71163100004
-1.9970847368 -0.055956739932 -0.098377086222
-1.9663258791 -0.34645479918 -0.11218380928
-1.9761232138 -0.17081862688 -0.25520581007

CELLS 268 1072
3 0 1 2
3 1 3 2
3 1 4 3
3 5 0 6
3 7 8 9
3 10 11 12
3 13 14 15
3 16 0 5
3 14 5 15
3 17 18 19
3 17 11 18
3 20 18 8
3 20 8 21
3 22 3 23
3 3 4 24
3 12 11 17
3 11 25 18
3 9 18 26
3 18 9 8
3 10 25 11
3 27 28 0
3 0 28 1
3 27 29 28
3 29 30 28
3 29 31 30
3 28 30 1
3 32 29 33
3 1 30 4
3 30 31 4
3 34 35 36
3 37 38 35
3 37 27 38
3 35 38 16
3 16 38 0
3 38 27 0
3 39 40 36
3 36 40 34
3 41 42 40
3 43 44 45
3 46 47 44
3 47 48 44
3 44 48 45
3 48 39 36
3 49 50 51
3 50 52 51
3 50 10 52
3 51 52 53
3 12 52 10
3 49 54 50
3 54 55 50
3 54 46 55
3 50 55 10
3 10 55 25
3 51 53 56
3 46 54 47
3 39 57 40
3 57 41 40
3 41 58 42
3 58 56 42
3 56 58 59
3 58 60 59
3 58 41 60
3 59 60 49
3 49 60 61
3 60 57 61
3 60 41 57
3 61 57 62
3 47 62 48
3 62 39 48
3 39 62 57
3 62 63 61
3 62 47 63
3 61 63 49
3 56 59 51
3 51 59 49
3 49 63 54
3 54 63 47
3 22 64 3
3 3 64 2
3 2 64 65
3 64 66 65
3 64 22 66
3 22 67 66
3 67 68 66
3 69 70 71
3 70 72 71
3 70 73 72
3 71 72 74
3 71 75 76
3 21 67 77
3 23 67 22
3 73 70 12
3 53 78 79
3 78 80 79
3 78 12 80
3 79 80 69
3 53 81 56
3 81 82 56
3 53 79 81
3 79 76 81
3 79 69 76
3 81 76 82
3 12 78 52
3 52 78 53
3 82 76 75
3 71 76 69
3 69 80 70
3 70 80 12
3 5 83 15
3 45 84 13
3 84 14 13
3 45 85 84
3 85 86 84
3 85 36 86
3 84 86 14
3 36 87 86
3 87 88 86
3 87 16 88
3 86 88 14
3 14 88 5
3 5 88 16
3 32 89 90
3 89 75 90
3 89 82 75
3 90 75 31
3 31 75 74
3 74 75 71
3 82 89 56
3 56 89 91
3 32 90 29
3 29 90 31
3 16 87 35
3 35 87 36
3 36 85 48
3 48 85 45
3 65 6 2
3 2 6 0
3 65 92 6
3 92 83 6
3 92 93 83
3 6 83 5
3 93 92 94
3 66 92 65
3 73 95 96
3 17 97 12
3 12 97 73
3 73 97 95
3 97 98 95
3 97 17 98
3 99 100 101
3 100 77 101
3 100 20 77
3 101 77 23
3 23 77 67
3 21 77 20
3 46 102 103
3 102 104 103
3 103 104 25
3 43 102 44
3 44 102 46
3 46 103 55
3 55 103 25
3 99 105 100
3 105 19 100
3 105 98 19
3 100 19 20
3 20 19 18
3 17 19 98
3 95 98 106
3 9 107 7
3 7 107 108
3 13 107 109
3 107 110 109
3 107 9 110
3 109 110 43
3 13 109 45
3 45 109 43
3 95 111 96
3 95 106 111
3 106 112 111
3 106 99 112
3 111 112 113
3 104 26 25
3 25 26 18
3 104 114 26
3 114 110 26
3 114 43 110
3 26 110 9
3 43 114 102
3 102 114 104
3 113 112 115
3 101 112 99
3 99 106 105
3 105 106 98
3 7 116 8
3 8 116 21
3 93 117 118
3 117 108 118
3 117 7 108
3 118 108 15
3 15 108 13
3 13 108 107
3 21 119 67
3 67 119 68
3 68 94 66
3 66 94 92
3 93 94 117
3 94 120 117
3 94 68 120
3 117 120 7
3 7 120 116
3 120 119 116
3 120 68 119
3 116 119 21
3 93 118 83
3 83 118 15
3 96 121 73
3 73 121 72
3 72 121 122
3 122 121 123
3 4 124 24
3 24 124 122
3 74 125 31
3 31 125 4
3 24 126 3
3 3 126 23
3 34 127 35
3 127 37 35
3 37 33 27
3 27 33 29
3 32 33 128
3 33 127 128
3 33 37 127
3 128 127 34
3 42 129 40
3 40 129 34
3 34 129 128
3 129 91 128
3 129 42 91
3 128 91 32
3 32 91 89
3 56 91 42
3 24 130 126
3 130 115 126
3 130 113 115
3 126 115 23
3 23 115 101
3 101 115 112
3 113 131 111
3 111 131 96
3 122 132 72
3 72 132 74
3 74 132 125
3 132 124 125
3 132 122 124
3 125 124 4
3 24 133 130
3 133 134 130
3 133 135 134
3 130 134 113
3 113 134 131
3 134 123 131
3 134 135 123
3 131 123 96
3 96 123 121
3 122 123 135
3 135 133 122
3 122 133 24

CELL_TYPES 268
5
5
5
5
5
5
5
5
5
5
5
5
5
5
5
5
5
5
5
5
5
5
5
5
5
5
5
5
5
5
5
5
5
5
5
5
5
5
5
5
5
5
5
5
5
5
5
5
5
5
5
5
5
5
5
5
5
5
5
5
5
5
5
5
5
5
5
5
5
5
5
5
5
5
5
5
5
5
5
5
5
5
5
5
5
5
5
5
5
5
5
5
5
5
5
5
5
5
5
5
5
5
5
5
5
5
5
5
5
5
5
5
5
5
5
5
5
5
5
5
5
5
5
5
5
5
5
5
5
5
5
5
5
5
5
5
5
5
5
5
5
5
5
5
5
5
5
5
5
5
5
5
5
5
5
5
5
5
5
5
5
5
5
5
5
5
5
5
5
5
5
5
5
5
5
5
5
5
5
5
5
5
5
5
5
5
5
5
5
5
5
5
5
5
5
5
5
5
5
5
5
5
5
5
5
5
5
5
5
5
5
5
5
5
5
5
5
5
5
5
5
5
5
5
5
5
5
5
5
5
5
5
5
5
5
5
5
5
5
5
5
5
5
5
5
5
5
5
5
5
5
5
5
5
5
5
5
5
5
5
5
5
5
5
5
5
5
5

CELL_DATA 268
SCALARS cell_data_0 double
LOOKUP_TABLE default
8.69029699726e-06
8.38809645211e-06
1.60904270471e-05
2.39418624548e-05
1.63480092734e-05
1.30399876949e-05
1.72347185867e-05
1.5796398724e-05
2.58654761323e-05
3.42003676114e-06
7.64423076272e-06
4.39300879292e-06
1.24458048969e-05
1.46008585067e-06
2.27098175624e-05
1.18047119258e-05
5.43764859127e-06
2.62351548827e-06
4.19873118805e-06
9.13657789315e-06
3.70974099374e-06
7.49343005307e-06
1.12836597835e-06
1.63684962204e-06
2.06423186916e-06
3.37296534664e-06
1.3516470604e-05
1.91322479471e-06
4.03948142075e-06
3.81957292966e-05
1.50215254178e-06
1.45147215919e-06
2.96493243946e-06
6.2999348738e-06
3.46400218523e-06
1.14990867159e-05
3.3831717965e-05
2.77311101744e-07
4.42445341239e-07
9.11692178605e-07
1.21495846892e-06
6.02204337517e-07
9.51332287948e-06
1.20812506228e-05
1.22568391086e-08
5.23387364133e-07
9.96436324854e-07
1.25636059448e-06
1.13604038438e-05
2.15064312209e-07
4.25043390198e-07
2.66518682994e-07
5.1575949226e-07
6.66404048826e-06
5.8647935874e-07
2.72907782253e-06
2.09433914684e-07
2.58613929606e-07
1.73052177914e-06
1.85581427334e-06
1.67707528591e-08
1.10112625102e-07
7.49061401685e-06
7.0112827823e-06
1.1798589979e-07
1.92341667297e-07
7.13735216949e-06
1.07721616476e-05
1.75090017732e-05
1.30982558105e-05
2.50077617164e-05
3.24562937006e-05
2.74167180271e-05
2.94766646263e-06
1.03369266948e-05
3.47099885903e-05
1.5439078827e-05
4.04155357201e-05
4.39602001852e-05
4.97650472042e-06
3.29077225419e-06
1.37629247559e-05
1.93771290425e-05
2.99732209109e-05
1.92625211825e-05
1.27965663667e-07
3.29198438505e-08
6.60152674588e-09
1.4038559073e-06
1.20302144166e-05
1.74379078029e-05
1.30550344491e-07
1.08071189192e-06
1.85105441075e-07
4.64906685855e-07
1.5697604393e-05
1.2989040658e-05
1.15912555791e-05
4.04141452773e-06
2.339406087e-06
1.65388804406e-05
3.19503938179e-06
6.01055205311e-07
1.25944570837e-06
1.96986131791e-06
1.83739555283e-05
1.70487410574e-05
6.13412032209e-09
2.60933525373e-05
4.16494256754e-06
8.28808503129e-06
1.13742402923e-06
2.09155439238e-06
7.40809748375e-07
3.6819274286e-06
2.8786597138e-05
1.55590247715e-05
1.74635715082e-05
4.59851194723e-06
1.17318139557e-05
8.17801752475e-06
1.52035002408e-05
4.57849294312e-06
3.35288265748e-06
6.84467155244e-06
5.88449115888e-06
2.16688988208e-06
6.88950490553e-06
6.30280526842e-06
1.7808246525e-05
4.90840466828e-06
2.44535715724e-05
4.22437430619e-05
2.83409544464e-07
6.33678309386e-08
1.83750665042e-05
2.2101040072e-05
1.87834052246e-05
1.12578814772e-05
8.17253111353e-06
1.69612260051e-05
1.38460293463e-05
2.48016141206e-05
4.40329674575e-07
9.0032672512e-05
8.29815811134e-05
3.2568910926e-05
8.3095550817e-05
0.00010800347001
1.34491964258e-06
2.52007435375e-06
3.40344944418e-06
4.08289345224e-06
1.08202213482e-05
9.12975964339e-06
7.32183719437e-07
7.8100747548e-07
2.62362756554e-07
9.45285527623e-07
5.06412269753e-07
3.0679882877e-07
1.96315486693e-07
5.17666357882e-07
5.07578924898e-07
2.2209390064e-05
1.64190548287e-06
4.7558975184e-06
4.22384245928e-05
2.48250808041e-05
1.13457391564e-05
1.41528708857e-05
3.92413958974e-06
2.46848837705e-06
2.87805127045e-06
1.61114170186e-06
2.26689126068e-06
1.67630924549e-07
3.29441087965e-07
4.34403824188e-07
4.50392668717e-06
3.57225165509e-06
1.86809100314e-05
2.86666900921e-09
2.73386627825e-06
4.50965443872e-07
2.06757475295e-07
5.36154914564e-07
4.66341401607e-07
1.73656113524e-08
3.29662798733e-07
2.68920981398e-05
2.87906119286e-06
3.87847749033e-07
1.95129126508e-05
1.51917753118e-05
1.3347040807e-05
1.01172604285e-05
1.00028683076e-05
1.06746979128e-05
1.00212366111e-05
1.46195815964e-05
1.29700427849e-05
7.23618559171e-06
6.71172298786e-06
2.12426833304e-05
3.67280769085e-05
1.56084384791e-05
1.69123722621e-05
1.6774544794e-05
1.43154082232e-05
1.14981190848e-05
1.06476356178e-05
1.41394637241e-05
6.56947708132e-06
9.99705087647e-06
1.11141918603e-05
1.13143572983e-05
1.41305957832e-05
3.11202374868e-05
2.70204296437e-05
1.59516490455e-07
2.18121326572e-05
1.9237896264e-06
3.51347628895e-06
6.71132988539e-06
1.56263930915e-06
1.00346303288e-05
2.71665219171e-07
3.8244795936e-07
2.82282298395e-07
6.9836683396e-06
6.01264217274e-07
1.92460586663e-07
8.53355000071e-06
6.06830197195e-08
1.00442937164e-05
8.95021453201e-06
6.66181871465e-07
7.31901452287e-08
6.95259204433e-06
1.04662120687e-05
2.07836161975e-06
8.3650940836e-07
1.01111683739e-06
1.39058004376e-05
1.7256702824e-06
2.03242393767e-06
4.93967397962e-06
8.90691837557e-06
1.17093396498e-07
1.71203203926e-05
7.9943957717e-08
8.4585549871e-08
3.49683481535e-07
1.41813262301e-05
2.97346396942e-07
1.5117220195e-07
1.52351354811e-07
1.8577584711e-06
6.04368908184e-06
5.82374494784e-06
3.44551137986e-08
1.87395083474e-06
7.01046313241e-08
4.15942748798e-06
1.20182284119e-05
1.20433576299e-05
7.82204206785e-06

