# vtk DataFile Version 3.0
File Name: Molecule/sphere_excent/sphere_excent_0-s16.vtk
ASCII
DATASET UNSTRUCTURED_GRID
FIELD FieldData 1
TIME 1 1 double
0.0
POINTS 143 double
0.0047543891706 1.6892855167 1.0703486204
-1.0728845596 1.4855768681 0.7997610569
-0.66088062525 1.1304935217 1.5106059313
-1.6232908964 0.60113120079 1.0016548634
-1.6831573248 1.0758804083 0.062652289867
0.76290994883 1.0317649841 1.5329778194
0.070203095675 0.8994718194 1.7838822603
0.64493703842 -1.0844402313 1.5503740311
0.011009297334 -1.708802104 1.0391134024
0.9035205245 -1.6534656286 0.66550374031
0.48901617527 -1.1953202486 -1.526643157
-0.015148740262 -1.7173029184 -1.0249927044
-0.63123834133 -1.0595275164 -1.569720149
1.6219872236 -0.48818281293 1.056732893
1.5476031303 0.51150178909 1.1583309174
1.0903930664 0.057770427316 1.6727683544
0.94215542078 1.5627563 0.81681632996
-0.84382712841 -1.695264101 -0.63133877516
0.0026895636693 -1.9996021986 0.011392981745
-1.1722033024 -1.6161829233 0.071108691394
-0.87813508511 -1.6550452709 0.69902384281
-0.65069293976 -1.2094439268 1.4513220787
-1.2013698816 -0.0040285335854 1.5979133844
-1.6297768354 -0.51545959711 1.0365260839
-1.9888813496 0.15377113223 0.068945914507
0.8894687295 -1.6505858898 -0.69100576639
1.1900924444 -1.6013643742 0.080003641546
0.0064941411838 1.9995394945 0.014712234959
-0.56517904997 1.884395957 0.36067929864
-0.54328024387 1.8877090216 -0.37112751603
-1.09322083 1.6747616529 0.015234807506
-1.1561570168 1.4825730324 -0.68043035269
0.039750553668 1.7293661833 -1.0030344725
0.29606944323 1.8779989481 -0.60859674215
1.0473227501 1.5915291309 -0.59979975224
1.0756831169 1.6854605675 0.04625203833
1.6670930386 1.0922453403 -0.14952884614
0.54776954651 1.9074839354 -0.22609460354
0.55807995796 1.885155201 0.36584487557
1.6805489063 0.70750957727 -0.81992340088
1.3688607216 1.1688399315 -0.87183433771
1.1666053534 0.97224885225 -1.3014240265
0.84651327133 1.3162879944 -1.2410469055
1.7712966204 -0.92464220524 0.022951608524
1.9060425758 -0.37090605497 -0.47764119506
1.9879080057 -0.16179378331 0.13707022369
1.6117013693 -0.71412473917 -0.94457578659
1.7434141636 -0.15746447444 -0.96706426144
1.9189985991 0.29036656022 -0.48266479373
1.0887085199 0.019838090986 -1.6775115728
0.8629784584 -0.53092628717 -1.7244471312
0.55714190006 0.013921592385 -1.9207048416
0.26544380188 -0.57231605053 -1.8972039223
-0.035682883114 0.054015643895 -1.9986979961
1.3644750118 -0.42723804712 -1.3983653784
1.145124197 -0.95227193832 -1.3342106342
0.3199814558 0.96528822184 -1.7210402489
1.446991086 0.69327515364 -1.1939928532
0.87173497677 0.9018432498 -1.5576876402
0.83949702978 0.47953814268 -1.7507466078
1.1526401043 0.57417398691 -1.530395627
1.4017590284 0.33950507641 -1.3855471611
1.6716825962 0.30788072944 -1.0536552668
1.4822641611 -0.0050017908216 -1.3426702023
-0.90574604273 0.50804960728 1.7084954977
-0.41148909926 0.58205550909 1.8686128855
-0.5847710371 -0.0023607301991 1.9126271009
-0.94727021456 -0.56859564781 1.6652209759
-0.34746927023 -0.53741121292 1.893589139
-1.0446383953 0.017489101738 -1.7052365541
-1.3610357046 -0.33049058914 -1.4244501591
-1.3749961853 0.36285611987 -1.4057626724
-1.6989901066 0.016695786268 -1.055791378
-1.6034458876 -0.68275314569 -0.98116725683
-1.5885710716 0.76577073336 -0.9372934103
-0.98087769747 1.1844288111 -1.2767962217
-0.86401993036 0.52118659019 -1.7265940905
-1.3189231157 -1.1610739231 0.95231324434
-1.0383099318 -1.1563218832 -1.2497365475
-0.36277592182 -0.4468074739 -1.9154472351
-0.5855203867 0.038428705186 -1.9119490385
-0.83469188213 -0.45002391934 -1.7595970631
-0.35232573748 0.54814612865 -1.8908145428
-0.55836576223 0.99530309439 -1.641351819
0.4306204915 0.47147351503 1.8947800398
1.8800159693 0.28143545985 0.61964708567
1.927085042 0.52578139305 0.10075448453
1.726770401 0.85891908407 0.5297601819
1.4283448458 1.335157156 0.42164999247
1.3655792475 1.1164810658 0.9421518445
-0.29743421078 1.4129722118 -1.3822901249
-0.58254039288 1.6539568901 -0.96102267504
0.44005313516 1.5555582047 -1.1717965603
-0.073109783232 0.30004200339 1.9757361412
0.20483656228 -0.045389786363 1.9881296158
-0.065415225923 -0.30181232095 1.9754220247
-1.6971076727 -0.90832334757 -0.53882932663
-1.8644239902 -0.47942849994 -0.52884298563
-1.6768698692 -1.0814660788 0.12696237862
-1.4219856262 -1.3491514921 0.39725849032
-1.6817679405 -0.93763417006 0.54036837816
1.6886073351 -0.95536106825 -0.48567402363
1.384837985 -1.2025063038 -0.79731416702
1.3853535652 -1.3921891451 -0.37345197797
-1.5287173986 -1.2875468731 -0.056875281036
-1.3946834803 -1.3860914707 -0.35975974798
1.3341215849 -1.1600244045 0.9281976819
0.94169747829 -0.5426286459 1.6760425568
1.7217177153 -0.85994619131 0.54340004921
1.4405021667 -1.3331980705 0.38204544783
-1.8389737606 -0.74539703131 -0.24984206259
-1.7104096413 -1.0170906782 -0.19973948598
-1.8172824383 -0.8293979764 0.077249057591
-1.9229999781 -0.5465683341 0.056769363582
1.5597569942 -1.2486447096 -0.084551542997
-1.8487197161 -0.56825423241 0.50768172741
-1.5577600002 -1.1697714329 -0.45040601492
-0.016737055033 -1.1679711342 1.6225452423
0.43061190844 -0.52696943283 1.8808168173
0.62595319748 -0.074853375554 1.8976074457
-0.43426477909 -0.8897536993 1.7376979589
0.11742883176 -0.80521291494 1.8267880678
-1.8363876343 -0.2234698832 -0.75913214684
-1.929895997 0.089210905135 -0.51579087973
-1.935153842 -0.28333163261 -0.41762295365
-1.892645359 0.57932007313 -0.28691512346
-1.7058360577 0.93334937096 -0.46613267064
-1.907222867 -0.20385247469 0.56050932407
0.77559560537 1.7809888124 -0.4751265347
0.57698905468 1.7231743336 -0.83487588167
0.91773444414 1.5118193626 -0.93365228176
-1.9821785688 -0.23529168963 0.11634747684
-1.9223463535 -0.49412122369 -0.24513241649
-1.8201818466 0.43482512236 -0.7061881423
-1.9968849421 -0.061741363257 -0.096230365336
-1.9684041739 -0.33571693301 -0.1107082814
-1.9756894112 -0.16977643967 -0.25905632973
-0.77682727575 -1.4474362135 -1.1408711672
-1.107036829 -1.470009923 -0.77866899967
-1.3320198059 -1.2163438797 -0.86037683487
-1.529394269 -1.0849705935 -0.69474899769
-1.3686190844 -1.3212872744 -0.61694824696
-1.1577923298 -1.5479838848 -0.51311302185

CELLS 282 1128
3 0 1 2
3 1 3 2
3 1 4 3
3 5 0 6
3 7 8 9
3 10 11 12
3 13 14 15
3 16 0 5
3 14 5 15
3 17 18 19
3 17 11 18
3 20 18 8
3 20 8 21
3 22 3 23
3 3 4 24
3 11 25 18
3 9 18 26
3 18 9 8
3 10 25 11
3 27 28 0
3 0 28 1
3 27 29 28
3 29 30 28
3 29 31 30
3 28 30 1
3 32 29 33
3 1 30 4
3 30 31 4
3 34 35 36
3 37 38 35
3 37 27 38
3 35 38 16
3 16 38 0
3 38 27 0
3 39 40 36
3 36 40 34
3 41 42 40
3 43 44 45
3 46 47 44
3 47 48 44
3 44 48 45
3 48 39 36
3 49 50 51
3 50 52 51
3 50 10 52
3 51 52 53
3 12 52 10
3 49 54 50
3 54 55 50
3 54 46 55
3 50 55 10
3 10 55 25
3 51 53 56
3 46 54 47
3 39 57 40
3 57 41 40
3 41 58 42
3 58 56 42
3 56 58 59
3 58 60 59
3 58 41 60
3 59 60 49
3 49 60 61
3 60 57 61
3 60 41 57
3 61 57 62
3 47 62 48
3 62 39 48
3 39 62 57
3 62 63 61
3 62 47 63
3 61 63 49
3 56 59 51
3 51 59 49
3 49 63 54
3 54 63 47
3 22 64 3
3 3 64 2
3 2 64 65
3 64 66 65
3 64 22 66
3 22 67 66
3 67 68 66
3 69 70 71
3 70 72 71
3 70 73 72
3 71 72 74
3 71 75 76
3 21 67 77
3 23 67 22
3 73 70 78
3 53 79 80
3 79 81 80
3 79 12 81
3 80 81 69
3 53 82 56
3 82 83 56
3 53 80 82
3 80 76 82
3 80 69 76
3 82 76 83
3 12 79 52
3 52 79 53
3 83 76 75
3 71 76 69
3 69 81 70
3 70 81 78
3 5 84 15
3 45 85 13
3 85 14 13
3 45 86 85
3 86 87 85
3 86 36 87
3 85 87 14
3 36 88 87
3 88 89 87
3 88 16 89
3 87 89 14
3 14 89 5
3 5 89 16
3 32 90 91
3 90 75 91
3 90 83 75
3 91 75 31
3 31 75 74
3 74 75 71
3 83 90 56
3 56 90 92
3 32 91 29
3 29 91 31
3 16 88 35
3 35 88 36
3 36 86 48
3 48 86 45
3 65 6 2
3 2 6 0
3 65 93 6
3 93 84 6
3 93 94 84
3 6 84 5
3 94 93 95
3 66 93 65
3 73 96 97
3 98 99 100
3 99 77 100
3 99 20 77
3 100 77 23
3 23 77 67
3 21 77 20
3 46 101 102
3 101 103 102
3 102 103 25
3 43 101 44
3 44 101 46
3 46 102 55
3 55 102 25
3 98 104 99
3 104 19 99
3 104 105 19
3 99 19 20
3 20 19 18
3 9 106 7
3 7 106 107
3 13 106 108
3 106 109 108
3 106 9 109
3 108 109 43
3 13 108 45
3 45 108 43
3 96 110 97
3 96 111 110
3 111 112 110
3 111 98 112
3 110 112 113
3 103 26 25
3 25 26 18
3 103 114 26
3 114 109 26
3 114 43 109
3 26 109 9
3 43 114 101
3 101 114 103
3 113 112 115
3 100 112 98
3 98 111 104
3 105 104 116
3 7 117 8
3 8 117 21
3 94 118 119
3 118 107 119
3 118 7 107
3 119 107 15
3 15 107 13
3 13 107 106
3 21 120 67
3 67 120 68
3 68 95 66
3 66 95 93
3 94 95 118
3 95 121 118
3 95 68 121
3 118 121 7
3 7 121 117
3 121 120 117
3 121 68 120
3 117 120 21
3 94 119 84
3 84 119 15
3 97 122 73
3 73 122 72
3 72 122 123
3 123 122 124
3 4 125 24
3 24 125 123
3 74 126 31
3 31 126 4
3 24 127 3
3 3 127 23
3 34 128 35
3 128 37 35
3 37 33 27
3 27 33 29
3 32 33 129
3 33 128 129
3 33 37 128
3 129 128 34
3 42 130 40
3 40 130 34
3 34 130 129
3 130 92 129
3 130 42 92
3 129 92 32
3 32 92 90
3 56 92 42
3 24 131 127
3 131 115 127
3 131 113 115
3 127 115 23
3 23 115 100
3 100 115 112
3 113 132 110
3 110 132 97
3 123 133 72
3 72 133 74
3 74 133 126
3 133 125 126
3 133 123 125
3 126 125 4
3 24 134 131
3 134 135 131
3 134 136 135
3 131 135 113
3 113 135 132
3 135 124 132
3 135 136 124
3 132 124 97
3 97 124 122
3 123 124 136
3 136 134 123
3 123 134 24
3 17 137 11
3 11 137 12
3 17 138 137
3 138 78 137
3 138 139 78
3 137 78 12
3 12 78 81
3 78 139 73
3 139 140 73
3 73 140 96
3 139 141 140
3 141 116 140
3 141 105 116
3 140 116 96
3 139 138 141
3 138 142 141
3 138 17 142
3 141 142 105
3 105 142 19
3 19 142 17
3 96 116 111
3 111 116 104

CELL_TYPES 282
5
5
5
5
5
5
5
5
5
5
5
5
5
5
5
5
5
5
5
5
5
5
5
5
5
5
5
5
5
5
5
5
5
5
5
5
5
5
5
5
5
5
5
5
5
5
5
5
5
5
5
5
5
5
5
5
5
5
5
5
5
5
5
5
5
5
5
5
5
5
5
5
5
5
5
5
5
5
5
5
5
5
5
5
5
5
5
5
5
5
5
5
5
5
5
5
5
5
5
5
5
5
5
5
5
5
5
5
5
5
5
5
5
5
5
5
5
5
5
5
5
5
5
5
5
5
5
5
5
5
5
5
5
5
5
5
5
5
5
5
5
5
5
5
5
5
5
5
5
5
5
5
5
5
5
5
5
5
5
5
5
5
5
5
5
5
5
5
5
5
5
5
5
5
5
5
5
5
5
5
5
5
5
5
5
5
5
5
5
5
5
5
5
5
5
5
5
5
5
5
5
5
5
5
5
5
5
5
5
5
5
5
5
5
5
5
5
5
5
5
5
5
5
5
5
5
5
5
5
5
5
5
5
5
5
5
5
5
5
5
5
5
5
5
5
5
5
5
5
5
5
5
5
5
5
5
5
5
5
5
5
5
5
5
5
5
5
5
5
5
5
5
5
5
5
5
5
5
5
5
5
5

CELL_DATA 282
SCALARS cell_data_0 double
LOOKUP_TABLE default
8.9863797503e-06
7.01207594943e-06
1.5041198094e-05
2.54487313482e-05
1.5078266495e-05
1.29333296051e-05
1.61244971325e-05
1.54806245525e-05
2.44851501705e-05
3.5345008768e-06
7.32671896741e-06
4.23187303754e-06
1.16162394103e-05
7.24667548861e-07
2.13060893785e-05
5.38792587936e-06
3.18814053564e-06
4.03131005432e-06
8.91258090806e-06
3.76677485307e-06
7.62397820137e-06
1.17425659977e-06
1.68586859974e-06
2.10639940333e-06
3.41704400701e-06
1.37026758272e-05
1.89311028025e-06
4.08356381974e-06
3.60742261361e-05
1.46566444448e-06
1.40118989457e-06
2.98397716252e-06
6.25214203001e-06
3.4828294202e-06
1.13117164503e-05
3.17055949664e-05
2.5583318207e-07
4.93023662873e-07
9.09067062517e-07
1.22882636573e-06
6.17868212427e-07
9.43386891099e-06
1.15448246453e-05
4.43634601192e-09
5.17097823139e-07
9.93758490217e-07
1.24044932532e-06
1.07987434016e-05
2.20419889571e-07
4.32518645566e-07
2.60459148025e-07
4.94826995217e-07
6.67409925497e-06
5.80292750266e-07
2.78131511214e-06
2.10980158845e-07
2.39476400945e-07
1.74207066484e-06
1.92607038017e-06
1.24408455444e-08
1.07101407576e-07
7.22815179811e-06
6.72715826128e-06
1.18731897306e-07
1.93681096009e-07
7.13429896192e-06
1.07790842856e-05
1.77256466637e-05
1.32837315599e-05
2.51105210988e-05
3.25088942693e-05
2.69079845168e-05
2.99409265285e-06
9.80212994404e-06
3.41265208509e-05
1.53975793206e-05
3.96067310881e-05
4.25960156969e-05
4.54434476429e-06
3.15649173847e-06
1.38816616516e-05
1.95548621472e-05
2.95953218616e-05
1.9501894971e-05
1.50372290774e-07
8.18530909784e-08
5.27040223949e-09
2.10166724194e-06
1.18713534604e-05
1.68556104566e-05
6.74881535298e-08
1.05928563192e-06
1.71458875027e-07
4.12811339652e-07
1.58887549264e-05
1.31158020533e-05
1.15267254433e-05
4.16246942151e-06
2.81771421159e-06
1.71167840677e-05
3.68592387684e-06
5.52776457117e-07
1.21880007484e-06
2.56762728474e-06
1.8914650099e-05
1.72552966938e-05
4.07929312712e-07
2.56659059432e-05
4.22745618658e-06
8.15392512922e-06
1.20920914261e-06
2.16126333462e-06
8.18120750896e-07
3.80366607539e-06
1.19419228091e-06
1.03926109379e-05
1.18852198046e-05
9.14819687085e-06
9.88317132808e-06
1.6565497778e-05
1.53296902204e-05
5.52295916029e-06
5.13713947977e-06
5.9713076746e-06
6.1522834092e-06
2.32203326952e-06
9.18616038599e-06
9.41055381089e-06
1.52133657916e-05
3.78899435615e-06
3.08805261175e-06
9.57939443739e-07
3.32716186608e-07
5.31839882749e-09
2.04823431893e-05
2.4078131546e-05
1.91956808391e-05
1.39903970056e-05
1.11824490161e-05
1.73998682082e-05
9.16487479725e-06
2.11849441525e-05
4.22934167702e-07
1.51822347982e-05
1.94027220246e-05
2.90699189086e-05
4.34116819783e-06
1.09320691183e-05
8.79293757155e-06
1.28439720549e-06
1.80717934984e-06
1.05299723227e-06
7.14503834019e-07
2.96708821772e-07
6.07038361544e-07
5.96676958133e-07
1.24340630283e-05
1.95753271417e-05
1.75219852973e-05
2.95350071365e-05
5.02875170075e-06
1.0652110704e-05
1.36813119777e-05
4.15662010003e-06
2.49368275941e-06
3.03973735382e-06
1.68890434739e-06
1.93258363903e-06
2.17013556534e-07
3.83632890974e-07
4.84410191424e-06
5.59674743024e-06
3.19881608855e-06
5.01805727859e-07
1.83570506822e-07
3.23421893865e-06
1.94879466639e-07
5.3012175258e-07
9.17282101938e-07
9.91317385344e-07
1.50861874786e-07
4.76437789989e-07
6.15390112269e-07
5.92009549738e-07
2.70422009359e-06
1.09112858599e-05
1.4891003071e-05
1.31267591606e-05
9.62597053258e-06
1.0112060728e-05
1.15242177276e-05
1.05255678829e-05
1.46828188475e-05
1.2680473683e-05
7.75596101654e-06
6.99459209254e-06
2.1507820646e-05
3.3696437723e-05
8.9366229917e-06
1.60174936913e-05
1.41653982568e-05
1.51955977447e-05
1.25925754145e-05
1.06177762599e-05
1.26388297915e-05
6.86052130615e-06
9.41488726491e-06
1.11588481173e-05
8.29532979141e-06
1.08281090774e-05
2.81896143283e-05
2.20427230108e-05
2.34523526894e-05
5.26250645798e-05
1.7490573259e-06
3.39622961489e-06
6.08486051872e-06
2.24972617915e-06
1.01672456094e-05
3.67922353366e-07
3.29747113182e-07
4.16374961923e-07
6.20542959224e-06
2.6487441223e-08
2.21031439498e-07
7.03990383672e-06
7.54639622418e-07
1.24278525569e-05
9.18384651061e-06
8.83655585044e-07
6.81663920551e-07
6.22143078092e-06
1.28277760171e-05
2.51930826407e-06
9.27706595638e-07
1.15010515787e-06
9.14187722129e-07
2.04900512954e-06
2.27109111845e-06
1.00543295173e-06
2.93290446818e-07
4.3722250136e-07
1.74574905248e-05
1.01251549364e-07
3.0134509885e-09
1.17201009857e-05
3.53145491211e-05
1.60104724093e-05
2.5849734015e-07
2.12447379352e-07
3.14176925744e-06
2.71310255939e-07
1.19935633566e-07
2.86786168664e-08
3.51928516902e-06
2.9867210549e-09
3.54454846332e-06
1.59870029444e-05
1.47847696065e-05
8.33796934721e-06
6.44519890576e-06
7.11546823489e-06
1.45920342122e-07
6.92193730465e-08
2.11056517322e-05
5.12699248898e-07
1.7002321193e-07
3.89803844105e-05
1.80481801524e-05
1.97798617788e-07
8.48263544047e-06
1.00733808508e-07
7.92265042524e-06
1.4800866984e-07
1.02137713442e-05
1.29210888058e-07
5.23261525735e-08
9.18051887252e-06
1.86302149728e-05
3.60419922208e-07
3.20421887279e-06
3.90396199864e-06

