# vtk DataFile Version 3.0
File Name: Molecule/sphere_excent/sphere_excent_0-s9.vtk
ASCII
DATASET UNSTRUCTURED_GRID
FIELD FieldData 1
TIME 1 1 double
0.0
POINTS 79 double
0.00027435703669 1.7025471926 1.0493115187
-1.0487568378 1.5212277174 0.76320213079
-0.61378121376 1.0467928648 1.5846374035
-1.6206952333 0.60652029514 1.0023387671
-1.698749423 1.0552737713 0.00075406493852
0.61259996891 0.99300080538 1.6242624521
0.076913736761 -0.00045713467989 1.9974997044
1.0519918203 -0.00064390746411 1.7010583878
-0.61747151613 -1.0614467859 1.5758889914
0.00035897741327 -1.7018072605 1.0507419109
0.61684387922 -0.99993395805 1.6184158325
1.6145271063 -0.62032949924 1.0039459467
1.000020504 -1.6178445816 0.61787253618
1.7031428814 -1.0485830307 0.0015273683239
0.54659813643 -1.1082396507 -1.5718089342
-0.0036096023396 -1.7040803432 -1.0473173857
-0.61955112219 -1.0121020079 -1.607234478
1.9957056046 0.0042606494389 0.13047584891
1.6172224283 0.61089360714 1.0059372187
1.7013731003 1.051435709 -0.00028761982685
1.048679471 1.5289039612 0.74885290861
-1.6145920753 -0.67982274294 -0.96212697029
-1.7010467052 -1.0518767834 0.00065636553336
-1.9999592304 2.1604151698e-05 -0.0011081891134
-1.6171972752 0.66743046045 -0.96390128136
-0.00035725385533 1.7013540268 -1.051243782
-0.63135254383 1.0077818632 -1.604409337
-1.0478377342 1.5218315125 -0.76298886538
-0.99912929535 -1.6192038059 -0.61645823717
-0.99972712994 -1.6188333035 0.61621105671
3.2276766433e-05 -1.9997954369 0.0001884483645
-1.6173269749 -0.6187697053 1.0001506805
-1.1016060114 -0.00024483512971 1.6662150621
0.99808299541 -1.6196904182 -0.61702644825
1.6142042875 -0.72473883629 -0.93016630411
0.45821622014 0.97130894661 -1.6822049618
0.009099278599 1.9996502399 0.00052258186042
-0.5454761982 1.8936493397 0.34158182144
-0.54526478052 1.8938714266 -0.34068197012
-1.0692474842 1.6900496483 0.00028964303783
1.0064631701 1.608672142 -0.63108915091
1.059479475 1.6961027384 0.020773936063
0.54743176699 1.8978407383 -0.31440272927
0.55614113808 1.8907450438 0.34009155631
1.6472499371 0.63401782513 -0.93413776159
1.3751251698 1.1622818708 -0.87074589729
1.1662477255 0.9183049202 -1.3397285938
0.84419888258 1.3583946228 -1.2002693415
1.9058580399 -0.32951799035 -0.50943177938
1.7275002003 -0.08852019906 -1.0028566122
1.910730958 0.30250865221 -0.50829803944
1.0722455978 0.022557606921 -1.6880817413
0.86933851242 -0.51374429464 -1.7263939381
0.55323624611 0.0083547141403 -1.9217047691
0.3000831902 -0.53857570887 -1.9019857645
-0.07495123893 0.048744179308 -1.9972063303
1.3679620028 -0.3820232749 -1.4080938101
1.1577934027 -0.88969707489 -1.3662148714
1.4238659143 0.70382535458 -1.2152502537
0.87879484892 0.90504348278 -1.5517349243
0.85018539429 0.500192523 -1.7397431135
1.1527781487 0.50789034367 -1.5530667305
1.4052481651 0.3384848237 -1.3821462393
1.6714389324 0.29361969233 -1.0582610369
1.4526486397 0.007267054636 -1.374350667
-0.86931145191 0.50839132071 1.7278358936
-0.31320777535 0.52929550409 1.9028269053
-0.5551944375 -0.00047371254186 1.9214117527
-0.87152099609 -0.51348394156 1.7252053022
-0.3148034513 -0.53348040581 1.9013602734
-1.0257072449 0.001630846411 -1.7169048786
-1.3813370466 -0.31707182527 -1.4105591774
-1.381301403 0.31200772524 -1.4118615389
-1.7071126699 -0.0039470214397 -1.042047143
-0.37288305163 -0.48704749346 -1.9032917023
-0.57495820522 0.025948075578 -1.9153187275
-0.84353715181 -0.499147892 -1.742685318
-0.36802572012 0.54683458805 -1.8881379366
-0.84416294098 0.49715963006 -1.7432727814

CELLS 154 616
3 0 1 2
3 1 3 2
3 1 4 3
3 0 2 5
3 5 6 7
3 8 9 10
3 6 10 7
3 7 10 11
3 10 12 11
3 10 9 12
3 11 12 13
3 14 15 16
3 13 17 11
3 17 18 11
3 17 19 18
3 11 18 7
3 19 20 18
3 20 5 18
3 20 0 5
3 18 5 7
3 21 22 23
3 24 23 4
3 25 26 27
3 26 24 27
3 27 24 4
3 22 28 29
3 28 30 29
3 28 15 30
3 29 30 9
3 22 29 31
3 29 8 31
3 29 9 8
3 32 3 31
3 3 23 31
3 3 4 23
3 31 23 22
3 16 28 21
3 16 15 28
3 21 28 22
3 15 33 30
3 33 12 30
3 33 13 12
3 30 12 9
3 34 13 33
3 14 33 15
3 35 26 25
3 36 37 0
3 0 37 1
3 36 38 37
3 38 39 37
3 38 27 39
3 37 39 1
3 27 38 25
3 25 38 36
3 1 39 4
3 39 27 4
3 40 41 19
3 19 41 20
3 40 42 41
3 42 43 41
3 42 36 43
3 41 43 20
3 36 42 25
3 25 42 40
3 20 43 0
3 43 36 0
3 44 45 19
3 19 45 40
3 46 47 45
3 45 47 40
3 40 47 25
3 47 35 25
3 34 48 13
3 13 48 17
3 34 49 48
3 49 50 48
3 48 50 17
3 17 50 19
3 50 44 19
3 51 52 53
3 52 54 53
3 52 14 54
3 53 54 55
3 16 54 14
3 51 56 52
3 56 57 52
3 56 34 57
3 52 57 14
3 14 57 33
3 33 57 34
3 53 55 35
3 34 56 49
3 44 58 45
3 58 46 45
3 46 59 47
3 59 35 47
3 35 59 60
3 59 61 60
3 59 46 61
3 60 61 51
3 51 61 62
3 61 58 62
3 61 46 58
3 62 58 63
3 49 63 50
3 63 44 50
3 44 63 58
3 63 64 62
3 63 49 64
3 62 64 51
3 35 60 53
3 53 60 51
3 51 64 56
3 56 64 49
3 32 65 3
3 3 65 2
3 2 66 5
3 66 6 5
3 2 65 66
3 65 67 66
3 65 32 67
3 66 67 6
3 32 68 67
3 68 69 67
3 68 8 69
3 67 69 6
3 6 69 10
3 10 69 8
3 70 71 72
3 71 73 72
3 71 21 73
3 72 73 24
3 24 73 23
3 23 73 21
3 26 72 24
3 8 68 31
3 31 68 32
3 21 71 16
3 55 74 75
3 74 76 75
3 74 16 76
3 75 76 70
3 55 77 35
3 77 26 35
3 55 75 77
3 75 78 77
3 75 70 78
3 77 78 26
3 16 74 54
3 54 74 55
3 26 78 72
3 72 78 70
3 70 76 71
3 71 76 16

CELL_TYPES 154
5
5
5
5
5
5
5
5
5
5
5
5
5
5
5
5
5
5
5
5
5
5
5
5
5
5
5
5
5
5
5
5
5
5
5
5
5
5
5
5
5
5
5
5
5
5
5
5
5
5
5
5
5
5
5
5
5
5
5
5
5
5
5
5
5
5
5
5
5
5
5
5
5
5
5
5
5
5
5
5
5
5
5
5
5
5
5
5
5
5
5
5
5
5
5
5
5
5
5
5
5
5
5
5
5
5
5
5
5
5
5
5
5
5
5
5
5
5
5
5
5
5
5
5
5
5
5
5
5
5
5
5
5
5
5
5
5
5
5
5
5
5
5
5
5
5
5
5
5
5
5
5
5
5

CELL_DATA 154
SCALARS cell_data_0 double
LOOKUP_TABLE default
1.88741153055e-05
2.09281352929e-05
4.57854199342e-06
3.13608353502e-05
4.30226759816e-05
3.17515851153e-05
3.74641834112e-05
2.77838265426e-05
2.25227229805e-05
2.13591519066e-05
7.38632658607e-06
4.0308573256e-05
2.78607581606e-06
9.56357083097e-06
8.17482550886e-05
2.23407303758e-05
7.09867429956e-05
1.16805097846e-05
2.06021971721e-05
4.02546096102e-05
3.47696006291e-05
2.23972802334e-06
6.26031711381e-05
7.59484526707e-06
1.30786637039e-05
4.05547318208e-05
3.50804265076e-06
1.49732572595e-05
5.27076165394e-06
1.63844742978e-05
2.19135982868e-05
1.86064157231e-05
1.68293071727e-05
1.54640225346e-05
3.56874129509e-06
1.87646631169e-05
1.95223225466e-05
3.658085399e-05
4.9356382131e-05
1.27839103633e-05
5.12404665733e-06
3.20629790666e-06
5.72608352951e-06
1.50410597854e-05
2.18378141022e-05
4.7899063856e-05
1.02302486008e-06
5.92150585489e-06
2.67238242987e-06
9.51589204586e-07
2.26472009206e-06
2.89335815945e-06
4.06229060069e-05
3.79165743592e-05
9.38744514278e-08
7.25123191281e-06
1.53813012273e-05
1.47716010586e-05
1.21310485743e-06
1.826902451e-06
1.3876697913e-07
2.7253665271e-06
2.98987837239e-05
1.93286593243e-05
6.15307919289e-06
1.66247378697e-07
1.75115243842e-05
1.84940997013e-05
1.70043057981e-07
2.50967995049e-08
2.3514578926e-05
2.8122428141e-05
5.96755433755e-06
2.07413772137e-06
4.22007958296e-07
1.08047243934e-06
1.3365563138e-06
1.7432781715e-05
1.42707833121e-05
1.64462828262e-05
2.02300074231e-07
1.96279324821e-06
1.04132209717e-06
1.54172514257e-05
1.59968967233e-05
2.41735223461e-07
1.28367605634e-06
1.77765999402e-06
4.72600073172e-06
3.5807252693e-06
1.34926589929e-06
9.28231270057e-07
2.41836717394e-07
9.26678016788e-08
1.8310633971e-08
1.09042116617e-08
1.00919119125e-07
1.03632798517e-07
8.39495873539e-08
9.70249972855e-06
9.77568672869e-06
1.03237599982e-07
1.10558783424e-07
1.9887857744e-07
6.05077748415e-07
5.1847384241e-07
2.26667553204e-07
6.16341370772e-06
6.96838137475e-06
2.3533408517e-05
2.33692916058e-07
1.531662937e-05
2.76249838236e-05
8.00285571736e-06
1.37053416734e-05
1.36273080316e-05
4.6686523407e-05
6.73421651809e-05
5.09168008192e-06
2.38414352977e-06
4.71064780708e-06
3.4478562957e-05
4.82169731549e-06
2.21981440871e-05
2.08750564604e-05
2.85618872547e-05
2.14016681749e-05
1.89345896256e-05
5.7771422751e-05
2.84450483456e-07
9.67076162923e-09
1.80092306664e-07
2.17214874124e-06
1.94597824799e-06
6.9176530502e-07
1.56742992729e-05
1.0328903917e-05
7.25011426595e-06
6.12329904975e-07
2.29062557975e-07
2.89253520406e-06
4.94646970397e-05
1.24388929841e-06
8.16359386007e-07
6.45948364082e-07
2.13891466246e-07
4.73192829547e-05
4.44506517945e-07
4.46095415571e-06
1.0230329948e-06
4.07930428008e-07
5.59847414842e-05
5.67516586295e-05
3.37203385467e-06

