# vtk DataFile Version 3.0
File Name: Molecule/sphere_excent/sphere_excent_0-s7.vtk
ASCII
DATASET UNSTRUCTURED_GRID
FIELD FieldData 1
TIME 1 1 double
0.0
POINTS 66 double
-0.00027454699739 1.7028018236 1.0489621162
-1.0411658287 1.5385531187 0.7395080328
-0.61462295055 0.99457365274 1.6226634979
-1.6198482513 0.61045151949 1.0015932322
-1.6990679502 1.054797411 2.5765359169e-05
-1.0513247252 -0.00045693825814 1.7013868093
0.61556529999 0.9960283041 1.621399045
4.6661698434e-05 -0.00055719254306 1.9998005629
1.0513345003 -0.00026066348073 1.7013810873
-0.61795377731 -0.99993181229 1.6178387403
0.61795157194 -0.99991595745 1.6178530455
3.3201336009e-06 -1.7013032436 1.0514596701
1.6164264679 -0.61904102564 1.0017943382
0.9999935627 -1.6178449392 0.61788153648
1.7022967339 -1.0498162508 -0.0006345671718
0.57526284456 -1.0631165504 -1.5919156075
-0.00069597107358 -1.7018553019 -1.0507577658
-0.61737805605 -0.99944579601 -1.6185154915
-0.067634180188 0.035917192698 -1.9967650175
-1.0522959232 -0.00029746460496 -1.700843215
1.9976956844 0.0030855173245 0.087432280183
1.6180590391 0.61359870434 1.0029162169
1.7006714344 1.0524582863 -0.0015369695611
1.0384936333 1.5485496521 0.72298741341
-1.6177723408 -0.61819815636 -0.99991261959
-1.6199337244 0.61048662663 -1.0014480352
-1.9997971058 0.00012769708701 9.7118099802e-06
-1.7013018131 -1.0514618158 -1.0808131492e-06
0.00037797464756 1.7020882368 -1.0501437187
-0.620244205 0.99456608295 -1.6207772493
-1.0401375294 1.5394979715 -0.73854154348
-0.99989557266 -1.6178539991 -0.61798942089
-0.9998870492 -1.617862463 0.61796325445
1.0528420717e-05 -1.9997912645 1.1771981008e-06
-1.6177333593 -0.61830252409 0.99990624189
0.99915111065 -1.6185451746 -0.61804890633
1.6091718674 -0.68734633923 -0.96500694752
0.51152515411 0.97211557627 -1.6667129993
0.013838263229 1.9996420145 -5.3597730584e-05
-0.53910434246 1.8967407942 0.33452242613
-0.53889733553 1.8969106674 -0.33392313123
-1.0611709356 1.6951264143 0.00014706197544
1.0068236589 1.6073880196 -0.63391608
1.055398345 1.6987768412 0.012072203681
0.54697912931 1.8973925114 -0.31787636876
0.55254375935 1.8932756186 0.33195412159
1.6344316006 0.60952907801 -0.97378027439
1.376026392 1.1624922752 -0.86900264025
1.167881012 0.87839716673 -1.3627848625
0.85079109669 1.3594970703 -1.1946370602
1.9034597874 -0.32519429922 -0.52096396685
1.714378953 -0.047035627067 -1.0239531994
1.9086076021 0.30520695448 -0.51463133097
1.0706595182 0.024982839823 -1.6892946959
0.8699207902 -0.51361626387 -1.7259484529
0.55180567503 0.0028963561635 -1.9219983816
0.31269004941 -0.53185796738 -1.9022921324
1.3711310625 -0.36071768403 -1.4106105566
1.1614596844 -0.87388515472 -1.3734787703
1.4182752371 0.72462010384 -1.2093777657
0.87592929602 0.91678678989 -1.5462361574
0.84614408016 0.51275193691 -1.7378805876
1.1507635117 0.47261506319 -1.5651156902
1.4063750505 0.33310177922 -1.3815591335
1.6831328869 0.29110983014 -1.0399525166
1.4371551275 0.0062605235726 -1.3902337551

CELLS 128 512
3 0 1 2
3 1 3 2
3 1 4 3
3 2 3 5
3 0 2 6
3 2 7 6
3 2 5 7
3 6 7 8
3 5 9 7
3 9 10 7
3 9 11 10
3 7 10 8
3 8 10 12
3 10 13 12
3 10 11 13
3 12 13 14
3 15 16 17
3 18 17 19
3 14 20 12
3 20 21 12
3 20 22 21
3 12 21 8
3 22 23 21
3 23 6 21
3 23 0 6
3 21 6 8
3 19 24 25
3 24 26 25
3 24 27 26
3 25 26 4
3 28 29 30
3 29 25 30
3 29 19 25
3 30 25 4
3 27 31 32
3 31 33 32
3 31 16 33
3 32 33 11
3 27 32 34
3 32 9 34
3 32 11 9
3 34 9 5
3 5 3 34
3 3 26 34
3 3 4 26
3 34 26 27
3 19 17 24
3 17 31 24
3 17 16 31
3 24 31 27
3 16 35 33
3 35 13 33
3 35 14 13
3 33 13 11
3 36 14 35
3 15 35 16
3 18 29 37
3 18 19 29
3 37 29 28
3 38 39 0
3 0 39 1
3 38 40 39
3 40 41 39
3 40 30 41
3 39 41 1
3 30 40 28
3 28 40 38
3 1 41 4
3 41 30 4
3 42 43 22
3 22 43 23
3 42 44 43
3 44 45 43
3 44 38 45
3 43 45 23
3 38 44 28
3 28 44 42
3 23 45 0
3 45 38 0
3 46 47 22
3 22 47 42
3 48 49 47
3 47 49 42
3 42 49 28
3 49 37 28
3 36 50 14
3 14 50 20
3 36 51 50
3 51 52 50
3 50 52 20
3 20 52 22
3 52 46 22
3 53 54 55
3 54 56 55
3 54 15 56
3 55 56 18
3 18 56 17
3 17 56 15
3 53 57 54
3 57 58 54
3 57 36 58
3 54 58 15
3 15 58 35
3 35 58 36
3 55 18 37
3 36 57 51
3 46 59 47
3 59 48 47
3 48 60 49
3 60 37 49
3 37 60 61
3 60 62 61
3 60 48 62
3 61 62 53
3 53 62 63
3 62 59 63
3 62 48 59
3 63 59 46
3 51 64 52
3 64 46 52
3 46 64 63
3 64 65 63
3 64 51 65
3 63 65 53
3 37 61 55
3 55 61 53
3 53 65 57
3 57 65 51

CELL_TYPES 128
5
5
5
5
5
5
5
5
5
5
5
5
5
5
5
5
5
5
5
5
5
5
5
5
5
5
5
5
5
5
5
5
5
5
5
5
5
5
5
5
5
5
5
5
5
5
5
5
5
5
5
5
5
5
5
5
5
5
5
5
5
5
5
5
5
5
5
5
5
5
5
5
5
5
5
5
5
5
5
5
5
5
5
5
5
5
5
5
5
5
5
5
5
5
5
5
5
5
5
5
5
5
5
5
5
5
5
5
5
5
5
5
5
5
5
5
5
5
5
5
5
5
5
5
5
5
5
5

CELL_DATA 128
SCALARS cell_data_0 double
LOOKUP_TABLE default
2.00569948135e-05
2.36508681419e-05
1.2428017174e-05
2.91460174307e-05
3.46014154748e-05
7.4507141754e-05
8.93656903517e-05
5.0794699353e-05
8.64473008165e-05
4.95174480399e-05
3.44430862248e-05
4.62460981271e-05
3.15663601965e-05
2.457642403e-05
2.08574059677e-05
6.30231879176e-06
1.13250108896e-05
5.74871623479e-05
3.00046226767e-06
9.44951893532e-06
4.72204403985e-05
2.4329932629e-05
2.31990109549e-05
2.24167369001e-05
1.9859724393e-05
3.38910886886e-05
8.64314395893e-05
1.35412693226e-05
4.41280613496e-05
6.1390688642e-05
5.3955988077e-05
1.50750131162e-05
7.96757846165e-05
7.00973917449e-05
3.04218918613e-05
5.50849524059e-06
9.40866018154e-06
3.18203695413e-06
1.85463844719e-05
2.36086534279e-05
2.07853478788e-05
3.79064701065e-05
1.58147491567e-05
1.5100769372e-05
2.54919378547e-05
2.26760736245e-05
6.33277160572e-05
1.18553671859e-06
9.99327577613e-06
4.36396303724e-05
1.43730859542e-05
4.73658824457e-06
2.05380779988e-06
5.51732138784e-06
2.25940708368e-05
1.11500967308e-05
1.31191896599e-06
5.37983398658e-05
4.95428906962e-05
4.33028252239e-06
6.70286498007e-06
1.57603420442e-06
1.10395046858e-06
6.02133966023e-07
2.99717512269e-06
3.45463291881e-05
2.22120230231e-05
1.41275774254e-05
2.7156547826e-05
2.49388872717e-05
2.03401940602e-05
5.92425067615e-07
1.15856598881e-06
1.79585429814e-06
2.51473021212e-06
1.87656880994e-05
2.13066020766e-05
6.47471203137e-06
4.30257177139e-06
2.70734301861e-05
2.16844779741e-05
1.97893965436e-07
4.62212124755e-07
2.44553311101e-05
3.04332107325e-05
1.05305796267e-05
5.01941733465e-06
3.08911250483e-06
7.09663373408e-07
1.98335941089e-07
2.76116808195e-05
2.51144413214e-05
6.92187533594e-05
2.62138985333e-07
2.26420874064e-07
2.04257967388e-07
1.00455848191e-06
4.05712375596e-08
6.68248643174e-05
2.62482188126e-07
2.71016006008e-06
2.28412542309e-07
6.53762666844e-09
6.96941951369e-06
3.54691029213e-07
3.20391284837e-06
1.04451514093e-07
2.10349323434e-07
1.98163198061e-08
9.02690180133e-08
3.70147915116e-08
1.3561126114e-07
1.19072614334e-07
3.742475476e-05
3.67478249234e-05
1.30254912065e-07
1.11615428998e-07
1.35459219011e-07
2.84188583793e-07
3.49652070838e-08
1.39534494237e-07
1.32176888879e-07
5.25838458059e-08
3.52542230889e-05
1.654128621e-07
6.48233392052e-05
3.99256447077e-05
6.19570669778e-08

