# vtk DataFile Version 3.0
File Name: Molecule/sphere_excent/sphere_excent_0-s4.vtk
ASCII
DATASET UNSTRUCTURED_GRID
FIELD FieldData 1
TIME 1 1 double
0.0
POINTS 51 double
1.7013020515 -1.0514614582 -5.4380503656e-08
1.617873311 -0.61794751883 -0.99991440773
1.9998050928 9.8733071354e-05 -1.0765069419e-05
1.6328457594 0.5906021595 -0.98752945662
1.0516167879 0.00057034601923 -1.7012025118
1.7004324198 1.0527001619 -0.00053860381013
-0.00049769011093 1.7024714947 1.049410224
-1.0244078636 1.5716422796 0.68959629536
-0.61692285538 0.99820715189 1.6194865704
-1.6185461283 0.61553072929 1.0005173683
-1.7000707388 1.0532968044 4.0962736421e-06
-1.0514439344 -6.1910133809e-05 1.701313138
0.61741703749 0.99910604954 1.6187032461
1.3813592886e-05 -9.727957513e-05 1.999789834
1.0514569283 -1.3876606317e-05 1.7013049126
-0.61796796322 -0.99989587069 1.6178555489
0.61797249317 -0.99989509583 1.6178543568
7.5288014045e-08 -1.7013015747 1.0514620543
1.6178597212 -0.61796998978 0.99989318848
0.99988985062 -1.6178612709 0.61796182394
0.61798369884 -0.99986702204 -1.6178772449
-0.00026273075491 -0.00040687108412 -1.9998461008
-0.61797595024 -0.99989873171 -1.6178525686
-6.2701666081e-08 -1.7013015747 -1.0514620543
-1.0514447689 -6.1330283643e-05 -1.7013126612
1.6182687283 0.61677211523 1.0002019405
1.0177569389 1.5854047537 0.66832381487
-1.6178508997 -0.61798924208 -0.99989581108
-1.6185567379 0.61554187536 -1.0004923344
-1.9997930527 9.3650567578e-05 3.5747348193e-06
-1.7013025284 -1.051460743 2.2143264999e-08
1.8239894416e-05 1.7023758888 -1.0496150255
-0.61739403009 0.99812942743 -1.6194103956
-1.0242141485 1.5719249249 -0.68917787075
-0.99988973141 -1.6178615093 -0.61796176434
-0.99989128113 -1.6178585291 0.61796689034
3.054823992e-06 -1.9997828007 3.1785177157e-08
-1.6178343296 -0.61803174019 0.99989837408
0.99989444017 -1.6178569794 -0.61796820164
0.58993405104 0.98919320107 -1.6321054697
0.023319387808 1.9995696545 -0.0001385868818
-0.53044682741 1.9007114172 0.32583406568
-0.5304042697 1.9007617235 -0.32578405738
-1.0521146059 1.7008531094 2.3845675969e-05
1.0080852509 1.6033308506 -0.64123648405
1.0514284372 1.7013587952 0.0017220339505
0.54541891813 1.897103548 -0.32227241993
0.54632282257 1.8965264559 0.32404997945
1.37809515 1.1631038189 -0.86510872841
1.1754586697 0.85093080997 -1.376335144
0.85453855991 1.3629820347 -1.1885478497

CELLS 98 392
3 0 1 2
3 1 3 2
3 1 4 3
3 2 3 5
3 6 7 8
3 7 9 8
3 7 10 9
3 8 9 11
3 6 8 12
3 8 13 12
3 8 11 13
3 12 13 14
3 11 15 13
3 15 16 13
3 15 17 16
3 13 16 14
3 14 16 18
3 16 19 18
3 16 17 19
3 18 19 0
3 4 20 21
3 20 22 21
3 20 23 22
3 21 22 24
3 0 2 18
3 2 25 18
3 2 5 25
3 18 25 14
3 5 26 25
3 26 12 25
3 26 6 12
3 25 12 14
3 24 27 28
3 27 29 28
3 27 30 29
3 28 29 10
3 31 32 33
3 32 28 33
3 32 24 28
3 33 28 10
3 30 34 35
3 34 36 35
3 34 23 36
3 35 36 17
3 30 35 37
3 35 15 37
3 35 17 15
3 37 15 11
3 11 9 37
3 9 29 37
3 9 10 29
3 37 29 30
3 24 22 27
3 22 34 27
3 22 23 34
3 27 34 30
3 23 38 36
3 38 19 36
3 38 0 19
3 36 19 17
3 4 1 20
3 1 38 20
3 1 0 38
3 20 38 23
3 4 21 39
3 21 32 39
3 21 24 32
3 39 32 31
3 40 41 6
3 6 41 7
3 40 42 41
3 42 43 41
3 42 33 43
3 41 43 7
3 33 42 31
3 31 42 40
3 7 43 10
3 43 33 10
3 44 45 5
3 5 45 26
3 44 46 45
3 46 47 45
3 46 40 47
3 45 47 26
3 40 46 31
3 31 46 44
3 26 47 6
3 47 40 6
3 3 48 5
3 5 48 44
3 3 49 48
3 49 50 48
3 49 39 50
3 48 50 44
3 39 49 4
3 4 49 3
3 44 50 31
3 50 39 31

CELL_TYPES 98
5
5
5
5
5
5
5
5
5
5
5
5
5
5
5
5
5
5
5
5
5
5
5
5
5
5
5
5
5
5
5
5
5
5
5
5
5
5
5
5
5
5
5
5
5
5
5
5
5
5
5
5
5
5
5
5
5
5
5
5
5
5
5
5
5
5
5
5
5
5
5
5
5
5
5
5
5
5
5
5
5
5
5
5
5
5
5
5
5
5
5
5
5
5
5
5
5
5

CELL_DATA 98
SCALARS cell_data_0 double
LOOKUP_TABLE default
0.000538528886168
0.000645930170089
0.000171446276573
0.000531241190474
1.95209577473e-05
2.21140707789e-05
4.84775703208e-06
2.54812961376e-05
2.18227293811e-05
3.36006319562e-05
3.60623588737e-05
2.81958732867e-05
5.76953982893e-05
7.26431482436e-05
3.48307741326e-05
4.11814196158e-05
2.85027151311e-05
2.4043578745e-05
1.99011210397e-05
1.65942977838e-05
1.56877234516e-05
7.59840698215e-06
2.74012477117e-06
1.80167762096e-05
0.000305946848929
0.000156306500563
0.000287383133203
1.81093049192e-05
2.62929191152e-05
2.3354929933e-05
1.99738164659e-05
2.07156100851e-05
1.30724366257e-05
3.39961975221e-06
2.53213167472e-06
1.24967087668e-05
3.31101100118e-06
1.4363519789e-06
1.83336201706e-05
5.64653449374e-06
3.65426806664e-06
1.01338743775e-06
4.7387588355e-06
1.08579419165e-05
1.00586034295e-05
2.58250305585e-05
2.05984387679e-05
3.63115253876e-05
2.3233546599e-05
1.44896305402e-05
4.06147786179e-07
3.93758722982e-06
1.30700208655e-05
1.22736497258e-05
1.00902382736e-05
1.0026230244e-05
1.44165135055e-06
6.8980940907e-06
4.19211399579e-05
1.08659162204e-05
7.67695473129e-05
7.60704609935e-05
0.00014457623359
5.18906816155e-06
7.91683210747e-05
8.13781691247e-05
2.36560359567e-05
6.70128876845e-05
2.48592416441e-06
5.92576338307e-06
1.94498596823e-06
1.08740239567e-06
8.03409021703e-07
1.48402007169e-06
4.81855842803e-07
6.50679400247e-06
2.70987026996e-06
1.82351963411e-06
6.42865488195e-05
2.8197590652e-05
1.47094714662e-05
3.22071048245e-07
2.40939067773e-06
1.28841069849e-06
5.51460947394e-06
2.75630238109e-05
3.71783425858e-06
1.36409497884e-06
7.03755668658e-05
6.130991901e-05
1.72496892602e-05
3.54298513534e-07
1.5869433135e-05
1.38725971999e-05
3.65323760393e-05
3.93239968483e-05
2.66564138664e-05
3.00860540603e-05

