# vtk DataFile Version 3.0
File Name: Molecule/sphere_excent/sphere_excent_0-s5.vtk
ASCII
DATASET UNSTRUCTURED_GRID
FIELD FieldData 1
TIME 1 1 double
0.0
POINTS 54 double
-0.00046075659338 1.7027475834 1.048987627
-1.0306872129 1.5596247911 0.70825475454
-0.61626374722 0.99717646837 1.6204029322
-1.618917942 0.61407268047 1.0008453131
-1.6996510029 1.0539264679 1.0169958841e-05
-1.0514184237 -0.00014540005941 1.7013289928
0.6169230938 0.99829596281 1.6194320917
2.3774837246e-05 -0.00019938364858 1.9997930527
1.0514445305 -5.5957658333e-05 1.7013127804
-0.61796575785 -0.99990212917 1.6178525686
0.61797612906 -0.99989819527 1.6178525686
1.6388364088e-07 -1.7013018131 1.051461935
1.617634058 -0.6181730628 1.0002514124
0.99991798401 -1.6178594828 0.61794781685
1.7015576363 -1.0510420799 -0.0003561139456
1.0522458553 0.0012550172396 -1.7007147074
0.6175814271 -0.99994844198 -1.618068099
-0.00068505731178 -0.0011425748235 -1.9999018908
-0.61799329519 -0.99991679192 -1.6178381443
4.7035436523e-07 -1.7013014555 -1.0514626503
-1.0514320135 -0.00015350762988 -1.7013207674
1.9972985983 0.0012099769665 0.032730419189
1.6183718443 0.61584919691 1.0007609129
1.700378418 1.0528451204 -0.0012725305278
1.0255863667 1.5720734596 0.6885766983
-1.6178370714 -0.61802899837 -0.99989670515
-1.6189396381 0.61409258842 -1.0007964373
-1.999794364 0.00012225712999 4.9529412536e-06
-1.7013030052 -1.0514599085 -4.1880671375e-08
0.00032231869409 1.7024714947 -1.0495111942
-0.61757785082 0.99693143368 -1.620164752
-1.0302740335 1.5601773262 -0.70757979155
-0.99988889694 -1.617863059 -0.61795991659
-0.99989068508 -1.6178592443 0.61796635389
5.3927910812e-06 -1.9997838736 -2.2835438358e-06
-1.6178109646 -0.61809432507 0.99990111589
0.99958586693 -1.6181776524 -0.61782294512
1.5988035202 -0.64378637075 -1.009745717
0.56713461876 0.98078215122 -1.6469494104
0.019658552483 1.999606967 -0.00020500224491
-0.53312569857 1.8995354176 0.3282648623
-0.53301972151 1.8996231556 -0.32807889581
-1.0545148849 1.6993285418 5.6405689975e-05
1.0074782372 1.6051107645 -0.63811534643
1.0523318052 1.7007776499 0.0045145065524
0.54614788294 1.8971184492 -0.32092860341
0.54842996597 1.8955841064 0.3258458674
1.6319246292 0.59496855736 -0.9904153347
1.3775253296 1.1626688242 -0.86658716202
1.1740784645 0.85112631321 -1.3774088621
0.8543536067 1.3616093397 -1.190200448
1.902135253 -0.32445549965 -0.52602213621
1.7072765827 -0.015395941213 -1.0417941809
1.9070395231 0.30824795365 -0.51844847202

CELLS 104 416
3 0 1 2
3 1 3 2
3 1 4 3
3 2 3 5
3 0 2 6
3 2 7 6
3 2 5 7
3 6 7 8
3 5 9 7
3 9 10 7
3 9 11 10
3 7 10 8
3 8 10 12
3 10 13 12
3 10 11 13
3 12 13 14
3 15 16 17
3 16 18 17
3 16 19 18
3 17 18 20
3 14 21 12
3 21 22 12
3 21 23 22
3 12 22 8
3 23 24 22
3 24 6 22
3 24 0 6
3 22 6 8
3 20 25 26
3 25 27 26
3 25 28 27
3 26 27 4
3 29 30 31
3 30 26 31
3 30 20 26
3 31 26 4
3 28 32 33
3 32 34 33
3 32 19 34
3 33 34 11
3 28 33 35
3 33 9 35
3 33 11 9
3 35 9 5
3 5 3 35
3 3 27 35
3 3 4 27
3 35 27 28
3 20 18 25
3 18 32 25
3 18 19 32
3 25 32 28
3 19 36 34
3 36 13 34
3 36 14 13
3 34 13 11
3 15 37 16
3 37 36 16
3 37 14 36
3 16 36 19
3 15 17 38
3 17 30 38
3 17 20 30
3 38 30 29
3 39 40 0
3 0 40 1
3 39 41 40
3 41 42 40
3 41 31 42
3 40 42 1
3 31 41 29
3 29 41 39
3 1 42 4
3 42 31 4
3 43 44 23
3 23 44 24
3 43 45 44
3 45 46 44
3 45 39 46
3 44 46 24
3 39 45 29
3 29 45 43
3 24 46 0
3 46 39 0
3 47 48 23
3 23 48 43
3 47 49 48
3 49 50 48
3 49 38 50
3 48 50 43
3 38 49 15
3 15 49 47
3 43 50 29
3 50 38 29
3 37 51 14
3 14 51 21
3 37 52 51
3 52 53 51
3 52 47 53
3 51 53 21
3 47 52 15
3 15 52 37
3 21 53 23
3 53 47 23

CELL_TYPES 104
5
5
5
5
5
5
5
5
5
5
5
5
5
5
5
5
5
5
5
5
5
5
5
5
5
5
5
5
5
5
5
5
5
5
5
5
5
5
5
5
5
5
5
5
5
5
5
5
5
5
5
5
5
5
5
5
5
5
5
5
5
5
5
5
5
5
5
5
5
5
5
5
5
5
5
5
5
5
5
5
5
5
5
5
5
5
5
5
5
5
5
5
5
5
5
5
5
5
5
5
5
5
5
5

CELL_DATA 104
SCALARS cell_data_0 double
LOOKUP_TABLE default
1.95972316265e-05
2.3372361797e-05
2.72850946432e-05
2.85665590119e-05
3.32823915938e-05
6.56871004576e-05
8.54402309205e-05
5.46959809677e-05
8.61992672122e-05
5.51655189719e-05
3.30789682921e-05
5.04152008409e-05
3.00247227406e-05
2.43403859429e-05
2.03761581986e-05
3.8628311984e-06
0.000263410996289
8.90772258125e-07
1.32644338374e-05
5.5435134916e-05
3.42162790267e-06
1.31890691604e-05
3.66649237525e-05
2.38137104788e-05
1.39868465386e-05
2.20424074605e-05
2.0383063254e-05
3.10529396479e-05
7.38504344127e-05
2.29569746208e-05
7.53735466688e-05
6.75606481006e-05
4.60143577047e-05
1.28366939847e-06
6.29327136514e-05
4.21834072521e-05
2.55429851362e-05
7.75484098005e-06
8.95839513003e-06
7.41952316953e-06
1.64144031751e-05
2.3479027575e-05
2.10261436685e-05
3.6215214507e-05
2.78239718975e-06
5.78272829104e-07
6.39136909017e-05
4.77698865491e-05
6.97644915796e-05
5.47337410351e-06
1.10675333143e-05
5.28462559845e-05
1.06359835271e-05
4.55521131612e-06
3.85426585571e-06
4.36219963153e-06
0.000308146189333
1.28329996502e-05
2.20429935933e-05
1.1764627017e-05
0.00025264159748
4.16818328648e-07
5.59546534135e-05
5.13743793152e-05
3.7299574537e-06
5.69562632664e-06
1.45960687708e-06
8.59029280703e-07
8.49833398e-07
2.24996639833e-06
2.45337544437e-05
2.05327447808e-05
1.62420316807e-05
2.17922468212e-05
2.15742369605e-05
1.62506331302e-05
2.97774176672e-07
9.09117290021e-07
1.25173544717e-06
2.63081896531e-06
2.36187860321e-05
2.57061248512e-05
6.33371662594e-06
4.28939552433e-06
2.86669327736e-05
2.21522879884e-05
3.92290804521e-07
3.36043396769e-07
2.21223949844e-07
5.39913733961e-07
0.000141304418063
0.0001435225073
2.22281268556e-05
2.62871405429e-05
1.16989181825e-05
5.55510979193e-06
3.21228913458e-06
3.84608631846e-07
3.84749234207e-07
6.64852883101e-07
0.000137580276302
0.000162550647412
2.8949742019e-05
2.77973060077e-05

