# vtk DataFile Version 3.0
File Name: Molecule/sphere_excent/sphere_excent_0-s26.vtk
ASCII
DATASET UNSTRUCTURED_GRID
FIELD FieldData 1
TIME 1 1 double
0.0
POINTS 285 double
-0.057180687785 1.7353198528 0.99152249098
-1.0897561312 1.4724963903 0.80126857758
-0.58874940872 1.216555357 1.4732040167
-1.6559761763 1.1123051643 0.14351849258
-1.670976758 0.67615228891 0.86555469036
0.64230906963 -1.1975263357 1.4672791958
0.01561940182 -1.7192109823 1.0217084885
0.81122791767 -1.6745331287 0.73323655128
0.35008734465 -1.191701889 -1.5658655167
-0.016287494451 -1.7244218588 -1.0124357939
-0.37163230777 -1.1167588234 -1.6139913797
1.5598584414 -0.40978300571 1.1822954416
1.5273025036 0.48783415556 1.1954313517
1.1788799763 0.051516480744 1.6135118008
-0.67784917355 -1.7878321409 -0.58602941036
0.023465091363 -1.9996410608 0.026783276349
-1.0006848574 -1.7285279036 0.082972116768
-0.77866756916 -1.6879093647 0.73797214031
-0.6726950407 -1.3075727224 1.3554881811
-1.9438849688 0.32790955901 0.33446195722
0.77851587534 -1.7151191235 -0.67110091448
1.0743967295 -1.6863082647 0.029570704326
-0.065381273627 1.997140646 -0.0048760250211
-0.55788826942 1.883590579 0.37373957038
0.17959460616 1.9625310898 0.32375878096
-0.53295004368 1.8897141218 -0.37988039851
-1.1015409231 1.6687252522 0.050872329623
-1.2367202044 1.4695757627 -0.55490040779
-0.066173680127 1.7717074156 -0.9222329855
0.20737679303 1.9276827574 -0.49046230316
1.0090748072 1.7157468796 0.19507735968
0.57556891441 1.8498879671 0.48949939013
1.1343301535 1.5151600838 0.63846421242
0.83262848854 1.5908380747 0.87870573997
0.98724043369 -0.081725426018 -1.7372879982
0.74937784672 -0.59219771624 -1.7565797567
0.50880497694 -0.10403638333 -1.9309655428
0.2014027983 -0.62000304461 -1.8901418447
0.032807227224 0.025278206915 -1.9984050989
0.92761838436 0.96446931362 -1.4860904217
1.1972231865 0.93256914616 -1.3026006222
1.0882490873 0.71853291988 -1.516302228
1.362128377 -0.40305799246 -1.407889843
1.5185453892 -0.17173039913 -1.2899742126
1.5249204636 -0.5262208581 -1.1820456982
-0.44553911686 0.65036827326 1.8377659321
-0.82101017237 0.4444963336 1.7682850361
-0.40243494511 0.22229193151 1.9457538128
-1.2312396765 -0.16545437276 1.5664840937
-0.98765432835 -0.68414592743 1.5986402035
-0.76209789515 -0.055467605591 1.8475416899
-0.43519794941 -0.52328306437 1.8802822828
-1.3954356909 0.40976533294 -1.3707966805
-1.1715396643 0.037134479731 -1.6190764904
-1.6053324938 0.070979326963 -1.1895489693
-1.3734630346 -0.33386018872 -1.4147706032
-1.4729527235 0.89375311136 -1.0142598152
-1.7034703493 0.51037889719 -0.91368567944
-1.2582291365 -1.1482938528 1.0478795767
-1.5816851854 -0.5070040226 1.1139335632
-0.2176823616 0.51519352198 -1.9181542397
0.29789119959 0.44754087925 -1.9263064861
-0.9322513938 -0.65427869558 -1.6420087814
-1.2902150154 -0.81814146042 -1.2904045582
1.8563374281 0.3686118722 0.64616113901
1.7011039257 0.7942262888 0.68876606226
1.3849041462 1.054979682 0.98240309954
0.91541957855 1.0655562878 1.4219448566
-0.56821167469 1.6802340746 -0.9223587513
1.9579699039 0.23564493656 -0.33085685968
1.9675453901 0.33284592628 0.12561045587
1.992305994 -0.16200231016 0.048147827387
-0.010972660035 0.88739258051 1.792158246
-0.025013698265 0.39937409759 1.9594597816
0.40877243876 0.47928261757 1.8978544474
0.27767190337 -0.011610146612 1.9804259539
-1.6469613314 -1.1093491316 0.23890458047
-1.3528755903 -1.3918591738 0.482267946
-1.633767128 -0.96072727442 0.63870215416
1.7925232649 -0.88110506535 -0.098556861281
1.6926599741 -0.9605371356 -0.45583951473
1.8893834352 -0.52552825212 -0.38957765698
1.669522047 -0.69766652584 -0.85130298138
-1.5319433212 -1.2843396664 0.048778660595
1.244721055 -1.1031420231 1.1051882505
1.0412557125 -0.59614604712 1.6000386477
1.3285769224 -1.4378999472 -0.40466877818
1.5519807339 -1.2606518269 -0.04399196431
1.4087426662 -1.362615943 0.39532250166
1.7516497374 -0.9285620451 0.26121297479
-1.9262701273 -0.52904582024 0.090853326023
-1.8109638691 -0.81651508808 0.22558659315
-1.8493700027 -0.5381206274 0.53772044182
-1.6597856283 -1.103394866 -0.15847317874
-0.040718756616 -1.2629617453 1.5502271652
0.4964248836 -0.54259473085 1.8598557711
0.71139425039 -0.097810022533 1.8666418791
-0.43390148878 -0.9484731555 1.7064493895
0.010746975429 -0.37730306387 1.9640277624
0.065793015063 -0.83427935839 1.8164894581
-1.6600664854 0.98546552658 -0.52193754911
-1.8564226627 -0.055293787271 0.7407079339
-1.5556194782 0.15061800182 1.2478054762
0.7453904748 1.7729541063 -0.54799199104
0.6384832263 1.8865433931 -0.1750921905
1.0615218878 1.6749989986 -0.25954979658
0.46900078654 1.7386405468 -0.86936354637
0.86013692617 1.5395126343 -0.94312077761
1.2739378214 1.2916460037 -0.84149485826
1.0944869518 1.5549048185 -0.61976623535
0.46107563376 1.4803494215 -1.2625069618
0.82478171587 1.2789446115 -1.2971482277
-1.966088891 -0.20773684978 0.30101850629
-1.9195791483 -0.51387172937 -0.22475494444
-1.8483396769 -0.76186150312 -0.041908740997
-1.8343571424 -0.73751592636 -0.29671931267
-1.8596432209 -0.51828318834 -0.52264565229
-1.8448280096 0.70973408222 -0.30331021547
-1.9989417791 -0.049863699824 0.021002179012
-1.9754375219 -0.30204421282 -0.077831596136
-1.9825742245 -0.10849201679 -0.23947951198
-1.939371109 -0.32446736097 -0.36478701234
-1.9608999491 0.050428800285 -0.38959738612
-1.9858129025 0.16451337934 -0.16847281158
-0.69585293531 -1.4906858206 -1.1373357773
-1.0462119579 -1.4812945127 -0.84368479252
-0.9254720211 -1.0912371874 -1.3966017962
-1.1588754654 -1.2009978294 -1.101639986
-1.454664588 -0.96870988607 -0.97220081091
-1.5253397226 -1.0960655212 -0.68703478575
-1.6399565935 -0.84163630009 -0.77566760778
-1.3293638229 -1.2324391603 -0.84489881992
-1.3434588909 -1.3561598063 -0.59641045332
-1.5501648188 -1.192997694 -0.41660657525
-1.397995472 -1.3850866556 -0.35663881898
-1.6917191744 -0.95142877102 -0.48129081726
-1.1085282564 -1.5687892437 -0.55613583326
-1.4741764069 -1.3405140638 -0.17184698582
-1.1781060696 1.0029335022 1.2671228647
1.3806426525 1.3744584322 -0.45213478804
1.3616045713 1.4641581774 -0.045096598566
1.6701154709 1.0612260103 -0.29026731849
1.5219789743 1.0775722265 -0.72191816568
-1.1348423958 0.22658407688 1.6309822798
-1.288341403 0.57102501392 1.4190000296
-0.88441050053 0.82092034817 1.5950448513
-1.5818948746 -0.63915473223 -1.0433229208
1.3590490818 1.4128816128 0.39339515567
-1.9458675385 0.45315045118 -0.074208185077
-1.9345201254 0.33664894104 -0.38001093268
-1.8389531374 0.55179286003 -0.55982917547
-1.8579009771 0.29923042655 -0.676902771
0.82350575924 0.74932593107 -1.6612087488
0.7362985611 0.50929272175 -1.7881873846
0.99686813354 0.51488286257 -1.6555877924
0.91537898779 0.28820225596 -1.7547228336
1.1123399734 0.29767602682 -1.6351208687
1.2377806902 0.4777571559 -1.4965507984
1.2814708948 0.16026605666 -1.5269210339
1.4017297029 0.3295058012 -1.3880237341
1.2868995667 0.69692647457 -1.3631737232
1.4416140318 0.53575342894 -1.2785582542
1.4065941572 0.79902005196 -1.1759982109
1.5530587435 0.31123703718 -1.221050024
1.6162281036 0.48050317168 -1.0752910376
1.7328619957 0.23091797531 -0.970928967
1.6130604744 0.071079105139 -1.1798686981
1.4563314915 0.099548436701 -1.3669124842
1.7193977833 -0.19783653319 -1.0019220114
1.2987139225 -0.13143269718 -1.5152195692
0.68277966976 0.21166592836 -1.8678541183
1.1192952394 -0.45558077097 -1.5934709311
0.13321134448 0.950522542 -1.7529382706
0.60029304028 1.0722441673 -1.5777271986
0.52470344305 0.7610527277 -1.7734595537
1.863483429 0.64867252111 0.32581010461
1.8715900183 0.69672501087 -0.10622245073
1.7507156134 0.94891643524 0.18485713005
1.5713828802 1.2280263901 0.15050248802
1.5784033537 1.1199878454 0.50385987759
1.69173944 0.78790259361 -0.71797215939
1.8488789797 0.57668989897 -0.49714455009
-0.078827321529 0.013635531999 1.9983437061
-0.34035632014 -0.15497381985 1.9645041227
0.45624822378 1.419981122 1.3323049545
0.41078615189 1.0407365561 1.6578296423
0.017046652734 1.328594923 1.4947926998
1.8715664148 0.0080892462283 -0.70504683256
1.7481390238 0.50496274233 -0.82993400097
1.8491142988 0.30681046844 -0.6968550086
-1.6436977386 -0.29522362351 -1.1003873348
-0.72739434242 -0.25224244595 -1.8447699547
-1.0085602999 -0.25477766991 -1.7078655958
-0.84190058708 0.022919949144 -1.813906908
-0.49151423573 0.06593631953 -1.935847044
-0.71132105589 0.27466735244 -1.8482871056
-0.97023457289 0.3006760776 -1.7228051424
-1.1295403242 0.53145831823 -1.5624357462
-1.8432132006 -0.18214814365 -0.75453549623
-1.7711288929 -0.38259598613 -0.84666401148
-1.888179183 -0.29011261463 -0.59214007854
-1.7607697248 -0.11102244258 -0.94190746546
-1.7826917171 0.15273025632 -0.89289593697
-1.8560723066 0.020909689367 -0.74443173409
-1.9062821865 -0.076559171081 -0.60003656149
-1.9449057579 -0.14975103736 -0.44137054682
-1.9141819477 0.12301896513 -0.56601655483
1.2726948261 -0.69993144274 -1.3748223782
1.028542757 -0.78523039818 -1.5249756575
1.1208819151 -1.0191559792 -1.3056099415
1.4076977968 -0.86993151903 -1.1230534315
0.80698764324 -1.1468037367 -1.4259470701
1.9496524334 0.0020280042663 0.44524419308
1.8955681324 -0.52680289745 0.35813096166
1.798879385 -0.013022517785 0.87342363596
1.8481132984 -0.35134792328 0.67723923922
-1.7409021854 -0.62121915817 -0.76380199194
-1.7716662884 -0.73536407948 -0.56593120098
1.4227949381 -1.1335047483 -0.82746016979
1.7224538326 -0.79199033976 0.63270825148
1.0543187857 0.5603941083 1.603328228
0.61471712589 -1.4980119467 -1.1736254692
1.9149309397 -0.57585251331 0.031274098903
0.96939224005 -1.3669387102 -1.0917129517
1.5519075394 0.83811432123 -0.94268739223
1.407466054 1.0061131716 -1.003113389
0.71109187603 0.73215574026 1.7198497057
0.82245129347 0.32690396905 1.7935487032
1.160964489 -1.4189310074 -0.7991310358
1.2374339104 -1.1657922268 -1.0533897877
-1.3342144489 -1.4882667065 0.068715341389
-1.2797478437 -1.5287270546 -0.15931600332
-1.2542210817 -1.5086071491 -0.38852077723
[...]
CELL_DATA 566
SCALARS cell_data_0 double
LOOKUP_TABLE default
1.32690153222e-05
7.0029267759e-06
1.18641925339e-05
5.67511727117e-06
1.28044498799e-05
2.05006302325e-06
1.84495992275e-06
8.07361625874e-06
9.66930861029e-06
4.57484256853e-06
2.01685137065e-06
5.92387245793e-06
7.31410720293e-06
1.79847258531e-06
6.29172800461e-06
2.22872274159e-06
2.58079451316e-06
1.86138611398e-06
3.57959577989e-06
7.39409570153e-06
4.11262136919e-06
2.36308904099e-06
4.59251648633e-05
3.41289974589e-05
2.05040948336e-06
2.42548939926e-07
6.56856851161e-07
1.25825886471e-06
3.22924491143e-06
2.94505076191e-06
4.66159130217e-07
9.55434264233e-06
1.43582906969e-05
1.23040570118e-05
6.67324354898e-05
3.95629071575e-05
1.48242552989e-05
9.31428407286e-06
1.11649061258e-05
2.32884209329e-06
1.72861840742e-06
3.23043587381e-06
2.86994675568e-06
6.79828384292e-06
6.98844267034e-06
4.85400600562e-06
1.65499658136e-05
1.46942644994e-05
1.06258771869e-05
1.04418758481e-05
2.90625122973e-05
7.13495720773e-05
3.44164967954e-05
2.68424501628e-05
8.7511925852e-06
3.21543037286e-06
4.09089591996e-05
5.54023370326e-05
7.95236272532e-06
2.59638233052e-05
2.07769039657e-06
8.95195274792e-06
1.04496862871e-05
3.45819059745e-05
3.90392210119e-06
2.26980585088e-05
1.45492623429e-06
1.14832682201e-06
3.03218885329e-06
1.36539480705e-05
6.58641870666e-07
5.87965481617e-06
2.08960046679e-07
1.22101022303e-05
1.10492926303e-05
1.01727251266e-05
1.07638855791e-05
1.39502000906e-05
1.31864792757e-05
1.22950588737e-05
9.40478573918e-06
9.17880706872e-06
9.37782032371e-06
1.10475035138e-05
9.10119133735e-06
9.06811304648e-06
1.33464859636e-05
9.2182554574e-06
6.46182740155e-06
8.49887794183e-06
6.9125471954e-06
1.05468704853e-05
5.53744196946e-07
1.3297540784e-06
3.71194266925e-06
2.85694787414e-06
1.63123139255e-05
3.65355525196e-06
5.26490856979e-06
5.21282655349e-07
8.90042421386e-06
3.75238117833e-07
4.9635680812e-06
3.5954081285e-08
2.67163104465e-07
1.3556153397e-05
1.89533047069e-06
1.55577924894e-06
7.47709777348e-07
3.43407978905e-06
7.40604529759e-06
7.53922208772e-06
2.24396189771e-07
8.21459894493e-08
5.45349713524e-05
2.3773128931e-07
6.91874304681e-07
9.94781325053e-07
3.7783132903e-07
1.28305141937e-07
2.41021285086e-07
6.7994929351e-08
1.55903468226e-07
8.66170492404e-08
2.43682204073e-08
9.46467531245e-08
3.48528949225e-07
4.31004791216e-06
1.05024443521e-07
3.06191237583e-06
8.06054289881e-06
1.8634003829e-07
2.46674670345e-06
8.93673333291e-08
7.39298726774e-08
9.92964956723e-08
3.52070775409e-06
1.296386854e-07
1.95971895604e-07
5.63215686773e-08
1.94966450069e-08
7.05515076875e-08
4.16385490559e-06
4.63370628363e-06
4.51587844538e-06
4.10000434146e-06
4.69423538649e-06
2.25721308172e-05
4.15553496985e-07
4.13391600715e-06
3.57702931768e-06
4.81939157598e-06
5.93745272058e-06
5.92797059636e-06
5.15099177468e-06
3.55491676856e-06
5.14704302329e-06
6.81348351717e-06
6.36491221184e-06
1.14995148981e-05
9.06667603506e-06
7.81070548915e-06
9.09601209729e-06
5.07588784239e-06
2.55348352933e-06
1.20143466313e-05
1.08284812769e-06
2.1161843664e-06
7.44405491772e-07
3.69249877577e-07
4.33554461407e-07
2.05170574948e-07
4.88625069382e-05
4.28089204521e-06
2.8312686732e-07
2.21966006279e-07
2.24968094594e-07
2.66488830025e-07
2.90170475379e-07
8.02991670672e-07
2.24892203522e-07
3.30856489233e-06
1.01250547115e-07
2.51561457008e-06
1.65235453091e-07
2.45311860028e-06
9.6199964866e-07
2.25910794037e-06
9.00882939036e-08
2.88930153013e-08
2.68518886645e-10
9.11720100124e-09
6.39895869263e-07
7.25939158971e-07
3.12121682837e-09
3.4519149577e-08
1.69978746218e-08
2.68228960028e-08
3.79549366126e-09
7.04323991047e-07
1.19996669475e-08
3.75507322888e-06
2.33494039127e-06
1.96805286439e-08
4.43556824315e-08
2.28161672717e-07
2.93824716896e-07
4.2684824107e-08
3.05714097808e-07
4.30173207369e-08
4.02187265697e-07
3.53651978286e-07
2.88746226545e-08
6.11075808578e-08
3.23184329386e-07
7.0206034672e-07
1.39023522308e-06
1.02869735925e-06
4.10277550276e-07
2.35920952349e-06
8.45242755011e-07
9.40090627464e-06
1.31459208585e-05
3.6091714965e-07
9.58986080314e-08
1.25861982007e-07
6.42029488106e-08
4.86386133412e-07
4.43982418126e-07
7.22165453598e-08
6.6502714735e-07
1.03359939122e-06
1.3690369664e-06
4.09406759311e-07
2.00879722626e-07
3.57169803921e-07
9.27284226603e-07
2.32661153085e-07
3.42626236905e-07
4.97042335028e-07
1.16841660656e-06
1.41629893844e-06
4.44820295802e-07
5.88232519209e-07
7.1342554949e-06
6.33616002607e-06
1.62447921519e-05
1.5277150504e-05
1.58928941426e-05
1.62203705929e-05
1.14324663162e-05
1.04046695821e-05
1.36506666396e-05
1.5822832621e-05
1.52990247319e-07
1.01126697624e-08
5.52549544705e-08
5.39217762817e-08
2.22600692209e-06
2.54428327181e-07
3.95198924138e-06
5.45556190723e-07
2.48702920873e-07
7.2456517141e-06
1.69081009454e-06
4.80666099344e-06
3.46557024915e-07
4.04151561593e-07
5.37430927177e-07
2.86351115864e-07
1.03726216049e-07
7.92932557263e-08
3.24696697723e-07
1.68100686513e-06
1.94043387604e-05
7.05756410811e-08
1.1550419262e-06
1.1593000234e-05
6.56769258098e-08
1.09419834724e-06
1.17938653601e-06
2.3426894672e-06
1.0805639536e-06
1.21397931925e-05
7.29188946908e-06
1.54836601426e-05
6.05065927923e-08
5.53939596185e-07
1.42154973975e-07
7.13589427992e-08
9.69134220115e-06
9.45044319124e-06
7.07729371284e-08
3.40032263203e-08
1.00195803232e-07
2.80716344819e-08
6.81057774719e-08
1.80159322484e-08
8.27597075876e-08
1.55452754941e-08
3.86759361015e-08
1.37663129161e-08
5.90250712441e-08
1.07410713196e-08
4.3342613134e-08
1.00581078435e-07
5.83864848958e-09
1.49115226304e-05
1.2324744617e-07
1.87429072217e-07
9.56035306759e-08
2.75229831636e-07
3.92171522823e-08
1.6354453446e-06
2.01153793709e-07
2.79759116749e-07
1.36241517263e-06
2.69050342965e-07
6.24552510068e-08
3.36925204103e-08
1.62232445314e-06
1.22921508574e-06
2.26810407401e-06
1.99800318174e-06
4.71328018531e-07
3.39525172495e-06
1.46110837267e-06
1.61915413577e-06
2.56183578197e-06
6.23063749144e-06
3.59780229746e-06
1.42570185325e-06
3.33912802913e-06
1.42061293543e-06
8.67974544589e-07
8.74416257017e-07
7.38156050713e-07
2.12744619338e-06
3.22785661879e-06
4.43247143499e-07
4.06928446265e-07
4.06602648597e-07
1.10483179212e-06
8.30016194004e-07
2.29098693741e-07
9.02493029455e-06
9.29171192873e-06
1.50528706563e-06
3.61580560849e-07
3.04651185444e-07
4.95786699549e-07
2.44248040575e-05
1.47351068594e-05
1.65258935056e-06
7.71370436636e-06
1.06741192338e-05
6.60749981796e-06
5.86894332735e-08
6.21340369969e-08
8.26623190311e-07
3.39583364431e-06
5.28755944152e-06
5.66964434532e-06
4.3476550961e-06
5.04059060376e-06
6.77652464368e-06
2.14704646777e-05
1.53622654992e-05
1.13039835481e-05
4.42085822793e-06
5.17384953195e-06
2.05822994799e-05
3.39931178933e-05
3.48785852688e-06
2.49485522237e-06
1.45191218389e-07
6.46659368523e-06
9.37441201117e-07
3.02315773363e-06
6.22921568877e-07
8.50618807452e-07
8.31179122062e-07
6.47843932961e-08
2.20220208218e-07
8.44361282246e-06
7.31255093937e-06
5.80508287932e-11
3.85939236286e-08
8.27910926476e-08
1.05587160671e-07
6.01595900964e-08
7.08185430618e-07
1.55737780803e-06
3.39334713299e-07
5.73172090453e-07
3.78447117327e-08
4.42870761016e-08
4.1607769323e-08
4.1171386109e-08
5.00476820412e-07
1.04387530748e-05
7.82028929083e-06
4.79876112569e-08
2.85130559605e-08
2.62169118517e-06
1.25070940262e-06
4.24639478776e-06
6.77950455537e-06
1.19546751317e-06
1.27717418657e-06
1.9551138499e-06
1.99603745451e-05
8.48008338345e-08
1.38780590766e-07
3.39534635014e-07
8.94805999481e-06
2.58594473458e-05
3.90477171975e-06
4.2886309578e-06
3.38908077667e-06
1.11014522576e-07
1.36917551932e-07
4.92423518106e-08
4.52569602445e-06
7.93347702268e-08
1.98695068451e-07
6.5074802266e-08
2.78990565864e-07
5.96435008396e-07
6.06846989087e-08
3.89382062964e-07
8.16674798806e-07
2.4785546505e-07
3.94768937671e-07
2.22637420028e-05
3.09726365049e-05
3.75375929645e-06
5.66208210542e-07
1.44017583267e-06
1.0346778304e-05
2.6521483315e-05
3.37993662943e-06
2.31191678479e-06
3.97504408196e-08
5.51870625381e-06
1.91210590699e-06
6.5462089403e-06
2.77524171631e-06
6.27286047177e-07
5.49923091231e-07
8.24676199151e-07
1.73998239732e-07
2.1871465605e-06
2.87746511174e-06
4.45091486113e-06
1.37552723053e-07
2.51187088919e-07
1.07694010278e-07
3.52571544173e-06
1.00778749345e-07
1.38905605382e-05
6.8113453678e-06
1.81365999156e-06
6.75375462786e-06
3.2531234489e-06
8.40433195431e-06
1.76283054445e-07
3.36318456749e-06
2.48227993081e-06
8.41756981789e-08
9.37377156763e-08
2.91347216647e-06
2.82653996625e-07
1.40282113863e-07
6.01426378185e-07
3.88858037673e-07
2.75357805498e-06
2.47879109426e-06
2.90563231478e-06
3.04201451361e-06
6.84285032706e-06
5.86797293658e-08
1.30797062e-07
4.31557993113e-07
1.55818992408e-06
4.0295692042e-07
4.10619987246e-07
5.99183117793e-08
3.56774536633e-07
8.32953217534e-08
7.56847150622e-08
6.17598786551e-08
3.61445158566e-07
9.16871990581e-08
8.37093743632e-08
1.11385198595e-05
3.917414418e-06
2.68594926329e-06
9.54911943905e-07
4.88346666838e-08
3.0335506295e-07
3.87439141712e-07
2.04271970833e-06
3.35876049347e-06
6.7957360291e-08
3.47486221537e-08
1.02602147589e-07
1.35746191077e-07
2.50328063279e-07
1.68731357078e-07
3.87833275242e-07
3.55836408279e-07
2.68465442753e-07
2.92191571061e-07
9.7385199979e-06
1.07769543033e-05
4.32582681268e-08
4.83607736899e-08
2.87637757988e-07
2.99854425619e-07
3.12685040288e-07
5.01081559776e-08
1.55049465252e-05
4.57718779311e-07
5.30911141625e-07
5.20615418711e-07
9.14167827611e-08
1.10758339386e-07
2.23752753186e-07
4.87115935618e-08
6.14763079138e-06
8.62157919788e-06
8.6491820976e-06
7.38552078133e-08
4.31402400406e-07
2.29333380021e-07
1.25334520225e-06
4.9540305785e-07
1.07444094633e-06
1.86790474612e-05
1.65453004121e-05
6.682933325e-07
1.06514213908e-05
1.55381674594e-06
3.67116657649e-06
4.96432371798e-08
6.27188678258e-06
2.49255925446e-08
1.14825864729e-05
6.57689992673e-06
3.2350516867e-06
3.95945929917e-06
1.45507993741e-07
4.59647381242e-08
4.06275792903e-08
5.52103225805e-06
4.77181260353e-06
3.26344952255e-08
3.21175086809e-08
5.99425793463e-06
8.5731965362e-06
4.01369327085e-08
5.25621537111e-08
1.78809200439e-07
6.27523973731e-08
9.32927618659e-06

