# vtk DataFile Version 3.0
File Name: Molecule/sphere_excent/sphere_excent_0-s14.vtk
ASCII
DATASET UNSTRUCTURED_GRID
FIELD FieldData 1
TIME 1 1 double
0.0
POINTS 121 double
0.0045490409248 1.69292593 1.0644774437
-1.0674871206 1.4924625158 0.79432803392
-0.64822781086 1.1152328253 1.5270477533
-1.623701334 0.60055714846 1.0010193586
-1.6961853504 1.0592172146 0.017058249563
0.73570281267 1.0258162022 1.5495368242
0.082161746919 0.87363755703 1.7958244085
0.63416594267 -1.0326577425 1.5880324841
0.007558003068 -1.707175374 1.0417131186
0.94362837076 -1.6417011023 0.63354820013
0.50215107203 -1.1770241261 -1.5367023945
-0.012046818621 -1.7139470577 -1.0306410789
-0.63141512871 -1.0691577196 -1.5661373138
1.6127836704 -0.54802399874 1.0362911224
1.5591659546 0.52708405256 1.1342439651
1.0683014393 0.020102027804 1.6857119799
0.95988160372 1.5579936504 0.8034311533
-1.9925125837 0.085322774947 0.052482031286
-1.9214625359 0.074795156717 -0.52728259563
-1.1373493671 1.4902356863 -0.69362950325
-1.6303008795 0.74556940794 -0.88501232862
-0.89137619734 -1.6736497879 -0.63386082649
0.00027837831294 -1.999278307 0.0080255018547
-1.1993149519 -1.5944612026 0.092391826212
-0.91324800253 -1.644415617 0.67563986778
-0.6265386343 -1.1682910919 1.4922251701
-1.1797543764 -0.0020204661414 1.6146308184
-1.6454136372 -0.53638100624 0.99765604734
0.92394888401 -1.6434031725 -0.66146481037
1.2172417641 -1.5776162148 0.11097618937
0.0018451027572 1.9996731281 0.0026222520974
-0.5606123209 1.8865960836 0.35585653782
-0.55860239267 1.8872696161 -0.3552903533
-1.0886411667 1.677549839 0.0095094460994
0.09492072463 1.72491467 -1.0055946112
1.007142067 1.6097449064 -0.62721997499
1.0725332499 1.687374115 0.040790211409
1.6748942137 1.0829732418 -0.12352906168
0.55540013313 1.897387743 -0.30296856165
0.55794799328 1.8871332407 0.35588863492
1.6753230095 0.69190502167 -0.84259420633
1.371055603 1.1654913425 -0.8728928566
1.1669498682 0.96514731646 -1.3064182997
0.82450115681 1.3621731997 -1.209620595
0.34557729959 0.97190475464 -1.7117877007
1.7447315454 -0.97068530321 0.028831804171
1.9070843458 -0.35673442483 -0.483972013
1.9900161028 -0.12751801312 0.13091742992
1.6134496927 -0.72463899851 -0.93325519562
1.7405847311 -0.14616715908 -0.97379684448
1.9168454409 0.29496693611 -0.48844709992
1.0842781067 0.021066034213 -1.6803429127
0.86485105753 -0.52434158325 -1.7255129814
0.5569306612 0.01394644659 -1.9207180738
0.27475628257 -0.56117373705 -1.8991023302
-0.040780428797 0.05171982944 -1.998622179
1.3662282228 -0.41716486216 -1.3996397257
1.1496536732 -0.93455916643 -1.3425889015
1.4415163994 0.69139230251 -1.2017090321
0.87340933084 0.90310508013 -1.5559034348
0.84365200996 0.48319277167 -1.7477405071
1.1531444788 0.56157010794 -1.5346463919
1.4014855623 0.33976995945 -1.3857398033
1.6685962677 0.30384656787 -1.0597621202
1.4761030674 -0.00072702218313 -1.3494223356
-0.89253568649 0.50630480051 1.7162585258
-0.3947172761 0.57003504038 1.8757683039
-0.57084596157 -0.0018634179141 1.9167705774
-0.92286199331 -0.54561722279 1.6855039597
-0.31617444754 -0.55051094294 1.8946566582
-1.0418417454 0.0099558858201 -1.7070461512
-1.3668549061 -0.31411772966 -1.4257285595
-1.3772114515 0.35040766001 -1.4066232443
-1.7110995054 0.006302439142 -1.0337250233
-1.6061015129 -0.68516260386 -0.97422802448
-0.96280223131 1.2048995495 -1.2687236071
-0.8625459671 0.51154881716 -1.7301665545
-1.3385118246 -1.1666067839 0.91645443439
-0.3672144413 -0.45449194312 -1.9129126072
-0.58443450928 0.03316617012 -1.9122849703
-0.83156532049 -0.44613859057 -1.7636555433
-0.35448342562 0.54852056503 -1.8902769089
-0.57562273741 0.99828439951 -1.6333397627
0.41235250235 0.47714856267 1.8972578049
1.8821686506 0.29389980435 0.60687226057
1.9256088734 0.53210043907 0.096076525748
1.7266718149 0.86131495237 0.52615714073
1.4300882816 1.3348944187 0.41658523679
1.3718600273 1.1177303791 0.93139338493
-0.32250317931 1.4095497131 -1.3815463781
-0.56978499889 1.6609814167 -0.9571891427
-0.07681542635 0.30468550324 1.9747245312
0.16398635507 -0.063344419003 1.9922283888
-0.069837227464 -0.31450220942 1.9729813337
-1.6917843819 -0.92941844463 -0.52086275816
-1.8838376999 -0.43051314354 -0.49998983741
-1.9227968454 -0.54456704855 0.031082095578
-1.3457041979 -1.2217031717 -0.83318263292
-1.3915014267 -1.3866746426 -0.37291154265
-1.6888183355 -1.0644022226 0.095753923059
-1.4241712093 -1.352460742 0.37526717782
-1.6976336241 -0.91940623522 0.52364701033
1.6926156282 -0.94949370623 -0.48333728313
1.3815799952 -1.2128033638 -0.78744828701
1.394228816 -1.3888963461 -0.34894049168
-1.5436112881 -1.2661789656 -0.083045586944
-1.7175892591 -1.0030986071 -0.20338118076
1.3536113501 -1.1701043844 0.88304102421
0.89584410191 -0.52840340137 1.7035896778
1.7222853899 -0.86256283522 0.53835695982
1.4308953285 -1.3478935957 0.36358654499
-1.8412964344 -0.74142193794 -0.245130077
-1.8198113441 -0.82912683487 0.020965980366
1.5659457445 -1.2388384342 -0.10425705463
-0.0053379461169 -1.1421511173 1.640615344
0.4124610126 -0.54652285576 1.8793221712
0.61929893494 -0.056797675788 1.900601387
-0.45043596625 -0.87513661385 1.7409678698
0.14683030546 -0.80746161938 1.8232556581
-1.9763948917 -0.17213308811 -0.25222837925
-1.8334181309 -0.21001471579 -0.77023047209

CELLS 238 952
3 0 1 2
3 1 3 2
3 1 4 3
3 5 0 6
3 7 8 9
3 10 11 12
3 13 14 15
3 16 0 5
3 14 5 15
3 17 4 18
3 19 20 4
3 21 22 23
3 21 11 22
3 24 22 8
3 24 8 25
3 26 3 27
3 3 17 27
3 3 4 17
3 12 11 21
3 11 28 22
3 9 22 29
3 22 9 8
3 10 28 11
3 30 31 0
3 0 31 1
3 30 32 31
3 32 33 31
3 32 19 33
3 31 33 1
3 34 32 30
3 1 33 4
3 33 19 4
3 35 36 37
3 35 38 36
3 38 39 36
3 38 30 39
3 36 39 16
3 30 38 34
3 34 38 35
3 16 39 0
3 39 30 0
3 40 41 37
3 37 41 35
3 42 43 41
3 41 43 35
3 35 43 34
3 43 44 34
3 45 46 47
3 48 49 46
3 49 50 46
3 46 50 47
3 50 40 37
3 51 52 53
3 52 54 53
3 52 10 54
3 53 54 55
3 12 54 10
3 51 56 52
3 56 57 52
3 56 48 57
3 52 57 10
3 10 57 28
3 53 55 44
3 48 56 49
3 40 58 41
3 58 42 41
3 42 59 43
3 59 44 43
3 44 59 60
3 59 61 60
3 59 42 61
3 60 61 51
3 51 61 62
3 61 58 62
3 61 42 58
3 62 58 63
3 49 63 50
3 63 40 50
3 40 63 58
3 63 64 62
3 63 49 64
3 62 64 51
3 44 60 53
3 53 60 51
3 51 64 56
3 56 64 49
3 26 65 3
3 3 65 2
3 2 65 66
3 65 67 66
3 65 26 67
3 26 68 67
3 68 69 67
3 70 71 72
3 71 73 72
3 71 74 73
3 72 73 20
3 72 75 76
3 25 68 77
3 27 68 26
3 74 71 12
3 55 78 79
3 78 80 79
3 78 12 80
3 79 80 70
3 55 81 44
3 81 82 44
3 55 79 81
3 79 76 81
3 79 70 76
3 81 76 82
3 12 78 54
3 54 78 55
3 82 76 75
3 72 76 70
3 70 80 71
3 71 80 12
3 5 83 15
3 47 84 13
3 84 14 13
3 47 85 84
3 85 86 84
3 85 37 86
3 84 86 14
3 37 87 86
3 87 88 86
3 87 16 88
3 86 88 14
3 14 88 5
3 5 88 16
3 34 89 90
3 89 75 90
3 89 82 75
3 90 75 19
3 19 75 20
3 20 75 72
3 82 89 44
3 44 89 34
3 34 90 32
3 32 90 19
3 16 87 36
3 36 87 37
3 37 85 50
3 50 85 47
3 66 6 2
3 2 6 0
3 66 91 6
3 91 83 6
3 91 92 83
3 6 83 5
3 92 91 93
3 67 91 66
3 74 94 95
3 17 96 27
3 21 97 12
3 12 97 74
3 74 97 94
3 97 98 94
3 97 21 98
3 99 100 101
3 100 77 101
3 100 24 77
3 101 77 27
3 27 77 68
3 25 77 24
3 48 102 103
3 102 104 103
3 103 104 28
3 45 102 46
3 46 102 48
3 48 103 57
3 57 103 28
3 99 105 100
3 105 23 100
3 105 98 23
3 100 23 24
3 24 23 22
3 21 23 98
3 96 101 27
3 94 98 106
3 9 107 7
3 7 107 108
3 13 107 109
3 107 110 109
3 107 9 110
3 109 110 45
3 13 109 47
3 47 109 45
3 94 111 95
3 111 96 95
3 94 106 111
3 106 112 111
3 106 99 112
3 111 112 96
3 104 29 28
3 28 29 22
3 104 113 29
3 113 110 29
3 113 45 110
3 29 110 9
3 45 113 102
3 102 113 104
3 96 112 101
3 101 112 99
3 99 106 105
3 105 106 98
3 7 114 8
3 8 114 25
3 92 115 116
3 115 108 116
3 115 7 108
3 116 108 15
3 15 108 13
3 13 108 107
3 25 117 68
3 68 117 69
3 69 93 67
3 67 93 91
3 92 93 115
3 93 118 115
3 93 69 118
3 115 118 7
3 7 118 114
3 118 117 114
3 118 69 117
3 114 117 25
3 73 18 20
3 20 18 4
3 92 116 83
3 83 116 15
3 17 119 96
3 96 119 95
3 95 120 74
3 74 120 73
3 73 120 18
3 119 18 95
3 120 95 18
3 18 119 17

CELL_TYPES 238
5
5
5
5
5
5
5
5
5
5
5
5
5
5
5
5
5
5
5
5
5
5
5
5
5
5
5
5
5
5
5
5
5
5
5
5
5
5
5
5
5
5
5
5
5
5
5
5
5
5
5
5
5
5
5
5
5
5
5
5
5
5
5
5
5
5
5
5
5
5
5
5
5
5
5
5
5
5
5
5
5
5
5
5
5
5
5
5
5
5
5
5
5
5
5
5
5
5
5
5
5
5
5
5
5
5
5
5
5
5
5
5
5
5
5
5
5
5
5
5
5
5
5
5
5
5
5
5
5
5
5
5
5
5
5
5
5
5
5
5
5
5
5
5
5
5
5
5
5
5
5
5
5
5
5
5
5
5
5
5
5
5
5
5
5
5
5
5
5
5
5
5
5
5
5
5
5
5
5
5
5
5
5
5
5
5
5
5
5
5
5
5
5
5
5
5
5
5
5
5
5
5
5
5
5
5
5
5
5
5
5
5
5
5
5
5
5
5
5
5
5
5
5
5
5
5
5
5
5
5
5
5
5
5
5
5
5
5

CELL_DATA 238
SCALARS cell_data_0 double
LOOKUP_TABLE default
1.64989206213e-05
1.78680497564e-05
8.80401516579e-06
2.39756193793e-05
5.16306451928e-06
2.09207341741e-05
2.12852396838e-05
1.73155041895e-05
2.484253258e-05
3.67120749885e-05
1.04507355538e-06
1.02113626478e-06
1.37460377003e-05
3.37659154399e-06
3.75181874368e-06
1.60244350959e-05
1.39413819365e-05
4.91225427037e-06
1.7963558971e-05
1.10650156811e-05
2.29027532226e-06
3.9345217388e-06
1.26501964994e-05
4.34746698601e-06
7.89016811077e-06
2.04848487717e-06
2.27511275325e-06
1.78697263949e-06
3.75283412501e-06
1.5295776633e-05
3.93219708024e-06
8.07807791265e-07
4.03359913911e-05
1.80568979741e-05
6.66842579861e-07
1.00415870778e-06
1.92689295348e-06
1.50443223994e-05
5.83434949351e-05
4.76046286291e-06
2.92011082548e-06
1.08260487468e-05
3.50242884908e-05
8.94000219195e-08
1.94077457249e-05
6.40853013843e-05
3.40645517743e-05
4.8993443101e-07
8.78307616394e-07
1.15006806198e-06
7.01020859599e-07
9.65410095199e-06
1.17733237161e-05
2.11884679391e-07
1.15658692511e-06
8.54418317233e-07
5.695766828e-06
1.15542708541e-05
2.40203581005e-07
3.70616374081e-07
9.72337742463e-07
1.1489894328e-06
6.14300183572e-06
6.04724534431e-07
2.3952123088e-06
1.88489730135e-07
7.14155516915e-08
2.50404470353e-06
1.65421858367e-06
1.00167500595e-07
8.27756658622e-08
7.54843987424e-06
7.39110958745e-06
1.05211380238e-07
1.22811658631e-07
1.86789324489e-07
7.77885358125e-07
2.0089738218e-06
1.74091955326e-06
6.8155839011e-06
8.43014684406e-06
2.1514351958e-05
2.47090133604e-06
1.0396911212e-05
2.66351639597e-05
9.52585415109e-06
4.4956767561e-06
1.63173971541e-05
3.2837540092e-06
1.76849011056e-06
1.52728469392e-06
8.8547734445e-07
2.73872480506e-05
1.9217235857e-05
3.00408556714e-07
2.93235627062e-07
3.75977997557e-07
1.23031149505e-06
6.515704016e-06
4.1818103298e-06
2.99704806975e-06
1.08741128639e-06
1.64865761394e-07
1.37913709971e-06
1.60463413529e-05
1.27973757016e-05
1.17333871781e-05
3.88017795869e-06
2.1797946645e-06
1.67836812597e-05
3.15632670573e-06
2.06185123207e-06
1.33386014752e-06
2.05688218109e-06
1.83593846867e-05
1.74622150803e-05
1.07510997038e-06
2.09329606827e-05
6.60456763587e-07
8.99215435856e-06
1.07918832789e-06
2.05364747869e-06
7.04711130873e-07
3.69574916968e-06
2.81549084148e-05
1.55198645283e-05
1.92737745069e-05
4.38129376499e-06
1.21213217562e-05
9.14519648891e-06
1.61740342411e-05
4.33469957705e-06
3.3437607728e-06
3.08900714802e-06
1.41473392399e-06
1.61816402277e-06
7.10379358679e-06
3.14680622476e-05
1.58681992196e-05
4.62927746452e-07
2.64002193544e-05
4.13396825751e-05
3.16571999128e-07
4.65524295551e-08
2.06949657116e-05
2.39554809191e-05
2.02658378292e-05
1.02405438684e-05
9.64079944374e-06
1.3505214169e-05
1.63235257182e-05
2.36047403967e-05
3.21395917204e-05
5.19794129366e-05
3.32288886838e-06
3.38375756071e-06
2.17996526404e-07
2.86387449819e-05
3.75636141867e-05
1.29317234561e-06
2.40595485296e-06
3.35364778341e-06
3.73728387022e-06
2.50539941424e-06
7.15032969739e-06
7.18198946678e-07
7.71360408943e-07
3.96549295998e-07
9.25884414099e-07
4.60044433812e-07
4.2894752274e-07
5.65339409134e-07
5.16994464847e-07
4.88952021598e-07
2.0591979806e-05
1.73147999e-06
4.16196221406e-06
4.02347678793e-05
3.19235132824e-05
2.2754901812e-05
7.787877704e-06
8.36359532332e-06
3.00840358489e-06
2.34410481619e-06
2.87172245873e-06
1.57585588404e-06
1.55638458357e-06
2.19890617672e-07
1.6830812332e-05
4.75860376437e-05
3.5665437305e-07
3.96269347719e-06
3.37105129592e-06
1.75520938746e-05
1.51343564044e-07
3.34961556021e-07
3.95840026605e-07
1.6320891033e-07
5.02812689965e-07
9.25174000696e-07
1.22522923502e-08
2.96476542647e-07
3.14099987314e-05
3.54617933515e-06
3.22960522836e-07
1.70857154711e-05
1.23692553011e-05
1.17060709854e-05
1.09291126411e-05
1.57485918492e-05
1.25749415177e-05
1.44100533932e-05
1.62959407099e-05
8.39501293915e-06
1.47321113803e-05
8.86325998224e-06
2.05222552394e-05
3.62084535993e-05
1.75314317619e-05
1.4634538215e-05
1.55653038128e-05
1.04645878256e-05
8.42177941019e-06
6.79493338633e-06
1.2696086245e-05
4.22439837938e-06
2.38512047654e-05
5.14738202621e-05
1.12088892631e-05
9.43945195794e-06
2.07274184013e-05
5.71423245896e-05
2.46135429089e-05
1.18100027572e-07
8.23340140526e-06
3.38519912784e-05
3.34135046893e-05
8.09179325821e-06

