# vtk DataFile Version 3.0
File Name: Molecule/sphere_excent/sphere_excent_0-s3.vtk
ASCII
DATASET UNSTRUCTURED_GRID
FIELD FieldData 1
TIME 1 1 double
0.0
POINTS 48 double
1.7013015747 -1.0514621735 -2.780756958e-08
1.6178591251 -0.6179651618 -0.99989336729
1.9997907877 3.3968324715e-05 2.2678545974e-06
1.6178691387 0.61800122261 -0.99988758564
1.0514618158 9.2466086699e-07 -1.7013016939
1.700979948 1.0519756079 5.5459899784e-08
1.0081974268 1.599393487 -0.64474147558
0.61775374413 0.99966818094 -1.6181758642
-0.00046604423551 1.702042222 -1.0500936508
-0.000465960562 1.7020424604 1.050093174
-1.0172531605 1.5847612619 0.66848009825
-0.61744433641 0.9990208149 1.6187450886
-1.6182456017 0.61669754982 1.0002377033
-1.7005307674 1.0526160002 1.1061190435e-06
-1.0514575243 -1.6824147679e-05 1.7013045549
0.61776566505 0.99966150522 1.6181755066
6.0551219576e-06 -3.7130907003e-05 1.9997873306
1.0514620543 6.5505247449e-07 1.7013016939
-0.61796855927 -0.99989300966 1.6178569794
0.61797100306 -0.99989330769 1.6178557873
3.7547263076e-08 -1.7013015747 1.0514621735
1.6178593636 -0.61796462536 0.99989324808
0.99989008904 -1.6178606749 0.61796301603
0.61796498299 -0.99989056587 -1.6178598404
-2.2651718155e-06 -1.0953119272e-05 -1.999786377
-0.61797070503 -0.99989336729 -1.6178557873
-3.6193654296e-08 -1.7013015747 -1.0514621735
-1.0514578819 -1.6508885892e-05 -1.7013044357
1.6180089712 0.61754846573 1.0000283718
1.0082290173 1.5993955135 0.64469873905
-1.617857933 -0.61796933413 -0.99989420176
-1.6182487011 0.61670410633 -1.000227809
-1.9997918606 5.9141941165e-05 2.5068943614e-06
-1.7013019323 -1.0514615774 4.4994614257e-08
-0.61745882034 0.99901252985 -1.6187454462
-1.0173045397 1.5847610235 -0.66840237379
-0.99989014864 -1.6178605556 -0.61796307564
-0.99989145994 -1.6178582907 0.61796700954
2.3295865503e-06 -1.9997826815 3.2439888997e-08
-1.6178489923 -0.61799269915 0.99989581108
0.99989128113 -1.6178580523 -0.61796712875
0.027815623209 1.9993799925 7.5097119634e-07
-0.52815556526 1.9016301632 0.3242072463
-0.52817672491 1.9016216993 -0.32422590256
-1.0506352186 1.7018089294 4.2975834731e-06
1.0510638952 1.7015730143 -6.6514621722e-07
0.54429519176 1.8972303867 -0.32343092561
0.54431343079 1.8972200155 0.32346194983

CELLS 92 368
3 0 1 2
3 1 3 2
3 1 4 3
3 2 3 5
3 5 3 6
3 3 7 6
3 3 4 7
3 6 7 8
3 9 10 11
3 10 12 11
3 10 13 12
3 11 12 14
3 9 11 15
3 11 16 15
3 11 14 16
3 15 16 17
3 14 18 16
3 18 19 16
3 18 20 19
3 16 19 17
3 17 19 21
3 19 22 21
3 19 20 22
3 21 22 0
3 4 23 24
3 23 25 24
3 23 26 25
3 24 25 27
3 0 2 21
3 2 28 21
3 2 5 28
3 21 28 17
3 5 29 28
3 29 15 28
3 29 9 15
3 28 15 17
3 27 30 31
3 30 32 31
3 30 33 32
3 31 32 13
3 8 34 35
3 34 31 35
3 34 27 31
3 35 31 13
3 33 36 37
3 36 38 37
3 36 26 38
3 37 38 20
3 33 37 39
3 37 18 39
3 37 20 18
3 39 18 14
3 14 12 39
3 12 32 39
3 12 13 32
3 39 32 33
3 27 25 30
3 25 36 30
3 25 26 36
3 30 36 33
3 26 40 38
3 40 22 38
3 40 0 22
3 38 22 20
3 4 1 23
3 1 40 23
3 1 0 40
3 23 40 26
3 4 24 7
3 24 34 7
3 24 27 34
3 7 34 8
3 41 42 9
3 9 42 10
3 41 43 42
3 43 44 42
3 43 35 44
3 42 44 10
3 35 43 8
3 8 43 41
3 10 44 13
3 44 35 13
3 6 45 5
3 5 45 29
3 6 46 45
3 46 47 45
3 46 41 47
3 45 47 29
3 41 46 8
3 8 46 6
3 29 47 9
3 47 41 9

CELL_TYPES 92
5
5
5
5
5
5
5
5
5
5
5
5
5
5
5
5
5
5
5
5
5
5
5
5
5
5
5
5
5
5
5
5
5
5
5
5
5
5
5
5
5
5
5
5
5
5
5
5
5
5
5
5
5
5
5
5
5
5
5
5
5
5
5
5
5
5
5
5
5
5
5
5
5
5
5
5
5
5
5
5
5
5
5
5
5
5
5
5
5
5
5
5

CELL_DATA 92
SCALARS cell_data_0 double
LOOKUP_TABLE default
6.67774224693e-05
9.6539217781e-05
8.17024606979e-05
4.74240692502e-05
0.000126771527714
0.000677612664241
0.000413299804234
0.000407106399257
3.44096861478e-06
6.92582019275e-06
4.18885574144e-05
3.58249875437e-05
3.32899130073e-05
6.26210493001e-05
5.73132563737e-05
2.80338006419e-05
3.69033545772e-05
3.50223569758e-05
2.49399016633e-05
2.80147521503e-05
1.97921037098e-05
2.51658390941e-05
2.03268595367e-05
2.73012702508e-05
6.56281855377e-06
8.55507015719e-06
6.20952992837e-06
2.20828200222e-06
2.13688256614e-05
1.51054085038e-05
7.5783870211e-06
1.98814922454e-05
2.05666142686e-05
1.27949855328e-05
1.34196186797e-05
2.51965171156e-05
1.65733461193e-06
1.85428216503e-06
2.67734427701e-06
3.35475749541e-06
1.45209510237e-05
1.03017415619e-05
9.61661435471e-07
1.79031369306e-05
5.08154018038e-06
1.15937960194e-05
1.37656964159e-05
4.06781902896e-06
8.08102264465e-06
2.43134684086e-05
2.03450539399e-05
2.75674130773e-05
2.42980805083e-05
1.44362418708e-05
1.43018689488e-06
6.23422208502e-06
3.44779205872e-06
8.19761637057e-06
4.54530472243e-06
1.11029082338e-05
9.01093391495e-06
1.84784372566e-05
5.66322857967e-05
3.83831026367e-06
2.01167875329e-05
2.71105468995e-05
7.13974797052e-05
7.38380987853e-06
0.00026360862344
0.000323238187602
2.99684017312e-06
0.000280330657597
1.2585212169e-05
8.60885940464e-06
1.38835653318e-05
3.38533281024e-07
3.2290360326e-06
1.22639383835e-05
6.98110666125e-06
2.57108073755e-05
2.81558531943e-05
1.15095296657e-05
2.11683997507e-05
1.83740334886e-05
1.47915958654e-05
3.44115663137e-07
1.29156190686e-05
1.33950858636e-05
2.46693614256e-05
2.78948360595e-05
1.10028932136e-05
1.20693141618e-05

