# vtk DataFile Version 3.0
File Name: Molecule/sphere_excent/sphere_excent_0-s27.vtk
ASCII
DATASET UNSTRUCTURED_GRID
FIELD FieldData 1
TIME 1 1 double
0.0
POINTS 299 double
-0.063530065119 1.7373011112 0.98775792122
-1.0901868343 1.473180294 0.79942315817
-0.58723443747 1.2221868038 1.4692642689
-1.6544262171 1.1141248941 0.14730508626
-1.669491291 0.6828751564 0.86325889826
0.63820755482 -1.202737689 1.4647464752
0.015987595543 -1.720446825 1.0196505785
0.80687242746 -1.6752691269 0.73631423712
0.33775746822 -1.1894009113 -1.5708090067
-0.015054066665 -1.724952817 -1.0115100145
-0.35016593337 -1.1363201141 -1.6063634157
1.5537134409 -0.41018232703 1.1905133724
1.5307388306 0.47749829292 1.1938370466
1.1853699684 0.043958932161 1.6092611551
-0.6682715416 -1.7924420834 -0.58310687542
0.025417326018 -1.9996345043 0.028373509645
-0.98371338844 -1.7384632826 0.085193902254
-0.77171373367 -1.6904705763 0.74004012346
-0.67109078169 -1.3130683899 1.3509269953
-1.9404153824 0.33604225516 0.34695348144
0.76897144318 -1.7225854397 -0.66340702772
1.0640964508 -1.6928676367 0.029515383765
-0.079174876213 1.9972151518 -0.01465371903
-0.55466854572 1.8847365379 0.37324368954
0.16153550148 1.962895155 0.33970206976
-0.53722763062 1.888579607 -0.37952435017
-1.1013829708 1.668661952 0.056338723749
-1.2448124886 1.4691708088 -0.53909277916
-0.073458820581 1.7786548138 -0.90910857916
0.20418187976 1.9293355942 -0.48539927602
1.0144904852 1.7077292204 0.22433742881
0.58362591267 1.8440181017 0.50434243679
1.1218703985 1.5292606354 0.63012516499
0.81316655874 1.5878120661 0.89787715673
0.97942131758 -0.083877854049 -1.7416387796
0.74056875706 -0.59986752272 -1.7578268051
0.50668746233 -0.11437301338 -1.9310104847
0.19445963204 -0.62240791321 -1.8901590109
0.059746552259 0.031500421464 -1.9985084534
0.92582917213 0.97159487009 -1.4826436043
1.1971607208 0.92942035198 -1.3049538136
1.0855958462 0.72357040644 -1.5158394575
1.3619976044 -0.4036000967 -1.4078561068
1.5187453032 -0.17873768508 -1.288847208
1.5259553194 -0.52563220263 -1.1811108589
-0.4491494894 0.65659713745 1.8347117901
-0.81876945496 0.43946284056 1.7706744671
-0.4112072289 0.22646380961 1.9435738325
-1.2359105349 -0.17371734977 1.5617315769
-0.98907285929 -0.69251489639 1.5940703154
-0.77106130123 -0.063791319728 1.8436686993
-0.43983289599 -0.52579784393 1.8785312176
-1.2305651903 -1.1406271458 1.0824906826
-1.5791734457 -0.50933378935 1.1163487434
-0.19704279304 0.50843405724 -1.9231112003
0.29683610797 0.4444141686 -1.9272084236
-1.3699748516 -0.34156063199 -1.4162874222
-0.95253103971 -0.66138869524 -1.6282610893
-1.28452456 -0.81821978092 -1.2961549759
1.8551973104 0.3719291091 0.6479408145
1.700007081 0.79170495272 0.69450879097
1.3852943182 1.0376688242 0.99857199192
1.0722568035 0.56678444147 1.5857331753
-0.56188172102 1.6869899035 -0.91433948278
1.9592627287 0.2388562113 -0.32136231661
1.9688153267 0.32424348593 0.12980760634
1.9930490255 -0.15842700005 0.038066871464
-0.014608617872 0.88801723719 1.7918611765
-0.028022160754 0.40389174223 1.9585072994
0.4042763114 0.48227182031 1.8980946541
0.28099551797 -0.010942826048 1.9799689054
-1.6458637714 -1.1082721949 0.25043874979
-1.5345009565 -1.281181097 0.054189804941
-1.3377065659 -1.4112790823 0.45718330145
1.2275944948 -1.0984470844 1.1306606531
1.0429474115 -0.59913110733 1.597848773
1.3142426014 -1.4536761045 -0.3967640996
1.5510320663 -1.2617390156 -0.045389126986
1.400859952 -1.3751060963 0.38173633814
1.7493052483 -0.93403470516 0.25781562924
1.7922961712 -0.88115853071 -0.10335402936
1.6941379309 -0.96784943342 -0.43342813849
-1.9264371395 -0.52602553368 0.10486008227
-1.8102004528 -0.81355971098 0.24440996349
-1.8485919237 -0.5319685936 0.54634386301
-1.6525245905 -0.93239635229 0.62650048733
-1.651397109 -1.1143360138 -0.17076145113
-1.7523258924 -0.9622592926 0.025517379865
-0.042425554246 -1.269020319 1.5452810526
0.50048196316 -0.54703450203 1.8574700356
0.7182494998 -0.10001946241 1.8639124632
-0.43549627066 -0.95372718573 1.7031309605
0.01320502162 -0.38038691878 1.963430047
0.064323872328 -0.83898973465 1.8143738508
-1.4678058624 0.90287780762 -1.0143252611
-1.6563185453 0.99072754383 -0.52399921417
-1.8531035185 -0.049130752683 0.74985384941
-1.5577346087 0.14728686213 1.2454628944
0.46159261465 1.7402169704 -0.87053257227
0.74366867542 1.7722909451 -0.5528626442
0.62199795246 1.8909465075 -0.18436962366
0.85450732708 1.5420892239 -0.94411498308
1.2701722383 1.299364686 -0.83544331789
1.0917104483 1.5565333366 -0.62055850029
0.47009441257 1.479670763 -1.2603441477
0.81812274456 1.2811071873 -1.2994488478
-1.9646254778 -0.20291125774 0.31398046017
-1.9188518524 -0.52023392916 -0.21688857675
-1.8515933752 -0.75475507975 -0.04326390475
-1.8336375952 -0.73454928398 -0.31111696362
-1.8589004278 -0.52231961489 -0.52132332325
-1.7046210766 0.5285525322 -0.90067571402
-1.8427045345 0.71611577272 -0.30122485757
-1.998918891 -0.04604768008 0.031106511131
-1.975733161 -0.30154263973 -0.071829594672
-1.9834042788 -0.10657569021 -0.23338128626
-1.940161109 -0.32685512304 -0.35852557421
-1.961622715 0.053849555552 -0.38549616933
-1.985938549 0.17036153376 -0.1611469835
-0.68783545494 -1.4932451248 -1.1388818026
-1.0399868488 -1.4822137356 -0.84975218773
-0.91727221012 -1.0913505554 -1.4020166397
-1.1536602974 -1.2011766434 -1.106934309
-1.4495686293 -0.96950089931 -0.97906213999
-1.5239239931 -1.0973567963 -0.6880826354
-1.6368983984 -0.84652370214 -0.77688741684
-1.326261282 -1.2331815958 -0.84868705273
-1.3407870531 -1.3580521345 -0.59809464216
-1.5475184917 -1.1956472397 -0.41868391633
-1.3984572887 -1.3843518496 -0.35762262344
-1.6911611557 -0.95567595959 -0.47559523582
-1.1029729843 -1.5710555315 -0.56088322401
-1.4751732349 -1.339902997 -0.16839598119
-1.1775102615 1.0079785585 1.2637118101
1.0796031952 1.6574728489 -0.28576478362
1.3802406788 1.3740961552 -0.45468875766
1.3594332933 1.4660289288 -0.048186838627
1.6706833839 1.0604708195 -0.28995892406
1.5208092928 1.0853544474 -0.71304959059
-1.1397765875 0.2208724618 1.6283568144
-1.2903223038 0.57252979279 1.4166091681
-0.88624787331 0.8210529685 1.593949914
-1.577349782 -0.6383587122 -1.0506010056
1.3588988781 1.4160282612 0.38320580125
-1.9438587427 0.46303299069 -0.066538460553
-1.9336150885 0.34368097782 -0.37832778692
-1.83581388 0.56003391743 -0.56215041876
-1.8557953835 0.30564808846 -0.67981106043
0.8194205761 0.75522792339 -1.6606023312
0.72810763121 0.51031774282 -1.7912992239
0.99410057068 0.51743018627 -1.6564668417
0.90986418724 0.28870773315 -1.7575079203
1.1094484329 0.29574009776 -1.6374377012
1.2353761196 0.47870802879 -1.4982359409
1.2800174952 0.15430611372 -1.5287493467
1.4018019438 0.32691553235 -1.3885647058
1.2851490974 0.69756156206 -1.3644987345
1.4423984289 0.53578323126 -1.2776551247
1.4052166939 0.8002743721 -1.1768023968
1.5550576448 0.30547586083 -1.2199738026
1.620372057 0.47613799572 -1.0710699558
1.7371451855 0.22354875505 -0.96521395445
1.6146353483 0.063078634441 -1.178237319
1.456684947 0.092362813652 -1.3670808077
1.7175430059 -0.20297835767 -1.0042175055
1.2953826189 -0.13881072402 -1.517434597
0.67887973785 0.20677527785 -1.8698376417
1.1171212196 -0.45440709591 -1.5953640938
0.13200432062 0.93777686357 -1.7605742216
0.59725445509 1.0763524771 -1.5761525631
0.517750144 0.76253956556 -1.7749085426
1.8648583889 0.64397794008 0.32728847861
1.8743458986 0.69000715017 -0.10244056582
1.7513631582 0.9476864934 0.18510185182
1.5706826448 1.2290453911 0.14910364151
1.5772653818 1.1202247143 0.50662022829
1.6924294233 0.79324126244 -0.71051728725
1.849629283 0.58161300421 -0.48892143369
-0.080090694129 0.016172803938 1.9982759953
-0.34514263272 -0.15585170686 1.9636026621
0.92287683487 1.0721457005 1.4125702381
0.45746567845 1.4207841158 1.3311414719
0.411388129 1.0425770283 1.6564853191
0.015261705033 1.3284316063 1.4949454069
1.8715463877 0.0062128538266 -0.7051295042
1.7511627674 0.50578409433 -0.82305556536
1.8525096178 0.30869302154 -0.68711519241
-1.6401728392 -0.29674470425 -1.1051776409
-1.6124380827 0.047789722681 -1.1807337999
-0.74309450388 -0.24664266407 -1.8397059441
-1.014680028 -0.2592639327 -1.7035157681
-0.84612703323 0.019678737968 -1.8119984865
-1.1617569923 0.035307057202 -1.627419591
-0.50888860226 0.076847761869 -1.9320665598
-0.71494907141 0.26469662786 -1.8485615253
-0.97776049376 0.2995955348 -1.7186342478
-1.133358717 0.53375858068 -1.5590898991
-1.2833634615 0.24077232182 -1.5137896538
-1.8431391716 -0.17965734005 -0.75533658266
-1.7704640627 -0.38098424673 -0.8487829566
-1.8887168169 -0.29009783268 -0.59043085575
-1.7587810755 -0.10992645472 -0.94582420588
-1.7797435522 0.15764248371 -0.8981140852
-1.8550152779 0.025782333687 -0.7468418479
-1.9067546129 -0.074092112482 -0.59884107113
-1.9457185268 -0.14950861037 -0.4378503859
-1.9141080379 0.12773579359 -0.56519860029
1.2753704786 -0.69853174686 -1.373077631
1.0282649994 -0.78610730171 -1.5246932507
1.1222516298 -1.0198409557 -1.3039324284
1.4086710215 -0.87121939659 -1.120963335
1.6617128849 -0.69954419136 -0.86436396837
0.80300170183 -1.1463980675 -1.4285088778
1.9490962029 -0.0055855251849 0.44779866934
1.8978073597 -0.51754379272 0.36006560922
1.7974225283 -0.00658663176 0.87697267532
1.8452299833 -0.35211479664 0.68514871597
-1.7393965721 -0.62333780527 -0.76549047232
-1.7702283859 -0.73813474178 -0.56687021255
1.4316347837 -1.1161620617 -0.83592796326
1.7302707434 -0.77584969997 0.63310956955
0.6045576334 -1.5009118319 -1.1752794981
1.913854003 -0.5797008872 0.02780568786
1.8972817659 -0.51211988926 -0.36491584778
0.96443396807 -1.3675363064 -1.0953681469
1.5524209738 0.84219771624 -0.93823444843
1.4058279991 1.0116007328 -0.99990993738
0.71665841341 0.73156863451 1.7177538872
0.82633256912 0.32910591364 1.7912037373
1.1627072096 -1.4182368517 -0.79777812958
1.2354120016 -1.1691293716 -1.0521645546
-1.3336185217 -1.4885761738 0.07658533752
-1.2797392607 -1.5285476446 -0.16038554907
-1.2515329123 -1.5103305578 -0.39047199488
[...]
CELL_DATA 594
SCALARS cell_data_0 double
LOOKUP_TABLE default
1.30250563392e-05
6.88158801442e-06
1.16399592041e-05
5.47922006817e-06
1.22803239672e-05
3.68487300216e-06
1.83279796913e-06
7.94658950003e-06
9.42772779334e-06
4.47931998726e-06
1.98472633832e-06
5.80783996979e-06
7.23959297147e-06
8.55921020078e-07
6.20487681245e-06
2.13638593507e-06
2.60054348204e-06
1.85709336769e-06
3.58130506189e-06
7.2128919928e-06
4.07737892138e-06
2.33539346753e-06
4.03270028578e-05
3.26505701164e-05
1.57180547598e-06
1.68141928651e-07
2.11883892688e-07
9.17338409916e-07
2.82023252297e-06
1.04312407215e-05
1.14643033561e-07
1.24354229701e-05
2.24483041829e-05
4.22527768894e-05
5.85545029376e-06
2.73399119208e-06
2.9966692206e-06
8.02491828173e-07
2.80974629726e-06
3.27790540727e-06
7.43718981825e-06
6.97858109986e-06
9.70726286813e-06
1.37782693808e-05
8.25112221159e-06
1.76672586193e-05
2.05944533617e-05
7.81977897139e-06
7.16013744058e-06
8.71739310895e-07
3.07529520554e-06
5.48757488347e-06
8.73380850249e-06
9.95405613123e-06
1.11856742672e-06
3.64299214975e-06
8.62373236256e-07
1.42181573071e-06
1.39169142593e-06
3.10760317567e-06
1.34576770367e-06
1.13164151976e-05
5.81612854342e-07
3.57017499906e-09
1.19671077511e-05
1.08222738152e-05
9.71112427904e-06
1.00916936838e-05
1.27895746803e-05
1.32822618085e-05
1.18907239736e-05
9.01025876796e-06
9.91931094313e-06
2.04752545282e-06
1.00683582015e-05
8.35238756582e-06
2.16260419481e-05
1.24196720026e-05
9.6894293704e-06
6.84416686485e-06
1.62762942419e-05
7.0438489825e-06
1.17742431764e-05
8.07487905684e-07
1.60946747105e-06
3.7565875111e-06
5.41821937053e-06
3.55707909123e-06
5.5966984811e-06
3.40496196719e-07
9.2677109512e-06
1.1979690145e-07
5.14627096615e-06
1.80538216762e-07
1.23114274165e-07
1.402098655e-05
1.94518379066e-06
1.59588670432e-06
1.20087991837e-05
3.51680939312e-06
2.89478203924e-06
6.93611620122e-07
8.36184481029e-06
3.02200531205e-06
2.93939095593e-07
1.06564942477e-06
2.87096795168e-07
6.43108778802e-07
4.71262664326e-07
9.60917769289e-06
7.03908397209e-06
1.30421657175e-07
1.69565666387e-07
2.35966875157e-06
1.80378459587e-07
9.31811345006e-07
5.32676063894e-06
1.33555807331e-07
3.31391972805e-07
2.50993499513e-06
2.3248609074e-06
5.26682428595e-06
1.13679959718e-05
1.10847187619e-05
1.70793086311e-05
2.15966477753e-06
1.94419748081e-06
2.79308424322e-07
1.06364893638e-05
2.80220306234e-06
6.53481335436e-06
8.17507544595e-06
7.52435996968e-06
5.2369994583e-06
5.04357680774e-08
3.98755011499e-07
6.93846242348e-07
4.25313648692e-06
3.6000277828e-06
6.67760049558e-06
4.30390318707e-06
4.30231978392e-06
5.71350923641e-06
5.58060574267e-06
4.30974227357e-06
5.08696404528e-06
5.971038554e-06
1.2349559163e-05
1.01620900182e-05
1.15424092048e-05
5.71999201981e-06
1.6080158207e-07
2.35568689114e-06
9.94425708486e-06
1.18076074895e-06
2.10227415263e-06
7.65102727528e-07
3.76932745242e-07
4.89894732249e-07
2.19380395711e-07
4.32701700958e-08
2.68640898406e-07
3.98740107247e-07
1.30521626384e-07
2.52167299163e-07
3.40471068593e-07
2.3289874941e-07
3.54754101025e-07
2.89521986983e-08
3.52571257705e-07
1.14920791277e-07
2.27827897176e-07
1.32966882065e-07
8.45788702741e-07
2.5473451052e-06
4.72274409277e-06
7.95600720915e-07
4.29743213034e-08
1.53108049855e-08
7.56270001158e-07
8.09103359298e-07
1.11115463073e-08
2.4465651785e-06
2.74465812209e-09
2.19415260826e-06
3.71051560042e-08
2.56044368731e-07
3.07425807993e-08
2.9184961761e-06
6.3030096231e-06
5.48225737922e-08
1.05319789031e-07
6.17607131158e-08
6.30689775077e-08
1.01597257367e-07
6.45236673676e-08
5.35717569095e-08
1.24248280203e-06
1.08792923107e-06
1.47759042948e-08
5.93842889953e-08
1.04776503658e-07
7.34386336915e-07
1.62244822423e-06
1.05460922136e-06
1.06247153171e-07
3.03123291773e-06
1.89198257481e-06
1.33564868385e-05
1.46844953334e-05
1.67240178141e-06
1.19119038778e-06
1.46066508236e-06
1.94121757423e-06
2.37998503544e-06
3.80999198618e-06
3.27314905764e-06
1.69109452047e-06
1.07147242414e-06
1.25807150483e-06
7.53328384415e-07
1.28554567396e-05
1.72376992763e-05
1.35280401531e-05
4.2329718726e-05
4.17500800334e-05
1.60951127948e-05
2.23291251251e-05
9.33450714606e-07
4.98801253521e-07
1.13236205074e-06
1.54509455353e-05
1.01459795897e-05
1.31375037082e-05
9.46735422724e-06
1.52905691678e-05
1.11161655285e-06
9.83768834537e-06
1.08689978239e-05
1.08461407539e-05
1.33937411023e-05
1.14183620164e-05
1.44337825317e-05
1.21903797974e-06
3.18222831341e-06
2.30803679431e-06
1.47831785867e-06
6.16603701855e-06
4.55846112806e-06
6.35475454475e-06
9.30928894029e-06
6.23110730491e-06
6.5288578606e-06
1.02330279223e-06
6.81362215515e-07
1.64453780739e-06
1.05232546965e-07
2.35261404136e-07
2.22172674894e-07
8.04843394118e-07
1.7285768865e-06
9.62079737808e-07
6.71113126947e-08
1.10734841708e-06
2.91600477186e-06
5.2559319947e-08
1.0856973948e-06
8.21462694671e-08
2.41416542654e-06
7.1534784802e-07
1.25611103673e-05
9.39880471687e-06
1.49725456832e-05
9.45994336522e-08
5.36085516056e-07
1.60065859269e-07
1.03391392892e-07
1.38743034826e-07
2.07539519008e-07
7.0810214687e-08
7.06148244656e-08
8.88644629706e-08
4.83021368135e-08
6.94022592185e-08
5.188062974e-08
8.48357510509e-08
2.08257767742e-06
2.63388652045e-06
9.67890145866e-08
1.16515877983e-07
3.14110862156e-08
4.43655281679e-08
9.32596014166e-08
3.71205955126e-08
4.27661496364e-08
1.78784389517e-07
1.16477587849e-07
1.02901361196e-07
1.62408672154e-08
1.45685340715e-06
1.13445602683e-07
2.79444271848e-07
1.44069756282e-07
1.75327689149e-07
1.15715666462e-08
4.12576724564e-08
1.48294486621e-06
1.96055235561e-08
2.61373161494e-07
4.826562394e-06
1.76178065415e-06
3.60176535531e-06
1.52427349697e-06
1.66605773762e-06
2.7188966862e-06
6.19216736537e-06
3.39895415693e-06
1.40413735218e-06
3.22816420931e-06
9.23068492123e-07
2.68214627418e-07
5.28699541766e-06
3.1523174308e-06
2.07179863402e-06
3.06552754819e-06
3.23958614471e-06
5.75966983318e-06
1.13283090534e-05
5.85753712212e-07
9.80867170813e-07
3.50764981318e-06
7.93346414912e-06
9.06074970656e-06
4.06265024628e-06
2.51283670842e-06
3.38387340518e-07
4.4280681345e-07
2.32730564491e-05
1.40983758281e-05
1.69816457184e-06
2.07961056468e-06
7.29979885574e-07
2.1064410705e-06
8.27517682437e-08
4.27508995867e-08
3.96992813296e-07
3.36664401002e-06
4.22709701941e-06
6.36973528429e-06
5.16245500273e-06
5.96548384759e-06
7.39647596288e-06
5.77782830622e-07
4.46735930647e-07
4.36654984031e-07
3.37790266259e-09
4.64252166992e-07
2.78059318286e-06
4.08812670051e-06
7.25876661519e-06
7.34356259889e-06
7.73974950145e-06
2.91649937667e-06
7.39202813704e-07
3.41201766607e-06
7.41111157488e-07
1.11912262198e-06
5.34587990659e-07
1.24165307405e-05
7.62928483431e-06
8.65683070438e-06
8.30870192951e-06
1.15136402948e-06
5.10854762184e-06
2.59206717392e-06
8.73472591891e-08
7.0533757171e-08
3.41790745866e-07
7.69364736338e-07
4.03460037826e-07
2.72066868499e-07
2.53976323926e-08
5.49185122043e-08
9.11673633883e-09
1.75342646647e-08
2.69610884127e-07
6.69694196443e-06
5.97329248462e-06
1.0580904455e-07
9.75805071521e-08
1.18228355207e-07
1.25985870815e-07
1.2389331308e-08
1.1640841132e-07
1.1900498576e-06
1.24450762099e-06
4.82549434951e-06
1.06470001608e-06
1.1679416346e-07
1.18886515629e-06
9.25954779352e-06
2.482674629e-05
8.65446813835e-06
4.57560032045e-06
4.54064061502e-07
1.16611527865e-07
1.1671821851e-07
6.10970960176e-09
5.09327677758e-07
3.5038224935e-08
1.87236194553e-07
8.94581724411e-08
2.39811729156e-07
5.49566999683e-07
2.3640618656e-08
2.76253980168e-07
8.07140386069e-07
9.50596083944e-07
4.24889603992e-08
3.04211818877e-05
3.64610828405e-06
7.80544295601e-07
1.01517307391e-06
9.11678509077e-06
2.33642186051e-05
3.94455415259e-06
2.78051175746e-06
1.89070201397e-07
5.71019247354e-06
2.32033613412e-06
8.58557446709e-06
4.11158895162e-06
8.57293780998e-07
9.69570311186e-07
1.13414448923e-06
1.15358354423e-06
3.2611037638e-06
3.26792509495e-06
1.9327187858e-06
9.92882497959e-07
1.63385748854e-06
6.79845187393e-07
1.64389786334e-06
2.2104667433e-08
1.39418316995e-05
6.61323853324e-06
1.91455217505e-06
6.70619402191e-06
3.40436162477e-06
8.48507018242e-06
2.27709274368e-08
3.56376500059e-06
2.4723383453e-06
1.18014055158e-07
5.29697276997e-08
3.37641998463e-07
7.92471498258e-07
3.85525011362e-07
5.10378535184e-07
1.17920973161e-07
3.25035022163e-06
2.99560366406e-06
3.02267485571e-06
4.02553521622e-07
2.09556976842e-07
3.00954853638e-08
1.78458707837e-07
3.13653562364e-07
1.10481763282e-06
2.26694848799e-06
2.61805601215e-07
2.90820170295e-08
2.645714793e-07
7.19116214568e-08
9.02969292634e-08
6.69352680748e-08
2.55646300121e-07
1.01898618925e-07
1.17675571926e-07
2.56451310221e-07
3.93246936112e-06
2.94240182929e-06
1.45770038818e-06
8.95438513651e-07
1.00377955036e-06
9.82377169727e-07
2.56175879239e-06
3.5551387045e-06
6.16615014068e-06
6.00210998917e-06
4.78804566785e-07
6.46189402217e-07
2.89894197693e-07
5.36335450136e-07
1.56449163805e-07
2.43645046964e-07
1.77744538417e-07
8.49794777334e-06
2.927356124e-06
3.4323538749e-06
5.78871875675e-08
8.55764701497e-08
2.07483152239e-07
4.26008734133e-07
2.1254411847e-07
4.96375116629e-08
3.25218689969e-07
1.01963985846e-06
1.13943569146e-06
1.0818372055e-07
9.59547385585e-08
2.95576030756e-07
4.9043317544e-08
8.45060363207e-07
2.50224691672e-06
1.06368347796e-06
8.4052766358e-08
4.52620401225e-07
2.82138824241e-08
9.73451388757e-07
5.91047938055e-07
9.69897493873e-07
2.32306632989e-06
2.16442295441e-06
6.18230278644e-07
6.73792313313e-08
1.86819424439e-07
1.54245691329e-07
1.73375471188e-07
6.2073515373e-08
4.23454019421e-07
3.87160719148e-07
1.74908161656e-07
8.34785441939e-07
1.20785818117e-07
1.10317854283e-07
9.6866904853e-08
1.00274829906e-06
8.99201633253e-07
9.49847633328e-08
9.03002324733e-08
1.92256029178e-06
2.73627391471e-06
2.8569110797e-08
7.03469414838e-09
1.36263922429e-07
3.59776033937e-09
1.60258739328e-07
4.07516068342e-08
1.01480242526e-07
6.00376261847e-07
1.24973887269e-07
8.56734633692e-07
1.96172321332e-06
1.62458617345e-07
7.11949082027e-08
8.59185376629e-07
7.36559880724e-07
6.6652210015e-07
5.53746911892e-07
8.17700508281e-08
4.4607829964e-07
2.0004287628e-06
2.10813504332e-06
1.94056177357e-06
2.23763771263e-06
1.58520726088e-06
1.23002157677e-05
5.88433779991e-06
2.75268293364e-07
2.45329929822e-07
8.37474232581e-07
4.3443001379e-06
1.3306508995e-07
1.4302895492e-07
8.48338988079e-08
9.94004514167e-09
4.95860250663e-08
2.34298795001e-07
5.66715770134e-06
3.71432117016e-06
5.29592113497e-08
6.80553237039e-08
2.73548739543e-06
3.00796379352e-08
2.25345321704e-07
7.10746516616e-06
1.17058284851e-06
4.55374652102e-06
3.38142843162e-06
8.68101287577e-07
1.18077214385e-07
1.65536677526e-06
1.22393710166e-07

