# vtk DataFile Version 3.0
File Name: Molecule/sphere_excent/sphere_excent_0-s28.vtk
ASCII
DATASET UNSTRUCTURED_GRID
FIELD FieldData 1
TIME 1 1 double
0.0
POINTS 316 double
-0.085994511843 1.7361456156 0.98679119349
-1.0905183554 1.4740451574 0.79744875431
-0.58596485853 1.2273745537 1.4655359983
-1.6528501511 1.1159980297 0.15077936649
-1.6675994396 0.68939954042 0.86179471016
0.63334316015 -1.207578063 1.4628323317
0.016400100663 -1.7216635942 1.0175852776
0.80281442404 -1.6759166718 0.73923170567
0.32839637995 -1.1875398159 -1.5745165348
-0.01395693142 -1.725597024 -1.0103830099
-0.33339327574 -1.1524995565 -1.599124074
1.5486052036 -0.41071799397 1.1970379353
1.5344010592 0.46827185154 1.1931355
1.1908658743 0.037749122828 1.6055542231
-0.65921390057 -1.7967270613 -0.58033454418
0.027357865125 -1.9995957613 0.029994979501
-0.96764206886 -1.7475758791 0.086253046989
-0.76505625248 -1.692687273 0.74183517694
-0.66783607006 -1.3184634447 1.3475282192
-1.9371409416 0.34350654483 0.35816192627
0.75974327326 -1.7292724848 -0.65690714121
1.0537793636 -1.6993464231 0.029914746061
-0.089933075011 1.9976146221 -0.02022209391
-0.55267482996 1.885430336 0.37283712626
0.14562737942 1.9626752138 0.3517832756
-0.54191052914 1.8873984814 -0.37875208259
-1.1011273861 1.6686369181 0.061750225723
-1.2512183189 1.4689819813 -0.52440285683
-0.079321503639 1.7842680216 -0.89819324017
0.20091824234 1.9307311773 -0.48118418455
0.97230762243 -0.086249537766 -1.7455272675
0.73244458437 -0.60703837872 -1.7588629723
0.50546741486 -0.1244950071 -1.9307574034
0.18890789151 -0.62505120039 -1.8899368048
0.078039988875 0.035300187767 -1.9980943203
0.92368036509 0.97768074274 -1.4800415039
1.1963040829 0.92858177423 -1.3063333035
1.0829247236 0.72799408436 -1.5156530142
1.3617417812 -0.40469780564 -1.4077841043
1.5188132524 -0.18492436409 -1.2879297733
1.5257480145 -0.52479064465 -1.1817955971
-0.45266884565 0.66234529018 1.8317929506
-0.81792598963 0.43468046188 1.7723544836
-0.41837719083 0.23026035726 1.9417536259
-0.99984151125 -0.71734440327 1.5729813576
-1.2097797394 -1.1362980604 1.1130800247
-1.5766718388 -0.51216882467 1.118453145
-1.2402523756 -0.18156765401 1.5576683283
-0.18165774643 0.50439709425 -1.9261389971
0.29737791419 0.44217056036 -1.9276431799
-1.3669096231 -0.34874606133 -1.417552948
-0.96742260456 -0.66650909185 -1.6179322004
-1.2797006369 -0.81906586885 -1.3004773855
1.8543335199 0.37323260307 0.64955699444
1.6990864277 0.7891690135 0.69997650385
1.3849329948 1.0232253075 1.0149408579
1.0880362988 0.57384693623 1.5743652582
-0.55734968185 1.6925215721 -0.90718001127
1.9602843523 0.24076667428 -0.31368046999
1.9699412584 0.31724184752 0.13380855322
1.9934672117 -0.15634727478 0.031169345602
-0.017579557374 0.88914573193 1.7912933826
-0.031162509695 0.40803867579 1.9575996399
0.40117180347 0.48540374637 1.897982955
0.28405055404 -0.010488553904 1.979534626
-1.6433287859 -1.1061929464 0.27022138238
-1.5372097492 -1.2777166367 0.059759359807
-1.3259606361 -1.428794384 0.44075068831
1.2131323814 -1.0943090916 1.1512566805
1.0440852642 -0.60176461935 1.5960085392
1.3015575409 -1.4668018818 -0.3912550807
1.5497277975 -1.2632516623 -0.047091368586
1.3935501575 -1.3853315115 0.37237691879
1.7474339008 -0.93842828274 0.25482934713
1.7919458151 -0.88154298067 -0.10679385811
1.6940618753 -0.97597020864 -0.41687470675
-1.926368475 -0.52366292477 0.11828544736
-1.8097043037 -0.81087720394 0.25819659233
-1.8482197523 -0.52483093739 0.5546425581
-1.6662640572 -0.91368162632 0.62057828903
-1.6464374065 -1.1210095882 -0.177944839
-1.7462520599 -0.97348994017 0.031648475677
-0.04416647926 -1.2744753361 1.54086411
0.50389140844 -0.55139523745 1.8552508354
0.72451609373 -0.10234748572 1.8613797426
-0.43704822659 -0.95796138048 1.7004145384
0.015951381996 -0.38309645653 1.9629238844
0.063880741596 -0.8434638381 1.8123005629
-0.4129679203 -0.53599566221 1.8803246021
0.8204690814 0.32589265704 1.7942736149
-1.4639539719 0.91369467974 -1.0099058151
-1.6530842781 0.99571484327 -0.52484941483
-1.8499897718 -0.043411646038 0.75803935528
-1.5591239929 0.14458703995 1.244127512
0.4548368454 1.7418146133 -0.87096077204
0.7418372035 1.7717661858 -0.55698657036
0.60936182737 1.8946583271 -0.1923815012
0.84911412001 1.5447620153 -0.9446593523
1.2669146061 1.3049082756 -0.83177155256
1.0896123648 1.5569165945 -0.62333184481
0.4756064117 1.4792281389 -1.2589776516
0.81354445219 1.2827453613 -1.3008117676
-1.9631665945 -0.1981985122 0.32612723112
-1.9183892012 -0.5247656703 -0.21035942435
-1.8531913757 -0.7508983016 -0.042389284819
-1.8327640295 -0.7333047986 -0.3202636838
-1.8580249548 -0.52583700418 -0.52089709044
-1.7038726807 0.5448718071 -0.89290720224
-1.8406822681 0.72224378586 -0.29896295071
-1.9988498688 -0.042085617781 0.040764201432
-1.9760241508 -0.30106431246 -0.06541697681
-1.98422122 -0.10452342033 -0.22728709877
-1.9408911467 -0.32879188657 -0.35286524892
-1.9622631073 0.057462502271 -0.38169243932
-1.9859938622 0.17638680339 -0.15397292376
-0.67972517014 -1.4958587885 -1.1403480768
-1.0338922739 -1.4832007885 -0.85544347763
-0.90922385454 -1.0926707983 -1.4063211679
-1.1484673023 -1.2015279531 -1.1119691133
-1.4448411465 -0.97033381462 -0.98525249958
-1.5220040083 -1.0991764069 -0.6894119978
-1.6340153217 -0.85055536032 -0.77859121561
-1.3229498863 -1.2339832783 -0.85268127918
-1.3378764391 -1.3600525856 -0.60004800558
-1.545016408 -1.1980953217 -0.42093539238
-1.3982276917 -1.3844374418 -0.35810241103
-1.6898541451 -0.95967233181 -0.47228750587
-1.0974992514 -1.5735747814 -0.56461042166
-1.4753313065 -1.3401349783 -0.16524238884
-1.1768568754 1.0126042366 1.2606500387
1.0924699306 1.6465986967 -0.30299460888
1.3850921392 1.3701051474 -0.45103162527
1.3548822403 1.4701701403 -0.044182863086
1.6635143757 1.0612163544 -0.32259920239
1.6118619442 1.1776896715 -0.080570198596
1.5199688673 1.0908800364 -0.70682269335
-1.144498229 0.21673427522 1.6256361008
-1.2921744585 0.57414907217 1.4142796993
-0.88780069351 0.82142049074 1.5928863287
-0.7791621685 -0.038489650935 1.8409233093
-1.5731320381 -0.63811999559 -1.0571378469
1.3574556112 1.4191960096 0.37723454833
1.0372492075 1.6949734688 0.21199376881
-1.9417910576 0.4727871418 -0.059164404869
-1.932698369 0.35086026788 -0.37645801902
-1.8330494165 0.56816226244 -0.56313323975
-1.8539408445 0.31218627095 -0.68193346262
0.81534922123 0.76051390171 -1.660236001
0.72064274549 0.51096141338 -1.7941762209
0.99104136229 0.51972335577 -1.6575913429
0.90459299088 0.28898888826 -1.7601830959
1.1064816713 0.29390063882 -1.6397777796
1.2332602739 0.47917497158 -1.4998297691
1.2782974243 0.14891719818 -1.5307246447
1.4018720388 0.32411104441 -1.3891531229
1.2836837769 0.69818866253 -1.3655555248
1.4432142973 0.53526622057 -1.2769453526
1.404433012 0.80171555281 -1.1767575741
1.5570340157 0.30009040236 -1.218801856
1.6240456104 0.47253239155 -1.0671538115
1.7406531572 0.21754144132 -0.9603831768
1.6161221266 0.055792406201 -1.1766209602
1.4568691254 0.085839003325 -1.3673444986
1.7166198492 -0.20757512748 -1.0048692226
1.2923101187 -0.14508670568 -1.5194789171
0.6753885746 0.20232373476 -1.8715958595
1.1146782637 -0.45414167643 -1.597168684
0.13128876686 0.92744481564 -1.7663657665
0.59488528967 1.0792300701 -1.5751224756
0.51217514277 0.76335430145 -1.7762006521
1.8627221584 0.64878070354 0.33011713624
1.8765852451 0.6843393445 -0.099444456398
1.7638237476 0.92423415184 0.17220494151
1.6860078573 1.0091429949 0.36410853267
1.5642492771 1.1216819286 0.53624325991
1.6925109625 0.80005705357 -0.7035074234
1.8496359587 0.58723729849 -0.48274460435
-0.081428028643 0.018321398646 1.9982250929
-0.34894326329 -0.15623091161 1.9628584385
1.5524690151 1.2496627569 0.14478339255
0.91879141331 1.083586216 1.4066278934
0.45677998662 1.4212968349 1.3308159113
0.41197633743 1.0441336632 1.6552405357
0.012766635045 1.3285962343 1.4947975874
0.79062348604 1.5708870888 0.94148606062
1.8718868494 0.0040116142482 -0.70426976681
1.7540229559 0.50696438551 -0.81627613306
1.8556054831 0.31005555391 -0.6782797575
-1.6373159885 -0.29940515757 -1.1087337732
-1.6156572104 0.033709425479 -1.1775901318
-0.75524568558 -0.24281153083 -1.8355088234
-1.0200226307 -0.26519203186 -1.6994384527
-0.85095065832 0.016862710938 -1.8097618818
-1.157963872 0.02674420923 -1.6301106215
-0.52025842667 0.082961767912 -1.9290784597
-0.71856814623 0.25715631247 -1.848342061
-0.98345047235 0.29972669482 -1.7154343128
-1.134655118 0.53737533092 -1.5568606853
-1.2756712437 0.24939483404 -1.5193923712
-1.8429948092 -0.17730942369 -0.7562507391
-1.769762516 -0.37988060713 -0.85071760416
-1.889197588 -0.29008635879 -0.58889758587
-1.7571800947 -0.10941273719 -0.94886738062
-1.777009964 0.16221410036 -0.90276759863
-1.8541564941 0.030391395092 -0.74883806705
-1.9072439671 -0.071578316391 -0.59758621454
-1.9465441704 -0.14896173775 -0.43434724212
-1.9140071869 0.13257808983 -0.56441926956
1.277228117 -0.69787925482 -1.3717025518
1.0270967484 -0.78731733561 -1.5248397589
1.1228885651 -1.0206083059 -1.3027985096
1.4088841677 -0.87156271935 -1.1204481125
1.6564575434 -0.68792045116 -0.88348144293
0.79866337776 -1.1459308863 -1.4313207865
1.9485834837 -0.012107854709 0.45010361075
1.8997590542 -0.50915211439 0.36208790541
1.7957558632 -0.001335803885 0.88040083647
1.8428229094 -0.35131299496 0.69229948521
-1.7378144264 -0.62526512146 -0.76749801636
-1.7686179876 -0.74086469412 -0.56836205721
1.4394738674 -1.1027292013 -0.8413643837
1.7351266146 -0.76438868046 0.63470596075
0.59501230717 -1.503734827 -1.1766123772
1.913112402 -0.58233398199 0.026259940118
1.9036345482 -0.50259780884 -0.34796589613
0.95968651772 -1.3685183525 -1.0983117819
1.5529024601 0.84604871273 -0.93401533365
1.404265523 1.0168039799 -0.99687534571
0.72180318832 0.73199528456 1.7153991461
1.1633042097 -1.4186320305 -0.7962898016
1.2340475321 -1.1715893745 -1.050998807
-1.3325824738 -1.4891922474 0.081755556166
-1.2785383463 -1.529356122 -0.16161061823
[...]
CELL_DATA 628
SCALARS cell_data_0 double
LOOKUP_TABLE default
1.25494707107e-05
6.76308966984e-06
1.15292224334e-05
1.54441688768e-06
1.1654412994e-05
2.59464713127e-06
1.54364296063e-06
7.46028561346e-06
9.07868887878e-06
4.30814844721e-06
5.28983559138e-05
5.58438369582e-06
7.10618652731e-06
1.73059517985e-05
2.11502045567e-05
8.8863840289e-05
0.000126637957255
7.44534633205e-05
4.19453260789e-05
5.75190022953e-05
9.97207453302e-06
1.03763745973e-05
9.56442198104e-06
2.23922423254e-05
1.93024690502e-05
1.5873054781e-05
1.55793911755e-05
1.03873586267e-05
3.56060059588e-07
1.19882157117e-05
9.08626797065e-06
6.5325976834e-06
1.37637337249e-06
9.48363228566e-07
1.05464803479e-06
1.37930871851e-05
1.76237246831e-06
0.00011081826264
7.64311773556e-06
1.63801651781e-05
1.36794170758e-05
1.53115854908e-05
1.95457092143e-05
9.36044331125e-06
6.36847503992e-06
9.05718613787e-07
2.67251356377e-06
4.95539489624e-06
8.76952863078e-06
9.69244469703e-06
2.16550336649e-05
4.03009989862e-05
4.84314573446e-07
8.12240017617e-07
1.1551574279e-06
2.76164174415e-06
1.5070506064e-06
3.15092766619e-07
8.69440087881e-07
6.88096982487e-08
1.16605449471e-05
1.04976652502e-05
1.00284956138e-05
9.77386763678e-06
1.29412540221e-05
1.28285537059e-05
1.14995138345e-05
8.81249365701e-06
1.24295845562e-05
1.02485014457e-05
7.39408248691e-06
6.81204263041e-06
1.19142140938e-05
9.40280602506e-06
6.06470086798e-06
6.39715149746e-06
6.79143468274e-06
1.21200584101e-05
7.66200262031e-07
1.51774960435e-06
3.64537288052e-06
5.26457753508e-06
4.48948333578e-05
6.3057278198e-06
7.77759452177e-10
1.91212385452e-06
7.49172089131e-08
2.51562622882e-08
2.72819540173e-07
3.82130528585e-07
1.90789658539e-07
5.55530447923e-07
2.30162308285e-07
1.50782243574e-06
3.56348622495e-06
2.91923056934e-06
1.06884522244e-06
5.43361985966e-07
1.19772692992e-07
1.90874128376e-07
9.45222809769e-07
3.39892690549e-07
7.36848457743e-07
1.83011188216e-07
1.63591867733e-06
1.59087733579e-07
1.22213632357e-07
1.65332630549e-07
1.23564253125e-07
2.28618842882e-07
1.58810429773e-05
1.89144358209e-05
1.69830856717e-05
1.82298099307e-05
2.80492092843e-05
5.44023667541e-06
5.11481364516e-06
6.21631922624e-06
9.42455562418e-07
5.47741557377e-06
1.90838996096e-06
2.28358843823e-06
3.26288256943e-06
5.49375571792e-08
1.81422200059e-06
6.61248581082e-06
8.11311327871e-06
7.40483523301e-06
5.01255750548e-06
1.36557572767e-08
5.5854831567e-07
6.6232151276e-06
9.57242388496e-08
2.18429032731e-07
6.69473083186e-06
4.05495926184e-06
4.41239076873e-06
5.51895283978e-06
5.37900440128e-06
3.95188185493e-06
5.07132754857e-06
5.66648155606e-06
8.33847912517e-06
6.11546910016e-06
7.96803595875e-06
9.31868288965e-06
7.46939143273e-06
1.25452695005e-08
1.26593758809e-05
1.13409280798e-06
2.09824341753e-06
7.75118161809e-07
3.88976191026e-07
4.6576131517e-07
2.75576434359e-07
7.63398996621e-08
1.46193281997e-07
3.2732828567e-07
9.12571289832e-08
2.53507824221e-07
3.08378290766e-07
8.3334536775e-07
2.97521756124e-07
2.17647258231e-06
1.30782696563e-05
4.90154985791e-06
2.09112886489e-07
1.16606199097e-07
2.43603117952e-07
5.69786907603e-06
1.19757089675e-05
4.9275572101e-06
5.06412753488e-08
3.5233811343e-08
7.60243127317e-07
7.49369965039e-07
9.39987176512e-09
8.35304652304e-06
6.14030046804e-06
7.1528213586e-06
5.96252028139e-08
4.88717703482e-08
5.50339453965e-06
5.19685755867e-08
6.82398300444e-06
4.54784739275e-06
1.16172594313e-07
8.37467054302e-06
8.89857349207e-06
9.65607090392e-08
9.57669005791e-08
4.7320695403e-06
1.33940744748e-07
1.20645095308e-05
4.92098839492e-06
1.82132765227e-07
5.65531248411e-07
1.48033422615e-06
1.01959593037e-06
1.95274930075e-06
6.63476288473e-07
2.71653542989e-06
3.25752092636e-06
6.60451001415e-07
6.56762964451e-07
2.08755685587e-06
1.903576809e-06
1.42103024989e-06
8.56106091011e-06
2.10972875892e-06
1.07336067807e-05
1.17597996368e-05
2.96301297083e-06
9.7977826451e-07
1.32340121908e-06
1.60369687714e-05
3.42961756136e-05
1.93651042933e-06
2.3445577962e-05
4.00353960571e-07
2.38952952709e-05
1.51509544159e-05
1.03774395767e-05
1.36462791187e-05
1.52732922897e-05
1.06008737079e-05
1.34578604388e-05
1.1201936651e-05
1.11581832109e-05
1.37955060905e-05
6.44537140428e-06
6.56285799582e-06
1.02107838472e-05
4.11915259807e-06
5.3439283149e-06
7.31839192314e-06
6.18518784713e-06
6.6579050443e-06
1.01357504316e-05
5.3366118773e-06
1.98054964045e-05
1.91581649826e-05
1.66763977396e-05
9.29789876491e-06
1.71795045708e-07
1.38924871778e-07
1.84193149348e-07
3.21844610724e-08
5.64113281749e-07
5.48278091424e-08
1.09191207196e-06
5.39045218991e-08
7.1532838191e-08
1.02071677082e-06
2.74947119713e-08
2.15227790284e-06
8.99922284726e-07
1.1727965922e-05
9.43299969759e-06
1.73686304451e-05
9.56699837383e-08
2.47651056629e-07
1.72625849772e-07
1.02225401705e-07
5.36444474954e-08
5.11270808518e-08
1.02717754981e-07
6.12290465274e-08
1.19463746214e-07
9.2358642482e-08
7.1227155998e-08
6.07859879819e-08
8.66951922785e-08
1.06592146222e-07
1.59164204251e-07
1.24995197475e-07
1.14283968189e-07
1.03959792601e-07
6.02442945988e-08
9.81833467099e-08
3.93969609795e-08
8.13955064472e-08
1.87027086455e-07
1.79531310462e-07
9.51855639614e-06
4.27359458549e-07
3.42399214982e-06
1.26231131505e-07
2.46808820332e-07
3.15107626184e-07
1.29656529922e-06
1.14350853e-07
4.62540107839e-08
1.71172663019e-06
1.2575535815e-07
2.88622947834e-06
2.04180857391e-06
3.46947195806e-07
3.43926742073e-06
1.46787395966e-06
1.64449855007e-06
2.70096041975e-06
5.26851475973e-06
3.20879347007e-06
1.35229603613e-06
3.50142670492e-06
1.7095018607e-07
6.33054078509e-08
7.85147436686e-08
7.0545449784e-08
1.56717480461e-06
3.06724803269e-06
1.03538183276e-07
5.27483641355e-08
5.30532073474e-06
1.79805883627e-07
2.21754024931e-07
1.71990703755e-07
2.09766860927e-07
9.08305874787e-06
5.27780396733e-06
3.92337169403e-05
2.53494062151e-07
1.60295574099e-07
3.39789621488e-06
6.95542131574e-07
2.55113129791e-06
1.49744983752e-06
3.06243534548e-07
2.02114808898e-05
9.16438340098e-07
7.09402163905e-07
4.42063647756e-07
1.94193143092e-07
5.53813826017e-08
6.25796939632e-06
5.36563694209e-06
7.0416404835e-06
7.8968266972e-06
1.37406121734e-05
1.1599547766e-07
8.34902327824e-08
1.66604062138e-07
1.25129530938e-05
6.67825523314e-07
7.68665794259e-07
1.7995503117e-06
1.96953679957e-06
3.30375493339e-06
3.47845652317e-07
9.9983526803e-07
3.35618633543e-06
7.96716708159e-07
1.02071315854e-06
4.92398302853e-07
3.89734677442e-06
2.88438438179e-06
8.986514717e-06
8.99875555376e-06
6.02227202962e-08
5.74536928974e-07
5.02759964353e-07
9.01997525385e-08
8.63132766252e-08
1.49738695733e-07
3.24149365559e-07
6.21205637341e-08
1.14254798329e-07
4.37075266384e-08
2.09863451866e-07
2.03495548197e-07
2.36841571219e-08
4.83012292241e-07
7.52076257223e-06
6.23256181488e-06
9.42990394659e-08
7.42288442566e-08
4.3235944342e-07
1.71540098395e-06
1.33848229525e-07
4.18808367266e-08
1.09981303943e-06
1.24272168669e-06
1.80008605365e-06
1.60206806671e-07
1.20468698106e-07
3.581375967e-07
3.14741190089e-07
4.00017753811e-06
6.43377687499e-06
2.91219765365e-05
4.43763342102e-06
1.18474814343e-07
8.68100448337e-06
1.33856172833e-05
5.34707275159e-06
1.34431764393e-05
1.91181182269e-07
8.28405115956e-06
2.54968095226e-07
5.90937363532e-07
1.18687516975e-05
6.16560888113e-05
2.79997717955e-05
2.29381016243e-07
1.13950354233e-05
2.39118786227e-07
7.73795393089e-07
1.0342147395e-06
1.51254575834e-05
1.86253664238e-07
1.91278239388e-07
4.86188914633e-08
1.10632386067e-08
3.15142320023e-07
2.32254882555e-07
3.34478863115e-06
9.81029437747e-07
3.66657004047e-06
5.15924419907e-06
3.42689614378e-06
7.49393799019e-06
8.09864472721e-07
3.33922736668e-06
1.79452210165e-06
6.68113183792e-06
1.23434988624e-06
2.11709495882e-06
1.0781354231e-06
1.89976931098e-07
7.60493466652e-08
1.06945436155e-07
3.71766526597e-06
2.43083766234e-06
1.30607428949e-07
7.69109317999e-09
3.79899001647e-06
3.12039770774e-06
2.58430682709e-06
8.36128182179e-06
8.34881074276e-06
4.46530245151e-08
7.33189153261e-09
3.02031651065e-06
4.01241938736e-06
3.06294408736e-07
3.14074224408e-08
7.40357387031e-06
4.34274228755e-07
1.37100285262e-06
1.76975070634e-06
4.39319698994e-07
8.89647301646e-09
3.95539764973e-07
1.92414948039e-08
4.60470095606e-08
4.62779932379e-08
3.79487366907e-07
5.98278031139e-06
1.11340238372e-05
3.3825111606e-07
4.19211904023e-06
3.14019718056e-06
1.6498281995e-06
9.20533586719e-07
1.08067675396e-06
1.05417121645e-06
2.69007293023e-06
3.81263985418e-06
2.54896703436e-07
1.95388372082e-07
1.23290708667e-08
3.31931416362e-07
4.60726726564e-07
2.96299256044e-08
1.59471438402e-07
2.31587474908e-07
1.18751322432e-07
4.52272705019e-07
4.61056771903e-07
5.53430848774e-07
4.04702928557e-07
5.46565780504e-07
5.221498685e-07
1.02857571633e-06
5.29899770224e-07
5.78251803413e-08
4.24673117162e-07
1.02928611644e-06
1.17306404075e-06
6.50208911793e-08
6.92413055344e-06
5.18689242664e-08
4.81385954545e-08
1.17214737381e-07
6.37665692822e-08
1.04649337328e-07
8.97791253188e-08
1.28780166155e-07
1.71784267631e-07
4.35307229373e-07
1.26427336314e-06
7.89784253436e-06
6.94457490146e-06
6.54787566553e-06
6.4591934216e-06
1.40848075705e-07
1.99452221951e-07
1.85995107756e-07
2.39038824503e-07
1.83223704064e-07
3.71841302939e-07
3.25207183109e-07
5.78884971605e-06
5.38542590937e-06
2.58622579536e-07
8.29614234378e-08
8.19508694088e-08
1.90338429474e-07
1.92711356451e-07
1.05200840294e-07
9.65415015902e-08
1.4222972701e-07
1.83132703795e-07
4.29127806044e-08
2.45110414593e-08
3.2826033561e-07
2.29584375811e-07
2.58923533223e-07
2.20983102136e-07
4.57610214623e-08
8.18828098378e-07
8.30836713612e-08
5.62595959597e-07
1.76227379228e-06
1.96272781955e-07
1.13342690673e-07
9.03656186879e-07
8.5399931904e-07
8.18590089745e-07
7.85907635862e-07
1.2777737496e-06
7.70118732234e-07
3.03168345218e-06
2.25422321129e-06
2.43864341894e-06
3.3715730597e-06
1.46346163457e-06
1.5301236284e-06
6.20840308161e-07
7.35458471279e-07
2.39036194854e-07
1.73265527961e-06
7.87209639759e-07
1.93043858035e-07
2.01942532565e-07
4.59232611967e-08
1.03313934573e-07
9.88389129886e-08
4.46442294847e-07
6.72146611453e-08
2.59534007009e-07
1.70586613715e-07
2.17133151601e-07
4.52720332414e-07
1.05068277301e-07
2.0801976044e-07
2.35482789097e-07
2.2087479337e-06
3.67451564096e-07
1.07325946372e-06
3.4372778525e-07
1.45555108769e-06
1.20830156555e-07
3.28597372493e-07
1.81009567259e-07
1.13928743012e-06
3.73939249449e-07
7.08367824569e-07
5.5923929096e-07
1.93919739285e-06
6.72369285499e-07
4.39845647294e-06
7.40212063875e-06
4.08364052322e-06
4.54123814074e-06
5.80072123616e-06
5.45148318661e-06
4.95058355046e-06
7.11221724919e-06
2.03700868893e-05
3.67460078039e-05
7.71443451442e-06
6.87610280749e-06
2.8209826401e-06
7.8849091517e-06
7.38882985647e-08
9.46130999181e-08
5.29775623833e-07
3.70309280416e-06
6.70632238894e-06
3.90015909684e-06
6.4968755716e-06
3.69569010818e-06
7.45947660714e-06
7.82236541961e-06
4.66356452621e-06
8.35232744676e-06
2.01473598748e-06
2.52803896778e-06
1.78208231949e-07
9.71311282828e-08
9.49256394663e-07
2.65280057647e-07
1.25810122987e-06
5.25193632437e-07
1.01234814421e-06
2.20822199704e-06
6.00763765985e-07
4.18758891099e-07
2.19611294838e-07
1.73118225961e-07
3.62717467406e-07
1.22607757487e-06
7.17539762174e-06
3.81361857815e-06
2.01030302585e-07
4.0020792027e-07

