# vtk DataFile Version 3.0
File Name: Molecule/sphere_excent/sphere_excent_0-s0.vtk
ASCII
DATASET UNSTRUCTURED_GRID
FIELD FieldData 1
TIME 1 1 double
0.0
POINTS 12 double
1.7013016167 -1.05146222424 0.0
1.05146222424 0.0 -1.7013016167
1.7013016167 1.05146222424 0.0
0.0 1.7013016167 -1.05146222424
0.0 1.7013016167 1.05146222424
-1.7013016167 1.05146222424 0.0
-1.05146222424 0.0 1.7013016167
1.05146222424 0.0 1.7013016167
0.0 -1.7013016167 1.05146222424
0.0 -1.7013016167 -1.05146222424
-1.05146222424 0.0 -1.7013016167
-1.7013016167 -1.05146222424 0.0

CELLS 20 80
3 0 1 2
3 2 1 3
3 2 3 4
3 4 3 5
3 4 5 6
3 4 6 7
3 6 8 7
3 7 8 0
3 1 9 10
3 0 2 7
3 2 4 7
3 10 11 5
3 3 10 5
3 11 9 8
3 11 8 6
3 6 5 11
3 10 9 11
3 9 0 8
3 1 0 9
3 1 10 3

CELL_TYPES 20
5
5
5
5
5
5
5
5
5
5
5
5
5
5
5
5
5
5
5
5

CELL_DATA 20
SCALARS cell_data_0 double
LOOKUP_TABLE default
0.000690558118993
0.000742748254534
3.27666336401e-07
2.40565669499e-05
5.27740368658e-05
0.000160753914459
4.94036794614e-05
1.83725825254e-05
0.00183278892955
9.53817478669e-07
8.73054091322e-05
0.00052541619647
0.000568405513062
2.40565420904e-05
7.02026777104e-06
3.89129478347e-05
0.000578159991583
9.39640450018e-06
0.000568405577779
0.00177811296899

