# vtk DataFile Version 3.0
File Name: Molecule/sphere_excent/sphere_excent_0-s30.vtk
ASCII
DATASET UNSTRUCTURED_GRID
FIELD FieldData 1
TIME 1 1 double
0.0
POINTS 336 double
-0.12124367058 1.7325458527 0.99034589529
-1.0911259651 1.4759021997 0.79312926531
-0.58484566212 1.2356270552 1.4590883255
-1.6505087614 1.118412137 0.15726152062
-1.663236618 0.70083796978 0.86078238487
0.62180566788 -1.2156143188 1.4609640837
0.037844747305 -1.7036646605 1.0376811028
0.79433441162 -1.6771799326 0.74535161257
0.31616672873 -1.1847648621 -1.57954216
-0.0033536963165 -1.7107840776 -1.0289055109
-0.30952441692 -1.1788927317 -1.5846514702
1.5407129526 -0.41189387441 1.206807971
1.5394496918 0.45124581456 1.1933298111
1.1995081902 0.028937637806 1.5995821953
-1.9311331511 0.35703414679 0.37739476562
0.065395608544 -1.9940536022 0.030017485842
1.0330902338 -1.7115424871 0.031668957323
-0.52493923903 1.8777401447 0.43426376581
-1.1452460289 1.6350620985 0.07491401583
-1.2647767067 1.4650877714 -0.50067073107
0.14510896802 -0.65136814117 -1.8797644377
0.91903918982 0.9872481823 -1.4766477346
1.1937396526 0.93043416739 -1.3073369265
1.077714324 0.73539155722 -1.515822053
1.3605650663 -0.40760904551 -1.40805161
1.5186085701 -0.19526860118 -1.2866948843
1.5241526365 -0.52352029085 -1.1844406128
-0.45941048861 0.67258453369 1.8264210224
-0.81990206242 0.43034288287 1.7726093531
-0.42920604348 0.23708949983 1.9387207031
-0.65839612484 -1.3294434547 1.3411451578
-1.0149639845 -0.74891149998 1.550369978
-1.1805782318 -1.1307007074 1.1511371136
-1.5719753504 -0.51835846901 1.1221677065
-1.2483210564 -0.19709061086 1.5494344234
0.10088320076 0.039390295744 -1.9970772266
-0.16016069055 0.50111359358 -1.9292457104
0.30085340142 0.43917742372 -1.9277968407
-1.362172246 -0.36124002934 -1.4190658331
-0.98558223248 -0.67363637686 -1.6044616699
-1.271873951 -0.82232755423 -1.3061726093
1.8535089493 0.37339943647 0.65181905031
1.6938259602 0.78404092789 0.7178812027
1.3810679913 0.9995623827 1.0443469286
1.1116204262 0.58604365587 1.5543035269
1.9620175362 0.24305386841 -0.30144518614
1.970993638 0.30779618025 0.14250677824
1.9938424826 -0.15433177352 0.023864952847
-0.022450076416 0.89343655109 1.7890372276
-0.036757200956 0.41614413261 1.9558084011
0.39157122374 0.5095128417 1.893537879
0.30406373739 -7.9867430031e-05 1.9763222933
-0.77515953779 -1.6744600534 0.76360493898
-1.6407101154 -1.103659749 0.29783120751
-1.541133523 -1.2726746798 0.068774573505
-1.3025841713 -1.4564460516 0.4228976965
1.1901932955 -1.087890029 1.1821107864
1.0453385115 -0.60600960255 1.5936405659
1.2803431749 -1.4869940281 -0.38447073102
0.74060469866 -1.7415407896 -0.64598482847
1.5461069345 -1.2675200701 -0.050237875432
1.3807708025 -1.4006998539 0.36179360747
1.7445034981 -0.9450982213 0.25044798851
1.7915939093 -0.88212358952 -0.10893367231
1.6909556389 -0.99118620157 -0.3949444592
-1.9259432554 -0.51956045628 0.1425794363
-1.8091238737 -0.80626767874 0.27705925703
-1.8474895954 -0.51073348522 0.57025182247
-1.680277586 -0.89006596804 0.61879634857
-1.6408047676 -1.128457427 -0.18446071446
-1.7374700308 -0.98919528723 0.041970647871
-0.046680580825 -1.2829036713 1.533649087
0.50924038887 -0.55970549583 1.8512897491
0.74880421162 -0.12464153022 1.8501052856
-0.4399125874 -0.96511632204 1.6955018044
0.023349663243 -0.38668870926 1.9621266127
0.064667269588 -0.85213059187 1.8082511425
-0.37510439754 -0.55293536186 1.8843511343
0.81237274408 0.31941866875 1.7992522717
-1.457010746 0.93454873562 -1.0011204481
-1.6473406553 1.0055006742 -0.52445733547
-1.8445179462 -0.032830245793 0.77195954323
-1.560072422 0.14061491191 1.2434425354
-0.032335788012 1.7852151394 -0.89873749018
0.19349989295 1.9317840338 -0.48032546043
0.44408819079 1.7434617281 -0.87356758118
0.73816400766 1.7708348036 -0.56472510099
0.59005361795 1.8992731571 -0.20739936829
0.83878868818 1.5500943661 -0.94523203373
1.2626494169 1.3116253614 -0.82778900862
1.0860906839 1.5562337637 -0.63102763891
0.48010396957 1.4785654545 -1.2581703663
0.80734658241 1.2854496241 -1.3020830154
-1.9603610039 -0.18904420733 0.34802114964
-1.9180784225 -0.53016453981 -0.19965434074
-1.8541915417 -0.74868386984 -0.03621744737
-1.8311133385 -0.73355549574 -0.32974568009
-1.8564931154 -0.530559659 -0.52148276567
-1.6990582943 0.57273936272 -0.88521528244
-1.8368057013 0.73417395353 -0.2937759459
-1.9985916615 -0.033791292459 0.058724898845
-1.9766407013 -0.29963293672 -0.051961176097
-1.9857994318 -0.099957190454 -0.21525892615
-1.9422638416 -0.33106517792 -0.34318223596
-1.9633957148 0.065187387168 -0.37453752756
-1.9859032631 0.18886761367 -0.14004956186
-0.66349989176 -1.5007683039 -1.1431406736
-0.67040777206 -1.7876659632 -0.58850646019
-1.0236010551 -1.4847182035 -0.86473602057
-0.89406037331 -1.0976061821 -1.4121980667
-1.1386172771 -1.2025072575 -1.120926857
-1.4363331795 -0.97229909897 -0.9957587719
-1.5171742439 -1.1036522388 -0.69288820028
-1.6285197735 -0.85702782869 -0.78303599358
-1.3158581257 -1.235929966 -0.86077964306
-1.3315401077 -1.3642072678 -0.60454559326
-1.5404301882 -1.2025923729 -0.4249291122
-1.3960220814 -1.3864901066 -0.3586127758
-1.6865446568 -0.9667083025 -0.46985352039
-1.0727351904 -1.5904859304 -0.56290578842
-1.4740684032 -1.3422049284 -0.15972049534
-1.1754840612 1.0200443268 1.2557731867
1.1093468666 1.6324353218 -0.32158333063
1.3925089836 1.3653439283 -0.44311437011
1.3446575403 1.4796859026 -0.042380325496
1.6759309769 1.0270917416 -0.36525946856
1.5905622244 1.2064822912 -0.10581105947
1.5188803673 1.0963140726 -0.70080447197
-1.153914094 0.21047070622 1.6198823452
-1.2953667641 0.57747030258 1.4100288153
-0.89045786858 0.82304513454 1.5905641317
-0.79159492254 -0.0095152230933 1.836550355
-1.5653991699 -0.63916027546 -1.0680549145
1.3517985344 1.42544806 0.37431257963
1.0645104647 1.680919528 0.19840779901
-1.9374254942 0.49219590425 -0.045411292464
-1.9309103489 0.36516958475 -0.37207764387
-1.8279817104 0.58440023661 -0.56313854456
-1.8506826162 0.32523959875 -0.68472880125
0.80774432421 0.76919865608 -1.6600160599
0.70800435543 0.5113402009 -1.7991577387
0.98454993963 0.52349996567 -1.6602857113
0.89490026236 0.28906333447 -1.7651076317
1.1005344391 0.29024031758 -1.6444346905
1.2296408415 0.47914525867 -1.5028071404
0.95984745026 -0.091499224305 -1.7520648241
1.2744392157 0.13933244348 -1.534889102
1.4019811153 0.3182015717 -1.3904156685
1.281368494 0.699614048 -1.366997242
1.4448847771 0.53339082003 -1.2758357525
1.4037322998 0.80501711369 -1.1753377914
1.5607970953 0.29057651758 -1.2163131237
1.6302893162 0.46700742841 -1.0601168871
1.7461853027 0.20834548771 -0.95248103142
1.6188137531 0.043191496283 -1.1735323668
1.4568610191 0.07454264909 -1.3680727482
1.7164986134 -0.21565113962 -1.0033767223
1.2869077921 -0.15517020226 -1.5229866505
0.66948854923 0.1965187788 -1.8743834496
1.0992908478 -0.45564201474 -1.6066619158
0.13080964983 0.91199541092 -1.7747217417
0.49938231707 -0.11362507939 -1.9320532084
0.59154105186 1.0826483965 -1.5740764141
0.50433421135 0.76365989447 -1.7783310413
1.861552 0.64935463667 0.33606183529
1.881231308 0.67189872265 -0.096129149199
1.780185461 0.89622682333 0.16237185895
1.7016333342 0.97690719366 0.38545390964
1.5545562506 1.1179900169 0.57547998428
1.6929689646 0.80875599384 -0.69259858131
1.8490669727 0.59512764215 -0.47579857707
-0.082286544144 0.022191084921 1.9981517792
-0.35663074255 -0.15881918371 1.9612736702
1.5310519934 1.2782336473 0.1388246119
0.91288560629 1.0993173122 1.3988426924
0.45136639476 1.4194751978 1.3346446753
0.41298636794 1.0465204716 1.6535109282
0.0062676304951 1.3293125629 1.4941701889
0.77101123333 1.5457589626 1.0036736727
1.8731452227 -0.00043412868399 -0.70094203949
1.7590103149 0.50922143459 -0.8041023612
1.8607925177 0.31121554971 -0.6635671854
-1.6325391531 -0.30546846986 -1.1141591072
-1.6157596111 0.01939092949 -1.1781749725
-0.77284568548 -0.23980599642 -1.8288092613
-1.0293163061 -0.2776593864 -1.6919150352
-0.86113315821 0.012205836363 -1.8049952984
-1.1555690765 0.015463889576 -1.6321461201
-0.53236305714 0.08735948801 -1.9257677794
-0.72482925653 0.24666963518 -1.8474607468
-0.9900432229 0.30113792419 -1.7114539146
-1.1344722509 0.54533404112 -1.5541964769
-1.2663872242 0.25845760107 -1.5260212421
-1.8427273035 -0.173154369 -0.75787127018
-1.7684756517 -0.37869030237 -0.85387402773
-1.8900564909 -0.28970849514 -0.58632963896
-1.7546854019 -0.10888382792 -0.95353358984
-1.7722494602 0.17056901753 -0.91064476967
-1.8528206348 0.03885807097 -0.75180178881
-1.908246398 -0.066458128393 -0.59497028589
-1.948197484 -0.14700184762 -0.42753595114
-1.9137939215 0.14239120483 -0.56274694204
0.64175677299 -0.37349495292 -1.8553925753
1.2781118155 -0.69804781675 -1.3708233833
1.0244226456 -0.79229307175 -1.5240290165
1.122379303 -1.022477746 -1.301782608
0.7458140254 -0.6559792757 -1.730355978
1.4086794853 -0.87083005905 -1.1212719679
1.6541272402 -0.6713026762 -0.90145123005
0.79144239426 -1.1457549334 -1.4355037212
1.947578311 -0.021977949888 0.45430129766
1.9026563168 -0.49544551969 0.36633524299
1.7925412655 0.006444056984 0.88691812754
1.8388935328 -0.34776958823 0.70475131273
-1.7345592976 -0.62872469425 -0.77201527357
-1.7653003931 -0.74602043629 -0.57195931673
1.451469183 -1.0841574669 -0.84607416391
1.7395954132 -0.75028401613 0.64005672932
0.57789504528 -1.5083675385 -1.1792062521
1.9121947289 -0.58540081978 0.026579046622
1.9108335972 -0.49065867066 -0.32748100162
0.95098185539 -1.3710712194 -1.1025601625
1.5533970594 0.85298675299 -0.926905334
1.401247263 1.025647521 -0.99208915234
0.73013156652 0.73475056887 1.7106962204
1.1620521545 -1.4212706089 -0.79337954521
1.2325004339 -1.1749001741 -1.0490794182
-1.3299018145 -1.4912860394 0.084972821176
-0.96484994888 -1.7490698099 0.073470957577
-1.2727195024 -1.533754468 -0.16542358696
-1.2408174276 -1.5175546408 -0.3963727057
-1.0734776258 -1.6645755768 -0.27563282847
-0.79851013422 -1.8168164492 -0.24914830923
1.5387876034 0.66235941648 -1.0924589634
[...]
CELL_DATA 668
SCALARS cell_data_0 double
LOOKUP_TABLE default
1.27873487762e-05
7.35403302221e-06
3.57064146653e-06
9.75393365367e-05
5.65984797905e-06
4.33917342831e-06
1.62796016676e-05
4.1062469605e-06
5.02815356783e-06
6.3398880324e-06
9.58900427288e-05
1.18955164476e-05
3.5221155185e-06
7.61466093643e-06
6.57821383425e-06
1.02969325787e-05
8.32507981324e-05
2.61221492442e-05
1.83929576314e-07
1.02893683876e-06
7.07939346705e-06
8.36101506987e-06
1.04634770597e-05
8.77370899358e-06
6.98564469519e-06
7.13968024263e-06
7.33798629995e-06
5.6827191203e-06
8.00078538729e-07
3.56165219888e-06
8.3014528578e-06
9.63088444695e-08
1.95284732236e-06
1.22852187558e-06
1.45661732565e-06
1.19391659015e-06
1.08414066978e-05
1.12395898594e-06
1.36321547761e-06
8.81536426542e-07
3.55369139778e-07
1.10572244746e-05
9.90357509171e-06
7.38503557278e-06
7.98924443959e-06
1.05066466446e-05
1.15479450075e-05
7.7907199187e-06
5.91647476642e-06
8.08953338516e-06
8.50266387161e-06
8.2383437018e-06
8.11173799594e-06
1.0761346261e-05
8.44892312285e-06
6.59048163489e-06
7.75080365472e-06
6.05415770423e-06
1.85182713365e-05
7.84271297544e-06
1.65440298726e-06
3.62884513106e-06
4.97411210632e-06
6.00527666358e-06
4.19039315683e-07
2.9044339059e-07
3.71835374114e-07
9.49590287574e-06
4.17215399635e-07
7.2480509345e-06
2.75637755225e-05
2.56338946605e-08
6.27827596327e-06
5.50468453984e-06
5.66763813309e-07
3.1734186078e-08
1.37362205502e-06
3.59140944996e-06
3.81363239971e-06
6.46678622525e-06
2.17860926503e-06
1.35132454533e-06
1.79063531817e-06
3.43970806367e-08
1.18525451534e-06
4.49490690943e-06
4.43333281597e-06
6.3790719164e-10
4.1863998288e-06
1.68423936843e-07
1.90030685474e-05
2.34383634575e-07
1.0224591529e-07
1.18116642735e-05
2.79677092036e-07
1.55268012118e-07
2.98807324072e-07
1.07703375871e-07
2.28799372761e-07
7.84993438381e-08
2.91399605908e-07
4.03068992271e-07
2.2555055673e-07
8.63147538572e-08
6.17791074064e-06
6.73747362749e-06
7.66649763812e-06
4.83356461782e-06
2.76709297595e-07
6.58533911509e-07
6.33164506517e-08
7.86400587841e-06
8.57538418854e-06
6.79369174474e-06
3.87538406486e-06
4.91934576686e-06
4.85653713027e-06
4.46825011661e-06
3.60430837531e-06
5.67426543665e-06
4.41105912023e-06
7.76454328971e-06
6.64129379003e-06
6.53791257297e-06
8.92018283363e-06
1.3005527172e-05
1.00234179726e-05
9.23302785976e-07
1.0923803329e-06
2.1784495686e-06
8.2245132444e-07
3.70697787986e-07
7.85542201137e-07
2.32769680612e-07
5.67449612154e-09
2.28121160651e-07
1.43468621132e-06
2.02079926806e-07
2.38597540013e-07
8.03407020266e-07
7.34186138694e-07
1.38794716738e-07
2.71676753387e-08
2.2683508068e-08
6.74130575053e-08
2.53325996716e-07
9.60895152739e-08
1.30049915414e-06
1.34714721622e-07
2.97627905945e-06
2.38900669829e-07
4.91754484523e-08
7.15818253361e-08
5.74503545305e-07
6.52250225024e-07
7.79748718527e-08
1.62661550609e-07
4.78636927089e-08
4.48267958007e-07
3.22543088923e-07
4.03321646111e-07
1.9188337133e-07
7.84223352955e-06
9.19666477086e-06
3.98807826752e-07
5.87676294937e-07
5.40792712694e-07
7.0122175497e-07
5.6042722507e-07
6.12257854571e-07
3.0385915549e-07
1.61933179713e-06
1.4788309313e-06
1.10865087118e-07
8.81640500701e-08
3.90392655839e-07
1.03295137828e-06
3.49039049113e-06
1.20564742908e-06
3.70234782359e-06
7.48855879805e-05
4.4291243236e-05
3.74145211214e-05
6.50300418537e-05
2.27586265278e-05
2.31327570571e-05
2.01851558684e-05
3.63005322607e-06
2.7044105179e-05
2.94189914117e-05
2.16214562717e-05
3.57487587611e-05
4.79754015088e-06
5.5323163267e-06
1.25598358651e-05
9.46953811294e-06
1.51961088606e-05
1.2931649069e-06
1.7071863553e-07
5.85451314648e-06
5.41159499703e-06
5.73157959987e-06
7.89198154677e-06
7.77939385425e-06
6.28427252814e-06
7.10247906573e-06
4.16377865993e-06
4.90590832916e-06
5.25350820734e-06
6.39240290317e-07
2.6057989055e-06
2.26444670937e-06
7.20106154018e-06
2.09734013525e-06
4.15954368334e-06
3.57305669401e-06
6.58007323321e-06
4.66350751306e-06
4.66542454506e-06
3.14774144062e-06
2.30380317997e-06
7.48181082979e-07
1.69401940871e-07
2.8858636897e-07
7.12597992344e-08
2.37330952878e-07
7.22246876083e-06
1.83450920825e-05
2.92679636799e-08
1.35061627109e-06
8.94659301168e-06
1.15886534887e-07
1.39239478268e-06
1.64872668341e-09
8.01107614717e-06
2.38926922472e-05
6.55813834273e-06
8.78714341843e-06
6.65838784783e-06
6.51110085461e-08
1.01591169079e-06
1.02817904225e-07
6.06151326436e-09
5.40151472861e-06
5.78150821762e-06
2.42637847256e-08
2.29390583037e-08
7.42007626415e-08
4.49975019849e-08
7.98570938711e-08
3.8227323478e-08
7.48704448715e-08
1.36718917203e-07
2.1884711405e-07
8.30062647828e-08
4.71413919837e-08
7.63526713203e-08
5.23419199661e-08
1.12873667815e-07
2.65323098273e-08
1.66629189454e-07
2.06795717487e-07
1.68469095492e-07
1.82717201089e-07
3.50945871273e-06
3.36388193065e-06
3.37704763423e-06
8.61335768645e-08
1.99772671707e-08
2.25406894913e-07
3.03397408227e-06
5.63898226232e-08
1.59366374311e-06
6.39039621216e-08
3.67335862138e-05
3.4057977095e-06
1.14296956438e-06
2.98848752281e-06
1.36030072851e-06
1.66104856878e-06
6.38456923596e-06
9.89250950113e-06
2.20862948833e-06
1.08142807301e-06
4.87258918411e-06
2.90096776916e-06
7.28874416313e-07
3.80890855167e-07
1.28882995758e-07
2.28351235301e-06
6.51071745105e-06
1.65451321863e-07
1.52736013084e-07
3.50212896391e-07
2.18916506508e-06
1.77285166087e-06
1.91615252181e-07
6.31898032508e-06
9.05088376518e-06
4.30168023336e-05
2.91375137013e-06
6.18239817087e-07
1.61002170823e-08
2.80436462514e-05
1.83223874374e-05
2.7499741631e-05
5.99959482649e-07
6.82935690408e-07
1.37170778179e-06
6.17658298076e-07
2.42594504841e-07
1.77453718142e-08
7.51638815342e-06
9.27897086528e-06
4.70035975549e-06
8.28742940503e-06
1.08164949342e-05
9.88553878353e-06
5.41830451152e-07
1.72800880105e-07
3.8135886077e-08
9.10384177335e-08
1.06371476502e-06
2.94716285058e-07
5.28057014952e-07
3.88106385546e-08
1.15412464894e-08
1.19534994723e-07
2.03780870485e-07
8.25707477775e-07
2.88271728443e-06
8.69445660581e-07
1.15199297572e-06
6.08168862771e-07
9.36978323238e-09
1.69763277439e-07
1.21929947505e-05
1.58856529501e-05
1.89460222794e-07
3.55442533637e-09
8.28064683296e-08
9.50938777759e-08
1.67506441442e-07
2.89036824595e-07
2.13254347584e-07
1.12705928168e-07
2.85390528054e-07
1.19783124597e-07
2.4452911702e-08
1.33793398409e-07
1.07084830995e-08
4.95768282667e-06
4.33368576162e-06
8.64650288478e-08
7.0022223483e-08
3.40647393906e-07
7.65231556493e-07
1.2213755943e-07
5.54819676305e-08
9.6320442242e-07
1.11343617119e-06
3.96008220869e-06
5.78194267892e-07
2.32214263406e-07
1.94809770765e-07
1.39095815222e-05
2.78191293882e-05
4.83818344068e-06
6.34981896501e-09
8.39799027822e-08
9.93461629272e-08
6.03287958966e-08
3.80398113853e-08
8.96375375477e-08
2.12581948535e-07
1.27208598687e-08
4.75052123081e-07
5.96348805642e-06
5.9695644135e-06
2.28638761423e-07
1.77962360207e-07
1.8468003875e-07
2.75114011591e-07
7.04280388689e-07
5.14706574872e-07
1.14049216724e-06
7.26327139774e-06
2.51491114289e-07
7.08269399739e-06
5.59448112184e-06
7.9857697138e-06
8.74888289122e-06
6.89016093793e-07
9.32525681362e-07
1.65673038958e-06
3.275353667e-06
3.52621589223e-06
1.38096023237e-08
5.03859557753e-08
4.21503676861e-07
6.29960895423e-07
6.99293035969e-07
6.12976038925e-06
3.03493476862e-07
2.13197513974e-07
8.18505468373e-06
1.10143155182e-05
7.13837155204e-06
5.56169176588e-06
6.08548974781e-06
2.59465604076e-06
7.44184768066e-06
1.82037868787e-06
2.1047897992e-05
3.21724254378e-05
9.3760897491e-07
1.52186945622e-06
8.92197264409e-06
5.28314773981e-06
4.66502860162e-06
8.55299234773e-07
6.62204085714e-06
1.17640320117e-07
4.61692365653e-08
5.03488363137e-06
1.77460463485e-05
4.48416837835e-07
1.16231322418e-05
3.59711656573e-08
5.65469451417e-06
4.29649480042e-08
1.04107688924e-08
6.47383718773e-09
5.29955298518e-06
1.28144950314e-07
5.79688078079e-06
4.53090988331e-06
5.43129776042e-07
3.12520772339e-06
1.96946741928e-06
1.07911141207e-06
1.18869034684e-06
1.17292321799e-06
5.60401143899e-06
2.07273882519e-06
2.36257818095e-07
2.30000105705e-07
2.80867151318e-07
3.08355280119e-07
4.64264016207e-07
2.65407552124e-07
5.50532109084e-07
4.8344810334e-07
3.27127869448e-06
5.31870479605e-07
8.00567830129e-06
1.16792355517e-05
4.61061372567e-08
3.14179536298e-08
4.55474585233e-06
9.48020299004e-06
5.34260526682e-06
1.20612082304e-07
6.07605743534e-06
1.10909514085e-06
1.20501224975e-06
2.59178454706e-08
1.73273625559e-07
6.63434333387e-06
2.69532168464e-06
7.39156718567e-06
1.35166606062e-05
4.71448993836e-06
6.77633456907e-08
5.51544227934e-06
7.27669872937e-06
2.75533921609e-05
1.4187893889e-05
1.70753186415e-05
1.43770697796e-05
1.71529874762e-05
4.45636598365e-06
8.59061650437e-08
1.94062681091e-07
2.05709124155e-07
2.85774136066e-07
1.11229576208e-07
5.15028909152e-07
3.96109562574e-07
1.01980863994e-05
6.32890305418e-06
5.63343370173e-06
5.396255893e-08
3.204528545e-08
3.40532992232e-06
4.40661895297e-06
2.39471734791e-07
2.32179887726e-08
7.73234545534e-06
8.43870781326e-06
2.1713577192e-08
9.50244433919e-09
6.6022557833e-06
6.03667300925e-08
2.7283506564e-07
4.98212788084e-06
4.71574553283e-08
9.54587684537e-07
5.47341687233e-06
1.89631170236e-05
7.33343373621e-06
7.5366793138e-06
4.09137475722e-06
9.21155798234e-07
8.48600765874e-07
9.02544302631e-07
8.99914121836e-07
1.55216506137e-06
9.56737459479e-07
3.44182563665e-06
2.35794962457e-06
2.49233416103e-06
3.31226836715e-06
6.35842810852e-07
1.52445996723e-05
7.41450094113e-06
2.04704634241e-07
1.75673298963e-07
6.94597143833e-07
5.40674144891e-08
3.21014437497e-07
5.79205397806e-06
2.52853403449e-07
3.63707469932e-07
5.60247178096e-06
1.43173730228e-07
9.36393899253e-08
5.40850006366e-07
3.65159331094e-07
6.34845012772e-08
1.80695990651e-07
3.03077804476e-07
6.74216282139e-06
1.13583436976e-05
1.10474725333e-06
2.38449967899e-07
1.18121438678e-06
5.43546634039e-06
1.7675276625e-06
1.60207376592e-07
4.34751967378e-07
4.09324947203e-07
5.22220320193e-07
4.70231985629e-07
1.26529451564e-06
1.13002240066e-06
8.48984211291e-07
1.53845770088e-06
7.28571692542e-06
8.1723156699e-06
4.28826107308e-06
3.75531502145e-06
4.47785262115e-06
5.04461719596e-06
5.53837715683e-06
5.84031627343e-06
2.43027255945e-06
3.15588346863e-06
3.35649450158e-07
8.93286300064e-07
4.28348787064e-07
8.69182238355e-07
2.14190462377e-07
2.97403531838e-06
1.92800960462e-06
3.53230818826e-06
4.73906354671e-07
2.59621272325e-07
8.61468908343e-06
4.13910736168e-06
5.78458019021e-06
4.84755037873e-06
1.23854383222e-07
1.56447254507e-07
2.59646319223e-06
3.95652508619e-06
6.94462709939e-06
5.92963479645e-06
1.92231924637e-06
3.03205600868e-06
3.44993500205e-06
3.4376813498e-06
1.46652636716e-06
1.00239244933e-06
9.20483157526e-07
1.19492805644e-06
9.13245867673e-07
6.68111999333e-07
5.2499009458e-07
6.73253811849e-07
5.9056850524e-07
5.72557799763e-07
4.08599333123e-06
4.94248344673e-06
3.24930528264e-07
2.92242276153e-07
1.23590581311e-07
2.22929893091e-07
1.23360863848e-06
2.56473717575e-07
1.39441589158e-06
7.07150278883e-07
5.06354415847e-06
8.74264109306e-07
5.52901557197e-06
4.74607784434e-07
4.89202456777e-07
5.4461180494e-06
5.21270918144e-06
5.77692847518e-07
3.01990283939e-06
3.82691032769e-07
2.0639342109e-07
1.20168273643e-06
1.4268642135e-06
2.09864701535e-07
7.82382409903e-08
1.07504779086e-06
1.3078552587e-06
8.35623834834e-08
2.60879483286e-07
2.46165575977e-07
8.37352159767e-07
3.53802507803e-07
3.16213879067e-07
1.91758590262e-07
8.92917596271e-07
4.32466974226e-07
2.01258626959e-06
1.7141665236e-06
1.35011358967e-06
1.59368482718e-06
3.5775481421e-06
5.19190925157e-06
5.84601423505e-07
3.79812219982e-06
1.53340405058e-05
1.20363417467e-05
1.64750147351e-06
4.00834308062e-06
1.96948581537e-06
1.36052976463e-06
2.14332516695e-06
1.30065425639e-06
3.45576871409e-05
2.78056625621e-05
4.10023936849e-06
5.9412320519e-06
6.47674324466e-07
1.54046675888e-06
1.4848701886e-06
9.28749501026e-07
5.75411284701e-07
1.25359839705e-06
9.57808495377e-07
1.32426561854e-07
3.79556497242e-07
1.91514658306e-07

