# vtk DataFile Version 3.0
File Name: Molecule/sphere_excent/sphere_excent_0-s19.vtk
ASCII
DATASET UNSTRUCTURED_GRID
FIELD FieldData 1
TIME 1 1 double
0.0
POINTS 184 double
0.0045229531825 1.6851078272 1.0769155025
-1.0805181265 1.4763257504 0.80606949329
-0.62622785568 1.1633752584 1.4999574423
-1.6714744568 1.0936768055 0.10083428025
-1.6576907635 0.61986798048 0.92670458555
0.79008764029 1.0365011692 1.5160455704
0.061338286847 0.93044734001 1.7687916756
0.65021890402 -1.1364514828 1.5116267204
0.013400186785 -1.711304307 1.0349593163
0.86228090525 -1.6637486219 0.69692784548
0.4692581296 -1.2155197859 -1.5173306465
-0.019145438448 -1.7207449675 -1.0190162659
-0.51970303059 -1.0763607025 -1.600471735
1.6281157732 -0.42703071237 1.0766890049
1.5382925272 0.50128024817 1.17598629
1.1091679335 0.095758877695 1.6598798037
0.92436683178 1.5651006699 0.83360105753
-0.7743755579 -1.7381712198 -0.61185628176
0.0083488598466 -1.9996999502 0.016192601994
-1.1334371567 -1.6450859308 0.055146913975
-0.83932435513 -1.6670131683 0.71851998568
-0.66935437918 -1.2516993284 1.4080815315
-1.9732311964 0.23418548703 0.18806867301
0.85122197866 -1.6582516432 -0.72241562605
1.1497638226 -1.6330084801 0.051320936531
0.0061339363456 1.9993370771 0.034245178103
-0.57000112534 1.8815619946 0.36699464917
-0.53079897165 1.8902666569 -0.37917482853
-1.0972718 1.671864748 0.023737536743
-1.1745735407 1.473628521 -0.66801804304
-0.0035107498989 1.7352881432 -0.99309659004
0.25611528754 1.9029142857 -0.55473142862
0.56887209415 1.9093190432 -0.16868548095
0.55313646793 1.8820152283 0.38769415021
1.0383976698 1.7041404247 0.11864680052
1.6891928911 0.72882431746 -0.78119057417
1.3657739162 1.1746515036 -0.86879044771
1.6824675798 1.0542966127 -0.20098426938
1.1685595512 0.9713305831 -1.3003188372
0.86089974642 1.2847876549 -1.2670469284
1.7963451147 -0.87768858671 0.01739677228
1.9047697783 -0.38912805915 -0.46892818809
1.9846893549 -0.19315603375 0.14955797791
1.609074831 -0.70866978168 -0.95301419497
1.7473263741 -0.16979402304 -0.95808279514
1.9230959415 0.27526423335 -0.47407093644
1.8379735947 0.77563613653 -0.058877911419
1.0648883581 -0.048382006586 -1.6923376322
0.85698097944 -0.54680645466 -1.7227028608
0.5586027503 -0.0031646229327 -1.919781208
0.24902567267 -0.58784067631 -1.8949120045
-0.028469065204 0.050127524883 -1.9989523888
1.3626849651 -0.44136294723 -1.3960163593
1.1341686249 -0.97609162331 -1.3268630505
1.4489212036 0.74933367968 -1.1535332203
0.90166944265 0.89697688818 -1.5413146019
1.1257307529 0.6329189539 -1.5264620781
1.7081878185 0.30445417762 -0.99149012566
1.4967978001 -0.055546499789 -1.3237897158
-0.86128383875 0.49935814738 1.7339526415
-0.63699531555 0.0005367618287 1.892977953
-0.42767247558 0.59833735228 1.8598335981
-1.1985733509 -0.081463582814 1.597001791
-0.96694135666 -0.60595977306 1.6419321299
-0.3825160563 -0.52593541145 1.8903572559
-1.0487624407 0.021306829527 -1.7028429508
-1.3715229034 -0.32434564829 -1.418700099
-1.3717162609 0.37694564462 -1.405418396
-1.6855733395 0.017150875181 -1.0763120651
-1.6316608191 -0.62685739994 -0.96929639578
-1.5472193956 0.7907063961 -0.98811012506
-1.7710211277 0.48191595078 -0.7870092988
-0.99327385426 1.1654853821 -1.2855918407
-0.86430686712 0.53415578604 -1.722558856
-1.2959315777 -1.15416646 0.9926597476
-1.6078019142 -0.50301229954 1.0775233507
-0.35774222016 -0.44327020645 -1.9171799421
-0.58713954687 0.042060580105 -1.9113914967
-0.86913955212 -0.50370305777 -1.7278164625
-0.32920178771 0.54712313414 -1.8936975002
0.4020139575 0.48645403981 -1.8942517042
-0.53632205725 0.99405521154 -1.6500447989
0.26697298884 0.98203986883 -1.7213517427
-1.3444554806 -0.85953480005 -1.2021898031
0.45580685139 0.46996673942 1.8894876242
1.8765975237 0.26652818918 0.63778996468
1.9349979162 0.47576451302 0.10334271938
1.7218929529 0.83523398638 0.57305681705
1.4011490345 1.3554282188 0.43623700738
1.3579231501 1.1154237986 0.95509660244
-0.27335703373 1.4158172607 -1.3852655888
-0.60146856308 1.6442742348 -0.96604526043
0.40983065963 1.5238050222 -1.2240759134
-0.051980223507 0.32230222225 1.9717127085
0.24067768455 -0.028035543859 1.9850955009
-1.7018547058 -0.88473474979 -0.56592547894
-1.8452566862 -0.53283500671 -0.55649483204
-1.6629737616 -1.098762989 0.16130462289
-1.4060370922 -1.3570958376 0.42544040084
-1.6626148224 -0.9533470273 0.57063001394
1.6858010292 -0.96100181341 -0.48422122002
1.3830659389 -1.1933727264 -0.81396532059
1.3724694252 -1.3990051746 -0.39643672109
-1.5133157969 -1.3066654205 -0.034201193601
-1.390845418 -1.3985581398 -0.32865557075
1.3155379295 -1.1411331892 0.97968506813
0.99002784491 -0.56344074011 1.6425799131
1.7223668098 -0.85049265623 0.55562478304
1.4428449869 -1.3237907887 0.40629550815
-1.8378351927 -0.74884361029 -0.24763180315
-1.7079553604 -1.0241299868 -0.1850131005
-1.816367507 -0.82716947794 0.12418157607
-1.9236938953 -0.54433405399 0.054325517267
1.5537595749 -1.2570943832 -0.071160502732
-1.8541036844 -0.56125301123 0.49703043699
-1.5628223419 -1.1736471653 -0.42385113239
-0.02686281316 -1.2037934065 1.5964126587
0.45382252336 -0.51850813627 1.8775392771
0.65142732859 -0.086809702218 1.8886880875
-0.42632853985 -0.9096442461 1.7294119596
-0.044328376651 -0.3154450655 1.9730261564
0.089274451137 -0.80654203892 1.8278974295
-1.8414334059 -0.21679438651 -0.74960261583
-1.8741639853 0.20250453055 -0.66670942307
-1.9423719645 0.024892268702 -0.47540301085
-1.9308799505 -0.2856208086 -0.43620321155
-1.6923321486 0.94772595167 -0.48712968826
-1.8901354074 -0.1305334568 0.63118904829
-1.5009541512 0.21793088317 1.3003261089
0.76011610031 1.7778742313 -0.5105842948
1.080163002 1.659394145 -0.28067350388
0.54847604036 1.7284851074 -0.84186339378
0.90243339539 1.5227540731 -0.93116056919
1.0823802948 1.5691916943 -0.60369479656
0.60973656178 0.96602576971 -1.6387636662
-1.9763257504 -0.23737238348 0.18784484267
-1.9204897881 -0.49413925409 -0.25979188085
-1.8675898314 0.64366137981 -0.30700615048
-1.9973909855 -0.067890629172 -0.059707850218
-1.9722211361 -0.31403812766 -0.10673330724
-1.9776133299 -0.12435378134 -0.27022051811
-1.9832581282 0.1330549866 -0.21921676397
-0.75044620037 -1.4674226046 -1.1330783367
-1.0874636173 -1.4687156677 -0.81250268221
-0.98804616928 -1.1315028667 -1.3166934252
-1.1908199787 -1.2050919533 -1.0625759363
-1.5170818567 -1.1081899405 -0.68553650379
-1.4893801212 -0.96451711655 -0.9226090312
-1.3423633575 -1.2224564552 -0.83870905638
-1.3576045036 -1.3376680613 -0.60585528612
-1.1577168703 -1.5526397228 -0.4982213676
-1.1842517853 0.94879961014 1.3019814491
1.379771471 1.3905353546 -0.40255835652
1.3876656294 1.4392813444 -0.046029604971
-1.0915037394 0.2644122541 1.6546654701
-1.284022212 0.56397217512 1.4259483814
-0.84812068939 0.82472151518 1.6124790907
-1.9575858116 0.38758790493 -0.12318835407
-1.9357479811 0.31994184852 -0.38745507598
-1.8620040417 0.51112186909 -0.51955217123
0.84144443274 0.70264720917 -1.6727799177
0.81761950254 0.4890255928 -1.7586265802
0.9971228838 0.51068490744 -1.657055378
0.95731455088 0.26333451271 -1.73622334
1.1289823055 0.31831431389 -1.6198080778
1.2711112499 0.19369401038 -1.5320593119
1.2768884897 0.4526348412 -1.4712282419
1.4030696154 0.33850711584 -1.3844749928
1.3064973354 0.66007435322 -1.3626887798
1.4374155998 0.51599889994 -1.2913254499
1.5424175262 0.334228158 -1.2285333872
1.5775815248 0.51801508665 -1.1141412258
1.6001209021 0.13631497324 -1.1914762259
1.4467779398 0.15668486059 -1.3719590902
1.3131444454 -0.014339778572 -1.5082530975
0.69863265753 0.25483071804 -1.8564083576
0.57102543116 0.73111319542 -1.7717419863
1.8492026329 0.69141858816 0.31962049007
1.7380303144 0.97060191631 0.1923943311
1.5812222958 1.2165763378 0.14178404212
1.5927482843 1.1096148491 0.48157164454
-0.07652130723 0.0007641594857 1.9987375736
-0.33253517747 0.15351732075 1.9664281607
-0.32609379292 -0.14775444567 1.9680132866

CELLS 364 1456
3 0 1 2
3 1 3 4
3 5 0 6
3 7 8 9
3 10 11 12
3 13 14 15
3 16 0 5
3 14 5 15
3 17 18 19
3 17 11 18
3 20 18 8
3 20 8 21
3 4 3 22
3 11 23 18
3 9 18 24
3 18 9 8
3 10 23 11
3 25 26 0
3 0 26 1
3 25 27 26
3 27 28 26
3 27 29 28
3 26 28 1
3 30 27 31
3 1 28 3
3 28 29 3
3 32 33 34
3 32 25 33
3 34 33 16
3 16 33 0
3 33 25 0
3 35 36 37
3 38 39 36
3 40 41 42
3 43 44 41
3 44 45 41
3 41 45 42
3 45 35 46
3 47 48 49
3 48 50 49
3 48 10 50
3 49 50 51
3 12 50 10
3 47 52 48
3 52 53 48
3 52 43 53
3 48 53 10
3 10 53 23
3 43 52 44
3 35 54 36
3 54 38 36
3 38 55 39
3 55 38 56
3 44 57 45
3 57 35 45
3 52 58 44
3 59 60 61
3 62 63 60
3 63 64 60
3 65 66 67
3 66 68 67
3 66 69 68
3 70 67 71
3 67 72 73
3 21 63 74
3 75 63 62
3 51 76 77
3 76 78 77
3 76 12 78
3 77 78 65
3 51 79 80
3 79 81 82
3 51 77 79
3 77 73 79
3 77 65 73
3 79 73 81
3 12 76 50
3 50 76 51
3 81 73 72
3 67 73 65
3 65 78 66
3 66 78 83
3 5 84 15
3 42 85 13
3 85 14 13
3 42 86 85
3 85 87 14
3 88 16 89
3 87 89 14
3 14 89 5
3 5 89 16
3 30 90 91
3 90 72 91
3 90 81 72
3 91 72 29
3 29 72 70
3 70 72 67
3 81 90 82
3 82 90 92
3 30 91 27
3 27 91 29
3 16 88 34
3 45 86 42
3 61 6 2
3 2 6 0
3 61 93 6
3 93 84 6
3 93 94 84
3 6 84 5
3 69 95 96
3 97 98 99
3 98 74 99
3 98 20 74
3 99 74 75
3 75 74 63
3 21 74 20
3 43 100 101
3 100 102 101
3 101 102 23
3 40 100 41
3 41 100 43
3 43 101 53
3 53 101 23
3 97 103 98
3 103 19 98
3 103 104 19
3 98 19 20
3 20 19 18
3 9 105 7
3 7 105 106
3 13 105 107
3 105 108 107
3 105 9 108
3 107 108 40
3 13 107 42
3 42 107 40
3 95 109 96
3 95 110 109
3 110 111 109
3 110 97 111
3 109 111 112
3 102 24 23
3 23 24 18
3 102 113 24
3 113 108 24
3 113 40 108
3 24 108 9
3 40 113 100
3 100 113 102
3 112 111 114
3 99 111 97
3 97 110 103
3 104 103 115
3 7 116 8
3 8 116 21
3 94 117 118
3 117 106 118
3 117 7 106
3 118 106 15
3 15 106 13
3 13 106 105
3 21 119 63
3 63 119 64
3 94 120 117
3 120 121 117
3 120 64 121
3 117 121 7
3 7 121 116
3 121 119 116
3 121 64 119
3 116 119 21
3 94 118 84
3 84 118 15
3 96 122 69
3 69 122 68
3 68 122 123
3 124 122 125
3 70 126 29
3 29 126 3
3 22 127 4
3 4 127 128
3 129 32 130
3 32 31 25
3 25 31 27
3 30 31 131
3 31 129 131
3 31 32 129
3 131 129 132
3 39 132 36
3 36 132 133
3 133 132 129
3 132 92 131
3 132 39 92
3 131 92 30
3 30 92 90
3 82 92 134
3 22 135 127
3 135 114 127
3 135 112 114
3 127 114 75
3 75 114 99
3 99 114 111
3 112 136 109
3 109 136 96
3 68 71 67
3 70 71 126
3 126 137 3
3 22 138 135
3 138 139 135
3 138 140 139
3 135 139 112
3 112 139 136
3 139 125 136
3 139 140 125
3 136 125 96
3 96 125 122
3 124 125 140
3 124 140 141
3 17 142 11
3 11 142 12
3 17 143 142
3 144 142 145
3 142 144 12
3 12 144 78
3 146 95 147
3 148 149 146
3 149 115 146
3 149 104 115
3 146 115 95
3 148 143 149
3 143 150 149
3 143 17 150
3 149 150 104
3 104 150 19
3 19 150 17
3 95 115 110
3 110 115 103
3 4 151 1
3 1 151 2
3 62 128 75
3 75 128 127
3 133 130 152
3 130 153 152
3 130 34 153
3 152 153 37
3 133 152 36
3 36 152 37
3 62 154 128
3 154 155 128
3 154 59 155
3 128 155 4
3 4 155 151
3 155 156 151
3 155 59 156
3 151 156 2
3 2 156 61
3 156 59 61
3 59 154 60
3 154 62 60
3 144 83 78
3 66 83 69
3 88 153 34
3 137 157 3
3 3 157 22
3 22 157 141
3 157 158 141
3 157 137 158
3 141 158 124
3 34 130 32
3 129 130 133
3 124 123 122
3 123 71 68
3 71 159 126
3 159 137 126
3 71 123 159
3 123 158 159
3 123 124 158
3 159 158 137
3 22 141 138
3 138 141 140
3 148 145 143
3 143 145 142
3 144 145 83
3 145 147 83
3 145 148 147
3 83 147 69
3 69 147 95
3 146 147 148
3 55 56 160
3 161 162 163
3 162 164 163
3 162 56 164
3 163 164 47
3 47 164 165
3 164 166 165
3 164 56 166
3 165 166 167
3 56 168 166
3 168 169 166
3 168 54 169
3 166 169 167
3 54 168 38
3 38 168 56
3 167 169 170
3 169 171 170
3 169 54 171
3 170 171 57
3 57 171 35
3 35 171 54
3 57 172 170
3 172 173 170
3 172 58 173
3 170 173 167
3 58 172 44
3 44 172 57
3 167 173 165
3 173 174 165
3 173 58 174
3 165 174 47
3 163 47 175
3 47 174 52
3 174 58 52
3 82 80 79
3 51 80 49
3 55 134 39
3 39 134 92
3 82 134 176
3 134 160 176
3 134 55 160
3 176 160 161
3 82 176 80
3 175 80 161
3 176 161 80
3 80 175 49
3 86 177 85
3 177 87 85
3 86 46 177
3 46 178 177
3 46 37 178
3 177 178 87
3 37 179 178
3 179 180 178
3 179 88 180
3 178 180 87
3 87 180 89
3 89 180 88
3 37 46 35
3 46 86 45
3 93 181 94
3 94 181 120
3 60 182 61
3 182 93 61
3 120 183 64
3 64 183 60
3 60 183 182
3 183 181 182
3 183 120 181
3 182 181 93
3 88 179 153
3 153 179 37
3 161 160 162
3 162 160 56
3 49 175 47
3 163 175 161

CELL_TYPES 364
5
5
5
5
5
5
5
5
5
5
5
5
5
5
5
5
5
5
5
5
5
5
5
5
5
5
5
5
5
5
5
5
5
5
5
5
5
5
5
5
5
5
5
5
5
5
5
5
5
5
5
5
5
5
5
5
5
5
5
5
5
5
5
5
5
5
5
5
5
5
5
5
5
5
5
5
5
5
5
5
5
5
5
5
5
5
5
5
5
5
5
5
5
5
5
5
5
5
5
5
5
5
5
5
5
5
5
5
5
5
5
5
5
5
5
5
5
5
5
5
5
5
5
5
5
5
5
5
5
5
5
5
5
5
5
5
5
5
5
5
5
5
5
5
5
5
5
5
5
5
5
5
5
5
5
5
5
5
5
5
5
5
5
5
5
5
5
5
5
5
5
5
5
5
5
5
5
5
5
5
5
5
5
5
5
5
5
5
5
5
5
5
5
5
5
5
5
5
5
5
5
5
5
5
5
5
5
5
5
5
5
5
5
5
5
5
5
5
5
5
5
5
5
5
5
5
5
5
5
5
5
5
5
5
5
5
5
5
5
5
5
5
5
5
5
5
5
5
5
5
5
5
5
5
5
5
5
5
5
5
5
5
5
5
5
5
5
5
5
5
5
5
5
5
5
5
5
5
5
5
5
5
5
5
5
5
5
5
5
5
5
5
5
5
5
5
5
5
5
5
5
5
5
5
5
5
5
5
5
5
5
5
5
5
5
5
5
5
5
5
5
5
5
5
5
5
5
5
5
5
5
5
5
5
5
5
5
5
5
5
5
5
5
5
5
5
5
5
5
5
5
5
5
5
5
5
5
5
5
5
5
5
5
5

CELL_DATA 364
SCALARS cell_data_0 double
LOOKUP_TABLE default
9.66507666321e-06
5.85455441433e-06
2.51822229049e-05
1.23850720562e-05
3.22535888421e-06
1.63414541253e-05
1.62866518538e-05
2.18087137889e-05
3.13035324395e-06
2.76634121723e-07
7.39790623e-06
1.06329770655e-05
3.49142268703e-06
8.44450080631e-07
5.18684857864e-06
5.41427698322e-06
2.33809172179e-06
2.07910357746e-06
6.49384069427e-06
9.48707705511e-07
1.78176782383e-06
4.52558204208e-07
3.02863426208e-06
1.00241904573e-05
2.38348731687e-06
3.45318733681e-06
1.48241793568e-06
1.26567141416e-06
2.96688541947e-06
6.4927828346e-06
4.03543313686e-06
8.44837266494e-06
5.11306101814e-07
5.34105172063e-07
8.57745211502e-07
1.13729864972e-06
9.4038652e-07
4.29801976644e-06
9.23158184527e-06
2.32069097846e-08
3.95636381902e-07
1.61092582141e-07
9.94412513752e-07
9.22460440928e-06
3.71163179415e-08
3.38053313485e-07
2.34078023792e-07
1.19468696531e-07
4.43536374612e-07
1.60413488739e-05
7.92006685134e-06
1.40634819889e-05
2.10925664646e-05
2.07524495383e-05
2.9329514316e-05
2.37307184698e-07
6.94486285514e-06
1.8415790456e-05
1.06013733556e-05
1.96474504879e-05
2.22641270958e-07
7.10485349254e-07
3.3793034803e-07
1.77935960278e-06
1.22913069951e-05
1.33464838808e-05
8.83167364419e-06
7.99809747422e-06
4.04728346223e-06
2.54857674468e-05
1.27546848633e-07
3.15802797606e-06
3.7836927029e-06
3.25241491731e-06
2.45732598636e-05
1.04632770358e-08
5.51237312267e-06
4.11078772846e-06
1.74772866342e-06
1.76657206258e-05
1.79372284524e-05
5.86495550849e-06
2.39053046305e-05
4.54922916574e-06
7.97712043728e-06
1.23757371357e-06
4.18348952098e-06
1.19186214251e-05
1.00229517669e-05
2.09900556308e-06
6.09045850039e-06
1.39327666679e-05
6.23284284895e-06
4.62333061324e-06
6.66233300296e-06
7.9122200753e-06
3.24137038308e-06
7.25607234896e-06
2.19491050685e-05
1.13961099889e-05
2.62750783025e-06
3.09418949814e-06
3.25912248285e-07
2.02958973356e-05
2.15109193255e-05
1.38267933332e-05
1.5614659565e-05
1.1861988924e-05
1.47560756883e-05
7.59778214066e-08
1.35018738302e-06
2.58658854112e-06
4.16973899326e-06
4.67570816464e-06
1.19232788283e-05
7.8175094709e-06
6.38381370922e-07
1.48391826765e-06
7.98783543093e-07
4.45985207804e-07
5.27226241171e-08
3.04875128311e-07
9.61769105951e-08
8.39893722068e-07
1.15614507682e-06
1.63160592717e-05
2.59636611165e-06
5.90096256641e-06
9.87088407449e-06
1.36468146081e-05
5.14266912444e-06
1.69610492998e-06
2.29353074785e-06
6.45340870931e-07
2.91504789351e-06
8.395545274e-10
3.63966610886e-06
4.23889636481e-06
4.87301597868e-06
1.42704690271e-08
3.31245065625e-06
4.43222911875e-07
3.73267935381e-06
8.65032174006e-08
5.75971408025e-07
1.48779752837e-07
2.34744920371e-07
6.95180092042e-08
1.12659127547e-06
5.76062106498e-07
7.27997054022e-07
2.68159290452e-07
1.05287978362e-05
1.34690922823e-05
1.22372805994e-05
8.94894174189e-06
1.07821792429e-05
1.3747875014e-05
1.41495251623e-05
1.74595231198e-05
1.31504097798e-05
8.69809489984e-06
7.19352176978e-06
1.69919344953e-05
1.8901284748e-05
1.82101237837e-05
1.84635493017e-05
1.21217676413e-05
1.14129678334e-05
1.52975957185e-05
7.49949431809e-06
9.0379441606e-06
1.48157962197e-05
2.17823325997e-05
2.83770655108e-05
2.94806345127e-05
2.85210450272e-05
2.92039191094e-06
3.79439480643e-06
4.33153467941e-06
6.21732432683e-06
3.20300239787e-07
3.35420456704e-08
6.7416250529e-07
6.47348424897e-06
3.34872985727e-08
7.35940423839e-08
8.25786241207e-07
4.90885160552e-07
1.07057386855e-05
8.47393861581e-06
5.36186813204e-06
5.21116500659e-06
1.39409531738e-05
2.32012676463e-05
8.22496327867e-06
1.4244052347e-06
1.30107216709e-06
8.60850011224e-07
2.75165609282e-06
2.7546610628e-06
9.96022905084e-07
2.15780271472e-06
2.44224764163e-06
4.9062976353e-07
1.63230032726e-07
1.62931508933e-05
5.79882628378e-07
3.24522389447e-07
1.58366713485e-06
4.31091028267e-07
3.09095247208e-07
1.5740041986e-07
2.31608097897e-06
7.11483579176e-08
1.11479474775e-05
1.02865056592e-05
1.019963127e-05
1.92536835207e-06
2.35275455352e-06
4.77924945979e-07
6.99846334047e-07
1.05602508392e-06
7.36605790487e-07
5.19706405343e-09
8.28580739179e-06
8.80601244294e-08
9.2212847505e-06
4.4310747459e-08
1.13917109615e-05
4.09567348391e-08
8.58240346374e-09
9.12964049609e-06
1.72431518556e-05
4.66916125589e-07
1.134131218e-07
6.4882642292e-08
7.72946184692e-06
8.35774085773e-06
8.57645154612e-06
6.74113313772e-06
4.71156320454e-06
4.99631833851e-07
6.97119317525e-07
7.57972560092e-07
7.56293248558e-06
1.34805335758e-06
6.03585577973e-06
3.47918475933e-06
3.2245985425e-06
4.1246894081e-06
4.55847632826e-06
3.71134878093e-06
3.85183713458e-06
5.68476855759e-06
9.38852692648e-06
3.7741782455e-06
4.78576540721e-06
1.0537507764e-05
6.47549241778e-06
5.8115418888e-06
1.34062774556e-06
1.37805406951e-05
4.25504977612e-07
2.61317377059e-07
1.91622115386e-06
1.04101018429e-05
1.00756581485e-05
7.0554110505e-07
4.84104483199e-06
3.66564367133e-05
2.62432287486e-06
3.53317335772e-06
1.19796913943e-05
5.40939652531e-06
9.84601459019e-06
1.59645663697e-05
1.28479397645e-05
3.35094694676e-07
2.05307535787e-06
1.25496744566e-05
5.11790738052e-07
3.16399588048e-06
2.60955292864e-06
1.14437240566e-05
2.95439250231e-06
3.0577220245e-07
9.0663275034e-06
1.37481370464e-05
4.34102385518e-06
1.6301474205e-08
1.93379214349e-06
2.11297870832e-06
2.12450423731e-06
5.572292708e-08
1.92539660566e-06
1.78444089498e-06
1.5952459768e-06
6.09789288892e-08
2.37526398809e-06
1.49914132026e-06
4.06318145653e-06
2.62235308937e-06
1.51139027131e-06
5.90467628616e-08
2.53844735664e-06
4.82407230985e-06
1.39034963191e-05
8.27888308633e-06
4.71273179909e-06
5.09790255187e-08
5.57146449571e-08
1.54423611463e-06
1.63286175421e-07
9.63849142276e-06
1.71297077279e-06
3.14810007479e-08
4.19290566875e-08
2.00159849189e-06
2.67232665036e-06
4.34574699642e-06
5.31591815832e-08
2.78482159298e-06
2.2035737171e-07
1.44387736761e-05
4.54809995389e-06
7.76935133575e-07
1.36192187963e-08
7.43585797674e-06
5.41244577142e-06
1.07594427507e-06
8.64769403505e-06
9.27515689149e-06
1.92132634373e-09
1.15122992206e-06
1.32789693301e-06
5.11673122075e-07
3.43077682995e-07
1.13508209996e-06
6.95391669785e-07
9.04354670828e-07
8.78154977222e-08
4.50350347188e-07
5.80954623723e-07
7.98256784402e-06
8.61860022026e-06
6.81929282919e-06
7.18802766379e-07
1.1452260243e-05
1.09562025e-05
1.59211854354e-05
1.43178701769e-05
1.17031284145e-05
1.30848764145e-05
8.02739955316e-06
6.11052202946e-07
4.02357630162e-06
6.40909109325e-06
6.68223508267e-07
7.21833791262e-07
3.85139863556e-06
2.05605574036e-06
4.59117980906e-06
5.29827443575e-06

