# vtk DataFile Version 3.0
File Name: Molecule/sphere_excent/sphere_excent_0-s24.vtk
ASCII
DATASET UNSTRUCTURED_GRID
FIELD FieldData 1
TIME 1 1 double
0.0
POINTS 258 double
-0.043156012893 1.7282110453 1.0037552118
-1.0883332491 1.4717640877 0.80453532934
-0.59381198883 1.2037272453 1.4813555479
-1.6592209339 1.1085543633 0.13462536037
-1.6724075079 0.66183030605 0.8734318018
0.64709454775 -1.1853554249 1.4752453566
0.014996340498 -1.7167738676 1.0258251429
0.82149773836 -1.6723473072 0.72606819868
0.3859988749 -1.1990970373 -1.5509784222
-0.018790464848 -1.7236961126 -1.0137723684
-0.41215893626 -1.0923726559 -1.6232918501
1.5756576061 -0.40907433629 1.1601520777
1.5298750401 0.49287942052 1.190096736
1.1616770029 0.069923855364 1.6248128414
-0.69886440039 -1.7776193619 -0.59203773737
0.019431408495 -1.9997582436 0.023822942749
-1.037673831 -1.7062586546 0.074253097177
-0.79399973154 -1.6827399731 0.73349261284
-0.67478615046 -1.2951002121 1.3663045168
-1.951484561 0.3090492785 0.30480661988
0.7985252738 -1.6970025301 -0.69134318829
1.0942875147 -1.6730092764 0.03154578805
-0.025708626956 1.9949067831 0.030883125961
-0.56770932674 1.8803428411 0.37329399586
0.23397953808 1.9589884281 0.27556213737
-0.52686136961 1.8915156126 -0.37948557734
-1.1014580727 1.6690199375 0.04024835676
-1.2155294418 1.4691375494 -0.59585028887
-0.04580431059 1.7522370815 -0.95680510998
0.21470859647 1.9232757092 -0.50395351648
1.0139852762 1.7130365372 0.18754671514
0.55470311642 1.8648828268 0.44764250517
0.87365162373 1.5760807991 0.86210203171
1.0049786568 -0.078219331801 -1.7271535397
0.77120101452 -0.57506543398 -1.7529578209
0.5200740695 -0.082442335784 -1.9292067289
0.21612671018 -0.61382901669 -1.8907293081
-0.010760625824 0.020905843005 -1.9998338223
0.92898267508 0.94719147682 -1.4961153269
1.1908363104 0.95316505432 -1.2925289869
1.0934909582 0.70563668013 -1.5184556246
1.3623934984 -0.40510374308 -1.4070304632
1.5174251795 -0.15408264101 -1.2932679653
1.5197322369 -0.53117322922 -1.1863235235
-0.43884474039 0.63603371382 1.8442815542
-0.82997846603 0.4574123919 1.7604390383
-0.38107261062 0.20995214581 1.9510354996
-1.2201653719 -0.14589102566 1.5767897367
-0.98363482952 -0.66533732414 1.608844161
-0.74060189724 -0.036871094257 1.8563594818
-0.42420747876 -0.51995152235 1.8836358786
-1.36975348 0.40999618173 -1.3982583284
-1.1335910559 0.022247461602 -1.6467322111
-1.6272951365 0.068080574274 -1.1579325199
-1.3795399666 -0.31431293488 -1.4134038687
-1.4888875484 0.87149828672 -1.0102733374
-1.7223410606 0.50072199106 -0.88180828094
-1.0110570192 1.1060745716 -1.3220411539
-0.86207467318 0.65179973841 -1.68189013
-1.2677441835 -1.1485035419 1.0360482931
-1.5872946978 -0.50302690268 1.1077497005
-0.35670930147 -0.46412906051 -1.9121062756
-0.47875779867 0.036271054298 -1.9414883852
-0.90575987101 -0.6337916255 -1.6659845114
-0.28222888708 0.54866224527 -1.9022910595
0.31073471904 0.45746830106 -1.9215631485
-0.50339096785 0.99877887964 -1.6576886177
0.14384315908 0.98772668839 -1.7299993038
-1.304743886 -0.82105463743 -1.2735357285
1.8595561981 0.35504618287 0.64385479689
1.7052180767 0.79886347055 0.67234838009
1.3654005527 1.0879451036 0.97082716227
0.89477074146 1.0481815338 1.4458096027
-0.58760148287 1.6616792679 -0.94200384617
1.9536805153 0.22343561053 -0.35932779312
1.9638295174 0.35470601916 0.11710334569
1.9899895191 -0.17675195634 0.080746859312
-0.00094772875309 0.88868308067 1.7913813591
-0.020867848769 0.38835152984 1.9616702795
0.42342174053 0.47429305315 1.8956983089
0.27007526159 -0.013962490484 1.9814329147
-1.648951292 -1.1109502316 0.21461130679
-1.3688919544 -1.3811144829 0.46661707759
-1.6411488056 -0.96015906334 0.61988979578
1.6568933725 -0.70131629705 -0.87189763784
1.6781936884 -0.97800725698 -0.47655549645
1.4238089323 -1.1561697721 -0.79513323307
1.3502391577 -1.4153758287 -0.41565608978
1.7935221195 -0.8797442317 -0.074031673372
1.8942717314 -0.48616632819 -0.40991854668
-1.5322442055 -1.284252882 0.026926616207
1.2940694094 -1.1170278788 1.0365941525
1.0349240303 -0.58839815855 1.6070373058
1.6945769787 -0.846352458 0.63869988918
1.4273349047 -1.3285945654 0.44448724389
-1.6917557716 -0.94110053778 -0.49968293309
-1.697992444 -1.0462179184 -0.14829175174
-1.836523056 -0.75537198782 -0.23717974126
-1.8127334118 -0.82828831673 0.16730503738
-1.9258836508 -0.53469884396 0.070506840944
1.552809 -1.2596244812 -0.04593141377
1.7588040829 -0.91222453117 0.27055123448
-1.852853179 -0.54449748993 0.51947522163
-0.037373624742 -1.249258399 1.561270237
0.48630252481 -0.53371047974 1.8650693893
0.69547754526 -0.094167985022 1.8727263212
-0.43066093326 -0.93782508373 1.7131310701
0.0031730316114 -0.36903661489 1.9655613899
0.069607712328 -0.82483309507 1.8206489086
-1.6681973934 0.97469377518 -0.51627212763
-1.8643360138 -0.070162266493 0.71854329109
-1.5479031801 0.16071280837 1.2558330297
0.74797129631 1.7755982876 -0.53576982021
0.6061976552 1.8982979059 -0.15058876574
1.0654811859 1.6719492674 -0.26198902726
0.48696413636 1.736219883 -0.86393004656
0.87248730659 1.5349861383 -0.93895989656
1.2827666998 1.2660746574 -0.86505687237
1.0987534523 1.5530608892 -0.61652493477
0.42496174574 1.4827409983 -1.2699166536
0.85056167841 1.2712140083 -1.2866895199
-1.9690562487 -0.21784296632 0.27328813076
-1.9219901562 -0.49540781975 -0.24600891769
-1.8591924906 -0.51348382235 -0.52865099907
-1.8495566845 0.69561827183 -0.30696851015
-1.9988449812 -0.056858494878 -0.00050804577768
-1.9747174978 -0.30387485027 -0.088264927268
-1.9809037447 -0.11186978221 -0.25154292583
-1.9375959635 -0.31965062022 -0.37842816114
-1.959031105 0.044097382575 -0.39947283268
-1.9853377342 0.15357396007 -0.18352907896
-0.71091687679 -1.4857161045 -1.1344842911
-1.0590319633 -1.4792735577 -0.83110910654
-0.94155436754 -1.094812274 -1.3829101324
-1.1693896055 -1.2012087107 -1.0904196501
-1.4658377171 -0.96699404716 -0.95684087276
-1.526204586 -1.0961304903 -0.68508118391
-1.6473758221 -0.82744216919 -0.77486270666
-1.3347728252 -1.2308692932 -0.83862316608
-1.3480496407 -1.3525005579 -0.59440338612
-1.5550632477 -1.187323451 -0.41462633014
-1.3951538801 -1.3896061182 -0.34979137778
-1.1204315424 -1.5652614832 -0.54138708115
-1.4673353434 -1.3466176987 -0.18011415005
-1.1792560816 0.99118185043 1.2751498222
1.38024652 1.3769391775 -0.44477018714
1.3666731119 1.4595742226 -0.040316984057
1.6702412367 1.0622832775 -0.28501492739
1.5244344473 1.0556352139 -0.74705904722
-1.1242246628 0.23888175189 1.636503458
-1.2843691111 0.56800216436 1.4237822294
-0.87944251299 0.82153773308 1.5975044966
-1.5920598507 -0.64245826006 -1.0251574516
1.3528538942 1.4059077501 0.43279629946
-1.9496531487 0.43325120211 -0.090160213411
-1.935963273 0.32429087162 -0.38330322504
-1.8465771675 0.53496813774 -0.55063462257
-1.8624171019 0.28593370318 -0.66999775171
0.83087855577 0.7361189127 -1.6633505821
0.75421237946 0.505679667 -1.7816035748
1.0009602308 0.50928121805 -1.6548383236
0.9269220829 0.28612712026 -1.7489974499
1.1177378893 0.30196961761 -1.6306401491
1.2439112663 0.47380468249 -1.4926937819
1.282962203 0.1738293618 -1.5242298841
1.4016654491 0.33368387818 -1.3870863914
1.2916231155 0.69465905428 -1.3598591089
1.4401550293 0.53294485807 -1.2813699245
1.413169384 0.7965644598 -1.1695935726
1.5491136312 0.32340756059 -1.2228748798
1.6060929298 0.49285104871 -1.0845248699
1.720979929 0.25174403191 -0.98584902287
1.6099455357 0.089111104608 -1.182757616
1.4549211264 0.11604439467 -1.3670186996
1.7287840843 -0.18609017134 -0.98741954565
1.3060979843 -0.11168561876 -1.5103368759
0.69125819206 0.2232517153 -1.8633217812
1.1224910021 -0.46183666587 -1.5892733335
0.60875815153 1.0581860542 -1.5835148096
0.54296660423 0.75500929356 -1.7703410387
1.8600705862 0.65975111723 0.32270783186
1.8648953438 0.71323078871 -0.11070574075
1.7486686707 0.95240914822 0.18599653244
1.5737760067 1.2247658968 0.1525849998
1.5827845335 1.1168948412 0.49680253863
1.6890938282 0.77838039398 -0.73429167271
1.846372962 0.56492245197 -0.51822441816
-0.077393315732 0.0076849469915 1.9984335899
-0.33103376627 -0.15331533551 1.9662456512
0.45013958216 1.4167761803 1.3373782635
0.41086620092 1.0358192921 1.6610355377
0.02091826871 1.3304948807 1.4930676222
1.8732484579 0.0095488307998 -0.70014190674
1.7414267063 0.50427097082 -0.84428286552
1.8412306309 0.3006323278 -0.71952319145
-1.6535124779 -0.29729771614 -1.0848116875
-0.70974296331 -0.25486239791 -1.8523361683
-0.8366470933 0.025839123875 -1.8163753748
-0.99563676119 -0.25014173985 -1.7159928083
-0.70027172565 0.31283476949 -1.8469014168
-0.98547452688 0.2924399972 -1.7152352333
-1.8428781033 -0.18716174364 -0.75410878658
-1.7716861963 -0.3878223002 -0.84306174517
-1.886983037 -0.29045549035 -0.59573972225
-1.7651087046 -0.11400017142 -0.93338894844
-1.7912570238 0.13805826008 -0.87792575359
-1.858527422 0.010918598622 -0.73850846291
-1.9054076672 -0.081086277962 -0.60222506523
-1.9433903694 -0.14911873639 -0.44823619723
-1.9140863419 0.11429397762 -0.5682014823
1.2657077312 -0.70564651489 -1.3783018589
1.0252770185 -0.78465002775 -1.5274894238
1.1163406372 -1.0182038546 -1.3102397919
1.4030430317 -0.86533093452 -1.1322823763
0.81224584579 -1.1467138529 -1.4231584072
1.9509176016 0.019181162119 0.43893328309
1.8904784918 -0.54572254419 0.3553340435
1.8003923893 -0.027108775452 0.86936789751
1.8564240932 -0.3416749835 0.65758776665
-1.7436103821 -0.61612272263 -0.76179480553
-1.7737464905 -0.72915005684 -0.56722921133
1.0354366302 0.56500804424 1.6138949394
0.63601285219 -1.4924324751 -1.1692510843
1.9182035923 -0.56333321333 0.044889725745
0.9800748229 -1.3673734665 -1.0811938047
1.5517958403 0.8277618885 -0.95176100731
1.4109452963 0.99550080299 -1.008803606
0.69972211123 0.73609495163 1.7228280306
0.81680905819 0.32091426849 1.7971789837
1.152685523 -1.4255821705 -0.79925346375
1.2421352863 -1.1542972326 -1.0604784489
-1.3337051868 -1.489481926 0.048334233463
-1.2756774426 -1.5325890779 -0.15564619005
-1.2595375776 -1.5049067736 -0.38583323359
-1.1254341602 -1.6321183443 -0.25907000899
1.5328321457 0.66145634651 -1.1013429165
1.6355649233 0.65796345472 -0.94440692663
1.84767735 -0.30120456219 -0.70343577862
1.9489430189 -0.1221524477 -0.43050384521
-0.4511962235 1.5391453505 -1.1949197054
-0.25340121984 1.4058303833 -1.3990966082
-0.63168245554 1.3106774092 -1.3721232414
-0.81563037634 1.4287290573 -1.1374242306
-0.90760809183 1.57655406 -0.83097493649
-1.1138771772 1.3277757168 -0.9979929924
0.56475889683 1.9130911827 0.14515262842
0.302885741 1.976360321 -0.039901852608
1.0427796841 1.1263114214 -1.2820369005
1.2368422747 1.1222352982 -1.1002254486
1.0830278397 1.2752779722 -1.0949982405
1.1463946104 1.4993188381 0.66218483448
1.3570622206 1.2825119495 0.7166415453
1.1453649998 1.3517781496 0.92706650496
-0.04378709197 1.2342128754 -1.5731596947
0.27266964316 1.269231081 -1.5214236975
0.079352967441 1.4637057781 -1.3604735136
0.18114288151 1.6317312717 -1.1421846151
-0.12530943751 1.5885388851 -1.2088348866

CELLS 512 2048
3 0 1 2
3 1 3 4
3 5 6 7
3 8 9 10
3 11 12 13
3 14 15 16
3 14 9 15
3 17 15 6
3 17 6 18
3 4 3 19
3 9 20 15
3 7 15 21
3 15 7 6
3 22 23 24
3 0 23 1
3 22 25 23
3 25 26 23
3 25 27 26
3 23 26 1
3 28 25 29
3 1 26 3
3 26 27 3
3 30 31 32
3 32 31 0
3 33 34 35
3 34 36 35
3 34 8 36
3 35 36 37
3 10 36 8
3 38 39 40
3 41 42 43
3 44 45 46
3 47 48 49
3 48 50 49
3 51 52 53
3 54 53 52
3 55 51 56
3 51 57 58
3 18 48 59
3 60 48 47
3 37 61 62
3 61 10 63
3 37 64 65
3 64 66 67
3 37 62 64
3 64 58 66
3 10 61 36
3 36 61 37
3 66 58 57
3 54 63 68
3 69 70 12
3 70 71 12
3 12 71 72
3 55 57 51
3 28 73 25
3 74 75 76
3 44 77 2
3 44 78 77
3 78 79 77
3 78 80 79
3 81 82 83
3 82 59 83
3 82 17 59
3 83 59 60
3 60 59 48
3 18 59 17
3 84 85 86
3 85 87 86
3 88 85 89
3 89 85 84
3 81 90 82
3 82 16 17
3 17 16 15
3 7 91 5
3 5 91 92
3 11 91 93
3 91 94 93
3 91 7 94
3 95 96 97
3 96 98 97
3 96 81 98
3 97 98 99
3 87 21 20
3 20 21 15
3 87 100 21
3 100 94 21
3 94 100 101
3 21 94 7
3 88 100 85
3 85 100 87
3 99 98 102
3 83 98 81
3 81 96 90
3 5 103 6
3 6 103 18
3 80 104 105
3 104 92 105
3 104 5 92
3 105 92 13
3 13 92 11
3 11 92 91
3 18 106 48
3 48 106 50
3 80 107 104
3 107 108 104
3 107 50 108
3 104 108 5
3 5 108 103
3 108 106 103
3 108 50 106
3 103 106 18
3 80 105 79
3 55 109 27
3 27 109 3
3 19 110 4
3 4 110 111
3 112 113 114
3 22 29 25
3 28 29 115
3 29 112 115
3 29 113 112
3 115 112 116
3 117 116 118
3 118 116 112
3 116 119 115
3 116 120 119
3 19 121 110
3 121 102 110
3 121 99 102
3 110 102 60
3 60 102 83
3 83 102 98
3 99 122 97
3 97 122 123
3 53 56 51
3 55 56 109
3 109 124 3
3 19 125 121
3 125 126 121
3 125 127 126
3 121 126 99
3 99 126 122
3 126 128 122
3 126 127 128
3 122 128 123
3 129 127 130
3 14 131 9
3 9 131 10
3 14 132 131
3 133 131 134
3 131 133 10
3 10 133 63
3 135 136 137
3 138 139 136
3 139 140 136
3 139 141 140
3 136 140 95
3 138 132 139
3 132 142 139
3 132 14 142
3 95 140 96
3 90 96 143
3 4 144 1
3 1 144 2
3 47 111 60
3 60 111 110
3 118 114 145
3 114 146 145
3 114 30 146
3 145 146 147
3 118 145 117
3 117 145 148
3 47 149 111
3 149 150 111
3 149 45 150
3 111 150 4
3 4 150 144
3 150 151 144
3 150 45 151
3 144 151 2
3 2 151 44
3 151 45 44
3 45 149 49
3 149 47 49
3 133 68 63
3 54 68 152
3 153 146 30
3 124 154 3
3 3 154 19
3 19 154 130
3 154 155 130
3 154 124 155
3 130 155 129
3 30 114 113
3 112 114 118
3 56 156 109
3 156 124 109
3 56 157 156
3 157 155 156
3 156 155 124
3 19 130 125
3 125 130 127
3 138 134 132
3 132 134 131
3 133 134 68
3 134 135 68
3 134 138 135
3 68 135 152
3 136 135 138
3 38 40 158
3 159 160 161
3 160 162 161
3 162 160 163
3 161 162 33
3 33 162 164
3 162 163 164
3 40 163 160
3 164 163 165
3 40 166 163
3 166 167 163
3 166 168 167
3 163 167 165
3 168 166 39
3 39 166 40
3 165 167 169
3 167 170 169
3 169 170 171
3 171 172 169
3 172 173 169
3 172 42 173
3 169 173 165
3 42 172 174
3 174 172 171
3 165 173 164
3 173 175 164
3 173 42 175
3 164 175 33
3 161 33 176
3 33 175 177
3 175 42 41
3 67 65 64
3 37 65 35
3 38 178 120
3 120 178 119
3 67 178 179
3 178 158 179
3 178 38 158
3 179 158 159
3 67 179 65
3 176 65 159
3 179 159 65
3 65 176 35
3 75 180 69
3 180 70 69
3 75 181 180
3 181 182 180
3 181 147 182
3 180 182 70
3 147 183 182
3 183 184 182
3 183 153 184
3 182 184 70
3 70 184 71
3 185 147 186
3 181 75 74
3 78 187 80
3 80 187 107
3 49 46 45
3 46 78 44
3 107 188 50
3 50 188 49
3 49 188 46
3 188 187 46
3 188 107 187
3 46 187 78
3 153 183 146
3 146 183 147
3 159 158 160
3 160 158 40
3 35 176 33
3 161 176 159
3 72 189 190
3 189 191 190
3 189 0 191
3 190 191 77
3 0 189 32
3 32 189 72
3 74 186 181
3 181 186 147
3 174 171 192
3 171 193 194
3 193 186 194
3 193 185 186
3 194 186 74
3 152 195 54
3 54 195 53
3 63 196 61
3 61 196 62
3 62 196 197
3 196 198 197
3 196 63 198
3 197 198 52
3 62 199 64
3 199 58 64
3 62 197 199
3 197 200 199
3 197 52 200
3 199 200 58
3 58 200 51
3 51 200 52
3 52 198 54
3 198 63 54
3 77 191 2
3 2 191 0
3 79 190 77
3 201 202 203
3 152 202 195
3 202 204 195
3 202 201 204
3 195 204 53
3 53 204 205
3 204 206 205
3 204 201 206
3 205 206 157
3 129 207 208
3 207 203 208
3 207 201 203
3 208 203 128
3 128 203 123
3 123 203 202
3 129 208 127
3 208 128 127
3 129 209 207
3 209 206 207
3 209 157 206
3 207 206 201
3 53 205 56
3 56 205 157
3 157 209 155
3 209 129 155
3 170 193 171
3 41 177 175
3 33 177 34
3 41 210 177
3 210 211 177
3 210 212 211
3 177 211 34
3 41 43 210
3 43 213 210
3 43 84 213
3 210 213 212
3 8 34 214
3 84 43 174
3 174 43 42
3 76 215 216
3 215 217 218
3 215 69 217
3 218 217 11
3 11 217 12
3 12 217 69
3 69 215 75
3 75 215 76
3 152 137 219
3 137 220 219
3 137 95 220
3 219 220 123
3 86 213 84
3 93 218 11
3 123 220 97
3 97 220 95
3 95 137 136
3 135 137 152
3 152 219 202
3 202 219 123
3 72 221 12
3 12 221 13
3 8 222 9
3 222 20 9
3 185 148 147
3 147 148 145
3 76 223 89
3 89 223 88
3 8 214 222
3 214 224 222
3 214 212 224
3 222 224 20
3 185 225 148
3 225 226 148
3 225 168 226
3 148 226 117
3 39 226 168
3 72 227 221
3 227 228 221
3 227 79 228
3 221 228 13
3 20 229 87
3 87 229 86
3 212 230 224
3 230 229 224
3 230 86 229
3 224 229 20
3 90 231 82
3 231 16 82
3 90 143 231
3 143 232 231
3 143 141 232
3 231 232 16
3 88 101 100
3 94 101 93
3 76 216 223
3 216 101 223
3 216 93 101
3 223 101 88
3 141 143 140
3 140 143 96
3 13 228 105
3 105 228 79
3 142 233 139
3 139 233 141
3 141 233 232
3 233 234 232
3 233 142 234
3 232 234 16
3 16 234 14
3 234 142 14
3 168 235 167
3 167 235 170
3 185 236 225
3 236 235 225
3 236 170 235
3 225 235 168
3 79 227 190
3 190 227 72
3 170 236 193
3 193 236 185
3 212 214 211
3 211 214 34
3 86 230 213
3 213 230 212
3 93 216 218
3 218 216 215
3 174 237 84
3 84 237 89
3 174 192 237
3 192 238 237
3 192 74 238
3 237 238 89
3 89 238 76
3 238 74 76
3 28 239 73
3 240 241 239
3 241 242 239
3 241 57 242
3 239 242 73
3 57 241 66
3 66 241 240
3 73 242 243
3 242 244 243
3 242 57 244
3 243 244 27
3 27 244 55
3 244 57 55
3 73 243 25
3 25 243 27
3 74 192 194
3 194 192 171
3 113 245 30
3 245 31 30
3 113 246 245
3 246 24 245
3 246 22 24
3 245 24 31
3 31 24 0
3 0 24 23
3 39 247 248
3 247 249 248
3 247 120 249
3 248 249 117
3 120 247 38
3 38 247 39
3 153 250 251
3 250 252 251
3 250 32 252
3 251 252 71
3 71 252 72
3 72 252 32
3 240 253 66
3 66 253 67
3 67 253 254
3 253 255 254
3 253 240 255
3 254 255 119
3 32 250 30
3 250 153 30
3 22 246 29
3 29 246 113
3 117 249 116
3 116 249 120
3 119 256 115
3 115 256 28
3 28 256 257
3 256 255 257
3 256 119 255
3 257 255 240
3 67 254 178
3 254 119 178
3 153 251 184
3 184 251 71
3 39 248 226
3 226 248 117
3 28 257 239
3 239 257 240

CELL_TYPES 512
5
5
5
5
5
5
5
5
5
5
5
5
5
5
5
5
5
5
5
5
5
5
5
5
5
5
5
5
5
5
5
5
5
5
5
5
5
5
5
5
5
5
5
5
5
5
5
5
5
5
5
5
5
5
5
5
5
5
5
5
5
5
5
5
5
5
5
5
5
5
5
5
5
5
5
5
5
5
5
5
5
5
5
5
5
5
5
5
5
5
5
5
5
5
5
5
5
5
5
5
5
5
5
5
5
5
5
5
5
5
5
5
5
5
5
5
5
5
5
5
5
5
5
5
5
5
5
5
5
5
5
5
5
5
5
5
5
5
5
5
5
5
5
5
5
5
5
5
5
5
5
5
5
5
5
5
5
5
5
5
5
5
5
5
5
5
5
5
5
5
5
5
5
5
5
5
5
5
5
5
5
5
5
5
5
5
5
5
5
5
5
5
5
5
5
5
5
5
5
5
5
5
5
5
5
5
5
5
5
5
5
5
5
5
5
5
5
5
5
5
5
5
5
5
5
5
5
5
5
5
5
5
5
5
5
5
5
5
5
5
5
5
5
5
5
5
5
5
5
5
5
5
5
5
5
5
5
5
5
5
5
5
5
5
5
5
5
5
5
5
5
5
5
5
5
5
5
5
5
5
5
5
5
5
5
5
5
5
5
5
5
5
5
5
5
5
5
5
5
5
5
5
5
5
5
5
5
5
5
5
5
5
5
5
5
5
5
5
5
5
5
5
5
5
5
5
5
5
5
5
5
5
5
5
5
5
5
5
5
5
5
5
5
5
5
5
5
5
5
5
5
5
5
5
5
5
5
5
5
5
5
5
5
5
5
5
5
5
5
5
5
5
5
5
5
5
5
5
5
5
5
5
5
5
5
5
5
5
5
5
5
5
5
5
5
5
5
5
5
5
5
5
5
5
5
5
5
5
5
5
5
5
5
5
5
5
5
5
5
5
5
5
5
5
5
5
5
5
5
5
5
5
5
5
5
5
5
5
5
5
5
5
5
5
5
5
5
5
5
5
5
5
5
5
5
5
5
5
5
5
5
5
5
5
5
5
5
5
5
5
5
5
5
5
5
5
5
5
5
5
5
5
5
5
5
5
5
5
5
5
5
5
5
5
5
5
5
5
5
5
5
5
5
5
5
5
5
5
5
5
5
5

CELL_DATA 512
SCALARS cell_data_0 double
LOOKUP_TABLE default
1.37998335151e-05
7.28037162814e-06
1.23972339351e-05
5.88245882225e-06
1.37878392976e-05
2.64660710777e-06
1.83756627537e-06
7.83500884402e-06
9.95070830099e-06
4.82844410674e-06
1.86695233114e-06
5.94816517054e-06
7.32430136391e-06
1.45044413974e-06
6.46910377812e-06
2.63421572324e-06
2.05050006141e-05
2.74293088234e-05
2.05814817725e-05
9.79139185041e-06
2.82376346339e-05
2.8321180858e-05
2.77914078199e-05
9.07171903378e-06
2.1168687802e-06
3.59590054087e-07
6.14701124277e-07
1.62353936639e-06
3.45257976187e-06
1.03145180285e-05
5.08594811937e-08
6.23266968708e-06
1.51307129308e-05
1.54382579196e-05
1.26340209514e-05
6.81046800704e-06
6.17204373535e-06
7.255593107e-05
1.1214397952e-05
1.12537414653e-05
2.49088286401e-06
4.17447352519e-06
2.41033241453e-05
2.4377621679e-05
2.27014448613e-05
6.83855690843e-05
3.10393415657e-06
2.24791054013e-06
3.35421884088e-05
1.80326562591e-05
2.52186389102e-05
3.7521691221e-06
8.85175600959e-06
9.65882381778e-06
7.73880602402e-06
7.0497536367e-06
1.10212916426e-05
8.12311769431e-06
2.11956155406e-05
2.20201810834e-05
1.46111672283e-06
2.88321233037e-06
4.58658529607e-06
4.90960240677e-06
1.07018756324e-05
7.20109392348e-06
3.79860233244e-06
7.68691427581e-07
1.99212111143e-06
3.12176169091e-06
6.82434442051e-07
2.63001768042e-06
5.17222313979e-06
6.70312960942e-06
1.28828589408e-05
2.57909246367e-05
7.41453135332e-05
3.46125100411e-05
2.18426603896e-05
4.35382005077e-05
2.31285482189e-05
2.61051479538e-05
6.28186874095e-07
3.97636111403e-06
7.80684765977e-07
2.11539089093e-05
1.58565486908e-05
1.93396136922e-05
3.53636529167e-06
1.49550762543e-06
1.48058031849e-05
5.4396835959e-06
8.51609577841e-06
1.1447338722e-05
1.03008734042e-05
9.26564869664e-06
9.8735396936e-06
1.26038366062e-05
1.36838879727e-05
1.33702955209e-05
1.04576164376e-05
9.96431156166e-06
1.0706065808e-05
9.38875494716e-06
7.35612367393e-06
9.22485138381e-06
1.16522274463e-05
1.32986344176e-05
9.6822713375e-06
8.59033261337e-06
9.53508002451e-06
2.25566671679e-05
5.02585005235e-07
1.26836723512e-06
3.91423769583e-06
4.18077646808e-06
1.75280196569e-05
5.42812301847e-06
7.81677431869e-06
4.06153201479e-07
2.22254659229e-05
3.63533243633e-07
7.08065015464e-06
4.1235674685e-07
6.51758361862e-07
1.95729844749e-05
1.86079277485e-06
1.45686192513e-06
2.96626668168e-06
3.37590775157e-06
3.14535894703e-06
8.1459698724e-06
7.57938443336e-06
4.39635266298e-06
6.43182911324e-06
2.71417462226e-07
2.46560501556e-07
9.50185867217e-07
4.25588943084e-07
2.71199470378e-07
2.04988153195e-06
1.47680163345e-06
2.12761479786e-07
2.4032139904e-07
2.55952208897e-07
4.10095877981e-08
2.18246062262e-07
4.04824792889e-06
3.79715184262e-07
1.29921071654e-07
1.52226042758e-06
2.62084320611e-06
1.4909035656e-07
2.36334583225e-07
3.63998004459e-08
2.31750237076e-07
3.97144231297e-08
2.984609796e-07
5.4816633168e-08
2.996512328e-07
1.03127628638e-05
1.66818206947e-05
7.05856545781e-06
8.41944650935e-06
5.84480826403e-06
5.49485399189e-06
2.21580152554e-07
1.56374726871e-07
7.48839205305e-06
4.33915611096e-07
6.36801286001e-06
7.87272302985e-06
5.66070565491e-06
4.04065977083e-06
6.50652689863e-06
7.84047258178e-07
3.30854664636e-06
2.64193572955e-06
7.10842208926e-06
6.49606632993e-06
1.11904656193e-05
8.03282225607e-06
4.66578390866e-06
9.25025609227e-06
9.71848330082e-06
1.03110971707e-05
9.6102859559e-06
7.39350865497e-07
2.05261954336e-06
4.73352623083e-07
2.39292257979e-08
1.70583637013e-08
1.04834484825e-07
4.26203403126e-05
1.35446264368e-07
1.00998445454e-07
1.58639042007e-07
2.77628792399e-08
2.67624255222e-08
1.33666136016e-07
5.89760137838e-07
1.60540436064e-07
3.54178358544e-07
3.36671898082e-08
5.36869273665e-06
4.28157338485e-06
2.11149299729e-07
3.39776743643e-06
1.42713895912e-07
9.29125069166e-07
5.62202956265e-08
4.26157079898e-08
5.65350446105e-08
5.07842654467e-07
5.42953482093e-07
5.58100091158e-08
7.52513716673e-08
6.05345533405e-08
7.14480437739e-08
6.20505183966e-08
4.88533225377e-07
5.81486475595e-08
7.20513113092e-06
5.5177777732e-06
5.53759815573e-08
6.36129987077e-08
1.0984179242e-07
1.02669049906e-07
4.71081125386e-08
7.02937046198e-08
4.9575312719e-08
1.64707297125e-07
2.02412427763e-07
4.59616259107e-08
2.76082023976e-08
6.50640691376e-08
7.05942080407e-07
6.7271256052e-07
1.09168153937e-06
6.59497416753e-08
2.56854538939e-05
1.3481273039e-06
1.67044949197e-05
1.8962781503e-05
4.83345647803e-07
4.36973879557e-08
1.35580832637e-06
2.25465312834e-09
7.04803877647e-07
1.17429513637e-08
1.98256464314e-08
1.74722530258e-07
1.44464257078e-05
1.34469731673e-05
7.92573101234e-07
7.86711980768e-07
8.82297532816e-07
9.81735312695e-07
8.42765704814e-07
6.82012125473e-07
4.96365690406e-07
8.36904328353e-07
1.66573034906e-06
1.96820061992e-05
7.66884104266e-07
6.55281695301e-06
6.02580358598e-06
7.2409204872e-06
6.78724461845e-06
7.19906799637e-06
7.856639e-06
6.38677611999e-06
5.03908040114e-06
4.89156995322e-06
6.09224301772e-06
5.17503008059e-07
8.66413069385e-07
2.44394838837e-08
3.98801040935e-08
1.30257140333e-06
3.65523496594e-08
6.60925693659e-06
5.39237840878e-06
5.94420317155e-06
6.08592368888e-06
5.55342261396e-06
7.09691134744e-06
1.69543639734e-05
1.83195646855e-05
3.05680101754e-07
1.01476862543e-05
3.29509229821e-05
1.61408195761e-05
3.59432102961e-05
8.77386914346e-06
9.72218708236e-06
7.4093678454e-06
6.17977716688e-06
4.0150229622e-06
2.72109858454e-06
4.38279933695e-06
1.4047861055e-06
1.43887371196e-05
5.33372163614e-05
6.03764898365e-07
1.82404311792e-07
1.32159753921e-06
1.44325985206e-05
3.76344326411e-05
7.94799830211e-06
4.23898476531e-06
3.08581986575e-06
9.74869328942e-06
9.51776309557e-06
1.76541559641e-05
1.08100715191e-07
3.0026111366e-06
2.10662779639e-06
1.24286131436e-07
2.92807750517e-06
1.48744718783e-07
1.28090235686e-07
1.0860366202e-07
1.0643974331e-07
9.00268313196e-08
8.61883076348e-08
9.01476834046e-08
8.71869609258e-08
3.01056148876e-07
3.86561114758e-07
1.05577384548e-07
1.18767191962e-07
8.48022725535e-08
8.50310106979e-08
6.53407862598e-08
8.99398485403e-08
1.69709165961e-07
1.00293626284e-07
1.45550368144e-08
3.22414768751e-08
9.67968614662e-07
2.14858187682e-08
1.31342905328e-06
3.0632697746e-08
1.0304955814e-07
1.49785882441e-08
1.17941584971e-07
4.07312269361e-08
1.36330086455e-07
2.11198144399e-06
2.00540412026e-08
3.63467115147e-07
2.23593092055e-06
1.78418759364e-07
4.09737507123e-06
1.41710013382e-06
1.06136716777e-05
2.31111826973e-06
6.06084861554e-06
1.82178383688e-05
1.68273870889e-05
4.64074470307e-06
1.48389822266e-07
1.24130299632e-07
8.22923913607e-08
2.89862398e-07
3.13600553511e-06
7.04589529298e-06
4.40778216247e-06
3.04937598221e-06
2.33664535452e-08
2.06829838863e-07
1.78946565757e-07
3.74386522583e-07
9.47555480956e-06
9.85170634386e-06
3.13855492818e-06
1.78078925399e-06
5.69394038089e-07
8.76893074013e-07
6.05257470222e-06
1.88329608926e-06
1.09595783518e-06
6.86993006e-07
1.0512228097e-08
4.63258502358e-07
3.77247457023e-06
3.02676212651e-06
2.90964336454e-06
4.47519896227e-06
8.25879769801e-06
5.49791518872e-06
4.59417946888e-06
1.1117600313e-05
6.41465339685e-06
1.37909923365e-07
3.04357159979e-07
5.14734745888e-08
4.071402603e-08
3.57304230571e-08
1.81041362554e-07
3.94592296895e-06
5.3862884169e-06
7.62044493717e-06
6.40278756178e-06
2.72456094834e-06
2.93506827634e-06
1.6469167547e-06
3.19820981831e-05
4.24974362891e-06
3.06863834662e-07
6.94879573555e-06
1.13099511919e-06
3.0757810474e-06
2.04589202751e-05
8.2150532205e-06
1.61002463921e-05
1.44971437877e-08
1.79628772442e-07
8.30307341348e-08
7.49439359898e-08
3.31854711851e-08
3.58649372599e-08
2.04603904043e-07
3.33845536971e-07
5.09788310567e-07
5.90181403751e-09
1.51038165713e-06
1.23190610609e-06
6.37375481403e-09
2.55815199629e-06
1.08041904715e-05
5.43978325643e-06
7.01403301264e-07
8.57907951016e-07
4.24401500335e-08
1.4006972837e-07
1.74480574725e-07
2.29784040719e-08
6.8229546169e-06
1.19031350313e-06
1.71246745204e-06
1.66191672927e-06
1.64507371657e-07
1.10567217451e-07
2.05808593659e-07
2.40676557583e-07
5.11185547932e-06
5.01396115494e-06
4.19375983403e-06
2.83256762074e-08
1.10926785658e-07
6.77956477922e-09
9.65980350169e-08
9.58243923725e-09
9.7761762918e-09
1.32144466173e-07
1.32557013362e-07
1.84365740141e-08
1.20954199439e-07
4.12488736237e-07
8.17876365058e-08
4.32833857046e-07
6.83024032619e-07
1.06234997128e-05
8.6519159631e-06
2.62184422353e-05
1.16468270697e-05
7.89504791942e-06
3.43347097198e-07
1.4606518215e-06
1.55718382042e-06
5.56636088597e-06
4.08719282852e-06
4.28871379913e-06
4.43613265059e-08
4.91184295028e-06
2.06271105796e-06
9.07942723578e-06
7.80422860243e-06
4.53788845979e-08
7.83525400649e-08
1.10103212714e-07
6.97968546435e-07
3.31671391074e-06
2.77349942154e-06
7.84254485761e-09
3.49457624991e-07
2.37349324824e-07
7.73158446858e-08
2.7235759063e-08
2.77761602036e-08
8.0166599957e-06
7.7279593068e-06
3.03079084414e-06
1.63598541404e-05
4.29577600653e-06
1.00110843443e-05
2.40263210038e-07
3.99049440847e-06
2.23420421729e-06
6.80591479055e-08
2.5526291827e-08
1.90983072614e-08
3.82947756715e-07
7.83195131035e-08
4.72119268167e-08
9.10130366351e-07
4.7529716671e-06
2.23157757318e-06
2.52498379634e-06
2.38097800043e-08

