# vtk DataFile Version 3.0
File Name: Molecule/sphere_excent/sphere_excent_0-s2.vtk
ASCII
DATASET UNSTRUCTURED_GRID
FIELD FieldData 1
TIME 1 1 double
0.0
POINTS 45 double
1.7013015747 -1.0514621735 -1.2171356367e-08
1.6178584099 -0.61796694994 -0.99989151955
1.9997829199 -2.9417769554e-08 1.5950500938e-06
1.6178575754 0.61797177792 -0.99989151955
1.0514621735 6.4193734772e-09 -1.7013015747
1.7013015747 1.0514622927 1.7321717394e-08
0.99987816811 1.6178871393 -0.61797010899
0.61794960499 0.99992185831 -1.6178556681
-0.0003564110666 1.7015560865 -1.0510429144
0.99987906218 1.6178857088 0.61797273159
0.033705204725 1.9963933229 1.4653207927e-06
-0.00035638123518 1.7015559673 1.0510429144
-1.0085635185 1.5982973576 0.64419311285
-0.617800951 0.9995791316 1.6181926727
-1.6180223227 0.61752641201 1.0000245571
-1.7009794712 1.0519758463 -6.2825735725e-09
-1.0514621735 -4.7985324159e-08 1.7013015747
0.61795461178 0.99991995096 1.6178554296
6.164647175e-07 -9.5720924946e-06 1.9997844696
1.0514621735 -2.298274282e-08 1.7013015747
-0.61796826124 -0.99989199638 1.6178575754
0.61796957254 -0.99989247322 1.6178566217
2.2164204694e-08 -1.7013015747 1.0514621735
1.6178584099 -0.61796683073 0.99989140034
0.99989044666 -1.6178599596 0.61796420813
0.61796557903 -0.9998908639 -1.6178591251
-2.2932429147e-06 1.6129071128e-06 -1.9997838736
-0.61796963215 -0.99989235401 -1.617856741
-2.6325970737e-08 -1.7013015747 -1.0514621735
-1.0514622927 -6.2517946375e-10 -1.7013015747
1.6178586483 0.61797004938 0.99989056587
-1.6178600788 -0.6179638505 -0.99989289045
-1.6180224419 0.61753022671 -1.0000214577
-1.9997910261 2.6190888093e-05 1.6313961169e-06
-1.7013015747 -1.0514621735 3.6974054041e-08
-0.61780619621 0.99957710505 -1.6181917191
-1.008597374 1.598297596 -0.64414352179
-0.99989050627 -1.6178598404 -0.61796426773
-0.99989140034 -1.6178582907 0.61796694994
1.6161620806e-06 -1.9997826815 1.6866398056e-08
-1.6178565025 -0.6179729104 0.99989366531
0.99989122152 -1.6178581715 -0.61796694994
-0.52647578716 1.9021419287 0.32373037934
-0.52648061514 1.9021333456 -0.32376971841
-1.0503364801 1.702031374 1.3501087324e-06

CELLS 86 344
3 0 1 2
3 1 3 2
3 1 4 3
3 2 3 5
3 5 3 6
3 3 7 6
3 3 4 7
3 6 7 8
3 5 6 9
3 6 10 9
3 6 8 10
3 9 10 11
3 11 12 13
3 12 14 13
3 12 15 14
3 13 14 16
3 11 13 17
3 13 18 17
3 13 16 18
3 17 18 19
3 16 20 18
3 20 21 18
3 20 22 21
3 18 21 19
3 19 21 23
3 21 24 23
3 21 22 24
3 23 24 0
3 4 25 26
3 25 27 26
3 25 28 27
3 26 27 29
3 0 2 23
3 2 30 23
3 2 5 30
3 23 30 19
3 5 9 30
3 9 17 30
3 9 11 17
3 30 17 19
3 29 31 32
3 31 33 32
3 31 34 33
3 32 33 15
3 8 35 36
3 35 32 36
3 35 29 32
3 36 32 15
3 34 37 38
3 37 39 38
3 37 28 39
3 38 39 22
3 34 38 40
3 38 20 40
3 38 22 20
3 40 20 16
3 16 14 40
3 14 33 40
3 14 15 33
3 40 33 34
3 29 27 31
3 27 37 31
3 27 28 37
3 31 37 34
3 28 41 39
3 41 24 39
3 41 0 24
3 39 24 22
3 4 1 25
3 1 41 25
3 1 0 41
3 25 41 28
3 4 26 7
3 26 35 7
3 26 29 35
3 7 35 8
3 10 42 11
3 11 42 12
3 10 43 42
3 43 44 42
3 43 36 44
3 42 44 12
3 36 43 8
3 8 43 10
3 12 44 15
3 44 36 15

CELL_TYPES 86
5
5
5
5
5
5
5
5
5
5
5
5
5
5
5
5
5
5
5
5
5
5
5
5
5
5
5
5
5
5
5
5
5
5
5
5
5
5
5
5
5
5
5
5
5
5
5
5
5
5
5
5
5
5
5
5
5
5
5
5
5
5
5
5
5
5
5
5
5
5
5
5
5
5
5
5
5
5
5
5
5
5
5
5
5
5

CELL_DATA 86
SCALARS cell_data_0 double
LOOKUP_TABLE default
7.50546209938e-05
9.83907021837e-05
1.86025785857e-05
5.84469768881e-05
8.88988965449e-06
0.00010668268944
8.49157453993e-05
6.95539560797e-05
3.27650410491e-05
0.000390927375616
0.000251726822608
0.000265409429593
3.08093574877e-05
6.66420870043e-05
4.88792565772e-05
3.01969012091e-05
3.32590795989e-05
0.000103578958896
8.47199733532e-05
6.06263036607e-05
4.86600613856e-05
5.10420495726e-05
2.46145109079e-05
4.14752111644e-05
1.9939971966e-05
1.86992156095e-05
1.75533876624e-05
8.28821702326e-06
1.12200052419e-05
1.42496911254e-05
4.18971818014e-07
1.57224800994e-05
3.56423037472e-05
4.76842650366e-06
1.85108474567e-05
1.79516846706e-05
1.16459900562e-05
4.56967912284e-06
2.48550364259e-06
3.30209073782e-05
5.48278594193e-06
5.69106525155e-09
1.62693507583e-06
9.25197235245e-07
5.62448100464e-05
6.41168067381e-05
4.36514313462e-06
5.90432685699e-05
6.53929850274e-07
1.41302553281e-06
7.01530882136e-07
7.23550390669e-06
6.1971676407e-07
2.49900263007e-05
2.0152311397e-05
3.45774681349e-05
2.24874746281e-05
6.10768532498e-06
4.05711030841e-07
3.36946368879e-06
3.69071959793e-06
1.94255276351e-06
2.00609197818e-07
1.53990907542e-06
7.01013151984e-07
6.47196281669e-06
5.49892314488e-07
1.01025858002e-05
3.924752816e-06
4.29706925645e-06
1.45859669891e-05
1.00080565932e-06
8.95381890747e-05
0.000112374113374
1.71032240528e-05
6.94732068607e-05
9.86653597779e-05
1.11040964733e-05
7.52831791229e-05
3.92329852159e-07
1.50944134409e-05
1.37531930285e-05
2.79829108585e-05
0.000132033265702
2.58836380833e-05
2.8777704912e-05

