# vtk DataFile Version 3.0
File Name: Molecule/sphere_excent/sphere_excent_0-s23.vtk
ASCII
DATASET UNSTRUCTURED_GRID
FIELD FieldData 1
TIME 1 1 double
0.0
POINTS 244 double
-0.035620830953 1.7224652767 1.0141009092
-1.0872757435 1.471827507 0.8057217598
-0.5976883173 1.1964732409 1.4854979515
-1.6610581875 1.1064455509 0.12930525839
-1.6720324755 0.65420544147 0.87951922417
0.64833492041 -1.1779686213 1.480609417
0.014721318148 -1.7155724764 1.0278357267
0.82788169384 -1.6710369587 0.72168636322
0.41024947166 -1.2042540312 -1.5394816399
-0.019774708897 -1.7233213186 -1.0144608021
-0.42695084214 -1.0898815393 -1.620831728
1.5867401361 -0.40945094824 1.1451630592
1.5314868689 0.49436292052 1.187433362
1.1494003534 0.082541398704 1.6323387623
-0.71065682173 -1.7717858553 -0.59510535002
0.017237147316 -1.9997668266 0.022301493213
-1.0586588383 -1.6930080652 0.068124830723
-0.80213922262 -1.679959178 0.7310230732
-0.67520618439 -1.2880420685 1.37269485
-1.9556101561 0.29789078236 0.28703916073
0.80922943354 -1.686270833 -0.70405215025
1.103821516 -1.6665371656 0.032995078713
0.0033570122905 1.9988437891 0.061650644988
-0.57554590702 1.8792619705 0.37040197849
-0.52572792768 1.891957283 -0.37903398275
-1.1010763645 1.6693258286 0.035520918667
-1.2015229464 1.4675079584 -0.62388825417
-0.032017245889 1.7421979904 -0.98106485605
0.21993932128 1.9199683666 -0.51282900572
0.58179247379 1.9090644121 -0.12914347649
0.53840398788 1.8804575205 0.41480100155
1.0185633898 1.7115620375 0.17717832327
0.90388196707 1.5649721622 0.85611921549
1.1809132099 0.97808092833 -1.2837331295
0.87486296892 1.2661573887 -1.2772152424
1.2878385782 1.2434684038 -0.88692122698
1.0150811672 -0.076820015907 -1.7212049961
0.78491312265 -0.56559211016 -1.7497583628
0.52785438299 -0.070294216275 -1.9274791479
0.22324566543 -0.60981571674 -1.8911626339
-0.014002182521 0.026980033144 -1.9997575283
0.92844951153 0.93788462877 -1.5023545027
1.0965229273 0.69673150778 -1.5203578472
1.362557292 -0.40884047747 -1.405734539
1.5157314539 -0.14190669358 -1.2962908745
1.5160455704 -0.53728199005 -1.1880272627
-0.43623003364 0.62769037485 1.8476904631
-0.83662098646 0.46579945087 1.7547973394
-0.36852106452 0.20115533471 1.9541313648
-1.2145285606 -0.13512207568 1.5819354057
-0.9810987711 -0.65473431349 1.6146149635
-0.72709023952 -0.026262301952 1.8615620136
-0.41762968898 -0.51935780048 1.8852107525
-1.124114275 0.021393060684 -1.6528391838
-1.3786908388 -0.31478703022 -1.4141181707
-1.3715531826 0.40229153633 -1.3987163305
-1.6412360668 0.064035005867 -1.1397821903
-1.4983516932 0.85856294632 -1.0069645643
-1.73153615 0.49616354704 -0.86580330133
-1.0009328127 1.1302833557 -1.3062566519
-0.86299300194 0.63650369644 -1.6875935793
-1.2727754116 -1.1490103006 1.0292316675
-1.5905048847 -0.50158798695 1.1037883759
-0.35683733225 -0.45793673396 -1.9135992527
-0.48971158266 0.037131518126 -1.9386398792
-0.90413081646 -0.6182718873 -1.67276752
-0.28712749481 0.54828560352 -1.9016153812
0.32278522849 0.46202731133 -1.918322444
-0.51015710831 0.99674165249 -1.6569942236
0.15419630706 1.0179632902 -1.7142490149
-1.312784791 -0.82479810715 -1.2623392344
1.8613455296 0.34271043539 0.64286124706
1.7082055807 0.8015833497 0.660851717
1.3468703032 1.4026869535 0.46385812759
1.3529402018 1.1142196655 0.96336394548
0.88122475147 1.0374325514 1.4613655806
-0.23597672582 1.4102182388 -1.3948475122
0.39197948575 1.487052083 -1.2776185274
-0.60117512941 1.6492472887 -0.95388990641
1.9494605064 0.21222670376 -0.38182991743
1.9609308243 0.36928680539 0.11295388639
1.9885488749 -0.1831587702 0.093575686216
0.0061215097085 0.89130538702 1.7898834944
-0.020833272487 0.3810710907 1.9630351067
0.43500107527 0.47278651595 1.8932224512
0.26566448808 -0.015857843682 1.9819904566
-1.6503096819 -1.111194849 0.20221415162
-1.3770391941 -1.3757369518 0.45840162039
-1.6449570656 -0.95966410637 0.61042320728
1.6481431723 -0.70416325331 -0.88530874252
1.6803632975 -0.97320133448 -0.47875490785
1.4128185511 -1.1649018526 -0.8009352684
1.3545422554 -1.4116187096 -0.41418594122
1.7932863235 -0.87971538305 -0.05214137584
1.8955093622 -0.45298862457 -0.42967569828
-1.5296231508 -1.2870483398 0.011415842921
1.2987579107 -1.1204315424 1.0267943144
1.0292812586 -0.58379858732 1.6122537851
1.7017920017 -0.84578758478 0.61853253841
1.432010293 -1.3260012865 0.43697789311
-1.691719532 -0.93349611759 -0.51260972023
-1.700668335 -1.0408287048 -0.15498909354
-1.8370372057 -0.75305259228 -0.24062767625
-1.8134851456 -0.82808917761 0.160038203
-1.9255774021 -0.53650999069 0.065042413771
1.5527267456 -1.2594774961 -0.051560118794
1.7638384104 -0.89894396067 0.27580180764
-1.8539260626 -0.54723197222 0.51277434826
-0.035552106798 -1.2415436506 1.5674034357
0.48047867417 -0.52949023247 1.8677654266
0.68680006266 -0.092750571668 1.8759634495
-0.4291215837 -0.93238008022 1.7164865732
-0.0023822407238 -0.36321946979 1.9665768147
0.072161003947 -0.82027506828 1.8226071596
-1.6726543903 0.96908962727 -0.51233786345
-1.8688571453 -0.078978426754 0.70510739088
-1.5420509577 0.16766281426 1.261849165
0.74958133698 1.7765188217 -0.53084903955
1.0683289766 1.6697962284 -0.26437681913
0.49746316671 1.7349504232 -0.8600923419
0.87917089462 1.5329951048 -0.93600428104
1.0999878645 1.553621769 -0.61300438643
0.61329579353 1.0468868017 -1.5889980793
-1.9704461098 -0.22267536819 0.25856691599
-1.9215306044 -0.49459302425 -0.25119537115
-1.8579394817 -0.51351034641 -0.5328591466
-1.8522791862 0.68764400482 -0.30837023258
-1.9987010956 -0.059893973172 -0.011871763505
-1.9742627144 -0.30541333556 -0.093241900206
-1.9800889492 -0.11318589002 -0.25734776258
-1.9364910126 -0.31833717227 -0.38503032923
-1.9577076435 0.041002891958 -0.40597441792
-1.9849911928 0.14858786762 -0.19119247794
-0.71825450659 -1.4830164909 -1.1333649158
-1.0654753447 -1.4778468609 -0.82533276081
-0.9496447444 -1.0985283852 -1.3741321564
-1.1745550632 -1.201589942 -1.0844044685
-1.47178936 -0.9659794569 -0.94862818718
-1.5253802538 -1.098005414 -0.68393915892
-1.6522787809 -0.8169041276 -0.77527064085
-1.3369557858 -1.2299101353 -0.83653700352
-1.3500310183 -1.350379467 -0.59472370148
-1.5562266111 -1.1858953238 -0.41431468725
-1.3927252293 -1.3937928677 -0.34213674068
-1.1273422241 -1.5640437603 -0.52956444025
-1.4618526697 -1.3523184061 -0.18107827008
-1.1798318624 0.98433530331 1.2798143625
1.3788419962 1.3804061413 -0.43682986498
1.3699789047 1.4567115307 -0.039081849158
1.6714521646 1.0621254444 -0.27723190188
1.5252479315 1.0395927429 -0.76535362005
-1.118437171 0.24517962337 1.6395075321
-1.2826724052 0.56656700373 1.4258773327
-0.87595140934 0.82223719358 1.5990890265
-1.5982500315 -0.64356291294 -1.0145082474
-1.9514124393 0.42340427637 -0.098184749484
-1.9364675283 0.31949204206 -0.3847373724
-1.8501498699 0.52747619152 -0.54574936628
-1.8645507097 0.2775169313 -0.66746485233
0.8336623311 0.72932744026 -1.6651096344
0.76369822025 0.50323057175 -1.7781857252
1.0020345449 0.50652647018 -1.6550359726
0.93296808004 0.28430885077 -1.7460825443
1.1202594042 0.30438819528 -1.6284518242
1.248025775 0.47058844566 -1.4902356863
1.282576561 0.1811092943 -1.523765564
1.4017894268 0.33512932062 -1.3866080046
1.2947685719 0.69177407026 -1.3582484722
1.4394000769 0.52973490953 -1.2835171223
1.4203457832 0.79426282644 -1.1620403528
1.5472317934 0.32901450992 -1.2237619162
1.5998175144 0.5020558238 -1.0892393589
1.7125313282 0.26733630896 -0.99541157484
1.6083548069 0.099119842052 -1.1840510368
1.4537349939 0.12523022294 -1.3674305677
1.7388817072 -0.17884781957 -0.97025179863
1.3099521399 -0.097989410162 -1.5078107119
0.69505780935 0.22987769544 -1.8610924482
1.123238802 -0.46775445342 -1.5868606567
0.55235093832 0.7503874898 -1.7694708109
1.8580323458 0.6662106514 0.32115542889
1.860866785 0.72331738472 -0.11000170559
1.7470607758 0.95491278172 0.18731081486
1.5755450726 1.2225680351 0.15241758525
1.5850410461 1.1155196428 0.4929574132
1.6859707832 0.77597641945 -0.74394655228
1.8442418575 0.55784910917 -0.53215241432
-0.077401489019 0.0045943823643 1.9984502792
-0.32689797878 -0.15238180757 1.9670448303
0.44525259733 1.415507555 1.3403650522
0.41212043166 1.0324237347 1.6630247831
0.023127092049 1.3325618505 1.4911676645
1.875251174 0.0085572982207 -0.69454282522
1.7376487255 0.50468289852 -0.85174405575
1.8366498947 0.29617032409 -0.73257422447
-1.6585211754 -0.29910159111 -1.0765702724
-0.71329545975 -0.25027304888 -1.8516029119
-0.83551836014 0.026105877012 -1.8169363737
-0.99034500122 -0.24706420302 -1.7194399834
-0.70611923933 0.30794209242 -1.8454405069
-0.98184961081 0.28759783506 -1.7180972099
-1.8424266577 -0.1898676753 -0.75450956821
-1.7710570097 -0.39192989469 -0.84237402678
-1.8865059614 -0.29021507502 -0.59731513262
-1.7668781281 -0.11463002115 -0.93013370037
-1.794762969 0.13039465249 -0.87222313881
-1.8596862555 0.0068597476929 -0.73566854
-1.9050221443 -0.083042755723 -0.60318106413
-1.9427341223 -0.14789383113 -0.45148485899
-1.91388762 0.11061888933 -0.56965023279
1.2621635199 -0.70999252796 -1.3793312311
1.0206911564 -0.78483915329 -1.5304290056
1.1142266989 -1.0182971954 -1.3120129108
1.3999150991 -0.86254024506 -1.1382111311
0.81211042404 -1.1456961632 -1.4241584539
1.951884985 0.027663893998 0.43592008948
1.8641707897 -0.33100569248 0.64406049252
1.800173521 -0.036848250777 0.86925697327
-1.744887948 -0.61282157898 -0.76157367229
-1.7748395205 -0.72449940443 -0.56981140375
1.0260318518 0.5680655241 1.6189239025
0.64648646116 -1.4901034832 -1.1664184332
1.9200555086 -0.55571144819 0.054206348956
0.98608595133 -1.3687945604 -1.0737155676
1.5534507036 0.82004833221 -0.95562505722
1.4126640558 0.99166882038 -1.0101691484
0.69243568182 0.7401638031 1.7240068913
0.81456279755 0.31607583165 1.7990310192
1.1459106207 -1.4316962957 -0.79781323671
1.2449581623 -1.1449791193 -1.0670794249
-1.3309438229 -1.492220521 0.037353724241
-1.2715191841 -1.5364339352 -0.15172468126
1.8885904551 -0.55407828093 0.35558444262
-1.2628204823 -1.5020004511 -0.38657307625
-1.1333261728 -1.6281145811 -0.24994574487
1.5315512419 0.66103577614 -1.1033951044
1.6343301535 0.65894514322 -0.9459272027
1.8475110531 -0.29715582728 -0.70590770245
1.9479094744 -0.11504853517 -0.43676680326
-0.44889298081 1.5404366255 -1.1940879822
-0.63467735052 1.3126909733 -1.3688884974
-0.8171838522 1.4250847101 -1.1411169767
-0.91073572636 1.5752503872 -0.83045816422
-1.1105701923 1.3325233459 -0.99530893564

CELLS 484 1936
3 0 1 2
3 1 3 4
3 5 6 7
3 8 9 10
3 11 12 13
3 14 15 16
3 14 9 15
3 17 15 6
3 17 6 18
3 4 3 19
3 9 20 15
3 7 15 21
3 15 7 6
3 22 23 0
3 0 23 1
3 22 24 23
3 24 25 23
3 24 26 25
3 23 25 1
3 27 24 28
3 1 25 3
3 25 26 3
3 29 30 31
3 29 22 30
3 31 30 32
3 32 30 0
3 30 22 0
3 33 34 35
3 36 37 38
3 37 39 38
3 37 8 39
3 38 39 40
3 10 39 8
3 33 41 34
3 41 33 42
3 43 44 45
3 46 47 48
3 49 50 51
3 50 52 51
3 53 54 55
3 54 56 55
3 57 55 58
3 55 59 60
3 18 50 61
3 62 50 49
3 40 63 64
3 63 10 65
3 40 66 67
3 66 68 69
3 40 64 66
3 66 60 68
3 10 63 39
3 39 63 40
3 68 60 59
3 54 65 70
3 71 72 12
3 73 32 74
3 72 74 12
3 12 74 75
3 75 74 32
3 57 59 55
3 68 76 69
3 69 76 77
3 27 78 24
3 32 73 31
3 79 80 81
3 46 82 2
3 46 83 82
3 83 84 82
3 83 85 84
3 86 87 88
3 87 61 88
3 87 17 61
3 88 61 62
3 62 61 50
3 18 61 17
3 89 90 91
3 90 92 91
3 93 90 94
3 94 90 89
3 86 95 87
3 87 16 17
3 17 16 15
3 7 96 5
3 5 96 97
3 11 96 98
3 96 99 98
3 96 7 99
3 100 101 102
3 101 103 102
3 101 86 103
3 102 103 104
3 92 21 20
3 20 21 15
3 92 105 21
3 105 99 21
3 99 105 106
3 21 99 7
3 93 105 90
3 90 105 92
3 104 103 107
3 88 103 86
3 86 101 95
3 5 108 6
3 6 108 18
3 85 109 110
3 109 97 110
3 109 5 97
3 110 97 13
3 13 97 11
3 11 97 96
3 18 111 50
3 50 111 52
3 85 112 109
3 112 113 109
3 112 52 113
3 109 113 5
3 5 113 108
3 113 111 108
3 113 52 111
3 108 111 18
3 85 110 84
3 57 114 26
3 26 114 3
3 19 115 4
3 4 115 116
3 117 29 118
3 29 28 22
3 22 28 24
3 27 28 119
3 28 117 119
3 28 29 117
3 119 117 120
3 34 120 35
3 35 120 121
3 121 120 117
3 120 77 119
3 120 34 77
3 119 77 27
3 27 77 76
3 69 77 122
3 19 123 115
3 123 107 115
3 123 104 107
3 115 107 62
3 62 107 88
3 88 107 103
3 104 124 102
3 102 124 125
3 56 58 55
3 57 58 114
3 114 126 3
3 19 127 123
3 127 128 123
3 127 129 128
3 123 128 104
3 104 128 124
3 128 130 124
3 128 129 130
3 124 130 125
3 131 129 132
3 14 133 9
3 9 133 10
3 14 134 133
3 135 133 136
3 133 135 10
3 10 135 65
3 137 138 139
3 140 141 138
3 141 142 138
3 141 143 142
3 138 142 100
3 140 134 141
3 134 144 141
3 134 14 144
3 100 142 101
3 95 101 145
3 4 146 1
3 1 146 2
3 49 116 62
3 62 116 115
3 121 118 147
3 118 148 147
3 118 31 148
3 147 148 149
3 121 147 35
3 35 147 150
3 49 151 116
3 151 152 116
3 151 47 152
3 116 152 4
3 4 152 146
3 152 153 146
3 152 47 153
3 146 153 2
3 2 153 46
3 153 47 46
3 47 151 51
3 151 49 51
3 135 70 65
3 54 70 154
3 73 148 31
3 126 155 3
3 3 155 19
3 19 155 132
3 155 156 132
3 155 126 156
3 132 156 131
3 31 118 29
3 117 118 121
3 58 157 114
3 157 126 114
3 58 158 157
3 158 156 157
3 157 156 126
3 19 132 127
3 127 132 129
3 140 136 134
3 134 136 133
3 135 136 70
3 136 137 70
3 136 140 137
3 70 137 154
3 138 137 140
3 41 42 159
3 160 161 162
3 161 163 162
3 163 161 164
3 162 163 36
3 36 163 165
3 163 164 165
3 42 164 161
3 165 164 166
3 42 167 164
3 167 168 164
3 167 169 168
3 164 168 166
3 169 167 33
3 33 167 42
3 166 168 170
3 168 171 170
3 170 171 172
3 172 173 170
3 173 174 170
3 173 44 174
3 170 174 166
3 44 173 175
3 175 173 172
3 166 174 165
3 174 176 165
3 174 44 176
3 165 176 36
3 162 36 177
3 36 176 178
3 176 44 43
3 69 67 66
3 40 67 38
3 41 122 34
3 34 122 77
3 69 122 179
3 122 159 179
3 122 41 159
3 179 159 160
3 69 179 67
3 177 67 160
3 179 160 67
3 67 177 38
3 80 180 71
3 180 72 71
3 80 181 180
3 181 182 180
3 181 149 182
3 180 182 72
3 149 183 182
3 183 184 182
3 183 73 184
3 182 184 72
3 72 184 74
3 74 184 73
3 185 149 186
3 181 80 79
3 83 187 85
3 85 187 112
3 51 48 47
3 48 83 46
3 112 188 52
3 52 188 51
3 51 188 48
3 188 187 48
3 188 112 187
3 48 187 83
3 73 183 148
3 148 183 149
3 160 159 161
3 161 159 42
3 38 177 36
3 162 177 160
3 75 189 190
3 189 191 190
3 189 0 191
3 190 191 82
3 0 189 32
3 32 189 75
3 79 186 181
3 181 186 149
3 175 172 192
3 172 193 194
3 193 186 194
3 193 185 186
3 194 186 79
3 154 195 54
3 54 195 56
3 65 196 63
3 63 196 64
3 64 196 197
3 196 198 197
3 196 65 198
3 197 198 53
3 64 199 66
3 199 60 66
3 64 197 199
3 197 200 199
3 197 53 200
3 199 200 60
3 60 200 55
3 55 200 53
3 53 198 54
3 198 65 54
3 82 191 2
3 2 191 0
3 84 190 82
3 201 202 203
3 154 202 195
3 202 204 195
3 202 201 204
3 195 204 56
3 56 204 205
3 204 206 205
3 204 201 206
3 205 206 158
3 131 207 208
3 207 203 208
3 207 201 203
3 208 203 130
3 130 203 125
3 125 203 202
3 131 208 129
3 208 130 129
3 131 209 207
3 209 206 207
3 209 158 206
3 207 206 201
3 56 205 58
3 58 205 158
3 158 209 156
3 209 131 156
3 171 193 172
3 43 178 176
3 36 178 37
3 43 210 178
3 210 211 178
3 210 212 211
3 178 211 37
3 43 45 210
3 45 213 210
3 45 89 213
3 210 213 212
3 8 37 214
3 89 45 175
3 175 45 44
3 81 215 216
3 215 217 216
3 215 71 217
3 216 217 11
3 11 217 12
3 12 217 71
3 71 215 80
3 80 215 81
3 154 139 218
3 139 219 218
3 139 100 219
3 218 219 125
3 91 213 89
3 98 216 11
3 125 219 102
3 102 219 100
3 100 139 138
3 137 139 154
3 154 218 202
3 202 218 125
3 75 220 12
3 12 220 13
3 8 221 9
3 221 20 9
3 185 150 149
3 149 150 147
3 81 222 94
3 94 222 93
3 8 214 221
3 214 223 221
3 214 212 223
3 221 223 20
3 185 224 150
3 224 225 150
3 224 169 225
3 150 225 35
3 35 225 33
3 33 225 169
3 75 226 220
3 226 227 220
3 226 84 227
3 220 227 13
3 20 228 92
3 92 228 91
3 212 229 223
3 229 228 223
3 229 91 228
3 223 228 20
3 95 230 87
3 230 16 87
3 95 145 230
3 145 231 230
3 145 143 231
3 230 231 16
3 93 106 105
3 99 106 98
3 81 232 222
3 232 106 222
3 232 98 106
3 222 106 93
3 143 145 142
3 142 145 101
3 13 227 110
3 110 227 84
3 144 233 141
3 141 233 143
3 143 233 231
3 233 234 231
3 233 144 234
3 231 234 16
3 16 234 14
3 234 144 14
3 169 235 168
3 168 235 171
3 185 236 224
3 236 235 224
3 236 171 235
3 224 235 169
3 84 226 190
3 190 226 75
3 171 236 193
3 193 236 185
3 212 214 211
3 211 214 37
3 91 229 213
3 213 229 212
3 98 232 216
3 216 232 81
3 175 237 89
3 89 237 94
3 175 192 237
3 192 238 237
3 192 79 238
3 237 238 94
3 94 238 81
3 238 79 81
3 76 239 27
3 27 239 78
3 76 240 239
3 240 241 239
3 240 59 241
3 239 241 78
3 59 240 68
3 68 240 76
3 78 241 242
3 241 243 242
3 241 59 243
3 242 243 26
3 26 243 57
3 243 59 57
3 78 242 24
3 24 242 26
3 79 192 194
3 194 192 172

CELL_TYPES 484
5
5
5
5
5
5
5
5
5
5
5
5
5
5
5
5
5
5
5
5
5
5
5
5
5
5
5
5
5
5
5
5
5
5
5
5
5
5
5
5
5
5
5
5
5
5
5
5
5
5
5
5
5
5
5
5
5
5
5
5
5
5
5
5
5
5
5
5
5
5
5
5
5
5
5
5
5
5
5
5
5
5
5
5
5
5
5
5
5
5
5
5
5
5
5
5
5
5
5
5
5
5
5
5
5
5
5
5
5
5
5
5
5
5
5
5
5
5
5
5
5
5
5
5
5
5
5
5
5
5
5
5
5
5
5
5
5
5
5
5
5
5
5
5
5
5
5
5
5
5
5
5
5
5
5
5
5
5
5
5
5
5
5
5
5
5
5
5
5
5
5
5
5
5
5
5
5
5
5
5
5
5
5
5
5
5
5
5
5
5
5
5
5
5
5
5
5
5
5
5
5
5
5
5
5
5
5
5
5
5
5
5
5
5
5
5
5
5
5
5
5
5
5
5
5
5
5
5
5
5
5
5
5
5
5
5
5
5
5
5
5
5
5
5
5
5
5
5
5
5
5
5
5
5
5
5
5
5
5
5
5
5
5
5
5
5
5
5
5
5
5
5
5
5
5
5
5
5
5
5
5
5
5
5
5
5
5
5
5
5
5
5
5
5
5
5
5
5
5
5
5
5
5
5
5
5
5
5
5
5
5
5
5
5
5
5
5
5
5
5
5
5
5
5
5
5
5
5
5
5
5
5
5
5
5
5
5
5
5
5
5
5
5
5
5
5
5
5
5
5
5
5
5
5
5
5
5
5
5
5
5
5
5
5
5
5
5
5
5
5
5
5
5
5
5
5
5
5
5
5
5
5
5
5
5
5
5
5
5
5
5
5
5
5
5
5
5
5
5
5
5
5
5
5
5
5
5
5
5
5
5
5
5
5
5
5
5
5
5
5
5
5
5
5
5
5
5
5
5
5
5
5
5
5
5
5
5
5
5
5
5
5
5
5
5
5
5
5
5
5
5
5
5
5
5
5
5
5
5
5
5
5
5
5
5
5
5
5
5
5
5
5
5
5
5
5
5
5
5
5
5
5
5
5

CELL_DATA 484
SCALARS cell_data_0 double
LOOKUP_TABLE default
1.40876531179e-05
7.35527540621e-06
1.3143999308e-05
5.77584585919e-06
1.42256469374e-05
3.78748968524e-06
2.02600472956e-06
8.38187426238e-06
9.9549746414e-06
4.7836768674e-06
2.29111597182e-06
3.44895986659e-05
7.24473141836e-06
3.84271917151e-06
6.77842152418e-06
2.5106526162e-06
2.52931481788e-06
1.97573985229e-06
3.59140012966e-06
9.01463589562e-06
4.31670002243e-06
2.58297745734e-06
3.51808418381e-05
6.23168596753e-05
1.11788050318e-05
1.96649324245e-05
3.91987661768e-05
6.16681757139e-05
1.91930125522e-06
1.37097198374e-07
8.3558062936e-07
1.6807525739e-06
3.1399611779e-06
1.21569307146e-05
5.46044493686e-06
6.21186910342e-09
6.19246508986e-06
1.51916611291e-05
8.90525427614e-06
8.2925277844e-06
5.50453492526e-06
1.54525185359e-06
4.61908701025e-06
1.18002782732e-05
1.25653726722e-05
1.5288071337e-05
5.64941055959e-06
1.59832008703e-06
9.39791797091e-07
1.02593886882e-05
6.01575208343e-08
6.5580565995e-06
6.23081230713e-06
1.12358630481e-06
1.45509368938e-05
9.86701889596e-06
6.93332823655e-05
4.58689910743e-05
1.18178301795e-05
1.49112600283e-05
3.83114356943e-06
4.80324077381e-05
5.79259351494e-05
1.01737869259e-05
2.58079583864e-05
7.35322402812e-06
1.2647978822e-05
9.07642097173e-06
1.0763803683e-05
8.53447025562e-06
5.28389264421e-07
6.6043978897e-06
1.32478186953e-06
2.10580562613e-06
1.20898098821e-05
4.04777537661e-06
4.0755682551e-06
1.50039102339e-06
2.73380713668e-05
3.18219086065e-05
6.89793999224e-07
2.9191376361e-06
5.91199787975e-06
1.0035803208e-05
1.20936989156e-05
5.73268441393e-06
2.94394158605e-06
4.59076781173e-06
3.88841642643e-07
4.16374230073e-06
2.54238039038e-06
3.01723848854e-06
2.98574799041e-05
4.44972467762e-05
5.36275954497e-05
5.41729453673e-05
1.54829478599e-05
2.14649800371e-05
2.16392169183e-05
2.09309826196e-05
2.25785308549e-06
3.49957799191e-06
2.04886161735e-07
7.71552304376e-06
4.06678313015e-06
1.67938282609e-05
9.82190073516e-06
1.90837378224e-05
1.73408956492e-05
1.37795859685e-05
1.05425874348e-05
1.02011100215e-05
9.1539165528e-06
2.29376908329e-05
1.86499751049e-05
1.21216811928e-05
2.21170909983e-05
1.50401405608e-05
1.11450487487e-05
8.81292937809e-06
8.45674651047e-06
2.10782486167e-05
8.79971898195e-07
1.81755777277e-06
3.56755777464e-06
5.53840612889e-06
1.3021448295e-05
3.04481526866e-05
4.86567675146e-06
6.85936810691e-06
5.75446456542e-08
1.48990117623e-05
4.01301451904e-07
4.42690229074e-05
2.1015721139e-05
5.79896189833e-07
8.41654298071e-07
1.08429479278e-05
8.37532833252e-06
6.64896003686e-05
1.5151605652e-06
1.52231005746e-06
1.27383240693e-06
8.22321631543e-07
3.39478465878e-06
2.76816923236e-06
5.11040152275e-06
8.10904924061e-08
1.22188152058e-08
3.23991101746e-06
3.21768466389e-07
9.4964584763e-07
8.50950053054e-07
3.77983868406e-07
2.35342556659e-07
4.1285314849e-07
2.26352993775e-07
1.82311651059e-07
2.23545981631e-07
1.44877405214e-07
1.22848489776e-06
5.82368641949e-08
2.74835925212e-06
4.67794419002e-07
1.10812935698e-07
9.49628821438e-07
1.08104332135e-06
1.01668284195e-07
4.72588312878e-08
1.36969167647e-07
6.24917756279e-08
9.16157249647e-08
7.08971232614e-08
1.18214878744e-07
2.81717770394e-07
1.16934236514e-07
2.14740834827e-08
7.07451597505e-06
8.46778538713e-06
8.51442368371e-06
5.76342318431e-06
2.31639126217e-06
1.9356590256e-06
6.80750966065e-07
1.52376294548e-06
2.53037635752e-05
2.74169070645e-05
6.39655898336e-06
4.74038530866e-06
4.14581970166e-06
5.30710076089e-06
5.31334747027e-06
4.31036491653e-06
4.63956146279e-06
5.26456566192e-06
7.08553050832e-06
3.94257956654e-06
4.97205016979e-06
9.46131060256e-06
9.42360837324e-06
9.98092786378e-06
1.77332032501e-05
2.48719769414e-06
2.28027524349e-06
5.98036326782e-06
3.88829408902e-06
1.43871373752e-06
1.45871658441e-06
1.30027155542e-05
2.5815042551e-07
1.67574109801e-07
2.44132475773e-07
1.61432902168e-07
2.91026991536e-08
1.5992500893e-07
2.059866155e-06
1.19159356912e-06
4.33476010594e-08
6.61896450315e-08
6.08865249592e-06
5.29789121787e-06
9.05394645427e-08
4.30897028333e-06
4.0960187757e-09
8.72546601514e-07
6.01584483384e-07
3.83507103406e-08
5.50538950834e-08
4.92629347618e-07
5.18056995032e-07
5.89634818579e-08
7.25543849533e-07
7.23999305175e-08
6.72794270246e-07
6.85913151616e-08
6.71570605727e-08
7.04687840571e-08
2.31941898541e-06
4.63858334506e-06
6.28504049125e-08
6.78811995018e-08
1.08641083574e-07
1.04443421121e-07
4.84117230267e-08
6.11622378051e-08
5.21792690422e-08
8.38388282503e-06
8.17929892646e-06
5.07014158297e-08
3.71833097773e-08
5.39413740772e-08
6.31322981565e-07
7.55005253742e-07
1.05669417351e-06
4.19880464305e-08
1.28771223129e-06
1.42358778396e-06
5.26874390169e-06
1.05453306972e-05
6.01881259969e-07
4.00550860693e-08
1.80628905538e-08
8.51289151606e-07
7.23057395686e-07
1.64706133994e-06
1.56545427444e-06
1.71554133034e-07
1.03936730783e-06
4.99843704909e-06
7.9692858058e-07
7.57595256731e-07
8.43574266902e-07
3.52848712077e-06
8.04906815281e-07
6.50022822197e-07
9.90705488685e-06
4.93780375427e-06
2.79599834025e-05
4.11993746772e-05
2.01703800562e-05
9.28077045846e-07
5.61115656145e-06
8.67238755612e-06
7.00381065652e-06
6.09388160289e-06
8.93978817376e-06
5.84946994032e-06
5.93696727499e-06
4.73894369422e-06
7.20999493278e-06
5.45933976313e-06
1.18496975218e-05
8.53831425402e-07
6.57064015161e-07
7.86254279814e-07
1.35298102521e-06
8.02059498189e-07
6.39711847725e-06
5.31477116841e-06
5.67474181574e-06
6.77102938189e-06
5.68973414927e-06
7.40532600308e-06
1.69051040373e-05
1.82177851941e-05
1.15309047075e-05
9.7874612072e-06
3.23994256378e-05
1.57614558299e-05
3.44933197734e-05
7.90317033113e-06
1.04497243987e-05
8.73762752924e-06
1.64682814113e-05
8.18380741389e-06
2.56730897955e-06
3.24426402886e-06
1.34810898835e-06
5.56961178205e-06
2.6294793233e-07
3.50130451288e-06
1.67454418597e-07
1.2714355964e-06
1.71931525685e-07
1.26546905616e-06
3.43366477773e-06
3.27891349102e-06
1.15343207489e-06
1.07801841789e-05
9.45511359567e-06
9.92266949588e-06
9.5414941129e-08
2.97520617623e-06
2.05079329521e-06
1.13706268207e-07
3.52522498538e-06
7.51637391537e-08
1.24417800756e-07
9.83272202346e-08
7.75313893121e-08
7.02566923966e-08
8.36541525981e-08
7.96701089792e-08
9.54435137203e-08
1.2523721822e-07
1.58824462139e-07
7.09065427581e-08
1.14053376698e-07
6.33870477272e-08
8.14644839374e-08
3.77358142959e-08
8.15818487316e-08
3.81409304619e-07
3.88172630431e-08
4.04849257701e-08
7.70042613215e-08
9.11186616394e-07
3.71525865446e-08
1.26569934782e-06
6.32008464057e-08
1.01891238985e-07
9.48516739507e-08
1.12533565002e-07
7.44873691268e-08
1.35614003523e-07
1.98856723872e-06
1.10537130464e-07
7.121222824e-07
2.2308960053e-05
1.34709354052e-05
2.48271199872e-06
1.36854629833e-06
1.49262250851e-06
2.06005568825e-06
5.64718299699e-06
3.39241599921e-06
1.00604316811e-06
4.75171573245e-06
1.21450034975e-07
1.18250285924e-07
1.25129547111e-07
1.18543992162e-07
2.75200999137e-06
3.50594598478e-06
7.42488025723e-08
3.40984007702e-08
1.20116712789e-07
1.15009097282e-07
1.52460559272e-07
1.53689479607e-07
9.21889981394e-06
9.77753467527e-06
4.36090360837e-06
2.33601676792e-06
5.75546196917e-07
4.21758820183e-06
2.55088257718e-05
1.70795934482e-05
1.71188062041e-06
7.85804457251e-06
5.54281236528e-06
7.97828093037e-06
3.97276111012e-07
4.88305450715e-07
3.2387138819e-08
1.13079309324e-05
2.21527181027e-05
2.89388744862e-06
4.87574727046e-06
4.1752743047e-06
4.54806546768e-06
6.15771380069e-06
2.27695690491e-07
4.88167167602e-07
1.15766709323e-05
1.14199217158e-05
4.86523334376e-06
4.26544341173e-06
5.36502863406e-06
6.19285276462e-06
2.51450654346e-06
2.0921529683e-06
1.18221029238e-07
2.76091715781e-06
1.41924974052e-05
1.04549909706e-06
2.73992278661e-06
4.9600713848e-07
6.35430941204e-07
6.3424017358e-07
7.66206456318e-08
2.68888850151e-08
1.12900457343e-05
1.43903375958e-05
6.02852088329e-08
7.79378476836e-08
1.58570710957e-08
2.41548794932e-08
6.12234576106e-08
1.85378028465e-07
5.20277781135e-07
2.8846928864e-07
7.22905794596e-09
1.42863111234e-08
4.12614688121e-08
9.6528174035e-09
9.15846366528e-09
7.78374740275e-09
4.84676378593e-06
4.57217511207e-06
6.78158227913e-07
8.23151918488e-07
1.85857623671e-07
1.92639042951e-07
4.9448833515e-06
4.55023082934e-06
1.21977358744e-06
2.84075073912e-06
1.83889365282e-05
1.74930493931e-05
7.52079645668e-06
1.05747330114e-07
2.11175402033e-07
7.15260091711e-06
2.63873309313e-05
4.82933928108e-06
3.32281970405e-05
5.0483485636e-06
1.37040628437e-05
9.24954769416e-08
3.51616426826e-07
1.50255432698e-07
5.34255949567e-07
2.32825940865e-05
1.56715419757e-07
1.00475708614e-07
3.66468873805e-07
8.54646767588e-08
3.48519589849e-07
6.06450879685e-07
2.14020515594e-08
5.91855454337e-07
9.75318724855e-06
8.4268714697e-06

