# vtk DataFile Version 3.0
File Name: Molecule/sphere_excent/sphere_excent_0-s21.vtk
ASCII
DATASET UNSTRUCTURED_GRID
FIELD FieldData 1
TIME 1 1 double
0.0
POINTS 215 double
-0.018288768828 1.7063068151 1.0403063297
-1.0844453573 1.473159194 0.80700391531
-0.60954165459 1.1805485487 1.4934203625
-1.6656304598 1.1010006666 0.11670770496
-1.6681274176 0.63793307543 0.89754849672
0.64999932051 -1.1599824429 1.4939688444
0.014165056869 -1.7132999897 1.0316358805
0.84317672253 -1.6679472923 0.71086460352
0.4596363306 -1.2251791954 -1.5128023624
-0.020535189658 -1.722407937 -1.0162347555
-0.46752038598 -1.0839993954 -1.6123610735
1.6117014885 -0.41044199467 1.106916666
1.5349621773 0.49799567461 1.1815901995
1.1178047657 0.11354894936 1.6532250643
0.84460091591 1.0071237087 1.5024908781
-0.73835772276 -1.7576329708 -0.60252571106
0.012751417235 -1.9996979237 0.019373903051
-1.1081846952 -1.6626622677 0.050539743155
-0.81929558516 -1.6737933159 0.72584927082
-0.67411381006 -1.271786809 1.3881152868
-1.9644086361 0.27060925961 0.24400502443
0.83163154125 -1.6620649099 -0.73729628325
1.1245620251 -1.6513584852 0.039418809116
0.0053434185684 1.9990308285 0.048349544406
-0.57279711962 1.8802416325 0.36962434649
-0.52710592747 1.8914017677 -0.37956345081
-1.0993804932 1.6704292297 0.029214302078
-1.1837154627 1.4693361521 -0.66209846735
-0.019871819764 1.7392600775 -0.98688673973
0.23590934277 1.9129137993 -0.53066301346
0.57725542784 1.9090815783 -0.14559565485
0.54659247398 1.8807774782 0.4020755887
1.0281168222 1.7079138756 0.15174821019
0.91327995062 1.5652284622 0.84546679258
1.6667048931 0.78606396914 -0.77306556702
1.3581318855 1.1847293377 -0.86705183983
1.6743944883 1.0624136925 -0.2468304038
1.1741932631 0.97188550234 -1.2945809364
0.87037611008 1.2706155777 -1.2757256031
1.806556344 -0.85707050562 0.016383204609
1.90388906 -0.40037378669 -0.4635052979
1.9827624559 -0.21244642138 0.13142561913
1.625382185 -0.70705443621 -0.92193418741
1.7508747578 -0.17868517339 -0.94987988472
1.938637495 0.21679343283 -0.42886841297
1.040858984 -0.073105059564 -1.7061698437
0.81701892614 -0.54646617174 -1.739597559
0.54378962517 -0.04253911227 -1.9238202572
0.2374381274 -0.60013979673 -1.8925099373
-0.02163903974 0.038785580546 -1.9994931221
1.1124479771 -1.0167399645 -1.3090720177
1.4509139061 0.78562939167 -1.1288354397
0.9225448966 0.91823744774 -1.5178588629
1.1076899767 0.66959971189 -1.5241562128
1.3623818159 -0.42789131403 -1.3996964693
1.5070284605 -0.10167476535 -1.3082921505
1.5050392151 -0.5611473918 -1.1886475086
-0.43488514423 0.60742270947 1.8551394939
-0.85249769688 0.48933291435 1.7413607836
-0.34153488278 0.17609232664 1.9609926939
-1.2043628693 -0.11081092805 1.5917767286
-0.97479212284 -0.63105469942 1.6275128126
-0.69073075056 -0.0011469759047 1.8759185076
-0.40190067887 -0.52092379332 1.8880163431
-1.094925642 0.020641334355 -1.6709058285
-1.3764075041 -0.3177690506 -1.4156243801
-1.3737677336 0.38787972927 -1.400788784
-1.6560611725 0.047693520784 -1.1172395945
-1.5201562643 0.82825553417 -0.99929481745
-1.7506850958 0.48742216825 -0.83031708002
-0.99401563406 1.1610176563 -1.2895488739
-0.86306911707 0.59581142664 -1.7016694546
-1.283413291 -1.1506963968 1.0132772923
-1.5980719328 -0.50055408478 1.0932286978
-0.356870085 -0.44757211208 -1.9161630869
-0.52423733473 0.038887370378 -1.9288668633
-0.89202928543 -0.57492053509 -1.6929577589
-0.30269399285 0.54714542627 -1.8991066217
0.35665696859 0.47115442157 -1.9094213247
-0.52257508039 0.99425721169 -1.6544879675
0.19607885182 1.0066124201 -1.7162300348
-1.330111146 -0.83623981476 -1.2352864742
0.47259843349 0.47433108091 1.8842512369
1.8675402403 0.2980786562 0.64234101772
1.714923501 0.81149059534 0.6296222806
1.3691889048 1.3842540979 0.45112526417
1.3547809124 1.1139963865 0.96105915308
-0.26599526405 1.4161258936 -1.386698842
-0.6129193902 1.6386204958 -0.96859312057
0.40087780356 1.5011972189 -1.2570332289
1.950725317 0.4144898355 0.10535208881
0.027069235221 0.90341937542 1.7825191021
-0.029682476074 0.35904350877 1.9664802551
0.25442174077 -0.021591432393 1.98341465
-1.6555463076 -1.107003808 0.18106821179
-1.392100811 -1.3660248518 0.44233423471
-1.6530703306 -0.95757651329 0.5910679698
1.6844582558 -0.96520668268 -0.48055747151
1.3800698519 -1.1898686886 -0.8239890933
1.3634870052 -1.4048945904 -0.40678334236
-1.5043481588 -1.3173251152 -0.019526800141
-1.3843256235 -1.4080212116 -0.31552729011
1.3073147535 -1.1295399666 1.0052268505
1.0133429766 -0.57439726591 1.6250772476
1.7227869034 -0.84314543009 0.56509703398
1.4402040243 -1.3224020004 0.42011672258
-1.6921863556 -0.90921264887 -0.55148625374
-1.7066389322 -1.0287722349 -0.16993497312
-1.8377659321 -0.74993950129 -0.24511517584
-1.8151906729 -0.82715582848 0.14409196377
-1.9247214794 -0.5404458642 0.057374488562
1.5505461693 -1.261276722 -0.067595854402
-1.8549697399 -0.55373519659 0.5020326376
-1.5609773397 -1.1804045439 -0.4113881886
-0.031554754823 -1.2241396904 1.5809808969
0.46764469147 -0.52222603559 1.8730365038
0.66927289963 -0.089979596436 1.8824337721
-0.42672276497 -0.92123621702 1.7231081724
-0.018580334261 -0.3457737565 1.9692704678
0.079035311937 -0.81209653616 1.8259695768
-1.6823437214 0.95836937428 -0.50090008974
-1.8790749311 -0.10074124485 0.67231935263
-1.5253504515 0.18714416027 1.2783591747
0.75517356396 1.7763864994 -0.52332985401
1.0746270418 1.6642609835 -0.27230086923
0.52162343264 1.7321609259 -0.85158157349
0.89286535978 1.5270767212 -0.93318659067
1.0956655741 1.5587924719 -0.60734373331
0.61854571104 1.0137069225 -1.6074920893
-1.9732807875 -0.23155890405 0.22597417235
-1.9205815792 -0.49356088042 -0.260322541
-1.8504806757 -0.5229896903 -0.54735136032
-1.8588485718 0.66887146235 -0.30965834856
-1.9982312918 -0.064899638295 -0.035610251129
-1.9733934402 -0.30848410726 -0.10153645277
-1.9786636829 -0.11590215564 -0.26704153419
-1.933827877 -0.31207713485 -0.40236362815
-1.9530318975 0.03389325738 -0.42674472928
-1.984136343 0.13980174065 -0.20632068813
-0.73321735859 -1.4767541885 -1.1322715282
-1.076849699 -1.473095417 -0.81877553463
-0.96707838774 -1.1113103628 -1.3505972624
-1.1839956045 -1.2030504942 -1.0724231005
-1.4835379124 -0.964235425 -0.93183207512
-1.5202050209 -1.1058522463 -0.68237656355
-1.6657813787 -0.78675293922 -0.77611398697
-1.3403086662 -1.2271792889 -0.83516895771
-1.353623271 -1.3452162743 -0.59839051962
-1.1477183104 -1.5629382133 -0.48894011974
-1.1814002991 0.96828979254 1.290322423
1.3748043776 1.3933893442 -0.41013237834
1.3784770966 1.4485484362 -0.040711849928
-1.1056045294 0.25703242421 1.646392107
-1.2809156179 0.5643441081 1.4283448458
-0.86559003592 0.82386344671 1.6039794683
-1.614988327 -0.64364182949 -0.98648118973
-1.9546773434 0.40445104241 -0.11308708787
-1.9369077682 0.31454873085 -0.3864184916
-1.8566726446 0.51584017277 -0.53416281939
-1.8686738014 0.25199854374 -0.66496485472
0.83716851473 0.71464008093 -1.6696835756
0.78537154198 0.49707233906 -1.7701858282
1.0015751123 0.50340366364 -1.6563332081
0.94570910931 0.27790653706 -1.7402739525
1.1251820326 0.30997678638 -1.6239632368
1.2596449852 0.46185693145 -1.4829412699
1.2784297466 0.19353283942 -1.5259513855
1.4027802944 0.3367254138 -1.3851982355
1.3015911579 0.68009901047 -1.3575915098
1.437979579 0.52148616314 -1.2884675264
1.5439127684 0.33398976922 -1.226667881
1.583848834 0.5332416296 -1.0983459949
1.7043545246 0.29250138998 -1.0042648315
1.6049898863 0.11906661838 -1.186712265
1.4503153563 0.14357610047 -1.3693418503
1.3159126043 -0.057188101113 -1.5039067268
0.70023596287 0.24383077025 -1.8573250771
1.1223633289 -0.48827597499 -1.5801155567
0.56680953503 0.73909783363 -1.7697236538
1.8533960581 0.6800417304 0.31861323118
1.8518712521 0.74569499493 -0.096865087748
1.7427306175 0.96209651232 0.19089052081
1.5789031982 1.2187151909 0.14883174002
1.5896368027 1.1126579046 0.48460665345
1.836889267 0.54007452726 -0.57001060247
-0.078800365329 3.6661178456e-05 1.9984424114
-0.32171016932 -0.15010352433 1.9682524204
0.43126419187 1.4147012234 1.345569849
0.41975438595 1.0216060877 1.6679136753
0.028377112001 1.3398156166 1.4846088886
1.8307411671 0.29425886273 -0.74939328432
1.7284804583 0.50786888599 -0.86839169264
-1.6692678928 -0.3023635745 -1.0586218834
-0.72404700518 -0.24100497365 -1.8486478329
-0.83163118362 0.028052531183 -1.8186933994
-0.97890812159 -0.24175219238 -1.7267336845
-0.72009968758 0.2984148562 -1.8414894342
-0.97370326519 0.28005698323 -1.7240142822
-1.8409354687 -0.19735245407 -0.75610399246
-1.7660106421 -0.40570452809 -0.84575164318
-1.8865721226 -0.28456795216 -0.59928297997
-1.770092845 -0.11220055819 -0.92426794767
-1.799099803 0.11596656591 -0.86560833454
-1.8623369932 0.00097164837644 -0.72891932726
-1.904292345 -0.087224036455 -0.60477364063
-1.9418512583 -0.14166013896 -0.45722010732
-1.9133222103 0.10664644837 -0.57257759571
1.2588558197 -0.71961867809 -1.3774385452
1.0016744137 -0.7841245532 -1.5430282354
1.3918712139 -0.85969477892 -1.1503388882
1.9555323124 0.027313947678 0.41810244322
1.8673055172 -0.32252642512 0.63935709
1.7962890863 -0.061126325279 0.87512022257
-1.7469207048 -0.60293549299 -0.76485061646
-1.7774410248 -0.71667718887 -0.57215225697

CELLS 426 1704
3 0 1 2
3 1 3 4
3 5 6 7
3 8 9 10
3 11 12 13
3 12 14 13
3 15 16 17
3 15 9 16
3 18 16 6
3 18 6 19
3 4 3 20
3 9 21 16
3 7 16 22
3 16 7 6
3 8 21 9
3 23 24 0
3 0 24 1
3 23 25 24
3 25 26 24
3 25 27 26
3 24 26 1
3 28 25 29
3 1 26 3
3 26 27 3
3 30 31 32
3 30 23 31
3 32 31 33
3 33 31 0
3 31 23 0
3 34 35 36
3 37 38 35
3 39 40 41
3 42 43 40
3 43 44 40
3 40 44 41
3 45 46 47
3 46 48 47
3 46 8 48
3 47 48 49
3 10 48 8
3 8 50 21
3 34 51 35
3 51 37 35
3 37 52 38
3 52 37 53
3 54 55 56
3 57 58 59
3 60 61 62
3 61 63 62
3 64 65 66
3 65 67 66
3 68 66 69
3 66 70 71
3 19 61 72
3 73 61 60
3 49 74 75
3 74 10 76
3 49 77 78
3 77 79 80
3 49 75 77
3 77 71 79
3 10 74 48
3 48 74 49
3 79 71 70
3 65 76 81
3 14 82 13
3 83 84 12
3 85 33 86
3 84 86 12
3 12 86 14
3 14 86 33
3 28 87 88
3 87 70 88
3 87 79 70
3 88 70 27
3 27 70 68
3 68 70 66
3 79 87 80
3 80 87 89
3 28 88 25
3 25 88 27
3 33 85 32
3 44 90 41
3 57 91 2
3 57 92 91
3 92 82 91
3 92 93 82
3 94 95 96
3 95 72 96
3 95 18 72
3 96 72 73
3 73 72 61
3 19 72 18
3 42 97 98
3 97 99 98
3 98 99 21
3 39 97 40
3 40 97 42
3 50 98 21
3 94 100 95
3 100 17 95
3 100 101 17
3 95 17 18
3 18 17 16
3 7 102 5
3 5 102 103
3 11 102 104
3 102 105 104
3 102 7 105
3 104 105 39
3 41 104 39
3 106 107 108
3 107 109 108
3 107 94 109
3 108 109 110
3 99 22 21
3 21 22 16
3 99 111 22
3 111 105 22
3 111 39 105
3 22 105 7
3 39 111 97
3 97 111 99
3 110 109 112
3 96 109 94
3 94 107 100
3 101 100 113
3 5 114 6
3 6 114 19
3 93 115 116
3 115 103 116
3 115 5 103
3 116 103 13
3 13 103 11
3 11 103 102
3 19 117 61
3 61 117 63
3 93 118 115
3 118 119 115
3 118 63 119
3 115 119 5
3 5 119 114
3 119 117 114
3 119 63 117
3 114 117 19
3 93 116 82
3 82 116 13
3 68 120 27
3 27 120 3
3 20 121 4
3 4 121 122
3 123 30 124
3 30 29 23
3 23 29 25
3 28 29 125
3 29 123 125
3 29 30 123
3 125 123 126
3 38 126 35
3 35 126 127
3 127 126 123
3 126 89 125
3 126 38 89
3 125 89 28
3 28 89 87
3 80 89 128
3 20 129 121
3 129 112 121
3 129 110 112
3 121 112 73
3 73 112 96
3 96 112 109
3 110 130 108
3 108 130 131
3 67 69 66
3 68 69 120
3 120 132 3
3 20 133 129
3 133 134 129
3 133 135 134
3 129 134 110
3 110 134 130
3 134 136 130
3 134 135 136
3 130 136 131
3 137 135 138
3 15 139 9
3 9 139 10
3 15 140 139
3 141 139 142
3 139 141 10
3 10 141 76
3 143 144 145
3 146 147 144
3 147 113 144
3 147 101 113
3 144 113 106
3 146 140 147
3 140 148 147
3 140 15 148
3 147 148 101
3 101 148 17
3 17 148 15
3 106 113 107
3 107 113 100
3 4 149 1
3 1 149 2
3 60 122 73
3 73 122 121
3 127 124 150
3 124 151 150
3 124 32 151
3 150 151 36
3 127 150 35
3 35 150 36
3 60 152 122
3 152 153 122
3 152 58 153
3 122 153 4
3 4 153 149
3 153 154 149
3 153 58 154
3 149 154 2
3 2 154 57
3 154 58 57
3 58 152 62
3 152 60 62
3 141 81 76
3 65 81 155
3 85 151 32
3 132 156 3
3 3 156 20
3 20 156 138
3 156 157 138
3 156 132 157
3 138 157 137
3 32 124 30
3 123 124 127
3 69 158 120
3 158 132 120
3 69 159 158
3 159 157 158
3 158 157 132
3 20 138 133
3 133 138 135
3 146 142 140
3 140 142 139
3 141 142 81
3 142 143 81
3 142 146 143
3 81 143 155
3 144 143 146
3 52 53 160
3 161 162 163
3 162 164 163
3 164 162 165
3 163 164 45
3 45 164 166
3 164 165 166
3 53 165 162
3 166 165 167
3 53 168 165
3 168 169 165
3 168 51 169
3 165 169 167
3 51 168 37
3 37 168 53
3 167 169 170
3 169 171 170
3 169 51 171
3 170 171 172
3 34 171 51
3 172 173 170
3 173 174 170
3 173 55 174
3 170 174 167
3 55 173 43
3 43 173 172
3 167 174 166
3 174 175 166
3 174 55 175
3 166 175 45
3 163 45 176
3 45 175 177
3 175 55 54
3 80 78 77
3 49 78 47
3 52 128 38
3 38 128 89
3 80 128 178
3 128 160 178
3 128 52 160
3 178 160 161
3 80 178 78
3 176 78 161
3 178 161 78
3 78 176 47
3 90 179 83
3 179 84 83
3 90 180 179
3 180 181 179
3 180 36 181
3 179 181 84
3 36 182 181
3 182 183 181
3 182 85 183
3 181 183 84
3 84 183 86
3 86 183 85
3 34 36 184
3 180 90 44
3 92 185 93
3 93 185 118
3 62 59 58
3 59 92 57
3 118 186 63
3 63 186 62
3 62 186 59
3 186 185 59
3 186 118 185
3 59 185 92
3 85 182 151
3 151 182 36
3 161 160 162
3 162 160 53
3 47 176 45
3 163 176 161
3 14 187 188
3 187 189 188
3 187 0 189
3 188 189 91
3 0 187 33
3 33 187 14
3 44 184 180
3 180 184 36
3 172 190 43
3 43 190 44
3 172 191 190
3 191 184 190
3 191 34 184
3 190 184 44
3 155 192 65
3 65 192 67
3 76 193 74
3 74 193 75
3 75 193 194
3 193 195 194
3 193 76 195
3 194 195 64
3 75 196 77
3 196 71 77
3 75 194 196
3 194 197 196
3 194 64 197
3 196 197 71
3 71 197 66
3 66 197 64
3 64 195 65
3 195 76 65
3 91 189 2
3 2 189 0
3 14 188 82
3 82 188 91
3 198 199 200
3 155 199 192
3 199 201 192
3 199 198 201
3 192 201 67
3 67 201 202
3 201 203 202
3 201 198 203
3 202 203 159
3 137 204 205
3 204 200 205
3 204 198 200
3 205 200 136
3 136 200 131
3 131 200 199
3 137 205 135
3 205 136 135
3 137 206 204
3 206 203 204
3 206 159 203
3 204 203 198
3 67 202 69
3 69 202 159
3 159 206 157
3 206 137 157
3 34 191 171
3 171 191 172
3 54 177 175
3 45 177 46
3 54 207 177
3 207 208 177
3 207 50 208
3 177 208 46
3 54 56 207
3 56 209 207
3 56 42 209
3 207 209 50
3 46 208 8
3 208 50 8
3 42 56 43
3 43 56 55
3 41 210 211
3 210 212 211
3 210 83 212
3 211 212 11
3 11 212 12
3 12 212 83
3 83 210 90
3 90 210 41
3 155 145 213
3 145 214 213
3 145 106 214
3 213 214 131
3 50 209 98
3 98 209 42
3 41 211 104
3 104 211 11
3 131 214 108
3 108 214 106
3 106 145 144
3 143 145 155
3 155 213 199
3 199 213 131

CELL_TYPES 426
5
5
5
5
5
5
5
5
5
5
5
5
5
5
5
5
5
5
5
5
5
5
5
5
5
5
5
5
5
5
5
5
5
5
5
5
5
5
5
5
5
5
5
5
5
5
5
5
5
5
5
5
5
5
5
5
5
5
5
5
5
5
5
5
5
5
5
5
5
5
5
5
5
5
5
5
5
5
5
5
5
5
5
5
5
5
5
5
5
5
5
5
5
5
5
5
5
5
5
5
5
5
5
5
5
5
5
5
5
5
5
5
5
5
5
5
5
5
5
5
5
5
5
5
5
5
5
5
5
5
5
5
5
5
5
5
5
5
5
5
5
5
5
5
5
5
5
5
5
5
5
5
5
5
5
5
5
5
5
5
5
5
5
5
5
5
5
5
5
5
5
5
5
5
5
5
5
5
5
5
5
5
5
5
5
5
5
5
5
5
5
5
5
5
5
5
5
5
5
5
5
5
5
5
5
5
5
5
5
5
5
5
5
5
5
5
5
5
5
5
5
5
5
5
5
5
5
5
5
5
5
5
5
5
5
5
5
5
5
5
5
5
5
5
5
5
5
5
5
5
5
5
5
5
5
5
5
5
5
5
5
5
5
5
5
5
5
5
5
5
5
5
5
5
5
5
5
5
5
5
5
5
5
5
5
5
5
5
5
5
5
5
5
5
5
5
5
5
5
5
5
5
5
5
5
5
5
5
5
5
5
5
5
5
5
5
5
5
5
5
5
5
5
5
5
5
5
5
5
5
5
5
5
5
5
5
5
5
5
5
5
5
5
5
5
5
5
5
5
5
5
5
5
5
5
5
5
5
5
5
5
5
5
5
5
5
5
5
5
5
5
5
5
5
5
5
5
5
5
5
5
5
5
5
5
5
5
5
5
5
5
5
5
5
5
5
5
5
5
5
5
5
5
5
5
5
5
5
5
5
5
5
5
5
5
5
5
5
5
5
5
5
5
5
5
5

CELL_DATA 426
SCALARS cell_data_0 double
LOOKUP_TABLE default
1.11234602097e-05
9.59972633729e-07
1.34983024918e-05
6.19115986717e-06
1.55091052116e-05
1.94725967174e-05
2.4068290028e-06
2.17864847421e-07
6.00390601207e-06
1.07509450507e-05
5.31796074502e-06
3.60674337113e-06
4.70864274829e-06
5.48877618184e-06
4.17861907154e-06
1.47766684283e-06
4.57491459463e-07
7.38688704598e-07
2.19734826433e-06
4.22944677337e-07
1.64964958728e-06
9.40454754562e-06
2.6407849707e-06
1.28733521218e-06
1.73121992196e-06
1.23899340999e-06
3.0001020195e-06
6.12940744714e-06
2.35519668879e-06
6.25947391337e-06
4.55959890338e-07
1.94258325323e-05
2.65485861802e-06
1.04821136743e-06
1.06471871159e-05
1.86818723209e-06
1.00427210538e-07
4.48069713951e-07
8.97337095403e-07
3.46861370181e-06
3.75600778362e-05
3.39321693956e-05
1.77510465411e-05
4.19820773971e-06
1.64120122407e-05
7.86888713461e-06
6.90503039533e-06
1.63292583491e-05
1.05490353758e-05
7.23997848268e-06
7.45571615644e-06
2.96436153198e-06
3.65417424846e-06
1.08729392325e-05
1.26410834592e-05
3.36781139249e-07
1.11012814121e-06
6.80588764771e-07
1.72680273267e-06
3.56303857217e-07
2.3898036035e-07
1.61623862527e-06
6.98582944339e-07
2.50627113973e-07
1.86794379994e-07
2.31056153092e-05
1.10736016911e-05
2.12450063018e-06
1.55392801927e-05
1.01590718577e-05
8.0508168207e-06
1.72429211282e-05
5.32814030849e-06
2.09723405811e-06
4.44138074187e-06
6.5957153175e-07
3.91222557935e-06
4.24979751767e-06
2.97717256532e-06
1.5902533703e-05
3.91834213333e-06
2.25207284494e-06
8.66318863597e-06
9.85863524167e-06
7.22689699916e-06
7.84466730481e-06
8.63023224952e-06
7.7827968113e-07
1.99853873047e-06
4.27519926243e-06
4.78956404403e-06
1.04769596893e-05
7.45315073138e-06
3.73403243846e-06
1.8259270787e-08
6.79687492974e-07
1.85950032434e-06
3.05961856379e-06
2.60793325724e-05
6.12316286448e-07
1.1164530517e-06
2.27401465605e-05
4.04686394761e-07
1.76742130014e-06
5.42550701616e-06
2.7854883394e-06
2.11886414057e-06
7.10248799432e-06
4.17249891495e-06
2.76050199197e-06
2.11336783762e-05
6.71323963049e-09
2.85317535751e-07
4.79894080071e-07
1.08684194545e-05
3.37703539903e-07
5.84915713977e-07
2.16197143938e-07
6.82082684528e-08
2.11618346024e-06
2.12055330106e-06
1.98238545371e-06
2.46232354163e-07
1.19780073172e-05
6.64646397011e-07
4.42288201321e-07
1.07089468284e-05
1.32743894703e-05
1.21499899419e-05
9.51626960315e-06
1.63831691305e-05
1.84966249464e-05
1.78259803643e-05
1.66921455785e-05
1.74363306639e-06
1.24773337189e-05
1.63866015693e-05
2.02074594779e-05
1.60513332903e-05
1.77645733726e-05
1.89985079292e-05
1.39376248585e-05
5.67296136557e-06
1.32306714685e-05
8.35303160371e-06
9.00168581864e-06
1.45216221135e-05
7.29235954551e-06
6.3500220864e-06
4.11337617323e-06
6.01864034992e-06
5.86579155842e-07
1.58250893454e-07
3.26979829647e-07
5.99883438416e-06
1.95629259652e-07
5.82753973155e-07
1.60328545383e-08
3.51008165263e-07
2.73996086213e-07
1.23217691089e-08
1.87355700658e-07
1.74320901381e-07
6.24025704678e-06
1.11339842646e-05
6.607644638e-07
1.44494796047e-06
1.22510237354e-06
1.35254817094e-05
3.12057273529e-06
2.74216762727e-06
8.42560929304e-07
8.40741036894e-06
4.29096572871e-06
7.97745898153e-06
3.64439319524e-06
4.03898963494e-06
4.6266096859e-07
6.7868149433e-08
3.29214508196e-06
9.32210419354e-06
6.93734666601e-06
6.64501285647e-08
3.73985835785e-06
3.37844459658e-06
1.59670852037e-05
6.71742151195e-07
4.10078173464e-06
4.51330168665e-08
4.80622344146e-07
1.84999751515e-06
1.73505696218e-06
4.82501281557e-07
2.23164905655e-08
2.07463500755e-07
8.845090689e-06
9.28414765227e-08
1.51529737414e-07
1.40867477937e-07
2.71632822917e-07
9.49026310422e-06
2.30587726518e-05
8.07530337625e-07
7.28565272551e-08
3.23556983321e-07
5.54298839722e-06
8.72413066634e-06
8.36573546583e-06
6.08066095029e-06
2.79256255124e-07
4.74305543579e-07
8.32378132306e-07
6.57804712764e-07
4.02895112942e-07
8.37002064244e-07
6.18479669183e-06
5.20319883625e-06
5.1057941947e-06
4.90695298312e-06
5.16351686511e-06
5.20478542481e-06
6.25182747596e-06
4.45000751753e-06
6.46037866914e-06
4.28508046201e-06
4.71880778419e-06
9.52535019397e-06
7.61989998022e-07
1.99883999921e-06
9.41092511047e-07
6.90110110733e-06
5.29583409668e-06
5.97678706202e-06
8.2487906044e-06
8.71003742869e-06
1.46263718195e-05
1.19178428e-06
1.56931582316e-07
2.60269266821e-06
2.56610127658e-06
3.43964374064e-08
1.9751957014e-06
2.82785853656e-06
1.48844704436e-06
5.86517475178e-06
3.3621277761e-07
3.0590993523e-07
6.35674896736e-07
3.93083963464e-07
2.88700306229e-07
1.30281479662e-06
9.54068045302e-08
1.26760668298e-05
2.48354586738e-06
4.26888166596e-09
1.49092060058e-08
4.595180556e-07
4.62232643201e-07
5.7841985232e-08
5.53618622002e-06
4.23136654249e-06
4.86941764946e-06
6.82167587462e-08
6.75864627522e-06
3.85345512583e-06
9.83699492705e-06
6.86055544788e-06
3.48170247067e-06
6.89358150788e-08
7.12421585009e-06
1.09936744374e-07
2.08559115465e-05
9.40769122705e-08
5.7829650047e-08
5.44366569714e-08
3.61885981182e-06
1.6425882557e-07
2.18794342047e-07
3.81079635047e-06
3.55429144868e-08
3.7864419851e-08
5.40633473797e-07
6.37865706573e-07
1.18090345379e-06
7.47529587467e-06
1.04636152279e-06
7.72859227583e-07
4.87883544523e-06
1.77417830247e-07
5.07832706254e-07
3.18780526815e-08
3.06949913443e-06
2.96506699686e-06
6.38159432356e-07
5.04418761154e-06
5.32572538159e-06
7.2129935082e-08
1.30160938335e-06
6.9050461641e-06
7.75608580595e-07
6.97850047491e-07
7.34193094198e-07
5.41214278293e-06
5.69912648016e-07
4.90266103445e-07
1.43181155027e-07
6.72209619331e-06
1.08356118607e-05
8.07462881246e-07
1.10852731672e-05
1.12730812635e-06
5.68912937916e-06
1.19114146141e-05
7.35466660219e-06
5.73726128318e-06
1.26387333348e-05
6.24132523267e-06
5.49422655609e-06
4.3709284572e-06
9.59443407083e-06
4.64561865424e-06
6.9863738436e-08
4.89603399959e-07
2.48336453254e-06
5.8006277899e-06
1.15815301891e-06
2.7743838447e-06
1.98167638839e-06
1.77868754253e-05
5.30704384188e-06
8.44024940432e-06
7.15896497041e-06
8.27293689466e-06
1.56404715184e-06
1.60023528795e-06
3.8834740694e-06
4.74235691151e-06
4.53374442895e-06
9.04431718415e-06
1.03583498081e-05
5.87178582737e-06
1.03468206022e-06
1.76044902546e-06
1.84508466064e-09
1.58880314292e-09
6.26587490752e-08
4.47677158828e-08
3.85109960228e-10
9.75770269145e-07
1.26711983872e-07
1.60875391673e-07
1.31646907265e-08
1.5488336621e-08
9.55249656061e-07
6.9296916129e-08
1.54456374247e-06
4.08747554071e-06
1.47315979686e-06
1.92445947937e-07
1.18546376163e-05
4.32608247958e-06
1.29334344391e-05
1.68739823454e-05
7.62398903755e-08
4.12564763082e-07
1.19301694955e-07
9.27523399236e-08
6.7944625809e-07
5.82103799331e-07
6.5193641645e-08
5.19162026804e-08
5.74862068086e-08
3.03540226864e-06
5.61431836274e-08
2.7401250095e-08
5.45670621845e-08
2.74768177407e-06
3.68487374228e-06
7.78977593049e-06
2.07002125489e-06
3.46875704295e-06
3.4242528436e-08
5.56539244796e-08
1.74783430261e-08
1.32590039548e-06
3.70634732407e-08
1.23764908795e-06
8.16062218654e-06
5.58996040924e-06
1.24922720806e-06
9.73203472242e-06
1.25476610876e-06
7.51130965339e-06
2.35053120868e-07
5.5854550973e-06
1.6935799168e-07
6.75387472104e-06
3.67689556011e-08
1.10025210997e-06
4.92071281526e-06
3.87117801547e-07
1.39893786009e-05
1.75867380581e-06
3.2669127026e-07
4.01866852858e-06
1.0013064194e-06
1.34588867109e-06
1.64488295816e-06
4.8449913619e-06
3.47495934877e-06
1.32889441128e-06
3.95665376017e-06
7.8389587244e-07
2.42039765854e-07
4.13021466878e-07
2.5590598431e-06
8.86817149293e-06
2.40864977714e-06
1.00388603306e-05
2.68770011579e-06
3.85659340197e-06
4.31846706716e-09
5.53352232032e-07
1.33956430636e-06
2.55233445341e-07
2.88358454136e-06

