# vtk DataFile Version 3.0
File Name: Molecule/sphere_dip_12/sphere_dip_12_0-s2.vtk
ASCII
DATASET UNSTRUCTURED_GRID
FIELD FieldData 1
TIME 1 1 double
0.0
POINTS 51 double
0.850650808352 -0.525731112119 0.0
0.809016994375 -0.309016994375 -0.5
1.0 0.0 0.0
0.809016994375 0.309016994375 -0.5
0.525731112119 0.0 -0.850650808352
0.850650808352 0.525731112119 0.0
0.5 0.809016994375 -0.309016994375
0.309016994375 0.5 -0.809016994375
0.0 0.850650808352 -0.525731112119
0.5 0.809016994375 0.309016994375
0.0 1.0 0.0
0.0 0.850650808352 0.525731112119
-0.5 0.809016994375 0.309016994375
-0.5 0.809016994375 -0.309016994375
-0.850650808352 0.525731112119 0.0
-0.309016994375 0.5 0.809016994375
-0.809016994375 0.309016994375 0.5
-0.525731112119 0.0 0.850650808352
0.309016994375 0.5 0.809016994375
0.0 0.0 1.0
0.525731112119 0.0 0.850650808352
-0.309016994375 -0.5 0.809016994375
0.309016994375 -0.5 0.809016994375
0.0 -0.850650808352 0.525731112119
0.309016994375 -0.5 -0.809016994375
0.0 0.0 -1.0
-0.309016994375 -0.5 -0.809016994375
0.0 -0.850650808352 -0.525731112119
-0.525731112119 0.0 -0.850650808352
0.809016994375 0.309016994375 0.5
-0.809016994375 -0.309016994375 -0.5
-0.809016994375 0.309016994375 -0.5
-1.0 0.0 0.0
-0.850650808352 -0.525731112119 0.0
-0.309016994375 0.5 -0.809016994375
-0.5 -0.809016994375 -0.309016994375
-0.5 -0.809016994375 0.309016994375
0.0 -1.0 0.0
-0.809016994375 -0.309016994375 0.5
0.5 -0.809016994375 -0.309016994375
0.5 -0.809016994375 0.309016994375
0.433888564553 -0.259891913008 0.862668480416
0.69378047756 -0.16062203564 0.702046444776
0.587785252292 -0.425325404176 0.688190960236
0.809016994375 -0.309016994375 0.5
0.425325404176 -0.688190960236 0.587785252292
0.688190960236 -0.587785252292 0.425325404176
0.862668480416 -0.433888564553 0.259891913008
0.702046444776 -0.69378047756 0.16062203564
0.850650808352 0.0 0.525731112119
0.69378047756 0.16062203564 0.702046444776

CELLS 98 392
3 0 1 2
3 1 3 2
3 1 4 3
3 2 3 5
3 5 3 6
3 3 7 6
3 3 4 7
3 6 7 8
3 5 6 9
3 6 10 9
3 6 8 10
3 9 10 11
3 11 10 12
3 10 13 12
3 10 8 13
3 12 13 14
3 11 12 15
3 12 16 15
3 12 14 16
3 15 16 17
3 11 15 18
3 15 19 18
3 15 17 19
3 18 19 20
3 17 21 19
3 21 22 19
3 21 23 22
3 4 24 25
3 24 26 25
3 24 27 26
3 25 26 28
3 2 5 29
3 5 9 29
3 9 18 29
3 9 11 18
3 28 30 31
3 30 32 31
3 30 33 32
3 31 32 14
3 8 34 13
3 34 31 13
3 34 28 31
3 13 31 14
3 33 35 36
3 35 37 36
3 35 27 37
3 36 37 23
3 33 36 38
3 36 21 38
3 36 23 21
3 38 21 17
3 17 16 38
3 16 32 38
3 16 14 32
3 38 32 33
3 28 26 30
3 26 35 30
3 26 27 35
3 30 35 33
3 27 39 37
3 39 40 37
3 37 40 23
3 4 1 24
3 1 39 24
3 1 0 39
3 24 39 27
3 4 25 7
3 25 34 7
3 25 28 34
3 7 34 8
3 22 41 19
3 19 41 20
3 20 41 42
3 41 43 42
3 41 22 43
3 42 43 44
3 22 45 43
3 45 46 43
3 45 40 46
3 43 46 44
3 40 45 23
3 23 45 22
3 44 46 47
3 46 48 47
3 46 40 48
3 47 48 0
3 44 47 2
3 2 47 0
3 29 49 2
3 2 49 44
3 44 49 42
3 49 50 42
3 49 29 50
3 42 50 20
3 20 50 18
3 18 50 29
3 0 48 39
3 39 48 40

CELL_TYPES 98
5
5
5
5
5
5
5
5
5
5
5
5
5
5
5
5
5
5
5
5
5
5
5
5
5
5
5
5
5
5
5
5
5
5
5
5
5
5
5
5
5
5
5
5
5
5
5
5
5
5
5
5
5
5
5
5
5
5
5
5
5
5
5
5
5
5
5
5
5
5
5
5
5
5
5
5
5
5
5
5
5
5
5
5
5
5
5
5
5
5
5
5
5
5
5
5
5
5

CELL_DATA 98
SCALARS cell_data_0 double
LOOKUP_TABLE default
3.33203972838e-05
0.00011014845656
0.000139516008289
3.17999310853e-05
2.6956248636e-05
0.000276339714093
0.00032071826969
0.000220648423624
0.000217667799338
0.000243191965245
1.45543369366e-05
0.000263966242832
0.0006794638914
0.000713369628914
1.77307722823e-05
0.000461704455598
0.000590294325542
0.000664007886088
0.000508289790725
2.1560453726e-06
2.38333967666e-05
2.75643824875e-05
4.60544112625e-06
0.000330388939767
0.00165202984836
0.00295865445886
0.00226675180251
0.000889479873727
0.000958333664529
0.000347354763293
0.000770836704547
8.95926264742e-05
0.000155430370611
2.27956279718e-05
0.000112810286231
0.000104355390889
0.000206392309648
2.16315004479e-05
0.000280847234957
0.000223299648266
2.72444971343e-05
0.000298826145154
0.000290978658088
6.23068406722e-06
4.96962450368e-06
3.78176575883e-06
2.91320432457e-05
5.31871039953e-06
0.00194950927192
0.00167939515112
0.00144103660495
4.29961725398e-06
9.13037937542e-05
8.68787267177e-05
2.54520413422e-05
0.000345457672656
0.000227789247584
0.000140797826511
6.75543331318e-05
3.92626432939e-05
0.000551902696781
0.000430714273439
0.000333643800586
0.000278546591045
5.79213643702e-05
0.000180634123681
0.000882320031064
0.000892799015217
0.000728698179437
0.000356205401875
0.000193305857509
0.000212686961697
7.45388758931e-05
1.45922870906e-05
6.46360176744e-05
1.47458029174e-05
8.54126238192e-05
5.38473141353e-06
0.000125114627406
1.69738497012e-05
0.000199460383176
0.00014161298714
1.79597058729e-05
8.200901366e-07
0.000103926078252
1.58775074218e-06
4.45909347494e-05
1.07026457544e-05
1.57815780449e-05
5.4383599156e-05
1.86472847565e-05
1.94265809189e-06
4.23190026819e-06
8.60909491259e-05
0.000117906930399
2.22780538781e-05
6.11030314242e-06
0.000223360550522

