# vtk DataFile Version 3.0
File Name: Molecule/sphere_dip_12/sphere_dip_12_0-s5.vtk
ASCII
DATASET UNSTRUCTURED_GRID
FIELD FieldData 1
TIME 1 1 double
0.0
POINTS 82 double
0.850650808352 -0.525731112119 0.0
0.809016994375 -0.309016994375 -0.5
1.0 0.0 0.0
0.809016994375 0.309016994375 -0.5
0.525731112119 0.0 -0.850650808352
0.850650808352 0.525731112119 0.0
0.5 0.809016994375 -0.309016994375
0.309016994375 0.5 -0.809016994375
0.0 0.850650808352 -0.525731112119
0.5 0.809016994375 0.309016994375
0.0 1.0 0.0
0.0 0.850650808352 0.525731112119
-0.309016994375 0.5 0.809016994375
0.309016994375 0.5 0.809016994375
0.0 0.0 1.0
0.525731112119 0.0 0.850650808352
0.309016994375 -0.5 -0.809016994375
0.0 0.0 -1.0
-0.309016994375 -0.5 -0.809016994375
0.0 -0.850650808352 -0.525731112119
-0.525731112119 0.0 -0.850650808352
0.809016994375 0.309016994375 0.5
-0.809016994375 -0.309016994375 -0.5
-0.809016994375 0.309016994375 -0.5
-1.0 0.0 0.0
-0.850650808352 -0.525731112119 0.0
-0.309016994375 0.5 -0.809016994375
-0.5 0.809016994375 -0.309016994375
-0.850650808352 0.525731112119 0.0
-0.5 -0.809016994375 -0.309016994375
-0.5 -0.809016994375 0.309016994375
0.0 -1.0 0.0
0.5 -0.809016994375 -0.309016994375
0.5 -0.809016994375 0.309016994375
0.0 -0.850650808352 0.525731112119
0.433888564553 -0.259891913008 0.862668480416
0.69378047756 -0.16062203564 0.702046444776
0.587785252292 -0.425325404176 0.688190960236
0.309016994375 -0.5 0.809016994375
0.809016994375 -0.309016994375 0.5
0.425325404176 -0.688190960236 0.587785252292
0.688190960236 -0.587785252292 0.425325404176
0.862668480416 -0.433888564553 0.259891913008
0.702046444776 -0.69378047756 0.16062203564
0.850650808352 0.0 0.525731112119
0.69378047756 0.16062203564 0.702046444776
-0.273266528913 0.0 0.961938357784
-0.525731112119 0.0 0.850650808352
-0.433888564553 -0.259891913008 0.862668480416
-0.162459848116 -0.26286555606 0.951056516295
-0.309016994375 -0.5 0.809016994375
0.0 -0.525731112119 0.850650808352
0.162459848116 -0.26286555606 0.951056516295
-0.16062203564 -0.702046444776 0.69378047756
0.16062203564 -0.702046444776 0.69378047756
-0.259891913008 -0.862668480416 0.433888564553
-0.688190960236 -0.587785252292 0.425325404176
-0.809016994375 -0.309016994375 0.5
-0.425325404176 -0.688190960236 0.587785252292
-0.587785252292 -0.425325404176 0.688190960236
-0.69378047756 -0.16062203564 0.702046444776
-0.702046444776 0.69378047756 0.16062203564
-0.425325404176 0.688190960236 0.587785252292
-0.5 0.809016994375 0.309016994375
-0.688190960236 0.587785252292 0.425325404176
-0.587785252292 0.425325404176 0.688190960236
-0.809016994375 0.309016994375 0.5
-0.862668480416 0.433888564553 0.259891913008
-0.433888564553 0.259891913008 0.862668480416
-0.69378047756 0.16062203564 0.702046444776
-0.961938357784 0.273266528913 0.0
-0.951056516295 0.162459848116 0.26286555606
-0.850650808352 0.0 0.525731112119
-0.951056516295 -0.162459848116 0.26286555606
0.0 0.961938357784 0.273266528913
-0.259891913008 0.862668480416 0.433888564553
-0.26286555606 0.951056516295 0.162459848116
-0.26286555606 0.951056516295 -0.162459848116
-0.525731112119 0.850650808352 0.0
0.162459848116 0.26286555606 -0.951056516295
-0.162459848116 0.26286555606 -0.951056516295
0.0 0.525731112119 -0.850650808352

CELLS 160 640
3 0 1 2
3 1 3 2
3 1 4 3
3 2 3 5
3 5 3 6
3 3 7 6
3 3 4 7
3 6 7 8
3 5 6 9
3 6 10 9
3 6 8 10
3 11 12 13
3 12 14 13
3 13 14 15
3 4 16 17
3 16 18 17
3 16 19 18
3 17 18 20
3 2 5 21
3 5 9 21
3 9 13 21
3 9 11 13
3 20 22 23
3 22 24 23
3 22 25 24
3 8 26 27
3 26 23 27
3 26 20 23
3 27 23 28
3 25 29 30
3 29 31 30
3 29 19 31
3 20 18 22
3 18 29 22
3 18 19 29
3 22 29 25
3 19 32 31
3 32 33 31
3 31 33 34
3 4 1 16
3 1 32 16
3 1 0 32
3 16 32 19
3 14 35 15
3 15 35 36
3 35 37 36
3 35 38 37
3 36 37 39
3 38 40 37
3 40 41 37
3 40 33 41
3 37 41 39
3 33 40 34
3 39 41 42
3 41 43 42
3 41 33 43
3 42 43 0
3 39 42 2
3 2 42 0
3 21 44 2
3 2 44 39
3 39 44 36
3 44 45 36
3 44 21 45
3 36 45 15
3 15 45 13
3 13 45 21
3 0 43 32
3 32 43 33
3 12 46 14
3 47 48 46
3 48 49 46
3 48 50 49
3 46 49 14
3 50 51 49
3 51 52 49
3 51 38 52
3 49 52 14
3 50 53 51
3 53 54 51
3 53 34 54
3 51 54 38
3 34 55 31
3 31 55 30
3 30 56 25
3 25 56 57
3 30 58 56
3 58 59 56
3 58 50 59
3 56 59 57
3 30 55 58
3 55 53 58
3 55 34 53
3 58 53 50
3 57 59 60
3 59 48 60
3 59 50 48
3 60 48 47
3 14 52 35
3 35 52 38
3 38 54 40
3 40 54 34
3 28 61 27
3 11 62 12
3 63 64 62
3 64 65 62
3 64 66 65
3 62 65 12
3 63 61 64
3 61 67 64
3 61 28 67
3 64 67 66
3 12 65 68
3 65 69 68
3 65 66 69
3 68 69 47
3 24 70 23
3 23 70 28
3 66 71 72
3 71 73 72
3 71 24 73
3 72 73 57
3 66 67 71
3 67 70 71
3 67 28 70
3 71 70 24
3 57 73 25
3 73 24 25
3 12 68 46
3 46 68 47
3 66 72 60
3 60 72 57
3 47 69 60
3 60 69 66
3 10 74 9
3 9 74 11
3 11 74 75
3 74 76 75
3 74 10 76
3 75 76 63
3 10 77 76
3 77 78 76
3 77 27 78
3 76 78 63
3 27 77 8
3 8 77 10
3 17 79 4
3 4 79 7
3 17 80 79
3 80 81 79
3 80 26 81
3 79 81 7
3 26 80 20
3 20 80 17
3 7 81 8
3 81 26 8
3 63 78 61
3 61 78 27
3 11 75 62
3 62 75 63

CELL_TYPES 160
5
5
5
5
5
5
5
5
5
5
5
5
5
5
5
5
5
5
5
5
5
5
5
5
5
5
5
5
5
5
5
5
5
5
5
5
5
5
5
5
5
5
5
5
5
5
5
5
5
5
5
5
5
5
5
5
5
5
5
5
5
5
5
5
5
5
5
5
5
5
5
5
5
5
5
5
5
5
5
5
5
5
5
5
5
5
5
5
5
5
5
5
5
5
5
5
5
5
5
5
5
5
5
5
5
5
5
5
5
5
5
5
5
5
5
5
5
5
5
5
5
5
5
5
5
5
5
5
5
5
5
5
5
5
5
5
5
5
5
5
5
5
5
5
5
5
5
5
5
5
5
5
5
5
5
5
5
5
5
5

CELL_DATA 160
SCALARS cell_data_0 double
LOOKUP_TABLE default
6.56145819162e-05
0.00037405187794
0.000168565381636
0.00050477279416
0.000433973644103
0.000420475157811
0.000171991220159
9.41486723963e-06
0.00210691910247
0.0032825130066
0.000315333485261
3.39863811211e-05
0.000262918161838
6.55422277609e-05
0.000914801769431
0.000861110041747
0.000341681711066
0.000722009065973
0.000183967680192
0.00201087730652
0.00222067178296
0.00203555740454
0.000271455135071
0.000126155334177
1.75550571055e-05
1.26777458228e-05
3.9438791477e-05
0.000415080976365
0.000249488950627
2.78501775321e-05
1.14157781642e-05
2.38907970595e-05
0.000371234756351
0.00029376631399
0.000192120705367
8.01393639301e-05
4.01028379211e-05
4.89262902847e-05
5.95689841067e-06
0.000317264971549
0.000269200007565
5.34834532353e-05
0.000171811359496
1.69740468027e-07
5.98173464187e-05
2.02194584385e-05
4.64191253018e-05
7.61922405011e-07
8.66960351508e-05
4.68993506504e-05
5.75897088363e-05
5.53032246907e-05
4.30292532736e-06
8.29825927384e-05
0.000107425498676
7.59540547386e-05
4.45617116561e-05
9.87717249021e-05
7.4385385163e-05
0.000163771422459
0.000163654901328
3.55659676371e-05
3.33687976415e-05
5.9762824439e-05
9.41868526383e-05
0.000217885511173
4.19943326037e-05
1.46896218761e-05
2.07156820774e-05
0.000146753927187
1.75168028382e-05
3.53724290827e-05
2.10807844281e-05
6.9384909145e-05
4.2971143698e-05
6.44349948763e-05
2.68676272475e-05
7.92110734841e-05
1.95229261265e-05
1.75562869518e-05
6.8205139796e-06
5.53962292172e-05
4.93339474866e-06
2.44141387263e-05
3.87110790862e-05
1.41870401523e-05
3.10866694848e-05
3.76412024592e-06
1.10891086188e-05
1.96889064233e-06
2.29190663114e-05
7.95755588091e-07
7.66494969253e-07
8.27977480277e-06
6.31101013719e-06
2.75200244611e-06
2.11651443004e-06
4.39258971466e-06
6.18568432666e-05
1.9768822967e-05
7.48214211472e-05
1.58282847906e-06
0.000182380793308
8.79484604393e-06
2.57611717686e-05
2.49038918447e-06
2.34651626461e-05
1.36828755732e-05
2.36473575459e-05
3.15260031554e-06
5.30282853348e-07
2.26959172387e-05
9.822801114e-06
4.16393797996e-06
1.82921917046e-05
1.17462871395e-05
5.47164536007e-06
2.38268858326e-05
2.2008880685e-05
5.86288169686e-07
1.79663434754e-05
2.37060368662e-06
1.72725653975e-05
1.61400721905e-06
3.11644506446e-08
1.48818210273e-05
3.01357701655e-06
2.78680023974e-05
3.27186451224e-05
2.74807698241e-05
1.06059439686e-05
9.82517009626e-07
1.26257736399e-05
1.29190204883e-05
0.00132312499213
0.000978885786164
1.89485232677e-05
4.06479596017e-07
9.22816097737e-05
1.80604228163e-05
0.000108240825376
1.71381284333e-06
0.000116806108528
2.03110925603e-05
0.000136241779921
0.000134333042449
0.000507860104796
5.19253916078e-05
0.000281477364831
2.63755006982e-05
9.35531542726e-05
3.3028056114e-05
0.000314838673258
0.000508837919425
1.83217727011e-05
0.000149778374689
1.88459723338e-05
9.98206123711e-05
1.47699639552e-05
1.76643855901e-05

