# vtk DataFile Version 3.0
File Name: Molecule/sphere_dip_12/sphere_dip_12_0-s4.vtk
ASCII
DATASET UNSTRUCTURED_GRID
FIELD FieldData 1
TIME 1 1 double
0.0
POINTS 74 double
0.850650808352 -0.525731112119 0.0
0.809016994375 -0.309016994375 -0.5
1.0 0.0 0.0
0.809016994375 0.309016994375 -0.5
0.525731112119 0.0 -0.850650808352
0.850650808352 0.525731112119 0.0
0.5 0.809016994375 -0.309016994375
0.309016994375 0.5 -0.809016994375
0.0 0.850650808352 -0.525731112119
0.5 0.809016994375 0.309016994375
0.0 1.0 0.0
0.0 0.850650808352 0.525731112119
-0.5 0.809016994375 0.309016994375
-0.5 0.809016994375 -0.309016994375
-0.309016994375 0.5 0.809016994375
0.309016994375 0.5 0.809016994375
0.0 0.0 1.0
0.525731112119 0.0 0.850650808352
0.309016994375 -0.5 -0.809016994375
0.0 0.0 -1.0
-0.309016994375 -0.5 -0.809016994375
0.0 -0.850650808352 -0.525731112119
-0.525731112119 0.0 -0.850650808352
0.809016994375 0.309016994375 0.5
-0.809016994375 -0.309016994375 -0.5
-0.809016994375 0.309016994375 -0.5
-1.0 0.0 0.0
-0.850650808352 -0.525731112119 0.0
-0.309016994375 0.5 -0.809016994375
-0.850650808352 0.525731112119 0.0
-0.5 -0.809016994375 -0.309016994375
-0.5 -0.809016994375 0.309016994375
0.0 -1.0 0.0
0.5 -0.809016994375 -0.309016994375
0.5 -0.809016994375 0.309016994375
0.0 -0.850650808352 0.525731112119
0.433888564553 -0.259891913008 0.862668480416
0.69378047756 -0.16062203564 0.702046444776
0.587785252292 -0.425325404176 0.688190960236
0.309016994375 -0.5 0.809016994375
0.809016994375 -0.309016994375 0.5
0.425325404176 -0.688190960236 0.587785252292
0.688190960236 -0.587785252292 0.425325404176
0.862668480416 -0.433888564553 0.259891913008
0.702046444776 -0.69378047756 0.16062203564
0.850650808352 0.0 0.525731112119
0.69378047756 0.16062203564 0.702046444776
-0.273266528913 0.0 0.961938357784
-0.525731112119 0.0 0.850650808352
-0.433888564553 -0.259891913008 0.862668480416
-0.162459848116 -0.26286555606 0.951056516295
-0.309016994375 -0.5 0.809016994375
0.0 -0.525731112119 0.850650808352
0.162459848116 -0.26286555606 0.951056516295
-0.16062203564 -0.702046444776 0.69378047756
0.16062203564 -0.702046444776 0.69378047756
-0.259891913008 -0.862668480416 0.433888564553
-0.688190960236 -0.587785252292 0.425325404176
-0.809016994375 -0.309016994375 0.5
-0.425325404176 -0.688190960236 0.587785252292
-0.587785252292 -0.425325404176 0.688190960236
-0.69378047756 -0.16062203564 0.702046444776
-0.702046444776 0.69378047756 0.16062203564
-0.425325404176 0.688190960236 0.587785252292
-0.688190960236 0.587785252292 0.425325404176
-0.587785252292 0.425325404176 0.688190960236
-0.809016994375 0.309016994375 0.5
-0.862668480416 0.433888564553 0.259891913008
-0.433888564553 0.259891913008 0.862668480416
-0.69378047756 0.16062203564 0.702046444776
-0.961938357784 0.273266528913 0.0
-0.951056516295 0.162459848116 0.26286555606
-0.850650808352 0.0 0.525731112119
-0.951056516295 -0.162459848116 0.26286555606

CELLS 144 576
3 0 1 2
3 1 3 2
3 1 4 3
3 2 3 5
3 5 3 6
3 3 7 6
3 3 4 7
3 6 7 8
3 5 6 9
3 6 10 9
3 6 8 10
3 9 10 11
3 11 10 12
3 10 13 12
3 10 8 13
3 11 14 15
3 14 16 15
3 15 16 17
3 4 18 19
3 18 20 19
3 18 21 20
3 19 20 22
3 2 5 23
3 5 9 23
3 9 15 23
3 9 11 15
3 22 24 25
3 24 26 25
3 24 27 26
3 8 28 13
3 28 25 13
3 28 22 25
3 13 25 29
3 27 30 31
3 30 32 31
3 30 21 32
3 22 20 24
3 20 30 24
3 20 21 30
3 24 30 27
3 21 33 32
3 33 34 32
3 32 34 35
3 4 1 18
3 1 33 18
3 1 0 33
3 18 33 21
3 4 19 7
3 19 28 7
3 19 22 28
3 7 28 8
3 16 36 17
3 17 36 37
3 36 38 37
3 36 39 38
3 37 38 40
3 39 41 38
3 41 42 38
3 41 34 42
3 38 42 40
3 34 41 35
3 40 42 43
3 42 44 43
3 42 34 44
3 43 44 0
3 40 43 2
3 2 43 0
3 23 45 2
3 2 45 40
3 40 45 37
3 45 46 37
3 45 23 46
3 37 46 17
3 17 46 15
3 15 46 23
3 0 44 33
3 33 44 34
3 14 47 16
3 48 49 47
3 49 50 47
3 49 51 50
3 47 50 16
3 51 52 50
3 52 53 50
3 52 39 53
3 50 53 16
3 51 54 52
3 54 55 52
3 54 35 55
3 52 55 39
3 35 56 32
3 32 56 31
3 31 57 27
3 27 57 58
3 31 59 57
3 59 60 57
3 59 51 60
3 57 60 58
3 31 56 59
3 56 54 59
3 56 35 54
3 59 54 51
3 58 60 61
3 60 49 61
3 60 51 49
3 61 49 48
3 16 53 36
3 36 53 39
3 39 55 41
3 41 55 35
3 29 62 13
3 13 62 12
3 12 63 11
3 11 63 14
3 12 64 63
3 64 65 63
3 64 66 65
3 63 65 14
3 12 62 64
3 62 67 64
3 62 29 67
3 64 67 66
3 14 65 68
3 65 69 68
3 65 66 69
3 68 69 48
3 26 70 25
3 25 70 29
3 66 71 72
3 71 73 72
3 71 26 73
3 72 73 58
3 66 67 71
3 67 70 71
3 67 29 70
3 71 70 26
3 58 73 27
3 73 26 27
3 14 68 47
3 47 68 48
3 66 72 61
3 61 72 58
3 48 69 61
3 61 69 66

CELL_TYPES 144
5
5
5
5
5
5
5
5
5
5
5
5
5
5
5
5
5
5
5
5
5
5
5
5
5
5
5
5
5
5
5
5
5
5
5
5
5
5
5
5
5
5
5
5
5
5
5
5
5
5
5
5
5
5
5
5
5
5
5
5
5
5
5
5
5
5
5
5
5
5
5
5
5
5
5
5
5
5
5
5
5
5
5
5
5
5
5
5
5
5
5
5
5
5
5
5
5
5
5
5
5
5
5
5
5
5
5
5
5
5
5
5
5
5
5
5
5
5
5
5
5
5
5
5
5
5
5
5
5
5
5
5
5
5
5
5
5
5
5
5
5
5
5
5

CELL_DATA 144
SCALARS cell_data_0 double
LOOKUP_TABLE default
3.40208458837e-05
7.85908625744e-05
0.000114971721529
0.000107931566685
0.000109831072465
3.25241483379e-05
0.000163790262501
7.74623683864e-05
0.000229384602671
0.000676307826006
0.000298875221766
0.000626609949132
0.00293493758999
0.00422545239945
0.000652732898187
3.12640244689e-05
0.000212884531706
4.62384867851e-05
0.000861706556363
0.000847878195372
0.000363719273104
0.000709776868091
9.49760720349e-05
0.000165600750948
2.90300028808e-05
0.000117434133502
0.00024523677609
0.000124236255876
2.61588628793e-05
3.63210378731e-06
4.25641014917e-05
0.000419384843306
0.000179987078819
1.7015520149e-06
2.73063918926e-05
9.10600012329e-06
0.000360016216593
0.000271158461336
0.000200604577288
4.8425292587e-05
8.60108841599e-07
0.000440407661066
0.000415757285399
0.000335019564627
0.000287478341506
8.74497422516e-05
0.000194570049498
0.00111823174592
0.00150513371723
0.000828503780223
0.000466777764342
3.63787778887e-05
5.57774015397e-05
2.06784197065e-05
2.17311787317e-05
7.61233604217e-06
1.52045482431e-05
3.11204684966e-06
0.000122240086626
5.19190282649e-07
0.000171327959061
5.11738430328e-05
7.94882947439e-05
0.00014062480427
6.94103018075e-05
9.66346321478e-05
9.45936500146e-05
6.5186728407e-05
5.96641380488e-05
1.33393000846e-05
4.22747639125e-05
5.92055874314e-05
0.000119757239794
0.000197432008595
2.12446353106e-05
1.77808431021e-05
0.000229009980032
9.32531766546e-05
3.11556210276e-05
2.84095980992e-05
1.405351664e-05
4.32337639824e-05
2.4271515932e-06
5.1443484597e-05
4.30130580693e-05
5.921672683e-05
5.37243178712e-06
1.79993419513e-05
7.79029616223e-06
1.9736882609e-05
2.37763548913e-05
3.10732309111e-05
1.72265702375e-05
7.16044895827e-06
1.43527231387e-05
7.28033274212e-06
1.63657297844e-05
5.21051553291e-06
1.17020285409e-05
1.85343927339e-06
2.22767914149e-06
6.7998322892e-06
3.88578532085e-06
4.41761071643e-06
1.44659471393e-05
1.57272758992e-05
5.71902992349e-05
3.42476244052e-05
1.14257100061e-05
5.91362392209e-06
0.000154338347311
0.00135334023078
0.00103020553781
4.58271887085e-05
0.000581804046466
2.73124712429e-06
0.000128538904152
4.34934570032e-06
0.000503695079314
5.19227034173e-06
2.07389878223e-06
0.000111921291286
8.66663537152e-06
4.06526669037e-06
0.000105693097779
1.1469126706e-05
2.68625938873e-05
2.46076194561e-05
0.000123837387971
5.90279020802e-07
1.55811567217e-06
1.27459935383e-06
0.000101949602715
1.46781141174e-06
3.20716639673e-08
1.49173318069e-06
2.40379784578e-06
1.98646607158e-06
1.6464471067e-05
3.03216285628e-05
8.98018857422e-05
4.04320626853e-06
1.38031985038e-05
9.34207911262e-05

