# vtk DataFile Version 3.0
File Name: Molecule/special/special_0-s16.vtk
ASCII
DATASET UNSTRUCTURED_GRID
FIELD FieldData 1
TIME 1 1 double
0.0
POINTS 307 double
0.85205429792 -0.52302277088 -0.013515176252
0.80648982525 -0.31205645204 -0.49922668934
0.99535703659 -0.0059054661542 -0.08812238276
0.86722177267 0.2579228878 -0.42451003194
0.87138819695 0.48492965102 -0.067303918302
-0.87129551172 -0.26075059175 -0.41539889574
-0.99991357327 0.0011466955766 -0.0059634898789
-0.86579465866 0.22741782665 -0.44235673547
-0.85090267658 -0.52285373211 -0.020072806627
-0.86013031006 0.50793123245 -0.014359825291
-0.45225277543 -0.85794728994 -0.23568573594
-0.012517241761 -0.85912698507 -0.50871711969
0.022616952658 -0.99779784679 -0.030460806563
-0.87958526611 0.29533150792 0.37183889747
-0.88554704189 -0.31933200359 0.33543893695
0.50062972307 -0.8101413846 -0.3041882515
0.53037428856 -0.81613302231 0.22209715843
0.62244361639 -0.38790407777 -0.67668157816
-0.00022987107513 0.52989041805 -0.84696191549
-0.16476120055 0.3569508791 -0.91931891441
-0.18484929204 0.59667098522 -0.78095960617
-0.13360059261 0.18141159415 -0.97399574518
-0.0018009321066 0.28827959299 -0.95742833614
0.12742465734 0.17633846402 -0.97574079037
0.1495603472 0.34747356176 -0.92466652393
-0.024838395417 0.54152482748 0.84001553059
0.1079987213 0.44247660041 0.89025312662
0.18148754537 0.55630791187 0.81092762947
0.28547343612 0.42930400372 0.85684740543
0.37820401788 0.53384137154 0.75627744198
0.47304531932 0.34309273958 0.81137663126
0.25374221802 -0.10731431097 -0.96126365662
0.1331461221 -0.32887473702 -0.93474978209
-0.0013501228532 -0.16654485464 -0.98599028587
0.01038140431 -0.54241389036 -0.83897197247
-0.12743775547 -0.3218409121 -0.93746811152
-0.25109776855 -0.10549054295 -0.96211200953
-0.41078454256 0.0698992908 -0.90893220901
-0.52171587944 -0.081548847258 -0.84839618206
-0.70831477642 -0.16345894337 -0.68568462133
-0.73839461803 0.13432045281 -0.65938776731
-0.59727275372 -0.44021040201 -0.67046970129
-0.29965850711 -0.54974323511 -0.77942240238
-0.42442858219 -0.70533365011 -0.56707125902
-0.69537520409 -0.592030406 -0.40730807185
-0.0066208611242 -0.71361863613 -0.6982024312
0.094115704298 0.0034065200016 -0.99547934532
0.26901546121 0.11342080683 -0.95632487535
0.25639435649 0.30195099115 -0.91813242435
-0.094071663916 0.0040212376043 -0.99549090862
-0.0013911256101 0.12264432758 -0.99235141277
-0.31659436226 0.27807450294 -0.90688049793
-0.26076853275 0.098985470831 -0.96009010077
-0.44695448875 0.71758210659 -0.53342324495
-0.7014054656 0.5858142972 -0.40588763356
-0.46302869916 0.85186630487 -0.24407035112
-0.19325836003 0.3669244051 0.90988570452
-0.12359767407 0.24643057585 0.96122902632
-0.037965252995 0.38476523757 0.92219316959
0.0058924192563 0.17184433341 0.9851038456
0.0068444628268 0.27419683337 0.96164524555
-0.091291755438 0.12881231308 0.98744755983
0.12952788174 0.21932573617 0.96701878309
-0.012367902324 0.067741565406 0.99763143063
0.094557367265 0.10419554263 0.99004614353
0.055966313928 0.0029384538066 0.99842053652
-0.047284275293 -0.045098938048 0.99785542488
-0.1054116115 0.036579038948 0.99375879765
-0.095007821918 -0.14159432054 0.98536270857
-0.16075016558 -0.054821599275 0.98538774252
-0.34526643157 0.090685129166 0.93388092518
-0.20531097054 0.11789149046 0.97132486105
-0.26436457038 0.22273670137 0.9383431673
0.14715059102 0.023749737069 0.98881304264
0.21456064284 0.11532058567 0.96986532211
0.08911010623 0.33137959242 0.93927294016
0.20536832511 0.32692313194 0.92245751619
0.39339059591 0.15362223983 0.90639948845
0.2958162725 0.035459686071 0.95394843817
0.71175903082 0.17002588511 -0.68134117126
0.7156471014 -0.14905393124 -0.68028074503
0.70284724236 0.58302098513 -0.40761885047
0.50418150425 0.82565248013 -0.24403968453
0.62633723021 0.43082302809 -0.64847749472
0.52803850174 0.26475673914 -0.80687147379
0.58896797895 0.0086746895686 -0.80699276924
0.96352601051 -0.15107415617 0.22080497444
0.85230916739 -0.32428479195 0.40982475877
0.95530188084 0.16802182794 0.2427059859
0.87537539005 -0.0040136980824 0.48357215524
0.80772072077 0.3118981719 0.50034576654
-0.38495570421 0.20719577372 0.89929682016
-0.32057642937 0.31694248319 0.89259648323
0.75028139353 -0.16922020912 0.63858914375
0.33056205511 0.29400140047 0.89676934481
0.25412127376 0.22118628025 0.9415678978
0.42115756869 0.056471254677 -0.90500867367
0.44964587688 -0.22090131044 -0.86409687996
0.36396607757 0.26143610477 -0.89289540052
0.70396059752 0.69608664513 0.13976293802
0.84899759293 0.45843446255 0.26250120997
0.69049191475 0.59774756432 0.4073112607
0.46785074472 0.84198260307 0.26851013303
0.49985975027 0.7112044692 0.4942368865
0.59531468153 0.5005120039 0.62844979763
-0.9109429121 -0.01719282195 0.41157472134
-0.58132135868 0.07002453506 -0.80999523401
-0.47502082586 0.29082766175 -0.83043283224
-0.31825760007 0.48576751351 -0.81239837408
-0.23629461229 -0.34275892377 0.9091438055
-0.10888823122 -0.32510071993 0.93937075138
-0.16333083808 -0.23759102821 0.95751363039
-0.044010203332 -0.23581665754 0.97078335285
0.0083021316677 -0.32874709368 0.94424378872
0.071991629899 -0.21546199918 0.97381585836
0.0011777211912 -0.14538529515 0.98935621977
-0.81542605162 -0.19339571893 0.5457136035
-0.80039799213 0.076816804707 0.5943903327
-0.70500189066 -0.1562012434 0.69164294004
-0.73556751013 0.37903642654 0.56146687269
-0.66202229261 0.17551642656 0.72854548693
-0.63245594501 -0.041017841548 0.77298879623
-0.73074394464 0.5740904212 0.36932110786
0.18792928755 -0.74148267508 0.64426553249
0.23674277961 -0.87219691277 0.4252961576
0.39881700277 -0.72889500856 0.55532330275
-0.03057301417 -0.85878640413 0.51098400354
-0.73175817728 -0.58431565762 0.34997361898
0.7223751545 0.11441075057 0.68163311481
-0.49816218019 -0.82436722517 0.26727390289
-0.56519341469 -0.65152543783 0.50577145815
-0.74581485987 -0.41210913658 0.5230011344
-0.60315537453 -0.47193199396 0.64214092493
-0.55675524473 0.65631198883 0.50860762596
-0.59004938602 0.48709052801 0.64216566086
-0.50065517426 0.81842768192 0.28126451373
-0.5806401372 0.36564445496 0.72726392746
0.64822667837 0.30373963714 0.6982473731
0.5526971221 0.18701590598 0.81232184172
0.54034936428 0.024653511122 0.84108901024
0.20006473362 0.68984025717 0.69561421871
0.40158802271 0.01616307348 0.91564595699
-0.18952378631 -0.14675010741 0.9708262682
-0.37908264995 -0.10801766068 0.91900706291
-0.27065253258 -0.095804587007 0.95788484812
-0.36694309115 -0.013918213546 0.93013781309
0.391602844 0.6669242382 0.63376349211
0.30948525667 0.82343971729 0.47456526756
-0.27753689885 -0.207434237 0.93805497885
-0.67659986019 -0.31404441595 0.66495144367
-0.31985488534 0.56458061934 0.76084142923
-0.21017713845 0.70300674438 0.67892408371
-0.43000781536 0.63405805826 0.64254534245
-0.33998638391 0.76856851578 0.54181468487
0.72915434837 -0.58840328455 0.3487277627
-0.33220845461 -0.7766917944 0.5347635746
-0.32054159045 -0.5706577301 0.75605452061
-0.1513055414 -0.58663874865 0.79565012455
-0.26007753611 -0.47301885486 0.8417956233
-0.14343968034 -0.44024139643 0.88632255793
-0.003713125363 -0.70472890139 0.70947122574
-0.19088052213 -0.71841984987 0.66874325275
0.0040671667084 -0.57493633032 0.81816869974
0.51462686062 -0.15981936455 0.84223014116
0.63702821732 -0.083607144654 0.76630526781
0.60870403051 -0.26355746388 0.74787586927
0.47697338462 -0.32906726003 0.81410104036
0.71918261051 -0.41521561146 0.55684942007
0.56964021921 -0.45915111899 0.68186962605
0.58882313967 -0.64046877623 0.49222913384
0.37829649448 -0.28736826777 0.87972831726
0.16161265969 -0.58364647627 0.79568892717
0.3860912621 -0.86053317785 0.33165565133
-0.43244186044 -0.63691264391 0.63820594549
0.15330569446 0.94223117828 0.2975025773
-0.034911438823 0.88258582354 0.46813365817
-0.056811023504 0.96095663309 0.27073758841
-0.24624225497 0.88669413328 0.39139041305
-0.26550507545 0.95358264446 0.14166851342
-0.013104569167 0.99872988462 -0.01371794194
0.26070609689 -0.45949548483 0.84892445803
0.14676731825 -0.44412747025 0.88390314579
0.3317989409 -0.56335574389 0.75531548262
0.20273970068 -0.34589123726 0.91609489918
0.34272742271 -0.084173873067 0.9356533885
0.4406299293 -0.075720466673 0.89447939396
0.36599138379 -0.17113339901 0.91461718082
-0.46814092994 -0.50128597021 0.7276968956
-0.39706373215 -0.43962156773 0.80568772554
-0.51754033566 -0.35363471508 0.77873969078
-0.4705735743 0.51067847013 0.71951520443
-0.44358098507 0.41847676039 0.79249364138
-0.52445858717 0.28138005733 0.80354177952
0.059083297849 0.64238214493 0.7640504241
-0.088094986975 0.64719873667 0.75718396902
-0.0076781883836 0.73009061813 0.68319135904
-0.41720473766 0.32233259082 0.84972655773
-0.33325099945 0.42339387536 0.84239327908
0.22123713791 0.77604454756 0.59058189392
0.069102838635 0.79835611582 0.59811198711
0.13417989016 0.85529577732 0.49973785877
-0.12663672864 0.80181419849 0.58376944065
-0.17859780788 0.56863856316 0.80287432671
0.2575840354 0.95774894953 -0.12508919835
0.26423126459 0.9589291811 0.10414596647
0.47276458144 0.88104230165 0.01839341037
-0.25507280231 -0.95671969652 0.1387065649
-0.25009942055 -0.89253240824 0.3752220571
-0.032954975963 -0.96113300323 0.27371898293
-0.23590426147 0.4806612134 0.84462720156
-0.12845744193 0.46956306696 0.87351769209
0.18148720264 -0.12337752432 0.97560673952
0.18974590302 -0.22066396475 0.95668542385
0.26819980145 -0.16593076289 0.9489659667
0.28588086367 -0.25923895836 0.92253094912
-0.57463574409 -0.19794668257 0.79407554865
-0.51042538881 -0.12116591632 0.85119390488
-0.46832728386 -0.24849000573 0.84733635187
-0.53262042999 0.015939045697 0.84599334002
-0.5375161767 0.16013649106 0.827886343
0.30864605308 -0.3044924736 -0.90112441778
0.40978968143 -0.42981317639 -0.80401617289
0.25584301353 -0.45693236589 -0.85170519352
0.37243503332 -0.60252779722 -0.70502799749
0.10756079108 -0.063728481531 0.99214076996
0.095460355282 -0.13818655908 0.98574876785
[...]
CELL_DATA 610
SCALARS cell_data_0 double
LOOKUP_TABLE default
1.6973688803e-06
8.33341511859e-07
1.09896635037e-06
4.208256299e-07
1.25651303588e-06
6.3595419915e-07
1.29901452341e-06
1.25777223834e-06
1.45157199668e-06
9.9061835101e-07
1.62374086395e-06
2.3044185842e-07
1.22512138537e-06
7.5854557398e-07
4.36088143848e-07
2.33662266734e-07
7.33509199926e-07
6.27661742317e-07
5.46248970809e-07
1.37771083725e-07
7.69083752185e-07
1.17505780167e-06
1.51698913391e-07
1.73110805002e-07
7.71595678301e-08
1.60239200339e-07
2.01346694414e-06
9.90081081094e-08
1.47591235012e-07
8.58401822161e-07
3.1524731738e-07
3.2119808249e-07
5.92052535283e-07
2.90497127348e-07
1.37594493349e-07
2.58340259445e-07
3.89153071853e-07
1.01830989606e-06
1.2959431176e-06
4.51762697886e-08
1.03783058853e-06
1.24016761e-07
9.97651840131e-07
6.79428895815e-07
3.95945044332e-08
1.20365682739e-07
2.28538427255e-09
1.26176873184e-06
5.41651968499e-07
1.37852755649e-07
4.58670617367e-07
5.56668910571e-07
9.94485394758e-07
2.92262387334e-07
6.158688385e-07
5.43728500041e-07
7.51619422653e-07
2.23505580637e-07
8.81764868394e-08
3.56258853975e-07
1.24057760321e-06
1.11050473902e-07
8.33490674585e-07
2.36181133597e-07
8.10261057019e-07
4.89669492376e-07
1.85447636628e-07
1.35132909842e-07
5.88359162811e-07
5.53278881785e-08
4.90550075454e-07
2.84453976288e-07
5.60736119305e-07
4.60694653741e-07
1.41774446169e-07
6.58868929339e-07
1.03915110248e-06
1.51713333639e-06
4.05775698391e-07
7.72350763623e-07
6.3653785789e-07
1.36841703239e-07
4.42261225091e-07
5.1007352692e-07
6.53170920111e-08
4.83542796106e-07
4.22592403683e-07
1.03392163649e-06
3.18509574792e-07
7.42625530063e-07
4.34940125132e-07
1.16506725881e-06
6.46949150699e-07
7.12949350753e-07
5.6644179746e-07
1.09670707509e-07
5.28452839526e-07
4.33181971384e-07
3.08590208165e-07
1.96669561062e-07
2.5866520516e-08
9.72921143943e-08
1.28762773676e-06
1.24778097354e-06
5.78762123787e-07
5.74204421914e-07
5.86620159637e-07
2.19278336503e-07
2.65286249812e-07
1.274626314e-07
1.26323972006e-07
8.76786883761e-07
1.63713204779e-07
1.08226217979e-06
3.44237975266e-07
4.572355177e-07
4.96845549007e-07
1.35197135599e-09
5.47555602437e-07
5.81877651367e-07
1.0710006278e-06
4.94395025726e-07
1.87158977801e-07
2.59462313275e-07
9.32379038761e-08
7.63946919763e-07
1.49994485807e-07
1.45423114564e-07
1.18400191642e-08
2.31731882604e-07
8.90120365997e-07
8.16835871117e-07
3.7717806648e-07
3.14067040845e-07
4.48538440308e-08
1.10577225692e-06
8.45841200965e-07
5.88912803981e-07
6.74647897531e-07
8.4924988397e-09
3.41414296163e-07
4.62345297398e-07
8.33560025542e-07
4.0495630223e-08
5.13475344654e-07
4.58714060683e-07
2.29759870985e-07
1.75528254644e-07
5.7676929391e-07
5.87017958152e-08
2.77186806354e-07
1.00086612088e-06
1.17946787448e-07
7.9494386304e-07
4.41679279263e-07
7.7369903958e-07
9.93218510851e-07
1.89398217508e-07
3.2931080047e-09
4.77878529178e-07
7.11758929629e-07
1.03167567331e-06
3.7690915614e-07
3.72299404819e-07
2.45748805434e-07
6.62948588652e-07
1.34878657565e-06
6.29896189053e-07
5.34921932417e-07
1.24236131311e-08
1.60813281661e-07
3.77575842962e-07
4.86313609522e-07
1.38087258225e-07
1.56180311415e-07
2.49955995634e-07
3.64604125018e-07
7.23279463855e-07
5.92709142887e-07
2.33321866626e-07
3.66825063697e-07
4.04756319752e-07
4.90300309645e-07
1.8873954643e-07
4.34330313616e-09
4.41436236036e-07
7.3749752798e-07
9.11466602661e-08
3.52421065195e-07
6.36345281661e-07
1.17633914208e-07
7.95929738452e-07
9.81536791962e-08
3.23397604819e-07
2.50066638516e-07
2.06176348872e-07
2.18365661291e-07
3.53113721992e-07
6.42349557146e-08
4.99796533337e-07
4.35034398487e-07
2.03860611944e-07
1.57773161872e-07
7.2147667292e-07
5.11602956102e-07
5.70056871256e-07
5.52285505227e-07
3.93013251237e-07
9.7487632632e-08
9.27180505662e-07
1.0503229869e-06
8.97438727046e-07
1.16382752666e-09
1.0638427274e-06
6.9764544175e-07
5.38164893527e-07
3.59979962871e-07
2.88118673292e-07
1.90755068348e-07
9.81454327511e-07
1.15711457303e-07
6.35723961833e-07
5.65155684533e-07
7.62943988871e-07
3.41054290436e-07
4.51785127213e-07
6.01716380014e-09
2.99040093169e-08
3.78480557281e-08
1.23839297424e-07
9.8516678542e-08
1.35399381198e-07
1.36949551677e-08
2.97051755381e-08
5.13940497641e-07
3.7890094749e-07
2.61326944189e-07
9.07932675396e-08
4.15796743885e-07
2.30796738286e-08
8.52203940134e-08
3.91771730708e-08
1.29044651296e-07
1.01105840576e-06
1.52285379828e-07
3.02170305e-08
2.93187995043e-07
3.06919851996e-07
2.92903072471e-07
5.43413732223e-07
3.64601663636e-07
8.08965774111e-08
2.27384423329e-07
1.26967717033e-07
5.87152060212e-07
3.49887605927e-07
5.50109924216e-07
3.07431203164e-07
7.43867786322e-07
9.41495099062e-07
4.64750802433e-07
6.73014224165e-07
1.114481405e-07
2.19382570631e-08
3.75606976729e-07
4.66461373617e-08
1.52955396621e-07
1.76950399052e-07
3.17784402346e-08
2.08766708288e-07
4.3765032432e-07
3.54870971871e-07
3.02835451654e-07
1.96717392821e-07
9.31585109361e-09
4.238928138e-07
2.60316346913e-07
3.75383134399e-07
5.39721233141e-07
8.83857085325e-08
1.37969787363e-07
2.11380550252e-07
2.70697887467e-08
2.14892607164e-07
3.92472991966e-08
3.0408661632e-07
1.86577462161e-07
4.88240105162e-08
2.89129632782e-07
1.97736074021e-08
6.07680484241e-08
5.25322241916e-07
2.52320431646e-07
1.14639066122e-07
1.53884049152e-07
1.42286830393e-07
3.63625051179e-07
5.75525199206e-09
4.74003042026e-07
5.13245709279e-07
9.07556665199e-08
1.2020505331e-07
2.68971280464e-07
1.14798910552e-07
1.5127793572e-07
4.184925283e-07
1.50294951473e-07
3.87181121685e-07
7.59090767832e-08
1.68697918672e-07
4.6451611945e-07
6.43991963114e-08
3.74072677888e-08
8.27464966097e-07
4.70081259003e-07
2.31366917589e-08
1.54665723244e-07
4.12305736918e-07
1.34315682552e-07
3.02671619359e-07
4.38065873117e-07
2.07963617572e-07
5.70476573844e-08
2.08324891737e-07
3.71294984272e-08
3.60456513839e-08
1.24906118363e-07
3.94955936297e-07
2.27967877105e-07
2.24598212118e-07
3.01596055036e-07
1.16854069405e-08
9.58628542161e-08
1.82394387912e-07
5.09417935029e-07
5.34476975976e-07
9.97755922745e-08
1.50246699919e-07
5.98559548415e-07
4.24470340034e-07
6.61247999109e-07
1.52089369681e-07
6.51148319939e-08
2.3029191903e-07
4.10423251667e-08
1.38202228857e-07
2.40437326098e-07
7.02778065994e-08
3.64841980361e-07
8.92564843115e-08
2.29335845738e-07
7.38392326007e-08
1.22573734975e-08
2.00336661298e-07
1.16279132474e-07
2.5768510838e-07
6.15875514346e-08
1.73835724335e-07
2.31635977653e-07
6.06878920257e-08
9.44300118445e-08
8.97423946625e-08
2.07649882791e-07
3.98967866048e-07
1.1887080974e-07
4.32476677371e-07
3.24924879575e-07
1.57782523752e-07
3.09517658919e-07
3.18242104501e-07
3.80249120815e-08
2.51846228235e-07
2.45745759567e-09
4.43986148727e-07
2.87091851452e-07
3.70352440369e-07
3.20314216747e-07
8.09453123902e-07
1.33910465064e-08
1.70243462462e-07
1.79813877306e-07
4.12018592771e-07
2.07356216542e-07
2.53913154579e-07
2.23582292896e-07
1.07491922031e-07
3.17915848434e-08
1.32276594826e-07
2.97549718106e-07
1.30615096026e-07
1.30715927352e-07
1.85778368207e-07
3.16308480387e-07
2.1665941421e-08
1.00747897693e-07
3.46811313096e-07
7.18955615056e-07
4.97639070807e-07
1.20189465091e-07
5.64885375745e-07
2.34820884507e-07
3.26436193889e-08
6.4281660707e-08
1.39375756123e-07
1.40902834925e-09
2.43628075427e-07
2.22867193754e-07
5.54790727321e-07
8.39320129086e-09
3.52118542953e-07
3.40838300697e-07
2.49996451248e-07
6.91500479109e-08
4.57949349564e-07
2.47515993159e-07
2.00283482958e-07
3.02130277569e-07
1.37921534147e-07
2.15791886119e-07
4.04309033384e-07
1.40597323743e-07
5.67314850704e-07
5.51366264671e-08
3.94679735769e-07
7.12289511163e-07
4.84816276667e-07
4.5959907924e-07
4.20182034703e-08
2.21201680621e-07
8.3938616467e-08
1.80894536298e-07
8.28484149244e-08
1.49016569562e-07
3.15516397192e-08
3.2027468379e-07
3.99114298725e-07
5.15466277035e-07
4.8634054446e-08
1.9569371479e-07
9.62839327282e-08
1.78617374664e-07
4.36831268302e-08
2.32053504117e-07
6.12232147728e-08
2.50162510815e-08
6.93119657253e-08
3.36223203435e-07
3.22094541021e-07
5.01485781697e-08
2.12908934819e-07
7.88497071213e-08
4.9635123041e-08
2.42509980434e-07
1.19371275645e-06
6.42887562937e-07
7.42532842805e-08
1.21710024624e-07
2.26437440712e-07
1.97552269516e-07
2.07576759895e-07
1.16338313505e-07
1.90985034026e-07
1.00001828593e-07
7.79166574789e-09
3.12333202565e-07
8.3812572205e-08
1.93639515201e-07
6.21830949294e-08
3.08644504e-07
5.31460933713e-08
2.86568665082e-07
2.16287064455e-07
2.72044491723e-08
1.51304282442e-07
1.25969936818e-07
2.63614657433e-07
3.31160252508e-07
4.02554950516e-07
2.23472864365e-07
5.75830642641e-08
1.68441570418e-07
2.71847730079e-07
4.00283909668e-07
9.45534061643e-07
8.2010364258e-08
1.8340532812e-07
4.89865236682e-07
3.90924132758e-08
1.41020552565e-07
2.39921894582e-07
5.50388155938e-07
2.04865463977e-07
2.79191680394e-07
7.90909478304e-07
5.46011426091e-07
3.96955836598e-07
5.07682443163e-07
6.5203248878e-07
7.41105059497e-08
1.36363802176e-07
5.42960364116e-07
7.34627291005e-08
7.42130884723e-07
5.25642230378e-08
1.09973801291e-07
1.69044208502e-07
1.01581933557e-07
1.00967147602e-07
1.26020666473e-07
9.86470419595e-09
4.36285993071e-08
1.36653453782e-07
5.89222618161e-07
1.3148255544e-08
4.380867941e-07
1.46712563986e-07
1.75428550691e-07
5.71638769328e-08
2.86643722627e-07
3.16557937733e-07
2.16281041352e-07
2.48817943312e-07
2.66826220792e-07
6.51046346159e-07
1.40151762544e-07
5.89587196229e-08
9.18038878582e-07
1.42884862412e-07
1.74660415385e-08
1.82860446384e-07
1.65828657956e-07
2.71687420774e-08
3.39603574913e-07
1.38792256921e-07
4.09021529772e-07
4.13812624815e-07
2.00213164211e-07
4.91764279281e-07
4.23491794106e-07
2.72398105404e-08
1.7670030317e-07
1.07002215741e-07
8.88997562818e-09
1.77062133843e-07
3.48018277194e-07
4.17672369333e-08
5.05554773431e-07
1.03676854429e-06
8.89461543793e-08
1.51843253053e-07
3.7679050181e-07
1.33520189527e-06
6.29182019483e-07
4.56008132487e-07
7.70373201747e-07
5.63543456218e-07
3.40284567685e-07
5.32584577544e-07
5.70349488023e-08
3.06773719928e-07
4.03916221632e-07
8.45052567537e-08
3.62779624554e-08
3.47239700199e-07
2.01200189736e-07
1.90562278642e-07
1.26292825001e-07
2.95789574337e-07
6.29033916168e-07
1.56721402213e-07
2.98495768133e-07
9.18393662109e-08
6.3625347257e-08
7.06504738056e-08
2.39617292523e-07
3.83821017005e-07
1.21571772458e-07
1.09743484137e-07
3.17545557665e-08
4.6983008323e-07
6.06939538341e-08
4.63975912855e-08
7.0694211968e-08
5.38239445465e-07
1.89485401836e-07
5.40960202148e-09
1.21426000431e-07
2.98826538475e-07
1.42098397425e-07
5.12836623247e-07
1.61744408878e-07
1.12512643218e-07
2.95631972806e-08
2.41600347338e-07
4.81334881038e-07
4.72727900866e-07
6.07025369249e-07
4.89852511895e-08
2.12127965745e-07
6.36082528437e-08
5.53799475515e-08
5.55806997341e-07
1.7331078212e-07
1.00605134219e-07
2.31733982104e-07
3.08773559466e-08
6.52294143647e-08
1.91178543239e-07
2.40164858181e-08
1.00985206386e-07

