# vtk DataFile Version 3.0
File Name: Molecule/special/special_0-s7.vtk
ASCII
DATASET UNSTRUCTURED_GRID
FIELD FieldData 1
TIME 1 1 double
0.0
POINTS 93 double
0.85060483217 -0.52579796314 -0.001403812319
0.80872672796 -0.30878791213 -0.50031608343
0.99997854233 0.00028365192702 -0.00097000261303
0.81074172258 0.30783692002 -0.49795791507
0.53076207638 0.014485936612 -0.84617203474
0.85068827868 0.52566403151 7.2403228842e-05
0.50064700842 0.80967652798 -0.30621859431
0.36852017045 0.51936912537 -0.77082443237
0.00061382015701 0.84945291281 -0.52749329805
0.50053018332 0.8096242547 0.30691608787
-3.112731747e-06 0.99990987778 -4.4881722715e-05
2.0275880161e-05 0.84949934483 0.5274399519
-0.50050681829 0.80920088291 0.30784198642
-0.50047111511 0.80966281891 -0.3063904345
-0.85072261095 0.52562505007 -0.00021813916101
-0.33271107078 0.53520321846 0.77540916204
-0.82527905703 0.3002358675 0.47545734048
0.31929329038 -0.5434743166 0.77578562498
-0.00026480830275 -0.8502215147 0.5264955759
0.50068700314 -0.80913519859 0.30763632059
0.83704656363 -0.30652374029 0.45219326019
0.81023842096 0.30760854483 0.49872678518
0.36921584606 0.54698354006 0.74950319529
-0.81970643997 -0.30052062869 -0.48391491175
-0.99996471405 7.64663273e-05 -0.001505965367
-0.81052750349 0.30771446228 -0.49826294184
-0.85051256418 -0.52588248253 -0.0019155323971
-0.36803805828 0.51951545477 -0.77084922791
-0.52150923014 0.019076056778 -0.85047483444
-0.49328771234 -0.81601023674 -0.295720011
-0.50060993433 -0.80896002054 0.30810824037
0.0001799131569 -0.99992573261 0.00021987094078
-0.00027864123695 -0.85058671236 -0.52577340603
-0.83661681414 -0.30778998137 0.45045974851
-0.31981870532 -0.54265266657 0.77605909109
0.49993887544 -0.80914473534 -0.30863550305
0.31811696291 -0.51643311977 -0.79278320074
0.18477758765 0.2940081656 -0.93737602234
0.31574049592 0.070517733693 -0.94487959146
-0.18458679318 0.29404625297 -0.93739211559
9.2867499916e-05 0.52987253666 -0.84826743603
-0.31344389915 0.070809856057 -0.94549483061
-0.033137530088 0.53634285927 0.84230577946
-0.15751957893 0.31347614527 0.9364374876
-3.7723628338e-05 -0.52846896648 0.84899657965
-0.19179341197 -0.30529463291 0.93250101805
0.19037622213 -0.30946153402 0.93093365431
-0.1014142856 0.12970404327 0.98636692762
0.14707745612 0.23566660285 0.95985978842
0.035920713097 0.016164202243 0.99906569719
-0.10174259543 -0.12115875632 0.9873803854
-0.34227350354 0.1322324276 0.93010133505
-0.24021947384 0.0018951103557 0.9704772234
-0.3469517827 -0.12405619025 0.92945623398
-0.46477013826 0.2809740901 0.83974581957
0.25196075439 0.010503729805 0.96756368876
-0.46503907442 -0.27333196998 0.84209817648
-0.5394744873 0.011974955909 0.84172081947
-0.00062635773793 -0.27674290538 0.96094280481
0.10873047262 -0.13407465816 0.98493599892
0.33537057042 -0.14363497496 0.93104320765
0.53286367655 0.01614292711 0.84601134062
0.463906914 -0.27363970876 0.84263950586
0.69672602415 -0.15766207874 0.69976532459
0.60079139471 -0.4350553453 0.67036622763
-0.60122299194 -0.43499371409 0.67013257742
-0.69815695286 -0.15667428076 0.6984205842
-0.10080364347 0.1292181015 -0.98541879654
6.6077336669e-05 0.27083289623 -0.9625672698
0.10108542442 0.12928152084 -0.98539692163
-0.603266716 0.4338760972 0.66909003258
-0.68646508455 0.17560638487 0.70545709133
0.46293890476 0.28172323108 0.83992242813
0.16994838417 0.53295886517 0.8285998702
0.080562971532 0.40487396717 0.91081750393
0.26714152098 0.38515213132 0.8833322525
0.3509952724 0.16022767127 0.92234605551
0.43504303694 -0.25870165229 -0.86245173216
0.27372744679 -0.064452260733 -0.95915484428
0.16057740152 -0.31016230583 -0.93698996305
-0.00052714941557 -0.11289537698 -0.99278086424
0.00051733874716 -0.52970981598 -0.84815365076
-0.16063916683 -0.30961859226 -0.93717223406
-0.30917921662 -0.50587046146 -0.80511200428
-0.27323609591 -0.064101211727 -0.95916754007
-0.43555754423 -0.26006552577 -0.86182421446
-0.69142454863 -0.15838456154 -0.70475590229
-0.58893072605 -0.42925518751 -0.68477851152
-0.42696735263 -0.68920308352 -0.58547478914
-0.68788325787 -0.58795541525 -0.42560252547
0.063051916659 0.00374607509 -0.99726253748
-0.063602492213 0.0026769544929 -0.99680733681
0.00016600993695 0.11060811579 -0.99389874935

CELLS 182 728
3 0 1 2
3 1 3 2
3 1 4 3
3 2 3 5
3 5 3 6
3 3 7 6
3 3 4 7
3 6 7 8
3 5 6 9
3 6 10 9
3 6 8 10
3 9 10 11
3 11 10 12
3 10 13 12
3 10 8 13
3 12 13 14
3 11 12 15
3 12 14 16
3 17 18 19
3 20 19 0
3 0 2 20
3 2 21 20
3 2 5 21
3 5 9 21
3 9 22 21
3 9 11 22
3 23 24 25
3 23 26 24
3 25 24 14
3 8 27 13
3 27 25 13
3 27 28 25
3 13 25 14
3 26 29 30
3 29 31 30
3 29 32 31
3 30 31 18
3 26 30 33
3 30 18 34
3 16 24 33
3 16 14 24
3 33 24 26
3 32 35 31
3 35 19 31
3 35 0 19
3 31 19 18
3 1 35 36
3 1 0 35
3 36 35 32
3 37 7 38
3 39 27 40
3 37 40 7
3 28 27 41
3 7 40 8
3 40 27 8
3 15 42 11
3 15 43 42
3 34 44 45
3 44 17 46
3 17 44 18
3 18 44 34
3 43 47 48
3 47 49 48
3 49 47 50
3 47 51 52
3 47 43 51
3 52 51 53
3 51 43 54
3 49 55 48
3 34 45 56
3 57 53 51
3 53 50 52
3 53 45 50
3 52 50 47
3 46 58 44
3 44 58 45
3 45 58 50
3 58 59 50
3 58 46 59
3 50 59 49
3 49 59 55
3 59 60 55
3 59 46 60
3 55 60 61
3 60 46 62
3 61 62 63
3 62 64 63
3 62 17 64
3 63 64 20
3 20 64 19
3 19 64 17
3 61 63 21
3 21 63 20
3 34 65 30
3 30 65 33
3 33 65 66
3 65 56 66
3 65 34 56
3 66 56 57
3 33 66 16
3 67 39 68
3 69 68 37
3 37 68 40
3 40 68 39
3 57 56 53
3 53 56 45
3 17 62 46
3 60 62 61
3 16 70 12
3 12 70 15
3 15 70 54
3 70 71 54
3 70 16 71
3 54 71 57
3 22 72 21
3 21 72 61
3 42 73 11
3 11 73 22
3 48 74 43
3 43 74 42
3 42 74 73
3 74 75 73
3 74 48 75
3 73 75 22
3 22 75 72
3 75 76 72
3 75 48 76
3 72 76 61
3 15 54 43
3 51 54 57
3 61 76 55
3 55 76 48
3 57 71 66
3 66 71 16
3 4 77 78
3 77 79 78
3 77 36 79
3 78 79 80
3 36 81 79
3 81 82 79
3 81 83 82
3 79 82 80
3 83 81 32
3 32 81 36
3 80 82 84
3 82 85 84
3 82 83 85
3 84 85 28
3 28 86 25
3 86 23 25
3 28 85 86
3 85 87 86
3 85 83 87
3 86 87 23
3 83 88 87
3 88 89 87
3 88 29 89
3 87 89 23
3 29 88 32
3 32 88 83
3 23 89 26
3 89 29 26
3 36 77 1
3 1 77 4
3 80 90 78
3 38 78 69
3 90 69 78
3 78 38 4
3 4 38 7
3 37 38 69
3 80 91 90
3 91 92 90
3 91 67 92
3 90 92 69
3 69 92 68
3 68 92 67
3 67 41 39
3 39 41 27
3 28 41 84
3 91 84 67
3 41 67 84
3 84 91 80

CELL_TYPES 182
5
5
5
5
5
5
5
5
5
5
5
5
5
5
5
5
5
5
5
5
5
5
5
5
5
5
5
5
5
5
5
5
5
5
5
5
5
5
5
5
5
5
5
5
5
5
5
5
5
5
5
5
5
5
5
5
5
5
5
5
5
5
5
5
5
5
5
5
5
5
5
5
5
5
5
5
5
5
5
5
5
5
5
5
5
5
5
5
5
5
5
5
5
5
5
5
5
5
5
5
5
5
5
5
5
5
5
5
5
5
5
5
5
5
5
5
5
5
5
5
5
5
5
5
5
5
5
5
5
5
5
5
5
5
5
5
5
5
5
5
5
5
5
5
5
5
5
5
5
5
5
5
5
5
5
5
5
5
5
5
5
5
5
5
5
5
5
5
5
5
5
5
5
5
5
5
5
5
5
5
5
5

CELL_DATA 182
SCALARS cell_data_0 double
LOOKUP_TABLE default
2.76860672004e-06
2.07017544998e-06
5.59264085112e-06
3.1796850972e-07
4.40147138226e-06
1.20513227881e-05
1.06989798846e-05
2.07563261502e-06
9.40592663588e-08
3.73703828803e-06
1.13374575874e-06
1.53936464924e-06
4.79870821176e-08
2.75414431132e-06
8.91738367622e-07
4.96069089956e-07
8.95569125796e-06
3.25780620136e-06
7.55450913513e-06
4.35725432959e-06
6.61531965762e-06
1.04270565163e-05
3.54010081256e-06
3.51055519647e-06
5.69651990007e-06
3.44952392506e-06
1.64845001681e-06
2.6378194504e-06
1.44272855467e-06
9.366109084e-07
1.24812054363e-05
7.28774873204e-06
4.19779567744e-06
6.4808145292e-07
2.60743206746e-06
4.86509707469e-07
2.3815975375e-06
3.89891233507e-06
5.84735369797e-06
4.74830343775e-06
6.66782182123e-06
4.92608421029e-06
9.7215344939e-07
4.07350808132e-09
4.70388113927e-08
3.71850011526e-06
6.22082141016e-06
2.00820675434e-06
1.29913113446e-06
1.22309693785e-06
3.08644331146e-06
3.10096348887e-06
9.22833270476e-06
1.12247581693e-06
4.75390811725e-07
8.13135993759e-06
8.64578410452e-06
4.35380436104e-06
1.1012506782e-06
3.90647727535e-06
4.47324506243e-06
1.9155940867e-05
1.66200956293e-06
3.2950159488e-06
6.1838438459e-06
7.49536029163e-06
5.5815007137e-07
9.43494155882e-06
1.24360126831e-05
1.21301610347e-06
9.93717579993e-06
2.35566839866e-06
2.04685138296e-06
1.25860624125e-05
3.89553867428e-06
4.88955594694e-06
6.06501453837e-06
4.74598910326e-06
2.46443692026e-06
3.01561701212e-06
2.94021005977e-06
4.52028202098e-06
3.53366989865e-06
1.83161010375e-06
4.41140453962e-06
5.27566407215e-06
3.03184947967e-06
2.01277987554e-06
4.74925910209e-06
6.16526130473e-06
4.6725203526e-07
2.07670140623e-06
8.12694062627e-06
2.11446043196e-07
7.27851029661e-06
5.40955941784e-06
3.5436265984e-06
2.33547428721e-06
4.35457344317e-06
9.36134516116e-06
7.41079814425e-07
9.73398429149e-07
6.74050507093e-07
7.98034683086e-07
9.22800118587e-07
3.44837292747e-06
1.17372415751e-06
2.55163407814e-06
5.52593599748e-06
2.30843060323e-06
1.50098999105e-06
6.79151736068e-07
4.65497479424e-06
6.31760183593e-06
1.02813775013e-07
3.07934529456e-06
2.34612773236e-07
2.64571427323e-06
1.47374595146e-05
3.73132555622e-07
2.06967319488e-06
2.13261329388e-06
9.71648900275e-06
3.26208936407e-06
4.91947186938e-07
7.82879342773e-06
2.86604641413e-08
2.04160974458e-06
6.39823432143e-07
2.09020509972e-06
3.47616569194e-06
3.6002146993e-07
3.70874017989e-06
3.075816974e-06
1.58292581343e-06
8.70648972564e-07
2.96540813337e-06
1.07212332465e-06
1.80110301618e-06
1.11874910444e-06
1.53778510824e-06
3.12865597812e-06
6.4221199876e-07
1.02634492529e-06
1.22378634427e-06
1.1361669469e-06
2.94466106444e-06
6.54709093384e-07
1.37113814701e-06
1.54481773106e-06
1.5575560794e-06
1.14205542126e-06
5.57371198038e-07
3.35585689139e-07
9.04461518676e-07
3.01710351579e-08
2.63982658102e-07
1.37958790379e-07
7.42852170999e-07
5.33296001567e-07
6.63685268274e-07
1.20340838285e-07
1.67359902827e-06
2.55567283477e-06
1.97836527454e-06
1.9170253584e-06
4.57363660759e-07
1.92644840565e-06
1.02231228342e-05
1.7577355491e-06
7.88410135504e-07
9.96917539695e-07
8.93074151844e-08
6.98967055756e-08
8.41732564285e-07
8.11688098897e-07
1.79503645217e-06
1.9875681483e-06
2.02016576316e-06
5.39306616101e-07
1.6858254733e-06
1.86727078264e-06

