# vtk DataFile Version 3.0
File Name: Molecule/special/special_0-s4.vtk
ASCII
DATASET UNSTRUCTURED_GRID
FIELD FieldData 1
TIME 1 1 double
0.0
POINTS 60 double
0.85065251589 -0.52572834492 -8.2842998381e-06
0.80891823769 -0.30896085501 -0.49998643994
0.99989491701 2.1908301733e-06 -2.0434756607e-06
0.80936300755 0.30874872208 -0.49948480725
0.52494299412 0.00066459731897 -0.85108864307
0.85065376759 0.52572619915 1.6645099095e-05
0.5001232028 0.80912071466 -0.30834266543
0.34475773573 0.51290643215 -0.78492850065
0.00039616020513 0.84997272491 -0.52673256397
0.50001293421 0.808994174 0.30879825354
-7.7685444921e-07 0.99990218878 -5.3365321946e-05
1.5841815184e-05 0.85025775433 0.52629488707
-0.50001549721 0.809001863 0.30881431699
-0.50008249283 0.80913293362 -0.30837723613
-0.85065567493 0.52572315931 1.0193203707e-05
-0.33414930105 0.50854671001 0.79264849424
-0.80938839912 0.30872911215 0.4995251596
-0.53776472807 4.5327382395e-05 0.84300380945
0.53253281116 5.6014687289e-07 0.84607768059
0.33376324177 -0.50840210915 0.79356026649
0.80944955349 -0.30881762505 0.49939522147
0.50013363361 -0.80910998583 0.30841600895
0.00013266141468 -0.85019040108 0.52634572983
0.3092494607 -0.50045150518 -0.8085744977
4.1198982217e-05 -0.044914454222 -0.99801290035
-0.30950540304 -0.50094240904 -0.80818802118
5.2962002428e-07 -0.85068106651 -0.52568244934
-0.52467894554 0.00036712310975 -0.85124337673
0.80930685997 0.30890882015 0.4994879961
0.3340446353 0.50838798285 0.79344171286
-0.80891299248 -0.30895075202 -0.50000244379
-0.80935305357 0.30873569846 -0.49950900674
-0.99989628792 -6.5052327045e-06 -2.6579689347e-06
-0.85065203905 -0.52572923899 -9.1586325652e-06
-0.34469869733 0.51287478209 -0.78497123718
-0.49994531274 -0.80894523859 -0.30895084143
-0.50006252527 -0.80904978514 0.30860817432
2.3094494281e-06 -0.99989521503 3.9207079681e-05
-0.8093687892 -0.30898407102 0.49940013885
-0.33385023475 -0.50870984793 0.79320961237
0.49994730949 -0.80893075466 -0.30898451805
0.1627150774 0.26270708442 -0.95103877783
-0.16267256439 0.26268357038 -0.95105344057
3.038765135e-05 0.5259500742 -0.85049718618
-1.9707469619e-05 0.5252238512 0.85097640753
-0.15586492419 0.28241169453 0.94512873888
0.16263081133 0.26538151503 0.95038098097
9.4656279543e-05 -0.52530002594 0.85092866421
-0.16545476019 -0.27947869897 0.94443511963
0.16572146118 -0.27926683426 0.94450581074
-0.088513471186 0.13243404031 0.98728048801
0.0092316642404 0.0042820475064 0.99976199865
-0.26658844948 -2.4006585591e-06 0.96345448494
-0.34882450104 0.13658171892 0.92699611187
-0.34983825684 -0.13617950678 0.92666137218
0.2653683424 0.0017572361976 0.96362310648
-0.090226963162 -0.13032284379 0.98731398582
-0.00029112989432 -0.26923716068 0.96303856373
0.090965308249 -0.13033634424 0.98735249043
0.34524261951 -0.14080488682 0.92732441425

CELLS 116 464
3 0 1 2
3 1 3 2
3 1 4 3
3 2 3 5
3 5 3 6
3 3 7 6
3 3 4 7
3 6 7 8
3 5 6 9
3 6 10 9
3 6 8 10
3 9 10 11
3 11 10 12
3 10 13 12
3 10 8 13
3 12 13 14
3 11 12 15
3 12 16 15
3 12 14 16
3 15 16 17
3 18 19 20
3 19 21 20
3 19 22 21
3 20 21 0
3 4 23 24
3 23 25 24
3 23 26 25
3 24 25 27
3 0 2 20
3 2 28 20
3 2 5 28
3 20 28 18
3 5 9 28
3 9 29 28
3 9 11 29
3 28 29 18
3 27 30 31
3 30 32 31
3 30 33 32
3 31 32 14
3 8 34 13
3 34 31 13
3 34 27 31
3 13 31 14
3 33 35 36
3 35 37 36
3 35 26 37
3 36 37 22
3 33 36 38
3 36 39 38
3 36 22 39
3 38 39 17
3 17 16 38
3 16 32 38
3 16 14 32
3 38 32 33
3 27 25 30
3 25 35 30
3 25 26 35
3 30 35 33
3 26 40 37
3 40 21 37
3 40 0 21
3 37 21 22
3 4 1 23
3 1 40 23
3 1 0 40
3 23 40 26
3 24 41 4
3 4 41 7
3 24 42 41
3 42 43 41
3 42 34 43
3 41 43 7
3 34 42 27
3 27 42 24
3 7 43 8
3 43 34 8
3 15 44 11
3 11 44 29
3 15 45 44
3 45 46 44
3 44 46 29
3 29 46 18
3 39 47 48
3 47 19 49
3 19 47 22
3 22 47 39
3 45 50 46
3 50 51 46
3 51 50 52
3 50 53 52
3 50 45 53
3 52 53 54
3 17 53 15
3 53 45 15
3 51 55 46
3 46 55 18
3 48 54 39
3 39 54 17
3 17 54 53
3 54 56 52
3 54 48 56
3 52 56 51
3 49 57 47
3 47 57 48
3 48 57 56
3 57 58 56
3 57 49 58
3 56 58 51
3 51 58 55
3 58 59 55
3 58 49 59
3 55 59 18
3 18 59 19
3 19 59 49

CELL_TYPES 116
5
5
5
5
5
5
5
5
5
5
5
5
5
5
5
5
5
5
5
5
5
5
5
5
5
5
5
5
5
5
5
5
5
5
5
5
5
5
5
5
5
5
5
5
5
5
5
5
5
5
5
5
5
5
5
5
5
5
5
5
5
5
5
5
5
5
5
5
5
5
5
5
5
5
5
5
5
5
5
5
5
5
5
5
5
5
5
5
5
5
5
5
5
5
5
5
5
5
5
5
5
5
5
5
5
5
5
5
5
5
5
5
5
5
5
5

CELL_DATA 116
SCALARS cell_data_0 double
LOOKUP_TABLE default
3.01098563435e-06
3.58289426388e-06
9.60311355943e-06
1.57096484324e-06
2.83043038072e-06
2.62842748932e-06
2.00871602124e-05
7.71224220307e-08
1.06725391362e-06
4.5580632026e-06
5.50803380902e-06
4.90443313213e-06
5.92762468783e-06
5.55954813177e-06
5.76753666763e-06
5.28641326428e-07
8.48811406806e-06
1.02992494674e-05
8.8890418253e-06
6.02912200267e-05
6.4097254013e-05
9.65850979909e-06
3.46829026203e-06
1.37401593027e-05
2.99219603067e-06
4.93859153225e-05
1.55837000651e-05
1.13677447805e-06
2.69530739217e-06
2.45158286041e-05
1.38930777887e-06
4.55440250004e-05
7.56304838494e-06
5.07849468049e-06
1.84470624285e-06
4.2073275545e-05
9.6646434557e-06
3.37305309832e-06
2.86083723211e-06
1.61778944638e-06
1.15713781966e-07
2.7974757853e-06
2.07150019642e-05
2.59031301448e-06
3.82876918142e-06
5.37419346751e-07
1.38234923627e-05
1.29292439926e-05
1.33043948699e-05
1.07865922509e-05
4.34198299926e-06
6.33138761049e-05
4.35597362237e-05
2.56222560252e-05
1.34977510994e-06
2.40366437126e-06
8.3831603261e-06
3.22772428389e-05
1.78094434007e-05
1.05952738071e-05
1.36989960254e-05
2.33308078687e-07
3.74966503794e-06
1.30202525694e-05
8.52323835754e-06
3.20787637336e-05
1.07489708569e-05
1.77347195218e-05
6.22830591358e-05
3.96395074955e-05
6.73570494548e-05
3.42118647075e-05
1.75372002501e-05
1.74353957622e-05
3.99927312658e-05
6.00973014453e-05
1.59802917648e-05
1.56664671315e-05
1.36499817305e-05
1.55787774385e-05
1.03594186988e-05
2.48783920282e-05
4.20623440661e-05
5.2472635287e-05
6.52603130773e-08
2.30738308648e-06
4.31492691843e-06
5.46065942217e-06
9.91195292541e-06
1.04188240833e-05
6.76425366005e-06
1.68244231616e-06
1.70825937504e-06
9.33942958085e-06
1.69101702279e-05
1.07854789799e-05
3.38698620782e-05
5.40233687601e-06
8.78952381457e-06
1.48205109721e-05
1.39858834278e-05
2.54811746961e-06
5.22257202375e-06
1.28424058791e-05
5.50002973172e-06
6.37950188908e-06
4.71302438115e-06
3.01463218867e-06
2.82781223148e-06
1.6600864483e-05
2.81782934951e-06
3.68312115723e-06
8.99478419643e-06
3.73204273895e-05
1.87724962147e-05
8.0715948963e-06

