# vtk DataFile Version 3.0
File Name: Molecule/special/special_0-s12.vtk
ASCII
DATASET UNSTRUCTURED_GRID
FIELD FieldData 1
TIME 1 1 double
0.0
POINTS 175 double
0.85083299875 -0.52530777454 -0.0073039904237
0.80719053745 -0.30775153637 -0.50348013639
0.9970792532 0.00062191835605 -0.056566491723
0.85082834959 0.27785339952 -0.44431498647
0.8615437746 0.50401264429 -0.039695680141
0.4822217226 0.8361453414 -0.25698247552
-0.00031327013858 0.99975037575 0.0029004081152
0.46926820278 0.83901244402 0.27195051312
0.00055667903507 0.85031831264 -0.52641004324
0.2509123981 0.81478446722 0.5209133625
-0.02012815699 0.85209798813 0.52218991518
-0.48765611649 0.82258445024 0.28814202547
-0.47641146183 0.84030914307 -0.25383853912
-0.8499559164 0.52650666237 -0.0055327913724
-0.85707467794 -0.27382820845 -0.43445533514
-0.99995237589 0.0010572501924 -0.0038993323687
-0.84214395285 0.24900113046 -0.47664761543
-0.84846842289 -0.52885854244 -0.010809637606
-0.47306284308 -0.84368395805 -0.24940681458
-0.48720905185 -0.82263368368 0.28911837935
0.0036213367712 -0.99987912178 0.0021095657721
-0.0023038666695 -0.85194289684 -0.52360105515
-0.023805027828 -0.85794246197 0.51008856297
-0.8557497263 0.29841139913 0.4173065722
-0.86571145058 -0.31829994917 0.38100332022
0.49988991022 -0.81032401323 -0.30558109283
0.51345956326 -0.81248694658 0.27289375663
0.35055425763 -0.56631398201 -0.74616771936
-0.17322172225 0.33159375191 -0.92727124691
-0.33630746603 0.51496893167 -0.7880218029
0.0040895869024 0.53656923771 -0.84391659498
0.17773149908 0.33355489373 -0.92573088408
0.34734740853 0.52360481024 -0.77751761675
-0.32695448399 0.55290293694 0.76424074173
-0.17986993492 0.37693884969 0.90833157301
-0.054178275168 0.56185346842 0.82553833723
0.01661718078 -0.53281909227 0.84479618073
0.31872808933 -0.55825352669 0.76557159424
0.21222995222 -0.34151300788 0.91558492184
-0.26306718588 0.0032422470395 0.96478557587
-0.35036692023 0.081941045821 0.93290370703
-0.36979138851 -0.1050696969 0.92293083668
-0.53457611799 0.009382548742 0.84504914284
0.02155951038 -0.32646203041 0.94386553764
0.15831427276 -0.1297454536 0.97848552465
0.34080922604 -0.15699662268 0.92692226171
0.28378248215 0.00015827594325 0.95853877068
0.5385466814 0.01434670575 0.8412066102
0.46277606487 -0.29963967204 0.83265316486
0.59311205149 -0.45232656598 0.66501301527
-0.5944018364 -0.43788149953 0.67346793413
-0.47200414538 -0.28073355556 0.83567732573
-0.68475198746 -0.15263105929 0.71207201481
-0.33021238446 -0.56382626295 0.75551068783
-0.13679981232 0.14587037265 -0.97978115082
0.0010931151919 0.27954629064 -0.96015840769
0.1363427788 0.14622338116 -0.97979879379
-0.26749807596 -0.1945002079 0.94319736958
-0.5900862813 0.4446991384 0.67302983999
-0.51029223204 0.2967414856 0.80732917786
-0.66890865564 0.18343213201 0.72004699707
0.1856161356 0.72246736288 0.66378045082
-0.17347557843 0.72335135937 0.66703188419
0.099337920547 0.43714812398 0.89387255907
0.17636808753 0.55448633432 0.81335061789
0.28153949976 0.41973501444 0.86283940077
0.37857607007 0.54869484901 0.74478048086
0.47443625331 0.31835928559 0.81976526976
0.37396329641 0.15070433915 0.91496628523
0.56706911325 0.00038068788126 -0.82288891077
0.44441255927 -0.26051101089 -0.85719752312
0.41948118806 0.060952171683 -0.90546482801
0.16506910324 -0.3257805109 -0.9310926199
0.25547122955 -0.090905964375 -0.9625287652
-0.00087537651416 -0.1606683135 -0.98704940081
0.009730563499 -0.54304480553 -0.83960092068
-0.15985424817 -0.32345956564 -0.93276429176
-0.30434498191 -0.51931613684 -0.79850578308
-0.25807017088 -0.089440576732 -0.96192896366
-0.44347238541 -0.25257125497 -0.85983508825
-0.41029661894 0.069630615413 -0.9089987874
-0.56036615372 0.054032314569 -0.82473510504
-0.69788050652 -0.15429890156 -0.69929409027
-0.59384936094 -0.43646150827 -0.67595803738
-0.42963090539 -0.69621711969 -0.57512235641
-0.69137704372 -0.58992791176 -0.41679781675
0.079295806587 -0.0019239945104 -0.9966917634
0.28757858276 0.1152041629 -0.95025241375
-0.079575955868 -0.0022195107304 -0.99672245979
-7.2507275036e-05 0.11575499177 -0.99326956272
-0.28646326065 0.11443927139 -0.95051270723
-0.45013776422 0.69445598125 -0.56133669615
-0.6138381958 0.43019539118 -0.66178399324
-0.69546496868 0.58693724871 -0.41428413987
-0.12326227129 0.23706641793 0.96364039183
-0.034916166216 0.37676039338 0.92560851574
0.0060452744365 0.17334525287 0.98484051228
0.0085757886991 0.27357497811 0.96179932356
-0.092214584351 0.12513908744 0.98784244061
0.13447454572 0.22014629841 0.966103971
-0.01524373889 0.071050614119 0.99728029966
0.093846917152 0.1082412526 0.98968231678
0.052571482956 -0.012252055109 0.99838119745
-0.045828405768 -0.0521036461 0.99754679203
-0.10445681214 0.028524756432 0.99410319328
-0.092960074544 -0.14467459917 0.98507791758
-0.16810159385 -0.053435452282 0.98419427872
-0.19923219085 0.099418319762 0.97487306595
-0.26234105229 0.22020129859 0.93956124783
0.15665255487 0.015488157049 0.98744189739
0.2120731622 0.11231882125 0.97073549032
0.012476715259 -0.134499982 0.99074232578
0.093561962247 0.32519751787 0.94100576639
0.20693667233 0.31699982285 0.92549467087
0.70607370138 0.16838242114 -0.68759888411
0.69559043646 0.58653885126 -0.41433191299
0.6188480258 0.43966814876 -0.65107250214
0.45475488901 0.69508212805 -0.55681008101
0.51124501228 0.27808478475 -0.81316483021
0.96072089672 -0.15496079624 0.2301838994
0.84298849106 -0.33134698868 0.42246875167
0.95311909914 0.16312898695 0.25452169776
0.86937350035 -0.0035086197313 0.4942688942
0.80373978615 0.31237789989 0.5065793395
0.34757506847 0.2924682796 -0.89078533649
-0.40564721823 0.20066197217 0.89165920019
-0.33651089668 0.32848599553 0.88232558966
0.71563392878 -0.17215065658 0.67538225651
0.32293722034 0.28182834387 0.90331947803
0.2514295876 0.21376481652 0.94396919012
0.70492345095 0.69263380766 0.15175028145
0.85186624527 0.45043736696 0.26719933748
0.68550229073 0.59562307596 0.41882058978
0.48050794005 0.71189582348 0.51102161407
0.60456591845 0.48273125291 0.63330107927
-0.89657509327 -0.014215431176 0.4405836463
-0.46771845222 0.28836011887 -0.83537745476
-0.32801151276 0.29295986891 -0.89796936512
-0.11884263158 -0.44547179341 0.8874027133
-0.23430266976 -0.34069734812 0.91027897596
-0.10321753472 -0.31618052721 0.94300532341
-0.16002881527 -0.23183628917 0.95949774981
-0.046142160892 -0.22881712019 0.97236210108
0.067291557789 -0.22208160162 0.97252571583
-0.74063634872 -0.39743924141 0.54183524847
-0.80145126581 -0.20603126287 0.56079375744
-0.79901838303 0.069933019578 0.59682422876
-0.73385328054 0.37993937731 0.56281882524
-0.71625483036 0.58121913671 0.38531431556
0.17316418886 -0.73361200094 0.657340765
0.41239473224 -0.71712005138 0.56175166368
0.25500950217 -0.86624735594 0.4294295609
-0.71941041946 -0.58703619242 0.37061709166
0.70857381821 0.14535586536 0.68891370296
-0.56220585108 -0.64800190926 0.513463974
-0.56032794714 0.64927864075 0.51387369633
0.6491946578 0.30807384849 0.69533354044
0.537802279 0.17095020413 0.82561075687
-0.18058915436 -0.14388364553 0.97291773558
-0.25584825873 -0.095508240163 0.96198129654
0.40894162655 0.6536411047 0.63606959581
-0.44726988673 0.62261962891 0.64177012444
-0.31101897359 0.77744430304 0.5458099246
0.71183115244 -0.59524691105 0.37092635036
-0.31196710467 -0.77934998274 0.54272222519
-0.15712574124 -0.57069951296 0.80589103699
-0.27249795198 -0.45998370647 0.8449088335
-0.011972428299 -0.71033406258 0.70346599817
-0.17630639672 -0.72687345743 0.66304165125
0.51874029636 -0.1439948827 0.84265840054
0.63118368387 -0.08116839081 0.77138608694
0.59399926662 -0.23267696798 0.7699303627
0.73007643223 -0.40850991011 0.54775297642
0.5812856555 -0.64619410038 0.49406200647
-0.44280651212 -0.62594252825 0.64188092947

CELLS 346 1384
3 0 1 2
3 1 3 2
3 2 3 4
3 5 6 7
3 5 8 6
3 7 6 9
3 10 6 11
3 6 12 11
3 6 8 12
3 11 12 13
3 14 15 16
3 14 17 15
3 16 15 13
3 17 18 19
3 18 20 19
3 18 21 20
3 19 20 22
3 23 13 15
3 24 15 17
3 21 25 20
3 25 26 20
3 25 0 26
3 1 25 27
3 1 0 25
3 27 25 21
3 28 29 30
3 31 30 32
3 32 30 8
3 30 29 8
3 33 34 35
3 36 37 38
3 39 40 41
3 42 41 40
3 38 43 36
3 44 45 46
3 44 38 45
3 46 45 47
3 45 38 48
3 48 37 49
3 50 51 52
3 50 53 51
3 52 51 42
3 54 28 55
3 56 55 31
3 31 55 30
3 30 55 28
3 42 51 41
3 41 51 57
3 37 48 38
3 33 58 59
3 58 60 59
3 59 60 42
3 35 61 62
3 35 63 64
3 63 65 64
3 64 65 66
3 66 65 67
3 47 68 46
3 42 60 52
3 69 70 71
3 70 72 73
3 70 27 72
3 73 72 74
3 27 75 72
3 75 76 72
3 75 77 76
3 72 76 74
3 77 75 21
3 21 75 27
3 74 76 78
3 76 79 78
3 76 77 79
3 78 79 80
3 81 82 16
3 82 14 16
3 81 79 82
3 79 83 82
3 79 77 83
3 82 83 14
3 77 84 83
3 84 85 83
3 84 18 85
3 83 85 14
3 18 84 21
3 21 84 77
3 14 85 17
3 85 18 17
3 27 70 1
3 1 70 69
3 74 86 73
3 56 87 86
3 73 86 87
3 31 87 56
3 74 88 86
3 88 89 86
3 88 54 89
3 86 89 56
3 56 89 55
3 55 89 54
3 54 90 28
3 54 88 90
3 78 90 88
3 78 88 74
3 29 91 8
3 8 91 12
3 29 92 91
3 92 93 91
3 92 16 93
3 91 93 12
3 16 92 81
3 12 93 13
3 93 16 13
3 34 94 95
3 94 96 97
3 94 98 96
3 97 96 99
3 98 100 96
3 100 101 96
3 100 102 101
3 96 101 99
3 102 100 103
3 100 104 103
3 100 98 104
3 105 103 106
3 39 107 40
3 40 107 108
3 98 94 107
3 102 109 101
3 109 110 101
3 109 46 110
3 101 110 99
3 39 106 107
3 106 104 107
3 104 106 103
3 107 104 98
3 44 102 111
3 46 109 44
3 44 109 102
3 99 112 97
3 112 95 97
3 112 63 95
3 97 95 94
3 34 95 35
3 95 63 35
3 65 63 113
3 68 110 46
3 69 114 1
3 1 114 3
3 3 115 4
3 4 115 5
3 3 116 115
3 116 117 115
3 116 32 117
3 115 117 5
3 3 114 116
3 114 118 116
3 114 69 118
3 116 118 32
3 5 117 8
3 117 32 8
3 2 119 0
3 0 119 120
3 2 121 119
3 121 122 119
3 121 123 122
3 119 122 120
3 4 121 2
3 32 124 31
3 31 124 87
3 40 108 125
3 108 126 125
3 108 34 126
3 125 126 59
3 120 122 127
3 65 128 67
3 128 68 67
3 65 113 128
3 113 129 128
3 113 99 129
3 128 129 68
3 59 126 33
3 33 126 34
3 40 125 42
3 125 59 42
3 87 71 73
3 73 71 70
3 69 71 118
3 71 124 118
3 71 87 124
3 118 124 32
3 34 108 94
3 94 108 107
3 99 113 112
3 112 113 63
3 68 129 110
3 110 129 99
3 7 130 5
3 5 130 4
3 4 130 131
3 130 132 131
3 130 7 132
3 131 132 123
3 7 133 132
3 133 134 132
3 132 134 123
3 24 135 15
3 15 135 23
3 81 136 80
3 136 137 80
3 136 29 137
3 80 137 90
3 36 43 138
3 139 140 141
3 140 142 141
3 140 43 142
3 141 142 105
3 43 143 142
3 143 111 142
3 143 44 111
3 142 111 105
3 44 143 38
3 38 143 43
3 50 52 144
3 24 145 135
3 145 146 135
3 145 52 146
3 135 146 23
3 67 134 66
3 23 146 147
3 60 146 52
3 90 137 28
3 28 137 29
3 81 80 79
3 80 90 78
3 29 136 92
3 92 136 81
3 105 111 103
3 103 111 102
3 4 131 121
3 121 131 123
3 23 148 13
3 13 148 11
3 37 149 150
3 149 151 150
3 149 22 151
3 150 151 26
3 19 152 17
3 17 152 24
3 26 151 20
3 20 151 22
3 36 149 37
3 37 150 49
3 123 153 122
3 122 153 127
3 19 154 152
3 154 144 152
3 154 50 144
3 152 144 24
3 23 147 148
3 147 155 148
3 147 58 155
3 148 155 11
3 58 147 60
3 60 147 146
3 123 156 153
3 156 157 153
3 156 67 157
3 153 157 47
3 66 61 64
3 64 61 35
3 47 157 68
3 68 157 67
3 106 158 105
3 105 158 141
3 41 159 39
3 159 106 39
3 133 160 134
3 160 66 134
3 66 160 61
3 160 9 61
3 160 133 9
3 61 9 10
3 10 9 6
3 9 133 7
3 141 57 139
3 139 57 51
3 41 57 159
3 57 158 159
3 57 141 158
3 159 158 106
3 24 144 145
3 145 144 52
3 67 156 134
3 134 156 123
3 33 62 161
3 62 162 161
3 62 10 162
3 161 162 155
3 120 163 0
3 163 26 0
3 22 164 19
3 19 164 154
3 10 62 61
3 35 62 33
3 53 165 166
3 165 138 166
3 165 36 138
3 166 138 139
3 22 167 168
3 167 165 168
3 167 36 165
3 168 165 53
3 53 166 51
3 166 139 51
3 47 169 170
3 169 171 170
3 169 48 171
3 170 171 127
3 127 171 49
3 49 171 48
3 49 172 127
3 127 172 120
3 120 172 163
3 172 173 163
3 172 49 173
3 163 173 26
3 48 169 45
3 45 169 47
3 47 170 153
3 170 127 153
3 139 138 140
3 140 138 43
3 36 167 149
3 149 167 22
3 26 173 150
3 150 173 49
3 154 174 50
3 50 174 53
3 53 174 168
3 174 164 168
3 174 154 164
3 168 164 22
3 155 162 11
3 11 162 10
3 33 161 58
3 58 161 155

CELL_TYPES 346
5
5
5
5
5
5
5
5
5
5
5
5
5
5
5
5
5
5
5
5
5
5
5
5
5
5
5
5
5
5
5
5
5
5
5
5
5
5
5
5
5
5
5
5
5
5
5
5
5
5
5
5
5
5
5
5
5
5
5
5
5
5
5
5
5
5
5
5
5
5
5
5
5
5
5
5
5
5
5
5
5
5
5
5
5
5
5
5
5
5
5
5
5
5
5
5
5
5
5
5
5
5
5
5
5
5
5
5
5
5
5
5
5
5
5
5
5
5
5
5
5
5
5
5
5
5
5
5
5
5
5
5
5
5
5
5
5
5
5
5
5
5
5
5
5
5
5
5
5
5
5
5
5
5
5
5
5
5
5
5
5
5
5
5
5
5
5
5
5
5
5
5
5
5
5
5
5
5
5
5
5
5
5
5
5
5
5
5
5
5
5
5
5
5
5
5
5
5
5
5
5
5
5
5
5
5
5
5
5
5
5
5
5
5
5
5
5
5
5
5
5
5
5
5
5
5
5
5
5
5
5
5
5
5
5
5
5
5
5
5
5
5
5
5
5
5
5
5
5
5
5
5
5
5
5
5
5
5
5
5
5
5
5
5
5
5
5
5
5
5
5
5
5
5
5
5
5
5
5
5
5
5
5
5
5
5
5
5
5
5
5
5
5
5
5
5
5
5
5
5
5
5
5
5
5
5
5
5
5
5
5
5
5
5
5
5
5
5
5
5
5
5
5
5
5
5
5
5
5
5
5
5
5
5
5
5
5
5
5
5
5
5
5
5
5
5

CELL_DATA 346
SCALARS cell_data_0 double
LOOKUP_TABLE default
1.73449440379e-06
6.60952705275e-07
3.25365503766e-07
1.54324181155e-06
4.37696485134e-08
3.45076225079e-06
4.87234588775e-06
6.44383996348e-07
1.72102240556e-07
6.39688975193e-07
5.63506783372e-07
1.53648324483e-06
4.56273721263e-07
1.47903748069e-06
9.41389895571e-08
1.29894120484e-06
3.69984583838e-06
2.08278934196e-06
1.20264550902e-06
7.57033429081e-07
2.36377616726e-06
6.60883095927e-07
2.60865330816e-06
1.5843514305e-06
4.16264445025e-07
8.0076069418e-07
4.70022358338e-07
1.84494131901e-07
3.4605496078e-07
2.29624988401e-06
4.07969847296e-06
1.78472049349e-06
1.23235777803e-06
1.83338725135e-06
1.03824754825e-06
2.95526613612e-06
5.43873259899e-06
2.60854236151e-06
2.87125129644e-06
2.65225976706e-06
4.3473812156e-06
2.68608454642e-06
4.48889674289e-07
5.00405484143e-07
5.84727546952e-07
4.26620690805e-07
1.38115452749e-06
2.25350165839e-06
1.55696091324e-06
4.62625165275e-06
2.88113769949e-06
2.11918078738e-07
6.86353616043e-06
7.49968193779e-07
1.2887029082e-07
1.17799289779e-06
2.03789631291e-06
2.76408372106e-06
4.88791559553e-08
1.45330789861e-06
2.04915718085e-07
2.94184464015e-06
3.24550405264e-07
2.36177317242e-06
1.73755318328e-06
1.33294491188e-06
1.38726451235e-06
4.40159745867e-07
1.34577749721e-06
3.62742281433e-07
1.65851272829e-07
2.75656105975e-06
5.40036127105e-07
8.71224601486e-07
7.2072884622e-07
2.46706000439e-07
1.09758601122e-06
5.37558286634e-07
4.62483219162e-07
8.88214888025e-07
2.56235643378e-07
4.06986008254e-07
2.1347504729e-07
3.13355632181e-07
5.14270352925e-07
5.16652135029e-07
3.48040101532e-08
6.63704688548e-07
1.91293854758e-06
7.71742194746e-07
1.73726387901e-07
1.59948515074e-06
4.61077935092e-07
9.50486765529e-07
3.20222476284e-07
1.26259059113e-07
6.61404112837e-08
3.98752601342e-07
5.03876427263e-07
3.68061952233e-07
1.4611580285e-07
1.24777552523e-06
5.95555557014e-07
2.32609548781e-06
7.19148090881e-07
2.20464584047e-06
5.00367605694e-07
9.55586024572e-07
9.58359163066e-07
3.02769912506e-06
2.96209932337e-07
2.43027756446e-07
1.79791993196e-07
9.31267073888e-08
9.04904966781e-07
7.1771039095e-07
6.2840372298e-07
3.9672967368e-07
1.26144530031e-07
3.48557993949e-07
2.00039571386e-07
1.13535659908e-06
8.81584112396e-07
1.34119410477e-06
2.19927456171e-06
5.97136597824e-07
4.88354338191e-07
2.70043532384e-07
2.93764052026e-07
1.83011498031e-06
8.40109134671e-07
1.2051877327e-06
1.63054354644e-06
4.55279533164e-07
9.99678794842e-07
3.08308407017e-06
5.81584391115e-07
8.77520889759e-07
4.8619192264e-08
4.23658671889e-07
8.207118627e-07
7.4082964707e-07
1.03197792992e-06
3.50163017628e-07
1.84910606599e-06
2.46745491226e-08
1.41481444379e-06
4.19104055729e-07
7.2347859131e-07
5.61650374447e-07
2.56234375017e-07
8.51360364025e-07
1.69427344848e-06
1.27392142961e-06
5.15391666167e-07
4.73402911462e-07
5.09211441839e-07
3.93399467454e-08
2.31970964266e-07
2.24617251794e-06
6.6582074159e-07
6.06672442359e-07
1.28108270278e-06
1.23169524046e-07
9.35969619109e-07
3.93572461396e-07
1.11813002817e-06
2.45726756123e-06
9.92393901326e-07
9.52099612359e-07
1.35593802133e-06
5.37776947479e-07
2.30348375701e-06
6.82531580783e-07
3.84850861979e-07
1.27347285843e-07
6.45018552413e-07
3.23656164621e-07
2.88936485601e-07
1.17441231578e-07
3.86816973931e-06
5.41062012441e-07
5.2530793267e-07
3.46350489543e-06
8.0925045591e-07
1.13883959213e-07
8.78323053885e-07
1.19702951514e-06
2.05574987878e-07
3.98304969793e-08
2.18385844211e-07
1.5270910675e-06
5.65107559452e-07
3.18175843628e-07
8.55097658439e-07
7.91885969062e-07
1.61931258362e-06
1.08865826884e-06
4.44448827898e-07
2.5814252337e-07
1.720167356e-07
5.27755424774e-07
9.81014873134e-08
4.8904223169e-07
4.03801321426e-07
2.88959832248e-07
6.57243410649e-07
2.1364419221e-07
1.41563869275e-06
3.3855536243e-07
1.70909219816e-07
2.88995026335e-07
5.87238529658e-07
8.87874209157e-07
6.63918928101e-07
7.51796573955e-07
2.52813298036e-07
1.27911550741e-07
6.77558420239e-07
2.31488927239e-08
1.6450477532e-08
1.08889784686e-06
1.66870147454e-06
8.11383470621e-08
3.27068445972e-07
2.45865859419e-07
1.84813423402e-06
1.30507803701e-06
4.58625131894e-07
2.96717323066e-06
9.71569914669e-07
2.31350425078e-06
1.58579895465e-06
7.09464035129e-07
1.15424311686e-06
7.98505612908e-07
1.00818266377e-06
1.43440958889e-06
4.28245550655e-08
2.69931188012e-07
3.31436371467e-07
9.6524548174e-07
1.19931936318e-07
9.74508597353e-07
1.12321349714e-07
1.00565077503e-06
9.83091905946e-07
4.87363352159e-07
2.06505405153e-06
1.61511882153e-06
3.24846137203e-06
2.27656597383e-06
4.90697835656e-07
2.40575932261e-06
1.29207771447e-06
1.03107723855e-06
1.05245006363e-06
7.02464504614e-07
1.64611093638e-06
1.07020483596e-06
1.4391130354e-06
1.58711020392e-06
7.21426719646e-07
4.61952957959e-07
4.92915751389e-07
8.18767296032e-07
7.85588843618e-07
1.01492350688e-07
5.99400046559e-07
1.65639360613e-06
3.62467132482e-08
1.14048179051e-07
2.78668762022e-07
3.14163732385e-08
4.63449278084e-07
7.38976164725e-07
1.17664787949e-06
1.75722417486e-07
1.10614652514e-06
1.11647700009e-06
4.48519586316e-07
3.8365367173e-06
8.89400697409e-07
1.22416182667e-06
5.63050722226e-07
1.53959163842e-06
1.19507169671e-06
2.68464013952e-07
4.54377684168e-08
1.23952826085e-07
1.2042842781e-06
3.64133905688e-07
8.71896447712e-07
5.82453410473e-07
1.54296519268e-07
1.07174858503e-06
2.85092875291e-06
1.23762367034e-08
1.1211499577e-06
7.5437401914e-07
2.15532992292e-07
1.06806394059e-06
8.09302546232e-07
1.19368469477e-06
2.01748271127e-06
5.92350722748e-07
1.0625467266e-07
2.13591678662e-07
6.50009638992e-07
1.94259102118e-06
5.95609093764e-07
2.06061067315e-07
3.02649248893e-06
1.24827244467e-06
4.64034293089e-07
6.72938613988e-07
3.43532893875e-07
6.72107892801e-07
1.14579651713e-06
1.5722301575e-06
6.54683562127e-07
1.27878595832e-06
2.22775298098e-07
1.41663227736e-06
1.23258836929e-07
1.01223224295e-06
2.6510992711e-06
2.68919831244e-06
2.31300578743e-08
1.00625736892e-06
6.26054954108e-07
8.79158656759e-07
6.78064935815e-07
1.01712583609e-07
1.24732072933e-06
7.8048729704e-07
5.23499808758e-08
1.23893017993e-06
8.53332259003e-08
1.29811005446e-06
4.17729695547e-07
1.50335798375e-06
1.01334597889e-06
6.04784887571e-07
6.78818775327e-07
5.51812166001e-07

