# vtk DataFile Version 3.0
File Name: Molecule/special/special_0-s21.vtk
ASCII
DATASET UNSTRUCTURED_GRID
FIELD FieldData 1
TIME 1 1 double
0.0
POINTS 609 double
-0.014894402586 0.51128429174 -0.85919415951
-0.17392200232 0.40367263556 -0.89751648903
-0.18054039776 0.59877932072 -0.78028041124
0.14461521804 0.23510812223 -0.96111023426
0.014235766605 0.29983475804 -0.95347541571
0.12789452076 0.38821622729 -0.9125674963
0.20627464354 -0.16686175764 -0.96388828754
0.097364343703 -0.32558241487 -0.93966823816
0.0046593826264 -0.20298987627 -0.97920918465
-0.0051260860637 -0.4812348485 -0.87561434507
-0.10869918764 -0.3198004365 -0.9411919713
-0.19237160683 -0.1414270252 -0.9707146287
-0.75598341227 0.10503973812 -0.64573478699
-0.73323184252 -0.17803429067 -0.65600496531
-0.88317918777 -0.027208426967 -0.46707564592
-0.29316848516 -0.57729506493 -0.76189887524
-0.4054197073 -0.72036808729 -0.56270962954
-0.58012467623 -0.44503903389 -0.67937737703
-0.46812066436 -0.84355455637 -0.26202526689
-0.68805420399 -0.60729396343 -0.39475151896
-0.036830477417 -0.85709375143 -0.51350092888
-0.053959026933 -0.71781438589 -0.69277501106
0.25528231263 0.16202262044 -0.9531455636
0.25564903021 0.30577349663 -0.91716891527
-0.43785905838 0.74216103554 -0.50754016638
-0.67508631945 0.60653460026 -0.41901952028
-0.47303336859 0.84216213226 -0.25812673569
0.054839644581 0.18485511839 0.98116654158
0.09408454597 0.12392117828 0.98772847652
0.14674897492 0.20916613936 0.96680295467
0.86358457804 0.25711399317 -0.4331780076
0.71205365658 0.17606878281 -0.67960584164
0.66343790293 0.40750449896 -0.62715435028
0.5413376689 0.26342132688 -0.79841428995
0.60089641809 0.035949170589 -0.79854315519
0.95029115677 0.16426706314 0.26357835531
0.91600888968 0.002109983936 0.3973506093
0.97700536251 -0.10806949437 0.18146321177
-0.26000139117 0.25502532721 0.93128919601
-0.32200753689 0.31731212139 0.8919775486
-0.37352877855 0.22690695524 0.89907521009
-0.23146688938 0.36720752716 0.90083247423
0.19993616641 0.30854439735 0.92992800474
0.22874498367 0.22514484823 0.94671815634
0.45826652646 0.085597015917 -0.88459575176
0.38117143512 0.23342943192 -0.89451789856
0.20761625469 0.13780727983 0.96804130077
0.69318318367 0.70168453455 0.16212594509
0.70204442739 0.61044275761 0.36593282223
0.84395200014 0.4723149538 0.25080573559
-0.57742679119 0.098247215152 -0.81048125029
-0.47810775042 0.29983991385 -0.82557338476
-0.41877141595 0.13074609637 -0.8983708024
-0.30622118711 0.27391535044 -0.91167706251
-0.32443204522 0.46391290426 -0.82422322035
-0.30019521713 0.10965842754 -0.94745695591
0.068789124489 -0.21369268 0.97447472811
0.001157976687 -0.16589531302 0.98597228527
-0.018539629877 -0.23861663043 0.97085750103
-0.88129788637 -0.31086045504 0.3557254076
-0.82271760702 -0.19123603404 0.53532576561
-0.91966283321 -0.036574110389 0.39096775651
-0.822673738 0.042579524219 0.56645053625
-0.57961332798 -0.64401483536 0.49712705612
-0.75216406584 -0.42603045702 0.50277543068
-0.74057269096 -0.58153188229 0.33640313148
-0.60522276163 -0.49879154563 0.62033945322
-0.17195962369 -0.076195113361 0.98210066557
-0.19774664938 -0.15384852886 0.96807646751
-0.11338908225 -0.13081030548 0.984813869
-0.36650082469 -0.11696836352 0.92302078009
-0.27446776628 -0.094128504395 0.95698386431
-0.3717404902 -0.022194541991 0.92809611559
0.5043208003 0.69725084305 0.50865715742
0.3823158741 0.6807282567 0.62481617928
0.55586582422 0.53747022152 0.6336966753
0.4119566381 0.54483604431 0.73031979799
0.33395031095 0.81642794609 0.46951493621
-0.28595852852 -0.19212462008 0.9387614131
-0.70922785997 -0.18583989143 0.67975538969
-0.69835925102 -0.32684227824 0.63672709465
-0.32226774096 0.57429760695 0.75248247385
-0.22337570786 0.68129736185 0.69569808245
-0.42409294844 0.64329069853 0.63729900122
-0.36444216967 0.7728279829 0.51747691631
-0.53792434931 0.67399501801 0.50435137749
-0.31654945016 -0.55645424128 0.76790857315
-0.16827113926 -0.57704281807 0.79881000519
-0.26060187817 -0.47670975327 0.83951866627
-0.15238291025 -0.44554778934 0.88221883774
-0.23226252198 -0.36664706469 0.90094697475
0.74465560913 -0.21550932527 0.63152700663
0.62258440256 -0.29973527789 0.72224462032
0.7110735178 -0.42470473051 0.56017374992
0.57800114155 -0.46164372563 0.67287385464
0.50315564871 -0.3753452003 0.77801442146
0.8359028101 -0.33735582232 0.43243774772
0.72504711151 -0.59430241585 0.34758168459
0.61011660099 -0.60387259722 0.51286631823
0.54907107353 -0.81160497665 0.19951578975
0.52802842855 -0.75265526772 0.39315578341
-0.1267260015 -0.33801805973 0.93249207735
-0.4495627284 -0.63760852814 0.62507379055
-0.030536873266 0.89588451385 0.44310343266
-0.075612902641 0.96287149191 0.25914153457
-0.246016711 0.89239633083 0.37836045027
-0.27599897981 0.95171576738 0.1343357414
-0.025794811547 0.99922740459 0.019725948572
-0.49000099301 0.82492601871 0.28044241667
0.34923911095 -0.089285328984 0.93275207281
0.42737340927 -0.068464994431 0.90142303705
0.38114103675 0.0049424339086 0.92446899414
0.37926954031 -0.17731334269 0.90813648701
-0.47522655129 -0.50436002016 0.72094869614
-0.3895470798 -0.44993600249 0.80361413956
-0.50511515141 -0.36451739073 0.78219550848
-0.47847345471 0.5185855031 0.70847344398
-0.56327277422 0.39568394423 0.7252368927
-0.46534216404 0.40862190723 0.78508973122
-0.59680694342 0.50626569986 0.62210720778
-0.52132827044 0.29942703247 0.79904848337
0.06413988024 0.65824347734 0.74976104498
-0.022551430389 0.73643428087 0.67608988285
-0.078768789768 0.658018291 0.74806135893
0.17623220384 0.70820212364 0.68352782726
-0.17450095713 0.7536777854 0.63275539875
-0.41739085317 0.3228572607 0.84943681955
-0.31994822621 0.40804898739 0.85492151976
0.22810421884 0.78335666656 0.57818377018
0.060953363776 0.80903583765 0.58446586132
0.14569596946 0.86507195234 0.47967490554
0.15167860687 0.94302755594 0.29452884197
-0.12439350784 0.81759536266 0.56048595905
-0.57161712646 0.59478908777 0.56435674429
0.27837148309 0.95461606979 -0.10457311571
0.26590406895 0.96002578735 0.086902759969
0.46584349871 0.88379025459 -0.0017618983984
-0.49775782228 -0.8247064352 0.26717758179
-0.2602622807 -0.95710736513 0.12731721997
-0.25400483608 -0.90645855665 0.33640360832
-0.050018258393 -0.9605704546 0.27210590243
0.0079919993877 -0.99979132414 0.0025201158132
-0.23576769233 0.48336455226 0.84306913614
-0.19307082891 0.57144892216 0.79715245962
-0.13338878751 0.53973996639 0.83106851578
0.18764454126 -0.11808034033 0.97511357069
0.17048048973 -0.20311558247 0.96418303251
0.27669236064 -0.16972178221 0.94584131241
0.30896565318 -0.25366261601 0.91660296917
-0.5982246995 -0.175273031 0.78173720837
-0.5271615386 -0.10534139723 0.84314519167
-0.62775576115 -0.018688544631 0.77814513445
-0.50158876181 -0.24593217671 0.82926017046
-0.53447240591 0.035799819976 0.84435659647
-0.54878950119 0.17560960352 0.81729120016
-0.65162229538 0.14011366665 0.74530100822
-0.61734700203 0.27378177643 0.73745363951
0.41125366092 -0.4410174787 -0.79770094156
0.38612675667 -0.60843384266 -0.69333612919
0.24685388803 -0.48019555211 -0.84011006355
0.11307498068 -0.071316428483 0.99101686478
0.10926114023 -0.14419895411 0.98326194286
0.091866217554 -0.010448859073 0.99559497833
0.038800608367 -0.073851212859 0.99640262127
0.14314971864 0.033034551889 0.98908102512
0.16964438558 -0.034183364362 0.98489892483
-0.46672046185 0.22797456384 0.85450214148
-0.46726477146 0.1269595474 0.87465560436
0.012898138724 -0.34630534053 0.93788522482
-0.056770492345 -0.40622633696 0.91199320555
0.058867804706 -0.40967002511 0.91031205654
0.002031984739 -0.45703905821 0.88940882683
-0.059448674321 -0.50974673033 0.858253479
0.13649138808 -0.44047129154 0.88720041513
0.061840482056 -0.50927650928 0.85835796595
0.1425755769 -0.60562646389 0.78277206421
0.01576198265 -0.5825201273 0.81245297194
0.11418503523 -0.3477563262 0.9305947423
-0.61383897066 -0.2842502296 0.73643785715
-0.50198423862 0.86481016874 0.013070242479
-0.70596134663 0.69671100378 0.12658369541
-0.67962807417 0.72246283293 -0.12689563632
-0.85090106726 0.52438271046 -0.028808703646
0.25230547786 0.44061952829 -0.8615013957
0.15083679557 0.56526637077 -0.81093227863
-0.3500290513 0.077846862376 0.93330276012
-0.29725202918 -0.0024207399692 0.95479744673
-0.45031896234 -0.057968016714 0.89098614454
-0.43738594651 0.03660646826 0.89852505922
-0.21161648631 -0.43708196282 -0.87395113707
-0.049372904003 -0.60179489851 -0.796007514
-0.29663011432 -0.28016456962 -0.91293364763
-0.38356414437 -0.40515181422 -0.82987612486
-0.45879745483 -0.25193056464 -0.85190165043
-0.47054439783 0.48453950882 -0.73744952679
-0.36142227054 0.62625044584 -0.69075542688
-0.53017610312 0.58944189548 -0.60943847895
-0.61359751225 0.42898899317 -0.66285997629
-0.74910128117 0.32845079899 -0.57510155439
-0.88561153412 0.2035343051 -0.41750940681
-0.638471663 0.25399932265 -0.72651416063
0.30732756853 0.033797767013 0.95099699497
0.23655587435 0.016095686704 0.97138959169
0.29899564385 -0.033113066107 0.95367377996
0.23064079881 -0.051495179534 0.97167760134
0.31896710396 0.54041129351 -0.77855205536
0.38429707289 0.38788938522 -0.83770281076
0.48602107167 0.4769205749 -0.73224812746
0.052970569581 -0.28481778502 0.95711004734
0.1219317317 -0.26998621225 0.95509874821
0.18537071347 -0.29156440496 0.93838053942
-0.74647933245 0.55694532394 0.36150872707
-0.88598936796 0.42750406265 0.17931355536
-0.32754769921 -0.38936603069 0.86089366674
-0.25734394789 0.95715379715 -0.13266280293
0.26929137111 -0.095835231245 0.95828217268
-0.58428120613 -0.3988340199 0.70675754547
-0.41747391224 -0.34334111214 0.84132897854
0.44581469893 -0.51317614317 0.73341602087
0.38220441341 -0.42422705889 0.82094472647
0.27379795909 -0.46925672889 0.83942645788
0.31277096272 -0.54966181517 0.77421241999
-0.33490908146 -0.29836821556 0.89377439022
0.37739983201 -0.28853601217 0.87995135784
0.30983972549 -0.35107809305 0.88334262371
-0.44088697433 -0.16435064375 0.88233751059
[...]
CELL_DATA 1214
SCALARS cell_data_0 double
LOOKUP_TABLE default
4.05795268171e-07
1.07340988262e-07
3.01954782432e-07
1.31624389307e-07
1.9246248788e-07
9.42142015857e-08
2.02309424341e-07
1.22478321202e-07
1.22344464486e-07
3.2137388386e-07
1.32710184736e-07
4.29091000642e-09
2.68898305969e-07
4.23383974839e-07
2.17370974079e-07
2.12037021074e-07
1.38804412584e-08
3.90721938888e-08
2.02599135076e-07
1.99798691328e-07
1.75895931439e-07
2.17455766095e-07
1.31323150428e-07
1.25036197334e-07
3.69475573416e-07
1.46579936477e-07
2.35930628316e-07
7.26761201279e-08
1.51970515419e-07
1.93413949071e-07
8.76580326161e-08
6.07277676307e-07
2.69676871812e-07
2.94523023168e-07
3.86443263906e-07
2.71727750884e-08
2.63795920482e-07
3.963930447e-07
2.25576555588e-07
1.76799104612e-07
5.69131604981e-09
1.76080423642e-07
1.33397259253e-07
1.1667666727e-07
1.46901563519e-07
8.56426121153e-08
4.09391168572e-07
1.10285872297e-07
1.65506408128e-07
2.08641533842e-07
8.38310873979e-08
1.40839880533e-07
4.05197191834e-08
1.1411874718e-07
3.3369791976e-07
4.45895987513e-07
1.67302112735e-08
1.93306755772e-07
2.8158538378e-07
2.0676281612e-07
1.2922983513e-07
1.0626880446e-08
1.10950566727e-07
1.11085905888e-07
1.6246963347e-07
8.57904577046e-08
2.81880346403e-08
7.93624780803e-08
9.66336026616e-08
1.12065401622e-07
1.18130604944e-07
1.14141047762e-07
2.68155824868e-07
1.57948722056e-07
1.62231771045e-07
4.09869967773e-08
5.69193463789e-08
2.45356469478e-07
2.57379919725e-07
3.70630336386e-08
7.59577690355e-09
3.46980498326e-07
5.11278409051e-08
4.43567803534e-08
2.90183941167e-08
1.36338069762e-08
1.50722648315e-07
1.28565298379e-07
7.81210821794e-08
7.69776024951e-08
5.20983384117e-07
3.59586136406e-09
2.05349597372e-07
4.03454458748e-08
4.11117358269e-07
1.21705503349e-07
1.8261015442e-07
9.33508179512e-08
2.34335081305e-07
2.11164044234e-07
1.17856835199e-07
9.37324735045e-08
4.96889323284e-08
6.52900152363e-07
2.12650254302e-08
1.32758329814e-07
6.79287911076e-08
7.650104045e-08
3.43254832824e-07
1.20923673553e-07
1.06246576053e-07
1.51666883296e-07
2.65816907405e-07
3.28384196268e-07
2.84997014297e-07
1.04748110237e-07
6.47788440675e-08
1.51377135196e-08
4.16561269346e-07
1.79241568198e-07
1.85727078547e-07
1.34197856866e-07
4.10788092799e-07
3.21756869163e-07
5.05453130824e-07
7.21362517568e-08
4.37384561141e-07
1.64679803884e-07
8.1598568716e-08
3.97531602182e-08
1.98839080521e-07
1.59819602331e-08
1.09144014756e-07
1.4372551769e-07
2.07216479047e-07
8.86163840048e-10
2.05178663133e-07
2.27820086021e-07
1.6608286401e-07
1.32144368181e-07
1.94497755625e-07
2.74965267039e-07
1.72623959618e-08
1.35972728651e-07
7.68368186321e-08
4.5609189521e-07
2.63977739866e-07
1.28959648645e-07
1.91627718145e-08
7.52948072443e-08
8.55582551968e-08
2.10847160122e-07
1.34875489703e-07
3.4713157777e-07
1.4027514219e-08
3.39122216085e-07
2.29903837498e-07
1.56312473785e-07
4.37120994239e-08
2.48336133214e-07
5.92443665453e-08
1.34332293032e-07
7.82505416326e-08
1.87157767243e-07
3.19071988097e-08
2.77592744892e-07
1.71025630371e-10
1.68536119633e-08
5.17539328811e-08
6.26066277036e-08
3.67466247826e-07
3.32989528043e-08
1.26886003372e-07
6.65528809573e-08
2.44432026719e-08
3.67400715966e-08
4.28262220536e-08
9.14010424621e-08
2.52008528708e-07
2.50097252271e-08
3.18030327491e-08
2.85785381199e-07
2.03055966723e-07
1.44995369126e-07
4.6283979232e-08
3.85330848262e-07
3.14988928401e-07
1.57902575258e-07
1.64774270088e-07
1.74421752084e-08
2.66314904413e-07
5.11336440484e-08
1.28928555795e-07
2.68278626375e-07
6.12431912214e-08
9.02232803399e-08
1.50143826907e-08
9.13720782073e-08
1.05415499302e-07
1.34472616764e-08
3.55038768401e-07
7.15670924247e-08
1.52570516089e-07
2.27454853785e-07
6.8244793966e-08
4.48778577437e-08
2.99773150417e-08
1.22303510058e-08
1.82978906232e-08
1.97220084036e-07
5.28827227819e-08
1.01424081386e-07
3.35507447546e-08
2.02184428961e-07
9.81146143839e-08
7.78589836425e-08
3.27945236126e-07
2.50266654866e-08
1.69842231277e-07
3.12789472019e-08
1.55881062443e-07
3.7986193441e-07
9.47087518972e-09
3.569367824e-07
7.35047062298e-08
2.06660454494e-07
6.90738839306e-08
4.61047129179e-10
1.53473428968e-07
5.05144942999e-08
5.48104927848e-08
2.73499368755e-07
4.02070921563e-08
7.64221013583e-08
7.99434811942e-08
1.03497861157e-07
9.79850496717e-08
3.06273699159e-08
7.01678904943e-08
1.05195628187e-07
2.31502531678e-07
6.59395540873e-08
2.58192850321e-08
2.47854838517e-08
8.75896542069e-09
2.47490983308e-08
8.69134794411e-08
3.20613005698e-08
2.92818578749e-07
2.25896161381e-08
1.0199138761e-07
5.01764121882e-08
1.3483759057e-07
1.08102258402e-07
7.13773848365e-09
9.36310001185e-08
1.7456423973e-07
1.3727698423e-08
2.06909947415e-08
9.66995065322e-09
5.20358080192e-08
3.34146068651e-08
7.505128501e-08
2.34808099058e-08
1.52680597861e-07
1.87116483926e-07
7.2396561309e-09
9.96438474753e-08
8.11851375203e-08
2.39804657559e-08
1.63384765894e-07
1.77166605371e-08
6.46188247009e-08
1.49000134793e-07
7.51672155845e-08
4.70657845771e-07
1.40347981278e-07
3.24798116177e-08
7.70453407872e-08
4.71797093411e-08
2.39253607536e-07
1.41021165297e-07
5.38153893245e-08
4.04026744695e-08
1.33122113749e-07
3.12640682281e-07
9.97537914933e-08
7.19685766718e-08
1.72467874863e-07
1.34468325346e-07
1.65039925131e-08
2.21999896738e-07
4.44636099078e-08
1.21475105145e-07
1.85382774496e-07
9.54136990115e-08
2.13652421401e-07
3.77013413806e-07
9.54197668652e-08
9.32232374524e-08
2.3884798882e-07
8.22136025458e-08
3.56925025912e-08
4.36440690951e-08
3.63868412978e-08
1.44418908651e-07
7.23201053952e-08
1.10057889451e-07
7.07056316387e-08
1.10987875765e-07
7.61975934702e-08
4.59998335995e-08
1.12981169113e-07
6.78895840767e-08
1.00079584173e-07
6.07908222964e-08
2.52750198144e-09
2.11892527174e-07
2.39968178993e-08
2.00530305906e-08
2.50361978581e-07
8.68386710745e-08
1.80215138915e-07
1.69418214118e-07
2.108643927e-07
7.80829285403e-08
1.45662821017e-07
6.38006485576e-08
2.52697250872e-07
1.01245203913e-07
8.19126855575e-09
2.72260813342e-08
6.77542109435e-08
1.05366175511e-07
3.0956664e-07
6.47597657648e-08
5.05499745411e-08
7.0067396933e-08
3.24949694871e-08
2.29626210428e-07
3.71765552559e-07
5.38742575016e-08
8.04927238898e-08
1.0358466554e-09
1.13584351328e-07
5.18143351519e-08
1.32186198642e-07
3.83600458382e-08
1.18338615474e-07
1.59614441954e-07
3.98227949393e-09
1.19480301271e-07
7.01786464034e-08
6.8876316496e-09
7.78958294026e-09
1.38748198353e-08
4.66938987907e-08
9.46154943862e-09
5.86082894487e-08
4.51446230832e-08
3.62346154434e-09
2.85210772873e-07
1.52520449519e-07
2.2038010089e-07
8.97739609589e-08
2.83293798959e-08
1.83078422942e-07
1.56028774003e-07
2.9659368679e-07
1.21675902163e-07
1.42240994448e-07
8.71372521742e-08
1.28936152817e-07
1.74447211929e-07
1.01549944805e-07
6.21397643967e-08
4.84206702787e-08
2.09607834087e-07
1.79301693605e-07
6.89720622226e-09
2.1266651658e-07
3.5651674367e-07
1.27534926963e-07
7.88557037258e-08
1.16373565243e-07
7.51567452472e-08
2.85981590998e-07
2.52514251782e-08
2.86115476113e-08
2.71321112159e-08
3.53608511865e-07
7.45769298988e-08
5.10612791775e-08
2.75806373389e-07
1.67355952145e-07
1.16822342752e-07
1.50759424196e-07
3.56920039926e-07
5.19810588533e-07
9.12997423582e-08
2.79360947189e-07
6.50725840361e-08
3.96948089011e-08
2.69481541061e-08
8.3788175748e-08
5.04090811176e-08
5.63104398859e-08
1.56270375854e-07
1.56942259838e-07
1.32484744203e-07
2.65462248703e-07
1.07067859626e-07
1.88776980138e-07
3.22290452934e-08
2.52690336514e-07
1.94139878181e-08
1.31201237461e-07
1.56655467583e-07
1.60480609853e-07
1.44956576026e-07
2.14867179216e-07
6.15701584066e-09
2.62195592058e-07
3.09427851085e-07
1.12217214234e-07
1.24504647199e-07
8.50957992607e-08
1.16512158446e-07
2.84391913559e-07
2.04402857393e-08
3.85648690592e-08
4.72232207905e-08
7.87652124344e-10
1.82335364407e-07
1.15913836796e-07
5.433985519e-08
2.5619531675e-09
5.1007476256e-08
1.98650379771e-07
2.37396012083e-08
1.65872637066e-07
1.44554890356e-07
3.76020660761e-08
7.81258601821e-08
1.06005223696e-07
4.21933783179e-08
1.175330648e-09
4.09321767166e-08
4.33355393986e-08
2.43982882782e-08
6.24472381975e-09
2.06202357367e-07
1.00400657942e-07
7.53110211523e-09
9.05903518404e-08
6.41092193068e-08
3.47740578616e-08
5.30785747928e-08
7.23404125165e-08
1.66884416693e-08
5.31371501586e-07
1.18396425174e-07
2.9008251334e-08
9.39245841737e-08
3.49582042491e-08
6.8093905384e-08
1.32576968452e-07
3.52287316449e-07
1.38570389247e-07
1.08020373718e-07
1.07707016828e-07
1.10036299384e-07
1.64229888881e-07
1.93854760164e-07
1.21356121198e-07
1.18174287723e-08
1.79545874326e-08
1.49032472245e-07
4.88516295095e-08
7.07016926918e-08
1.06855977215e-07
2.93801006867e-08
1.14601720109e-07
1.31479151432e-07
4.141171065e-07
1.45082715863e-07
1.99794094312e-07
1.35553404915e-07
7.89796844618e-08
3.30330868331e-09
1.76642372153e-09
1.16948300892e-07
1.25783749684e-07
1.02409050367e-07
2.09435408177e-07
5.15064880187e-07
2.78424516041e-07
2.28460525688e-07
6.3246408679e-08
2.02996709221e-08
4.88787038183e-07
6.55250865978e-08
9.65492318647e-08
1.02769136714e-07
1.43638462404e-08
1.23383872949e-07
2.24076512309e-07
2.61686448823e-07
1.58614825888e-07
9.78385963171e-08
1.01565379216e-07
4.50748718983e-08
1.29521314155e-07
1.93976768766e-07
3.95397188591e-07
5.61822590975e-08
8.76881925155e-08
8.57790931914e-09
1.52446663367e-07
2.08439732575e-07
1.02906178424e-07
9.20465517972e-08
2.51074699094e-07
2.57073663064e-07
1.33894732519e-08
1.64636675657e-07
5.21610743812e-08
1.05242968237e-07
1.96503655829e-07
4.34973867302e-08
1.63459616159e-07
7.19466528878e-08
1.5936341342e-07
1.25824981445e-07
1.83066985796e-07
2.48814698968e-07
9.09058087992e-08
1.59300513522e-07
1.12595426659e-07
1.39104519965e-07
1.48148353608e-07
1.32568857568e-07
3.99028477554e-08
2.43599107569e-08
1.77549994604e-08
1.3082937854e-07
2.59465134485e-08
4.55251394468e-09
1.01000295003e-07
7.01132316458e-08
1.38813235489e-08
2.40614198323e-09
9.12875018526e-08
1.11057495646e-07
6.45574191903e-08
1.60103587338e-07
2.38702679341e-08
3.64991886952e-08
1.82311611521e-08
1.25564619798e-07
1.97783829452e-08
7.08749277381e-09
3.92264693279e-08
9.69013745247e-08
8.13305536469e-08
1.91276021951e-09
1.85906379932e-08
8.18434997025e-09
4.7421324677e-08
2.84095338018e-08
1.4658274242e-07
1.2371318338e-07
6.81162986984e-08
2.76595922127e-07
6.73955781485e-08
9.51942500706e-08
5.70749908307e-08
4.79244453564e-08
1.94645597233e-07
1.08376379044e-07
1.51627277006e-07
1.40661811438e-08
1.9320416493e-08
1.56699892111e-07
1.47108063371e-08
2.78272100165e-07
2.52833178737e-07
4.71565719053e-07
3.95532697185e-08
1.27524005856e-07
8.54536496788e-08
3.39884231812e-07
5.92919734955e-08
1.99248197075e-07
1.00732088189e-08
4.33364914932e-08
7.24432301374e-09
5.12193269728e-08
1.78951487849e-07
7.72932227509e-08
1.87582651946e-08
3.37926246689e-07
9.91627297135e-10
6.20832572106e-08
1.28414395077e-07
1.79661173036e-08
6.25676380578e-08
1.1559441997e-07
2.50288079823e-07
2.20540178114e-07
3.95145862045e-07
2.49981104353e-07
9.54019259238e-09
3.61380116463e-07
1.15330734382e-07
1.02194907003e-07
1.15995990401e-07
1.25699128379e-07
6.32858042148e-09
4.21825675691e-08
4.89550557069e-08
8.55877738457e-09
6.23408384659e-08
4.42243215355e-07
3.56087238417e-07
1.46644968929e-07
2.65306968793e-08
1.08497669629e-07
1.24468152426e-08
1.28760967443e-07
8.54329226117e-09
3.10176020982e-08
2.36358194422e-08
4.4385383515e-08
8.80735323405e-08
1.1722039131e-08
3.14523368651e-08
1.97391865976e-08
5.1463512376e-08
1.75008706526e-08
6.06248074782e-08
1.52864595167e-08
2.89392325756e-08
8.77235969137e-08
1.37894243676e-07
8.54725798531e-08
1.35772274201e-07
3.25488675188e-07
2.9165813144e-07
7.11975218371e-08
3.18107810006e-07
6.92488719295e-09
3.11502585177e-07
5.79893365207e-08
1.93666092914e-07
1.20728152174e-07
4.95391618215e-08
1.45177490544e-08
6.50930994708e-08
1.94130559082e-07
2.32113704278e-07
1.26382518517e-07
1.95776789756e-07
3.23624935642e-08
1.36391275462e-09
3.09408254711e-09
2.2836716823e-07
8.2241442933e-08
1.05205270753e-07
1.00938232717e-08
2.1881375506e-08
6.90324317731e-09
3.28875279332e-08
4.29472343675e-07
7.10454835595e-08
8.40013182829e-08
3.1944164103e-07
1.31672046369e-08
7.30849565093e-08
4.207325708e-09
1.30227328964e-07
1.56319113653e-07
1.45480845742e-07
4.31180643581e-08
7.4028902e-08
1.89824957437e-07
8.23050186195e-08
1.08694211353e-07
7.0278074122e-08
7.84750524493e-08
2.35837963264e-07
1.47867845491e-07
8.26758586813e-08
1.86416951121e-08
1.12229500223e-07
3.18307924834e-07
4.32382491546e-08
3.20391314401e-08
1.68792789785e-08
8.63594005648e-09
2.52724875394e-08
3.66369148587e-08
9.64345032733e-08
1.56608237709e-07
3.01481642513e-08
1.40476626751e-07
6.34999431304e-08
2.27283249102e-08
1.55006230997e-08
2.72261328733e-07
3.11196263772e-07
2.3134259289e-07
2.03911714709e-07
3.66657212852e-07
1.35063036562e-07
2.25877759209e-07
2.56628736435e-08
1.42652586287e-07
1.34790939694e-07
5.67279091441e-08
3.10576486793e-07
1.12604522759e-10
3.86878433298e-07
1.72226989868e-08
7.29657269559e-09
1.87110854106e-07
6.06095395842e-08
9.60069720414e-08
1.98523068495e-10
2.68320678553e-08
1.43867103208e-08
2.10280422419e-07
8.75189700729e-08
5.5336535931e-09
1.6071710008e-07
1.14453789878e-07
7.99187802151e-08
3.96914457448e-08
1.09331352143e-07
9.34385902192e-08
1.9965616365e-07
2.86442636272e-08
6.92881357314e-08
5.72234146901e-10
6.54584095937e-08
1.19828247245e-07
1.3006427953e-08
1.52083316186e-07
2.10884429732e-08
4.21142136308e-08
6.88275256222e-08
1.222253814e-07
1.05424133962e-07
3.17429378345e-07
8.97939408965e-08
5.45011750497e-08
3.23443530954e-08
9.8837698312e-08
6.50957971936e-08
5.46573287492e-08
4.30905397991e-08
8.4890903283e-08
1.58711894469e-07
1.20375837574e-07
4.94167739139e-10
7.06452319169e-08
7.86073847052e-08
1.97017957184e-07
2.58522959316e-07
3.44847018506e-08
2.89895341898e-08
1.60200383581e-08
8.9666369804e-08
2.13444002296e-08
8.75452465766e-08
9.86776002679e-08
6.00108456836e-08
1.57728568871e-07
4.72406781622e-08
3.84436306375e-07
3.71498482204e-07
2.90730213979e-07
3.82749959867e-08
1.05321562977e-07
8.67896279134e-08
9.35965847573e-08
1.03660666967e-07
1.32679797125e-07
1.73962570785e-07
1.16597166791e-07
4.01515247467e-08
5.07638760863e-08
1.15869896765e-08
2.05896655689e-07
1.70647014306e-07
1.71414880091e-07
5.35963491618e-08
5.27868261902e-08
1.72783254361e-07
8.70898282426e-08
8.06506522347e-08
4.72976424529e-08
8.9835459713e-08
1.21304574233e-07
1.04241677244e-07
2.01387479318e-07
8.28016850161e-08
3.22392836927e-08
1.06914830824e-07
1.59561820567e-08
1.51097565395e-07
2.10140452787e-07
1.24112248948e-08
4.72674916383e-07
1.70358588151e-07
9.78838167344e-08
4.99397046168e-08
4.01717259569e-08
6.65074665102e-08
2.95592618173e-08
7.86423422103e-08
1.2836278622e-07
1.47369423081e-07
1.75372011969e-07
3.82797666117e-08
6.64813561491e-09
1.38375670008e-08
1.04341857992e-07
1.80410715998e-07
1.32899920517e-07
5.12055572671e-08
5.99630907245e-08
1.47835838947e-07
1.89486031469e-07
5.00634336484e-08
9.6322726741e-09
1.07551798353e-08
2.00338737036e-07
2.85370585485e-08
3.23716133598e-07
1.85040028907e-08
1.67785944696e-07
5.29784583231e-08
1.68297932277e-07
4.81530512079e-08
4.11318592945e-10
1.06073447521e-07
2.5202341146e-08
2.63314445589e-07
1.97081618899e-08
1.124119947e-07
4.76125841802e-08
1.32711727948e-09
2.66396082787e-08
2.7025056046e-08
2.98918023705e-08
3.96173062836e-08
2.49056995521e-08
7.13451264533e-08
1.53494881941e-08
4.35830407428e-08
3.03226168628e-07
1.5642913107e-08
2.8900908335e-08
4.42441027115e-08
4.88181860699e-08
1.22652115833e-07
5.65492017147e-08
7.89394653827e-08
5.16842292556e-10
1.85657128154e-07
2.16704110614e-07
5.0520072698e-08
1.81557605888e-08
3.29557438247e-08
1.91835077647e-07
3.02671580644e-07
9.02920449312e-08
1.69769776647e-07
9.40252205123e-08
1.00970524509e-07
3.11941273148e-07
1.53342420188e-07
1.5428460385e-07
2.79283642317e-08
2.78931165382e-08
2.58576249381e-07
5.17026222187e-09
8.3574664107e-08
4.47947767141e-08
4.42486898837e-08
4.94833163796e-08
7.72302377514e-08
3.29233987215e-08
1.19491266176e-07
2.82151382917e-07
4.18238089547e-08
3.45431591078e-08
8.88049198613e-08
5.86711371567e-08
4.86760693329e-08
4.99428449703e-08
4.06630813573e-08
2.01956390624e-07
1.77658546009e-07
1.54555823075e-07
5.45818405757e-08
1.63181850882e-07
9.03252841504e-09
1.90203861858e-07
3.06447583559e-08
1.4720696188e-07
1.43975116346e-07
1.11034464125e-08
1.81799490726e-07
5.45424353716e-08
1.82648279682e-08
5.76740274857e-08
9.43616715642e-08
2.05787477306e-08
1.49309941934e-07
4.16302224207e-10
6.86336651162e-08
1.02887755453e-07
2.73447757751e-08
5.08757390899e-08
9.92634192525e-08
3.15110543435e-08
5.90373751898e-09
7.54653671551e-08
1.28559761445e-07
1.23070043353e-07
8.52908090734e-08
1.39706414219e-07
1.1336901355e-07
1.57108740245e-07
7.91913216771e-08
4.77929171044e-08
2.1066137128e-08
1.80124365629e-08
1.17013229373e-07
9.27667423067e-08
4.262025333e-08
2.3690436966e-08
4.32428596761e-09
3.70809316243e-08
1.93032569828e-07
1.2577054987e-07
5.54370244139e-08
7.80507639842e-08
1.95508979509e-07
6.07445561738e-08
1.85154186777e-08
3.87088713015e-09
7.51589295309e-08
2.04052610083e-08
1.99279320883e-07
7.43276172231e-08
1.57083574992e-07
2.58714236007e-08
9.02626301612e-08
2.18588461036e-08
6.68216235456e-09
3.69970108999e-08
3.677684169e-07
4.4756081957e-07
3.24373328028e-07
2.79086441633e-08
1.04466359333e-07
8.46694777121e-08
9.30993916669e-09
1.53742457244e-07
1.13374636971e-07
6.81930598439e-09
3.26208864409e-08
1.8063614609e-08
2.42545237644e-08
2.72209428199e-07
6.3279504325e-08
1.24213088338e-07
4.98851410989e-08
4.72071466124e-08
6.44018025097e-08
2.26239883107e-07
5.8496444111e-08
1.23069420727e-08
1.08848190321e-07
1.01110363966e-08
1.71206313269e-08
1.43733814694e-07
7.84564186741e-09
9.91921273116e-08
6.05910759633e-08
1.50664778995e-07
7.51588257321e-08
1.60146499647e-08
5.76286123713e-08
1.52526546178e-07
8.41739156847e-08
3.52470116715e-07
3.79965696119e-08
1.69809831474e-07
2.51124325599e-07
1.53002319062e-07
1.503296451e-07
1.32952345434e-07
1.1359547099e-07
1.67416117183e-07
7.59315131221e-08
1.30989720214e-07
3.4392978112e-07
1.49667233938e-07
3.34698984105e-07
1.05592897953e-07
2.86553354286e-08
6.72849103586e-08
3.05159099674e-08
9.31824696272e-08
3.05500390777e-08
4.19906263367e-08
3.24309666555e-08
1.13674084149e-08
3.61963788723e-09
9.32845171434e-09
1.48317417112e-07
1.47132979396e-07
1.65195920883e-07
5.12834736556e-08
1.17335347241e-07
1.46885348892e-07
2.35827418032e-08
9.34890876614e-08
1.81249109148e-07
6.43927844579e-09
3.75613371503e-08
8.46688455669e-08
1.47986718869e-08
1.35334595951e-07
1.16410629407e-07
2.21243081003e-07
1.76002682712e-07
8.30381818552e-08
5.92276044418e-08
1.2552221097e-07
1.50139917241e-07
8.47410924239e-08
1.65454962542e-08
9.11904980314e-08
9.42830548062e-08
7.77959164419e-08
4.80487864223e-08
7.25551551788e-08
1.99289815564e-07
7.44090207413e-09
5.23721726263e-09
5.74845064731e-09
4.09288974387e-08
1.16861676916e-08
4.11643598557e-08
2.67306020279e-07
1.23454468273e-07
1.36221410083e-07
1.75004592777e-07
1.20694276911e-07
1.81316545155e-07
1.93738665815e-07
8.1074519111e-08
5.00025822143e-08
2.93017267426e-08
1.07155127385e-07
2.82814858175e-08
1.51985499335e-07
4.10848534297e-08
8.70081867458e-08
2.97410759497e-08
6.17598150809e-08
9.0000826522e-08
1.47395838367e-07
1.95919275411e-07
2.0123227763e-07
5.47169847871e-09
6.52592562664e-08
1.67675816921e-07
2.41295983583e-08
2.35092041735e-07
1.10117332397e-07
3.57483424228e-08
3.03151756214e-08
6.0400614284e-08
3.66857566546e-08
6.82732495463e-08
5.54519575911e-08
6.06619519332e-08
3.41378915972e-08
4.49308132913e-08
9.75926624179e-08
2.76547877744e-07
1.01583847111e-08
3.35576692874e-08
1.02101801284e-07
1.00631241477e-07
7.40013809514e-08
7.68515180934e-08
2.28683097513e-08
2.21789086192e-07
6.06059540717e-08
2.83644735129e-08
1.52740321369e-08
2.30447792026e-08
7.04609566638e-08
1.41474858548e-07
1.56292639064e-07
1.92625128063e-08
2.67090735396e-08