# vtk DataFile Version 3.0
File Name: Molecule/special/special_0-s25.vtk
ASCII
DATASET UNSTRUCTURED_GRID
FIELD FieldData 1
TIME 1 1 double
0.0
POINTS 1077 double
0.15400363505 -0.18621566892 -0.97006189823
0.075044572353 -0.32418113947 -0.94300699234
-0.0012044281466 -0.20987410843 -0.9777225852
-0.011669300497 -0.45718896389 -0.88922488689
-0.081391431391 -0.3110012114 -0.94669955969
-0.15052288771 -0.18138593435 -0.97172659636
-0.76240980625 0.099120229483 -0.63939058781
-0.75838935375 -0.15560340881 -0.63269323111
-0.87149196863 -0.033747490495 -0.48915824294
0.26019093394 0.17915333807 -0.94864565134
0.16491088271 0.22816386819 -0.95945525169
0.2629660964 0.3125731051 -0.91275513172
0.85934501886 0.2483098805 -0.44680646062
0.71897155046 0.17401568592 -0.67292660475
0.69442439079 0.3778450191 -0.61086720228
0.58197444677 0.35172241926 -0.73179972172
0.95572221279 0.15003123879 0.25272804499
0.93210154772 -0.0063255922869 0.36147046089
0.98284161091 -0.096798509359 0.15752063692
-0.57904082537 0.10404559225 -0.80860376358
-0.48387256265 0.30459207296 -0.82044905424
-0.42678892612 0.14534458518 -0.8925691843
-0.31954538822 0.24633875489 -0.91477352381
-0.3077044189 0.12653400004 -0.94296133518
0.39198893309 0.66428202391 0.63538593054
0.42295736074 0.55190628767 0.71840727329
0.53160482645 0.56704825163 0.62893533707
-0.4419657886 0.66242611408 0.60421210527
-0.39455717802 0.75835227966 0.51882195473
-0.5221247077 0.68201220036 0.51204872131
0.56765413284 -0.46158629656 0.68148887157
0.6020643115 -0.31729748845 0.73257172108
0.51665365696 -0.39243903756 0.76063024998
-0.023842798546 0.9041711092 0.42644441128
-0.081277683377 0.96491104364 0.24957361817
-0.21188960969 0.91137242317 0.35248580575
-0.2819776535 0.95045810938 0.13071157038
-0.061560072005 0.99798762798 0.007824129425
-0.49107515812 0.50720638037 0.70823544264
-0.56440979242 0.39934247732 0.72245770693
-0.47245079279 0.4093978405 0.78049367666
-0.6084972024 0.48580786586 0.62745022774
-0.51962333918 0.30752065778 0.79712164402
0.061581466347 0.6702080965 0.73955130577
-0.043826818466 0.7402818799 0.67077296972
-0.080842442811 0.67138725519 0.7365834713
-0.21172893047 0.67441618443 0.70733070374
-0.1651096493 0.75409811735 0.63564670086
-0.3327332139 0.31274062395 0.8896073103
-0.41986277699 0.32981073856 0.84552943707
-0.38871797919 0.24977838993 0.88682329655
-0.32013198733 0.40369182825 0.85704761744
0.22263541818 0.79819816351 0.5592700839
0.34055483341 0.80923992395 0.47849485278
0.14913739264 0.87310242653 0.4640969336
0.048682108521 0.83747458458 0.54369229078
0.12571501732 0.94126039743 0.31331369281
-0.079167701304 0.82339930534 0.56156933308
0.26964971423 0.95997983217 -0.073200188577
0.30127546191 0.94983619452 0.0816969648
0.46153396368 0.88613051176 -0.036765094846
-0.48207440972 -0.84462797642 0.23197820783
-0.2635589838 -0.95765239 0.11506125331
-0.27250418067 -0.90946024656 0.31367307901
-0.063965588808 -0.96550643444 0.25197842717
-0.0020084036514 -0.99793964624 0.043371256441
-0.31262788177 0.55414199829 0.77135539055
-0.23799951375 0.48446890712 0.8418148756
-0.22079741955 0.57780230045 0.78570759296
-0.15555366874 0.5398388505 0.82722312212
-0.52576190233 -0.089152514935 0.84581613541
-0.54225623608 0.0090849539265 0.8399643898
-0.58801305294 -0.07967851311 0.80463773012
0.41614589095 -0.44445356727 -0.79321241379
0.39401394129 -0.6129899025 -0.68480795622
0.2606215775 -0.50774669647 -0.82088661194
-0.46666690707 0.23528340459 0.85253620148
-0.53999906778 0.20430082083 0.81645381451
-0.47912687063 0.14320226014 0.86591523886
0.1430363059 -0.44042608142 0.88633430004
0.067257590592 -0.42201581597 0.90407299995
0.064282409847 -0.51243412495 0.85630726814
-0.1453512907 -0.43353703618 0.88926762342
-0.080239862204 -0.39505183697 0.91511124372
-0.13225190341 -0.35826602578 0.92414569855
0.13712328672 -0.60416144133 0.78496336937
0.027792179957 -0.59029597044 0.80671107769
-0.034603536129 -0.52950876951 0.84754228592
0.0070584453642 -0.46748676896 0.88394594193
0.123575598 -0.35731199384 0.92574512959
-0.51474791765 -0.36619514227 0.7748644948
-0.50407779217 -0.26445138454 0.82212346792
-0.609161973 -0.28451570868 0.74022483826
-0.24229116738 0.39195489883 0.88731396198
-0.50346583128 0.83154779673 0.23351028562
-0.50043565035 0.86576730013 0.001039766008
-0.69195026159 0.71337473392 0.11004080623
-0.69422453642 0.71195226908 -0.10197674483
-0.84606927633 0.53204166889 -0.033304333687
0.25692728162 0.44577804208 -0.85747665167
0.15589413047 0.40512177348 -0.90088427067
0.16500817239 0.55596613884 -0.81444722414
-0.45135495067 -0.057872246951 0.89046728611
-0.39078882337 -0.0087919794023 0.92043220997
-0.42945641279 0.036083959043 0.90231078863
-0.35869163275 0.053148426116 0.9319010973
-0.49486100674 0.474919945 -0.72764497995
-0.60138183832 0.42356297374 -0.67717248201
-0.52321135998 0.58441191912 -0.61912101507
-0.88710266352 0.20153300464 -0.41515979171
-0.76650345325 0.30498507619 -0.56444579363
-0.64675176144 0.2565279007 -0.71827465296
0.23117275536 -0.052019577473 0.97144752741
0.18204554915 -0.040695596486 0.98242211342
0.19245825708 -0.096347726882 0.97656291723
0.31855720282 0.54399824142 -0.77623027563
0.38792917132 0.38299441338 -0.83829730749
0.38787913322 0.23122508824 -0.89223641157
0.54066288471 0.26357316971 -0.79873478413
0.13092957437 -0.28101938963 0.95071423054
0.18835863471 -0.29787707329 0.93583571911
-0.4424648881 0.85770690441 -0.26162114739
-0.26542583108 0.95513635874 -0.13108666241
0.27906659245 -0.088234700263 0.95608258247
0.24671000242 -0.1133588627 0.96223682165
-0.57691347599 -0.40847158432 0.70731347799
-0.47186765075 -0.4801068604 0.7393001914
0.45041388273 -0.50888323784 0.73335915804
0.37759158015 -0.44156715274 0.81360965967
0.28033667803 -0.47991403937 0.83130347729
0.32611069083 -0.53840446472 0.7769729495
0.31284794211 -0.25540310144 0.91481000185
0.38980704546 -0.27845194936 0.8777320385
0.38077303767 -0.20763958991 0.90097916126
0.19226698577 -0.36728069186 0.91001707315
-0.69084239006 -0.18808355927 0.69802170992
-0.62482213974 -0.17473557591 0.76066297293
-0.059022001922 0.96223092079 -0.26596704125
-0.24234722555 0.88535237312 -0.39669668674
0.0022967960685 0.86316514015 -0.50433522463
-0.68239277601 -0.71789771318 0.12956467271
-0.50828033686 -0.86011129618 0.031160613522
0.28296396136 0.66729331017 -0.68783116341
-0.028969181702 0.71092963219 -0.70206344128
-0.2057992816 0.76945328712 -0.60464280844
-0.19048000872 0.62952542305 -0.75315916538
-0.35549607873 0.65354663134 -0.66810762882
0.19887244701 -0.77887415886 -0.59467858076
0.21418911219 -0.63087284565 -0.74551934004
-0.5407922864 -0.10154234618 -0.83497726917
-0.66026413441 -0.050216276199 -0.74929195642
-0.61985504627 -0.23994912207 -0.74642044306
-0.46640059352 -0.26542490721 -0.8438192606
-0.72271215916 -0.35067486763 -0.59533959627
-0.55703800917 -0.46277090907 -0.68934237957
-0.47797372937 -0.41822609305 -0.77177906036
-0.87533819675 -0.41781818867 -0.2430202961
-0.70095974207 -0.61011105776 -0.36718994379
-0.77313411236 -0.623444736 -0.099530026317
0.79716825485 -0.33073109388 -0.50505131483
0.65787273645 -0.26849535108 -0.70346391201
0.74279636145 -0.09124071151 -0.663223207
0.58651149273 -0.14563044906 -0.7967031002
0.46888700128 -0.20192405581 -0.85976344347
0.51938194036 -0.31205952168 -0.79548412561
0.61409497261 0.028254471719 -0.78799444437
-0.42128908634 0.75820577145 -0.49653923512
-0.2860468328 0.0039102220908 0.95818728209
-0.24243026972 -0.019123828039 0.96997863054
-0.24682462215 0.042426679283 0.96808558702
-0.19271923602 0.048466842622 0.98005491495
-0.21268641949 0.089799188077 0.97299408913
0.54536300898 0.5941618681 -0.59060692787
0.46680405736 0.70347553492 -0.53585970402
0.66201031208 0.62830418348 -0.40775033832
0.45555266738 0.47770819068 -0.75051647425
0.3957297802 0.63265609741 -0.6642113328
0.45707306266 0.79909956455 -0.39054203033
0.56709361076 0.79450917244 -0.21697762609
0.40469896793 0.87940996885 -0.25014552474
0.29021725059 0.82903587818 -0.47657996416
0.34931993484 -0.88709414005 0.30078792572
0.22825270891 -0.88711667061 0.40098422766
0.16120657325 -0.96374946833 0.21221606433
0.509519279 -0.59181290865 0.624566257
0.40615063906 -0.66296255589 0.62878197432
0.4755794704 -0.70167630911 0.53053933382
0.13731777668 0.98980528116 0.036402691156
0.099546872079 0.98706626892 -0.12547394633
0.13278979063 0.94366031885 -0.30230996013
0.27633234859 0.87772762775 -0.38908201456
-0.46040257812 -0.16393193603 0.87220692635
0.36693745852 -0.2988756597 -0.88086003065
0.61302214861 -0.4459554255 -0.65201759338
-0.42107224464 -0.25462090969 0.87052631378
-0.35471045971 -0.28798508644 0.88942009211
-0.36693653464 -0.21794180572 0.90430545807
-0.41135412455 -0.33351522684 0.84791135788
0.8611934185 -0.50802320242 -0.016733054072
0.86124747992 -0.4370828867 -0.25924697518
0.96053624153 -0.26525086164 -0.084139168262
0.93483799696 -0.19150969386 -0.29881510139
0.99373215437 -0.025864165276 -0.10856568068
-0.95496976376 -0.29594811797 -0.018635267392
-0.97303837538 -0.14408479631 -0.17931842804
-0.84892362356 -0.52423322201 -0.036810141057
-0.9990760088 -0.041272416711 -0.0030968494248
-0.88855326176 -0.29125058651 0.35377445817
-0.9696020484 -0.1651237756 0.18038737774
-0.88764435053 -0.42301568389 0.17673325539
0.45285019279 -0.84910362959 -0.27035114169
0.71210324764 -0.67951536179 -0.17640626431
0.55545097589 -0.83071023226 -0.035516113043
0.73763787746 -0.67143332958 0.062422070652
0.71964597702 -0.54821568727 -0.42596238852
0.30097419024 0.44770735502 0.84198844433
0.26663902402 0.54049766064 0.79780763388
0.21228173375 0.46091112494 0.86165302992
-0.34682995081 0.027533425018 -0.937517941
-0.4592320323 0.0040320376866 -0.88832551241
-0.42471554875 -0.14560472965 -0.89352595806
0.17191711068 -0.048029594123 -0.98393708467
0.064352579415 -0.10404873639 -0.99252551794
-0.13988357782 0.1057164669 -0.98451966047
-0.14559665322 0.20197436213 -0.96832871437
-0.064614415169 0.14853826165 -0.98677998781
[...]
CELL_DATA 2150
SCALARS cell_data_0 double
LOOKUP_TABLE default
8.59671659501e-08
6.63988146058e-08
6.21192354376e-08
5.30956726088e-08
2.48611344886e-08
1.10997643049e-07
1.53769914258e-07
4.57870063758e-08
1.01059306123e-07
1.27965542221e-07
8.18412537052e-08
8.45414241303e-08
5.77877811709e-09
4.33651599808e-08
7.3391710488e-08
3.26019398954e-08
1.16556940598e-07
2.67280092658e-08
2.37009576332e-08
1.98571214133e-07
3.08969726059e-08
1.1571718501e-07
4.61463390779e-08
7.53587055117e-08
7.09871010863e-08
3.39596178626e-07
2.04063445557e-07
4.75640640162e-09
5.04317184905e-08
3.29075602121e-08
1.13197367913e-08
1.19167194408e-07
6.93539635528e-08
4.45811732756e-08
1.35847515147e-07
1.1033891474e-07
2.36859173283e-08
1.1875710903e-07
7.96277036349e-08
7.44318346538e-08
7.15214208519e-08
2.24420685686e-08
5.97599028596e-08
5.9467769635e-08
5.67279768848e-09
4.71884347595e-08
4.00757266004e-08
1.00372818452e-07
2.39992598762e-07
5.40671447821e-08
3.17850093821e-08
2.06499529876e-07
4.11911114362e-08
7.65456389898e-08
1.47454584322e-07
2.1995038641e-08
5.0917122486e-08
3.45991381301e-08
2.31590287476e-08
9.46200663231e-08
7.73742718601e-08
3.71966229145e-08
6.43633724109e-09
8.79610918979e-08
1.29461542413e-07
1.0247938335e-07
8.65156616527e-08
1.11088427227e-07
2.85042716781e-07
1.19573772826e-07
6.53081657629e-08
3.92323569709e-08
2.15632012099e-07
1.11020650698e-07
9.42062254452e-08
5.6048282257e-08
3.97595277185e-08
9.0762247307e-08
1.37341171828e-07
3.29588938785e-08
9.86123433942e-08
1.15559456255e-07
3.57988271702e-08
1.21818370563e-07
5.59589635588e-08
6.38767657194e-08
5.71661340065e-08
7.07769110186e-08
6.65822669724e-11
6.45305614905e-08
7.19279946811e-08
7.87218117651e-08
9.38048627142e-08
2.42615626781e-07
7.05303909809e-08
7.97979495658e-08
1.22484969472e-08
2.88192073226e-08
2.4845546639e-08
3.56672791249e-08
4.56947549201e-08
2.50731926476e-07
1.37653181178e-09
1.08823464326e-07
2.45091260018e-08
6.90935913979e-08
3.39598125831e-08
4.51817784784e-08
9.07311930169e-08
7.09315556584e-08
4.19709374411e-08
3.8259021358e-08
2.83519838933e-08
2.35713336396e-08
8.44601348487e-09
2.40733433697e-07
7.96775564002e-08
1.06003303662e-07
4.16600261048e-08
1.02546505379e-07
9.69907345907e-08
1.88183344375e-07
2.18895234712e-07
7.92897082338e-08
7.74094246549e-08
3.09270554815e-09
1.58105135717e-07
6.07720594564e-08
4.25488630627e-08
5.06475808606e-08
1.28072923855e-07
5.92782302172e-08
6.36433206589e-08
2.76484153357e-08
1.59323713454e-07
2.98227167405e-09
1.20800968336e-07
4.54800905417e-08
4.53169855049e-08
1.16517233256e-07
1.28022284664e-07
4.09795990929e-08
8.81315733697e-08
5.85950649193e-08
1.42264662578e-07
1.11500068385e-07
2.52041565222e-07
5.50674047193e-08
5.44032349314e-08
7.87671036702e-08
1.12159767126e-07
2.91863527525e-09
3.9933117361e-07
2.49571268445e-08
3.00389314411e-07
2.02782175956e-07
4.32857353198e-09
1.59790780424e-08
6.36223727094e-08
1.01434829473e-07
8.40803617985e-08
2.64159359512e-08
1.08953567944e-07
1.56517054407e-07
5.31771929818e-08
8.01183857306e-08
2.91402270055e-08
1.11359431449e-07
1.30964264212e-07
4.06896984677e-09
7.58658894622e-08
8.63099807305e-08
8.90684440739e-09
8.44049348928e-08
1.49960610966e-07
1.2699463803e-07
3.22946580378e-09
2.25521150199e-07
8.52303548773e-08
9.31642807206e-09
3.46004351953e-08
4.80373035955e-08
2.8706173302e-09
2.38758145819e-08
4.3083527273e-08
6.67502694206e-08
5.46883059949e-09
6.01640567202e-08
2.3177855281e-08
2.07022990139e-08
1.17941378125e-08
9.19679314184e-08
1.62927416273e-08
7.58025037452e-08
6.14385095248e-08
8.91117090269e-08
1.1950736463e-07
9.42396268702e-08
7.65826932539e-09
2.12901714807e-08
1.66063752555e-07
2.53831425994e-09
1.53715138595e-07
2.38044969775e-08
5.65958595888e-08
7.51473388505e-08
1.05006596045e-07
1.66046039467e-08
1.06446568517e-08
4.71344017164e-08
3.77444369585e-08
8.83197903692e-09
5.53380894235e-08
2.65451295035e-08
1.29393285784e-07
4.50008624866e-08
1.04526919973e-07
3.38316360438e-08
3.36731844024e-08
8.89488477756e-08
8.11594686854e-08
1.58331436656e-07
4.00670473101e-08
1.41121680849e-07
1.06348362534e-07
3.88409805629e-08
1.82733799777e-08
1.05726260947e-07
3.49990386811e-08
5.26052320724e-08
9.34701227039e-09
1.52949215179e-07
3.015976456e-08
1.01485235965e-08
1.29962535155e-08
1.26554679988e-07
2.31745166457e-07
2.08120802773e-08
4.06217982519e-08
6.50844204478e-08
4.85215226571e-08
8.02952508304e-08
3.97058139785e-08
1.37369008893e-08
1.13958266249e-07
4.18354243059e-08
2.31932669878e-08
9.322774026e-08
7.24460647273e-08
1.29379560542e-07
8.3031574392e-08
5.36256960468e-08
1.08272285229e-07
7.9481519209e-08
1.20353195867e-08
1.6974362098e-08
8.77626444833e-08
3.24673118609e-08
8.85164948466e-08
1.82548985012e-07
1.35438501931e-07
1.32564300224e-07
3.21414573117e-08
9.23513862989e-08
7.38539460135e-08
3.12807921248e-07
6.82084664566e-08
1.93679641869e-08
5.17592893138e-09
1.95804931684e-07
2.30755246278e-08
2.19519967703e-07
4.31387282352e-08
9.4433678822e-08
4.85554732557e-08
1.67507897921e-08
5.12763572985e-08
1.33093501026e-07
3.0482839741e-08
7.88386133521e-08
1.19787981331e-07
5.29929832725e-09
4.29717094907e-08
7.75816729002e-08
1.02635865226e-07
8.52690227422e-08
5.14835216074e-09
8.11809405365e-09
4.45963798074e-08
6.70431701126e-08
9.5706306619e-08
9.54452151112e-09
1.42591603871e-07
6.90543441309e-08
5.83125831499e-08
4.67792994936e-08
1.09166128508e-07
7.72310364911e-08
7.40874202882e-08
1.02177499985e-08
6.90889581309e-08
8.29115734906e-09
1.58645995903e-07
6.34875808916e-08
1.00498137599e-07
1.40704493784e-08
9.87270478878e-08
1.97449571016e-07
3.38693624736e-08
5.61288341693e-08
3.97148443723e-08
6.97008027525e-08
2.91680157515e-08
3.28070638245e-08
3.93778844094e-08
7.66042872445e-09
2.86737950484e-08
2.02093303066e-07
2.2217090694e-09
8.48515282451e-08
2.34079458731e-07
3.21042922171e-08
9.56324669261e-08
2.65279066808e-08
1.09584172482e-07
9.07661189187e-08
1.2677210629e-08
7.48361434147e-08
1.21136940707e-08
1.24617414026e-08
2.6815346525e-08
9.66228592043e-08
2.34874402307e-08
5.04919509167e-08
2.10470943472e-09
5.35796623669e-08
5.94924728919e-08
1.3027661314e-09
5.76159598731e-08
8.32586560391e-08
2.52285490545e-08
7.64114416695e-09
1.24186956644e-07
6.86775044576e-08
2.6272413987e-08
7.62938274487e-08
6.55039565927e-09
4.57483504485e-08
1.0870086574e-07
5.52309417032e-08
1.1486980811e-07
6.62165952352e-08
1.88268575305e-08
1.10104242813e-07
1.58858561133e-07
1.19701378913e-07
3.44366784706e-08
2.80087711643e-08
7.73068274382e-08
4.82734236006e-08
2.05882110625e-08
2.67365197518e-08
1.34789633467e-08
6.10769654241e-08
1.6757732239e-07
1.21702689842e-09
4.97609185699e-08
9.92273953037e-08
4.81389834943e-07
4.18480383346e-08
1.8901748552e-08
2.97399515098e-08
5.18149565678e-08
6.43822688059e-08
1.53329396102e-08
1.87339318077e-07
5.59079955156e-08
1.33006306547e-07
1.89453423986e-07
3.0658596088e-08
9.20535213147e-08
1.37964690164e-07
8.66394691919e-08
3.55316137066e-09
3.67208112428e-08
6.08377712709e-08
1.19190649849e-07
6.16621288804e-08
1.76692277923e-07
1.69330449908e-08
1.23549668853e-08
4.18514579152e-08
6.95758920432e-08
6.93776354759e-08
4.11603739821e-08
2.22996498617e-08
1.38459628731e-07
3.21119759144e-08
1.61270294788e-07
9.9078214133e-09
7.93762277762e-08
8.24001016812e-08
1.3362174307e-08
1.7040647561e-08
3.26514874169e-08
3.03288541444e-08
8.4354392676e-08
1.16794357343e-07
7.1609573653e-08
1.01121881075e-07
1.66646469048e-07
5.50283533113e-08
1.40688713955e-07
1.88397573913e-07
8.51704542481e-08
2.79749391943e-08
1.40868156042e-07
1.54525945597e-08
1.30255518912e-09
5.07994526964e-08
5.99192976958e-08
1.17215951315e-07
2.24011408776e-08
7.80187195412e-08
5.76059982829e-08
2.48343868625e-08
7.02386488855e-08
7.90842985096e-10
1.33488136284e-07
9.34157761491e-08
5.10660389266e-08
1.47739456212e-07
6.40527123999e-08
9.4267122422e-08
1.23722481487e-07
6.3783157212e-08
1.11079178181e-07
7.27606566316e-08
1.03967115663e-07
2.22487087156e-08
3.46755448916e-08
7.3062453666e-09
1.76369963566e-08
1.43705845221e-08
1.86482658776e-07
2.72209801553e-08
1.11420584494e-07
9.12948193715e-08
4.2892746329e-08
7.39952997402e-08
2.17705785629e-08
1.11346020837e-07
7.00286693388e-08
1.06180038661e-07
3.74147026509e-08
8.79903601287e-08
1.05855100941e-07
2.9837765477e-08
4.67654235244e-08
3.64920633439e-09
4.5204536844e-08
7.83883957683e-08
3.01772689232e-08
1.4419883465e-08
9.94034822341e-08
7.5791566636e-08
2.97132548695e-08
1.5096765487e-07
9.49570439606e-08
3.35704818123e-08
6.3510965831e-08
2.33352927958e-08
2.56527768106e-08
6.05106073625e-08
1.36830107786e-08
5.47454586097e-10
3.19828529598e-08
6.51410382893e-08
3.04199957136e-09
8.91777544395e-08
1.15116717573e-07
5.04791406928e-08
1.76965798599e-08
2.19835747403e-08
1.29612793786e-08
3.37045406008e-09
8.89526466118e-08
2.43646466607e-07
1.81844289318e-07
1.14070448772e-08
1.3364694281e-07
1.66608372097e-07
1.94460066233e-07
2.01066028066e-07
5.72541175124e-08
3.96476846774e-08
1.43999145634e-07
1.08989746231e-07
1.16460198279e-07
2.76958599382e-08
5.90912464139e-08
7.18923522261e-08
3.73596654335e-08
7.93807868123e-08
3.40371662957e-08
5.70475204082e-08
3.15953694267e-08
1.88992299076e-07
2.66881830932e-08
3.06830141245e-08
1.89015227118e-10
1.69453128594e-07
1.63694403456e-08
8.62417907447e-08
4.37790725338e-08
3.6553435056e-08
3.97657356165e-09
3.02030580868e-08
7.14362581073e-08
4.57532129065e-08
1.38089955983e-09
2.55876692877e-08
1.12517348926e-08
2.09232951177e-08
8.61537100331e-08
6.00563867854e-08
2.50887085025e-08
3.61104543606e-08
5.41389644375e-08
1.76637098506e-08
3.50008455061e-08
4.05895059474e-08
9.13013302199e-08
2.17429530886e-08
4.54186969848e-08
9.47672455193e-08
3.9637428193e-07
7.60265892504e-08
2.05053127689e-07
8.94762138654e-08
6.23814989727e-08
1.38562670471e-07
1.7672060407e-07
2.91795463086e-08
5.15159757095e-08
4.04807408409e-08
1.99976597845e-08
6.8338861585e-08
1.52519450981e-08
1.34466358495e-07
2.39464050577e-07
5.81488475615e-08
9.45585198012e-09
1.09326774696e-07
1.62690522346e-08
5.19607313502e-08
3.08422928791e-09
8.39170850234e-08
4.82775203063e-09
4.97352983678e-08
3.20651503837e-08
2.42826926426e-08
8.49841021873e-08
1.35504797233e-07
1.51195626786e-07
4.93239637937e-08
3.32270057171e-08
1.27600862648e-08
2.8338536374e-07
3.12295211536e-07
8.05497866999e-08
1.31915360219e-07
1.17058432293e-07
3.88276136132e-08
2.31189018242e-08
6.85654776269e-08
7.74439352726e-08
1.37644956403e-08
9.41021532492e-09
2.52085030118e-07
5.63738740866e-09
2.02878905058e-07
1.20595394917e-07
1.55844193831e-07
3.14731895112e-08
5.87308991889e-08
5.59981058615e-08
4.03345514815e-08
1.66889050768e-08
3.8609408945e-09
1.14096999677e-07
3.04536133082e-08
3.77783947041e-08
3.46627765548e-08
1.15566469368e-07
1.05851374117e-07
6.85983070822e-08
4.11098641257e-08
1.89682703948e-08
4.3215374463e-08
1.3071833852e-07
9.08196022535e-09
1.41642721355e-08
2.73743949073e-08
1.43929450876e-08
1.06664021204e-08
1.13960192698e-07
7.05188602386e-08
5.21212822983e-08
6.63358764529e-08
1.31058884909e-07
6.15375373487e-08
4.46300687184e-08
2.17559272703e-08
1.64941022096e-09
1.22815122442e-07
1.66138448548e-07
5.17950731465e-08
2.07606152718e-08
3.87553093729e-08
2.71445508724e-07
1.20823573112e-07
1.35159127077e-07
4.26217147044e-08
2.3599834368e-08
3.84950525762e-08
3.85121456718e-08
7.23902350239e-08
4.09461081645e-08
8.60424777911e-09
8.23655299168e-08
1.03172849281e-08
4.48920994696e-08
9.64500040333e-08
5.71462790233e-08
6.4549610163e-09
3.30545717706e-09
1.33964869898e-09
4.27884179661e-08
8.95324357265e-08
1.60016459697e-07
7.68209216419e-08
5.41930195249e-08
6.86326791737e-08
1.10250155928e-08
1.60685793518e-08
6.4820373458e-08
4.28868320484e-08
5.50235763691e-09
5.06369330755e-08
1.03327113678e-09
1.90299456603e-08
2.97539897972e-08
1.47426872625e-08
2.37572539799e-08
2.41727518641e-08
1.21173169191e-07
4.95687697468e-09
1.59570580465e-08
3.39003387241e-08
1.20504411504e-09
8.98752176575e-08
3.75423239413e-08
9.38676709806e-08
4.03418696279e-08
3.49918687016e-08
1.45095165372e-08
7.21578537327e-08
1.20205356278e-07
5.45523173276e-08
4.70351864684e-08
4.01735313992e-08
1.51775096386e-08
9.14688896909e-09
1.00641737331e-07
1.00559882347e-07
3.41923569798e-08
5.09329797004e-08
6.4677336719e-08
4.40162899602e-09
6.11934378025e-08
2.1945456547e-09
3.39201468497e-08
4.0253986798e-09
3.99734249856e-08
1.49213003259e-07
1.18496111297e-08
2.61077429784e-09
6.29173810814e-09
3.6429025674e-08
2.66344151555e-08
2.22230779502e-07
8.3027403976e-08
2.54566469018e-08
6.37052784362e-08
8.51546088651e-08
2.88983289058e-08
1.29366700617e-07
5.1133143296e-08
5.41320318456e-09
1.6535321001e-08
7.0710955043e-09
9.16777041881e-09
8.80522844828e-08
6.41058286776e-08
6.91945189757e-09
1.70205341618e-08
1.02442597576e-09
9.77110349907e-08
3.98228583532e-08
3.33978559831e-08
5.62165794821e-08
6.51373793269e-08
3.51987770526e-09
3.83228891584e-08
1.63804929942e-07
8.39762276922e-09
6.72017101745e-09
1.83242766391e-08
4.26094136213e-08
3.04322729443e-08
5.13940902277e-08
1.9957407849e-08
4.93770421828e-08
9.95027293225e-08
5.76003008603e-08
3.02654594443e-09
7.09952733896e-08
2.4027977711e-08
1.27088091542e-08
3.52915226398e-08
9.87585916022e-08
4.93536673115e-08
1.19530096503e-07
4.65759861729e-09
2.9879109023e-08
5.00164953889e-08
8.42861699083e-08
4.23151235593e-08
8.79731845078e-08
1.90291104745e-08
1.35695968321e-07
7.72727241182e-08
2.42641398913e-08
6.69486009154e-08
4.88169606101e-08
3.56535155744e-08
2.4116324853e-08
1.352858958e-08
3.98353964303e-08
4.1853377676e-08
1.06618496528e-09
4.15973853312e-08
4.05453841634e-08
2.75857403737e-08
2.65452933194e-08
5.11561705825e-08
5.49140459645e-08
2.68743982626e-08
3.0472175485e-08
4.01427679745e-08
2.4625683345e-08
5.68835315806e-08
6.55197912232e-08
4.85149550309e-08
5.23696926026e-08
1.77393520077e-07
3.51284123742e-08
4.14408241711e-08
1.15229709388e-07
5.43535265857e-08
1.26442570931e-07
2.38289779889e-08
4.97988215136e-08
2.6896951594e-08
4.91577361195e-08
1.19029649197e-07
7.21787238162e-08
2.76047752556e-08
5.39830795469e-08
1.88901012389e-08
4.56549990149e-08
3.78657258169e-08
5.2221701926e-08
3.78987384578e-07
6.46548131768e-08
4.19927576313e-08
3.10089299696e-08
1.01534600284e-07
7.11722022159e-08
2.04946627453e-09
1.51728867226e-07
2.3885138649e-08
2.92128761104e-08
1.1910610081e-07
4.27695439471e-08
1.09646391497e-07
3.11028494919e-08
1.90283999668e-08
7.4228192896e-10
2.3305220007e-09
4.90656515663e-08
4.86631092519e-08
4.32607652108e-08
3.7389829979e-08
7.7602414291e-08
7.63870991424e-09
6.0662367238e-08
1.6681693835e-08
5.13349213878e-08
5.82624718905e-08
3.64492985703e-08
1.07047632479e-07
1.42161664389e-07
3.33645436736e-08
3.62582674139e-08
7.03467408612e-08
3.53766693794e-08
2.01862872943e-08
6.19701620009e-09
9.64637462076e-09
7.68473215033e-08
3.05285429432e-08
8.67046369336e-08
1.07612015058e-07
4.51368767529e-08
5.63793405739e-08
1.19332177977e-07
4.73276783404e-09
2.6794201791e-08
8.88020356419e-09
3.61246264614e-08
6.54871482936e-08
2.9217834775e-09
3.90395702969e-08
6.23317322022e-08
1.42056241586e-08
1.08330575397e-07
1.84409869092e-08
6.33005521259e-09
1.53957767144e-08
1.15862413643e-07
9.26237234528e-08
1.47933095691e-07
3.73061637562e-08
3.76605386177e-08
6.57067118755e-08
2.9962255135e-08
1.21812608052e-08
3.54404702473e-08
1.42019191854e-08
2.22108508208e-08
7.71675510104e-08
6.50350995446e-08
3.09516459254e-08
2.3730419366e-08
2.89333571568e-08
2.74445528067e-08
8.65574535716e-08
3.44917144195e-08
2.97689527484e-08
1.59759642587e-07
3.62685715311e-08
1.22194041872e-07
1.85781264766e-08
2.92387927823e-09
4.41790900194e-09
3.4811068905e-08
6.47403354394e-08
4.89783205972e-08
5.548982231e-08
3.00882317912e-08
2.62199643712e-08
2.10673912486e-08
3.99227846882e-08
2.50229979619e-08
7.05765551307e-08
7.99141833603e-09
2.13610238454e-08
3.29096725209e-08
6.50863285096e-08
3.53893178549e-08
7.50517470926e-10
7.40830742404e-10
4.4712406512e-09
8.37267550924e-09
8.85231772105e-08
2.52941978897e-09
2.3182690967e-08
2.03076729923e-08
4.35120954427e-09
4.72733069307e-08
2.81757094583e-09
1.51005203644e-08
3.81294563411e-08
9.28275634252e-08
1.41320909545e-07
1.62657759241e-08
7.17289357124e-08
1.10123573158e-07
2.33649980784e-07
1.41222790341e-07
8.75171247939e-08
1.27242774106e-08
5.62327412265e-08
6.62678888922e-10
2.77747236271e-09
2.82328337133e-09
4.86849057567e-08
2.86639993737e-07
4.2003468778e-08
6.81321356712e-08
2.28069552048e-08
4.09372929808e-08
2.41618189334e-08
4.97725327661e-08
1.10493387743e-08
9.79483093654e-08
3.33853578862e-08
6.73507641836e-08
4.79963436471e-08
5.31873989257e-08
1.806040023e-08
7.65464621864e-08
3.62124046168e-08
3.84927711546e-08
8.00150602921e-09
9.9530060847e-09
3.37219592495e-08
2.45079724874e-09
1.46790964339e-07
3.72487910633e-08
6.06120186363e-08
1.73908718559e-07
5.8215334398e-08
9.94255251263e-08
3.01527628258e-08
1.07754164386e-08
2.15782222786e-08
5.44940655521e-08
3.55619367844e-09
3.17358977363e-08
1.24952219529e-07
2.83213247837e-08
1.67078861937e-07
6.19172651777e-08
3.42675442843e-08
5.35949419609e-08
2.49976391976e-08
1.0600975151e-08
6.85992774426e-08
2.29471270161e-08
5.62048508506e-08
2.61517694372e-07
2.77878350222e-08
3.99138732971e-08
1.4265430059e-07
1.03716798639e-07
5.12327329839e-08
8.53500070505e-09
4.91526120842e-08
1.68691543688e-08
7.09334828028e-09
2.56728053755e-08
7.58670898193e-08
9.15706009967e-08
5.04124653041e-08
6.45074296738e-09
3.29978303843e-08
4.40997860298e-08
2.72172663952e-08
4.83038826321e-08
3.61443373572e-08
5.08345009605e-09
2.84616287921e-08
2.36174015707e-08
5.2240472895e-08
1.17049524699e-08
1.29911117866e-08
1.34471955207e-08
5.02573567136e-08
3.64437000031e-08
4.40027247755e-08
1.38950624978e-07
4.18535223861e-08
5.29068670193e-08
7.92160462009e-08
6.51488511955e-08
1.83812746864e-08
4.46153446673e-08
3.94890451788e-08
8.66583394453e-08
7.87378215257e-08
1.03084892473e-07
1.06035147104e-08
9.47814108386e-09
1.24893899188e-08
4.66863707849e-08
5.9910088058e-08
1.04443646931e-07
1.64170087527e-08
1.27737646654e-08
1.13497621583e-07
8.10965162596e-09
3.46162515611e-08
8.00642926539e-08
6.46592439412e-08
2.55297611257e-08
6.4184497117e-08
1.91416591142e-08
7.84310229072e-09
5.64432345624e-08
6.82472526176e-09
6.17215167902e-08
3.85239473455e-08
1.61923690957e-08
6.06227359327e-08
3.00706233979e-08
7.99161888894e-09
1.46249985191e-08
5.77707644474e-08
4.61121998231e-08
3.90850714337e-08
5.63034525971e-08
8.68817547627e-08
1.30051705592e-07
1.40001335707e-07
7.49138176486e-09
7.9367358213e-08
8.23068192428e-08
5.84989863789e-08
8.04592259808e-08
5.12414740501e-08
2.02215835405e-08
3.02232228349e-08
1.57459927581e-08
4.02224754947e-08
8.32743347642e-08
2.76931317531e-07
7.1356069878e-08
7.12125596929e-08
2.2075490318e-07
7.68311007728e-08
5.61190026537e-08
2.14364730684e-09
1.13576539688e-08
2.91783267919e-08
9.31740109912e-08
6.87710614486e-09
1.41469310551e-07
5.39312739817e-08
6.71657056627e-08
8.196895426e-08
2.23625086481e-08
3.46926876236e-08
1.3371823339e-07
6.25450954423e-08
2.94311748256e-08
2.28818143687e-08
6.35402030283e-08
4.11395557978e-08
5.02613849303e-08
8.43999634904e-08
2.64725613028e-08
3.64684429319e-08
5.82054258502e-08
2.08494728328e-08
3.405877199e-08
6.15243222985e-08
1.92385285147e-08
8.00292936347e-08
2.92444652941e-08
3.18507935777e-08
1.28158396246e-08
9.14176493088e-08
7.70443631377e-08
5.89942514083e-08
1.26190952835e-09
2.88107838324e-08
7.67265641856e-08
4.15768538956e-08
8.30598599691e-08
5.6837181147e-08
7.64373715113e-08
1.54681739059e-08
3.44986472989e-08
3.00637623358e-08
3.47953123206e-08
6.3060805215e-08
3.17058194467e-08
1.44431145814e-08
6.0867849436e-08
7.42682974795e-08
7.03625793111e-09
3.02326937941e-08
1.01656639254e-08
1.84397066699e-08
1.46073161972e-07
1.43366097635e-08
3.27377250965e-08
5.30714667092e-08
3.78820471008e-09
3.20831176325e-08
3.5286410656e-08
2.89350854706e-08
1.25399210831e-07
1.29805219316e-08
2.6453459872e-08
4.02321351109e-08
5.79737037843e-08
3.03989619213e-08
1.10438301538e-07
9.08640676962e-08
1.2436612456e-08