# vtk DataFile Version 3.0
File Name: Molecule/special/special_0-s6.vtk
ASCII
DATASET UNSTRUCTURED_GRID
FIELD FieldData 1
TIME 1 1 double
0.0
POINTS 77 double
0.85066848993 -0.5257601738 -0.00056523608509
0.80889451504 -0.30892285705 -0.50005215406
0.999966681 8.5435596702e-05 -0.00036207257654
0.81018930674 0.3081933558 -0.49858173728
0.52425086498 0.0013394958805 -0.85143500566
0.85067021847 0.52569508553 4.8352878366e-05
0.50043332577 0.809461236 -0.30699577928
0.36209332943 0.51905089617 -0.77431124449
0.00055958220037 0.84958600998 -0.52729928493
0.50030559301 0.80924671888 0.30795362592
-4.3113490733e-07 0.99990963936 -5.8220975916e-05
1.9280014385e-05 0.84972697496 0.52702516317
-0.50033938885 0.8091892004 0.30818673968
-0.50030124187 0.8094587326 -0.30713158846
-0.85067796707 0.52568328381 2.9801372875e-05
-0.33699324727 0.52279859781 0.78239732981
-0.81722766161 0.30399033427 0.48629695177
0.32252940536 -0.53199166059 0.78212040663
-0.00015530048404 -0.85005545616 0.52668368816
0.50050580502 -0.80908811092 0.30803325772
0.82909351587 -0.30747425556 0.46542340517
0.30993825197 -0.50164937973 -0.80767267942
6.5752923547e-05 -0.091155335307 -0.99446320534
-0.3105494082 -0.50266116858 -0.80684173107
-3.2461818478e-07 -0.85076797009 -0.52554345131
-0.52367830276 0.00097930524498 -0.851762712
0.80979800224 0.30817347765 0.49904802442
0.3570779562 0.53057527542 0.76560389996
-0.80889707804 -0.30891489983 -0.50006192923
-0.81016892195 0.30817082524 -0.49861830473
-0.99999201298 -4.7269637435e-05 -0.00070335582132
-0.85065829754 -0.52577608824 -0.00059083662927
-0.36197537184 0.51900172234 -0.77439785004
-0.49994269013 -0.80898106098 -0.30887410045
-0.50045263767 -0.80903428793 0.30826178193
4.2628571464e-06 -0.99989825487 0.00011164574971
-0.82924759388 -0.30855736136 0.46380868554
-0.32298490405 -0.53126615286 0.78241562843
0.49995157123 -0.80894571543 -0.30895340443
0.18781527877 0.28442445397 -0.93952286243
-0.18769899011 0.28439903259 -0.93955487013
6.6152795625e-05 0.52811253071 -0.84920030832
-0.018828351051 0.53131401539 0.84523540735
-0.15484948456 0.30569761992 0.93938732147
2.6848872949e-05 -0.52697587013 0.84991490841
-0.18483434618 -0.29818221927 0.936024189
0.18396924436 -0.30046054721 0.93491381407
-0.098768778145 0.1308811754 0.98645359278
0.15454509854 0.24859680235 0.95486718416
0.028487425297 0.012496272102 0.99916362762
-0.099833466113 -0.12265697867 0.98736000061
-0.34354558587 0.13486883044 0.92922240496
-0.24591524899 0.0012787844753 0.96887022257
-0.3478628397 -0.12703564763 0.92864900827
-0.46366026998 0.2777415812 0.84153646231
0.25496023893 0.0077501572669 0.96676200628
-0.46225252748 -0.27079835534 0.84444493055
-0.54151165485 0.013291988522 0.84035217762
-0.00059346528724 -0.27377927303 0.96179056168
0.10386235267 -0.13199970126 0.98570740223
0.33748823404 -0.14246886969 0.93042194843
0.53194481134 0.016613211483 0.84659689665
0.46037894487 -0.27072265744 0.84552526474
0.69582539797 -0.15826207399 0.70043683052
0.59967201948 -0.43228396773 0.67320966721
-0.59990417957 -0.43236353993 0.67305648327
-0.69784885645 -0.15836063027 0.69840592146
0.089334376156 0.11244899035 -0.98939925432
-0.088952280581 0.11243884265 -0.98944973946
4.9663191021e-05 0.268486619 -0.96321684122
-0.60317903757 0.43142727017 0.67080497742
-0.69273394346 0.17200294137 0.69993555546
0.45789077878 0.27806586027 0.84390377998
0.17168411613 0.52963984013 0.83049482107
0.082143232226 0.40368807316 0.91125118732
0.26304918528 0.38963073492 0.88251376152
0.35308986902 0.15368580818 0.92253088951

CELLS 150 600
3 0 1 2
3 1 3 2
3 1 4 3
3 2 3 5
3 5 3 6
3 3 7 6
3 3 4 7
3 6 7 8
3 5 6 9
3 6 10 9
3 6 8 10
3 9 10 11
3 11 10 12
3 10 13 12
3 10 8 13
3 12 13 14
3 11 12 15
3 12 14 16
3 17 18 19
3 20 19 0
3 4 21 22
3 21 23 22
3 21 24 23
3 22 23 25
3 0 2 20
3 2 26 20
3 2 5 26
3 5 9 26
3 9 27 26
3 9 11 27
3 25 28 29
3 28 30 29
3 28 31 30
3 29 30 14
3 8 32 13
3 32 29 13
3 32 25 29
3 13 29 14
3 31 33 34
3 33 35 34
3 33 24 35
3 34 35 18
3 31 34 36
3 34 18 37
3 16 30 36
3 16 14 30
3 36 30 31
3 25 23 28
3 23 33 28
3 23 24 33
3 28 33 31
3 24 38 35
3 38 19 35
3 38 0 19
3 35 19 18
3 4 1 21
3 1 38 21
3 1 0 38
3 21 38 24
3 4 39 7
3 40 32 41
3 39 41 7
3 32 40 25
3 7 41 8
3 41 32 8
3 15 42 11
3 15 43 42
3 37 44 45
3 44 17 46
3 17 44 18
3 18 44 37
3 43 47 48
3 47 49 48
3 49 47 50
3 47 51 52
3 47 43 51
3 52 51 53
3 51 43 54
3 49 55 48
3 37 45 56
3 57 53 51
3 53 50 52
3 53 45 50
3 52 50 47
3 46 58 44
3 44 58 45
3 45 58 50
3 58 59 50
3 58 46 59
3 50 59 49
3 49 59 55
3 59 60 55
3 59 46 60
3 55 60 61
3 60 46 62
3 61 62 63
3 62 64 63
3 62 17 64
3 63 64 20
3 20 64 19
3 19 64 17
3 61 63 26
3 26 63 20
3 37 65 34
3 34 65 36
3 36 65 66
3 65 56 66
3 65 37 56
3 66 56 57
3 36 66 16
3 22 67 4
3 67 39 4
3 22 68 67
3 68 69 67
3 68 40 69
3 67 69 39
3 39 69 41
3 41 69 40
3 40 68 25
3 25 68 22
3 57 56 53
3 53 56 45
3 17 62 46
3 60 62 61
3 16 70 12
3 12 70 15
3 15 70 54
3 70 71 54
3 70 16 71
3 54 71 57
3 27 72 26
3 26 72 61
3 42 73 11
3 11 73 27
3 48 74 43
3 43 74 42
3 42 74 73
3 74 75 73
3 74 48 75
3 73 75 27
3 27 75 72
3 75 76 72
3 75 48 76
3 72 76 61
3 15 54 43
3 51 54 57
3 61 76 55
3 55 76 48
3 57 71 66
3 66 71 16

CELL_TYPES 150
5
5
5
5
5
5
5
5
5
5
5
5
5
5
5
5
5
5
5
5
5
5
5
5
5
5
5
5
5
5
5
5
5
5
5
5
5
5
5
5
5
5
5
5
5
5
5
5
5
5
5
5
5
5
5
5
5
5
5
5
5
5
5
5
5
5
5
5
5
5
5
5
5
5
5
5
5
5
5
5
5
5
5
5
5
5
5
5
5
5
5
5
5
5
5
5
5
5
5
5
5
5
5
5
5
5
5
5
5
5
5
5
5
5
5
5
5
5
5
5
5
5
5
5
5
5
5
5
5
5
5
5
5
5
5
5
5
5
5
5
5
5
5
5
5
5
5
5
5
5

CELL_DATA 150
SCALARS cell_data_0 double
LOOKUP_TABLE default
2.4221041458e-06
8.39120429987e-07
8.1924589078e-06
6.46839746538e-07
3.91093006526e-06
9.61994607128e-06
1.32929227887e-05
2.8159928139e-07
3.00931072923e-07
3.69815950478e-06
8.11044798416e-07
2.92727643501e-06
7.87940777008e-07
1.97192658981e-06
8.76736939765e-07
8.27578614307e-08
9.91099592912e-06
2.77314668727e-06
7.18042215615e-06
6.60694994554e-06
1.71246635213e-05
2.52903647276e-05
2.58874304619e-06
1.89253993987e-05
5.3053891144e-06
1.09572979584e-05
3.26501972354e-06
4.46668343848e-06
5.4297880061e-06
3.49642432273e-06
8.61392660076e-06
1.09226217146e-06
3.04594273763e-06
2.94471289891e-06
2.4847007893e-07
1.01495013137e-05
1.36875827305e-05
5.08932614541e-06
3.08086653038e-06
6.26180286823e-07
7.28298015765e-06
6.71134292401e-06
6.63641698718e-06
5.89382021164e-06
4.88440777952e-06
7.21024296195e-06
3.17690025249e-06
1.57421094946e-06
2.32464396756e-05
1.3840884811e-05
6.3220908466e-06
7.25978314404e-06
9.48682548601e-07
2.44139857115e-06
7.15541697071e-06
1.6412610397e-06
2.31593453564e-05
6.12840822145e-06
1.3544066383e-05
4.84412959355e-06
2.27382581257e-06
2.67917748235e-06
4.43691617224e-06
3.95058139718e-06
3.69694091015e-06
8.91744091117e-06
7.51170490712e-06
4.83711732742e-06
1.49596375422e-06
4.16949634442e-06
4.84459649309e-06
1.72140845586e-05
9.79380455163e-07
1.46166478419e-06
5.86087031279e-06
7.92530488873e-06
1.72607363602e-06
8.89567348847e-06
2.1359302792e-05
8.43273353395e-07
1.14116335676e-05
1.80599025647e-06
2.44908937458e-06
1.76045368137e-05
3.73617453007e-06
4.6198930182e-06
6.00177908304e-06
5.02280800891e-06
2.34417996974e-06
8.18922459573e-06
4.5756230921e-06
5.3662607144e-06
5.78251702437e-06
3.99419526478e-06
4.41486950059e-06
6.03571817597e-06
2.27992260198e-06
1.40739696099e-06
5.05942149632e-06
5.60298520691e-06
1.02605725693e-06
2.56652919051e-06
7.28575923254e-06
3.81706717041e-07
6.89229689996e-06
5.83143342177e-06
2.46294401269e-06
1.467398072e-06
5.14570862669e-06
9.31149203114e-06
2.49506552629e-05
2.1516583286e-05
6.54525106479e-06
1.25639735098e-05
3.80925278481e-06
3.71696959989e-06
6.70882964491e-06
6.32506395975e-06
2.13149904101e-05
2.40070307726e-05
1.36937018178e-06
3.08350256443e-06
2.69884860876e-07
2.92394863321e-06
5.56167869577e-06
2.75092027733e-06
1.91098981386e-06
1.76649396625e-06
4.44005696174e-06
6.23549313478e-06
4.77718443995e-07
3.59047238432e-06
1.11838142602e-06
3.35226992506e-06
1.27517594716e-05
8.94463475083e-07
2.01728642975e-06
3.0271555855e-06
9.9790628958e-06
3.41765479815e-06
2.03104333758e-06
9.75136645621e-06
2.57754252404e-07
2.55170352447e-06
1.61788624171e-06
2.15287782896e-06
6.10347386611e-06
8.69299411851e-07
4.24287436249e-06
2.79908079037e-06

