# vtk DataFile Version 3.0
File Name: Molecule/special/special_0-s18.vtk
ASCII
DATASET UNSTRUCTURED_GRID
FIELD FieldData 1
TIME 1 1 double
0.0
POINTS 398 double
-0.0082836076617 0.51744830608 -0.85530871153
-0.16327464581 0.37500420213 -0.91247045994
-0.17976737022 0.59897065163 -0.78035086393
-0.12820737064 0.21701703966 -0.96721690893
-0.0047342199832 0.29440057278 -0.95565283298
0.13637147844 0.19941855967 -0.96966481209
0.13516116142 0.36650896072 -0.92014747858
-0.015834430233 0.53908973932 0.84197491407
0.11030139774 0.44286322594 0.88976669312
0.16334298253 0.54631394148 0.82113260031
0.2740765214 0.43050029874 0.85948938131
0.23676009476 -0.14523331821 -0.96028625965
0.1227408424 -0.32969662547 -0.93608093262
0.0010064917151 -0.16286984086 -0.98655414581
0.0017786039971 -0.52781713009 -0.84891545773
-0.11307726055 -0.31952542067 -0.94057947397
-0.2325706929 -0.12033203989 -0.96458369493
-0.72046017647 -0.17395937443 -0.67113250494
-0.8618119359 -0.24839770794 -0.43821310997
-0.74440592527 0.11910573393 -0.65604615211
-0.59781974554 -0.44250512123 -0.66842150688
-0.29481929541 -0.56503939629 -0.77036523819
-0.41418072581 -0.71214783192 -0.5664871335
-0.69467771053 -0.59328079224 -0.40659302473
-0.45869997144 -0.85270625353 -0.2474783361
-0.020643794909 -0.85926485062 -0.51050841808
-0.024706430733 -0.70633929968 -0.70676696301
0.25928005576 0.14232164621 -0.95493286848
0.25247731805 0.29925182462 -0.92015296221
-0.079747512937 -0.010390317068 -0.9966814518
0.065186262131 -0.0041371579282 -0.9972885251
-0.020602880046 0.13391211629 -0.99029356241
-0.31086605787 0.2727958262 -0.91046905518
-0.44335874915 0.73121649027 -0.51832175255
-0.69316834211 0.59182208776 -0.40909999609
-0.46783414483 0.84672093391 -0.25175768137
-0.19596160948 0.36456426978 0.91031730175
-0.12341196835 0.24887531996 0.96064531803
-0.038763206452 0.38709783554 0.92121738195
0.023013781756 0.17776031792 0.98326158524
0.0036212098785 0.27248999476 0.96205788851
-0.045579709113 0.16770465672 0.98408472538
0.1293990612 0.22125822306 0.96662455797
0.093083463609 0.1072704345 0.9898622036
-0.097680784762 -0.14499486983 0.98460268974
-0.056410420686 -0.057795859873 0.99670732021
-0.15552482009 -0.061212696135 0.98595166206
-0.10554158688 0.132223472 0.9853219986
-0.19602699578 0.12140827626 0.97295290232
0.073051959276 0.00081963313278 0.9972974658
0.14668925107 0.029461653903 0.98870557547
0.20226350427 0.12205134332 0.97157627344
-0.10443518311 0.038276154548 0.99379080534
-0.18234825134 0.031991869211 0.98260575533
0.087822675705 0.33341911435 0.93867337704
0.2049048394 0.32988858223 0.92150717974
0.86794680357 0.26346740127 -0.41846337914
0.70489627123 0.58115637302 -0.40663176775
0.86786961555 0.48885124922 -0.077644854784
0.53949213028 0.80913615227 -0.22168026865
0.64510297775 0.41793107986 -0.63897395134
0.70875954628 0.17452068627 -0.68348634243
0.53405624628 0.26228871942 -0.80370819569
0.59600627422 0.026934567839 -0.80241721869
0.95190602541 0.16965854168 0.25170823932
0.88698917627 0.005179926753 0.45631805062
0.96732354164 -0.13375502825 0.20648317039
0.81478488445 0.29808330536 0.49549224973
-0.26044124365 0.23971153796 0.93478810787
-0.3189637959 0.3159814477 0.89354103804
-0.37892043591 0.21192279458 0.90082126856
0.33436030149 0.29111421108 0.89635419846
0.41075715423 0.17147347331 0.89467650652
0.48727786541 0.33531871438 0.80608779192
0.24392171204 0.22471360862 0.943313241
0.30519032478 0.15288978815 0.93966782093
0.44447618723 0.073433786631 -0.89228761196
0.3734729588 0.2439096123 -0.894749403
0.70198792219 0.69949352741 0.13334184885
0.84919583797 0.46031588316 0.25852873921
0.69027531147 0.6068636775 0.39022964239
0.46978154778 0.84092205763 0.2684288919
0.5052075386 0.71024030447 0.49032387137
-0.57949870825 0.08600936085 -0.81029474735
-0.47627699375 0.29410213232 -0.82864391804
-0.41197007895 0.10431142896 -0.90423595905
-0.32154804468 0.47260197997 -0.82009291649
-0.28702184558 0.10115775466 -0.95231741667
-0.23127630353 -0.34249135852 0.91059935093
-0.11096465588 -0.32821467519 0.93804860115
-0.16260021925 -0.23946900666 0.95717513561
-0.044146213681 -0.23956882954 0.96986323595
0.00065590394661 -0.33306995034 0.94284790754
0.069547578692 -0.21373517811 0.97440439463
-0.00151812681 -0.14834074676 0.98893326521
-0.8822722435 -0.31502965093 0.34912720323
-0.81940513849 -0.19149243832 0.54028582573
-0.91638785601 -0.017499590293 0.39997041225
-0.80258351564 0.056909836829 0.59140717983
-0.71067750454 -0.15476356447 0.68622922897
0.18929608166 -0.74456721544 0.64016860723
0.21955749393 -0.87360358238 0.43329483271
0.37337374687 -0.73491466045 0.56494110823
-0.034027777612 -0.85574185848 0.51603072882
-0.49740481377 -0.82192373276 0.27719530463
-0.56740355492 -0.65384286642 0.50038456917
-0.73622506857 -0.58403301239 0.34160715342
-0.74918913841 -0.41891545057 0.51294028759
-0.60372030735 -0.486844033 0.63095331192
-0.5532990098 0.6639945507 0.50302875042
-0.73379945755 0.57048839331 0.36869323254
-0.59602385759 0.50336951017 0.62492638826
-0.73279577494 0.38127151132 0.56289887428
-0.4994148016 0.81757384539 0.28636243939
0.65007448196 0.30406808853 0.69636279345
0.71561682224 0.1176866442 0.68788015842
0.55980676413 0.1901293993 0.80653953552
0.5481082201 0.021336149424 0.83559519053
-0.19244593382 -0.1489520818 0.96993112564
-0.37043052912 -0.11189361662 0.92197847366
-0.27314054966 -0.095669321716 0.95720344782
-0.3677367866 -0.016819534823 0.9297888875
0.3884768784 0.67237108946 0.63009911776
0.57831686735 0.50576645136 0.63730746508
0.39312264323 0.5390458107 0.74387991428
0.32130244374 0.82404494286 0.46620324254
-0.27400901914 -0.20948728919 0.93862074614
-0.69035947323 -0.31771981716 0.64957076311
-0.32486304641 0.56224781275 0.76046335697
-0.21941621602 0.69849008322 0.68093842268
-0.42763921618 0.63729256392 0.64108222723
-0.34620761871 0.77030283213 0.53543180227
-0.33753824234 -0.77977108955 0.52704787254
-0.31815582514 -0.57398915291 0.75455087423
-0.15054377913 -0.59017813206 0.79315334558
-0.25997233391 -0.47646680474 0.83989906311
-0.14875002205 -0.44085583091 0.88516068459
-0.0021074055694 -0.70670419931 0.70755678415
-0.1957347393 -0.7177169323 0.66817718744
0.0030619641766 -0.58444875479 0.81147283316
0.5166593194 -0.16680441797 0.83971953392
0.64188188314 -0.087546691298 0.76170867682
0.61680936813 -0.27026534081 0.73902511597
0.48992863297 -0.33911722898 0.80281746387
0.74950557947 -0.18729475141 0.63327032328
0.71602833271 -0.41904821992 0.55802541971
0.57498115301 -0.45655167103 0.67891937494
0.84679758549 -0.32496491075 0.41957569122
0.72856640816 -0.59100401402 0.34581556916
0.60250347853 -0.61901271343 0.50303572416
0.54270273447 -0.81236404181 0.21307350695
0.51084548235 -0.75847131014 0.40323287249
0.38870745897 -0.28771525621 0.87513697147
0.15641026199 -0.59202408791 0.79057407379
-0.43000149727 -0.63983309269 0.63695085049
0.15817154944 0.94072258472 0.29980573058
-0.032868076116 0.8896548748 0.45513039827
-0.066416524351 0.96190446615 0.26528802514
-0.24510215223 0.88974177837 0.3851313889
-0.27035868168 0.95284545422 0.13750202954
-0.020688928664 0.99922162294 0.0038572456688
0.25954249501 -0.4661295414 0.84580612183
0.14974856377 -0.44573420286 0.88254570961
0.31595957279 -0.56352210045 0.76288491488
0.19961820543 -0.35633718967 0.91259950399
0.3487790823 -0.086126871407 0.93324184418
0.44337520003 -0.076119303703 0.89308351278
0.39377552271 0.010792739689 0.9187271595
0.37335532904 -0.17425109446 0.91109365225
-0.47174105048 -0.50178533792 0.7250367403
-0.39227226377 -0.44663715363 0.8041998744
-0.51102620363 -0.35411301255 0.78314530849
-0.47418546677 0.51245230436 0.71587723494
-0.44866535068 0.4160426259 0.79097986221
-0.57556545734 0.37777245045 0.7245208621
-0.52438831329 0.28835403919 0.8009300828
0.060834921896 0.63932716846 0.76649177074
-0.082075633109 0.6453550458 0.75941926241
-0.014112728648 0.73086309433 0.68231970072
0.18641361594 0.69957399368 0.68947720528
-0.41640761495 0.32102295756 0.85061109066
-0.3325432837 0.42073988914 0.84403008223
0.22499299049 0.7789606452 0.58537191153
0.065166503191 0.80258226395 0.59286141396
0.14038300514 0.86010867357 0.48996752501
-0.13453637064 0.80622756481 0.57599979639
-0.17820765078 0.57303541899 0.7998791337
0.26753807068 0.95688647032 -0.11147999018
0.26804840565 0.95878577232 0.094834715128
0.47099429369 0.88193559647 0.018059233204
-0.2574313879 -0.9570094347 0.13342228532
-0.24655734003 -0.89696335793 0.36708077788
-0.040157001466 -0.95932668447 0.2790171802
0.01887595281 -0.99932432175 -0.015420820564
-0.2350115478 0.48214283586 0.84398943186
-0.12834596634 0.47032356262 0.87311041355
0.18550610542 -0.12291023135 0.97491365671
0.18076844513 -0.21109843254 0.96028548479
0.27328914404 -0.16855244339 0.94705331326
0.29857358336 -0.25738233328 0.91868627071
-0.58131957054 -0.19045580924 0.79094326496
-0.64140826464 -0.028149070218 0.76645368338
-0.51685571671 -0.11408807337 0.8482182622
-0.48106950521 -0.24613386393 0.8412925005
-0.53628057241 0.02360766381 0.84356367588
-0.54336839914 0.16523602605 0.82294028997
-0.65229988098 0.16433057189 0.73847448826
-0.6234408617 0.27433225513 0.73197436333
0.31162634492 -0.30587950349 -0.89961266518
0.40854912996 -0.43837559223 -0.80046623945
0.24875988066 -0.45997515321 -0.8522529006
0.38710549474 -0.60514599085 -0.69565314054
0.10940950364 -0.063340619206 0.991959095
0.098323002458 -0.13849619031 0.98545265198
0.038519829512 -0.078385077417 0.99618458748
-0.45765247941 0.12724380195 0.87996011972
-0.3502599597 0.089540533721 0.93234592676
-0.4667468369 0.22513025999 0.85525548458
-0.051949020475 -0.40114247799 0.91450160742
0.059149380773 -0.40440058708 0.91262608767
0.0041583003476 -0.45078256726 0.89258509874
-0.055744055659 -0.50314807892 0.86236989498
0.061363056302 -0.50487577915 0.86098206043
0.11246856302 -0.34514206648 0.93175661564
-0.50425130129 0.8634210825 0.016245452687
-0.7016505599 0.70085310936 0.12724894285
-0.68122112751 0.72136265039 -0.12511171401
[...]
CELL_DATA 792
SCALARS cell_data_0 double
LOOKUP_TABLE default
4.86768399562e-07
5.53393188073e-07
1.71370681571e-07
2.64909109615e-08
5.46056664301e-07
1.18790945556e-07
3.65415869984e-07
3.55181880565e-07
3.38193413136e-09
2.47570965197e-07
2.11920265212e-07
1.97387094349e-07
2.34802638936e-07
5.78584450074e-07
3.21503686952e-07
3.8795114168e-07
6.54433344998e-07
4.51853745018e-07
1.3621329381e-07
7.32387215929e-07
3.55943405644e-07
2.38591547659e-07
3.08493737029e-07
2.62410629809e-07
1.08376826523e-06
4.61281071322e-07
4.84212842301e-07
8.2606385359e-08
5.0573813957e-07
8.63379895597e-07
5.56308042519e-08
3.53224632115e-07
2.15071602665e-07
8.40320112976e-07
9.83877967569e-08
7.23759050117e-07
4.19032536243e-07
5.88973693162e-07
1.70437126053e-07
9.57506274656e-07
7.06920913844e-07
8.64228821648e-08
2.312633493e-07
3.02758489753e-08
1.41191421603e-07
3.32564605117e-07
6.4971383404e-08
7.25409111429e-08
3.3221569466e-07
9.41370418941e-08
1.06674064364e-07
6.64170720601e-07
5.86636108131e-07
4.4782327461e-08
4.06315651725e-08
4.32164039311e-07
2.2666223756e-07
9.84849894134e-08
1.79003661729e-07
3.23502337584e-07
3.12143317969e-07
4.43020020334e-07
9.65106388559e-07
2.00673984391e-07
3.96361101892e-07
2.5920041179e-07
6.39324381062e-07
2.38082716666e-07
7.41261420214e-08
2.56338278058e-07
3.88725361745e-07
1.62573491498e-07
8.40129319875e-09
5.76959756965e-08
8.25415331896e-07
2.96908174178e-07
1.92003923814e-07
7.80368542203e-08
1.68642018577e-07
6.81338906484e-07
3.60077239004e-07
1.68280136774e-07
4.8540359636e-07
3.86515135312e-08
3.97934031878e-07
9.71567397354e-09
4.29108162396e-07
2.54510638611e-07
1.19859534088e-07
5.15377194727e-07
4.12007357642e-07
5.0691723781e-07
7.56182670592e-07
1.70016139526e-07
2.31292520358e-07
9.86855981177e-07
4.33228623573e-07
9.52114607815e-08
3.3168856102e-08
1.37153431912e-08
6.76148123585e-07
6.56153920947e-07
4.32386431879e-07
3.53343662836e-07
8.8559211716e-07
5.73392810456e-07
2.1002243923e-07
1.96133485803e-07
4.61423204281e-07
1.17477531066e-07
6.28269483983e-08
8.49615961259e-07
4.48727051766e-07
2.30856628684e-07
2.528963755e-07
4.19331382577e-07
1.80616165028e-07
4.73673079192e-07
3.84458209811e-08
1.66394040622e-07
8.58159354782e-09
3.67486934732e-07
2.90235953097e-07
5.01156580371e-08
3.92526388158e-07
9.66102245496e-08
4.6309952939e-07
3.57553042904e-07
1.51344966056e-07
1.39391364922e-07
1.68828734896e-07
3.2830030472e-09
1.74082012452e-07
3.83368669081e-07
6.32429883601e-07
7.06593584131e-07
1.05187191736e-07
1.82875633733e-07
1.22681079223e-07
2.41983443283e-07
1.10476114923e-07
6.51108076979e-07
5.46737711541e-08
4.39901179913e-07
6.2990455683e-07
4.93046541657e-07
1.39415490722e-07
5.71259410196e-07
5.15110595732e-08
1.41881706036e-07
2.3308049344e-08
2.18276172563e-08
5.59569143217e-07
1.45307904196e-07
2.28626489341e-07
5.43083615879e-09
2.80792410757e-07
3.80904374097e-07
1.38393093382e-08
1.60125463003e-07
5.33495811918e-08
2.44443714196e-07
2.82945056591e-07
3.47200557709e-07
1.7298842385e-07
3.62566722022e-07
4.2011252077e-07
2.80605776902e-07
7.81084779044e-08
1.79889826179e-07
3.2204161161e-08
4.41304083751e-07
3.2284773996e-07
3.72776283948e-07
2.46122708401e-07
5.32019043738e-07
1.56835873704e-07
2.54634432132e-07
2.85365639695e-07
1.64767337722e-08
1.35840040389e-08
3.47993576403e-08
8.79064773653e-08
1.23330761229e-08
8.22220905502e-08
1.2750764388e-07
1.95797974564e-07
1.58104054845e-07
3.49361674799e-07
1.0716488808e-07
4.14726493373e-07
1.95094814547e-07
2.84890753025e-07
1.26252852571e-07
7.86304534539e-07
2.03194775057e-07
3.9433305148e-08
2.20787129218e-07
3.30449800924e-08
1.97173308423e-07
4.03668273371e-08
2.56489569436e-07
7.70923127832e-08
9.21252301652e-08
2.15877822849e-07
2.77441101923e-07
3.28681847242e-07
4.567801255e-07
1.82941974289e-08
5.08994355149e-08
2.43983611652e-08
5.25461501682e-07
9.66888792273e-08
1.84306000278e-07
8.68845911514e-08
1.02765574013e-07
9.3656763437e-08
2.7048971733e-07
4.41093192343e-07
1.05434250004e-07
7.22108391733e-07
5.65607154257e-07
1.16039724568e-07
4.31466279473e-08
2.10911234451e-07
6.27622430675e-07
2.67399038283e-07
1.94677195711e-08
4.77309512451e-07
2.24127440381e-07
1.68083041071e-07
1.44774257723e-07
8.12666308178e-07
2.79944135055e-07
3.97607104613e-07
1.40263018914e-07
2.96972319884e-07
1.06820684567e-07
1.18574346937e-07
1.26933357691e-07
7.00032663097e-08
3.39680352334e-07
2.17112781393e-07
1.49475740665e-07
1.91597681094e-07
1.40860209037e-07
1.32689008006e-07
5.27691898477e-07
4.02760573977e-07
2.71509726451e-07
3.47107604284e-07
6.73534779016e-07
3.1243240925e-07
3.90635879012e-07
7.22567058619e-08
1.09165296101e-07
8.24877603431e-08
1.369217491e-07
7.00130408151e-08
2.67727333595e-07
1.37998756792e-08
1.94116544923e-07
3.01975717752e-08
1.02855080253e-07
2.16289179776e-07
2.13398535651e-07
1.68984712335e-07
1.39246462038e-07
1.22118103796e-07
2.2578102984e-07
1.16997824061e-08
3.51779168537e-08
2.77267936343e-07
3.88318257544e-07
7.99435849108e-08
1.72091560861e-07
7.53984340475e-09
2.46207891132e-07
6.46623629808e-08
2.26424394076e-07
9.17322094868e-08
1.1442767685e-07
1.83994855951e-07
7.87305243596e-08
3.31236013235e-07
2.66700021763e-07
9.80033237256e-08
1.6049617404e-07
5.97486773705e-07
2.50228215901e-08
2.12170975503e-07
1.91818599678e-07
5.5633853319e-09
6.84053434085e-08
1.26096688226e-07
2.25524060219e-07
1.08959917956e-07
9.40099272767e-08
8.62486661928e-08
1.59973658023e-07
5.03368749409e-08
2.61359914182e-07
1.57678773781e-07
2.41027343035e-08
7.13470035587e-09
1.31721926795e-07
4.08748049042e-07
4.57212437844e-07
4.54436110496e-08
1.63350571595e-07
4.70716129766e-07
2.36805438541e-08
1.46843365197e-08
2.0538237014e-07
1.97394712532e-07
3.68634817821e-07
9.74634529369e-08
3.08957692037e-07
2.70585110023e-07
2.2329751056e-07
3.23734197605e-08
2.74701509729e-07
1.72890001373e-07
2.29105255664e-07
5.06516703281e-07
3.22451893497e-07
1.16926594622e-07
2.03813276422e-07
9.4876980232e-08
4.6586009902e-07
4.66719799044e-08
2.57929839613e-07
3.73919935358e-07
1.25497389046e-07
5.63831043052e-07
1.34439587073e-07
9.53457014215e-08
1.02816074512e-07
2.44290853954e-08
2.06101230128e-08
1.63986489308e-07
7.43051241443e-09
1.60637106449e-07
6.71953760262e-08
2.97574736575e-07
4.42059297187e-08
1.77910710306e-08
3.12564554274e-07
2.95335414739e-08
3.43000204081e-08
2.7919821523e-07
2.33612843303e-08
2.94911429033e-07
2.91934045517e-07
4.35752119978e-07
1.445673957e-07
2.11007735243e-07
8.95406975555e-08
6.78263022973e-08
1.67796065246e-08
6.91799334086e-07
2.97311576165e-07
2.15767932968e-07
1.18226828609e-07
1.85120990898e-07
7.43690937605e-08
1.95688837739e-08
1.28153225241e-07
2.49375133995e-07
1.50248194014e-07
1.59158114778e-07
5.02366711649e-07
2.8287226153e-07
1.67868274941e-07
4.26316303947e-07
1.88073834772e-07
1.58760104661e-07
4.53607169029e-07
8.10288390931e-08
9.03799567981e-09
5.47615837542e-08
1.8942330987e-07
1.58111156486e-07
2.36101301957e-08
6.64504012691e-08
2.21946295119e-07
6.69660923447e-07
1.54830491132e-07
4.42221815321e-08
4.64531431078e-08
9.57056386777e-08
5.07119557314e-08
9.5041876088e-08
1.52512689966e-07
3.40306143068e-07
1.16797173036e-07
1.61722555254e-07
5.38642348706e-07
4.55804474719e-07
3.51912012814e-07
1.86509944517e-08
2.02700669339e-07
4.67504068115e-08
4.1792319167e-07
2.77867645932e-08
6.89730837577e-07
6.91042831624e-08
9.98011378959e-09
2.56265357094e-09
1.59486925097e-07
9.28871847428e-08
2.08623280914e-07
2.34511391125e-08
2.03204608662e-07
2.37482475122e-07
3.86848132138e-08
4.61074678972e-08
2.83420098599e-09
4.10242133584e-08
2.19974266009e-07
7.4359981024e-08
5.87526689997e-07
1.25638569007e-07
8.7201938934e-09
2.88389499485e-08
3.17741803197e-07
5.13860228643e-07
1.41779155573e-08
6.73565358177e-08
5.85249912532e-08
5.98889072964e-11
1.88603114467e-07
3.59384822202e-08
2.12234455385e-07
1.60092264991e-07
1.67396296363e-07
2.86652045872e-07
1.73714390317e-07
2.21570852591e-07
3.17232902949e-07
3.83101748015e-09
6.12249233486e-08
1.71606757803e-07
5.78189701084e-08
3.58436159593e-08
1.90163032557e-07
6.53659067829e-08
5.53534566624e-08
5.15323001671e-07
1.25122079904e-07
3.20560436811e-07
8.22837276143e-08
9.24100832701e-08
1.44575168568e-07
2.90889232662e-07
2.14018764975e-07
5.13435521622e-08
1.96241226207e-08
1.92266516947e-07
1.57818121589e-07
1.47757925924e-07
4.65277843199e-07
1.65123456179e-07
2.34336001652e-07
3.29608902724e-07
2.64298847653e-07
1.27588172996e-07
1.23009702684e-07
6.16178093128e-09
8.56703579828e-09
1.74603259034e-08
2.92497791353e-07
5.71397236028e-09
6.77347576935e-08
2.18156838551e-07
1.29809438131e-07
1.10120556213e-07
1.73183391825e-07
1.59985759509e-07
3.83377277195e-08
1.47583274589e-07
9.27217751053e-08
1.47488322503e-07
3.06899195948e-07
1.28553306338e-07
1.09102094437e-07
1.10883355395e-07
1.24607691677e-07
1.20864928277e-07
1.69529810759e-07
7.19033676897e-08
3.09989735022e-07
1.84370470193e-08
1.21663721171e-09
2.55941846846e-09
8.54849645104e-08
3.48099685352e-07
9.59721660116e-08
9.63779663524e-08
1.04287392517e-07
2.13077496173e-07
1.27723813094e-07
1.94734393921e-07
5.54117994702e-08
3.56260629021e-08
9.32324733674e-08
6.13679027831e-08
1.49841208318e-07
3.49181767295e-08
1.70865551424e-07
8.81007782011e-08
1.07800064737e-07
5.53157070221e-08
7.93311278554e-08
9.50142520948e-08
7.68957183509e-07
9.00837016464e-08
4.67895840684e-08
4.86624091933e-08
1.54357777849e-07
4.11780139893e-07
1.86503230946e-07
2.63359830752e-07
4.62157486822e-07
1.96900308344e-07
2.35415679287e-07
1.77537971901e-07
1.1183060047e-07
1.93302996423e-08
1.99409931384e-07
5.36139750971e-08
1.23889911676e-07
1.69701532366e-07
5.7492181639e-08
1.15452529663e-07
1.42798601389e-07
3.46413047798e-08
3.70864858088e-08
4.74367717251e-09
2.77004821829e-08
8.36316704461e-08
6.39095603971e-07
7.65123537813e-08
5.72035142412e-08
4.15520625795e-07
1.57890776186e-07
1.86744716687e-07
4.78716342513e-07
5.29224460763e-07
2.33256277438e-07
4.15167076998e-08
5.24926092695e-08
3.39888200283e-07
9.3180826392e-08
1.4155688503e-07
4.4583096058e-08
3.13647997417e-07
1.32525871444e-08
1.94017078379e-07
1.26574632543e-07
3.40425867312e-07
4.07943393401e-07
3.30127911002e-07
1.58083738979e-08
5.55907635792e-07
3.23843245975e-07
2.39290962163e-07
3.69151759627e-08
2.53732864903e-07
2.24587111779e-07
3.75425725717e-07
5.19938247254e-08
3.0976290079e-07
2.8651021051e-08
1.36049925909e-08
5.11186181251e-08
2.87011552796e-07
4.36827536498e-07
8.28268699615e-08
1.09370379012e-08
3.38866057761e-08
2.20267186391e-07
1.04115165296e-07
2.98466364453e-08
1.04595004799e-07
1.72915919396e-08
1.27731377652e-07
4.70511955891e-07
1.97834732815e-07
3.159078355e-08
3.90452369025e-07
4.69548908567e-07
2.38549509852e-07
2.9760088454e-07
1.39844325596e-07
8.33880559226e-08
3.57171258809e-08
1.3023736474e-08
1.59189507698e-07
4.35052644427e-08
1.89275076641e-07
2.48054015943e-07
4.18200353366e-07
5.55205810013e-08
4.41929257932e-08
3.66094502042e-08
1.63139682791e-08
1.64416388855e-07
2.04259123056e-08
6.38702079333e-08
6.92672023303e-08
5.76794612774e-08
9.80020866809e-09
4.99700099507e-08
1.92749105558e-07
2.88056996685e-07
1.0741663095e-07
1.7565745314e-07
6.75513807265e-08
7.90534407341e-08
1.52441305936e-08
2.33054535928e-07
1.00815795981e-08
7.4041236056e-08
1.51845303397e-07
1.41925948101e-07
5.86545849833e-08
7.09886029045e-08
2.1392954131e-08
9.85264655949e-09
5.16334329941e-08
1.40639066899e-07
1.6659563058e-07
2.16908742937e-07
1.17160224358e-07
8.43495977004e-08
1.11022232486e-07
2.78394098717e-07
1.39525561816e-07
2.26937557237e-07
3.21095880945e-07
1.15420435291e-07
4.47101489542e-08
7.60482094801e-09
2.06738798415e-07
2.76234156133e-08
4.64303734127e-08
3.78560033407e-07
9.6454415739e-08
2.67783074913e-07
1.89841249896e-07
1.5665448755e-08
6.09994280225e-07
5.40048536653e-07
3.01541535788e-07
4.41883884951e-08
2.36362523359e-07
6.98211505377e-07
2.70226186333e-07
5.72888732433e-07
2.26985025011e-07
2.79040737606e-07
1.97698751195e-07
1.82347790042e-08
5.1506295313e-07
3.90214553948e-07
1.15385745121e-07
1.77737976222e-07
1.83011833298e-07
2.76896713748e-07
6.26478835939e-08
1.82421995602e-07
4.06556645838e-08
2.48986865293e-08
4.88027208209e-07
3.73828944875e-08
3.90305076638e-07
1.55286898408e-07
2.40208349201e-08
1.92197636787e-07
3.19068528599e-08
2.02323986383e-07
1.74018281891e-07
1.51950917365e-08
2.71629841285e-07
3.71738466931e-07
2.13086535729e-08
1.01468561489e-06
1.18335560122e-07
1.41333687602e-07
2.06316182679e-07
3.85910242716e-07
1.13322651234e-07
3.419270845e-07
1.27525771649e-07
1.53133518879e-07
3.69362252336e-07
3.29399960455e-07
2.4704928063e-07
2.25112084873e-07
3.36934385326e-07
1.56120381355e-08
1.08329762787e-07
2.26852277313e-08
1.13971793874e-08
2.15146397247e-07
2.44913924132e-07
2.56571667504e-07
2.57824477866e-07
3.98888379919e-07
3.94822546974e-07
6.80817060382e-08
1.63297714666e-07
8.21873854153e-08
2.39343296334e-07
6.66461094478e-08
8.15765414513e-08
1.55519972538e-07
2.34759123921e-08
2.30769915506e-07
5.59465137553e-08
2.11275209445e-07
4.27947429036e-08
4.46162395868e-07
1.23907037468e-07
1.66971090736e-07
3.44470693313e-07
1.64705925894e-08
8.54544031407e-08
1.00930028518e-07
1.08804690011e-07
5.62271265664e-07
7.36262771923e-08
7.9591914427e-08
1.66842629296e-07
2.73328451255e-07
6.87970755538e-08
1.31615525647e-07
1.39014858859e-07
1.03981461607e-07
1.20741609857e-07
1.25526390429e-07
1.479643618e-07
5.19264899701e-08
2.23983064529e-07
1.66551793136e-07
1.04052378854e-07
7.96247993369e-08
2.5855748774e-07
1.31417007298e-07
3.12076417726e-07
3.20451502759e-08
1.18967144812e-07
2.02966807725e-07
3.30687964983e-07
1.66818295913e-07
1.15786084069e-07
8.97246806879e-08
3.18418668326e-07
1.29933648573e-07
1.14072716885e-07
2.73589513503e-08
5.08031201893e-08
2.17246027583e-08
1.4896215836e-07
3.99541307264e-08
2.36135072841e-08
2.73746083609e-07
1.62337496247e-07
8.67742167795e-09
4.3332348673e-09
1.15251253539e-07
8.20367326386e-08
1.27934365893e-07
1.67795829374e-08
1.49048277192e-07
3.3222532388e-08
2.63974927194e-08
1.198542541e-07
4.83425840641e-08
1.1142207258e-07
2.8553439087e-07
1.92518999854e-07
1.86783691407e-07
2.2184034472e-07
2.27315879245e-08
1.70359338867e-07
6.14688369761e-09
5.15735549138e-09
1.47202104074e-08
2.2683218266e-07
1.11398683306e-07

