# vtk DataFile Version 3.0
File Name: Molecule/special/special_0-s14.vtk
ASCII
DATASET UNSTRUCTURED_GRID
FIELD FieldData 1
TIME 1 1 double
0.0
POINTS 229 double
0.85136055946 -0.52426809072 -0.010082547553
0.80617165565 -0.30818536878 -0.50475555658
0.99615979195 -0.0020521758124 -0.073808729649
0.8621468544 0.26841831207 -0.4290740788
0.86733061075 0.49351394176 -0.056650049984
-1.0010786355e-05 0.99873495102 -0.019013147801
0.00088673783466 0.85096305609 -0.52524739504
-0.46960648894 0.84809845686 -0.23953664303
-0.50310111046 0.82016122341 0.26992353797
-0.84967130423 0.52687501907 -0.0086695626378
-0.86544400454 -0.26773381233 -0.42206040025
-0.99993342161 0.0013644185383 -0.0047187446617
-0.85002309084 0.23554173112 -0.47001427412
-0.84682935476 -0.53121179342 -0.015118356794
-0.46726495028 -0.85042369366 -0.23708629608
-0.491314888 -0.82730406523 0.26774260402
-0.0027577851433 -0.85304820538 -0.5217949152
0.015894383192 -0.99814772606 -0.0060795275494
-0.86983710527 0.29741472006 0.39114409685
-0.87712484598 -0.31915149093 0.35519278049
0.50011724234 -0.81077975035 -0.30404421687
0.51769924164 -0.82067012787 0.24071194232
0.36044573784 -0.58842730522 -0.72245281935
-0.16867825389 0.34163740277 -0.92452019453
-0.3295789063 0.52005428076 -0.78751820326
0.0047224638984 0.53929889202 -0.84206914902
0.17645533383 0.34329512715 -0.92245781422
0.34012237191 0.52590662241 -0.77930593491
-0.26786255836 0.00067130813841 0.9634244442
-0.35483968258 0.074560545385 0.93188303709
-0.37987887859 -0.096953459084 0.91975039244
-0.52748042345 0.0082678692415 0.8491410017
0.44948467612 -0.31972584128 0.83364158869
0.34556502104 -0.56176257133 0.75167685747
0.57517570257 -0.461042732 0.67449420691
-0.13077566028 0.16525226831 -0.97713732719
0.002578641288 0.28438305855 -0.95862829685
0.12621304393 0.16179530323 -0.97845208645
-0.45283585787 -0.26488506794 0.85013914108
-0.28064876795 -0.20165371895 0.93812531233
-0.041153870523 0.54498714209 0.83658611774
0.103909567 0.44011005759 0.89190107584
0.17950761318 0.55643606186 0.81129086018
0.28425112367 0.42603874207 0.85887491703
0.37775325775 0.53805691004 0.753464818
0.47261986136 0.3332387507 0.81554496288
0.57740056515 -0.0070140208118 -0.81577318907
0.4532070756 -0.24567709863 -0.85492193699
0.4184538424 0.060067333281 -0.90606951714
0.25395086408 -0.10003334284 -0.96199852228
0.15232983232 -0.32870191336 -0.93126106262
-0.00055053574033 -0.16603399813 -0.9861330986
0.013953519985 -0.54987502098 -0.83498996496
-0.15921960771 -0.3295339942 -0.93061798811
-0.3033875823 -0.52403354645 -0.79576092958
-0.25430229306 -0.098084680736 -0.96206903458
-0.44586867094 -0.24882605672 -0.85970634222
-0.40731158853 0.067282900214 -0.9105873704
-0.57849782705 0.064179874957 -0.81202846766
-0.7033020854 -0.15447504818 -0.69380456209
-0.59592735767 -0.43825164437 -0.67295080423
-0.43002298474 -0.69991523027 -0.5700942874
-0.69351708889 -0.59095811844 -0.41161614656
0.089258745313 -2.8733629733e-06 -0.9959281683
0.27594339848 0.11597904563 -0.95384222269
-0.089193247259 0.00032810575794 -0.99594664574
-0.00037313305074 0.11794489622 -0.99296814203
-0.32304102182 0.28640750051 -0.9017829895
-0.27156558633 0.10836101323 -0.95585608482
-0.44866475463 0.69687634706 -0.55934226513
-0.61564713717 0.4291305542 -0.6608210206
-0.6982178688 0.58669543266 -0.40990325809
-0.18800415099 0.37535712123 0.90723061562
-0.12272842973 0.24357096851 0.96206390858
-0.036025378853 0.38119104505 0.9237447381
0.0055038449354 0.17231278121 0.98502480984
0.0079261632636 0.27349212766 0.96183621883
-0.091304987669 0.12681601942 0.98770576715
0.13102996349 0.21912230551 0.96684616804
-0.012271724641 0.067309834063 0.99761545658
0.094395846128 0.10415179282 0.99007445574
0.055034115911 -0.0060776593164 0.99830168486
-0.047443851829 -0.047875799239 0.99771815538
-0.10484812409 0.033316329122 0.99394357204
-0.092597872019 -0.14216509461 0.98548817635
-0.16725918651 -0.04881183058 0.98466002941
-0.20325322449 0.1032781899 0.97364830971
-0.26569223404 0.22136674821 0.93830001354
0.16055159271 0.014272011817 0.98691111803
0.21421095729 0.11332690716 0.97015845776
0.28014597297 0.013239098713 0.95975297689
0.1766230762 -0.12191503495 0.97623288631
0.090659856796 0.32840588689 0.94015932083
0.20558671653 0.32264184952 0.92389243841
0.38270935416 0.15138781071 0.91124176979
0.71221876144 0.16681407392 -0.68163794279
0.69930547476 0.58517289162 -0.41012582183
0.48538455367 0.83622759581 -0.25041860342
0.62060028315 0.44286513329 -0.64720076323
0.45361408591 0.69750517607 -0.55466091633
0.51983851194 0.27531376481 -0.80867630243
0.96190148592 -0.15316329896 0.22642326355
0.8487238884 -0.32624676824 0.41547620296
0.95411217213 0.16545973718 0.24908868968
0.87176609039 -0.0043169413693 0.4900418222
0.80608421564 0.31203660369 0.50293701887
0.34790420532 0.28861877322 -0.89194417
-0.39695352316 0.20081721246 0.89523887634
-0.32503277063 0.32188373804 0.88911646605
0.73662167788 -0.17117795348 0.65321725607
0.32692453265 0.288520962 0.89986175299
0.25237682462 0.21749046445 0.94287866354
0.70535570383 0.6934196949 0.1460378021
0.84960925579 0.4553462863 0.26584723592
0.68797230721 0.59675943851 0.41299292445
0.46645382047 0.84353685379 0.26529499888
0.49275735021 0.71198403835 0.50007259846
0.59894496202 0.49291348457 0.63086128235
-0.9043405056 -0.016247401014 0.42534917593
-0.47346693277 0.28970167041 -0.83180850744
-0.25134325027 -0.34426233172 0.90443092585
-0.10672093183 -0.32206594944 0.94060671329
-0.16305793822 -0.23497757316 0.95817697048
-0.0442244187 -0.23273529112 0.97152578831
0.023628009483 -0.32053846121 0.94667387009
0.07340836525 -0.22559148073 0.97143191099
0.007215547841 -0.13979323208 0.99002218246
0.2089381367 -0.33697170019 0.91792929173
-0.60250759125 -0.44887372851 0.65967315435
-0.69328844547 -0.15654203296 0.70287197828
-0.74325597286 -0.40342006087 0.53377336264
-0.8113758564 -0.19551277161 0.55074959993
-0.80007344484 0.073136121035 0.59517931938
-0.73375034332 0.37832212448 0.56413346529
-0.66319704056 0.17908862233 0.72641485929
-0.62090802193 -0.059253860265 0.78037261963
-0.72438651323 0.57764786482 0.3758277595
0.18291448057 -0.73748093843 0.65023905039
0.40585717559 -0.71871960163 0.56450712681
0.2508879602 -0.87029069662 0.4234174788
-0.029699467123 -0.8625587225 0.50446176529
-0.72594469786 -0.58538627625 0.36019355059
0.71642822027 0.12693838775 0.68533927202
-0.56297457218 -0.64968442917 0.51058834791
-0.55922698975 0.65068560839 0.51346987486
-0.59086328745 0.46507263184 0.65776598454
-0.5698928833 0.36528852582 0.73566573858
0.64749354124 0.305139184 0.69831573963
0.54500508308 0.17967827618 0.81914913654
0.54008811712 0.020929707214 0.84129011631
0.19534100592 0.70002549887 0.68625217676
0.40480661392 0.012722574174 0.91422367096
-0.18597604334 -0.14499774575 0.97178041935
-0.25908511877 -0.098081968725 0.96082752943
0.3975880444 0.66110634804 0.63590037823
0.28857296705 0.82055270672 0.49024257064
-0.31096339226 0.56551462412 0.76393163204
-0.19626434147 0.71100664139 0.67397201061
-0.43575066328 0.63003844023 0.64238756895
-0.32896432281 0.76924747229 0.5470687747
0.72118753195 -0.59153008461 0.35935524106
-0.32405355573 -0.77580416203 0.54084181786
-0.32400047779 -0.56736165285 0.75696998835
-0.1536283344 -0.58111280203 0.79921197891
-0.26407504082 -0.46883240342 0.84280228615
-0.12730032206 -0.44147467613 0.88812613487
-0.0073529900983 -0.70561289787 0.70849049091
-0.18483737111 -0.72123730183 0.66723775864
0.0062117287889 -0.55628377199 0.83037728071
-0.40051484108 -0.42294502258 0.8125834465
0.5167966485 -0.15058271587 0.84265309572
0.63293200731 -0.081183038652 0.76992720366
0.59949207306 -0.25223460793 0.75871777534
0.72391593456 -0.41176766157 0.55312001705
0.58765596151 -0.63915413618 0.49593064189
0.35814598203 -0.17014217377 0.91707456112
0.16561570764 -0.57221633196 0.80301481485
-0.43672841787 -0.63343161345 0.63869571686
0.1462675333 0.94551026821 0.28944969177
-0.036472499371 0.86992770433 0.48952153325
-0.040152303874 0.96055835485 0.27522462606
-0.25111103058 0.88109898567 0.40093067288
-0.25958266854 0.95425385237 0.14748962224
0.27169752121 -0.4467215836 0.85222864151
0.13010124862 -0.44481047988 0.88584005833
0.32405680418 -0.075769156218 0.94304019213
0.43973135948 -0.075304716825 0.89496093988
-0.53481668234 -0.36195784807 0.76350653172
-0.46615958214 -0.50185996294 0.72848892212
0.28807595372 -0.26120591164 0.92057782412
-0.46777933836 0.50713735819 0.72393029928
-0.43515244126 0.42392358184 0.79417729378
-0.52027451992 0.28128424287 0.80626302958
0.059463825077 0.6464998126 0.76049774885
-0.10006612539 0.64874649048 0.75418996811
-0.00097155058756 0.73129743338 0.68189620972
-0.41981354356 0.32251089811 0.84839421511
-0.33426240087 0.42939653993 0.83881884813
0.21768504381 0.77494055033 0.5933662653
0.074405819178 0.79521095753 0.60153746605
0.12581296265 0.84893667698 0.51220673323
-0.11540295184 0.79703336954 0.59227919579
-0.1815597713 0.5613437891 0.80723458529
0.25347876549 0.95774543285 -0.13537544012
0.48130080104 0.87653881311 0.012496323325
0.25516626239 0.95994949341 0.11883424222
-0.25173687935 -0.95679688454 0.14487011731
-0.2585786581 -0.88373935223 0.39022254944
-0.021771105006 -0.96341383457 0.26630398631
-0.2421143502 0.47709387541 0.84492504597
-0.12526880205 0.4689694047 0.87432998419
0.18955470622 -0.22434508801 0.95578330755
0.25962436199 -0.1572804898 0.95263278484
-0.57517397404 -0.20817151666 0.79110366106
-0.50724804401 -0.12836608291 0.85216373205
-0.53398758173 0.15489777923 0.83102494478
0.30956706405 -0.30242842436 -0.90162628889
0.4093735218 -0.42170238495 -0.80850446224
0.2620305419 -0.45689237118 -0.84998226166
0.10880121589 -0.068428970873 0.99169427156
0.091773293912 -0.13687989116 0.98623478413
0.036929853261 -0.075915157795 0.99642777443
-0.46755620837 0.11319186538 0.87632161379
-0.46654841304 0.23453463614 0.8528650403
-0.04444712773 -0.39102333784 0.919267416
0.068890728056 -0.39409893751 0.91645222902
0.0035595172085 -0.44549810886 0.89524072409
-0.053365077823 -0.49435427785 0.86760884523
0.061298880726 -0.49408394098 0.86723262072

CELLS 454 1816
3 0 1 2
3 1 3 2
3 2 3 4
3 5 6 7
3 8 7 9
3 10 11 12
3 10 13 11
3 12 11 9
3 13 14 15
3 14 16 17
3 18 9 11
3 19 11 13
3 16 20 17
3 20 21 17
3 20 0 21
3 1 20 22
3 1 0 20
3 22 20 16
3 23 24 25
3 26 25 27
3 27 25 6
3 25 24 6
3 28 29 30
3 31 30 29
3 32 33 34
3 35 23 36
3 37 36 26
3 26 36 25
3 25 36 23
3 30 38 39
3 40 41 42
3 41 43 42
3 42 43 44
3 44 43 45
3 46 47 48
3 49 50 51
3 52 53 50
3 52 54 53
3 50 53 51
3 54 52 16
3 16 52 22
3 51 53 55
3 53 56 55
3 53 54 56
3 55 56 57
3 58 59 12
3 59 10 12
3 58 56 59
3 56 60 59
3 56 54 60
3 59 60 10
3 54 61 60
3 61 62 60
3 61 14 62
3 60 62 10
3 14 61 16
3 16 61 54
3 10 62 13
3 62 14 13
3 1 47 46
3 51 63 49
3 37 64 63
3 49 63 64
3 26 64 37
3 51 65 63
3 65 66 63
3 65 35 66
3 63 66 37
3 37 66 36
3 36 66 35
3 23 35 67
3 35 65 68
3 55 68 65
3 55 65 51
3 24 69 6
3 6 69 7
3 24 70 69
3 70 71 69
3 70 12 71
3 69 71 7
3 12 70 58
3 7 71 9
3 71 12 9
3 72 73 74
3 73 75 76
3 73 77 75
3 76 75 78
3 77 79 75
3 79 80 75
3 79 81 80
3 75 80 78
3 81 79 82
3 79 83 82
3 79 77 83
3 84 82 85
3 28 86 29
3 29 86 87
3 77 73 86
3 81 88 80
3 88 89 80
3 88 90 89
3 80 89 78
3 28 85 86
3 85 83 86
3 83 85 82
3 86 83 77
3 90 88 91
3 78 92 76
3 92 74 76
3 92 41 74
3 76 74 73
3 74 41 40
3 43 41 93
3 94 89 90
3 46 95 1
3 1 95 3
3 3 96 4
3 4 96 97
3 3 98 96
3 98 99 96
3 98 27 99
3 96 99 97
3 3 95 98
3 95 100 98
3 95 46 100
3 98 100 27
3 97 99 6
3 99 27 6
3 2 101 0
3 0 101 102
3 2 103 101
3 103 104 101
3 103 105 104
3 101 104 102
3 4 103 2
3 27 106 26
3 26 106 64
3 29 87 107
3 87 108 107
3 87 72 108
3 102 104 109
3 43 110 45
3 110 94 45
3 43 93 110
3 93 111 110
3 93 78 111
3 110 111 94
3 64 48 49
3 49 48 47
3 46 48 100
3 48 106 100
3 48 64 106
3 100 106 27
3 72 87 73
3 73 87 86
3 78 93 92
3 92 93 41
3 94 111 89
3 89 111 78
3 97 112 4
3 4 112 113
3 112 114 113
3 112 115 114
3 113 114 105
3 115 116 114
3 116 117 114
3 114 117 105
3 19 118 11
3 11 118 18
3 58 119 57
3 119 67 57
3 119 24 67
3 57 67 68
3 120 121 122
3 121 123 122
3 121 124 123
3 122 123 84
3 124 125 123
3 125 126 123
3 123 126 84
3 127 125 124
3 128 129 130
3 19 131 118
3 131 132 118
3 131 129 132
3 118 132 18
3 45 117 44
3 18 132 133
3 134 132 135
3 68 67 35
3 23 67 24
3 58 57 56
3 57 68 55
3 24 119 70
3 70 119 58
3 84 126 82
3 4 113 103
3 103 113 105
3 18 136 9
3 9 136 8
3 33 137 138
3 137 139 138
3 137 140 139
3 138 139 21
3 15 141 13
3 13 141 19
3 21 139 17
3 33 138 34
3 105 142 104
3 104 142 109
3 15 143 141
3 143 130 141
3 143 128 130
3 141 130 19
3 18 133 136
3 133 144 136
3 133 145 144
3 136 144 8
3 145 133 146
3 134 133 132
3 105 147 142
3 147 148 142
3 147 45 148
3 142 148 149
3 44 150 42
3 151 149 94
3 94 148 45
3 85 152 84
3 84 152 122
3 30 153 28
3 153 85 28
3 116 154 117
3 154 44 117
3 44 154 150
3 154 116 155
3 155 116 115
3 122 39 120
3 120 39 38
3 30 39 153
3 39 152 153
3 39 122 152
3 153 152 85
3 19 130 131
3 131 130 129
3 45 147 117
3 117 147 105
3 156 157 158
3 157 159 158
3 158 159 144
3 102 160 0
3 160 21 0
3 15 161 143
3 162 163 164
3 163 165 164
3 164 165 120
3 140 166 167
3 166 163 167
3 166 168 163
3 167 163 162
3 164 120 169
3 149 170 171
3 170 172 171
3 170 32 172
3 171 172 109
3 109 172 173
3 34 172 32
3 34 173 172
3 109 173 102
3 102 173 160
3 173 174 160
3 173 34 174
3 160 174 21
3 32 170 175
3 149 171 142
3 171 109 142
3 120 165 121
3 168 166 176
3 137 166 140
3 21 174 138
3 138 174 34
3 143 177 128
3 162 177 167
3 177 161 167
3 177 143 161
3 167 161 140
3 144 159 8
3 145 158 144
3 115 178 155
3 179 180 181
3 180 182 181
3 180 5 182
3 181 182 8
3 8 182 7
3 7 182 5
3 176 183 184
3 176 33 183
3 184 183 127
3 91 185 90
3 90 185 151
3 185 186 151
3 185 175 186
3 151 186 149
3 128 187 129
3 128 188 187
3 188 169 187
3 188 162 169
3 187 169 38
3 127 183 189
3 32 183 33
3 156 190 191
3 190 146 191
3 190 145 146
3 191 146 192
3 192 146 134
3 134 146 133
3 40 193 194
3 193 195 194
3 193 150 195
3 194 195 157
3 90 151 94
3 148 94 149
3 108 196 107
3 192 196 191
3 196 197 191
3 196 108 197
3 191 197 156
3 197 108 72
3 33 176 137
3 137 176 166
3 150 193 42
3 42 193 40
3 155 198 154
3 154 198 150
3 150 198 199
3 198 200 199
3 198 155 200
3 199 200 179
3 180 179 178
3 200 178 179
3 200 155 178
3 180 178 5
3 157 201 159
3 159 201 181
3 179 201 199
3 201 195 199
3 201 157 195
3 199 195 150
3 194 157 202
3 38 169 120
3 164 169 162
3 149 186 170
3 170 186 175
3 162 188 177
3 177 188 128
3 179 181 201
3 159 181 8
3 145 190 158
3 158 190 156
3 97 203 204
3 203 205 204
3 203 5 205
3 204 205 115
3 5 203 6
3 6 203 97
3 17 206 14
3 14 206 15
3 15 206 207
3 206 208 207
3 206 17 208
3 207 208 140
3 156 209 202
3 209 210 202
3 209 72 210
3 202 210 40
3 91 211 212
3 211 189 212
3 211 127 189
3 212 189 175
3 175 189 32
3 32 189 183
3 129 213 135
3 213 214 135
3 213 38 214
3 135 214 31
3 31 214 30
3 214 38 30
3 31 215 134
3 134 215 192
3 129 135 132
3 134 135 31
3 47 216 49
3 216 50 49
3 47 217 216
3 217 218 216
3 217 22 218
3 216 218 50
3 50 218 52
3 52 218 22
3 22 217 1
3 217 47 1
3 91 219 220
3 219 221 220
3 219 81 221
3 220 221 126
3 81 219 88
3 88 219 91
3 40 210 74
3 74 210 72
3 107 222 29
3 29 222 31
3 107 223 222
3 223 215 222
3 223 192 215
3 222 215 31
3 97 204 112
3 112 204 115
3 124 224 225
3 224 226 225
3 226 224 227
3 184 225 228
3 91 220 211
3 125 220 126
3 127 211 125
3 125 211 220
3 126 221 82
3 82 221 81
3 140 208 139
3 139 208 17
3 15 207 161
3 161 207 140
3 168 227 163
3 163 227 165
3 165 224 121
3 121 224 124
3 115 205 178
3 178 205 5
3 184 228 176
3 176 228 168
3 168 228 227
3 228 226 227
3 226 228 225
3 165 227 224
3 124 225 127
3 225 184 127
3 91 212 185
3 185 212 175
3 38 213 187
3 187 213 129
3 192 223 196
3 196 223 107
3 72 209 197
3 197 209 156
3 156 202 157
3 194 202 40

CELL_TYPES 454
5
5
5
5
5
5
5
5
5
5
5
5
5
5
5
5
5
5
5
5
5
5
5
5
5
5
5
5
5
5
5
5
5
5
5
5
5
5
5
5
5
5
5
5
5
5
5
5
5
5
5
5
5
5
5
5
5
5
5
5
5
5
5
5
5
5
5
5
5
5
5
5
5
5
5
5
5
5
5
5
5
5
5
5
5
5
5
5
5
5
5
5
5
5
5
5
5
5
5
5
5
5
5
5
5
5
5
5
5
5
5
5
5
5
5
5
5
5
5
5
5
5
5
5
5
5
5
5
5
5
5
5
5
5
5
5
5
5
5
5
5
5
5
5
5
5
5
5
5
5
5
5
5
5
5
5
5
5
5
5
5
5
5
5
5
5
5
5
5
5
5
5
5
5
5
5
5
5
5
5
5
5
5
5
5
5
5
5
5
5
5
5
5
5
5
5
5
5
5
5
5
5
5
5
5
5
5
5
5
5
5
5
5
5
5
5
5
5
5
5
5
5
5
5
5
5
5
5
5
5
5
5
5
5
5
5
5
5
5
5
5
5
5
5
5
5
5
5
5
5
5
5
5
5
5
5
5
5
5
5
5
5
5
5
5
5
5
5
5
5
5
5
5
5
5
5
5
5
5
5
5
5
5
5
5
5
5
5
5
5
5
5
5
5
5
5
5
5
5
5
5
5
5
5
5
5
5
5
5
5
5
5
5
5
5
5
5
5
5
5
5
5
5
5
5
5
5
5
5
5
5
5
5
5
5
5
5
5
5
5
5
5
5
5
5
5
5
5
5
5
5
5
5
5
5
5
5
5
5
5
5
5
5
5
5
5
5
5
5
5
5
5
5
5
5
5
5
5
5
5
5
5
5
5
5
5
5
5
5
5
5
5
5
5
5
5
5
5
5
5
5
5
5
5
5
5
5
5
5
5
5
5
5
5
5
5
5
5
5
5
5
5
5
5
5
5
5
5
5
5
5
5
5
5
5
5
5
5
5
5
5
5
5
5
5
5
5
5
5
5
5
5
5
5

CELL_DATA 454
SCALARS cell_data_0 double
LOOKUP_TABLE default
1.19954261114e-06
6.63519251724e-07
3.84525331736e-07
1.36902872769e-06
2.34861788503e-06
5.96897013614e-07
1.16957796485e-06
5.6324157959e-07
2.13658440173e-06
1.16826251365e-06
1.53445446353e-06
1.1505200936e-06
5.53373928197e-07
1.42289368333e-06
1.19894248801e-06
2.12512627605e-06
1.92589684873e-06
8.7772169422e-07
9.52316521648e-07
5.32675432274e-08
2.32458399203e-07
3.59793955202e-08
6.18921093818e-07
3.4830290406e-06
1.88743382121e-06
3.28940729292e-09
1.82807113391e-08
4.11385054332e-07
7.40639291356e-08
5.21020048015e-07
1.17194735796e-06
3.05108326439e-07
9.65612729915e-07
1.40084521795e-06
1.2282277383e-06
4.69353610216e-07
8.51363258565e-07
1.1993413976e-06
8.84754070905e-07
6.54105536022e-07
1.56280276515e-06
5.28284146092e-08
1.23268035159e-07
2.38036039384e-06
7.08387113401e-07
8.59640719122e-07
7.23741762366e-07
7.99683322571e-07
1.11275379756e-06
6.21688476669e-07
5.18554375155e-07
9.75903513582e-07
2.251844472e-07
2.93826613893e-07
3.3795830781e-07
4.86846819128e-07
3.46541696466e-07
5.72968845573e-07
2.47330335609e-07
1.90581266471e-06
6.85759893301e-07
4.55732540618e-07
1.39989102064e-06
7.94770171356e-07
9.72118928749e-07
1.71514768283e-07
5.21908425642e-07
3.24195465066e-07
7.55150777613e-08
3.26303493438e-07
6.88508619194e-07
5.48529361149e-07
1.05578060511e-06
3.85327884586e-07
2.17458955596e-06
7.24438222181e-07
2.23789270912e-06
4.2876784139e-07
6.77894992162e-07
9.24108218359e-07
2.33961846767e-06
1.36621265194e-07
6.21375195149e-09
4.71261170225e-07
2.22934294992e-07
6.5580985143e-07
6.74230708593e-07
8.09060138737e-07
3.26556111476e-07
3.35963903491e-07
2.91552010157e-07
1.30676482591e-06
3.05228767189e-07
7.76901284962e-07
1.47640283808e-07
2.02088446692e-06
5.99245172019e-07
7.18565677769e-07
3.2051361781e-07
6.13547191174e-07
1.76020506523e-06
8.33891492564e-07
1.41764356714e-06
1.70879386265e-06
9.4168506479e-07
6.14548960336e-07
3.12348397906e-06
5.16593863294e-07
3.44388473481e-07
1.83376970553e-07
9.54433592147e-08
6.10228902844e-07
1.03061894843e-06
1.63618041746e-06
1.59719488145e-06
5.01973106223e-07
7.69869644397e-07
6.55369714288e-07
3.16057985824e-07
6.80766659895e-07
1.79890079235e-06
1.48620040559e-06
6.16857525875e-07
5.01383689939e-07
3.4324863753e-07
2.84821899846e-07
1.29266480878e-06
2.20181426739e-06
8.26501693265e-07
5.2806689126e-07
1.22623934493e-06
2.81483084286e-07
7.97883898159e-07
3.34252071e-07
1.06762150376e-06
2.23033718508e-06
1.50703520213e-06
9.36024699177e-07
6.75247727958e-07
7.65114759574e-07
1.82335707539e-07
6.78590929011e-07
9.44203227162e-08
2.33613496076e-07
1.51334197084e-07
1.0972581141e-07
2.82445973083e-08
9.34503701867e-07
4.59265474746e-07
7.52852127302e-07
9.5249504851e-07
5.72861399729e-07
1.47249453689e-07
4.24400205442e-07
4.04709301984e-07
2.88713171193e-07
1.09259542205e-07
6.88376020967e-07
3.48448690185e-07
1.69889627366e-06
7.05605545673e-07
4.40024265019e-07
4.924124924e-07
2.1319518521e-07
6.80707338401e-07
3.06053761844e-07
9.32124192965e-07
2.21233294044e-07
2.54674215578e-07
2.125983174e-07
1.16647575576e-06
8.53777622835e-08
1.35715851722e-07
2.46654193832e-07
7.42054125228e-07
1.07630356229e-07
1.07035744377e-06
1.63625450879e-06
6.70226660759e-08
6.03850059669e-08
3.36521973416e-06
1.11781573051e-06
7.72351536572e-08
4.69279374716e-07
3.58981257959e-07
8.03534877278e-07
9.47952118251e-07
4.04461534564e-07
1.21301220121e-06
3.59316033794e-07
1.83708967288e-06
1.63180406507e-06
9.50249498991e-07
7.3980750435e-07
4.43835253848e-07
9.10846368958e-08
5.27872816795e-07
3.05596160103e-07
9.04670183861e-07
1.47044665982e-06
2.56631440294e-07
3.20417937412e-07
9.11526443357e-08
8.22358491859e-07
1.0194573963e-06
9.04196530902e-07
1.71744512465e-06
1.67031536818e-06
1.48529336779e-07
1.67282657525e-06
8.46105552701e-07
1.23190518886e-06
8.54770791166e-08
5.23391199182e-07
1.59178702702e-06
1.57303925568e-06
7.55599119154e-07
1.23727565473e-06
1.18190483785e-06
9.44373761167e-07
4.47061380007e-07
4.00433235673e-07
3.66660994467e-07
8.60467455009e-09
1.5103908239e-06
8.80428590749e-07
9.96499250406e-08
1.86677142291e-07
3.5664941419e-08
3.50401417876e-07
6.81125889082e-07
7.0167318334e-07
3.54488517826e-07
1.99674355413e-07
3.1680913749e-07
4.33580744365e-07
7.26678145708e-07
2.12972965619e-06
5.83845763563e-07
3.76502286359e-07
1.64760133238e-07
3.79394690401e-07
5.79930677757e-07
5.91673774456e-07
3.49884484327e-07
5.51009665976e-07
1.30607394203e-06
2.46961629131e-07
4.5672437485e-07
6.06547298622e-07
1.97143386396e-07
4.74439105097e-07
2.19575491447e-07
8.67897967336e-07
1.27547911059e-07
2.47465067011e-07
2.00245312443e-07
3.10657110078e-07
1.36651656724e-07
1.21270335069e-06
3.85521298427e-07
4.04839336411e-08
1.44930897826e-08
4.37802775207e-07
1.01675374144e-06
1.34453481644e-06
6.13670333503e-07
6.07691565219e-07
3.36527255496e-07
8.04529287537e-07
1.53937703194e-07
7.85683724821e-07
1.04381754668e-06
1.48352989942e-07
1.08326127806e-06
8.01950510642e-07
6.37667577143e-07
3.86625327418e-07
4.73457083449e-07
1.61982245688e-06
8.11704263376e-09
1.12270338554e-06
2.41878376525e-07
4.11231397371e-07
4.0116720312e-07
2.67278898537e-07
1.80614375513e-07
7.56324204964e-07
4.98943242914e-07
7.12434379384e-07
2.86326635606e-07
6.08042168344e-07
1.57099037507e-06
5.44597029922e-07
6.98059917008e-07
1.49935091161e-06
9.35428366271e-07
2.49550752432e-06
1.26773007226e-06
3.19067718307e-07
1.59293879258e-07
1.97808853983e-07
2.20308877123e-06
8.65665545092e-07
6.0413751129e-08
3.85099624856e-07
9.24318322054e-07
1.26984083864e-06
1.59533849383e-06
4.50282872329e-07
1.34146458862e-08
1.28732392965e-07
1.4865371443e-07
1.19711809531e-07
9.87780760487e-07
1.15640830542e-07
2.54099250398e-07
3.2512499751e-08
3.69456237487e-07
3.43476619763e-07
8.33439133846e-07
4.6974483381e-07
8.94502258075e-08
1.949462053e-07
3.5224114399e-08
2.74566426667e-07
6.2859097796e-07
3.12414265545e-07
1.18137085297e-06
1.04616087965e-06
1.13919863304e-06
1.70050737177e-07
2.65971743557e-08
2.71870146104e-08
5.12982451851e-08
2.17635064255e-07
1.74258125647e-07
7.08028755105e-09
1.82358719479e-07
6.95221767819e-09
2.52410248443e-07
1.0982878894e-06
6.46401692039e-07
1.38888681661e-07
2.08665032698e-08
3.22914125755e-07
3.31404595928e-07
2.67479007908e-07
2.46079307248e-06
4.21720908027e-07
5.22936034617e-07
2.31718883822e-07
3.35216070982e-07
3.63073903581e-07
1.06406889411e-07
7.80221170344e-07
7.75104662099e-08
2.89378834673e-07
6.38207204247e-07
8.51860674058e-07
2.9288323364e-07
3.13554241252e-08
1.94698004396e-06
2.76003963082e-07
5.5576682873e-07
2.16674512532e-07
5.87161620463e-07
9.13853420229e-07
9.90624120883e-07
5.590401774e-07
1.69931508509e-07
6.37775093323e-07
1.4244699151e-08
2.23976143146e-08
1.42944191404e-06
9.31163840103e-07
1.09894611001e-06
2.26013475491e-07
1.00458496922e-06
3.03925584065e-06
1.20295446675e-06
6.8940428278e-07
5.63632620574e-07
1.83053770655e-07
6.75410040338e-07
3.31635104416e-09
4.20576486513e-07
7.11710650807e-08
7.97837496205e-07
9.03298967794e-07
5.31283230552e-07
4.64473382352e-08
1.40567519755e-07
1.82526931868e-07
5.81957350608e-09
9.02403476498e-07
8.0525693301e-07
4.28063325021e-07
3.33446941436e-07
2.0176902863e-06
1.28649653113e-06
6.6926831978e-07
4.75340295922e-07
2.46980484107e-07
3.87704901816e-07
2.90979707691e-07
4.39008872268e-07
6.26462361634e-08
7.09191010389e-07
6.7715091803e-07
4.80095326533e-07
5.0351963688e-07
2.30536519108e-07
1.74626673601e-07
5.30055477481e-07
5.46143844033e-07
6.15560199409e-07
9.46039819453e-08
1.24231266865e-07
2.56103632271e-07
7.26254341146e-08
5.8276069234e-07
7.3002009717e-07
9.94268023289e-07
2.95675520072e-08
5.00384166367e-07
2.94209333346e-07
2.5719879026e-07
1.06174060363e-06
7.24123718872e-07
1.37790647111e-07
4.19471781432e-08
4.49088911653e-07
1.7035867048e-08
2.59729944967e-07
2.49243353726e-07
6.2035705355e-08
2.48321975693e-07
1.35059432238e-07
4.7617495449e-07
1.70118582123e-07
1.63964524459e-07
1.22856934447e-06
1.47661975916e-07
7.99683800061e-07
1.16975707903e-07
6.39385220989e-07
4.43927307193e-07
5.00294593738e-07
4.37855089351e-07
1.45277221926e-08
3.14744409244e-07
1.55970734252e-07
2.35989537434e-07

