# vtk DataFile Version 3.0
File Name: Molecule/special/special_0-s11.vtk
ASCII
DATASET UNSTRUCTURED_GRID
FIELD FieldData 1
TIME 1 1 double
0.0
POINTS 159 double
0.85064274073 -0.52566081285 -0.006112604402
0.80760723352 -0.30767259002 -0.50277370214
0.99696904421 0.0016863825731 -0.045686461031
0.84324276447 0.28354489803 -0.45421940088
0.85802072287 0.51001185179 -0.028610954061
0.4857866168 0.83066141605 -0.26695331931
-0.00059032801073 0.99994188547 0.00097662932239
0.47267729044 0.83258545399 0.28408539295
0.00052373087965 0.84993833303 -0.52699792385
0.24397192895 0.80933588743 0.5325729847
-0.015035703778 0.84661066532 0.52831870317
-0.49268245697 0.81497716904 0.30284669995
-0.47987794876 0.83598214388 -0.26161623001
-0.85026270151 0.52616298199 -0.0041178832762
-0.33136120439 0.56675493717 0.75443154573
-0.562315166 0.64678299427 0.51136374474
0.83868515491 -0.33605644107 0.42668497562
0.51046609879 -0.8063954711 0.29267242551
-0.8519589901 -0.27765068412 -0.44153997302
-0.99996459484 0.00086156208999 -0.0036666779779
-0.83738481998 0.25724577904 -0.48018857837
-0.84918165207 -0.52788054943 -0.0088090403005
-0.47601225972 -0.83964002132 -0.25693905354
-0.49259489775 -0.8147791028 0.30310556293
0.0024994176347 -0.99987632036 0.0015269971918
-0.0019383754116 -0.85145640373 -0.5243999362
-0.016352288425 -0.84998434782 0.52229732275
-0.56266397238 -0.6461802125 0.51237946749
-0.84842115641 0.29931914806 0.43398651481
-0.85845297575 -0.31739979982 0.39642074704
0.49986764789 -0.81011784077 -0.30626022816
0.34550216794 -0.5591326952 -0.75381243229
-0.17567589879 0.32580065727 -0.9288212657
-0.34052157402 0.51195895672 -0.78808712959
0.0035715634003 0.53521966934 -0.84477299452
0.17871613801 0.32756277919 -0.92762243748
0.35218986869 0.5225969553 -0.77587765455
-0.052034217864 0.55826622248 0.82777118683
-0.17627491057 0.36622670293 0.91301447153
-0.31517452002 -0.57093459368 0.75814312696
-0.00018407718744 -0.5374519825 0.84339892864
-0.23309545219 -0.34544765949 0.90890884399
0.31570246816 -0.56359159946 0.76246160269
0.20712427795 -0.33667722344 0.91850721836
-0.2602430284 0.004343258217 0.96554690599
-0.34775927663 0.088562749326 0.93313884735
-0.35992118716 -0.11099818349 0.9255001545
-0.47230750322 -0.28038570285 0.83576256037
-0.5341540575 0.0091513805091 0.84525990486
0.023341001943 -0.31058657169 0.94913136959
0.14751166105 -0.1306694746 0.98002028465
0.3376096189 -0.15403456986 0.9285415411
0.27714380622 0.0015106964856 0.9603972435
0.55220329762 0.0092848604545 0.83307743073
0.47446909547 -0.28460511565 0.83293914795
0.70169657469 -0.17219674587 0.6914383173
0.60380041599 -0.45005339384 0.65755242109
-0.6015535593 -0.43807855248 0.66661286354
-0.68751323223 -0.15137445927 0.70966136456
-0.1371718049 0.1441796273 -0.97998833656
0.00047067177366 0.27776023746 -0.96067601442
0.1364890039 0.1443991065 -0.98004692793
-0.26113045216 -0.18776009977 0.94603919983
-0.59648859501 0.44366499782 0.66764765978
-0.50560665131 0.29528406262 0.81096094847
-0.67178142071 0.18315368891 0.71735996008
0.19627298415 0.725918293 0.65716999769
0.09624747932 0.43435537815 0.89545929432
0.17323052883 0.5521196723 0.81558990479
0.27875334024 0.41367870569 0.86653411388
0.38081815839 0.55735963583 0.73631685972
0.47641092539 0.30748701096 0.82228821516
0.36710858345 0.15259771049 0.91737431288
0.56087076664 0.004550084006 -0.82691138983
0.44255322218 -0.2592779398 -0.85850828886
0.42116707563 0.060500416905 -0.90467321873
0.16351731122 -0.3221219182 -0.93262737989
0.25820788741 -0.087987519801 -0.9620320797
-0.0012536201393 -0.15587803721 -0.98781788349
0.0076591526158 -0.53983575106 -0.84169882536
-0.16007852554 -0.3202636838 -0.93382483721
-0.30502203107 -0.51690346003 -0.79981887341
-0.26186585426 -0.086592614651 -0.96112799644
-0.44231057167 -0.25465413928 -0.85981208086
-0.41368070245 0.070092886686 -0.90735429525
-0.5492401123 0.048645213246 -0.83203929663
-0.69543790817 -0.15435817838 -0.70170944929
-0.5928068161 -0.43548822403 -0.67751115561
-0.42931237817 -0.69433438778 -0.57763642073
-0.69034850597 -0.58943402767 -0.4192211628
0.06995651871 -0.00076741934754 -0.99750971794
0.29461282492 0.11526563019 -0.94830310345
-0.070715673268 -0.00088643125491 -0.99745953083
-0.00013853656128 0.11528666317 -0.99331015348
-0.29504075646 0.11443156004 -0.94796019793
-0.45086291432 0.69334125519 -0.56210315228
-0.61318278313 0.43086898327 -0.66194808483
-0.69406187534 0.58709073067 -0.4164159596
-0.12464816123 0.23260980844 0.96451205015
-0.035064220428 0.37379598618 0.92676854134
0.0069689457305 0.17416936159 0.98468595743
0.0084125297144 0.27415701747 0.96162682772
-0.093154750764 0.12487472594 0.98779517412
0.13746860623 0.2214089483 0.9653429985
-0.017725137994 0.07311026752 0.99706935883
0.094009540975 0.11068747193 0.98938775063
0.051203649491 -0.0066978503019 0.99838930368
-0.043510064483 -0.053846552968 0.9975258708
-0.10384662449 0.025547953323 0.99422699213
-0.094361267984 -0.14702606201 0.9845687747
-0.17024627328 -0.057163331658 0.98352193832
-0.19642746449 0.096042364836 0.97574067116
-0.26044854522 0.21981780231 0.94014245272
0.15310503542 0.016890227795 0.98797887564
0.20952622592 0.11337047815 0.97116881609
0.0099433846772 -0.13805544376 0.99023044109
0.0959097296 0.32370638847 0.94127315283
0.20822796226 0.31376236677 0.92628532648
0.70344030857 0.1690171957 -0.6901794672
0.69383126497 0.58704072237 -0.41659075022
0.61805206537 0.4377951324 -0.65309542418
0.45532053709 0.69391208887 -0.55780535936
0.50562036037 0.27942350507 -0.81616592407
0.96028852463 -0.15590065718 0.23125736415
0.95270967484 0.16220135987 0.25676128268
0.86847937107 -0.0030947530176 0.49574768543
0.80192655325 0.31257501245 0.50932443142
0.34768262506 0.2949206233 -0.88998967409
-0.40442979336 0.20213773847 0.89186733961
-0.33370113373 0.32309031487 0.88517665863
0.70398420095 0.1562474519 0.69114118814
0.32018581033 0.27844169736 0.90533977747
0.25133806467 0.2118588388 0.94442081451
0.70435667038 0.69269281626 0.15426215529
0.85384637117 0.44689708948 0.26667070389
0.68483507633 0.59459650517 0.42129322886
0.47118887305 0.71148276329 0.51952129602
0.60831034184 0.47632372379 0.63443523645
-0.89253717661 -0.01236044988 0.44862473011
-0.46437415481 0.28734356165 -0.83754193783
-0.33010658622 0.29615888 -0.89623349905
-0.099692881107 -0.3123781383 0.94429725409
-0.16026248038 -0.22929830849 0.96002537012
-0.048326209188 -0.22651571035 0.97280699015
0.064033821225 -0.21840281785 0.97360533476
-0.74162447453 -0.39272576571 0.54403889179
-0.79565626383 -0.2137888819 0.56572818756
-0.79771709442 0.068113870919 0.59876024723
-0.73417365551 0.3794721961 0.56264519691
-0.71213138103 0.58235991001 0.39043661952
0.16749596596 -0.73344045877 0.65952718258
0.41721838713 -0.71732056141 0.5581485033
0.25749722123 -0.86466598511 0.43095570803
-0.71571582556 -0.58827584982 0.37508028746
0.65160751343 0.30977731943 0.69222438335
0.53119117022 0.16407331824 0.83120059967
-0.17564332485 -0.14394454658 0.97376066446
-0.25634202361 -0.092954054475 0.96208065748
0.41566774249 0.6498182416 0.6356562376

CELLS 314 1256
3 0 1 2
3 1 3 2
3 2 3 4
3 5 6 7
3 5 8 6
3 7 6 9
3 10 6 11
3 6 12 11
3 6 8 12
3 11 12 13
3 14 10 15
3 16 17 0
3 18 19 20
3 18 21 19
3 20 19 13
3 21 22 23
3 22 24 23
3 22 25 24
3 23 24 26
3 23 26 27
3 28 13 19
3 29 19 21
3 25 30 24
3 30 17 24
3 30 0 17
3 1 30 31
3 1 0 30
3 31 30 25
3 32 33 34
3 35 34 36
3 36 34 8
3 34 33 8
3 14 37 10
3 14 38 37
3 39 40 41
3 40 42 43
3 26 40 39
3 44 45 46
3 39 41 47
3 48 46 45
3 43 49 40
3 50 51 52
3 50 43 51
3 52 51 53
3 51 43 54
3 53 54 55
3 54 56 55
3 54 42 56
3 55 56 16
3 16 56 17
3 57 47 58
3 57 39 47
3 58 47 48
3 59 32 60
3 61 60 35
3 35 60 34
3 34 60 32
3 48 47 46
3 46 47 62
3 42 54 43
3 51 54 53
3 14 63 64
3 63 65 64
3 64 65 48
3 10 37 66
3 37 67 68
3 67 69 68
3 68 69 70
3 70 69 71
3 53 72 52
3 48 65 58
3 73 74 75
3 74 76 77
3 74 31 76
3 77 76 78
3 31 79 76
3 79 80 76
3 79 81 80
3 76 80 78
3 81 79 25
3 25 79 31
3 78 80 82
3 80 83 82
3 80 81 83
3 82 83 84
3 85 86 20
3 86 18 20
3 85 83 86
3 83 87 86
3 83 81 87
3 86 87 18
3 81 88 87
3 88 89 87
3 88 22 89
3 87 89 18
3 22 88 25
3 25 88 81
3 18 89 21
3 89 22 21
3 31 74 1
3 1 74 73
3 78 90 77
3 91 77 61
3 90 61 77
3 35 91 61
3 78 92 90
3 92 93 90
3 92 59 93
3 90 93 61
3 61 93 60
3 60 93 59
3 59 94 32
3 92 82 59
3 94 59 82
3 82 92 78
3 33 95 8
3 8 95 12
3 33 96 95
3 96 97 95
3 96 20 97
3 95 97 12
3 20 96 85
3 12 97 13
3 97 20 13
3 38 98 99
3 98 100 101
3 98 102 100
3 101 100 103
3 102 104 100
3 104 105 100
3 104 106 105
3 100 105 103
3 106 104 107
3 104 108 107
3 104 102 108
3 109 107 110
3 44 111 45
3 45 111 112
3 102 98 111
3 106 113 105
3 113 114 105
3 113 52 114
3 105 114 103
3 44 110 111
3 110 108 111
3 108 110 107
3 111 108 102
3 50 106 115
3 52 113 50
3 50 113 106
3 103 116 101
3 116 99 101
3 116 67 99
3 101 99 98
3 38 99 37
3 99 67 37
3 69 67 117
3 72 114 52
3 73 118 1
3 1 118 3
3 3 119 4
3 4 119 5
3 3 120 119
3 120 121 119
3 120 36 121
3 119 121 5
3 3 118 120
3 118 122 120
3 118 73 122
3 120 122 36
3 5 121 8
3 121 36 8
3 2 123 0
3 0 123 16
3 2 124 123
3 124 125 123
3 124 126 125
3 123 125 16
3 4 124 2
3 36 127 35
3 35 127 91
3 45 112 128
3 112 129 128
3 112 38 129
3 128 129 64
3 16 125 55
3 53 55 130
3 69 131 71
3 131 72 71
3 69 117 131
3 117 132 131
3 117 103 132
3 131 132 72
3 64 129 14
3 14 129 38
3 45 128 48
3 128 64 48
3 91 75 77
3 77 75 74
3 73 75 122
3 75 127 122
3 75 91 127
3 122 127 36
3 38 112 98
3 98 112 111
3 103 117 116
3 116 117 67
3 72 132 114
3 114 132 103
3 7 133 5
3 5 133 4
3 4 133 134
3 133 135 134
3 133 7 135
3 134 135 126
3 7 136 135
3 136 137 135
3 135 137 126
3 29 138 19
3 19 138 28
3 85 139 84
3 139 140 84
3 139 33 140
3 84 140 94
3 49 141 40
3 40 141 41
3 41 141 142
3 141 143 142
3 141 49 143
3 142 143 109
3 49 144 143
3 144 115 143
3 144 50 115
3 143 115 109
3 50 144 43
3 43 144 49
3 57 58 145
3 29 146 138
3 146 147 138
3 146 58 147
3 138 147 28
3 71 137 70
3 28 147 148
3 65 147 58
3 94 140 32
3 32 140 33
3 85 84 83
3 84 94 82
3 33 139 96
3 96 139 85
3 109 115 107
3 107 115 106
3 4 134 124
3 124 134 126
3 28 149 13
3 13 149 11
3 42 150 151
3 150 152 151
3 150 26 152
3 151 152 17
3 23 153 21
3 21 153 29
3 17 152 24
3 24 152 26
3 26 150 40
3 40 150 42
3 42 151 56
3 56 151 17
3 126 130 125
3 125 130 55
3 57 27 39
3 39 27 26
3 23 27 153
3 27 145 153
3 27 57 145
3 153 145 29
3 28 148 149
3 148 15 149
3 148 63 15
3 149 15 11
3 11 15 10
3 15 63 14
3 63 148 65
3 65 148 147
3 126 154 130
3 154 155 130
3 154 71 155
3 130 155 53
3 70 66 68
3 68 66 37
3 53 155 72
3 72 155 71
3 110 156 109
3 109 156 142
3 46 157 44
3 157 110 44
3 136 158 137
3 158 70 137
3 70 158 66
3 158 9 66
3 158 136 9
3 66 9 10
3 10 9 6
3 9 136 7
3 142 62 41
3 41 62 47
3 46 62 157
3 62 156 157
3 62 142 156
3 157 156 110
3 29 145 146
3 146 145 58
3 71 154 137
3 137 154 126

CELL_TYPES 314
5
5
5
5
5
5
5
5
5
5
5
5
5
5
5
5
5
5
5
5
5
5
5
5
5
5
5
5
5
5
5
5
5
5
5
5
5
5
5
5
5
5
5
5
5
5
5
5
5
5
5
5
5
5
5
5
5
5
5
5
5
5
5
5
5
5
5
5
5
5
5
5
5
5
5
5
5
5
5
5
5
5
5
5
5
5
5
5
5
5
5
5
5
5
5
5
5
5
5
5
5
5
5
5
5
5
5
5
5
5
5
5
5
5
5
5
5
5
5
5
5
5
5
5
5
5
5
5
5
5
5
5
5
5
5
5
5
5
5
5
5
5
5
5
5
5
5
5
5
5
5
5
5
5
5
5
5
5
5
5
5
5
5
5
5
5
5
5
5
5
5
5
5
5
5
5
5
5
5
5
5
5
5
5
5
5
5
5
5
5
5
5
5
5
5
5
5
5
5
5
5
5
5
5
5
5
5
5
5
5
5
5
5
5
5
5
5
5
5
5
5
5
5
5
5
5
5
5
5
5
5
5
5
5
5
5
5
5
5
5
5
5
5
5
5
5
5
5
5
5
5
5
5
5
5
5
5
5
5
5
5
5
5
5
5
5
5
5
5
5
5
5
5
5
5
5
5
5
5
5
5
5
5
5
5
5
5
5
5
5
5
5
5
5
5
5
5
5
5
5
5
5
5
5
5
5
5
5
5
5
5
5
5
5

CELL_DATA 314
SCALARS cell_data_0 double
LOOKUP_TABLE default
1.82554074308e-06
4.13366180395e-07
2.99544624119e-07
2.18146342024e-06
1.03444970599e-07
3.12299352622e-06
1.77748338042e-06
6.72572922774e-07
2.51864281992e-07
7.79104608082e-07
1.24210555111e-05
2.81119921396e-06
3.7880584848e-07
1.6188991837e-06
3.73979120051e-07
1.69546990913e-06
9.00274277581e-07
1.01475223378e-06
5.6713440181e-07
3.05557630621e-06
1.45446203927e-06
7.59715359424e-07
5.73398648912e-07
2.50977432388e-06
1.90187562655e-06
3.10199814153e-06
1.18590062864e-06
2.50073649638e-07
9.18315137627e-07
7.52827713103e-07
1.33936485537e-07
1.21651293841e-07
5.5865570933e-07
3.94239186033e-07
6.29632779674e-06
5.15121402489e-06
2.14843683957e-06
2.08144667927e-06
2.11252016775e-07
2.40659144633e-06
2.62761770189e-06
1.31156046552e-07
2.39253598923e-06
1.9226667888e-06
5.5416729651e-08
5.9292781122e-06
3.9461082154e-06
1.60702883729e-06
1.52452985302e-06
5.72354784761e-06
1.0148636839e-07
4.85607992242e-06
3.46958898056e-06
5.35263240288e-07
6.72519463512e-07
5.84529189648e-07
6.59122897546e-07
1.24960375836e-06
2.5889314848e-06
3.86352671608e-06
4.54092260651e-06
3.18289508094e-06
9.96551598085e-07
5.13220266159e-07
7.24072204462e-07
1.22978220889e-06
5.75744512023e-07
1.99257700483e-06
3.28313737719e-06
3.39006887292e-06
8.48685442625e-07
1.53133477776e-06
9.20793595975e-08
2.8185442164e-06
3.42376444885e-07
2.29928416951e-06
1.6873711976e-06
1.3051835246e-06
1.66640272559e-06
5.7809523129e-07
1.38077152613e-06
4.9282102857e-07
5.59228146463e-07
2.72232327032e-06
6.49030406112e-07
1.04534512663e-06
7.95677817194e-07
1.35602827328e-07
1.21191906123e-06
4.85493526124e-07
3.7850192968e-07
9.19163823505e-07
2.00937833672e-07
3.38929405512e-07
1.84088596913e-07
4.28762698718e-07
5.50389315464e-07
5.06541093519e-07
6.84783914565e-08
6.40316981113e-07
1.76641779118e-06
1.08889397637e-06
2.99038431472e-07
4.2564391332e-07
9.07855892123e-07
1.28243999096e-06
2.11832730792e-09
3.74272423731e-07
2.88276425834e-07
3.77484169443e-07
5.0570827249e-07
7.36936445505e-07
3.72998091226e-07
4.58730701635e-07
9.68001360998e-07
2.48313512134e-06
3.00867301119e-07
2.25484663324e-06
6.00641674021e-07
9.11729005995e-07
8.5364805721e-07
3.23691623056e-06
5.40566799762e-09
3.12034072781e-07
4.47673216888e-07
7.19241676708e-08
7.51617324765e-07
1.10187271209e-06
8.46518266171e-07
1.34353800269e-07
4.69436055653e-08
4.17965146189e-07
2.05158756231e-07
1.25660352054e-06
6.7116031439e-07
1.54512805722e-06
2.55289012532e-06
8.90418700703e-07
7.73840009878e-08
7.54142438597e-07
4.21335837763e-07
2.07067232282e-06
7.68801733857e-07
7.51735108079e-07
1.92938141172e-06
5.54623673823e-07
6.32409276126e-07
3.29697206182e-06
1.33881250204e-06
6.9710477021e-07
1.49209739803e-07
4.41612406297e-07
9.08204570966e-07
7.70848308192e-07
2.16427386559e-07
3.06704318231e-07
1.94786972781e-06
1.24148394032e-07
1.28762626556e-06
6.78456465306e-07
6.32470620588e-07
3.82994709686e-07
7.12013389266e-08
9.74558499731e-07
1.51728088325e-06
1.34683655185e-06
6.15869161558e-07
3.75384420682e-07
4.79889040362e-07
5.37094693179e-08
1.40687419403e-07
2.57281777875e-06
1.28497055582e-06
1.0811145914e-06
1.19978652648e-06
3.80617264851e-08
8.20628848561e-07
3.86641669913e-07
8.33625413265e-07
2.58584999348e-06
1.04614227163e-06
2.02647164655e-09
1.16757207175e-06
1.78495356304e-06
1.83468866606e-06
5.7025890369e-07
1.42722561655e-06
4.81969027034e-07
7.27753988797e-08
6.35519219812e-07
5.80446435447e-08
1.33292662648e-07
2.54346779937e-07
2.36951021884e-06
1.11635658867e-06
8.33944062004e-07
3.84776610527e-06
1.21017517383e-06
1.13240339216e-07
7.80527791395e-07
1.13183853834e-06
1.23917208669e-07
4.64408175495e-08
5.45601587356e-07
1.52559335942e-06
8.66446232566e-07
6.51415550055e-07
5.87143786573e-07
6.5005533039e-07
1.57242115574e-06
1.04866389203e-06
3.39426280017e-07
2.92503948786e-07
3.32273294805e-07
3.72616857244e-07
3.24544311981e-07
1.74243448315e-06
6.46339535567e-07
5.36534859916e-07
6.59934601489e-07
9.8654696857e-08
1.17578602995e-06
4.01670053767e-07
4.08436396312e-07
2.74469564346e-06
3.92283056836e-06
2.24438606202e-06
4.32033696268e-07
1.68411583218e-06
1.80888397298e-06
1.35027917316e-07
5.9451289314e-07
1.34204254126e-06
8.35643909229e-09
5.16969865038e-07
7.0419047191e-07
2.46172101481e-06
2.92018066238e-07
7.82518451685e-07
1.49586676415e-07
1.9583146504e-06
1.27243493389e-06
4.3834217951e-07
1.70423325479e-06
1.00830726968e-06
2.52264263782e-06
2.0159066934e-06
1.13607885547e-06
1.24385213394e-06
9.80282341897e-07
8.87332303701e-07
9.2806652399e-07
1.6094582913e-07
1.0446596395e-07
6.72986684607e-07
2.38243932677e-06
2.42325351501e-06
3.36308030586e-06
5.72200521789e-07
2.58692941127e-06
1.57893751773e-06
2.18586113454e-07
1.28856390444e-06
1.09763132525e-06
5.36195235821e-06
3.25073436501e-06
9.28301763413e-08
8.08681505373e-07
8.25883519584e-07
3.73803464781e-06
3.30703537667e-06
1.0145807154e-05
3.68671810612e-06
2.45529490572e-07
1.52359060995e-07
3.62730841641e-07
1.03746353963e-06
2.14716642224e-07
2.25988475778e-07
3.96477013596e-06
2.96636946439e-06
3.38909210756e-06
1.97547615498e-06
7.29361776169e-07
6.63828390008e-07
1.47536637179e-06
1.18427356229e-06
1.52206931976e-06
2.08192358981e-06
3.78652754976e-06
2.76078268441e-07
6.06042225561e-08
7.86030679851e-07
1.19962891655e-07
2.12283453399e-07
5.68396745805e-07
1.18061259612e-06
1.09357029091e-06
1.35533356341e-06
7.74144711574e-08
4.25843946133e-07
2.74824054023e-06
1.61457551488e-06
1.49407437075e-06
6.08504245826e-07
1.58685917911e-06
1.08537372525e-06
5.89331437477e-07
6.8859824215e-07
6.08966789713e-08
1.13016002929e-06
4.16046293826e-07
1.29812838113e-06
4.94729237451e-07

