# vtk DataFile Version 3.0
File Name: Molecule/special/special_0-s9.vtk
ASCII
DATASET UNSTRUCTURED_GRID
FIELD FieldData 1
TIME 1 1 double
0.0
POINTS 125 double
0.85054433346 -0.52590954304 -0.0036931666546
0.80837786198 -0.30809977651 -0.50125479698
0.99623709917 0.001469849376 -0.018527671695
0.82209211588 0.29776960611 -0.48026484251
0.85089117289 0.52535653114 -6.9461493695e-05
0.49440127611 0.81741833687 -0.29089477658
0.50088858604 0.81065070629 0.30361783504
-3.2405463571e-05 0.9999371171 0.00018575630384
0.00045886868611 0.84949874878 -0.52766448259
0.0006263757823 0.84948837757 0.52760505676
-0.50081467628 0.80926895142 0.30707332492
-0.48848563433 0.8242919445 -0.28157511353
-0.85053688288 0.52583116293 -0.0019094550516
-0.32906877995 0.55728179216 0.76217317581
-0.83810514212 0.29297968745 0.4576381743
0.31478112936 -0.56308853626 0.76386654377
-0.00042294361629 -0.85100799799 0.52535134554
0.50113934278 -0.80937075615 0.30633094907
0.84142667055 -0.31650272012 0.43513834476
0.8017655611 0.31532749534 0.50370281935
0.38717547059 0.57181090117 0.72328829765
-0.83977174759 -0.28730759025 -0.45857936144
-0.99996083975 0.00055161700584 -0.0031637717038
-0.82584297657 0.27800866961 -0.48727419972
-0.84998857975 -0.52658683062 -0.0053167650476
-0.48356813192 -0.83002120256 -0.2741548717
-0.50090247393 -0.80885338783 0.30784356594
0.00097921281122 -0.99993556738 0.00065440265462
-0.001143630594 -0.85079187155 -0.52548408508
-0.84916293621 -0.30634698272 0.42841523886
-0.31559023261 -0.56218963861 0.76411044598
0.49986004829 -0.80954700708 -0.30782824755
0.33352231979 -0.54145509005 -0.77151018381
-0.17994870245 0.31240594387 -0.93245589733
-0.35038942099 0.50471168756 -0.78697299957
0.0018245667452 0.53266894817 -0.84636431932
0.18151921034 0.3124461174 -0.93214118481
0.36514762044 0.520837605 -0.77053326368
-0.53207045794 0.043877698481 -0.84436666965
-0.31252455711 0.093369372189 -0.94416207075
-0.051710218191 0.54479658604 0.83660799265
-0.17353971303 0.34040865302 0.92300957441
-0.0002394975163 -0.53259164095 0.84642165899
-0.20297664404 -0.3187084794 0.92564833164
0.19935372472 -0.32409477234 0.92468184233
-0.25421640277 0.0037372279912 0.96713143587
-0.33978292346 0.11058905721 0.93315172195
-0.34634557366 -0.12038939446 0.93022853136
-0.46902021766 -0.27758082747 0.83860254288
-0.53608351946 0.010052635334 0.84392702579
-0.1065429002 -0.15652365983 0.98200422525
0.0010943933157 -0.28620281816 0.95815229416
0.11653228104 -0.13889168203 0.98345285654
0.33437171578 -0.14830993116 0.93072605133
0.26618465781 0.0035297900904 0.96361136436
0.5442186594 0.017071822658 0.83788764477
0.46973651648 -0.27897432446 0.83754342794
0.69868898392 -0.16584667563 0.69575166702
0.60293805599 -0.44185641408 0.6637737155
0.86877155304 -0.00053314067191 0.49470478296
-0.60433810949 -0.44077169895 0.66350591183
-0.70023941994 -0.15280306339 0.69712156057
-0.12942588329 0.13927917182 -0.98163455725
-0.00035897205817 0.2743434906 -0.96165847778
0.12862986326 0.13940161467 -0.98169392347
-0.6043792963 0.44014516473 0.66394454241
-0.48384314775 0.28839352727 0.82621103525
-0.67847174406 0.18060073256 0.71203547716
0.47350457311 0.28957507014 0.83175039291
0.16861838102 0.54256045818 0.82256054878
0.086861565709 0.42772170901 0.89949381351
0.26986241341 0.39358252287 0.878287673
0.35554397106 0.15898227692 0.9206135869
0.54508119822 0.013202353381 -0.83760529757
0.43889608979 -0.25799527764 -0.86068981886
0.4271428287 0.056489177048 -0.90188115835
0.16092266142 -0.31535327435 -0.93535387516
0.26734185219 -0.079218663275 -0.96014940739
-0.0014269852545 -0.14105334878 -0.98994851112
0.0036447779275 -0.53409570456 -0.84538966417
-0.16007970273 -0.31415343285 -0.93583017588
-0.30675250292 -0.51181387901 -0.80229717493
-0.27278262377 -0.078538574278 -0.959004879
-0.43944269419 -0.25900453329 -0.86015975475
-0.69192010164 -0.15552604198 -0.70488148928
-0.59072303772 -0.43313452601 -0.68075948954
-0.42844727635 -0.69107711315 -0.58218675852
-0.68865323067 -0.58860141039 -0.42342424393
0.066868655384 0.0028484747745 -0.99768728018
0.30555006862 0.09664618969 -0.94597131014
-0.067353866994 0.0024559814483 -0.9976375699
-9.8134914879e-05 0.11261153221 -0.99360471964
-0.45213213563 0.69200342894 -0.56261354685
-0.61301320791 0.43205159903 -0.66145503521
-0.69143766165 0.58745020628 -0.42036646605
-0.12918043137 0.22344855964 0.96602743864
-0.037011325359 0.36831253767 0.92892843485
0.0112673603 0.17739725113 0.98402184248
0.0053919595666 0.27614304423 0.96104180813
-0.097452364862 0.12739777565 0.98703783751
0.14795418084 0.22689278424 0.96219182014
-0.024465229362 0.075338438153 0.99677801132
0.0945603773 0.11603458971 0.98874735832
0.046897940338 0.012077550404 0.99866646528
-0.033910293132 -0.055110383779 0.99791121483
-0.10158833116 0.017399132252 0.99454897642
-0.17024335265 -0.054526966065 0.98388177156
-0.18668456376 0.083461038768 0.978266716
-0.25894203782 0.22371543944 0.93946659565
0.14680583775 0.017716456205 0.98900359869
0.20518532395 0.11610111594 0.97183531523
0.10389691591 0.32272103429 0.94066572189
0.21231155097 0.30906698108 0.92698770761
0.70069026947 0.17033483088 -0.69280433655
0.69095933437 0.58776950836 -0.42064860463
0.61703819036 0.43350705504 -0.65686708689
0.45588299632 0.69266575575 -0.55887961388
0.48901626468 0.28151398897 -0.82510638237
0.96022731066 -0.157467857 0.23035183549
0.95203822851 0.1614946723 0.25997805595
0.35069489479 0.30280917883 -0.88599920273
-0.4037283361 0.20573218167 0.89136588573
-0.32683685422 0.31240996718 0.89150863886
0.31470265985 0.27451190352 0.90862876177
0.25295731425 0.20607469976 0.94516813755

CELLS 246 984
3 0 1 2
3 1 3 2
3 2 3 4
3 4 5 6
3 5 7 6
3 5 8 7
3 6 7 9
3 9 7 10
3 7 11 10
3 7 8 11
3 10 11 12
3 9 10 13
3 10 12 14
3 15 16 17
3 18 17 0
3 4 6 19
3 6 20 19
3 6 9 20
3 21 22 23
3 21 24 22
3 23 22 12
3 24 25 26
3 25 27 26
3 25 28 27
3 26 27 16
3 24 26 29
3 26 16 30
3 14 22 29
3 14 12 22
3 29 22 24
3 28 31 27
3 31 17 27
3 31 0 17
3 27 17 16
3 1 31 32
3 1 0 31
3 32 31 28
3 33 34 35
3 36 35 37
3 38 34 39
3 37 35 8
3 35 34 8
3 13 40 9
3 13 41 40
3 30 42 43
3 42 15 44
3 15 42 16
3 16 42 30
3 45 46 47
3 30 43 48
3 49 47 46
3 47 43 50
3 44 51 42
3 42 51 43
3 43 51 50
3 51 52 50
3 51 44 52
3 52 53 54
3 52 44 53
3 54 53 55
3 53 44 56
3 55 56 57
3 56 58 57
3 56 15 58
3 57 58 18
3 18 58 17
3 17 58 15
3 19 55 59
3 30 60 26
3 26 60 29
3 29 60 61
3 60 48 61
3 60 30 48
3 61 48 49
3 29 61 14
3 62 33 63
3 64 63 36
3 36 63 35
3 35 63 33
3 49 48 47
3 47 48 43
3 15 56 44
3 53 56 55
3 14 65 10
3 10 65 13
3 13 65 66
3 65 67 66
3 65 14 67
3 66 67 49
3 20 68 19
3 19 68 55
3 40 69 9
3 9 69 20
3 40 70 69
3 70 71 69
3 69 71 20
3 20 71 68
3 68 72 55
3 55 72 54
3 49 67 61
3 61 67 14
3 73 74 75
3 74 76 77
3 74 32 76
3 77 76 78
3 32 79 76
3 79 80 76
3 79 81 80
3 76 80 78
3 81 79 28
3 28 79 32
3 78 80 82
3 80 83 82
3 80 81 83
3 82 83 38
3 38 84 23
3 84 21 23
3 38 83 84
3 83 85 84
3 83 81 85
3 84 85 21
3 81 86 85
3 86 87 85
3 86 25 87
3 85 87 21
3 25 86 28
3 28 86 81
3 21 87 24
3 87 25 24
3 32 74 1
3 1 74 73
3 78 88 77
3 89 77 64
3 88 64 77
3 36 89 64
3 78 90 88
3 90 91 88
3 90 62 91
3 88 91 64
3 64 91 63
3 63 91 62
3 62 39 33
3 33 39 34
3 38 39 82
3 90 82 62
3 39 62 82
3 82 90 78
3 34 92 8
3 8 92 11
3 34 93 92
3 93 94 92
3 93 23 94
3 92 94 11
3 23 93 38
3 38 93 34
3 11 94 12
3 94 23 12
3 41 95 96
3 95 97 98
3 95 99 97
3 98 97 100
3 99 101 97
3 101 102 97
3 101 103 102
3 97 102 100
3 103 101 104
3 101 105 104
3 101 99 105
3 50 104 106
3 45 107 46
3 46 107 108
3 99 95 107
3 103 109 102
3 109 110 102
3 109 54 110
3 102 110 100
3 50 106 47
3 47 106 45
3 45 106 107
3 106 105 107
3 105 106 104
3 107 105 99
3 103 104 52
3 52 104 50
3 54 109 52
3 52 109 103
3 100 111 98
3 111 96 98
3 111 70 96
3 98 96 95
3 41 96 40
3 96 70 40
3 71 70 112
3 72 110 54
3 73 113 1
3 1 113 3
3 3 114 4
3 4 114 5
3 3 115 114
3 115 116 114
3 115 37 116
3 114 116 5
3 3 113 115
3 113 117 115
3 113 73 117
3 115 117 37
3 5 116 8
3 116 37 8
3 2 118 0
3 0 118 18
3 2 119 118
3 119 59 118
3 119 19 59
3 118 59 18
3 19 119 4
3 4 119 2
3 37 120 36
3 36 120 89
3 46 108 121
3 108 122 121
3 108 41 122
3 121 122 66
3 18 59 57
3 57 59 55
3 71 123 68
3 123 72 68
3 71 112 123
3 112 124 123
3 112 100 124
3 123 124 72
3 66 122 13
3 13 122 41
3 46 121 49
3 121 66 49
3 89 75 77
3 77 75 74
3 73 75 117
3 75 120 117
3 75 89 120
3 117 120 37
3 41 108 95
3 95 108 107
3 100 112 111
3 111 112 70
3 72 124 110
3 110 124 100

CELL_TYPES 246
5
5
5
5
5
5
5
5
5
5
5
5
5
5
5
5
5
5
5
5
5
5
5
5
5
5
5
5
5
5
5
5
5
5
5
5
5
5
5
5
5
5
5
5
5
5
5
5
5
5
5
5
5
5
5
5
5
5
5
5
5
5
5
5
5
5
5
5
5
5
5
5
5
5
5
5
5
5
5
5
5
5
5
5
5
5
5
5
5
5
5
5
5
5
5
5
5
5
5
5
5
5
5
5
5
5
5
5
5
5
5
5
5
5
5
5
5
5
5
5
5
5
5
5
5
5
5
5
5
5
5
5
5
5
5
5
5
5
5
5
5
5
5
5
5
5
5
5
5
5
5
5
5
5
5
5
5
5
5
5
5
5
5
5
5
5
5
5
5
5
5
5
5
5
5
5
5
5
5
5
5
5
5
5
5
5
5
5
5
5
5
5
5
5
5
5
5
5
5
5
5
5
5
5
5
5
5
5
5
5
5
5
5
5
5
5
5
5
5
5
5
5
5
5
5
5
5
5
5
5
5
5
5
5
5
5
5
5
5
5
5
5
5
5
5
5

CELL_DATA 246
SCALARS cell_data_0 double
LOOKUP_TABLE default
2.04078311815e-06
3.62223539607e-07
7.06954315072e-07
2.2482568047e-06
1.40999927197e-06
5.88185220228e-08
2.04216002537e-06
2.17496719202e-06
7.1308282263e-07
1.40809000211e-06
9.25549499399e-07
6.26352309298e-06
4.85278164297e-06
6.9540182857e-06
4.26231897313e-06
7.621847159e-06
8.41668933829e-06
2.54134722266e-06
1.42449482252e-07
2.63615013283e-06
2.03640078745e-06
1.97838718518e-07
1.66594041129e-06
9.04260890591e-08
2.0687392907e-06
4.20220951559e-06
5.269324207e-06
3.15413034674e-06
5.6565721995e-06
3.66007318834e-06
4.47252700722e-07
8.4815733857e-07
9.05255002678e-08
3.2427101282e-06
4.32902180176e-06
1.98431453801e-06
1.95022931164e-07
3.4302507418e-06
2.1835427089e-06
6.99460765145e-06
1.5695334395e-06
2.64027114153e-06
2.72624852773e-06
2.70402222895e-06
2.99195618366e-06
2.85786758699e-06
2.89340458541e-06
3.0385445467e-06
1.56351862226e-06
1.59661830868e-06
5.11386790127e-06
6.70701843601e-06
3.5392729627e-06
5.79624623142e-06
7.38455248466e-06
8.30393210132e-06
4.38582715436e-06
4.62546960078e-06
1.12942175614e-06
4.80465176312e-08
3.71942506814e-06
5.5932506989e-06
9.95343285243e-07
4.77508199072e-07
7.29055824051e-07
4.30463111211e-06
1.00024281675e-06
7.68534469934e-08
2.20505238919e-07
6.97598909327e-06
5.46081752417e-06
4.01991862652e-06
3.7020908979e-06
3.99761985067e-06
7.55245319838e-06
6.81928286661e-07
3.15930443785e-07
3.19630422106e-07
8.26532983087e-07
1.25617097662e-06
2.53461944506e-06
2.89645939362e-06
3.76998677502e-06
6.17425468888e-06
2.84233231432e-06
7.4246731064e-07
2.67545970191e-06
3.82425176861e-06
4.99014433706e-06
2.0137892902e-06
5.31141241176e-06
1.31714241934e-06
2.62733706487e-06
1.33169449173e-06
1.16229687523e-06
5.12079068854e-06
6.14769780884e-07
6.99396753544e-07
2.15438101235e-06
2.35834464494e-06
4.52992832024e-06
1.29883337378e-06
3.44459028905e-07
2.81881810546e-06
4.3939471587e-07
2.04246719622e-06
1.54551428993e-06
1.32492704329e-06
2.03455787598e-06
6.87494183309e-07
1.34052146631e-06
7.54897429746e-07
7.78546962637e-07
2.57398410206e-06
1.64080769279e-06
1.15057881654e-06
9.23386197964e-07
1.3466114866e-06
1.05395516361e-06
6.55765891562e-07
1.60290716068e-07
9.08311089518e-07
1.1472269078e-07
3.67809578692e-07
6.59260436789e-08
3.1655349435e-07
5.52836039339e-07
6.19108407362e-07
6.8247432874e-08
9.77342111902e-07
1.30500805698e-06
1.38974721468e-06
4.71510419337e-07
1.37814028164e-07
8.84202361388e-07
1.14719664981e-06
4.59652775882e-07
3.38012262788e-07
3.74839032773e-08
2.82673169806e-07
1.13073932526e-06
1.27176843265e-06
2.15249883197e-06
1.51541484749e-06
8.34765999835e-07
1.61649214795e-06
1.19505715106e-06
6.74210966109e-08
2.13938335191e-06
4.77471930768e-06
1.14040045648e-06
1.27570308944e-06
1.0007548414e-07
5.17592541032e-07
4.39273793037e-06
8.64739332652e-08
2.09660093553e-07
3.31369858902e-08
1.16277414896e-07
7.30273915565e-07
1.5083680513e-06
4.75697210577e-07
1.74885889622e-07
1.19953590313e-07
2.45091638536e-07
7.45503175099e-07
2.99329648761e-07
3.39214830389e-07
4.13097431433e-06
2.8418631304e-06
4.63828065143e-07
9.74598092255e-07
7.39837920099e-07
5.1637347665e-07
2.26586458459e-06
6.47533092796e-07
2.09725483793e-06
1.65190333593e-06
1.38849526776e-07
1.03674206236e-06
4.86127529301e-07
3.21506528228e-07
1.67443893934e-08
5.40961549831e-06
8.37144153785e-07
3.43848283517e-07
4.78756243692e-07
2.20599355957e-07
1.12652171129e-06
1.33754423566e-06
1.30142480893e-07
1.05465935472e-06
3.81501831896e-06
9.40464118422e-07
1.2325926861e-06
7.6599893439e-07
1.74880452574e-07
3.52280397755e-07
1.63234308503e-07
1.23157497344e-06
1.61251176058e-06
1.18090081534e-06
3.29094715942e-07
5.29060336232e-07
9.92722348282e-07
5.17250607601e-07
3.3771926648e-07
2.17665113504e-06
7.86201686893e-07
3.10473085954e-06
8.79593193072e-07
3.26960750123e-06
3.10273876773e-07
9.77257666641e-07
1.25015549839e-06
2.69158722055e-07
3.60004488917e-06
1.32703645028e-06
7.63742704694e-07
3.9690707212e-09
7.03472853445e-07
1.3833333792e-06
9.88124228131e-07
1.68785411857e-06
1.48043256038e-06
2.00116121917e-06
2.0258428066e-07
8.02511101225e-08
5.46060632366e-07
1.87125578677e-07
2.9373707149e-06
1.07334080045e-06
1.88163162652e-06
3.40263428002e-06
5.8346998906e-07
1.19150021748e-08
6.11128209854e-07
1.19643982707e-06
8.4635968023e-07
5.65506375879e-07
2.10887022721e-06
4.03420644078e-06
1.84496780194e-06
9.65021842882e-08
5.76684983451e-07
7.24307299671e-07

