# vtk DataFile Version 3.0
File Name: Molecule/special/special_0-s13.vtk
ASCII
DATASET UNSTRUCTURED_GRID
FIELD FieldData 1
TIME 1 1 double
0.0
POINTS 200 double
0.85108840466 -0.52485364676 -0.0086649982259
0.80671310425 -0.30797061324 -0.50411832333
0.99673306942 -0.00074954464799 -0.066120199859
0.85700809956 0.27287217975 -0.43597695231
0.86456423998 0.49838736653 -0.049100186676
0.4786246717 0.84088075161 -0.24784842134
0.0080614294857 0.99809926748 -0.010446665809
0.46610504389 0.84399670362 0.26121899486
0.00069314916618 0.85058933496 -0.52590054274
-0.47275495529 0.84426832199 -0.24635082483
-0.49603444338 0.82133936882 0.27845156193
-0.84978795052 0.52674216032 -0.0070565170608
-0.86154007912 -0.27055820823 -0.42797106504
-0.99994337559 0.0012233728776 -0.0042444681749
-0.84631985426 0.24176725745 -0.47325667739
-0.84768128395 -0.5300077796 -0.012919675559
-0.47020936012 -0.84738647938 -0.24295772612
-0.48301512003 -0.82966434956 0.27728021145
0.0048606926575 -0.99989968538 0.0024032774381
-0.002626726171 -0.8525210619 -0.52265906334
-0.030332915485 -0.86439484358 0.50028026104
-0.86332881451 0.29778248072 0.40296548605
-0.87185192108 -0.31885677576 0.36736160517
0.49994441867 -0.81060737371 -0.3047054112
0.51568800211 -0.81718915701 0.25565063953
0.35505235195 -0.57267522812 -0.73922544718
-0.17082859576 0.33671930432 -0.92589908838
-0.33263045549 0.51779568195 -0.78777617216
0.0044479430653 0.53798812628 -0.8430095911
0.17695692182 0.33862504363 -0.92407077551
0.34335976839 0.52474659681 -0.77860969305
-0.31190010905 0.55619972944 0.76904082298
-0.18357615173 0.38416913152 0.90452635288
-0.054721888155 0.54667490721 0.83421975374
-0.26567330956 0.0018323799595 0.9640814662
-0.35273492336 0.077522613108 0.93250101805
-0.37620973587 -0.10081654787 0.92093110085
-0.53543138504 0.0095894141123 0.84451335669
0.16599051654 -0.12945045531 0.97732424736
0.21492035687 -0.32589697838 0.91971588135
0.34107589722 -0.1703427732 0.92383271456
0.45476967096 -0.3115811348 0.83321344852
0.33502778411 -0.56023323536 0.75627827644
0.58521836996 -0.45441833138 0.67082571983
-0.68268924952 -0.15384338796 0.7139698267
-0.46505716443 -0.26657524705 0.84269875288
-0.13023512065 0.15447248518 -0.97892296314
0.002012454439 0.28175908327 -0.95941787958
0.13044059277 0.15508469939 -0.97883522511
-0.27428528666 -0.19853763282 0.94062715769
-0.51620203257 0.28441858292 0.80707013607
-0.66597521305 0.18110120296 0.72331368923
0.10161430389 0.43866154552 0.89285713434
0.17810490727 0.55554246902 0.81223517656
0.28320917487 0.42348122597 0.86047536135
0.37799072266 0.54234856367 0.75015181303
0.47319889069 0.32667207718 0.81769382954
0.57246226072 -0.0035746979993 -0.81926697493
0.44632196426 -0.26212877035 -0.85564929247
0.41844952106 0.060777235776 -0.90598535538
0.16667118669 -0.32967662811 -0.92933487892
0.25446924567 -0.095680080354 -0.96237123013
-0.00026460370282 -0.16395066679 -0.98649060726
0.011766540818 -0.54642623663 -0.83737170696
-0.1594671756 -0.32679381967 -0.93158870935
-0.30379521847 -0.52169817686 -0.79715150595
-0.25596866012 -0.09388012439 -0.96211099625
-0.44463470578 -0.250610888 -0.85981553793
-0.40832278132 0.06863502413 -0.91000366211
-0.57001262903 0.059258643538 -0.81808519363
-0.70053815842 -0.15436682105 -0.69661748409
-0.59489053488 -0.43737447262 -0.67444288731
-0.42987722158 -0.69819647074 -0.57253062725
-0.69245606661 -0.59047824144 -0.4142075181
0.085337653756 -0.0012866307516 -0.99626278877
0.28119081259 0.1155930236 -0.95221430063
-0.08527584374 -0.0016014126595 -0.99629831314
0.00012487938511 0.1165362671 -0.99317115545
-0.27870285511 0.11465487629 -0.95292335749
-0.44935360551 0.69564288855 -0.56040751934
-0.61468452215 0.42959967256 -0.66139668226
-0.69683611393 0.58680033684 -0.41211512685
-0.12250957638 0.24104011059 0.96273225546
-0.03530889377 0.37925648689 0.92459613085
0.005595699884 0.17276653647 0.98494571447
0.008353061974 0.27340143919 0.96185719967
-0.091608263552 0.12587478757 0.98779940605
0.13243415952 0.21943436563 0.96656954288
-0.013524031267 0.06905297935 0.99746721983
0.094056919217 0.1059986949 0.9899160862
0.054275441915 -0.015923906118 0.99827611446
-0.047066386789 -0.050109483302 0.99760943651
-0.10470690578 0.031133413315 0.99401074648
-0.092620916665 -0.14316116273 0.98533993959
-0.16728688776 -0.050764556974 0.98452526331
-0.20147170126 0.10168910772 0.97419774532
-0.264395684 0.22138305008 0.93867862225
0.15919449925 0.014850219712 0.9870788455
0.21330456436 0.11273667216 0.9704297781
0.28060436249 0.0085136881098 0.95958584547
0.014778596349 -0.13279385865 0.99094212055
0.091856695712 0.32683348656 0.94061440229
0.20609109104 0.32001045346 0.9246762991
0.37691742182 0.15136063099 0.91373324394
0.70906352997 0.16766288877 -0.68466860056
0.69737941027 0.58605998755 -0.41203391552
0.61971384287 0.4413561821 -0.64908969402
0.45406231284 0.69654864073 -0.55554503202
0.51586639881 0.27669724822 -0.81073892117
0.96122896671 -0.15415152907 0.22860649228
0.84625536203 -0.32818341255 0.41873815656
0.95360445976 0.16423763335 0.25190925598
0.87036973238 -0.0040603587404 0.4925339222
0.80505681038 0.31218019128 0.50453186035
0.34767952561 0.29040011764 -0.89143812656
-0.4069725275 0.19963081181 0.89131361246
-0.32917097211 0.32504445314 0.88622534275
0.7268384099 -0.1738370955 0.66344892979
0.32497748733 0.28536993265 0.90152817965
0.25173598528 0.21565763652 0.94345992804
0.7053129077 0.6928511858 0.14897114038
0.85048514605 0.45327919722 0.26682838798
0.68674695492 0.59626877308 0.41583284736
0.48776957393 0.7118704319 0.50476002693
0.60145193338 0.48809957504 0.63209426403
-0.9005190134 -0.015421445481 0.43259209394
-0.47078201175 0.2891305387 -0.83341562748
-0.32665935159 0.29037842155 -0.89933997393
0.024302499369 -0.33314430714 0.94238877296
-0.1145767644 -0.44325891137 0.88887858391
0.11465045065 -0.4430898428 0.88907849789
-0.24361242354 -0.34352570772 0.90675520897
-0.10489334166 -0.31948488951 0.94169557095
-0.16113604605 -0.23358114064 0.95885682106
-0.044413864613 -0.23112626374 0.97191900015
0.071387335658 -0.22506925464 0.97157710791
-0.59986162186 -0.44319972396 0.66589713097
-0.74142110348 -0.40066638589 0.53858107328
-0.80626249313 -0.20002765954 0.55663138628
-0.80053216219 0.071800209582 0.59476393461
-0.73331326246 0.3787419796 0.56425899267
-0.72048896551 0.57938343287 0.38048022985
0.17888578773 -0.73584103584 0.65320974588
0.40853893757 -0.71779704094 0.56381577253
0.25298863649 -0.8681614995 0.42679107189
-0.72263967991 -0.58624148369 0.36550912261
0.71289277077 0.13530951738 0.68713188171
-0.56222718954 -0.64887094498 0.51241469383
-0.55920296907 0.65043193102 0.51378434896
-0.59570580721 0.45007497072 0.66500198841
-0.56262785196 0.36746898293 0.73984450102
0.64801520109 0.30648946762 0.69713515043
0.54007971287 0.17440767586 0.82346844673
0.53987187147 0.017841231078 0.84150254726
0.19131167233 0.7092179656 0.67723309994
0.40894249082 0.010322061367 0.91234910488
-0.18368533254 -0.14437611401 0.97229653597
-0.2570964098 -0.097090497613 0.96149712801
0.40259981155 0.65780347586 0.63599771261
0.27191853523 0.81719464064 0.50302553177
-0.1862796545 0.71733993292 0.66970163584
-0.44063073397 0.62710726261 0.64166110754
-0.32129254937 0.77189689875 0.54747861624
0.71671879292 -0.59333127737 0.36521163583
-0.3184812963 -0.77743697166 0.54174542427
-0.32656726241 -0.56570857763 0.75711452961
-0.15531304479 -0.57672613859 0.80193567276
-0.26721662283 -0.46524775028 0.84366106987
0.0085492590442 -0.53996604681 0.84154981375
-0.0098269674927 -0.7071710825 0.70698612928
-0.1810657382 -0.72372806072 0.66543269157
-0.40354287624 -0.42522132397 0.80975311995
0.517152071 -0.14781340957 0.84282010794
0.63143914938 -0.080794997513 0.77120107412
0.5960072875 -0.24343451858 0.7639721036
0.7270681262 -0.409873873 0.55027097464
0.58473801613 -0.64226162434 0.49527141452
0.16680344939 -0.56353741884 0.80818575621
-0.43958947062 -0.63065975904 0.63961684704
0.14155615866 0.94804137945 0.2814668417
-0.03686639294 0.8599049449 0.50610011816
-0.026457199827 0.96055620909 0.2765865922
-0.2559735775 0.87569063902 0.40911751986
-0.2571670115 0.95454776287 0.15032821894
0.26718321443 -0.45280885696 0.85058677197
0.31950515509 -0.076539136469 0.94462066889
0.44076478481 -0.07376460731 0.89459848404
-0.53577184677 -0.36227828264 0.76265501976
-0.46721166372 -0.50404822826 0.72630298138
-0.46575707197 0.5048661232 0.72683089972
-0.42952564359 0.42758491635 0.7953825593
0.061924189329 0.64910209179 0.75797611475
-0.11065158248 0.64897191525 0.75286930799
0.0023609157652 0.73308795691 0.68000167608
-0.42292609811 0.31943124533 0.84799951315
-0.33371692896 0.43579176068 0.83574545383
0.2173243165 0.77400517464 0.59473389387
0.078527860343 0.79475390911 0.60152214766
0.12109350413 0.84541064501 0.51920622587
-0.10774553567 0.79501914978 0.59618061781

CELLS 396 1584
3 0 1 2
3 1 3 2
3 2 3 4
3 5 6 7
3 5 8 6
3 6 8 9
3 10 9 11
3 12 13 14
3 12 15 13
3 14 13 11
3 15 16 17
3 16 18 17
3 16 19 18
3 17 18 20
3 21 11 13
3 22 13 15
3 19 23 18
3 23 24 18
3 23 0 24
3 1 23 25
3 1 0 23
3 25 23 19
3 26 27 28
3 29 28 30
3 30 28 8
3 28 27 8
3 31 32 33
3 34 35 36
3 37 36 35
3 38 39 40
3 40 39 41
3 41 42 43
3 44 45 37
3 46 26 47
3 48 47 29
3 29 47 28
3 28 47 26
3 37 45 36
3 36 45 49
3 50 51 37
3 33 52 53
3 52 54 53
3 53 54 55
3 55 54 56
3 37 51 44
3 57 58 59
3 58 60 61
3 58 25 60
3 61 60 62
3 25 63 60
3 63 64 60
3 63 65 64
3 60 64 62
3 65 63 19
3 19 63 25
3 62 64 66
3 64 67 66
3 64 65 67
3 66 67 68
3 69 70 14
3 70 12 14
3 69 67 70
3 67 71 70
3 67 65 71
3 70 71 12
3 65 72 71
3 72 73 71
3 72 16 73
3 71 73 12
3 16 72 19
3 19 72 65
3 12 73 15
3 73 16 15
3 25 58 1
3 1 58 57
3 62 74 61
3 48 75 74
3 61 74 75
3 29 75 48
3 62 76 74
3 76 77 74
3 76 46 77
3 74 77 48
3 48 77 47
3 47 77 46
3 46 78 26
3 46 76 78
3 66 78 76
3 66 76 62
3 27 79 8
3 8 79 9
3 27 80 79
3 80 81 79
3 80 14 81
3 79 81 9
3 14 80 69
3 9 81 11
3 81 14 11
3 32 82 83
3 82 84 85
3 82 86 84
3 85 84 87
3 86 88 84
3 88 89 84
3 88 90 89
3 84 89 87
3 90 88 91
3 88 92 91
3 88 86 92
3 93 91 94
3 34 95 35
3 35 95 96
3 86 82 95
3 90 97 89
3 97 98 89
3 97 99 98
3 89 98 87
3 34 94 95
3 94 92 95
3 92 94 91
3 95 92 86
3 38 90 100
3 99 97 38
3 38 97 90
3 87 101 85
3 101 83 85
3 101 52 83
3 85 83 82
3 32 83 33
3 83 52 33
3 54 52 102
3 103 98 99
3 57 104 1
3 1 104 3
3 3 105 4
3 4 105 5
3 3 106 105
3 106 107 105
3 106 30 107
3 105 107 5
3 3 104 106
3 104 108 106
3 104 57 108
3 106 108 30
3 5 107 8
3 107 30 8
3 2 109 0
3 0 109 110
3 2 111 109
3 111 112 109
3 111 113 112
3 109 112 110
3 4 111 2
3 30 114 29
3 29 114 75
3 35 96 115
3 96 116 115
3 96 32 116
3 110 112 117
3 54 118 56
3 118 103 56
3 54 102 118
3 102 119 118
3 102 87 119
3 118 119 103
3 35 115 37
3 115 50 37
3 75 59 61
3 61 59 58
3 57 59 108
3 59 114 108
3 59 75 114
3 108 114 30
3 32 96 82
3 82 96 95
3 87 102 101
3 101 102 52
3 103 119 98
3 98 119 87
3 7 120 5
3 5 120 4
3 4 120 121
3 120 122 121
3 120 7 122
3 121 122 113
3 7 123 122
3 123 124 122
3 122 124 113
3 22 125 13
3 13 125 21
3 69 126 68
3 126 127 68
3 126 27 127
3 68 127 78
3 128 129 130
3 131 132 133
3 132 134 133
3 132 128 134
3 133 134 93
3 128 135 134
3 135 100 134
3 135 38 100
3 134 100 93
3 38 135 39
3 39 135 128
3 136 44 137
3 22 138 125
3 138 139 125
3 138 44 139
3 125 139 21
3 56 124 55
3 21 139 140
3 51 139 44
3 78 127 26
3 26 127 27
3 69 68 67
3 68 78 66
3 27 126 80
3 80 126 69
3 93 100 91
3 91 100 90
3 4 121 111
3 111 121 113
3 21 141 11
3 11 141 10
3 42 142 143
3 142 144 143
3 142 20 144
3 143 144 24
3 17 145 15
3 15 145 22
3 24 144 18
3 18 144 20
3 42 143 43
3 113 146 112
3 112 146 117
3 17 147 145
3 147 137 145
3 147 136 137
3 145 137 22
3 21 140 141
3 140 148 141
3 140 149 148
3 141 148 10
3 149 140 150
3 51 140 139
3 113 151 146
3 151 152 146
3 151 56 152
3 146 152 153
3 55 154 53
3 155 153 103
3 103 152 56
3 94 156 93
3 93 156 133
3 36 157 34
3 157 94 34
3 123 158 124
3 158 55 124
3 55 158 154
3 158 123 159
3 159 123 7
3 133 49 131
3 131 49 45
3 36 49 157
3 49 156 157
3 49 133 156
3 157 156 94
3 22 137 138
3 138 137 44
3 56 151 124
3 124 151 113
3 31 160 161
3 160 162 161
3 161 162 148
3 110 163 0
3 163 24 0
3 20 164 17
3 17 164 147
3 165 166 167
3 166 129 167
3 166 168 129
3 167 129 131
3 20 169 170
3 169 166 170
3 169 168 166
3 170 166 165
3 167 131 171
3 153 172 173
3 172 174 173
3 172 41 174
3 173 174 117
3 117 174 175
3 43 174 41
3 43 175 174
3 117 175 110
3 110 175 163
3 175 176 163
3 175 43 176
3 163 176 24
3 41 172 40
3 153 173 146
3 173 117 146
3 131 129 132
3 132 129 128
3 168 169 177
3 142 169 20
3 24 176 143
3 143 176 43
3 147 178 136
3 165 178 170
3 178 164 170
3 178 147 164
3 170 164 20
3 148 162 10
3 149 161 148
3 6 179 7
3 7 179 159
3 180 181 182
3 181 183 182
3 181 6 183
3 182 183 10
3 10 183 9
3 9 183 6
3 168 177 130
3 177 184 130
3 177 42 184
3 130 184 39
3 168 130 129
3 128 130 39
3 40 185 38
3 38 185 99
3 99 185 155
3 185 186 155
3 185 40 186
3 155 186 153
3 136 187 44
3 187 45 44
3 136 188 187
3 188 171 187
3 188 165 171
3 187 171 45
3 39 184 41
3 41 184 42
3 31 189 190
3 189 150 190
3 189 149 150
3 190 150 50
3 50 150 51
3 51 150 140
3 33 191 192
3 191 193 192
3 191 154 193
3 192 193 160
3 99 155 103
3 152 103 153
3 116 194 115
3 115 194 50
3 50 194 190
3 194 195 190
3 194 116 195
3 190 195 31
3 31 195 32
3 195 116 32
3 42 177 142
3 142 177 169
3 154 191 53
3 53 191 33
3 159 196 158
3 158 196 154
3 154 196 197
3 196 198 197
3 196 159 198
3 197 198 180
3 181 180 179
3 198 179 180
3 198 159 179
3 181 179 6
3 160 199 162
3 162 199 182
3 180 199 197
3 199 193 197
3 199 160 193
3 197 193 154
3 33 192 31
3 192 160 31
3 45 171 131
3 167 171 165
3 153 186 172
3 172 186 40
3 165 188 178
3 178 188 136
3 180 182 199
3 162 182 10
3 149 189 161
3 161 189 31

CELL_TYPES 396
5
5
5
5
5
5
5
5
5
5
5
5
5
5
5
5
5
5
5
5
5
5
5
5
5
5
5
5
5
5
5
5
5
5
5
5
5
5
5
5
5
5
5
5
5
5
5
5
5
5
5
5
5
5
5
5
5
5
5
5
5
5
5
5
5
5
5
5
5
5
5
5
5
5
5
5
5
5
5
5
5
5
5
5
5
5
5
5
5
5
5
5
5
5
5
5
5
5
5
5
5
5
5
5
5
5
5
5
5
5
5
5
5
5
5
5
5
5
5
5
5
5
5
5
5
5
5
5
5
5
5
5
5
5
5
5
5
5
5
5
5
5
5
5
5
5
5
5
5
5
5
5
5
5
5
5
5
5
5
5
5
5
5
5
5
5
5
5
5
5
5
5
5
5
5
5
5
5
5
5
5
5
5
5
5
5
5
5
5
5
5
5
5
5
5
5
5
5
5
5
5
5
5
5
5
5
5
5
5
5
5
5
5
5
5
5
5
5
5
5
5
5
5
5
5
5
5
5
5
5
5
5
5
5
5
5
5
5
5
5
5
5
5
5
5
5
5
5
5
5
5
5
5
5
5
5
5
5
5
5
5
5
5
5
5
5
5
5
5
5
5
5
5
5
5
5
5
5
5
5
5
5
5
5
5
5
5
5
5
5
5
5
5
5
5
5
5
5
5
5
5
5
5
5
5
5
5
5
5
5
5
5
5
5
5
5
5
5
5
5
5
5
5
5
5
5
5
5
5
5
5
5
5
5
5
5
5
5
5
5
5
5
5
5
5
5
5
5
5
5
5
5
5
5
5
5
5
5
5
5
5
5
5
5
5
5
5
5
5
5
5
5
5
5
5
5
5
5
5
5
5
5
5
5
5
5
5
5
5
5
5
5
5
5
5
5

CELL_DATA 396
SCALARS cell_data_0 double
LOOKUP_TABLE default
1.60162017537e-06
8.06807501885e-07
5.93569080414e-07
3.2022402355e-06
1.21993130412e-06
2.02174378305e-07
2.58408908172e-06
5.63671757011e-07
1.54723126711e-06
5.19780311647e-07
1.46515955245e-06
2.1575103374e-07
1.22019252291e-06
3.81103977171e-06
1.72398758623e-06
1.2627496156e-06
6.85957585849e-07
2.19779619019e-06
6.37833232072e-07
2.28757804798e-06
1.43041973132e-06
4.18259688374e-07
5.55334977151e-07
2.14547575266e-07
1.66629181193e-07
4.27134275316e-07
4.06214280692e-06
1.22363745202e-06
1.71549192096e-07
2.90240317574e-06
2.32026434756e-06
1.99565287219e-06
3.37554017535e-06
2.03068821682e-07
2.82763498311e-07
4.17318364764e-07
3.79800365765e-07
1.7653211302e-06
1.5889247515e-06
5.15434245519e-07
1.22664110628e-06
3.68475618298e-07
1.38068334631e-06
1.89710608904e-06
7.08558857887e-07
1.53952062524e-06
1.75997481253e-07
2.86769581551e-06
1.98873282643e-07
2.42794414142e-06
1.76147080572e-06
1.36227506425e-06
1.50039390024e-06
3.59446399404e-07
1.34106444459e-06
3.03147267165e-07
2.94826045868e-07
2.66734287252e-06
5.31242402059e-07
8.70504356895e-07
7.02537937946e-07
5.50441068092e-07
1.15420205406e-06
6.36277685709e-07
4.333706311e-07
8.80238990177e-07
2.50052816478e-07
4.85490611669e-07
1.91642155318e-07
3.06675265584e-07
4.55671512518e-07
5.86763741686e-07
5.46080775258e-08
5.37769840697e-07
2.0506740114e-06
7.20622673266e-07
2.7842945588e-07
1.44451143354e-06
6.32970219588e-07
1.05022996492e-06
1.63731569799e-07
3.09498424625e-07
2.88725008278e-07
3.08764503893e-07
3.72531892275e-07
5.34772918443e-07
2.97425430868e-07
1.17139133731e-06
5.84627040514e-07
2.38178268737e-06
6.08284392189e-07
2.20396011694e-06
4.94380664374e-07
8.36698155766e-07
9.06830503655e-07
2.56465532139e-06
1.00045704845e-07
2.40385823049e-07
1.16403094409e-07
6.03730448788e-08
9.41210080935e-07
4.69720740925e-07
7.83596466172e-07
3.77173566182e-07
4.17693016397e-07
3.74278434713e-07
1.77525542195e-07
8.90638582698e-07
7.36169838992e-07
1.03685551708e-06
1.63809268351e-06
9.27959372739e-07
7.00173824312e-07
4.86790568217e-07
4.70119777985e-07
1.40980196382e-06
6.4692647982e-07
1.14365546781e-06
1.6267893659e-06
5.47874332146e-07
9.08108255785e-07
3.02257361395e-06
2.08052838462e-06
8.02623908054e-08
1.15025422816e-07
1.57901511157e-07
8.8417622352e-07
2.81064537617e-07
8.7717552717e-07
1.79499172665e-08
1.38263127332e-06
1.52119412559e-06
1.17879432409e-06
4.10216031659e-07
8.2385444353e-07
9.47844782813e-07
2.73080201839e-07
6.93492104716e-07
1.7616839764e-06
1.25244763664e-06
5.61040456801e-07
5.62087393784e-07
4.67730190687e-07
6.13106805482e-08
7.40464183043e-07
2.2694025582e-06
7.73155849568e-07
5.06556989638e-07
1.19211071651e-06
3.11929427473e-07
8.90491205899e-07
3.61502201991e-07
1.02804117018e-06
2.30027480433e-06
1.23101716835e-06
1.86396572639e-07
8.41491556167e-07
9.64306042507e-07
2.70862954726e-07
6.77076450662e-07
1.37406875599e-07
1.41194927418e-07
5.95009598861e-08
3.62724589265e-08
8.77996376105e-08
1.09868347514e-06
4.08168983411e-06
8.56023383231e-07
2.43143623032e-07
1.01112543477e-06
1.17500079331e-06
3.66007459212e-07
2.24359376018e-08
7.57805470119e-09
1.21831795174e-06
5.79787331217e-07
9.90396805601e-08
4.20574101133e-07
5.53927101135e-07
1.96938230579e-06
1.53119039313e-06
4.58788329562e-07
8.57498291911e-08
1.58688032967e-07
2.80323370936e-07
3.97888367532e-08
2.69615781321e-07
8.21312537271e-07
1.87220953208e-07
5.03535955712e-07
2.16793814277e-07
1.35624901914e-06
1.89315848592e-07
5.0178087983e-08
3.95625261272e-06
1.87241872122e-08
8.67394686513e-07
4.87177912976e-07
6.12908979909e-07
9.89643339989e-07
1.60877666924e-07
8.5440000003e-07
3.27488989577e-08
1.53045965931e-07
1.48937215853e-06
1.41752981663e-06
1.48359009953e-07
1.82464357465e-07
2.30424971512e-07
1.24319758639e-06
1.15883388157e-06
1.09466724272e-08
2.50219313053e-06
1.12620648089e-06
2.25193698039e-06
1.62338483356e-06
6.77538154164e-07
9.85771237018e-07
4.34233559844e-07
8.17224588024e-07
1.13439519849e-06
3.77529945625e-07
3.77259428081e-07
9.52459303219e-07
1.43001897823e-06
1.25861344245e-07
5.63092020897e-07
9.13768644936e-08
6.12788364562e-07
7.07538274664e-07
8.14112020086e-07
1.80677135284e-06
1.18990104736e-06
1.44844391323e-06
3.4817294045e-07
2.06402207684e-06
1.14490579113e-06
1.50656490574e-06
3.24608629175e-07
4.50218667498e-07
1.62419999402e-06
1.50488627188e-06
9.08470086496e-07
1.34786794731e-06
9.59716658915e-07
2.78659651746e-07
4.19281732974e-07
6.74561313417e-07
4.43337703805e-07
9.03702432067e-08
1.56344127981e-06
1.17516698689e-06
5.68929798818e-07
7.24281087043e-08
1.44992726722e-07
4.79469971837e-07
8.71186999645e-07
5.75123966986e-07
6.46770723682e-07
2.42140420032e-07
1.01604734141e-07
6.8546537285e-07
7.04736285934e-07
2.46281174601e-06
7.92688498677e-07
2.16435257196e-07
1.60049571453e-07
1.00469932103e-07
7.42216288067e-07
2.67991817836e-07
4.69839699575e-07
5.85377080157e-07
8.64304847412e-07
2.98342893885e-07
2.20713720318e-07
8.45951696671e-07
5.03538017689e-07
4.40678499287e-07
8.43890926763e-07
5.61840277563e-07
1.76855780775e-07
1.7488537015e-06
3.1229779117e-07
1.10599971509e-06
3.08288537157e-07
7.11160612877e-07
2.83451615814e-07
7.59673628692e-07
4.55137895252e-07
2.58179947626e-07
2.32116643717e-07
7.37781035712e-07
1.00618486753e-06
1.97140210038e-06
8.19823212047e-07
9.48277049768e-07
2.38803098705e-07
1.21472563941e-06
2.63230535234e-08
1.05936531685e-06
6.37422892771e-07
1.30732912123e-07
1.1849264952e-06
1.89176852313e-07
4.63309251504e-07
1.37242534734e-06
4.41189452905e-07
8.27572723219e-07
1.64892238831e-06
1.37648426013e-07
1.34935851269e-06
6.71222888059e-07
2.85537449875e-07
1.13874192163e-06
5.22149356021e-07
5.65910956404e-08
6.89258072881e-07
4.43227333795e-07
6.10181392514e-07
1.20950578362e-06
4.90127736853e-07
8.38183683171e-07
1.42540875869e-06
5.22551944561e-07
1.20526462647e-06
3.06011616236e-07
1.37499530417e-06
2.05726914631e-06
2.73936637248e-06
4.85448814422e-07
1.78142781331e-06
1.6032110134e-06
7.83887119649e-07
7.55098542875e-07
3.22836438311e-07
8.01791082354e-07
1.3015827857e-06
1.39174411299e-06
3.3829854026e-07
5.84328818225e-07
2.93199344098e-07
1.24706224494e-06
1.87627546003e-06
2.29398804531e-06
1.9195327684e-08
4.3196535533e-07
7.91550751654e-08
2.83086812386e-08
1.20446615092e-06
1.66157002666e-06
8.14403685813e-07
4.95208827258e-07
5.64637415566e-08
2.11219397541e-08
4.67796415914e-07
1.40786688662e-06
1.45462284114e-07
1.49041193594e-06
2.58000582712e-07
1.01076906683e-06
1.22992034215e-06
3.02146633118e-07
1.25715073996e-06
2.07617120412e-07
5.35371315758e-07
2.10214374685e-06
6.87043553078e-07
1.01859974463e-06
1.46378676918e-07
1.88741511435e-07
2.45053034515e-07
1.84988087963e-08
1.71140042278e-07
3.06010308141e-07
1.15893015085e-07
1.74636066469e-07
2.26090617599e-07
1.16614564412e-06
4.79900388045e-07
8.23203805821e-07
4.16756316352e-09
1.87609001384e-07
9.9367904542e-08
4.62073928084e-08
5.0030382865e-07
1.25875273941e-07
1.99716285996e-06
2.18864884202e-07
5.69045163389e-07
5.44535235431e-07
6.35179933932e-07
1.16480986499e-08
2.31966622543e-08
9.45210789218e-07
1.57562605344e-07
6.27782156193e-07

