# vtk DataFile Version 3.0
File Name: Molecule/special/special_0-s15.vtk
ASCII
DATASET UNSTRUCTURED_GRID
FIELD FieldData 1
TIME 1 1 double
0.0
POINTS 264 double
0.8516959548 -0.52366286516 -0.011653801426
0.80560326576 -0.3084782362 -0.50547128916
0.99576455355 -0.0036137588322 -0.080681756139
0.86637800932 0.2645085454 -0.42313534021
0.86962163448 0.48893624544 -0.062814489007
-0.0069073196501 0.99844616652 -0.02569356747
0.00094910955522 0.85139554739 -0.52462095022
-0.46025916934 0.85250157118 -0.24109835923
-0.86887007952 -0.26555129886 -0.41721343994
-0.99992859364 0.0012972891564 -0.0053742784075
-0.85739415884 0.22875744104 -0.45727342367
-0.84605425596 -0.53235143423 -0.01722018607
-0.85431718826 0.51706004143 -0.011187299155
-0.46450203657 -0.85347145796 -0.23203657568
-0.4987628758 -0.82581961155 0.25944498181
-0.0029518874362 -0.85370337963 -0.52077186108
0.025787379593 -0.99825114012 -0.013825373724
-0.87509042025 0.2964951396 0.38106238842
-0.88182371855 -0.31938016415 0.34479802847
0.50040513277 -0.81089890003 -0.30318009853
0.5194196701 -0.82354599237 0.22768983245
0.36489853263 -0.60234951973 -0.70985215902
-0.1663313657 0.35023325682 -0.9214399457
-0.32240056992 0.49911358953 -0.80102241039
0.00073140254244 0.54327917099 -0.83943527937
0.34211447835 0.532114923 -0.77369916439
-0.37213766575 0.61753374338 -0.68605619669
0.34706577659 -0.56659048796 0.74731016159
0.56641513109 -0.46706014872 0.67792868614
0.36748868227 -0.4002378583 0.83802330494
-0.13206540048 0.17449232936 -0.97549760342
6.8293884397e-05 0.28600698709 -0.95809489489
0.12682025135 0.17022052407 -0.97685468197
0.16072119772 0.33556464314 -0.92718809843
-0.27935162187 -0.20589157939 0.93779760599
-0.38170906901 -0.10861096531 0.91739881039
-0.35178223252 -0.29763409495 0.88699543476
-0.031646385789 0.54318624735 0.83852052689
0.10607472062 0.44140645862 0.89101153612
0.1805575341 0.55660778284 0.8109331727
0.28493669629 0.42787495255 0.85773974657
0.37789383531 0.53533130884 0.75537359715
0.47259783745 0.3386181891 0.81344389915
0.58217829466 -0.0089804669842 -0.81251966953
0.45931279659 -0.2332649231 -0.8558344841
0.41914865375 0.059006500989 -0.905834198
0.25406384468 -0.1039667204 -0.9615624547
0.14100408554 -0.32865595818 -0.93325531483
-0.0014383925591 -0.16704666615 -0.98594170809
0.016086099669 -0.5536557436 -0.83262431622
-0.14047524333 -0.32425120473 -0.93401497602
-0.30215781927 -0.53780406713 -0.78534913063
-0.25242379308 -0.10204794258 -0.96209996939
-0.45931115746 -0.23375248909 -0.8557356596
-0.40782463551 0.065690517426 -0.9105424881
-0.70031696558 -0.15657098591 -0.69624131918
-0.73590713739 0.14352966845 -0.66022986174
-0.58284085989 0.058382451534 -0.81055659056
-0.59677499533 -0.43913522363 -0.6717042923
-0.4305370748 -0.70204979181 -0.56719750166
-0.69464462996 -0.5914811492 -0.4093221128
0.092035159469 0.0016740050633 -0.99565076828
0.2719412446 0.11511743069 -0.95522761345
0.2608910799 0.30725520849 -0.91463702917
-0.092072434723 0.0023541301489 -0.99569511414
-0.00088529079221 0.12006495148 -0.9926776886
-0.31967160106 0.28230750561 -0.90435862541
-0.26524043083 0.10309316963 -0.9582259655
-0.44888028502 0.70702880621 -0.54354542494
-0.69975179434 0.58638954163 -0.40781363845
-0.19107706845 0.37002629042 0.90899342299
-0.12319181114 0.24520480633 0.96159666777
-0.037121932954 0.38310277462 0.92290997505
0.0056404354982 0.17196331918 0.98508530855
0.0073846471496 0.27377298474 0.9617612958
-0.091190442443 0.12779355049 0.98758727312
0.13010343909 0.21907794476 0.96699219942
-0.012121305801 0.067224740982 0.99766027927
0.094868652523 0.10329248011 0.99011743069
0.055931076407 -0.000389078632 0.99840176105
-0.047332219779 -0.04625441879 0.99780106544
-0.10505780578 0.035112790763 0.99385553598
-0.093639150262 -0.14180018008 0.9854554534
-0.16770268977 -0.047378852963 0.98467087746
-0.26989659667 -0.0001955179614 0.9628494978
-0.20476211607 0.10446981341 0.97321200371
-0.34903237224 0.084525711834 0.93283212185
-0.26517736912 0.22137403488 0.93842381239
0.15160803497 0.020292632282 0.98803275824
0.21457596123 0.11428904533 0.96997773647
0.089766547084 0.32994148135 0.93971312046
0.2053706944 0.32492470741 0.92315411568
0.3885423243 0.15233954787 0.90866959095
0.28793385625 0.025469567627 0.95656877756
0.71535617113 0.16607637703 -0.67869919538
0.70112729073 0.58417099714 -0.40866717696
0.49124288559 0.83270871639 -0.25194701552
0.6196833849 0.44379091263 -0.64719641209
0.45359551907 0.69842886925 -0.55349689722
0.52419680357 0.26709708571 -0.80840647221
0.35936787724 0.40216124058 -0.84081125259
0.96266931295 -0.15213280916 0.2238304168
0.85065966845 -0.32506597042 0.41258466244
0.95467555523 0.16671684384 0.24605435133
0.87348407507 -0.0042608529329 0.48697629571
0.80694019794 0.31193581223 0.50159549713
-0.38998058438 0.20394004881 0.89779829979
-0.32234552503 0.31901919842 0.89118379354
0.74425637722 -0.16983197629 0.64525836706
0.32878875732 0.29140177369 0.89825820923
0.25320327282 0.21933963895 0.94224649668
0.35666939616 0.27293765545 -0.89197134972
0.70492815971 0.6944334507 0.14312404394
0.84917056561 0.45702385902 0.26438081264
0.68927681446 0.5972263217 0.410138309
0.46701207757 0.84262222052 0.26755535603
0.49667054415 0.71167463064 0.49672049284
0.59691286087 0.49701869488 0.62964707613
-0.90775465965 -0.016608539969 0.41808274388
-0.47414201498 0.29001533985 -0.83120942116
-0.24195455015 -0.34309655428 0.90737742186
-0.10776501149 -0.32346320152 0.94006556273
-0.16356709599 -0.23641952872 0.9577614665
-0.04418002069 -0.23384544253 0.97126102448
0.014601238072 -0.3256161809 0.94510710239
0.073235824704 -0.2185524106 0.97296786308
0.0033487544861 -0.14336341619 0.98961466551
-0.81338101625 -0.19452607632 0.54835253954
-0.80008745193 0.074905924499 0.59500300884
-0.7012270689 -0.15725085139 0.69477909803
-0.73455119133 0.3786881566 0.56299269199
-0.66201996803 0.17731279135 0.72808945179
-0.62715142965 -0.048999376595 0.77655541897
-0.72791111469 0.57601010799 0.37142470479
0.18577638268 -0.73932147026 0.6473325491
0.40395867825 -0.71998518705 0.56427586079
0.24860757589 -0.87274360657 0.41966038942
-0.029584681615 -0.86058115959 0.50793647766
-0.728974998 -0.58495056629 0.35481885076
0.71956342459 0.12006692588 0.68349283934
-0.56402212381 -0.65086096525 0.50794070959
-0.74436205626 -0.40811011195 0.52836799622
-0.60262805223 -0.4611338973 0.64997553825
-0.55970048904 0.65119677782 0.51236402988
-0.58802860975 0.47698792815 0.65236467123
-0.50171136856 0.81910300255 0.276519835
-0.57568621635 0.36469724774 0.73157185316
0.64761519432 0.30422580242 0.69860863686
0.54916024208 0.18383525312 0.81544935703
0.54015082121 0.023085689172 0.8412527442
0.19814833999 0.69387000799 0.6920107007
0.40250489116 0.014769868925 0.91524243355
-0.18769112229 -0.14584973454 0.97133004665
-0.26636752486 -0.096456669271 0.95883613825
-0.36679250002 -0.012761517428 0.93016678095
0.39402705431 0.66419148445 0.63503682613
0.30061393976 0.82242447138 0.4811886251
-0.66714644432 -0.31103307009 0.67511361837
-0.31625935435 0.56544208527 0.7616968751
-0.20398122072 0.70647227764 0.6769310832
-0.43232855201 0.63217556477 0.64273834229
-0.33511072397 0.76847410202 0.54468005896
0.72525423765 -0.59012204409 0.35363778472
-0.32849472761 -0.77562713623 0.53847360611
-0.32217520475 -0.56898361444 0.75661218166
-0.15227605402 -0.58426886797 0.7972214818
-0.26112830639 -0.47114726901 0.84249222279
-0.13767810166 -0.44058573246 0.88694542646
-0.0053119510412 -0.70456260443 0.70959663391
-0.18801689148 -0.7195160985 0.66831505299
0.0048361136578 -0.5673841238 0.82325714827
0.51500022411 -0.15591156483 0.84272265434
0.63485735655 -0.082235239446 0.76825875044
0.60437947512 -0.25894850492 0.75271248817
0.46452447772 -0.32296928763 0.82418692112
0.72096556425 -0.41374403238 0.55548739433
0.59007519484 -0.63675564528 0.49618962407
0.37327155471 -0.28829798102 0.88160353899
0.16470819712 -0.57841688395 0.79890340567
-0.43433010578 -0.63534331322 0.63848179579
0.15002779663 0.94364082813 0.29426673055
-0.035819105804 0.877191782 0.47751951218
-0.049439247698 0.96054691076 0.27326840162
-0.24792157114 0.88433331251 0.39561834931
-0.26259896159 0.95380413532 0.14429304004
0.26366978884 -0.45426955819 0.85058021545
0.14156767726 -0.44406875968 0.88471066952
0.20351579785 -0.34466636181 0.91621482372
0.33585107327 -0.081659264863 0.9382327199
0.43987351656 -0.075732149184 0.89485102892
0.36200037599 -0.16961960495 0.91653877497
-0.4666364789 -0.50144153833 0.72855389118
-0.39942312241 -0.43344405293 0.8076454401
-0.52410900593 -0.35615578294 0.77273732424
-0.46909463406 0.5092510581 0.72158777714
-0.43978220224 0.42094400525 0.79327738285
-0.52277445793 0.28082424402 0.80482542515
0.058824084699 0.64427542686 0.76245868206
-0.092979490757 0.64812368155 0.75575774908
-0.0043019587174 0.73038482666 0.68288993835
-0.41814211011 0.32297879457 0.84902715683
-0.33389765024 0.42572399974 0.84092479944
0.21922314167 0.77555543184 0.59197670221
0.071324624121 0.79653674364 0.60022425652
0.13023121655 0.85226470232 0.50571799278
-0.12157026678 0.79940319061 0.58801037073
-0.17967152596 0.56526273489 0.80498087406
0.25322842598 0.95751851797 -0.13690957427
0.47590726614 0.87947583199 0.016210695729
0.26079955697 0.95943027735 0.11013905704
-0.25324851274 -0.95673084259 0.14235799015
-0.2536021769 -0.88926297426 0.3811545372
-0.027880685404 -0.96216511726 0.27071544528
-0.23783493042 0.4793176949 0.84488368034
-0.12763634324 0.46925938129 0.87381976843
0.17916691303 -0.12301447242 0.97607642412
0.18973577023 -0.2222237438 0.95631682873
0.2644071281 -0.16278652847 0.95054507256
0.28592118621 -0.25926229358 0.92245924473
-0.57397657633 -0.20235462487 0.79339784384
-0.50834941864 -0.12475156039 0.8519371748
-0.45568439364 -0.25009408593 0.85377907753
-0.5302863121 0.011812569574 0.84747177362
-0.53597635031 0.15819351375 0.82923179865
0.30924612284 -0.30384039879 -0.90119808912
0.41291677952 -0.42075917125 -0.807120502
0.25918006897 -0.45695221424 -0.85072082281
0.10768357664 -0.06579375267 0.99200534821
0.093590974808 -0.13813813031 0.98592084646
0.03790153563 -0.076595284045 0.99633967876
-0.46370020509 0.11976005882 0.87772804499
-0.46729117632 0.22938971221 0.85381650925
-0.045805439353 -0.39345452189 0.9181420207
0.064835987985 -0.39700642228 0.91539382935
0.0049878782593 -0.44580289721 0.89511305094
-0.053851719946 -0.49604797363 0.86660033464
0.061577945948 -0.49616920948 0.86601227522
0.113460958 -0.33643442392 0.93460345268
-0.51066315174 0.85949641466 0.019600499421
-0.69907271862 0.70306503773 0.13108806312
-0.68502604961 0.71746945381 -0.12723307312
0.2536534667 0.43703246117 -0.86235582829
-0.45394977927 -0.043497730047 0.88996356726
-0.44040313363 0.037994477898 0.89701074362
-0.23233288527 -0.42988085747 -0.87243396044
-0.30398395658 -0.29238277674 -0.9066670537
-0.38202384114 -0.39166739583 -0.83686035872
-0.47759574652 0.48189342022 -0.73457217216
-0.53887867928 0.57277911901 -0.617639184
-0.61761069298 0.42650917172 -0.66083103418
-0.74282610416 0.33649069071 -0.57893246412
-0.61637932062 0.25240406394 -0.74560248852
0.2211535424 0.013017663732 0.97515851259
0.29864940047 -0.033505979925 0.953789711
0.17083230615 -0.049819745123 0.98398631811
0.22774730623 -0.052743405104 0.97229158878
0.05290902406 -0.27655622363 0.95955407619
0.13735982776 -0.27956545353 0.95023781061
-0.32976195216 -0.38464650512 0.86216670275
0.25617873669 -0.097095273435 0.96167367697
-0.57502090931 -0.39993140101 0.71362954378
-0.6171284914 -0.26881307364 0.73930668831
-0.42506492138 -0.3450101316 0.83682668209
0.28738170862 -0.3538158536 0.88993805647

CELLS 524 2096
3 0 1 2
3 1 3 2
3 2 3 4
3 5 6 7
3 8 9 10
3 8 11 9
3 10 9 12
3 11 13 14
3 13 15 16
3 17 12 9
3 18 9 11
3 15 19 16
3 19 20 16
3 19 0 20
3 1 19 21
3 1 0 19
3 21 19 15
3 22 23 24
3 25 24 6
3 6 24 26
3 27 28 29
3 30 22 31
3 32 31 33
3 33 31 24
3 24 31 22
3 34 35 36
3 37 38 39
3 38 40 39
3 39 40 41
3 41 40 42
3 43 44 45
3 46 47 48
3 49 50 47
3 47 50 48
3 51 49 15
3 15 49 21
3 48 50 52
3 52 53 54
3 55 8 56
3 57 53 55
3 53 58 55
3 55 58 8
3 51 59 58
3 59 60 58
3 59 13 60
3 58 60 8
3 13 59 15
3 15 59 51
3 8 60 11
3 60 13 11
3 1 44 43
3 48 61 46
3 32 62 61
3 46 61 62
3 62 32 63
3 48 64 61
3 64 65 61
3 64 30 65
3 61 65 32
3 32 65 31
3 31 65 30
3 22 30 66
3 30 64 67
3 52 67 64
3 52 64 48
3 6 68 7
3 68 69 7
3 69 10 12
3 70 71 72
3 71 73 74
3 71 75 73
3 74 73 76
3 75 77 73
3 77 78 73
3 77 79 78
3 73 78 76
3 79 77 80
3 77 81 80
3 77 75 81
3 82 80 83
3 84 85 86
3 86 85 87
3 75 71 85
3 79 88 78
3 88 89 78
3 78 89 76
3 84 83 85
3 83 81 85
3 81 83 80
3 85 81 75
3 76 90 74
3 90 72 74
3 90 38 72
3 74 72 71
3 72 38 37
3 40 38 91
3 92 89 93
3 43 94 1
3 1 94 3
3 3 95 4
3 4 95 96
3 3 97 95
3 97 98 95
3 97 25 98
3 95 98 96
3 3 94 97
3 94 99 97
3 94 43 99
3 25 97 100
3 96 98 6
3 98 25 6
3 2 101 0
3 0 101 102
3 2 103 101
3 103 104 101
3 103 105 104
3 101 104 102
3 4 103 2
3 86 87 106
3 87 107 106
3 87 70 107
3 102 104 108
3 40 109 42
3 109 92 42
3 40 91 109
3 91 110 109
3 91 76 110
3 109 110 92
3 62 45 46
3 46 45 44
3 43 45 99
3 45 111 99
3 45 62 111
3 70 87 71
3 71 87 85
3 76 91 90
3 90 91 38
3 92 110 89
3 89 110 76
3 96 112 4
3 4 112 113
3 112 114 113
3 112 115 114
3 113 114 105
3 115 116 114
3 116 117 114
3 114 117 105
3 18 118 9
3 9 118 17
3 57 119 54
3 119 66 54
3 119 23 66
3 54 66 67
3 120 121 122
3 121 123 122
3 121 124 123
3 122 123 82
3 125 126 123
3 123 126 82
3 18 127 118
3 127 128 118
3 127 129 128
3 118 128 17
3 42 117 41
3 17 128 130
3 131 128 132
3 67 66 30
3 22 66 23
3 57 54 53
3 54 67 52
3 82 126 80
3 4 113 103
3 103 113 105
3 17 133 12
3 27 134 135
3 134 136 135
3 134 137 136
3 135 136 20
3 14 138 11
3 11 138 18
3 20 136 16
3 27 135 28
3 105 139 104
3 104 139 108
3 14 140 138
3 140 141 138
3 140 142 141
3 138 141 18
3 17 130 133
3 130 143 133
3 130 144 143
3 133 143 145
3 144 130 146
3 131 130 128
3 105 147 139
3 147 148 139
3 147 42 148
3 139 148 149
3 41 150 39
3 151 149 92
3 92 148 42
3 83 152 82
3 82 152 122
3 35 153 154
3 153 83 84
3 116 155 117
3 155 41 117
3 41 155 150
3 155 116 156
3 156 116 115
3 122 34 120
3 35 34 153
3 34 152 153
3 34 122 152
3 153 152 83
3 18 141 127
3 129 127 157
3 42 147 117
3 117 147 105
3 158 159 160
3 159 161 160
3 160 161 143
3 102 162 0
3 162 20 0
3 14 163 140
3 164 165 166
3 165 167 166
3 166 167 120
3 137 168 169
3 168 165 169
3 168 170 165
3 169 165 164
3 149 171 172
3 171 173 172
3 171 174 173
3 172 173 108
3 108 173 175
3 28 173 174
3 28 175 173
3 108 175 102
3 102 175 162
3 175 176 162
3 175 28 176
3 162 176 20
3 174 171 177
3 149 172 139
3 172 108 139
3 120 167 121
3 170 168 178
3 134 168 137
3 20 176 135
3 135 176 28
3 140 179 142
3 164 179 169
3 179 163 169
3 179 140 163
3 169 163 137
3 143 161 145
3 144 160 143
3 115 180 156
3 181 182 183
3 182 184 183
3 182 5 184
3 183 184 145
3 7 184 5
3 178 185 186
3 178 27 185
3 186 185 187
3 188 189 151
3 188 190 189
3 151 189 149
3 191 192 193
3 191 164 192
3 158 194 195
3 194 146 195
3 194 144 146
3 195 146 196
3 196 146 131
3 131 146 130
3 37 197 198
3 197 199 198
3 197 150 199
3 198 199 159
3 93 151 92
3 148 92 149
3 107 200 106
3 196 200 195
3 200 201 195
3 200 107 201
3 195 201 158
3 201 107 70
3 27 178 134
3 134 178 168
3 150 197 39
3 39 197 37
3 156 202 155
3 155 202 150
3 150 202 203
3 202 204 203
3 202 156 204
3 203 204 181
3 182 181 180
3 204 180 181
3 204 156 180
3 182 180 5
3 159 205 161
3 161 205 183
3 181 205 203
3 205 199 203
3 205 159 199
3 203 199 150
3 198 159 206
3 166 192 164
3 149 189 171
3 171 189 190
3 164 191 179
3 179 191 142
3 181 183 205
3 161 183 145
3 144 194 160
3 160 194 158
3 96 207 208
3 207 209 208
3 207 5 209
3 208 209 115
3 5 207 6
3 6 207 96
3 16 210 13
3 13 210 14
3 14 210 211
3 210 212 211
3 210 16 212
3 211 212 137
3 158 213 206
3 213 214 206
3 213 70 214
3 206 214 37
3 215 216 217
3 216 218 217
3 216 187 218
3 217 218 190
3 129 219 132
3 219 220 132
3 219 221 220
3 132 220 222
3 220 221 35
3 222 223 131
3 131 223 196
3 129 132 128
3 131 132 222
3 44 224 46
3 224 47 46
3 44 225 224
3 225 226 224
3 225 21 226
3 224 226 47
3 47 226 49
3 49 226 21
3 21 225 1
3 225 44 1
3 215 227 228
3 227 229 228
3 227 79 229
3 228 229 126
3 79 227 88
3 37 214 72
3 72 214 70
3 106 230 86
3 106 231 230
3 231 223 230
3 231 196 223
3 230 223 222
3 96 208 112
3 112 208 115
3 124 232 233
3 232 234 233
3 234 232 235
3 186 233 236
3 215 228 216
3 125 228 126
3 125 216 228
3 126 229 80
3 80 229 79
3 137 212 136
3 136 212 16
3 14 211 163
3 163 211 137
3 170 235 165
3 165 235 167
3 167 232 121
3 121 232 124
3 115 209 180
3 180 209 5
3 186 236 178
3 178 236 170
3 170 236 235
3 236 234 235
3 234 236 233
3 167 235 232
3 233 186 237
3 188 217 190
3 221 219 193
3 196 231 200
3 200 231 106
3 70 213 201
3 201 213 158
3 158 206 159
3 198 206 37
3 145 238 239
3 238 240 239
3 238 7 240
3 239 240 12
3 25 241 24
3 24 241 33
3 86 154 84
3 84 154 153
3 222 242 243
3 242 154 243
3 242 35 154
3 243 154 86
3 51 244 49
3 49 244 50
3 50 245 52
3 245 53 52
3 50 244 245
3 244 246 245
3 244 51 246
3 245 246 53
3 10 56 8
3 55 56 57
3 53 246 58
3 246 51 58
3 23 26 24
3 26 68 6
3 23 247 26
3 247 248 26
3 247 249 248
3 26 248 68
3 68 248 69
3 69 248 249
3 249 250 69
3 250 10 69
3 10 250 56
3 250 251 56
3 250 249 251
3 56 251 57
3 12 240 69
3 69 240 7
3 88 252 89
3 252 93 89
3 93 252 253
3 252 254 255
3 252 88 254
3 255 254 215
3 25 100 241
3 100 63 241
3 100 111 63
3 241 63 33
3 33 63 32
3 63 111 62
3 111 100 99
3 99 100 97
3 124 256 123
3 256 125 123
3 187 257 237
3 257 256 237
3 257 125 256
3 237 256 124
3 142 157 141
3 141 157 127
3 249 247 119
3 119 247 23
3 57 251 119
3 119 251 249
3 145 239 133
3 133 239 12
3 221 36 35
3 34 36 120
3 120 258 166
3 166 258 192
3 7 238 184
3 184 238 145
3 215 259 255
3 259 253 255
3 259 188 253
3 255 253 252
3 93 253 151
3 253 188 151
3 142 260 157
3 260 261 157
3 260 193 261
3 157 261 129
3 193 260 191
3 191 260 142
3 192 262 193
3 193 262 221
3 185 263 187
3 187 263 218
3 174 29 28
3 29 185 27
3 221 262 36
3 262 258 36
3 262 192 258
3 36 258 120
3 218 177 190
3 190 177 171
3 174 177 29
3 177 263 29
3 177 218 263
3 29 263 185
3 35 242 220
3 220 242 222
3 215 254 227
3 227 254 88
3 222 243 230
3 230 243 86
3 125 257 216
3 216 257 187
3 187 237 186
3 233 237 124
3 188 259 217
3 217 259 215
3 129 261 219
3 219 261 193

CELL_TYPES 524
5
5
5
5
5
5
5
5
5
5
5
5
5
5
5
5
5
5
5
5
5
5
5
5
5
5
5
5
5
5
5
5
5
5
5
5
5
5
5
5
5
5
5
5
5
5
5
5
5
5
5
5
5
5
5
5
5
5
5
5
5
5
5
5
5
5
5
5
5
5
5
5
5
5
5
5
5
5
5
5
5
5
5
5
5
5
5
5
5
5
5
5
5
5
5
5
5
5
5
5
5
5
5
5
5
5
5
5
5
5
5
5
5
5
5
5
5
5
5
5
5
5
5
5
5
5
5
5
5
5
5
5
5
5
5
5
5
5
5
5
5
5
5
5
5
5
5
5
5
5
5
5
5
5
5
5
5
5
5
5
5
5
5
5
5
5
5
5
5
5
5
5
5
5
5
5
5
5
5
5
5
5
5
5
5
5
5
5
5
5
5
5
5
5
5
5
5
5
5
5
5
5
5
5
5
5
5
5
5
5
5
5
5
5
5
5
5
5
5
5
5
5
5
5
5
5
5
5
5
5
5
5
5
5
5
5
5
5
5
5
5
5
5
5
5
5
5
5
5
5
5
5
5
5
5
5
5
5
5
5
5
5
5
5
5
5
5
5
5
5
5
5
5
5
5
5
5
5
5
5
5
5
5
5
5
5
5
5
5
5
5
5
5
5
5
5
5
5
5
5
5
5
5
5
5
5
5
5
5
5
5
5
5
5
5
5
5
5
5
5
5
5
5
5
5
5
5
5
5
5
5
5
5
5
5
5
5
5
5
5
5
5
5
5
5
5
5
5
5
5
5
5
5
5
5
5
5
5
5
5
5
5
5
5
5
5
5
5
5
5
5
5
5
5
5
5
5
5
5
5
5
5
5
5
5
5
5
5
5
5
5
5
5
5
5
5
5
5
5
5
5
5
5
5
5
5
5
5
5
5
5
5
5
5
5
5
5
5
5
5
5
5
5
5
5
5
5
5
5
5
5
5
5
5
5
5
5
5
5
5
5
5
5
5
5
5
5
5
5
5
5
5
5
5
5
5
5
5
5
5
5
5
5
5
5
5
5
5
5
5
5
5
5
5
5
5
5
5
5
5
5
5
5
5
5
5
5
5
5
5
5
5
5
5
5
5
5
5
5
5
5
5
5
5
5
5
5
5
5
5
5
5
5
5
5
5
5
5
5
5
5
5
5
5

CELL_DATA 524
SCALARS cell_data_0 double
LOOKUP_TABLE default
1.20436279327e-06
7.78155285933e-07
5.13925041654e-07
1.64747864721e-06
3.5494134008e-07
1.28922538565e-06
7.93310760641e-07
2.18585869087e-06
1.12280292486e-06
1.44249497095e-06
1.03667310216e-06
6.31037886537e-07
1.3084115773e-06
1.34917102794e-06
1.45534611012e-06
1.60709399482e-06
3.94486641027e-07
1.00108312011e-06
5.11230195365e-07
2.07935560473e-06
7.44061648136e-07
9.29218804324e-08
3.85838454204e-07
9.1325690186e-08
1.24027484238e-07
1.45293167014e-06
8.98066266692e-07
1.97328078208e-07
9.00241031535e-07
1.25032515049e-06
1.219480157e-06
3.72742521845e-08
3.15927128348e-07
3.26666648106e-07
1.14591630116e-06
1.7426119006e-06
1.91442629623e-07
7.52700770501e-07
2.59927186203e-07
1.62591406608e-06
6.28494500431e-07
4.76034071935e-07
1.00216277447e-06
4.98120741238e-07
1.80884692197e-07
5.36282883757e-07
1.05484474867e-06
5.46509518752e-07
3.8316283026e-07
2.46636788614e-07
1.61203679452e-06
4.15328870776e-07
8.68700528538e-07
1.5064933186e-06
5.19921713993e-07
9.43800929629e-07
2.11304406978e-07
7.72847300613e-07
5.30337471405e-07
8.82730796234e-08
2.04110296156e-07
5.86689254234e-08
1.00609007827e-06
9.85336603819e-07
3.80131555631e-07
1.13999176706e-06
9.09834510902e-07
5.55139119364e-07
8.41592363597e-07
3.23080200211e-07
6.39246976496e-07
4.5584056787e-07
5.78473463519e-07
1.75363720244e-07
1.18904962352e-07
3.05478548635e-07
1.113184257e-06
3.51465320642e-07
5.65143370423e-07
4.03216520906e-07
5.60273005578e-07
3.26005163081e-07
6.54751940891e-07
4.71579993924e-08
2.46517263346e-08
4.34137210026e-07
1.6334832451e-06
1.5082476641e-06
8.77791849624e-07
8.56607738693e-07
3.01262414337e-07
4.25649631375e-07
3.13057265666e-07
1.53095917926e-07
4.14129499853e-07
1.12993044283e-06
1.47147684549e-06
1.22340786322e-06
5.75875987936e-07
8.52127022483e-07
4.21500879256e-07
3.16796588418e-07
8.51298473483e-07
2.19617292378e-06
1.39115739044e-06
6.22990258245e-07
4.52754977446e-07
3.81149758133e-07
5.55667135704e-07
2.26698454136e-06
1.2609302668e-06
7.786609856e-07
5.02630694014e-07
1.11499840252e-06
5.29130831293e-07
6.70442540961e-07
3.19914020075e-07
1.18671390913e-06
1.11714572675e-06
7.22244844658e-07
7.56155741242e-07
7.93626801337e-08
4.98452792268e-07
4.89488310338e-07
3.29751954948e-07
8.95254933792e-08
2.08089083384e-08
3.74134188068e-08
1.19237373335e-06
8.67119988858e-07
7.69085809491e-07
4.51646318406e-07
5.89011766869e-07
5.5922001016e-08
5.38700437748e-07
2.51929938021e-07
1.09115809972e-07
7.06990292197e-07
3.12677556836e-07
1.48560238278e-06
5.81177369215e-07
6.00236189412e-07
3.21633392474e-07
9.19129910174e-09
6.1677267914e-07
3.99707701808e-07
1.01814631055e-06
6.03987659797e-07
2.63510098952e-07
3.17614800585e-07
6.48943568433e-07
4.89242797373e-07
6.64671045808e-08
7.15723180807e-08
5.21433600376e-07
5.36314692677e-07
4.86488205875e-07
1.06505648858e-06
4.02887639996e-07
3.86879939129e-07
9.58090096225e-08
1.06356257281e-06
1.11547100458e-06
5.71939037302e-07
3.83719107533e-08
3.41468166757e-07
4.15280677838e-07
9.07888995627e-07
1.13487200232e-06
9.56750487774e-07
7.64251899871e-08
7.23742063823e-07
2.439288774e-07
5.55421331671e-07
6.52778151418e-07
6.77528251872e-07
2.66803278412e-07
8.72221339782e-07
1.01913316662e-06
8.72344890827e-07
1.74546948819e-06
1.76335328204e-06
2.65441038296e-09
1.15239243991e-06
7.88162705207e-07
1.06081823727e-06
6.02392248807e-07
6.13787201059e-07
1.51167318981e-06
1.25367520318e-06
1.0011370851e-06
1.50353456765e-07
8.9664367691e-07
9.13364611429e-07
3.82093355898e-07
2.03093216081e-07
3.12934314101e-07
2.77446702299e-07
1.19532478024e-06
8.58099177574e-07
2.81870719821e-07
6.10057881959e-09
2.75810704911e-08
2.56642923264e-07
9.44812141977e-07
7.33787481645e-07
1.38496994201e-07
3.00046714534e-07
1.35593044622e-07
3.28763373462e-07
7.96439757486e-07
4.06656088943e-07
9.47948040957e-08
2.44652560387e-07
4.74276265041e-07
4.66795844197e-07
4.34008794288e-08
1.2902629902e-07
7.29179313146e-07
9.90203508545e-07
2.29161507936e-07
6.49447439502e-07
4.62915566903e-07
1.69175977005e-07
5.27118514095e-07
8.98184712755e-08
2.39841025105e-07
1.57723980917e-07
2.6226833665e-07
6.57267835105e-08
4.19685530477e-07
3.00655004733e-08
9.79626114882e-09
7.25151010752e-07
1.58341411895e-07
2.62301305858e-07
6.09599670763e-07
1.37557107169e-07
3.10964973459e-07
3.87404393004e-07
2.7487641515e-07
7.716042572e-07
2.13856740432e-07
6.76537424031e-07
1.19034102161e-06
8.30928189371e-09
1.23715512298e-06
8.57147423441e-07
5.23663190072e-07
5.4670436476e-07
4.94657936012e-07
1.41305003059e-06
1.74213309208e-08
1.03871722647e-06
2.3527170221e-07
4.54891724613e-07
5.57320302391e-07
5.15784280507e-07
1.31840701891e-07
6.06152623979e-07
2.57682575319e-07
9.03420288714e-08
4.75152457905e-07
3.15707114388e-08
8.5325710127e-07
7.68595700705e-07
1.34834488301e-07
5.34454854359e-07
2.85649257563e-07
5.13458654266e-07
1.93318427836e-07
1.46899840973e-07
7.50980979658e-08
2.2841790533e-07
8.00209666899e-08
2.23168773459e-07
3.01741339013e-09
3.00550428032e-08
1.09469510909e-06
2.00290173899e-07
5.0973420434e-08
1.48553749737e-07
2.8922693917e-07
1.0435816326e-07
9.66979345784e-07
3.89052306036e-07
2.63723325213e-08
1.37498548236e-07
1.6600004829e-08
4.1556523009e-07
5.20354808276e-07
1.38034261935e-07
6.51633870023e-07
8.20113780586e-07
1.10012599588e-06
1.82456040195e-07
8.12052467875e-08
3.50854863652e-08
9.02104197293e-08
1.66995194215e-07
7.81731188317e-08
5.58856679165e-08
2.23044162047e-08
4.96980698295e-08
1.52613948614e-07
5.11758281613e-07
1.97186196475e-07
3.05956658079e-07
2.42536427816e-07
5.7831064101e-08
3.81175777085e-07
1.70736067313e-07
1.09851318771e-07
4.44824978417e-07
6.78277868527e-09
3.3649583985e-07
3.5903665458e-07
1.23099017123e-07
9.04977038393e-08
3.32429275136e-07
3.39159559805e-07
5.98768363174e-07
7.27272357781e-07
4.11387435689e-07
1.11057789003e-07
1.77221109437e-06
4.33742376032e-07
6.68968666091e-07
1.39340691368e-07
6.59848406638e-07
4.06814970396e-07
8.23192715283e-07
1.01718313937e-07
2.2394003841e-07
2.88167104258e-07
6.4567028923e-08
2.02740042545e-07
6.34257637755e-08
4.88639310423e-08
6.64973886426e-07
6.99992006743e-08
1.68674526876e-07
1.60193054129e-07
2.00491767756e-07
2.52296593166e-07
3.27355002538e-07
5.45889294949e-07
1.92337498675e-07
2.9240412342e-07
4.21316839074e-07
3.28884269756e-07
2.82255880984e-07
1.04404203466e-07
7.19524832417e-08
1.28786475705e-07
8.18754238503e-07
6.81950231376e-07
2.78772271604e-07
5.08120782737e-07
1.73837256427e-06
7.91431935939e-08
2.20038505528e-07
3.06965754986e-07
3.38784084507e-07
4.69639794382e-07
7.07050729738e-07
9.89284234643e-08
2.00366000591e-07
4.15990597567e-08
4.66120783624e-08
3.72696908383e-08
1.21852656497e-07
2.52522227196e-07
2.51699971969e-07
3.15243056983e-08
4.07802636469e-07
3.57808798653e-08
2.21490135125e-07
4.98099922869e-07
5.4968471019e-07
6.39624116231e-07
9.68135879944e-08
1.826543868e-07
2.0577090575e-07
4.71943651021e-08
9.29203461936e-07
9.75386949332e-07
1.02194748184e-07
1.50443334601e-07
4.37915319589e-07
2.05980429594e-07
2.01237411914e-07
3.03444749191e-07
1.56286063549e-07
4.45513392682e-07
1.07436575613e-07
4.80719148789e-07
3.73578215773e-09
2.20538643809e-09
2.46374600023e-07
3.38315867054e-07
3.92062054478e-07
5.4572474483e-08
7.21734063851e-09
3.41936008932e-07
5.96444206943e-08
2.04767190437e-08
4.942036683e-08
1.43256677478e-07
8.61968661417e-07
4.28402070216e-07
4.14037431508e-07
8.86556819561e-08
8.75917784667e-07
5.53650750785e-07
9.26111160165e-07
1.57189004329e-08
6.76454472311e-07
5.59125356848e-07
7.53247681529e-08
5.22973395321e-07
4.27906933481e-07
2.17033352877e-08
2.7716609374e-07
7.60042952141e-07
2.14510584712e-07
1.46090732886e-07
1.36080117016e-07
1.01350484392e-07
2.51321005499e-07
1.18571162062e-07
2.73584660916e-07
4.56988434705e-07
7.89790419799e-07
9.99660856118e-07
2.4684459608e-08
2.75677682938e-07
5.94622670514e-07
2.66949150504e-08
4.40545344501e-07
2.75384043516e-08
1.47184601731e-07
3.28439757299e-07
1.09386949308e-07
3.04648990529e-08
1.81556216701e-07
2.61117121778e-07
4.44435789484e-08
1.11507328129e-07
7.06085362929e-07
1.52069128525e-07
1.55570574776e-07
4.16673218483e-08
8.95337447335e-08
8.43123479341e-07
1.5567458659e-07
8.1969143808e-09
8.51535357134e-07
2.43199769397e-07
2.33708756262e-07
1.75290274134e-07
9.62812920446e-07
2.33524702628e-07
2.39477078368e-07
3.09005884486e-07
3.69863666323e-07
2.91272058042e-07
3.19692536311e-08
5.29980060365e-07
4.09446209132e-07
1.10064646134e-07
6.25851056197e-07
3.15622163908e-07
4.5636775166e-07
6.70068321408e-07
1.01356851449e-06
1.79919528485e-06
4.61183768225e-07
1.44670745992e-07
2.64011823285e-07
7.21393483885e-07
1.63893375638e-07
1.3960653201e-08
1.13565659236e-07
7.74075165192e-08
6.28103247035e-07
5.26015819081e-07
2.76004765801e-07
2.79272884402e-07
2.55941101751e-07
5.83799261461e-08
4.05381750186e-08
6.48560353918e-08
1.66839738156e-07
1.18744017561e-08
1.29425074097e-07
1.11570367544e-07
3.94460846584e-07
1.33659702768e-07
8.26316240032e-07
4.166942472e-07
7.20664143505e-08
2.8877570261e-07
4.2634257106e-07
4.92524900104e-07
1.46003664195e-06
9.50375805207e-07
1.58555188328e-07
1.41280637675e-07
1.10527777354e-07
3.64668024631e-07
3.06061702514e-07
1.29995364857e-07
1.09110743647e-07
1.08521090278e-07
1.01010572577e-07
8.33154051332e-08
3.799686263e-07
7.4380533876e-08
5.73175253948e-08
1.13864022641e-07
2.06464682445e-07
8.37363059964e-08
1.76104412899e-07

