# vtk DataFile Version 3.0
File Name: Molecule/special/special_0-s5.vtk
ASCII
DATASET UNSTRUCTURED_GRID
FIELD FieldData 1
TIME 1 1 double
0.0
POINTS 69 double
0.85065734386 -0.52572369576 -3.3909978811e-05
0.80891126394 -0.30894654989 -0.50001394749
0.99990510941 -1.8948830984e-06 -5.5851523939e-06
0.80974382162 0.30850622058 -0.49908521771
0.52459955215 0.00099126051646 -0.85124754906
0.85065919161 0.52571552992 3.1143041269e-05
0.50026708841 0.80927920341 -0.30773586035
0.35388588905 0.51625174284 -0.77992373705
0.0004843006609 0.84975636005 -0.52703630924
0.50013554096 0.80908977985 0.30843186378
-3.6444305351e-08 0.99990278482 -6.470415974e-05
3.4471195249e-05 0.85002410412 0.52663528919
-0.50014191866 0.8090993166 0.30845874548
-0.50020217896 0.80929887295 -0.30779147148
-0.85066372156 0.52570813894 1.927669291e-05
-0.34410232306 0.5129404664 0.78582620621
-0.80977743864 0.30854201317 0.49900773168
-0.54319310188 0.014909789898 0.83769512177
0.32677251101 -0.51938360929 0.7889996171
-1.7607046175e-05 -0.85004216433 0.52660489082
0.50036412477 -0.8090736866 0.30827233195
0.81911724806 -0.30812469125 0.48021706939
0.30950817466 -0.50091648102 -0.80824661255
5.3498974012e-05 -0.069644540548 -0.99548840523
-0.30995330215 -0.50170332193 -0.80763655901
3.2436884112e-07 -0.85071456432 -0.52562940121
-0.52414941788 0.00070646870881 -0.85148978233
0.80953013897 0.30864730477 0.4992313087
0.34363639355 0.51251715422 0.78685128689
0.5294175148 0.017409125343 0.84589713812
-0.80890518427 -0.30893352628 -0.50003343821
-0.80972898006 0.30848959088 -0.4991184473
-0.99990689754 -2.1476422262e-05 -7.6555934356e-06
-0.85065418482 -0.52572846413 -3.2392141293e-05
-0.35381659865 0.51621186733 -0.77997362614
-0.49994844198 -0.80895930529 -0.30891889334
-0.50025868416 -0.8090775013 0.30848914385
3.9830074456e-06 -0.99989789724 7.55120127e-05
-0.81915634871 -0.30832120776 0.47992059588
-0.32735180855 -0.51880627871 0.78953355551
0.49995404482 -0.80893611908 -0.30897244811
0.17645129561 0.27460461855 -0.94421440363
-0.1763702333 0.27458614111 -0.94423604012
4.6615929023e-05 0.52688628435 -0.84995871782
0.00029332123813 0.52650612593 0.85026574135
-0.15207135677 0.2962885201 0.94253832102
0.16335001588 0.26683673263 0.94983786345
6.864315219e-05 -0.52590250969 0.85056656599
-0.17631269991 -0.28991383314 0.93960922956
0.17596682906 -0.29040136933 0.93932539225
-0.094110913575 0.13349427283 0.98661446571
0.017703667283 0.0076950816438 0.99948477745
-0.096029169858 -0.12578907609 0.98723584414
-0.34452959895 0.13855485618 0.92826914787
-0.25421112776 0.00070275919279 0.96633023024
-0.34878820181 -0.13126981258 0.92754107714
0.25929111242 0.0049178898335 0.96549415588
-0.45870271325 -0.267834723 0.8473905921
-0.00048229441745 -0.27125179768 0.96250867844
0.098100624979 -0.13045114279 0.98654061556
0.34064656496 -0.14146076143 0.92932420969
0.45596668124 -0.2674665451 0.84905719757
0.69577842951 -0.15910324454 0.70018857718
0.59889310598 -0.42986953259 0.67551869154
-0.5989022851 -0.43002083898 0.6754283905
-0.69792401791 -0.15960153937 0.69809740782
0.085626669228 0.11230612546 -0.98983484507
-0.0854261145 0.11230228841 -0.98986285925
3.2197178371e-05 0.26670792699 -0.96375739574

CELLS 134 536
3 0 1 2
3 1 3 2
3 1 4 3
3 2 3 5
3 5 3 6
3 3 7 6
3 3 4 7
3 6 7 8
3 5 6 9
3 6 10 9
3 6 8 10
3 9 10 11
3 11 10 12
3 10 13 12
3 10 8 13
3 12 13 14
3 11 12 15
3 12 16 15
3 12 14 16
3 15 16 17
3 18 19 20
3 21 20 0
3 4 22 23
3 22 24 23
3 22 25 24
3 23 24 26
3 0 2 21
3 2 27 21
3 2 5 27
3 5 9 27
3 9 28 27
3 9 11 28
3 27 28 29
3 26 30 31
3 30 32 31
3 30 33 32
3 31 32 14
3 8 34 13
3 34 31 13
3 34 26 31
3 13 31 14
3 33 35 36
3 35 37 36
3 35 25 37
3 36 37 19
3 33 36 38
3 36 19 39
3 16 32 38
3 16 14 32
3 38 32 33
3 26 24 30
3 24 35 30
3 24 25 35
3 30 35 33
3 25 40 37
3 40 20 37
3 40 0 20
3 37 20 19
3 4 1 22
3 1 40 22
3 1 0 40
3 22 40 25
3 4 41 7
3 42 34 43
3 41 43 7
3 34 42 26
3 7 43 8
3 43 34 8
3 15 44 11
3 11 44 28
3 15 45 44
3 45 46 44
3 44 46 28
3 28 46 29
3 39 47 48
3 47 18 49
3 18 47 19
3 19 47 39
3 45 50 46
3 50 51 46
3 51 50 52
3 50 53 54
3 50 45 53
3 54 53 55
3 17 53 15
3 53 45 15
3 51 56 46
3 46 56 29
3 39 48 57
3 17 55 53
3 55 52 54
3 55 48 52
3 54 52 50
3 49 58 47
3 47 58 48
3 48 58 52
3 58 59 52
3 58 49 59
3 52 59 51
3 51 59 56
3 59 60 56
3 59 49 60
3 56 60 29
3 60 49 61
3 29 61 62
3 61 63 62
3 61 18 63
3 62 63 21
3 21 63 20
3 20 63 18
3 29 62 27
3 27 62 21
3 39 64 36
3 36 64 38
3 38 64 65
3 64 57 65
3 64 39 57
3 65 57 17
3 38 65 16
3 16 65 17
3 23 66 4
3 66 41 4
3 23 67 66
3 67 68 66
3 67 42 68
3 66 68 41
3 41 68 43
3 43 68 42
3 42 67 26
3 26 67 23
3 17 57 55
3 55 57 48
3 18 61 49
3 60 61 29

CELL_TYPES 134
5
5
5
5
5
5
5
5
5
5
5
5
5
5
5
5
5
5
5
5
5
5
5
5
5
5
5
5
5
5
5
5
5
5
5
5
5
5
5
5
5
5
5
5
5
5
5
5
5
5
5
5
5
5
5
5
5
5
5
5
5
5
5
5
5
5
5
5
5
5
5
5
5
5
5
5
5
5
5
5
5
5
5
5
5
5
5
5
5
5
5
5
5
5
5
5
5
5
5
5
5
5
5
5
5
5
5
5
5
5
5
5
5
5
5
5
5
5
5
5
5
5
5
5
5
5
5
5
5
5
5
5
5
5

CELL_DATA 134
SCALARS cell_data_0 double
LOOKUP_TABLE default
2.51794703041e-06
8.39188497788e-07
8.92155353067e-06
7.25496245452e-07
3.99420997421e-06
9.74097084738e-06
1.28450824716e-05
1.13664085194e-08
6.66247460802e-08
3.26719213258e-06
4.26486139123e-07
2.43163506122e-06
4.02635561995e-06
4.20550157374e-06
9.46237750745e-08
6.72298709262e-07
5.29855969604e-06
1.13152682379e-05
5.42880880738e-06
4.66222210663e-05
9.05621813222e-06
6.27196767497e-06
1.87370052194e-05
2.96229326332e-05
5.16567575198e-06
2.13374096413e-05
6.42971610871e-06
1.12384990763e-05
2.97571572402e-06
4.7284944677e-06
5.57992595727e-06
1.96863316378e-06
3.06797055128e-05
8.80581886922e-06
8.45232664667e-07
2.739514684e-06
7.61632480898e-07
6.11165559707e-08
9.98065225927e-06
1.3785138269e-05
3.67449956516e-06
2.08792123856e-06
2.08903830765e-07
8.21700310376e-06
6.89266112323e-06
6.1829749614e-06
7.40561459823e-06
1.0890068942e-05
2.93907264748e-06
5.98799223196e-06
4.13805815521e-07
2.43163211719e-05
1.4407573736e-05
6.49550897692e-06
8.17505857488e-06
3.94647356657e-07
1.79321666328e-06
7.24549236925e-06
2.13647046097e-07
2.4098270649e-05
6.4593023447e-06
1.40871588324e-05
4.85482909031e-06
2.78781942993e-06
2.94551790356e-06
4.18404021123e-06
4.23806196678e-06
4.08244401499e-06
1.31053176207e-05
1.47807965182e-05
7.59011322832e-06
2.14613926553e-05
4.11700839358e-05
4.64783577757e-05
2.37395650725e-06
6.51466240311e-07
5.73440740083e-06
6.51484971917e-06
1.08612471871e-05
2.36422671233e-06
3.86218382874e-06
1.05137631951e-05
7.83614212121e-06
4.17896195757e-06
1.66849664444e-05
8.58995634366e-06
2.4516853342e-05
6.42848097795e-06
2.82796742576e-07
5.32441790608e-09
3.62985777134e-06
4.69478538165e-06
2.82091587003e-05
4.01910366274e-06
5.15085215057e-06
7.01254762599e-06
3.7647554363e-06
2.70864405658e-06
1.55920067567e-05
7.2066329356e-06
8.56238612492e-06
1.18105465441e-05
2.34558045349e-05
9.88408648781e-06
1.14234619334e-06
4.51915513571e-06
1.75641905964e-06
1.38763131109e-06
3.0015563492e-06
8.42686130597e-07
1.97990743267e-05
1.44945227641e-05
1.20271753678e-06
3.43569064804e-06
1.89271928402e-06
4.25816224103e-06
1.48399776906e-06
7.66777681119e-08
1.47319678195e-05
1.89031397029e-05
2.57488277481e-05
2.46469931132e-05
5.9973138699e-06
1.35687003507e-05
4.40495070152e-06
4.43038189314e-06
6.58853013664e-06
6.52711077694e-06
2.42354081525e-05
2.497089242e-05
6.6651698037e-06
9.40302164821e-06
1.37813996931e-06
1.68165231237e-06

