# vtk DataFile Version 3.0
File Name: Molecule/special/special_0-s26.vtk
ASCII
DATASET UNSTRUCTURED_GRID
FIELD FieldData 1
TIME 1 1 double
0.0
POINTS 1218 double
0.14321431518 -0.19166560471 -0.97098219395
0.073510803282 -0.32402142882 -0.94319176674
-0.00094457535306 -0.20979489386 -0.97774100304
-0.012609928846 -0.45526441932 -0.89025902748
-0.075114138424 -0.30968782306 -0.94778585434
-0.14486987889 -0.18396884203 -0.97217541933
-0.76321512461 0.098299838603 -0.63859045506
-0.76072412729 -0.1535923779 -0.63059794903
-0.8702455163 -0.034821111709 -0.49138563871
0.26360273361 0.18470387161 -0.94670450687
0.16908490658 0.22788354754 -0.95880842209
0.26552122831 0.31433004141 -0.91139233112
0.85922187567 0.2475823313 -0.44754263759
0.71925652027 0.17456924915 -0.6724358201
0.7028349638 0.37164065242 -0.60564732552
0.59334200621 0.34909066558 -0.72453022003
0.95680189133 0.1485683471 0.24952058494
0.93396162987 -0.0063591236249 0.35683172941
0.98358732462 -0.094995819032 0.15340474248
-0.58024424314 0.1046597138 -0.80765461922
-0.47057136893 0.30145969987 -0.82888525724
-0.42808505893 0.14555136859 -0.89194136858
-0.32776728272 0.24754923582 -0.9116293788
-0.30771893263 0.13084430993 -0.94241929054
0.39016219974 0.65909153223 0.64264053106
0.42792218924 0.55270040035 0.7150657177
0.52195507288 0.56788927317 0.63572829962
-0.44343620539 0.66685855389 0.59855103493
-0.39620792866 0.75924116373 0.5162820816
-0.52198302746 0.68231421709 0.51183027029
-0.022690687329 0.90610289574 0.4222279191
-0.081944450736 0.96567589045 0.24625727534
-0.2095670253 0.91349631548 0.34840917587
-0.29265141487 0.9437559247 0.14598570764
-0.49308803678 0.50396108627 0.70917034149
-0.5637639761 0.39883750677 0.72325456142
-0.47322613001 0.41001579165 0.7797062993
-0.60853856802 0.48550903797 0.62764811516
-0.51944857836 0.30954253674 0.79645985365
0.06014419347 0.67194825411 0.73809677362
-0.032429579645 0.73728603125 0.67417955399
-0.081088103354 0.67306083441 0.73501944542
-0.1786044687 0.75510299206 0.62999922037
-0.20920774341 0.67571175098 0.70679521561
-0.10733528435 0.74240273237 0.66075134277
-0.429810673 0.32839116454 0.84098321199
0.044632047415 0.84152942896 0.53809154034
0.14315785468 0.87715917826 0.45773786306
0.12300308794 0.94165104628 0.31324568391
-0.072196416557 0.82960116863 0.55286598206
0.26685276628 0.96139317751 -0.066316798329
0.30530485511 0.94852781296 0.082691207528
0.46072927117 0.88634425402 -0.041821524501
-0.47943347692 -0.84660601616 0.23062124848
-0.26459646225 -0.95771163702 0.11258132756
-0.27515181899 -0.91001600027 0.30982646346
-0.06662414223 -0.9655828476 0.25108501315
-0.0041281334125 -0.99785941839 0.054026551545
-0.31262394786 0.5515602231 0.77323019505
-0.23259982467 0.4937120378 0.83787864447
-0.22192966938 0.57905262709 0.78445082903
-0.15762749314 0.54040068388 0.82649517059
-0.5232796669 -0.090433180332 0.84727478027
-0.5441762805 0.0036645955406 0.83887964487
-0.5836301446 -0.077538967133 0.80820804834
0.41788697243 -0.44538450241 -0.79176998138
0.39573985338 -0.61379748583 -0.68309259415
0.26279097795 -0.51114058495 -0.81814265251
-0.46690294147 0.23772415519 0.85173487663
-0.54014706612 0.20803004503 0.8153821826
-0.4804880619 0.1473736912 0.86450904608
0.14435747266 -0.44148907065 0.88559216261
0.068008638918 -0.42322829366 0.90344804525
0.065316483378 -0.51362109184 0.85551744699
-0.14243148267 -0.43395569921 0.88956904411
-0.081159509718 -0.39501881599 0.91507655382
-0.13036867976 -0.36241874099 0.92280459404
0.1374219805 -0.60419744253 0.78488910198
0.02899085544 -0.59183686972 0.80554521084
-0.032500114292 -0.53184592724 0.84618991613
0.0081940591335 -0.4692980051 0.88298386335
0.12486601621 -0.35938605666 0.9247790575
-0.39045730233 0.25212910771 0.88539242744
-0.50510078669 0.83199208975 0.22869947553
-0.49982813001 0.86611777544 -0.0016818852164
-0.68885582685 0.71656793356 0.1084548384
-0.69694077969 0.71005111933 -0.098655737936
-0.84556615353 0.53275215626 -0.034853044897
0.25943437219 0.446282655 -0.85646122694
0.15850014985 0.40697938204 -0.8995283246
0.17211437225 0.55721688271 -0.81221222878
-0.45857429504 -0.054618723691 0.88696670532
-0.39339947701 -0.012578115799 0.91925168037
-0.42789754272 0.035994112492 0.90309506655
-0.36215397716 0.051569320261 0.93066799641
-0.49828764796 0.47628772259 -0.72439515591
-0.59954786301 0.43328744173 -0.67225086689
-0.52316904068 0.57762241364 -0.62627369165
-0.88798570633 0.20015923679 -0.41392141581
-0.76967090368 0.30073785782 -0.5626809001
-0.65919965506 0.24869412184 -0.7085493207
0.23059755564 -0.057231239974 0.97129565477
0.18329441547 -0.041836511344 0.98214811087
0.19085289538 -0.097408354282 0.97675853968
0.32164129615 0.54320317507 -0.77550148964
0.38169956207 0.39438503981 -0.83568400145
0.38256594539 0.21902413666 -0.89704036713
0.13147746027 -0.28238633275 0.95023721457
0.18897201121 -0.29904943705 0.93533831835
-0.43683567643 0.86040443182 -0.26235595345
-0.2735413909 0.94892638922 -0.1500890404
0.27381163836 -0.08409923315 0.95801943541
0.24394801259 -0.11038335413 0.96341240406
-0.51409977674 -0.37407937646 0.77139556408
-0.5743457675 -0.41337260604 0.70641726255
-0.47287908196 -0.47734433413 0.74061155319
0.56106817722 -0.46975615621 0.68113464117
0.52244579792 -0.39376205206 0.75623965263
0.46062427759 -0.50495153666 0.72955322266
0.31390330195 -0.25691187382 0.91402620077
0.39203730226 -0.2765751183 0.87736791372
0.38214054704 -0.20988172293 0.89991885424
0.19302263856 -0.36786162853 0.90961933136
-0.69018155336 -0.18838021159 0.69868433475
-0.61879307032 -0.2812717557 0.73334169388
-0.62705171108 -0.18314757943 0.75699645281
-0.062758982182 0.96228444576 -0.26483225822
-0.24173775315 0.88556462526 -0.39661878347
-0.0085148047656 0.86572980881 -0.50012916327
-0.67290765047 -0.72658342123 0.13494934142
-0.51095992327 -0.85853075981 0.038647692651
0.28256970644 0.661028862 -0.6944937706
-0.032944917679 0.71649813652 -0.69644188881
-0.20678588748 0.77150815725 -0.60170757771
-0.18992078304 0.63342922926 -0.7500808835
-0.35470545292 0.65847307444 -0.66371512413
0.19919520617 -0.77780503035 -0.59600102901
0.21449147165 -0.63336247206 -0.74335086346
-0.54299986362 -0.10281421244 -0.83340877295
-0.66276699305 -0.050791639835 -0.74708527327
-0.6197347641 -0.24471090734 -0.74526280165
-0.46721419692 -0.26643526554 -0.84305161238
-0.72124308348 -0.35040193796 -0.59741520882
-0.57043683529 -0.45969441533 -0.68064832687
-0.48300170898 -0.40702003241 -0.77487426996
0.66100436449 -0.26918080449 -0.7002517581
0.58950823545 -0.14559552073 -0.79447382689
0.73672574759 -0.082111135125 -0.67020696402
0.47320663929 -0.20186659694 -0.85744458437
0.52267569304 -0.31310117245 -0.79286199808
0.62041831017 0.019427586347 -0.78376758099
-0.41289913654 0.76585733891 -0.49240621924
-0.28518590331 0.0028964164667 0.9584530592
-0.24238355458 -0.019208692014 0.96999007463
-0.24625402689 0.040281198919 0.96835023165
-0.19270795584 0.048042170703 0.98007827997
-0.21397447586 0.088321357965 0.97284191847
0.67314940691 0.61477744579 -0.4102833569
0.54467248917 0.59882700443 -0.586630404
0.56034380198 0.71872961521 -0.41122364998
0.44728070498 0.48310959339 -0.75253093243
0.40530705452 0.62593024969 -0.66585505009
0.46280378103 0.70799022913 -0.53337073326
0.44528388977 0.80234855413 -0.39594730735
0.29828608036 0.82833319902 -0.47367402911
0.34484487772 -0.88857412338 0.30195295811
0.22691473365 -0.88852930069 0.39868730307
0.15911565721 -0.96426326036 0.2114546597
0.51033139229 -0.59244590998 0.62331092358
0.40664574504 -0.66780978441 0.62337982655
0.47469750047 -0.70242470503 0.53030949831
0.56754350662 0.79697114229 -0.20337206125
0.41085085273 0.87632715702 -0.25103160739
0.13952222466 0.98954379559 0.035238627344
-0.041683323681 0.99842453003 0.0076212352142
0.097663395107 0.98709344864 -0.12671178579
0.127308622 0.94367933273 -0.30480501056
0.28063717484 0.88012415171 -0.38172256947
-0.4404335022 -0.10708351433 0.89119434357
0.3717725575 -0.30082443357 -0.87819057703
0.61238074303 -0.44770950079 -0.65146529675
0.78587603569 -0.34034627676 -0.51452332735
-0.41357603669 -0.25611126423 0.87351316214
-0.35765480995 -0.28591161966 0.8890029192
-0.3663751781 -0.2211497575 0.90383988619
-0.40644100308 -0.32949650288 0.85207509995
0.86232662201 -0.50592052937 -0.018125975505
0.85765057802 -0.44933122396 -0.24669912457
0.96029090881 -0.26447570324 -0.088077068329
-0.89143061638 -0.28512981534 0.35187825561
-0.96955478191 -0.1662260443 0.17962118983
-0.89206576347 -0.41234111786 0.18163941801
-0.95366173983 -0.29769101739 0.0048316307366
-0.99890267849 -0.044345330447 -0.0030023583677
0.45691823959 -0.84824568033 -0.26664504409
0.71247160435 -0.67866355181 -0.17810757458
0.55762970448 -0.82923704386 -0.035699222237
0.74104893208 -0.66889744997 0.052555955946
0.72093826532 -0.54696404934 -0.42535930872
0.29660519958 0.4547124207 0.83962011337
0.26298251748 0.54183274508 0.79822140932
0.21349179745 0.46247559786 0.8605287075
-0.34745785594 0.030097529292 -0.93720537424
-0.46068733931 0.0041987369768 -0.88755434752
-0.42775931954 -0.14661628008 -0.89193207026
0.17005291581 -0.048571672291 -0.98423933983
0.062440246344 -0.10678856075 -0.99237471819
-0.14088921249 0.10573387146 -0.98436766863
-0.14427037537 0.19629533589 -0.96981233358
-0.066642008722 0.14854487777 -0.9866514802
-0.21405139565 0.14318208396 -0.9662411809
-0.21789310873 0.052615065128 -0.97454178333
-0.10358286649 0.0072126998566 -0.994582057
0.41735762358 0.15484943986 0.89545410872
0.35615572333 0.15792128444 0.92095553875
0.40762752295 0.087649524212 0.90884053707
0.35067260265 0.085350893438 0.93254733086
0.28044503927 0.079852811992 0.95654225349
0.31484508514 0.032974373549 0.94855874777
0.99500459433 -0.023717913777 -0.092377841473
0.35254505277 0.10279306024 -0.93013799191
0.37668037415 -0.0026028535794 -0.92634904385
0.28762495518 0.0071749459021 -0.95777595043
0.4501901865 0.087331928313 -0.88843595982
0.48143163323 -0.060790069401 -0.87435674667
[...]
CELL_DATA 2432
SCALARS cell_data_0 double
LOOKUP_TABLE default
4.77302686429e-08
4.0551252603e-08
4.70394853094e-08
5.67340569239e-08
5.74886599126e-09
1.1072757171e-07
1.15831559962e-07
6.27033022724e-08
1.43379806626e-07
1.56727931846e-07
4.22267516074e-09
2.25120271025e-08
8.40299219357e-08
2.1094080904e-08
6.02380032048e-09
3.80999873023e-08
5.19725248675e-08
1.54242423501e-07
2.63534636292e-08
1.54520232943e-07
7.54639737035e-08
2.06068571992e-08
1.46026729529e-07
9.57399406481e-08
1.6518661598e-08
5.68158865292e-11
1.04776447651e-07
3.19023379369e-08
8.6108809719e-08
3.57269980854e-08
7.85917246386e-08
4.23534354679e-08
4.52528671058e-08
7.87899403312e-08
1.18000786835e-07
4.50634064366e-08
8.09450097553e-08
1.57964674874e-08
5.14547238895e-08
1.37952075389e-08
3.57436051553e-08
1.26251857094e-08
1.24065394248e-08
6.39281623648e-08
7.88689701201e-08
5.99777280778e-08
2.91661764879e-08
5.47208438531e-08
1.04009927857e-07
9.225075729e-08
6.6197762753e-08
4.86012784953e-08
1.08623203604e-07
3.0765862047e-08
4.3409815096e-08
9.27461206103e-08
4.02130987724e-08
1.77503164697e-08
9.59303834086e-08
1.54644877233e-07
1.41804805383e-07
1.5914516499e-07
1.67423512527e-07
2.87111377878e-08
1.7768048783e-07
4.74274712736e-08
2.80128518569e-08
2.16029690554e-08
2.98979586715e-08
1.23153605295e-07
7.29272912838e-09
3.03124897655e-08
1.3468470267e-07
2.59711733174e-09
5.53760984914e-08
1.36376435349e-08
5.20339988005e-08
7.93359968855e-08
1.1704967902e-07
7.64084234617e-08
3.08943455095e-09
1.25230659046e-08
4.08418250514e-08
1.14517030892e-07
5.52146803762e-08
8.53514370222e-08
6.8564434561e-09
5.76164400299e-08
8.23880651528e-09
7.05780582558e-08
3.62761649495e-08
1.38105472586e-08
9.08823469335e-09
7.24396618186e-08
3.80641743242e-08
5.3980199958e-08
3.05244136701e-08
8.90895964842e-08
9.26282863804e-08
3.04194063261e-09
8.9393289633e-08
9.54585737192e-08
3.22324464424e-08
9.21056151849e-08
5.38175187385e-08
5.69917496927e-09
1.01083122238e-07
1.76606317536e-07
1.8109932915e-07
8.1770935431e-08
3.4265428111e-08
1.66723019055e-07
4.87570664051e-08
1.04941514007e-07
3.79036665697e-08
2.97982223645e-08
2.66679561648e-08
5.673836914e-08
3.32761915595e-08
1.05146083429e-07
9.00095085179e-08
7.39327477984e-08
9.58907744585e-08
7.03212272772e-08
3.70614574219e-08
1.29383050561e-07
1.27627104759e-07
2.48931863437e-08
4.01367589371e-09
1.03407097219e-07
5.7483796608e-08
7.62314487262e-08
8.03903896058e-08
3.3129811869e-08
2.62488763212e-08
6.83209912831e-08
1.1529275586e-07
8.69956440245e-09
3.01180378379e-08
1.21125827886e-07
3.57438455235e-08
5.02129212141e-08
1.63710997682e-07
1.00521269767e-07
4.60120779714e-08
3.5673916005e-08
4.61257632701e-08
2.11850474056e-07
2.53344671475e-08
3.22034715835e-09
1.5684331646e-08
2.82486476439e-08
5.74465398972e-08
4.26670256248e-08
1.05971261521e-07
8.74539897523e-08
9.92687848256e-09
7.07402518418e-09
6.88265500784e-08
1.53093987618e-07
6.61838464127e-08
8.73944854354e-08
6.00867980604e-08
3.26498767515e-07
9.1029898866e-09
9.99031694312e-09
1.14149817648e-07
3.85426362465e-08
5.45546880345e-08
2.16738037686e-08
3.88200432102e-08
7.9719971615e-08
1.23375201755e-07
6.54747644175e-08
4.53162802075e-09
7.37983822225e-08
7.02309371331e-08
1.27662437071e-08
3.70819295326e-08
1.27192414372e-07
1.48926002981e-07
1.10984420715e-08
7.79016272748e-09
8.97792052311e-09
6.2860182057e-08
8.00697413325e-08
1.18192605901e-07
8.74941216217e-08
8.08274693068e-08
8.85769492813e-08
8.53980990904e-08
6.91040397683e-08
2.10808390449e-08
7.99519790848e-08
3.24367481333e-08
7.46380838417e-09
2.73089253832e-08
8.25498528676e-08
4.06446845406e-08
1.53356585929e-08
6.34823128129e-08
6.52621278432e-08
7.35071151781e-09
6.75655533746e-08
7.7706572883e-08
7.9413692473e-08
7.06872748486e-08
7.97872450726e-10
1.46647766891e-07
4.11174817989e-09
1.07222737666e-08
4.25229570646e-08
1.78160725548e-08
1.72530658092e-08
1.04868398649e-07
7.23182616493e-08
7.37222158857e-08
1.29648420759e-07
1.64438879926e-09
2.00941053091e-07
1.18165247685e-07
2.16227309353e-08
7.51150481859e-08
4.66523951899e-08
4.79850481724e-09
7.19750099981e-08
4.68797646003e-08
8.77264157843e-08
7.80267012042e-08
1.46484647035e-08
1.64595972627e-08
1.55231034284e-07
4.47570331852e-08
3.73231505696e-08
8.6453615311e-08
5.91104459105e-08
4.61386303539e-08
4.88022803285e-08
5.10982123538e-08
8.3613835292e-09
6.12052446017e-08
1.18399724274e-07
1.08124971449e-07
7.1302958814e-09
8.187087946e-09
4.1801042982e-08
6.0729506983e-08
1.96179024134e-09
6.50051065794e-08
1.27808726226e-07
4.73191367579e-08
5.36703004362e-08
5.58499771449e-08
1.0123372124e-07
6.53992214458e-08
4.78592446902e-08
6.82086879352e-10
2.94322008209e-08
6.48306443075e-09
1.00190801369e-08
1.07222480577e-07
5.9638130631e-08
2.26282616007e-08
1.15642229627e-08
1.56795252877e-07
1.58007549961e-08
2.38610033374e-08
6.04990684531e-08
2.60109892301e-08
5.38423584622e-08
6.02368619789e-08
1.45854687925e-07
2.81953101534e-08
3.63467434597e-08
1.52008031091e-07
7.27643600882e-09
3.18459004183e-08
2.474244231e-08
2.55668548131e-08
3.97690466362e-08
3.10271808585e-08
3.27226712927e-08
1.16165893021e-08
5.39592033653e-08
3.90339485757e-08
2.64132828292e-08
6.04860948345e-08
1.07257837252e-07
7.80513491336e-08
1.52568651761e-08
1.08436400201e-07
1.67601942847e-07
6.05550735051e-09
6.58142051814e-08
2.27651747361e-07
1.49026033428e-08
5.593765797e-08
7.89976673372e-08
1.0886657024e-07
3.31145796745e-08
6.78912589794e-08
7.94632083314e-08
2.65542217461e-07
6.20753349419e-09
3.88771000769e-08
6.60178862874e-08
4.8515357265e-08
8.74972000727e-08
7.60125038804e-08
2.89978383841e-08
8.94520935639e-08
6.97326101806e-08
1.00989667241e-08
7.89991960003e-09
3.43776640169e-08
5.35758535722e-09
3.59348286702e-08
6.54842212517e-08
1.03167984971e-07
3.03624995666e-08
2.04902285743e-08
5.23749476519e-09
3.38635236424e-09
3.43118268339e-08
6.54320053767e-08
4.78376563415e-08
1.69269814222e-08
7.59240688066e-08
1.08137908478e-08
1.03565510572e-09
2.56544595606e-08
1.53715856926e-07
5.38639741912e-08
6.1261120128e-09
7.5730969209e-08
9.888741139e-08
7.22627085757e-08
6.74463347407e-08
3.48910016709e-08
1.23004854483e-08
2.34134116705e-08
2.55620630038e-08
6.79613276282e-08
4.55734834676e-08
3.84830994698e-08
6.64648363374e-08
1.34578556776e-08
4.85616167548e-08
7.33291321256e-08
1.0326155623e-07
6.82882334776e-08
2.9941780704e-08
8.37235476572e-08
4.87662943515e-10
1.83687783158e-08
1.89095279185e-08
4.65928511988e-08
2.87622681767e-08
2.7506181638e-08
1.15102915585e-07
1.509806612e-07
1.55552229181e-07
1.70549175934e-07
6.31074455316e-08
9.40144367327e-08
8.27394536128e-08
9.23638994138e-08
1.86300307446e-08
3.62416184943e-08
1.15510084296e-07
2.92475042846e-08
8.14575829559e-08
1.07561629645e-07
3.25902541819e-08
1.71045313656e-08
3.68784296461e-08
1.91154197645e-08
2.51673399513e-08
4.42087522151e-08
1.89749624785e-07
7.9067206809e-08
1.24509549696e-07
2.20071129907e-07
1.25572911733e-07
5.53805982266e-08
1.88171641847e-08
3.24925484789e-08
6.3294284814e-08
8.78078744595e-08
3.97129943254e-08
5.51678199866e-08
1.77710604946e-07
2.04438742139e-08
1.13310243316e-07
3.69943506857e-08
4.49688303183e-08
4.82017433204e-08
9.45011471965e-09
1.29761897704e-07
3.78978244896e-08
4.10840980533e-08
1.06383755129e-07
6.50401462862e-08
6.69045561124e-08
1.35237642556e-08
8.83431999671e-08
3.31371932568e-08
9.09832895184e-08
1.48703896271e-08
1.3839092725e-08
8.87678556448e-08
5.85704180233e-08
5.26639316181e-08
1.03224100211e-07
7.23175635457e-08
4.63002736848e-10
2.6734154793e-08
3.88797043115e-08
3.29031737872e-08
2.02998260244e-08
1.46950939416e-08
2.40065334205e-08
1.81142162352e-08
2.91429633527e-08
2.73887109632e-08
1.79612482404e-08
7.47487041158e-08
1.84657744373e-08
2.66822680149e-08
1.33272981129e-08
3.56904318124e-08
8.39122273609e-09
2.24592553048e-09
1.75553909435e-08
3.88716467601e-08
5.14929907424e-08
8.6122559495e-08
1.02660243828e-07
9.4920175722e-08
7.60244298526e-08
2.77595670157e-08
1.54379175169e-08
4.48891463434e-08
9.85739685692e-09
1.65920287448e-07
4.06316505304e-08
6.29815719867e-08
2.99857191095e-08
2.89150582242e-08
4.22529058974e-08
5.06071658726e-08
5.05574543171e-08
3.44973445196e-08
8.43410711585e-08
3.62509968883e-08
9.46683624059e-08
5.43939518412e-08
1.00182626999e-07
1.20122999518e-07
3.30318065931e-09
5.14432141985e-08
1.8358091958e-08
1.06053911554e-08
1.3573933413e-07
6.06305350806e-08
3.07799713749e-08
2.60286304741e-08
3.62663837538e-08
3.31604119023e-09
5.33492074293e-08
3.26493530828e-08
1.52964399175e-08
1.6572957054e-08
4.7359822774e-08
6.91422889634e-09
1.02753758589e-07
9.08025338009e-09
6.47674858667e-08
2.66530844142e-08
8.12212712536e-08
8.22853370052e-08
1.36041599142e-07
7.38447003476e-09
3.23691307968e-08
3.74258638844e-08
1.95913868917e-08
1.73546504355e-08
4.10451968259e-09
7.10526415084e-09
1.54364270779e-07
3.77476595987e-08
3.86055987042e-08
3.60837548706e-09
5.82884765504e-08
5.35492556652e-10
3.0244272549e-08
8.9743793211e-08
2.97035469315e-08
1.63543757703e-08
2.48970722985e-08
3.18847404087e-08
1.3806923945e-09
1.69930536415e-08
9.50798865562e-08
1.42992298488e-08
3.34004000649e-08
3.65142664652e-08
1.89396604851e-08
4.39753067143e-08
1.48415515189e-08
6.32169621102e-08
3.94012536431e-09
1.05892242566e-07
5.22613334466e-08
6.00339606527e-08
5.21205321796e-08
3.688747034e-08
6.93943123203e-10
2.6868298009e-08
2.45725442125e-08
8.64489169044e-08
4.91953628525e-08
3.74619018501e-08
5.52802850032e-08
7.7150580861e-08
9.69556148442e-08
5.24826322067e-08
5.26296560914e-08
2.00714568093e-08
2.72317506626e-09
7.14550425589e-08
3.32839543991e-08
4.91634194471e-08
3.76956294633e-08
1.10797342325e-07
1.28999980714e-08
3.23961220564e-08
1.32003046387e-07
2.79734220767e-08
5.43341281296e-08
9.062329416e-08
4.5018187374e-08
2.15968645814e-08
1.9508907867e-08
8.24667567719e-08
4.6506076013e-08
4.41548887648e-08
6.93541364143e-08
3.17088790591e-08
5.64715737259e-09
4.49047957391e-08
4.37863526164e-08
6.93826666857e-08
2.60625482262e-08
1.2803974073e-08
7.61726780488e-08
2.86373042497e-09
4.88081886879e-08
8.08265302417e-08
4.28765382531e-08
2.04250495812e-08
1.79720551446e-08
3.07958917472e-08
2.5340029396e-08
1.38066247266e-07
7.62012702261e-08
1.69334073984e-09
5.66362947828e-08
1.13193150948e-07
6.68080344559e-08
2.10666897221e-08
3.11474826447e-08
2.5009816675e-08
6.88881475402e-08
4.16709132352e-08
2.71211088998e-08
3.73939180208e-10
1.19835638091e-08
5.69692932459e-09
2.60972945793e-08
1.68730463207e-08
9.63400167395e-08
6.45575304014e-08
2.9201081417e-08
5.04586144605e-08
6.77681093727e-09
4.76284303877e-08
1.83981869525e-08
2.83377040341e-09
5.37368070967e-09
3.47690871064e-08
1.46232249419e-08
2.27989717624e-07
8.64950057999e-08
7.47997729664e-09
3.97557629257e-08
9.87014219829e-09
8.99012901507e-09
8.28453152471e-08
1.87247325392e-08
6.1906604798e-08
6.95576451743e-08
4.5376635594e-09
6.39878376521e-08
3.89885135275e-09
2.94763175673e-08
1.80776786561e-08
3.42203994333e-08
1.28214095113e-07
9.28606191581e-09
5.03268084727e-09
1.01446060412e-08
1.40489115925e-08
2.85306695232e-08
5.47669770481e-08
7.41602775066e-08
7.97474529098e-08
1.90609541727e-07
8.71750968985e-08
9.57583126413e-08
8.45307989015e-08
5.0303156913e-08
6.76065991774e-08
2.74753750953e-08
1.02331253056e-07
1.15728643048e-08
5.927006574e-08
4.15691169092e-08
1.00296620006e-07
5.57471160941e-08
1.01717867991e-07
1.23701046826e-08
7.89626214617e-08
2.58353380479e-08
4.48201812703e-10
7.96115621381e-08
9.40893249748e-09
1.03308343456e-07
4.49599954137e-08
6.94023990533e-08
7.6378027199e-08
6.5072009123e-08
7.00184299998e-08
6.92349754721e-08
1.13798698584e-07
1.46317604405e-08
1.655329161e-08
7.45064852756e-08
1.53203030202e-08
2.66431177551e-08
1.4537412285e-07
1.82291106924e-08
6.90574547826e-08
8.50400833431e-11
3.34373494376e-08
7.21985657632e-08
6.11571237768e-08
6.63804590422e-08
3.53969515674e-08
4.55870424279e-08
3.20760104397e-09
2.73872979931e-08
2.5690190687e-09
8.99869474764e-08
9.46183443905e-10
3.03330046254e-08
1.35080763783e-08
1.51825919989e-08
2.81060255838e-08
6.00823056311e-08
2.78338815613e-08
2.51723486658e-08
5.75567330288e-08
2.94788501632e-08
1.54242539892e-08
4.38300947528e-08
1.2579485909e-08
2.26985821281e-08
1.51969403294e-08
4.22917017836e-08
5.42258209879e-08
3.6072821281e-08
4.64681578471e-08
1.94862827253e-08
6.83526853008e-09
3.95362690717e-08
5.94412894231e-09
1.68717181894e-08
4.20303249489e-08
2.52593485952e-08
1.02324369507e-07
1.24390070315e-07
8.86811497354e-08
1.14537511516e-07
8.74261499669e-08
1.30715938833e-07
2.54389132839e-08
7.09514878545e-08
1.24553531584e-07
8.64552567242e-08
1.69746893957e-08
1.01863090755e-07
2.72685130008e-08
1.56654654165e-08
7.44771430944e-08
7.65263046815e-08
3.48526207081e-09
3.85366384215e-08
2.04145900767e-07
4.10827090014e-08
3.34770507863e-08
1.67748907926e-07
7.7827098602e-09
6.09097023938e-08
3.71823679929e-08
3.2562866952e-08
6.79798030667e-08
1.35818444696e-08
4.76389959809e-08
4.15853565701e-08
6.80074705104e-08
4.84903942256e-08
2.98768687083e-08
4.8014198668e-08
6.74656880231e-09
3.58100379334e-08
5.62307678293e-08
9.8435282508e-08
8.27053602828e-08
1.48933847051e-07
3.71859891133e-08
6.76657315618e-08
3.08468770981e-09
4.99714815188e-08
1.31659539769e-09
7.84414239214e-09
1.27401155712e-08
2.8233511823e-08
1.40106531685e-07
1.41321944687e-08
2.2351754751e-08
1.05641379083e-07
1.32235244365e-07
9.06204398826e-08
4.61612450454e-08
7.70043363335e-08
1.05533060074e-08
8.91949060475e-08
6.84502596494e-11
6.93740587313e-08
4.11111848268e-09
5.56130906743e-08
4.29740884542e-08
6.89184716445e-08
4.76091102588e-08
8.13784903529e-08
1.42303414054e-07
2.41717311435e-08
7.61442200854e-08
7.99228137546e-08
9.55926834446e-08
2.67711491008e-09
4.59603873388e-08
2.26519883627e-08
2.7864846875e-08
3.37184211895e-08
6.2436184165e-08
6.77222102479e-08
1.77552636417e-08
4.75621328024e-08
1.03604883686e-08
2.86063516855e-08
3.17839141766e-08
7.78089424026e-08
4.10335624988e-08
5.51804742526e-08
3.08236263652e-08
9.54291050861e-08
1.11782154274e-07
5.23511845939e-09
4.03279658073e-09
4.74797860786e-08
2.59706080392e-09
4.29755066231e-08
1.6158645453e-08
1.02332230323e-07
2.60496488681e-08
2.19447944452e-09
2.28199075565e-08
5.33034148094e-08
1.17511281163e-07
6.62367906048e-08
1.44397340402e-08
6.25587734645e-08
5.08229326349e-08
6.48331037419e-08
5.75932773499e-09
3.79032217126e-08
5.10501845765e-09
2.64336690781e-08
1.20288162282e-08
6.61139595224e-08
1.74669628019e-08
3.97636225411e-08
1.82999490348e-08
5.73660262638e-08
4.73173675077e-08
2.81456252435e-08
1.01714098104e-08
2.06351056952e-08
1.76796735309e-08
3.92054117469e-08
2.57165990982e-08
1.68944243889e-08
3.70139480311e-08
3.53457968022e-08
6.1998225151e-08
1.42166114374e-08
2.50114931273e-08
3.73838662742e-08
5.28324286452e-08
3.49240949952e-08
4.28632798023e-09
3.35067832698e-08
9.36695419327e-08
5.04038804072e-08
5.75615665504e-08
7.56967959462e-08
5.45390259139e-08
9.76638447766e-08
3.01207675428e-09
6.2551369945e-09
7.47428781759e-08
7.70576231685e-08
7.06682095236e-09
3.88546038943e-08
1.1264664393e-08
5.39444722883e-09
4.85784837608e-08
1.44032326043e-07
4.16253006692e-08
3.09353104514e-08
3.92043842637e-08
2.83960792542e-08
9.00918987757e-08
4.29836290315e-08
7.76843509408e-08
5.03539265833e-08
1.22239722972e-08
2.59872594387e-09
4.56938583855e-08
3.71736198016e-08
2.8214051727e-08
1.42792078329e-08
4.54784740924e-09
1.67839349526e-09
3.01374156091e-09
1.02512725088e-08
2.67541235818e-08
3.95061673118e-08
4.05696625218e-08
1.99239273261e-08
1.05861537172e-07
8.16042747597e-09
7.4184861109e-08
5.43952500771e-09
7.82566325811e-08
4.5165880057e-08
7.67442755835e-08
2.01075075142e-08
2.27893056338e-08
4.56795996259e-08
2.40792013232e-08
5.14449510009e-08
9.74737697326e-08
1.72790566629e-08
4.36115155639e-08
4.17855549414e-08
8.16653995877e-09
3.65371730438e-08
2.30146375404e-08
2.55768664437e-09
1.23543394694e-08
6.04952802674e-08
1.07058504325e-08
3.22873259169e-08
1.33501526822e-08
4.97910059068e-08
1.08891215202e-08
3.5216590017e-08
1.27497088249e-08
5.5039437874e-08
3.78354556185e-08
3.47259666589e-08
7.239685325e-08
8.601044246e-08
7.47228921607e-08
8.34538618865e-08
5.84013040593e-08
1.05753810863e-08
3.21404787279e-08
5.88563213257e-09
5.65262282904e-09
1.97192415367e-09
5.9399272758e-08
8.28389771956e-09
2.10539578805e-08
5.48982589435e-08
4.32888546506e-08
5.55167656269e-09
1.03983898758e-07
5.53331328032e-08
6.840914225e-08
1.12695932492e-07
4.26307616852e-08
5.52892265378e-08
8.36155130516e-08
2.19315850761e-08
7.59103440377e-08
3.09013882116e-08
6.40833261749e-09
5.51814719301e-08
1.38218453829e-08
2.83651637577e-08
2.10526185727e-08
5.123804436e-08
3.23208514238e-08
2.57289999445e-08
9.23063556004e-08
3.03569437442e-08
6.22947157318e-08
3.24342986301e-08
3.60916680779e-08
1.5980376307e-08
6.53020785769e-08
6.64477669775e-09
4.98647894802e-08
1.19080772837e-07
6.0155436059e-08
6.53948434639e-08
1.46627797836e-07
1.20051209807e-07
5.21793653326e-08
1.50460913084e-08
1.7395960688e-08
1.30621474299e-08
5.4363826088e-08
1.44035917393e-08
1.66024691999e-08
1.07357544643e-08
2.52317295196e-08
6.16643008265e-08
8.04459950519e-08
7.45793633822e-08
6.43066163358e-08
1.86810127067e-07
6.75074086188e-08
8.87673356498e-08
5.82250633343e-08
4.01718399693e-08
3.00681975371e-08
5.3218308329e-08
2.20750417065e-08
1.4745171855e-08
1.00258337137e-07
7.51263252565e-08
2.67269598287e-08
6.3370981877e-08
2.72962561671e-08
6.77730289927e-08
4.82437201232e-08
4.97464592819e-08
7.92080339917e-08
2.28415142514e-08
2.87434370672e-08
1.86167547002e-08
4.44557151907e-08
3.00472815921e-08
2.87621529917e-08
2.59476071648e-08
5.99289238396e-08
7.55795403142e-08
8.47253792213e-08
1.45478339801e-08
2.55751508962e-08
2.97915148879e-08
1.92192343586e-08
2.87467293859e-08
1.57043273282e-08
2.06444705234e-09
5.58689621773e-08
2.04642502189e-08
8.66653019623e-08
1.4635116967e-08
2.98705013689e-08
2.12249285428e-08
5.88906570459e-09
1.31370561935e-07
1.74484868243e-08
8.8113803661e-08
8.40513752181e-08
2.19235985906e-08
6.03696989025e-08
1.47927431009e-08
1.29831860579e-07
2.93939039298e-09
2.1910276771e-08
2.6708716291e-08
6.72190770295e-09
2.74655696416e-08
2.04305974642e-08
4.25010959081e-08
1.38142940381e-08
3.03740397811e-09
1.08260660449e-08
1.93341361904e-08
2.22156105041e-09
1.51345387848e-07
4.62569355694e-08
1.88250166245e-08
8.06113268914e-08
2.94181805192e-08
1.25567929076e-07
6.7395247632e-08
5.13159601285e-09
7.30075204755e-08
1.92093308499e-08
4.65699421689e-09
2.19413679975e-08
3.71844297301e-08
8.20307074832e-08
5.21131731578e-08
1.15190218919e-09
8.03033894466e-08
1.32157497238e-07
4.44119997712e-08
7.28438755905e-08
2.36161414075e-08
5.24990752225e-08
1.78182264738e-08
2.62061638765e-08
1.38253001584e-08
1.30390469072e-08
1.68799166405e-08
7.85170885381e-08
4.21920280779e-08
1.70480871386e-08
2.89819571899e-08
8.67391839259e-08
8.7949863983e-09
1.8435669006e-08
1.24212454318e-08
1.8209147479e-08
6.03402748974e-08
1.33168274585e-07
7.79633946338e-10
4.45816277845e-08
8.54050151652e-08
1.94589003144e-08
1.1300702617e-08
2.56832145339e-09
1.4232029862e-08
3.62637457726e-08
7.9026901014e-09
4.59625366805e-08
2.87551781472e-08
8.58100979349e-08
8.72479664708e-08
3.56395536692e-08
2.56218176251e-08
2.93044177008e-08
2.47120812467e-08
4.71300100129e-08
1.33554647046e-08
1.42803284381e-09
4.16160881739e-08
2.73863673978e-08
3.18091744653e-08
1.16105480277e-07
5.61475471932e-08
5.52590277793e-08
1.64336319475e-09
2.59853581164e-10
1.04378877824e-07
4.6188964837e-08
7.48793395899e-09
3.48926771793e-09
1.33526532795e-08
5.38215079836e-08
3.35600235811e-08
1.85650672726e-08
8.04874997674e-09
2.30580815689e-08
1.13206006286e-07
6.85601014711e-08
2.894405955e-08
2.82350239948e-08
3.19100715229e-08
8.80671376577e-09
1.21573911415e-07
2.99079592692e-08
2.78361488198e-08
5.39550746059e-08
4.42760597477e-08
2.34154387456e-09
3.82948691692e-08
3.71166864194e-08
2.17428316593e-08
3.78271557103e-08
8.30290695038e-08
2.13400203073e-08
4.37896352441e-08
9.92106532594e-11
3.52187285754e-08
5.65051742641e-08