# vtk DataFile Version 3.0
File Name: Molecule/special/special_0-s3.vtk
ASCII
DATASET UNSTRUCTURED_GRID
FIELD FieldData 1
TIME 1 1 double
0.0
POINTS 51 double
0.85065078735 -0.52573108673 -2.3602026999e-07
0.80892509222 -0.30897256732 -0.49996727705
0.99989300966 2.1368846319e-06 5.840894346e-07
0.80908572674 0.30891090631 -0.49980011582
0.52523595095 0.00041481258813 -0.8509272933
0.85065078735 0.52573114634 4.1599305405e-06
0.50001275539 0.80900549889 -0.30877354741
0.33416211605 0.50893682241 -0.79169368744
0.00028677884256 0.85021197796 -0.52637368441
0.49994793534 0.80893397331 0.30899772048
-1.095546736e-06 0.99990111589 -3.650765575e-05
-7.9282608567e-07 0.8504909873 0.52598577738
-0.49994546175 0.80893629789 0.30899557471
-0.49999296665 0.80901110172 -0.30879044533
-0.85065174103 0.52572965622 2.9562027066e-06
-0.3221924305 0.50399297476 0.79988265038
-0.80909717083 0.30889412761 0.49980846047
-0.52535229921 0.00013906744425 0.85084170103
0.52535009384 0.00013933124137 0.8508425951
0.3221667707 -0.50402259827 0.79986864328
0.8090916276 -0.30889078975 0.49981811643
0.50001269579 -0.8090043664 0.30877569318
-4.058302352e-07 -0.85041618347 0.52605974674
0.3090775609 -0.50011926889 -0.80882489681
3.2202930015e-05 -0.031741525978 -0.99822503328
-0.30925956368 -0.50047492981 -0.80855637789
3.2596028632e-07 -0.85066223145 -0.52571284771
-0.52503663301 0.00021245554672 -0.85103964806
0.80909305811 0.30889505148 0.49981367588
0.32216972113 0.5040076375 0.79988205433
-0.80892080069 -0.30896437168 -0.49998015165
-0.80907988548 0.3089017868 -0.499815166
-0.99989360571 -7.6808589711e-07 -5.6742777588e-08
-0.85065048933 -0.52573162317 -5.80371875e-07
-0.3341164887 0.50891041756 -0.79172730446
-0.49994516373 -0.8089376092 -0.30896830559
-0.50001168251 -0.80900388956 0.30877807736
1.3030655737e-06 -0.99989557266 1.7062331608e-05
-0.8090928793 -0.30889302492 0.49981534481
-0.32218870521 -0.50400942564 0.7998663187
0.49994617701 -0.80893009901 -0.30898529291
0.16201129556 0.26314523816 -0.95105415583
-0.16200956702 0.26313403249 -0.95105773211
1.6704940208e-05 0.52529448271 -0.85091918707
-7.5444813774e-07 0.52509951591 0.85106140375
-0.16202190518 0.26409974694 0.95084965229
0.16203567386 0.26411306858 0.95084357262
-8.1719683465e-08 -5.5107739172e-07 0.99981468916
-0.16201530397 -0.26411509514 0.95084732771
1.9478180548e-05 -0.52513408661 0.85103952885
0.16203550994 -0.26410883665 0.9508447051

CELLS 98 392
3 0 1 2
3 1 3 2
3 1 4 3
3 2 3 5
3 5 3 6
3 3 7 6
3 3 4 7
3 6 7 8
3 5 6 9
3 6 10 9
3 6 8 10
3 9 10 11
3 11 10 12
3 10 13 12
3 10 8 13
3 12 13 14
3 11 12 15
3 12 16 15
3 12 14 16
3 15 16 17
3 18 19 20
3 19 21 20
3 19 22 21
3 20 21 0
3 4 23 24
3 23 25 24
3 23 26 25
3 24 25 27
3 0 2 20
3 2 28 20
3 2 5 28
3 20 28 18
3 5 9 28
3 9 29 28
3 9 11 29
3 28 29 18
3 27 30 31
3 30 32 31
3 30 33 32
3 31 32 14
3 8 34 13
3 34 31 13
3 34 27 31
3 13 31 14
3 33 35 36
3 35 37 36
3 35 26 37
3 36 37 22
3 33 36 38
3 36 39 38
3 36 22 39
3 38 39 17
3 17 16 38
3 16 32 38
3 16 14 32
3 38 32 33
3 27 25 30
3 25 35 30
3 25 26 35
3 30 35 33
3 26 40 37
3 40 21 37
3 40 0 21
3 37 21 22
3 4 1 23
3 1 40 23
3 1 0 40
3 23 40 26
3 24 41 4
3 4 41 7
3 24 42 41
3 42 43 41
3 42 34 43
3 41 43 7
3 34 42 27
3 27 42 24
3 7 43 8
3 43 34 8
3 15 44 11
3 11 44 29
3 15 45 44
3 45 46 44
3 45 47 46
3 44 46 29
3 47 45 17
3 17 45 15
3 29 46 18
3 46 47 18
3 39 48 17
3 17 48 47
3 39 49 48
3 49 50 48
3 49 19 50
3 48 50 47
3 19 49 22
3 22 49 39
3 47 50 18
3 50 19 18

CELL_TYPES 98
5
5
5
5
5
5
5
5
5
5
5
5
5
5
5
5
5
5
5
5
5
5
5
5
5
5
5
5
5
5
5
5
5
5
5
5
5
5
5
5
5
5
5
5
5
5
5
5
5
5
5
5
5
5
5
5
5
5
5
5
5
5
5
5
5
5
5
5
5
5
5
5
5
5
5
5
5
5
5
5
5
5
5
5
5
5
5
5
5
5
5
5
5
5
5
5
5
5

CELL_DATA 98
SCALARS cell_data_0 double
LOOKUP_TABLE default
3.43595996714e-06
3.29026084404e-06
1.00690934525e-05
1.55272472635e-06
2.73946052358e-06
3.1392242333e-06
2.01953452353e-05
1.78701157988e-07
7.35564144331e-07
5.05207509476e-06
5.42544253635e-06
6.53765358128e-06
6.40154143278e-06
5.20262492746e-06
5.66536416947e-06
5.68108613169e-07
7.42801659864e-06
1.06718920204e-05
8.89787099841e-06
4.0172647518e-05
4.33279395925e-05
9.73121321163e-06
5.24929837277e-06
1.41218823511e-05
2.96880316851e-06
5.29797198588e-05
1.75166064359e-05
2.30155142283e-06
2.9027214227e-06
2.34933792158e-05
1.00559419694e-06
4.78338264616e-05
8.80218781607e-06
1.17090113186e-05
5.73175193971e-06
4.26640102474e-05
9.78904463248e-06
3.18062494289e-06
3.45200564589e-06
1.93898437239e-06
2.21114168607e-07
3.2763351936e-06
2.10754945253e-05
2.83004563636e-06
4.04635887417e-06
9.6937612756e-07
1.46242710037e-05
1.27328925301e-05
1.38339779462e-05
1.12125525924e-05
6.37741026842e-06
4.16024915513e-05
4.68653004223e-05
2.35616527375e-05
1.25632765701e-06
3.07740038084e-06
9.48820413861e-06
3.32853577043e-05
1.84666446662e-05
1.1192173354e-05
1.43884351235e-05
6.34335465306e-07
3.75772926265e-06
1.29624732899e-05
9.71633683197e-06
3.29644649189e-05
1.10970759105e-05
1.81082619507e-05
6.3192631102e-05
3.96573980172e-05
6.42132632394e-05
3.52137130195e-05
1.73985418828e-05
1.72005774161e-05
4.03208299118e-05
6.1067082882e-05
1.5674821434e-05
1.56277783957e-05
1.08141762272e-05
1.17960455171e-05
1.66377012362e-05
1.99828564783e-05
3.85828464294e-05
1.72433413311e-05
6.64647914958e-05
3.08773947136e-05
2.94154397751e-05
5.1420169934e-05
3.01226600128e-05
6.59079289396e-05
1.46435329423e-05
2.01942812778e-05
1.55780282571e-05
3.82455697231e-05
1.00011116568e-05
1.12549459122e-05
6.63233812806e-05
3.04556339503e-05

