# vtk DataFile Version 3.0
File Name: Molecule/special/special_0-s22.vtk
ASCII
DATASET UNSTRUCTURED_GRID
FIELD FieldData 1
TIME 1 1 double
0.0
POINTS 704 double
0.14539718628 0.24154293537 -0.95937085152
0.032854802907 0.29765880108 -0.95362603664
0.12439255416 0.39245450497 -0.91126638651
0.00082175992429 0.50687259436 -0.86140584946
-0.026267157868 0.35138612986 -0.93412023783
0.19066143036 -0.17172425985 -0.96582460403
0.08730520308 -0.32436054945 -0.94168221951
0.0025083054788 -0.20681379735 -0.97838824987
-0.0065620150417 -0.4712895751 -0.88154089451
-0.1091228053 -0.31924301386 -0.94133007526
-0.18342532218 -0.14632502198 -0.97196924686
-0.75838118792 0.10272156447 -0.64345163107
-0.74251610041 -0.1695843935 -0.64665484428
-0.878952384 -0.029318995774 -0.47539284825
-0.29382255673 -0.57961893082 -0.75990456343
-0.40429261327 -0.7221339345 -0.56125497818
-0.56755393744 -0.44681739807 -0.68973094225
-0.47047147155 -0.84136408567 -0.26510035992
-0.68438476324 -0.61754059792 -0.38622891903
-0.040343642235 -0.8576464653 -0.51242148876
-0.062689989805 -0.72166955471 -0.68842661381
0.25543448329 0.1659141928 -0.95244705677
0.25727686286 0.30815517902 -0.91595554352
-0.4361372292 0.7445229888 -0.50555974245
-0.67107963562 0.60982435942 -0.42086693645
-0.47430253029 0.84105998278 -0.25949749351
0.86215311289 0.25341558456 -0.43839076161
0.71371889114 0.17575871944 -0.6779384017
0.66780877113 0.40539434552 -0.62397277355
0.5436642766 0.26387551427 -0.79668861628
0.60272192955 0.037775266916 -0.79707884789
0.95203453302 0.1583480984 0.26127406955
0.92236149311 -0.0012359176762 0.38401475549
0.9789352417 -0.10380292684 0.17419606447
0.19797804952 0.30761024356 0.93065267801
0.15255403519 0.21297620237 0.96501672268
0.22395306826 0.22600360215 0.94797587395
0.46142998338 0.088325843215 -0.88270425797
0.38301572204 0.2321716994 -0.89407473803
0.23549832404 0.16784326732 0.95715433359
0.69584143162 0.69818598032 0.16683803499
0.705699265 0.60915243626 0.36131986976
0.84092968702 0.48094248772 0.24595293403
-0.57731539011 0.1005525738 -0.81029111147
-0.4790494144 0.30182996392 -0.82430207729
-0.42089748383 0.13657861948 -0.89659839869
-0.30632421374 0.27499777079 -0.9113202095
-0.32580494881 0.46328467131 -0.82409501076
-0.30316415429 0.11352683604 -0.94606989622
0.066215693951 -0.20054900646 0.97738033533
-0.0010932678124 -0.16858051717 0.98566490412
-0.015745438635 -0.23779512942 0.97115534544
-0.18513871729 0.40276241302 -0.8959338069
-0.74226927757 -0.57925069332 0.33648881316
-0.75932252407 -0.41840472817 0.49759483337
-0.88121175766 -0.30994099379 0.35668674111
-0.17482997477 -0.078237898648 0.9814426899
-0.19965402782 -0.15507945418 0.96749907732
-0.11712157726 -0.12974786758 0.98456782103
0.50382918119 0.69319605827 0.51496577263
0.37982717156 0.68300902843 0.62381786108
0.55299597979 0.54338139296 0.63136726618
0.41396230459 0.54667884111 0.72782665491
0.33846279979 0.81117546558 0.47595369816
-0.28707197309 -0.19030055404 0.9387960434
-0.262868613 -0.098195545375 0.95962673426
-0.81519526243 -0.2067758441 0.53898924589
-0.70874869823 -0.19097833335 0.67897582054
-0.7006380558 -0.32816377282 0.63351911306
-0.43191286922 0.64844292402 0.62661105394
-0.37810817361 0.7654684186 0.51964002848
-0.53028833866 0.67838793993 0.50770151615
-0.31641432643 -0.55252951384 0.77094215155
-0.17851293087 -0.57962983847 0.79481220245
-0.26051965356 -0.47582909465 0.84005713463
-0.1570006609 -0.43608248234 0.88571953773
-0.23401328921 -0.36828997731 0.89980113506
0.74253863096 -0.23277503252 0.62671267986
0.62433046103 -0.30873498321 0.71728825569
0.70011150837 -0.4234379828 0.57319372892
0.57737237215 -0.46393978596 0.67179179192
0.5051523447 -0.38203129172 0.77362424135
0.61120653152 -0.60177439451 0.51399099827
0.55037760735 -0.81149667501 0.19624638557
0.71988463402 -0.60428214073 0.34004798532
0.53139567375 -0.75139647722 0.39103803039
-0.12911166251 -0.34653037786 0.92899048328
-0.02879431285 0.89798885584 0.43883553147
-0.078000634909 0.96310055256 0.25752791762
-0.23013684154 0.89606624842 0.37722268701
-0.27732771635 0.95138818026 0.13396453857
-0.038955964148 0.99848377705 0.015325784683
0.348310709 -0.09046703577 0.93298381567
0.42528182268 -0.058918558061 0.90293866396
0.3790152669 0.0054112430662 0.92535859346
-0.47464370728 -0.50528991222 0.72065871954
-0.38970607519 -0.44980719686 0.80361008644
-0.50413352251 -0.36741441488 0.78150695562
-0.48237466812 0.52108168602 0.70391762257
-0.56215155125 0.39875465631 0.72446990013
-0.46843937039 0.40758737922 0.78384929895
-0.60224622488 0.49684023857 0.62443071604
-0.52082127333 0.30139437318 0.79865533113
0.064401566982 0.66301929951 0.74566543102
-0.035722762346 0.73447310925 0.67754220963
-0.079465255141 0.66389596462 0.74344563484
-0.2169393003 0.67916196585 0.70075321198
-0.17031644285 0.75282531977 0.63555777073
-0.32243964076 0.31726410985 0.89183938503
-0.4177852571 0.32457184792 0.84858208895
-0.38067188859 0.23408070207 0.89438593388
-0.31829789281 0.40616220236 0.85652774572
-0.23557926714 0.37725394964 0.89538943768
0.22831390798 0.78395074606 0.57731115818
0.18452993035 0.70471096039 0.68481487036
0.14776371419 0.86685675383 0.47582912445
0.058201231062 0.82050019503 0.56721770763
0.14142806828 0.94203263521 0.30344229937
-0.11373519152 0.82306039333 0.55566227436
-0.45633864403 -0.63585615158 0.62215828896
-0.5949422121 -0.49377030134 0.63328713179
-0.56887936592 0.59390920401 0.56859230995
0.28083395958 0.95393997431 -0.10469958931
0.27827626467 0.95632863045 0.080764204264
0.46378582716 0.88528525829 -0.014470336959
-0.49178519845 -0.8323212266 0.25298324227
-0.26116147637 -0.95727699995 0.1241991818
-0.26006057858 -0.9074870944 0.32923942804
-0.055102951825 -0.96259582043 0.26457217336
0.0063362661749 -0.99985641241 0.0057501750998
-0.3194745481 0.56463891268 0.76041167974
-0.23590222001 0.48349696398 0.84295600653
-0.20571170747 0.57373285294 0.79255050421
-0.13887380064 0.53908914328 0.83059972525
0.28537586331 -0.17152304947 0.94273674488
0.30989703536 -0.25393652916 0.91622984409
0.37218743563 -0.1854006052 0.9093183279
-0.60296946764 -0.17147606611 0.77903538942
-0.53025060892 -0.10356306285 0.84147232771
-0.62679553032 -0.018867610022 0.77893167734
-0.50639158487 -0.24558219314 0.82649242878
-0.53524386883 0.038102198392 0.84380096197
-0.5502794981 0.17811898887 0.81575226784
-0.65115398169 0.13643796742 0.74652159214
-0.61601668596 0.27358564734 0.73868060112
0.41204982996 -0.44183167815 -0.79683405161
0.38785228133 -0.60972088575 -0.69125491381
0.25131258368 -0.49083641171 -0.83334183693
0.11493958533 -0.074296876788 0.99058014154
0.09617985785 -0.013827970251 0.99519753456
0.04522844404 -0.069255389273 0.99645215273
0.14092692733 0.030630296096 0.98952358961
0.16917979717 -0.032420389354 0.9850435257
-0.46715432405 0.22907398641 0.85397839546
-0.47328969836 0.12636932731 0.87172859907
-0.049628581852 -0.51753634214 0.85363721848
-0.0018723472022 -0.45953342319 0.88807225227
-0.10169186443 -0.47722065449 0.87275403738
0.13784569502 -0.43922001123 0.88771742582
0.064195767045 -0.41610506177 0.9069057107
0.06206523627 -0.50960844755 0.8581558466
-0.064816296101 -0.41003215313 0.90958416462
0.1386526376 -0.60516244173 0.78385919333
0.020849782974 -0.58485305309 0.8107329011
0.11274132133 -0.34843859076 0.93050301075
-0.61332160234 -0.28450834751 0.73679363728
-0.49482610822 0.82760870457 0.26165810227
-0.5015977025 0.86509335041 0.010862866417
-0.70701062679 0.69574218988 0.12608113885
-0.67934048176 0.72256362438 -0.12780037522
-0.84936195612 0.52689284086 -0.029772637412
0.25166895986 0.44194531441 -0.86100870371
0.14994674921 0.56666886806 -0.81018161774
-0.45108500123 -0.058374959975 0.89056807756
-0.43916749954 0.038172271103 0.89759814739
-0.38137757778 -0.014817923307 0.9240809083
-0.34649199247 0.073141619563 0.93507915735
-0.20771194994 -0.44086557627 -0.87309867144
-0.058455768973 -0.59637892246 -0.79998922348
-0.2953581214 -0.28125828505 -0.91304206848
-0.3817499876 -0.4072856009 -0.8296636939
-0.46114909649 -0.25631785393 -0.84932166338
-0.4701269865 0.48545077443 -0.73711431026
-0.36165574193 0.62754738331 -0.68951022625
-0.52848166227 0.59181946516 -0.60861688852
-0.61297130585 0.42991223931 -0.66283720732
-0.75088208914 0.32795122266 -0.57306802273
-0.88542658091 0.20387254655 -0.41767480969
-0.64070498943 0.25433078408 -0.72443836927
0.30798587203 0.034050043672 0.95077782869
0.24143211544 0.01414593868 0.97032064199
0.29954636097 -0.032928396016 0.95350778103
0.23153926432 -0.050843216479 0.97149199247
0.19021847844 -0.10471838713 0.9758912921
0.31775572896 0.54136782885 -0.77838802338
0.38556110859 0.3864620924 -0.83780306578
0.48707261682 0.47528159618 -0.73262697458
0.1306424886 -0.27312880754 0.95298111439
0.18600592017 -0.29415729642 0.93747121096
0.044022493064 -0.29257082939 0.95508980751
0.015615798533 -0.33798158169 0.94091433287
-0.74825334549 0.56261193752 0.3510261476
-0.88522452116 0.43018266559 0.17668351531
-0.32760667801 -0.38991248608 0.86061412096
-0.26025992632 0.95638424158 -0.13230720162
0.27070754766 -0.096310667694 0.9578242898
-0.58939802647 -0.39932307601 0.70216602087
-0.67888629436 -0.45854011178 0.57277947664
-0.4176427424 -0.34355118871 0.84115928411
0.44560801983 -0.51481866837 0.73240178823
0.38353893161 -0.42498788238 0.81992930174
0.2761143446 -0.47366160154 0.83628815413
0.31747382879 -0.54463231564 0.77592128515
-0.33609083295 -0.2984239459 0.89332211018
0.37796187401 -0.2884555757 0.87972831726
0.31370854378 -0.34612068534 0.88412117958
-0.37483733892 -0.12906558812 0.91779845953
-0.44433268905 -0.16428270936 0.880602777
0.19185815752 -0.36807695031 0.9096878767
-0.04991607368 0.96173840761 -0.26937246323
-0.24404862523 0.88447266817 -0.39773789048
0.014946803451 0.85876351595 -0.51203578711
-0.84451264143 -0.53491264582 -0.024612307549
-0.68769878149 -0.7126955986 -0.13779175282
-0.6979970336 -0.7059186101 0.11931888759
-0.49634560943 -0.86806333065 0.0062797148712
[...]
CELL_DATA 1404
SCALARS cell_data_0 double
LOOKUP_TABLE default
2.95530485616e-07
3.05203851266e-07
1.69030415027e-07
1.53340446491e-07
7.79947071764e-08
1.86706421127e-07
8.16269680206e-08
1.58388098497e-07
4.17069704159e-07
1.12765426429e-07
3.32342992228e-08
1.35868500028e-07
2.22162075051e-07
2.37032194243e-07
8.24397059913e-09
2.6439420599e-08
8.41103034075e-08
1.94517376426e-07
5.92923385618e-08
9.45593142513e-08
2.30559064388e-07
1.9959937968e-07
2.01502607124e-07
2.47340324362e-08
1.05137765505e-07
3.18501512992e-07
3.8401529065e-07
2.80133191595e-07
2.70526444099e-08
2.79577669838e-07
2.74765076709e-07
1.37502180766e-07
1.56651886695e-07
1.25061172522e-07
3.50607286808e-08
3.5632669888e-08
8.03242763539e-08
2.28388886951e-07
2.22787415583e-08
3.01575243436e-07
4.75179399741e-08
3.54576454519e-09
2.69117279686e-07
1.86818296498e-07
1.36817624519e-08
2.54016531389e-08
3.60085591709e-08
1.16444890684e-07
2.26380911614e-07
6.35082777713e-08
7.23417788306e-08
1.05519741267e-07
1.1492209654e-07
1.4562863819e-08
3.73574494388e-08
2.42784275153e-07
9.80962584301e-08
5.7434310463e-08
1.4004146526e-07
1.09319210035e-07
2.13283113849e-08
3.32422534006e-07
1.33904915461e-07
1.65768189111e-07
1.72605558396e-07
1.35092283791e-07
2.04708781162e-07
1.6583653387e-08
9.8201788657e-08
3.02851957212e-07
1.4559889486e-07
9.06697609821e-08
2.54555959413e-08
1.57919475179e-07
1.81571237493e-07
3.4434645248e-08
1.20059518168e-07
4.43430818882e-08
9.30523858054e-08
1.03389746539e-07
2.02442373524e-07
3.89641025886e-08
4.46042976213e-07
1.27142314163e-07
1.56468602645e-07
1.11873833123e-07
3.46964840833e-07
1.86563421908e-07
9.6021818629e-08
4.29648343649e-08
8.34934029273e-08
1.8092587098e-07
8.1166989344e-08
1.35531303161e-07
1.7092660152e-07
5.95895310842e-08
7.46205242223e-08
1.43628546778e-08
1.12831345904e-07
3.51077958939e-07
2.45170990314e-07
2.86913589041e-08
5.26061473256e-08
8.24305662453e-08
6.39396850041e-08
3.77821350529e-08
1.51147717965e-07
1.58364197235e-08
1.53909205197e-07
1.98925974624e-07
1.64954664775e-07
2.58869014134e-07
5.37476154329e-09
1.66335125622e-07
1.54494717609e-07
2.81322622464e-07
4.4492096536e-08
2.84286663367e-07
2.38130376647e-07
4.76155877308e-09
8.54897078872e-09
2.94872197059e-07
1.27561357085e-07
9.34698131414e-08
2.56606318367e-08
2.00631683402e-07
4.91070416369e-08
3.96247308309e-07
1.15064250151e-07
7.47003904577e-08
6.96879008983e-08
5.31127437678e-08
3.29446209989e-07
3.8103101827e-08
2.52973141901e-07
9.96433583449e-08
7.69187954677e-08
9.95935519157e-09
3.5182738652e-08
1.00809844709e-08
1.69653239378e-07
2.31829409148e-07
3.32724881495e-08
2.751601073e-07
3.64111100189e-08
3.25065535386e-07
3.42985467679e-07
9.88504354731e-08
2.02848606683e-07
7.77272050493e-08
1.94533601457e-07
5.65922193796e-07
1.34864676238e-07
6.24075555052e-08
7.04755895327e-08
1.60329824323e-07
1.23756855429e-07
2.0076876911e-08
2.41022972724e-07
4.63520868664e-08
1.08055335166e-08
1.64217320837e-07
5.50463788238e-08
1.50409156218e-07
4.88704986075e-08
6.48574647756e-08
1.2878884704e-08
1.80892856273e-07
1.17059312124e-07
8.14772311454e-08
7.16330992484e-08
2.1129438625e-07
2.64249360827e-07
1.65314221197e-07
9.67078415199e-08
1.9895101733e-08
2.90500668909e-07
6.72801572741e-08
1.43990285058e-07
1.73177690746e-07
2.24689370815e-07
3.21574589277e-07
1.24414868667e-08
9.82544833816e-08
2.40619465646e-07
5.02826880729e-08
9.1907562973e-08
1.10954217827e-07
1.10666077659e-07
9.9110083897e-08
5.77034442169e-08
1.1915568315e-07
5.78151802081e-08
8.06905766517e-08
1.09706363826e-08
1.86616037097e-07
1.4491434323e-07
4.20880703247e-08
5.10437041011e-08
2.34502334563e-07
2.00844915819e-10
7.30777050002e-08
7.49819726697e-08
2.16397664645e-07
1.1254047179e-08
6.72473569141e-08
2.05833858234e-08
1.37512755752e-07
4.57639598746e-08
1.26907829149e-07
1.72325070949e-07
8.06184660021e-09
5.35131117562e-08
3.49199665227e-08
5.14222413703e-08
7.67858889365e-09
2.08144057467e-08
4.68538193856e-08
1.70008175914e-07
1.83191626912e-07
3.34637664065e-08
9.42118049258e-08
1.79746555914e-08
2.49278270396e-08
9.48233864736e-08
3.32018796259e-08
1.15981526612e-07
2.44751722533e-08
1.44674184493e-08
3.91563935465e-08
5.6054814813e-08
9.81839735954e-08
2.3475144813e-07
1.84405283705e-07
1.69093822191e-08
7.26958071755e-08
1.00577079351e-07
2.58520651981e-07
2.70548910977e-08
1.30441418598e-07
2.00115259738e-07
1.88205843209e-07
1.05619777372e-08
2.03122873282e-07
6.78905882745e-08
1.48495065871e-07
1.13466630489e-07
1.48508216578e-07
1.9350400382e-07
1.19492278421e-07
6.34517706445e-08
1.81436867416e-07
2.1156413008e-07
2.47228160546e-07
1.84896251957e-08
5.90113488023e-08
1.02663806704e-07
3.85973289742e-07
5.70137209454e-08
6.31710870433e-08
1.23968279852e-07
6.12271631737e-09
6.12961916719e-08
8.56930480681e-09
6.96139655983e-08
8.18356062518e-08
3.23496424626e-08
1.35562461858e-07
7.24715800254e-08
2.0123026384e-07
1.65986917393e-07
6.37926137148e-08
9.98707725926e-08
1.43707389591e-07
2.66125415346e-07
2.33629798634e-07
1.39452467825e-07
8.02239533456e-08
2.22387680955e-07
4.0868225607e-08
1.06322782692e-07
6.30308180728e-08
4.11178149703e-08
2.55280367249e-08
1.23959854059e-07
8.29034439214e-08
3.34721076613e-08
9.61892167186e-08
5.44963652534e-08
2.38317995189e-07
1.48542679617e-07
1.87266704305e-07
1.05467910494e-07
2.33710094706e-07
1.10963815029e-07
2.4172422117e-07
4.53789938112e-08
2.34062061516e-07
8.50989968077e-08
5.11721056863e-08
1.12530523079e-07
5.84542499161e-08
1.76675091096e-08
2.71313837558e-08
1.43913049765e-08
5.82768366305e-08
4.10198514863e-08
3.54951114925e-08
7.66005251141e-08
2.75160645404e-07
2.99237646659e-07
2.63953765259e-07
1.09907897116e-07
8.88122597621e-08
3.07431540048e-08
1.92815541295e-07
1.86089822431e-07
3.86069679034e-07
1.06818458554e-07
1.30922330254e-07
7.69643361741e-09
8.93069926048e-08
1.24729430725e-07
9.08521951167e-08
5.94367908614e-08
4.56383272714e-08
1.7132379894e-07
1.69427109458e-07
1.30595052754e-09
2.20606478906e-07
3.17620024873e-07
9.21928058839e-08
1.04174518983e-07
1.2598521935e-07
4.24142037347e-08
2.47091061158e-07
2.36591478964e-07
1.01638140739e-07
8.58634327101e-08
2.79669000872e-07
7.60280106823e-08
6.12117355474e-08
2.38820048051e-07
2.12608794608e-07
7.9877061282e-08
3.76216868516e-08
4.27385193506e-08
2.76458199807e-07
2.2706621778e-07
3.86478859907e-08
3.01450792592e-08
7.51906428316e-08
3.3830083482e-08
3.14438679874e-08
4.38327689746e-08
2.12622790885e-07
5.39660593872e-08
9.43845419335e-08
1.45495974053e-07
1.65869979153e-07
8.07823474609e-09
1.732316018e-07
1.24446288686e-07
8.77177018863e-08
1.43113317281e-07
9.61163395151e-09
1.21698673323e-07
5.67662579747e-08
2.6528638998e-07
2.57441847389e-07
4.17973466287e-08
1.42013587313e-07
6.5520742093e-08
1.07937031028e-08
9.63854229737e-08
9.26574768839e-09
8.73313871745e-08
7.39570738032e-08
3.8293737096e-08
1.38010635842e-07
9.28444144938e-08
1.9172481354e-08
4.982104296e-08
1.38846304863e-07
4.20488716567e-08
1.53942393156e-07
1.20498844626e-07
7.72465137357e-08
1.1079383883e-07
7.28881956474e-08
1.63264115259e-08
1.41116038641e-08
2.36513593655e-08
4.54498108598e-09
1.41099000073e-07
3.50612634925e-09
1.51446445709e-07
8.24716451426e-08
4.31144880656e-08
6.53102879987e-08
4.32273722548e-08
2.13224612536e-08
7.07214700287e-08
5.12801299795e-08
1.48806132615e-07
4.65585674346e-08
8.74872989512e-08
5.14393714759e-08
4.87725663469e-09
1.64154023803e-07
9.81660322083e-08
1.65044860474e-07
5.49981040163e-08
8.61615978081e-08
9.95370456299e-08
3.38491397988e-07
1.52371951729e-07
2.70805076412e-07
4.75471698643e-08
1.371042184e-08
1.33807853297e-07
1.13375662678e-08
6.03357156342e-08
8.13367944878e-08
9.97330527164e-08
4.34068844792e-08
4.47136272363e-08
5.49867603909e-09
4.62804505243e-08
2.96312412909e-08
1.16937108232e-07
3.66037110853e-08
1.14701859455e-07
7.61728715638e-09
9.22083527816e-08
2.85317720274e-07
1.36310506956e-07
1.22785873341e-07
6.04421552438e-08
2.1522400034e-09
4.14903399044e-08
1.16127550999e-07
1.40832491677e-07
2.28629736634e-08
9.10462949203e-08
1.78955222759e-07
9.9601099178e-08
2.21558471341e-07
2.7090839046e-08
6.64670347705e-08
1.58522881421e-07
2.83604135638e-07
7.87384074761e-08
1.02301460368e-07
1.04350849243e-07
2.24822691652e-07
4.11942984776e-08
1.36882450036e-07
5.46301427528e-08
9.96172366154e-08
5.47030997258e-08
2.1089803009e-07
1.37037310574e-07
1.54608394954e-07
1.09649629159e-07
2.56047431046e-07
1.3522251429e-07
8.37384497799e-08
1.60269443392e-07
1.19191343714e-07
1.47729269643e-07
6.07095991909e-09
5.07200749076e-08
7.03991809898e-08
6.21999907919e-08
1.51303474613e-08
1.38684662196e-07
4.25728974895e-08
2.33222459421e-10
4.94523463008e-08
8.9315074149e-08
7.76578526975e-08
4.15142247077e-08
8.80222988967e-08
1.18126389563e-07
5.92542067146e-08
8.4554860949e-08
4.81033221786e-09
1.14789007471e-08
7.56958877218e-09
1.70720412552e-07
6.06318470888e-08
1.3295581688e-07
7.53258418033e-09
8.68343086099e-08
2.35620281454e-08
5.78879589548e-09
1.15892275372e-08
1.29708625775e-08
5.12546222342e-08
2.93830607381e-08
2.17345339147e-07
1.13019369916e-08
1.02633159385e-07
2.16189760058e-07
5.0305064718e-08
1.15300485502e-07
2.60101195122e-08
5.42652698594e-08
1.5669318676e-07
4.03282509089e-08
1.10781512426e-07
1.44816126819e-07
9.48723732973e-08
3.28938233935e-08
9.67642280028e-08
1.76234212523e-08
6.96530411637e-08
1.11167637724e-07
1.22776809274e-07
4.37488560894e-08
2.71229236835e-08
1.3832537872e-07
1.01995287343e-07
5.17070617922e-08
1.32116563241e-07
1.00982920813e-07
3.28090469565e-08
2.09582266569e-07
5.81734747356e-08
6.73659224623e-09
4.87639887333e-08
8.17151757316e-08
1.02282440821e-09
4.36284214612e-08
1.10629823872e-07
7.412764208e-08
2.90008547463e-07
4.84200775303e-08
3.56916141404e-07
1.27680791418e-07
1.16533175775e-07
5.23258826586e-09
1.2842076433e-09
1.88460958025e-08
6.52437810636e-08
6.72018030909e-08
1.9051225949e-07
2.90898676224e-08
5.75920327348e-08
8.39972286762e-08
4.64103235906e-08
3.18445341623e-07
1.57097969911e-07
6.40315874423e-08
1.51199571576e-09
6.42985812876e-08
1.70012517079e-08
3.94219056013e-08
1.0721008157e-07
1.45154275516e-08
2.02003808977e-08
6.77720798259e-08
1.69605572011e-08
3.39095200842e-08
5.73059166633e-08
4.95613762301e-08
3.87519818752e-08
2.16525994343e-08
3.55356714359e-07
1.34409424176e-07
1.58553672665e-09
6.87743707656e-08
8.59924612896e-08
8.30604247015e-08
2.51253187126e-07
1.1915751004e-07
1.02365576009e-07
5.1638761878e-08
1.11982611577e-08
9.67039440092e-08
1.6667830325e-07
3.06013216201e-07
1.37874367569e-07
1.49880697331e-07
2.17460515886e-08
5.52486550163e-08
7.70592927983e-08
1.76628990985e-07
9.54200705083e-08
6.51631632719e-08
5.20073587997e-08
9.64935430355e-08
1.09804595276e-07
1.40333555198e-09
2.20607565614e-08
2.62879126605e-07
2.87613915639e-08
5.52963907508e-08
4.88574612945e-09
8.61144553337e-08
2.76287394433e-08
5.42001128723e-09
1.77695424803e-08
1.69185041187e-08
1.17841678193e-07
1.0553453782e-07
1.88103112253e-09
9.91519745675e-08
3.7298855044e-08
8.62458041795e-08
2.40982997689e-07
1.52455189364e-07
4.23547297069e-08
2.94065012345e-07
4.84853833996e-08
3.26028317539e-08
1.23350867637e-08
3.80099015871e-08
3.17250862714e-08
1.03799121735e-07
1.01410708715e-07
5.69969346141e-09
8.98846070472e-08
1.76536055772e-07
4.71996767194e-08
1.76466533841e-09
2.42757592814e-08
1.64436734984e-07
2.80709873416e-08
4.5719124606e-08
1.36354291155e-08
1.38125619541e-08
8.03699457629e-09
6.61702115646e-09
1.63683725019e-07
2.69912981121e-08
1.49539016599e-07
1.32636092593e-08
1.03656944811e-07
1.18488763216e-07
3.43773435483e-07
2.46950708832e-08
1.47632240485e-09
4.15521097383e-08
1.15695587404e-07
7.55898865097e-08
2.11600631888e-08
7.00381308208e-08
1.12659652089e-07
9.07704207021e-09
2.7855007619e-08
3.580133156e-08
2.31351792115e-08
3.18111850076e-08
6.48819153261e-08
9.94189328437e-08
1.07136847477e-07
2.78617745685e-09
7.8640375964e-08
1.3322341783e-07
3.58943531737e-08
1.32249190705e-07
5.07879714405e-08
1.81155608472e-08
1.38725434692e-08
2.79509852079e-08
7.58252360013e-08
7.54846965182e-08
5.37366417334e-08
1.82204564518e-08
9.79807854299e-08
3.00400088409e-08
1.00614682552e-07
4.59763485312e-08
6.27875266614e-08
7.08065172009e-08
2.22163009142e-07
8.29311258031e-08
2.61873724095e-08
5.54594556965e-08
1.15226295425e-07
5.99993286188e-08
2.32787229946e-08
1.63176138313e-08
3.67776550566e-09
7.35860624092e-08
2.65397057791e-08
6.16261703819e-08
1.26767007492e-07
3.12838204327e-08
1.01451571146e-07
4.7814029673e-08
2.3954540372e-09
8.85347982921e-08
9.00595541128e-08
1.29619019507e-07
5.61427177152e-08
2.91347780189e-08
7.51979321597e-08
8.0409256064e-09
1.15895840225e-07
1.51646358729e-07
2.37230776404e-07
4.77491331061e-08
1.82591067493e-07
2.11033960457e-07
2.58161411031e-07
9.50772547493e-08
2.75622189389e-08
2.01515980969e-08
6.27166402663e-08
4.02900568564e-09
2.12152381214e-07
3.86619933228e-08
3.12782171301e-08
1.19999110693e-07
3.59622004677e-08
1.57955646261e-07
2.89606672834e-07
3.57814642347e-08
2.79809294722e-07
1.04647001465e-07
2.64459808578e-08
1.0290523715e-07
8.09914662237e-08
4.737205002e-09
1.45480369466e-08
5.62414556816e-08
4.43243209707e-08
1.89495886681e-07
1.22912271623e-07
9.5486600186e-08
1.35448396525e-07
1.39171504543e-07
6.25074468536e-08
1.33705120986e-07
1.06968946734e-07
1.25185377801e-07
3.18055720901e-08
2.05993794773e-08
3.50671461461e-08
2.10171876002e-07
2.51224943069e-09
2.7419844183e-07
2.50565333275e-08
5.78488871165e-08
9.26402196455e-08
1.88004875167e-07
5.28536991198e-08
8.76034476901e-09
5.91271751204e-08
8.63844262856e-09
2.83260694667e-07
2.54255989511e-08
7.83055112523e-08
1.20246572389e-08
6.31244600027e-08
2.58840981486e-08
1.03140350297e-07
2.36171356661e-08
4.01417797811e-08
3.34455643992e-08
6.55571200069e-08
4.9017972227e-09
4.80546261049e-08
3.02738191476e-07
2.29420951319e-08
4.61225132013e-08
5.19096064908e-08
2.21671603906e-08
9.49109072863e-08
4.89270879544e-09
1.70085447611e-08
8.67918862075e-08
1.71201189622e-07
1.19288747428e-07
3.88146957581e-08
8.13193687198e-08
7.93219027542e-08
7.5352091349e-09
8.75228407072e-08
3.69278205609e-08
1.53138502659e-07
5.00556039463e-08
6.13175211389e-09
3.22050812305e-07
1.40307859595e-07
4.71253357491e-08
6.90854808587e-08
1.28720090138e-07
1.12730445305e-07
1.92168064992e-08
4.55616048841e-08
1.02842686746e-08
2.02793174415e-08
4.30128893581e-08
8.00481674221e-08
1.81652477741e-08
2.40415994426e-08
1.03429674849e-08
1.41972401266e-09
9.63538393282e-09
6.09966813007e-08
4.28733748766e-08
3.81065035925e-09
3.72074783528e-08
1.6080813416e-07
2.00490657998e-07
1.69108801252e-08
3.62571185712e-08
9.15515019757e-08
1.72779946404e-07
6.64271998689e-08
7.65416395767e-08
5.02814628887e-08
3.21906072833e-08
5.19116853584e-09
5.05241529467e-08
1.07089537926e-08
3.01941196953e-08
4.00757736099e-08
2.19082065736e-08
1.46369763712e-07
5.67275140388e-08
1.04325292561e-07
9.75079191988e-08
1.83672403408e-07
5.53902586716e-08
5.03433961853e-08
7.9393623589e-08
7.8582599612e-08
9.58380508142e-08
2.52474659179e-08
1.52902456842e-07
9.34222482051e-08
1.47875510202e-07
9.94015933843e-08
2.61575339897e-08
2.10487516688e-07
3.76159643075e-09
3.57950942259e-08
1.94036227781e-08
4.80944988715e-08
1.92344643576e-08
1.1682912937e-07
1.59446574491e-07
5.18679774794e-08
1.9628786353e-08
3.78556500767e-08
8.04813419739e-08
4.12819838165e-08
1.04544822488e-08
2.98203261593e-08
2.23648670907e-08
3.7964924686e-08
1.36513530796e-07
1.87983375599e-07
5.75251533629e-09
4.26496029934e-08
3.34568063513e-09
1.24023536932e-08
1.07423685269e-08
9.9001239795e-08
1.22137476251e-07
4.67819018444e-10
7.72889770571e-08
2.72721801997e-08
1.52465779739e-07
1.47690765033e-07
9.12103136078e-09
7.1120792313e-10
1.76573061233e-09
9.59922520224e-09
1.38593829085e-09
1.66605330404e-08
1.22994188491e-07
1.82358923681e-07
4.36912228634e-08
3.42478021161e-07
5.62155477685e-08
2.44357536705e-08
3.8761198861e-08
1.31984740243e-07
1.02805452006e-08
1.49945250727e-08
1.30190114366e-07
5.04584107119e-08
3.44069070531e-08
4.55598696994e-09
6.74481932823e-08
1.12069440306e-07
1.33855746399e-08
8.34681238312e-08
1.24021481792e-07
9.47638225757e-08
9.73308470894e-08
6.37460096629e-08
1.88248560933e-07
3.74281190767e-08
6.92458277006e-08
3.61850588304e-08
1.02675075852e-07
2.86868783858e-08
2.34797621787e-07
1.05704197626e-07
2.26221592725e-08
9.24594467016e-08
1.92994702573e-07
4.33765162152e-08
2.15360061039e-08
2.80722602042e-09
4.91169276849e-08
1.41946724189e-08
1.15922900455e-07
6.11133319792e-08
8.32240099038e-08
5.70297978824e-09
1.48049643907e-07
6.10201740205e-08
1.46690610251e-07
3.13261649362e-08
2.17893640582e-08
6.6067933328e-09
4.24474992102e-08
3.74209419126e-08
2.62405982799e-08
1.00078718965e-07
6.3879251765e-09
1.03184294135e-07
1.47710731198e-07
2.41397342012e-08
5.15536731675e-08
1.79108992998e-07
1.54751725682e-07
3.06358963039e-07
1.73977177395e-09
1.59264969242e-07
1.31144242842e-07
1.23615619628e-07
3.57334680293e-08
1.17653526327e-08
1.06668394913e-07
5.61505426111e-08
1.92438757883e-08
5.84821751777e-09
6.96225232274e-08
1.41408152458e-08
4.48725884104e-08
2.11850982574e-07
1.18201061974e-07
7.17434105042e-08
9.1303331392e-08
6.73943570863e-08
1.65617857426e-08
1.81744180749e-08
9.76185991018e-08
1.39332908857e-07
2.65690421251e-08
3.31841644221e-08
9.4551916257e-08
3.85064778758e-08
1.7294667022e-08
2.65276560845e-07
4.09323830064e-08
2.48267567686e-10
6.90837133034e-08
5.96695453124e-08
2.1651433957e-07
1.39804289731e-08
8.90803258444e-08
7.17554493923e-08
3.56540704015e-08
9.41811370871e-09
1.22477433587e-07
1.46920497532e-07
6.99467098372e-10
3.80188523063e-08
5.05153632643e-08
9.99756167361e-08
1.97486194661e-08
1.01607834598e-07
2.13695023212e-08
3.29220723597e-07
1.17235650305e-07
1.93720009824e-07
2.53347651475e-08
4.0239765849e-08
4.56432783493e-09
8.18585931231e-10
6.74055173386e-08
2.4988777914e-07
5.97790156613e-08
1.51848645448e-08
1.80554778955e-08
4.55744923231e-08
8.51024468717e-08
5.13745179538e-08
4.60030959938e-08
5.47620965521e-08
1.00178381284e-07
2.62677170175e-08
1.3884169623e-08
2.36953448231e-07
4.1512067829e-08
1.04689201373e-08
3.1006026058e-08
6.11616324351e-08
1.54431540177e-08
2.07695337031e-08
1.3511343986e-07
1.11054680423e-07
3.15484786901e-08
1.17047714586e-08
1.37911591519e-08
1.37444632908e-08
2.17262576321e-08
4.9698612718e-08
2.00348638355e-08
3.16145524643e-07
7.22941249531e-08
8.95945953936e-09
2.3484402392e-09
1.82012055823e-08
4.0324146616e-08
3.07907890017e-08
1.16501140356e-07
3.61574522395e-09
8.15626609128e-08
7.12913301972e-08
2.41173963678e-08
6.06118924075e-08
5.78768902812e-08
1.74774646301e-08
4.16961587253e-09
3.38434448104e-08
8.86040353286e-08
1.49509570571e-08
3.60604904247e-08
4.37313414448e-08
1.27598759285e-07
1.65361627847e-08
7.71351692466e-08
8.00473680007e-08
6.99921166765e-08
2.75765662046e-08
9.77945533348e-08
1.38482955257e-07
6.88363302395e-09
1.33362379795e-07
1.08664619818e-07
1.68121721906e-08
1.11736863965e-07
4.93339291601e-09
1.68303826121e-08
1.89504244237e-08
3.12051254397e-09
4.92158254813e-09
3.40527257924e-08
4.20810364495e-08
4.28972004134e-08
8.41494729608e-08
1.33338441936e-07
8.70352723314e-08
9.67791141446e-08
8.84210049477e-08
8.41716474191e-09
6.8517758291e-08
9.28472880015e-08
7.91331918043e-08
9.65169562464e-08
6.36283049671e-08
2.27466308316e-08
5.13168447191e-08
2.42141471685e-07
5.32390272821e-09
1.1815819903e-07
6.98037983012e-08
1.41591066341e-08
5.0531912614e-08
4.56618938452e-08
7.94730841826e-08
4.78586732826e-08
1.18863765619e-08
4.74732160865e-08
1.04968113998e-07
1.43722543182e-08
1.73730764212e-07
4.21921843069e-08
2.8113706174e-08
6.74217349725e-08
1.14028500567e-08
9.37324664103e-08
2.93605894076e-08
8.62685890146e-08
9.83017002257e-08
4.29368539619e-08
9.99767757943e-08
1.03637037402e-07
7.83876181897e-08
7.20396737161e-08
2.31145695296e-07
3.85073633855e-08
8.4280275168e-08
7.97140309975e-08
3.46802365432e-08
1.09900700188e-07
1.91573827e-07
1.45947734728e-07
4.43882230289e-08
4.37749041942e-10
1.29533817075e-07
1.15924444261e-07
1.64527829921e-07