# vtk DataFile Version 3.0
File Name: Molecule/special/special_0-s23.vtk
ASCII
DATASET UNSTRUCTURED_GRID
FIELD FieldData 1
TIME 1 1 double
0.0
POINTS 814 double
0.17987047136 -0.17572744191 -0.96755254269
0.081384629011 -0.32432687283 -0.94238096476
0.00045650755055 -0.2088740021 -0.97793662548
-0.0083307176828 -0.46485763788 -0.88517534733
-0.10960792005 -0.31893366575 -0.94139015675
-0.16701596975 -0.16323825717 -0.97217983007
-0.76011240482 0.1013129577 -0.64172762632
-0.74970728159 -0.16342779994 -0.6405313611
-0.87571126223 -0.031080799177 -0.48151963949
-0.2944894135 -0.58174562454 -0.75811260939
-0.3928630352 -0.71195745468 -0.57953065634
-0.558765769 -0.45532187819 -0.69212126732
-0.076745539904 -0.72816377878 -0.67979067564
-0.30639863014 -0.82184356451 -0.47705516219
0.25652611256 0.1681150049 -0.95178085566
0.15123277903 0.23346656561 -0.96028757095
0.25873216987 0.30952960253 -0.91505002975
0.86091828346 0.25097042322 -0.44230365753
0.71543735266 0.1753461659 -0.67623573542
0.67140924931 0.40367093682 -0.62129896879
0.54595386982 0.2642929852 -0.7949898243
0.60460346937 0.039347223938 -0.79557478428
0.95335948467 0.15458104014 0.25858849287
0.92681342363 -0.0039316467009 0.37376928329
0.98059999943 -0.10077989846 0.16749079525
0.20280681551 0.30154317617 0.93153530359
0.15764853358 0.22065287828 0.9623632431
0.22396416962 0.2274851203 0.9476685524
0.46434316039 0.090900622308 -0.88092917204
0.38472649455 0.23161801696 -0.89351034164
0.23200081289 0.16722500324 0.95821589231
0.18328608572 0.17560575902 0.96712619066
0.69790917635 0.69555610418 0.16977162659
0.70824664831 0.60849297047 0.35774198174
0.83858776093 0.48722556233 0.24238465726
-0.57755750418 0.10205440223 -0.80987668037
-0.48009583354 0.30389133096 -0.82290220261
-0.42273494601 0.14124651253 -0.89508795738
-0.30821955204 0.26068019867 -0.9148182869
-0.30547398329 0.11697022617 -0.94497281313
-0.74387192726 -0.57754683495 0.3359336555
-0.76426488161 -0.4258132875 0.48316410184
-0.88190162182 -0.3084897995 0.35639482737
-0.16831804812 -0.080270566046 0.98238283396
-0.19965788722 -0.15615345538 0.96733903885
-0.11841982603 -0.12974463403 0.98444223404
0.50347113609 0.6902731657 0.51937496662
0.39061433077 0.67860519886 0.62173062563
0.54251503944 0.55374199152 0.63091027737
0.41498401761 0.54879659414 0.72563201189
0.34252202511 0.80701088905 0.48037457466
-0.28807339072 -0.18943162262 0.93867218494
-0.26309409738 -0.10653405637 0.95865905285
-0.43582004309 0.65192252398 0.62049984932
-0.38657036424 0.76118260622 0.52042889595
-0.52545911074 0.68080824614 0.50989305973
-0.31660029292 -0.55037540197 0.77249157429
-0.18477363884 -0.58031630516 0.79304552078
-0.26086112857 -0.47491729259 0.8404699564
-0.1599599272 -0.43249329925 0.88725465536
-0.23591919243 -0.36921435595 0.89891159534
0.57728511095 -0.4657214582 0.67067319155
0.61305463314 -0.31200474501 0.72529089451
0.50547575951 -0.38711294532 0.77096474171
0.69634783268 -0.43302318454 0.57172006369
0.61196565628 -0.6008901 0.51413953304
0.55159401894 -0.81129771471 0.193455562
0.71571481228 -0.61247044802 0.33451497555
0.53383052349 -0.75075447559 0.38902831078
-0.13300435245 -0.35213032365 0.92639541626
-0.026847843081 0.90023589134 0.43442857265
-0.079630896449 0.96351629496 0.2554628551
-0.22116492689 0.90344393253 0.36562630534
-0.2787438035 0.95104491711 0.13329514861
-0.0488367863 0.99836367369 0.012148404494
0.35019436479 -0.082765690982 0.93288302422
0.42439374328 -0.053360506892 0.90385401249
0.37791708112 0.00658438541 0.92581254244
-0.46650204062 -0.4967328012 0.73127824068
-0.38840931654 -0.44870355725 0.80483067036
-0.50441908836 -0.36924904585 0.7804967761
-0.4867785275 0.52275657654 0.69969475269
-0.56269961596 0.40025362372 0.72329425812
-0.47010391951 0.40800383687 0.78261762857
-0.60576212406 0.49126183987 0.62570244074
-0.52053689957 0.30307006836 0.79822778702
0.06427488476 0.66595488787 0.74313420057
-0.041902661324 0.73536896706 0.67627894878
-0.080469675362 0.66714793444 0.74044549465
-0.21341226995 0.67720854282 0.70399194956
-0.16804525256 0.75300383568 0.6361322403
-0.32318633795 0.31775650382 0.89139062166
-0.41812157631 0.32586017251 0.84792709351
-0.38458648324 0.24174031615 0.89070916176
-0.31758722663 0.40509706736 0.85732144117
-0.24147409201 0.38168957829 0.89198952913
0.22186607122 0.79105067253 0.56939131021
0.14846634865 0.86892050505 0.47199717164
0.056620124727 0.82792305946 0.55735301971
0.13453710079 0.94132983685 0.30894717574
-0.096819326282 0.82289344072 0.55846148729
-0.56725525856 0.59289175272 0.57140225172
0.27902430296 0.95479053259 -0.10251838714
0.28868627548 0.95352363586 0.079780347645
0.4629009068 0.88579183817 -0.023856811225
-0.48759397864 -0.83820098639 0.24291247129
-0.26196199656 -0.9573803544 0.12122360617
-0.26515564322 -0.90835183859 0.32297998667
-0.058866221458 -0.9640455246 0.2587287128
0.0052502052858 -0.99993038177 0.0080089252442
-0.31469893456 0.56045627594 0.76564514637
-0.23629438877 0.48358374834 0.84279364347
-0.21331956983 0.57549232244 0.78936469555
-0.14668534696 0.53925257921 0.82900309563
-0.606084764 -0.16906860471 0.77714759111
-0.53301358223 -0.10212825239 0.83989751339
-0.62649512291 -0.018910257146 0.77917486429
-0.51028370857 -0.2454584837 0.82415282726
-0.53177946806 0.029053539038 0.846144557
0.41313701868 -0.44266885519 -0.79579788446
0.3899538517 -0.61103916168 -0.68887734413
0.25499078631 -0.49823617935 -0.82817417383
-0.46681439877 0.23100878298 0.85363459587
-0.54330474138 0.19152845442 0.81686115265
-0.47629293799 0.1265527308 0.87010228634
0.13928857446 -0.43902251124 0.88761359453
0.066164113581 -0.42079943419 0.90469861031
0.062807060778 -0.51061522961 0.8574936986
-0.071894578636 -0.3999735117 0.91343539953
0.13732029498 -0.6046462059 0.78453302383
0.024298055097 -0.58703529835 0.8091583252
-0.042646434158 -0.5226072669 0.85127645731
0.0028387811035 -0.46276670694 0.88636595011
0.11628805846 -0.35071113706 0.92920213938
-0.61198061705 -0.28445059061 0.73792845011
-0.49853089452 0.82935541868 0.24968017638
-0.50118267536 0.86528897285 0.0078455992043
-0.70056450367 0.70318388939 0.11787299067
-0.68521261215 0.71764606237 -0.11523751169
-0.84790289402 0.52922749519 -0.030773060396
0.2533916533 0.44368460774 -0.85967320204
0.14191040397 0.39863398671 -0.90577477217
0.1491612792 0.5682194829 -0.80925381184
-0.45197752118 -0.058661825955 0.8900988102
-0.44046956301 0.038193263113 0.89696979523
-0.38789305091 -0.0097802020609 0.92161744833
-0.34534302354 0.063212029636 0.9362757802
-0.20517574251 -0.44391253591 -0.87227165699
-0.065203204751 -0.5931725502 -0.80213904381
-0.29482001066 -0.28236722946 -0.91288346052
-0.37978473306 -0.40976107121 -0.82935202122
-0.46332114935 -0.26034405828 -0.84688544273
-0.48554942012 0.47912320495 -0.73058187962
-0.60578536987 0.42898711562 -0.66907453537
-0.52685987949 0.59379541874 -0.60811054707
-0.35827496648 0.63966649771 -0.67948126793
-0.43466243148 0.74653440714 -0.50391435623
-0.66995918751 0.6085704565 -0.424500525
-0.8858448863 0.20337471366 -0.41697728634
-0.75714325905 0.31790173054 -0.56907147169
-0.64269834757 0.25485500693 -0.72248524427
0.30938059092 0.033213190734 0.95035380125
0.24952322245 0.016319856048 0.96813046932
0.30011323094 -0.032404601574 0.95335006714
0.23354075849 -0.049903754145 0.97105884552
0.17611452937 -0.037117287517 0.98352092505
0.19127841294 -0.098648697138 0.97652095556
0.31710594893 0.54235470295 -0.77795904875
0.3868163228 0.38535112143 -0.83775520325
0.48820361495 0.47393447161 -0.73275530338
0.1304063946 -0.27715110779 0.9518814683
0.18690209091 -0.29547688365 0.93688595295
-0.32780700922 -0.39008522034 0.86045622826
-0.45983031392 0.84842246771 -0.26005837321
-0.26243409514 0.95582920313 -0.1319347918
0.271818012 -0.095861919224 0.9575663805
-0.58251208067 -0.40227782726 0.70599162579
-0.41810280085 -0.34368297458 0.84087473154
0.44572398067 -0.5163885951 0.7312400341
0.38441514969 -0.42563411593 0.81918078661
0.27776232362 -0.47635054588 0.83423095942
0.32158380747 -0.54144376516 0.77660107613
-0.33744132519 -0.29853972793 0.89277893305
0.31040906906 -0.25400653481 0.9160387516
0.37975126505 -0.28843715787 0.87896472216
0.37671530247 -0.19601087272 0.90505176783
0.31557518244 -0.34338995814 0.88455045223
-0.37837728858 -0.13323621452 0.91604143381
-0.44776204228 -0.16431574523 0.87887084484
0.19074496627 -0.36704966426 0.91043633223
-0.69811248779 -0.18956685066 0.68986594677
-0.053059514612 0.96193230152 -0.26814183593
-0.24404582381 0.88460105658 -0.39739787579
0.017032507807 0.85910856724 -0.51140326262
-0.84423416853 -0.53532022238 -0.025037849322
-0.68825101852 -0.71217006445 -0.1377171576
-0.69764202833 -0.70607227087 0.1209866479
-0.4958447516 -0.86831510067 0.0044060843065
-0.47465392947 -0.84417051077 -0.24633482099
0.18146876991 0.70271676779 -0.68789201975
-0.016641760245 0.69861853123 -0.71526539326
0.0060579800047 0.51757156849 -0.85517418385
-0.20521360636 0.76521462202 -0.61021393538
-0.19409781694 0.61743825674 -0.76201140881
-0.36928510666 -0.2079051286 0.90577608347
0.47219616175 -0.06473210454 -0.87904638052
-0.042064923793 -0.85981798172 -0.50891441107
0.20078505576 -0.78326350451 -0.58768117428
0.21094149351 -0.62544590235 -0.75085771084
-0.53627222776 -0.098530396819 -0.83826041222
-0.65444231033 -0.049036420882 -0.75441014767
-0.61507987976 -0.22887700796 -0.75387561321
-0.72740721703 -0.35238316655 -0.5882229805
-0.69035798311 -0.61383664608 -0.3811583519
-0.8743069768 -0.42053949833 -0.24160848558
0.79771459103 -0.33053728938 -0.50427377224
0.65244346857 -0.2665348947 -0.709220469
0.73968428373 -0.096438750625 -0.665972054
0.57951849699 -0.1453474164 -0.8018040061
0.45869618654 -0.20268049836 -0.86504524946
0.51184487343 -0.31048542261 -0.80096244812
-0.29029765725 0.0051598912105 0.95692312717
-0.25280359387 0.051916226745 0.96611315012
-0.23978771269 -0.02163601853 0.97050404549
-0.19234064221 0.047187536955 0.98017972708
-0.21089670062 0.09433029592 0.97294485569
[...]
CELL_DATA 1624
SCALARS cell_data_0 double
LOOKUP_TABLE default
2.15969071011e-07
2.03119605358e-07
8.48355513576e-08
2.27062901945e-08
4.71577055507e-08
1.2791583086e-07
4.65527215254e-08
2.42794655056e-07
1.45539763008e-07
2.49119887798e-07
3.58127772795e-08
1.44030260816e-07
1.77044139891e-07
1.78157804918e-07
1.17111367939e-08
1.488072288e-07
5.81535994427e-08
1.49466141994e-07
1.30393624344e-08
3.11393122834e-08
3.23589238201e-07
1.6102559801e-07
2.3227799484e-08
1.33644214991e-07
2.21454217074e-07
9.63705448507e-08
4.57308278772e-08
1.63772749114e-07
2.74373036496e-07
1.16024938221e-07
3.34750411047e-07
4.39773417848e-07
9.71893903399e-08
5.22488356285e-08
1.10920662503e-07
1.88275710083e-07
1.95062522946e-07
8.98971627251e-08
5.70768567941e-08
4.15679645316e-08
6.4121677571e-08
3.38688196286e-08
1.26676548525e-07
2.01550050522e-07
7.64799854174e-08
4.15726254004e-09
1.74673445722e-07
7.56795021353e-09
8.33871169063e-09
1.48861215254e-07
1.11649039277e-07
1.14782579828e-07
1.34893848389e-07
3.8020423304e-08
7.28961196973e-08
2.5785645443e-09
1.13342715772e-07
1.2433045127e-07
2.0958735833e-07
1.44043456981e-07
1.0756315542e-07
1.84751354541e-08
1.55173741591e-07
2.66937802458e-07
9.90184302844e-08
8.37582887129e-08
1.32893664549e-07
6.61871972074e-08
1.70972945725e-07
9.9697479193e-08
5.59934046719e-08
4.96903080187e-08
1.31985619532e-07
3.54334497981e-08
1.1384126185e-07
7.84982720799e-08
5.40207809989e-08
1.84079941409e-08
7.27489229959e-08
4.53020797516e-08
7.96503144335e-09
1.77152413844e-07
9.56593710386e-08
9.52691383082e-08
1.27815049195e-07
9.1491066904e-08
4.28005196173e-08
1.52329401701e-07
1.33859515073e-07
2.79536858374e-07
4.70363900363e-09
3.09332783284e-07
2.26561098053e-07
2.629208034e-08
3.93607417597e-08
9.16612261989e-08
1.88547708001e-07
2.2205492988e-07
1.83836928354e-08
6.1689168775e-08
4.23658046017e-08
1.64724249657e-07
3.31240062006e-08
4.60371645407e-08
3.82322682646e-08
1.01895485263e-07
2.37630541038e-07
1.02052826309e-07
1.25712222964e-07
2.01919228734e-07
1.15738738919e-07
2.18209634463e-08
4.80152525995e-08
1.28206147873e-07
1.55178083101e-07
2.77833590071e-08
1.49656320815e-07
6.7707977597e-08
2.98833404118e-08
1.85189514336e-07
1.86025768742e-08
1.04875567809e-07
1.81201658853e-07
2.18126345309e-07
1.67395727507e-07
2.18894917846e-07
1.39534068424e-07
2.55410059969e-07
3.39086625353e-08
1.54655085418e-07
3.86583583227e-08
2.49393978561e-08
4.26284474503e-07
6.04635296271e-10
2.89571290538e-07
1.3889803138e-07
2.31213116714e-07
1.59765104013e-07
2.91230891461e-07
3.24316854489e-08
1.65633353548e-07
2.14261117655e-07
1.06485527711e-07
9.81185221708e-08
5.33199098813e-08
2.83368939643e-08
1.35288060408e-07
1.47512462969e-07
1.61965309707e-09
2.78420680542e-08
9.43172046422e-08
3.20037611932e-08
3.29157495932e-07
1.11790619884e-08
6.86270652445e-08
9.70666534184e-08
1.39279690663e-07
4.45887453046e-08
4.15280727959e-09
1.45620947012e-08
1.86669581546e-07
6.88061243626e-08
9.23190340717e-08
3.42116297275e-09
5.32244928771e-08
9.26601410166e-08
1.3660197486e-08
3.93482905711e-08
1.8258321975e-08
1.76791628696e-08
2.44741570379e-08
1.32043838731e-07
6.5013862431e-08
6.51491106317e-08
1.24398100287e-08
5.56097044844e-08
1.74509340575e-07
3.79322345353e-08
8.12618940208e-08
5.18797315127e-08
6.76470769184e-09
1.47753637557e-08
9.65998042275e-08
1.04946098921e-07
2.7384861259e-07
6.34119977632e-08
2.35877398998e-08
1.49135260404e-07
7.79826666725e-08
2.06543903037e-07
6.67500380265e-08
3.54487274429e-08
1.02682128083e-07
1.50405003061e-07
2.75858142848e-08
2.0285598758e-07
1.04678196494e-07
9.07379499863e-08
2.15050983415e-07
2.53074344076e-07
2.60502996185e-07
9.47708141295e-08
4.05724135393e-07
1.12376206215e-07
7.25330643804e-10
1.9613461174e-07
1.30101453354e-07
4.90990497048e-08
2.99341129694e-08
6.9382328638e-08
3.68913225976e-08
6.1370288698e-08
3.42858016156e-08
1.54407658855e-07
2.71008521545e-08
6.69208645755e-08
9.42776207972e-08
3.56898243935e-08
7.90589532023e-08
3.94571372515e-08
1.12301772606e-07
2.74718210086e-07
1.75911992681e-07
1.518629844e-07
3.33505053548e-08
2.55665182046e-07
1.78394475215e-07
8.36007610535e-08
2.11323189389e-08
1.83512266058e-07
5.57354132763e-08
8.0059670353e-08
2.64954463098e-08
4.35905398688e-08
1.36847726435e-08
1.65150298771e-07
1.25562067333e-07
1.08490695375e-07
5.76044415394e-08
5.09879123487e-08
5.0262295019e-08
1.86703989661e-07
1.14649965246e-07
1.2779038292e-07
8.19660037787e-08
1.24950117232e-07
1.59085613747e-07
1.27178746562e-07
4.56415989748e-08
8.86446993895e-08
6.06454708992e-08
5.51197956548e-08
1.65449881414e-08
7.94315502263e-09
2.78928237146e-07
7.42477701303e-08
3.72942912578e-07
1.7695378387e-07
1.32178855331e-07
6.22767943322e-08
1.8900087724e-07
4.01293472867e-07
7.67920697419e-08
2.59449358207e-09
3.80736813712e-08
1.09819190962e-07
1.12339299222e-07
9.84221266269e-08
1.45614418899e-09
1.94553073729e-08
4.49842531605e-08
1.32394755135e-07
2.59730747204e-08
5.26411039445e-08
9.61033997679e-08
3.29521323902e-08
3.94696969854e-08
8.98830333955e-08
1.67734595143e-07
7.36379381702e-08
7.34286252212e-08
2.16002773717e-07
3.3785478819e-08
3.31640439788e-09
4.89150310413e-08
1.76898884561e-08
1.99888083621e-07
1.88623627588e-07
1.98765116173e-07
1.13989636045e-07
2.07923191041e-08
1.36018880052e-08
3.81888843586e-09
2.2588259314e-08
3.32793971858e-08
2.08011497994e-07
2.16126861036e-07
5.90157451583e-08
4.12710055475e-08
1.34198853184e-07
1.42490402641e-07
1.72139344455e-09
1.69249161606e-07
2.22305020734e-07
1.00728534959e-07
1.22422237438e-07
1.65809149722e-07
5.78963408566e-08
3.87641161806e-08
2.77483190146e-07
4.35741574602e-08
1.64898288313e-08
1.56004599946e-07
6.81653355693e-08
6.60153564743e-08
4.8733356671e-07
1.86842850798e-07
1.42779054635e-08
1.51244497331e-08
3.14830197494e-08
9.15389298118e-09
4.48498591373e-08
9.01676404967e-08
3.89084274502e-08
1.30163948794e-07
1.00527027058e-07
1.17509089262e-07
8.18607855734e-08
1.08102378096e-07
3.42130392753e-08
5.09179270651e-08
1.21354946345e-07
1.34856306464e-08
1.74792378856e-08
1.73662575414e-07
1.32615451062e-07
8.6659406305e-08
1.02946025436e-07
5.38686573812e-08
6.92132193362e-08
8.41499478429e-08
4.54020740128e-08
5.7384515451e-08
2.02281919803e-07
7.8236240762e-08
1.38953896651e-07
1.12701670469e-07
5.13551109336e-08
2.72665352217e-08
9.69715455263e-09
1.03102704016e-07
7.39694480228e-08
5.6861885705e-08
7.55943697218e-08
8.32209163535e-08
1.41073751125e-08
1.1945130416e-07
1.17150963406e-07
6.02753319029e-08
3.67929671238e-08
4.71738210049e-08
9.44806289669e-09
1.3645078849e-07
4.52793640748e-08
6.61548402079e-08
4.82649475995e-08
1.65327132948e-07
9.41653014711e-08
3.42025138701e-07
3.13577247224e-07
6.31151615529e-08
9.66670240647e-08
5.18920948518e-09
6.29257652039e-08
1.12546611695e-09
9.75759458307e-08
1.89802076733e-07
2.7726777817e-07
1.20851333229e-08
7.75149091407e-08
1.78616217988e-07
5.58832862476e-08
4.89460938659e-08
4.66676410083e-08
2.52533546211e-07
1.4683851443e-08
1.28245186332e-07
2.28557323247e-07
2.54118231334e-07
2.27807163745e-07
2.73098967468e-08
4.20943974168e-08
9.78508535075e-08
4.85203221094e-08
4.97951794649e-08
1.08606991926e-07
7.25468467338e-08
3.13099606189e-08
9.82432041235e-08
5.61396192259e-08
4.54385268576e-07
1.2905123404e-07
5.42158317982e-09
5.82440987834e-09
1.69029949014e-08
1.53671923733e-07
1.77964375052e-08
2.2066571806e-08
5.07784446831e-08
9.89757476372e-08
4.75582057098e-10
3.4675644229e-08
3.91183584315e-08
1.080713295e-07
1.72804615247e-08
1.3672847932e-07
4.74203577195e-08
4.4002360519e-08
1.0491562584e-07
1.59275510454e-07
1.66688810853e-08
1.59557727735e-08
6.06637032838e-08
1.76882089891e-07
1.35157286824e-07
3.34283998049e-08
1.60629243808e-08
1.34063755066e-08
6.79302350821e-08
2.89084382061e-08
2.68610945631e-08
1.88293490589e-07
1.45837487537e-07
2.11747924193e-07
5.97469285829e-08
8.2126760254e-08
1.06392790347e-07
7.4164169048e-09
9.19166079167e-08
1.43465323255e-08
8.78804703921e-08
5.96435206391e-09
2.47813026937e-08
3.86014346451e-09
1.24210656796e-07
1.08390463584e-07
7.97283293677e-08
4.60133542501e-08
1.84448698561e-07
9.43933102468e-09
6.2347291515e-08
1.45980953323e-07
2.12167825533e-08
3.08381344427e-08
2.53648908685e-07
1.52915597427e-07
1.22806504714e-07
2.90657588532e-07
6.60400507663e-08
3.75901665586e-08
1.22712599151e-07
8.22727167132e-08
5.70428323096e-08
4.88070463695e-08
1.89424721416e-08
3.65972050965e-07
3.13064172071e-08
2.41881111604e-07
3.09266381061e-07
7.38808223518e-08
1.4123785602e-07
4.36760427187e-08
1.42081282441e-07
7.8468910725e-08
8.69931899854e-08
1.77371215865e-07
5.02868448444e-08
3.03208167043e-08
7.51651067959e-08
1.86847809538e-08
1.7248772085e-09
5.92001783574e-08
1.32712756146e-07
1.17115393031e-07
2.55925140423e-08
1.01877847002e-08
4.09534738682e-08
6.62583668398e-08
1.574042865e-08
1.71138888479e-09
7.31635101619e-08
3.60410673969e-08
2.74245209013e-07
4.10242848255e-09
2.39357512692e-08
6.32314295701e-08
2.05887929831e-07
1.1616064231e-07
2.87751350967e-07
2.41858493845e-08
5.77405859939e-08
5.04515798824e-08
4.12808990516e-09
1.45232751534e-07
1.1865189574e-07
8.15607522911e-08
4.1270110564e-08
1.1969217599e-07
1.10255414058e-07
5.89694742559e-08
2.61340585099e-08
2.05219299245e-07
5.74867640258e-08
8.19538175181e-08
2.32615508951e-07
3.96025311957e-08
1.88492693723e-07
2.36149182039e-07
8.09011083374e-08
8.84899436555e-08
1.2177473638e-08
6.77345509815e-08
1.86543602278e-07
1.61225006333e-08
2.1038174352e-08
9.93264829366e-08
2.05751866569e-07
2.57161785024e-07
2.78540841985e-07
1.46991082894e-08
6.56034823706e-09
2.48880394039e-07
3.06241740834e-09
2.59125388684e-08
1.44832726615e-08
4.00538100915e-08
3.67510050489e-08
1.9208114047e-08
7.0965309557e-08
1.14624492255e-07
9.42072963422e-08
1.56189808939e-07
3.98257962038e-08
3.52929143791e-08
1.14161332422e-07
9.09034351051e-08
4.860101643e-08
6.83039956742e-08
4.0705187918e-08
3.28961681715e-08
4.6719795784e-08
5.96436811108e-08
7.95672453566e-09
2.17988929311e-07
1.63995764938e-07
1.55303975368e-07
1.45536362583e-08
2.91532447256e-08
1.46787867794e-07
2.0777136357e-07
4.95214788413e-08
1.0429062908e-07
1.48136387672e-07
1.93824660289e-07
1.02023392964e-07
1.69334893915e-07
6.17586876543e-08
8.91419874674e-10
4.67202939844e-08
6.4472569063e-08
8.4997242376e-08
1.62137354659e-07
1.94141059972e-10
3.28963142791e-08
2.67347410486e-08
7.83018672712e-08
5.71919190029e-08
5.0075226006e-08
8.65970594877e-08
6.21707966521e-08
6.52605364383e-08
8.25748217899e-09
2.72897176683e-08
3.78757480972e-08
1.5944128336e-07
2.14041758841e-07
2.06168425279e-07
6.0837125047e-08
2.68161939116e-08
1.36871246615e-07
1.16448725177e-07
1.36740147087e-07
5.19049052669e-08
1.32942787451e-08
9.17523505907e-09
2.55541135054e-08
7.7877678014e-08
7.8013047537e-10
5.05561584775e-08
7.08680234976e-08
5.55254811247e-08
5.106210854e-08
2.56107834564e-08
7.99592374144e-08
6.43585194148e-08
9.04201112551e-08
9.22343187524e-08
8.44828363203e-08
1.17011558449e-07
6.38050637824e-08
1.06122652921e-07
4.64040186448e-08
1.60003084427e-08
2.41891409116e-07
1.4860744992e-07
1.60435566796e-07
4.68940921952e-08
1.49926442735e-07
2.51345971678e-07
2.29477353794e-07
5.06668030481e-08
9.79088630832e-08
1.44539215302e-07
1.05586738941e-07
4.30078534519e-09
4.68759678896e-08
2.11515905908e-10
3.19928186216e-09
1.53808457263e-07
4.67767336948e-08
3.33901681231e-07
1.46204509829e-09
2.42979157883e-07
2.09423362666e-08
3.04611586849e-08
8.80121142029e-08
7.07967328845e-08
5.64530241947e-08
8.3601613121e-08
1.32050462846e-07
1.48298832386e-07
4.11501610297e-08
1.70028550696e-08
3.8348784749e-08
1.59311067278e-07
6.70915755981e-08
2.05688500451e-08
1.15205854031e-07
6.10344801568e-08
7.93119640119e-08
8.46911646097e-08
1.85278068777e-07
1.58424568381e-08
1.66018741429e-07
5.91162924089e-08
2.07498505377e-08
4.58391646071e-08
6.71762126889e-08
6.1630819569e-08
2.85069690681e-08
2.80553924021e-08
2.70662926283e-08
2.19240752928e-07
2.30447614925e-08
3.21252001727e-08
7.02871576195e-08
1.35199510524e-08
2.74385892866e-08
3.7361731956e-09
4.23673063318e-09
2.61036703392e-08
1.31148020214e-08
3.10529602334e-08
1.99692018473e-08
6.62051060088e-08
6.69571336788e-10
1.35708997055e-07
8.28593969341e-08
3.43460163812e-08
1.14081357173e-07
6.72764280541e-08
1.0503709504e-07
1.39852259615e-07
1.25415350934e-07
1.04868245962e-07
3.29241937205e-07
2.86069238273e-07
2.09322046803e-07
5.89657433161e-08
8.31744090517e-08
4.77722616564e-08
9.56336992958e-08
1.64509442016e-09
3.3561397511e-08
1.45101311677e-07
4.31360425616e-07
4.23955384238e-08
5.09679626839e-08
1.0474521397e-07
9.47019553647e-08
4.85998313862e-09
1.1536380101e-07
9.96551436023e-08
3.51058324059e-08
5.48244511468e-08
7.94612361169e-08
4.69760641959e-08
2.06561565218e-07
1.14266505451e-07
2.90252980749e-09
7.17295352408e-08
5.73199665443e-08
1.10794371157e-07
1.06329482889e-07
1.01480946616e-07
2.47551817737e-08
8.81932493862e-08
8.70499552866e-08
9.17643484118e-09
1.79801188934e-08
3.33422507088e-08
9.05426085115e-08
9.23129457301e-09
4.76252212897e-08
4.02019216153e-08
4.94529006995e-08
4.59346663867e-08
6.3441966757e-08
8.50608412661e-09
1.07200705762e-07
8.43694467662e-09
1.63807879117e-07
6.29305827641e-09
2.44442707353e-08
7.65494225813e-08
7.67082414691e-08
7.73627119039e-08
1.21913433265e-08
8.91872513491e-08
4.91382387081e-08
1.77823313032e-07
1.04303712909e-07
7.42292060211e-08
1.56325738669e-07
1.06076725677e-08
9.13748733511e-08
1.45046522712e-07
2.46801512649e-08
9.85639253536e-08
1.68231068942e-07
7.86474995265e-08
4.75361315286e-08
2.91034970855e-08
5.53101469651e-09
1.23770876952e-07
3.18577523263e-08
2.47553200786e-08
6.56512243552e-08
1.31196185531e-08
4.06817632908e-08
2.30013821059e-08
5.48590738141e-08
1.80621402808e-07
7.58489475193e-08
4.69218153663e-08
9.1935889489e-08
8.07297337662e-08
3.01062151395e-08
2.82324622147e-08
1.45676422048e-07
1.61852257165e-07
4.12800754382e-09
2.04851020606e-08
3.69715397719e-08
2.63913309619e-07
7.96797071858e-08
2.35872718665e-08
2.2926281867e-10
2.10608240768e-08
7.42494143457e-09
8.52914456261e-09
4.64377103973e-08
2.12058929265e-08
4.31302350065e-08
6.17789295453e-08
1.7195945928e-07
3.43876621473e-08
1.4994824662e-07
1.39611474191e-07
4.2769672714e-08
6.03440347479e-08
1.16508201796e-08
3.29158615246e-08
4.52084328245e-08
1.41583131752e-08
8.04158869631e-08
1.75282242214e-07
1.11748315262e-08
7.8646350167e-08
1.88207577829e-08
1.72050366492e-07
1.56001359422e-07
2.43601397885e-07
3.01087969981e-08
1.33827142477e-08
1.41352082823e-07
4.79530546926e-08
6.61234655172e-08
4.43285663823e-09
2.77841556748e-08
4.4910996429e-08
6.81161989828e-08
4.81057891394e-08
3.93103490586e-08
2.19516411268e-07
3.77719586671e-09
1.53302687215e-07
3.54653064881e-08
2.9404151824e-07
1.89525988692e-08
6.04385570862e-08
3.15105043099e-08
2.46424442925e-08
1.04937179656e-07
2.07439045e-09
5.27153335212e-08
4.56825564991e-08
1.12084867651e-07
2.43831611163e-07
3.78376760182e-08
5.89444673397e-08
1.2956275329e-07
1.67805319619e-07
8.45640152998e-09
1.33145691149e-07
2.71831782273e-08
3.13003305187e-08
2.70619761077e-09
7.44293419441e-08
1.33373139512e-07
2.56304891922e-08
2.01175367251e-08
7.22225463083e-08
1.67557750475e-08
3.73215935594e-08
1.56130212107e-07
6.85457579663e-08
5.88215795535e-08
2.95998168703e-09
2.21087271073e-08
1.03371403009e-07
1.16621298768e-07
1.10198385238e-07
3.01834564146e-08
2.42740679186e-08
4.938914268e-08
2.81661649881e-08
9.02901747206e-08
1.15037412193e-07
4.34865360826e-08
1.24767156637e-07
2.71040084199e-08
2.5623295396e-07
3.32935807533e-09
5.09766865837e-08
3.72885547611e-08
1.02173254676e-08
8.18589348739e-08
4.48779931973e-08
2.35279028923e-08
2.87040694046e-08
1.41690273786e-07
5.92785643252e-08
1.31121580603e-09
7.67253114937e-08
1.11387413725e-07
5.98138114764e-08
2.94107575778e-08
1.64376448979e-07
2.59782275009e-08
1.33209435245e-07
4.25648907478e-08
1.21499685643e-07
1.2376409484e-07
4.49639607929e-08
4.62209627345e-08
1.39065137635e-07
2.48850717547e-08
3.06755664885e-08
9.08789906655e-08
1.58071570212e-08
1.34644487532e-08
1.97809462527e-07
4.37442414527e-08
3.71603216318e-08
2.88951834133e-08
6.97298152484e-08
2.95545767672e-08
8.80311598884e-08
6.80284410502e-08
9.12354589752e-08
2.86760005802e-08
2.60995435542e-07
5.20402872254e-09
1.98615833345e-08
3.58352036641e-08
2.59344887871e-08
9.01683289921e-09
7.43396077841e-08
4.3474012793e-08
6.59416744881e-08
3.71626360826e-08
1.72262749282e-07
1.14601441576e-09
1.66450197099e-07
1.75818719852e-07
6.03450965626e-08
1.05446615942e-08
1.73886199589e-08
6.42486325273e-08
9.07294519495e-08
1.13059335466e-07
5.98713724164e-08
4.99525054831e-08
1.3777858846e-07
4.52163680617e-08
4.70264156836e-09
1.24023453806e-07
4.28287515618e-08
1.24996312975e-07
3.38342089595e-08
4.02184236899e-08
1.7026596477e-08
1.17054669766e-08
6.81322006326e-09
9.53923198618e-08
6.81011201279e-08
2.30823816168e-08
5.73525957901e-08
1.74908896184e-08
7.71724644862e-08
1.25397420036e-07
4.40358428829e-08
5.37913915322e-08
8.50180752751e-08
1.39240779187e-08
1.53270461247e-08
5.73122502539e-08
5.55355002758e-08
5.85816681825e-08
7.06174194625e-08
5.82655205106e-08
3.22411873436e-08
8.68890194021e-08
8.56016864987e-08
1.05489579498e-08
3.13076199333e-08
1.43201103372e-07
3.04521601635e-08
3.19482170955e-08
3.35347808342e-08
1.0814047155e-07
7.32836136968e-08
8.42797016892e-09
4.80657357545e-08
2.00779082874e-08
1.09514861592e-07
3.54932493374e-08
6.51960064181e-08
1.30648625329e-08
5.15630834644e-08
1.26458614394e-08
3.57965372608e-08
2.67124351859e-08
8.26931649749e-08
1.79005121352e-08
6.55254085522e-08
1.54250732656e-08
1.12661628681e-07
8.70955416767e-09
1.15654379135e-08
3.76732906853e-08
2.89703134567e-08
1.61247497265e-08
5.66040216842e-08
2.01218361222e-08
1.06855338973e-07
1.90067830613e-09
7.79977286295e-08
7.29694840228e-08
8.91960850008e-08
5.46897716234e-09
6.98020182426e-08
1.31696527711e-08
2.16073521026e-07
1.03148511665e-08
2.01436452591e-09
3.54119058769e-08
1.2962014494e-07
1.81438539566e-07
1.83133858167e-07
2.62694107515e-08
4.43707918071e-09
2.09015223647e-08
9.24164704308e-08
6.54787564797e-09
2.39429701213e-08
2.90017657498e-09
1.14151550916e-07
1.21656270728e-07
1.40882289616e-08
7.74469622473e-08
1.76024289795e-08
6.10148083438e-08
3.84900453423e-08
5.8744547974e-08
2.86231918016e-07
2.86100564877e-07
1.24211279538e-07
4.75196139737e-09
1.18442166751e-07
1.32210160881e-07
1.72524347547e-08
1.22519009818e-07
6.1420350896e-08
2.54819344063e-08
2.29950627021e-09
3.63713497665e-08
2.16329095997e-08
1.54572153431e-07
1.26724466465e-08
6.10593909857e-08
1.61392237567e-08
5.36258764218e-08
3.80333031231e-08
2.30049269444e-09
1.01684292412e-07
3.36228097761e-08
9.78545106063e-09
1.67284227396e-08
2.26593748365e-08
1.54620097407e-07
6.82687426312e-09
1.69187720797e-08
3.4121031124e-09
1.04110957662e-08
1.34761621043e-07
1.87483391987e-07
1.05629313287e-07
1.63391907938e-07
1.07481152549e-08
4.41520644772e-08
2.34072605052e-08
4.05768411778e-08
1.02161507779e-07
3.26979110372e-08
8.42941717272e-08
6.34336521247e-08
1.7821202597e-07
3.55078025452e-08
9.51143906457e-08
1.79422507397e-07
5.79165224932e-08
7.08747249347e-08
1.10950899898e-07
9.67792010961e-08
4.45339055479e-08
3.74415502847e-08
8.09405948373e-08
1.45717681555e-08
5.4239699004e-08
1.16831193541e-07
1.52626519972e-07
3.18783455363e-08
4.69124726552e-08
8.34563941353e-09
4.60517402428e-08
2.42136626751e-07
1.0563652997e-07
2.21817804577e-07
4.62199899558e-08
1.13467406245e-08
4.83692225776e-08
3.49307963136e-08
5.8569307369e-08
1.50865732636e-08
9.81879970495e-08
2.52770901078e-08
1.62849303443e-07
1.84312843044e-07
9.67042807801e-08
8.49483725494e-08
1.174518166e-07
2.78109691762e-08
7.72719229285e-08
1.45562456215e-07
1.55210417593e-07
1.39652569319e-07
6.19173638558e-08
8.13925783506e-08
2.49775273603e-08
7.4950123633e-08
6.9716680168e-08
6.1172000172e-08
6.05693843262e-08
7.94499458836e-08
2.95189156201e-08
9.38597101571e-08
2.20333536089e-08
1.21210194391e-08
8.85551917282e-08
5.26288222001e-08
8.26521412527e-09
1.62113132502e-08