# vtk DataFile Version 3.0
File Name: Molecule/special/special_0-s2.vtk
ASCII
DATASET UNSTRUCTURED_GRID
FIELD FieldData 1
TIME 1 1 double
0.0
POINTS 45 double
0.85065078735 -0.52573114634 -3.4963279494e-10
0.8089299202 -0.30898076296 -0.49995392561
0.99989193678 1.0586461485e-06 1.2236864677e-07
0.80892986059 0.3089889884 -0.49995884299
0.52552062273 0.00017829315038 -0.85077852011
0.85065048933 0.52573162317 1.4218528577e-07
0.49994567037 0.80893594027 -0.30899468064
0.32209512591 0.50431263447 -0.79912596941
0.00015486154007 0.85045337677 -0.5260232091
0.49994698167 0.80892926455 0.30898305774
-1.14457157e-06 0.99989539385 -1.8388407625e-05
-3.6736631159e-07 0.85065078735 0.52573114634
-0.49994683266 0.80892920494 0.30898308754
-0.49994015694 0.80893671513 -0.30900120735
-0.85065096617 0.5257307291 -3.5752509575e-07
-0.30898281932 0.49994546175 0.80892956257
-0.8089299202 0.30898213387 0.49994522333
-0.52573090792 -6.5528274718e-07 0.85065090656
0.30898344517 0.49994572997 0.80892914534
1.5365266393e-08 -1.64494827e-06 0.99989140034
0.52573162317 -4.0845515059e-07 0.85065048933
-0.30898413062 -0.49994599819 0.8089287281
0.30898475647 -0.49994620681 0.80892831087
9.6851380249e-09 -0.85065114498 0.52573055029
0.80892920494 -0.30898344517 0.49994564056
0.49994519353 -0.8089299798 0.30898210406
0.3089850843 -0.49993905425 -0.80894351006
1.947585406e-05 -0.01684407331 -0.99819749594
-0.30908495188 -0.50013595819 -0.8088118434
1.1483540163e-07 -0.85065329075 -0.52572709322
-0.52540510893 7.6817494119e-05 -0.85083580017
0.80892914534 0.30898344517 0.49994564056
-0.80892765522 -0.3089761734 -0.49996072054
-0.80892771482 0.30898416042 -0.49996519089
-0.99989181757 1.0816345366e-06 -3.3073612826e-07
-0.85065060854 -0.52573144436 -2.3797220194e-08
-0.32206901908 0.50429713726 -0.7991489768
-0.49994492531 -0.80893212557 -0.30897963047
-0.49994570017 -0.80892914534 0.30898347497
8.4108319243e-07 -0.99989140034 1.5452543778e-07
-0.80892908573 -0.30898341537 0.49994561076
0.49994531274 -0.80892938375 -0.30898496509
0.16186583042 0.26323899627 -0.9510705471
-0.1618808955 0.26323658228 -0.95106840134
6.0153870436e-06 0.52516764402 -0.85101604462

CELLS 86 344
3 0 1 2
3 1 3 2
3 1 4 3
3 2 3 5
3 5 3 6
3 3 7 6
3 3 4 7
3 6 7 8
3 5 6 9
3 6 10 9
3 6 8 10
3 9 10 11
3 11 10 12
3 10 13 12
3 10 8 13
3 12 13 14
3 11 12 15
3 12 16 15
3 12 14 16
3 15 16 17
3 11 15 18
3 15 19 18
3 15 17 19
3 18 19 20
3 17 21 19
3 21 22 19
3 21 23 22
3 19 22 20
3 20 22 24
3 22 25 24
3 22 23 25
3 24 25 0
3 4 26 27
3 26 28 27
3 26 29 28
3 27 28 30
3 0 2 24
3 2 31 24
3 2 5 31
3 24 31 20
3 5 9 31
3 9 18 31
3 9 11 18
3 31 18 20
3 30 32 33
3 32 34 33
3 32 35 34
3 33 34 14
3 8 36 13
3 36 33 13
3 36 30 33
3 13 33 14
3 35 37 38
3 37 39 38
3 37 29 39
3 38 39 23
3 35 38 40
3 38 21 40
3 38 23 21
3 40 21 17
3 17 16 40
3 16 34 40
3 16 14 34
3 40 34 35
3 30 28 32
3 28 37 32
3 28 29 37
3 32 37 35
3 29 41 39
3 41 25 39
3 41 0 25
3 39 25 23
3 4 1 26
3 1 41 26
3 1 0 41
3 26 41 29
3 27 42 4
3 4 42 7
3 27 43 42
3 43 44 42
3 43 36 44
3 42 44 7
3 36 43 30
3 30 43 27
3 7 44 8
3 44 36 8

CELL_TYPES 86
5
5
5
5
5
5
5
5
5
5
5
5
5
5
5
5
5
5
5
5
5
5
5
5
5
5
5
5
5
5
5
5
5
5
5
5
5
5
5
5
5
5
5
5
5
5
5
5
5
5
5
5
5
5
5
5
5
5
5
5
5
5
5
5
5
5
5
5
5
5
5
5
5
5
5
5
5
5
5
5
5
5
5
5
5
5

CELL_DATA 86
SCALARS cell_data_0 double
LOOKUP_TABLE default
4.050761143e-07
1.9515999367e-06
1.16673992468e-05
2.1010421948e-06
3.63633087529e-06
4.94932653574e-06
2.02684782644e-05
1.16905020092e-06
1.78423923917e-06
6.47308539471e-06
3.86214816241e-06
2.59224752578e-06
2.36488024124e-06
6.43510016589e-06
4.0272301326e-06
1.51607305138e-06
1.46896340408e-05
2.18919940885e-06
3.67793994525e-06
5.89456028402e-05
6.73636562906e-05
0.00014274378634
7.48094782814e-05
5.62924322793e-05
7.21565293407e-05
0.000171726360415
6.37672492566e-05
9.67455472314e-05
5.95605361984e-05
1.808099674e-06
1.37998145866e-05
2.56514654343e-06
2.31547822442e-06
5.71203319253e-05
1.98146020643e-05
4.37703894966e-06
1.85933929974e-07
1.34332584321e-06
4.51463247494e-06
8.88422501616e-06
3.38094647555e-06
4.06875214649e-07
1.39297102592e-05
6.00406653693e-05
1.15810689215e-05
2.06444022018e-06
2.73334891613e-07
2.38762892844e-06
1.09455800495e-06
5.15144122407e-06
2.10892953956e-05
3.75079169024e-06
2.49972416849e-06
2.15893896094e-06
1.46211706174e-05
5.23661422384e-06
2.48744788669e-06
3.29845747119e-07
1.4643988004e-05
5.81903115079e-05
7.97765198953e-06
1.1871778968e-06
4.35681059705e-06
4.29907448096e-07
1.08119130996e-05
3.36357433244e-05
1.85839165402e-05
1.14100223709e-05
1.45179941957e-05
1.91123822396e-06
2.17450139589e-06
5.38664338617e-06
1.08817613869e-05
3.3324418969e-05
1.12885572719e-05
1.8281593731e-05
6.3585001775e-05
3.90762321248e-05
6.04192618241e-05
3.67390178707e-05
1.65315488156e-05
1.64684795988e-05
3.97201993907e-05
6.21167158991e-05
1.51829661264e-05
1.50529890415e-05

