# vtk DataFile Version 3.0
File Name: Molecule/special/special_0-s19.vtk
ASCII
DATASET UNSTRUCTURED_GRID
FIELD FieldData 1
TIME 1 1 double
0.0
POINTS 459 double
-0.010830714367 0.51425397396 -0.85736346245
-0.16321691871 0.38174641132 -0.90973109007
-0.17938877642 0.59907728434 -0.78032630682
-0.12991565466 0.22656591237 -0.96500140429
-0.0058948211372 0.29766458273 -0.95462739468
0.14141002297 0.21577715874 -0.96559047699
0.13114091754 0.37460637093 -0.91761291027
0.23107558489 -0.15534994006 -0.96029049158
0.11926431209 -0.33015671372 -0.93638211489
0.0071687516756 -0.17767806351 -0.98398530483
-0.0012652938021 -0.52336037159 -0.85184693336
-0.1093769297 -0.31952479482 -0.94117432833
-0.22461295128 -0.12563511729 -0.96597748995
-0.72355824709 -0.17723947763 -0.66706871986
-0.8595161438 -0.24417993426 -0.44609200954
-0.74776542187 0.11258853227 -0.65348511934
-0.59763020277 -0.44382032752 -0.66770118475
-0.29299724102 -0.5703830719 -0.76719361544
-0.41055089235 -0.71521270275 -0.56539845467
-0.69394600391 -0.59386348724 -0.40691253543
-0.46223726869 -0.84922063351 -0.25342455506
-0.027322588488 -0.85811179876 -0.51231366396
-0.030650749803 -0.70424354076 -0.70883065462
0.25696361065 0.15070566535 -0.95444571972
0.25275838375 0.30098667741 -0.91953736544
-0.029909925535 0.14055941999 -0.98945498466
-0.30883133411 0.27222082019 -0.91134214401
-0.44151714444 0.73575842381 -0.51357907057
-0.68591743708 0.59767645597 -0.41341635585
-0.46986064315 0.84492313862 -0.2543977797
0.040369607508 0.18555741012 0.98142462969
0.093083634973 0.10821983218 0.9897543788
0.14064149559 0.21333636343 0.96668273211
0.076259657741 0.00072706135688 0.9970792532
0.14734537899 0.032201647758 0.98852175474
0.20005269349 0.12428347766 0.97183084488
-0.19932106137 0.10703124851 0.97382682562
-0.18101768196 0.036892868578 0.98267036676
-0.15131679177 0.12101662904 0.98093879223
0.86633557081 0.27227672935 -0.41666480899
0.70542281866 0.58116102219 -0.40548437834
0.87060475349 0.48301893473 -0.08595982939
0.6523245573 0.41341924667 -0.63475865126
0.7093038559 0.17578944564 -0.6825838089
0.53666144609 0.26253953576 -0.80190241337
0.59752070904 0.030801698565 -0.8012060523
0.94984507561 0.17100167274 0.26038369536
0.89577758312 0.0095425210893 0.44173955917
0.97141945362 -0.12194274366 0.19719234109
0.82512962818 0.28930681944 0.48405340314
-0.25964134932 0.24675987661 0.93349397182
-0.32012614608 0.31662780046 0.89290839434
-0.37774294615 0.21371637285 0.90090209246
-0.2148142159 0.36644855142 0.90479040146
0.33450329304 0.29098913074 0.89634358883
0.41672742367 0.18115632236 0.89028918743
0.47392955422 0.336389184 0.81288605928
0.2027785778 0.31747683883 0.925994277
0.24181905389 0.22483146191 0.9438868165
0.30703821778 0.16004018486 0.9378489852
0.44999197125 0.078963182867 -0.88926291466
0.37656876445 0.2389305383 -0.89491796494
0.69503992796 0.70280796289 0.14635387063
0.68982976675 0.61479109526 0.37998268008
0.84903055429 0.46071583033 0.25831320882
0.47006976604 0.84091073275 0.26790848374
0.50812798738 0.70953971148 0.4883338809
-0.57869797945 0.091135516763 -0.810372293
-0.47679981589 0.29587224126 -0.82772874832
-0.41409832239 0.11525847018 -0.90229833126
-0.32233694196 0.46843934059 -0.82232135534
-0.29295501113 0.10358238965 -0.95034629107
-0.11223328114 -0.3299831152 0.93728673458
-0.00025008956436 -0.33579409122 0.94191032648
-0.031126182526 -0.2470433414 0.96828383207
0.068771265447 -0.21369062364 0.9744643569
-0.0015638482291 -0.15000379086 0.98867899179
-0.88159281015 -0.31343963742 0.35234794021
-0.82070475817 -0.19106315076 0.53845840693
-0.91791594028 -0.017797613516 0.39635524154
-0.81258893013 0.052259933203 0.57954519987
-0.098822973669 -0.13527548313 0.98565560579
-0.047238580883 -0.064473815262 0.99656200409
0.18835662305 -0.74585473537 0.63890272379
0.21314664185 -0.8744764328 0.43507608771
0.36537098885 -0.73774778843 0.56688517332
-0.036223530769 -0.85461908579 0.51781386137
-0.49741151929 -0.82101976871 0.2799628973
-0.56836032867 -0.65517652035 0.49755889177
-0.73760455847 -0.58412200212 0.33847811818
-0.75049155951 -0.42162311077 0.50895112753
-0.60402399302 -0.49203079939 0.62672102451
-0.5519208312 0.6669408679 0.50065672398
-0.73468339443 0.56931936741 0.36875236034
-0.59782671928 0.50950908661 0.61843192577
-0.72937357426 0.38769212365 0.5631955266
-0.49931293726 0.8173212409 0.28734835982
-0.16434207559 -0.067668825388 0.98378968239
-0.19372802973 -0.15027202666 0.96945822239
-0.36834135652 -0.11391549557 0.9226270318
-0.27334272861 -0.095578014851 0.95715588331
-0.36909133196 -0.018775478005 0.92922186852
0.38736593723 0.67544472218 0.62746590376
0.56601530313 0.51864302158 0.63912570477
0.40267679095 0.54107713699 0.73799258471
0.32557332516 0.82416236401 0.46314275265
-0.28056496382 -0.20016388595 0.93851953745
-0.71004641056 -0.16962371767 0.68240809441
-0.69435048103 -0.32061952353 0.64395713806
-0.32683417201 0.56117933989 0.76044857502
-0.22286260128 0.69711279869 0.68132007122
-0.42710545659 0.6386885047 0.64006721973
-0.34833315015 0.77147352695 0.53237712383
-0.33954781294 -0.78128236532 0.52355092764
-0.31743699312 -0.57563859224 0.75359755754
-0.15060672164 -0.59168434143 0.79201120138
-0.26031917334 -0.47840631008 0.83867996931
-0.1499453932 -0.44238772988 0.88420838118
-0.2308074683 -0.35484081507 0.90587091446
-0.0021699024364 -0.70794904232 0.70630776882
-0.19785277545 -0.71785742044 0.66742396355
0.0025724992156 -0.58778965473 0.80905914307
0.52491605282 -0.16975949705 0.83382642269
0.61973124743 -0.27356779575 0.73547166586
0.6427153945 -0.090956814587 0.76058101654
0.7475502491 -0.19947896898 0.63290071487
0.71484738588 -0.42064508796 0.55842667818
0.57611125708 -0.45798814297 0.6769887805
0.49603644013 -0.35497134924 0.79101127386
0.84140902758 -0.3297059834 0.42671734095
0.72737455368 -0.59215515852 0.34633865952
0.60635882616 -0.61215078831 0.50718009472
0.54535001516 -0.81204241514 0.20769365132
0.51775223017 -0.75648903847 0.3988301754
0.15359827876 -0.59538549185 0.78860324621
-0.429317981 -0.64125239849 0.6359885931
0.15999512374 0.94042575359 0.29976123571
-0.031928021461 0.89211022854 0.45046615601
-0.069754064083 0.96229875088 0.26301267743
-0.2451544106 0.89081537724 0.38259279728
-0.27246379852 0.95243990421 0.13617402315
-0.022858534008 0.99926310778 0.010238212533
0.25930982828 -0.46808895469 0.84477776289
0.14966824651 -0.44768670201 0.88154226542
0.31157189608 -0.56435805559 0.76432478428
0.20158234239 -0.36392295361 0.90923720598
0.35052990913 -0.086870275438 0.93252068758
0.43445158005 -0.0712691769 0.8975559473
0.38794240355 0.0073933647946 0.92148798704
0.37630954385 -0.17593303323 0.90961891413
-0.47312137485 -0.50234138966 0.72375708818
-0.39055031538 -0.44883623719 0.80380368233
-0.51003658772 -0.35553762317 0.78322094679
-0.47571974993 0.51315367222 0.71436429024
-0.44972664118 0.41585999727 0.79045563936
-0.56911891699 0.38596874475 0.72563117743
-0.52290022373 0.29309722781 0.80024677515
-0.013764902949 0.55762720108 0.8298959136
0.062507003546 0.6398499012 0.76594144106
-0.080796815455 0.64565587044 0.75934451818
-0.017099011689 0.73173713684 0.68131744862
0.18144249916 0.7026258111 0.68779039383
-0.41643837094 0.32097449899 0.8506193161
-0.3328050971 0.42015373707 0.8442261219
0.1576410383 0.54389041662 0.82396531105
0.22644622624 0.78057992458 0.58264839649
0.0634881109 0.80468803644 0.59019881487
0.1427448988 0.86199337244 0.48605126143
-0.13768137991 0.8081766963 0.57255685329
-0.17829246819 0.57421475649 0.79905098677
0.27165484428 0.95606011152 -0.10812792182
0.26843205094 0.95891338587 0.091806188226
0.4710713923 0.88184279203 0.017423033714
-0.25843688846 -0.95699614286 0.13156665862
-0.24578583241 -0.89826506376 0.3643951118
-0.041888292879 -0.95882302523 0.28055039048
0.013842648827 -0.99967122078 -0.0076834955253
-0.23499108851 0.48223716021 0.84393578768
-0.13848717511 0.47492310405 0.86863279343
0.18642441928 -0.12141524255 0.97493857145
0.1755284667 -0.20675674081 0.96242165565
0.27497708797 -0.16926980019 0.94642841816
0.30437302589 -0.25577363372 0.91745573282
-0.58528339863 -0.18812760711 0.78855007887
-0.52024757862 -0.11054651439 0.8467168808
-0.63341027498 -0.018134906888 0.77303689718
-0.48859784007 -0.24658852816 0.83660495281
-0.53530967236 0.02809404768 0.84408450127
-0.54582256079 0.16944020987 0.82050776482
-0.65245044231 0.15306894481 0.74158209562
-0.62107640505 0.27450564504 0.73400831223
0.31298944354 -0.30687084794 -0.8988391757
0.40941926837 -0.43980202079 -0.79926842451
0.24548125267 -0.46192607284 -0.85215479136
0.38605925441 -0.60596853495 -0.69551038742
0.11053512245 -0.063685439527 0.99181234837
0.099042497575 -0.13903337717 0.98531574011
0.039298526943 -0.079194247723 0.99608498812
-0.45722833276 0.12821935117 0.88004499674
-0.35449808836 0.087452888489 0.9310080409
-0.46671369672 0.22583976388 0.855081141
-0.053635336459 -0.4033831358 0.91344320774
0.058450780809 -0.40637481213 0.91179996729
0.0033719767816 -0.45303288102 0.89144551754
-0.056398715824 -0.50564652681 0.86086249352
0.060854289681 -0.50776326656 0.85932320356
0.11382926255 -0.34590709209 0.93132179976
-0.61683094501 -0.28312379122 0.73431974649
-0.50320261717 0.86404794455 0.015256147832
-0.70350754261 0.69909191132 0.12691651285
-0.68045711517 0.72196352482 -0.12545631826
-0.8539827466 0.51945030689 -0.026756823063
0.25333830714 0.43789413571 -0.86258274317
0.15740464628 0.5625885129 -0.81152743101
-0.29447138309 -0.0018451897195 0.95564001799
-0.45001643896 -0.055732626468 0.89127385616
-0.43673056364 0.036082196981 0.89886975288
-0.22394800186 -0.42982015014 -0.87462949753
-0.29952719808 -0.28070229292 -0.9117564559
-0.38731640577 -0.11858362705 -0.91407603025
-0.38510242105 -0.40045905113 -0.83144634962
-0.45492145419 -0.24362571537 -0.85632050037
-0.8867918849 0.1984860003 -0.41414800286
-0.47196769714 0.48319795728 -0.73740303516
-0.36369872093 0.62391358614 -0.69165033102
-0.53376829624 0.58396464586 -0.61152046919
[...]
CELL_DATA 914
SCALARS cell_data_0 double
LOOKUP_TABLE default
3.08012771866e-07
5.00742227739e-07
1.47914432344e-07
1.40533322063e-08
4.79294322493e-07
1.27423906203e-07
6.94789317734e-08
5.88733111696e-08
4.73750158887e-07
2.30518810701e-07
2.11582733892e-07
4.58630950537e-07
2.65368629489e-07
4.32302673824e-07
5.10045924386e-07
4.04526538361e-07
4.56582093231e-08
1.64694723827e-07
2.87554712147e-07
2.84108396327e-07
4.29317392442e-07
1.97217029064e-07
4.01167231495e-07
1.0884300741e-07
1.45957026401e-08
5.58527330674e-07
6.14949457782e-08
1.56119626956e-07
2.91176601821e-07
4.21813292145e-08
8.20391183192e-08
9.47892649493e-08
5.45098367247e-08
6.57708454832e-08
9.97154267506e-07
6.92107573428e-10
3.5066521079e-07
2.11681859295e-07
2.29892117887e-07
4.04888627268e-08
1.04170406969e-07
9.20900296035e-08
2.50572064395e-07
5.76091294935e-07
2.87685479819e-07
1.89746438585e-07
8.77290106257e-08
3.73552099831e-07
6.36380195237e-07
3.08462873484e-07
1.203694052e-07
2.46564966029e-07
2.20491639364e-07
5.90906069018e-07
2.60807039596e-07
9.16083803946e-08
2.61746969336e-07
1.24232515532e-07
3.60671616335e-07
2.16671831772e-07
1.0381108902e-07
4.23410942544e-07
4.83839246719e-07
5.09824619529e-07
1.94103672712e-07
2.78467003955e-07
4.74786373691e-07
3.43657185196e-07
2.77060330374e-07
3.45735156618e-07
3.32399493988e-07
1.45737072856e-09
7.91920045179e-09
7.20749384879e-08
6.56079925909e-08
4.39511448494e-07
3.46846682982e-07
1.15222717756e-07
4.3030391639e-07
7.59288934836e-08
4.72055777241e-07
3.91840715309e-08
2.75510786057e-07
7.84892668198e-08
6.12977475019e-07
1.08900602534e-07
6.12901159741e-07
3.23431805391e-07
1.14385830039e-07
1.02215785155e-07
2.34644079242e-07
2.50708405543e-07
3.32226471134e-07
1.72102254814e-07
2.03916510978e-07
4.0184303658e-07
5.23685118843e-07
2.47692024822e-07
2.35352598103e-07
1.14051172538e-07
6.22459987727e-07
8.81962438667e-08
4.80394528435e-07
5.53583323862e-07
3.4727230418e-07
1.77293863834e-07
3.93143559592e-07
1.1658399684e-07
9.57619617589e-08
3.20574902132e-08
1.57474855608e-07
5.965470699e-07
5.18519780061e-08
1.31329623036e-07
2.23880867726e-07
2.30508383683e-07
3.32861539011e-07
4.10521313474e-07
3.75091376288e-07
1.08179726355e-07
1.62282023837e-07
1.09023924022e-07
4.26201511159e-07
1.02115010595e-07
3.29346702219e-07
4.91132919922e-07
2.77672974898e-07
1.36323827643e-08
1.80599027287e-07
1.50255948516e-09
6.26362106851e-07
4.39284526908e-08
4.33393567974e-07
1.33233696496e-07
6.48968972561e-07
1.21556184195e-07
2.7627996823e-07
4.8582080911e-07
4.34245807101e-08
1.34040153841e-07
1.00527548658e-07
8.70357306363e-08
3.32643342763e-08
1.41578962886e-07
1.55754854398e-07
2.1351308543e-07
1.41215075111e-07
4.22706451063e-07
2.6698482731e-07
2.06876161382e-07
1.12707539292e-07
2.06791686128e-07
2.06254777226e-07
2.14404462798e-08
2.90299660566e-07
2.17516235896e-08
1.38973772955e-09
7.38812300708e-08
2.86563465388e-07
4.04130033676e-08
1.92623636763e-07
3.45121360405e-07
1.09113761242e-07
2.57972403916e-07
4.12142268104e-07
6.00226236154e-08
1.63730042916e-08
3.07190838099e-07
1.30502136635e-07
5.21570252734e-07
1.98786056473e-07
2.03889249915e-07
4.0208170062e-07
1.59719326713e-07
2.16625512385e-07
5.84262863581e-08
3.80911814725e-08
2.05571467262e-07
5.39769333874e-07
1.4004240914e-07
9.76921074312e-08
5.22235666348e-07
1.01900248008e-07
1.28899381144e-07
2.69860885378e-07
4.13783544875e-07
1.49552364154e-08
1.25129094097e-08
6.9213721425e-08
1.60724340022e-07
2.79103371924e-07
1.26724843861e-07
2.48918336485e-07
1.98396732534e-08
9.34316144516e-08
1.89360960072e-07
4.96685681463e-08
5.13778745975e-07
1.1821542494e-07
2.5566826719e-07
2.61904522471e-07
7.13408772446e-07
1.81779224366e-07
3.33073487426e-07
2.73143824977e-07
2.92512974399e-08
5.32276197606e-08
1.8834437362e-07
1.13578397942e-07
3.10593526559e-07
1.15676315681e-07
2.14237550991e-07
1.23002770286e-07
2.32592388502e-07
3.01108480463e-07
2.74375020538e-07
1.44359679179e-07
1.71781739012e-07
8.17732188802e-08
3.68236724716e-07
5.64406057819e-08
3.61490612285e-08
3.56645201323e-07
3.18627928763e-07
3.33204201325e-08
1.6340062488e-07
2.36279586169e-08
2.03440293475e-07
8.38562796623e-08
2.13267794744e-07
1.20464784203e-07
1.86221823934e-08
1.3796010427e-07
7.72658167918e-08
2.65104555984e-07
2.58993449292e-07
1.16580019624e-07
1.98255748228e-07
5.18952909867e-07
4.70951856972e-08
2.35905196682e-07
1.90768922074e-07
5.37070766694e-08
8.08503864393e-08
1.13280302451e-07
2.35459396051e-07
8.92526907847e-08
7.97799807711e-08
5.88165953347e-08
1.73134936529e-07
4.04992739397e-09
2.9809598595e-07
8.9060235993e-08
6.66967103176e-10
7.71314061536e-08
1.35058827448e-07
4.475170071e-07
4.38559228215e-07
1.51062691344e-07
4.5362578738e-08
3.43503055379e-07
2.18112306792e-07
4.67625263403e-08
2.02741487868e-07
1.13802204401e-07
1.66576974635e-07
3.07855185273e-08
3.2231945493e-07
1.75300405737e-07
2.81759492425e-07
4.12482841002e-07
7.45398587695e-08
6.64037471387e-08
4.77603324537e-08
2.34879058079e-07
3.79926581205e-07
2.36979949016e-07
1.92193251374e-08
2.89315389804e-08
3.41797527641e-07
1.29380975672e-08
3.02247441913e-07
4.14938820319e-07
9.09204192417e-08
7.19629913866e-08
1.71567447741e-07
8.65753591748e-08
1.11211599357e-07
3.16227134217e-08
7.39917624457e-08
1.03804107603e-07
1.40066070148e-07
1.66407729647e-07
1.69046797347e-07
1.04386610189e-07
1.03458100818e-08
6.54501450532e-08
1.63169043328e-07
1.29484844613e-07
2.91267614278e-07
1.53820943814e-07
7.64911613056e-08
3.4891988081e-07
5.322472077e-08
7.76097852475e-09
8.39387036045e-08
3.7970311643e-08
3.16447607085e-07
3.00955918702e-07
2.0227791991e-07
8.86219205546e-08
3.25658116055e-08
2.30451522829e-07
8.79725716397e-08
2.03899074872e-07
3.62460788354e-07
5.14151180999e-08
1.06769452207e-07
4.68409752157e-07
9.08495439086e-08
2.05800673844e-07
3.26666738896e-07
1.19284607635e-07
3.53913204584e-08
1.15730492007e-07
1.13435762609e-07
2.9177261505e-08
7.07562879884e-08
1.77386878662e-07
2.19403186911e-07
1.65331312202e-08
1.49026848936e-07
1.93211642475e-07
5.15644631089e-07
2.35130181022e-07
8.47977254182e-08
1.67288358874e-08
1.8817669719e-08
6.93535867338e-08
8.00158595059e-08
7.11027450357e-08
3.33826154905e-07
6.17113915373e-09
4.56679723729e-08
3.54921336276e-07
3.41452095382e-07
3.08224357161e-08
1.06381584311e-08
2.54106899618e-07
5.64696580062e-08
3.72869752074e-07
9.71071620448e-09
6.8511063069e-07
4.32845157012e-08
3.09378395924e-08
5.87142888977e-08
1.30360407246e-07
6.36131263254e-08
1.22774529489e-07
3.92425593149e-08
2.54034832108e-07
2.81278353885e-07
6.49070508146e-09
1.24507970001e-08
9.55242472964e-09
7.67188537517e-08
1.30743315074e-07
5.08152512299e-08
4.20815460466e-07
2.88037830944e-07
1.40611682614e-07
3.54773784976e-07
4.57704540202e-08
6.06613564965e-08
1.34582828932e-07
4.88142090128e-08
1.89408524769e-07
1.79480052216e-07
9.0750668673e-08
3.06315817104e-08
1.4244039127e-07
3.6513002874e-07
9.17804622756e-08
2.72979521459e-07
3.24957390061e-07
1.39651807701e-07
2.8781931407e-08
1.81428593269e-07
3.7194122403e-08
2.06852545476e-08
2.83281493701e-07
9.0297012066e-08
2.77612265176e-09
5.60455373469e-07
1.34761573851e-07
3.43935330793e-07
8.03968503156e-08
1.14421937875e-07
8.24207680028e-08
2.01817348266e-07
1.22057823168e-07
1.66219603978e-07
3.22008122051e-07
8.95033609396e-08
4.75808373676e-08
1.78023969721e-07
2.43621531062e-07
1.00890074633e-07
1.00927309831e-07
1.44914833485e-07
3.99715495372e-08
9.74935993682e-08
1.54146025682e-07
1.0695418121e-07
3.80164463745e-08
4.26072287683e-08
1.96969472451e-07
5.40838465543e-08
3.02445708389e-08
1.27418511569e-07
1.41443270165e-07
1.27675571672e-08
6.54884971006e-08
1.01598437622e-07
4.8758113629e-08
1.31978061038e-07
6.56731239075e-08
1.96006491214e-07
2.72603740579e-07
9.80429545231e-08
7.87289865445e-08
7.967708014e-08
1.30555941518e-07
8.06178448394e-08
1.30437195102e-07
2.12187567583e-07
2.12713879278e-07
9.72911659811e-08
4.25553186451e-09
6.03458042746e-08
6.48400938986e-08
3.40997805729e-07
1.85945360096e-08
6.19738392627e-08
1.71207499383e-07
7.66908338805e-08
2.46355679715e-08
2.45402005452e-07
5.52017884761e-08
8.18863432081e-08
1.50781473546e-07
5.09028826556e-09
9.84504796335e-08
9.29849440876e-08
6.10295312716e-07
2.12327414257e-07
6.11588766503e-08
1.00884929057e-07
1.35355867901e-07
1.02249672265e-07
5.57252457548e-08
6.93015796145e-08
8.88816596823e-08
4.19172769567e-07
3.29995520312e-07
3.16375890621e-07
1.65582097603e-07
1.10430554296e-07
1.60107451493e-08
7.59905304039e-08
5.90763400452e-08
2.75906698628e-07
3.52881444684e-08
1.45343346602e-07
9.50542821485e-08
4.95432080323e-08
1.78452671518e-07
9.68215386447e-08
2.65452490205e-08
3.92161494764e-08
2.69394681971e-07
4.93995261638e-08
1.71124034076e-07
6.49397937716e-07
6.07071129273e-08
1.03470806193e-07
3.50379785586e-07
1.70643876176e-07
2.03895238033e-07
1.15522399463e-07
3.1326918539e-07
7.52425883411e-08
8.89253975509e-08
3.21741776035e-07
1.11041045276e-07
7.27632633101e-08
1.43009298634e-07
2.97774917939e-07
2.62977385474e-08
1.74864558176e-07
1.42192146254e-07
6.69746234164e-07
2.60257244499e-07
6.97123413123e-07
3.93177728672e-07
4.31492944558e-07
2.44653549972e-07
4.71539870537e-07
1.68384060264e-07
9.68660827404e-09
8.52812732211e-08
1.29101990731e-07
2.46821264595e-07
4.21358214343e-08
8.85731191337e-08
3.78382522049e-08
2.97398045955e-07
4.49336089336e-07
1.28804447353e-07
2.207370895e-08
2.00773104956e-08
1.8211484194e-07
1.33443185724e-07
2.06260901302e-07
2.14312047635e-07
3.13555041058e-07
1.59922433184e-07
4.18285690749e-07
1.13304079144e-08
7.54152705942e-08
3.53251099786e-07
5.32518729268e-07
1.15905150635e-07
2.84064802726e-07
2.01055903272e-08
2.85437819847e-07
2.6084340862e-08
9.04309262285e-08
6.54225098438e-08
1.92765361189e-07
2.00622045578e-07
3.1632079687e-07
4.09383580731e-07
8.37317789493e-08
8.78439213563e-08
4.2292518906e-08
1.57391906788e-07
1.35190249874e-07
2.87076696247e-08
4.67381302438e-08
8.60425251097e-08
1.01457263929e-07
6.40441462375e-08
7.30116348814e-08
3.36618059327e-07
1.70431530704e-07
1.53704704464e-07
1.07440264805e-07
2.67833279849e-08
4.51885920879e-08
1.64396607867e-08
2.21592215042e-07
2.22138374913e-08
5.25591344157e-08
8.23247881285e-08
1.73258865039e-07
2.72960544672e-10
1.31123244593e-07
9.20641181033e-08
1.40107453076e-08
2.79077212721e-08
6.75460057829e-08
8.7459264805e-08
1.89393768188e-07
9.0166075631e-08
3.47137246692e-08
1.11227966722e-07
1.99033169725e-07
2.21135116255e-08
3.87387964318e-08
5.17867268532e-07
1.15476271541e-09
1.48826866325e-08
2.22580648919e-07
1.1260276888e-08
2.27455807507e-07
2.92206371578e-07
1.41582849044e-07
8.01221902518e-08
6.3426912413e-09
1.30683038436e-07
9.64143169255e-07
7.05018970588e-08
6.03990520345e-07
3.04145273142e-07
1.15566008014e-07
1.05081324482e-07
2.81361081764e-07
9.9516798965e-08
1.63050061285e-07
1.40396083888e-07
1.0396899611e-07
1.79766226525e-07
1.80471625569e-07
1.23054635843e-07
1.03762666277e-07
8.14381553169e-08
9.24729247423e-08
3.59698463334e-07
8.65671103194e-08
3.84058489911e-07
3.59308104469e-08
7.43346218274e-08
7.29397263466e-08
4.84275824868e-08
1.40057997819e-07
1.96124323599e-07
1.1003875578e-07
3.32848745762e-07
3.28731399513e-07
9.38235687531e-08
1.35021239366e-07
9.16435650081e-08
5.04583940637e-08
5.9027311147e-08
1.57341690999e-07
2.57319585208e-07
2.60566365505e-08
3.47259530063e-07
6.93188842728e-07
2.15312242186e-07
2.76555652124e-07
1.09640380339e-07
3.21658617335e-08
7.00988807419e-08
4.70902669705e-07
1.2282637255e-07
4.21033324395e-07
7.05074514484e-07
6.175830517e-07
3.49175324367e-08
9.84841114217e-08
2.84154124534e-08
3.29285036754e-07
9.05225696389e-08
5.71805949401e-08
1.08906956727e-07
4.30111106541e-08
2.28159864202e-08
6.5333263381e-08
1.18061842337e-07
4.45917455304e-08
6.97887888583e-08
3.05701187346e-07
2.43090674654e-07
1.46422226504e-07
2.09551311197e-07
7.64490676203e-08
3.54083188405e-07
1.99364931446e-07
1.67174422804e-07
1.3237130579e-07
6.4659322282e-08
1.74160471693e-08
1.5517091538e-07
3.29299394845e-08
1.26447195918e-07
2.09461957914e-07
3.94182957551e-08
5.54451256458e-08
2.18822118219e-09
1.30422432394e-07
9.55190120931e-09
2.98136196885e-07
1.02644302203e-07
2.0406091503e-07
6.13518926868e-10
2.07102706177e-07
2.89818287027e-08
1.80008782726e-07
7.88172506204e-08
8.10510350044e-08
9.43069904069e-08
1.03301968981e-07
1.12969029933e-07
1.03538930231e-07
1.51108472375e-08
8.09850262474e-08
2.20278621552e-08
1.53088621685e-07
4.85535858158e-08
7.8187729473e-08
2.35008012415e-07
1.20243497385e-07
5.06955055358e-08
2.06894858171e-08
8.45517772734e-08
3.70002502782e-08
5.02181933258e-08
1.36400701012e-07
6.70381495623e-08
1.0440388852e-08
1.14109691788e-09
1.04145337481e-07
9.60809723505e-08
2.76311906685e-07
2.23579167871e-07
9.74294477581e-08
5.16593483028e-08
3.01317114757e-09
1.60074338648e-08
6.09369534215e-08
3.25201122848e-08
4.48412911257e-08
5.25962082208e-08
6.69519576698e-08
4.60899591133e-07
7.80158493587e-08
1.2303609678e-07
7.26754828138e-08
3.8975163892e-07
6.85549509225e-09
1.30372443294e-08
2.95332889946e-08
1.93833160765e-07
3.17119771491e-07
1.29948523253e-07
3.51422405896e-09
3.81328360139e-07
6.50757940377e-08
1.24232829078e-07
2.11310003654e-07
6.17528289338e-08
7.24250290841e-09
2.82356587759e-07
6.22484051873e-08
3.16470947371e-07
1.59605470326e-07
7.03786692464e-10
3.24791960547e-07
3.25470359325e-07
1.62547050633e-07
2.23528369035e-07
1.53247121152e-07
1.24620887976e-07
8.00195573169e-08
3.1298962194e-07
1.4073343868e-07
3.78933575919e-08
4.21689609415e-07
8.20071592099e-08
1.55564342447e-07
4.41557893174e-08
9.08745985988e-08
2.3038941921e-07
1.57291026084e-07
7.21186057989e-08
1.97743399648e-07
3.08001034526e-07
4.69585976124e-08
4.27499438869e-08
2.67623789596e-07
1.37675992544e-07
2.35225406866e-07
4.79788331403e-07
2.26954304347e-07
3.02555356855e-07
5.36283774389e-07
3.45533994922e-07
1.63792149455e-09
1.93084998365e-07
2.18082095557e-08
7.2179924816e-08
2.26771658031e-07
9.29542870758e-08
2.48382010438e-07
8.50506356722e-08
8.94074507098e-08
1.09685683931e-07
8.03250347492e-08
6.66093574303e-08
1.20421122694e-07
1.22543130448e-07
1.62186580655e-07
2.03183367058e-07
9.56265863655e-08
1.54138251344e-07
2.71662117177e-08
1.57466115749e-07
2.34717488014e-07
4.49815753713e-07
7.24174587645e-08
1.45448548277e-07
2.42322208399e-08
1.25364428804e-07
1.24296958816e-08
4.67650548291e-08
2.27169694402e-08
4.37272109814e-08
2.11533007157e-07
6.82695460945e-08
7.88612512063e-08
2.22874083059e-07
4.18703122479e-08
5.64600194007e-08
2.35541030718e-07
5.79223239924e-08
2.09425497447e-07
2.79143080008e-07
5.411594746e-08
8.44565884366e-08
1.29052335619e-07
1.44903259234e-07
2.92875489153e-07
7.97421561035e-08
2.37831244122e-07
2.43071611178e-08
1.06644255034e-07
1.1003398301e-07
2.27159563658e-07
1.29697790284e-07
1.66202967477e-07
2.03425459915e-07
1.99082053935e-07
1.20095608371e-07
1.02765840833e-07
9.24156032883e-08
1.12504059085e-09
2.15681926907e-07
2.58452748597e-07
1.28315320153e-07
1.02813965759e-07
4.87454858955e-08
2.15263415631e-07
6.99071613921e-08
4.16149393429e-07
5.83118224807e-08
5.73115952203e-08
1.84155034258e-07
3.41862350025e-07
2.49143854076e-07
4.67556293607e-08
7.93780174038e-08
3.91539845696e-08
3.09485527191e-07
1.8288415703e-07
2.14470451659e-07
9.07473416564e-08
2.01010609333e-07
1.05397771938e-07
7.48848577309e-08
1.09785571205e-07
6.1533283627e-08
3.96541792651e-08
1.09355737336e-07
1.79578192924e-07
2.08708611571e-07
1.14768234252e-08
1.68216636659e-07
4.61776578001e-07
2.13074285731e-09
2.89995420047e-07
1.73173130757e-08
5.85542382282e-07
1.26520471669e-08
4.18814882776e-07
5.53517177503e-08
6.94766195632e-08
2.72442460054e-08
1.49783395598e-07
1.1184157749e-07
2.10501784435e-07
1.27385185586e-07
7.97714962362e-08
2.20982979745e-08
1.11476945394e-07
2.29236786997e-08
2.30612415314e-07
1.26786529318e-08
1.22539368208e-07
2.34963149083e-07
3.00454559832e-07
1.76658932941e-08
2.79141353625e-07
1.66413786051e-07
1.69164058385e-09
7.51461515186e-08
2.82376447736e-07
2.80563595246e-07
1.61141786067e-08
1.27953258559e-08
1.6408538395e-07
2.2757943185e-07
4.00487858564e-07
1.89924771704e-07
1.23058140303e-07
1.51508954961e-07
2.99099170253e-07
2.72331905387e-08
9.52084834919e-08
1.06845238683e-07
1.91888306848e-08
8.17393756771e-08
1.40040992861e-07
1.65092001125e-07
1.40943367262e-07
1.50465704752e-08
2.20564258125e-07
1.27108594212e-07
6.3761591412e-08
8.88449324175e-08
1.27763979801e-07
6.19443690142e-08
1.73947934504e-08

