# vtk DataFile Version 3.0
File Name: Molecule/sphere_cent/sphere_cent_0-s2.vtk
ASCII
DATASET UNSTRUCTURED_GRID
FIELD FieldData 1
TIME 1 1 double
0.0
POINTS 119 double
-0.52585291862 0.00044426362729 0.85055220127
-0.30935746431 -0.50020635128 0.80870395899
0.00057132978691 -0.01524726674 0.9987398386
0.30907440186 -0.50009459257 0.80884200335
-0.00019023055211 -0.8507720232 0.52549701929
0.52557778358 0.00047174884821 0.85069638491
0.80884116888 -0.30908671021 0.50011312962
0.49987900257 -0.80914086103 0.30872523785
0.85069018602 -0.52560514212 -0.00045312123257
0.99872928858 2.1295312763e-05 0.01621580869
0.8160148263 0.29532757401 0.49444973469
0.85052967072 0.52592623234 -0.00016105099348
-0.48870465159 -0.81005501747 0.32040181756
-0.80086678267 -0.30639579892 0.51107865572
0.50912535191 -0.8060874939 -0.29713881016
0.0051093338989 -0.99877619743 0.015254526399
0.80887335539 -0.30894634128 -0.49994370341
0.95139569044 -0.16108447313 -0.26273733377
0.85139334202 1.8668284611e-05 -0.52479994297
0.95141869783 0.16135039926 -0.26266476512
0.80888444185 0.30897369981 -0.4999333322
0.52573108673 7.2549064534e-09 -0.85065078735
0.68760722876 0.58782070875 -0.42641100287
0.50218635798 0.80795890093 -0.30753481388
0.58786356449 0.42631855607 -0.68766796589
0.42832654715 0.68642300367 -0.5878264308
0.31020399928 0.49776941538 -0.80958884954
0.25770193338 0.86275476217 -0.43497699499
0.15931235254 0.70364052057 -0.69243866205
-3.0830786812e-08 0.85065078735 -0.52573114634
0.52476769686 0.85130703449 -2.1468898922e-05
0.50213110447 0.80792629719 0.30766412616
0.26460802555 0.95107662678 -0.15968066454
0.26462760568 0.95105803013 0.15974384546
-5.5655988263e-07 0.99998730421 1.5502266137e-11
9.8216114566e-05 0.96110183001 -0.27603763342
0.257614851 0.86290198565 0.43473878503
9.5455150586e-05 0.96110361814 0.27603176236
-1.6001819869e-09 0.85065078735 0.52573108673
-0.25719633698 0.86281549931 0.43510010839
-0.26447579265 0.95103603601 0.15984402597
-0.49999383092 0.80900639296 0.30901360512
-0.26450943947 0.95102006197 -0.15988023579
-0.52313035727 0.852232337 -7.6463413734e-07
-0.49999392033 0.80900639296 -0.30901372433
-0.25721058249 0.86287945509 -0.43496200442
-0.70382022858 0.69231814146 0.15889380872
-0.70384657383 0.69228088856 -0.15892741084
-0.85065078735 0.52573114634 -2.7074094078e-09
-0.1591398567 0.70362281799 0.69249802828
-0.42808839679 0.68648004532 0.58783119917
-0.31041359901 0.49735876918 0.80990767479
-0.68656277657 0.58772611618 0.42809954286
-0.58779007196 0.42633336782 0.68758803606
-0.80801153183 0.30731272697 0.50236606598
-0.86279582977 0.43491822481 0.25766313076
0.15919388831 0.70365554094 0.69245672226
1.7347761968e-05 0.52290773392 0.85248506069
0.31067630649 0.49723055959 0.80998581648
-0.16129826009 0.26260757446 0.95142173767
0.16126076877 0.26263472438 0.95137238503
0.31021469831 -0.49778175354 -0.80957859755
0.16156488657 -0.26345482469 -0.95113122463
0.0025452768896 -4.3087375445e-08 -0.99972057343
-1.6441797925e-05 -0.52291464806 -0.85242038965
-0.15967926383 -0.26452720165 -0.95109826326
-0.30901354551 -0.49999380112 -0.80900645256
0.15910808742 -0.70354342461 -0.69257962704
-0.15890875459 -0.70382958651 -0.69230270386
-1.2875220889e-08 -0.85065078735 -0.52573108673
-0.27561080456 -0.0001418236061 -0.96124744415
-0.43493697047 -0.2572067976 -0.86289542913
-0.52573114634 6.0572089011e-11 -0.85065078735
0.68827021122 0.58712488413 0.42633858323
0.4281885922 0.68645960093 0.58786660433
0.58860939741 0.42579624057 0.68726712465
-0.69224733114 -0.15889245272 -0.70388650894
-0.69218313694 0.15899834037 -0.70392596722
-0.85225039721 4.9000059335e-06 -0.52310270071
-0.809006989 -0.30901277065 -0.49999350309
-0.80900675058 0.30901309848 -0.49999368191
-0.95105934143 -0.15976206958 -0.26443609595
-0.95103627443 0.15986713767 -0.26445797086
-0.99998724461 -3.7800226949e-08 6.3421674668e-07
-0.86291235685 -0.43488720059 -0.25722187757
-0.96110016108 -0.27602952719 -8.7890242867e-05
-0.85065078735 -0.52573108673 1.6497189392e-08
-0.86294549704 0.43485605717 -0.25716975331
-0.96109694242 0.27605998516 -0.0001023547884
-0.15891222656 0.70391881466 -0.69221305847
-0.42793118954 0.68655979633 -0.58777314425
-0.30901291966 0.4999935329 -0.80900681019
-0.58784562349 0.42789244652 -0.68652075529
-0.68664836884 0.58776909113 -0.42779734731
-0.43511390686 0.25723972917 -0.86279761791
-0.70388925076 -0.69223457575 -0.15891782939
-0.70336908102 -0.69262909889 0.15966509283
-0.52286785841 -0.85244333744 0.00038137176307
-0.49999329448 -0.80900716782 -0.30901217461
-0.26430088282 -0.95121282339 -0.1593324244
-0.26327002048 -0.95103657246 0.16180831194
-0.2571811676 -0.86294043064 -0.43485036492
6.2744351453e-05 -0.96139329672 -0.27509298921
-0.86272484064 -0.43483155966 0.25802904367
-0.68680363894 -0.58781945705 0.42738616467
-0.85121172667 -8.8385626441e-05 0.52488857508
-0.95108515024 0.15973900259 0.26452824473
-0.95095521212 -0.15989640355 0.26489940286
-0.58777189255 -0.42793020606 -0.68656122684
-0.42788395286 -0.68664592505 -0.58770865202
-0.68664360046 -0.58777701855 -0.42779505253
0.25798407197 -0.86287140846 -0.43457239866
0.26412776113 -0.95102965832 -0.16027094424
0.58788049221 -0.42632371187 -0.68765163422
0.68757027388 -0.58783167601 -0.42630848289
0.42847299576 -0.68657702208 -0.58753174543
0.16156418622 0.2634537518 -0.95113158226
-0.1597494185 0.26457157731 -0.95107364655
6.0504549765e-05 0.52308982611 -0.85231274366

CELLS 234 936
3 0 1 2
3 1 3 2
3 1 4 3
3 2 3 5
3 5 3 6
3 3 7 6
3 3 4 7
3 6 7 8
3 8 9 6
3 9 10 6
3 9 11 10
3 6 10 5
3 12 4 1
3 13 1 0
3 14 8 7
3 15 7 4
3 16 17 8
3 8 17 9
3 16 18 17
3 18 19 17
3 18 20 19
3 17 19 9
3 20 18 21
3 21 18 16
3 9 19 11
3 19 20 11
3 20 22 11
3 11 22 23
3 20 24 22
3 24 25 22
3 24 26 25
3 22 25 23
3 26 24 21
3 21 24 20
3 23 25 27
3 25 28 27
3 25 26 28
3 27 28 29
3 23 30 11
3 11 30 31
3 23 32 30
3 32 33 30
3 32 34 33
3 30 33 31
3 23 27 32
3 27 35 32
3 27 29 35
3 32 35 34
3 31 33 36
3 33 37 36
3 33 34 37
3 36 37 38
3 38 37 39
3 37 40 39
3 37 34 40
3 39 40 41
3 34 42 40
3 42 43 40
3 42 44 43
3 40 43 41
3 34 35 42
3 35 45 42
3 35 29 45
3 42 45 44
3 41 43 46
3 43 47 46
3 43 44 47
3 46 47 48
3 38 39 49
3 39 50 49
3 39 41 50
3 49 50 51
3 41 52 50
3 52 53 50
3 52 54 53
3 50 53 51
3 41 46 52
3 46 55 52
3 46 48 55
3 52 55 54
3 51 53 0
3 53 54 0
3 38 49 56
3 49 57 56
3 49 51 57
3 56 57 58
3 51 59 57
3 59 60 57
3 59 2 60
3 57 60 58
3 2 59 0
3 0 59 51
3 58 60 5
3 60 2 5
3 61 62 21
3 21 62 63
3 61 64 62
3 64 65 62
3 64 66 65
3 62 65 63
3 61 67 64
3 67 68 64
3 67 69 68
3 64 68 66
3 63 65 70
3 65 71 70
3 65 66 71
3 70 71 72
3 31 73 11
3 11 73 10
3 31 74 73
3 74 75 73
3 74 58 75
3 73 75 10
3 31 36 74
3 36 56 74
3 36 38 56
3 74 56 58
3 10 75 5
3 75 58 5
3 72 76 77
3 76 78 77
3 76 79 78
3 77 78 80
3 79 81 78
3 81 82 78
3 81 83 82
3 78 82 80
3 79 84 81
3 84 85 81
3 84 86 85
3 81 85 83
3 80 82 87
3 82 88 87
3 82 83 88
3 87 88 48
3 29 89 45
3 89 90 45
3 89 91 90
3 45 90 44
3 91 92 90
3 92 93 90
3 92 80 93
3 90 93 44
3 91 94 92
3 94 77 92
3 94 72 77
3 92 77 80
3 44 93 47
3 93 87 47
3 93 80 87
3 47 87 48
3 86 95 96
3 95 97 96
3 95 98 97
3 96 97 12
3 98 99 97
3 99 100 97
3 99 15 100
3 97 100 12
3 98 101 99
3 101 102 99
3 101 69 102
3 99 102 15
3 12 100 4
3 100 15 4
3 86 96 103
3 96 104 103
3 96 12 104
3 103 104 13
3 13 104 1
3 1 104 12
3 54 105 0
3 0 105 13
3 54 106 105
3 106 107 105
3 106 83 107
3 105 107 13
3 54 55 106
3 55 88 106
3 55 48 88
3 106 88 83
3 13 107 103
3 107 85 103
3 107 83 85
3 103 85 86
3 72 71 76
3 71 108 76
3 71 66 108
3 76 108 79
3 66 109 108
3 109 110 108
3 109 98 110
3 108 110 79
3 66 68 109
3 68 101 109
3 68 69 101
3 109 101 98
3 79 110 84
3 110 95 84
3 110 98 95
3 84 95 86
3 69 111 102
3 111 112 102
3 111 14 112
3 102 112 15
3 15 112 7
3 7 112 14
3 16 113 21
3 21 113 61
3 16 114 113
3 114 115 113
3 114 14 115
3 113 115 61
3 14 114 8
3 8 114 16
3 61 115 67
3 115 111 67
3 115 14 111
3 67 111 69
3 63 116 21
3 21 116 26
3 63 117 116
3 117 118 116
3 117 91 118
3 116 118 26
3 63 70 117
3 70 94 117
3 70 72 94
3 117 94 91
3 26 118 28
3 118 89 28
3 118 91 89
3 28 89 29

CELL_TYPES 234
5
5
5
5
5
5
5
5
5
5
5
5
5
5
5
5
5
5
5
5
5
5
5
5
5
5
5
5
5
5
5
5
5
5
5
5
5
5
5
5
5
5
5
5
5
5
5
5
5
5
5
5
5
5
5
5
5
5
5
5
5
5
5
5
5
5
5
5
5
5
5
5
5
5
5
5
5
5
5
5
5
5
5
5
5
5
5
5
5
5
5
5
5
5
5
5
5
5
5
5
5
5
5
5
5
5
5
5
5
5
5
5
5
5
5
5
5
5
5
5
5
5
5
5
5
5
5
5
5
5
5
5
5
5
5
5
5
5
5
5
5
5
5
5
5
5
5
5
5
5
5
5
5
5
5
5
5
5
5
5
5
5
5
5
5
5
5
5
5
5
5
5
5
5
5
5
5
5
5
5
5
5
5
5
5
5
5
5
5
5
5
5
5
5
5
5
5
5
5
5
5
5
5
5
5
5
5
5
5
5
5
5
5
5
5
5
5
5
5
5
5
5
5
5
5
5
5
5
5
5
5
5
5
5

CELL_DATA 234
SCALARS cell_data_0 double
LOOKUP_TABLE default
5.24055144286e-06
9.69448380856e-06
4.3674016739e-06
4.52093402421e-06
4.43376581066e-06
1.04132198898e-05
4.26397114514e-06
4.84284439201e-06
3.72911903464e-06
8.36495954657e-06
4.22553677258e-06
5.3227203511e-06
5.32887577335e-06
5.54256525437e-06
5.20240714376e-06
5.17141600893e-06
1.33667582778e-07
3.46929183222e-07
7.85676410069e-07
7.22588212303e-09
7.63925368423e-07
7.54022764344e-07
5.20448004603e-07
4.9804013072e-07
1.698461767e-07
7.47398256496e-08
8.77346585904e-08
1.03062834784e-07
7.06105302972e-07
1.36702316375e-07
3.31747891497e-07
4.86897126095e-07
1.47549724652e-07
4.47213726326e-07
4.13687616814e-07
9.9729370961e-08
2.59739394638e-07
5.66626590953e-07
1.21334579304e-07
1.01015141721e-06
6.94411986855e-07
3.32072165211e-08
5.26130327305e-08
9.0567067033e-08
6.03907224062e-07
2.01504303447e-07
6.74829581525e-07
2.98266765203e-07
1.01536288011e-07
7.97312720806e-08
3.03582432486e-09
9.65150708915e-07
7.63019052014e-07
1.47534074011e-07
3.128968457e-08
1.33057358325e-07
5.17607691156e-08
3.06706448899e-08
3.10625454774e-07
3.56474784093e-07
3.25636880335e-07
2.0856475331e-07
6.46043523664e-07
4.40404220788e-07
3.49140133029e-08
1.50019164281e-07
3.02770338459e-07
8.88194919307e-07
9.524138764e-07
6.55024344246e-08
1.08246992545e-07
8.20187384722e-07
2.82494398683e-07
1.4826636478e-07
8.62355648555e-08
7.73818449759e-07
7.98839634262e-08
1.03686620793e-07
8.0062556795e-07
5.59718594117e-08
3.85270881871e-07
7.38575373166e-07
9.7835900971e-07
1.10500811876e-07
8.46951882225e-07
1.94586080138e-07
7.51068221086e-07
1.35913133463e-07
2.25875704494e-07
2.26537223428e-07
6.768974401e-07
2.96884499557e-07
5.23085717443e-07
5.84479040194e-07
4.85996469231e-07
2.75796247808e-07
9.43606194584e-08
2.75400496132e-07
5.50901414715e-08
4.64268444497e-08
9.36098657568e-08
1.45186579822e-07
6.96358261582e-07
1.37569642593e-07
6.4330003514e-08
4.35738260183e-08
2.05885832314e-07
8.09636610238e-07
9.77536458233e-07
6.65261173555e-07
3.73840009621e-08
5.9404389767e-08
2.63522960345e-07
2.3647469652e-07
1.2348386297e-07
1.2712691927e-07
9.94990144434e-07
1.97644108683e-07
6.48288014679e-07
4.7004414393e-07
8.18211086431e-07
2.01942457157e-08
1.78549750023e-08
3.16227202517e-08
1.85220071255e-07
1.7394125938e-07
1.38212401481e-07
1.6196354981e-07
1.35449435209e-08
3.32809296353e-08
6.41658764259e-07
4.31855333193e-08
4.49826052015e-08
5.26696654469e-09
6.24566769047e-08
6.83754837042e-07
5.83959643996e-07
3.52924605291e-08
3.96482137232e-08
2.65949186018e-07
1.11914463797e-07
8.06372661759e-08
8.93499577598e-08
1.73068642431e-07
4.1381830479e-08
2.68889307347e-08
7.98676540256e-07
9.29986831183e-08
3.6146593318e-07
4.38445604219e-08
4.38263041108e-08
7.28279827384e-07
5.23239396342e-07
1.37472727309e-07
5.88361931603e-08
4.34588542969e-08
1.54056090488e-07
1.99231125502e-07
8.64577991527e-08
6.8191648105e-08
1.68515094374e-08
1.43251089979e-07
6.59419720162e-07
1.45765697865e-07
5.2054942691e-07
4.80418578099e-07
5.27277135307e-07
3.25753335826e-08
2.37479788862e-07
1.96963652408e-07
3.01486696287e-06
3.08448867417e-06
7.48263192484e-07
5.23316984532e-07
9.79871287612e-08
1.54364678205e-07
1.838800362e-07
1.10777690598e-08
7.25489939504e-08
8.61188809558e-09
6.74670960009e-07
6.59963621697e-08
1.36495094658e-07
1.61951623258e-07
6.56499237384e-09
5.53522822921e-07
8.44991850529e-07
6.41525213015e-08
2.75509559818e-07
7.14119685863e-08
1.24320987464e-07
5.37713416649e-08
8.87981928252e-08
1.00396245075e-07
2.20038748606e-07
1.09601047227e-08
7.56673758516e-07
6.30008644405e-08
3.25074204082e-08
1.21324179096e-07
4.52035227495e-08
5.33030680355e-07
5.55588799547e-07
1.09167264935e-07
2.0375430763e-07
1.69506255619e-07
2.98966667884e-06
2.95786109857e-06
5.16839893899e-07
3.29062139365e-07
7.22283805233e-07
1.7622325941e-07
1.02212181257e-07
4.0050069866e-08
3.93719894495e-07
2.43760602306e-08
1.15195301185e-07
2.39685435527e-07
1.74421810042e-07
6.18397818318e-07
5.94767292863e-08
3.0517293775e-07
2.06743051442e-07
6.78823953253e-08
2.11984606689e-07
4.18004596747e-07
9.37108941979e-08
4.21608044131e-08
7.80391624064e-07
1.09717962864e-09
2.51476416833e-07
6.79001956492e-08
4.89888884358e-09
6.03710983473e-07

