# vtk DataFile Version 3.0
File Name: Molecule/sphere_dip_sim/sphere_dip_sim_0-s3.vtk
ASCII
DATASET UNSTRUCTURED_GRID
FIELD FieldData 1
TIME 1 1 double
0.0
POINTS 118 double
0.688190960236 -0.26286555606 -0.425325404176
0.688190960236 0.26286555606 -0.425325404176
0.850650808352 0.0 0.0
0.525731112119 0.0 -0.850650808352
0.850650808352 0.525731112119 0.0
0.425325404176 0.688190960236 -0.26286555606
-0.26286555606 0.425325404176 0.688190960236
0.0 0.0 0.850650808352
0.26286555606 0.425325404176 0.688190960236
0.525731112119 0.0 0.850650808352
0.425325404176 0.688190960236 0.26286555606
0.688190960236 0.26286555606 0.425325404176
0.0 0.850650808352 0.525731112119
-0.525731112119 0.0 -0.850650808352
-0.688190960236 -0.26286555606 -0.425325404176
-0.688190960236 0.26286555606 -0.425325404176
-0.850650808352 0.0 0.0
-0.850650808352 0.525731112119 0.0
-0.26286555606 0.425325404176 -0.688190960236
-0.425325404176 0.688190960236 -0.26286555606
-0.850650808352 -0.525731112119 0.0
-0.425325404176 -0.688190960236 -0.26286555606
-0.425325404176 -0.688190960236 0.26286555606
0.0 -0.850650808352 0.0
0.0 -0.850650808352 -0.525731112119
0.0 -0.850650808352 0.525731112119
-0.26286555606 -0.425325404176 0.688190960236
-0.688190960236 -0.26286555606 0.425325404176
-0.525731112119 0.0 0.850650808352
-0.688190960236 0.26286555606 0.425325404176
-0.26286555606 -0.425325404176 -0.688190960236
0.425325404176 -0.688190960236 -0.26286555606
0.425325404176 -0.688190960236 0.26286555606
0.26286555606 -0.425325404176 -0.688190960236
0.0 0.850650808352 0.26286555606
-0.212662702088 0.769420884294 0.394298334089
0.0 0.850650808352 0.0
-0.212662702088 0.769420884294 0.13143277803
-0.212662702088 0.769420884294 -0.13143277803
-0.425325404176 0.688190960236 0.0
0.0 0.850650808352 -0.525731112119
-0.637988106264 0.606961036177 -0.13143277803
-0.637988106264 0.606961036177 0.13143277803
-0.13143277803 0.637988106264 0.606961036177
-0.344095480118 0.556758182206 0.475528258148
-0.556758182206 0.475528258148 0.344095480118
-0.475528258148 0.344095480118 0.556758182206
-0.769420884294 0.394298334089 0.212662702088
0.394298334089 -0.212662702088 0.769420884294
0.606961036177 -0.13143277803 0.637988106264
0.475528258148 -0.344095480118 0.556758182206
0.26286555606 -0.425325404176 0.688190960236
0.688190960236 -0.26286555606 0.425325404176
0.344095480118 -0.556758182206 0.475528258148
0.556758182206 -0.475528258148 0.344095480118
0.769420884294 -0.394298334089 0.212662702088
0.637988106264 -0.606961036177 0.13143277803
0.850650808352 -0.26286555606 0.0
0.769420884294 -0.13143277803 0.212662702088
0.769420884294 0.13143277803 0.212662702088
0.688190960236 0.0 0.425325404176
0.606961036177 0.13143277803 0.637988106264
0.26286555606 0.425325404176 -0.688190960236
0.344095480118 0.556758182206 -0.475528258148
0.394298334089 0.212662702088 -0.769420884294
0.212662702088 0.769420884294 -0.394298334089
0.13143277803 0.637988106264 -0.606961036177
0.425325404176 0.688190960236 0.0
0.212662702088 0.769420884294 -0.13143277803
0.212662702088 0.769420884294 0.13143277803
0.0 0.850650808352 -0.26286555606
-0.26286555606 0.0 0.850650808352
-0.394298334089 -0.212662702088 0.769420884294
-0.13143277803 -0.212662702088 0.769420884294
0.0 -0.425325404176 0.688190960236
0.13143277803 -0.212662702088 0.769420884294
0.394298334089 -0.212662702088 -0.769420884294
0.26286555606 0.0 -0.850650808352
0.13143277803 -0.212662702088 -0.769420884294
0.0 0.0 -0.850650808352
0.0 -0.425325404176 -0.688190960236
-0.13143277803 -0.212662702088 -0.769420884294
-0.26286555606 0.0 -0.850650808352
-0.394298334089 -0.212662702088 -0.769420884294
-0.769420884294 -0.13143277803 -0.212662702088
-0.769420884294 -0.394298334089 -0.212662702088
-0.850650808352 -0.26286555606 0.0
-0.13143277803 0.637988106264 -0.606961036177
-0.394298334089 0.212662702088 -0.769420884294
-0.769420884294 -0.394298334089 0.212662702088
-0.769420884294 -0.13143277803 0.212662702088
0.556758182206 -0.475528258148 -0.344095480118
0.769420884294 -0.394298334089 -0.212662702088
0.637988106264 -0.606961036177 -0.13143277803
0.850650808352 -0.525731112119 0.0
0.13143277803 0.212662702088 -0.769420884294
-0.13143277803 0.212662702088 -0.769420884294
0.0 0.425325404176 -0.688190960236
0.769420884294 -0.26286555606 -0.212662702088
0.850650808352 -0.394298334089 0.0
-0.212662702088 0.769420884294 0.26286555606
-0.318994053132 0.728805922265 0.328581945075
-0.318994053132 0.728805922265 0.197149167045
-0.425325404176 0.688190960236 0.26286555606
-0.318994053132 0.728805922265 0.065716389015
-0.425325404176 0.688190960236 0.13143277803
-0.53165675522 0.647575998207 0.197149167045
-0.53165675522 0.647575998207 0.065716389015
-0.278379091103 0.66308953325 0.434913296118
-0.384710442147 0.622474571221 0.369196907104
-0.491041793191 0.581859609192 0.303480518089
-0.450426831162 0.516143220177 0.409811869133
-0.597373144235 0.541244647162 0.237764129074
0.703704495279 -0.500629685133 0.172047740059
0.810035846323 -0.460014723104 0.106331351044
0.744319457308 -0.566346074148 0.065716389015
0.810035846323 -0.328581945075 0.106331351044
0.53165675522 -0.647575998207 -0.065716389015

CELLS 232 928
3 0 1 2
3 0 3 1
3 2 1 4
3 4 1 5
3 6 7 8
3 8 7 9
3 4 10 11
3 10 8 11
3 10 12 8
3 13 14 15
3 15 16 17
3 18 15 19
3 20 21 22
3 21 23 22
3 21 24 23
3 22 23 25
3 22 26 27
3 22 25 26
3 28 29 27
3 30 21 14
3 30 24 21
3 24 31 23
3 31 32 23
3 23 32 25
3 33 31 24
3 10 34 12
3 12 34 35
3 34 36 37
3 36 38 37
3 38 19 39
3 19 38 40
3 39 19 41
3 42 41 17
3 12 35 43
3 43 44 6
3 45 29 46
3 44 46 6
3 42 17 47
3 45 47 29
3 6 46 28
3 46 29 28
3 12 43 8
3 43 6 8
3 7 48 9
3 9 48 49
3 48 50 49
3 48 51 50
3 49 50 52
3 51 53 50
3 53 54 50
3 53 32 54
3 50 54 52
3 32 53 25
3 51 53 25
3 52 54 55
3 54 32 56
3 57 2 58
3 55 58 52
3 2 59 58
3 59 60 58
3 59 11 60
3 58 60 52
3 11 59 4
3 2 59 4
3 52 60 49
3 60 61 49
3 60 11 61
3 49 61 9
3 9 61 8
3 11 61 8
3 17 41 15
3 19 41 15
3 29 47 16
3 47 17 16
3 62 63 1
3 1 63 5
3 3 64 1
3 1 64 62
3 5 63 65
3 63 66 65
3 63 62 66
3 65 66 40
3 5 67 4
3 4 67 10
3 5 68 67
3 68 69 67
3 68 36 69
3 67 69 10
3 5 65 68
3 65 70 68
3 65 40 70
3 68 70 36
3 28 71 6
3 6 71 7
3 28 72 71
3 72 73 71
3 72 26 73
3 71 73 7
3 26 74 73
3 74 75 73
3 74 51 75
3 73 75 7
3 51 74 25
3 26 74 25
3 3 76 77
3 76 78 77
3 76 33 78
3 77 78 79
3 33 80 78
3 80 81 78
3 80 30 81
3 78 81 79
3 30 80 24
3 33 80 24
3 79 81 82
3 81 83 82
3 81 30 83
3 82 83 13
3 14 84 15
3 84 16 15
3 14 85 84
3 85 86 84
3 85 20 86
3 84 86 16
3 40 87 19
3 87 18 19
3 18 88 15
3 88 13 15
3 27 89 22
3 20 89 22
3 26 72 27
3 27 72 28
3 16 90 29
3 29 90 27
3 27 90 89
3 90 86 89
3 90 16 86
3 89 86 20
3 13 83 14
3 83 30 14
3 20 85 21
3 14 85 21
3 33 76 0
3 3 76 0
3 0 91 33
3 91 31 33
3 0 92 91
3 92 93 91
3 92 94 93
3 91 93 31
3 3 77 64
3 77 95 64
3 77 79 95
3 64 95 62
3 79 96 95
3 96 97 95
3 96 18 97
3 95 97 62
3 79 82 96
3 82 88 96
3 82 13 88
3 96 88 18
3 62 97 66
3 97 87 66
3 97 18 87
3 66 87 40
3 57 98 2
3 2 98 0
3 94 99 92
3 99 98 92
3 99 57 98
3 92 98 0
3 10 69 34
3 36 69 34
3 37 100 34
3 34 100 35
3 35 100 101
3 100 102 101
3 100 37 102
3 101 102 103
3 39 104 38
3 38 104 37
3 37 104 102
3 104 105 102
3 104 39 105
3 102 105 103
3 40 70 38
3 36 70 38
3 103 105 106
3 105 107 106
3 105 39 107
3 106 107 42
3 42 107 41
3 39 107 41
3 35 108 43
3 108 44 43
3 35 101 108
3 101 109 108
3 101 103 109
3 108 109 44
3 103 110 109
3 110 111 109
3 110 45 111
3 109 111 44
3 44 111 46
3 45 111 46
3 103 106 110
3 106 112 110
3 106 42 112
3 110 112 45
3 45 112 47
3 42 112 47
3 7 75 48
3 51 75 48
3 56 113 54
3 54 113 55
3 55 113 114
3 113 115 114
3 113 56 115
3 114 115 94
3 94 99 114
3 99 116 114
3 99 57 116
3 114 116 55
3 55 116 58
3 57 116 58
3 94 115 93
3 115 117 93
3 115 56 117
3 93 117 31
3 31 117 32
3 117 56 32

CELL_TYPES 232
5
5
5
5
5
5
5
5
5
5
5
5
5
5
5
5
5
5
5
5
5
5
5
5
5
5
5
5
5
5
5
5
5
5
5
5
5
5
5
5
5
5
5
5
5
5
5
5
5
5
5
5
5
5
5
5
5
5
5
5
5
5
5
5
5
5
5
5
5
5
5
5
5
5
5
5
5
5
5
5
5
5
5
5
5
5
5
5
5
5
5
5
5
5
5
5
5
5
5
5
5
5
5
5
5
5
5
5
5
5
5
5
5
5
5
5
5
5
5
5
5
5
5
5
5
5
5
5
5
5
5
5
5
5
5
5
5
5
5
5
5
5
5
5
5
5
5
5
5
5
5
5
5
5
5
5
5
5
5
5
5
5
5
5
5
5
5
5
5
5
5
5
5
5
5
5
5
5
5
5
5
5
5
5
5
5
5
5
5
5
5
5
5
5
5
5
5
5
5
5
5
5
5
5
5
5
5
5
5
5
5
5
5
5
5
5
5
5
5
5
5
5
5
5
5
5
5
5
5
5
5
5

CELL_DATA 232
SCALARS cell_data_0 double
LOOKUP_TABLE default
1.61796296306e-08
0.000777328779254
0.000210079740235
0.000274809905257
0.000318806522776
0.000150254884502
0.000114408887649
8.96620781947e-05
4.75410967233e-05
0.00016830589481
1.75218594326e-05
5.50265452661e-05
1.37679405525e-05
1.78922127157e-06
2.99632402482e-05
5.88823813587e-05
4.90083081441e-05
6.86476742778e-05
4.02146585349e-05
3.15797052511e-05
1.32048614583e-05
4.00724036326e-05
7.38604979451e-07
4.8553870979e-05
5.10511696162e-05
1.58611846341e-05
2.73103190586e-05
3.10320341288e-06
6.08696981051e-05
7.71218028449e-06
2.96973828165e-05
2.39400794522e-05
3.14892235467e-05
4.21766473978e-05
9.72252260127e-06
4.92659028294e-06
8.25699783194e-06
2.01821477282e-05
3.74632450438e-06
5.17229168372e-05
2.06143324537e-05
1.08304852813e-06
8.63671845923e-05
2.26004105069e-05
2.62674590125e-06
2.11484305253e-05
6.55464161497e-05
1.45363344518e-05
2.21240207518e-05
1.97220389068e-05
2.07184472514e-06
1.18642219294e-05
2.00977354493e-05
4.92116812722e-05
1.28597115474e-05
2.70829495803e-05
3.09159789814e-05
3.89543885316e-05
4.23164809071e-05
5.54624708745e-05
2.21635665386e-05
4.28523686872e-05
0.000138902627992
0.000173790464346
5.5338185022e-06
1.12297158423e-05
3.5635989413e-05
2.03904880838e-06
2.56022833041e-05
4.80212678066e-05
2.1243439485e-05
5.57235483855e-06
2.46528193585e-06
4.64171023249e-06
4.27129106242e-05
5.17919408803e-07
0.000416337378736
6.234526781e-05
4.00928130047e-06
5.8971787056e-06
1.55268214461e-05
7.63666872504e-06
0.000106801593078
5.96829794633e-05
4.92777906271e-05
6.75207420414e-05
0.000127431197997
6.88498849133e-06
6.24749856714e-05
0.000270228707313
0.000151093708966
0.000354133271029
5.79325852187e-05
0.000198576423085
0.000128799869451
2.08520771729e-05
7.93783886226e-06
0.000117994350346
5.84185717586e-05
9.86923748726e-05
2.00344269692e-05
0.000230213554717
2.21124190758e-05
2.01271812922e-05
0.000524903504954
0.000201967929594
0.000185309610477
0.000111140647122
1.17051895731e-05
0.000101745288503
7.24462749429e-05
0.000231443049511
1.52270003745e-05
3.91826707138e-05
0.000136348923573
7.31517169757e-05
5.43443205143e-05
1.84189881586e-05
2.72928897878e-06
1.91019950101e-05
1.43114994897e-05
2.07831987346e-05
4.38420709097e-05
1.97417633203e-05
6.07171009068e-08
1.25234677177e-05
5.4569396303e-05
6.51750073208e-06
2.66046933097e-06
5.87789219949e-05
9.75919385688e-05
0.000181355067794
1.04451803456e-05
1.6022591983e-05
6.21701796918e-07
2.24617857479e-05
1.9726392492e-05
1.95488385208e-05
5.84001283859e-05
3.74321603205e-05
2.90365128163e-05
5.83381247916e-05
0.000172334634618
0.00100158199609
3.25722927109e-05
2.25559712313e-05
2.75021579522e-05
0.000144464904147
0.000169076086931
0.00015793626036
0.000217598745889
2.815991891e-05
0.000111927563199
3.81462552892e-05
0.000225761283886
0.000140324005801
7.81373579021e-05
7.03064049792e-05
0.000146276737388
9.06989844022e-05
2.12088692961e-05
5.98191511611e-05
3.4337803957e-05
2.24601066265e-05
2.48005951614e-05
1.89834248693e-07
5.35941966767e-06
2.32584144295e-06
2.49404637175e-05
1.66932191172e-06
7.22973384273e-06
1.01994701788e-05
9.49621062311e-06
7.30141685523e-05
4.02029205951e-06
2.49572633658e-06
2.42164997047e-06
3.27466457998e-07
2.61825454851e-07
1.28295147447e-06
7.23778694815e-06
1.156517745e-05
6.17680809471e-07
6.29139480361e-07
5.55013985604e-07
7.5824976709e-08
0.000231822951101
0.000295098972218
9.41130929864e-07
1.47119997458e-07
1.51042849248e-07
3.67413618765e-06
1.27243824527e-05
5.40637374865e-06
1.12468173087e-05
1.36800666997e-05
3.05368424966e-06
4.66822628373e-07
1.27936421259e-06
3.52848521808e-06
2.92861644443e-08
6.05979944674e-07
4.7918558294e-07
4.76934511771e-06
8.28631643975e-06
1.0860429988e-08
6.36739811717e-07
1.58754069936e-07
5.67568179204e-06
2.86462444036e-07
2.63333982057e-06
1.19241055348e-05
0.00015998919433
7.11838906915e-06
9.51739437022e-06
3.19563746486e-06
1.32275757685e-06
1.06711204808e-06
4.81722300305e-06
2.03837304399e-06
7.41086554782e-06
9.08117098398e-07
1.14721450404e-05
2.62538202944e-06
1.40603862459e-05
7.62502670529e-06
0.000113889737397
9.14190498876e-05
8.14633534611e-06
9.03374830717e-05
2.58484244569e-06
2.43084970446e-05

