# vtk DataFile Version 3.0
File Name: Molecule/sphere_cent/sphere_cent_0-s2.vtk
ASCII
DATASET UNSTRUCTURED_GRID
FIELD FieldData 1
TIME 1 1 double
0.0
POINTS 96 double
0.85065081 0.52573111 0.0
0.5 0.80901699 -0.30901699
0.5 0.80901699 0.30901699
0.0 1.0 0.0
0.0 0.85065081 -0.52573111
0.0 0.85065081 0.52573111
-0.85065081 -0.52573111 0.0
-0.5 -0.80901699 -0.30901699
-0.5 -0.80901699 0.30901699
0.0 -1.0 0.0
0.0 -0.85065081 -0.52573111
0.0 -0.85065081 0.52573111
0.80901699 -0.30901699 -0.5
0.95105652 -0.16245985 -0.26286556
0.85065081 -0.52573111 0.0
1.0 0.0 0.0
0.85065081 0.0 -0.52573111
0.95105652 0.16245985 -0.26286556
0.80901699 0.30901699 -0.5
0.52573111 0.0 -0.85065081
0.68819096 0.58778525 -0.4253254
0.58778525 0.4253254 -0.68819096
0.4253254 0.68819096 -0.58778525
0.30901699 0.5 -0.80901699
-0.26286556 0.95105652 0.16245985
-0.5 0.80901699 0.30901699
-0.26286556 0.95105652 -0.16245985
-0.52573111 0.85065081 0.0
-0.5 0.80901699 -0.30901699
-0.85065081 0.52573111 0.0
-0.4253254 0.68819096 0.58778525
-0.30901699 0.5 0.80901699
-0.68819096 0.58778525 0.4253254
-0.58778525 0.4253254 0.68819096
-0.80901699 0.30901699 0.5
-0.52573111 0.0 0.85065081
0.0 0.52573111 0.85065081
0.30901699 0.5 0.80901699
-0.16245985 0.26286556 0.95105652
0.16245985 0.26286556 0.95105652
0.0 0.0 1.0
0.52573111 0.0 0.85065081
-0.30901699 -0.5 0.80901699
-0.16245985 -0.26286556 0.95105652
0.0 -0.52573111 0.85065081
0.16245985 -0.26286556 0.95105652
0.30901699 -0.5 0.80901699
0.58778525 -0.4253254 0.68819096
0.80901699 -0.30901699 0.5
0.4253254 -0.68819096 0.58778525
0.68819096 -0.58778525 0.4253254
0.5 -0.80901699 0.30901699
0.30901699 -0.5 -0.80901699
0.16245985 -0.26286556 -0.95105652
0.0 0.0 -1.0
0.0 -0.52573111 -0.85065081
-0.16245985 -0.26286556 -0.95105652
-0.30901699 -0.5 -0.80901699
-0.52573111 0.0 -0.85065081
0.95105652 -0.16245985 0.26286556
0.95105652 0.16245985 0.26286556
0.85065081 0.0 0.52573111
0.80901699 0.30901699 0.5
0.68819096 0.58778525 0.4253254
0.4253254 0.68819096 0.58778525
0.58778525 0.4253254 0.68819096
-0.80901699 -0.30901699 -0.5
-0.85065081 0.0 -0.52573111
-0.80901699 0.30901699 -0.5
-0.95105652 -0.16245985 -0.26286556
-0.95105652 0.16245985 -0.26286556
-1.0 0.0 0.0
-0.30901699 0.5 -0.80901699
-0.4253254 0.68819096 -0.58778525
-0.58778525 0.4253254 -0.68819096
-0.68819096 0.58778525 -0.4253254
-0.68819096 -0.58778525 0.4253254
-0.80901699 -0.30901699 0.5
-0.4253254 -0.68819096 0.58778525
-0.58778525 -0.4253254 0.68819096
-0.85065081 0.0 0.52573111
-0.95105652 0.16245985 0.26286556
-0.95105652 -0.16245985 0.26286556
-0.58778525 -0.4253254 -0.68819096
-0.4253254 -0.68819096 -0.58778525
-0.68819096 -0.58778525 -0.4253254
0.5 -0.80901699 -0.30901699
0.26286556 -0.95105652 -0.16245985
0.52573111 -0.85065081 0.0
0.26286556 -0.95105652 0.16245985
0.58778525 -0.4253254 -0.68819096
0.68819096 -0.58778525 -0.4253254
0.4253254 -0.68819096 -0.58778525
0.16245985 0.26286556 -0.95105652
-0.16245985 0.26286556 -0.95105652
0.0 0.52573111 -0.85065081

CELLS 188 752
3 0 1 2
3 1 3 2
3 1 4 3
3 2 3 5
3 6 7 8
3 7 9 8
3 7 10 9
3 8 9 11
3 12 13 14
3 14 13 15
3 12 16 13
3 16 17 13
3 16 18 17
3 13 17 15
3 18 16 19
3 19 16 12
3 15 17 0
3 17 18 0
3 18 20 0
3 0 20 1
3 18 21 20
3 21 22 20
3 21 23 22
3 20 22 1
3 23 21 19
3 19 21 18
3 1 22 4
3 22 23 4
3 3 24 5
3 5 24 25
3 3 26 24
3 26 27 24
3 26 28 27
3 24 27 25
3 28 26 4
3 4 26 3
3 25 27 29
3 27 28 29
3 25 30 5
3 5 30 31
3 25 32 30
3 32 33 30
3 32 34 33
3 30 33 31
3 34 32 29
3 29 32 25
3 31 33 35
3 33 34 35
3 31 36 5
3 5 36 37
3 31 38 36
3 38 39 36
3 38 40 39
3 36 39 37
3 40 38 35
3 35 38 31
3 37 39 41
3 39 40 41
3 42 43 35
3 35 43 40
3 42 44 43
3 44 45 43
3 44 46 45
3 43 45 40
3 46 44 11
3 11 44 42
3 40 45 41
3 45 46 41
3 46 47 41
3 41 47 48
3 46 49 47
3 49 50 47
3 49 51 50
3 47 50 48
3 51 49 11
3 11 49 46
3 48 50 14
3 50 51 14
3 52 53 19
3 19 53 54
3 52 55 53
3 55 56 53
3 55 57 56
3 53 56 54
3 57 55 10
3 10 55 52
3 54 56 58
3 56 57 58
3 15 59 14
3 14 59 48
3 15 60 59
3 60 61 59
3 60 62 61
3 59 61 48
3 62 60 0
3 0 60 15
3 48 61 41
3 61 62 41
3 2 63 0
3 0 63 62
3 2 64 63
3 64 65 63
3 64 37 65
3 63 65 62
3 37 64 5
3 5 64 2
3 62 65 41
3 65 37 41
3 66 67 58
3 58 67 68
3 66 69 67
3 69 70 67
3 69 71 70
3 67 70 68
3 71 69 6
3 6 69 66
3 68 70 29
3 70 71 29
3 72 73 4
3 4 73 28
3 72 74 73
3 74 75 73
3 74 68 75
3 73 75 28
3 68 74 58
3 58 74 72
3 28 75 29
3 75 68 29
3 8 76 6
3 6 76 77
3 8 78 76
3 78 79 76
3 78 42 79
3 76 79 77
3 42 78 11
3 11 78 8
3 77 79 35
3 79 42 35
3 34 80 35
3 35 80 77
3 34 81 80
3 81 82 80
3 81 71 82
3 80 82 77
3 71 81 29
3 29 81 34
3 77 82 6
3 82 71 6
3 57 83 58
3 58 83 66
3 57 84 83
3 84 85 83
3 84 7 85
3 83 85 66
3 7 84 10
3 10 84 57
3 66 85 6
3 85 7 6
3 86 87 10
3 10 87 9
3 86 88 87
3 88 89 87
3 88 51 89
3 87 89 9
3 51 88 14
3 14 88 86
3 9 89 11
3 89 51 11
3 12 90 19
3 19 90 52
3 12 91 90
3 91 92 90
3 91 86 92
3 90 92 52
3 86 91 14
3 14 91 12
3 52 92 10
3 92 86 10
3 54 93 19
3 19 93 23
3 54 94 93
3 94 95 93
3 94 72 95
3 93 95 23
3 72 94 58
3 58 94 54
3 23 95 4
3 95 72 4

CELL_TYPES 188
5
5
5
5
5
5
5
5
5
5
5
5
5
5
5
5
5
5
5
5
5
5
5
5
5
5
5
5
5
5
5
5
5
5
5
5
5
5
5
5
5
5
5
5
5
5
5
5
5
5
5
5
5
5
5
5
5
5
5
5
5
5
5
5
5
5
5
5
5
5
5
5
5
5
5
5
5
5
5
5
5
5
5
5
5
5
5
5
5
5
5
5
5
5
5
5
5
5
5
5
5
5
5
5
5
5
5
5
5
5
5
5
5
5
5
5
5
5
5
5
5
5
5
5
5
5
5
5
5
5
5
5
5
5
5
5
5
5
5
5
5
5
5
5
5
5
5
5
5
5
5
5
5
5
5
5
5
5
5
5
5
5
5
5
5
5
5
5
5
5
5
5
5
5
5
5
5
5
5
5
5
5
5
5
5
5
5
5

CELL_DATA 188
SCALARS cell_data_0 double
LOOKUP_TABLE default
4.12968748989e-07
2.16184216173e-06
4.09487323025e-07
4.09558415686e-07
4.12961954946e-07
2.16165225867e-06
4.09631483888e-07
4.09593111329e-07
1.13164823593e-07
1.37836473645e-07
2.57719986361e-07
2.60084499759e-08
2.74032135749e-07
2.66124012006e-07
9.52856753918e-08
1.45481683788e-07
1.47185197604e-07
1.56672846476e-07
2.51076826397e-07
4.9247539095e-07
2.14789735952e-07
1.07291540149e-07
2.14028535811e-07
5.63135455146e-07
5.89278103724e-08
8.55878783401e-08
5.15580801496e-07
2.90173370371e-07
5.1574801522e-07
2.80575361248e-07
5.64219306803e-07
1.07260829258e-07
2.14356395846e-07
2.14324971846e-07
2.50927265221e-07
4.92541223748e-07
5.89493357874e-08
8.60847500479e-08
1.30120476203e-07
1.70051886739e-07
2.74511550987e-07
2.6008531813e-08
2.57203343311e-07
2.66119968668e-07
1.16454800654e-07
1.23971526029e-07
1.09136581477e-07
1.42581528532e-07
1.47137572909e-07
1.52483709802e-07
2.66584957437e-07
2.60071197948e-08
2.57199684798e-07
2.74058642259e-07
1.13040257589e-07
1.37784633862e-07
9.54472483993e-08
1.46620241665e-07
9.52767895007e-08
1.45494487337e-07
2.74511755888e-07
2.60080171158e-08
2.66104597016e-07
2.57197127546e-07
1.47199645179e-07
1.52553656198e-07
1.13120630641e-07
1.38720148424e-07
1.09244325053e-07
1.41793721139e-07
2.66592137504e-07
2.60065316977e-08
2.73986452089e-07
2.57239187011e-07
1.29994573944e-07
1.69978701501e-07
1.16463144852e-07
1.2598965856e-07
1.09284782692e-07
1.41834444004e-07
2.666389336e-07
2.60095554253e-08
2.7399165124e-07
2.5719130372e-07
1.30063098174e-07
1.7004730844e-07
1.1641770348e-07
1.25968036883e-07
1.09117352768e-07
1.41720742808e-07
2.66598829318e-07
2.60074938381e-08
2.74010531409e-07
2.57182567812e-07
1.30184346674e-07
1.70090753936e-07
1.16370439517e-07
1.25963661926e-07
5.15686158363e-07
2.80587752345e-07
5.6416564646e-07
1.07256064259e-07
2.14319884909e-07
2.14310649649e-07
2.51029611239e-07
4.92447869465e-07
5.87735460812e-08
8.60856589244e-08
9.53269384715e-08
1.45481453707e-07
2.74523672601e-07
2.60066618168e-08
2.66103861789e-07
2.57224874941e-07
1.47157063361e-07
1.52522443898e-07
1.13082999071e-07
1.38728944391e-07
1.47314939403e-07
1.52550771417e-07
2.66637969578e-07
2.6007431733e-08
2.57177435115e-07
2.73987727858e-07
1.13211451405e-07
1.37846540355e-07
9.50971330462e-08
1.46584905368e-07
5.1575995694e-07
2.80507567169e-07
5.64174526733e-07
1.07281559369e-07
2.1432751123e-07
2.14325827276e-07
2.51091385842e-07
4.92454660419e-07
5.89375112008e-08
8.60141256065e-08
1.1645786271e-07
1.23963676021e-07
2.57698849913e-07
2.60080943464e-08
2.66139858664e-07
2.74036979342e-07
1.09115281987e-07
1.41741704753e-07
1.30092141388e-07
1.73372621909e-07
5.89295390586e-08
8.55707953413e-08
2.14780874609e-07
1.07273154288e-07
5.63074674821e-07
2.14018813934e-07
5.15801633408e-07
2.80505215257e-07
2.51118070598e-07
4.68835966239e-07
2.50885232103e-07
4.92529154404e-07
2.14790110165e-07
1.07255876724e-07
2.1404263626e-07
5.63068495469e-07
5.8958928672e-08
8.55846889567e-08
5.15741428968e-07
2.90174820859e-07
1.13068280061e-07
1.37789817809e-07
2.57725172072e-07
2.60055156159e-08
2.74040304189e-07
2.66079921655e-07
9.54103941918e-08
1.45538140048e-07
1.47033424001e-07
1.56653812432e-07
1.16397887751e-07
1.23923000308e-07
2.57705910983e-07
2.60097097252e-08
2.66165628629e-07
2.74037376255e-07
1.09304598004e-07
1.41826367027e-07
1.30176219045e-07
1.73381685538e-07

