# vtk DataFile Version 3.0
File Name: Molecule/sphere_cent/sphere_cent_0-s4.vtk
ASCII
DATASET UNSTRUCTURED_GRID
FIELD FieldData 1
TIME 1 1 double
0.0
POINTS 231 double
0.850650808352 0.0 -0.525731112119
0.951056516295 0.162459848116 -0.26286555606
0.951056516295 -0.162459848116 -0.26286555606
0.809016994375 0.309016994375 -0.5
1.0 0.0 0.0
0.525731112119 0.0 -0.850650808352
0.587785252292 0.425325404176 -0.688190960236
0.425325404176 0.688190960236 -0.587785252292
0.688190960236 0.587785252292 -0.425325404176
0.309016994375 0.5 -0.809016994375
0.5 0.809016994375 -0.309016994375
0.259891913008 0.862668480416 -0.433888564553
0.16062203564 0.702046444776 -0.69378047756
0.0 0.850650808352 -0.525731112119
0.0 0.961938357784 -0.273266528913
-0.26286555606 0.951056516295 -0.162459848116
-0.525731112119 0.850650808352 0.0
-0.26286555606 0.951056516295 0.162459848116
-0.5 0.809016994375 -0.309016994375
-0.5 0.809016994375 0.309016994375
-0.259891913008 0.862668480416 -0.433888564553
-0.702046444776 0.69378047756 0.16062203564
-0.702046444776 0.69378047756 -0.16062203564
-0.850650808352 0.525731112119 0.0
-0.862668480416 0.433888564553 0.259891913008
-0.688190960236 0.587785252292 0.425325404176
-0.309016994375 0.5 0.809016994375
-0.162459848116 0.26286555606 0.951056516295
0.0 0.525731112119 0.850650808352
0.0 0.0 1.0
0.162459848116 0.26286555606 0.951056516295
0.309016994375 -0.5 -0.809016994375
0.16062203564 -0.702046444776 -0.69378047756
0.0 -0.525731112119 -0.850650808352
-0.16062203564 -0.702046444776 -0.69378047756
0.0 -0.850650808352 -0.525731112119
-0.309016994375 -0.5 -0.809016994375
-0.951056516295 -0.162459848116 -0.26286555606
-0.951056516295 0.162459848116 -0.26286555606
-0.850650808352 0.0 -0.525731112119
-1.0 0.0 0.0
-0.809016994375 -0.309016994375 -0.5
-0.862668480416 -0.433888564553 -0.259891913008
-0.961938357784 -0.273266528913 0.0
-0.850650808352 -0.525731112119 0.0
-0.809016994375 0.309016994375 -0.5
-0.862668480416 0.433888564553 -0.259891913008
-0.961938357784 0.273266528913 0.0
-0.16062203564 0.702046444776 -0.69378047756
-0.425325404176 0.688190960236 -0.587785252292
-0.309016994375 0.5 -0.809016994375
-0.587785252292 0.425325404176 -0.688190960236
-0.688190960236 0.587785252292 -0.425325404176
-0.702046444776 -0.69378047756 -0.16062203564
-0.702046444776 -0.69378047756 0.16062203564
-0.525731112119 -0.850650808352 0.0
-0.5 -0.809016994375 -0.309016994375
-0.5 -0.809016994375 0.309016994375
-0.26286555606 -0.951056516295 -0.162459848116
-0.26286555606 -0.951056516295 0.162459848116
0.0 -1.0 0.0
-0.259891913008 -0.862668480416 -0.433888564553
0.0 -0.961938357784 -0.273266528913
-0.862668480416 -0.433888564553 0.259891913008
-0.688190960236 -0.587785252292 0.425325404176
-0.809016994375 -0.309016994375 0.5
-0.809016994375 0.309016994375 0.5
-0.951056516295 0.162459848116 0.26286555606
-0.850650808352 0.0 0.525731112119
-0.951056516295 -0.162459848116 0.26286555606
-0.425325404176 -0.688190960236 -0.587785252292
-0.688190960236 -0.587785252292 -0.425325404176
-0.587785252292 -0.425325404176 -0.688190960236
0.259891913008 -0.862668480416 -0.433888564553
0.26286555606 -0.951056516295 -0.162459848116
0.688190960236 -0.587785252292 -0.425325404176
0.5 -0.809016994375 -0.309016994375
0.425325404176 -0.688190960236 -0.587785252292
0.162459848116 0.26286555606 -0.951056516295
-0.162459848116 0.26286555606 -0.951056516295
0.0 0.525731112119 -0.850650808352
0.0 0.850650808352 0.525731112119
-0.259891913008 0.862668480416 0.433888564553
-0.16062203564 0.702046444776 0.69378047756
-0.425325404176 0.688190960236 0.587785252292
-0.587785252292 0.425325404176 0.688190960236
-0.433888564553 0.259891913008 0.862668480416
-0.69378047756 0.16062203564 0.702046444776
-0.525731112119 0.0 0.850650808352
-0.433888564553 -0.259891913008 0.862668480416
-0.273266528913 0.0 0.961938357784
-0.162459848116 -0.26286555606 0.951056516295
-0.309016994375 -0.5 0.809016994375
0.0 -0.525731112119 0.850650808352
0.162459848116 -0.26286555606 0.951056516295
0.309016994375 -0.5 0.809016994375
-0.16062203564 -0.702046444776 0.69378047756
0.16062203564 -0.702046444776 0.69378047756
0.0 -0.850650808352 0.525731112119
0.273266528913 0.0 0.961938357784
0.433888564553 -0.259891913008 0.862668480416
0.525731112119 0.0 0.850650808352
0.69378047756 -0.16062203564 0.702046444776
0.587785252292 -0.425325404176 0.688190960236
0.809016994375 -0.309016994375 0.5
0.425325404176 -0.688190960236 0.587785252292
0.688190960236 -0.587785252292 0.425325404176
0.5 -0.809016994375 0.309016994375
0.259891913008 -0.862668480416 0.433888564553
0.862668480416 -0.433888564553 0.259891913008
0.702046444776 -0.69378047756 0.16062203564
0.850650808352 -0.525731112119 0.0
0.961938357784 -0.273266528913 0.0
0.951056516295 -0.162459848116 0.26286555606
0.951056516295 0.162459848116 0.26286555606
0.850650808352 0.0 0.525731112119
0.809016994375 0.309016994375 0.5
0.961938357784 0.273266528913 0.0
0.862668480416 0.433888564553 0.259891913008
0.850650808352 0.525731112119 0.0
0.69378047756 0.16062203564 0.702046444776
-0.259891913008 -0.862668480416 0.433888564553
-0.425325404176 -0.688190960236 0.587785252292
-0.587785252292 -0.425325404176 0.688190960236
-0.69378047756 -0.16062203564 0.702046444776
0.702046444776 -0.69378047756 -0.16062203564
0.525731112119 -0.850650808352 0.0
0.26286555606 -0.951056516295 0.162459848116
0.0 -0.961938357784 0.273266528913
-0.601500955008 0.707106781186 0.37174803446
-0.518332565981 0.56541318032 0.641591214532
-0.757935420048 0.453990499739 0.468429850867
0.688190960236 0.587785252292 0.425325404176
0.587785252292 0.425325404176 0.688190960236
0.386187385588 -0.891006524188 -0.238676930319
0.133071104141 -0.987688340595 -0.0822424652791
0.396525177464 -0.914857743445 0.0761780342124
0.809016994375 -0.309016994375 -0.5
0.891006524188 -0.238676930319 -0.386187385588
0.862668480416 -0.433888564553 -0.259891913008
0.925614793411 -0.353553390593 -0.135045378369
0.69378047756 -0.16062203564 -0.702046444776
0.862668480416 0.433888564553 -0.259891913008
0.757935420048 0.453990499739 -0.468429850867
0.790569415042 0.572061402817 -0.218508012224
0.702046444776 0.69378047756 -0.16062203564
0.601500955008 0.707106781186 -0.37174803446
0.519258489728 0.840177885327 -0.15643446504
0.707106781187 0.707106781187 0.0
0.525731112119 0.850650808352 0.0
0.702046444776 0.69378047756 0.16062203564
0.519258489728 0.840177885327 0.15643446504
0.5 0.809016994375 0.309016994375
0.386187385588 0.891006524188 -0.238676930319
0.399607051702 0.912982492932 -0.0823235800317
0.26286555606 0.951056516295 -0.162459848116
0.266404701135 0.963861263467 0.0
0.399607051702 0.912982492932 0.0823235800317
0.26286555606 0.951056516295 0.162459848116
0.133071104141 0.987688340595 -0.0822424652791
0.133071104141 0.987688340595 0.0822424652791
0.0 1.0 0.0
0.386187385588 0.891006524188 0.238676930319
0.132792476828 0.966392597402 -0.220117027473
0.0 0.990438881957 -0.137952242128
0.259891913008 0.862668480416 0.433888564553
0.135045378369 0.925614793411 0.353553390593
0.0 0.961938357784 0.273266528913
-0.133071104141 0.987688340595 0.0822424652791
-0.135045378369 0.925614793411 0.353553390593
0.0 0.707106781187 0.707106781187
0.16062203564 0.702046444776 0.69378047756
0.15643446504 0.519258489728 0.840177885327
0.309016994375 0.5 0.809016994375
0.0823235800317 0.399607051702 0.912982492932
0.238676930319 0.386187385588 0.891006524188
0.433888564553 0.259891913008 0.862668480416
0.353553390593 0.135045378369 0.925614793411
0.238676930319 -0.386187385588 -0.891006524188
0.433888564553 -0.259891913008 -0.862668480416
0.353553390593 -0.135045378369 -0.925614793411
0.162459848116 -0.26286555606 -0.951056516295
0.273266528913 0.0 -0.961938357784
0.0822424652791 -0.133071104141 -0.987688340595
0.0 0.0 -1.0
-0.162459848116 -0.26286555606 -0.951056516295
0.0 -0.266404701135 -0.963861263467
-0.238676930319 -0.386187385588 -0.891006524188
-0.0822424652791 -0.133071104141 -0.987688340595
-0.273266528913 0.0 -0.961938357784
-0.353553390593 -0.135045378369 -0.925614793411
-0.525731112119 0.0 -0.850650808352
-0.433888564553 -0.259891913008 -0.862668480416
0.601500955008 0.707106781186 0.37174803446
0.790569415042 0.572061402817 0.218508012224
0.468429850867 0.757935420048 0.453990499739
0.564254211766 0.646577791798 0.51337544123
0.425325404176 0.688190960236 0.587785252292
0.51337544123 0.564254211766 0.646577791798
0.646577791798 0.51337544123 0.564254211766
0.37174803446 0.601500955008 0.707106781186
0.453990499739 0.468429850867 0.757935420048
0.218508012224 0.790569415042 0.572061402817
0.572061402817 0.218508012224 0.790569415042
-0.840177885327 -0.15643446504 -0.519258489728
-0.69378047756 -0.16062203564 -0.702046444776
-0.707106781187 0.0 -0.707106781187
-0.69378047756 0.16062203564 -0.702046444776
-0.840177885327 0.15643446504 -0.519258489728
-0.453990499739 0.468429850867 -0.757935420048
-0.707106781186 0.37174803446 -0.601500955008
-0.572061402817 0.218508012224 -0.790569415042
-0.433888564553 0.259891913008 -0.862668480416
-0.453990499739 -0.468429850867 -0.757935420048
-0.572061402817 -0.218508012224 -0.790569415042
-0.707106781186 -0.37174803446 -0.601500955008
0.707106781186 -0.37174803446 -0.601500955008
0.572061402817 -0.218508012224 -0.790569415042
0.587785252292 -0.425325404176 -0.688190960236
0.453990499739 -0.468429850867 -0.757935420048
0.757935420048 -0.453990499739 -0.468429850867
0.646577791798 -0.51337544123 -0.564254211766
0.790569415042 -0.572061402817 -0.218508012224
-0.0822424652791 0.133071104141 -0.987688340595
-0.238676930319 0.386187385588 -0.891006524188
-0.353553390593 0.135045378369 -0.925614793411
-0.37174803446 -0.601500955008 0.707106781186
-0.453990499739 -0.468429850867 0.757935420048
-0.518332565981 -0.56541318032 0.641591214532
-0.646577791798 -0.51337544123 0.564254211766
-0.564254211766 -0.646577791798 0.51337544123

CELLS 458 1832
3 0 1 2
3 0 3 1
3 2 1 4
3 3 0 5
3 6 7 8
3 6 9 7
3 9 6 5
3 5 6 3
3 10 7 11
3 7 12 11
3 7 9 12
3 11 12 13
3 11 13 14
3 15 16 17
3 15 18 16
3 17 16 19
3 14 20 15
3 14 13 20
3 15 20 18
3 19 16 21
3 16 22 21
3 16 18 22
3 21 22 23
3 21 24 25
3 21 23 24
3 26 27 28
3 27 29 30
3 31 32 33
3 32 34 33
3 32 35 34
3 33 34 36
3 37 38 39
3 37 40 38
3 41 42 37
3 42 43 37
3 42 44 43
3 37 43 40
3 45 38 46
3 38 47 46
3 38 40 47
3 46 47 23
3 13 48 20
3 48 49 20
3 48 50 49
3 20 49 18
3 51 52 49
3 49 52 18
3 18 52 22
3 52 46 22
3 52 45 46
3 22 46 23
3 44 53 54
3 53 55 54
3 53 56 55
3 54 55 57
3 56 58 55
3 58 59 55
3 58 60 59
3 55 59 57
3 56 61 58
3 61 62 58
3 61 35 62
3 58 62 60
3 44 54 63
3 54 64 63
3 54 57 64
3 63 64 65
3 66 67 68
3 67 69 68
3 67 40 69
3 68 69 65
3 66 24 67
3 24 47 67
3 24 23 47
3 67 47 40
3 65 69 63
3 69 43 63
3 69 40 43
3 63 43 44
3 70 71 72
3 70 56 71
3 36 34 70
3 34 61 70
3 34 35 61
3 70 61 56
3 41 71 42
3 71 53 42
3 71 56 53
3 42 53 44
3 35 73 62
3 73 74 62
3 75 76 77
3 31 77 32
3 77 73 32
3 77 76 73
3 32 73 35
3 5 78 9
3 79 80 78
3 78 80 9
3 9 80 12
3 80 48 12
3 80 50 48
3 12 48 13
3 81 82 83
3 82 84 83
3 82 19 84
3 83 84 26
3 26 85 86
3 85 87 86
3 85 66 87
3 86 87 88
3 88 89 90
3 89 91 90
3 89 92 91
3 90 91 29
3 92 93 91
3 93 94 91
3 93 95 94
3 91 94 29
3 92 96 93
3 96 97 93
3 96 98 97
3 93 97 95
3 29 94 99
3 94 100 99
3 94 95 100
3 99 100 101
3 101 100 102
3 100 103 102
3 100 95 103
3 102 103 104
3 95 105 103
3 105 106 103
3 105 107 106
3 103 106 104
3 95 97 105
3 97 108 105
3 97 98 108
3 105 108 107
3 104 106 109
3 106 110 109
3 106 107 110
3 109 110 111
3 111 112 109
3 112 113 109
3 112 4 113
3 109 113 104
3 4 114 113
3 114 115 113
3 114 116 115
3 113 115 104
3 4 117 114
3 117 118 114
3 117 119 118
3 114 118 116
3 104 115 102
3 115 120 102
3 115 116 120
3 102 120 101
3 57 121 122
3 121 96 122
3 121 98 96
3 65 123 124
3 123 89 124
3 124 89 88
3 76 125 126
3 125 110 126
3 125 111 110
3 126 110 107
3 60 127 128
3 127 108 128
3 127 107 108
3 128 108 98
3 4 112 2
3 119 117 1
3 1 117 4
3 19 82 17
3 19 129 84
3 129 130 84
3 129 25 130
3 84 130 26
3 25 131 130
3 131 85 130
3 131 66 85
3 130 85 26
3 25 129 21
3 21 129 19
3 66 131 24
3 24 131 25
3 28 83 26
3 88 90 27
3 27 90 29
3 26 86 27
3 27 86 88
3 29 99 30
3 116 118 132
3 133 120 116
3 98 121 59
3 59 121 57
3 60 128 59
3 59 128 98
3 88 87 68
3 68 87 66
3 65 124 68
3 68 124 88
3 76 134 73
3 73 134 74
3 74 135 62
3 62 135 60
3 60 135 127
3 135 136 127
3 135 74 136
3 127 136 107
3 107 136 126
3 136 134 126
3 136 74 134
3 126 134 76
3 75 125 76
3 137 138 139
3 138 140 139
3 138 2 140
3 139 140 111
3 2 138 0
3 0 138 137
3 137 141 0
3 0 141 5
3 3 142 1
3 1 142 119
3 3 143 142
3 143 144 142
3 143 8 144
3 142 144 119
3 119 144 145
3 144 146 145
3 144 8 146
3 145 146 10
3 8 143 6
3 6 143 3
3 10 146 7
3 7 146 8
3 10 147 145
3 147 148 145
3 147 149 148
3 145 148 119
3 119 148 150
3 148 151 150
3 148 149 151
3 150 151 152
3 10 153 147
3 153 154 147
3 153 155 154
3 147 154 149
3 155 156 154
3 156 157 154
3 156 158 157
3 154 157 149
3 155 159 156
3 159 160 156
3 159 161 160
3 156 160 158
3 149 157 151
3 157 162 151
3 157 158 162
3 151 162 152
3 155 153 11
3 11 153 10
3 14 163 11
3 11 163 155
3 155 163 159
3 163 164 159
3 163 14 164
3 159 164 161
3 152 162 165
3 162 166 165
3 162 158 166
3 165 166 81
3 158 160 166
3 160 167 166
3 160 161 167
3 166 167 81
3 161 168 167
3 168 169 167
3 168 17 169
3 167 169 81
3 17 168 15
3 15 168 161
3 161 164 15
3 164 14 15
3 81 170 171
3 170 172 171
3 170 28 172
3 171 172 173
3 30 174 27
3 27 174 28
3 28 174 172
3 174 175 172
3 174 30 175
3 172 175 173
3 173 175 176
3 175 177 176
3 175 30 177
3 176 177 101
3 31 178 179
3 178 180 179
3 178 181 180
3 179 180 5
3 5 180 182
3 180 183 182
3 180 181 183
3 182 183 184
3 181 178 33
3 33 178 31
3 185 186 33
3 33 186 181
3 36 187 33
3 33 187 185
3 181 186 183
3 186 188 183
3 186 185 188
3 183 188 184
3 184 188 189
3 188 190 189
3 188 185 190
3 189 190 191
3 185 187 190
3 187 192 190
3 187 36 192
3 190 192 191
3 152 193 150
3 193 194 150
3 193 132 194
3 150 194 119
3 152 195 193
3 195 196 193
3 195 197 196
3 193 196 132
3 197 198 196
3 198 199 196
3 198 133 199
3 196 199 132
3 197 200 198
3 200 201 198
3 200 173 201
3 198 201 133
3 132 199 116
3 199 133 116
3 173 200 171
3 200 202 171
3 200 197 202
3 171 202 81
3 81 202 165
3 202 195 165
3 202 197 195
3 165 195 152
3 133 201 203
3 201 176 203
3 201 173 176
3 203 176 101
3 41 204 205
3 204 206 205
3 204 39 206
3 205 206 191
3 191 206 207
3 206 208 207
3 206 39 208
3 207 208 45
3 39 204 37
3 37 204 41
3 45 208 38
3 38 208 39
3 50 209 49
3 209 51 49
3 51 210 52
3 210 45 52
3 45 210 207
3 210 211 207
3 210 51 211
3 207 211 191
3 191 211 212
3 211 209 212
3 211 51 209
3 212 209 50
3 36 213 192
3 213 214 192
3 213 72 214
3 192 214 191
3 191 214 205
3 214 215 205
3 214 72 215
3 205 215 41
3 72 213 70
3 70 213 36
3 41 215 71
3 71 215 72
3 137 216 141
3 216 217 141
3 216 218 217
3 141 217 5
3 5 217 179
3 217 219 179
3 217 218 219
3 179 219 31
3 137 220 216
3 220 221 216
3 220 75 221
3 216 221 218
3 218 221 77
3 77 221 75
3 31 219 77
3 77 219 218
3 111 222 139
3 222 220 139
3 222 75 220
3 139 220 137
3 5 182 78
3 78 182 184
3 184 223 78
3 223 79 78
3 79 224 80
3 224 50 80
3 50 224 212
3 224 225 212
3 224 79 225
3 212 225 191
3 191 225 189
3 225 223 189
3 225 79 223
3 189 223 184
3 92 226 96
3 96 226 122
3 123 227 89
3 227 92 89
3 111 140 112
3 112 140 2
3 81 169 82
3 82 169 17
3 28 170 83
3 83 170 81
3 101 177 99
3 99 177 30
3 119 194 118
3 118 194 132
3 133 203 120
3 120 203 101
3 92 227 228
3 227 229 228
3 227 123 229
3 228 229 64
3 64 229 65
3 229 123 65
3 122 230 57
3 57 230 64
3 64 230 228
3 230 226 228
3 230 122 226
3 228 226 92
3 75 222 125
3 125 222 111

CELL_TYPES 458
5
5
5
5
5
5
5
5
5
5
5
5
5
5
5
5
5
5
5
5
5
5
5
5
5
5
5
5
5
5
5
5
5
5
5
5
5
5
5
5
5
5
5
5
5
5
5
5
5
5
5
5
5
5
5
5
5
5
5
5
5
5
5
5
5
5
5
5
5
5
5
5
5
5
5
5
5
5
5
5
5
5
5
5
5
5
5
5
5
5
5
5
5
5
5
5
5
5
5
5
5
5
5
5
5
5
5
5
5
5
5
5
5
5
5
5
5
5
5
5
5
5
5
5
5
5
5
5
5
5
5
5
5
5
5
5
5
5
5
5
5
5
5
5
5
5
5
5
5
5
5
5
5
5
5
5
5
5
5
5
5
5
5
5
5
5
5
5
5
5
5
5
5
5
5
5
5
5
5
5
5
5
5
5
5
5
5
5
5
5
5
5
5
5
5
5
5
5
5
5
5
5
5
5
5
5
5
5
5
5
5
5
5
5
5
5
5
5
5
5
5
5
5
5
5
5
5
5
5
5
5
5
5
5
5
5
5
5
5
5
5
5
5
5
5
5
5
5
5
5
5
5
5
5
5
5
5
5
5
5
5
5
5
5
5
5
5
5
5
5
5
5
5
5
5
5
5
5
5
5
5
5
5
5
5
5
5
5
5
5
5
5
5
5
5
5
5
5
5
5
5
5
5
5
5
5
5
5
5
5
5
5
5
5
5
5
5
5
5
5
5
5
5
5
5
5
5
5
5
5
5
5
5
5
5
5
5
5
5
5
5
5
5
5
5
5
5
5
5
5
5
5
5
5
5
5
5
5
5
5
5
5
5
5
5
5
5
5
5
5
5
5
5
5
5
5
5
5
5
5
5
5
5
5
5
5
5
5
5
5
5
5
5
5
5
5
5
5
5
5
5
5
5
5
5
5
5
5
5
5
5
5
5
5
5
5
5
5
5
5
5
5
5
5
5
5
5
5
5
5
5
5
5
5
5
5
5
5
5
5
5
5
5
5
5
5
5
5
5
5
5
5
5
5
5
5
5
5

CELL_DATA 458
SCALARS cell_data_0 double
LOOKUP_TABLE default
2.91868900679e-07
1.73677870731e-08
2.28200496629e-07
2.29828589812e-06
3.5434559283e-07
8.55101130701e-08
1.92114769968e-06
2.09595276186e-06
1.4244818721e-08
1.1374330275e-08
1.26743059805e-07
7.44433044814e-08
2.60853406875e-08
2.427731411e-07
1.58776464521e-07
1.87533193491e-07
8.03714345006e-08
2.01490377066e-08
3.85637590825e-08
1.83534210391e-08
1.17097007378e-07
1.39378986776e-07
3.29774312858e-07
1.45340698573e-07
2.13453210158e-07
2.35822256921e-07
2.40085038815e-07
4.70821605469e-08
6.37421415839e-08
3.46001891882e-07
7.9042879655e-08
3.78283265436e-07
2.30425847343e-07
1.48255170881e-08
2.39249549845e-08
1.13183985678e-08
1.80523059386e-08
1.25332932137e-07
9.74640196195e-08
1.48298169037e-08
3.02928169652e-07
9.28007397261e-09
1.15505021353e-07
1.25723799734e-07
4.41008040962e-08
3.9845875152e-07
2.45017436059e-07
1.37138591684e-07
2.13602857239e-07
1.14587362157e-07
4.25023270725e-07
3.20681810078e-08
5.45208563581e-08
5.44686817674e-08
6.15165097739e-08
1.82376278047e-07
9.30264704593e-08
3.36628813539e-08
6.88310497672e-09
3.23364051432e-08
1.26937138386e-07
1.36001212811e-07
6.95744343387e-08
2.32639455457e-08
3.86285624366e-09
1.03761233191e-08
1.44653014488e-08
9.29042052183e-08
1.01761238072e-07
1.59356429746e-07
1.19555494872e-07
3.99150778275e-09
1.12518729577e-08
1.66121612559e-07
4.20837925005e-08
9.33904641696e-08
6.90896476658e-08
6.07374614372e-08
5.91337160401e-08
3.02684065066e-07
6.62313676619e-08
6.87708160696e-08
6.47485423879e-08
2.11739764489e-07
1.93445439754e-08
1.02947232476e-07
4.93826382831e-08
1.53298501165e-07
3.34384486169e-08
1.51876114837e-07
1.99054909656e-07
2.61015223166e-07
1.18243290192e-07
8.66523876019e-08
3.68812988558e-08
2.947282728e-07
2.17516058307e-06
2.19788263993e-07
1.3679254234e-07
1.7884892164e-07
3.33329580682e-08
3.55351307388e-08
4.32545975843e-08
6.08453024664e-08
8.46371633042e-08
5.05826541341e-08
4.63327353591e-08
4.25381570111e-08
7.93455157644e-08
4.13961421898e-08
5.75404421841e-07
6.5350166356e-07
9.72804913633e-08
2.54813445236e-08
1.28641417019e-07
1.49761719403e-07
1.33797305637e-07
1.5098343641e-07
1.30898645246e-07
5.85205168127e-08
3.58701319288e-08
1.36341291662e-07
1.34681868496e-07
1.71313316613e-08
6.55192830726e-08
2.38708332591e-08
6.15083936137e-08
8.7732725188e-09
3.40403177806e-08
3.27570967761e-08
1.56823943244e-07
1.99183436581e-07
2.43901072527e-07
2.15894991811e-07
4.47691531061e-08
8.18914580328e-08
1.40103657627e-08
1.70804867263e-07
1.21231925009e-08
1.45993934756e-07
4.32118575267e-08
2.30910563008e-08
4.80357977883e-08
1.30834074651e-07
2.28366562077e-07
1.73875011555e-07
9.69491768857e-08
4.18638688722e-07
4.84360914172e-07
3.58464449436e-07
1.43946410453e-07
1.43373176066e-07
3.45134425173e-07
1.61980142509e-07
2.2287084147e-07
1.23827744336e-07
2.0497445775e-07
1.14593806161e-07
1.70115737206e-07
7.50080927082e-08
2.31619595469e-07
8.10733020075e-08
2.09965916992e-07
2.51984150811e-07
5.66639485491e-07
3.75520722306e-07
3.68889431822e-07
1.6680884968e-07
1.77800529155e-07
3.51023413578e-07
3.89930580969e-07
1.09681889805e-07
1.00499381173e-07
1.68175025408e-07
4.9221875491e-07
2.04708517766e-08
4.41152311034e-08
2.77669085018e-08
5.3123334748e-08
7.4122357555e-08
5.14584158062e-08
6.77853401956e-08
3.52316186789e-08
3.63043024819e-08
6.10632785557e-08
1.27354659425e-07
1.48354284827e-07
1.26834324279e-07
1.07879857951e-07
4.67137133311e-08
1.22139969236e-07
1.56368889887e-07
7.22387691752e-08
3.30391008728e-08
5.45572752007e-08
1.67589119928e-07
2.01480204857e-07
2.40894013704e-07
2.35564260382e-07
2.55411411374e-08
4.50706303998e-07
9.57278500928e-08
1.07280779778e-07
1.05493621189e-07
7.6150778023e-08
1.15016267238e-07
1.2143021872e-07
1.16801681462e-07
1.26982782407e-07
8.44023127844e-10
9.13464875366e-08
4.60202967804e-08
7.73712216291e-10
4.5707160821e-08
1.45223916926e-07
5.34738926775e-08
7.33017478367e-08
2.37173925213e-07
2.88858272366e-08
1.77753114194e-08
7.44595279526e-08
5.81440377496e-08
8.1455879692e-08
3.59991036595e-08
2.32060932112e-07
5.11542412896e-07
1.30413063985e-07
6.88533557251e-07
6.57221681405e-08
7.40963256695e-08
8.06748654256e-09
6.49643984684e-08
4.06771158958e-08
1.13556330087e-07
1.27614385614e-08
8.1623740875e-09
5.82040145941e-08
2.27666565047e-07
5.10574110226e-08
3.53585548698e-10
7.25147167105e-08
1.34005259811e-07
7.51218697755e-08
8.3677490882e-09
4.45622733706e-08
2.73340773195e-08
2.56374691119e-08
1.8696690293e-08
7.43962703029e-08
4.20612804691e-08
4.10351063886e-08
1.98687467868e-08
5.36862196097e-08
2.51911864269e-08
1.11568537471e-07
3.88988475929e-08
9.97207355344e-08
6.04104465154e-08
1.03975310088e-07
1.17926776057e-07
9.3353101246e-08
3.30933305714e-08
1.01001528296e-07
1.00876375104e-07
3.60469329066e-08
9.8705981298e-08
8.20847438299e-09
2.0791236025e-08
9.70314806987e-08
5.92156821953e-08
1.2341532766e-07
1.22285614459e-07
3.93413962975e-08
8.05309901929e-08
8.09159475614e-09
4.55859724836e-08
1.59149283673e-08
1.04643968719e-07
7.54159443789e-08
3.77255306733e-12
4.62562798271e-08
9.03848520325e-08
6.95546574964e-08
2.04056846037e-08
4.98063678464e-08
5.27432967746e-09
4.46111212409e-08
1.1606471288e-07
5.11846913229e-08
8.00999792847e-08
4.85050836806e-08
2.92692318794e-08
4.71695799163e-08
3.89572055283e-08
7.94760050418e-08
9.82381271966e-09
1.1109541849e-07
9.97255679929e-08
1.75804802027e-08
4.37005126236e-08
2.64098053473e-08
2.15576633398e-10
9.64662151794e-08
1.11664969706e-08
4.02802579557e-08
4.88131569612e-08
1.12898826463e-07
7.14395098794e-08
5.40656733782e-08
2.07280341165e-09
9.1683570258e-09
6.11218999249e-08
8.04867955971e-09
3.55519060517e-08
1.08305102561e-08
1.39418267627e-08
1.22350660604e-07
5.68579102655e-08
1.65910312e-07
1.12036472145e-07
3.09915174292e-08
5.78474913176e-09
3.61999430189e-08
1.02270746794e-07
6.42970850044e-08
6.00036728697e-08
4.80901051534e-09
5.64326207511e-08
1.70144754076e-08
7.79396749579e-08
3.14677649277e-08
1.22092911346e-08
1.18125085004e-07
9.50277692465e-09
7.79536708669e-08
7.92983054911e-08
4.17628065346e-08
8.08804465958e-09
8.67693318472e-08
8.47104498503e-08
8.81842364666e-08
3.44149691918e-08
1.12633170742e-07
9.54090577146e-08
5.03586929652e-08
2.6589658939e-08
2.82688661216e-09
4.45527378957e-08
1.21726246813e-08
5.92409204821e-08
2.30557232604e-08
7.77513244142e-08
4.7818921432e-09
1.16087276799e-08
3.12564687856e-09
6.57054331067e-08
2.51287200364e-08
1.37020007722e-08
7.88478527107e-08
4.47765389054e-09
6.55229984433e-08
1.10720221412e-07
8.86230664405e-08
6.03838675394e-08
3.21620685731e-08
5.71648452116e-09
3.79414971273e-08
6.53510529825e-08
3.76327769997e-08
3.11787548622e-08
3.55971157228e-08
9.16628742769e-09
6.09009494932e-08
6.22553611298e-08
3.20072182546e-08
3.61962698706e-08
5.94098813129e-08
8.62473619643e-08
8.61818649239e-08
6.44917945896e-08
3.18574105877e-08
1.96901317454e-08
1.3299134666e-08
8.50880615996e-08
1.71681992731e-08
4.02860408433e-08
7.68318333066e-08
5.64599577314e-08
8.77280681544e-09
5.98976928038e-08
2.47286343e-08
5.98967526394e-09
1.11988317019e-07
7.71434187052e-08
8.6479489873e-08
9.04832672208e-08
3.33299101853e-08
1.1577535798e-07
1.02868482384e-07
3.02617142196e-08
7.00775650562e-08
8.25017148053e-08
5.57950258745e-08
2.58318854117e-08
8.74343227898e-08
6.48475986924e-08
8.53440332842e-08
1.86113056175e-08
8.80249030962e-08
2.29288217477e-08
2.62929415911e-08
9.29433904002e-08
4.31981574728e-08
4.84053118417e-08
4.09349486257e-07
9.17150748716e-08
1.51940880555e-08
5.64540550714e-08
8.32289441838e-08
3.11076250436e-08
9.10985901346e-09
5.89683193316e-08
6.11980766652e-08
8.12800398444e-08
1.10955185293e-07
4.57925426105e-08
3.9056004854e-08
1.36372802217e-08
4.03878224871e-08
1.90003198068e-08
5.94443111251e-09
7.79349473282e-08
8.66733937783e-08
5.15386965438e-08
1.86309005618e-07
1.37757210122e-07
7.70095450714e-08
1.26919738443e-07
1.1901491189e-07
9.09529589967e-08
6.24542195873e-09
5.78880348893e-09
2.56027370322e-08
4.49181736476e-08
1.26600352064e-09
3.88656038962e-08
3.16674323474e-08
3.46656653098e-08
1.36841073341e-08
7.74747368072e-08
1.20469825965e-08
3.97363090375e-08
3.32347219997e-08
3.84414363409e-08
8.10698148092e-10
1.60136177489e-09
1.07120810093e-10
3.79853204524e-08

