# vtk DataFile Version 3.0
File Name: Molecule/sphere_dip_sim/sphere_dip_sim_0-s2.vtk
ASCII
DATASET UNSTRUCTURED_GRID
FIELD FieldData 1
TIME 1 1 double
0.0
POINTS 66 double
0.809016994375 -0.309016994375 -0.5
0.809016994375 0.309016994375 -0.5
1.0 0.0 0.0
0.525731112119 0.0 -0.850650808352
0.850650808352 0.525731112119 0.0
0.5 0.809016994375 -0.309016994375
0.309016994375 0.5 -0.809016994375
0.0 0.850650808352 -0.525731112119
0.5 0.809016994375 0.309016994375
0.0 1.0 0.0
-0.309016994375 0.5 0.809016994375
0.0 0.0 1.0
0.309016994375 0.5 0.809016994375
-0.525731112119 0.0 0.850650808352
0.525731112119 0.0 0.850650808352
-0.309016994375 -0.5 0.809016994375
0.309016994375 -0.5 0.809016994375
0.0 -0.850650808352 0.525731112119
0.309016994375 -0.5 -0.809016994375
0.0 0.0 -1.0
-0.309016994375 -0.5 -0.809016994375
0.0 -0.850650808352 -0.525731112119
-0.525731112119 0.0 -0.850650808352
0.809016994375 0.309016994375 0.5
0.0 0.850650808352 0.525731112119
-0.809016994375 -0.309016994375 -0.5
-0.809016994375 0.309016994375 -0.5
-1.0 0.0 0.0
-0.850650808352 -0.525731112119 0.0
-0.850650808352 0.525731112119 0.0
-0.309016994375 0.5 -0.809016994375
-0.5 0.809016994375 -0.309016994375
-0.5 -0.809016994375 -0.309016994375
-0.5 -0.809016994375 0.309016994375
0.0 -1.0 0.0
-0.809016994375 -0.309016994375 0.5
-0.809016994375 0.309016994375 0.5
0.5 -0.809016994375 -0.309016994375
0.5 -0.809016994375 0.309016994375
0.850650808352 -0.525731112119 0.0
0.925325404176 -0.26286555606 0.0
0.0 0.925325404176 0.26286555606
-0.25 0.829833901363 0.417374053247
-0.25 0.904508497187 0.154508497188
-0.5 0.809016994375 0.309016994375
-0.25 0.904508497187 -0.154508497188
-0.5 0.809016994375 0.0
-0.675325404176 0.667374053247 0.154508497188
-0.675325404176 0.667374053247 -0.154508497188
-0.154508497188 0.675325404176 0.667374053247
-0.404508497188 0.654508497187 0.559016994375
-0.654508497187 0.559016994375 0.404508497188
-0.559016994375 0.404508497188 0.654508497187
-0.829833901363 0.417374053247 0.25
0.417374053247 -0.25 0.829833901363
0.667374053247 -0.154508497188 0.675325404176
0.559016994375 -0.404508497188 0.654508497187
0.809016994375 -0.309016994375 0.5
0.404508497188 -0.654508497187 0.559016994375
0.654508497187 -0.559016994375 0.404508497188
0.829833901363 -0.417374053247 0.25
0.675325404176 -0.667374053247 0.154508497188
0.904508497187 -0.154508497188 0.25
0.904508497187 0.154508497188 0.25
0.809016994375 0.0 0.5
0.667374053247 0.154508497188 0.675325404176

CELLS 128 512
3 0 1 2
3 0 3 1
3 2 1 4
3 4 1 5
3 1 6 5
3 1 3 6
3 5 6 7
3 4 5 8
3 5 9 8
3 5 7 9
3 10 11 12
3 10 13 11
3 12 11 14
3 13 15 11
3 15 16 11
3 15 17 16
3 3 18 19
3 18 20 19
3 18 21 20
3 19 20 22
3 4 8 23
3 8 12 23
3 8 24 12
3 22 25 26
3 25 27 26
3 25 28 27
3 26 27 29
3 7 30 31
3 30 26 31
3 30 22 26
3 28 32 33
3 32 34 33
3 32 21 34
3 33 34 17
3 28 33 35
3 33 15 35
3 33 17 15
3 35 15 13
3 13 36 35
3 36 27 35
3 35 27 28
3 22 20 25
3 20 32 25
3 20 21 32
3 25 32 28
3 21 37 34
3 37 38 34
3 34 38 17
3 3 0 18
3 0 37 18
3 0 39 37
3 18 37 21
3 3 19 6
3 19 30 6
3 19 22 30
3 6 30 7
3 2 40 0
3 39 40 0
3 9 41 8
3 8 41 24
3 24 41 42
3 41 43 42
3 41 9 43
3 42 43 44
3 9 45 43
3 45 46 43
3 45 31 46
3 43 46 44
3 31 45 7
3 9 45 7
3 44 46 47
3 46 48 47
3 46 31 48
3 47 48 29
3 24 42 49
3 42 50 49
3 42 44 50
3 49 50 10
3 44 51 50
3 51 52 50
3 51 36 52
3 50 52 10
3 44 47 51
3 47 53 51
3 47 29 53
3 51 53 36
3 10 52 13
3 52 36 13
3 24 49 12
3 49 10 12
3 16 54 11
3 11 54 14
3 14 54 55
3 54 56 55
3 54 16 56
3 55 56 57
3 16 58 56
3 58 59 56
3 58 38 59
3 56 59 57
3 38 58 17
3 16 58 17
3 57 59 60
3 59 61 60
3 59 38 61
3 60 61 39
3 39 40 60
3 40 62 60
3 40 2 62
3 60 62 57
3 2 63 62
3 63 64 62
3 63 23 64
3 62 64 57
3 23 63 4
3 2 63 4
3 57 64 55
3 64 65 55
3 64 23 65
3 55 65 14
3 14 65 12
3 23 65 12
3 29 48 26
3 31 48 26
3 36 53 27
3 53 29 27
3 39 61 37
3 37 61 38

CELL_TYPES 128
5
5
5
5
5
5
5
5
5
5
5
5
5
5
5
5
5
5
5
5
5
5
5
5
5
5
5
5
5
5
5
5
5
5
5
5
5
5
5
5
5
5
5
5
5
5
5
5
5
5
5
5
5
5
5
5
5
5
5
5
5
5
5
5
5
5
5
5
5
5
5
5
5
5
5
5
5
5
5
5
5
5
5
5
5
5
5
5
5
5
5
5
5
5
5
5
5
5
5
5
5
5
5
5
5
5
5
5
5
5
5
5
5
5
5
5
5
5
5
5
5
5
5
5
5
5
5
5

CELL_DATA 128
SCALARS cell_data_0 double
LOOKUP_TABLE default
0.000346243352362
7.56962576737e-05
0.000164389569784
0.000163269506152
0.000218202418612
5.56333911164e-06
8.31450172066e-05
9.55033062421e-05
0.000240032472231
0.000132421418234
0.000234124166293
0.000197030149986
0.000185777285194
0.000200729980572
0.00024622930364
9.95241941176e-05
0.000222108340779
0.000264040036215
5.98310269421e-05
0.000214619975951
6.51417317949e-06
5.72846586612e-05
1.76994716299e-05
2.23369597618e-05
1.29521254815e-05
8.56354723104e-05
5.88421816964e-06
1.21644995099e-05
1.23579386906e-05
6.212142494e-05
7.27282731423e-05
2.98435630479e-06
6.89053115136e-05
1.12910117336e-06
6.62383073905e-05
4.62445030613e-05
3.0371769945e-05
8.61139207676e-05
5.85798839337e-06
9.47939549469e-05
9.28461197556e-05
6.4046054223e-05
5.50983767764e-05
1.36439883157e-05
6.07205755863e-05
7.61677433127e-05
8.08322999066e-07
1.52591138895e-06
6.03145952609e-05
8.92042399844e-07
0.000567964450847
8.52228433418e-06
0.000203589451686
0.000253832710672
0.000214677908695
5.20898020732e-05
0.000107826050536
0.000322155186625
4.23002527425e-05
4.49552224095e-06
1.70497153394e-06
1.91617740033e-06
2.39645361546e-05
0.000102521835168
1.55407974165e-05
1.25217244636e-06
2.07485322038e-05
0.000129751993049
2.54567727048e-05
3.76562805228e-05
0.000110437491746
1.09486185265e-05
2.12672913018e-05
1.54755634851e-05
2.87188182319e-06
9.50058100689e-06
9.27215851791e-05
1.18923053042e-05
0.000141520216305
8.74975422896e-06
2.36971953512e-05
1.95130874691e-05
0.000131535266187
3.89072576478e-05
3.00098962742e-05
7.10336020765e-05
5.41136987976e-05
1.84137068544e-05
2.79535653397e-05
4.58740058998e-05
0.000109406036406
0.000107565604513
2.32926542587e-05
2.23279867682e-05
1.8925190664e-05
8.1723673166e-06
2.34100323021e-05
7.44730625901e-06
3.91791468113e-06
8.34294238561e-06
5.97906345367e-06
1.64907260309e-06
1.87006477361e-06
2.5155144806e-06
1.14079889185e-07
0.000107997403084
0.000101222921439
4.78751011685e-07
2.87051130781e-05
1.64993142461e-06
1.96882740905e-05
2.13106625469e-06
1.70576235233e-07
3.89133475197e-06
3.7494595731e-06
6.20709412604e-05
3.01146100712e-06
5.58342767861e-07
1.01338063081e-05
1.0012594178e-05
3.96544952556e-05
1.0190210434e-05
1.73086787222e-05
6.29395057084e-05
0.000119541351861
6.08643121551e-05
0.000221965994442
1.11724426626e-06

