# vtk DataFile Version 3.0
File Name: Molecule/sphere_cent/sphere_cent_0-s29.vtk
ASCII
DATASET UNSTRUCTURED_GRID
FIELD FieldData 1
TIME 1 1 double
0.0
POINTS 990 double
-0.99640649557 0.84608232975 1.5137009621
-0.87321978807 0.64324849844 1.6796292067
-0.72211056948 0.94925963879 1.605425477
0.33943194151 -1.8826953173 -0.58270657063
0.53383469582 -1.8961863518 -0.34558427334
0.2394721657 -1.9627786875 -0.29135978222
-1.7274577618 -0.77919489145 0.63898575306
-1.5432995558 -0.8958607316 0.90251499414
-1.698122263 -0.60009789467 0.86957490444
-1.3284728527 1.0265369415 -1.0867964029
-1.5304813385 0.83248639107 -0.98200756311
-1.461425066 1.0773595572 -0.8381575942
-1.0173587799 1.6078188419 -0.61400479078
-1.1649950743 1.4268039465 -0.77865993977
-1.2750463486 1.4518402815 -0.51329749823
-1.6548780203 0.86051553488 -0.72035634518
-1.6908791065 0.58384335041 -0.89405316114
-1.1359138489 1.6015359163 0.37462571263
-1.2451754808 1.5578020811 0.15051342547
-1.3721029758 1.42572999 0.2906230092
1.383002162 -0.34231325984 -1.403596282
1.4401358366 -0.056858487427 -1.3866288662
1.595118165 -0.20033119619 -1.1897091866
0.45316529274 0.049742482603 -1.9471210241
0.2114187181 -0.053709242493 -1.9879207611
0.24041363597 0.20006556809 -1.975333333
-1.9447063208 0.4340942204 -0.17186592519
-1.8633041382 0.70819354057 -0.16166439652
-1.8676866293 0.56792354584 -0.4329329133
-0.033831946552 0.042149748653 -1.998799324
0.75482642651 0.61719673872 -1.7460240126
0.56063491106 0.75833666325 -1.7634387016
0.81243747473 0.85800498724 -1.6135931015
-0.40598127246 -1.8630156517 -0.60347640514
-0.71310806274 -1.804908514 -0.48291343451
-0.6123650074 -1.7463417053 -0.75846302509
-0.48369076848 -1.9116716385 -0.33362782001
-1.2257757187 -0.49935588241 1.4993349314
-1.3583182096 -0.67314726114 1.3040405512
-1.1022161245 -0.78171283007 1.4744534492
-1.1153757572 0.53869360685 1.5702066422
-0.16265697777 -1.9501222372 -0.40776333213
-0.53982508183 -1.3240047693 -1.3984184265
-0.67170834541 -1.4828236103 -1.1616631746
-0.85021829605 -1.3260624409 -1.2322506905
-1.623686552 0.5062033534 1.0515143871
-1.4421918392 0.69266891479 1.1999940872
-1.5634278059 0.80571240187 0.94997537136
1.8424332142 -0.7274799943 -0.26847454906
1.8863875866 -0.50164788961 -0.43313166499
1.9319037199 -0.51058739424 -0.083201952279
-0.11016189307 -1.0404908657 1.7043936253
0.10422191024 -0.82654088736 1.8181929588
-0.14846174419 -0.75285899639 1.8465849161
0.030299166217 -0.54093378782 1.9252592325
0.32840120792 -0.54723918438 1.895285368
-1.9442461729 -0.44270288944 0.15433250368
-1.8719353676 -0.68462616205 0.16379868984
-1.8609132767 -0.53997069597 0.49527931213
-1.9125996828 -0.57586079836 -0.10099264979
-0.37088727951 1.8607821465 0.63240814209
-0.65198433399 1.8080791235 0.55281549692
-0.59974783659 1.7251785994 0.81274062395
-0.5185520649 1.9093291759 0.29190739989
-1.5733882189 -0.5924488306 -1.0827299356
-1.6288559437 -0.25775912404 -1.1315120459
-1.4724122286 -0.37795421481 -1.2993352413
-1.4957756996 -0.10735990107 -1.3231803179
-1.173917532 -0.59522527456 -1.5054982901
-1.1433949471 -0.85990303755 -1.3971574306
-1.3729640245 -0.66308319569 -1.2943104506
-0.91019999981 -0.72831261158 -1.6250960827
-1.6136934757 -0.83973884583 -0.83098649979
-1.4472970963 -0.8636841774 -1.0750827789
0.19710277021 -1.100922823 1.6565155983
0.8706253767 1.3680907488 1.1705878973
1.0385234356 1.1190935373 1.2918176651
1.1251293421 1.2830274105 1.0427646637
1.3129030466 0.98842579126 1.1398379803
1.1342127323 0.85887718201 1.4056037664
0.79834163189 1.2009445429 1.3852483034
0.91481333971 0.93961393833 1.5096634626
1.0839116573 1.2874751091 -1.0804698467
0.85253697634 1.3485563993 -1.2059466839
0.95204651356 1.4791660309 -0.95085150003
-0.47538802028 -1.7565602064 0.82964593172
-0.26308366656 -1.8170469999 0.79269421101
-0.20185826719 -1.7050578594 1.0255692005
0.0071803629398 -1.8083462715 0.85320609808
0.10312409699 -1.6526737213 1.1213616133
-0.12709607184 -1.550658226 1.2567148209
-0.3819437325 -1.5513429642 1.2030959129
-0.33524474502 -1.3982328176 1.3901004791
1.7205334902 0.28186520934 0.97853761911
1.6497790813 0.56825685501 0.977388978
1.5602135658 0.38118371367 1.1917849779
1.5530159473 0.073109120131 1.2568843365
1.3855276108 0.25791993737 1.4185484648
1.6560856104 -1.1120324135 -0.12183533609
1.4622008801 -1.3626201153 -0.070096433163
1.4369101524 -1.3552383184 -0.31409832835
0.72104299068 1.6965819597 0.77570921183
0.88742804527 1.7104381323 0.53478431702
0.55901575089 1.833953619 0.56901544333
-0.94062417746 0.30478960276 1.7384166718
-0.77663272619 0.055012330413 1.8421695232
-0.67741411924 0.33536115289 1.8512877226
-1.0974408388 -0.020644165576 1.6716607809
0.12282934785 1.5753321648 1.225982666
0.38262593746 1.6056393385 1.1292899847
0.15818825364 1.7502506971 0.9530620575
0.29318374395 1.4214453697 1.3759486675
0.45829206705 1.7408394814 0.87148356438
0.58252376318 1.418055892 1.2844221592
0.46691438556 1.2581760883 1.4826258421
0.66453540325 1.5765551329 1.0357022285
0.91828513145 1.5136294365 0.93003857136
1.0218087435 -1.7177889347 0.072223708034
1.2751051188 -1.5350426435 -0.1331320405
1.2258270979 -1.5740168095 0.13876520097
1.8469339609 0.15388043225 0.75177282095
1.7879462242 0.4510307014 0.77302187681
-0.61238068342 -0.26799947023 -1.8849002123
-0.74594670534 -0.0031813934911 -1.8555032015
-0.51176333427 0.029808228835 -1.9320662022
-0.87776374817 0.59552067518 -1.6948484182
-0.95643764734 0.34826615453 -1.7214506865
-1.119012475 0.48035120964 -1.5864464045
-0.4701230526 0.018495526165 1.9437410831
-0.6422405839 -0.21432678401 1.8816000223
0.11050900072 -1.4264811277 1.3956263065
0.73306357861 -1.8548226357 0.14909046888
0.80709558725 -1.8231981993 -0.15651598573
0.5423167944 -1.923541069 -0.037710055709
0.47428014874 -1.918936491 0.30451449752
0.19163240492 -1.9537528753 0.38216900826
0.22054030001 -1.9829473495 0.11992118508
-0.038949526846 -1.9895852804 0.19966994226
0.86079782248 -0.41568395495 1.7566279173
0.99313545227 -0.69806236029 1.5894963741
1.0920726061 -0.42477250099 1.6205898523
1.2848169804 -0.56598603725 1.4243246317
1.181281805 -0.87198990583 1.3574799299
0.86283701658 -0.98900872469 1.5088989735
0.68339401484 -0.82364869118 1.6891909838
1.7366615534 -0.82770699263 0.54383158684
1.6303328276 -1.0578736067 0.47200363874
1.7289146185 -0.96839475632 0.26306858659
1.6148848534 -1.1538352966 0.24210374057
1.0328400135 0.67093896866 1.5757118464
1.2293082476 0.53770244122 1.4831022024
1.0680937767 0.42563465238 1.6359277964
0.82879978418 0.56050008535 1.7316550016
0.55533617735 1.4452733994 -1.265879035
0.67615884542 1.5757733583 -1.0294349194
0.36911535263 1.6098619699 -1.1278452873
0.26658692956 1.4441279173 -1.3577725887
0.46666559577 1.7391445637 -0.87044209242
0.064168706536 1.9989818335 -0.00047841577907
0.30719527602 1.9713563919 0.13883331418
0.37214589119 1.9543480873 -0.20417387784
0.69324404001 1.7346273661 -0.71383398771
0.48499524593 1.859525919 -0.55363315344
0.73374885321 1.802090764 -0.46140658855
0.18130278587 1.9286322594 -0.49727737904
0.54267054796 1.9040253162 0.28158739209
0.32346573472 1.9267482758 0.42435461283
0.28999119997 1.8541474342 0.69118469954
0.025414582342 1.9823521376 0.25844094157
-0.29671043158 1.3679929972 1.4281694889
-0.08415863663 1.1866943836 1.6076871157
0.02038458176 1.3827279806 1.4448873997
0.16023156047 1.2308177948 1.5678485632
-0.21987374127 1.9477404356 0.39746379852
-0.22584527731 1.9830795527 0.12771452963
1.2095164061 -0.20865081251 -1.5790866613
1.1504029036 -0.49548381567 -1.5591452122
1.0077856779 -0.32705429196 -1.6961183548
0.91327506304 -0.57149779797 -1.6844156981
-0.66494077444 -1.0732560158 1.5510731936
-0.81092500687 -0.89906728268 1.5916727781
-0.93880307674 -1.0294985771 1.4348512888
-1.1692072153 -1.0019007921 1.27597332
-0.98488020897 -0.56329667568 1.6468783617
0.54883599281 -1.035530448 1.6192115545
0.3861772716 -0.85959196091 1.7640486956
0.70270985365 -1.7975242138 0.51958018541
0.065234705806 -1.906237483 0.60125076771
0.3522528708 -1.8642389774 0.62766754627
-0.029044631869 1.9019600153 0.61659169197
1.475189209 -0.94318050146 0.96602511406
1.5935707092 -0.95530933142 0.74020719528
1.641772151 -0.7343287468 0.87126290798
1.3870992661 -1.1543650627 0.86210888624
1.5156903267 -0.62603110075 1.1445543766
1.650609374 -0.43051156402 1.0421527624
1.4970843792 -0.42220947146 1.2571421862
1.596085906 -0.21289278567 1.1862508059
1.4179260731 -0.21639935672 1.393499136
-0.13396894932 0.76836246252 -1.8407273293
0.041764002293 0.97986507416 -1.7430412769
0.14813226461 0.69115644693 -1.8705878258
-0.48629131913 0.74348419905 -1.7910764217
-0.57715338469 0.94866812229 -1.6629343033
-0.29743760824 0.98047274351 -1.7175762653
0.45011797547 1.1376258135 -1.582028985
0.17056271434 1.2391633987 -1.5605479479
0.46879559755 1.3029712439 -1.4429394007
-0.12637367845 1.1976438761 -1.5967386961
-0.007479137741 1.4154202938 -1.4129678011
-0.25443708897 1.3641681671 -1.4402321577
-0.42650943995 1.1879183054 -1.5513943434
0.067059934139 1.6003764868 -1.1976135969
-0.22313627601 1.5469366312 -1.2479163408
-0.15955539048 1.7198945284 -1.0082943439
0.45654714108 -0.23979206383 1.9322707653
0.14400610328 -0.26267310977 1.9773410559
0.32528033853 -0.028053382412 1.9728571177
0.60037976503 0.029236312956 1.9074362516
0.15566647053 1.7471981049 -0.96073424816
0.25881674886 1.8435659409 -0.73088651896
-0.028009271249 1.8631936312 -0.72652256489
0.065750613809 1.9814794064 -0.26347067952
-0.19112591445 1.9853107929 -0.14868871868
-0.13454033434 1.9472564459 -0.43605342507
-0.41734552383 1.9372121096 -0.2686804235
-0.46510997415 0.79168123007 1.7763420343
-0.15439802408 0.74434840679 1.849812746
-0.24143521488 0.97551107407 1.7291647196
0.028968999162 0.95255088806 1.7573969364
-0.28202220798 -1.1520020962 -1.610093236
-0.22725175321 -1.3733133078 -1.4360773563
-0.29612103105 -1.511166811 -1.2757936716
-0.11212638021 -1.5461280346 -1.2631592751
-1.9181637764 -0.12920278311 -0.55129653215
[...]
CELL_DATA 1976
SCALARS cell_data_0 double
LOOKUP_TABLE default
8.40888146309e-09
1.21013913648e-08
2.73473237067e-09
2.18420723892e-09
2.76346938869e-09
6.14311602935e-10
7.61275984636e-09
7.54143267974e-11
4.18549674313e-09
2.34010800766e-09
9.3230555479e-09
4.58883193638e-09
3.4429018596e-09
5.87287581402e-09
2.97204584036e-09
4.20562132133e-09
1.64559730367e-09
9.1307129788e-09
1.13821886491e-08
9.62482459906e-09
7.77300783775e-10
1.58384598948e-09
2.27526775796e-09
8.15147081272e-09
2.1576271866e-08
1.49439462271e-09
5.67837777108e-09
8.48611090161e-09
1.12725245849e-08
2.17875384496e-09
6.13167051926e-09
9.13408384815e-09
1.04099830734e-08
1.20030129253e-08
1.38965339807e-08
1.24792942137e-08
1.67917043884e-09
2.09314316832e-08
1.30753212184e-08
4.4005185638e-09
5.38479992547e-09
1.13098269299e-09
4.59549820729e-09
1.20061209089e-09
9.68702661223e-10
8.35319885235e-09
4.19270286909e-09
1.34721129705e-09
6.5217012283e-10
3.39648085157e-09
1.19657182361e-08
7.42105300381e-09
1.39675257202e-08
3.72235227131e-09
1.37146919007e-08
7.8437382912e-09
4.71731141401e-09
1.3136443086e-08
5.19354220032e-10
1.7752023729e-09
5.84859049382e-09
3.5633006254e-09
6.50107394065e-11
3.74452917671e-09
4.70035412135e-09
5.39217580353e-09
6.76021839041e-09
1.02412424867e-08
8.15511313061e-09
5.4405462142e-09
8.59107922228e-10
1.32422478719e-09
2.43492479647e-10
2.77390266547e-09
3.44172357289e-09
1.51993566652e-08
1.21963230077e-08
1.09013887947e-08
6.59157835324e-10
4.77873535668e-09
1.12862030203e-08
3.47744108421e-09
4.63076703632e-09
7.4296496115e-10
4.64385644696e-09
1.15245102771e-08
8.2343211684e-09
5.48275589866e-11
4.62380075871e-09
3.86311819907e-09
4.09996484594e-09
2.45706936866e-09
1.36858495306e-09
1.14558899804e-08
9.79665197291e-11
3.12546038275e-09
1.10113052038e-09
1.15533979046e-08
2.30880686658e-09
1.20303713701e-09
1.43982440652e-08
5.6696788975e-09
1.00269606098e-08
1.08597540023e-08
2.15607399526e-09
1.42745408021e-09
1.48153749073e-08
1.99063085274e-09
3.8267867652e-09
2.74508663648e-09
3.45631675282e-09
4.57311807061e-09
5.39566116026e-09
1.01578402761e-09
3.45065027626e-09
3.00093427644e-09
3.3040741029e-09
1.25691850842e-09
9.26689877277e-10
2.29410622664e-09
7.17942573799e-10
7.89143119874e-11
2.06539973862e-08
1.58204809897e-09
1.15988122871e-08
8.8197525251e-09
6.93341628996e-09
9.79480930299e-09
1.26389769861e-08
2.03677806251e-09
1.0684820772e-08
1.07891845387e-08
8.27499479739e-10
5.04941750475e-09
1.420344689e-08
8.88833102168e-09
4.64431127654e-09
1.87616477349e-09
1.0504727456e-09
1.0473939947e-08
3.52806398054e-09
6.32556415013e-09
6.77171262807e-09
4.48061289328e-09
1.13833708793e-10
3.18047954327e-09
7.45846349914e-09
6.3369548351e-09
5.61279711505e-10
6.48714715557e-10
3.26750501161e-09
5.19444010198e-09
5.58946780228e-09
1.86194727369e-09
3.66918559738e-09
8.22797982133e-10
2.0131276076e-08
5.73416409649e-09
1.47199957855e-09
1.58433929788e-09
2.05349615158e-09
7.60725819507e-09
4.61404137492e-09
1.87939099042e-09
4.77691739528e-09
1.22627688565e-09
5.30774485986e-10
3.00585167527e-09
5.11052445101e-09
5.55869791037e-09
4.95385166045e-10
1.73111229209e-08
9.80602435994e-11
8.5289095569e-09
2.07389100422e-09
6.51643995354e-10
8.09927500626e-09
4.22153238278e-09
5.50478947758e-09
1.25093582983e-09
1.29775144725e-09
5.25639210202e-09
2.9816035033e-09
3.39297877998e-09
5.50988696037e-09
2.9172972195e-09
7.56619906417e-09
7.73433830955e-09
3.91256367367e-09
1.35523476321e-08
3.21406757612e-09
1.59613497723e-09
9.88372129197e-09
3.02482341025e-10
6.58100286511e-09
1.95166480439e-10
8.65286981791e-09
3.83500011972e-09
5.4251917964e-09
2.70639624675e-09
3.60814357832e-09
5.80602310213e-09
3.69190135453e-09
3.95939572461e-09
6.51151713153e-09
2.85730901892e-09
3.7482257457e-09
4.44029700178e-09
2.94448787315e-09
7.5916860039e-09
4.912619468e-09
8.8489907603e-09
5.20564547817e-09
3.14685377399e-09
7.16271075329e-09
7.5391382745e-09
1.31798126366e-10
2.06272299167e-09
3.62328438331e-09
1.84574534691e-09
3.93757103341e-10
8.77685895665e-09
1.17651319567e-09
2.71700507416e-09
1.64870789754e-09
2.18272060624e-09
9.12177111737e-09
6.3510150083e-10
6.31273754462e-09
6.37114138307e-09
1.55645241448e-08
2.81723701112e-09
4.64978029649e-09
2.69442766324e-09
9.70931069093e-09
1.19546492571e-10
3.58761573189e-09
2.46370096248e-10
4.9416870439e-09
4.94627724682e-09
1.26110251156e-09
1.20840470246e-08
4.2749205968e-09
9.66283445671e-09
1.84235105885e-09
5.75425741353e-09
3.63733386212e-09
4.55186474296e-10
1.98564780142e-09
1.02875915227e-08
5.11826178783e-09
3.11100613468e-10
1.30770345812e-08
1.16911548459e-08
9.59750839219e-09
9.28732181042e-09
2.21911814432e-09
1.19544105687e-08
3.24285782635e-09
7.84615596081e-10
1.08867214507e-09
1.1233805458e-08
2.44655248646e-08
3.25471781635e-09
3.88988188967e-09
1.03042317731e-09
1.51452763012e-09
6.6284092044e-09
7.36364679137e-09
6.86616993722e-09
6.9131330162e-09
7.30042663456e-09
3.08395060437e-09
4.65033103187e-09
1.92939093018e-10
7.9201766044e-09
1.56325370392e-08
5.98965372457e-10
2.29155833186e-09
4.16122323097e-09
4.31680957791e-09
1.28563715786e-09
7.61729028628e-09
1.01210144625e-09
6.92700880231e-09
5.06613384938e-09
4.47343867746e-09
3.5366303157e-09
1.73020214871e-10
8.15792426206e-09
1.81843090427e-10
3.08933849231e-10
3.81455047976e-09
1.13316375421e-08
1.52164176276e-09
2.86341026195e-09
5.49352693264e-09
5.57371216052e-09
1.10756819257e-09
7.9841551137e-09
1.38006079869e-09
9.46459335244e-09
2.15116111579e-10
3.03424442912e-09
1.75027006252e-09
1.37589005e-08
2.71625114773e-09
3.72296433892e-09
5.73961357048e-09
4.73175611611e-09
3.46362948132e-10
1.51543544338e-09
5.15700480031e-09
5.62776645826e-09
4.19267401242e-09
2.07123404084e-09
3.29001409819e-09
1.22065254054e-09
1.03692363187e-08
1.96829729628e-09
5.32556761944e-09
9.42607494515e-11
1.73344653247e-09
4.48150589678e-10
3.73809544679e-09
2.53276070996e-10
3.00627760392e-09
1.31965475501e-08
1.52828185772e-09
2.46817665622e-09
5.84857512554e-09
3.82660658004e-09
1.78292646738e-08
2.25790219076e-09
1.23333178304e-09
4.72088270105e-09
5.63851729247e-09
2.51575064143e-09
7.65676948659e-09
2.91399208262e-09
1.31291557978e-09
4.30999421791e-09
2.50688720485e-09
1.75306045818e-09
2.83135219462e-09
9.98646387245e-09
1.1010549709e-08
1.03314085036e-08
1.81405160512e-08
5.93065511112e-09
2.35167686952e-09
3.09311308501e-10
3.2788100683e-09
7.81399617609e-09
2.48001792575e-09
1.8757104076e-09
1.89033060064e-09
3.10599403878e-09
1.14915202598e-09
1.38636270049e-09
2.46876536646e-09
1.04534647654e-09
7.6241927491e-09
8.44098618575e-09
3.84782820511e-09
1.48780058693e-09
1.12747837857e-10
2.2352845099e-09
2.10284869528e-09
5.25229089585e-09
3.96390475961e-09
3.99306180669e-10
3.71757793826e-09
2.61812033235e-09
5.2019531221e-10
1.8780839822e-09
2.66956449896e-09
2.25604709117e-10
4.7322092505e-09
6.40515449344e-09
1.05611222552e-08
1.05796965083e-08
9.77322499465e-10
5.91741291035e-09
5.96444905217e-09
1.40785357551e-08
5.04459712885e-09
2.28665573165e-09
5.13624687523e-09
1.68164555251e-08
5.71300160481e-09
6.01825690801e-09
8.73204401728e-09
9.72284359246e-09
8.44655353752e-09
1.90504715197e-10
3.29463867227e-09
6.45109609078e-09
2.60516291324e-10
4.50070650978e-09
2.07801766694e-09
1.02703035771e-10
5.48995447521e-09
5.52136906553e-09
2.98050011164e-09
5.42003967946e-10
2.85001771752e-09
3.36295454325e-09
7.61859017602e-09
6.46066862693e-10
5.70075087249e-10
3.16206921678e-09
2.10237899532e-09
2.68162695105e-09
3.81202671394e-09
4.15836484558e-09
2.92345959519e-09
1.52743892649e-09
1.1631058705e-09
1.07421842912e-09
5.06022771445e-09
1.2793906765e-10
2.17609809731e-09
2.65251506342e-10
3.02902840535e-09
1.22791306259e-08
2.50325362512e-09
2.2781828028e-09
6.52017069132e-10
4.50868144145e-09
1.31633664983e-09
2.58080356279e-09
3.03262040383e-10
1.99567819892e-09
4.10330279953e-09
1.05315186155e-10
5.61441896749e-09
1.93466581559e-09
3.70155803123e-10
8.75273722626e-10
4.85793786768e-09
1.06239793862e-09
8.39055850198e-09
8.28555110196e-10
2.03982117318e-09
7.08891397354e-09
4.8264988582e-09
5.20024726137e-10
4.03585869592e-09
9.07973347675e-10
6.93666008273e-10
2.2078073724e-09
4.3089883373e-09
2.94214907877e-09
2.75585568693e-09
3.44711060948e-09
5.56824711269e-09
3.84300746011e-09
3.97209388613e-09
2.14424112522e-09
1.38728285025e-09
9.70717932429e-10
1.44626292383e-09
3.58933374851e-09
3.20095644073e-09
1.39416521837e-09
3.55266381396e-09
4.08415829164e-09
2.64272611844e-09
5.44215476892e-10
2.89719762331e-09
3.76617138979e-09
2.70310494548e-09
1.38071912225e-09
1.3749220708e-09
2.14668031321e-09
3.40484611442e-09
3.22044552256e-09
1.57274013987e-09
2.31820142311e-09
7.47407623944e-09
2.63139660956e-09
1.83737166958e-09
2.60297657562e-09
7.86665178138e-09
6.99904169197e-09
1.69403804225e-09
9.83836098332e-09
1.07653893887e-09
8.62466054206e-09
5.26767541471e-09
3.11675703817e-09
2.77769640076e-10
3.67769954757e-10
7.88027115094e-09
7.74886880888e-09
1.1980322627e-09
1.02228491682e-09
1.07989647543e-08
3.22603334662e-09
1.1120626731e-09
9.57919521601e-09
6.46936930924e-10
1.57308402101e-09
1.81573616606e-09
2.20295928989e-09
1.22797885433e-08
3.74521430789e-09
5.33199647582e-10
5.47873185398e-09
8.37331802447e-09
1.68694285141e-11
4.21836096171e-09
2.26347017863e-09
6.77313172773e-09
3.79192502529e-09
4.89623402606e-09
2.45655346259e-09
3.51145358471e-09
8.74234515748e-09
5.14700448093e-09
8.65180208879e-09
3.8440049186e-09
2.07829899916e-09
2.56606413125e-09
7.05460629944e-09
4.48816474943e-09
9.72969472765e-11
8.16161436954e-09
1.06412996008e-08
4.94306280274e-10
4.1146773781e-09
6.159679213e-09
2.52175023867e-09
3.49329130002e-09
8.09993444562e-09
2.63485623184e-09
2.5252651297e-09
4.72864944528e-09
4.7418544209e-09
1.26318891664e-09
7.00026608371e-10
1.04050055762e-08
1.44354608441e-08
1.10631582604e-09
3.21095787768e-09
6.36900195665e-09
4.4695463953e-09
3.90896791664e-09
1.95876974396e-09
1.2037532563e-10
3.87310677447e-09
1.01934629534e-09
7.77386390881e-10
1.06881333697e-08
5.78915809792e-09
3.3066084621e-09
5.2298184166e-10
7.07238114986e-09
2.48109250962e-09
3.40754735605e-10
1.23124868489e-09
2.36496164257e-09
1.94284223856e-09
2.98899043967e-09
2.11681645442e-10
9.09814226261e-09
1.75344460692e-09
1.29043346378e-09
2.97031137226e-09
1.23167210359e-09
1.5549475842e-09
1.73631652203e-08
1.48286360848e-10
4.52225855116e-09
7.0346666781e-09
4.93315876088e-09
1.53347695516e-09
6.4787225163e-09
5.20800319714e-09
3.55030469243e-09
1.10764445514e-09
5.35960547987e-10
2.51790302563e-09
3.66707144458e-09
2.30705884144e-09
3.88445329831e-09
1.24603149162e-09
4.17571294907e-09
5.25388941511e-09
8.25149879072e-10
1.29804153165e-09
1.67415379167e-09
1.55917839419e-09
6.65987218774e-09
3.21101205292e-09
3.58389743583e-09
6.99992676657e-09
3.55892222834e-09
1.46330754573e-09
1.14126944573e-08
2.13201910426e-10
2.42557025989e-09
2.56627380778e-09
8.13477256652e-09
1.38011287257e-09
3.4542994168e-09
3.27911589161e-11
2.30302695016e-09
6.80796798599e-09
7.89551870401e-09
5.78131875801e-09
8.56929257529e-09
1.136140554e-09
3.9287547802e-09
4.23566959357e-09
2.05659435397e-09
2.39603809377e-10
1.11095403162e-09
2.1240132579e-09
2.24089667038e-09
5.77364640835e-09
6.86241726885e-09
4.26796736694e-09
5.86311175235e-09
4.54823355481e-09
5.44406717421e-09
3.33418070118e-09
8.53469251305e-10
4.00558868216e-11
2.35392064912e-09
6.76501134165e-10
1.43439375057e-09
1.49371072845e-09
1.80549548362e-09
4.27278522155e-09
8.97998811843e-10
3.41436458798e-09
1.30828489916e-08
3.37772361213e-10
7.06318927861e-09
2.36486168183e-09
1.22855240845e-08
9.3850992463e-09
2.25929789567e-09
3.81056462657e-10
9.93833100666e-10
5.47219139526e-11
2.15877972946e-09
2.29003765925e-09
3.6202534061e-09
3.00018585397e-09
8.06243042361e-10
9.75440525903e-10
4.51189292615e-09
3.00200092529e-09
2.30374539755e-10
3.76489720885e-09
1.53050320951e-09
5.3805156704e-10
6.41982936817e-10
5.60854192687e-11
3.70326886302e-09
7.74279920981e-09
5.03472851015e-09
2.10964865712e-09
2.91982186463e-09
1.64829718153e-09
1.75423621659e-09
2.31531863725e-09
2.34494437968e-10
5.61109817676e-09
3.54628067963e-09
1.51606044639e-09
2.33800159433e-09
3.87546346114e-10
5.53260308416e-09
5.59627057884e-09
2.79513054556e-09
5.46041536473e-09
3.1224651151e-09
8.72658559509e-10
1.08017885909e-09
1.37446441469e-09
3.49491039837e-09
1.22544140655e-09
3.44152683795e-09
2.05446136091e-09
5.38791756185e-09
6.31803336532e-09
1.76339324492e-09
3.84803465335e-09
2.99217424307e-10
4.27200705861e-09
6.98925475454e-09
1.26931514049e-08
4.45726273183e-09
8.49071168387e-11
3.35485700636e-09
4.61353176213e-10
2.95865407385e-09
3.24915050553e-09
8.21738831379e-10
3.23193486224e-09
1.08903432469e-08
9.73526283676e-09
1.46102926723e-09
1.77868103714e-09
2.09645903655e-09
4.83439402616e-09
5.5041778198e-10
1.81687388244e-09
4.44797830495e-09
1.59254385752e-09
4.37434405328e-09
3.67341114714e-09
2.71557274934e-09
2.40806843936e-09
3.28003747849e-09
4.0210632645e-09
2.97721629899e-10
3.23085207004e-09
6.16160413563e-09
2.21878750736e-09
3.24360606435e-09
2.41149892578e-09
3.23316749529e-09
3.575944398e-09
3.16572937383e-09
4.42272552688e-09
1.56525528421e-09
1.83499314107e-10
3.67840117114e-09
2.29412043765e-09
6.88050605669e-09
1.03375186757e-09
1.03640248814e-09
1.79766144955e-09
3.85413913052e-09
1.22267387751e-09
4.0046413666e-10
2.12841234011e-09
4.81721910485e-09
3.86993703544e-09
6.92980081712e-10
7.04214902798e-10
6.06277487192e-09
1.58426927598e-09
2.81565413037e-09
1.99407856457e-09
1.19985605966e-11
3.28495276559e-09
2.79568350713e-09
2.52783738913e-09
2.10905085495e-09
3.42460902081e-10
5.40355162592e-09
6.40172199328e-09
1.91816304733e-09
2.38607162954e-09
8.03876075517e-09
2.60067519984e-09
4.33853584657e-09
3.83373494071e-09
5.04021843187e-10
3.47306655184e-09
7.15803974641e-09
1.72954929248e-09
6.82279078495e-09
6.75613623668e-09
8.10646200295e-09
3.81209107155e-09
7.74866974699e-10
4.88793642642e-09
4.10618027945e-09
1.64042076228e-09
1.7805705018e-10
3.32254310986e-09
3.12204352471e-09
7.51998799056e-10
2.77798321701e-09
9.89083005147e-10
1.26761004915e-09
5.16511212351e-10
1.14627317915e-09
3.61592011574e-09
1.30654053144e-09
4.17222117838e-09
1.3934082604e-09
3.69771118675e-09
7.48602216889e-10
3.42977961558e-09
4.35338195626e-10
2.61128681054e-09
1.33053050856e-09
6.4555611365e-10
8.39110775899e-10
3.64816340699e-09
2.69587958966e-09
9.4803495796e-10
7.25329441175e-09
2.14191909888e-09
3.71073101482e-10
5.21272127887e-09
3.1602343195e-09
3.70809335078e-09
1.88867515237e-10
5.4538078766e-09
7.73751600727e-09
1.99511061419e-09
3.53639399659e-09
1.49135513887e-09
1.68382859489e-09
3.50350250435e-09
5.63143374653e-09
9.72937187991e-10
2.90376380332e-09
5.75429311833e-09
1.3226140681e-10
1.02747790596e-10
5.8624051396e-09
6.82345649009e-09
1.25071338982e-10
2.03865029216e-09
1.42631808542e-09
2.03884148348e-09
5.91330563707e-09
2.06516067026e-09
2.33487702731e-09
2.2480223866e-09
4.1112242275e-09
1.500468056e-10
5.21189321417e-09
4.53744269045e-10
2.76874663868e-09
9.39450102968e-10
5.28650048266e-09
7.23422713271e-09
5.85285952337e-09
8.63235875198e-10
5.51487694963e-09
2.34270019014e-09
5.64149813645e-09
6.933316238e-09
1.28377023012e-09
7.86106083198e-10
7.10507519921e-10
5.25550048059e-09
1.69204265269e-09
6.73635978078e-09
2.46373562062e-09
3.91973173822e-09
3.59830591569e-09
1.95688286839e-09
6.02067481164e-10
7.15886128931e-09
3.31294442015e-09
5.12940104387e-09
2.89609208689e-09
1.25256678172e-09
1.13068263983e-10
7.30530048147e-09
3.0855830751e-09
3.21156108194e-09
3.58515414624e-09
2.58271328294e-09
2.10438588216e-09
3.32578467095e-10
2.6171496366e-09
1.76274400539e-09
3.37489826819e-09
1.52087873135e-09
3.04737130676e-09
7.22440847495e-09
4.70513612214e-09
5.0880141964e-09
3.02240388859e-09
7.16301783297e-10
5.42818992235e-09
1.09044563536e-08
1.08316828093e-08
2.99455288823e-09
7.10052783584e-09
6.35214446048e-09
8.27909946756e-09
9.19071808706e-09
7.09419065708e-09
5.46736330731e-09
8.55076161408e-09
3.18953161547e-09
1.60720781501e-09
2.12187976476e-09
4.90141389191e-10
1.80724261586e-09
7.73346045481e-11
2.9337802915e-09
2.4509870176e-09
5.77732438075e-09
1.71509200759e-09
4.80485915154e-09
1.08762107335e-09
5.71333275702e-10
5.20349368583e-09
7.54661303358e-10
8.08932654063e-10
2.43836463784e-09
3.2319292141e-09
1.34040647837e-09
1.28614394701e-09
3.35641502742e-09
1.51550303952e-09
7.7426046816e-09
1.99485032172e-09
2.21786148377e-09
1.9223364635e-09
7.27852300873e-11
1.97384809278e-09
4.22494328394e-09
1.30911513514e-09
6.0427244737e-09
4.50536017491e-09
3.51523969745e-09
1.44694057161e-09
4.52358196885e-09
3.51435743893e-09
5.10135241264e-09
6.38440263403e-10
3.26123330543e-09
1.4195694702e-09
1.26534674255e-09
2.01474171067e-09
3.8454143775e-09
1.03309575266e-08
1.95640309978e-09
2.6531677931e-09
1.11276815707e-09
3.7500177714e-09
5.76762456495e-09
8.75077725174e-09
2.04862467093e-09
2.64175508674e-10
2.82144945303e-09
1.21699683218e-09
1.49351912734e-09
2.56683966496e-09
3.31965742633e-09
6.1850543215e-09
3.18275116936e-09
6.40552243155e-12
3.85808871907e-09
1.01582504386e-09
2.94143830002e-09
5.01933246355e-09
3.74890529132e-09
8.22205137085e-09
3.82084217115e-09
1.66482768808e-09
1.18707257127e-09
2.27683215285e-09
2.30048284644e-09
1.25490834994e-10
2.21704579091e-09
4.83241149569e-09
3.0763588396e-09
2.94470318425e-09
2.90843805166e-09
2.85613294736e-09
4.73651439688e-09
2.50622305895e-09
2.81483222669e-10
4.11295778598e-10
4.27224593945e-10
3.57487360798e-09
1.38356428558e-09
1.11977864168e-09
3.62793407958e-10
1.08591266185e-09
5.32619019903e-09
2.83685533187e-09
3.79461104892e-09
2.28391589265e-09
2.9252236255e-09
2.12171375118e-09
3.14370083602e-09
1.9297209905e-09
3.16710724266e-09
2.24334435479e-09
9.9833719329e-10
2.01406182125e-09
3.31423402768e-09
2.91127757146e-09
4.3987756074e-09
3.03106202268e-09
7.91053026867e-10
1.21526082127e-08
5.84746486969e-10
2.34006533183e-09
7.03410917823e-09
1.90946403377e-10
1.07126233997e-09
5.18246768036e-09
2.22413666074e-11
5.16165686908e-10
4.5405266922e-10
4.2720519802e-09
1.34738024956e-09
6.9406068704e-09
2.61104337935e-09
1.01514617858e-09
7.01080236652e-09
3.88049860084e-09
3.38804375015e-10
9.59813355099e-09
6.09172899023e-09
7.45711309204e-11
5.32428113363e-09
1.18078670865e-09
3.91815970485e-09
2.32858223569e-09
2.74627445686e-09
2.53758469572e-09
4.52016383307e-09
1.71040472695e-09
9.01112113117e-10
1.40189472665e-09
2.62839003973e-09
1.95744920662e-09
1.17539875372e-09
3.15252298786e-09
3.92601498521e-10
2.95036960989e-09
1.87680892357e-09
5.5609585736e-10
9.88128792502e-10
1.40301368159e-09
2.03837647174e-09
1.25485207617e-09
2.79085323389e-09
3.64659427679e-09
9.24476141718e-10
2.81799303196e-09
7.0450041305e-09
4.34815439193e-10
1.34960852913e-09
8.60012777911e-10
1.67181830303e-09
4.45167032851e-09
1.04681069169e-09
2.05405739036e-09
2.5668532792e-09
3.82206380794e-09
2.05087767595e-09
1.48097367573e-09
2.20163121922e-09
1.18791379383e-09
5.16203107122e-10
9.04731191511e-11
2.81882272775e-09
7.07278196794e-10
3.2687965622e-10
7.14011424722e-09
1.58412120553e-09
3.37518175274e-10
2.54266736699e-09
1.40316456175e-09
2.02572888833e-09
1.12474425827e-09
3.3052556258e-10
1.84657208873e-10
1.51749258104e-10
5.03152930262e-09
3.09178340549e-09
2.61550118147e-09
6.02778918291e-11
1.69349579504e-09
2.47065387554e-09
2.90342981875e-09
9.9710796341e-10
6.51562294729e-09
1.67938480267e-09
5.07551313166e-09
6.56552191136e-10
4.52110131633e-10
9.06941541493e-10
1.86805549285e-09
1.4337645235e-09
5.52272350855e-10
4.98068051758e-09
1.8180183099e-09
1.12386583997e-09
3.95583752019e-09
2.86451798426e-09
1.51994893213e-09
1.47512425125e-09
3.16398213528e-09
2.26631007336e-09
4.04605464984e-10
4.47750116759e-10
1.32761128816e-09
1.6244511056e-09
1.73060522773e-09
2.85573990072e-10
2.1600112193e-09
5.54878578383e-10
5.72491666927e-10
5.15424590409e-10
1.28989722052e-09
1.95548581698e-10
3.25234495832e-09
4.609886115e-10
1.70611936248e-09
1.43123328537e-09
5.85335773907e-09
4.03349626627e-09
4.67625893254e-09