# vtk DataFile Version 3.0
File Name: Molecule/sphere_cent/sphere_cent_0-s17.vtk
ASCII
DATASET UNSTRUCTURED_GRID
FIELD FieldData 1
TIME 1 1 double
0.0
POINTS 244 double
0.68398171663 -1.0156531334 -1.5813025236
0.16372039914 -1.0776246786 -1.6766139269
0.34653994441 -0.61670452356 -1.8705275059
0.86384439468 1.3766995668 1.1653805971
1.1714818478 0.8474778533 1.3817603588
1.4097799063 1.0792646408 0.92049533129
0.57192134857 0.99581348896 1.6370720863
1.6497257948 0.56153935194 0.98115944862
1.5593695641 0.71136820316 -1.0302358866
1.2126957178 0.89550489187 -1.3139374256
1.334359169 1.2085005045 -0.8710372448
0.84797912836 1.3786851168 -1.1747486591
0.99013262987 1.6433788538 -0.56417751312
-1.9324924946 0.21440055966 0.46650871634
-1.9107025862 -0.27855312824 0.51200968027
-1.7259274721 0.0063396589831 1.0093384981
-1.999348402 -0.016534404829 -0.031520977616
-1.6588257551 -0.54032188654 0.97446709871
0.046086721122 1.9993568659 0.00075542740524
-0.45441991091 1.9279989004 -0.26676002145
-0.49040859938 1.9162563086 0.28075584769
-0.98024958372 1.739610076 -0.10079032928
-1.2971707582 1.1689418554 0.97275805473
-1.0905848742 0.89759713411 1.4146739244
-0.83770257235 1.3419588804 1.2210044861
-0.57393348217 0.98153734207 1.6452416182
1.0350687504 -1.5855388641 -0.64366620779
1.0611530542 -1.695160985 0.015447506681
0.6637365222 -1.8550751209 -0.34285691381
0.48292443156 -1.9201513529 0.26594161987
-0.50857371092 -1.9156293869 -0.26312458515
-0.58035522699 -1.8898593187 0.30266258121
-0.96040576696 -1.7504993677 -0.1068052277
-0.088947996497 -1.9975334406 0.038279701024
-0.97551351786 -1.6052802801 0.68636548519
-0.47806161642 -1.7283506393 0.88549125195
-0.06434366107 -1.9200934172 0.55598956347
0.17967393994 -1.662948966 1.0937627554
-0.87382161617 -1.3680057526 1.1683092117
-1.2833764553 -1.2633216381 0.86952704191
-1.1578676701 -0.929017663 1.339063406
-0.66841238737 -1.0369485617 1.5738338232
-0.3666267395 -1.4270465374 1.3523634672
-0.077657341957 -1.0592633486 1.6914066076
-1.9210562706 -0.18897490203 -0.52324622869
-1.9010397196 0.24996609986 -0.56750351191
-1.7224309444 0.0016308482736 -1.0126810074
-1.675295949 0.51863712072 -0.96048223972
-0.58873420954 0.98906284571 -1.6354320049
-1.0553263426 0.86936879158 -1.4593658447
-0.84533268213 1.3190509081 -1.2416762114
-0.73513633013 -1.038888216 -1.5427598953
-0.89364296198 -1.324852705 -1.2017608881
-1.1924023628 -0.89480149746 -1.3308434486
-1.284432888 -1.2366733551 -0.90538030863
1.0460457802 0.0012377700768 1.7046215534
0.89255416393 -0.50775998831 1.7162269354
1.3736314774 -0.31640744209 1.4188364744
1.1765642166 -0.87500023842 1.3601617813
0.67402625084 -1.0146600008 1.5851470232
1.5637238026 -0.66136616468 1.0570559502
0.91468691826 -1.3386216164 1.1708197594
1.3715349436 -1.1570627689 0.88322585821
1.0310026407 -1.580855608 0.65848344564
1.7293174267 -0.84334367514 0.54427754879
1.4469032288 -1.3418703079 0.3251221478
1.7165675163 -1.0234031677 -0.046028848737
1.7315610647 -0.071597799659 0.9968509078
1.3982237577 0.27344167233 1.4035866261
0.8463370204 0.50071579218 1.7414119244
0.3512827158 -0.5245295167 1.8958508968
0.55564540625 0.02456000261 1.9210121632
1.4273866415 -1.3614563942 -0.3289680481
0.27865496278 0.5489038229 1.9028252363
-0.0048396210186 0.047726090997 1.9992469549
0.90717762709 -1.3484498262 -1.1656216383
0.41391286254 -1.4237664938 -1.3422501087
0.57642310858 -1.6767169237 -0.92557424307
-0.085691802204 -1.7152466774 -1.0245709419
-0.28614535928 0.56830281019 -1.8960261345
-0.0066972849891 1.0174791813 -1.721796155
0.19669924676 0.60949027538 -1.8944139481
-0.066605620086 0.046548962593 -1.9972938299
-0.540782094 0.10520807654 -1.9225056171
-0.79560911655 0.50947999954 -1.7627748251
-1.1493800879 -0.0734128654 -1.634478569
0.53805267811 1.0607062578 -1.6061303616
0.27153912187 1.4302930832 -1.370978117
-0.27744442225 1.3656667471 -1.4345012903
-0.11929997802 1.7230846882 -1.0083458424
-0.25820872188 -0.37676548958 -1.9467935562
0.47877073288 1.744433403 -0.85287350416
0.54328525066 1.9039030075 -0.28262320161
0.92495435476 1.7730218172 0.025949543342
0.52557188272 1.9097343683 0.27625671029
0.90375590324 1.6986297369 0.5451580286
0.082499094307 1.9299799204 -0.51780730486
0.46407803893 1.7427904606 0.86416465044
0.079013824463 1.9289352894 0.52181643248
-0.14480400085 1.7215894461 1.0067567825
-0.26744771004 1.3614791632 1.4403510094
0.27523091435 1.4265938997 1.3742448092
-0.00031827786006 1.0078538656 1.727463007
-0.78515017033 0.50908774137 1.7676181793
-0.27755451202 0.55645447969 1.9008626938
-0.53423303366 0.094235897064 1.9250382185
-1.1061731577 -0.034337539226 1.6656115055
-0.27782595158 -0.43303304911 1.9303947687
1.9955642223 -0.0487697348 0.11189249158
1.9270156622 0.52331149578 0.11278071254
1.8926053047 0.31373614073 0.56526178122
1.7648210526 0.79301404953 0.50653201342
1.7179229259 1.0233141184 -0.024905471131
1.0089370012 0.050073947757 -1.7260798216
1.331312418 -0.41939821839 -1.4324121475
0.92894303799 -0.55900907516 -1.6807872057
1.1709852219 -0.9086933732 -1.3427751064
1.5771329403 -0.67698901892 -1.0265523195
1.6572901011 -0.95879501104 -0.577942729
1.3377004862 -1.1887425184 -0.8929361701
1.8740199804 -0.50824433565 -0.47459411621
1.6381039619 -0.11951426417 -1.1404765844
1.8165820837 -0.24021448195 -0.80093830824
1.8319928646 0.14527484775 -0.788828969
1.9464919567 -0.079725459218 -0.44714191556
1.9358738661 0.34201064706 -0.36449626088
1.9442579746 -0.46060785651 -0.063487976789
-0.12633496523 -0.79163825512 -1.8321808577
-0.30127876997 -1.0939621925 -1.646953702
-0.5250108242 -0.72977590561 -1.7865207195
-0.42543512583 -1.3777600527 -1.3860337734
-0.030823552981 -1.3944528103 -1.4335472584
-0.70252531767 -0.31139478087 -1.8465230465
-0.90538352728 -0.60799384117 -1.6764189005
1.2279077768 1.4181804657 0.69350147247
1.2749586105 1.5130597353 0.28851211071
1.5416623354 1.1952961683 0.44110304117
0.27542614937 -1.8705364466 -0.65285265446
-0.062417075038 -1.9414359331 -0.47691461444
0.26392742991 -1.9705744982 -0.21728980541
-1.3679994345 -1.4567973614 -0.080840960145
-1.0934677124 -1.5763401985 -0.56066203117
-1.5177087784 -1.2158776522 -0.46669691801
-1.69001019 -1.0693585873 0.0092820273712
-1.3663805723 -1.4151211977 0.3607031703
-1.0700047016 -1.6678202152 0.27007511258
-1.7785784006 -0.51489400864 -0.75606626272
-1.9048081636 -0.58258664608 -0.17568296194
-1.7377607822 -0.85722523928 -0.49485000968
-1.551175952 -0.89524054527 -0.89035236835
-1.5784732103 -0.54416406155 -1.1002174616
1.7903573513 0.53626775742 -0.71214711666
1.8478828669 0.70841759443 -0.28871664405
1.6636872292 0.95513290167 -0.56536519527
1.4313758612 1.3444068432 -0.37763777375
-0.97026157379 1.6380864382 -0.61095416546
-1.3496946096 1.4318141937 -0.35661771894
-1.5659567118 -1.131942153 0.51632243395
-1.7462697029 -0.8289757967 0.51065015793
-1.5198479891 -0.93663775921 0.9014160037
-1.455249548 0.31063312292 -1.3359268904
-1.2468721867 1.0727933645 -1.1376298666
-1.2162108421 1.3798540831 -0.78484749794
-1.3953309059 0.70568239689 -1.2470905781
-1.5403631926 0.87073087692 -0.93091458082
-1.4180474281 1.1343607903 -0.83624905348
-1.1800657511 0.45755654573 -1.5487575531
-1.5824542046 1.1326086521 -0.46037608385
-1.6796791553 1.0836262703 0.029991544783
-1.7095835209 0.85080742836 -0.59310638905
-1.8280589581 0.78802907467 -0.19024559855
1.4877260923 1.335631609 0.054498400539
1.2383286953 1.5657736063 -0.12166872621
1.6444200277 0.29848632216 -1.0984802246
1.3798011541 0.40162503719 -1.3909529448
1.400570631 0.015003471635 -1.4277211428
-1.6029030085 0.53868871927 1.0664112568
-1.7880096436 0.50388640165 0.74064832926
-1.9444473982 0.44651514292 -0.13123241067
-1.8732876778 0.6566311121 0.24452808499
-1.7295037508 0.85263711214 0.53027677536
-1.5581710339 0.88352483511 0.8898486495
-1.0621323586 1.6641288996 0.32047396898
-0.88557821512 1.6589763165 0.68039482832
-1.2017664909 1.4394184351 0.69558537006
-1.3592225313 1.4661335945 0.021980697289
-1.3877592087 1.3985095024 0.34358733892
-0.8678727746 1.5313024521 0.94888621569
-1.390571475 0.71916997433 1.2444890738
-1.5402113199 1.1561714411 0.53739511967
0.6648722887 -0.25725963712 -1.8687143326
0.51124066114 0.045812118798 -1.9330021143
0.22079911828 -0.21574780345 -1.9761224985
0.19193783402 0.28396883607 -1.970356822
0.8889170289 0.90891259909 -1.5439231396
0.47528931499 0.7580653429 -1.7885221243
1.096832633 0.53313994408 -1.5853590965
0.81368845701 0.5644505024 -1.7375843525
-0.51543504 -0.72475254536 1.7914246321
-0.89889353514 -0.5814999342 1.6889935732
-0.70627909899 -0.30392071605 1.8463457823
-1.844391346 0.58287084103 -0.508456707
0.59470611811 0.36194607615 -1.8752001524
-1.4383999109 0.24193200469 1.3675433397
-1.4461205006 -0.27741706371 1.3516298532
-1.1749824286 0.44373899698 1.5565812588
-0.77121257782 -1.7757210732 -0.50144475698
-0.36662364006 -1.8535475731 -0.65630459785
-0.5971351862 -1.7173739672 -0.83288818598
-0.93108081818 -1.5268208981 -0.89501976967
-1.4235198498 -0.69035130739 1.2234236002
-1.2130910158 -0.49018484354 1.5126764774
-0.55421966314 -1.5697709322 -1.1088924408
1.8009979725 -0.44832804799 0.74511158466
1.9131069183 -0.12585657835 0.5693743825
1.9143784046 -0.46057969332 0.35112652183
1.8398114443 -0.74751335382 -0.23709097505
1.8586889505 -0.72608488798 0.13495622575
0.30779674649 -1.078856349 1.6558440924
0.46234482527 -1.3875693083 1.3635807037
0.102555722 -1.3806335926 1.4431080818
-0.70529335737 1.8058838844 -0.49127584696
-0.57735872269 1.7248414755 -0.83151364326
-0.32903125882 1.8600076437 -0.65741318464
0.74805241823 -1.7841016054 0.50762796402
0.37846642733 -1.8284573555 0.71611171961
0.62961298227 -1.6564944983 0.9258133173
-0.5162024498 1.5696723461 -1.1266793013
-0.87486612797 1.5386897326 -0.93150645494
0.12666675448 -0.80205792189 1.8275547028
-0.15108773112 -0.75266718864 1.8466334343
0.026083298028 -0.50508081913 1.9350782633
-1.9412374496 -0.44727602601 0.17389531434
-1.8534616232 -0.56735885143 0.49344295263
-1.8589271307 -0.71597212553 0.17691266537
-0.33657544851 1.8564620018 0.66334116459
-0.54564285278 1.7248996496 0.85256642103
-0.68640929461 1.8046597242 0.52222311497
-0.50895261765 1.5721735954 1.1265025139
-1.6468955278 -0.28007677197 -1.1003292799
-1.4075444937 -0.32719185948 -1.3834426403
-1.4739966393 -0.052413128316 -1.3507933617
-1.2148702145 -0.49811342359 -1.5087263584
-1.4037015438 -0.69461721182 -1.244156003

CELLS 484 1936
3 0 1 2
3 3 4 5
3 3 6 4
3 5 4 7
3 8 9 10
3 9 11 10
3 10 11 12
3 13 14 15
3 13 16 14
3 15 14 17
3 18 19 20
3 19 21 20
3 22 23 24
3 24 23 25
3 26 27 28
3 27 29 28
3 30 31 32
3 30 33 31
3 34 31 35
3 31 36 35
3 31 33 36
3 35 36 37
3 34 38 39
3 38 40 39
3 38 41 40
3 34 35 38
3 35 42 38
3 35 37 42
3 38 42 41
3 41 42 43
3 29 36 33
3 44 45 46
3 44 16 45
3 46 45 47
3 48 49 50
3 51 52 53
3 52 54 53
3 55 56 57
3 56 58 57
3 56 59 58
3 57 58 60
3 59 61 58
3 61 62 58
3 61 63 62
3 58 62 60
3 60 62 64
3 62 65 64
3 62 63 65
3 64 65 66
3 60 67 57
3 67 68 57
3 67 7 68
3 57 68 55
3 55 68 69
3 4 68 7
3 59 56 70
3 70 56 71
3 66 65 72
3 27 65 63
3 6 73 69
3 73 71 69
3 73 74 71
3 69 71 55
3 0 75 76
3 75 77 76
3 75 26 77
3 76 77 78
3 79 80 81
3 79 48 80
3 82 83 79
3 83 84 79
3 83 85 84
3 79 84 48
3 86 80 87
3 80 88 87
3 80 48 88
3 87 88 89
3 0 76 1
3 90 83 82
3 6 69 4
3 4 69 68
3 86 87 11
3 11 87 91
3 55 71 56
3 70 71 74
3 28 77 26
3 50 88 48
3 48 84 49
3 12 92 93
3 92 94 93
3 92 18 94
3 93 94 95
3 12 91 92
3 91 96 92
3 91 89 96
3 92 96 18
3 95 94 97
3 94 98 97
3 94 18 98
3 97 98 99
3 99 100 101
3 100 102 101
3 100 25 102
3 101 102 6
3 25 103 104
3 103 105 104
3 103 106 105
3 104 105 74
3 99 101 97
3 3 101 6
3 95 97 3
3 3 97 101
3 89 91 87
3 11 91 12
3 74 105 107
3 20 98 18
3 18 96 19
3 25 100 24
3 23 103 25
3 25 104 102
3 73 104 74
3 6 102 73
3 73 102 104
3 108 109 110
3 109 111 110
3 109 112 111
3 110 111 7
3 113 114 115
3 114 116 115
3 114 117 116
3 115 116 0
3 117 118 119
3 118 72 119
3 118 66 72
3 119 72 26
3 120 118 117
3 121 122 117
3 117 122 120
3 121 123 122
3 123 124 122
3 123 125 124
3 122 124 120
3 120 124 126
3 124 125 108
3 117 114 121
3 125 109 108
3 2 115 0
3 7 111 5
3 26 72 27
3 27 72 65
3 67 110 7
3 117 119 116
3 75 119 26
3 0 116 75
3 75 116 119
3 1 127 2
3 127 90 2
3 1 128 127
3 128 129 127
3 128 51 129
3 127 129 90
3 51 128 130
3 128 131 130
3 128 1 131
3 130 131 78
3 90 129 132
3 129 133 132
3 129 51 133
3 132 133 85
3 95 134 135
3 134 136 135
3 134 5 136
3 5 134 3
3 3 134 95
3 78 137 138
3 137 139 138
3 137 28 139
3 138 139 33
3 33 139 29
3 29 139 28
3 32 140 141
3 141 140 142
3 143 140 144
3 140 145 144
3 140 32 145
3 144 145 34
3 34 145 31
3 31 145 32
3 30 138 33
3 39 144 34
3 146 44 46
3 44 147 16
3 143 147 148
3 147 146 148
3 147 44 146
3 148 146 149
3 53 133 51
3 54 149 53
3 51 130 52
3 150 149 146
3 149 142 148
3 149 54 142
3 148 142 143
3 143 142 140
3 141 142 54
3 78 131 76
3 76 131 1
3 90 132 83
3 83 132 85
3 28 137 77
3 77 137 78
3 95 135 93
3 112 136 111
3 111 136 5
3 125 151 152
3 151 153 152
3 151 8 153
3 152 153 112
3 112 153 154
3 10 153 8
3 12 154 10
3 10 154 153
3 155 156 21
3 143 157 158
3 157 159 158
3 157 39 159
3 158 159 17
3 40 159 39
3 47 160 46
3 49 161 50
3 50 161 162
3 49 163 161
3 163 164 161
3 163 47 164
3 161 164 165
3 165 162 161
3 47 163 160
3 163 166 160
3 163 49 166
3 160 166 85
3 155 162 156
3 162 167 156
3 162 165 167
3 156 167 168
3 167 165 169
3 164 169 165
3 164 47 169
3 168 167 170
3 85 166 84
3 84 166 49
3 112 154 171
3 154 172 171
3 154 12 172
3 171 172 135
3 8 151 173
3 123 151 125
3 125 152 109
3 109 152 112
3 112 171 136
3 136 171 135
3 39 157 144
3 144 157 143
3 135 172 93
3 93 172 12
3 8 173 174
3 173 175 174
3 173 121 175
3 174 175 113
3 8 174 9
3 176 177 15
3 177 13 15
3 16 13 178
3 168 179 180
3 179 177 180
3 179 13 177
3 180 177 181
3 21 182 20
3 183 182 184
3 182 185 186
3 182 21 185
3 186 185 168
3 184 22 187
3 23 22 188
3 176 181 177
3 181 189 180
3 181 22 189
3 180 189 168
3 168 189 186
3 189 184 186
3 189 22 184
3 186 184 182
3 121 173 123
3 123 173 151
3 113 175 114
3 114 175 121
3 168 185 156
3 156 185 21
3 113 190 191
3 190 192 191
3 190 2 192
3 191 192 193
3 82 192 90
3 90 192 2
3 9 194 11
3 194 86 11
3 86 194 195
3 194 196 197
3 194 9 196
3 197 196 113
3 41 198 199
3 198 200 199
3 198 107 200
3 199 200 106
3 43 198 41
3 41 199 40
3 45 178 201
3 178 170 201
3 178 179 170
3 201 170 169
3 82 193 192
3 193 202 191
3 193 81 202
3 191 202 113
3 113 202 197
3 202 195 197
3 202 81 195
3 197 195 194
3 81 193 79
3 79 193 82
3 86 195 80
3 80 195 81
3 106 200 105
3 105 200 107
3 2 190 115
3 115 190 113
3 169 170 167
3 168 170 179
3 45 201 47
3 201 169 47
3 113 196 174
3 174 196 9
3 179 178 13
3 16 178 45
3 106 203 204
3 15 203 176
3 17 204 15
3 15 204 203
3 23 188 205
3 188 203 205
3 188 176 203
3 205 203 106
3 141 206 32
3 206 30 32
3 78 207 208
3 207 206 208
3 207 30 206
3 208 206 209
3 17 210 204
3 210 211 204
3 210 40 211
3 204 211 106
3 52 209 54
3 209 141 54
3 141 209 206
3 209 212 208
3 209 52 212
3 208 212 78
3 64 213 60
3 60 213 67
3 108 214 215
3 214 213 215
3 214 67 213
3 215 213 64
3 23 205 103
3 103 205 106
3 67 214 110
3 110 214 108
3 30 207 138
3 138 207 78
3 78 212 130
3 130 212 52
3 40 210 159
3 159 210 17
3 176 188 181
3 181 188 22
3 106 211 199
3 199 211 40
3 66 216 217
3 216 126 217
3 216 120 126
3 217 126 215
3 218 59 70
3 59 218 219
3 218 220 219
3 218 43 220
3 219 220 37
3 19 221 21
3 221 155 21
3 155 221 222
3 221 223 222
3 221 19 223
3 222 223 89
3 63 224 27
3 27 224 29
3 29 224 225
3 224 226 225
3 224 63 226
3 225 226 37
3 37 220 42
3 42 220 43
3 29 225 36
3 36 225 37
3 89 227 222
3 227 228 222
3 227 50 228
3 222 228 155
3 37 226 219
3 61 226 63
3 59 219 61
3 61 219 226
3 50 227 88
3 88 227 89
3 89 223 96
3 96 223 19
3 120 216 118
3 118 216 66
3 155 228 162
3 162 228 50
3 215 126 108
3 108 126 124
3 66 217 64
3 64 217 215
3 43 229 230
3 229 231 230
3 229 70 231
3 230 231 107
3 107 231 74
3 231 70 74
3 14 232 233
3 232 234 233
3 232 147 234
3 233 234 158
3 99 235 236
3 235 237 236
3 235 20 237
3 236 237 183
3 183 187 236
3 187 238 236
3 187 24 238
3 236 238 99
3 150 239 240
3 239 241 240
3 239 46 241
3 240 241 85
3 85 242 240
3 242 243 240
3 242 53 243
3 240 243 150
3 20 235 98
3 98 235 99
3 99 238 100
3 100 238 24
3 46 239 146
3 146 239 150
3 147 232 16
3 16 232 14
3 53 242 133
3 133 242 85
3 150 243 149
3 149 243 53
3 158 234 143
3 143 234 147
3 14 233 17
3 233 158 17
3 85 241 160
3 160 241 46
3 183 237 182
3 182 237 20
3 24 187 22
3 184 187 183
3 43 230 198
3 198 230 107
3 70 229 218
3 218 229 43

CELL_TYPES 484
5
5
5
5
5
5
5
5
5
5
5
5
5
5
5
5
5
5
5
5
5
5
5
5
5
5
5
5
5
5
5
5
5
5
5
5
5
5
5
5
5
5
5
5
5
5
5
5
5
5
5
5
5
5
5
5
5
5
5
5
5
5
5
5
5
5
5
5
5
5
5
5
5
5
5
5
5
5
5
5
5
5
5
5
5
5
5
5
5
5
5
5
5
5
5
5
5
5
5
5
5
5
5
5
5
5
5
5
5
5
5
5
5
5
5
5
5
5
5
5
5
5
5
5
5
5
5
5
5
5
5
5
5
5
5
5
5
5
5
5
5
5
5
5
5
5
5
5
5
5
5
5
5
5
5
5
5
5
5
5
5
5
5
5
5
5
5
5
5
5
5
5
5
5
5
5
5
5
5
5
5
5
5
5
5
5
5
5
5
5
5
5
5
5
5
5
5
5
5
5
5
5
5
5
5
5
5
5
5
5
5
5
5
5
5
5
5
5
5
5
5
5
5
5
5
5
5
5
5
5
5
5
5
5
5
5
5
5
5
5
5
5
5
5
5
5
5
5
5
5
5
5
5
5
5
5
5
5
5
5
5
5
5
5
5
5
5
5
5
5
5
5
5
5
5
5
5
5
5
5
5
5
5
5
5
5
5
5
5
5
5
5
5
5
5
5
5
5
5
5
5
5
5
5
5
5
5
5
5
5
5
5
5
5
5
5
5
5
5
5
5
5
5
5
5
5
5
5
5
5
5
5
5
5
5
5
5
5
5
5
5
5
5
5
5
5
5
5
5
5
5
5
5
5
5
5
5
5
5
5
5
5
5
5
5
5
5
5
5
5
5
5
5
5
5
5
5
5
5
5
5
5
5
5
5
5
5
5
5
5
5
5
5
5
5
5
5
5
5
5
5
5
5
5
5
5
5
5
5
5
5
5
5
5
5
5
5
5
5
5
5
5
5
5
5
5
5
5
5
5
5
5
5
5
5
5
5
5
5
5
5
5
5
5
5
5
5
5
5
5
5
5
5
5
5
5
5
5
5
5
5
5
5
5
5
5
5
5
5
5
5
5
5
5
5
5
5
5
5
5
5
5
5
5

CELL_DATA 484
SCALARS cell_data_0 double
LOOKUP_TABLE default
2.58000131891e-08
1.07840466036e-07
2.01957576027e-07
6.24064570924e-08
2.10951294703e-09
7.72571753626e-08
1.24408174762e-07
2.91294390235e-08
1.54172510921e-08
5.83929498928e-08
4.23608197513e-08
9.63642980131e-08
9.91451655068e-09
1.53806857755e-09
4.79347007923e-09
8.15395116381e-08
3.90489018814e-08
3.10801194112e-08
4.79342613214e-08
9.00298798874e-09
1.93798510646e-08
1.23986792389e-07
4.55833341091e-08
5.07062832586e-09
5.02925035159e-09
1.96134477408e-08
1.61185304529e-09
1.35455182356e-07
2.62450643198e-08
6.80675511667e-08
6.06993293025e-08
5.22996772733e-08
4.67193191329e-08
1.74468148116e-08
6.44350684422e-08
7.04453355985e-08
1.96151230197e-08
6.73193892195e-08
2.72427653578e-08
2.80463202634e-08
5.69532218878e-08
1.35149468394e-08
1.2082325744e-08
1.93063774956e-08
6.98681360586e-08
2.91844502492e-08
4.99086303332e-08
2.74913569485e-08
6.48706041668e-08
2.99506079225e-08
9.87615212116e-08
1.06345180061e-07
5.15490330459e-08
2.10848449629e-08
9.00865811741e-08
4.00282752604e-08
4.62133509162e-08
4.36976246519e-08
8.33924577323e-08
9.1185010324e-09
3.73019675334e-08
1.43008834286e-08
7.37683638794e-08
4.87034301669e-08
8.37397315336e-08
3.92118258538e-08
5.71804884689e-08
2.77956156428e-08
4.51101220013e-08
2.94658770866e-09
7.50291521629e-08
1.23615999079e-07
2.88730281187e-08
2.56821019462e-08
3.55186643906e-09
3.70241401719e-08
4.34699919664e-09
5.45972559857e-08
1.15935679825e-08
1.08971512461e-08
7.0620240465e-08
2.14178258642e-08
7.73323908207e-08
2.49304935539e-08
7.75659236832e-08
2.60325125002e-10
5.64170826948e-08
2.02814134478e-08
2.92288818626e-08
1.93579056429e-08
4.19973605055e-08
3.85815164727e-08
3.51584312692e-08
2.72415135072e-08
1.35504521865e-08
4.63442467902e-08
8.2612275048e-09
1.94336100711e-08
3.90485313753e-08
7.39008425495e-08
6.01326614774e-08
6.59939634628e-09
1.22320027709e-08
3.1338053933e-08
2.43967427015e-08
3.00873534655e-08
1.10410282153e-07
4.1157515363e-09
1.34362825686e-07
9.50438624732e-08
1.3866112216e-07
1.01215006388e-07
9.20621381479e-08
6.43696638027e-08
5.52371565304e-08
7.84070280119e-08
4.80384528227e-09
5.88154043292e-08
2.4054440802e-09
3.88222666372e-08
2.1083381936e-08
4.658367677e-08
2.33823253719e-08
9.72712031573e-08
2.56742900699e-08
9.01728198818e-08
2.91495496912e-08
9.90292282315e-08
2.45318195356e-08
3.85614143312e-09
1.3715639983e-08
2.52884114039e-08
8.95854551247e-08
1.43109193018e-08
8.17445927571e-08
5.23850731688e-08
3.16216850902e-08
2.10740689528e-08
3.57243966737e-08
1.5646085468e-08
1.01705935808e-08
4.43717716116e-08
2.9481908995e-08
4.6888523605e-08
2.24650956611e-08
1.00917492904e-07
6.287739535e-08
6.56565886201e-08
7.50144003506e-08
1.1854162713e-07
1.52544907995e-07
8.13426570658e-08
3.23418813736e-08
1.95572850236e-09
4.60024111644e-08
2.78511611936e-08
6.81825565619e-08
3.42905522083e-08
1.42957634574e-08
2.37212180228e-08
2.41385542588e-08
2.41293787841e-08
1.96808845964e-08
1.84025340116e-08
2.52955515813e-09
9.57273301463e-09
2.67589612962e-08
4.56221010916e-08
1.74336231419e-08
7.94482636619e-08
6.3885931421e-08
8.33760811595e-08
3.68390100455e-08
6.88202830705e-08
9.64192122114e-09
4.1079917619e-08
5.22490423497e-08
2.43613355394e-08
2.44960163188e-09
1.10113192096e-08
4.27236721543e-08
1.1733180287e-08
2.83202290915e-09
3.09144682367e-08
5.01723546969e-08
2.6450372999e-08
4.23519118617e-09
3.59754343772e-08
7.09630725231e-09
1.67893090279e-08
2.57145787883e-08
2.65925334172e-08
6.51621600172e-08
7.57218208618e-08
5.05166698261e-08
1.34715225624e-08
7.55340257826e-09
1.95233526966e-08
4.68251283317e-08
1.56895364018e-08
5.63359597549e-09
1.63151912502e-08
1.34232446997e-08
3.79825569091e-08
3.38231957884e-09
9.84678459717e-09
4.88536233612e-08
1.1319453962e-08
5.66127789742e-08
3.10274683948e-08
3.67437484016e-08
8.46566242947e-09
9.66096619069e-09
5.52874045033e-09
3.5997364004e-08
9.76550866533e-09
6.70582699203e-09
1.1795462395e-08
8.00239999944e-08
4.72703410451e-08
5.31797070983e-08
1.49461697065e-08
1.06252387202e-08
1.1563056738e-08
2.37468376088e-08
4.91522725637e-08
1.18883203954e-08
4.61126381062e-09
8.36755498942e-09
4.51614612439e-08
7.79745679914e-08
8.2287472101e-10
7.9747914799e-10
3.42534248012e-08
3.84492082041e-08
5.74266788647e-08
1.04183743664e-09
1.59297062207e-08
1.7128968758e-10
1.70996461017e-08
6.96073244252e-08
2.76715507199e-09
2.61638805412e-08
5.45498290841e-08
1.17661679066e-08
2.22513356969e-08
1.15752173799e-08
3.1098048513e-08
1.81886090762e-08
3.90622349376e-08
1.09679196869e-08
1.24204476208e-08
1.07824971972e-08
1.33630704454e-08
2.73714562381e-08
1.03121907414e-08
3.10047627261e-08
1.59819699955e-09
2.09401260942e-08
3.75119442451e-08
2.41355207105e-08
1.68008358934e-08
2.29623741399e-08
1.38289316831e-09
3.34548268758e-08
7.45440623964e-09
1.52704052752e-08
8.10613141218e-09
2.68492440275e-09
2.15430455909e-09
2.23492727271e-08
2.72542975048e-08
2.15321669999e-09
1.72861272804e-08
1.26133859642e-08
7.04637909599e-10
9.90121889757e-08
3.92321977051e-08
1.12386310136e-08
1.28623375934e-08
1.11544274362e-08
1.25050521864e-08
2.22845735322e-08
2.08967381746e-08
1.95506455826e-08
3.91719959185e-09
1.70987151034e-08
2.45509134125e-08
2.43242057106e-08
1.32980016459e-08
1.03274925563e-08
2.19822502113e-08
3.44013951324e-09
1.48690194481e-08
5.19466906447e-08
5.02845102197e-08
5.53184943176e-09
7.21184372449e-09
8.68229557742e-09
3.40233405948e-09
2.69138630451e-08
2.19381185096e-08
6.98991041522e-08
3.64582388282e-08
1.5221273159e-08
4.49848954815e-08
2.53184892847e-08
8.79811780952e-09
8.39529884597e-09
2.96877910383e-08
9.78919470502e-09
5.01245559415e-09
1.21479106487e-08
5.98920436375e-08
4.85095817675e-08
3.5826931087e-08
7.70696051209e-09
1.23001418598e-08
7.3256601578e-09
1.5183411024e-08
1.54400358701e-08
1.84382802374e-08
1.18343609386e-08
1.83056674046e-09
3.70051016815e-08
2.97461610494e-08
7.46687227194e-10
2.31553622676e-08
2.32166800627e-08
1.39393677133e-08
3.41834626732e-08
2.36521029559e-08
1.07694984395e-08
4.26576644131e-08
1.8244407271e-08
2.86872330977e-08
7.56396726209e-09
2.90336669587e-08
7.51445425562e-09
1.91042680587e-08
3.3503828422e-09
5.23987605585e-08
3.75263924723e-09
8.81587561995e-08
8.37537544732e-09
3.76586015021e-08
6.85441235852e-08
4.69812574555e-08
8.7280832613e-09
1.3735910937e-08
2.6928104487e-08
8.1161390597e-08
9.04816023642e-08
1.82166866439e-08
2.36517742921e-08
5.49283076391e-08
1.21762526478e-08
1.25135449601e-08
8.89833119791e-09
1.5139768371e-08
6.40036788954e-09
5.62632952598e-08
4.10030427823e-08
4.83799206652e-08
4.81166160574e-10
2.65099430471e-08
3.05016086051e-09
3.74584963033e-08
7.45220299878e-09
9.87359555129e-09
6.17542465531e-09
2.40897786663e-09
9.3402683248e-09
3.01793723143e-08
6.03280442868e-09
4.5503200236e-08
3.4226980857e-08
4.64360565697e-08
6.79235159534e-09
1.23896928918e-08
3.20100079303e-08
1.12879424628e-09
4.61342486266e-08
3.06971868216e-08
5.39157691544e-09
1.9011809879e-08
4.28717224552e-09
5.44845577576e-08
5.23256631977e-09
2.15229206536e-08
5.82415687024e-09
8.45524029283e-08
1.92655649554e-08
9.08085208023e-09
5.14678602832e-09
3.18922266407e-08
1.34501683675e-08
5.19107807854e-08
2.52546083541e-08
2.37887427628e-09
3.01171922056e-08
1.70696249313e-08
2.72779600562e-08
2.71451890704e-08
2.734460891e-08
2.59349868281e-08
2.062329648e-09
9.050715527e-09
5.25544048931e-09
5.3859333271e-09
6.59564194953e-09
1.57982659474e-08
2.03761506872e-08
5.44784264615e-09
6.36755057845e-09
1.99119492313e-08
6.19336871503e-08
3.47627961846e-08
1.6165292077e-08
5.54518110923e-08
3.57964070842e-09
5.81183371723e-08
5.63666896916e-08
2.77638171588e-08
2.44745723958e-08
1.99116240772e-08
7.87572657972e-08
1.82221167042e-08
2.61237899598e-08
7.99495865213e-08
2.05910782886e-08
1.14816190116e-08
5.96723386391e-09
8.29769873393e-09
3.98586216558e-08
6.32245754227e-09
5.91499605384e-09
3.95682135663e-08
3.18635818895e-08
7.22799720327e-09
1.28687168982e-08
1.43983491568e-08
3.1275201667e-09
1.2565300365e-08
2.04718997487e-08
1.78489896411e-08
1.18497507237e-08
2.37097950671e-08
2.11616487148e-08
1.09730926367e-10
1.33399714783e-08
8.07717483507e-09
2.42929743199e-08
1.69147058844e-08
1.82082788769e-08
8.09738016376e-09
1.47055309712e-08
1.04339363398e-08
3.06663563519e-08
7.98830944029e-09
1.1970415725e-08
1.55137681263e-08
1.06584402991e-08
1.98509800017e-08
1.84918402543e-08
7.06511613357e-09
3.51098629672e-09
2.73576366717e-09
3.43509955051e-08
1.25163563031e-09
1.55080805878e-08
1.06193211313e-08
1.86456768635e-09
1.5956548042e-08
1.72287588271e-08
2.74973108768e-09
3.87347055328e-08
2.70096192384e-08
1.1600160524e-08
3.80758115236e-08
3.60916323397e-08
3.76054831881e-09
2.19699203027e-08
5.84456010106e-09

