# vtk DataFile Version 3.0
File Name: Molecule/sphere_cent/sphere_cent_0-s10.vtk
ASCII
DATASET UNSTRUCTURED_GRID
FIELD FieldData 1
TIME 1 1 double
0.0
POINTS 134 double
1.7092678547 -1.0323916674 -0.078447967768
1.8953814507 -0.38369333744 -0.49717637897
1.9889336824 -0.036983162165 0.17504782975
1.6128950119 0.62585711479 -1.0028166771
1.6826765537 -0.029401946813 -1.0742540359
1.0394352674 0.024697137997 -1.7044819593
1.9082984924 0.33221065998 -0.48555240035
1.6854159832 1.0702902079 -0.013281039894
0.33849775791 -0.52166289091 -1.9007368088
0.013936126605 0.083239652216 -1.9971724749
0.72991275787 -1.0101988316 -1.563359499
0.013360193931 -1.0603473186 -1.6956439018
-0.32719996572 -0.51010012627 -1.9059625864
-0.65869104862 -1.0144996643 -1.5924229622
-0.057169377804 -1.7084280252 -1.0338354111
-1.0883375406 -0.035623125732 -1.6748284101
0.97324770689 1.6648517847 0.52429074049
1.3828831911 1.1766865253 0.83816742897
0.84373003244 1.3819056749 1.1739530563
1.1755475998 0.84872984886 1.3774594069
0.51553148031 0.98084801435 1.6639454365
1.6844768524 0.54263108969 0.92941981554
1.3544257879 1.2039036751 -0.84632623196
0.97385692596 1.6638020277 -0.52752488852
1.1501307487 0.86933255196 -1.3862657547
0.83904647827 1.3851817846 -1.1734936237
0.55896431208 0.96571648121 -1.6588873863
-0.65027213097 -0.98140853643 1.6161984205
-0.32109379768 -0.5091124177 1.9072488546
-1.0786372423 -0.026817994192 1.6807199717
-0.00286999112 -1.0609203577 1.6953477859
0.32332965732 -0.52523124218 1.9024507999
0.65445613861 -1.0373587608 1.5791009665
-0.024621313438 0.094107463956 1.9970788956
0.15674215555 -1.6672534943 1.0899423361
-1.6118769646 0.62703025341 1.0037308931
-1.7068910599 -0.0058528911322 1.0426826477
-1.6089656353 -0.6355959177 1.0029696226
-1.9052344561 0.3161021471 0.52013230324
-1.9041116238 -0.32048630714 0.52150708437
-1.9991830587 0.0008228541119 -0.043349925429
-1.7017759085 1.0506837368 -0.0012404477457
-1.7024869919 -1.0495322943 0.00022224948043
-0.046454273164 1.705857873 1.0347019434
-0.50379276276 1.9100587368 0.31214353442
-0.99636799097 1.620762229 0.61591482162
0.092554032803 1.9975320101 0.0013326383196
-0.50905537605 1.907043457 -0.32175695896
-1.0429018736 1.7066344023 -0.0098578808829
-1.0089603662 1.6032705307 -0.64059698582
-0.049932703376 1.7141656876 -1.0209213495
-0.83624428511 1.367503643 1.1958386898
-1.3602625132 1.1831924915 0.86604583263
-1.1484248638 0.86322695017 1.3910593987
-0.53616166115 0.9647923708 1.6673315763
0.53980904818 -1.8961724043 -0.3362801373
-0.01480855979 -1.9991322756 -0.033235877752
1.058585763 -1.558837533 -0.66922849417
1.057856679 -1.6972947121 7.1798393037e-05
0.52027851343 -1.9028893709 0.32890352607
0.99740236998 -1.601318121 0.66303133965
-1.0086274147 -1.6108723879 -0.62186443806
-1.0478967428 -1.7035403252 -0.0065240394324
-1.0179535151 -1.6138145924 0.59826248884
-0.5494530797 -1.8963922262 -0.31943675876
-0.55715239048 -1.8976509571 0.29761698842
-0.49923017621 -1.7285643816 0.87317210436
-0.058161221445 -1.9241490364 0.54256379604
-1.3599278927 -1.188790679 0.85852962732
-0.88689988852 -1.3706681728 1.1552798748
-1.1788113117 -0.88158154488 1.3538920879
-0.37624895573 -1.4223235846 1.3547856808
-1.6208863258 -0.61425900459 -0.99721187353
-1.7038111687 -0.0015747123398 -1.0475726128
-1.6150465012 0.61686778069 -1.0050158501
-1.8940702677 -0.31137397885 -0.56191396713
-1.8931244612 0.31375715137 -0.56370264292
-0.85375130177 1.3516634703 -1.2015455961
-0.59110224247 0.98812305927 -1.6353250742
-1.1657943726 0.850446105 -1.3845223188
-1.3731495142 1.1598392725 -0.87721323967
-1.2054502964 -0.86760354042 -1.3395489454
-0.8973736763 -1.3666137457 -1.1520801783
-1.3795775175 -1.1671040058 -0.85702896118
1.0352902412 0.012959498912 1.7110496759
0.91025143862 -0.52347296476 1.7019928694
1.3801888227 -0.31684321165 1.4123336077
1.1984264851 -0.86976009607 1.3441332579
1.5799198151 -0.64881694317 1.0403547287
0.9079452157 -1.3460894823 1.1677587032
1.3764562607 -1.1506177187 0.88399517536
1.749810338 -0.80614978075 0.53207409382
1.4301671982 -1.3484631777 0.36659163237
1.7422493696 -0.091496899724 0.97597146034
1.4142968655 0.26643434167 1.3887275457
0.81287437677 0.50801670551 1.7549245358
0.53645986319 0.053302451968 1.9256960154
1.4297134876 -1.3449150324 -0.38055554032
0.25772425532 0.55616718531 1.9036904573
0.90784275532 -1.3506771326 -1.162556529
0.40031728148 -1.4259486198 -1.3443989754
0.55488455296 -1.6852154732 -0.92376303673
0.26160001755 0.56956207752 -1.8991008997
-0.30011302233 0.57670211792 -1.8913906813
-0.027115402743 1.0132820606 -1.7240623236
-0.54146826267 0.092519752681 -1.9232661724
-0.81722062826 0.51160490513 -1.7525025606
0.26649573445 1.3915295601 -1.410905242
-0.28294470906 1.3750748634 -1.4245941639
0.49310487509 1.7591243982 -0.81263673306
0.98113721609 1.7425609827 -0.0034430413507
0.55167269707 1.9040613174 -0.26458090544
0.54934978485 1.9051697254 0.26151484251
0.077279374003 1.928434968 -0.524964571
0.49183577299 1.756727457 0.81885868311
0.078954912722 1.9258623123 0.53402030468
-0.26322180033 1.370049119 1.4332242012
0.26361328363 1.3985751867 1.4045504332
-0.012894091196 1.0003533363 1.7317829132
-0.79926967621 0.5000923872 1.7641556263
-0.28390643001 0.55649542809 1.8999563456
-0.55200147629 0.078589059412 1.9210218191
1.9233464003 0.54039853811 0.098535500467
1.898837328 0.28644806147 0.5608958602
1.762917757 0.81527751684 0.47948843241
1.3380377293 -0.40075069666 -1.4318515062
0.93516182899 -0.53138238192 -1.6865440607
1.1705086231 -0.90925079584 -1.3428241014
1.5311915874 -0.7454996109 -1.0481827259
1.6662003994 -0.93619459867 -0.58954244852
1.338055253 -1.1884186268 -0.89283680916
1.8238663673 -0.19052875042 -0.79736810923
1.8306754827 0.14815291762 -0.79134184122
1.9321107864 -0.017313815653 -0.5147202611

CELLS 264 1056
3 0 1 2
3 3 4 5
3 6 3 7
3 5 8 9
3 10 11 8
3 11 12 8
3 11 13 12
3 8 12 9
3 13 11 14
3 12 13 15
3 16 17 7
3 16 18 17
3 18 19 17
3 18 20 19
3 17 19 21
3 3 22 7
3 7 22 23
3 3 24 22
3 24 25 22
3 24 26 25
3 22 25 23
3 26 24 5
3 5 24 3
3 27 28 29
3 27 30 28
3 30 31 28
3 30 32 31
3 28 31 33
3 32 30 34
3 35 36 29
3 29 36 37
3 35 38 36
3 38 39 36
3 38 40 39
3 36 39 37
3 40 38 41
3 41 38 35
3 37 39 42
3 39 40 42
3 43 44 45
3 46 47 44
3 47 48 44
3 47 49 48
3 44 48 45
3 49 47 50
3 45 48 41
3 48 49 41
3 45 51 43
3 45 52 51
3 52 53 51
3 52 35 53
3 51 53 54
3 35 52 41
3 41 52 45
3 53 35 29
3 14 55 56
3 57 58 55
3 58 59 55
3 58 60 59
3 55 59 56
3 59 60 34
3 61 62 42
3 42 62 63
3 61 64 62
3 64 65 62
3 64 56 65
3 62 65 63
3 56 64 14
3 14 64 61
3 63 65 66
3 65 67 66
3 65 56 67
3 66 67 34
3 63 68 42
3 42 68 37
3 63 69 68
3 69 70 68
3 69 27 70
3 68 70 37
3 63 66 69
3 66 71 69
3 66 34 71
3 69 71 27
3 37 70 29
3 70 27 29
3 27 71 30
3 30 71 34
3 34 67 59
3 59 67 56
3 72 73 15
3 15 73 74
3 72 75 73
3 75 76 73
3 75 40 76
3 73 76 74
3 40 75 42
3 42 75 72
3 74 76 41
3 76 40 41
3 50 77 49
3 78 79 77
3 79 80 77
3 79 74 80
3 77 80 49
3 74 79 15
3 49 80 41
3 80 74 41
3 13 81 15
3 15 81 72
3 13 82 81
3 82 83 81
3 82 61 83
3 81 83 72
3 61 82 14
3 14 82 13
3 72 83 42
3 83 61 42
3 84 85 86
3 85 87 86
3 85 32 87
3 86 87 88
3 32 89 87
3 89 90 87
3 89 60 90
3 87 90 88
3 60 89 34
3 34 89 32
3 88 90 91
3 90 92 91
3 90 60 92
3 91 92 0
3 88 91 93
3 2 91 0
3 2 93 91
3 88 93 86
3 93 94 86
3 93 21 94
3 86 94 84
3 84 94 95
3 19 94 21
3 32 85 31
3 31 85 96
3 0 92 97
3 58 92 60
3 20 98 95
3 98 96 95
3 98 33 96
3 95 96 84
3 10 99 100
3 99 101 100
3 99 57 101
3 100 101 14
3 9 102 5
3 5 102 26
3 9 103 102
3 103 104 102
3 103 78 104
3 102 104 26
3 9 105 103
3 105 106 103
3 105 15 106
3 103 106 78
3 26 104 107
3 104 108 107
3 104 78 108
3 107 108 50
3 10 100 11
3 11 100 14
3 15 105 12
3 12 105 9
3 20 95 19
3 19 95 94
3 26 107 25
3 25 107 109
3 84 96 85
3 31 96 33
3 14 101 55
3 55 101 57
3 50 108 77
3 77 108 78
3 78 106 79
3 79 106 15
3 23 110 7
3 7 110 16
3 23 111 110
3 111 112 110
3 111 46 112
3 110 112 16
3 23 109 111
3 109 113 111
3 109 50 113
3 111 113 46
3 16 112 114
3 112 115 114
3 112 46 115
3 114 115 43
3 43 116 117
3 116 118 117
3 116 54 118
3 117 118 20
3 54 119 120
3 119 121 120
3 119 29 121
3 120 121 33
3 43 117 114
3 18 117 20
3 16 114 18
3 18 114 117
3 50 109 107
3 25 109 23
3 33 121 28
3 28 121 29
3 43 115 44
3 44 115 46
3 46 113 47
3 47 113 50
3 54 116 51
3 51 116 43
3 29 119 53
3 53 119 54
3 54 120 118
3 98 120 33
3 20 118 98
3 98 118 120
3 2 122 123
3 122 124 123
3 122 7 124
3 123 124 21
3 5 125 126
3 125 127 126
3 125 128 127
3 126 127 10
3 128 129 130
3 129 97 130
3 129 0 97
3 130 97 57
3 0 129 1
3 1 129 128
3 4 131 128
3 128 131 1
3 4 132 131
3 132 133 131
3 132 6 133
3 131 133 1
3 6 132 3
3 3 132 4
3 1 133 2
3 133 6 2
3 128 125 4
3 4 125 5
3 7 122 6
3 6 122 2
3 5 126 8
3 8 126 10
3 21 124 17
3 17 124 7
3 57 97 58
3 58 97 92
3 2 123 93
3 93 123 21
3 128 130 127
3 99 130 57
3 10 127 99
3 99 127 130

CELL_TYPES 264
5
5
5
5
5
5
5
5
5
5
5
5
5
5
5
5
5
5
5
5
5
5
5
5
5
5
5
5
5
5
5
5
5
5
5
5
5
5
5
5
5
5
5
5
5
5
5
5
5
5
5
5
5
5
5
5
5
5
5
5
5
5
5
5
5
5
5
5
5
5
5
5
5
5
5
5
5
5
5
5
5
5
5
5
5
5
5
5
5
5
5
5
5
5
5
5
5
5
5
5
5
5
5
5
5
5
5
5
5
5
5
5
5
5
5
5
5
5
5
5
5
5
5
5
5
5
5
5
5
5
5
5
5
5
5
5
5
5
5
5
5
5
5
5
5
5
5
5
5
5
5
5
5
5
5
5
5
5
5
5
5
5
5
5
5
5
5
5
5
5
5
5
5
5
5
5
5
5
5
5
5
5
5
5
5
5
5
5
5
5
5
5
5
5
5
5
5
5
5
5
5
5
5
5
5
5
5
5
5
5
5
5
5
5
5
5
5
5
5
5
5
5
5
5
5
5
5
5
5
5
5
5
5
5
5
5
5
5
5
5
5
5
5
5
5
5
5
5
5
5
5
5
5
5
5
5
5
5
5
5
5
5
5
5

CELL_DATA 264
SCALARS cell_data_0 double
LOOKUP_TABLE default
1.57924637618e-07
2.46755112482e-07
5.0491567625e-07
2.37196483237e-07
4.15762691553e-07
1.74848172632e-07
1.12660908396e-07
2.07690200466e-07
8.33627962024e-07
9.43934255414e-07
1.02049467327e-06
1.25789654162e-07
3.33639968633e-07
3.39052870021e-07
7.24196937168e-08
3.14628019648e-07
3.18987955888e-07
4.37550454042e-07
3.11125562287e-08
1.05758302782e-07
3.70689571658e-07
2.40874570359e-07
5.85721324419e-08
4.75022683027e-07
6.37311384273e-08
1.05096350363e-07
1.9285070076e-07
1.37201930133e-08
3.17144265683e-07
3.12145308851e-07
7.9682802502e-08
1.72376342854e-07
4.75527687203e-08
3.1110925126e-07
2.91610880741e-07
4.96592453586e-07
6.83450629435e-07
6.07348726855e-07
6.17910992693e-07
5.99898172367e-07
1.40170905036e-07
1.80211548154e-07
2.51660469138e-07
2.30473008107e-07
3.46382377076e-07
6.73213289609e-07
7.23855406291e-07
5.8099197612e-07
2.59536894246e-07
3.58012752739e-08
1.14504867407e-07
2.9776658294e-08
6.99611293703e-07
6.73409005794e-07
5.94399829803e-07
8.00822674855e-07
1.75962841491e-07
1.37010618982e-07
4.25417923556e-08
1.5130853111e-08
4.50966284882e-07
7.236396086e-07
8.65019387183e-07
2.25751093598e-07
7.01814111324e-08
1.08946070917e-09
3.26441243174e-08
4.97471643776e-07
3.13020340774e-07
6.97018011212e-08
9.87893015563e-08
3.31313540878e-08
2.04318706589e-07
5.7847311812e-07
4.16870645247e-07
2.01014046082e-07
1.45523610523e-07
3.61239218905e-08
4.14222585936e-07
1.09429962408e-07
1.84397598979e-07
2.57623009095e-07
5.22110459686e-08
1.32274412754e-07
3.26283082024e-07
1.08899171253e-07
4.69290787553e-08
6.54094234643e-08
1.15904920748e-08
6.52271369777e-07
4.23011894525e-07
1.83690519719e-07
1.98003484523e-08
2.91900919539e-07
3.31547840078e-07
6.10771019003e-07
7.93555850958e-07
4.47511118102e-07
5.47601591339e-07
6.04515086629e-07
5.15889087156e-08
5.49533858811e-08
3.23162570538e-07
1.15533909695e-07
6.50794171205e-07
7.42850300092e-07
4.29266539069e-07
7.87032326137e-07
6.92639673988e-07
1.40317435034e-07
1.43784446343e-08
2.55128772989e-07
1.20496867155e-07
3.43590142748e-07
5.95396183967e-07
8.70377114176e-07
6.89692975413e-07
4.91347900423e-08
4.15426089235e-08
8.61000719653e-08
1.00430388336e-07
1.12332819708e-07
9.0357402755e-08
1.57196061568e-07
2.14113399305e-07
2.73618887719e-07
2.16743341757e-07
1.9732064669e-07
1.19032968458e-07
2.2347038738e-07
8.21647598638e-08
1.25524089389e-08
6.4038965513e-07
7.0604057489e-07
8.99206812644e-08
5.13534920077e-08
3.7967252052e-08
8.28089218689e-08
1.98701109313e-08
1.95878233471e-07
1.19051078855e-07
8.32962184791e-08
3.46080432862e-09
4.47356189594e-08
1.24851660525e-07
1.08013222826e-08
3.84123665254e-08
9.59988719926e-08
2.27122053767e-07
3.41721202307e-08
2.59588344611e-07
1.00087589817e-07
2.90716967496e-07
1.54744294379e-07
1.28147749866e-07
9.14068292329e-09
3.63375423076e-08
1.89870078651e-07
2.5650758275e-08
6.35638602852e-08
1.05720038072e-08
1.93135299307e-08
6.47563409678e-08
3.67964621721e-08
1.40930853975e-08
1.70701765169e-07
2.19888909767e-07
1.2119700908e-07
2.17821444168e-07
1.37699091394e-08
2.25150058526e-07
8.38986641024e-08
9.11159808783e-08
1.6393794945e-07
2.11964487808e-08
1.54520175812e-08
1.72001193281e-07
2.42534221719e-07
4.6391210084e-08
1.00416303011e-08
2.62875616993e-08
2.36034575068e-07
3.5406772199e-07
7.18371200567e-07
3.69929915929e-07
3.02305950475e-08
5.43332539658e-08
1.15544345869e-07
2.65146406124e-07
1.75730278129e-08
1.40336168824e-07
7.26884360953e-08
1.1075775657e-08
6.09627050287e-08
5.03626551e-09
7.88650648817e-08
8.62284406388e-08
3.27355474149e-08
2.28430580936e-08
8.84728351829e-08
1.72526160122e-08
5.73535357952e-08
2.38889297506e-07
7.28455799698e-09
3.71192816942e-08
2.02313436439e-07
1.39424022875e-07
1.7196004195e-08
1.69140075675e-08
2.22517891474e-07
2.96124757777e-08
5.15499441267e-08
5.21888044855e-08
5.39542443035e-08
9.38389087319e-08
1.44870153388e-07
4.27538118876e-08
4.04525121166e-08
2.53384742765e-09
7.3796797972e-08
3.76169090632e-08
6.72411952495e-08
1.14012106109e-07
1.48604632804e-08
7.8629804449e-08
1.1050382795e-07
1.64364380647e-08
1.85609121974e-08
2.32586451032e-07
8.24325970039e-08
1.46527325201e-08
2.10062493298e-07
7.50492308434e-08
9.70118863411e-09
1.33144999418e-07
2.32476470492e-07
3.743355081e-07
3.05066726327e-07
5.41024068893e-08
1.53314830382e-07
8.42606242194e-08
4.14390518146e-08
1.95502710061e-08
1.68284183873e-07
1.9926967296e-07
2.93280204001e-07
2.75933510354e-07
1.72210811052e-08
4.27154517568e-08
2.62822627674e-07
2.06973953604e-07
2.94373905138e-08
2.43794276462e-07
3.61061758839e-07
3.66449821759e-08
1.97176442761e-07
2.19737543705e-07
1.96878185158e-07
1.92492480909e-08
4.31771781449e-08
4.73976539734e-09
2.44065573347e-07
2.56700578628e-07
6.04545662577e-08

