# vtk DataFile Version 3.0
File Name: Molecule/sphere_cent/sphere_cent_0-s12.vtk
ASCII
DATASET UNSTRUCTURED_GRID
FIELD FieldData 1
TIME 1 1 double
0.0
POINTS 173 double
1.7282810211 -0.99942266941 -0.074808210135
1.8913275003 -0.44515347481 -0.4697099328
1.9895963669 -0.082308270037 0.17237752676
1.6071636677 0.62262660265 -1.0118359327
1.6600677967 -0.035690497607 -1.1112990379
1.0245615244 0.063179567456 -1.7142275572
0.34455177188 -0.52365988493 -1.8991549015
0.025525515899 0.060431540012 -1.9981170893
0.70396715403 -1.0107207298 -1.5749735832
0.085468441248 -1.0697375536 -1.6851986647
-0.30090737343 -0.44587031007 -1.9244283438
0.84881454706 1.3803312778 1.1720182896
1.1751214266 0.85002881289 1.3770540953
1.3940030336 1.1327195168 0.87716162205
0.53674501181 0.98605263233 1.6542578936
1.6697938442 0.55405193567 0.95016437769
1.1494853497 0.87223905325 -1.3849914074
1.3510570526 1.2041143179 -0.85140633583
0.8419252038 1.3842177391 -1.1725561619
0.57979786396 0.9665197134 -1.6517151594
0.99063098431 1.6536628008 -0.53197455406
-0.65001922846 -0.97310113907 1.6214420795
-0.32156583667 -0.50289463997 1.9087697268
-1.1010466814 -0.04652570188 1.6661740541
-0.0060905078426 -1.0634229183 1.6937756538
0.31871262193 -0.52829813957 1.902402401
0.63913065195 -1.040549159 1.5835260153
-0.019117247313 0.072773620486 1.9982664585
0.18981431425 -1.6599740982 1.0973197222
-1.6130245924 0.62466698885 1.0034261942
-1.7094404697 -0.0069874739274 1.0384773016
-1.6131086349 -0.61319744587 1.0067181587
-1.9053661823 0.31448164582 0.52069294453
-1.908696413 -0.32398405671 0.50146454573
-1.9990415573 0.0081309750676 -0.041881114244
-1.7038941383 1.0435888767 0.017679160461
-1.8735886812 -0.644528687 -0.23960584402
-1.7289400101 -0.85372465849 0.52465349436
-0.095795378089 1.7143354416 1.0200037956
-0.49574673176 1.9124022722 0.31143206358
-0.99488711357 1.6215596199 0.61639589071
0.071698203683 1.9985345602 0.0015745253768
-0.49990767241 1.9097317457 -0.32087174058
-1.0402402878 1.708263278 -0.010327029973
-0.98609316349 1.6177881956 -0.63353323936
-0.098578080535 1.7193902731 -1.0095747709
-0.82957750559 1.366386652 1.2018009424
-1.3592777252 1.1819304228 0.86934244633
-1.1447387934 0.86002212763 1.3960374594
-0.55480366945 0.97227936983 1.657171011
1.043479085 -1.5741645098 -0.65744823217
1.0575480461 -1.697503686 0.0018906423356
0.60018259287 -1.8761773109 -0.33901077509
0.51589369774 -1.9041233063 0.32859119773
0.98853433132 -1.6083804369 0.65930485725
-1.0123122931 -1.6111322641 -0.6157694459
-0.54685461521 -1.8970400095 -0.31938695908
-1.0084007978 -1.7242106199 -0.051749181002
-0.5636472702 -1.8959951401 0.29506346583
-0.049270752817 -1.9981436729 -0.00043467525393
-0.096297852695 -1.7133653164 -1.021265626
-1.0043908358 -1.6058295965 0.6404312253
-0.49339711666 -1.7289435863 0.87580853701
-0.061575036496 -1.9232584238 0.54517489672
-0.8876709342 -1.3673850298 1.158616662
-1.3382242918 -1.2092846632 0.85929536819
-1.1819287539 -0.88001835346 1.3520414829
-0.3757031858 -1.4228173494 1.3543809652
-1.6005651951 -0.58488470316 -1.0378140211
-1.7054651976 -0.0034609860741 -1.0448553562
-1.1242359877 -0.046299919486 -1.6499480009
-1.9055408239 -0.24951653183 -0.54887533188
-1.8934575319 0.31469941139 -0.5613142848
-1.6311850548 0.58752369881 -0.99237990379
-0.84828865528 1.3524497747 -1.2047884464
-0.59722620249 0.98945426941 -1.6320990324
-1.1303870678 0.85255658627 -1.4090368748
-1.203283906 -0.8682385087 -1.3410027027
-0.6987208128 -1.0292088985 -1.5648610592
-0.89542460442 -1.365906477 -1.154207468
-1.3362343311 -1.1987302303 -0.87874639034
1.0399919748 0.0083023831248 1.708270669
0.90276455879 -0.51757377386 1.7078462839
1.3782433271 -0.3160482347 1.4144047499
1.1899356842 -0.87260478735 1.3498426676
1.5723073483 -0.65431141853 1.048558712
0.9074884057 -1.3453793526 1.1689105034
1.3740441799 -1.1527838707 0.88491082191
1.7569224834 -0.78863030672 0.53681969643
1.4371365309 -1.3459796906 0.34896868467
1.7489719391 -0.099740944803 0.96371275187
1.4098418951 0.26929053664 1.3927035332
0.82527500391 0.50674140453 1.7496085167
0.54225152731 0.042112957686 1.9244360924
1.4277721643 -1.3528683186 -0.36050203443
0.26296326518 0.55411070585 1.9035587311
0.90717792511 -1.3500647545 -1.1637535095
0.4071033597 -1.4249264002 -1.3432401419
0.5632802248 -1.6808927059 -0.92634278536
0.26567545533 0.56748503447 -1.899092555
-0.29622808099 0.5733345747 -1.8930276632
-0.020971387625 1.0141299963 -1.7236340046
-0.53839874268 0.098558872938 -1.9237128496
-0.80818301439 0.51168942451 -1.7564899921
0.2719809413 1.4028782845 -1.3987578154
-0.27948525548 1.3687509298 -1.4313741922
0.49063181877 1.7531718016 -0.82757848501
0.54998481274 1.903861165 -0.27008220553
0.95794004202 1.7552881241 0.014019591734
0.54407829046 1.9058374166 0.26784878969
0.9439213872 1.6825963259 0.52536821365
0.083264358342 1.9294316769 -0.52019292116
0.4861113131 1.750754118 0.83500725031
0.084892608225 1.9275206327 0.52698582411
-0.26253163815 1.3639160395 1.4391158819
0.26931270957 1.4084954262 1.3934842348
-0.010012685321 1.0025863647 1.7305054665
-0.79080295563 0.50236403942 1.767219305
-0.28317984939 0.55575799942 1.9002299309
-0.5458086133 0.086220301688 1.9223737717
1.9244599342 0.53386539221 0.10599005967
1.8962628841 0.3023929894 0.55968910456
1.7664569616 0.80175155401 0.48759061098
1.6871976852 1.0717731714 -0.043307356536
1.3359882832 -0.40908038616 -1.4312096834
0.93657714128 -0.54168313742 -1.6823443174
1.1703493595 -0.90871745348 -1.3433263302
1.5515662432 -0.71245986223 -1.0398439169
1.6615560055 -0.94431644678 -0.58975619078
1.3374456167 -1.1879833937 -0.89436358213
1.8213752508 -0.20463557541 -0.79952120781
1.8285012245 0.15377998352 -0.79515600204
1.9349178076 -0.027908690274 -0.50308120251
1.9150563478 0.35985431075 -0.43978831172
-0.15245550871 -0.79432028532 -1.8289692402
-0.3185801208 -1.0784394741 -1.6540173292
-0.51979482174 -0.75302457809 -1.7785155773
-0.39169356227 -1.3974574804 -1.3761483431
-0.026225512847 -1.4117976427 -1.4164854288
-0.71647375822 -0.29013425112 -1.8446694613
-0.9025836587 -0.56940770149 -1.6913331747
1.2154173851 1.4324799776 0.68566226959
1.3447642326 1.4529374838 0.26420068741
1.5639705658 1.1684173346 0.43430915475
0.2601505816 -1.8612322807 -0.68502002954
-0.044397905469 -1.9301887751 -0.52189570665
0.26016139984 -1.9724104404 -0.20649763942
-1.4030311108 -1.4231650829 -0.038482997566
-1.5589120388 -1.1699802876 -0.44159275293
-1.7065062523 -1.0425546169 0.020972050726
-1.3899416924 -1.3987035751 0.33197697997
-1.0645040274 -1.6677384377 0.29176965356
-1.7760305405 -0.49999782443 -0.77125608921
-1.7307064533 -0.85499966145 -0.52295017242
-1.5371639729 -0.89693129063 -0.91237020493
1.7901328802 0.51232677698 -0.72812610865
1.8443006277 0.72560316324 -0.26780313253
1.6961042881 0.90508252382 -0.5479208827
1.3952727318 1.3941764832 -0.31422752142
-1.3984646797 1.3899964094 -0.33635574579
-1.5727926493 -1.1433589458 0.46711826324
-1.509819746 -0.9263702631 0.92718791962
-1.422703743 0.30919566751 -1.3708746433
-1.725881815 0.85733675957 -0.53625375032
-1.2711713314 1.0384130478 -1.1407617331
-1.2088848352 1.3906058073 -0.77517640591
-1.4056360722 0.72722136974 -1.2233628035
-1.5237387419 0.89541083574 -0.93577557802
-1.383531332 1.1531908512 -0.86840707064
-1.1706417799 0.43087169528 -1.5634659529
-1.5764600039 1.1399220228 -0.46483787894
1.5252563953 1.2891895771 0.088558875024
1.2203570604 1.579416275 -0.12639476359

CELLS 342 1368
3 0 1 2
3 3 4 5
3 5 6 7
3 8 9 6
3 6 10 7
3 11 12 13
3 11 14 12
3 13 12 15
3 3 16 17
3 16 18 17
3 16 19 18
3 17 18 20
3 19 16 5
3 5 16 3
3 21 22 23
3 21 24 22
3 24 25 22
3 24 26 25
3 22 25 27
3 26 24 28
3 29 30 23
3 23 30 31
3 29 32 30
3 32 33 30
3 32 34 33
3 30 33 31
3 34 32 35
3 35 32 29
3 33 36 37
3 38 39 40
3 41 42 39
3 42 43 39
3 42 44 43
3 39 43 40
3 44 42 45
3 40 43 35
3 40 46 38
3 40 47 46
3 47 48 46
3 47 29 48
3 46 48 49
3 29 47 35
3 35 47 40
3 48 29 23
3 50 51 52
3 51 53 52
3 51 54 53
3 53 54 28
3 55 56 57
3 56 58 57
3 56 59 58
3 60 56 55
3 61 58 62
3 58 63 62
3 58 59 63
3 62 63 28
3 61 64 65
3 64 66 65
3 64 21 66
3 61 62 64
3 62 67 64
3 62 28 67
3 64 67 21
3 31 66 23
3 66 21 23
3 21 67 24
3 24 67 28
3 28 63 53
3 53 63 59
3 68 69 70
3 71 72 69
3 71 34 72
3 69 72 73
3 72 34 35
3 45 74 44
3 75 76 74
3 70 77 68
3 78 79 77
3 79 80 77
3 79 55 80
3 55 79 60
3 81 82 83
3 82 84 83
3 82 26 84
3 83 84 85
3 26 86 84
3 86 87 84
3 86 54 87
3 84 87 85
3 54 86 28
3 28 86 26
3 85 87 88
3 87 89 88
3 87 54 89
3 88 89 0
3 85 88 90
3 2 88 0
3 2 90 88
3 85 90 83
3 90 91 83
3 90 15 91
3 83 91 81
3 81 91 92
3 12 91 15
3 26 82 25
3 25 82 93
3 0 89 94
3 51 89 54
3 14 95 92
3 95 93 92
3 95 27 93
3 92 93 81
3 8 96 97
3 96 98 97
3 96 50 98
3 97 98 60
3 7 99 5
3 5 99 19
3 7 100 99
3 100 101 99
3 100 75 101
3 99 101 19
3 7 102 100
3 102 103 100
3 102 70 103
3 100 103 75
3 19 101 104
3 101 105 104
3 101 75 105
3 104 105 45
3 8 97 9
3 10 102 7
3 14 92 12
3 12 92 91
3 19 104 18
3 18 104 106
3 81 93 82
3 25 93 27
3 52 98 50
3 45 105 74
3 74 105 75
3 75 103 76
3 20 107 108
3 107 109 108
3 107 41 109
3 108 109 110
3 20 106 107
3 106 111 107
3 106 45 111
3 107 111 41
3 110 109 112
3 109 113 112
3 109 41 113
3 112 113 38
3 38 114 115
3 114 116 115
3 114 49 116
3 115 116 14
3 49 117 118
3 117 119 118
3 117 23 119
3 118 119 27
3 38 115 112
3 11 115 14
3 110 112 11
3 11 112 115
3 45 106 104
3 18 106 20
3 27 119 22
3 22 119 23
3 38 113 39
3 39 113 41
3 41 111 42
3 42 111 45
3 49 114 46
3 46 114 38
3 23 117 48
3 48 117 49
3 49 118 116
3 95 118 27
3 14 116 95
3 95 116 118
3 2 120 121
3 120 122 121
3 120 123 122
3 121 122 15
3 5 124 125
3 124 126 125
3 124 127 126
3 125 126 8
3 127 128 129
3 128 94 129
3 128 0 94
3 129 94 50
3 0 128 1
3 1 128 127
3 4 130 127
3 127 130 1
3 4 131 130
3 131 132 130
3 131 133 132
3 130 132 1
3 3 131 4
3 1 132 2
3 132 133 2
3 127 124 4
3 4 124 5
3 133 120 2
3 5 125 6
3 6 125 8
3 15 122 13
3 50 94 51
3 51 94 89
3 2 121 90
3 90 121 15
3 127 129 126
3 96 129 50
3 8 126 96
3 96 126 129
3 9 134 6
3 134 10 6
3 9 135 134
3 135 136 134
3 135 78 136
3 134 136 10
3 78 135 137
3 135 138 137
3 135 9 138
3 137 138 60
3 10 136 139
3 136 140 139
3 136 78 140
3 139 140 70
3 110 141 142
3 141 143 142
3 141 13 143
3 13 141 11
3 11 141 110
3 60 144 145
3 144 146 145
3 144 52 146
3 145 146 59
3 59 146 53
3 53 146 52
3 57 147 55
3 55 147 148
3 149 147 150
3 147 151 150
3 147 57 151
3 150 151 61
3 61 151 58
3 58 151 57
3 60 145 56
3 56 145 59
3 65 150 61
3 68 152 69
3 152 71 69
3 71 36 34
3 34 36 33
3 149 36 153
3 36 152 153
3 36 71 152
3 153 152 154
3 70 140 77
3 77 140 78
3 80 154 77
3 77 154 68
3 78 137 79
3 79 137 60
3 68 154 152
3 154 148 153
3 154 80 148
3 153 148 149
3 149 148 147
3 55 148 80
3 60 138 97
3 97 138 9
3 10 139 102
3 102 139 70
3 52 144 98
3 98 144 60
3 110 142 108
3 123 143 122
3 122 143 13
3 133 155 156
3 155 157 156
3 155 3 157
3 156 157 123
3 123 157 158
3 17 157 3
3 20 158 17
3 17 158 157
3 149 37 36
3 33 37 31
3 44 159 43
3 43 159 35
3 149 160 37
3 160 161 37
3 160 65 161
3 37 161 31
3 31 161 66
3 66 161 65
3 73 162 69
3 69 162 70
3 35 163 72
3 72 163 73
3 76 164 74
3 74 164 165
3 76 166 164
3 166 167 164
3 166 73 167
3 164 167 168
3 168 165 164
3 74 165 44
3 73 166 162
3 166 169 162
3 166 76 169
3 162 169 70
3 44 165 159
3 165 170 159
3 165 168 170
3 159 170 35
3 168 167 170
3 167 163 170
3 167 73 163
3 170 163 35
3 70 169 103
3 103 169 76
3 123 158 171
3 158 172 171
3 158 20 172
3 171 172 142
3 3 155 131
3 131 155 133
3 133 156 120
3 120 156 123
3 123 171 143
3 143 171 142
3 65 160 150
3 150 160 149
3 142 172 108
3 108 172 20

CELL_TYPES 342
5
5
5
5
5
5
5
5
5
5
5
5
5
5
5
5
5
5
5
5
5
5
5
5
5
5
5
5
5
5
5
5
5
5
5
5
5
5
5
5
5
5
5
5
5
5
5
5
5
5
5
5
5
5
5
5
5
5
5
5
5
5
5
5
5
5
5
5
5
5
5
5
5
5
5
5
5
5
5
5
5
5
5
5
5
5
5
5
5
5
5
5
5
5
5
5
5
5
5
5
5
5
5
5
5
5
5
5
5
5
5
5
5
5
5
5
5
5
5
5
5
5
5
5
5
5
5
5
5
5
5
5
5
5
5
5
5
5
5
5
5
5
5
5
5
5
5
5
5
5
5
5
5
5
5
5
5
5
5
5
5
5
5
5
5
5
5
5
5
5
5
5
5
5
5
5
5
5
5
5
5
5
5
5
5
5
5
5
5
5
5
5
5
5
5
5
5
5
5
5
5
5
5
5
5
5
5
5
5
5
5
5
5
5
5
5
5
5
5
5
5
5
5
5
5
5
5
5
5
5
5
5
5
5
5
5
5
5
5
5
5
5
5
5
5
5
5
5
5
5
5
5
5
5
5
5
5
5
5
5
5
5
5
5
5
5
5
5
5
5
5
5
5
5
5
5
5
5
5
5
5
5
5
5
5
5
5
5
5
5
5
5
5
5
5
5
5
5
5
5
5
5
5
5
5
5
5
5
5
5
5
5
5
5
5
5
5
5
5
5
5
5
5
5
5
5
5
5
5
5
5
5
5
5
5
5
5
5
5
5
5
5

CELL_DATA 342
SCALARS cell_data_0 double
LOOKUP_TABLE default
5.70509508621e-07
9.06711307532e-07
6.07399060731e-07
2.27828460079e-07
1.43212358566e-07
2.86187763411e-08
1.65215464285e-07
5.69744825199e-08
1.58278383315e-08
5.82815380506e-08
9.52939437815e-08
4.08113014122e-08
5.12138180395e-07
7.03536121195e-07
3.97868397412e-07
1.93819080911e-07
1.63347568928e-07
1.7945829281e-07
3.3125260744e-08
2.43535005329e-07
3.85831846028e-07
1.09499435161e-07
1.07033279013e-07
1.07849045691e-07
3.90245438372e-07
7.50879238339e-08
4.01861039784e-07
8.2011437514e-07
6.28540621072e-07
3.29675743927e-07
1.40126427138e-07
1.23478462551e-07
1.54845931805e-08
3.31853270201e-07
4.57699011127e-07
1.01622180779e-06
6.53905940433e-07
8.83144846947e-08
1.09372919162e-07
1.31918746809e-07
3.39322172871e-08
8.74134544325e-07
8.8759502439e-07
5.64507691595e-07
6.73622001117e-08
4.73955624022e-08
2.58903423505e-07
2.74346020742e-08
2.73310434123e-07
7.50813002729e-08
5.84776256718e-08
3.70550950242e-07
6.6502561486e-08
1.62616644561e-08
3.40968817652e-08
4.90916999612e-08
1.93426205063e-07
3.35326503784e-08
4.37299374343e-08
1.89436525405e-07
1.20513722092e-07
1.12082407571e-07
6.06978876777e-08
1.08514311325e-07
2.96789999131e-07
1.81049136869e-07
7.36728427288e-08
1.74823736196e-08
1.23326466124e-07
6.45427429121e-07
5.47015432196e-08
3.65879563485e-07
1.80147313222e-08
6.80178715517e-07
6.05719358508e-07
1.39122289548e-08
6.63990183166e-07
1.62233122046e-08
4.69155278997e-08
7.92431616844e-08
6.91131902391e-07
1.50019698388e-07
4.62912642123e-08
2.84205318484e-08
1.2297779948e-07
1.57681256496e-07
9.31834456977e-08
2.89513463964e-07
6.28385189009e-08
7.76711495703e-08
8.23863506692e-08
6.44761894246e-08
2.07511804076e-08
1.94605216192e-07
2.24662274318e-08
6.90094611508e-08
6.02465087124e-07
7.5128958965e-07
1.11296313717e-07
3.7998376568e-09
8.26716947899e-08
1.58580884922e-07
3.15430265345e-08
6.99366675261e-08
3.51467476087e-08
9.8453905428e-08
9.32694571084e-08
1.1770640369e-07
2.36089404307e-07
6.79105057859e-08
1.55111396225e-08
6.80428107896e-08
1.48716492754e-07
5.26065257144e-08
4.45720363778e-08
5.4427357892e-08
6.8908049136e-07
5.91186932729e-07
2.67474690729e-08
1.3713079013e-08
6.42144281368e-08
7.3647287905e-08
2.9937971269e-08
2.60670049107e-08
7.37383882955e-08
1.09209123401e-07
5.08686816153e-09
6.49818609777e-09
9.24275581426e-08
1.23455770717e-07
8.83476633361e-08
4.78316879291e-08
2.22165696542e-07
1.74270729535e-07
3.12262893824e-08
4.79002343252e-08
1.76971754895e-09
2.22713868401e-09
2.98025656114e-08
6.27525257872e-08
6.61452354278e-08
8.05837899349e-08
2.02216597821e-08
2.56456575124e-09
9.28020656466e-09
7.98596364814e-09
2.25167215198e-08
7.00600617655e-09
1.38734079218e-07
5.2516798298e-08
5.23461747141e-08
4.98433584482e-08
3.50435069203e-08
3.3546985055e-08
1.36138254568e-08
3.80492897568e-08
1.00981462485e-07
2.06938219229e-07
3.7185182558e-08
5.75923531758e-08
1.91275833808e-07
3.95417786063e-09
1.75233917593e-07
1.78187957533e-07
1.37455174591e-07
2.02610368424e-07
1.05001137548e-08
4.33072347368e-09
3.70127664443e-08
3.82448670454e-08
7.93833211291e-08
1.94896487568e-07
9.31669106417e-09
5.23577570771e-10
2.94987276746e-08
1.41502748556e-07
3.98785329386e-08
2.56653110539e-08
5.85985914454e-08
1.72105130215e-08
2.50167278928e-07
1.43889156275e-08
6.87307684196e-08
2.1061463607e-08
7.32451513828e-08
3.59462082927e-08
8.52741275806e-08
2.85896306981e-08
6.60761154862e-08
1.84729228351e-07
3.27390222895e-08
8.72243028422e-08
3.38705698368e-09
3.94856240271e-08
4.81978184363e-08
2.40719855099e-08
6.21612270625e-08
6.84566712507e-08
3.68149772012e-08
1.58321668246e-08
1.11833782224e-07
9.28395346818e-08
2.52185688439e-08
3.75943287574e-08
2.31347282424e-08
4.60629594142e-08
1.46195490006e-07
5.42793362305e-08
4.3345999697e-08
2.81464589745e-07
5.99618409359e-08
1.35653066546e-07
2.33818065909e-07
9.62911333967e-08
2.62364878596e-08
7.29142525632e-08
4.43088762706e-08
2.0652166677e-07
6.82837393323e-08
1.03670109274e-07
7.09962904855e-08
3.96795212364e-08
3.53165658469e-09
7.08593292742e-08
3.22093487252e-08
5.13152023392e-08
2.15718248303e-08
8.94302545553e-09
6.91002706734e-08
1.25385008737e-08
1.09883633111e-08
5.67701355947e-08
5.07402150561e-08
4.21651861303e-08
1.90079060221e-08
4.5400574082e-08
3.5503616105e-09
6.68258444142e-08
6.15639082864e-08
2.52378147893e-08
2.16279483795e-08
3.57236816976e-08
9.21183026774e-08
1.0037490073e-07
7.95743280406e-09
2.50482230042e-07
4.7916102273e-08
5.33816460059e-08
6.36531491827e-08
1.47092385945e-07
5.93601662073e-08
1.74920424033e-09
6.3020266271e-08
1.37208522696e-07
1.63227409608e-07
4.96731172845e-08
3.99680162636e-08
2.20787890681e-07
1.67215460067e-08
3.84907234035e-08
4.72220739236e-08
1.97417602936e-08
3.47397901121e-08
1.56804251199e-07
6.34051677681e-08
1.87394625548e-08
5.59344154581e-08
4.38631379629e-08
1.3687823733e-07
4.81042081931e-08
5.5836340151e-08
1.17186958706e-08
5.62885450724e-08
4.58256558476e-09
1.07837914947e-07
8.04036593276e-09
1.21197181439e-09
1.03293740654e-08
1.65128561829e-08
4.81075968961e-10
1.541797936e-08
3.13989177785e-08
3.79453379625e-08
1.0311667128e-08
3.88536759994e-08
3.09642612237e-08
2.89933577876e-08
4.79710823953e-08
3.88384618595e-08
5.7092653854e-09
1.49864764105e-08
1.8572111655e-08
2.67613805647e-07
4.47951652414e-08
2.4007247553e-08
2.38422473946e-07
2.58472773989e-08
6.2225682874e-08
9.11813618213e-09
7.35959642775e-08
1.716048849e-07
5.702088514e-08
1.72905006194e-08
1.43980144474e-07
3.0812990494e-07
1.42088968023e-08
8.12335520319e-10
8.06071775722e-08
4.15154885478e-08
8.4176174847e-09
7.77209791845e-08
4.34390699747e-08
2.88979732988e-08
6.70855426839e-08
3.5386092271e-08
4.21581794711e-08
1.90511943974e-08
3.3259119022e-08
3.19794790555e-08
4.25604736621e-08
1.27715428798e-08
2.69859686276e-08
1.78840250196e-08
3.43830702449e-08
5.19613510463e-08
2.30330804615e-08
2.26356283953e-08
1.21546626772e-08
4.345719586e-08
5.84873766815e-09
4.83939019424e-08
1.77922390855e-08
1.05142773887e-08
4.75570215748e-08
1.01334508662e-07
2.34508406904e-08
2.33956681251e-08
2.07983231608e-08
3.32601737358e-08
1.00350013807e-08
2.98260949116e-09
2.78604115792e-08

