# vtk DataFile Version 3.0
File Name: Molecule/sphere_cent/sphere_cent_0-s22.vtk
ASCII
DATASET UNSTRUCTURED_GRID
FIELD FieldData 1
TIME 1 1 double
0.0
POINTS 463 double
1.554448247 0.72968477011 -1.025297761
1.2254098654 0.91495192051 -1.2887576818
1.4084466696 1.1281232834 -0.86165857315
-1.262824297 1.1652667522 1.0230811834
-1.050180912 0.90808463097 1.4396219254
-0.82823371887 1.2875388861 1.286786437
-0.62552708387 1.0176892281 1.6038234234
-0.50684005022 -1.920044899 -0.23676164448
-0.58259558678 -1.8874884844 0.31290370226
-0.94067841768 -1.7600656748 -0.12925323844
-0.14375151694 -1.9944082499 -0.038400452584
-0.97306126356 -1.6058591604 0.68906903267
-0.58426326513 -1.7138104439 0.84905934334
-0.85516089201 -1.379412055 1.1686079502
-1.2672355175 -1.2790641785 0.87049478292
-1.2001582384 -1.0016931295 1.2460494041
-0.37150382996 -1.3684664965 1.4102710485
-0.60058641434 -1.093424201 1.5631254911
-0.1580324173 -1.0834530592 1.6733083725
-1.9066781998 -0.15831257403 -0.57984542847
-1.8837785721 0.23006428778 -0.62703049183
-1.7552616596 0.030152132735 -0.95788699389
-1.6941660643 0.49699574709 -0.93929004669
-0.64513808489 0.96546500921 -1.6282939911
-1.0337606668 0.8837557435 -1.4660916328
-0.66859340668 1.2290591002 -1.4282786846
-0.73802429438 -1.0377553701 -1.5421911478
-0.89464068413 -1.306717515 -1.2214740515
-1.1456993818 -0.93919235468 -1.3416846991
1.3775770664 -0.21559388936 1.4324256182
1.3527386189 0.21521273255 1.4570996761
1.043941617 -0.006906545721 1.7058970928
-0.11292152852 0.046139262617 -1.9962729216
-0.48271006346 0.046875897795 -1.9400142431
-0.27337861061 0.47394046187 -1.921901226
0.63660252094 -1.0352604389 -1.5866731405
0.43166226149 -1.3556294441 -1.4052416086
0.18731744587 -1.0743376017 -1.6765241623
-0.26029375196 -0.36615526676 -1.9480829239
0.63198381662 0.02046248503 1.8964297771
0.828091681 -0.42919391394 1.7681509256
-0.80499064922 0.60482573509 -1.7269628048
0.48527187109 1.9300447702 -0.19477033615
0.60174036026 1.891575098 0.24304641783
0.91758972406 1.7769528627 0.015426656231
0.92753010988 1.7046147585 0.48317587376
-0.04846291244 0.023314464837 1.9987397194
-0.45273575187 0.047964774072 1.9473149776
-0.29461190104 -0.35619580746 1.9457045794
-0.3475496769 1.3581722975 1.4249526262
-0.80781269073 0.61439365149 1.7226331234
0.51324206591 0.92494690418 1.6971960068
0.071427069604 0.96385776997 1.7502355576
0.25941115618 0.58895719051 1.8922008276
1.915935874 0.55487757921 0.12063321471
1.7749942541 0.78250038624 0.48119044304
1.9181228876 0.31045550108 0.47172802687
1.7384212017 0.98682129383 0.041382011026
1.6375776529 -0.15095408261 -1.138002038
1.8165174723 -0.26120352745 -0.79464316368
1.6206588745 -0.62967979908 -0.98669302464
1.8400051594 0.13104408979 -0.77258896828
1.9536420107 -0.11336944997 -0.41211369634
1.9375704527 0.318567276 -0.37308222055
1.8665928841 -0.5099812746 -0.5003682971
1.9523217678 -0.4247392118 -0.087967760861
-0.10909505934 -0.79358524084 -1.8325397968
0.33762162924 -0.6564719677 -1.8584964275
-0.29364705086 -1.0968154669 -1.6463977098
-0.51944583654 -0.72413825989 -1.7904574871
-0.503297925 -1.341566205 -1.3944422007
0.030035514385 -1.3571128845 -1.4678106308
-0.64807862043 -0.30100518465 -1.8671402931
-0.91015815735 -0.67644971609 -1.6462386847
1.241391778 1.4146331549 0.67631959915
1.2555832863 1.5305448771 0.2840590477
1.5409662724 1.2003604174 0.42920044065
1.4451075792 1.0961391926 0.84060001373
-0.12271992117 -1.7531222105 -0.95402604342
0.28036201 -1.8719584942 -0.64585632086
-0.073318131268 -1.9453006983 -0.4588355422
0.24754953384 -1.9697476625 -0.24153764546
0.58330309391 -1.8768310547 -0.36582890153
-1.3491684198 -1.4736827612 -0.091336935759
-1.1505935192 -1.5503277779 -0.52213513851
-1.502959013 -1.2296721935 -0.47871667147
-1.6787993908 -1.0868253708 0.010408728383
-1.3537062407 -1.4248437881 0.37026688457
-1.0618640184 -1.6751145124 0.25667983294
-1.7762212753 -0.510820508 -0.76374316216
-1.8922637701 -0.62455618382 -0.16305339336
-1.7439097166 -0.85390329361 -0.47894096375
-1.9135475159 -0.41725873947 -0.40520048141
-1.5692954063 -0.88205498457 -0.86847436428
-1.5919723511 -0.56264019012 -1.0717842579
-1.2421045303 -1.2881503105 -0.88732039928
1.7907996178 0.53847390413 -0.70910400152
1.850070715 0.69950610399 -0.29598420858
1.6705182791 0.90422028303 -0.62434828281
-0.99336725473 1.6330428123 -0.58850735426
-1.3133046627 1.4504569769 -0.40803742409
-0.9784052372 1.7342033386 -0.15502716601
-1.5491445065 -1.1441246271 0.53982156515
-1.7297329903 -0.84569561481 0.54085493088
-1.5159020424 -0.93188738823 0.9130166173
-1.6796212196 -0.54063922167 0.93980193138
-1.4772747755 0.30921554565 -1.3121418953
-1.3875451088 0.69538837671 -1.261420846
-1.2718900442 1.0380089283 -1.1406823397
-1.5319550037 0.84975332022 -0.96495127678
-1.4567189217 1.1121467352 -0.79920554161
-1.1813510656 0.47094902396 -1.5435602665
-1.188996315 -0.055794723332 -1.6066023111
-1.2072409391 1.3912591934 -0.77846384048
-1.6030658484 1.1171085835 -0.42499437928
-1.6950808764 0.85148382187 -0.63386899233
-1.6758937836 1.0863314867 0.093139365315
-1.8203645945 0.8028241992 -0.20438118279
1.3860839605 1.3825407028 -0.40806010365
1.2367175817 1.5672994852 -0.11927668005
1.4809663296 1.3432450294 0.048949681222
1.0446482897 1.6350290775 -0.48424255848
1.6453535557 0.29575157166 -1.0978001356
1.3865523338 0.45640197396 -1.3638389111
1.423419714 -0.0049725808203 -1.4026167393
-1.8538770676 0.71080476046 0.22618974745
-1.7279180288 0.86184507608 0.52073699236
-1.7683659792 0.55123656988 0.75251179934
-1.5706543922 0.8635866046 0.88722556829
-0.90608328581 1.6507258415 0.67375296354
-1.0669753551 1.6536793709 0.34925356507
-1.2071485519 1.4425883293 0.67948997021
-1.2911058664 1.5230400562 0.079871222377
-1.3843423128 1.4005020857 0.34962320328
-0.89936202765 1.5053089857 0.9615098834
-1.3807901144 0.72080463171 1.2544606924
-1.6161071062 0.4868465364 1.0725351572
-1.5212498903 1.1613339186 0.58036774397
1.3736573458 -0.37375915051 -1.4040207863
0.96584451199 0.11462344229 -1.7461357117
0.65102481842 -0.2838897109 -1.8697818518
0.52008253336 0.044374473393 -1.9305942059
0.23640033603 -0.16172210872 -1.9778784513
0.19378615916 0.25613519549 -1.9740074873
0.86990612745 0.91362929344 -1.5518897772
0.84760159254 1.2927193642 -1.2682719231
0.50619095564 1.1261711121 -1.5731104612
0.49758046865 0.77869725227 -1.7736005783
1.0943380594 0.5723747015 -1.5732773542
0.81096833944 0.56545871496 -1.738589406
-0.52226608992 -0.72097396851 1.7908109426
-0.66232866049 -0.29364004731 1.8620506525
-1.9442265034 0.44292998314 -0.15227678418
-1.8498101234 0.56911200285 -0.50393497944
0.55931943655 0.38653236628 -1.8809587955
0.17209035158 0.62486159801 -1.8920614719
0.07654748112 0.98371642828 -1.7388352156
-1.1543639898 -0.057472653687 1.6309558153
-1.4548223019 0.21286381781 1.3557156324
-1.476149559 -0.24687406421 1.3263828754
-1.7105321884 0.021978171542 1.0334485769
-1.1794632673 0.46497222781 1.5468579531
-0.77835613489 -1.767038703 -0.52114671469
-0.39059770107 -1.8596361876 -0.62438589334
-0.59055197239 -1.7208516598 -0.83053797483
-0.9197165966 -1.5435245037 -0.87839305401
-1.418910861 -0.67344647646 1.2382317781
-1.2279815674 -0.47130355239 1.5064280033
-1.0788989067 -0.7679541707 1.4980853796
-0.58572375774 -1.5571224689 -1.1103110313
1.9955174923 -0.03787233308 0.11504358053
1.9166164398 -0.11617862433 0.55925327539
1.9198110104 -0.44117853045 0.34568718076
1.8085503578 -0.44829705358 0.72668731213
1.7473927736 -0.11552213132 0.96554261446
1.7561182976 -0.79625326395 0.52948254347
1.691565752 -1.0609867573 -0.10078083724
1.8377233744 -0.75349253416 -0.23478792608
1.8597966433 -0.72523766756 0.1223743856
0.23163437843 -1.1182783842 1.6416201591
0.083775952458 -1.3785477877 1.4465142488
0.49749028683 -1.3840360641 1.3552060127
0.22812560201 -1.6513371468 1.1048449278
-0.69017761946 1.8131313324 -0.48590138555
-0.58635675907 1.725171566 -0.82448327541
-0.34212303162 1.8631101847 -0.64150106907
-0.44780468941 1.9336634874 -0.23882122338
-0.16239161789 1.7256753445 -0.99636679888
0.48780435324 -1.9187020063 0.28288173676
0.67675548792 -1.808242321 0.51993823051
0.37256768346 -1.8341795206 0.70470368862
0.62282562256 -1.6535348892 0.93390238285
-0.50377869606 1.5805898905 -1.1167315245
-0.86074602604 1.541555047 -0.93935495615
0.78329104185 -1.0403496027 1.5159829855
0.91596603394 -1.3222938776 1.1860738993
1.6703971624 -0.94891363382 -0.55351245403
0.10227587819 -0.81440746784 1.8236546516
-0.17586731911 -0.72318089008 1.8562004566
0.033543609083 -0.51797610521 1.9314060211
0.38381028175 -0.52959871292 1.8897944689
0.17151103914 -0.2387637496 1.9779458046
-1.946177125 -0.4291600287 0.16768662632
-1.8536725044 -0.72593283653 0.19065850973
-1.8586173058 -0.55133658648 0.49099135399
-0.21414077282 1.736523509 0.96597123146
-0.35684138536 1.8587970734 0.64599704742
-0.58236151934 1.717897892 0.84230875969
-0.6715349555 1.8036848307 0.54328405857
-0.54399067163 1.9086612463 0.2415843904
-0.55060064793 1.5546441078 1.1314469576
-1.635510087 -0.2761657536 -1.1174656153
-1.4287163019 -0.35063740611 -1.3551743031
-1.4978467226 -0.05586046353 -1.3242182732
-1.2180632353 -0.52790659666 -1.4960294962
-1.3916144371 -0.67520290613 -1.2673134804
0.020297635347 1.9090110064 0.59304451942
-1.3801523447 -0.92261230946 -1.1146149635
-0.8156119585 1.8028696775 0.28752714396
0.86597776413 1.3737765551 1.167401433
1.0342907906 1.1130542755 1.3005099297
1.1651550531 1.2639861107 1.0221381187
1.3272631168 0.96362096071 1.1443942785
1.1499123573 0.84261107445 1.4027608633
0.73729330301 1.1887881756 1.4292931557
0.87778300047 0.9148273468 1.5467283726
1.1287981272 1.2875505686 -1.0329881907
1.1966593266 1.4252474308 -0.73236036301
0.94123327732 1.5253334045 -0.88733500242
-0.05489923805 -1.920045495 0.5571988225
-0.28705373406 -1.8394094706 0.73045033216
-0.17719323933 -1.7223266363 1.0009967089
0.043920073658 -1.8177444935 0.83295452595
-0.43331965804 -1.5814905167 1.1447172165
[...]
CELL_DATA 922
SCALARS cell_data_0 double
LOOKUP_TABLE default
9.388391483e-09
6.83139109883e-08
7.72057776689e-09
1.19602213413e-07
8.48492767501e-08
9.75913357172e-08
4.66358207999e-08
5.57191791395e-08
4.54718631226e-08
7.31510883561e-08
1.71696180658e-08
2.2559257383e-08
2.93655891718e-08
3.89621474392e-08
8.47590026211e-10
1.91180405122e-08
1.95800719643e-09
1.73815020883e-08
2.89997080406e-09
4.92231450911e-08
1.51211863082e-10
3.91560137326e-08
1.72037175232e-08
9.88941594589e-09
9.63271007212e-09
2.40264090749e-08
4.27872722176e-08
3.07680839471e-08
3.71805079472e-09
4.23224665876e-08
1.33218278764e-08
1.00642827317e-08
2.15771836375e-08
2.43916595749e-09
3.43239153112e-09
4.02668663842e-08
6.4268332056e-09
5.06812369968e-09
1.27025633273e-08
3.18584245406e-08
1.28768924044e-08
2.78815281367e-08
6.29485809703e-10
7.71948195745e-09
7.57766956509e-09
1.86269578945e-08
1.70089344462e-08
2.65311589182e-08
3.60697335979e-08
4.7973835983e-09
2.3735248359e-08
3.1815640549e-08
1.55865877659e-08
8.92614417024e-08
1.47128134399e-08
2.3408794237e-08
5.61815054529e-09
9.03809468053e-08
6.39796445829e-08
2.30863685732e-09
6.34289228871e-08
2.38802717138e-08
8.07876662103e-08
4.05406812519e-08
1.84795168845e-08
2.3071670422e-09
2.50023043482e-08
1.14132596286e-08
5.26914683115e-08
7.95801301766e-08
6.37870850891e-08
7.29490911026e-09
4.50459880195e-09
2.72591526743e-08
4.74607688541e-08
1.89240896081e-08
5.94561110605e-09
1.19978754191e-08
2.5226232768e-08
2.33138857143e-08
3.82590415357e-08
3.83331678119e-08
3.21116380384e-08
6.46576367344e-11
1.33135294208e-08
1.20167056688e-08
2.54440629503e-08
2.15839560801e-08
1.04318064961e-08
9.06622465395e-09
9.84513876407e-09
1.54335754318e-08
9.21898151367e-09
2.15339129442e-08
9.03633241026e-08
1.1977815202e-08
1.70951887916e-08
2.45631290046e-08
3.418297036e-08
1.69699902945e-08
4.42484173222e-09
1.32383046872e-08
2.12594444507e-08
9.95490008032e-09
1.99247110531e-08
2.32371315841e-08
1.43916186787e-08
2.99747570148e-09
4.6421298181e-09
2.12955380327e-08
2.89332493125e-09
2.84643485187e-09
5.68302869928e-08
2.38792783151e-08
3.37642048394e-08
1.39069727058e-08
2.57065088916e-08
3.46376373009e-08
2.18379745334e-08
2.4536835984e-10
8.34731325127e-09
1.0273161307e-08
3.60858973754e-08
6.81566754461e-08
1.64613199663e-08
8.27440897917e-09
4.17113541028e-08
2.85959675959e-08
3.06812190206e-08
2.77126059163e-08
2.85787830213e-08
2.59037770722e-09
3.64293706357e-08
1.08519823437e-08
5.87422429396e-10
3.61394896888e-08
7.96982875989e-09
2.64590917802e-09
5.36533997412e-08
2.99401857309e-08
1.70875406877e-08
1.96780475417e-08
1.20299183166e-08
1.94171994135e-08
1.15019814738e-08
3.5499101012e-08
1.83668112126e-08
1.08567900024e-08
3.95822885828e-09
3.6452907282e-09
1.67487985406e-08
3.84593981137e-08
3.26004162884e-08
9.97129209913e-10
3.06402121287e-08
2.41231914734e-08
4.31765350488e-08
3.20488770409e-08
4.97380767835e-08
1.9844894385e-08
8.73430591664e-09
1.08810843972e-08
1.95104935039e-08
6.71430972064e-09
2.87776731577e-09
2.7372933392e-08
4.30668822079e-08
7.13721092419e-09
2.66659375648e-08
2.81076714253e-08
5.39676660618e-08
1.73489066618e-08
5.44939169113e-08
2.95911671009e-09
7.11184673451e-09
2.46951975008e-08
2.38712862987e-08
5.8057831011e-10
2.89047389096e-09
4.70431841323e-08
7.64463325811e-09
1.5436502987e-08
2.73100186893e-08
1.53292313375e-08
3.00047830235e-08
5.17454472196e-09
1.68362890354e-08
6.78928795006e-09
2.52707566555e-08
1.87235837646e-08
1.30365991807e-08
4.62043795604e-08
4.01253043003e-08
5.29749020487e-08
3.25307809595e-08
1.90587205353e-08
2.61636889753e-08
1.14966530487e-08
1.31955369469e-08
2.47489688393e-09
1.9726208723e-09
5.45552421204e-08
4.72701693027e-09
8.84140074801e-09
1.08296992465e-08
6.68174685581e-09
3.86726290756e-08
1.52945195918e-09
3.43338525224e-08
1.77875354536e-08
1.55161342775e-08
7.70220591696e-09
1.76001219599e-08
1.38874913196e-08
5.79096111832e-09
2.51416128737e-08
2.30450049508e-08
2.61539561065e-08
1.1859732704e-08
4.03284829602e-09
2.37110054588e-08
6.29258196257e-08
6.14442403397e-08
8.61423407387e-09
1.67551764173e-08
9.02807478457e-09
2.69194586536e-08
4.07132871405e-08
2.301732515e-08
2.18910100792e-08
3.79778324674e-10
1.90408632631e-08
1.40394425921e-08
7.42568898447e-09
4.96615335966e-09
1.87975664921e-08
6.46362850083e-09
5.22127355945e-09
1.50880894021e-08
1.12180017893e-08
4.66169464585e-09
9.00795454469e-09
4.37840255222e-10
1.95037493954e-09
1.91272438099e-08
1.86908077423e-08
1.77120382195e-08
6.28301373924e-10
3.15759373848e-09
3.32242188008e-08
1.09641338805e-08
1.06309482308e-08
2.51095803828e-08
1.16200101364e-08
1.79760949808e-08
2.46623304161e-08
4.7198770858e-09
1.68315154398e-08
3.92000758122e-08
2.20920636048e-08
2.51157027817e-08
3.69205916054e-08
2.99918256301e-08
1.90217042558e-08
5.62420246409e-08
1.438583453e-08
9.10903667035e-09
2.30376260251e-08
4.94744412874e-09
2.29678351099e-08
1.86112912128e-09
6.40116068554e-09
3.29791782304e-09
1.39021302593e-08
1.1489697475e-08
7.51675316157e-09
2.26361847683e-08
3.57793975114e-08
2.5091378361e-08
1.62864745974e-08
9.7719876153e-09
1.89613929054e-09
8.2239020073e-09
4.72886771607e-08
4.51348691702e-08
1.21965563714e-08
1.27602957542e-08
2.3931980352e-08
1.05590058643e-08
1.97015306044e-08
2.30441881901e-08
1.26402120597e-08
1.751411353e-08
2.61430886958e-09
1.81272682515e-08
9.35321036098e-10
1.39196258269e-08
8.0180045107e-09
4.16500309349e-09
7.99416029247e-09
2.14509760986e-08
2.52509105397e-10
8.32286514252e-10
4.26024859584e-08
1.53242061866e-08
6.61676123247e-09
1.73219389114e-09
1.34450864552e-08
2.93897388122e-08
3.76371910416e-09
2.93464846097e-08
2.78397337204e-08
3.40621830075e-08
2.0686502577e-08
7.21165828189e-09
7.90055188894e-10
2.46480709128e-09
5.89786043199e-09
1.37591990154e-09
1.18865595438e-08
1.30728078462e-08
9.59722998833e-09
1.78293634458e-09
8.52503045338e-09
1.80073209713e-08
3.55980369653e-09
2.3116159926e-09
9.06717218085e-09
5.95961627124e-09
8.42926341006e-09
3.88432881814e-09
6.63221237326e-09
8.97248755601e-09
2.22426844842e-08
1.76171084016e-09
5.91404885104e-09
1.26315080444e-09
9.45406478819e-09
6.65300491297e-10
1.25552593728e-08
1.81942811174e-08
5.97281918382e-09
8.67320435388e-09
3.57917459506e-09
2.4643569094e-08
4.04766785649e-09
2.71372831496e-08
6.54582941725e-09
1.93705657315e-08
1.36005622666e-08
1.30136832448e-08
4.43005089773e-09
3.02332766061e-08
8.87681600179e-09
4.93811013185e-09
7.95036322343e-09
7.53038946581e-09
6.07524206966e-09
6.10067673452e-09
5.20812845699e-09
1.71181221329e-08
2.31097460245e-08
2.4493742458e-08
2.10568428121e-08
3.88490957609e-08
4.87920315937e-08
1.93719048107e-08
2.39838083968e-09
7.0512664475e-09
2.22396189577e-09
2.50816066181e-08
1.50123588586e-08
8.20081885824e-09
7.30570311285e-09
1.14721538154e-08
1.29725512142e-08
2.35811730832e-08
1.04687551676e-08
8.31039968291e-09
2.3138010534e-08
5.11567300276e-09
3.52321743128e-08
6.48434887905e-09
1.96233318502e-08
1.15973160796e-08
2.64840288127e-08
1.5079921199e-08
2.84196207157e-08
1.43987568052e-08
1.25125082992e-08
1.15365433233e-09
1.50202866835e-08
1.94127423638e-08
8.16443888007e-09
1.89549159249e-08
4.93566932838e-09
1.1751764406e-08
8.49839073368e-09
8.24413041938e-09
1.05022635249e-08
9.40964636306e-10
8.96663027954e-10
8.87496275946e-09
4.29471866074e-09
1.19183904237e-08
2.06637882801e-08
4.32508171712e-08
4.14586263063e-08
4.76477658384e-09
5.78049675065e-09
7.79155223187e-09
8.02619250045e-09
2.43136599524e-08
1.7028696818e-08
2.00039446941e-08
8.5844237177e-10
7.49002114078e-10
6.35007323594e-10
5.57444147775e-09
1.01697638754e-08
1.79051835109e-10
1.58090894675e-08
1.14814118741e-08
1.22686641031e-08
6.06813135538e-09
9.39794408818e-09
1.01116968302e-08
3.45147118963e-09
6.22630690495e-09
2.65942369406e-09
1.50461364455e-09
4.30490498238e-09
5.81291021538e-09
4.42555641523e-09
4.70928775069e-09
1.25587645044e-09
1.72086572075e-09
3.15252528793e-09
2.84020010654e-08
8.843659412e-09
7.42210756915e-10
4.97959838769e-09
2.81454646506e-09
1.31079432847e-09
7.95683278587e-09
1.91061906473e-08
3.18497059461e-08
2.06544882247e-08
1.23405485623e-08
3.11429029081e-08
2.5604590423e-08
3.51782219197e-09
7.06803586054e-09
1.9082524904e-10
1.29031865801e-09
5.36359139694e-09
7.44425243464e-09
5.94987493274e-09
2.73882910099e-08
4.64724144698e-08
4.72769987191e-09
1.45475015474e-08
1.06716695076e-08
4.96101295741e-09
1.373351007e-08
1.76144990373e-09
1.49648107652e-08
2.45789738286e-09
7.31029786961e-09
1.46018373467e-08
9.8619353013e-09
1.29915930281e-08
2.46764223033e-08
1.61915111159e-08
8.27089815269e-09
1.42220018374e-08
8.57265707274e-10
9.39699156044e-09
8.38415738209e-09
2.41610340323e-08
1.2932522853e-08
5.32222646175e-09
1.38407758387e-08
4.1536438678e-09
1.418409371e-08
1.24280932878e-08
9.95366179e-10
8.15731866354e-09
5.81348577322e-09
9.42161764386e-09
1.63180203141e-09
3.58034804015e-10
2.54120047417e-09
1.56164758403e-08
2.14698601008e-09
5.4285160877e-09
8.23634981832e-09
5.07761852764e-09
4.44118922601e-10
4.69794063183e-09
7.00140860161e-10
1.37613369101e-08
2.19747531016e-08
1.36150045962e-08
3.47592775696e-09
3.91926826154e-09
2.68123958093e-09
4.99301816425e-09
7.75767088355e-09
9.55625826733e-09
1.58572472205e-09
3.38307381274e-09
4.40901871806e-09
2.99435804675e-09
3.21729117435e-09
6.38207046731e-09
9.00525735483e-09
1.14841621027e-08
3.04322253527e-09
1.27775274296e-09
9.9526627672e-09
1.53242644341e-08
1.77671390598e-09
2.99817729248e-09
8.83587821967e-09
2.08474596242e-08
8.77570651018e-09
2.56338938459e-08
1.79956415338e-09
1.72090919342e-08
1.59233737473e-09
4.362697731e-09
6.1147412621e-09
1.63162633027e-08
1.2283243664e-08
3.61951385524e-09
4.37424485493e-10
2.14635491417e-08
4.64840227744e-09
1.25655090464e-08
1.08614175372e-08
5.07434748763e-09
2.78506754731e-09
1.68573861103e-08
4.56022940724e-09
1.11337335196e-08
5.3497380149e-09
1.75574687991e-08
1.62109074568e-08
2.59724496567e-08
3.96523128105e-08
2.8875745387e-08
6.13146881033e-09
2.26675146738e-08
1.40599064364e-08
1.25813359024e-08
2.09077117486e-08
2.69861159442e-08
1.54767290228e-09
5.26435337468e-10
1.42376334475e-08
9.68728556553e-09
8.04571138741e-09
1.59904295506e-08
8.97712191588e-09
1.0729628256e-08
3.32851256655e-09
5.46833122374e-09
5.00355721224e-09
4.39048261852e-08
4.44409445516e-09
8.86898975163e-09
1.50079927162e-08
3.64919961249e-09
6.37870924607e-09
5.8309871716e-09
7.28493460887e-09
7.65871053493e-09
3.57581233534e-09
4.13305376654e-09
1.97755630789e-08
1.86626552233e-09
7.74268218842e-09
5.58157503593e-09
6.02938311728e-09
5.78784311251e-09
2.03761943895e-09
8.71951624461e-09
1.66444662354e-08
4.51645633976e-09
7.28971133442e-09
2.39971117931e-08
3.53037136038e-10
8.39092476748e-10
4.94367005054e-09
1.05262684035e-08
1.41817772933e-08
8.58534953919e-09
2.51817168573e-08
1.09202140655e-08
1.4423727562e-08
5.84322684556e-10
8.96344812194e-09
9.10818702727e-09
2.51114258793e-08
1.06466837844e-08
4.25651137769e-09
1.61165531359e-09
2.06202122197e-09
1.19895252235e-08
5.07821439159e-09
8.99017854011e-10
5.59749608531e-10
3.22624368424e-09
1.27205104532e-08
4.79910367737e-09
8.61803658191e-09
9.55073254821e-09
1.07638957419e-08
1.22512872675e-08
7.49527157153e-09
1.9904674906e-08
2.75533539048e-08
4.67022000451e-09
9.72708608648e-09
5.42022105147e-11
7.15833918547e-09
1.26904884295e-08
3.94263018831e-09
1.80939017768e-08
5.53151573276e-09
5.99579852432e-10
4.84803782389e-09
1.27662602895e-08
2.32304981693e-09
2.08064552719e-08
2.81488482062e-09
1.83046472745e-08
1.44881351904e-08
1.22171070594e-08
5.7577211752e-09
1.24874546892e-08
1.50991909236e-08
6.45826558129e-09
2.26076680898e-09
5.90762815624e-09
2.30569161844e-09
3.04403587829e-09
2.61713492452e-08
1.4356621016e-08
3.17473706115e-09
2.35858826535e-09
2.03625316502e-09
4.00968601895e-10
7.75800046231e-09
1.40870423351e-09
7.13541030679e-10
1.48101516837e-08
9.0538008654e-09
4.20829842692e-09
1.32663952844e-08
1.51063274098e-10
1.9306744432e-09
1.12813018884e-09
1.79847067136e-09
1.30024988526e-08
1.9608447849e-08
2.54626862532e-08
1.21585919673e-08
1.68312093924e-08
1.56508811667e-08
8.64583354386e-09
9.50939174064e-09
3.64001328968e-09
2.29182009821e-08
2.63574668846e-08
7.08636696311e-09
1.12767305829e-08
2.68843170664e-09
1.46297764589e-08
5.78421122823e-09
3.1318669354e-09
1.34686062381e-10
3.12413063179e-09
3.18345699766e-09
2.50825887746e-09
8.12506684584e-09
4.81930274479e-09
2.15454971122e-09
8.77105307411e-09
1.02991907917e-08
2.07101398375e-08
4.56342116547e-09
1.69596949446e-08
2.85898673525e-09
1.22956607184e-08
1.71996362158e-08
2.01952423179e-08
7.73391948214e-09
1.70509756774e-08
1.78468403525e-08
1.72383783352e-08
5.95088009292e-09
4.53372668771e-10
1.42033391416e-09
9.20139671225e-09
2.58279215345e-09
8.25508648224e-09
4.8495281373e-09
9.92367879165e-09
3.98821009374e-10
7.70036114758e-09
5.92609070349e-09
1.03450070865e-08
2.78251315884e-09
7.98732359713e-09
2.4664318675e-09
5.7757163348e-09
2.78562193478e-08
1.93352413093e-08
9.30419401378e-11
3.11163438744e-09
6.92228105377e-09
6.63523041003e-09
5.79716545311e-09
9.50206786737e-11
5.75152655847e-09
1.03605029469e-08
7.4894620749e-09
1.45486369073e-09
1.15536758641e-08
3.20960467403e-09
6.38377184262e-09
3.76321601904e-09
5.56093666614e-08
9.26518345701e-09
2.45667497769e-09
7.57744297467e-09
7.28028737865e-09
1.44012591797e-09
2.77419344457e-09
7.1630965946e-09
1.55721070659e-08
5.1639911274e-09
4.76601164818e-09
2.20931282903e-09
1.28103761405e-08
8.81647187248e-10
7.1814912499e-09
2.0307763362e-08
6.30409266253e-09
2.90089689763e-09
1.24463824659e-08
1.0228874567e-08
8.77602698431e-09
4.15247781198e-09
1.06863885543e-09
4.46783896079e-09
6.00949310045e-09
1.27503962969e-09
1.81948039797e-09
1.64175439308e-08
1.87480205487e-09
4.92387663101e-09
7.6463259015e-09
5.52711709894e-09
1.38239167311e-08
2.1588510791e-09
5.05168708988e-09
7.80678799249e-09
6.71999385958e-09
5.19227587292e-09
9.44632041298e-09
2.98983425405e-10
1.12132526478e-08
8.68368254831e-09
9.26995211235e-09
3.02405934204e-09
6.08825368787e-09
1.04104946483e-08
9.71954562514e-09
1.92246197345e-09
4.02360703877e-09
1.7626965701e-08
1.59332473687e-08
2.10359863022e-09
1.30698375916e-08
2.16833311336e-08
1.42413786791e-08
5.4149370034e-09
1.91595684642e-09
9.19603487674e-09
5.68373991807e-09
2.45967352744e-09
1.22674005115e-08
9.85187629647e-09
1.45694061485e-08
5.49870033435e-09
2.60435406504e-08
7.99220930376e-10
1.36651938636e-08
6.46570631566e-09
2.44799010027e-08
8.81971989383e-09
5.26661980877e-09
6.68817721689e-09
1.06490977191e-08
1.6403438149e-08
6.25663694703e-09
4.63590880795e-09
6.44562702499e-09
4.2064698915e-09
1.5966014929e-08
8.40233011708e-09
9.73926246884e-09
2.18569164716e-08
1.2398703098e-08
4.27612989032e-09
6.49585664363e-09
2.02108375028e-09
8.49528177846e-09
1.12497242661e-08
8.79774714291e-09
1.52348523375e-09
8.74640506866e-10
9.00513867348e-09
3.01538005101e-09
2.82732022045e-09
2.80685499826e-09
1.42595911285e-08
8.37215198027e-10
1.36770653928e-09
4.7084087038e-09
1.55139844881e-08
2.94979786251e-09
7.18910817853e-09
5.64364232919e-09
5.97450343613e-09
9.81182637555e-09
2.53400876771e-09
5.89651575242e-09
1.69243495555e-08
1.09256912045e-08
3.47722677274e-08
1.03722260343e-08
1.07631130158e-08
3.10155152521e-09
2.02298053155e-08
3.35712816985e-09
6.11172950186e-09
7.23667228667e-09
9.06076687399e-09
5.56545169845e-09
6.18346269326e-09
8.1752119772e-09
1.61143029902e-09
3.98472505989e-08
1.19801833666e-08
2.32788397591e-09
1.34384934469e-08
1.18148346946e-08
1.2905158735e-08
2.23179326853e-11
6.02055951969e-09
1.43019746764e-08
5.17696769557e-09
1.14578437032e-08
4.41238050481e-09
2.87865924929e-09
1.34018236143e-09
1.20163895222e-08
4.5712472549e-10
7.53055152857e-09
6.56518370326e-09
2.34981999583e-09
3.10453457198e-09
1.19857905217e-08
2.38495182739e-09
2.91057138342e-10
1.11388828432e-08
1.28020228639e-08
1.27737767582e-09
3.53327174467e-09
9.62733569198e-09
2.32235550326e-09
2.65091707908e-09
1.54354545069e-09
5.08304582518e-09
3.12880604148e-09
2.3068300501e-09
8.20202722316e-10
3.88651710477e-09
2.67772380046e-09
1.07682896207e-08
7.17123305073e-11
7.90159941819e-09
1.20756876415e-08
1.21062460029e-08
2.1034099439e-09
2.70384557483e-09
1.21165967449e-08
5.27535142065e-09
6.80051466702e-09
4.7317979771e-09
1.82082431026e-09
1.11754477751e-09
2.37095438174e-09
3.85838501461e-09
4.70774982829e-09
2.83856686555e-09
3.44566218281e-10
1.78408819973e-08
1.33991346045e-09
5.49828702013e-10
4.52001938469e-09
3.84506110161e-09
3.08813294154e-09
4.78291328911e-08
3.63985701902e-09
3.65979241797e-09
9.68222451517e-10
1.00185512352e-09

