# vtk DataFile Version 3.0
File Name: Molecule/sphere_cent/sphere_cent_0-s13.vtk
ASCII
DATASET UNSTRUCTURED_GRID
FIELD FieldData 1
TIME 1 1 double
0.0
POINTS 185 double
1.7357660532 -0.98764413595 -0.071321316063
1.8888853788 -0.46670693159 -0.46020627022
1.9892754555 -0.099400162697 0.17103821039
0.99842602015 0.076895393431 -1.7273523808
0.34806984663 -0.5244551897 -1.8982847929
0.031616766006 0.053758919239 -1.9983075857
0.69600868225 -1.011376977 -1.5783312321
0.11039315164 -1.0722219944 -1.6831486225
-0.29068550467 -0.42494034767 -1.9314299822
0.85205626488 1.3794893026 1.1706545353
1.1744982004 0.84991961718 1.3776723146
1.3985044956 1.1172580719 0.89068591595
0.54551893473 0.9884173274 1.6501355171
1.6642260551 0.55732423067 0.95825958252
1.598367691 0.64078956842 -1.0165439844
1.149532795 0.8728030324 -1.3844798803
1.3477501869 1.204234004 -0.85626077652
0.84309393167 1.383607626 -1.1724264622
0.58741873503 0.96646428108 -1.6490483284
0.98997080326 1.6511569023 -0.54124397039
-0.65058964491 -0.96955537796 1.6233321428
-0.32219037414 -0.50025105476 1.9093370438
-1.1105064154 -0.054285224527 1.6599940062
-0.0075491880998 -1.0643849373 1.6931678057
0.31647756696 -0.5299757719 1.9023180008
0.63329178095 -1.0419499874 1.5850274563
-0.016452804208 0.06450600177 1.9986451864
0.20329602063 -1.6567289829 1.1001991034
-1.6041654348 0.6121994853 1.0192084312
-1.7107988596 -0.0061985710636 1.0361177921
-1.6152641773 -0.59816843271 1.0126734972
-1.9101766348 0.27196252346 0.51220774651
-1.9099920988 -0.32001382113 0.49904704094
-1.9995896816 0.0080670015886 -0.034392174333
-1.8842682838 -0.62579858303 -0.21435114741
-1.7371842861 -0.84122437239 0.51847398281
-0.11636805534 1.7164759636 1.0135369301
-0.49269506335 1.9132606983 0.31166526675
-0.96891540289 1.6282228231 0.63050931692
0.064380161464 1.998650074 0.0013352625538
-0.49478703737 1.9111953974 -0.32013836503
-1.0242030621 1.7149529457 -0.038623843342
-0.96917504072 1.629827261 -0.63144767284
-0.12074416131 1.7222706079 -1.0042346716
-0.82700949907 1.3663269281 1.2039784193
-1.3400068283 1.1805005074 0.89358174801
-1.1433787346 0.85839706659 1.3984248638
-0.56059134007 0.97447299957 1.6535792351
1.039274931 -1.5787947178 -0.65327751637
1.0580043793 -1.6972252131 0.0038423091173
0.6203354001 -1.8699520826 -0.34009051323
0.51379561424 -1.904791832 0.3280159533
0.98534536362 -1.6109187603 0.65808057785
-1.0130748749 -1.6111975908 -0.61414802074
-0.54494738579 -1.8975126743 -0.3196477592
-0.99484783411 -1.7323038578 -0.066960416734
-0.56784063578 -1.8947761059 0.29488125443
-0.061477411538 -1.9981839657 0.011123227887
-0.11368774623 -1.7161289454 -1.0158166885
-0.99829918146 -1.604064703 0.65494698286
-0.49035087228 -1.7289458513 0.87751179934
-0.062822513282 -1.9226155281 0.54727184772
-0.88611680269 -1.365870595 1.1616413593
-1.3218655586 -1.2265964746 0.86190241575
-1.1845636368 -0.87912148237 1.3502805233
-0.37463474274 -1.4227583408 1.3547232151
-1.5924714804 -0.57066351175 -1.0600043535
-1.7063485384 -0.0051685203798 -1.0433667898
-1.1370353699 -0.059170562774 -1.641458869
-1.9093294144 -0.23099309206 -0.54429262877
-1.8942779303 0.32400688529 -0.54377949238
-1.6440085173 0.56641149521 -0.98501139879
-1.8637696505 0.67048966885 0.24250815809
-1.7318143845 0.84559029341 -0.53215831518
-0.84331822395 1.354049325 -1.2064080238
-0.59795308113 0.9896517396 -1.6318475008
-1.1072850227 0.85696452856 -1.4261683226
-1.2034125328 -0.86874324083 -1.3405892849
-0.7111338377 -1.0335513353 -1.5569078922
-0.89355522394 -1.3662776947 -1.1551266909
-1.3219249249 -1.2095296383 -0.88669085503
1.0417169333 0.0065504144877 1.7072383165
0.89932566881 -0.51552599669 1.7103027105
1.3773909807 -0.3159840405 1.4152460098
1.186003685 -0.87373399734 1.3525900841
1.5695713758 -0.65630173683 1.051445961
0.90706700087 -1.3451608419 1.169485569
1.3731337786 -1.1539386511 0.88481491804
1.7595311403 -0.7820366621 0.53850972652
1.4402989149 -1.3445029259 0.34196689725
1.751663208 -0.10290730745 0.95866572857
1.407802701 0.27015936375 1.3945938349
0.83048641682 0.50572621822 1.747479558
0.54500967264 0.037381544709 1.9237849712
1.4277371168 -1.3552342653 -0.35205179453
0.26591110229 0.55296063423 1.9034807682
0.90698897839 -1.3497133255 -1.1643066406
0.40930661559 -1.4247136116 -1.3427402973
0.56649619341 -1.6794050932 -0.92699545622
0.26812079549 0.56651967764 -1.8990447521
-0.29376778007 0.57210403681 -1.8937891722
-0.017452571541 1.0144792795 -1.7234755754
-0.53702908754 0.10043044388 -1.9239836931
-0.80446404219 0.5110129118 -1.7583692074
0.27399706841 1.4078063965 -1.3935219049
-0.27866229415 1.3670660257 -1.4330929518
0.48825323582 1.7507153749 -0.83422201872
0.54881036282 1.903827548 -0.27269977331
0.94860941172 1.7604260445 0.018745047972
0.54050451517 1.9065252542 0.27015393972
0.93290352821 1.6879668236 0.52822881937
0.084319457412 1.9297031164 -0.51891964674
0.48204559088 1.7484310865 0.84228813648
0.085543647408 1.9280244112 0.52492636442
-0.26299664378 1.3623888493 1.4404615164
0.27128356695 1.4130619764 1.3885655403
-0.0082799019292 1.0036131144 1.7299172878
-0.78838300705 0.50332057476 1.7680230141
-0.28229305148 0.55568414927 1.9003691673
-0.54352790117 0.088349752128 1.922883749
1.925129652 0.53084999323 0.108955957
1.8954335451 0.30657207966 0.56016856432
1.7670012712 0.79771101475 0.4919898212
1.6962952614 1.0571855307 -0.038961499929
1.3346624374 -0.41193258762 -1.4315850735
0.93549764156 -0.54496794939 -1.6818093061
1.1703850031 -0.90857625008 -1.3433828354
1.5597102642 -0.70030868053 -1.0363970995
1.6599773169 -0.94790434837 -0.58841997385
1.3373203278 -1.1879936457 -0.89453953505
1.6519249678 -0.059493985027 -1.1232737303
1.8199641705 -0.21279387176 -0.80037260056
1.8288704157 0.15349587798 -0.79469376802
1.9364489317 -0.035087689757 -0.49605670571
1.9205623865 0.36141997576 -0.41842961311
-0.14756326377 -0.79250514507 -1.8301308155
-0.31397947669 -1.0847953558 -1.6507425308
-0.52371120453 -0.74580299854 -1.7804113626
-0.4006035924 -1.3919341564 -1.3792051077
-0.028515916318 -1.4070706367 -1.4211546183
-0.71234619617 -0.29535907507 -1.8454372883
-0.90207540989 -0.57947212458 -1.6881868839
1.2208762169 1.4281123877 0.68532681465
1.3258327246 1.4700834751 0.27163505554
1.5576646328 1.175632596 0.43748822808
0.26352742314 -1.8640338182 -0.67603451014
-0.048925548792 -1.933247447 -0.51010286808
0.2602430284 -1.9718129635 -0.21143428981
-1.3957957029 -1.4303110838 -0.05016675964
-1.5490233898 -1.181830287 -0.44640734792
-1.7007739544 -1.0516192913 0.01633919403
-1.382448554 -1.4044392109 0.33955693245
-1.0688141584 -1.6658511162 0.28697264194
-1.7760102749 -0.5071747303 -0.76685285568
-1.7324510813 -0.85311836004 -0.5194876194
-1.5424052477 -0.89583277702 -0.90473365784
1.7908834219 0.5183635354 -0.7238509655
1.8459525108 0.71950310469 -0.27234500647
1.6865690947 0.92142933607 -0.55120420456
1.4074393511 1.3790494204 -0.33258241415
-1.3854171038 1.4006367922 -0.3414657414
-1.5710946321 -1.1398798227 0.48174250126
-1.5133965015 -0.9318125844 0.91635888815
-1.4309169054 0.31202551723 -1.3616945744
-1.7135221958 1.0282856226 -0.0045685674995
-1.2634158134 1.0524142981 -1.1375392675
-1.2128940821 1.385266304 -0.77973949909
-1.4031972885 0.71821475029 -1.2314287424
-1.5320706367 0.89234542847 -0.92445844412
-1.3921433687 1.1480822563 -0.86192327738
-1.1726197004 0.43870982528 -1.5598130226
-1.5719046593 1.140583396 -0.47761878371
1.513255477 1.3048398495 0.076335519552
1.2273205519 1.5744680166 -0.12169895321
1.6528776884 0.29876109958 -1.0858250856
1.3699964285 0.3664791584 -1.4101182222
1.3836339712 0.013244252652 -1.4443372488
-1.7836197615 0.48317188025 0.76325559616
-1.7248500586 0.85794866085 0.53740102053
-1.046303153 1.6761515141 0.31013154984
-1.1980926991 1.4231395721 0.73421382904
-1.3997373581 1.4276592731 0.0068396190181
-1.3973145485 1.3915753365 0.33322128654
-1.5118211508 0.91492092609 0.93677020073
-1.567060113 1.1467469931 0.47629770637

CELLS 366 1464
3 0 1 2
3 3 4 5
3 6 7 4
3 4 8 5
3 9 10 11
3 9 12 10
3 11 10 13
3 14 15 16
3 15 17 16
3 15 18 17
3 16 17 19
3 18 15 3
3 20 21 22
3 20 23 21
3 23 24 21
3 23 25 24
3 21 24 26
3 25 23 27
3 28 29 22
3 22 29 30
3 31 32 29
3 31 33 32
3 29 32 30
3 32 34 35
3 36 37 38
3 39 40 37
3 40 41 37
3 40 42 41
3 42 40 43
3 38 44 36
3 45 46 44
3 44 46 47
3 46 28 22
3 48 49 50
3 49 51 50
3 49 52 51
3 51 52 27
3 53 54 55
3 54 56 55
3 54 57 56
3 58 54 53
3 59 56 60
3 56 61 60
3 56 57 61
3 60 61 27
3 59 62 63
3 62 64 63
3 62 20 64
3 59 60 62
3 60 65 62
3 60 27 65
3 62 65 20
3 30 64 22
3 64 20 22
3 20 65 23
3 23 65 27
3 27 61 51
3 51 61 57
3 66 67 68
3 69 70 67
3 69 33 70
3 67 70 71
3 70 72 73
3 43 74 42
3 75 76 74
3 68 77 66
3 78 79 77
3 79 80 77
3 79 53 80
3 53 79 58
3 81 82 83
3 82 84 83
3 82 25 84
3 83 84 85
3 25 86 84
3 86 87 84
3 86 52 87
3 84 87 85
3 52 86 27
3 27 86 25
3 85 87 88
3 87 89 88
3 87 52 89
3 88 89 0
3 85 88 90
3 2 88 0
3 2 90 88
3 85 90 83
3 90 91 83
3 90 13 91
3 83 91 81
3 81 91 92
3 10 91 13
3 25 82 24
3 24 82 93
3 0 89 94
3 49 89 52
3 12 95 92
3 95 93 92
3 95 26 93
3 92 93 81
3 6 96 97
3 96 98 97
3 96 48 98
3 97 98 58
3 5 99 3
3 3 99 18
3 5 100 99
3 100 101 99
3 100 75 101
3 99 101 18
3 5 102 100
3 102 103 100
3 102 68 103
3 100 103 75
3 18 101 104
3 101 105 104
3 101 75 105
3 104 105 43
3 6 97 7
3 8 102 5
3 12 92 10
3 10 92 91
3 18 104 17
3 17 104 106
3 81 93 82
3 24 93 26
3 50 98 48
3 43 105 74
3 74 105 75
3 75 103 76
3 19 107 108
3 107 109 108
3 107 39 109
3 108 109 110
3 19 106 107
3 106 111 107
3 106 43 111
3 107 111 39
3 110 109 112
3 109 113 112
3 109 39 113
3 112 113 36
3 36 114 115
3 114 116 115
3 114 47 116
3 115 116 12
3 47 117 118
3 117 119 118
3 117 22 119
3 118 119 26
3 36 115 112
3 9 115 12
3 110 112 9
3 9 112 115
3 43 106 104
3 17 106 19
3 26 119 21
3 21 119 22
3 36 113 37
3 37 113 39
3 39 111 40
3 40 111 43
3 47 114 44
3 44 114 36
3 22 117 46
3 46 117 47
3 47 118 116
3 95 118 26
3 12 116 95
3 95 116 118
3 2 120 121
3 120 122 121
3 120 123 122
3 121 122 13
3 3 124 125
3 124 126 125
3 124 127 126
3 125 126 6
3 127 128 129
3 128 94 129
3 128 0 94
3 129 94 48
3 0 128 1
3 1 128 127
3 130 131 127
3 127 131 1
3 130 132 131
3 132 133 131
3 132 134 133
3 131 133 1
3 1 133 2
3 133 134 2
3 127 124 130
3 134 120 2
3 3 125 4
3 4 125 6
3 13 122 11
3 48 94 49
3 49 94 89
3 2 121 90
3 90 121 13
3 127 129 126
3 96 129 48
3 6 126 96
3 96 126 129
3 7 135 4
3 135 8 4
3 7 136 135
3 136 137 135
3 136 78 137
3 135 137 8
3 78 136 138
3 136 139 138
3 136 7 139
3 138 139 58
3 8 137 140
3 137 141 140
3 137 78 141
3 140 141 68
3 110 142 143
3 142 144 143
3 142 11 144
3 11 142 9
3 9 142 110
3 58 145 146
3 145 147 146
3 145 50 147
3 146 147 57
3 57 147 51
3 51 147 50
3 55 148 53
3 53 148 149
3 150 148 151
3 148 152 151
3 148 55 152
3 151 152 59
3 59 152 56
3 56 152 55
3 58 146 54
3 54 146 57
3 63 151 59
3 66 153 67
3 153 69 67
3 69 34 33
3 33 34 32
3 150 34 154
3 34 153 154
3 34 69 153
3 154 153 155
3 68 141 77
3 77 141 78
3 80 155 77
3 77 155 66
3 78 138 79
3 79 138 58
3 66 155 153
3 155 149 154
3 155 80 149
3 154 149 150
3 150 149 148
3 53 149 80
3 58 139 97
3 97 139 7
3 8 140 102
3 102 140 68
3 50 145 98
3 98 145 58
3 110 143 108
3 123 144 122
3 122 144 11
3 134 156 157
3 156 158 157
3 156 14 158
3 157 158 123
3 123 158 159
3 16 158 14
3 19 159 16
3 16 159 158
3 150 35 34
3 32 35 30
3 42 160 41
3 150 161 35
3 161 162 35
3 161 63 162
3 35 162 30
3 30 162 64
3 64 162 63
3 71 163 67
3 67 163 68
3 164 73 72
3 70 73 71
3 76 165 74
3 74 165 166
3 76 167 165
3 167 168 165
3 167 71 168
3 165 168 169
3 169 166 165
3 74 166 42
3 71 167 163
3 167 170 163
3 167 76 170
3 163 170 68
3 42 166 160
3 166 171 160
3 166 169 171
3 160 171 164
3 169 168 171
3 168 73 171
3 168 71 73
3 171 73 164
3 68 170 103
3 103 170 76
3 123 159 172
3 159 173 172
3 159 19 173
3 172 173 143
3 14 156 174
3 132 156 134
3 134 157 120
3 120 157 123
3 123 172 144
3 144 172 143
3 63 161 151
3 151 161 150
3 143 173 108
3 108 173 19
3 14 174 175
3 174 176 175
3 174 130 176
3 175 176 3
3 14 175 15
3 15 175 3
3 28 177 29
3 177 31 29
3 31 72 33
3 33 72 70
3 164 72 178
3 72 177 178
3 72 31 177
3 178 177 28
3 41 179 37
3 37 179 38
3 38 179 180
3 179 181 182
3 179 41 181
3 182 181 164
3 38 180 44
3 180 45 44
3 45 183 46
3 183 28 46
3 28 183 178
3 183 184 178
3 183 45 184
3 178 184 164
3 164 184 182
3 184 180 182
3 184 45 180
3 182 180 179
3 130 174 132
3 132 174 156
3 3 176 124
3 124 176 130
3 164 181 160
3 160 181 41

CELL_TYPES 366
5
5
5
5
5
5
5
5
5
5
5
5
5
5
5
5
5
5
5
5
5
5
5
5
5
5
5
5
5
5
5
5
5
5
5
5
5
5
5
5
5
5
5
5
5
5
5
5
5
5
5
5
5
5
5
5
5
5
5
5
5
5
5
5
5
5
5
5
5
5
5
5
5
5
5
5
5
5
5
5
5
5
5
5
5
5
5
5
5
5
5
5
5
5
5
5
5
5
5
5
5
5
5
5
5
5
5
5
5
5
5
5
5
5
5
5
5
5
5
5
5
5
5
5
5
5
5
5
5
5
5
5
5
5
5
5
5
5
5
5
5
5
5
5
5
5
5
5
5
5
5
5
5
5
5
5
5
5
5
5
5
5
5
5
5
5
5
5
5
5
5
5
5
5
5
5
5
5
5
5
5
5
5
5
5
5
5
5
5
5
5
5
5
5
5
5
5
5
5
5
5
5
5
5
5
5
5
5
5
5
5
5
5
5
5
5
5
5
5
5
5
5
5
5
5
5
5
5
5
5
5
5
5
5
5
5
5
5
5
5
5
5
5
5
5
5
5
5
5
5
5
5
5
5
5
5
5
5
5
5
5
5
5
5
5
5
5
5
5
5
5
5
5
5
5
5
5
5
5
5
5
5
5
5
5
5
5
5
5
5
5
5
5
5
5
5
5
5
5
5
5
5
5
5
5
5
5
5
5
5
5
5
5
5
5
5
5
5
5
5
5
5
5
5
5
5
5
5
5
5
5
5
5
5
5
5
5
5
5
5
5
5
5
5
5
5
5
5
5
5
5
5
5
5
5
5
5
5
5
5
5
5
5
5
5
5

CELL_DATA 366
SCALARS cell_data_0 double
LOOKUP_TABLE default
4.48035339681e-07
9.3813784778e-07
2.57131476117e-08
2.04541138821e-08
4.44241317291e-08
1.1864084531e-07
5.75328274729e-08
2.00770534698e-08
1.98458154782e-07
1.77480689492e-07
1.13012569034e-07
7.19100396704e-07
6.99267418499e-07
6.44160633258e-09
1.05655510999e-07
1.28614243463e-07
4.0599810038e-08
6.03433062821e-07
2.84383063534e-07
4.65203991421e-07
7.90257050851e-08
1.56986536748e-07
7.21257828664e-09
3.8809778355e-07
6.42326130068e-07
2.59096367793e-08
1.54701217711e-07
4.89503994627e-09
3.08995404579e-07
6.66803576589e-07
8.52283350835e-08
5.39254180849e-08
5.89896852492e-07
7.52140256538e-08
1.97514820795e-07
3.02341791497e-07
9.17401101002e-08
1.40907517711e-07
3.10182718283e-08
8.07628694606e-09
2.17419966896e-07
1.65963677672e-07
1.12549024788e-07
1.13779529613e-08
1.47818581725e-07
1.98880875738e-07
2.00011672694e-08
5.49974155195e-08
2.49162863762e-07
1.838379848e-07
1.65025572381e-07
9.26126614586e-08
5.86664358568e-07
5.52630810342e-07
3.60209222025e-08
1.74819240631e-07
4.17898045727e-08
1.3642719113e-07
5.96418047251e-07
9.36436257993e-08
2.59583454022e-08
6.355388592e-08
7.50858748541e-07
4.31186595385e-07
7.04837780025e-08
6.01831281175e-07
5.39251754471e-08
3.75902215003e-08
1.02983494435e-07
4.17591451603e-07
1.55941653426e-07
4.59959154264e-08
2.08541100418e-08
2.6021284413e-07
1.06266432995e-07
9.82291342639e-08
2.50266845172e-07
2.04690663042e-07
2.61304491727e-08
1.53133234153e-07
2.12522324656e-07
3.14170819043e-08
1.52258152803e-07
3.84960622219e-08
1.03649783613e-07
5.84950535227e-07
6.78895840233e-07
2.5711767085e-07
1.43113722935e-08
8.08942553905e-08
1.64202513747e-07
9.35150845284e-09
5.02965174671e-08
5.44509330873e-08
1.15885408721e-07
4.23012580031e-08
1.4736514733e-07
6.88684435146e-09
6.56354788713e-08
2.62576673546e-10
8.11912045026e-08
5.46719279887e-08
5.89559931003e-08
3.28344529304e-08
4.55252643523e-08
6.90561244169e-07
7.08757474004e-07
7.13794168341e-08
2.77424500222e-10
1.01958564e-07
5.81905921844e-08
8.5362616342e-09
4.12666679661e-08
1.48453059235e-07
1.42455304276e-07
1.86951482039e-08
4.28931877573e-09
1.28149379522e-07
1.09740594429e-07
4.5032212523e-08
1.21002644754e-08
3.03232298499e-08
1.56631468997e-07
6.03563543859e-08
2.61267189615e-08
1.96862268094e-08
4.01266010447e-08
3.01770680737e-08
5.99446346654e-08
9.34082692563e-08
1.42566131355e-07
3.89821921513e-08
8.84915797381e-09
3.76581693952e-08
3.49173838197e-08
4.36230341277e-08
5.01567468803e-09
1.20283804128e-07
7.85390613912e-08
2.80614154284e-08
4.46046947624e-08
7.39462032601e-08
1.15152875011e-08
8.2617895869e-09
3.38166150949e-08
8.81141825298e-08
2.02488461789e-08
2.8572555406e-08
4.21120077556e-08
1.7594522312e-08
1.26224418201e-08
1.96731466018e-07
6.02982882832e-08
9.02624726461e-08
1.64678749596e-07
5.8096365596e-10
9.16725297467e-08
1.19754702192e-08
2.2680351874e-07
1.07693550266e-07
7.3085631693e-08
6.1627905824e-09
3.33751558806e-08
3.68971252268e-08
1.2159177805e-07
3.08574377715e-07
1.16578342385e-08
4.00270326124e-08
5.29555057382e-09
2.99470921716e-08
1.21134423372e-08
5.2877561155e-08
4.66482384864e-08
8.37050355595e-08
6.24831325781e-08
8.22646543295e-08
4.06669594507e-08
5.18288792105e-08
8.70551087895e-08
1.44163554816e-08
1.26901955681e-08
3.12873883653e-08
1.72622341005e-08
7.46425043781e-08
1.01079888866e-08
6.67647901589e-08
4.63978183801e-09
7.9839773738e-08
1.04104062352e-09
3.60446657295e-08
1.00445631364e-07
2.55388232467e-09
9.9439005258e-08
4.5740077415e-08
1.14250485112e-07
3.12600359388e-07
6.26379323383e-09
5.1197836502e-08
2.65407353084e-09
4.34968585028e-08
1.00376839076e-07
2.61020936211e-08
4.64091120425e-08
3.33031215119e-08
1.08200775772e-07
7.53118155233e-08
8.03042065333e-08
1.60916578619e-08
8.58287779206e-08
2.51153759135e-08
1.50544715854e-08
6.89038721278e-08
1.01340359221e-09
6.17172825917e-09
2.31591697262e-08
1.62307007669e-07
1.59403142245e-08
2.33954487249e-08
5.55080885692e-10
1.3071295644e-08
4.12507594978e-08
6.17447467571e-09
5.10602594921e-08
9.63743759414e-09
3.59808909053e-08
1.35298817215e-07
1.57446972123e-08
7.56893120041e-08
4.3612663725e-09
6.64030179028e-08
1.40956477311e-07
9.49559651738e-08
2.20646690486e-07
3.27937514554e-08
3.98154119529e-08
1.08088613981e-08
1.55601249245e-07
1.0160536364e-07
1.43350186593e-09
9.08473862742e-08
2.94372251508e-08
1.42690928682e-07
5.04157233691e-08
3.39098507271e-08
3.7528128204e-09
2.90975837841e-07
2.24112386251e-08
2.04495761382e-08
3.17804734876e-08
2.33327135416e-08
2.33947967529e-07
2.07295332083e-08
4.76405583625e-09
4.51964499765e-08
1.22584678537e-08
1.06767649086e-08
4.7786135182e-08
4.05341244687e-08
1.31677604271e-08
1.17230804452e-09
1.89280312649e-08
4.76640243342e-08
1.12552579713e-07
5.55509278498e-08
8.13788880749e-09
7.66278309009e-08
6.63401756376e-08
1.23094365746e-07
2.91913464886e-08
3.390765853e-08
2.9108174479e-09
2.29992082781e-08
4.68241966696e-08
1.77801052071e-08
1.1523686451e-08
1.17526770986e-07
3.31324520849e-08
6.03450279782e-08
8.08375693782e-09
1.18421427739e-07
1.5304155e-08
2.60761933735e-08
6.85129470777e-08
1.14683484907e-08
1.50690937984e-08
2.60226903686e-08
5.06680130449e-08
5.84264418217e-09
4.34997367435e-08
1.76424638687e-07
1.71118728674e-07
3.73123360302e-08
2.5454365484e-09
9.95058684661e-08
3.60588384807e-08
4.65889409787e-09
6.64404578999e-08
3.6756889979e-08
2.17872144618e-08
5.76880662267e-08
4.78095128247e-08
8.69224071818e-09
1.1528063606e-09
3.06202164858e-08
5.66788755083e-08
4.26722654247e-08
1.42396246401e-08
2.95963169964e-09
6.88910781473e-09
7.22238115085e-09
6.18410063457e-08
5.11307470805e-08
8.59459335911e-09
4.09984029435e-08
2.69840751906e-08
1.20348479561e-08
4.52982476745e-08
7.41885635869e-09
2.15340566953e-08
2.36083411832e-08
6.6780410113e-08
9.59719130467e-09
3.13420621344e-08
3.24485296685e-08
6.09577918289e-08
3.60557773962e-08
1.1212686812e-08
3.50286029728e-08
7.19597634217e-09
2.73413959546e-08
5.35983748732e-08
3.62042699706e-08
3.23277504691e-08
1.52952397056e-07
1.86553810369e-07
6.92480909482e-08
3.61237527978e-08
6.60739568303e-07
1.7723758463e-08
1.18111230971e-07
1.19228788819e-08
9.81202001077e-08
4.59596397457e-08
3.72404912513e-08
5.37491727592e-08
2.76964554453e-08
7.64350423578e-09
1.04605659283e-09
6.29146238083e-08
4.20476503937e-08
1.57785624774e-08
1.768601158e-07
9.57771398842e-08
3.33031736646e-08
1.48424617898e-08
1.90795604668e-08
6.46373969505e-09
8.06550873041e-09
5.60965998652e-08
6.68734589617e-08
6.53513235153e-08
3.21245232609e-08
4.819741662e-08
9.13194206274e-08
2.22257458026e-08
1.44426353062e-08

