# vtk DataFile Version 3.0
File Name: Molecule/sphere_cent/sphere_cent_0-s9.vtk
ASCII
DATASET UNSTRUCTURED_GRID
FIELD FieldData 1
TIME 1 1 double
0.0
POINTS 122 double
1.9913190603 -0.007609823253 0.17597979307
1.7002575397 1.0528476238 0.001237307908
1.6934642792 0.53531765938 0.91566997766
1.0494062901 -0.00018570674001 -1.7023656368
1.5233825445 -0.75609654188 -1.0503424406
0.74690246582 -1.0085893869 -1.5526635647
1.7019748688 -1.0435215235 -0.083576530218
1.0684533119 -1.5460442305 -0.6754860878
1.9007644653 -0.34079122543 -0.51933062077
1.6996244192 -0.025783129036 -1.0534496307
1.9098899364 0.31354928017 -0.50337582827
1.6122462749 0.62690573931 -1.0032857656
0.33583086729 -0.52120262384 -1.9013545513
0.0074031595141 0.099999152124 -1.996568203
0.010119110346 -1.0590901375 -1.6965013742
-0.32763159275 -0.5131291151 -1.9050742388
-0.66513627768 -1.0170030594 -1.5880732536
-0.040516391397 -1.705491066 -1.0387356281
-1.076924324 -0.025938116014 -1.6818660498
0.95973312855 1.6773014069 0.50871038437
1.3813189268 1.177472949 0.8396269083
0.8422601223 1.3823698759 1.1744958162
1.175147295 0.84682458639 1.3790018559
0.50190156698 0.97721338272 1.6699382067
1.3553105593 1.2028160095 -0.84619009495
0.96243292093 1.6742118597 -0.51373010874
1.1505205631 0.8682038188 -1.3865499496
0.83814013004 1.3852702379 -1.1739425659
0.54510968924 0.96484100819 -1.6637595892
-0.65128648281 -0.98632073402 1.6127544641
-0.32124322653 -0.51248830557 1.9063423872
-1.0649937391 -0.014758188277 1.68891716
-0.0012292596512 -1.0594005585 1.6962941885
0.32561674714 -0.52400767803 1.9023851156
0.66453576088 -1.035556078 1.5758609772
-0.027292855084 0.10781627893 1.9961570501
0.13685490191 -1.671530962 1.0851352215
-1.6111296415 0.62840348482 1.0040566921
-1.7057577372 -0.0050646406598 1.0445086956
-1.6066919565 -0.63870871067 1.0045821667
-1.9051426649 0.31689342856 0.51996523142
-1.9039475918 -0.32124018669 0.52159947157
-1.9990110397 0.00087087019347 -0.04912622273
-1.7017469406 1.0507311821 -0.00073387066368
-1.7023377419 -1.0497752428 0.00053024757653
-0.017379086465 1.7028425932 1.0444563627
-0.5086363554 1.9086444378 0.31297567487
-0.99705505371 1.6203285456 0.61591780186
0.10615959764 1.9966748953 0.00080474017886
-0.51381969452 1.9056994915 -0.32217356563
-1.0443438292 1.7057459354 -0.0095803206787
-1.0106426477 1.6009296179 -0.64370137453
-0.020692965016 1.7128469944 -1.027790904
-0.84003150463 1.3683598042 1.19219172
-1.3607273102 1.1836471558 0.86468929052
-1.1508324146 0.86449569464 1.3883134127
-0.52353954315 0.96000659466 1.6748437881
0.53729593754 -1.89742136 -0.33315548301
-0.016465831548 -1.9991526604 -0.028443129733
1.0589354038 -1.6964668036 0.00062832242111
0.52251243591 -1.902354002 0.32854673266
1.0036381483 -1.5959405899 0.66614931822
-1.0087294579 -1.6100001335 -0.62392491102
-1.0482088327 -1.7033686638 -0.0058376984671
-1.0153512955 -1.6146469116 0.60035455227
-0.54817134142 -1.8966850042 -0.31991741061
-0.55524706841 -1.8977342844 0.30063557625
-0.50170266628 -1.7281821966 0.87247502804
-0.055867869407 -1.9242327213 0.54255956411
-1.3585472107 -1.1904036999 0.858515203
-0.88505214453 -1.3720138073 1.1551046371
-1.1777242422 -0.88214504719 1.3544849157
-0.3754825592 -1.4217195511 1.3556565046
-1.6208246946 -0.61436736584 -0.99723631144
-1.7031662464 -0.00063211924862 -1.0486013889
-1.6153879166 0.61707216501 -1.0043386221
-1.8933758736 -0.31299376488 -0.56346482038
-1.8924744129 0.31521326303 -0.56515699625
-0.85643297434 1.3519104719 -1.1994093657
-0.58637434244 0.98673671484 -1.6378523111
-1.1682245731 0.8512134552 -1.3820419312
-1.374636054 1.158572197 -0.8765604496
-1.2071474791 -0.86672437191 -1.338593483
-0.8974391222 -1.3674088717 -1.1511086226
-1.379786253 -1.1664676666 -0.85755449533
1.0320751667 0.016232870519 1.7129204273
0.91422569752 -0.52763342857 1.6985179186
1.3813043833 -0.31766679883 1.4110029936
1.2027950287 -0.86796593666 1.3413898945
1.5849114656 -0.64480549097 1.0343427658
0.90778726339 -1.3466567993 1.167244792
1.3779911995 -1.1497189999 0.88268041611
1.7455346584 -0.81807458401 0.52864348888
1.4267728329 -1.3494656086 0.37715372443
1.7384533882 -0.085561148822 0.98368549347
1.4166589975 0.26443275809 1.3865582943
0.80564749241 0.50809639692 1.7581486702
0.53357988596 0.060009129345 1.9262372255
0.2555565238 0.55694001913 1.9037667513
0.90839344263 -1.3507064581 -1.1619764566
0.39524686337 -1.4272278547 -1.3447979689
0.54928743839 -1.6883918047 -0.92156147957
0.26031562686 0.57073754072 -1.8989808559
-0.30128866434 0.57901847363 -1.8905208111
-0.029573023319 1.0126183033 -1.7244192362
-0.54371571541 0.08874540776 -1.9228595495
-0.82409065962 0.5111438036 -1.7494434118
0.26295733452 1.3852860928 -1.4175969362
-0.28615230322 1.3802853823 -1.4188793898
0.49399548769 1.7630419731 -0.80338865519
0.97903513908 1.7438303232 -0.0037375220563
0.55276197195 1.9042309523 -0.26096966863
0.54984098673 1.9055645466 0.2573018074
0.07168276608 1.9275408983 -0.52902930975
0.49220401049 1.7604748011 0.81030714512
0.073105596006 1.9245240688 0.53957509995
-0.26470142603 1.3753123283 1.4279048443
0.25909644365 1.3933720589 1.4104927778
-0.014042346738 0.99896246195 1.7325751781
-0.80598413944 0.49868685007 1.7615442276
-0.28340914845 0.55744236708 1.8997905254
-0.55624401569 0.072372496128 1.9200787544

CELLS 240 960
3 0 1 2
3 3 4 5
3 4 6 7
3 4 8 6
3 6 8 0
3 4 9 8
3 9 10 8
3 9 11 10
3 8 10 0
3 11 9 3
3 3 9 4
3 0 10 1
3 10 11 1
3 5 12 3
3 3 12 13
3 5 14 12
3 14 15 12
3 14 16 15
3 12 15 13
3 16 14 17
3 15 16 18
3 19 20 1
3 1 20 2
3 19 21 20
3 21 22 20
3 21 23 22
3 20 22 2
3 11 24 1
3 1 24 25
3 11 26 24
3 26 27 24
3 26 28 27
3 24 27 25
3 28 26 3
3 3 26 11
3 29 30 31
3 29 32 30
3 32 33 30
3 32 34 33
3 30 33 35
3 34 32 36
3 37 38 31
3 31 38 39
3 37 40 38
3 40 41 38
3 40 42 41
3 38 41 39
3 42 40 43
3 43 40 37
3 39 41 44
3 41 42 44
3 45 46 47
3 48 49 46
3 49 50 46
3 49 51 50
3 46 50 47
3 51 49 52
3 47 50 43
3 50 51 43
3 47 53 45
3 47 54 53
3 54 55 53
3 54 37 55
3 53 55 56
3 37 54 43
3 43 54 47
3 55 37 31
3 17 57 58
3 7 59 57
3 59 60 57
3 59 61 60
3 57 60 58
3 6 59 7
3 60 61 36
3 62 63 44
3 44 63 64
3 62 65 63
3 65 66 63
3 65 58 66
3 63 66 64
3 58 65 17
3 17 65 62
3 64 66 67
3 66 68 67
3 66 58 68
3 67 68 36
3 64 69 44
3 44 69 39
3 64 70 69
3 70 71 69
3 70 29 71
3 69 71 39
3 64 67 70
3 67 72 70
3 67 36 72
3 70 72 29
3 39 71 31
3 71 29 31
3 29 72 32
3 32 72 36
3 36 68 60
3 60 68 58
3 73 74 18
3 18 74 75
3 73 76 74
3 76 77 74
3 76 42 77
3 74 77 75
3 42 76 44
3 44 76 73
3 75 77 43
3 77 42 43
3 52 78 51
3 79 80 78
3 80 81 78
3 80 75 81
3 78 81 51
3 75 80 18
3 51 81 43
3 81 75 43
3 16 82 18
3 18 82 73
3 16 83 82
3 83 84 82
3 83 62 84
3 82 84 73
3 62 83 17
3 17 83 16
3 73 84 44
3 84 62 44
3 85 86 87
3 86 88 87
3 86 34 88
3 87 88 89
3 34 90 88
3 90 91 88
3 90 61 91
3 88 91 89
3 61 90 36
3 36 90 34
3 89 91 92
3 91 93 92
3 91 61 93
3 92 93 6
3 89 92 94
3 0 92 6
3 2 94 0
3 0 94 92
3 89 94 87
3 94 95 87
3 94 2 95
3 87 95 85
3 85 95 96
3 22 95 2
3 34 86 33
3 33 86 97
3 6 93 59
3 59 93 61
3 23 98 96
3 98 97 96
3 98 35 97
3 96 97 85
3 7 99 4
3 4 99 5
3 5 99 100
3 99 101 100
3 99 7 101
3 100 101 17
3 13 102 3
3 3 102 28
3 13 103 102
3 103 104 102
3 103 79 104
3 102 104 28
3 13 105 103
3 105 106 103
3 105 18 106
3 103 106 79
3 28 104 107
3 104 108 107
3 104 79 108
3 107 108 52
3 5 100 14
3 14 100 17
3 18 105 15
3 15 105 13
3 23 96 22
3 22 96 95
3 28 107 27
3 27 107 109
3 85 97 86
3 33 97 35
3 17 101 57
3 57 101 7
3 52 108 78
3 78 108 79
3 79 106 80
3 80 106 18
3 25 110 1
3 1 110 19
3 25 111 110
3 111 112 110
3 111 48 112
3 110 112 19
3 25 109 111
3 109 113 111
3 109 52 113
3 111 113 48
3 19 112 114
3 112 115 114
3 112 48 115
3 114 115 45
3 45 116 117
3 116 118 117
3 116 56 118
3 117 118 23
3 56 119 120
3 119 121 120
3 119 31 121
3 120 121 35
3 45 117 114
3 21 117 23
3 19 114 21
3 21 114 117
3 52 109 107
3 27 109 25
3 35 121 30
3 30 121 31
3 45 115 46
3 46 115 48
3 48 113 49
3 49 113 52
3 56 116 53
3 53 116 45
3 31 119 55
3 55 119 56
3 56 120 118
3 98 120 35
3 23 118 98
3 98 118 120

CELL_TYPES 240
5
5
5
5
5
5
5
5
5
5
5
5
5
5
5
5
5
5
5
5
5
5
5
5
5
5
5
5
5
5
5
5
5
5
5
5
5
5
5
5
5
5
5
5
5
5
5
5
5
5
5
5
5
5
5
5
5
5
5
5
5
5
5
5
5
5
5
5
5
5
5
5
5
5
5
5
5
5
5
5
5
5
5
5
5
5
5
5
5
5
5
5
5
5
5
5
5
5
5
5
5
5
5
5
5
5
5
5
5
5
5
5
5
5
5
5
5
5
5
5
5
5
5
5
5
5
5
5
5
5
5
5
5
5
5
5
5
5
5
5
5
5
5
5
5
5
5
5
5
5
5
5
5
5
5
5
5
5
5
5
5
5
5
5
5
5
5
5
5
5
5
5
5
5
5
5
5
5
5
5
5
5
5
5
5
5
5
5
5
5
5
5
5
5
5
5
5
5
5
5
5
5
5
5
5
5
5
5
5
5
5
5
5
5
5
5
5
5
5
5
5
5
5
5
5
5
5
5
5
5
5
5
5
5
5
5
5
5
5
5

CELL_DATA 240
SCALARS cell_data_0 double
LOOKUP_TABLE default
2.18701028172e-06
1.84040123525e-06
1.75115620382e-06
3.09095787828e-07
4.73696204163e-07
6.04067031283e-07
9.7738937132e-07
9.18969634989e-07
7.1722833274e-07
4.43690378333e-09
3.51245687014e-08
2.72651780756e-07
2.93741734744e-07
1.43325359921e-07
3.06554494126e-07
2.44985772166e-07
4.2393736664e-07
6.8911628586e-07
4.15093823275e-07
1.61207376734e-07
1.9410662039e-07
5.18362570057e-07
7.78967114349e-07
3.10359755843e-07
4.80698368637e-09
1.99615095988e-07
1.41315139105e-07
6.06224564171e-07
7.32791325808e-07
5.12708573037e-07
4.29746729312e-07
4.18079433079e-07
1.81735519698e-07
8.45596071089e-08
2.94558438045e-07
6.0672343232e-07
1.20589033308e-07
3.09376815732e-08
8.13117325225e-09
1.60740609749e-07
3.07401487549e-07
5.65032986915e-07
5.94676459929e-07
2.63225017927e-07
1.33537283911e-07
2.40568267772e-07
1.53429904065e-07
7.66671378339e-07
7.24970631028e-07
8.60616794402e-07
8.69069873181e-07
1.84209229434e-07
3.52144602214e-07
2.21459366029e-07
3.58141498441e-07
3.88955202308e-07
5.69945485987e-07
5.33864249656e-07
6.49986004839e-07
2.19425428114e-07
3.33517023377e-07
9.12216246078e-08
2.48622571019e-07
5.54147080256e-08
7.35806703776e-07
6.10047715418e-07
7.48536740945e-07
2.6149679183e-07
1.81553251142e-07
1.9001165608e-07
4.15091123121e-08
4.43466323464e-08
7.62641319079e-07
3.41555435203e-07
6.33709585554e-07
7.98704652581e-07
2.39110435543e-07
1.66128064927e-08
1.43829997892e-07
8.7939426655e-08
9.95747099951e-08
9.40532477956e-08
2.33220267849e-08
1.2581867791e-07
2.90105723252e-07
3.12682804536e-07
8.31038593545e-07
9.11547027099e-07
2.04425699327e-07
1.38945514284e-07
2.95726751942e-07
1.22240256183e-07
9.39814710612e-08
1.16672486365e-07
1.59426459485e-07
2.49267339228e-07
6.48285403575e-07
4.38026955445e-07
1.43934825591e-07
1.21173381002e-07
1.8160942576e-07
2.26141186214e-07
3.18892593755e-07
2.81583409627e-07
2.11042320117e-07
7.14907439606e-08
1.84703356666e-07
2.80967248606e-07
8.79543658038e-07
8.34012935963e-07
7.40670641029e-07
8.42661931201e-07
7.53175836534e-07
1.50095090362e-07
6.05501891065e-08
1.88093486784e-07
1.32637365142e-07
5.46419487533e-07
8.44736817634e-07
7.81754061578e-07
2.57496233567e-08
3.96991034813e-07
4.34847110935e-07
8.46405028524e-10
2.7999495811e-07
1.72878804703e-07
6.32428919026e-08
1.79087141963e-07
8.36335230649e-07
6.41917553083e-07
2.14999203622e-07
5.81684267784e-08
1.79707399301e-10
1.25998610306e-08
6.39099026128e-08
2.15376341475e-08
1.257972818e-07
5.18058244014e-09
1.24571674932e-08
1.02580350123e-07
1.02536740092e-07
3.28406073406e-08
2.40789010601e-08
1.83797896268e-07
2.49019701724e-08
5.32105356815e-07
2.22987137534e-07
5.67646393757e-07
7.67588726537e-08
8.84092080133e-09
9.590532582e-08
2.25991408301e-07
1.7236812267e-07
1.02656311137e-07
1.64512929688e-08
1.81382009952e-07
1.9501128485e-07
1.06136571202e-08
9.33764831002e-08
7.90117159828e-09
4.45273451593e-08
2.47119740474e-07
4.60759434854e-07
2.90136627159e-07
5.66209800752e-08
9.7613713445e-08
1.58622374759e-08
2.37044188041e-07
5.08398881481e-07
3.34911050879e-07
1.40539570285e-07
9.97028679239e-10
1.44418724297e-07
2.27029964392e-07
7.56483242221e-09
7.88513789565e-08
1.75930467144e-07
1.46863096177e-07
1.15294152517e-07
4.59300311398e-08
1.47503252199e-07
1.25069265269e-07
3.39336326925e-08
1.41144923296e-07
1.61478816631e-07
1.20658384924e-07
5.94049768317e-08
1.63987699345e-07
1.51006240561e-07
1.90794069874e-07
1.25370562257e-07
7.42867686578e-08
3.20507174643e-08
1.79468187339e-07
1.26085488275e-07
1.75845162576e-07
1.59884306923e-07
2.00435751595e-08
8.21610450818e-07
4.22906630506e-07
1.54034996866e-07
1.89872758968e-08
2.5357023534e-07
2.99807482941e-07
3.73254435366e-08
3.42039478648e-08
1.00741474617e-07
2.68574631654e-07
2.23507607286e-07
7.38125193425e-08
2.05408418819e-07
3.02739876077e-07
3.11791530214e-07
4.38757387225e-08
3.52747736836e-08
3.60676536347e-08
3.17632761437e-08
7.64249692988e-08
1.23675725159e-07
6.66564735241e-09
2.26473311573e-07
2.28327024321e-09
2.65587098987e-07
1.45402020465e-07
3.71425918579e-08
5.80964973455e-08
7.01632653886e-08
1.13019839722e-07
1.74869684245e-07
2.71070655097e-07
3.08097689755e-07
2.54916533924e-08
1.90222048403e-08
1.54339570241e-07
8.62343687713e-08
2.23026522177e-08
6.2764233168e-08
8.0987194371e-08
7.21931426201e-08
1.43905422101e-08

