# vtk DataFile Version 3.0
File Name: Molecule/sphere_cent/sphere_cent_0-s7.vtk
ASCII
DATASET UNSTRUCTURED_GRID
FIELD FieldData 1
TIME 1 1 double
0.0
POINTS 96 double
1.7011599541 1.0512605906 0.00078441109508
0.95556604862 1.6798125505 -0.50989258289
0.94928365946 1.6863328218 0.49977773428
0.10507546365 1.9961869717 -1.3548007701e-05
0.00017044277047 1.7015994787 -1.0506886244
0.0012373621576 1.7008699179 1.0517808199
-0.53018850088 0.96291393042 1.6694315672
0.49514037371 0.9515914917 1.6869670153
-0.0064744930714 0.12598992884 1.9952245951
-1.0517492294 -0.0010044272058 1.7010544538
1.024274826 0.02205196768 1.7132445574
1.9925895929 -0.005278358236 0.148517102
1.68161273 0.51968425512 0.94332367182
1.0509790182 -0.00055492139654 -1.701320529
1.5386338234 -0.73630028963 -1.0424726009
0.73013579845 -1.0465708971 -1.5388040543
1.028080225 -1.5633022785 -0.70317828655
1.7009757757 -1.0465658903 -0.034691523761
-0.00063574465457 -1.7006547451 -1.0522973537
-0.0057554282248 0.14631564915 -1.9935611486
0.50834369659 0.95981937647 -1.6776498556
-0.57229912281 0.98101776838 -1.6437846422
-1.050080061 -0.0021694214083 -1.7020593882
1.9015812874 -0.33410772681 -0.52074474096
1.7008897066 -0.017696496099 -1.0518556833
1.9072258472 0.3164203167 -0.511505723
1.6104969978 0.62958741188 -1.0042421818
0.33153665066 -0.52161240578 -1.9017843008
0.0039383731782 -1.0565588474 -1.6979852915
-0.32820218801 -0.51936417818 -1.903169632
-0.68244510889 -1.0238556862 -1.576431036
1.3797756433 1.1759549379 0.84413510561
0.84368598461 1.3801383972 1.17583251
1.1747437716 0.84303402901 1.3813000917
1.3574693203 1.1980561018 -0.84948402643
1.1529718637 0.86706000566 -1.3851357698
0.84146279097 1.3818832636 -1.1749892235
-0.65581119061 -0.99780905247 1.6039488316
-0.32250857353 -0.51893609762 1.9043961763
0.0013358497526 -1.0558915138 1.698374033
0.32981151342 -0.52285802364 1.9018678665
0.69145697355 -1.0313520432 1.5663013458
0.088728100061 -1.6808120012 1.0729659796
-1.6090481281 0.63182961941 1.0051213503
-1.7039945126 -0.0043194638565 1.0472998619
-1.6006426811 -0.64719051123 1.0086103678
-1.9046700001 0.31880024076 0.52043402195
-1.9034516811 -0.32271698117 0.52230858803
-1.9984256029 0.00098380586132 -0.064597763121
-1.7016288042 1.0509234667 0.00044009683188
-1.7020725012 -1.0502086878 0.0011947542662
-0.51741111279 1.9059396982 0.31568813324
-0.9981276989 1.6194854975 0.61629056931
-0.52210897207 1.9032242298 -0.32376307249
-1.0470072031 1.7042135 -0.0080680195242
-1.0143756866 1.5948528051 -0.65255093575
-0.84638190269 1.3704208136 1.1854411364
-1.3616456985 1.1848129034 0.86190152168
-1.156124711 0.86589860916 1.3832292557
0.53242897987 -1.8998448849 -0.32747662067
-0.02120892331 -1.9993083477 -0.017957482487
1.0535993576 -1.6997948885 -0.00017058668891
0.5261194706 -1.9014844894 0.327355057
1.020127058 -1.5803866386 0.6769143343
-1.0095397234 -1.6069903374 -0.63016825914
-1.0491694212 -1.7028155327 -0.0040481900796
-1.0097949505 -1.6161831617 0.60537880659
-0.54597049952 -1.8971097469 -0.32113817334
-0.55061948299 -1.8978905678 0.30812564492
-0.50770670176 -1.7272127867 0.87082898617
-0.047246843576 -1.9244202375 0.54288178682
-1.3559619188 -1.1937215328 0.85809874535
-0.88087385893 -1.3751612902 1.1545817852
-1.1765025854 -0.88272815943 1.355244875
-0.370660007 -1.4197022915 1.3591977358
-1.6204416752 -0.61509680748 -0.99736887217
-1.7022088766 0.00044926145347 -1.0500983
-1.6162948608 0.61726766825 -1.0027729273
-1.8919714689 -0.31699585915 -0.5662086606
-1.8911538124 0.31880858541 -0.56783306599
-0.85973197222 1.3524917364 -1.1965579987
-1.1730471849 0.8520077467 -1.3777133226
-1.3777291775 1.1561158895 -0.87521892786
-1.2114131451 -0.86458235979 -1.3360972404
-0.8974994421 -1.369687438 -1.1483881474
-1.3802677393 -1.1650561094 -0.85870504379
0.92216461897 -0.53950369358 1.6906057596
1.3845156431 -0.32038632035 1.4071575403
1.2109162807 -0.86368554831 1.3369489908
1.6018663645 -0.63114011288 1.0148761272
0.90602254868 -1.3486332893 1.1663832664
1.3814235926 -1.1469227076 0.88101857901
1.7318571806 -0.84808945656 0.52207589149
1.4220014811 -1.3576248884 0.36496219039
1.7247614861 -0.069558084011 1.0053142309
1.4232326746 0.25953280926 1.3806773424

CELLS 188 752
3 0 1 2
3 1 3 2
3 1 4 3
3 2 3 5
3 5 6 7
3 6 8 7
3 6 9 8
3 7 8 10
3 11 0 12
3 13 14 15
3 14 16 15
3 14 17 16
3 15 16 18
3 13 19 20
3 19 21 20
3 19 22 21
3 20 21 4
3 14 23 17
3 17 23 11
3 14 24 23
3 24 25 23
3 24 26 25
3 23 25 11
3 26 24 13
3 13 24 14
3 11 25 0
3 25 26 0
3 15 27 13
3 13 27 19
3 15 28 27
3 28 29 27
3 28 30 29
3 27 29 19
3 30 28 18
3 18 28 15
3 19 29 22
3 29 30 22
3 2 31 0
3 0 31 12
3 2 32 31
3 32 33 31
3 32 7 33
3 31 33 12
3 7 32 5
3 5 32 2
3 33 7 10
3 26 34 0
3 0 34 1
3 26 35 34
3 35 36 34
3 35 20 36
3 34 36 1
3 20 35 13
3 13 35 26
3 1 36 4
3 36 20 4
3 37 38 9
3 9 38 8
3 37 39 38
3 39 40 38
3 39 41 40
3 38 40 8
3 41 39 42
3 8 40 10
3 43 44 9
3 9 44 45
3 43 46 44
3 46 47 44
3 46 48 47
3 44 47 45
3 48 46 49
3 49 46 43
3 45 47 50
3 47 48 50
3 3 51 5
3 5 51 52
3 3 53 51
3 53 54 51
3 53 55 54
3 51 54 52
3 55 53 4
3 4 53 3
3 52 54 49
3 54 55 49
3 52 56 5
3 5 56 6
3 52 57 56
3 57 58 56
3 57 43 58
3 56 58 6
3 43 57 49
3 49 57 52
3 6 58 9
3 58 43 9
3 16 59 18
3 18 59 60
3 16 61 59
3 61 62 59
3 61 63 62
3 59 62 60
3 17 61 16
3 62 63 42
3 64 65 50
3 50 65 66
3 64 67 65
3 67 68 65
3 67 60 68
3 65 68 66
3 60 67 18
3 18 67 64
3 66 68 69
3 68 70 69
3 68 60 70
3 69 70 42
3 66 71 50
3 50 71 45
3 66 72 71
3 72 73 71
3 72 37 73
3 71 73 45
3 66 69 72
3 69 74 72
3 69 42 74
3 72 74 37
3 45 73 9
3 73 37 9
3 37 74 39
3 39 74 42
3 42 70 62
3 62 70 60
3 75 76 22
3 22 76 77
3 75 78 76
3 78 79 76
3 78 48 79
3 76 79 77
3 48 78 50
3 50 78 75
3 77 79 49
3 79 48 49
3 21 80 4
3 4 80 55
3 21 81 80
3 81 82 80
3 81 77 82
3 80 82 55
3 77 81 22
3 22 81 21
3 55 82 49
3 82 77 49
3 30 83 22
3 22 83 75
3 30 84 83
3 84 85 83
3 84 64 85
3 83 85 75
3 64 84 18
3 18 84 30
3 75 85 50
3 85 64 50
3 10 86 87
3 86 88 87
3 86 41 88
3 87 88 89
3 41 90 88
3 90 91 88
3 90 63 91
3 88 91 89
3 63 90 42
3 42 90 41
3 89 91 92
3 91 93 92
3 91 63 93
3 92 93 17
3 89 92 94
3 11 92 17
3 12 94 11
3 11 94 92
3 89 94 87
3 94 95 87
3 94 12 95
3 87 95 10
3 10 95 33
3 33 95 12
3 41 86 40
3 40 86 10
3 17 93 61
3 61 93 63

CELL_TYPES 188
5
5
5
5
5
5
5
5
5
5
5
5
5
5
5
5
5
5
5
5
5
5
5
5
5
5
5
5
5
5
5
5
5
5
5
5
5
5
5
5
5
5
5
5
5
5
5
5
5
5
5
5
5
5
5
5
5
5
5
5
5
5
5
5
5
5
5
5
5
5
5
5
5
5
5
5
5
5
5
5
5
5
5
5
5
5
5
5
5
5
5
5
5
5
5
5
5
5
5
5
5
5
5
5
5
5
5
5
5
5
5
5
5
5
5
5
5
5
5
5
5
5
5
5
5
5
5
5
5
5
5
5
5
5
5
5
5
5
5
5
5
5
5
5
5
5
5
5
5
5
5
5
5
5
5
5
5
5
5
5
5
5
5
5
5
5
5
5
5
5
5
5
5
5
5
5
5
5
5
5
5
5
5
5
5
5
5
5

CELL_DATA 188
SCALARS cell_data_0 double
LOOKUP_TABLE default
6.004688764e-07
2.73831806828e-07
4.64246762144e-07
3.79932224403e-07
1.28044617184e-06
1.21164323828e-06
1.14370796883e-06
1.7228497872e-06
1.25651419053e-06
1.49864036294e-06
1.17631693734e-06
1.23594431761e-06
1.81255799693e-06
8.975272833e-07
1.28440647373e-06
1.92333816893e-06
1.64505416293e-06
3.6978548671e-07
5.01720262601e-07
7.18387703759e-07
4.20615398429e-07
5.25265074186e-07
7.24364117184e-07
2.41360012053e-07
8.63945090688e-08
8.53025181705e-08
9.24207906431e-09
3.01163785041e-07
5.51770024729e-09
1.19882418898e-07
1.331875672e-07
3.27526168641e-08
3.19570109562e-07
5.25763215285e-07
5.11935803411e-07
2.20052882796e-07
5.20315771341e-07
2.59262383397e-07
2.66339715138e-07
9.72824012244e-07
9.77869942031e-07
8.79554186987e-07
4.57615585102e-07
1.33669412611e-07
6.93748217097e-07
1.74841239557e-07
5.42003769641e-08
7.40759989963e-08
5.08994331725e-07
1.00103729625e-07
4.87873893013e-07
2.61401042899e-07
2.68552435622e-07
2.38779781031e-07
6.7362824934e-08
1.88269358732e-08
3.50369644952e-07
3.69618325263e-07
1.46402057246e-07
1.01202981559e-07
2.29759086798e-07
4.28712735368e-08
9.67326249433e-08
5.56476479494e-07
2.3333015941e-07
3.64695928121e-07
4.32345858944e-07
5.64144634235e-08
1.30017389673e-08
7.9962273877e-08
4.4890203037e-07
2.09590527758e-07
4.98707400843e-07
5.79372111062e-07
3.33663172762e-07
1.51933632703e-07
5.62590953456e-07
1.23659794667e-07
4.37102971071e-07
5.3048156546e-07
9.1101330417e-09
1.790058979e-07
1.96386201214e-07
1.93281106409e-07
1.76974054108e-07
2.49456441115e-07
6.59393271429e-07
2.52685639124e-07
6.29063084779e-07
5.2481437909e-07
4.86568255412e-07
3.58350718057e-07
2.1239011516e-07
2.43735094604e-07
1.51054462604e-07
2.3876158936e-07
2.6254150741e-07
3.77061011803e-08
7.54100873618e-08
1.05803107137e-07
4.05204615796e-07
4.70950175431e-07
4.10812490571e-07
5.12519568676e-07
9.59276190009e-08
1.15510028735e-07
1.08828822129e-08
1.47083157078e-08
4.82388248401e-07
4.73382691351e-07
1.65983668401e-08
1.72754046967e-08
9.39339149862e-08
2.99998395515e-07
5.66868738295e-07
5.86863023777e-07
1.26431249982e-07
6.51280664587e-08
1.71552787445e-07
7.84468826188e-08
9.64238259865e-08
2.47266242522e-07
4.3262077095e-07
2.79913130232e-07
3.6803183523e-07
3.48433216035e-07
2.99161173913e-07
5.41972777249e-07
1.71573414115e-07
5.3845525134e-08
4.48228458763e-07
4.90559689564e-07
1.46843967767e-07
5.12775692757e-08
8.33884644756e-08
9.24450204773e-08
5.09898885537e-07
4.41000148064e-07
4.03401514912e-07
4.15701703952e-07
5.15116046776e-07
6.90491721178e-08
3.32146355503e-08
5.37646799263e-08
1.13870656637e-07
3.53968903392e-07
4.7793979173e-07
4.74423924408e-07
1.13287047382e-07
3.66456069277e-07
4.73201980969e-07
4.45392602472e-07
1.34704917243e-07
7.08402190195e-08
1.5768606422e-07
9.99807382738e-08
3.51606308676e-07
4.75893904525e-07
5.54750912566e-07
4.53905285751e-07
2.77504026245e-07
5.49247792777e-08
1.00303756383e-07
3.46195140521e-09
1.90929395623e-07
3.35546537314e-08
5.96594374997e-08
3.33220554082e-08
1.35070662273e-07
7.01110264383e-08
9.72956184546e-08
3.77566720672e-08
7.04731766297e-08
3.48220263958e-07
1.79303931577e-08
1.86885784165e-07
2.9570527274e-08
3.12743263395e-07
1.1427710586e-07
1.72816650324e-08
4.50569821606e-08
2.25226101179e-07
4.54441009315e-07
1.76511220425e-07
5.69231383427e-08
1.0442225822e-07
2.40041876228e-08
7.03346738337e-08

