# vtk DataFile Version 3.0
File Name: Molecule/sphere_cent/sphere_cent_0-s5.vtk
ASCII
DATASET UNSTRUCTURED_GRID
FIELD FieldData 1
TIME 1 1 double
0.0
POINTS 78 double
1.7014112473 1.0510475636 9.2437468993e-05
0.96956175566 1.6599714756 -0.54286432266
0.96170145273 1.6696689129 0.5274284482
0.060616381466 1.996224761 0.00080711010378
0.0010780917946 1.7015200853 -1.051019311
0.0010789919179 1.7010228634 1.0517511368
-0.56763279438 0.9784913063 1.6466423273
0.52364575863 0.96241080761 1.6703950167
-0.0040308516473 0.087138652802 1.9958076477
-1.0520164967 -0.00076643307693 1.7009111643
1.0506275892 0.001437705243 1.7016898394
0.69080305099 -1.0244592428 1.5703618526
1.6166484356 -0.62050563097 1.0005540848
1.0204428434 -1.5829825401 0.66608095169
0.031585980207 -1.6919481754 1.058470726
1.7017735243 -1.0505644083 -0.0016673125792
1.9955316782 -0.00099215307273 0.11205500364
1.6678034067 0.52557635307 0.96703499556
-1.0493682623 -0.001817596145 -1.7024759054
-1.6196252108 -0.61677592993 -0.99791365862
-1.617569685 0.61732029915 -1.0010834932
-1.9974787235 0.0010908102849 -0.088097311556
-1.70178473 -1.0505129099 0.0019067965914
-1.7013931274 1.0512211323 0.0017796837492
-0.62160766125 1.001331687 -1.6157901287
-1.0187790394 1.5850561857 -0.66549360752
-0.70840573311 -1.0329469442 -1.5564180613
-1.0106389523 -1.5998991728 -0.63990819454
0.00029850783176 -1.7005951405 -1.0524692535
1.0516502857 -0.00032425383688 -1.7010387182
1.5574576855 -0.7078037262 -1.0324585438
0.70500808954 -1.0344518423 -1.5569690466
1.015978694 -1.5851104259 -0.66622751951
-0.0018022524891 0.11142893136 -1.9950306416
0.54438066483 0.97167032957 -1.6590467691
1.901910305 -0.32771274447 -0.52396756411
1.7018420696 -0.0088896751404 -1.0505006313
1.9047853947 0.31951805949 -0.51928466558
1.6079540253 0.63359832764 -1.0057700872
0.32703891397 -0.52456790209 -1.9018450975
-0.00012839444389 -1.0536071062 -1.6996977329
-0.32758688927 -0.52438426018 -1.9019478559
1.3775048256 1.1753424406 0.84865236282
0.84835743904 1.3773641586 1.1756739616
1.175078392 0.84838956594 1.3779569864
1.3601902723 1.1923282146 -0.85335570574
1.1588414907 0.86627686024 -1.380829215
0.84737211466 1.3783416748 -1.1753202677
-0.66341972351 -1.0112844706 1.5921784639
-0.32404738665 -0.52491760254 1.9025017023
0.00068852346158 -1.0518964529 1.7008503675
0.32518920302 -0.52566254139 1.9020339251
-1.6058390141 0.63694000244 1.0070451498
-1.7026792765 -0.0031157936901 1.0493423939
-1.5918005705 -0.66008800268 1.0143258572
-1.9036231041 0.32126289606 0.52284049988
-1.9026728868 -0.32393655181 0.52432185411
-0.52396416664 1.9035675526 0.31977367401
-0.9989335537 1.6186709404 0.61704200506
-0.52678614855 1.9019135237 -0.32425555587
-1.0491946936 1.7028954029 -0.0044923922978
-0.85038220882 1.3733597994 1.1793470383
-1.362467289 1.1860907078 0.85867458582
-1.1611328125 0.865485847 1.3795104027
0.52778059244 -1.9018573761 -0.32358390093
-0.028197836131 -1.9992694855 -0.0064607947133
1.0502557755 -1.7020354271 0.00055915594567
0.52709102631 -1.9017522335 0.32448431849
-1.0505474806 -1.7020376921 -0.0013343133032
-1.0038259029 -1.6176943779 0.61182206869
-0.54405874014 -1.8974767923 -0.32243713737
-0.5449616313 -1.8978919983 0.3179256022
-0.51529663801 -1.7261061668 0.86874586344
-0.03008024767 -1.9238376617 0.54490768909
-1.353947401 -1.196865201 0.85701316595
-0.87628889084 -1.379080534 1.1534153223
-1.1758190393 -0.88187485933 1.356518507
-0.3581829071 -1.4162997007 1.3657076359

CELLS 152 608
3 0 1 2
3 1 3 2
3 1 4 3
3 2 3 5
3 5 6 7
3 6 8 7
3 6 9 8
3 7 8 10
3 10 11 12
3 11 13 12
3 11 14 13
3 12 13 15
3 15 16 12
3 16 17 12
3 16 0 17
3 12 17 10
3 18 19 20
3 19 21 20
3 19 22 21
3 20 21 23
3 4 24 25
3 24 20 25
3 24 18 20
3 25 20 23
3 18 26 19
3 26 27 19
3 26 28 27
3 19 27 22
3 29 30 31
3 30 32 31
3 30 15 32
3 31 32 28
3 29 33 34
3 33 24 34
3 33 18 24
3 34 24 4
3 30 35 15
3 15 35 16
3 30 36 35
3 36 37 35
3 36 38 37
3 35 37 16
3 38 36 29
3 29 36 30
3 16 37 0
3 37 38 0
3 31 39 29
3 29 39 33
3 31 40 39
3 40 41 39
3 40 26 41
3 39 41 33
3 26 40 28
3 28 40 31
3 33 41 18
3 41 26 18
3 2 42 0
3 0 42 17
3 2 43 42
3 43 44 42
3 43 7 44
3 42 44 17
3 7 43 5
3 5 43 2
3 17 44 10
3 44 7 10
3 38 45 0
3 0 45 1
3 38 46 45
3 46 47 45
3 46 34 47
3 45 47 1
3 34 46 29
3 29 46 38
3 1 47 4
3 47 34 4
3 48 49 9
3 9 49 8
3 48 50 49
3 50 51 49
3 50 11 51
3 49 51 8
3 11 50 14
3 8 51 10
3 51 11 10
3 52 53 9
3 9 53 54
3 52 55 53
3 55 56 53
3 55 21 56
3 53 56 54
3 21 55 23
3 23 55 52
3 54 56 22
3 56 21 22
3 3 57 5
3 5 57 58
3 3 59 57
3 59 60 57
3 59 25 60
3 57 60 58
3 25 59 4
3 4 59 3
3 58 60 23
3 60 25 23
3 58 61 5
3 5 61 6
3 58 62 61
3 62 63 61
3 62 52 63
3 61 63 6
3 52 62 23
3 23 62 58
3 6 63 9
3 63 52 9
3 32 64 28
3 28 64 65
3 32 66 64
3 66 67 64
3 66 13 67
3 64 67 65
3 13 66 15
3 15 66 32
3 67 13 14
3 27 68 22
3 22 68 69
3 27 70 68
3 70 71 68
3 70 65 71
3 68 71 69
3 65 70 28
3 28 70 27
3 69 71 72
3 71 73 72
3 71 65 73
3 72 73 14
3 69 74 22
3 22 74 54
3 69 75 74
3 75 76 74
3 75 48 76
3 74 76 54
3 69 72 75
3 72 77 75
3 72 14 77
3 75 77 48
3 54 76 9
3 76 48 9
3 48 77 50
3 50 77 14
3 14 73 67
3 67 73 65

CELL_TYPES 152
5
5
5
5
5
5
5
5
5
5
5
5
5
5
5
5
5
5
5
5
5
5
5
5
5
5
5
5
5
5
5
5
5
5
5
5
5
5
5
5
5
5
5
5
5
5
5
5
5
5
5
5
5
5
5
5
5
5
5
5
5
5
5
5
5
5
5
5
5
5
5
5
5
5
5
5
5
5
5
5
5
5
5
5
5
5
5
5
5
5
5
5
5
5
5
5
5
5
5
5
5
5
5
5
5
5
5
5
5
5
5
5
5
5
5
5
5
5
5
5
5
5
5
5
5
5
5
5
5
5
5
5
5
5
5
5
5
5
5
5
5
5
5
5
5
5
5
5
5
5
5
5

CELL_DATA 152
SCALARS cell_data_0 double
LOOKUP_TABLE default
4.22863243657e-07
3.84693571294e-07
6.27804101694e-07
5.87826756194e-07
4.8195653018e-07
7.31474172674e-08
1.80928091198e-07
3.81105469877e-08
3.24226200733e-07
7.15670359776e-07
3.33240868884e-07
3.54185884586e-07
1.63448327766e-07
2.45738224265e-07
2.04042167722e-07
3.1378201701e-07
5.28068303449e-07
2.43167119542e-06
1.43892189561e-06
1.38349116443e-06
1.113133995e-06
2.18374969877e-06
1.48087399325e-06
5.1859124616e-08
3.86094758042e-07
2.05370322335e-06
1.47640321785e-06
1.66908327559e-06
2.30998517895e-08
7.69197988174e-07
1.10579546862e-06
1.38095467815e-06
4.37702214733e-07
1.65214642006e-06
1.36313624228e-06
1.49625156608e-06
3.55567581989e-07
2.14555181849e-07
4.04166174287e-07
1.17915247566e-07
2.782081828e-07
3.32484786703e-07
2.79376096314e-08
2.95441296607e-07
1.66838127802e-07
2.70063525972e-08
1.32150438907e-07
1.02885824859e-07
3.16886947669e-07
1.1968686697e-07
2.56985067421e-07
2.57915275655e-07
1.45870375291e-07
1.88042546902e-07
8.8314604711e-08
7.8056608926e-08
3.39720475478e-07
3.73469296276e-07
4.81512458679e-07
8.56616462335e-08
3.47666156864e-07
5.04233300245e-07
1.75854572239e-07
1.58872435789e-07
1.78752077115e-07
1.53825799173e-07
6.15064604789e-08
8.41871722493e-08
4.74637380821e-07
1.0591692505e-07
5.82122222704e-07
3.46318161626e-07
4.49215601378e-07
3.02237816583e-07
2.2522470996e-07
1.87340313734e-07
4.31166226279e-07
7.26941146128e-07
4.81350367438e-07
7.83023716062e-08
3.44306410809e-07
6.75641609385e-07
7.22239271197e-08
3.47304728507e-07
1.73497584134e-07
1.1595175429e-07
5.29581714739e-07
5.71829304032e-07
4.20556669751e-08
1.06854193585e-07
7.69265647776e-08
8.89996956844e-08
4.84026457713e-07
6.03880841149e-07
5.36338782559e-07
9.81198637561e-08
2.92860202962e-07
2.83009583287e-07
8.52038140905e-08
5.10929980816e-07
5.16834275187e-07
3.6234106008e-07
8.19692197657e-08
4.04944802286e-07
5.09037376081e-07
2.69936740787e-07
1.17325935133e-07
4.93898718806e-07
5.25520178692e-08
5.53785390621e-07
4.84834601796e-07
1.96122032724e-07
3.78379731466e-07
4.14464470122e-07
3.553615348e-07
4.80710589338e-07
5.36767432444e-07
6.65090854523e-08
1.43874798451e-07
3.68131766389e-07
1.23982985701e-07
2.44941862083e-07
3.9240341741e-07
7.54732250376e-08
1.49305729989e-07
5.45008122747e-08
1.74100325874e-07
2.85077295662e-08
3.9590447488e-08
2.82676331768e-07
4.41171934117e-07
3.46906770759e-07
1.04889109221e-07
1.05927787036e-07
5.81127825621e-08
2.05650399398e-07
1.03003026005e-07
4.18429186915e-07
1.83215622737e-07
2.5893712433e-08
3.26569022738e-07
1.28289914915e-07
7.97121066423e-08
1.17277380676e-07
2.1486450606e-07
2.2020990328e-07
4.14703144695e-07
1.75486770026e-07
2.38935730957e-07
6.71778273365e-08
6.06038343142e-08
7.54456318599e-08

