# vtk DataFile Version 3.0
File Name: Molecule/sphere_cent/sphere_cent_0-s20.vtk
ASCII
DATASET UNSTRUCTURED_GRID
FIELD FieldData 1
TIME 1 1 double
0.0
POINTS 367 double
0.68352901936 -1.0211424828 -1.5779650211
0.18119965494 -1.0807840824 -1.6730146408
0.35274475813 -0.63988596201 -1.8617764711
1.5541008711 0.72955334187 -1.0257095098
1.2239470482 0.90912997723 -1.2939659357
1.3911010027 1.147094965 -0.86381500959
-1.9382379055 0.2104717195 0.44501504302
-1.910359025 -0.2284527868 0.54461419582
-1.7376435995 0.016573032364 0.98942106962
-1.9993760586 -0.0011506248266 -0.010399840772
-1.6846410036 -0.51511365175 0.94589740038
-0.44971042871 1.9347429276 -0.22777691483
-0.96115076542 1.7495865822 -0.11926900595
-0.54115259647 1.9102530479 0.22751484811
-1.272783041 1.1673654318 1.0078991652
-1.0596549511 0.90589094162 1.4336743355
-0.83046984673 1.2988538742 1.2733441591
-0.58947974443 1.0016064644 1.6262396574
-0.50189936161 -1.9205777645 -0.2417679131
-0.582490623 -1.8879282475 0.31043082476
-0.94619470835 -1.7574529648 -0.12300046533
-0.12776593864 -1.9952923059 -0.01070344355
-0.96945244074 -1.6069537401 0.69129747152
-0.55969583988 -1.7178337574 0.85651278496
-0.86085319519 -1.3753160238 1.1692203283
-1.270493269 -1.2744106054 0.87231868505
-1.184376359 -0.9733248353 1.2808578014
-0.37533786893 -1.3780601025 1.3993343115
-0.62087446451 -1.0806292295 1.5630933046
-0.13859339058 -1.0807406902 1.6765333414
-1.9144256115 -0.17335382104 -0.54406321049
-1.9022948742 0.22892352939 -0.57293814421
-1.7489824295 0.022684723139 -0.96875751019
-1.6884309053 0.50288504362 -0.9460529685
-0.61669552326 0.97735500336 -1.6298351288
-1.0399874449 0.87278175354 -1.4685320854
-0.84861505032 1.2897468805 -1.2711455822
-0.73728382587 -1.0380961895 -1.5423238277
-0.89353501797 -1.311098814 -1.217538476
-1.1713881493 -0.93979352713 -1.3202354908
-1.267419219 -1.2513383627 -0.90963464975
0.74909502268 -1.0210049152 1.5446583033
0.93098890781 -1.3303924799 1.1672728062
1.179535985 -0.9207547307 1.3253314495
1.351757288 -1.1816462278 0.87845879793
1.0811926126 -1.5354664326 0.6831638813
1.4170917273 -1.3530477285 0.39252710342
1.3846402168 -0.25523424149 1.4165853262
1.3580862284 0.23301255703 1.4489992857
1.0437840223 -0.0015984392958 1.7060465813
0.53140968084 0.93907159567 1.6828970909
0.28166168928 0.53891736269 1.9052807093
0.80530297756 0.49178725481 1.7622796297
0.59642034769 0.050160780549 1.9051311016
0.90692919493 -1.348140955 -1.1661467552
0.42457726598 -1.3796981573 -1.3833552599
1.0337001085 -1.5749652386 -0.66881012917
0.6204059124 -1.6855595112 -0.87486630678
-0.10605053604 0.048135053366 -1.9964262247
-0.49331974983 0.06449573487 -1.9364622831
-0.28656664491 0.52340149879 -1.9062863588
-0.24367411435 -0.36717423797 -1.9506733418
0.85190331936 -0.46215653419 1.7468746901
0.63340711594 -1.854847312 -0.393879354
0.94504076242 -1.7117322683 -0.41501820087
-0.79436504841 0.58421063423 -1.739703536
0.50375384092 1.9210731983 -0.22433483601
0.580966115 1.8955014944 0.25791549683
0.91733187437 1.7769618034 0.021580208093
0.92856705189 1.70096457 0.49318772554
-0.26817321777 0.51193356514 1.9111851454
-0.47060471773 0.059081837535 1.942240715
-0.025425236672 0.054135512561 1.9978410006
-0.30178579688 -0.3733740449 1.9408835173
-0.31180199981 1.3733251095 1.4191945791
-0.78689134121 0.58609521389 1.7421463728
0.040256150067 0.97500228882 1.7435534
1.9972307682 -0.01471073553 0.10163842142
1.9267933369 0.5249106884 0.10870544612
1.9115642309 0.31197708845 0.49551606178
1.7648574114 0.79187750816 0.50808745623
1.7284252644 1.0029939413 0.0063452795148
1.3684455156 -0.42833775282 -1.3923019171
1.5825972557 -0.67524862289 -1.019485116
1.1720092297 -0.90808236599 -1.3422752619
0.88396465778 -0.6086268425 -1.6859881878
1.657176733 -0.96175849438 -0.57339113951
1.3387120962 -1.1869925261 -0.89369660616
1.440754056 -1.3301628828 -0.39333546162
1.6980223656 -1.0523388386 -0.078428164124
1.8608527184 -0.52696734667 -0.5076354146
1.6361137629 -0.14203168452 -1.1411305666
1.8152445555 -0.25393643975 -0.79989165068
1.8373943567 0.13610267639 -0.77784007788
1.9520511627 -0.10610572249 -0.42064967752
1.942606926 0.32430106401 -0.34661355615
1.9507033825 -0.43281555176 -0.081539854407
1.6253452301 0.65328460932 0.96390044689
1.4540143013 1.0727370977 0.85608959198
-0.1139543578 -0.79346549511 -1.8322544098
-0.29558414221 -1.0945959091 -1.6475285292
-0.52080768347 -0.72545856237 -1.789517045
-0.46382948756 -1.3585422039 -1.3904485703
-0.0010667387396 -1.3741414547 -1.4511841536
-0.69604432583 -0.31708535552 -1.8480387926
-0.90572488308 -0.62257456779 -1.6709991693
-1.1584342718 -0.084805265069 -1.6276737452
1.2361366749 1.4149179459 0.68538719416
1.2602000237 1.5258970261 0.28774112463
1.5396521091 1.2001097202 0.43455973268
-0.10832139105 -1.732370615 -0.9907951951
0.28192079067 -1.871212244 -0.64751940966
-0.068232551217 -1.9447026253 -0.46237573028
0.25866886973 -1.9695111513 -0.23145727813
-1.3551591635 -1.468280673 -0.089544713497
-1.1385858059 -1.5561343431 -0.53109109402
-1.5063455105 -1.227003336 -0.47499281168
-1.6835416555 -1.0794858932 0.0075471247546
-1.3585757017 -1.4207231998 0.36823040247
-1.0650880337 -1.6723269224 0.26128652692
-1.7793123722 -0.51521062851 -0.75391197205
-1.8979189396 -0.59563612938 -0.18251387775
-1.7399041653 -0.85873126984 -0.48423498869
-1.92205441 -0.39494338632 -0.38080739975
-1.5500432253 -0.89855736494 -0.88878810406
-1.5882110596 -0.55751639605 -1.0795768499
1.7903686762 0.541893363 -0.7077588439
1.8488615751 0.70316928625 -0.29527533054
1.6644957066 0.93275874853 -0.59330976009
-0.99030607939 1.6333453655 -0.59246790409
-1.3355197906 1.4444572926 -0.35984286666
-1.5555201769 -1.1392520666 0.53172791004
-1.7328568697 -0.84445357323 0.53252220154
-1.5185894966 -0.93110400438 0.90926146507
-1.469112277 0.30955854058 -1.3211721182
-1.246332407 1.0716902018 -1.1393814087
-1.2163659334 1.3788108826 -0.78646421432
-1.3898650408 0.7006739378 -1.2559159994
-1.5335339308 0.85532712936 -0.9570735693
-1.4479618073 1.1132237911 -0.81456518173
-1.1806150675 0.46649819613 -1.5456409454
-1.5889995098 1.1309242249 -0.44210222363
-1.6649878025 1.1060506105 0.054882593453
-1.6979818344 0.85311043262 -0.62322664261
-1.8223965168 0.79871815443 -0.20129987597
1.4115875959 1.3579399586 -0.39778551459
1.2374712229 1.5664861202 -0.12180669606
1.4820843935 1.3419722319 0.049020182341
1.0227129459 1.6427916288 -0.50186449289
1.644436717 0.29721143842 -1.0987567902
1.3838264942 0.42006894946 -1.3814462423
1.4078569412 0.019005225971 -1.4205360413
0.99552845955 0.091567896307 -1.7312235832
-1.6119083166 0.50189065933 1.0717144012
-1.7929486036 0.50595116615 0.72733336687
-1.9508055449 0.42042535543 -0.12363193929
-1.8758199215 0.65105265379 0.23877629638
-1.7295178175 0.85749810934 0.52227669954
-1.5699267387 0.8676841259 0.88472700119
-1.0542240143 1.6680796146 0.32443404198
-0.90002387762 1.6537452936 0.67430853844
-1.2058274746 1.4434722662 0.68011695147
-1.3365534544 1.4870706797 0.028906440362
-1.3851095438 1.4001528025 0.34771969914
-0.88853758574 1.5159702301 0.95414835215
-1.383664608 0.71965378523 1.2518565655
-1.5269982815 1.1608754396 0.56525093317
0.65533947945 -0.27507972717 -1.8696275949
0.5169917345 0.042441371828 -1.9314312935
0.22248916328 -0.20204362273 -1.9773577452
0.19494611025 0.2638092041 -1.9729706049
0.8763563633 0.91129648685 -1.5495460033
0.83776116371 1.3194680214 -1.2456567287
0.51445370913 1.1084233522 -1.5825215578
0.49273392558 0.77101379633 -1.778269887
1.0951273441 0.55769222975 -1.577829957
0.8130761385 0.56403040886 -1.7380273342
-0.5181093812 -0.72193092108 1.7916500568
-0.6956307888 -0.30370026827 1.8503816128
-0.90233331919 -0.56542366743 1.6922544241
-1.1321004629 -0.067128755152 1.6471050978
-1.8482278585 0.57653039694 -0.50144845247
0.57160532475 0.37722218037 -1.8791309595
0.17826418579 0.62250357866 -1.8921663761
0.030128324404 1.0025321245 -1.7279183865
-1.9762403965 -0.083508566022 -0.28832137585
-1.4513601065 0.21910300851 1.3583694696
-1.4664493799 -0.25399082899 1.335481286
-1.1773549318 0.45881229639 1.5503689051
-0.77486556768 -1.7699855566 -0.51623421907
-0.38169273734 -1.857306242 -0.6366443038
-0.59274089336 -1.7188677788 -0.83294892311
-0.92291140556 -1.5382056236 -0.88423806429
-1.4222145081 -0.67499321699 1.233637929
-1.222984314 -0.48105502129 1.5073934793
-1.0576599836 -0.76570099592 1.5141422749
-0.57481640577 -1.5614210367 -1.1102141142
1.9148026705 -0.12117276341 0.56437557936
1.9169019461 -0.44873800874 0.35177201033
1.8033634424 -0.45257261395 0.73680979013
1.7349293232 -0.12261905521 0.98607945442
1.7380007505 -0.81995207071 0.54956877232
1.8378002644 -0.75415748358 -0.23150840402
1.8593109846 -0.72556442022 0.1282492429
0.25633952022 -1.1067682505 1.644849062
0.090581700206 -1.3764669895 1.4480311871
0.48662695289 -1.3874560595 1.3556681871
0.21659912169 -1.6546459198 1.1020576954
-0.69259250164 1.811270833 -0.48925533891
-0.58357596397 1.725050211 -0.82680976391
-0.3316026628 1.8636618853 -0.64531165361
-0.11991617829 1.7214406729 -1.009863615
0.48730266094 -1.9206041098 0.26885432005
0.710503757 -1.7956297398 0.51357549429
0.37818437815 -1.8338251114 0.70277917385
0.64495676756 -1.6434583664 0.93982803822
-0.52053916454 1.5571011305 -1.1414045095
-0.86261510849 1.5433044434 -0.93483483791
-0.4522716403 1.2021446228 -1.530321002
0.10712502897 -0.80565047264 1.8272850513
-0.16764114797 -0.73035746813 1.8541027308
0.026737518609 -0.50595164299 1.9345566034
0.38592997193 -0.50745922327 1.8952190876
0.18767049909 -0.23034776747 1.977175951
-1.9458935261 -0.4254925251 0.17861515284
-1.8572348356 -0.5580201149 0.48888847232
-1.8556694984 -0.72266966105 0.18412169814
-0.19411918521 1.726047039 0.99093431234
-0.34775131941 1.8583385944 0.65206420422
-0.56966710091 1.720885396 0.84484946728
-0.67935997248 1.8017905951 0.54049646854
-0.53415846825 1.5611641407 1.1301025152
-1.6355452538 -0.27691239119 -1.1174008846
-1.4219880104 -0.34578216076 -1.3635959625
[...]
CELL_DATA 730
SCALARS cell_data_0 double
LOOKUP_TABLE default
3.01777602979e-08
4.3679221284e-08
6.11443176098e-08
7.08929454036e-08
5.71105295685e-08
1.11178158304e-08
7.17477293791e-08
3.51191995485e-08
6.57216674363e-08
2.27725105953e-08
7.96275834979e-08
7.75293592257e-09
4.04041056724e-08
2.54024692495e-08
1.78660525813e-08
2.97322352771e-08
1.72907312472e-08
5.18508756239e-09
9.53610587992e-09
2.35756510683e-08
5.92519666299e-09
3.47026488567e-08
6.58642074747e-08
4.89228273462e-08
5.62138593646e-08
3.31438054475e-08
7.52946903769e-08
1.16309742082e-07
4.34751830256e-08
7.08820782637e-08
8.43510691654e-08
3.03790893599e-08
4.66736838523e-09
2.94177447589e-08
6.45183998043e-08
8.8390382307e-08
3.47449146769e-08
1.00616216326e-08
6.33896716321e-09
8.99870527866e-09
2.81876496007e-08
8.1734442766e-08
6.58983495985e-08
1.20558188336e-07
6.46683746023e-08
2.997823388e-08
2.92072150348e-08
3.71760832509e-08
9.26129553771e-08
6.52987289697e-08
4.78523354721e-08
1.38170043946e-08
1.57174279293e-08
8.50886175749e-08
3.71045138822e-08
3.6475690153e-09
2.21685136746e-08
2.33065488014e-08
6.04185620252e-09
1.35645118344e-08
2.67408745629e-08
3.96225286387e-09
7.83125125816e-09
3.27019315589e-08
2.89655945657e-08
5.27521707595e-08
3.82485468963e-08
1.21426450473e-07
8.82882502891e-08
1.12159392866e-07
1.04600161143e-07
3.21007862123e-08
4.17884243131e-08
2.40774119348e-08
3.51003900419e-08
4.86089256163e-09
4.45807561796e-08
1.13262903941e-08
2.49855870096e-08
6.36594902075e-09
2.12396059924e-08
2.31837071435e-08
9.69374077435e-08
4.68502684998e-08
2.37488913524e-08
5.5284215624e-09
7.14618204989e-08
2.211395855e-08
1.10383867634e-09
1.63436929478e-08
5.13458158576e-08
3.25222237022e-08
5.55727736207e-08
1.48564773916e-09
2.17721971673e-08
1.22271503361e-08
7.89414012748e-08
4.35737870653e-08
4.25514433985e-08
2.78057336261e-08
5.04313672608e-08
2.50944080694e-08
1.35874485631e-08
3.44784844169e-08
2.7953983155e-08
4.54749881611e-08
1.12539918489e-08
2.33782406505e-08
1.75670085815e-08
2.65394599192e-08
2.2028574128e-08
3.60780702677e-08
2.44093671394e-08
1.3064383332e-08
2.0271692541e-08
2.97320990726e-08
2.10123399747e-08
2.87172614963e-08
2.81985128854e-08
4.66192965945e-08
9.11528191737e-10
1.28545172996e-08
3.8620138613e-09
4.07018778393e-08
2.17935179485e-08
2.8409092682e-08
1.7369651841e-08
2.1260068652e-08
1.27300751645e-08
5.02668247202e-08
2.00573239791e-08
8.08706582982e-08
1.0989354317e-08
1.68958506396e-08
1.44714993243e-08
4.30886396681e-08
4.41246172292e-08
1.74731200384e-08
1.97345448293e-08
7.62594511107e-09
8.45217349582e-08
7.34690253775e-09
6.10466853511e-08
3.47930128655e-09
8.02899244891e-08
4.95539592128e-08
4.15047374634e-08
6.797093346e-09
1.02812410677e-08
2.54812997994e-08
1.83060316245e-08
8.19488186659e-09
6.18967954451e-08
3.72993836518e-08
3.27992602363e-08
4.02014079351e-08
4.27740669549e-09
3.8046611081e-09
3.43086219665e-08
2.57112698632e-08
2.54401050707e-08
4.87199149951e-08
7.26090290564e-09
2.63744524966e-08
1.65304254287e-08
1.78059266994e-08
8.08970864996e-08
3.7365841464e-09
7.45641934752e-09
9.29027242106e-08
9.19161514674e-08
1.70664903372e-08
3.04967166007e-09
3.56442593208e-08
5.0541486956e-09
3.75088806727e-08
4.03880225915e-08
3.09242519003e-08
1.53743262179e-09
2.02749993353e-08
2.01571336671e-08
6.99849312592e-08
1.36727310118e-08
3.99666866505e-08
1.52791809061e-08
3.94392974498e-09
2.99147082944e-08
5.44802678557e-08
1.70732616545e-08
1.99449593373e-08
1.92201942708e-08
3.39859976412e-08
1.2999852614e-08
8.69830635447e-08
2.59936987469e-08
2.00875407246e-08
3.17499993015e-08
1.15659078711e-08
1.5240086966e-08
2.76831263669e-08
5.76798108699e-08
5.4741762984e-09
4.70976868106e-09
2.50361757277e-08
1.96783199446e-08
1.37815146333e-08
9.76791063766e-09
1.14963234084e-08
2.36628529108e-10
6.15310152544e-08
5.81365092377e-08
4.07926942057e-09
1.19004451597e-08
7.88344244154e-09
5.93569183298e-09
2.23613360247e-08
3.51441272788e-08
1.16188751413e-08
1.06360157747e-08
2.07924907059e-08
2.24767380867e-08
9.483650007e-10
1.00266360514e-08
3.9754650893e-08
5.05420014134e-08
4.63605926993e-08
2.03791957271e-08
2.13064418322e-08
3.92534813972e-08
5.5791513169e-09
2.03059332911e-08
5.08656670075e-10
1.54993621335e-08
5.49657051931e-08
1.22306003185e-09
8.56133269044e-08
2.31544557116e-08
3.42573133829e-08
9.33539909922e-09
3.33726050283e-08
1.40714982997e-08
1.51251424077e-08
4.22131404984e-08
2.44900451313e-09
4.40822162153e-08
6.07846631495e-10
3.05754837722e-08
5.39143697818e-09
3.12173323484e-08
2.37028313459e-08
9.23708615441e-09
5.17969867874e-09
2.15049565703e-08
2.41728644501e-08
4.26086210742e-09
1.77614808747e-08
5.73338567239e-09
2.79974178901e-10
3.27949192725e-08
1.47033327989e-08
2.30525125917e-08
6.74080324711e-10
2.31500889853e-08
5.08888035806e-09
2.17554609871e-08
5.40937831059e-08
2.86172891975e-08
4.38319023668e-08
1.5792324868e-08
3.21417635042e-09
1.78552146627e-09
2.36199038446e-08
1.73459125976e-08
5.16715266946e-08
3.66742059942e-08
3.00895554903e-08
3.37124173235e-08
3.74420819754e-08
2.78872742419e-08
1.435775575e-08
5.14578098294e-09
6.32400207394e-09
2.51401641689e-09
1.9131557681e-08
1.10912839058e-08
1.34339696184e-09
3.80385579321e-09
9.47528040693e-09
5.76429542287e-09
3.37258433336e-08
1.71507426323e-08
1.16386255354e-08
2.8419429918e-08
1.33530185357e-08
2.70914270952e-08
1.14054954165e-08
2.61984155399e-08
8.26556917779e-08
2.47535937314e-08
3.85400243238e-08
1.00203374843e-07
3.85113302056e-08
1.20107050026e-08
3.93354577426e-08
2.72295999662e-08
3.68110377214e-09
7.56272493091e-09
1.44092919398e-08
1.1906370144e-08
1.43661380719e-08
7.04116009409e-09
2.17418382274e-08
1.89447467376e-08
1.99602687879e-08
4.5936254569e-09
4.04219744109e-09
2.36263952349e-08
3.16452771231e-09
1.85181013875e-09
8.06188723983e-09
3.10154080247e-08
4.24877167003e-08
7.3741740467e-09
2.56956572454e-08
7.99583193264e-09
1.89457717399e-08
1.74781737367e-08
1.78182912342e-08
1.2861297027e-08
7.09352931845e-09
1.22618598158e-08
1.69025982541e-08
1.41412280635e-08
3.50282356614e-08
2.82055900574e-08
1.59564908462e-08
1.79932596756e-08
3.18560502992e-08
8.5492269543e-08
9.80943446416e-09
2.46919547113e-08
1.72584107511e-08
2.78075214528e-08
1.68945729203e-08
2.97742940911e-08
1.81600133893e-08
8.31164995317e-09
2.88501295634e-08
2.43921859521e-08
3.97748777543e-08
1.8347262142e-08
3.00876921405e-08
5.78267368702e-08
1.97720815713e-08
1.37317584578e-08
9.30786634531e-09
2.19700836477e-08
1.00488641943e-08
9.88086352506e-09
3.07398206366e-09
1.77716658081e-08
1.0353856841e-08
1.59645481012e-08
2.50355655896e-08
4.00504145143e-09
1.92805194606e-09
1.62933244832e-08
3.01771863436e-08
1.18786069827e-09
1.58539355165e-08
4.0930097381e-09
4.09122636115e-08
2.32732575614e-08
1.85741814274e-08
4.29835436656e-09
2.81024653992e-08
1.60737200179e-08
7.4585857395e-09
2.04675092679e-09
1.60877384373e-08
3.82687491971e-09
1.12008940004e-08
2.99804566426e-08
1.30891327534e-08
2.65795113965e-09
2.52904217855e-09
4.57761519311e-09
1.06838819979e-08
5.73601228975e-09
1.64656837551e-08
1.80874473712e-08
2.160667758e-08
1.50249137172e-08
4.5119942727e-09
2.57629866195e-08
2.90043914355e-08
2.49011059049e-08
6.90023741023e-09
2.93733735892e-08
5.06440537073e-08
2.16526472193e-08
3.57313745629e-08
6.81618989045e-09
1.27771527371e-09
4.80659650377e-09
8.32248839297e-09
1.17455461135e-08
3.04869200615e-08
6.78973588751e-09
2.78040238785e-08
1.41321333063e-08
1.31774251291e-08
9.00669954034e-09
2.87957485013e-08
1.4117209345e-08
1.37016964795e-08
2.60061887697e-09
1.68494399329e-08
1.73890178995e-08
1.53698077041e-08
3.0059570101e-10
9.64249848564e-09
2.10180284552e-08
1.26481372873e-08
2.25319478882e-08
6.15278312313e-10
4.09910903447e-09
1.52296611115e-08
8.92987747401e-09
2.82412393133e-09
3.23001737079e-09
3.52014379097e-09
9.49733963746e-09
5.2299445015e-09
1.85896426725e-09
1.82930190745e-09
2.65427334545e-09
2.52866872187e-08
1.26712810303e-09
1.65631108871e-08
1.44436035652e-08
3.27473065344e-08
9.38329074173e-10
6.94541418306e-09
2.10902109446e-08
2.50151258783e-08
6.33888247931e-09
1.7314631454e-09
5.81961105355e-09
1.13229553835e-08
6.25509102028e-09
1.32045058041e-08
3.1042317558e-09
2.81053242141e-08
5.19567885187e-09
2.50031491043e-09
1.86396574085e-08
1.04965636149e-08
2.4115489768e-08
4.10837430645e-08
1.20790448253e-08
1.3826484041e-08
2.19264552461e-08
1.62301813777e-09
2.62707430288e-08
2.68990213457e-08
2.00036781051e-08
9.383047453e-10
1.61281351304e-08
4.08007617294e-09
1.37669962857e-08
6.32604830855e-09
3.82904716673e-09
2.15889110518e-08
3.31175993752e-08
4.24924743673e-08
7.79383959241e-10
5.93291668909e-09
1.46994632341e-08
1.20406821627e-08
2.89960696246e-08
7.04865913969e-09
1.46799635176e-08
5.84445999275e-09
1.15778734567e-08
1.55697520392e-09
3.15700922791e-08
1.56944358139e-08
1.47451722417e-08
2.37539158327e-09
5.24484945857e-09
5.75722431398e-10
1.26144730394e-08
9.06266064798e-09
3.91016164637e-09
1.14367914342e-08
1.74157736081e-08
1.01352341656e-08
1.67312497203e-09
1.11287859211e-09
2.61166036422e-08
3.11708976855e-09
4.58791715678e-09
6.12351280986e-09
1.87685500341e-08
4.46501100485e-10
1.22263148741e-08
2.31123891432e-08
2.67072616473e-08
1.44938460123e-08
8.86272386657e-09
1.50187649308e-08
1.46805679518e-08
1.32755531057e-08
3.5688069626e-09
1.73290412511e-08
6.76525216899e-09
2.81694539984e-08
1.1395582664e-08
2.23472152179e-08
2.33006322775e-08
6.34104893576e-09
2.42227175916e-08
2.72854881657e-09
1.02042166368e-08
4.92979459335e-09
2.48454753867e-08
6.96810160898e-09
1.10643990702e-08
5.19549568539e-09
3.57672731086e-08
4.33551372726e-08
8.59492570792e-10
1.09255703981e-08
8.23203238543e-09
1.20919364706e-08
1.28106109182e-08
2.74919910785e-08
1.4735400164e-08
1.5011531244e-09
1.22073343154e-08
2.17312526811e-09
1.58054775901e-08
2.32827709065e-08
3.36497359762e-09
1.03327503691e-09
9.16954024049e-09
1.686243459e-08
3.20593287833e-09
1.16123859392e-08
2.34277806525e-09
1.11540123943e-09
1.62207240332e-09
1.582250463e-08
2.3009763715e-08
2.53674201078e-09
1.98400493062e-08
5.55750082848e-09
5.96646697128e-09
1.61907374213e-09
1.77448134941e-09
1.38496036155e-08
1.11952212439e-08
4.25581787525e-10
1.1752848262e-09
1.26695999231e-08
1.06466945187e-08
3.9523858788e-09
6.33229288529e-09
2.29111058073e-08
7.17936406396e-09
1.75468749623e-08
2.0777740052e-08
9.6733033636e-09
4.66502229912e-09
3.13031194242e-08
3.20914466471e-08
1.45365391124e-09
4.79073792735e-09
1.73201239537e-09
3.71255913073e-09
3.37644567245e-09
1.73778374968e-08
8.82008391014e-08
2.86959204966e-08
2.50466465971e-08
8.23665118545e-09
7.90796062717e-09
1.67943102927e-08
1.03532954077e-09
5.76596783067e-09
9.42135778986e-09
2.39302048429e-09
8.72912683684e-09
3.8405550134e-08
7.37833569752e-09
2.10373540798e-08
4.62375923527e-08
1.19999661789e-08
1.13426169609e-09
8.51696614524e-09
5.24609403713e-09
1.41482872634e-08
4.02690980143e-09
4.00227360864e-08
8.03949428022e-09
1.72065065525e-08
4.45121902813e-09
7.1318651912e-09
7.96416997e-09
5.13476156986e-09
6.09444453334e-09
2.33483488625e-09
1.56083922106e-08
4.79190610971e-09
5.67142937468e-09
3.60214387622e-10
9.9730335353e-09
5.39170956151e-09
1.76868717627e-08
2.05210241128e-08
2.28475518862e-09
2.42791620601e-08
3.25568176243e-08
4.65466467183e-08
1.00613937805e-08
7.15573748209e-09
3.75462374853e-09
1.82749270462e-08
1.1686580553e-08
7.57141552716e-09
3.03606623043e-09
5.09089907594e-08
7.11821178371e-09
1.88232755041e-08
2.67422939388e-10
1.12612034487e-08
2.0287404934e-08
1.90793797467e-08
1.37052455057e-09
1.72466682646e-08
1.93680318284e-08
1.16858664084e-08
2.30244200811e-08
1.16582641078e-08
6.58594755644e-10
4.05464272593e-09
3.86114055352e-10
1.74026743549e-09
1.39323345007e-08
1.28917030536e-10
1.62646720544e-08
3.09308311912e-09
1.212194919e-08
3.73433365106e-11
1.14161596664e-08
9.60848186146e-10
1.88234010051e-08
7.8991929751e-09
1.10044353832e-08
1.34374410435e-09
3.67329911857e-10
1.23757662541e-08
7.79461919684e-09
1.87197555595e-08
1.43517571373e-08
1.24728255285e-08
1.34116020655e-09
3.5993464842e-09
2.09237701236e-08
1.20049954405e-08
7.4001020486e-09
1.58619585024e-08
7.20881313997e-09
2.01241866694e-10
2.29370463813e-09
3.0076044472e-08
2.20327077856e-08
4.03165079145e-09
1.87478315263e-09
1.24510857514e-08
2.10681098311e-08
1.01197080473e-08
9.67137151974e-09
1.64708433642e-08
5.42782724671e-09
1.18953877678e-09
7.11629699399e-09
2.21666106616e-10
1.56255609781e-08
2.52851838823e-09
6.07095965956e-09
3.84928591145e-09
8.15756291241e-10
2.36924577204e-09
1.83575159028e-09
3.87694080065e-08
1.3212433025e-10
1.06593839154e-08
1.51967199212e-09
1.80980472581e-08
9.02999046207e-09
4.03836616921e-09
4.45517408508e-09
1.20238116939e-08
1.1590455627e-08
1.08853072334e-08
6.49345471709e-09
4.70294639099e-08
1.2970508693e-08
1.44755307995e-09
1.25922095399e-09
3.18191866514e-09
9.73901236856e-09
1.06830707309e-08
1.43520342414e-09
2.05786765888e-08
1.84311326526e-08
7.20669009429e-09
2.64977911595e-09
3.60361710188e-09
1.62848824843e-08
5.34647723609e-09
1.76735829224e-09
8.12754811995e-09
7.3302161345e-09
7.72353264479e-09
1.35055247432e-08
6.05310163462e-09
7.12218621705e-09

