# vtk DataFile Version 3.0
File Name: Molecule/sphere_cent/sphere_cent_0-s28.vtk
ASCII
DATASET UNSTRUCTURED_GRID
FIELD FieldData 1
TIME 1 1 double
0.0
POINTS 892 double
-0.99535501003 0.84678113461 1.5139906406
-0.85513573885 0.63764822483 1.6898332834
-0.71735310555 0.9542325139 1.6045287848
1.9062767029 0.5762732625 0.18354667723
1.8071079254 0.70363277197 0.48908928037
1.9128042459 0.36766937375 0.45309531689
0.33567866683 -1.8809010983 -0.5903635025
0.53546065092 -1.8953676224 -0.34758895636
0.22808483243 -1.9700443745 -0.2583180666
-0.13633355498 -1.9567109346 -0.39020684361
-0.049541737884 -1.9980249405 -0.071640491486
-1.5927604437 -0.58016133308 -1.0613412857
-1.6108448505 -0.84272563457 -0.83353990316
-1.751584053 -0.55511730909 -0.78746372461
-1.7278422117 -0.78210443258 0.6340547204
-1.5360659361 -0.91054868698 0.8992369175
-1.6970816851 -0.60083889961 0.87099552155
-1.6930798292 0.57755184174 -0.8938562274
-1.5336990356 0.81509208679 -0.99110931158
-1.5964788198 0.47122529149 -1.1085824966
-1.3255066872 1.0232070684 -1.0933539867
-1.4591683149 1.0851351023 -0.83136242628
-0.99372398853 1.6158692837 -0.62888997793
-1.1700484753 1.4239861965 -0.77612197399
-1.2822802067 1.450468421 -0.49675744772
-1.6596285105 0.86312508583 -0.70497339964
-1.7064265013 0.87222200632 0.56983280182
-1.7501204014 0.58863735199 0.76833021641
-1.5831209421 0.80127519369 0.92273056507
-0.90459620953 1.6595356464 0.65403711796
-1.1094620228 1.6190675497 0.38424193859
-1.1694374084 1.4884762764 0.64506459236
-1.2461342812 1.5577687025 0.14211572707
-1.3712307215 1.4260342121 0.29271674156
-1.6225409508 0.49209091067 1.0591082573
1.3825155497 -0.34165120125 -1.4042406082
1.4398212433 -0.053532037884 -1.3870508671
1.6000669003 -0.19774910808 -1.1831145287
0.46358433366 0.050730127841 -1.9444776773
0.21677355468 -0.0607489869 -1.9869165421
0.23417551816 0.20194377005 -1.9758388996
-1.9435482025 0.43866431713 -0.17324182391
-1.8610414267 0.71314001083 -0.16533271968
-1.8634250164 0.57249265909 -0.44369277358
-0.049558833241 0.04539943859 -1.9974609613
0.76356089115 0.61210644245 -1.7437726259
0.55589205027 0.7521520257 -1.7673176527
0.81269198656 0.86019867659 -1.6122561693
-0.40428411961 -1.8622934818 -0.60675263405
-0.72282218933 -1.7993154526 -0.48855566978
-0.61165654659 -1.7437886 -0.76477581263
-0.48706150055 -1.9107618332 -0.33396708965
-1.2268497944 -0.49755963683 1.499017477
-1.3622453213 -0.67988657951 1.296102047
-1.1017818451 -0.78046673536 1.4754366875
1.8993555307 -0.1478112638 0.60847347975
1.8141316175 -0.44520223141 0.71454411745
1.9119327068 -0.41786876321 0.40903019905
1.7623574734 -0.10981784016 0.93905889988
-1.1145306826 0.53650832176 1.5715353489
-0.53906929493 -1.3250563145 -1.3977262974
-0.6672770977 -1.4884929657 -1.1567331553
-0.85398006439 -1.3230553865 -1.2327768803
-1.4405214787 0.69224798679 1.2020579576
1.6838880777 -1.0721911192 -0.12179101259
1.8355418444 -0.75384247303 -0.24971006811
1.8493806124 -0.75744503736 0.059204120189
1.9331086874 -0.50600808859 -0.083257898688
1.8860545158 -0.489538908 -0.44670522213
0.22145912051 -1.1235705614 1.6396405697
0.12775535882 -1.409276247 1.4130746126
0.43429282308 -1.3318750858 1.4273172617
0.47606915236 -1.9185874462 0.30349618196
0.67632049322 -1.7992829084 0.5522968173
0.37980112433 -1.851339221 0.65047824383
0.61473923922 -1.690241456 0.87421911955
-0.50065618753 1.5981690884 -1.0930675268
-0.85803747177 1.5373140574 -0.94892460108
-0.64057075977 1.7157108784 -0.80211764574
1.6992082596 -0.9392683506 -0.47903141379
-0.11223278195 -1.0477130413 1.6996213198
0.1017242372 -0.82810550928 1.8176245689
-0.15610298514 -0.74364078045 1.8494102955
0.031677674502 -0.53756314516 1.9261689186
0.33493497968 -0.54640990496 1.8942556381
-1.9437735081 -0.44493415952 0.15393316746
-1.871183157 -0.6868211627 0.16338565946
-1.8606570959 -0.54028379917 0.49589079618
-1.9116655588 -0.57850259542 -0.10363325477
-0.2433873266 1.7605867386 0.91694504023
-0.36984008551 1.8609143496 0.63264918327
-0.60302704573 1.7142541409 0.83524155617
-0.65415686369 1.8071107864 0.55365675688
-0.52071338892 1.9092576504 0.28926110268
-0.85500657558 1.5159082413 0.98530906439
-0.5764837265 1.5553972721 1.1171002388
-0.79403239489 1.3442729712 1.249663949
-1.6284506321 -0.25856742263 -1.1318962574
-1.4680497646 -0.37405908108 -1.305192709
-1.4931380749 -0.1031204015 -1.3265554905
-1.1788922548 -0.59014809132 -1.5033067465
-1.1463897228 -0.87119215727 -1.3869884014
-1.374494791 -0.66451841593 -1.2919580936
-0.012629083358 1.8995091915 0.62545520067
-1.7617667913 -0.29055643082 -0.90061730146
-0.91255915165 -0.7258617878 -1.6248430014
-1.4316711426 -0.87548029423 -1.0846576691
-0.83408516645 1.7863301039 0.3363340497
0.87205564976 1.3685429096 1.1689944267
1.0358397961 1.11868608 1.294357419
1.1392661333 1.2797482014 1.0305451155
1.3140938282 0.98663711548 1.139971137
1.1335513592 0.8574450016 1.4070397615
0.78100371361 1.1930612326 1.4005349874
0.90663766861 0.93185520172 1.5190271139
1.0867396593 1.2867063284 -1.0784734488
0.85251289606 1.3455272913 -1.2092430592
0.95374244452 1.4857438803 -0.93797439337
-0.48094555736 -1.7536079884 0.83264094591
-0.27175456285 -1.8172901869 0.78883385658
-0.19815404713 -1.7076927423 1.0218868256
0.026449762285 -1.8079921007 0.85199022293
0.10834206641 -1.6534250975 1.1196459532
-0.12619654834 -1.552005291 1.25512743
-0.38440021873 -1.5520837307 1.2013415098
-0.33378991485 -1.3952082396 1.3934010267
1.7166413069 0.25589683652 0.99373543262
1.5706583261 0.076599031687 1.2357645035
1.5589239597 0.38128188252 1.1934623718
1.6479895115 0.5729700923 0.97751879692
1.3767914772 0.24820280075 1.4282399416
1.4616382122 -1.3634210825 -0.057131551206
1.4368931055 -1.3557847738 -0.31154441833
-0.50575697422 0.05857584998 -1.9339927435
-0.63541984558 0.3200802803 -1.8680496216
-0.30909717083 0.23794591427 -1.9601706266
-0.75254791975 0.0014883410186 -1.852747798
0.72030991316 1.6983603239 0.77248227596
0.89462268353 1.7061721087 0.53596669436
0.55689591169 1.8356348276 0.56576704979
0.13527411222 1.7610859871 0.93812531233
-0.94095897675 0.30123731494 1.738851428
-0.77609872818 0.052062038332 1.8424538374
-0.66355544329 0.34437912703 1.8541998863
-1.1019899845 -0.02451363951 1.6685531139
0.11995797604 1.5761384964 1.2252190113
0.38020440936 1.6070290804 1.1282192469
0.28979891539 1.4226162434 1.3754172325
0.45759537816 1.7413408756 0.87080430984
0.57974404097 1.4188041687 1.2848361731
0.46619877219 1.2472983599 1.491686821
0.66635596752 1.5773727894 1.0332731009
0.92636978626 1.5161508322 0.91719758511
1.7993986607 0.45679521561 0.74387812614
1.0266537666 -1.7147932053 0.074145942926
1.2742277384 -1.5358240604 -0.13253077865
1.2330855131 -1.5678942204 0.14140418172
1.8476588726 0.15081699193 0.75045514107
-0.61419487 -0.26961514354 -1.8840520382
-0.85959863663 0.59575814009 -1.7032090425
-0.95860522985 0.34121695161 -1.7215425968
-1.1201782227 0.48298150301 -1.5846933126
-0.45707708597 0.02237204276 1.9461506605
-0.64002418518 -0.22545860708 1.8806676865
0.73305618763 -1.8549649715 0.14734688401
0.80936980247 -1.8222028017 -0.15651655197
0.510379076 -1.9333148003 -0.042899519205
0.19373485446 -1.952829361 0.38595482707
0.22610771656 -1.9852861166 0.086253419518
-0.041897688061 -1.9891887903 0.20302803814
0.85565143824 -0.41228932142 1.7598092556
0.99510091543 -0.69680446386 1.5888127089
1.098085165 -0.41733425856 1.6182173491
1.2855324745 -0.56908279657 1.4224486351
1.1934469938 -0.87125426531 1.3466277122
0.85615694523 -0.98997467756 1.5119134188
0.67974644899 -0.81485819817 1.6946084499
1.7435921431 -0.80301702023 0.56041228771
1.6261167526 -1.0635499954 0.47318440676
1.7342911959 -0.96644234657 0.2409799397
1.6118292809 -1.1625288725 0.22466556728
1.0344260931 0.66669535637 1.5764585733
1.2289767265 0.53590524197 1.4840240479
1.0700587034 0.41192242503 1.6376975775
0.82797282934 0.56787449121 1.7295295
0.55420392752 1.4423061609 -1.2696866989
0.67488664389 1.5742359161 -1.0325847864
0.36980569363 1.608527422 -1.1295133829
0.26722419262 1.4410492182 -1.3609063625
0.47017627954 1.7389748096 -0.86886632442
0.065417289734 1.9989310503 -0.00051767972764
0.31052044034 1.9709067345 0.13810326159
0.3812879622 1.9525508881 -0.20402064919
0.70421385765 1.7314437628 -0.71006494761
0.48965483904 1.8578364849 -0.55513876677
0.73268729448 1.8050556183 -0.45026779175
0.18190741539 1.9280349016 -0.49931633472
0.54961013794 1.9026966095 0.27660629153
0.29730916023 1.9320582151 0.42264431715
0.28588292003 1.8555037975 0.6894325614
0.041138865054 1.9790298939 0.28578752279
-0.30611261725 1.3702698946 1.4235864878
-0.08744097501 1.1882212162 1.6063748598
0.019198141992 1.3810917139 1.4464308023
0.17282173038 1.2177683115 1.5759159327
-0.21964104474 1.9476715326 0.3978446424
-0.22668509185 1.9830746651 0.12639839947
1.2065039873 -0.20661655068 -1.5816557407
1.1464300156 -0.4946924448 -1.5623178482
1.0029624701 -0.31971237063 -1.7002071142
0.89743971825 -0.56770735979 -1.6933226585
-0.66215157509 -1.0706291199 1.5540492535
-0.80902177095 -0.89044606686 1.5972543955
-0.9373575449 -1.0272048712 1.437420249
-1.1792099476 -0.99429190159 1.27227211
-0.97448647022 -0.57134687901 1.6500371695
0.52601587772 -1.0508393049 1.6182371378
0.38490581512 -0.85713750124 1.7655395269
0.0552890338 -1.9073432684 0.59808683395
1.4739136696 -0.93420523405 0.97608798742
1.5925205946 -0.95629018545 0.74118548632
1.6610770226 -0.70598876476 0.86155927181
1.3898080587 -1.155144453 0.85645115376
1.5063749552 -0.64228379726 1.1467208862
1.6684387922 -0.43274962902 1.0143891573
1.4957888126 -0.42719012499 1.2571004629
1.5962004662 -0.21207249165 1.1862127781
1.410531044 -0.21269726753 1.4014267921
-0.15717053413 0.7584477663 -1.8438305855
0.047277204692 0.97981858253 -1.7429522276
0.15759411454 0.6813198328 -1.873170495
-0.32095313072 0.44216030836 -1.9219331741
-0.46695479751 0.72372418642 -1.8045196533
-0.3018707335 0.98160117865 -1.7161738873
-0.59322267771 0.94739145041 -1.6576119661
[...]
CELL_DATA 1780
SCALARS cell_data_0 double
LOOKUP_TABLE default
9.74732979308e-09
1.46763528251e-08
4.19229564718e-09
2.0644649764e-08
1.30088501987e-08
8.18481978097e-09
1.89800226238e-09
4.3351515528e-09
1.23586414113e-08
8.64996893958e-09
4.03861672495e-09
2.11440886894e-08
5.71933969692e-09
1.13252636139e-09
8.77617560213e-10
6.84450269555e-10
9.49872125445e-10
6.70794689111e-09
3.88616287045e-09
4.04391439716e-09
9.69582716945e-09
2.80997215022e-09
5.69358126234e-09
1.51789403881e-08
2.11740569745e-08
4.86802871958e-09
9.53483273153e-09
7.07267574315e-09
2.56358236889e-09
1.70847489884e-08
1.34244607899e-10
1.55296270187e-08
2.37129342178e-08
4.93672301711e-09
1.9236069252e-08
1.67349980214e-08
2.26000483146e-08
1.71994209205e-08
1.16262127929e-08
1.04111780421e-09
6.43096516105e-09
4.03415498703e-10
1.53160412496e-09
1.29460181493e-08
7.16948009997e-09
7.5221551875e-10
2.91520051407e-09
3.46209776591e-09
2.81998101422e-08
5.52025090633e-09
5.88580441282e-09
2.81948904696e-08
9.47997008608e-09
1.76182823036e-09
2.61832140054e-09
1.3704860496e-08
1.37607172553e-08
1.1442057174e-08
4.48631666889e-09
1.46818338965e-08
7.80303380847e-09
1.73931920151e-08
1.50394126566e-08
1.44016078411e-09
7.78992111953e-09
2.64600858543e-09
2.89139114626e-09
6.07986217214e-09
3.7235074668e-09
9.23562448958e-10
9.5589250849e-11
4.56118972317e-09
8.33134487645e-09
4.76305641812e-09
6.43659633417e-09
1.04694839197e-08
2.19232934553e-08
7.35449710209e-09
1.44622824572e-09
1.71889039501e-10
1.01843851244e-08
1.78536330394e-08
3.1028905519e-09
4.92301305235e-09
3.9454766003e-08
2.46145558539e-10
1.11716913566e-08
1.59971096421e-08
1.22729987742e-09
1.62111777233e-08
8.83994499801e-09
2.26653872168e-10
2.39098623033e-09
3.05485951709e-09
2.93125916583e-09
7.72233273718e-09
1.18445037496e-08
7.71608919253e-09
9.68175186635e-09
1.64198393445e-08
6.65852178398e-09
7.52795725051e-09
3.77308761128e-09
1.37585384263e-09
1.35718664559e-08
7.21223321521e-09
5.16387124051e-09
8.1415093173e-12
1.18392769022e-09
7.49294112963e-09
1.41826898388e-08
1.04513697672e-08
8.26884701389e-09
4.59859613384e-09
5.65717890784e-09
6.09075119877e-10
1.40524587408e-08
1.02814392369e-09
6.1660260346e-09
3.24103389212e-09
2.34781084644e-09
8.14174533801e-09
6.55210569685e-09
3.70797960243e-09
2.3811382268e-09
1.27785284116e-08
3.6703243339e-09
7.0494969106e-09
1.82705668993e-09
8.12616636225e-09
1.78844743194e-09
2.79217984674e-09
6.83562244842e-09
7.20766691047e-09
2.08254944035e-09
8.44289358576e-09
4.72828491519e-09
5.80837093863e-09
1.47948509253e-08
7.97732617431e-10
9.38834347795e-10
7.28378916757e-09
7.81550990811e-10
2.14833804681e-09
2.91944165122e-09
5.06333984491e-09
2.20340187133e-08
5.47018606965e-09
4.26868777561e-09
1.11409467318e-09
1.87265110057e-09
7.60247347689e-10
7.89509331172e-09
1.87661634199e-09
3.47990343014e-09
3.80255944613e-09
1.94180987756e-09
1.59056019637e-08
1.20430335605e-08
8.61054017149e-09
2.08180977309e-08
1.57662925691e-09
5.85317035347e-09
9.60502340845e-10
2.25835209194e-10
4.70427726599e-09
1.90558327469e-10
9.27802015912e-11
4.67524114582e-09
1.7581795647e-08
6.07477172887e-09
4.33291994431e-09
9.27981092453e-09
2.25939760977e-08
3.16650180128e-09
7.47881786497e-10
4.01125487902e-09
3.00131119495e-09
3.77124825083e-09
4.67167076347e-09
6.72975677668e-10
1.1088273925e-08
2.56035606529e-09
1.03333606769e-08
8.65784976938e-09
2.57378874804e-09
4.47740195416e-09
4.06149912956e-09
2.34326696804e-09
1.09421188134e-09
4.751097509e-10
4.59850818289e-09
1.23095306935e-08
1.91998203253e-08
2.49843276996e-09
7.2428497129e-09
6.01737128518e-09
6.68208048197e-10
3.78212423998e-09
1.93832713377e-09
5.26201091945e-09
7.51182735952e-09
9.14922858648e-09
1.60025237267e-09
4.07540762234e-09
3.37771340441e-09
3.99868351465e-09
4.25798719633e-09
2.26923656468e-09
4.66143554412e-09
3.35711709376e-09
1.286154464e-09
2.29671731901e-09
1.14858087436e-09
5.00307632821e-09
1.34142958848e-08
6.62656318824e-10
8.85834280501e-10
4.71367532009e-09
2.5317094222e-09
1.6940013593e-09
2.13793866473e-09
6.59565549579e-09
8.36861027711e-09
2.0496364744e-09
1.49520120588e-08
2.00933717371e-09
6.36291851102e-09
2.62220599227e-09
7.76467277091e-09
1.40979715311e-08
1.53873649003e-08
6.14242338557e-11
3.62119692901e-09
2.99015942691e-09
6.69798039328e-09
2.55311155562e-08
2.0980787531e-08
5.74901498095e-09
2.60379640106e-09
5.23884532532e-09
5.86992441384e-09
1.3156543023e-09
1.28041575434e-08
1.6241484902e-08
1.57839205113e-08
6.2980477648e-09
6.11089560266e-09
1.94350044836e-09
1.46210259658e-08
3.99659865834e-10
5.33434423918e-09
4.64071758722e-09
7.99352624352e-10
6.39499236939e-09
4.31990857132e-09
2.60659691611e-09
5.10896067078e-09
9.74947268981e-12
6.58147777288e-09
6.03618697675e-10
2.68034508984e-09
2.03175126763e-09
4.99383146177e-09
5.66044635175e-11
4.48506395155e-09
2.75160496555e-09
7.20247583763e-10
5.74464238686e-09
1.25302039506e-11
3.66286282925e-09
4.77209897393e-09
1.13717804975e-08
3.00401992553e-09
3.52563451431e-09
4.67938131601e-09
1.17952115876e-08
4.09638597801e-09
2.54934751436e-09
1.82006013212e-09
1.08226041391e-09
6.43933197629e-09
9.79195406716e-09
1.76430731295e-09
5.92904808802e-10
4.92880342235e-09
3.09319879291e-09
3.24275854443e-09
4.61727274721e-09
6.06208404926e-09
8.6976273596e-09
1.56133116756e-08
5.07065593647e-10
9.1251216379e-09
7.35325157583e-09
6.78520062647e-11
4.04371834845e-09
6.54315676342e-09
7.80461361985e-09
3.58950798668e-10
8.29825821687e-09
1.05976412058e-09
1.22867093493e-08
7.09356004088e-09
2.72392585697e-09
4.45853946891e-09
5.00432076674e-09
7.10925654259e-09
5.23117802767e-09
2.50520476554e-09
2.53627696714e-09
6.01920041458e-09
1.73785758297e-09
1.42401496674e-08
1.33166905743e-08
6.03001563626e-09
4.84589866679e-10
1.91956483232e-09
3.9916466246e-09
4.44860901334e-09
5.85128364187e-09
1.16185902248e-08
2.87051339996e-09
1.56920947356e-08
4.63797669957e-09
3.95021015484e-10
3.46034556735e-09
1.18903927575e-09
4.04587901813e-09
2.33363931777e-08
3.3588730604e-09
5.35499215964e-09
5.68089726914e-09
8.9112172709e-09
4.49634414806e-09
5.147308757e-10
5.87236452991e-09
7.57394490516e-09
4.44952031909e-09
6.78273953189e-09
7.89839942566e-09
4.87723052504e-09
3.45136509117e-09
8.02527898944e-09
2.07916106845e-09
5.94778978847e-09
7.59670514402e-09
1.11122794349e-10
8.86366168144e-09
3.86211601199e-09
3.28578469557e-09
3.43047195948e-09
3.29525978551e-09
8.32415745594e-09
4.79504823837e-10
2.51417705321e-10
5.61429940677e-10
2.45203131765e-09
1.18000618072e-09
1.21826108661e-09
4.28008783781e-09
1.00847538516e-08
2.93151086887e-10
8.51351594412e-10
7.88383846794e-09
4.87514964339e-09
7.15337358509e-09
1.55809946943e-09
4.35035356575e-10
3.35545211595e-10
7.50655799754e-09
1.24247230952e-09
5.61779425367e-11
6.19654047242e-09
4.0005992068e-09
8.00399352182e-10
2.69530662226e-09
2.92161617286e-09
3.19095742468e-09
3.75712279955e-09
8.81313662903e-09
6.52291964865e-09
4.58602099652e-10
6.85695040469e-09
3.09011192581e-09
5.44060754604e-09
2.67032690098e-09
3.24558180229e-09
2.4625983108e-09
4.60409970477e-09
7.90510341445e-10
1.60187218421e-09
1.87983897866e-09
3.33424994597e-09
1.95585598219e-09
1.04960853436e-08
3.27278638191e-09
9.78723319672e-09
2.96289624049e-09
2.5729438741e-09
2.92388037135e-11
2.49153148981e-09
4.92140657378e-09
5.37050032059e-09
4.56102421808e-09
3.75560688103e-10
2.49080311937e-09
3.34930421064e-09
9.82863878747e-10
3.16947046271e-09
4.40630028676e-10
1.20137423738e-08
1.4972372421e-09
9.52280483514e-09
8.93423394568e-09
1.35659139792e-08
1.98463005553e-08
8.09758402291e-09
7.43520210488e-09
5.80156552634e-09
4.46837261062e-09
4.09859305375e-09
5.31945107788e-09
4.55696000664e-09
5.95777047258e-09
1.03257321857e-09
4.58081698763e-09
3.55152764259e-10
8.26884191295e-09
8.55358807227e-09
1.1757384088e-09
4.83135552098e-09
6.24191745671e-09
8.18954694818e-09
1.07237417218e-08
5.03076874997e-09
1.06346013072e-09
6.10891143323e-10
4.86270360264e-10
4.23553622631e-09
1.93471209795e-08
5.44561189723e-09
6.33243507748e-09
4.17213641753e-10
4.17610066933e-09
6.25538519878e-09
6.90004034138e-10
7.84108023845e-10
4.1859492741e-09
9.03530890717e-11
2.48542217051e-09
2.87336500438e-09
3.90213928142e-09
9.55793644278e-09
1.55239013433e-08
7.25953249559e-10
5.30112241388e-09
1.31179887148e-08
1.38534022883e-08
1.24617611173e-10
3.80498939147e-09
3.6720395798e-09
8.45316346285e-10
1.06929587611e-08
7.44679775117e-09
8.97280869799e-09
9.36473312282e-09
6.13535241071e-09
1.47001272495e-09
1.63355631702e-09
7.4186925529e-09
2.23335280598e-09
8.05729126112e-10
3.49418555066e-09
5.91200449364e-09
3.94539080264e-09
1.88607066663e-09
1.86137167796e-09
2.76006738546e-09
5.06095202742e-09
4.78209323365e-09
1.84383094265e-09
8.49365774839e-09
2.54245504981e-09
4.94001013891e-09
2.81905343411e-08
1.181630914e-08
3.36057308549e-09
9.21728626356e-09
3.46560330677e-09
1.69802044566e-09
1.03302360591e-08
8.88432012886e-09
5.79358163715e-09
5.67652632137e-09
2.00751065467e-09
4.86650860548e-09
4.53637538864e-09
1.0293802629e-08
2.89410176115e-09
3.36755913604e-10
2.88585128026e-09
5.64397715287e-10
1.11000082275e-08
1.75659789869e-09
3.32761849142e-09
6.82636675552e-09
5.40635657787e-09
6.73982982706e-09
8.32804410476e-09
3.88655919908e-09
3.02622391682e-09
2.28870511536e-09
7.18761952522e-09
9.71301239072e-09
1.18771858083e-09
3.75359828562e-09
3.65791920968e-09
8.86961881002e-09
1.10404705227e-10
1.90700062548e-09
6.86703637735e-10
1.50280432717e-09
6.74207473805e-09
3.97719457149e-09
1.85710264817e-10
6.44504608021e-09
2.72032084646e-09
3.06081742328e-09
5.05545375513e-09
1.64915658894e-09
1.15031014616e-09
2.82710291754e-09
4.4198510863e-09
2.1117334521e-09
1.03835084604e-09
6.04714356921e-09
1.18807259332e-10
1.73466428533e-09
8.24083591425e-10
2.46880018723e-09
6.06854839507e-09
2.30704421474e-09
4.09252426767e-10
5.6476948069e-09
2.03809745453e-09
2.42888334877e-09
3.39067195872e-09
4.88077867403e-09
6.92843293351e-10
1.68291717896e-09
2.20892744601e-09
3.31532439679e-09
9.77075885395e-10
2.64328760741e-09
4.31972131967e-10
2.45517059897e-09
9.99385076241e-11
1.65572780899e-09
8.34779457986e-09
1.57677543342e-09
1.63127073791e-09
3.11771443462e-09
8.87947423911e-09
4.32865038953e-09
2.82380510236e-09
7.99804567014e-09
4.65074534872e-09
7.93189103611e-09
7.03149755784e-09
4.913527903e-09
2.36102506283e-09
1.07710328092e-09
1.45458533265e-09
1.08302367399e-09
2.21330729369e-09
1.41980393725e-09
6.05261623626e-09
2.84014064875e-09
1.46197422678e-09
8.68497590298e-09
1.96655819947e-09
5.39005361703e-09
8.6134990767e-09
2.95727457522e-09
5.89443746086e-09
5.23613629324e-09
5.51171397538e-10
7.21335851082e-09
6.64551929788e-09
1.03244728316e-09
7.14045164757e-10
3.19778208119e-09
6.55801731652e-09
6.77884382318e-09
6.33405601644e-09
5.15338094179e-09
4.4615041635e-10
4.50939143494e-09
3.46347612497e-09
6.83082896608e-09
9.51826560663e-09
6.45123346643e-09
3.89244291114e-09
1.5792597674e-09
6.75101837114e-09
2.9169381633e-09
1.26572532846e-09
6.46050693682e-10
2.47677311142e-09
9.76967777334e-09
2.00246164637e-09
6.57101495142e-09
1.25941015138e-08
8.2386910173e-09
8.38651034209e-10
2.21209954229e-09
1.12183760145e-09
2.84863049304e-09
2.13932547808e-09
4.51670267333e-11
3.21517823845e-09
1.34162150453e-10
8.98946705781e-09
1.44375736157e-08
1.02922541828e-08
3.6187365491e-09
1.14611469415e-09
6.51529176227e-09
4.74147839981e-09
3.02839042131e-09
1.80654070818e-09
3.36810706393e-09
6.90585872739e-10
2.89780165185e-09
4.75695392216e-10
1.13669476948e-08
1.31555088705e-09
1.17741145656e-09
3.70635949608e-09
4.80032164664e-09
5.84361464685e-09
1.70218330163e-08
2.48118618322e-10
5.79651212501e-09
3.65705119942e-09
3.91516123507e-09
5.93443995303e-09
4.63976299124e-10
6.01248336809e-09
1.027642632e-08
7.55385916247e-09
1.30055816932e-09
2.95144814878e-10
2.79404383717e-09
7.18797089941e-10
1.16657479289e-08
1.04007185424e-08
6.47914547294e-09
1.34192769783e-09
2.07707621528e-09
5.9468545267e-09
2.0771217702e-09
1.94067938714e-09
2.30938639249e-10
2.50549159096e-09
2.73800645959e-09
2.69989802377e-09
4.89644006347e-09
4.92606135073e-09
5.80339579557e-09
2.71310729868e-09
2.25405818023e-09
5.00582096043e-09
3.56590341728e-09
4.97425145754e-09
2.6100029727e-09
1.00810633333e-08
1.3602187532e-08
1.09187230353e-08
2.69162006687e-09
4.41662279747e-09
3.27495599212e-09
6.96721437251e-09
3.33413844023e-09
5.95329726526e-09
1.38477811638e-09
2.7112653553e-09
1.69161907938e-08
3.37803963215e-09
1.45768822318e-10
3.20115185466e-09
1.99975360132e-09
1.20600159444e-09
6.8309018028e-09
4.90652056456e-09
5.71554259962e-09
5.57608108296e-09
3.14181334776e-09
1.6479943828e-09
1.28649977009e-08
1.16237351597e-08
8.71240889019e-09
5.42283152776e-09
1.15090810541e-09
7.08142728502e-09
6.8034501036e-09
9.2175485784e-09
6.32666959084e-09
8.55556133021e-09
1.118850936e-09
5.08468265049e-09
7.1533464529e-09
8.54411491054e-09
4.26385591942e-09
6.94508470023e-09
4.21914569344e-09
9.09283062023e-09
3.64905999391e-09
2.13241506035e-09
8.3454847655e-09
2.98290485618e-10
4.28477617164e-09
1.23772795447e-08
1.39829888122e-09
1.84074258313e-09
1.87395944978e-09
1.36136734847e-08
9.22625353271e-09
1.35083442412e-08
1.15206816128e-09
2.28754399057e-09
3.87740404467e-09
4.26851888785e-09
2.32696526642e-09
2.7866782808e-09
7.02853769582e-10
2.75088212536e-09
1.07549853156e-09
1.77460544606e-09
1.92078168637e-09
2.91439515367e-09
2.65896622906e-09
5.76735431177e-09
5.90937768422e-09
4.38409943662e-09
3.1419686034e-09
1.99026866242e-09
5.68813529327e-09
7.66222392086e-09
2.14600160356e-10
1.51524707463e-09
4.01919034627e-09
2.09230782047e-09
2.25647925136e-09
3.19203666109e-09
2.19987776943e-09
1.96861438089e-09
5.25346711922e-09
2.34415568084e-09
4.74653766669e-09
3.99814088024e-09
7.19392757575e-10
8.9846877131e-09
8.59056368433e-10
5.44385990261e-09
4.9806676625e-09
2.45111663702e-09
1.2654425981e-09
2.48138053218e-11
5.52893604321e-09
3.19105790092e-10
2.6133847981e-09
5.71036251067e-10
1.8567137894e-09
8.02149398384e-10
2.11123769588e-08
9.796337335e-09
2.72407604801e-09
1.9439690312e-09
4.7247983941e-10
5.35670223714e-09
1.35317398134e-08
5.32138948318e-09
4.25607128453e-09
8.96132427645e-10
2.93757654746e-09
2.49237080388e-09
3.54231493159e-09
8.48176571375e-09
4.00954113276e-09
1.10003393248e-08
1.16851111711e-08
9.89460662594e-09
6.4888501915e-09
3.75988866442e-09
4.73986245792e-09
1.46605353767e-08
1.00492177097e-09
2.57412955074e-09
9.45540284044e-09
2.07636889072e-09
1.03948689312e-08
1.7636212924e-09
4.3385899604e-09
3.03289870454e-09
6.44242755219e-09
3.87857588074e-09
9.71481278103e-09
5.56870026079e-09
2.65788776688e-09
3.78300562444e-09
5.04713848556e-10
4.4535662347e-10
6.24234973445e-10
3.79698987475e-09
2.21421745232e-09
1.52934031181e-09
2.85717868935e-09
4.62461036868e-09
2.20284556503e-10
4.26475880383e-09
4.19261529833e-09
8.05471949598e-09
5.23572378025e-09
7.66179564727e-10
1.11772874717e-09
1.91006641874e-08
8.41055771135e-09
6.39099493984e-09
4.52932218301e-09
2.74750218213e-09
5.95369996453e-09
7.55808211324e-10
9.60762605604e-09
4.3753550698e-09
3.83762258457e-09
1.13955480436e-09
3.05171438903e-09
6.86742038002e-11
4.21752753553e-09
4.04588271705e-09
1.52967293001e-09
3.3924390771e-10
3.33528160197e-09
1.6915200816e-09
1.54278857473e-09
6.67701048027e-09
6.50500824957e-09
5.45196995397e-09
2.26299854067e-09
2.31397503341e-09
4.95540026315e-09
1.07586797469e-09
2.03044909669e-09
6.52425709335e-10
1.93132841498e-09
7.08158403715e-09
1.57421821221e-08
2.5553351474e-09
7.45216400953e-09
7.19628661879e-10
7.16864101002e-09
7.83538287835e-09
4.0777391637e-09
1.91989929143e-09
5.12871505244e-09
2.3575040877e-09
1.61873171015e-10
1.0935033315e-09
2.93300207196e-09
5.71793588886e-09
3.27122444308e-09
3.37311351258e-09
1.95617893406e-09
4.39954337488e-09
5.11932622868e-09
1.25123072739e-09
4.65292306236e-09
5.26816496037e-09
2.80987465593e-09
5.0677955726e-09
2.45676566474e-10
7.21048323073e-09
4.74330037593e-09
3.78967155275e-09
5.99852429479e-09
3.79216521187e-09
5.90500786968e-09
2.08001604686e-09
5.20316206416e-09
9.14596714947e-10
4.23263128924e-09
7.71486550281e-09
2.48514467921e-10
8.00204509693e-09
6.69871712621e-09
9.74972479759e-10
3.23162128102e-11
3.19897443794e-09
3.06945805262e-09
9.26142757649e-09
3.64164603013e-09
7.70478885794e-09
6.00452030117e-10
2.78714153288e-09
6.67914653691e-09
3.27195763599e-09
8.00914958979e-09
4.27347023242e-09
7.97505604533e-09
4.96516791412e-09
1.56600403346e-09
4.99212643329e-09
1.10156681402e-09
4.26107723392e-09
2.9424492117e-09
3.49243650861e-09
2.86633084795e-09
7.81843777624e-10
3.28347066266e-09
3.17903491215e-09
3.70844374071e-10
5.64784534623e-09
4.028831668e-09
3.62535687923e-09
2.90241787109e-09
1.67931408739e-09
6.02646828958e-09
1.21193991833e-08
3.05000720734e-09
9.52471398861e-09
1.46724837145e-09
3.77819546622e-09
8.46694528724e-09
3.43811671671e-09
6.94546471661e-09
1.04465001768e-08
8.79973737971e-11
1.70595153676e-09
2.11024669945e-09
6.00618945122e-09
7.18394212953e-09
5.83154084511e-09
9.2291634831e-10
2.54618605697e-09
1.55196647138e-09
8.1996823427e-10
5.40333630828e-09
1.24214812378e-09
2.42963476916e-09
4.14262355311e-09
1.29698324583e-09
7.12578423996e-10
2.20671453624e-09
5.98469360609e-09
4.57180938533e-09
3.45389285625e-09
4.24070078199e-09
4.0595217435e-09
3.61123613201e-09
9.06243343262e-10
2.54010080068e-09
4.50311185424e-09
2.00202069216e-10
1.12501651694e-09
6.1670094985e-09
1.35580349109e-09
7.33986699507e-09
2.87593647557e-09
1.00431729872e-09
3.24265276525e-09
1.16010629516e-08
1.18917319746e-08
5.92911901349e-09
7.91339629536e-09
5.40345249957e-09
3.81430344977e-09
6.65862271675e-09
2.87805927518e-09
5.64295402377e-09
9.71053758739e-09
3.29349667108e-09
3.12795213751e-09
3.26998828995e-09
4.04277903305e-09
3.86131004846e-09
2.47389128314e-09
4.80014130201e-10
6.74427449445e-09
3.26824842807e-09
6.93828556904e-09
2.95370783648e-09
3.38778411883e-09
2.28978480259e-10
1.61747807239e-09
6.67354813923e-09
1.13970653225e-09
7.16924745634e-11
5.64890531948e-09
2.59958337066e-09
1.07589044702e-09
3.09567081788e-10
3.60756016097e-09
1.63350838294e-09
8.07934665042e-09
2.57381520823e-09
3.58048738806e-09
2.61070142071e-09
1.47110312056e-10
1.76504624672e-09
3.2846302772e-09
6.59375359042e-10
7.70184881146e-09
5.02098247566e-09
6.12892192039e-10
1.20877181612e-09
8.33894438929e-10
1.44087584122e-09
3.31862488885e-09
4.7553551876e-09
3.4361596091e-09
2.80661116948e-10
1.16409903045e-10
5.69954340453e-10
2.79293513836e-09
9.7386414724e-09
1.99802495693e-09
1.58884223009e-09
2.62180461779e-09
5.90032867395e-09
4.69749346927e-09
6.44838101981e-09
5.55741808724e-10
2.17943320427e-09
5.31449645232e-10
8.35977131336e-10
2.0745192997e-09
1.90746927729e-08
2.2355499939e-09
1.49029877704e-09
3.77261525771e-09
4.30403111521e-10
6.81343315665e-09
3.76168728467e-09
3.38083921545e-10
2.66661939605e-09
3.386924247e-10
3.11343306844e-09
2.77894518739e-10
8.09200929145e-10
2.74980125811e-09
1.0427282909e-08
3.27952140475e-09
1.56841842295e-09
2.5885790555e-10
2.92886806889e-09
3.33851456751e-09
9.91601414956e-10
4.02704179329e-09
1.33615291406e-08
1.46871594141e-08
3.11863463063e-10
2.12490889575e-09
3.40319845942e-09
3.53555256146e-09
1.64194408574e-09
6.59769844854e-09
5.21532302132e-10
1.84235776317e-09
4.16768533279e-10
2.58008929484e-09
4.30287982946e-09
5.48497050303e-09
1.8396350203e-09
3.44790781403e-09
5.74601222292e-09
3.27542874361e-10
6.62629183097e-09
5.49627785035e-09
1.67262264363e-09
6.64680125257e-10
3.72403592486e-09
3.60144952616e-09
4.82649524161e-09
3.83114340674e-09
1.24148224611e-09
2.42983542837e-10
4.03795197974e-10
4.09831389981e-09
7.61930756994e-10
5.60811838934e-09
1.55023957819e-09
9.43313654294e-09
1.16840662377e-09
3.29990330719e-09
6.20261883828e-09
5.66393623e-09
2.23212342665e-09
8.99959912628e-09
2.9561384641e-09
1.32469511358e-09
7.01336111598e-09
1.91357060609e-10
4.41665805348e-09
4.88333459867e-09
2.77809670031e-09
1.58129953368e-09
1.82396108732e-09
3.84794979665e-10
3.08022750579e-09
2.2468169644e-09
4.78166755319e-09
2.07223240076e-09