# vtk DataFile Version 3.0
File Name: Molecule/sphere_cent/sphere_cent_0-s25.vtk
ASCII
DATASET UNSTRUCTURED_GRID
FIELD FieldData 1
TIME 1 1 double
0.0
POINTS 623 double
-0.65348702669 0.94984507561 -1.6342515945
-1.0299298763 0.89745891094 -1.4605839252
-0.68371367455 1.2078850269 -1.4396326542
-0.73447787762 -1.038207531 -1.5435607433
-0.88570231199 -1.2883090973 -1.2459356785
-1.1166809797 -0.9294796586 -1.3743467331
1.3698223829 -0.18942391872 1.4445153475
1.3444274664 0.20687708259 1.4661159515
1.045766592 -0.016777403653 1.7047325373
-0.11228885502 0.039765883237 -1.9963964224
-0.47258260846 0.037481229752 -1.9428896904
-0.24718084931 0.43559581041 -1.9357330799
0.60339361429 -1.0659896135 -1.5806202888
0.43417578936 -1.3420724869 -1.4177868366
0.19055643678 -1.0636655092 -1.6829763651
-0.28282228112 -0.36879739165 -1.9450769424
0.65815293789 0.00012798700482 1.8883579969
0.80714094639 -0.40205952525 1.7849199772
-0.82436418533 0.61935275793 -1.7134406567
-0.060775533319 -0.00061998190358 1.998929739
-0.43879836798 0.046045791358 1.9506604671
-0.27732270956 -0.34990614653 1.9495601654
-1.0031083822 0.86026465893 1.5010045767
-0.82128024101 0.62796527147 1.711966753
-0.67675888538 0.99334025383 1.596342206
0.50510042906 0.91676431894 1.7042216063
0.087229825556 0.95485395193 1.7550400496
0.2449464649 0.62553566694 1.8835890293
1.9064589739 0.58187776804 0.15236148238
1.7990987301 0.7281460166 0.47987756133
1.9174824953 0.33518847823 0.45385673642
1.6340491772 -0.18999700248 -1.1343861818
1.8195421696 -0.26713815331 -0.78592824936
1.6360491514 -0.5900016427 -0.98690789938
1.8523696661 0.12423279881 -0.74060899019
1.9472961426 -0.091732159257 -0.44569420815
1.9295639992 0.31385070086 -0.42128035426
1.8829455376 -0.47784131765 -0.47366145253
-0.11314788461 -0.79291111231 -1.832567215
0.28197970986 -0.70418947935 -1.8500052691
-0.29099217057 -1.0989875793 -1.6454069614
-0.52234077454 -0.72303104401 -1.7900656462
-0.53040623665 -1.3300199509 -1.3962059021
0.051408175379 -1.3454020023 -1.4787786007
-0.62293273211 -0.29090023041 -1.8779952526
-0.91400265694 -0.71183925867 -1.6301327944
1.2419635057 1.4205137491 0.6626906991
1.5090310574 1.2331740856 0.44699037075
1.2761306763 1.5126519203 0.27792683244
1.4236191511 1.1317129135 0.83174270391
0.30327406526 -1.8687614202 -0.63996297121
0.54697692394 -1.8910698891 -0.35207760334
0.23534455895 -1.970035553 -0.25113222003
-0.1018287614 -1.9502196312 -0.42484864593
-0.068841077387 -1.9975476265 -0.056893657893
-1.7644556761 -0.54890990257 -0.7647497654
-1.7534040213 -0.79573696852 -0.53914541006
-1.9046185017 -0.44644111395 -0.41606369615
-1.6021882296 -0.85329252481 -0.83905756474
-1.5880557299 -0.5842474699 -1.0660245419
-1.1552826166 -1.5505547523 -0.51105237007
-1.4509103298 -1.2604509592 -0.5504847765
-1.2400670052 -1.3188970089 -0.84734809399
1.7899971008 0.5289042592 -0.71806752682
1.849448204 0.6829675436 -0.32564082742
1.6746296883 0.88356405497 -0.64367491007
1.5565425158 0.72788965702 -1.0234649181
1.4360771179 1.0866576433 -0.86515545845
-0.98766732216 1.6343278885 -0.5944133997
-1.3096544743 1.4439598322 -0.44539868832
-1.0130438805 1.7121183872 -0.20173999667
-1.5055295229 -1.1843402386 0.57284033298
-1.3169881105 -1.2261705399 0.87045776844
-1.5151787996 -0.93209308386 0.91396540403
-1.7292467356 -0.80923146009 0.59179216623
-1.689560771 -0.58921676874 0.89072239399
-1.3790111542 0.68050098419 -1.278485775
-1.3048095703 0.99467289448 -1.1433303356
-1.5383982658 0.83028829098 -0.97122532129
-1.7091492414 0.53999644518 -0.88245630264
-1.5962028503 0.45126760006 -1.1161791086
-1.4583761692 1.1255800724 -0.77829957008
-1.1421734095 0.52413100004 -1.5549695492
-1.1908801794 1.409581542 -0.77116370201
-1.589692235 1.129052043 -0.44297641516
-1.6899354458 0.85135519505 -0.64735043049
1.3711013794 1.4020388126 -0.39123651385
1.2360194921 1.5682339668 -0.11343334615
1.4806913137 1.3434358835 0.051383730024
1.0683994293 1.6157830954 -0.49364134669
1.6230517626 0.33133375645 -1.1169282198
1.4124705791 0.48244675994 -1.3302000761
-1.6807783842 1.0733500719 0.14582033455
-1.8383227587 0.75615811348 0.21800506115
-1.721952796 0.87129926682 0.52449595928
-1.7535712719 0.58201950788 0.76473122835
-1.5758287907 0.83656996489 0.90121054649
-0.90887498856 1.6564999819 0.65574091673
-1.1011890173 1.6263701916 0.37555420399
-1.1913734674 1.460471034 0.66562008858
-1.2576733828 1.5514546633 0.10393172503
-1.3787744045 1.4096699953 0.32612884045
-1.6204948425 0.47299540043 1.0722900629
1.3804308176 -0.34506559372 -1.4053337574
1.4436314106 -0.040289502591 -1.3833053112
0.92425751686 0.12862110138 -1.7688999176
0.64824092388 -0.27866023779 -1.8712848425
0.52586275339 0.056798100471 -1.9286422729
0.25429615378 -0.1125311628 -1.9804542065
0.19089466333 0.25329008698 -1.9746624231
0.83016914129 0.88076263666 -1.5915076733
1.0748915672 0.58877152205 -1.5793074369
0.80239444971 0.56531196833 -1.7425780296
-0.54201227427 -0.66925263405 1.8040459156
-0.62031388283 -0.27564260364 1.8809143305
-1.941209197 0.44829827547 -0.17469629645
-1.8473597765 0.74118757248 -0.18074586987
-1.8473699093 0.57638561726 -0.50523024797
-1.7326020002 0.94001692533 -0.33550828695
0.54215538502 0.39784017205 -1.8835976124
0.17143692076 0.62104851007 -1.8933771849
0.51675832272 0.75235140324 -1.7789469957
-1.871370554 0.23575282097 -0.66493672132
-1.6907646656 0.051468104124 1.067002058
-1.4837424755 0.22078898549 1.3214176893
-0.78132349253 -1.7635493279 -0.52851718664
-0.9365311861 -1.7551237345 -0.19793044031
-0.39849615097 -1.859636426 -0.61860179901
-0.60101252794 -1.7296508551 -0.80186843872
-0.49693256617 -1.9104186296 -0.318913728
-0.88802844286 -1.5759534836 -0.84746015072
-1.2330268621 -0.47998857498 1.4995120764
-1.3776946068 -0.71218055487 1.2621358633
-1.0983500481 -0.77561736107 1.4805166721
1.9084801674 -0.13335154951 0.57959502935
1.8154264688 -0.44050988555 0.71421551704
1.9226602316 -0.43415158987 0.33888858557
1.7580831051 -0.11225049943 0.94659328461
1.7698472738 -0.77501094341 0.51600265503
-1.1351064444 0.51326817274 1.5637233257
-0.62106668949 -1.5306270123 -1.1235842705
-1.2189722061 -0.96985155344 1.2543327808
-1.4210766554 0.69323521852 1.2234615088
1.6859769821 -1.0690535307 -0.11979977041
1.838598609 -0.74891483784 -0.24220457673
1.8603675365 -0.72493475676 0.11499997973
1.9386353493 -0.48308181763 -0.082989998162
0.22010837495 -1.1235945225 1.6398038864
0.081389978528 -1.3830417395 1.4424247742
0.44665965438 -1.3474647999 1.4081296921
-0.13203500211 -1.1006494761 1.6641104221
-0.69283175468 1.8116805553 -0.48747545481
-0.59405493736 1.7264199257 -0.81637448072
-0.35073566437 1.8624093533 -0.63901782036
-0.44023633003 1.9283317327 -0.29372483492
-0.19148898125 1.731410265 -0.98225218058
0.48148018122 -1.9186757803 0.2937541008
0.67630112171 -1.8005092144 0.54812973738
0.36524537206 -1.8408406973 0.69101428986
0.62245041132 -1.6779567003 0.89182370901
-0.30827510357 -1.3707350492 1.4226189852
-0.49810931087 1.5942943096 -1.1000154018
-0.8569316864 1.5414481163 -0.9430834651
1.6916787624 -0.94056260586 -0.5012640357
0.10077614337 -0.82772427797 1.8177831173
-0.18314348161 -0.71678334475 1.8580548763
0.03794297576 -0.52985322475 1.9281251431
0.38659349084 -0.54680252075 1.8844496012
0.15829870105 -0.25099670887 1.9776962996
-1.9423584938 -0.45092198253 0.15502952039
-1.8659356833 -0.69909584522 0.17070171237
-1.8595334291 -0.54388070107 0.49606868625
-1.9074946642 -0.58887475729 -0.11660235375
-0.23262935877 1.7548254728 0.93041199446
-0.36473807693 1.8603965044 0.63708305359
-0.59749656916 1.7149504423 0.8376507163
-0.65802025795 1.8070520163 0.54921114445
-0.52603757381 1.9095244408 0.27736231685
-0.88481926918 1.5041862726 0.97523629665
-0.56485033035 1.5502864122 1.1304142475
-0.78771042824 1.3231291771 1.2746714354
-1.6308248043 -0.26584944129 -1.1266473532
-1.4303472042 -0.35960799456 -1.3509449959
-1.4882241488 -0.076613903046 -1.3329623938
-1.1879924536 -0.087247207761 -1.6062930822
-1.2099562883 -0.54186701775 -1.4974646568
-1.3774561882 -0.67265433073 -1.2845396996
-0.001463081222 1.9027341604 0.61517369747
-1.7717876434 -0.26438778639 -0.88789111376
-1.3979997635 -0.90518039465 -1.1071549654
-0.82731604576 1.7921173573 0.32017275691
0.87009125948 1.371355176 1.1671983004
1.0346161127 1.1156722307 1.298022747
1.1640543938 1.2718567848 1.0135341883
1.3188669682 0.97811931372 1.1418879032
1.1378697157 0.85253709555 1.4066016674
0.74238431454 1.182523489 1.4318886995
0.87517863512 0.90867716074 1.5518541336
1.1139421463 1.2804191113 -1.0564032793
0.84685474634 1.3204286098 -1.2386657
0.95160090923 1.5174632072 -0.88959658146
1.2061828375 1.4283847809 -0.70869499445
-0.50618994236 -1.739618063 0.84560751915
-0.30002236366 -1.8219233751 0.76777511835
-0.19090177119 -1.7160764933 1.0090239048
0.057415474206 -1.8122285604 0.8441554904
0.13795430958 -1.6569632292 1.1094142199
-0.12573891878 -1.5584506989 1.2470319271
-0.40031552315 -1.5615152121 1.1829826832
1.5707390308 0.07917650789 1.2354720831
1.7122012377 0.26157644391 0.99982345104
1.5551470518 0.38663265109 1.1966142654
1.6397380829 0.59684467316 0.97657632828
1.4620445967 -1.3645609617 -0.0034279413521
1.4319564104 -1.3569148779 -0.32663121819
1.2658140659 -1.5408135653 0.15374749899
1.3784065247 -1.3813811541 0.43728548288
1.1135337353 -1.6189904213 0.37184754014
-0.64206689596 0.34939134121 -1.8615168333
-0.47720822692 0.71887397766 -1.8039256334
-0.80330085754 0.029454691336 -1.8315472603
-0.96086227894 0.27760475874 -1.7321565151
0.82220071554 0.59512764215 1.7227649689
0.71676152945 1.7050437927 0.76098948717
0.9194688201 1.6961112022 0.52049326897
0.54945737123 1.8396838903 0.55953335762
0.14185197651 1.7600274086 0.93907034397
0.18594677746 1.2030290365 1.5866084099
-0.64149695635 0.35346373916 1.8609701395
-0.4863563776 0.74108535051 1.7927719355
-0.33233815432 0.48607683182 1.9111628532
-0.94579726458 0.28878733516 1.7383337021
-0.78280627728 0.042978774756 1.8398677111
-1.1273132563 -0.040784548968 1.6504406929
[...]
CELL_DATA 1242
SCALARS cell_data_0 double
LOOKUP_TABLE default
1.78096115816e-08
3.04692084797e-08
3.02301595733e-08
5.8308444e-09
2.06657829818e-08
5.998469993e-09
3.9649337794e-08
9.46712665555e-09
1.75782839764e-08
1.61796956651e-09
2.16254896931e-08
1.74456411532e-08
4.92887676226e-08
2.33564943823e-08
1.99280267015e-08
2.59400390883e-08
1.91775228615e-08
2.48359014395e-08
9.59996646595e-09
3.27819496265e-08
3.3210292909e-08
4.48295213383e-09
2.70609531163e-08
1.05616986581e-08
1.11590664125e-09
1.594819187e-08
2.18586178294e-10
1.32635736055e-08
1.64746011175e-08
1.71909449992e-08
1.31198321956e-08
4.52425947573e-09
5.86866851647e-09
1.33379680244e-08
2.56086982266e-08
5.1021435718e-09
1.91616768604e-08
2.15845084076e-08
2.01437355762e-08
7.90946854149e-09
2.54775368887e-08
2.65215962861e-08
2.13433407479e-08
1.21111928054e-08
3.61032119197e-08
6.00751651784e-09
3.89202806575e-09
7.30071062522e-09
4.558638643e-08
1.5044272381e-08
4.5375772915e-08
2.82988138852e-08
7.4494993215e-09
2.53486324567e-09
1.21904802815e-09
1.22182480135e-08
1.63214158569e-08
8.76169898407e-09
1.35930497718e-08
3.0124477053e-08
8.84830846675e-09
9.78387153706e-09
7.20650931819e-09
1.40123923477e-08
2.68806585198e-08
2.75840522471e-09
2.09429061147e-09
1.78184759663e-08
2.77225697873e-09
4.12269589229e-08
3.06624341028e-09
1.60086192333e-09
4.42628484674e-09
4.86442645521e-08
2.88678477499e-08
8.49959897972e-09
1.7619287471e-08
5.40087623392e-09
9.4077878157e-09
9.93168332086e-09
3.12524906587e-08
3.34883018773e-08
1.00950653478e-08
1.65848298411e-08
8.09799287297e-09
4.30278184522e-08
2.54117135742e-08
8.85086956886e-09
3.57974022118e-08
1.41423596662e-08
2.11737727926e-08
1.668670765e-08
6.97659927833e-10
2.86788125869e-10
5.02426303532e-09
1.98718615514e-08
3.98314192555e-08
1.81026944117e-08
1.74347002535e-08
2.78684628144e-08
3.77137845888e-09
9.53977373825e-10
2.0134641002e-08
2.5602819572e-08
2.89781128875e-08
1.56952048603e-08
1.30760235396e-08
1.41465218118e-09
9.3098138007e-09
1.3620663102e-08
7.7601933592e-09
9.83991748758e-09
9.54766021156e-09
7.49239512724e-09
4.22282562535e-09
1.793612088e-08
1.70169780826e-09
4.37757935147e-09
3.29290770183e-08
9.4739565231e-09
1.65338280186e-09
1.60453523604e-08
7.41939412933e-09
3.43245287057e-09
3.13006609345e-08
1.44432768561e-08
2.11879891954e-08
3.2176756499e-09
8.05635493684e-09
2.25371875601e-08
1.08633670114e-09
1.25972463768e-08
5.96929999254e-09
4.18151034055e-11
6.80352669488e-10
3.20681555257e-09
2.02895731749e-08
1.29432775933e-08
1.2191706795e-08
1.19265249483e-08
1.06297832273e-10
5.54395903581e-09
1.43941803917e-08
3.07735051017e-08
1.6849850818e-08
7.70802246609e-09
2.84534788846e-09
7.54842011334e-09
2.54169575338e-09
1.58678857989e-08
1.1626706275e-08
1.3363388082e-08
7.96521218047e-09
2.90259088757e-08
1.04200748958e-08
4.04702846296e-09
1.40392792979e-08
4.81154449719e-09
3.58420979546e-09
1.1873091598e-10
1.57665144732e-09
1.65732683357e-08
8.17599299231e-09
1.40181826561e-08
6.73127596064e-09
1.98295376063e-09
4.15817610445e-09
2.13654597935e-09
4.32693458726e-09
1.82436166261e-10
5.23318443274e-09
1.99488210585e-09
4.17346982728e-09
2.2996700085e-08
1.52939573335e-08
5.87581624918e-09
9.76429725133e-10
1.7154513889e-09
5.67179379605e-09
2.43924304546e-08
1.7373138172e-08
1.42235970669e-09
4.05764185295e-08
4.41231888754e-09
2.72735273449e-08
3.84977551704e-09
1.80359194269e-08
2.74912793044e-08
1.5302198862e-08
4.71162862318e-09
1.21048201836e-08
1.70027241333e-08
8.62284403343e-09
5.5180405702e-09
1.24863918174e-08
2.42834164287e-08
1.07985248718e-08
4.80133232227e-09
9.31319325519e-11
1.83108853008e-09
1.55117495597e-08
4.88907688416e-09
6.25634543773e-10
6.40974879258e-09
4.45246425757e-09
2.45747155565e-09
2.04583168817e-09
1.06031843371e-08
7.3991518525e-09
1.24701434894e-08
3.71001690946e-09
1.25061053254e-08
1.55297669773e-08
9.89484043234e-09
1.19570690119e-08
1.29972665709e-08
1.77564629274e-09
1.01617895426e-08
8.91767241629e-09
3.70326110394e-09
2.62540587359e-08
1.24028633696e-08
1.32921048497e-08
2.29634390281e-09
7.29503237994e-09
6.11458842752e-09
3.2338474416e-09
4.42268323629e-09
2.18427448359e-09
1.03439950989e-08
6.11156674418e-09
1.08562473872e-08
1.63190253452e-09
1.28582556195e-08
1.88971045803e-08
1.83563586846e-08
1.20708594849e-08
5.82504416727e-09
9.80500477307e-09
6.12208067533e-09
5.65952699097e-10
4.29112515097e-09
2.6329422491e-09
1.99259019014e-11
5.36971954959e-09
1.29972729075e-08
8.84234672585e-09
1.14188502513e-09
3.09885518737e-08
2.22860075155e-09
1.31846416123e-08
2.38676555719e-09
1.36502666708e-08
1.28591673979e-08
1.58105420324e-08
3.07749158603e-08
1.99762843057e-08
9.25029860839e-09
2.67713084734e-08
2.19228182618e-09
9.77907312952e-09
5.35938682226e-09
2.31825503382e-08
1.07125627481e-08
6.76244492342e-09
2.29809428718e-09
4.17098420699e-09
2.35242193295e-09
9.74942904195e-10
2.45201568188e-09
1.14351759833e-09
1.20999685819e-08
6.59712794738e-09
2.72689433429e-09
1.76157613016e-08
3.78607208797e-09
2.95933331904e-09
4.26111403344e-11
1.12957778158e-09
4.53778077133e-09
4.2517053522e-09
9.69429215122e-09
1.48430972141e-08
1.08904558039e-08
3.85025324951e-09
1.3222415863e-09
4.05275997356e-09
1.37438573092e-08
5.23937293686e-09
1.51251329358e-10
8.01417544721e-10
2.20542151716e-08
5.02890601116e-09
1.00240037743e-08
1.53374924747e-09
1.44719222482e-08
5.16866645216e-10
2.58137937918e-08
1.09649512527e-08
9.89618543944e-09
3.64687984198e-08
1.00675708127e-08
1.60811257475e-08
1.14641654127e-08
3.59177092349e-09
7.01041354374e-09
5.2695751345e-09
3.559641139e-08
1.42738851858e-10
6.30566516825e-09
6.01383623011e-09
2.56972370529e-09
3.25833404793e-09
1.44087301512e-08
3.62416468396e-09
2.19309639786e-08
1.20930182649e-08
8.54003781522e-09
2.67341131176e-09
4.83376503016e-09
4.09932258541e-09
2.9390884501e-09
4.3326391302e-09
2.97212511406e-09
2.86580231347e-09
1.1147533123e-08
1.68508582566e-08
7.85341965189e-09
1.55533173907e-08
2.84006743126e-09
7.63784765832e-09
1.93031511123e-09
1.13984152004e-08
6.84991027732e-09
1.79751534033e-08
9.89744502958e-09
2.80824185935e-08
1.5721925391e-08
1.00696834721e-08
7.85047313137e-09
7.87062150876e-09
3.62550531184e-09
3.57622636771e-09
4.29994529344e-10
6.10193957893e-09
3.38113726172e-09
8.57237689993e-09
5.22562868227e-09
8.10097380875e-09
1.88963975753e-08
1.72064472865e-08
5.43200717025e-09
1.00634028969e-08
3.12706598518e-09
3.26479839147e-09
2.80024730962e-09
8.81166484929e-09
2.71170985446e-09
1.54260403767e-08
1.33530288052e-08
5.4583903426e-09
3.4398337084e-09
2.23959906249e-09
1.68920959811e-08
4.99933820836e-09
1.65009762273e-09
4.52614699599e-09
8.36696257055e-10
2.83081066525e-09
6.71203991633e-09
5.61155479764e-09
5.50085217185e-09
3.30991304679e-09
1.05807555428e-09
2.90627140651e-09
1.33505765631e-08
6.52487491574e-09
1.68659954302e-12
1.1783401704e-08
1.09651318132e-09
9.79021762795e-09
9.67022251579e-10
2.10520477365e-08
1.00062995462e-08
2.04669835655e-09
1.4897536651e-08
1.11907630419e-09
2.13558894679e-08
7.57245975683e-09
1.12837929786e-08
1.49892574776e-08
4.16653053668e-09
2.33795479425e-09
6.73921889491e-09
6.41323391754e-09
8.80144267253e-09
6.23694354995e-10
1.49352266267e-08
1.26982830382e-08
8.92226312541e-09
1.07789335104e-08
8.24901977742e-09
3.44868148086e-09
2.82442123622e-09
5.00061900449e-10
9.98475155227e-09
2.08808157482e-09
1.1172095524e-08
7.13862025487e-09
1.82766831929e-09
7.8344318039e-09
5.5755108266e-09
3.3454814899e-09
5.87280142494e-09
1.9211602314e-08
5.18002784192e-09
1.26605415953e-09
1.35416273736e-09
6.61701013881e-09
4.09404496613e-09
1.660532287e-09
9.39351349899e-12
1.25743811978e-08
1.94951630886e-09
8.07391415061e-10
2.85751774629e-09
5.5177498889e-09
9.09155608607e-09
1.21528732536e-08
8.27892770643e-09
8.4661050197e-09
5.93006194749e-10
1.04610220988e-08
1.01545341369e-08
7.89436206595e-09
6.21518777016e-09
1.25489499926e-09
1.38372521952e-08
2.48066036844e-09
8.11438699815e-10
3.14646074786e-09
3.07057911562e-09
2.58834959968e-09
9.0218223996e-09
5.13168078096e-09
2.04800912833e-09
1.47876004536e-08
5.39208178592e-09
2.95191902655e-09
5.85328566185e-09
1.60869099522e-08
1.98254274891e-08
5.94226132613e-09
3.49474074435e-09
3.6393091034e-09
3.96478782345e-09
1.95582832393e-08
9.66028426789e-09
9.36801611922e-09
1.46626348297e-08
8.47510935587e-09
1.01143360396e-08
7.74808976252e-10
4.26616439416e-09
2.11128611968e-09
9.97427305705e-09
2.03606881825e-08
2.78059170622e-09
1.34002077665e-08
9.69731689712e-09
8.19628601509e-10
8.35706924704e-09
1.10212658064e-08
1.3497341555e-09
2.89996384413e-08
1.65984173732e-08
5.32035488945e-09
1.43143663287e-08
4.54472209876e-09
6.87625137559e-09
3.42216557538e-09
7.25169825921e-09
1.23508490923e-08
9.79005631314e-09
7.16481874393e-09
1.37187345078e-08
9.61741106065e-09
1.27347031855e-08
4.45895431445e-09
2.4547978066e-09
3.86440043577e-09
5.77768350518e-09
1.31114856055e-08
7.781606017e-09
1.14139233256e-08
9.11099109996e-10
2.86011827519e-09
4.15393593651e-09
3.87271720442e-09
4.55638024205e-09
1.41226790062e-09
1.30990183197e-08
6.51546402603e-09
6.90606374e-09
6.75807898796e-09
1.68119702065e-08
9.7027885201e-09
2.99665411793e-09
1.56830441443e-09
1.27165647385e-09
5.16335940932e-09
8.73828471435e-09
7.17060715186e-09
6.54796200297e-09
7.23441489386e-09
2.06279609027e-08
5.94354295932e-09
1.37594062703e-08
4.15760576466e-12
3.66303962444e-09
9.90419385096e-11
4.46149848464e-09
6.52908161343e-09
9.84767355177e-09
5.59188990957e-09
2.54724759615e-09
2.43173934527e-10
9.13988033349e-09
1.0577615358e-08
2.15241071582e-09
6.45798429467e-10
3.54659526416e-09
2.78860757884e-09
2.38368133196e-09
3.58912616951e-09
1.4422266033e-08
1.72842734586e-09
2.36417682108e-09
3.56161815828e-09
2.66606111862e-08
2.31388282872e-08
3.72238165838e-10
1.51753711036e-09
5.06626287147e-09
1.03904648755e-08
3.83871579397e-10
1.43500996118e-09
1.40385598631e-09
3.11111512911e-09
5.88147333981e-09
9.21275466464e-10
1.04133470761e-09
1.67733602555e-09
7.34934039848e-09
3.442938898e-09
1.7567683516e-08
1.31558905132e-09
5.79892426314e-09
3.05051222785e-09
1.02381109308e-08
6.62768714263e-09
4.49752892622e-09
1.26239384401e-08
2.01468629401e-09
1.1329702719e-08
3.40105016692e-09
1.60313040137e-09
3.31386559313e-09
1.72954863544e-09
6.06262514543e-09
1.27606841346e-08
3.94197025881e-09
1.5304111501e-08
4.93444421737e-10
6.19571229876e-09
6.94489334483e-09
2.03343317298e-08
1.23500048355e-08
4.96227787724e-09
1.65602283717e-09
8.41054269412e-10
3.13167967708e-09
1.26636087141e-08
1.26555236768e-08
9.99275863958e-09
2.44303059553e-09
3.05411715999e-09
6.94773972752e-09
6.92708398549e-09
4.74555033486e-09
1.08451783923e-08
4.98165804259e-09
8.01728615765e-09
4.19600224644e-09
4.27935771211e-09
6.46525025328e-09
2.83486705453e-08
1.85845975778e-08
5.83389430274e-09
1.97466702753e-09
6.87389657789e-09
1.1836597381e-08
1.04555776371e-08
4.23038039412e-09
9.41174458751e-09
1.03871262285e-09
1.63452557494e-08
2.55374191329e-09
4.62361593968e-09
1.60545766757e-09
3.62067041647e-09
9.6313125691e-09
2.06016315793e-10
3.54706133441e-09
5.3954817588e-09
8.41384952144e-09
6.60288908957e-09
6.08894520729e-09
5.66557458412e-09
1.93413750177e-09
2.97748572752e-09
2.08726385249e-08
8.31064459537e-09
4.77852099388e-09
6.62271880918e-10
3.2971055908e-09
3.0379428886e-09
7.71936365533e-10
1.14457075978e-09
1.20637620128e-08
1.1871836529e-08
6.10359953151e-09
3.17265302411e-09
1.52168267644e-08
1.53967496847e-08
7.55551815336e-10
4.48628031777e-09
1.11566129425e-08
6.6653591416e-09
7.91843047249e-09
2.17406170813e-08
2.73519965249e-09
1.94509579711e-09
1.72797101732e-09
1.12736057698e-09
1.95575645202e-08
5.74779626064e-09
1.04567411372e-08
6.05651863145e-09
1.61544157841e-09
1.13019807329e-08
1.38115658588e-08
1.95058447025e-08
1.55357937114e-09
7.03130457428e-10
1.80634619203e-09
9.50895836752e-10
4.01083933716e-09
2.24961012574e-09
2.62832160988e-09
4.30021688534e-09
3.76255851259e-10
9.78615380773e-09
6.16750214704e-09
1.08414356933e-08
1.39530254806e-08
1.15322066396e-08
3.24710701688e-09
7.83169626579e-09
5.40724407551e-09
3.18889716759e-09
1.544708385e-09
9.64084418229e-09
1.42987280818e-08
8.50904032175e-09
8.54009091901e-09
9.88002663831e-09
1.54658539925e-08
1.01872299741e-08
1.29467497002e-08
4.19360314337e-08
2.76186143289e-08
2.45924766991e-10
7.32421896699e-09
9.62654607227e-09
1.20470514395e-08
1.06812196946e-08
2.10550050471e-10
4.31234734655e-10
1.9798909261e-09
5.86350662168e-09
6.14051750317e-09
1.26329665099e-09
9.02011180095e-10
6.07795237211e-09
8.13822097195e-10
1.3610197096e-08
5.36269512118e-09
1.07437438584e-08
6.45401300102e-09
1.33539220161e-08
2.8677184661e-09
3.04736011745e-09
6.02218906977e-09
7.96044701465e-09
3.90426126745e-09
9.34264538109e-09
2.90221840718e-09
2.97634412929e-09
3.11161795841e-09
7.46091075617e-09
8.19236192366e-09
9.14387393517e-09
4.34811112493e-09
8.64630453404e-10
1.1609682784e-08
4.70291759128e-09
7.14129440639e-09
2.46918301166e-10
9.69625788105e-09
1.02229959457e-10
4.92646137116e-09
1.68595634393e-08
2.75416278144e-09
8.7999873247e-09
3.2864841585e-10
1.58922513077e-09
1.6283280273e-09
7.4744162583e-09
1.09175775973e-08
5.99699648846e-09
1.18987321428e-08
8.72662681113e-09
3.87911840605e-09
1.10324670423e-08
3.3179294125e-10
2.06303532805e-09
4.04413170947e-09
9.11704091857e-09
4.45689911847e-09
8.02324341752e-10
1.7057506408e-09
5.22923477837e-09
2.14246464837e-09
6.83463892657e-09
3.07349606521e-09
5.44383373339e-09
2.55870982292e-09
3.82237678294e-09
1.83594971958e-08
2.09524922571e-09
2.82350967923e-09
5.73970782565e-09
5.62604613977e-09
4.08786336761e-10
1.05583072188e-09
2.99963298837e-11
5.54313645226e-09
2.1301327579e-09
1.4711083656e-08
8.05973348961e-09
3.97755272624e-10
1.15600536988e-08
8.29535811133e-09
3.85715157467e-09
3.84162072946e-09
2.01161220414e-09
6.14777939707e-09
2.80364319005e-09
1.9360280105e-09
5.05042010368e-09
2.33382445594e-09
2.49042165621e-09
8.16880959892e-09
1.82924659194e-09
1.27949514082e-09
1.72214728015e-08
1.55017606317e-08
9.03618110813e-09
5.8138548871e-09
7.36490282446e-09
7.72755662941e-09
1.14865889755e-08
7.01334639235e-09
5.87352807213e-09
7.8937665596e-09
1.33355550157e-08
7.3268830161e-09
6.67007035077e-10
1.14605732836e-08
4.78159704749e-09
9.42349566005e-09
4.75241466375e-10
5.74897774347e-09
4.65049416043e-09
2.8548183111e-09
8.59278570384e-10
2.98328969664e-09
2.28677307582e-10
9.95474241525e-10
7.68712891236e-10
3.57752788618e-09
1.52690729894e-09
3.0326395386e-09
5.04943977429e-10
2.66187502596e-09
5.97422191549e-09
7.73035755975e-09
2.37561914417e-09
2.55354928003e-09
5.75831401189e-09
3.83070577489e-09
1.77486991137e-08
3.18640763949e-09
5.18157384988e-11
3.05414459809e-09
8.08758548305e-09
7.36006279903e-10
4.11261680475e-09
4.15435790456e-09
4.71317776252e-10
1.08705448145e-08
7.5080931323e-09
3.51161214914e-09
4.99857275461e-09
6.34768091225e-09
5.40745028101e-09
9.84669306431e-09
7.6824868465e-09
1.32074440784e-10
6.67014905901e-09
1.3132106033e-09
1.30336960031e-09
2.45347497247e-09
1.09241523439e-09
1.2406546809e-08
1.00268383158e-08
1.38088705281e-08
1.74775795808e-08
1.94930919995e-08
2.49994046234e-09
6.17286682556e-09
8.04718473904e-09
3.58199813787e-09
3.22409926196e-09
2.63578069092e-10
6.21416292044e-10
5.84307721573e-09
3.42299738299e-09
2.96347359879e-09
1.12091197787e-08
1.82934872038e-09
6.18899831118e-09
8.77131437762e-09
2.73493192885e-09
3.03489744421e-09
8.02976116116e-09
1.05019837379e-09
2.91329094966e-09
1.80661290864e-09
1.18621886973e-08
5.20409746076e-09
4.55645759806e-10
7.76491192494e-09
1.71808164867e-09
2.12518812119e-09
1.16114730403e-08
6.4558790946e-09
1.67570113168e-09
9.73927483425e-09
2.401090428e-09
6.54048097178e-09
5.94410558766e-10
7.25251972099e-09
3.26674245999e-09
4.88556666545e-09
2.10759467366e-09
5.05608324327e-09
3.03002018121e-09
1.89740125387e-09
4.5462303856e-09
3.23850688475e-09
1.24044585585e-08
8.46351652472e-10
9.47015365562e-09
6.5772514813e-09
8.62158623639e-09
4.584479885e-09
8.22260467075e-09
5.86301854232e-09
1.24996955391e-10
5.85209205856e-11
2.06354047577e-09
4.57023433282e-09
1.12358176669e-08
1.61625510669e-08
1.80536150926e-09
1.07232352325e-08
6.02938356899e-09
4.32106749441e-09
5.7604286943e-10
2.75751029604e-09
7.75003796165e-09
2.84971421118e-08
7.29009848291e-09
3.03715403337e-09
1.63815156161e-09
5.33599996723e-09
2.13085249772e-09
3.9863805274e-09
2.92732013676e-09
2.91437180641e-09
8.93171023888e-11
1.08628003099e-09
1.95703584446e-08
1.13073949315e-08
6.14763443932e-09
6.52054124251e-09
9.29425808195e-09
2.04697198317e-08
1.05875738749e-09
6.84116636489e-09
1.02865365485e-08
1.02928616197e-09
5.09640592745e-09
4.64987969416e-09
2.16675650704e-09
1.5840097956e-08
3.16616122514e-09
2.16223541276e-09
5.32744910738e-10
4.86164827242e-09
1.52158299384e-09
3.92151697284e-09
3.25592156945e-09
4.62731916e-09
1.81361060059e-09
9.48186337715e-10
3.94518538452e-09
8.40600101247e-09
1.12524872337e-09
1.01080720348e-09
2.85418476842e-09
1.38471491835e-08
7.01266504409e-09
2.22609012361e-09
2.59009174845e-08
1.32011315959e-08
8.02500861876e-09
1.05530060145e-08
3.38710488998e-08
8.25309301787e-09
8.2355493721e-10
6.92086280564e-09
5.38575801553e-09
8.19186581018e-09
1.11777691872e-08
1.72585053019e-09
1.63000159881e-09
1.86564147723e-09
3.02783190406e-09
5.34767176674e-09
2.22927183001e-09
7.95206377065e-09
8.64995874562e-10
2.10648305365e-09
1.07617014052e-09
5.92170330391e-09
2.99920425291e-09
7.27874965341e-09
2.77458743971e-09
6.48691726459e-10
6.55369312393e-09
2.10811950709e-10
2.4545062352e-09
3.4548054678e-10
7.39398058663e-09
6.39203316159e-09
3.99042750001e-09
3.16830354593e-10
2.43358871543e-09
4.133341247e-09
2.67214772878e-09
9.78597005787e-09
7.04779248934e-10
2.03716003543e-09
1.21625822546e-09
1.4640176387e-09
4.0506585521e-09
2.67471204474e-09
3.60765432735e-09
7.55336550601e-10
9.85459185579e-09
3.21707494068e-09
1.35885406725e-08
6.66362879825e-10
3.50300191754e-09
2.22225455541e-10
7.56033576777e-10
3.73357749749e-09
7.26849568097e-09
5.50577252281e-09
2.55207454314e-10
4.8681280698e-09
1.37054741047e-09
3.82687683963e-09
3.57302511831e-09
2.29763890198e-09
1.93540578073e-09
2.2587488408e-09
1.09319843825e-09
4.64337959593e-09
1.99143449502e-09
1.77350490486e-09
9.94673764986e-10
6.35040005639e-10
7.13421440799e-09
7.33621073801e-09
3.05382333148e-09
4.87813641758e-10
3.07151558712e-09
1.26475314114e-09
1.02857912793e-08
9.44022335044e-09
1.08521042373e-09
4.65858170583e-09
8.09802726635e-09
3.314765796e-09
6.598346396e-10
7.80685912665e-09
2.05532338765e-09
4.09095890155e-09
4.33054415018e-09
3.42162573409e-09
3.41622879641e-09
3.9333563111e-10
3.2253187675e-09
2.83943239843e-09
3.57734248372e-09
2.03924116037e-09
1.1530361125e-09
2.5132645414e-10
1.50908370058e-09
2.49365040049e-09
1.11541882108e-09
1.72492926158e-09
1.4821706972e-09
1.205224651e-09
3.78505379704e-09
6.55794631926e-09
7.22846447858e-09
3.46163988309e-09
7.54794481089e-09
6.90840224572e-09
4.23828436515e-09
4.11144987745e-09
7.78341354486e-09
1.01544560891e-08
4.62865761963e-09
5.28285836228e-09
3.68950366298e-09
2.99352860347e-10
6.97970034476e-10
8.16733817158e-09
5.33169421562e-09
2.38300666392e-09
3.09584850607e-09
3.39631909946e-09
6.16921584205e-09
1.69302859768e-09
4.8219011604e-09
7.27539803577e-09
7.68039655606e-09
1.4433603082e-08
8.51152394129e-09
7.73083802764e-09
2.57041002884e-08
4.69804205094e-09
4.92972714746e-09
6.99688038718e-09
4.09644167345e-09
7.79959395211e-10
5.90199605761e-09
3.77208867318e-09
8.04224923359e-09
8.95906015248e-09
2.42314949152e-09
2.23861253763e-09
4.50328110832e-09
6.6356148073e-09
1.28811242442e-08
2.02545220542e-09
9.07512840186e-09
1.9871774309e-09
1.23105796146e-08
1.48101678737e-09
8.62274112496e-09
7.349544356e-10
4.07460439461e-09
3.77006044879e-09
6.83227961561e-09
5.37199961836e-10
3.71081447387e-09
1.10255727532e-09
2.62993307624e-09
7.56093377838e-10
5.8976457438e-10
4.70224504883e-09
6.33074801448e-09
6.89476553422e-09
3.89181422577e-09
1.37864117427e-08
6.7974670217e-09
1.82766912632e-08
5.36576119886e-09
3.13060261015e-09