# vtk DataFile Version 3.0
File Name: Molecule/sphere_cent/sphere_cent_0-s3.vtk
ASCII
DATASET UNSTRUCTURED_GRID
FIELD FieldData 1
TIME 1 1 double
0.0
POINTS 60 double
1.7015645504 1.0510548353 -1.9602462999e-05
0.98774588108 1.632155776 -0.58892130852
0.97859090567 1.645917654 0.56601631641
-0.0015285774134 1.9999361038 -0.00047914977768
0.0005602404708 1.7012014389 -1.0516146421
0.0013435406145 1.7010320425 1.0518060923
-0.9998716116 1.6178859472 0.61802363396
-0.99991750717 1.6178612709 -0.61799019575
-1.7015545368 1.0510447025 0.00035349043901
-0.61841744184 0.99982875586 1.6178028584
-1.5982344151 0.64390695095 1.0088267326
-1.0516058207 -0.00036454299698 1.7012958527
0.56404203176 0.97767782211 1.6467285156
-0.0014140891144 0.032880559564 1.9956662655
1.0514160395 0.00094771292061 1.7013673782
0.64420229197 -1.0082241297 1.598529458
1.6173101664 -0.61879330873 1.0004973412
1.000053525 -1.6180016994 0.61750900745
3.952935117e-07 -1.7009780407 1.0519759655
1.7018609047 -1.0504635572 -0.00082364061382
1.9964023829 0.00046190587454 0.064429663122
1.6458687782 0.56533277035 0.97965997458
-1.0504755974 -0.00082502060104 -1.7018561363
-1.6187210083 -0.6174287796 -0.99892824888
-1.6178721189 0.61794233322 -0.99994283915
-1.9962879419 2.4681927243e-05 -0.034285500646
-1.7015610933 -1.0510332584 0.00037959319889
-0.61900627613 1.0008248091 -1.6170723438
-1.0002094507 -1.6182460785 -0.61666995287
-1.0000377893 -1.6180282831 0.61753767729
-2.5995002488e-06 -1.999805212 -4.1349205276e-05
-6.4300247686e-06 -1.7005271912 -1.0526195765
-1.5973455906 -0.6445915103 1.0079529285
-0.64474540949 -1.0082981586 1.5968983173
-0.66860371828 -1.0179072618 -1.5831404924
0.99926924706 -1.6191494465 -0.6161839366
1.0518120527 -0.00026914256159 -1.7010967731
1.5829982758 -0.66851466894 -1.0184645653
0.66771650314 -1.0184780359 -1.5826120377
0.00016385907657 0.062590412796 -1.9957779646
0.58920460939 0.98735070229 -1.6322999001
1.902110815 -0.32407432795 -0.52623325586
1.7022299767 -0.0019469208783 -1.0500563383
1.9027773142 0.32250586152 -0.52501398325
1.604055047 0.6397074461 -1.0080552101
0.32416260242 -0.52637821436 -1.9020388126
-8.6242598627e-06 -1.050617218 -1.7018178701
-0.32406195998 -0.52636164427 -1.9020816088
1.3759037256 1.17545259 0.85153740644
0.85149091482 1.375751853 1.1756893396
1.1754865646 0.85151034594 1.3758926392
1.3631376028 1.1881455183 -0.85479158163
1.1630167961 0.86438369751 -1.3786706924
0.85059654713 1.3764383793 -1.17558074
-0.32407140732 -0.52665388584 1.9020884037
-4.8001136747e-05 -1.0503284931 1.7020429373
0.32374241948 -0.52652221918 1.9021742344
-1.7020189762 -7.6559561421e-05 1.0504499674
-1.9021573067 0.32373428345 0.52641284466
-1.9021418095 -0.32381641865 0.52643853426

CELLS 116 464
3 0 1 2
3 1 3 2
3 1 4 3
3 2 3 5
3 5 3 6
3 3 7 6
3 3 4 7
3 6 7 8
3 5 6 9
3 6 10 9
3 6 8 10
3 9 10 11
3 5 9 12
3 9 13 12
3 9 11 13
3 12 13 14
3 14 15 16
3 15 17 16
3 15 18 17
3 16 17 19
3 19 20 16
3 20 21 16
3 20 0 21
3 16 21 14
3 22 23 24
3 23 25 24
3 23 26 25
3 24 25 8
3 4 27 7
3 27 24 7
3 27 22 24
3 7 24 8
3 26 28 29
3 28 30 29
3 28 31 30
3 29 30 18
3 26 29 32
3 29 33 32
3 29 18 33
3 32 33 11
3 22 34 23
3 34 28 23
3 34 31 28
3 23 28 26
3 31 35 30
3 35 17 30
3 35 19 17
3 30 17 18
3 36 37 38
3 37 35 38
3 37 19 35
3 38 35 31
3 36 39 40
3 39 27 40
3 39 22 27
3 40 27 4
3 37 41 19
3 19 41 20
3 37 42 41
3 42 43 41
3 42 44 43
3 41 43 20
3 44 42 36
3 36 42 37
3 20 43 0
3 43 44 0
3 38 45 36
3 36 45 39
3 38 46 45
3 46 47 45
3 46 34 47
3 45 47 39
3 34 46 31
3 31 46 38
3 39 47 22
3 47 34 22
3 2 48 0
3 0 48 21
3 2 49 48
3 49 50 48
3 49 12 50
3 48 50 21
3 12 49 5
3 5 49 2
3 21 50 14
3 50 12 14
3 44 51 0
3 0 51 1
3 44 52 51
3 52 53 51
3 52 40 53
3 51 53 1
3 40 52 36
3 36 52 44
3 1 53 4
3 53 40 4
3 33 54 11
3 11 54 13
3 33 55 54
3 55 56 54
3 55 15 56
3 54 56 13
3 15 55 18
3 18 55 33
3 13 56 14
3 56 15 14
3 10 57 11
3 11 57 32
3 10 58 57
3 58 59 57
3 58 25 59
3 57 59 32
3 25 58 8
3 8 58 10
3 32 59 26
3 59 25 26

CELL_TYPES 116
5
5
5
5
5
5
5
5
5
5
5
5
5
5
5
5
5
5
5
5
5
5
5
5
5
5
5
5
5
5
5
5
5
5
5
5
5
5
5
5
5
5
5
5
5
5
5
5
5
5
5
5
5
5
5
5
5
5
5
5
5
5
5
5
5
5
5
5
5
5
5
5
5
5
5
5
5
5
5
5
5
5
5
5
5
5
5
5
5
5
5
5
5
5
5
5
5
5
5
5
5
5
5
5
5
5
5
5
5
5
5
5
5
5
5
5

CELL_DATA 116
SCALARS cell_data_0 double
LOOKUP_TABLE default
2.35153306082e-07
8.83294442581e-07
4.24528382523e-07
6.51402078254e-08
5.25563662837e-07
2.15288577931e-06
3.25604923098e-07
1.22552281497e-08
2.94180950166e-07
1.95418826672e-06
4.00685221939e-07
7.47627124167e-07
1.99175965171e-07
3.59854986629e-07
2.41007009018e-07
4.99524878953e-09
4.35080985012e-07
1.02000621191e-06
3.53639503342e-07
2.96980966106e-07
1.69397386329e-08
2.18381946494e-07
3.01901218175e-07
2.0736380251e-08
3.18779666884e-07
9.49312033404e-07
2.40940700466e-07
3.78072388925e-07
1.95863378647e-07
1.7800450914e-06
8.17774867558e-08
2.20504840732e-07
3.03902037863e-08
1.59058287883e-06
2.28807927092e-07
1.77379540213e-07
1.40731992641e-07
1.15064376179e-06
3.19032298615e-07
5.81579840867e-07
3.45507873738e-08
1.31587043233e-06
9.22270113452e-08
5.19640201982e-08
1.02371099344e-06
2.65397959651e-06
1.26520438116e-06
1.04373113626e-07
3.69151427177e-07
1.70239341822e-06
1.55376160006e-06
8.06713693891e-07
4.79979270872e-07
5.06704457931e-07
2.79655968252e-07
4.35347433694e-08
2.07213000511e-07
2.26921225993e-07
3.89630602233e-07
9.98774382302e-08
5.4570032169e-07
6.41795100651e-07
2.32919466479e-07
4.6892836848e-07
5.69346449288e-07
3.08563864047e-07
5.39401175821e-07
5.17381116758e-07
4.00644787264e-07
1.9179675153e-07
2.2302820045e-07
3.82524022349e-07
2.84987311851e-07
5.99364972898e-07
5.58047294921e-07
2.79082181383e-07
2.48706848862e-07
1.43845466286e-07
3.95640766249e-07
1.94175178023e-07
4.00154886593e-07
3.35978297206e-07
4.47101639288e-07
4.47368674425e-07
1.60309837649e-07
2.76602610785e-07
4.48638449276e-08
1.86807285662e-07
3.13222248438e-07
1.74267560122e-07
4.1491768649e-07
3.44523394716e-07
5.88792825102e-07
2.1729662449e-07
2.74376340785e-07
4.01975297423e-07
1.34942576132e-07
2.31328320284e-07
3.05009128368e-07
2.40801465592e-07
1.98188029105e-07
3.7091905653e-07
3.26695507034e-08
2.04265603396e-07
2.51628233043e-07
5.05237427515e-08
5.69410558629e-08
1.25312065662e-07
1.98970683369e-07
2.39713792492e-07
3.7831586947e-07
2.99306572881e-07
5.70125692682e-07
2.72987602769e-07
3.00752236628e-07
4.30069813975e-07

