# vtk DataFile Version 3.0
File Name: Molecule/sphere_cent/sphere_cent_0-s2.vtk
ASCII
DATASET UNSTRUCTURED_GRID
FIELD FieldData 1
TIME 1 1 double
0.0
POINTS 51 double
1.7015213966 1.0512404442 0.00022045875085
1.5991564989 0.64311540127 -1.0082906485
0.99961084127 1.6181870699 -0.61778086424
0.61754328012 0.99999523163 -1.6180406809
1.0515983105 -0.00035718822619 -1.7013001442
-5.5227207696e-08 1.7013015747 -1.0514622927
0.98830342293 1.6315904856 0.59015536308
-0.00039589361404 1.9998463392 -0.00026468967553
0.00057523872238 1.7012000084 1.0516203642
-0.99987179041 1.6178731918 0.61798596382
-0.9998947382 1.6178556681 -0.61797702312
-1.7013015747 1.0514622927 -6.0107421263e-09
-0.61794877052 0.99991250038 1.6178740263
-1.6178588867 0.6179651022 0.99989330769
-1.0514621735 -4.7930917901e-08 1.7013015747
0.5896319747 0.98783260584 1.6319448948
-0.00027326334384 -0.000397387048 1.9998461008
1.0516201258 0.00057963759173 1.701198101
-0.61797380447 -0.99989533424 1.6178553104
0.61798918247 -0.99987149239 1.6178729534
2.2095086649e-08 -1.7013015747 1.0514621735
1.617629528 -0.61817997694 1.0002915859
0.99992215633 -1.6178570986 0.61795049906
1.7015572786 -1.0510371923 -0.00036035545054
1.9953076839 -5.2660852816e-06 0.034652587026
1.6313538551 0.58864718676 0.98748356104
-1.0510445833 -0.00035645926255 -1.7015558481
-1.6181920767 -0.61780166626 -0.99957937002
-1.6178554296 0.61795479059 -0.99991995096
-1.9997844696 6.6240625074e-07 7.9449619079e-06
-1.7013015747 -1.0514621735 3.7276670639e-08
-0.6181704998 1.0002574921 -1.6176315546
-1.0000243187 -1.6180226803 -0.61752617359
-0.99989384413 -1.6178566217 0.61797314882
3.5681123336e-06 -1.9997916222 -3.1822699384e-05
4.1202292778e-07 -1.7009768486 -1.0519781113
-1.6178582907 -0.61796689034 0.99989145994
-0.64415287971 -1.0085991621 -1.5982925892
0.99969786406 -1.6183706522 -0.61734455824
1.5968699455 -0.64461958408 -1.008415103
0.64420258999 -1.0086970329 -1.5970206261
0.00034468565718 0.03291605413 -1.9965013266
1.902151227 -0.32377666235 -0.52645528316
1.7020090818 -0.00012012117077 -1.0504616499
1.9022274017 0.32383829355 -0.52626818419
0.32392328978 -0.52649748325 -1.9021536112
1.5971185348e-05 -1.0503317118 -1.7020412683
-0.32377922535 -0.5264840126 -1.902130127
1.3758299351 1.1755318642 0.85178124905
0.8518306613 1.375639677 1.1756356955
1.1756211519 0.85177612305 1.3756928444

CELLS 98 392
3 0 1 2
3 1 3 2
3 1 4 3
3 2 3 5
3 0 2 6
3 2 7 6
3 2 5 7
3 6 7 8
3 8 7 9
3 7 10 9
3 7 5 10
3 9 10 11
3 8 9 12
3 9 13 12
3 9 11 13
3 12 13 14
3 8 12 15
3 12 16 15
3 12 14 16
3 15 16 17
3 14 18 16
3 18 19 16
3 18 20 19
3 16 19 17
3 17 19 21
3 19 22 21
3 19 20 22
3 21 22 23
3 23 24 21
3 24 25 21
3 24 0 25
3 21 25 17
3 26 27 28
3 27 29 28
3 27 30 29
3 28 29 11
3 5 31 10
3 31 28 10
3 31 26 28
3 10 28 11
3 30 32 33
3 32 34 33
3 32 35 34
3 33 34 20
3 30 33 36
3 33 18 36
3 33 20 18
3 36 18 14
3 14 13 36
3 13 29 36
3 13 11 29
3 36 29 30
3 26 37 27
3 37 32 27
3 37 35 32
3 27 32 30
3 35 38 34
3 38 22 34
3 38 23 22
3 34 22 20
3 4 39 40
3 39 38 40
3 39 23 38
3 40 38 35
3 4 41 3
3 41 31 3
3 41 26 31
3 3 31 5
3 39 42 23
3 23 42 24
3 39 43 42
3 43 44 42
3 43 1 44
3 42 44 24
3 1 43 4
3 4 43 39
3 24 44 0
3 44 1 0
3 40 45 4
3 4 45 41
3 40 46 45
3 46 47 45
3 46 37 47
3 45 47 41
3 37 46 35
3 35 46 40
3 41 47 26
3 47 37 26
3 6 48 0
3 0 48 25
3 6 49 48
3 49 50 48
3 49 15 50
3 48 50 25
3 15 49 8
3 8 49 6
3 25 50 17
3 50 15 17

CELL_TYPES 98
5
5
5
5
5
5
5
5
5
5
5
5
5
5
5
5
5
5
5
5
5
5
5
5
5
5
5
5
5
5
5
5
5
5
5
5
5
5
5
5
5
5
5
5
5
5
5
5
5
5
5
5
5
5
5
5
5
5
5
5
5
5
5
5
5
5
5
5
5
5
5
5
5
5
5
5
5
5
5
5
5
5
5
5
5
5
5
5
5
5
5
5
5
5
5
5
5
5

CELL_DATA 98
SCALARS cell_data_0 double
LOOKUP_TABLE default
7.34162586891e-07
1.3383601596e-06
5.67822820109e-08
6.50791454617e-07
6.74895816513e-07
1.29226664306e-06
6.30397643391e-07
1.69673489435e-07
5.50649482543e-07
1.25615958508e-06
2.37959882915e-07
1.67708830667e-07
5.88029636203e-07
5.36722982026e-07
7.71239293808e-07
1.90733473127e-07
1.32544495927e-07
1.20213490891e-06
2.86298202205e-08
5.89223590361e-07
1.80844794571e-07
1.62001119572e-06
4.25289126001e-07
4.22100206562e-07
2.24087554734e-07
1.18201989507e-06
2.63247835194e-07
1.97356741172e-07
2.37074708608e-08
2.46330070768e-07
1.13448010977e-07
1.61996202387e-07
5.59958124416e-07
1.21327672589e-06
2.43788100699e-07
2.10432275987e-07
2.42745027426e-07
1.25049697537e-06
5.64834165889e-07
1.67454583902e-07
6.3056043099e-07
9.89317223741e-07
4.53112929075e-07
1.63701148361e-07
6.71102228188e-07
9.4760518941e-07
1.60742644249e-07
1.89282967891e-07
2.12975805086e-08
1.43075013087e-06
2.14051483915e-07
6.34760341555e-08
4.26498042522e-07
6.35862915284e-07
4.82491691227e-07
5.89354165983e-07
4.46281590592e-07
1.0580616426e-06
4.9265782059e-08
1.12208160206e-07
4.55223143722e-07
5.36306408004e-07
2.02216233188e-07
4.29736001488e-07
6.14501384816e-08
1.06708519297e-06
2.13773701443e-07
8.80694096466e-07
2.15378448297e-07
2.05202376972e-07
3.73500875578e-07
2.41850672458e-07
1.72972118085e-07
3.67110686323e-07
2.07958485749e-07
5.64604212958e-07
2.43844882298e-07
8.89355183883e-08
5.51757068558e-07
2.04559612847e-07
3.65986567672e-07
2.3899299313e-07
3.85719472039e-07
1.74620497615e-07
5.81129900822e-07
5.58014966248e-07
9.80982599576e-08
4.43027333736e-07
6.00993577381e-08
2.53306128115e-07
1.96140450306e-07
2.38790358288e-07
1.98123282602e-07
3.72917420962e-07
1.23519110251e-07
1.26789015531e-07
2.815048789e-07
1.5175595183e-08

