# vtk DataFile Version 3.0
File Name: Molecule/sphere_excent/sphere_excent_0-s2.vtk
ASCII
DATASET UNSTRUCTURED_GRID
FIELD FieldData 1
TIME 1 1 double
0.0
POINTS 80 double
0.85065078735 -0.52573108673 -6.0613372099e-09
0.8089428544 -0.30897119641 -0.49995881319
0.99987787008 0.00010245307203 2.5205676138e-05
0.81274622679 0.28889366984 -0.50272083282
0.5258140564 0.00031096721068 -0.85059094429
0.52531480789 3.8556070649e-05 0.85087871552
0.32244282961 -0.50412333012 0.79968351126
0.80907589197 -0.30889189243 0.4998229444
0.50001502037 -0.80900627375 0.30877012014
-6.4085616032e-06 -0.850481987 0.52599537373
0.30899387598 -0.49993306398 -0.80893909931
-0.00014095976076 -0.00030922153383 -0.99997293949
-0.3089864552 -0.49994915724 -0.80892628431
-1.3123857556e-08 -0.85065078735 -0.52573108673
-0.52573114634 -2.5625779276e-09 -0.85065078735
0.80924338102 0.30828428268 0.50006037951
0.85617059469 0.51303440332 0.0097346426919
0.31971371174 0.48950949311 0.80950993299
-0.8089401722 -0.30897450447 -0.49994429946
-0.8090826869 0.30893033743 -0.49979063869
-0.99992150068 0.00014591534273 -0.00016372810933
-0.85065078735 -0.52573108673 1.5672775078e-08
-0.85623085499 0.51292920113 -0.010043426417
-0.30849167705 0.50048482418 -0.80869328976
-0.50430124998 0.79913896322 -0.32114523649
-0.49994507432 -0.80893051624 -0.30898082256
-0.50000113249 -0.8091044426 0.30869436264
2.248980536e-06 -0.99989598989 1.2857004549e-05
-0.80857765675 -0.30868026614 0.50055521727
-0.3169285059 -0.51342827082 0.79587936401
-0.81551623344 0.29556909204 0.49361422658
0.49994847178 -0.80892759562 -0.30898758769
0.29979339242 0.48499956727 -0.81987440586
0.8627949357 0.43500506878 -0.25747993588
0.70446175337 0.69175064564 -0.15862137079
0.68688440323 0.58727318048 -0.42810612917
0.49999368191 0.80900633335 -0.30901283026
0.58772361279 0.42561295629 -0.68805378675
0.42782852054 0.68613547087 -0.58832752705
0.25724595785 0.86279344559 -0.43516364694
0.15976919234 0.70338398218 -0.69252467155
-0.0018533839611 0.84913492203 -0.52774852514
0.70160853863 0.68916684389 0.17285749316
0.52329188585 0.85210442543 0.0005366941914
0.49970442057 0.80800795555 0.31170243025
0.26434120536 0.95105588436 -0.15997099876
0.26450878382 0.95102131367 0.15987609327
-9.1551271453e-07 0.99998724461 -3.0004960649e-07
8.8629167294e-05 0.96109724045 -0.27610737085
0.25722226501 0.86281704903 0.43503621221
4.3285690481e-05 0.96110373735 0.27604052424
-2.2581005954e-09 0.85065078735 0.52573108673
-0.25721329451 0.86281973124 0.43508112431
-0.2643905282 0.95102339983 0.15996947885
-0.49999412894 0.80900615454 0.30901303887
-0.26482236385 0.95084345341 -0.16012699902
-0.52324318886 0.8521168828 -0.00039642830961
-0.25691354275 0.86314666271 -0.43446841836
-0.70444911718 0.69187784195 0.15834926069
-0.70433312654 0.6919618845 -0.15810012817
-0.15894541144 0.70388036966 0.69223678112
-0.42779293656 0.686624825 0.58777350187
-0.30901274085 0.49999314547 0.8090069294
-0.68684470654 0.5873914361 0.42790648341
-0.58809411526 0.42769873142 0.68636274338
-0.86269515753 0.43572956324 0.25649267435
-0.43512839079 0.25722849369 0.86281472445
-0.69181078672 0.15947130322 0.70409977436
-0.52774435282 -0.0018226796528 0.84914201498
0.15959593654 0.70337343216 0.69263589382
0.00036885740701 0.52285259962 0.85245388746
-0.15981383622 0.26442369819 0.9511141777
0.16166307032 0.26343423128 0.95103645325
0.003264621133 -5.8248497226e-05 0.99992889166
-0.27570402622 7.6298121712e-05 0.96124273539
-0.43443119526 -0.25791701674 0.86290562153
-0.1598430872 -0.26515111327 0.95089846849
0.00021443104197 -0.52532577515 0.85090398788
0.16221381724 -0.26416376233 0.95078605413
0.43613067269 0.68505686522 0.58126538992

CELLS 156 624
3 0 1 2
3 1 3 2
3 1 4 3
3 5 6 7
3 6 8 7
3 6 9 8
3 7 8 0
3 4 10 11
3 10 12 11
3 10 13 12
3 11 12 14
3 0 2 7
3 2 15 7
3 2 16 15
3 7 15 5
3 15 17 5
3 14 18 19
3 18 20 19
3 18 21 20
3 19 20 22
3 23 19 24
3 23 14 19
3 21 25 26
3 25 27 26
3 25 13 27
3 26 27 9
3 21 26 28
3 26 29 28
3 26 9 29
3 30 20 28
3 28 20 21
3 14 12 18
3 12 25 18
3 12 13 25
3 18 25 21
3 13 31 27
3 31 8 27
3 31 0 8
3 27 8 9
3 4 1 10
3 1 31 10
3 1 0 31
3 10 31 13
3 4 11 32
3 11 23 32
3 11 14 23
3 3 33 2
3 2 33 16
3 16 33 34
3 33 35 34
3 33 3 35
3 34 35 36
3 3 37 35
3 37 38 35
3 37 32 38
3 35 38 36
3 32 37 4
3 4 37 3
3 36 38 39
3 38 40 39
3 38 32 40
3 39 40 41
3 16 34 42
3 34 43 42
3 34 36 43
3 42 43 44
3 36 45 43
3 45 46 43
3 45 47 46
3 43 46 44
3 36 39 45
3 39 48 45
3 39 41 48
3 45 48 47
3 44 46 49
3 46 50 49
3 46 47 50
3 49 50 51
3 51 50 52
3 50 53 52
3 50 47 53
3 52 53 54
3 47 55 53
3 55 56 53
3 55 24 56
3 53 56 54
3 47 48 55
3 48 57 55
3 48 41 57
3 55 57 24
3 54 56 58
3 56 59 58
3 56 24 59
3 58 59 22
3 51 52 60
3 52 61 60
3 52 54 61
3 60 61 62
3 54 63 61
3 63 64 61
3 63 30 64
3 61 64 62
3 54 58 63
3 58 65 63
3 58 22 65
3 63 65 30
3 62 64 66
3 64 67 66
3 64 30 67
3 66 67 68
3 51 60 69
3 60 70 69
3 60 62 70
3 69 70 17
3 62 71 70
3 71 72 70
3 71 73 72
3 70 72 17
3 62 66 71
3 66 74 71
3 66 68 74
3 71 74 73
3 17 72 5
3 72 73 5
3 68 75 74
3 75 76 74
3 75 29 76
3 74 76 73
3 29 77 76
3 77 78 76
3 77 6 78
3 76 78 73
3 6 77 9
3 9 77 29
3 73 78 5
3 78 6 5
3 16 42 15
3 15 42 79
3 44 79 42
3 79 17 15
3 44 49 79
3 49 69 79
3 49 51 69
3 79 69 17
3 24 57 23
3 23 57 41
3 22 59 19
3 19 59 24
3 29 75 28
3 28 75 68
3 68 67 28
3 67 30 28
3 30 65 20
3 65 22 20
3 41 40 23
3 23 40 32

CELL_TYPES 156
5
5
5
5
5
5
5
5
5
5
5
5
5
5
5
5
5
5
5
5
5
5
5
5
5
5
5
5
5
5
5
5
5
5
5
5
5
5
5
5
5
5
5
5
5
5
5
5
5
5
5
5
5
5
5
5
5
5
5
5
5
5
5
5
5
5
5
5
5
5
5
5
5
5
5
5
5
5
5
5
5
5
5
5
5
5
5
5
5
5
5
5
5
5
5
5
5
5
5
5
5
5
5
5
5
5
5
5
5
5
5
5
5
5
5
5
5
5
5
5
5
5
5
5
5
5
5
5
5
5
5
5
5
5
5
5
5
5
5
5
5
5
5
5
5
5
5
5
5
5
5
5
5
5
5
5

CELL_DATA 156
SCALARS cell_data_0 double
LOOKUP_TABLE default
8.28704025198e-06
6.44161545861e-06
1.84850334341e-05
7.06465575537e-05
4.60093786617e-05
3.84903700483e-05
1.25172535033e-05
0.000230494210248
0.00019783975256
9.96784774216e-05
0.00017253244912
1.61549152916e-05
3.00144143108e-05
1.33924614985e-05
4.52964527917e-05
4.74337107953e-05
0.000103746497456
9.91568953061e-07
6.54002222953e-06
1.34650963226e-05
9.48141745553e-06
0.000108722982918
1.15948081148e-05
1.39745149446e-05
5.06632542091e-06
2.01053457373e-05
1.95020674987e-05
4.23033998338e-05
3.84458818758e-05
2.98867516351e-05
1.65707371061e-05
0.000106954472805
1.46146355058e-06
5.88228350573e-07
5.06018318036e-06
4.66734038287e-06
2.25547203781e-06
6.93851469146e-08
1.05255481587e-05
0.000142467813489
9.48457476722e-05
6.7942102051e-06
8.5944284058e-05
8.26131048837e-05
5.13035593674e-05
0.000171387479837
2.92919138392e-07
4.01171439274e-06
4.87176854547e-06
5.82018085708e-06
4.39478613298e-06
1.10269439311e-05
3.91942513242e-06
8.46892439749e-06
7.0823212309e-06
1.6467257327e-05
2.25845882012e-05
1.47273933641e-05
1.14683669779e-05
4.65195103521e-06
5.61170669259e-06
3.49720607092e-06
5.84029820126e-06
5.13753254817e-06
9.18370613025e-06
2.73681040828e-05
1.96996255544e-05
1.3653653283e-05
7.77945810248e-06
3.14764175507e-05
1.61959654284e-05
1.02051736361e-05
4.73649524503e-06
6.0193869177e-06
2.15609479178e-05
1.12935156807e-06
1.03784773176e-06
5.97103133504e-06
6.13429579946e-06
4.79372513593e-06
3.34097374808e-06
4.90716826535e-06
1.73457471745e-06
1.20673721778e-06
2.1530537099e-06
4.02285372896e-06
1.65789315573e-06
1.85003830327e-05
1.78220495592e-05
1.71439215475e-05
9.61010204547e-07
2.96327366178e-05
2.16239936564e-05
4.26483246662e-05
8.9632257012e-06
6.13181261229e-06
3.89825293186e-06
1.39178844583e-05
3.13276036762e-06
1.58647395502e-05
4.17215520579e-06
4.0245867953e-06
1.3254472461e-07
1.48065572197e-05
2.66737082069e-05
1.95113812101e-06
8.64231262717e-06
1.36058441529e-05
5.06888650692e-06
4.92916222196e-06
5.0127801972e-06
2.30792661902e-05
1.18577363145e-05
2.05001458851e-06
8.92580641073e-06
6.82996518238e-05
6.65498225338e-05
3.53535254141e-06
2.1165116733e-05
5.95707056314e-07
6.33943789551e-06
6.71368240556e-05
9.08294406586e-05
0.00014786117629
8.2479970384e-06
1.20318228283e-06
2.50582024482e-05
6.80573647297e-05
3.04053461001e-05
4.45593952484e-07
1.83510741056e-05
7.76170178205e-05
3.37350820687e-05
3.71613364353e-05
0.000132900674774
8.60250342183e-05
2.79539939463e-06
1.43154560741e-05
2.5577206294e-05
3.52559305426e-05
1.83922297178e-05
1.00708802275e-05
2.36212997689e-08
1.03846607846e-05
3.06965033297e-05
3.11827153783e-05
5.99443550089e-05
4.65113580383e-05
4.32562668733e-05
1.34148382674e-05
1.35749626761e-05
2.1037513011e-05
3.34612321089e-06
2.49974115709e-05
5.63319835555e-06
6.42671215534e-06

