# vtk DataFile Version 3.0
File Name: Molecule/sphere_excent/sphere_excent_0-s3.vtk
ASCII
DATASET UNSTRUCTURED_GRID
FIELD FieldData 1
TIME 1 1 double
0.0
POINTS 157 double
0.85059130192 -0.52590185404 -7.4330837379e-06
0.81644952297 -0.30081439018 -0.48664811254
0.99998444319 0.00018464430468 0.00071813014802
0.81613940001 0.27070230246 -0.50638431311
0.81378406286 -0.31145691872 0.48667314649
0.86135333776 0.50336575508 0.018999066204
0.81375324726 0.31581017375 0.48430430889
-0.81316155195 -0.31825017929 -0.48391196132
-0.85062479973 -0.52581882477 0.00026721978793
-0.99993115664 0.00013453346037 0.00016523925296
-0.50008642673 -0.80913686752 -0.30829796195
-0.50251656771 -0.81142771244 0.28976100683
-4.1964991397e-05 -0.9998729825 0.00056872481946
-0.0093418965116 -0.85423415899 -0.51490485668
-0.82185101509 0.2838756144 0.48991471529
-0.81533890963 -0.29706922174 0.49277070165
0.50236189365 -0.81049221754 -0.29020798206
0.50196141005 -0.81179189682 0.2887172401
0.86322426796 0.43503060937 -0.25586220622
0.706851542 0.68969839811 -0.1564372927
0.68603551388 0.58653205633 -0.43025007844
0.50004410744 0.80897599459 -0.30901226401
0.58767622709 0.42515194416 -0.688354671
0.42985489964 0.68449151516 -0.58866220713
0.30098950863 0.48764100671 -0.81945586205
0.52917045355 0.014695578255 -0.84619003534
0.25532338023 0.86282998323 -0.4360152185
0.16762833297 0.70327407122 -0.69074845314
-0.0036042798311 0.84766924381 -0.52988535166
0.70269984007 0.68533420563 0.18466618657
0.52156484127 0.85320240259 0.0010823300108
0.49205344915 0.81454116106 0.30578577518
0.26550376415 0.95106077194 -0.1580426842
0.26541402936 0.9511500597 0.15776571631
-1.5945597625e-05 0.99998790026 -9.5720060926e-06
0.00018866125902 0.96041929722 -0.27813854814
0.25487717986 0.86307615042 0.43583852053
6.2321734731e-05 0.96048355103 0.2782343328
3.0713821616e-05 0.85063099861 0.52575880289
-0.2551009953 0.8629668355 0.43606194854
-0.26539692283 0.95098435879 0.15812540054
-0.50004428625 0.80898612738 0.30898490548
-0.26587411761 0.95081830025 -0.15829852223
-0.52144879103 0.85330748558 -0.00096151151229
-0.49451339245 0.8054023385 -0.32614949346
-0.25691738725 0.86674910784 -0.42739894986
-0.69915485382 0.69367605448 0.17313179374
-0.15767164528 0.70527935028 0.69113796949
-0.42969578505 0.68545365334 0.58780223131
-0.30894085765 0.49996307492 0.80906707048
-0.68601644039 0.58648359776 0.43058365583
-0.58858418465 0.42913421988 0.68523800373
-0.86270898581 0.43692010641 0.25402474403
-0.43590030074 0.25510188937 0.86301058531
-0.68877577782 0.14648663998 0.70761829615
-0.52926719189 -0.0045969290659 0.84819203615
0.15847194195 0.70530200005 0.69090545177
-0.0085773328319 0.53584235907 0.84315013885
-0.17247582972 0.27188926935 0.94576561451
-0.29369449615 0.0038608959876 0.95468997955
0.64342594147 0.53103226423 0.54769426584
0.43106725812 0.69671565294 0.57147860527
-0.42789471149 0.68367159367 -0.59121477604
-0.64065736532 -0.27808946371 0.71372354031
-0.86303126812 0.50117617846 -0.0077184275724
-0.29789912701 0.51427578926 -0.80088126659
-0.0020508279558 0.51780438423 -0.85548698902
0.6923071146 -0.15926116705 -0.70375066996
0.52471143007 -0.0003044885234 0.85122579336
0.4495344758 -0.26620671153 0.85228693485
0.69303637743 -0.15939062834 0.70297676325
0.59474134445 -0.42941987514 0.6795462966
0.33479166031 -0.50855261087 0.79214155674
0.43481007218 -0.68806707859 0.58082139492
0.68790000677 -0.58838915825 0.42493224144
0.17839027941 -0.70736557245 0.68334472179
0.25849831104 -0.86266040802 0.43465694785
-2.988563665e-06 -0.85161972046 0.5239751935
0.43520075083 -0.25648650527 -0.86288189888
0.27599158883 -0.00049791618949 -0.96109348536
0.15990510583 -0.26454693079 -0.95100915432
0.30902507901 -0.49997475743 -0.80901348591
-0.00025001278846 -0.00062450137921 -0.9999910593
-0.0002784274111 -0.52308833599 -0.85221934319
-0.15994293988 -0.2646458447 -0.95097082853
-0.31170642376 -0.49970808625 -0.80799144506
0.1586791575 -0.70426183939 -0.69193804264
-0.17287270725 -0.70148640871 -0.68920624256
-0.2760874629 -0.00024061526346 -0.96108919382
-0.43504816294 -0.25723826885 -0.86279815435
-0.52573204041 1.3879114704e-05 -0.85065031052
0.85181629658 -9.7129814094e-05 0.52352923155
0.69316315651 0.15870904922 0.70305138826
0.59011614323 0.4112303257 0.69466596842
0.4478174746 0.25894993544 0.85558599234
0.32703951001 0.48528805375 0.81058114767
-0.69288915396 -0.15958043933 -0.70312315226
-0.69245231152 0.15908783674 -0.70371931791
-0.85432183743 0.0053547471762 -0.51618045568
-0.81011146307 0.30614572763 -0.50012236834
-0.8722474575 0.40859270096 -0.26099285483
-0.58746659756 0.4279731214 -0.68667936325
-0.67733490467 0.58408015966 -0.44434696436
-0.4345421195 0.25850313902 -0.8627524972
-0.25817465782 -0.86271589994 0.43461242318
-0.6879940033 -0.58784657717 0.42556518316
-0.43185254931 -0.69212061167 0.57827061415
-0.5896294713 -0.44468528032 0.67384976149
-0.32420039177 -0.52560818195 0.78515028954
-0.17542691529 -0.71113854647 0.68027609587
-0.5822224021 -0.43583798409 -0.6844446063
0.25751423836 -0.86283296347 -0.4349796474
0.58816856146 -0.42786586285 -0.68623095751
0.68793803453 -0.5878483057 -0.42566391826
0.4280641675 -0.68693065643 -0.5872502327
0.42092126608 0.25292512774 -0.87077778578
0.15392412245 0.25614517927 -0.95419090986
-0.16011244059 0.26442328095 -0.9509781003
-0.70548039675 0.69165754318 -0.1537142247
-0.71222871542 0.70192760229 0.0016899413895
-0.61589509249 0.7467918396 -0.25002834201
-0.79112863541 0.60696303844 0.074011802673
-0.79187864065 0.60062462091 -0.098066851497
0.16663919389 0.52030497789 0.83696871996
0.38573783636 0.59226310253 0.70707541704
-0.081061974168 0.40022721887 0.91277754307
0.0001262529986 0.26839584112 0.96330195665
0.081795789301 0.39950442314 0.91305476427
0.16079302132 0.26407855749 0.95099055767
-0.077354550362 0.13506872952 0.98775964975
0.093239352107 0.12822234631 0.98716199398
0.0060717174783 -9.2737631348e-05 0.99990326166
0.25203382969 0.3742928803 0.89190661907
-0.22087398171 0.13417617977 0.9659909606
-0.14056800306 0.00023636499827 0.99004656076
0.34540387988 0.14293912053 0.92700248957
0.26668643951 0.00020695159037 0.96341979504
-0.44417920709 -0.2473872304 0.86030489206
-0.36141973734 -0.13040354848 0.92322587967
-0.30154427886 -0.26427066326 0.91608089209
-0.22139324248 -0.13351422548 0.96598881483
-0.15800754726 -0.2667902112 0.9506983161
-0.3929541707 -0.39198741317 0.83091908693
-0.24142347276 -0.39709171653 0.88541698456
-0.07704833895 -0.13487973809 0.98782873154
-0.15896725655 -0.53544807434 0.82897669077
-0.080859705806 -0.40146684647 0.91229212284
0.00037662684917 -0.52485775948 0.85118895769
0.082577124238 -0.40020868182 0.91269308329
0.0014877318172 -0.2690371573 0.96311974525
0.16176748276 -0.26547050476 0.95043414831
0.16339173913 -0.5303145051 0.83157080412
0.25415095687 -0.38440814614 0.8872577548
0.092917636037 -0.12850129604 0.9871288538
3.0870134651e-05 -0.70070070028 0.71301025152
0.3460573256 -0.14321152866 0.92668843269
-0.78344297409 0.52555859089 -0.32989060879

CELLS 310 1240
3 0 1 2
3 1 3 2
3 0 2 4
3 2 5 6
3 7 8 9
3 8 10 11
3 10 12 11
3 10 13 12
3 14 9 15
3 15 9 8
3 7 10 8
3 16 17 12
3 16 0 17
3 3 18 2
3 2 18 5
3 5 18 19
3 18 20 19
3 18 3 20
3 19 20 21
3 3 22 20
3 22 23 20
3 22 24 23
3 20 23 21
3 25 22 3
3 21 23 26
3 23 27 26
3 23 24 27
3 26 27 28
3 5 19 29
3 19 30 29
3 19 21 30
3 29 30 31
3 21 32 30
3 32 33 30
3 32 34 33
3 30 33 31
3 21 26 32
3 26 35 32
3 26 28 35
3 32 35 34
3 31 33 36
3 33 37 36
3 33 34 37
3 36 37 38
3 38 37 39
3 37 40 39
3 37 34 40
3 39 40 41
3 34 42 40
3 42 43 40
3 42 44 43
3 40 43 41
3 34 35 42
3 35 45 42
3 35 28 45
3 42 45 44
3 41 43 46
3 38 39 47
3 39 48 47
3 39 41 48
3 47 48 49
3 41 50 48
3 50 51 48
3 50 14 51
3 48 51 49
3 41 46 50
3 46 52 50
3 50 52 14
3 49 51 53
3 51 54 53
3 51 14 54
3 53 54 55
3 38 47 56
3 47 57 56
3 47 49 57
3 49 53 58
3 53 55 59
3 5 29 6
3 29 31 60
3 31 36 61
3 36 56 61
3 36 38 56
3 45 28 62
3 55 54 63
3 54 14 15
3 14 52 9
3 52 64 9
3 65 28 66
3 1 67 3
3 67 25 3
3 68 69 70
3 69 71 70
3 69 72 71
3 70 71 4
3 72 73 71
3 73 74 71
3 73 17 74
3 71 74 4
3 72 75 73
3 75 76 73
3 75 77 76
3 73 76 17
3 4 74 0
3 74 17 0
3 25 78 79
3 78 80 79
3 78 81 80
3 79 80 82
3 81 83 80
3 83 84 80
3 83 85 84
3 80 84 82
3 81 86 83
3 86 87 83
3 86 13 87
3 83 87 85
3 82 84 88
3 84 89 88
3 84 85 89
3 88 89 90
3 6 91 2
3 2 91 4
3 4 91 70
3 91 92 70
3 91 6 92
3 70 92 68
3 6 93 92
3 93 94 92
3 93 95 94
3 92 94 68
3 90 96 97
3 96 98 97
3 96 7 98
3 97 98 99
3 99 98 100
3 9 98 7
3 64 100 9
3 9 100 98
3 65 101 62
3 101 102 62
3 101 99 102
3 62 102 44
3 65 103 101
3 103 97 101
3 103 90 97
3 101 97 99
3 77 104 12
3 12 104 11
3 11 105 8
3 8 105 15
3 11 106 105
3 106 107 105
3 106 108 107
3 105 107 15
3 11 104 106
3 104 109 106
3 104 77 109
3 106 109 108
3 90 89 96
3 89 110 96
3 89 85 110
3 96 110 7
3 7 110 10
3 10 110 87
3 85 87 110
3 87 13 10
3 13 111 12
3 111 16 12
3 17 76 12
3 12 76 77
3 25 67 78
3 67 112 78
3 67 1 112
3 78 112 81
3 1 113 112
3 113 114 112
3 113 16 114
3 112 114 81
3 16 113 0
3 0 113 1
3 81 114 86
3 114 111 86
3 114 16 111
3 86 111 13
3 25 79 115
3 79 116 115
3 79 82 116
3 115 116 24
3 82 117 116
3 117 66 116
3 117 65 66
3 116 66 24
3 82 88 117
3 88 103 117
3 88 90 103
3 117 103 65
3 25 115 22
3 22 115 24
3 118 119 43
3 43 119 46
3 44 120 43
3 43 120 118
3 46 119 121
3 119 122 121
3 119 118 122
3 121 122 64
3 46 121 52
3 121 64 52
3 57 123 56
3 56 123 124
3 58 125 49
3 49 125 57
3 58 126 125
3 126 127 125
3 126 128 127
3 125 127 57
3 58 129 126
3 129 130 126
3 129 131 130
3 126 130 128
3 57 127 123
3 127 132 123
3 127 128 132
3 123 132 95
3 59 133 53
3 53 133 58
3 58 133 129
3 133 134 129
3 133 59 134
3 129 134 131
3 95 132 94
3 132 135 94
3 132 128 135
3 94 135 68
3 128 130 135
3 130 136 135
3 130 131 136
3 135 136 68
3 137 138 55
3 55 138 59
3 137 139 138
3 139 140 138
3 139 141 140
3 138 140 59
3 137 142 139
3 142 143 139
3 142 108 143
3 139 143 141
3 59 140 134
3 140 144 134
3 140 141 144
3 134 144 131
3 108 145 143
3 145 146 143
3 145 147 146
3 143 146 141
3 147 148 146
3 148 149 146
3 148 150 149
3 146 149 141
3 147 151 148
3 151 152 148
3 151 72 152
3 148 152 150
3 141 149 144
3 149 153 144
3 149 150 153
3 144 153 131
3 72 151 75
3 151 154 75
3 151 147 154
3 75 154 77
3 77 154 109
3 154 145 109
3 154 147 145
3 109 145 108
3 131 153 136
3 153 155 136
3 153 150 155
3 136 155 68
3 150 152 155
3 152 69 155
3 152 72 69
3 155 69 68
3 61 60 31
3 29 60 6
3 61 124 60
3 124 93 60
3 124 95 93
3 60 93 6
3 95 124 123
3 56 124 61
3 65 62 28
3 45 62 44
3 64 122 100
3 122 156 100
3 122 118 156
3 100 156 99
3 99 156 102
3 156 120 102
3 156 118 120
3 102 120 44
3 108 142 107
3 142 63 107
3 142 137 63
3 107 63 15
3 15 63 54
3 63 137 55
3 24 66 27
3 27 66 28

CELL_TYPES 310
5
5
5
5
5
5
5
5
5
5
5
5
5
5
5
5
5
5
5
5
5
5
5
5
5
5
5
5
5
5
5
5
5
5
5
5
5
5
5
5
5
5
5
5
5
5
5
5
5
5
5
5
5
5
5
5
5
5
5
5
5
5
5
5
5
5
5
5
5
5
5
5
5
5
5
5
5
5
5
5
5
5
5
5
5
5
5
5
5
5
5
5
5
5
5
5
5
5
5
5
5
5
5
5
5
5
5
5
5
5
5
5
5
5
5
5
5
5
5
5
5
5
5
5
5
5
5
5
5
5
5
5
5
5
5
5
5
5
5
5
5
5
5
5
5
5
5
5
5
5
5
5
5
5
5
5
5
5
5
5
5
5
5
5
5
5
5
5
5
5
5
5
5
5
5
5
5
5
5
5
5
5
5
5
5
5
5
5
5
5
5
5
5
5
5
5
5
5
5
5
5
5
5
5
5
5
5
5
5
5
5
5
5
5
5
5
5
5
5
5
5
5
5
5
5
5
5
5
5
5
5
5
5
5
5
5
5
5
5
5
5
5
5
5
5
5
5
5
5
5
5
5
5
5
5
5
5
5
5
5
5
5
5
5
5
5
5
5
5
5
5
5
5
5
5
5
5
5
5
5
5
5
5
5
5
5
5
5
5
5
5
5
5
5
5
5
5
5
5
5
5
5
5
5
5
5
5
5
5
5

CELL_DATA 310
SCALARS cell_data_0 double
LOOKUP_TABLE default
6.89010874127e-06
2.64729268915e-05
1.453885972e-05
1.39728935501e-05
2.50133215623e-07
1.59429628713e-05
4.27094259968e-05
2.19292484224e-05
2.81013646746e-05
1.38871484919e-05
1.34470606863e-05
8.38285470489e-06
4.33788388321e-06
1.04556673506e-05
1.89789430408e-06
9.22973354877e-07
1.00218857903e-06
8.45528981524e-06
7.60520597669e-06
9.59690990558e-06
3.38240736204e-06
4.61960271756e-06
1.19312326471e-05
1.54337366693e-05
2.9513170162e-05
3.36908754967e-05
1.50673672196e-05
2.99000631219e-05
2.08051325968e-05
2.8125824367e-05
1.22970644726e-05
2.54990673529e-05
3.14712126444e-05
1.91948727435e-05
1.09145245749e-05
4.88447202251e-06
4.40103835498e-05
8.30562116188e-05
5.6326446939e-05
4.61727887184e-05
9.08909147178e-06
3.75818844445e-05
1.99121553585e-05
1.97732787771e-05
1.77892379007e-05
7.53914690061e-05
5.25985865383e-05
2.75350394867e-05
0.000102868611628
0.000243194845413
0.000165589126562
9.96556065549e-05
0.000102149146843
0.000135940926911
4.7082212767e-05
6.42236311908e-05
5.53853263256e-05
1.50082337368e-07
5.92108254885e-07
3.05600939831e-06
1.64699273798e-05
8.78684922697e-06
1.13787847863e-05
9.87597802909e-06
1.56806869505e-05
2.78334764991e-06
3.38269210273e-06
6.10219961773e-06
2.53653740103e-05
1.01989207521e-05
1.1976619149e-05
1.32812444651e-05
6.02388859581e-06
7.1838564381e-06
2.10521954217e-05
3.47572438716e-05
3.57364574734e-05
1.83600835774e-05
0.000124353523186
1.61312430924e-06
2.74060092125e-06
2.9395316472e-07
2.3914663241e-05
2.39618914742e-05
1.17605015678e-05
9.76090648909e-06
5.15771344151e-06
1.76116356653e-05
1.5411806319e-05
1.20630363977e-05
2.0280997124e-05
1.08323661172e-05
1.20064707454e-05
8.80623989365e-06
1.10949313869e-05
8.80877623762e-06
7.79997533414e-06
8.25982803739e-06
9.7690899419e-06
7.79238645236e-06
8.41863448784e-06
7.01896307473e-06
1.07401279188e-05
9.08623683954e-06
4.49415976256e-07
7.54104643665e-08
2.40259106438e-06
1.89012656788e-06
1.3139116819e-05
3.20226806238e-05
4.31052301806e-05
2.07528070018e-05
3.2300814475e-05
8.44410667464e-05
5.78574836439e-05
5.90255082193e-05
5.77688848035e-05
5.19955758847e-05
2.12566360646e-05
3.68882620596e-05
1.484342369e-05
1.36847637895e-05
8.18302996965e-06
9.86019872738e-06
9.79010916209e-06
1.7851220692e-05
1.06833413154e-05
1.25668086596e-05
1.31561963252e-05
2.12580869993e-05
7.09042276453e-06
2.00498882712e-08
1.53379207108e-06
1.09761814757e-06
4.69323099007e-06
1.02847803454e-06
5.05591234158e-06
5.744413357e-06
2.96807767633e-05
3.84103128235e-05
2.42647853478e-05
2.48249697951e-05
4.7895672514e-05
3.33596133088e-05
3.54973378884e-05
6.86351133502e-06
7.83772139211e-06
2.80684265014e-05
5.50936295496e-06
1.12284617371e-05
7.72627774465e-06
8.97313386145e-06
1.0677670709e-05
1.0687454327e-05
4.53967251099e-07
8.7241178987e-06
7.21986951082e-06
9.0107831407e-06
6.53540037391e-06
2.26877726144e-07
3.72921410278e-06
2.21904435875e-06
1.12546220446e-05
0.000108302425727
3.9386623921e-05
6.86941174757e-05
4.23755468454e-06
1.04389154199e-05
8.53574087067e-06
8.96493722062e-06
1.90541956565e-07
4.57114494398e-07
8.55334857235e-07
1.95705697355e-06
5.12888656098e-07
1.24836475795e-07
3.39278800269e-06
3.68675522191e-06
7.79257152438e-06
5.42236447702e-06
1.98899904367e-05
1.30453653463e-05
3.12172504498e-06
1.11413489567e-05
2.04183250017e-06
2.63537717687e-06
2.90324576826e-06
3.65734075531e-06
6.19596199415e-06
5.23894488805e-06
1.16724655471e-05
3.69878475728e-06
3.41580276342e-05
7.1896434855e-05
8.10159397845e-05
4.11275108037e-05
2.61162562886e-06
3.10090048205e-06
4.61209570738e-05
6.40877742027e-05
4.77589438516e-05
4.09390263626e-05
2.54632726763e-05
5.14122021382e-05
2.37482568354e-05
3.36015979891e-05
1.9121254822e-05
1.32351845964e-05
3.64894667285e-07
7.4619112801e-06
2.03988264536e-05
1.63210698206e-05
2.37995449238e-06
1.42258243296e-05
3.47824556833e-06
5.79769420431e-06
4.02444911624e-06
3.81029477768e-06
2.3692458208e-05
1.40810700091e-05
6.66292402613e-06
2.0127574192e-05
3.29764574454e-07
2.34605986576e-06
1.89645208447e-05
9.15070791152e-06
3.02901891392e-06
8.61160481181e-07
1.33790578393e-05
2.04808009238e-05
1.5552477215e-05
7.63218315197e-06
6.53772902221e-06
1.84159874399e-05
2.12408637877e-05
1.64057046006e-05
3.48234592397e-05
1.56122407615e-05
1.46445061763e-05
1.92041961167e-05
3.66302283756e-06
4.68640207737e-08
9.94593117731e-06
1.03038216706e-05
1.52098223875e-06
4.27072726014e-06
5.04382974434e-06
9.86904996052e-06
1.49754408154e-05
1.03905126353e-05
1.41258395506e-05
2.08523715528e-05
3.05484786833e-06
4.288379467e-06
4.80149904784e-07
1.23780507913e-05
7.80955159738e-06
8.82100639347e-06
1.63966475805e-05
1.48200819227e-05
2.6277209969e-06
1.0932937566e-05
1.51756625607e-06
1.18446655286e-05
1.72522219901e-05
1.61465710929e-05
1.99418843144e-05
2.37339931844e-05
1.15269578057e-05
9.87521276649e-07
2.29590703096e-07
5.69494259163e-06
5.10319869025e-06
9.41604202132e-06
9.43322775927e-06
7.51609533197e-06
3.56725312437e-05
1.85411622019e-05
2.88213642869e-05
2.05198481846e-05
2.11262848293e-05
1.60830705828e-05
1.74409101365e-05
2.14462461493e-05
3.20374355934e-05
0.0001068304396
1.87505236731e-05
1.84228118011e-05
1.08532959392e-05
1.19797432496e-05
4.76374744471e-06
5.56193742829e-06
3.62675581771e-05
1.74057160893e-05
3.34371225041e-05
7.84499429495e-05
5.47755594201e-05
3.38473697637e-05
4.6422586873e-05
6.00115092662e-05
3.24726552054e-05
1.55406922199e-05
1.08373542545e-05
9.07735367302e-06
7.06755127695e-06
7.38538240613e-06
1.63846861814e-05
2.08903954263e-05
1.30077048993e-05
1.47588142331e-05

