# vtk DataFile Version 3.0
File Name: Molecule/sphere_cent/sphere_cent_0-s2.vtk
ASCII
DATASET UNSTRUCTURED_GRID
FIELD FieldData 1
TIME 1 1 double
0.0
POINTS 51 double
0.850650808352 -0.525731112119 0.0
0.809016994375 -0.309016994375 -0.5
1.0 0.0 0.0
0.809016994375 0.309016994375 -0.5
0.525731112119 0.0 -0.850650808352
0.850650808352 0.525731112119 0.0
0.5 0.809016994375 -0.309016994375
0.309016994375 0.5 -0.809016994375
0.0 0.850650808352 -0.525731112119
0.5 0.809016994375 0.309016994375
0.0 1.0 0.0
0.0 0.850650808352 0.525731112119
-0.5 0.809016994375 0.309016994375
-0.5 0.809016994375 -0.309016994375
-0.850650808352 0.525731112119 0.0
-0.309016994375 0.5 0.809016994375
-0.809016994375 0.309016994375 0.5
-0.525731112119 0.0 0.850650808352
0.309016994375 0.5 0.809016994375
0.0 0.0 1.0
0.525731112119 0.0 0.850650808352
-0.309016994375 -0.5 0.809016994375
0.309016994375 -0.5 0.809016994375
0.0 -0.850650808352 0.525731112119
0.809016994375 -0.309016994375 0.5
0.5 -0.809016994375 0.309016994375
0.809016994375 0.309016994375 0.5
-0.525731112119 0.0 -0.850650808352
-0.809016994375 -0.309016994375 -0.5
-0.809016994375 0.309016994375 -0.5
-1.0 0.0 0.0
-0.850650808352 -0.525731112119 0.0
-0.309016994375 0.5 -0.809016994375
-0.5 -0.809016994375 -0.309016994375
-0.5 -0.809016994375 0.309016994375
0.0 -1.0 0.0
0.0 -0.850650808352 -0.525731112119
-0.809016994375 -0.309016994375 0.5
-0.309016994375 -0.5 -0.809016994375
0.5 -0.809016994375 -0.309016994375
0.309016994375 -0.5 -0.809016994375
0.154508497188 -0.25 -0.904508497187
0.0 0.0 -1.0
0.0 -0.5 -0.809016994375
-0.154508497188 -0.25 -0.904508497187
0.654508497187 0.559016994375 0.404508497188
0.404508497188 0.654508497187 0.559016994375
0.559016994375 0.404508497188 0.654508497187
0.154508497188 0.25 -0.904508497187
-0.154508497188 0.25 -0.904508497187
0.0 0.5 -0.809016994375

CELLS 98 392
3 0 1 2
3 1 3 2
3 1 4 3
3 2 3 5
3 5 3 6
3 3 7 6
3 3 4 7
3 6 7 8
3 5 6 9
3 6 10 9
3 6 8 10
3 9 10 11
3 11 10 12
3 10 13 12
3 10 8 13
3 12 13 14
3 11 12 15
3 12 16 15
3 12 14 16
3 15 16 17
3 11 15 18
3 15 19 18
3 15 17 19
3 18 19 20
3 17 21 19
3 21 22 19
3 21 23 22
3 19 22 20
3 20 22 24
3 22 25 24
3 22 23 25
3 24 25 0
3 0 2 24
3 2 26 24
3 2 5 26
3 24 26 20
3 27 28 29
3 28 30 29
3 28 31 30
3 29 30 14
3 8 32 13
3 32 29 13
3 32 27 29
3 13 29 14
3 31 33 34
3 33 35 34
3 33 36 35
3 34 35 23
3 31 34 37
3 34 21 37
3 34 23 21
3 37 21 17
3 17 16 37
3 16 30 37
3 16 14 30
3 37 30 31
3 27 38 28
3 38 33 28
3 38 36 33
3 28 33 31
3 36 39 35
3 39 25 35
3 39 0 25
3 35 25 23
3 4 1 40
3 1 39 40
3 1 0 39
3 40 39 36
3 40 41 4
3 4 41 42
3 40 43 41
3 43 44 41
3 43 38 44
3 41 44 42
3 38 43 36
3 36 43 40
3 42 44 27
3 44 38 27
3 9 45 5
3 5 45 26
3 9 46 45
3 46 47 45
3 46 18 47
3 45 47 26
3 18 46 11
3 11 46 9
3 26 47 20
3 47 18 20
3 42 48 4
3 4 48 7
3 42 49 48
3 49 50 48
3 49 32 50
3 48 50 7
3 32 49 27
3 27 49 42
3 7 50 8
3 50 32 8

CELL_TYPES 98
5
5
5
5
5
5
5
5
5
5
5
5
5
5
5
5
5
5
5
5
5
5
5
5
5
5
5
5
5
5
5
5
5
5
5
5
5
5
5
5
5
5
5
5
5
5
5
5
5
5
5
5
5
5
5
5
5
5
5
5
5
5
5
5
5
5
5
5
5
5
5
5
5
5
5
5
5
5
5
5
5
5
5
5
5
5
5
5
5
5
5
5
5
5
5
5
5
5

CELL_DATA 98
SCALARS cell_data_0 double
LOOKUP_TABLE default
4.89369675689e-07
2.50521205105e-06
3.96843121239e-07
7.37214152355e-07
7.35818930187e-07
2.44486216905e-06
3.31332230052e-07
1.87651020212e-06
7.65062637413e-07
3.22190693357e-06
1.17761248075e-06
2.46926124766e-07
1.1721205786e-06
3.11328024349e-06
1.57359269129e-07
1.45477986945e-07
1.85246413167e-06
1.04349623068e-06
1.01530859501e-06
3.05544533593e-07
4.92098576412e-07
2.37760950108e-06
4.94026600116e-07
5.83103281961e-07
4.82505979588e-07
1.74107139917e-06
3.73971306186e-07
4.64859355426e-08
1.30358931208e-06
3.0860967798e-06
2.61303193621e-07
6.28866664791e-07
6.04080244463e-07
3.10283572331e-06
1.68372769884e-07
1.32872814342e-06
2.03551730791e-06
1.04827140506e-06
1.78668148762e-06
8.66671700819e-07
6.60897282978e-07
3.84803279959e-06
6.7777181093e-07
2.78480557945e-07
1.02511084482e-06
1.72182230908e-06
1.87705480527e-06
2.55856642114e-07
2.9093298278e-07
2.72466931177e-06
4.14880570742e-07
3.39913149436e-07
3.69036636762e-07
2.04362704916e-06
8.29042315646e-07
9.31274332371e-07
7.25350145136e-07
2.42436932395e-06
4.16633116402e-07
1.88287846624e-06
3.45655077992e-06
9.701569788e-07
2.06970609259e-06
5.25962180902e-07
9.51152963497e-07
7.02797611755e-07
1.90806516766e-06
3.40060707071e-06
7.26511595094e-07
7.79684035218e-07
8.5261734842e-08
1.92612660794e-06
6.79388046047e-07
4.24070875858e-08
5.8585718656e-07
1.30795202243e-06
1.69081634367e-06
1.01640185599e-06
1.86750811676e-08
3.25705191891e-07
5.84922523471e-07
1.06338202752e-06
6.06146846782e-07
7.77339034162e-07
7.22431951396e-07
6.76020641594e-07
3.55418669388e-07
9.33639611816e-08
1.16464923945e-06
1.1873999478e-06
1.26831820619e-06
8.42904284988e-07
7.13363100441e-07
1.0990029799e-06
1.06402529224e-06
1.68932781326e-06
1.29942184566e-06
6.69620120447e-07

