# vtk DataFile Version 3.0
File Name: Molecule/sphere_dip/sphere_dip_0-s4.vtk
ASCII
DATASET UNSTRUCTURED_GRID
FIELD FieldData 1
TIME 1 1 double
0.0
POINTS 655 double
0.5 0.809016994375 -0.309016994375
0.25 0.904508497187 -0.154508497188
0.5 0.809016994375 0.0
0.25 0.904508497187 0.154508497188
0.809016994375 -0.309016994375 -0.5
0.809016994375 0.0 -0.5
0.904508497187 -0.154508497188 -0.25
0.904508497187 0.154508497188 -0.25
0.809016994375 0.309016994375 -0.5
1.0 0.0 0.0
0.667374053247 -0.154508497188 -0.675325404176
0.925325404176 0.26286555606 0.0
0.829833901363 0.417374053247 -0.25
0.850650808352 0.525731112119 0.0
-0.404508497188 0.654508497187 -0.559016994375
-0.654508497187 0.559016994375 -0.404508497188
-0.5 0.809016994375 -0.309016994375
-0.25 -0.829833901363 -0.417374053247
0.0 -0.925325404176 -0.26286555606
-0.25 -0.904508497187 -0.154508497188
0.0 -0.850650808352 -0.525731112119
-0.850650808352 -0.525731112119 0.0
-0.654508497187 -0.559016994375 0.404508497188
-0.809016994375 -0.309016994375 0.5
-0.404508497188 -0.654508497187 0.559016994375
-0.559016994375 -0.404508497188 0.654508497187
-0.309016994375 -0.5 0.809016994375
-0.309016994375 -0.5 -0.809016994375
-0.404508497188 -0.654508497187 -0.559016994375
-0.559016994375 -0.404508497188 -0.654508497187
-0.654508497187 -0.559016994375 -0.404508497188
-0.154508497188 -0.675325404176 -0.667374053247
-0.5 -0.809016994375 -0.309016994375
0.25 -0.829833901363 -0.417374053247
0.25 -0.904508497187 -0.154508497188
0.5 -0.809016994375 -0.309016994375
0.0 -1.0 0.0
0.654508497187 -0.559016994375 -0.404508497188
0.559016994375 -0.404508497188 -0.654508497187
0.404508497188 -0.654508497187 -0.559016994375
0.829833901363 -0.417374053247 -0.25
0.675325404176 -0.667374053247 -0.154508497188
0.309016994375 -0.5 -0.809016994375
0.154508497188 -0.675325404176 -0.667374053247
0.962662702088 -0.13143277803 0.0
0.867171199276 -0.285941275218 -0.25
0.925325404176 -0.26286555606 0.0
0.887988106264 -0.394298334089 0.0
0.850650808352 -0.525731112119 0.0
0.675325404176 0.667374053247 -0.154508497188
0.25 0.829833901363 -0.417374053247
0.0 0.850650808352 -0.525731112119
-0.375 0.856762745781 -0.077254248594
-0.5 0.809016994375 0.0
-0.375 0.856762745781 0.077254248594
-0.25 0.904508497187 -0.154508497188
-0.375 0.856762745781 -0.231762745782
-0.5 0.809016994375 -0.154508497188
-0.5 0.809016994375 0.154508497188
-0.5 0.809016994375 0.309016994375
-0.587662702088 0.738195523811 0.231762745782
-0.587662702088 0.738195523811 0.077254248594
-0.587662702088 0.738195523811 -0.077254248594
-0.675325404176 0.667374053247 0.0
-0.675325404176 0.667374053247 -0.154508497188
-0.587662702088 0.738195523811 -0.231762745782
-0.404508497188 0.654508497187 0.559016994375
-0.356762745782 0.577254248593 0.684016994375
-0.154508497188 0.675325404176 0.667374053247
-0.577254248593 0.684016994375 0.356762745782
-0.529508497188 0.606762745781 0.481762745782
-0.452254248594 0.731762745781 0.434016994375
-0.654508497187 0.559016994375 0.404508497188
-0.606762745781 0.481762745782 0.529508497188
-0.481762745782 0.529508497188 0.606762745781
-0.559016994375 0.404508497188 0.654508497187
-0.684016994375 0.356762745782 0.577254248593
-0.434016994375 0.452254248594 0.731762745781
-0.309016994375 0.5 0.809016994375
-0.077254248594 0.125 0.952254248593
-0.13143277803 0.0 0.962662702088
0.0 0.0 1.0
-0.231762745782 -0.375 0.856762745781
-0.417374053247 -0.25 0.829833901363
-0.154508497188 -0.25 0.904508497187
-0.208687026624 -0.125 0.914916950682
-0.077254248594 -0.125 0.952254248593
-0.154508497188 -0.5 0.809016994375
-0.077254248594 -0.375 0.856762745781
0.0 -0.5 0.809016994375
0.154508497188 -0.5 0.809016994375
0.077254248594 -0.375 0.856762745781
0.231762745782 -0.375 0.856762745781
0.0 -0.850650808352 0.525731112119
0.285941275218 -0.25 0.867171199275
0.340119804654 -0.125 0.877579652769
0.208687026624 -0.125 0.914916950682
0.154508497188 -0.25 0.904508497187
0.363195523811 -0.375 0.819425447869
0.309016994375 -0.5 0.809016994375
0.417374053247 -0.25 0.829833901363
0.525731112119 0.0 -0.850650808352
0.340119804654 -0.125 -0.87757965277
0.26286555606 0.0 -0.925325404176
0.077254248594 -0.125 -0.952254248593
0.0 0.0 -1.0
0.154508497188 -0.5 -0.809016994375
0.231762745782 -0.375 -0.856762745781
0.0 -0.5 -0.809016994375
0.077254248594 -0.375 -0.856762745781
0.0 -0.675325404176 -0.667374053247
-0.077254248594 -0.125 -0.952254248593
-0.13143277803 0.0 -0.962662702088
-0.208687026624 -0.125 -0.914916950682
-0.26286555606 0.0 -0.925325404176
-0.285941275218 -0.25 -0.867171199275
-0.340119804654 -0.125 -0.877579652769
-0.231762745782 -0.375 -0.856762745781
-0.363195523811 -0.375 -0.819425447869
-0.417374053247 -0.25 -0.829833901363
0.877579652769 -0.340119804654 0.125
0.840242354857 -0.471552582683 0.125
0.914916950682 -0.208687026624 0.125
0.867171199275 -0.285941275218 0.25
0.904508497187 -0.154508497188 0.25
0.829833901363 -0.417374053247 0.25
0.952254248593 -0.077254248594 0.125
0.856762745781 -0.231762745782 0.375
0.952254248593 0.077254248594 0.125
0.904508497187 0.0 0.25
0.904508497187 0.154508497188 0.25
0.809016994375 0.0 0.5
0.856762745781 0.231762745782 0.375
0.87757965277 0.340119804654 0.125
-0.762988106264 0.596552582683 -0.077254248594
-0.742171199276 0.488195523811 -0.327254248594
-0.829833901363 0.417374053247 -0.25
-0.809016994375 0.309016994375 -0.5
-0.667374053247 -0.154508497188 0.675325404176
-0.738195523811 -0.0772542485935 0.587662702088
-0.613195523811 -0.279508497188 -0.664916950682
0.077254248594 0.125 -0.952254248593
-0.077254248594 0.125 -0.952254248593
-0.208687026624 0.125 -0.914916950682
-0.525731112119 0.0 -0.850650808352
-0.667374053247 -0.154508497188 -0.675325404176
-0.667374053247 0.154508497188 -0.675325404176
-0.809016994375 0.0 -0.5
-0.809016994375 -0.309016994375 -0.5
-0.829833901363 -0.417374053247 -0.25
-0.904508497187 -0.154508497188 -0.25
-0.925325404176 -0.26286555606 0.0
-1.0 0.0 0.0
-0.675325404176 -0.667374053247 -0.154508497188
-0.675325404176 -0.667374053247 0.154508497188
-0.5 -0.809016994375 0.0
-0.5 -0.809016994375 0.309016994375
-0.25 -0.904508497187 0.154508497188
-0.25 -0.829833901363 0.417374053247
0.0 -0.925325404176 0.26286555606
0.5 0.809016994375 0.309016994375
0.675325404176 0.667374053247 0.154508497188
0.0 1.0 0.0
0.125 0.952254248593 0.077254248594
0.375 0.856762745781 0.231762745782
0.0 0.925325404176 -0.26286555606
0.375 0.819425447869 0.363195523811
0.25 0.867171199275 0.285941275218
0.25 0.829833901363 0.417374053247
0.125 0.914916950682 0.208687026624
0.125 0.877579652769 0.340119804654
0.0 0.925325404176 0.26286555606
0.0 0.962662702088 0.13143277803
0.125 0.840242354857 0.471552582683
0.0 0.887988106264 0.394298334089
0.0 0.850650808352 0.525731112119
-0.125 0.840242354857 0.471552582683
-0.125 0.877579652769 0.340119804654
-0.25 0.829833901363 0.417374053247
-0.125 0.914916950682 0.208687026624
-0.25 0.867171199275 0.285941275218
-0.25 0.904508497187 0.154508497188
-0.125 0.952254248593 0.077254248594
-0.125 0.87757965277 -0.340119804654
-0.125 0.952254248593 -0.077254248594
-0.077254248594 0.762988106264 0.596552582683
-0.202254248594 0.752579652769 0.542374053247
0.309016994375 0.5 0.809016994375
0.231762745782 0.375 0.856762745781
0.363195523811 0.375 0.819425447869
0.285941275218 0.25 0.867171199275
0.154508497188 0.25 0.904508497187
0.417374053247 0.25 0.829833901363
0.340119804654 0.125 0.877579652769
0.471552582683 0.125 0.840242354857
0.394298334089 0.0 0.887988106264
0.26286555606 0.0 0.925325404176
0.525731112119 0.0 0.850650808352
-0.525731112119 0.0 0.850650808352
-0.471552582683 -0.125 0.840242354857
-0.394298334089 0.0 0.887988106264
-0.340119804654 -0.125 0.877579652769
-0.26286555606 0.0 0.925325404176
0.471552582683 -0.125 0.840242354857
0.596552582683 -0.077254248594 0.762988106264
0.542374053247 -0.202254248594 0.752579652769
0.667374053247 -0.154508497188 0.675325404176
0.488195523811 -0.327254248594 0.742171199275
0.613195523811 -0.279508497188 0.664916950682
0.559016994375 -0.404508497188 0.654508497187
0.738195523811 -0.231762745782 0.587662702088
0.684016994375 -0.356762745782 0.577254248593
0.809016994375 -0.309016994375 0.5
0.356762745782 -0.577254248593 0.684016994375
0.434016994375 -0.452254248594 0.731762745781
0.481762745782 -0.529508497188 0.606762745781
0.404508497188 -0.654508497187 0.559016994375
0.529508497188 -0.606762745781 0.481762745782
0.606762745781 -0.481762745782 0.529508497188
0.654508497187 -0.559016994375 0.404508497188
0.5 -0.809016994375 0.309016994375
0.452254248594 -0.731762745781 0.434016994375
0.25 -0.829833901363 0.417374053247
0.202254248594 -0.75257965277 0.542374053247
0.154508497188 -0.675325404176 0.667374053247
0.809016994375 -0.154508497188 0.5
0.738195523811 -0.077254248594 0.587662702088
0.738195523811 0.077254248594 0.587662702088
0.667374053247 0.0 0.675325404176
0.667374053247 0.154508497188 0.675325404176
0.809016994375 0.154508497188 0.5
0.738195523811 0.231762745782 0.587662702088
0.809016994375 0.309016994375 0.5
0.596552582683 0.077254248594 0.762988106264
0.577254248593 0.684016994375 0.356762745782
0.75257965277 0.542374053247 0.202254248594
0.654508497187 0.559016994375 0.404508497188
0.404508497188 0.654508497187 0.559016994375
0.559016994375 0.404508497188 0.654508497187
0.606762745781 0.481762745782 0.529508497188
0.434016994375 0.452254248594 0.731762745781
0.731762745781 0.434016994375 0.452254248594
0.684016994375 0.356762745782 0.577254248593
0.202254248594 0.752579652769 0.542374053247
0.154508497188 0.675325404176 0.667374053247
0.077254248594 0.762988106264 0.596552582683
0.231762745782 0.587662702088 0.738195523811
0.613195523811 0.279508497188 0.664916950682
0.488195523811 0.327254248594 0.742171199275
0.542374053247 0.202254248594 0.752579652769
-0.417374053247 0.25 -0.829833901363
-0.471552582683 0.125 -0.840242354857
-0.613195523811 0.279508497188 -0.664916950682
-0.154508497188 0.25 -0.904508497187
-0.231762745782 0.375 -0.856762745781
[...]
CELL_DATA 1306
SCALARS cell_data_0 double
LOOKUP_TABLE default
1.40483641207e-05
9.08196148979e-06
0.000160947066102
0.000288602786882
0.000144851161993
0.000176083348073
5.1064674503e-05
8.25475951942e-05
0.00010296569224
3.56166394178e-05
0.000139223192219
0.000168689654495
8.04260727986e-05
5.61616033297e-05
2.15960735527e-05
9.57885709548e-07
6.05776133791e-06
1.82616066939e-05
1.65110938312e-05
2.06898196147e-05
2.87984860588e-05
4.14530511633e-05
1.93722519667e-05
2.18220181252e-05
8.35653794983e-08
4.17932576441e-05
1.1735582746e-05
1.77174142187e-05
6.39710097201e-06
3.05842965457e-06
3.20373745262e-06
5.73149588471e-06
7.61122769462e-06
3.98483270787e-06
2.93950018045e-06
4.43610095497e-05
5.73209960153e-05
1.79146308454e-05
4.57782841507e-05
5.44327881242e-06
4.86568566024e-05
6.03929309709e-05
3.90758402752e-05
6.60547352077e-05
2.65367945464e-05
1.86567687269e-05
7.30761598208e-06
8.25442989932e-06
9.47525532469e-06
6.00721738779e-06
5.56297291846e-06
3.47213503484e-06
9.20429472764e-06
8.8513561671e-07
5.01834830006e-07
7.10407543581e-07
3.52607958983e-07
4.57404824342e-07
5.70765687941e-07
1.47634432774e-06
1.07449751402e-06
2.15707496287e-06
1.24528325817e-07
8.72563104194e-06
1.57877882269e-06
1.31470005025e-06
2.6975984076e-06
3.07944791791e-06
4.31613861551e-06
4.83732824251e-06
4.31947396521e-06
3.92432067995e-06
4.90270560147e-06
6.42386872976e-06
5.8845462961e-06
5.59421765975e-06
1.02441262357e-06
1.91482767754e-05
1.93711626074e-06
2.32827195774e-05
1.96576470643e-05
5.75558365133e-06
5.30638667054e-06
5.23561825353e-06
4.51048304731e-06
2.63632458364e-06
1.50032054689e-05
3.70904410003e-06
1.04799846312e-05
1.1007471261e-05
8.30306577498e-07
3.75573502666e-06
1.39407277825e-06
2.61608641876e-05
3.86574170404e-05
7.35101438336e-06
6.84436088903e-06
2.17123319911e-06
8.57731429467e-06
1.53145014785e-06
5.4651441177e-06
1.59518580994e-05
1.76316507568e-05
1.7599377306e-05
1.15470605778e-05
7.89839256878e-06
2.59781378239e-05
2.86107466511e-05
5.17717533875e-06
3.4408238839e-06
1.65106239946e-05
6.59082205175e-06
5.89541110391e-06
2.75362980257e-06
2.34173570051e-06
1.48704479067e-05
2.12144955103e-05
6.26854796955e-07
2.18873590649e-07
2.22806869688e-05
1.59102275975e-05
8.33556855252e-05
9.77310806048e-05
4.83110079865e-05
1.94012657498e-05
1.871718074e-05
4.83424739229e-05
1.16346943997e-05
9.81575328769e-06
3.11225390211e-06
9.14423098704e-06
2.58569531283e-05
2.58530631071e-05
2.41528425901e-06
2.29223232005e-05
1.83489811325e-05
2.24034842087e-05
1.04169858664e-07
1.09234379667e-05
8.34405728307e-06
3.46688102431e-05
2.17527686667e-05
1.82296297805e-05
2.13132958785e-05
3.29229319167e-06
6.44588293596e-05
6.51710785875e-05
4.69928341314e-05
9.30349594659e-05
0.000136309181193
7.91103007071e-05
8.34217071592e-05
5.42684822018e-05
7.46201902408e-05
4.41894829711e-05
8.56750884377e-05
0.000146620203207
0.000154224675265
9.77780511883e-05
6.22788688241e-05
2.94770597711e-05
2.52761750035e-05
6.24957392966e-06
4.85404218104e-06
1.59345877461e-05
1.87370759148e-05
4.33548628411e-06
8.85566694009e-06
9.0996780479e-06
1.16375288832e-05
7.54685674766e-06
5.77514737234e-06
4.24728076643e-06
3.38921340777e-06
2.0386408047e-07
1.58161571276e-06
3.81604497293e-06
3.6457174802e-06
3.78545695472e-06
9.32603934176e-07
6.5280430431e-07
3.14153276892e-07
3.39667555593e-07
2.24941505722e-07
3.41628187345e-07
1.21280275062e-07
3.13743401424e-08
5.26579097107e-07
5.42392683277e-07
4.00112904696e-07
4.69777802574e-07
8.28117162257e-07
1.82047159225e-07
1.14723465249e-06
2.62926399466e-06
8.62544821086e-07
7.14285727209e-06
1.34595539584e-05
9.49548987246e-06
1.228021292e-05
1.36295578685e-06
9.94889090266e-07
8.15208706883e-07
9.16152903199e-07
6.6964297964e-06
4.31100013181e-06
5.762707804e-06
1.03034396374e-05
1.36579419058e-05
9.41723191284e-06
9.24864853985e-06
1.05107305001e-05
1.31729514023e-05
7.3249885463e-06
5.35111397686e-06
7.85894948853e-06
7.335380019e-06
1.42054625054e-05
1.41738146395e-06
1.48218530399e-06
6.20571069625e-06
1.57973334949e-06
7.5754970363e-06
4.06033344256e-06
2.07133805054e-06
2.85020862042e-06
4.95726598849e-07
1.39590348599e-06
1.50601479569e-06
9.41951213811e-07
3.54899117955e-06
6.03778417612e-06
2.74419046754e-06
4.79303745288e-06
2.51689367353e-06
4.49056583654e-06
2.31152517264e-06
4.00197478536e-06
7.29468333204e-07
4.67831995491e-06
3.2875700961e-06
3.65910732584e-06
2.86732775283e-06
6.29537623025e-06
4.79218843423e-06
2.11838628655e-06
3.52190960851e-06
1.78775444979e-06
1.81988342714e-05
6.49309516002e-07
1.77373518821e-05
1.14443815233e-06
3.22384544975e-06
1.45146110096e-07
1.64732493715e-05
2.61859194948e-07
6.58079441019e-07
2.40610201474e-06
1.85559135949e-07
2.72367750755e-06
6.56450919036e-07
3.49135409878e-06
7.48811566287e-06
5.10384555569e-06
1.96261433273e-05
8.0252106427e-06
3.89208117974e-05
1.25583367721e-05
1.73172132607e-05
4.28188322277e-05
2.3531804158e-06
7.22930564505e-06
1.23397551105e-05
8.8293504316e-07
2.28934195427e-06
9.19197736065e-07
2.11055999897e-05
1.48111901985e-05
5.1048062016e-06
1.33996722049e-06
1.09634091238e-06
1.68050489578e-06
8.1284339431e-07
2.95329846909e-06
4.68558305042e-07
2.0685252426e-07
1.31864114861e-06
3.21909703866e-06
7.12371864509e-07
7.84076153992e-07
3.62305064661e-06
7.46685180108e-06
8.69153505617e-06
3.69602854586e-06
3.3954023844e-06
6.0635220115e-06
3.7715206645e-06
7.09403783152e-06
4.00706046685e-06
7.75084561422e-06
8.01369227648e-06
5.79964081719e-06
9.97156024033e-06
1.22573245287e-05
1.2006917301e-05
3.67590885826e-06
1.50304300304e-05
1.37424703503e-05
8.51389421812e-06
1.09685719506e-05
1.33529246559e-05
1.18095554308e-05
7.93598120579e-06
9.79527518033e-06
1.2465843177e-05
1.12397125284e-05
9.09483793799e-06
6.92535965284e-06
8.59669412013e-06
1.29174137242e-05
1.03307624376e-05
7.19710603552e-06
1.56534149444e-05
1.01172126144e-05
3.24745991785e-06
5.8276759012e-06
5.58180797824e-06
3.84889982455e-06
1.6638936955e-05
2.17092264336e-05
4.65028363298e-05
4.94200728874e-05
1.71473619842e-05
4.29189733878e-05
1.60422178085e-05
1.66418461643e-05
2.75549215552e-05
2.58697979501e-05
1.60690700734e-05
1.92921285735e-05
1.33058187921e-05
3.10639792799e-05
2.5245834857e-05
1.24515101097e-05
2.36886218452e-05
1.05560188816e-05
4.59117698943e-06
1.06108155067e-07
9.47325217614e-06
1.93454984143e-05
7.86300478414e-06
4.31601904382e-06
3.25803430759e-06
9.66946355852e-06
6.01749919972e-06
5.53163307364e-06
4.67109239834e-06
1.96359790942e-06
1.94926716132e-05
1.11466348675e-06
5.53525158904e-06
4.12136293105e-06
4.36703334512e-07
3.79129168184e-06
2.61147654161e-06
6.68458552033e-06
4.98440420821e-06
7.44407675473e-06
7.68855736789e-06
3.12011690607e-06
4.8025658491e-06
7.65858576952e-06
6.635080781e-06
7.77266789324e-06
2.82539010771e-06
7.388955552e-06
7.38199024511e-06
5.35170206379e-06
1.27401389967e-05
2.70212131571e-05
2.3775933126e-05
1.56162958408e-05
2.03799865673e-06
4.80210663964e-06
3.88594481023e-06
1.39023385624e-06
1.73041657266e-05
8.04016863361e-06
2.7260813363e-05
2.35150452077e-05
2.28178378855e-05
2.58269399837e-05
2.34956786454e-05
1.86522928636e-05
2.02664994579e-05
2.26618379233e-05
4.66849705397e-06
3.00526830769e-05
3.178029321e-05
4.17008816393e-05
1.10033570789e-05
2.58882562571e-07
2.56699390941e-07
1.50309584419e-05
4.32805931108e-05
5.58682262734e-06
8.29687722707e-06
8.45450626219e-06
9.26282479195e-06
5.31319800229e-06
5.79722235045e-06
3.66363583009e-05
4.73615634228e-06
5.66175471549e-06
5.36882651029e-06
5.72397412175e-06
5.49363060652e-05
6.05015558416e-05
7.02258896852e-05
2.27824779642e-05
2.9421179335e-05
2.5122848099e-05
3.91674226576e-05
2.76889573995e-05
3.02523387708e-05
3.14684873742e-05
4.19295725152e-05
4.30758378001e-05
6.97864535933e-05
3.55600057729e-05
2.19030572514e-05
4.58209065672e-05
6.7082604648e-05
6.90660101058e-05
2.06515278768e-05
2.14156883713e-05
6.52904401082e-06
6.92657911994e-06
1.49250160282e-05
1.8083750901e-05
4.94862049096e-06
3.43288271569e-05
4.40690856787e-07
8.98160028564e-07
5.3619153092e-07
2.01900279514e-06
1.16277613649e-06
1.15267092908e-06
6.7628002149e-07
1.95688938744e-06
4.58116307299e-07
2.51381572679e-07
9.66794929706e-07
3.02651495657e-07
2.87137973793e-06
6.42859807865e-07
4.23706211297e-07
1.03713717014e-05
6.63657655347e-07
1.14620923156e-05
1.18891856932e-05
1.92980255872e-05
2.41687795177e-07
4.20476703392e-06
5.98719555007e-06
3.61070135025e-06
6.53702083954e-06
8.39673987215e-06
1.41117759427e-05
1.18210033174e-05
1.56936275991e-06
2.13244147672e-05
1.29571225158e-06
3.62539844872e-06
7.04158771064e-06
1.02770415916e-05
2.34866757345e-06
1.76512390085e-06
4.87370360288e-07
2.50345456743e-06
7.88052598615e-07
3.62386847739e-07
3.47229463015e-06
1.00638578814e-06
3.08937988855e-06
6.64276038375e-06
1.47745708098e-05
6.4188570653e-06
9.34362848321e-07
5.32589333001e-06
7.3167781949e-07
2.34152343243e-06
2.49575505265e-06
2.33317985977e-06
6.0973883972e-06
6.76452611569e-06
4.33760600927e-06
6.98838231722e-06
4.37101200453e-06
6.61720272185e-06
6.2274896673e-06
7.9403883353e-06
7.11322422382e-06
1.15180278057e-06
8.02389930532e-06
7.37062243619e-06
6.16759174448e-06
4.84720467012e-06
7.95234482183e-06
1.18746730962e-05
1.49941292187e-06
4.62124507865e-07
1.03706541856e-06
3.10320083685e-07
4.95709351649e-05
1.91906835437e-05
1.35555642417e-09
1.603773764e-06
1.14391726229e-05
9.93996435039e-07
3.57649955854e-06
7.73787941166e-06
1.60046417391e-05
5.21165038387e-06
5.72242109996e-06
9.98103236629e-06
2.41548804691e-05
6.05234087725e-06
4.91726835934e-06
8.7304399867e-06
2.44174238501e-05
4.11179862884e-06
2.11105835011e-05
5.74616794449e-06
6.09826216997e-06
1.86131115326e-05
1.0760366207e-05
4.593809406e-06
3.48990342002e-06
3.01897187316e-06
1.10643057714e-06
2.49401839702e-06
3.83023617228e-06
6.91447231636e-06
1.36642794093e-05
4.12991257986e-06
2.78162921294e-06
1.40106900666e-05
9.66650593912e-06
6.5944934666e-06
3.06567873828e-06
3.04041348415e-06
2.16205540922e-06
2.8644616868e-06
2.48200846264e-06
3.87563372429e-06
2.21882738911e-06
1.97278838758e-06
1.31353288885e-06
2.47033256114e-06
1.32973915465e-06
1.73248871648e-06
1.39595609664e-06
6.74508360357e-07
1.11957353537e-06
1.87144022118e-06
1.43328075497e-06
1.07964158277e-06
3.03775310974e-06
2.50407909235e-06
4.59905240132e-08
1.32776649597e-06
1.77429753763e-06
1.45549736147e-06
3.89777019044e-06
4.25908706377e-06
2.28224599313e-07
1.03585021215e-06
9.59242777082e-07
5.0441687415e-07
2.91934969321e-07
1.23137870043e-07
1.95295399031e-06
4.25503443638e-06
2.7958115143e-06
1.99098424974e-06
1.89249572208e-06
1.64312533447e-06
2.66911573857e-06
3.55056245905e-06
2.3452412951e-06
1.45102756244e-06
9.99767009407e-07
1.04907732248e-06
1.01060067338e-06
1.80162147144e-06
9.8508508748e-07
1.27151039252e-06
1.2801962376e-06
2.30249796858e-06
1.3151254549e-06
1.38131605937e-06
1.58229019294e-06
3.26167939353e-06
2.19598167935e-06
1.79549567577e-06
1.18047261218e-06
2.66213452736e-06
1.83746521519e-06
1.50860139138e-06
1.22820518629e-06
2.40775886333e-06
2.0114924419e-06
1.3041250227e-06
2.65082473836e-06
5.04160005835e-06
3.52520070381e-06
2.76267354081e-06
1.91326203777e-06
4.21375464804e-06
2.1898566849e-06
3.78551410484e-06
2.70014529371e-06
5.20975578338e-06
3.78190813411e-06
2.66431274202e-06
2.4356550742e-06
3.62602635188e-06
1.77976321028e-06
1.60307988364e-06
1.82797866051e-06
3.24361885846e-06
2.21793413729e-06
1.23835105737e-06
2.40825627734e-06
3.99058765302e-06
2.25470388213e-06
2.2959987499e-06
1.56312931465e-06
3.71478337793e-06
2.33725106667e-06
2.66360922558e-06
6.7765973169e-08
2.6947822544e-07
3.05359432018e-06
5.46665732904e-06
9.78498663771e-07
1.07940698601e-06
4.23829724064e-07
2.14720065561e-07
2.74347969862e-06
3.01098571781e-06
1.5821741518e-06
1.95998604012e-06
1.29329438008e-06
4.10399768806e-06
1.5039204576e-06
2.12326113825e-07
4.22548919323e-06
1.08747961007e-05
5.65331682309e-06
3.39101473081e-06
2.87091776843e-06
2.78311395766e-06
3.9176285409e-06
2.63171001686e-06
7.91854300145e-06
1.43019251937e-05
6.46387626158e-06
5.70824134442e-06
4.15748906696e-06
9.9431827326e-06
4.71234972017e-06
7.14476063533e-06
5.07973431687e-06
1.3779443772e-05
6.86934274163e-06
7.07541348554e-06
2.17838169009e-06
1.87503584561e-06
1.58551749393e-06
6.17257411892e-06
2.23334794078e-06
2.1200280795e-06
2.59116456597e-06
1.0032549031e-05
6.11256692015e-06
4.06837951269e-06
4.64441540572e-08
8.53243787493e-07
6.33404671628e-06
2.13567653518e-05
1.65335823074e-05
9.46657631474e-06
7.05610129308e-06
1.62467971223e-05
1.51455766751e-05
3.38254688143e-06
5.83073852494e-06
8.4670650049e-06
1.77825183475e-06
3.46323673723e-06
9.51484695438e-07
6.13371688684e-06
2.96906182247e-06
2.62200808022e-06
1.68833165973e-06
5.45889863015e-06
7.54301223269e-07
1.45525908743e-06
5.69000490981e-06
1.29914069706e-05
4.99371777853e-06
6.27127194583e-06
3.52192081028e-06
1.83820258788e-05
6.52456390806e-06
9.07658240581e-06
2.7236075184e-06
1.16112000026e-05
9.06713014053e-06
2.38511548191e-06
3.20766983243e-06
1.20431357606e-05
9.57035307326e-06
2.34502243412e-06
5.15730616134e-06
1.39973616375e-05
1.69801140489e-06
7.03556378601e-06
3.08280090363e-06
1.59620447038e-05
6.20199387746e-07
7.74785353082e-06
8.84972252158e-06
1.81638268517e-05
6.4972017027e-07
3.17717841874e-06
3.88929602699e-06
6.08187859373e-07
5.39300660572e-06
3.66961957304e-06
5.32113179356e-06
4.27502870866e-08
2.99300654969e-06
3.4795500943e-06
4.92306412641e-06
4.20282473217e-07
4.21607441527e-06
3.69656869293e-06
1.60439591956e-06
3.17476782462e-06
2.36004888527e-06
3.52346822968e-07
4.28457971901e-06
1.65961138952e-06
5.35059218746e-06
5.68267834835e-06
5.78396077925e-06
2.25909169686e-06
6.00514288951e-06
6.49029895744e-06
1.19386211346e-05
1.20497971458e-05
5.75808217151e-06
1.5550329723e-06
5.37594204886e-06
3.97990987255e-06
1.99386105545e-08
1.20911111734e-05
1.81002840345e-06
6.67717293708e-06
3.24723042647e-06
1.02486379363e-06
8.18396363198e-06
2.74455644036e-07
1.00371827457e-05
2.06275590431e-06
9.33953373451e-06
1.36202419225e-05
4.33827536214e-06
7.6014453298e-06
4.53483247412e-06
4.95103681583e-07
3.8410857365e-06
9.53239108426e-07
4.93818618061e-06
7.64834952649e-06
1.16136118782e-05
6.22704002811e-06
7.31615587521e-06
1.16730593139e-05
3.27557988695e-06
5.71046471054e-07
3.58621864672e-06
3.99999285855e-06
1.10665926474e-05
1.01706975668e-05
1.02711219389e-05
9.33511146672e-06
8.00869092346e-06
7.12475113922e-06
7.82927775405e-06
6.79551487027e-06
7.99435215417e-06
6.56345618656e-06
6.94546049902e-06
6.18638909415e-06
3.13924344486e-06
1.33600768607e-07
3.91105050744e-06
3.06889132942e-06
7.98486101671e-06
9.70501227233e-06
8.50565959105e-06
8.54327463473e-06
6.38206418111e-06
7.52273046236e-06
1.67845227888e-05
1.26388697597e-05
2.57516817024e-06
3.63935789746e-06
5.96870514857e-06
8.41824574941e-06
9.39367843602e-06
1.02327816015e-05
9.15053751444e-06
6.64916430688e-06
8.59553628908e-06
8.43923691919e-06
5.80617568242e-06
8.37587641486e-06
8.12845146815e-06
7.8015805688e-06
4.90766324599e-06
4.71214829479e-06
5.51385840241e-06
5.27877264707e-06
4.85570582666e-06
5.08619127023e-06
4.95232768711e-06
5.91482834243e-06
5.22485408348e-06
4.29857506454e-06
5.61563763995e-06
4.12408367325e-06
8.04900400319e-07
2.1032625551e-06
6.83664785584e-06
7.21703107178e-06
5.50457729122e-06
6.20493222451e-06
5.65990478155e-06
5.03374969971e-06
5.95850328194e-06
4.7947668356e-06
4.82092643368e-06
5.97424152673e-06
6.36361746919e-06
5.79554410312e-06
5.04678917492e-06
4.80337612114e-06
5.19024055902e-06
5.54991607903e-06
4.37623278559e-06
4.70286057607e-06
2.04457339243e-06
4.86940981326e-06
1.31214784828e-06
1.53458843094e-06
9.24135446063e-06
4.75470830082e-06
3.69552948893e-06
5.08863244415e-06
3.88886627403e-06
3.81738485318e-06
4.02754880739e-06
4.39218765906e-06
4.84373191913e-06
4.91949131416e-06
3.75018125997e-06
4.28049079376e-06
3.9511647638e-06
4.80905707349e-06
9.03496019947e-06
9.89331715779e-06
8.85603952355e-06
8.50455562067e-06
5.67272804507e-06
5.17325115318e-06
8.53051904926e-06
9.24437640715e-06
7.5341955207e-06
6.69620174282e-06
7.34187776231e-06
4.08863869968e-06
6.34172815472e-06
5.1581635746e-06
4.44370544548e-06
3.25657719083e-06
3.39679746588e-06
1.28702694144e-06
3.51910301455e-06
2.02950637412e-06
1.0547488834e-06
6.25060048806e-07
2.51299555666e-06
2.08609355335e-07
6.49573987151e-07
1.20499331109e-06
1.99985206825e-06
4.25590928739e-07
7.73317731833e-07
1.70402298682e-06
1.29334514087e-07
1.69921461487e-06
1.32218667266e-06
1.41654950391e-06
2.99970370391e-07
5.39598963756e-07
6.71384014027e-07
8.50728660367e-08
5.46702153987e-07
1.1471347583e-06
4.3451096137e-07
2.46139172244e-07
1.43247624656e-07
8.85287087629e-07
4.44167090222e-07
3.2272549261e-07
7.22641083215e-08
7.79060272281e-08
9.56971791468e-07
2.14789316345e-07
1.43590154437e-07
5.85791422525e-07
1.31417159301e-07
3.43144949884e-07
8.07482456758e-07
6.55489371408e-08
8.1780867385e-07
2.88207749042e-07
3.62375765183e-07
1.1147583413e-07
8.52448406129e-07
2.36037777213e-07
1.67854853616e-07
3.75603629984e-07
1.19818546812e-07
2.70863788914e-07
3.24485379962e-07
4.305835872e-07
2.39403446314e-08
2.42798502464e-06
4.77641423175e-06
4.51287468813e-06
9.2603170881e-06
1.38802547393e-05
9.46696683867e-06
1.162588182e-05
4.4487654554e-06
7.13140988873e-06
4.52863413119e-06
8.60148511904e-06
5.73600784196e-06
1.07414536824e-05
1.32231592226e-05
5.40458479326e-06
4.65681655983e-06
7.03684183988e-06
3.18441329336e-06
8.54739589167e-06
9.31065429297e-06
1.40513679114e-05
9.50964527607e-06
7.84672216655e-06
4.3867035183e-06
8.18945519973e-06
3.77660908511e-06
9.8073530828e-06
1.04964949527e-05
1.85662757437e-05
1.06141586539e-05
1.15036987517e-05
8.11136109764e-06
6.43562667245e-06
8.29662779346e-06
9.3309420839e-06
5.0610710458e-07
5.56234035749e-06
3.96361686859e-06
1.37257502676e-06
9.75901715058e-06
1.07857683626e-05
1.64334294731e-05
2.05596240978e-05
4.94550043823e-06
6.31431301162e-07
2.86053906794e-06
7.30241236212e-06
6.84845860663e-06
5.37028735922e-06
2.03621322095e-06
1.67550396669e-06
4.11968919514e-06
5.08052009093e-07
3.89169491477e-06
4.21997270517e-06
4.58457508858e-06
4.34632556023e-06
5.65737027576e-06
4.75779509497e-06
4.54031601174e-06
4.02535414394e-06
3.21156192253e-06
5.74001374377e-06
4.78466816177e-06
3.49574181425e-06
5.55098930654e-06
2.9809950019e-07
5.06682268896e-06
3.41212872623e-06
2.94974218321e-06
8.16456074915e-06
1.33117879481e-06
5.46787338351e-07
4.50363252006e-07
2.4346178282e-06
1.34589624922e-07
2.70042627167e-07
3.08922351446e-06
2.51675377955e-06
2.23365635181e-06
2.95477071596e-06
1.85037216648e-06
4.03678971543e-07
4.92140023981e-06
3.79870664322e-06
5.60784053886e-06
3.1886023968e-06
6.3175408072e-06
5.85969712006e-06
5.85581710392e-06
2.79717169656e-06
2.11527038595e-06
5.15484915257e-06
1.16703350738e-05
1.13406404422e-05
9.8979699683e-07
2.7255853704e-07
1.22447582781e-06
7.9940626169e-07
1.05054385403e-06
2.29953135862e-07
1.45270962048e-06
9.19807650932e-07
6.1734218876e-06
1.3357115274e-06
3.06361418762e-06
2.7716992113e-06
8.95604583722e-06
9.04678241346e-06
5.05890054095e-06
5.39085369586e-06
3.36751106437e-06
4.47552249924e-06
9.23789514966e-06
7.77462467835e-06
5.8181024032e-06
7.33668349929e-06
8.94354552362e-06
8.90613182927e-06
5.95446192459e-06
6.41048910679e-06
3.5021294009e-06
6.88021737989e-07
6.5161443282e-06
6.28449624155e-06
7.25207877469e-06
4.13952185398e-06
6.12435233738e-06
4.87888122323e-06
4.47256395128e-06
3.95884568467e-06
2.56706617978e-05
2.43083120372e-05
1.23354263698e-05
1.04216631557e-05
2.76063386715e-06
1.82067489339e-06
1.66352229058e-06
2.67714609666e-06
1.17201472768e-06
1.1199817198e-07
5.25754758458e-07
5.82880086553e-07
2.18228377852e-05
4.87157428064e-05
2.75320255465e-06
2.81439596375e-06
2.77670341526e-06
8.72144418034e-06
1.78805045911e-06
1.60563603459e-06
2.97559750115e-06
1.26283109037e-05
5.08607502123e-05
2.94719754364e-05
5.10940938591e-06
8.41291294984e-06
4.86758311723e-06
6.2262127796e-06
8.93093678694e-06
6.53577813445e-06