# vtk DataFile Version 3.0
File Name: Molecule/sphere_dip/sphere_dip_0-s5.vtk
ASCII
DATASET UNSTRUCTURED_GRID
FIELD FieldData 1
TIME 1 1 double
0.0
POINTS 1356 double
0.309016994375 -0.5 -0.809016994375
0.404508497188 -0.654508497187 -0.559016994375
0.154508497188 -0.675325404176 -0.667374053247
0.25 -0.829833901363 -0.417374053247
0.5 -0.809016994375 -0.309016994375
-0.375 0.856762745781 -0.077254248594
-0.5 0.809016994375 0.0
-0.375 0.856762745781 0.077254248594
-0.5 0.809016994375 0.154508497188
-0.5 0.809016994375 -0.309016994375
-0.375 0.856762745781 -0.231762745782
0.0 0.850650808352 -0.525731112119
-0.5 0.809016994375 0.309016994375
-0.587662702088 0.738195523811 0.231762745782
-0.587662702088 0.738195523811 0.077254248594
-0.587662702088 0.738195523811 -0.077254248594
-0.675325404176 0.667374053247 0.0
-0.675325404176 0.667374053247 -0.154508497188
-0.5 0.809016994375 -0.154508497188
-0.587662702088 0.738195523811 -0.231762745782
-0.404508497188 0.654508497187 0.559016994375
-0.356762745782 0.577254248593 0.684016994375
-0.154508497188 0.675325404176 0.667374053247
-0.577254248593 0.684016994375 0.356762745782
-0.529508497188 0.606762745781 0.481762745782
-0.452254248594 0.731762745781 0.434016994375
-0.654508497187 0.559016994375 0.404508497188
-0.606762745781 0.481762745782 0.529508497188
-0.481762745782 0.529508497188 0.606762745781
-0.559016994375 0.404508497188 0.654508497187
-0.684016994375 0.356762745782 0.577254248593
-0.434016994375 0.452254248594 0.731762745781
-0.309016994375 0.5 0.809016994375
0.0 -0.5 0.809016994375
0.154508497188 -0.5 0.809016994375
0.077254248594 -0.375 0.856762745781
0.231762745782 -0.375 0.856762745781
0.309016994375 -0.5 0.809016994375
0.363195523811 -0.375 0.819425447869
0.285941275218 -0.25 0.867171199275
0.417374053247 -0.25 0.829833901363
0.154508497188 -0.5 -0.809016994375
0.231762745782 -0.375 -0.856762745781
0.0 -0.5 -0.809016994375
0.077254248594 -0.375 -0.856762745781
0.0 -0.850650808352 -0.525731112119
0.0 -0.675325404176 -0.667374053247
-0.667374053247 -0.154508497188 0.675325404176
-0.738195523811 -0.0772542485935 0.587662702088
-0.809016994375 -0.309016994375 0.5
0.0 1.0 0.0
0.125 0.952254248593 0.077254248594
0.25 0.904508497187 -0.154508497188
0.125 0.914916950682 0.208687026624
0.125 0.877579652769 0.340119804654
0.25 0.867171199275 0.285941275218
0.0 0.925325404176 0.26286555606
0.25 0.904508497187 0.154508497188
0.0 0.962662702088 0.13143277803
0.25 0.829833901363 0.417374053247
0.125 0.840242354857 0.471552582683
0.0 0.887988106264 0.394298334089
0.0 0.850650808352 0.525731112119
-0.125 0.840242354857 0.471552582683
-0.125 0.877579652769 0.340119804654
-0.25 0.829833901363 0.417374053247
-0.125 0.914916950682 0.208687026624
-0.25 0.867171199275 0.285941275218
-0.25 0.904508497187 0.154508497188
-0.125 0.952254248593 0.077254248594
-0.202254248594 0.752579652769 0.542374053247
-0.077254248594 0.762988106264 0.596552582683
-0.525731112119 0.0 0.850650808352
-0.471552582683 -0.125 0.840242354857
-0.394298334089 0.0 0.887988106264
0.525731112119 0.0 0.850650808352
0.471552582683 -0.125 0.840242354857
0.596552582683 -0.077254248594 0.762988106264
0.542374053247 -0.202254248594 0.752579652769
0.667374053247 -0.154508497188 0.675325404176
0.488195523811 -0.327254248594 0.742171199275
0.613195523811 -0.279508497188 0.664916950682
0.559016994375 -0.404508497188 0.654508497187
0.738195523811 -0.231762745782 0.587662702088
0.684016994375 -0.356762745782 0.577254248593
0.809016994375 -0.309016994375 0.5
0.356762745782 -0.577254248593 0.684016994375
0.434016994375 -0.452254248594 0.731762745781
0.481762745782 -0.529508497188 0.606762745781
0.404508497188 -0.654508497187 0.559016994375
0.529508497188 -0.606762745781 0.481762745782
0.606762745781 -0.481762745782 0.529508497188
0.654508497187 -0.559016994375 0.404508497188
0.5 -0.809016994375 0.309016994375
0.452254248594 -0.731762745781 0.434016994375
0.25 -0.829833901363 0.417374053247
0.202254248594 -0.75257965277 0.542374053247
0.0 -0.850650808352 0.525731112119
0.154508497188 -0.675325404176 0.667374053247
0.809016994375 -0.154508497188 0.5
0.738195523811 -0.077254248594 0.587662702088
0.738195523811 0.077254248594 0.587662702088
0.667374053247 0.154508497188 0.675325404176
0.667374053247 0.0 0.675325404176
0.809016994375 0.154508497188 0.5
0.809016994375 0.309016994375 0.5
0.738195523811 0.231762745782 0.587662702088
0.596552582683 0.077254248594 0.762988106264
0.309016994375 0.5 0.809016994375
0.434016994375 0.452254248594 0.731762745781
0.404508497188 0.654508497187 0.559016994375
0.731762745781 0.434016994375 0.452254248594
0.684016994375 0.356762745782 0.577254248593
0.202254248594 0.752579652769 0.542374053247
0.154508497188 0.675325404176 0.667374053247
0.077254248594 0.762988106264 0.596552582683
0.231762745782 0.587662702088 0.738195523811
0.613195523811 0.279508497188 0.664916950682
0.559016994375 0.404508497188 0.654508497187
0.488195523811 0.327254248594 0.742171199275
0.542374053247 0.202254248594 0.752579652769
0.417374053247 0.25 0.829833901363
0.363195523811 0.375 0.819425447869
0.471552582683 0.125 0.840242354857
0.596552582683 -0.077254248594 -0.762988106264
0.596552582683 0.077254248594 -0.762988106264
0.667374053247 0.0 -0.675325404176
0.525731112119 0.0 -0.850650808352
0.559016994375 0.404508497188 -0.654508497187
0.434016994375 0.452254248594 -0.731762745781
0.481762745782 0.529508497188 -0.606762745781
0.356762745782 0.577254248593 -0.684016994375
0.309016994375 0.5 -0.809016994375
0.404508497188 0.654508497187 -0.559016994375
0.667374053247 0.154508497188 -0.675325404176
0.542374053247 0.202254248594 -0.752579652769
0.613195523811 0.279508497188 -0.664916950682
0.488195523811 0.327254248594 -0.742171199275
0.417374053247 0.25 -0.829833901363
0.471552582683 0.125 -0.840242354857
0.363195523811 0.375 -0.819425447869
0.231762745782 0.587662702088 -0.738195523811
0.279508497188 0.664916950682 -0.613195523811
-0.154508497188 0.675325404176 -0.667374053247
-0.202254248594 0.75257965277 -0.542374053247
-0.309016994375 0.5 -0.809016994375
-0.434016994375 0.452254248594 -0.731762745781
-0.356762745782 0.577254248593 -0.684016994375
-0.809016994375 0.309016994375 0.5
-0.856762745781 0.231762745782 0.375
-0.809016994375 0.154508497188 0.5
-0.856762745781 0.077254248594 0.375
-0.904508497187 0.154508497188 0.25
-0.809016994375 0.0 0.5
-0.904508497187 0.0 0.25
-0.856762745781 -0.077254248594 0.375
-0.904508497187 -0.154508497188 0.25
-0.952254248593 0.077254248594 0.125
-0.952254248593 -0.077254248594 0.125
-0.654508497187 -0.559016994375 -0.404508497188
-0.577254248593 -0.684016994375 -0.356762745782
-0.75257965277 -0.542374053247 -0.202254248594
0.5 -0.809016994375 0.0
0.375 -0.856762745781 0.077254248594
0.25 -0.904508497187 -0.154508497188
0.25 -0.904508497187 0.154508497188
0.5 -0.809016994375 0.154508497188
0.375 -0.856762745781 0.231762745782
0.125 -0.952254248593 0.077254248594
0.125 -0.87757965277 0.340119804654
0.542374053247 -0.202254248594 -0.752579652769
0.471552582683 -0.125 -0.840242354857
0.667374053247 -0.154508497188 -0.675325404176
0.613195523811 -0.279508497188 -0.664916950682
0.488195523811 -0.327254248594 -0.742171199275
0.559016994375 -0.404508497188 -0.654508497187
0.417374053247 -0.25 -0.829833901363
0.363195523811 -0.375 -0.819425447869
0.434016994375 -0.452254248594 -0.731762745781
0.829833901363 -0.417374053247 -0.25
0.762988106264 -0.596552582683 -0.077254248594
0.675325404176 -0.667374053247 -0.154508497188
0.587662702088 -0.738195523811 -0.231762745782
0.654508497187 -0.559016994375 -0.404508497188
-0.3125 0.880635621484 0.193135621485
-0.3125 0.843298323572 0.324568399515
-0.375 0.819425447869 0.363195523811
-0.4375 0.832889870078 0.270389870079
-0.25 0.904508497187 0.077254248594
-0.3125 0.880635621484 0.038627124297
-0.3125 0.880635621484 0.115881372891
-0.375 0.856762745781 0.154508497188
-0.675325404176 0.667374053247 0.154508497188
-0.631494053132 0.702784788529 0.193135621485
-0.675325404176 0.667374053247 0.077254248594
-0.71915675522 0.631963317965 0.115881372891
-0.71915675522 0.631963317965 0.038627124297
-0.762988106264 0.596552582683 0.077254248594
-0.71915675522 0.631963317965 -0.038627124297
-0.762988106264 0.596552582683 0.0
-0.762988106264 0.596552582683 -0.077254248594
-0.806819457308 0.561141847401 0.038627124297
-0.806819457308 0.561141847401 -0.038627124297
-0.850650808352 0.525731112119 0.0
-0.476127124297 0.770389870078 0.371516994375
-0.351127124297 0.780798323572 0.425695523811
-0.231762745782 0.587662702088 0.738195523811
-0.693135621484 0.496516994375 0.428381372891
-0.731762745781 0.434016994375 0.452254248594
-0.707889870078 0.395389870079 0.514754248593
-0.770389870078 0.371516994375 0.476127124297
-0.746516994375 0.332889870079 0.538627124296
-0.626289826385 0.675695523811 0.255635621485
-0.664916950682 0.613195523811 0.279508497188
-0.670121177429 0.640284788529 0.217008497188
-0.659712723934 0.586106259093 0.342008497188
-0.713952528472 0.604874053247 0.178381372891
-0.708748301725 0.577784788529 0.240881372891
-0.752579652769 0.542374053247 0.202254248594
-0.747375426022 0.515284788529 0.264754248594
-0.703544074979 0.550695523811 0.303381372891
-0.742171199275 0.488195523811 0.327254248594
-0.791206777066 0.479874053247 0.226127124297
-0.786002550319 0.452784788529 0.288627124297
-0.829833901363 0.417374053247 0.25
-0.698339848231 0.523606259093 0.365881372891
-0.757783879516 0.569463317965 0.139754248594
-0.80161523056 0.534052582683 0.101127124297
-0.796411003813 0.506963317965 0.163627124297
-0.840242354857 0.471552582683 0.125
-0.845446581605 0.498641847401 0.0625
-0.83503812811 0.444463317965 0.1875
-0.736966972528 0.461106259093 0.389754248594
-0.780798323572 0.425695523811 0.351127124297
-0.775594096825 0.398606259093 0.413627124297
-0.819425447869 0.363195523811 0.375
-0.824629674616 0.390284788529 0.3125
-0.814221221122 0.336106259093 0.4375
-0.398606259093 0.413627124297 0.775594096825
-0.363195523811 0.375 0.819425447869
[...]
CELL_DATA 2708
SCALARS cell_data_0 double
LOOKUP_TABLE default
2.44939063691e-05
3.67979376661e-05
5.35167406555e-05
3.27681461703e-06
1.31917808354e-06
2.99064717949e-05
6.81957156843e-07
9.13767071068e-07
5.74703452943e-07
1.21712967531e-06
1.46217523762e-06
1.08996210623e-06
3.33770835536e-06
5.01653527967e-06
2.37400466773e-06
8.5292712999e-06
1.40054934587e-06
1.50909872824e-06
2.02592869233e-06
2.42159623709e-06
3.96136112565e-06
5.16085581887e-06
3.90988544465e-06
4.18045100375e-06
4.94767197541e-06
6.41629909951e-06
6.12160103178e-06
4.85779373834e-06
3.10392910896e-07
1.3827505395e-05
1.21414742866e-05
6.3546367792e-06
7.947979229e-06
8.76119208331e-06
1.3944593764e-05
1.40494352912e-06
8.60759801031e-06
1.51595721845e-05
3.83565049995e-06
2.42683285157e-05
9.24819873413e-05
6.0775017806e-05
4.11610678377e-05
4.30463975076e-05
7.3449375859e-05
4.04389821099e-05
4.20287514126e-05
4.38393641804e-05
6.60032684979e-05
3.85306695202e-05
4.33195074343e-05
3.53476731735e-05
5.00788250372e-05
3.30834526858e-05
2.83428482538e-05
2.63022698822e-05
4.28780216469e-05
2.4709799727e-05
2.84557966052e-05
3.21059727566e-05
5.49952528598e-05
3.52434008192e-05
2.88548065987e-05
6.71756363311e-05
3.99061974539e-05
3.68047327919e-05
2.11197500435e-05
3.36940378267e-05
6.31214152405e-06
1.73042209964e-05
3.74636609339e-05
1.4948542638e-05
2.62776122406e-05
9.16577789063e-06
3.32310100919e-05
3.05275983167e-05
2.85243593646e-05
4.23309174001e-05
5.6333014134e-05
3.75780954857e-05
3.47960720373e-05
2.43805308158e-05
5.11449348018e-05
3.76771254596e-05
3.36165860857e-05
3.13217434473e-05
5.38252407166e-05
4.30836662676e-05
4.11553704973e-05
5.62563182185e-05
9.02947345517e-05
5.03433688494e-05
7.30739466724e-05
7.44304132521e-05
0.000115731573908
7.24098773675e-05
5.23381274683e-05
4.60234421797e-05
3.92270627999e-05
2.8711832701e-05
2.84557186907e-05
3.74567630143e-05
3.32724622657e-05
2.91846084255e-05
2.42102168039e-05
1.05020558569e-05
6.58328435618e-06
2.15593767283e-05
5.04189657276e-05
1.60082244352e-05
4.3171715495e-05
6.02719600567e-05
2.42714024747e-05
1.05779593669e-05
1.03679215682e-05
3.22533116633e-05
3.55924934845e-05
1.63566017691e-05
1.75947809312e-05
1.0474822001e-06
9.4268002262e-06
2.07845620808e-06
1.23008080468e-05
9.89463686491e-06
2.3873996808e-05
2.15718616057e-05
8.52310477372e-06
1.37050896943e-05
1.25797056941e-06
5.34555830118e-06
5.38084253249e-06
5.45981941825e-06
5.9725534142e-06
5.66058570914e-06
4.12529882623e-06
5.88355840344e-06
7.43978082469e-06
8.2301465746e-06
5.86866696402e-06
5.62576911563e-06
7.75967791277e-06
6.78226410656e-06
8.29028134897e-06
5.81959059034e-06
7.49263869057e-06
7.7893250963e-06
6.16219634568e-06
4.82163551417e-06
4.5390910442e-06
2.44270482616e-05
4.03053940895e-05
5.18387138412e-05
7.4130686335e-05
5.22687629954e-05
5.02839359032e-05
5.84179030623e-05
5.34563514123e-05
4.0891150968e-05
2.7441359427e-05
5.28853527294e-05
5.55652732307e-05
4.81664821225e-05
3.60785159295e-05
4.35669190784e-05
2.36691063681e-05
7.53669996823e-05
7.38885418308e-05
0.000103599004337
7.04197003336e-05
9.61144066841e-05
9.88713464227e-05
0.000139560976139
9.81348184626e-05
7.30802806637e-05
1.12603045211e-06
3.7301576707e-06
8.27083636082e-07
2.87764150454e-06
2.27608172387e-06
5.43980129493e-06
4.33937642278e-06
3.15315044313e-06
3.68779300564e-07
7.32080992748e-05
5.99808819377e-05
1.80916114823e-05
1.63873830834e-05
1.20010912106e-05
8.79374665343e-06
1.48742565567e-05
6.84296758901e-06
3.85773383425e-06
7.87717736732e-06
2.94986622751e-06
6.43638635696e-07
7.70904168149e-07
5.15550902613e-07
5.532657582e-07
2.44310069056e-07
1.99270933859e-07
1.57122505392e-07
3.30080864458e-07
1.38453144429e-07
1.67867504192e-07
4.19701630772e-07
2.84222277533e-07
9.88632073864e-07
3.27877769505e-07
4.16406113588e-07
3.83543009247e-07
5.61145608189e-07
4.39130926973e-07
2.62985674061e-06
2.0876037857e-06
3.53403404915e-07
3.39968690225e-06
4.44810862093e-07
1.56740836433e-06
3.78840485651e-06
4.78477232715e-06
3.44130831928e-07
4.1742991014e-08
1.45032428571e-06
1.44303790685e-06
7.85277489161e-07
4.17268842275e-07
2.35265846138e-06
3.33634366872e-06
2.74217045403e-06
1.31377219878e-06
6.23998313468e-08
3.16246012837e-07
1.95514874104e-07
8.20418189159e-07
9.98215981075e-07
6.11852322834e-07
1.65401122764e-06
1.62069540656e-06
1.88954501999e-06
2.72326796225e-06
1.39651688259e-06
1.36886244921e-06
1.12397544847e-06
1.82838194372e-06
8.98935324829e-07
9.18098032147e-07
8.99716075925e-07
1.60617497139e-06
7.17327624979e-07
9.25844135823e-07
1.52875132017e-06
1.81351204449e-06
3.86100145473e-07
1.05101833931e-06
9.80371611616e-07
1.34822752453e-06
6.33275610773e-07
1.13203073699e-06
1.06717394536e-06
9.82004151973e-07
5.63784019221e-07
3.76693070562e-07
8.69765848351e-07
8.27144995784e-07
4.60858912011e-07
6.77669756622e-07
3.83849685441e-07
5.8412855285e-07
2.61387958759e-07
4.19275760676e-07
1.21808181954e-06
1.19919025345e-06
7.71406464424e-08
9.54000245111e-07
2.30433041039e-07
2.01637189902e-07
2.33000116517e-08
2.33966140541e-07
2.08545973132e-07
2.48255106382e-07
2.89327380609e-07
7.06933235378e-09
7.7978864904e-07
6.09367815662e-07
7.20811859059e-08
1.40751809914e-06
2.61959094867e-06
1.71985819611e-06
1.73545193307e-06
1.92649354016e-06
1.63528421394e-06
1.85646519754e-06
2.36570689431e-06
2.81950355215e-06
3.49343947572e-06
2.35091098758e-06
2.21970293048e-06
1.34419056122e-06
1.51866368469e-06
1.71238445449e-06
1.47087109245e-06
3.33935383405e-06
3.81341638341e-06
1.13603861923e-06
1.08893703035e-06
3.63141043509e-06
3.48984582028e-06
1.64667227576e-06
1.91127382527e-06
1.34084552744e-06
1.88062094734e-06
3.47112541644e-06
2.2885058864e-06
1.36320309666e-06
4.70292686309e-06
5.79503981543e-06
2.41948963441e-06
4.57204757148e-06
1.57722590157e-06
3.64926027617e-06
7.605962e-07
3.79190252426e-06
6.01226941487e-06
4.53159189193e-06
6.08069994234e-06
3.09348757535e-06
4.09313273102e-06
4.42536094283e-06
6.28226234457e-06
3.2976861639e-06
5.03281635458e-06
4.8442299818e-06
1.26721683659e-06
6.36658780712e-06
1.40757211361e-06
1.69161182234e-06
4.88974702809e-06
4.01045444236e-06
5.41052067918e-06
6.65182337238e-06
6.93490258938e-06
7.31775876604e-06
7.11228537793e-06
6.41303255913e-06
6.2233690809e-06
5.89461066587e-06
7.74318797633e-06
1.56641535445e-08
3.82345042466e-07
6.05360564126e-06
6.35879370961e-06
8.12020945405e-06
4.67686524554e-06
5.55156019371e-06
7.8387524856e-06
6.90964885629e-06
6.83838622872e-06
7.27686896508e-06
4.59648602662e-06
4.801868644e-06
4.16082265152e-06
8.19351847044e-06
8.24275243035e-06
7.35557771217e-06
8.42284495097e-06
8.00212665537e-06
4.53170966677e-06
4.1754215665e-06
4.02303013655e-06
3.76255786339e-06
4.35699246328e-06
4.453364061e-06
4.29311298477e-06
4.53420886433e-06
3.60240383937e-06
3.40968571271e-06
3.3253225114e-06
3.6373925368e-06
4.46128700937e-06
3.37586402928e-06
7.00604156158e-06
4.08296701269e-06
5.5101444405e-06
4.95760504377e-06
5.92831861382e-06
5.4673890642e-06
5.93699698639e-06
4.95219338561e-06
6.06493998026e-06
4.36580736097e-06
4.3000767699e-06
4.14071264337e-06
4.2244457237e-06
5.13516686173e-06
5.32231611224e-06
5.0475948071e-06
4.71451314092e-06
5.04870910626e-06
3.34456800976e-06
6.72599885793e-06
1.17081687261e-05
1.67410250368e-05
3.92902505938e-06
4.21377258806e-06
3.87034015904e-06
3.98216152029e-06
3.76553285524e-06
3.63127817534e-06
3.76679516993e-06
3.49449075441e-06
3.05733169185e-06
2.99692811811e-06
3.20628259027e-06
5.03672963458e-06
5.76530078644e-06
6.34667670441e-06
2.76794987481e-06
5.52994240554e-06
2.46498294641e-06
1.97258459261e-08
9.71981548949e-07
3.27731637486e-06
2.43608661681e-06
4.9607354132e-07
5.15709455742e-06
6.37820780772e-06
3.26556649581e-06
4.27250846269e-07
4.19614838661e-06
6.39994507837e-06
5.23576665543e-06
5.45562062809e-07
9.98290160591e-06
1.09041843744e-05
5.18237575542e-06
8.60753357829e-07
9.2357178492e-06
8.4555933023e-06
4.25386274264e-06
8.6796706184e-07
7.1776700872e-06
4.36723407525e-07
1.30378863343e-07
1.2172771664e-07
3.77447417831e-08
1.66031241276e-07
1.24673810016e-07
4.63724638534e-07
2.89190611901e-09
5.82220584413e-08
2.37359481252e-07
7.48997124226e-07
1.88789970688e-07
1.65549200532e-07
5.54537473534e-08
4.03691002298e-07
7.86654380118e-07
7.41049227765e-07
1.78765590696e-07
1.14929074562e-07
2.29558297121e-07
3.41822652717e-07
9.30882009605e-07
9.97843123149e-07
1.2782983583e-06
1.10652616716e-06
7.99053641246e-07
1.11852826226e-06
1.1203804695e-06
1.31988042888e-06
1.37054351363e-06
1.18983795715e-06
5.31155927011e-07
2.78500750424e-06
8.0256453837e-06
5.69079699741e-06
6.2031077922e-06
7.48003017794e-06
7.34278304319e-06
6.78849157078e-06
7.09150273698e-06
6.94343931282e-06
6.19441968334e-06
3.28015059919e-06
4.10231017333e-06
4.33628379656e-06
4.27937342733e-06
9.06612720487e-06
9.11263098958e-06
4.83848164841e-06
4.7476599938e-06
5.01773474833e-06
4.50676680659e-06
4.47685329514e-06
3.99571070023e-06
4.55403131254e-06
4.64621474001e-06
4.53869227992e-06
4.77776529757e-06
4.98772979654e-06
5.02828935501e-06
5.59349284615e-06
7.62181833493e-06
3.00563884867e-06
3.53952187414e-06
3.58005326227e-06
4.01381039086e-06
2.38637815025e-06
2.29783449785e-06
1.14927887354e-06
2.72665144808e-06
4.30722079052e-06
4.31388130744e-06
3.85017980796e-06
4.64311235546e-06
4.18569714197e-06
3.89683573281e-06
4.98098043845e-06
3.82304478869e-06
5.05434381461e-06
4.44112278182e-06
4.68773275664e-06
4.45806450111e-06
4.80663617442e-06
5.03519016314e-06
4.96453049595e-07
1.66528396055e-06
3.50233341251e-06
5.13340008754e-07
4.02001329961e-06
3.25495526031e-06
3.02507991468e-06
1.90463096102e-06
7.08984912532e-06
8.27934520772e-06
3.30883671498e-06
4.25718273467e-06
4.14396570809e-06
4.24397133871e-06
4.34302018668e-06
8.28436134173e-06
5.80162341281e-06
7.95964276722e-06
6.41770606715e-06
6.50889807907e-06
6.11406671001e-06
5.29145895045e-06
4.70119433287e-06
4.001296341e-06
1.55409118905e-07
1.86596567977e-07
2.19750317089e-08
1.94769517911e-07
1.32526776437e-07
3.58908515114e-07
1.03842044476e-05
1.13605994191e-05
4.34056856734e-07
4.84074836867e-07
3.52132144736e-07
3.66836066284e-06
4.41759267328e-06
5.18810586487e-06
8.2588644561e-06
4.62343350043e-06
2.48005398237e-06
8.19956395481e-08
1.00184591004e-06
4.40191602715e-06
1.50242288609e-07
3.48871538198e-06
4.27869288058e-07
1.36570540224e-06
1.46327645303e-06
2.64637751121e-06
2.13456077769e-06
9.45581028034e-07
1.60111967005e-06
1.76170775573e-06
8.8914865782e-08
6.7599686919e-07
2.25158337937e-07
1.67498033073e-06
2.19642445613e-08
5.16914338169e-07
2.99816642813e-06
9.55188622158e-06
1.40438255232e-05
9.18769813853e-06
7.26870169862e-06
7.22915965722e-06
7.59377492632e-06
5.21633166755e-06
2.09184471209e-07
1.10788821068e-05
1.91578492104e-07
3.45555958304e-07
1.92935992185e-06
2.45699540535e-06
8.63726512068e-08
4.9216145384e-07
3.40116754515e-07
1.61360381173e-06
8.32181582941e-06
1.63860838651e-05
1.34977916459e-05
3.08761354089e-05
1.23428173618e-07
5.72266363888e-06
6.33302645446e-06
9.40640325443e-06
1.4828542274e-05
2.84642096424e-05
1.64174071697e-05
2.201894529e-05
6.279453643e-06
1.90308351358e-05
9.05272044376e-06
2.66107529016e-05
3.4430922301e-05
6.71052183232e-06
4.74688164345e-06
2.42173362928e-06
5.90249070033e-06
1.02162218395e-05
1.04374200529e-05
6.34233148215e-06
1.60071779746e-05
2.16673525852e-05
1.99134709837e-05
1.45681824936e-05
2.20555005593e-05
9.08535012528e-06
8.8952686504e-06
5.39123802192e-06
4.87221717722e-06
7.04431031439e-06
4.67970589601e-06
3.49884819505e-06
3.43733297414e-06
7.76932185032e-06
5.58455767851e-06
6.89772174965e-06
3.3586118728e-06
2.95517969438e-06
2.4308620486e-06
5.45945203035e-06
3.70726935237e-07
5.03617918165e-06
5.24754505565e-06
1.01531213446e-05
6.90119824407e-06
1.05444952539e-05
6.0813558422e-06
7.2880777136e-06
1.32652109642e-05
5.75592078637e-06
1.51139554768e-06
4.11318398733e-06
7.33527928819e-07
1.98359938134e-06
6.934283445e-06
3.22982925391e-07
3.14400135887e-06
2.65607811118e-06
6.54884858309e-07
4.6338868078e-06
1.59801307819e-05
8.8564219487e-06
1.15463687829e-05
4.22356416537e-06
4.63468876e-07
2.81808208538e-05
5.18205419914e-05
5.15873261885e-05
5.23842446596e-05
7.50737391965e-05
7.71306155272e-05
4.5527495147e-05
5.30218404765e-05
4.01770803948e-05
8.12433850477e-05
4.66069571096e-05
4.62724391843e-05
3.56536600578e-05
6.6046136684e-05
3.02619568516e-05
4.50024530317e-05
3.29603864923e-05
6.86971888494e-05
4.16405918094e-05
3.54326354185e-05
2.97107505887e-05
4.75845487922e-05
3.01883074669e-05
2.36976852771e-05
2.48741331466e-05
2.18108019493e-05
3.3101616173e-06
1.16333830718e-05
1.01129945016e-05
9.05380811569e-06
8.81075985714e-06
2.06951727935e-06
3.8287029211e-07
6.34857252619e-07
1.21525317441e-06
1.48257788804e-06
1.99664864247e-06
2.85907341801e-09
1.75267736519e-06
9.18571689316e-07
1.78216475009e-06
1.79405769758e-06
3.19032550217e-07
1.70542293946e-06
1.88398037796e-06
4.87285343672e-07
2.57964602684e-06
7.36977354119e-07
1.84157382695e-06
8.04243177322e-07
9.4448958509e-08
2.45974539619e-06
1.26622032353e-06
1.7766407835e-06
1.38937607124e-06
7.94600337219e-06
1.37185879715e-06
4.3710630087e-06
2.89535846137e-06
1.75019033203e-06
2.24180418405e-06
6.16928199781e-06
5.14394959746e-06
3.69032713646e-06
1.08264407629e-06
3.13723101537e-06
1.051390298e-06
3.87694246525e-06
4.61161272572e-06
5.82944772281e-06
3.18838185557e-06
4.56799576718e-06
2.21096832201e-06
4.41247147719e-06
5.60852751405e-07
3.4504723179e-06
2.21778582635e-06
3.18236883089e-06
4.4988482141e-07
1.24296532488e-06
1.1683443187e-06
2.05785909553e-06
5.35499367422e-07
1.00782050263e-06
6.04034969228e-07
3.99269990327e-07
2.43595638414e-06
2.85063668146e-06
7.8292862601e-07
5.17455485673e-07
2.95014879092e-06
3.47202043942e-06
2.72653723683e-06
8.62349734114e-07
3.5648280679e-06
3.48588238087e-06
2.11528676575e-05
1.77274891673e-05
3.56862308209e-06
7.84799439622e-07
3.53953334082e-06
1.39383520778e-05
1.73643615318e-06
3.39123052115e-06
8.9490550685e-07
3.52391402192e-06
1.62553458291e-06
4.71924979328e-06
1.13388013679e-06
4.64254912484e-06
1.96352765181e-05
1.27701249429e-05
7.85053568589e-07
1.03902763563e-06
2.48026121342e-06
4.60218932876e-07
1.28979010372e-05
1.71296699982e-05
1.10330395574e-05
7.76906539552e-06
4.12986296602e-06
3.67668772364e-06
3.38853434505e-06
4.32427245434e-06
2.87827595075e-06
3.71674741807e-09
1.85959884814e-06
5.68498305572e-07
3.45557903403e-06
6.69103309297e-07
4.26282857424e-06
2.48620714712e-06
6.91994045727e-06
5.52629370101e-06
1.72381884051e-06
5.37266877362e-06
6.86590130729e-08
3.46972388618e-08
2.12102052967e-06
1.5748914694e-06
4.12033444383e-06
4.87932021573e-06
7.35338138323e-06
4.88309695109e-06
4.38352786062e-06
4.59055546176e-06
7.18170550488e-06
6.81912554335e-06
9.20035624945e-06
9.2740894107e-06
7.57735369427e-06
5.64976453387e-06
2.03573954088e-05
5.20418092219e-05
3.09172829388e-05
5.8918901233e-05
2.61670411426e-05
4.8289824301e-05
4.04648362241e-05
4.50920748353e-05
6.42743930123e-05
6.72103661361e-05
3.97056771864e-05
4.66967638883e-05
1.26668939193e-05
2.56599789407e-05
1.68305324016e-05
1.53239773042e-05
9.56491651389e-06
9.51268114162e-06
3.35791136947e-06
8.38120414808e-06
5.69865086509e-06
6.36730715757e-06
2.75595653154e-06
3.78173009768e-06
5.35399586766e-06
4.43218976175e-06
4.59621016045e-06
4.80676964551e-06
4.13455570737e-06
4.16230476279e-06
2.53646788443e-06
4.02365651092e-06
4.61002339629e-06
4.12676752164e-06
5.33651742879e-06
6.16414468142e-06
5.4914240288e-06
6.42094390869e-06
4.22497847904e-06
4.37205490585e-06
4.32774730883e-06
3.99123045057e-06
1.41207556783e-06
2.15348942159e-06
2.06724157547e-06
2.48403590621e-06
6.27422267986e-06
5.56087882332e-06
5.71629881635e-06
6.81876151357e-06
8.75328485616e-06
7.03060026652e-06
7.14007954458e-06
2.21348989653e-06
2.13400555894e-06
5.27396559001e-06
6.11622671958e-06
4.63748475743e-06
2.97990816628e-06
3.21973315114e-06
2.85892324566e-06
3.49184402935e-06
2.92496778834e-06
2.99045577853e-06
2.42440653256e-06
3.00609492497e-06
5.02498924466e-06
4.5379053946e-06
4.2119589975e-06
5.54551662864e-06
6.6148758608e-06
6.48887946168e-06
7.64592285062e-06
7.75644683489e-06
8.30111716804e-06
6.39662902617e-06
2.96491271236e-06
3.45241385175e-06
3.69305104486e-06
3.24782232491e-06
2.93903940965e-06
3.27069401231e-06
3.7218546419e-06
3.7811951625e-06
3.64099369767e-06
3.74161450543e-06
3.61872845273e-06
3.99164935514e-06
2.90415850297e-06
2.78278446594e-06
2.2410310492e-06
3.09057296915e-06
5.35686807442e-06
4.06067583909e-06
6.54243319785e-07
7.44029724748e-08
1.454612934e-08
1.99395231867e-07
2.09267495029e-06
1.08555163268e-06
3.49594611819e-06
3.81868544276e-08
1.52416775554e-06
9.38598918214e-08
2.0723169081e-07
7.13977429536e-08
2.052159593e-07
1.38734334864e-07
1.61052037973e-07
1.31090767723e-07
2.11132885993e-07
2.17931345585e-07
4.95341947238e-08
2.31838863525e-07
9.4856070127e-08
5.45681584729e-08
1.24393232478e-07
7.26253357212e-07
1.72983759551e-06
4.34941011551e-08
1.59693810567e-06
1.69421892328e-07
1.27641098059e-06
2.143625653e-09
1.59484577228e-07
8.81134152949e-08
1.68666096768e-06
2.44869098132e-07
4.40397537826e-07
2.13233445514e-07
1.45349751497e-07
6.86183307972e-08
1.6787127366e-07
1.6696977666e-07
2.20962043647e-07
1.71179610868e-07
1.16841825668e-07
2.14089709307e-08
3.7550717055e-07
2.88874067608e-07
4.40614040098e-07
3.61438782705e-07
2.69562996875e-07
1.48863193528e-07
1.80193681885e-08
3.29032274095e-07
3.17002254379e-07
1.77963716047e-07
1.46060804703e-07
7.06344991074e-09
2.09106474172e-07
1.74171437809e-08
4.91728705827e-08
2.50812339991e-07
2.27789062237e-07
7.44417146184e-07
5.65737068915e-07
2.11802669557e-08
2.17546136846e-07
8.03665727716e-07
4.67322032775e-07
4.19104061918e-07
1.39805614477e-07
3.76621542051e-07
2.2667012211e-07
1.26827045556e-06
7.5472545126e-07
3.51911586061e-06
6.37196204514e-06
4.7893610577e-06
1.34107946983e-05
1.64680424556e-05
1.09951658125e-05
1.05014409628e-05
7.03862310383e-06
4.21424234501e-06
1.43078846696e-07
5.41051777253e-06
5.64200862779e-06
4.08449912775e-06
4.56432350288e-06
5.74791135144e-07
1.54240416311e-05
1.91370977789e-05
1.10521541415e-05
1.26389790795e-05
1.42391258516e-05
1.11089555387e-05
9.29405396233e-06
1.4744945789e-05
1.07817618282e-05
1.51154408521e-05
1.20958673296e-05
1.39803983192e-05
1.29324692105e-05
8.68559058133e-06
1.4112664721e-05
1.68837015017e-05
1.10579822184e-05
9.99988634623e-06
1.22179727612e-05
1.55903170753e-05
4.48510968938e-06
5.68679188546e-06
6.9509558766e-06
3.21653540477e-06
1.55631310265e-05
1.25206978635e-05
4.98274628998e-06
5.51639589357e-06
4.38051206079e-06
2.77670704293e-06
2.75412382634e-06
5.08690210513e-06
2.4172210413e-06
1.05735098637e-05
7.48885856771e-06
7.92107349152e-06
2.79813288727e-06
3.30039660565e-06
8.90293042255e-07
1.52505341634e-06
8.21900249656e-06
8.7482032043e-06
7.26193822301e-06
8.80491881194e-06
4.55522340935e-06
5.95831633973e-06
5.88392469089e-06
5.82725854031e-06
3.31489894839e-06
4.35206969051e-06
3.76621027327e-06
5.12316138775e-06
4.60720828437e-06
5.33412919888e-06
5.70134068094e-06
5.55599163969e-06
4.82804015753e-06
5.11376888084e-06
2.21590167464e-06
2.80207362735e-06
2.19500836438e-06
4.24919562727e-06
5.5928930954e-07
2.76424898891e-06
3.83000908376e-07
2.75427648669e-06
4.1133147912e-06
3.90785124392e-07
1.11883639335e-06
2.40808243856e-06
9.26352533567e-07
3.27155981518e-06
6.88540330338e-06
3.66695265538e-08
3.09982017765e-06
2.6266851801e-06
4.21267756423e-06
1.48295457894e-06
5.27652298552e-06
3.22194707056e-06
5.76461740747e-06
4.64845246052e-06
4.34249656671e-06
7.84407538374e-06
7.814386669e-06
6.66731836291e-06
6.60389520494e-06
2.34459686959e-05
4.97011005335e-06
4.00761141099e-06
7.19740294238e-06
7.29888459013e-06
5.82846095926e-06
2.2531412203e-06
7.45598264579e-06
6.12329641591e-06
7.36788543522e-06
3.13117717631e-06
4.39244939391e-06
7.28750506499e-06
1.37694125425e-05
1.45882103396e-05
1.37009117565e-05
2.24767295174e-05
2.04432508686e-05
1.6125092431e-05
1.46682483701e-05
1.6233711846e-05
1.31159522423e-05