# vtk DataFile Version 3.0
File Name: Molecule/sphere_dip/sphere_dip_0-s2.vtk
ASCII
DATASET UNSTRUCTURED_GRID
FIELD FieldData 1
TIME 1 1 double
0.0
POINTS 59 double
0.850650808352 -0.525731112119 0.0
0.809016994375 -0.309016994375 -0.5
1.0 0.0 0.0
0.809016994375 0.309016994375 -0.5
0.525731112119 0.0 -0.850650808352
0.850650808352 0.525731112119 0.0
0.5 0.809016994375 -0.309016994375
0.309016994375 0.5 -0.809016994375
0.0 0.850650808352 -0.525731112119
0.5 0.809016994375 0.309016994375
0.0 1.0 0.0
-0.309016994375 0.5 0.809016994375
0.0 0.0 1.0
0.309016994375 0.5 0.809016994375
-0.525731112119 0.0 0.850650808352
0.525731112119 0.0 0.850650808352
-0.309016994375 -0.5 0.809016994375
0.309016994375 -0.5 0.809016994375
0.0 -0.850650808352 0.525731112119
0.309016994375 -0.5 -0.809016994375
0.0 0.0 -1.0
-0.309016994375 -0.5 -0.809016994375
0.0 -0.850650808352 -0.525731112119
-0.525731112119 0.0 -0.850650808352
0.809016994375 0.309016994375 0.5
0.809016994375 -0.309016994375 0.5
0.0 0.850650808352 0.525731112119
-0.809016994375 -0.309016994375 -0.5
-0.809016994375 0.309016994375 -0.5
-1.0 0.0 0.0
-0.850650808352 -0.525731112119 0.0
-0.850650808352 0.525731112119 0.0
-0.309016994375 0.5 -0.809016994375
-0.5 0.809016994375 -0.309016994375
-0.5 -0.809016994375 -0.309016994375
-0.5 -0.809016994375 0.309016994375
0.0 -1.0 0.0
-0.809016994375 -0.309016994375 0.5
-0.809016994375 0.309016994375 0.5
0.5 -0.809016994375 -0.309016994375
0.5 -0.809016994375 0.309016994375
0.0 0.961938357784 0.273266528913
-0.259891913008 0.862668480416 0.433888564553
-0.26286555606 0.951056516295 0.162459848116
-0.5 0.809016994375 0.309016994375
-0.26286555606 0.951056516295 -0.162459848116
-0.525731112119 0.850650808352 0.0
-0.702046444776 0.69378047756 0.16062203564
-0.702046444776 0.69378047756 -0.16062203564
-0.16062203564 0.702046444776 0.69378047756
-0.425325404176 0.688190960236 0.587785252292
-0.688190960236 0.587785252292 0.425325404176
-0.587785252292 0.425325404176 0.688190960236
-0.862668480416 0.433888564553 0.259891913008
0.587785252292 -0.425325404176 0.688190960236
0.425325404176 -0.688190960236 0.587785252292
0.688190960236 -0.587785252292 0.425325404176
0.862668480416 -0.433888564553 0.259891913008
0.702046444776 -0.69378047756 0.16062203564

CELLS 114 456
3 0 1 2
3 1 3 2
3 1 4 3
3 2 3 5
3 5 3 6
3 3 7 6
3 3 4 7
3 6 7 8
3 5 6 9
3 6 10 9
3 6 8 10
3 11 12 13
3 11 14 12
3 13 12 15
3 14 16 12
3 16 17 12
3 16 18 17
3 12 17 15
3 4 19 20
3 19 21 20
3 19 22 21
3 20 21 23
3 2 24 25
3 2 5 24
3 25 24 15
3 5 9 24
3 9 13 24
3 9 26 13
3 24 13 15
3 23 27 28
3 27 29 28
3 27 30 29
3 28 29 31
3 8 32 33
3 32 28 33
3 32 23 28
3 30 34 35
3 34 36 35
3 34 22 36
3 35 36 18
3 30 35 37
3 35 16 37
3 35 18 16
3 37 16 14
3 14 38 37
3 38 29 37
3 37 29 30
3 23 21 27
3 21 34 27
3 21 22 34
3 27 34 30
3 22 39 36
3 39 40 36
3 36 40 18
3 4 1 19
3 1 39 19
3 1 0 39
3 19 39 22
3 4 20 7
3 20 32 7
3 20 23 32
3 7 32 8
3 10 41 9
3 9 41 26
3 26 41 42
3 41 43 42
3 41 10 43
3 42 43 44
3 10 45 43
3 45 46 43
3 45 33 46
3 43 46 44
3 33 45 8
3 8 45 10
3 44 46 47
3 46 48 47
3 46 33 48
3 47 48 31
3 26 42 49
3 42 50 49
3 42 44 50
3 49 50 11
3 44 51 50
3 51 52 50
3 51 38 52
3 50 52 11
3 44 47 51
3 47 53 51
3 47 31 53
3 51 53 38
3 11 52 14
3 52 38 14
3 26 49 13
3 49 11 13
3 17 54 15
3 15 54 25
3 17 55 54
3 55 56 54
3 55 40 56
3 54 56 25
3 40 55 18
3 18 55 17
3 25 56 57
3 56 58 57
3 56 40 58
3 57 58 0
3 25 57 2
3 2 57 0
3 31 48 28
3 28 48 33
3 38 53 29
3 53 31 29
3 0 58 39
3 39 58 40

CELL_TYPES 114
5
5
5
5
5
5
5
5
5
5
5
5
5
5
5
5
5
5
5
5
5
5
5
5
5
5
5
5
5
5
5
5
5
5
5
5
5
5
5
5
5
5
5
5
5
5
5
5
5
5
5
5
5
5
5
5
5
5
5
5
5
5
5
5
5
5
5
5
5
5
5
5
5
5
5
5
5
5
5
5
5
5
5
5
5
5
5
5
5
5
5
5
5
5
5
5
5
5
5
5
5
5
5
5
5
5
5
5
5
5
5
5
5
5

CELL_DATA 114
SCALARS cell_data_0 double
LOOKUP_TABLE default
0.000801315740604
0.000900574004678
0.00057569120337
0.000213475179835
0.000215353889143
0.000262754081554
8.88862509302e-05
9.32780529496e-05
0.000223729902183
0.000256720751711
8.35187195924e-05
0.000258966001995
0.000226729478528
0.000203652746858
0.000213471903904
0.0002685778366
9.1662189918e-05
0.000225610039831
0.000225570915352
0.000236549488292
9.18028028998e-05
0.000195000251405
0.000197801613212
0.000199465171247
8.22204805743e-05
0.000189665536765
0.000248993359248
0.000117078129672
0.000102707243749
5.92604610414e-05
1.89468892788e-05
2.75485268831e-06
5.61724627024e-07
0.000266721724357
0.000314468956788
9.38966716767e-05
2.20403174202e-05
2.45260464319e-05
1.38423450891e-05
9.66814554791e-07
1.36661546759e-06
4.73481445311e-05
3.78615816637e-05
9.718682407e-05
6.02572195871e-05
1.04226223757e-05
1.16583185497e-06
9.43137444286e-05
5.62711145774e-05
3.58808917764e-05
5.24617355762e-07
8.16029412321e-07
7.62803725122e-06
1.96132432332e-06
0.000254531590559
0.000304811523318
0.000563092041378
4.25134418844e-05
0.000221052881499
0.000276570877402
0.000197347263086
6.90795410182e-05
5.20205044479e-05
4.28665223357e-05
5.41134869913e-07
1.3824819332e-07
7.07182175534e-06
1.86490664864e-05
6.00269276495e-06
6.1800053477e-07
0.000130817757791
2.52823035729e-05
0.000195713572325
2.0007320609e-06
1.97579353173e-05
2.27969377289e-07
0.000110844696243
1.90339310443e-06
7.42979732229e-08
2.66445789678e-06
1.69578674734e-05
7.33756113133e-06
2.35947441664e-05
1.93281094246e-06
1.45238673976e-06
6.5024744744e-06
2.01330586127e-05
2.09479234917e-07
1.6298298389e-06
1.3259531299e-06
3.39156840644e-05
2.75345182347e-05
9.43033271627e-06
8.01252363857e-06
2.47325156177e-05
7.00297172835e-06
9.30111092289e-06
2.00790310858e-06
3.59146053893e-06
1.48208116151e-06
3.56092860939e-06
2.37898884809e-05
1.38117074239e-06
5.85695206184e-07
3.21565328486e-06
2.13260884823e-05
4.22335065005e-05
9.84492711535e-05
1.54900495311e-07
0.000198637968159
2.20012106494e-06
3.69348990002e-06
3.87359849409e-05
4.03042835927e-06

