# vtk DataFile Version 3.0
File Name: Molecule/sphere_dip_C5/sphere_dip_C5_0-s5.vtk
ASCII
DATASET UNSTRUCTURED_GRID
FIELD FieldData 1
TIME 1 1 double
0.0
POINTS 344 double
-0.5 -0.809016994375 -0.309016994375
0.0 -1.0 0.0
-0.5 -0.809016994375 0.309016994375
0.26286555606 0.951056516295 0.162459848116
0.0 0.961938357784 0.273266528913
0.259891913008 0.862668480416 0.433888564553
0.0 1.0 0.0
0.0 0.850650808352 0.525731112119
-0.259891913008 0.862668480416 0.433888564553
-0.26286555606 0.951056516295 0.162459848116
-0.5 0.809016994375 0.309016994375
-0.16062203564 0.702046444776 0.69378047756
-0.425325404176 0.688190960236 0.587785252292
-0.309016994375 0.5 0.809016994375
-0.688190960236 0.587785252292 0.425325404176
-0.587785252292 0.425325404176 0.688190960236
-0.809016994375 0.309016994375 0.5
-0.702046444776 0.69378047756 0.16062203564
-0.862668480416 0.433888564553 0.259891913008
0.16062203564 0.702046444776 0.69378047756
0.0 0.525731112119 0.850650808352
0.309016994375 0.5 0.809016994375
0.425325404176 0.688190960236 0.587785252292
-1.0 0.0 0.0
0.525731112119 0.0 0.850650808352
0.433888564553 -0.259891913008 0.862668480416
0.69378047756 -0.16062203564 0.702046444776
0.587785252292 -0.425325404176 0.688190960236
0.309016994375 -0.5 0.809016994375
0.809016994375 -0.309016994375 0.5
0.425325404176 -0.688190960236 0.587785252292
0.688190960236 -0.587785252292 0.425325404176
0.5 -0.809016994375 0.309016994375
0.850650808352 -0.525731112119 0.0
0.951056516295 -0.162459848116 0.26286555606
1.0 0.0 0.0
0.951056516295 0.162459848116 0.26286555606
0.850650808352 0.0 0.525731112119
0.961938357784 0.273266528913 0.0
0.69378047756 0.16062203564 0.702046444776
-0.809016994375 -0.309016994375 0.5
-0.587785252292 -0.425325404176 0.688190960236
-0.69378047756 -0.16062203564 0.702046444776
-0.433888564553 -0.259891913008 0.862668480416
-0.525731112119 0.0 0.850650808352
-0.69378047756 0.16062203564 0.702046444776
-0.850650808352 0.0 0.525731112119
0.0 0.266404701135 0.963861263467
0.162459848116 0.26286555606 0.951056516295
-0.162459848116 0.26286555606 0.951056516295
-0.0822424652791 0.133071104141 0.987688340595
0.0822424652791 0.133071104141 0.987688340595
0.0 0.0 1.0
0.238676930319 0.386187385588 0.891006524188
-0.273266528913 0.0 0.961938357784
-0.353553390593 0.135045378369 0.925614793411
0.353553390593 0.135045378369 0.925614793411
0.433888564553 0.259891913008 0.862668480416
0.273266528913 0.0 0.961938357784
-0.309016994375 -0.5 0.809016994375
-0.238676930319 -0.386187385588 0.891006524188
-0.353553390593 -0.135045378369 0.925614793411
-0.162459848116 -0.26286555606 0.951056516295
-0.0822424652791 -0.133071104141 0.987688340595
0.0 -0.525731112119 0.850650808352
0.162459848116 -0.26286555606 0.951056516295
0.0 -0.266404701135 0.963861263467
0.238676930319 -0.386187385588 0.891006524188
0.0822424652791 -0.133071104141 0.987688340595
0.353553390593 -0.135045378369 0.925614793411
0.862668480416 -0.433888564553 -0.259891913008
0.961938357784 -0.273266528913 0.0
0.951056516295 -0.162459848116 -0.26286555606
0.809016994375 -0.309016994375 -0.5
0.850650808352 0.0 -0.525731112119
0.951056516295 0.162459848116 -0.26286555606
0.809016994375 0.309016994375 -0.5
0.69378047756 -0.16062203564 -0.702046444776
0.69378047756 0.16062203564 -0.702046444776
0.525731112119 0.0 -0.850650808352
0.850650808352 0.525731112119 0.0
0.862668480416 0.433888564553 -0.259891913008
0.702046444776 0.69378047756 -0.16062203564
0.688190960236 0.587785252292 -0.425325404176
0.5 0.809016994375 -0.309016994375
0.587785252292 0.425325404176 -0.688190960236
0.425325404176 0.688190960236 -0.587785252292
0.309016994375 0.5 -0.809016994375
0.433888564553 0.259891913008 -0.862668480416
0.0 -0.850650808352 -0.525731112119
0.0 -0.961938357784 -0.273266528913
-0.259891913008 -0.862668480416 0.433888564553
-0.425325404176 -0.688190960236 0.587785252292
-0.16062203564 -0.702046444776 0.69378047756
0.0 -0.850650808352 0.525731112119
0.259891913008 -0.862668480416 -0.433888564553
0.26286555606 -0.951056516295 -0.162459848116
0.5 -0.809016994375 -0.309016994375
0.702046444776 -0.69378047756 -0.16062203564
0.433888564553 -0.259891913008 -0.862668480416
0.587785252292 -0.425325404176 -0.688190960236
0.309016994375 -0.5 -0.809016994375
0.688190960236 -0.587785252292 -0.425325404176
0.425325404176 -0.688190960236 -0.587785252292
0.16062203564 -0.702046444776 -0.69378047756
0.273266528913 0.0 -0.961938357784
0.162459848116 0.26286555606 -0.951056516295
0.0 0.0 -1.0
0.0 0.525731112119 -0.850650808352
0.16062203564 0.702046444776 -0.69378047756
-0.16062203564 0.702046444776 -0.69378047756
-0.309016994375 0.5 -0.809016994375
0.0 0.850650808352 -0.525731112119
0.131200378813 0.864929335863 -0.484441642061
0.294754166588 0.70600443598 -0.643954748142
0.259891913008 0.862668480416 -0.433888564553
0.383613732685 0.843911474622 -0.375038567478
0.519258489728 0.840177885327 -0.15643446504
0.707106781187 0.707106781187 0.0
0.525731112119 0.850650808352 0.0
0.386187385588 0.891006524188 -0.238676930319
0.399607051702 0.912982492932 -0.0823235800317
0.26286555606 0.951056516295 -0.162459848116
0.266404701135 0.963861263467 0.0
0.399607051702 0.912982492932 0.0823235800317
0.519258489728 0.840177885327 0.15643446504
0.386187385588 0.891006524188 0.238676930319
0.5 0.809016994375 0.309016994375
0.264082750659 0.916244175191 -0.301258879093
0.131655371352 0.924304600611 -0.358228793487
0.132792476828 0.966392597402 -0.220117027473
0.0 0.961938357784 -0.273266528913
0.0 0.915043421233 -0.403355348617
-0.26286555606 0.951056516295 -0.162459848116
-0.266404701135 0.963861263467 0.0
-0.399607051702 0.912982492932 -0.0823235800317
-0.399607051702 0.912982492932 0.0823235800317
-0.525731112119 0.850650808352 0.0
-0.386187385588 0.891006524188 -0.238676930319
-0.519258489728 0.840177885327 -0.15643446504
-0.5 0.809016994375 -0.309016994375
-0.132792476828 0.966392597402 -0.220117027473
-0.131655371352 0.924304600611 -0.358228793487
-0.264082750659 0.916244175191 -0.301258879093
-0.259891913008 0.862668480416 -0.433888564553
-0.131200378813 0.864929335863 -0.484441642061
-0.383613732685 0.843911474622 -0.375038567478
-0.620239582613 0.78020437071 0.08114185162
-0.620239582613 0.78020437071 -0.08114185162
-0.711281734962 0.702907030488 0.0
-0.702046444776 0.69378047756 -0.16062203564
-0.453990499739 0.468429850867 0.757935420048
-0.792649229259 0.571251659136 0.213022865649
-0.78384304242 0.615642020874 0.0810862934433
-0.864929335863 0.484441642061 0.131200378813
-0.433888564553 0.259891913008 0.862668480416
-0.572061402817 0.218508012224 0.790569415042
-0.15643446504 0.519258489728 0.840177885327
-0.238676930319 0.386187385588 0.891006524188
-0.0823235800317 0.399607051702 0.912982492932
0.15643446504 -0.519258489728 0.840177885327
0.16062203564 -0.702046444776 0.69378047756
0.0 -0.707106781187 0.707106781187
-0.15643446504 -0.519258489728 0.840177885327
-0.294754166588 0.70600443598 -0.643954748142
0.37174803446 -0.601500955008 0.707106781186
0.218508012224 -0.790569415042 0.572061402817
0.162459848116 -0.26286555606 -0.951056516295
0.15643446504 -0.519258489728 -0.840177885327
-0.309016994375 -0.5 -0.809016994375
-0.15643446504 -0.519258489728 -0.840177885327
-0.16062203564 -0.702046444776 -0.69378047756
0.0 -0.707106781187 -0.707106781187
0.0 -0.525731112119 -0.850650808352
-0.702046444776 -0.69378047756 -0.16062203564
-0.606825149272 -0.758652300163 -0.237086325351
-0.453990499739 -0.468429850867 0.757935420048
-0.56541318032 -0.641591214532 0.518332565981
-0.425325404176 -0.688190960236 -0.587785252292
-0.51337544123 -0.564254211766 -0.646577791798
-0.564254211766 -0.646577791798 -0.51337544123
-0.646577791798 -0.51337544123 -0.564254211766
-0.688190960236 -0.587785252292 -0.425325404176
-0.587785252292 -0.425325404176 -0.688190960236
-0.468429850867 -0.757935420048 -0.453990499739
-0.601500955008 -0.707106781186 -0.37174803446
-0.707106781186 -0.37174803446 -0.601500955008
-0.757935420048 -0.453990499739 -0.468429850867
-0.809016994375 -0.309016994375 -0.5
-0.843911474622 -0.375038567478 -0.383613732685
-0.783451698363 -0.516121620051 -0.346153014789
-0.862668480416 -0.433888564553 -0.259891913008
-0.702309846744 -0.647411893882 -0.296004592578
-0.792649229259 -0.571251659136 -0.213022865649
-0.850650808352 -0.525731112119 0.0
-0.0822424652791 0.133071104141 -0.987688340595
0.0761780342124 0.396525177464 -0.914857743445
-0.162459848116 0.26286555606 -0.951056516295
-0.238676930319 0.386187385588 -0.891006524188
-0.137952242128 0.0 -0.990438881957
-0.220117027473 0.132792476828 -0.966392597402
-0.273266528913 0.0 -0.961938357784
-0.358228793487 0.131655371352 -0.924304600611
-0.301258879093 0.264082750659 -0.916244175191
-0.433888564553 0.259891913008 -0.862668480416
-0.403355348617 0.0 -0.915043421233
-0.484441642061 0.131200378813 -0.864929335863
-0.375038567478 0.383613732685 -0.843911474622
0.702046444776 0.69378047756 0.16062203564
-0.554740147179 0.785714975624 -0.273706679107
-0.571389930426 0.811915153848 -0.11961325328
-0.606825149272 0.758652300163 -0.237086325351
-0.656005712554 0.727958497701 -0.199331208598
-0.744726981819 0.656281825525 -0.121144079657
-0.749648388399 0.66061875674 0.0401266995101
-0.78384304242 0.615642020874 -0.0810862934433
-0.819207405919 0.572055577341 -0.0406404050256
-0.850650808352 0.525731112119 0.0
-0.259749608443 0.200299530438 0.944674673642
-0.442612297818 0.0679788453512 0.894132669353
-0.337623226227 0.323597423474 0.883909081655
-0.37174803446 0.601500955008 -0.707106781186
-0.346153014789 0.783451698363 -0.516121620051
-0.468429850867 0.757935420048 -0.453990499739
-0.862668480416 0.433888564553 -0.259891913008
-0.791061816019 0.573174132258 -0.213758315269
-0.782888506207 0.519553709322 -0.342271135182
-0.749039808963 0.612037319849 -0.253672394439
-0.703639431325 0.647180911034 -0.293340108198
-0.688190960236 0.587785252292 -0.425325404176
-0.702046444776 -0.69378047756 0.16062203564
-0.862668480416 -0.433888564553 0.259891913008
[...]
CELL_DATA 684
SCALARS cell_data_0 double
LOOKUP_TABLE default
0.000103277134696
0.000190586600474
9.63432166623e-05
0.000125543007061
0.000117687283498
0.000297858047934
0.000189106499383
0.000197188062512
7.96407909964e-05
0.000147043159537
0.000114134343798
6.58612215606e-05
0.00014957170804
0.000146620023547
9.96944990972e-05
0.000196137997013
0.000130324934699
5.42024005195e-05
0.000114570011003
1.6993857066e-05
0.000218158398227
8.600636048e-05
7.39384985631e-05
5.50763522953e-05
5.12543825235e-05
5.20621984131e-05
2.65983232451e-05
4.49795398072e-05
9.062711652e-06
2.54775804558e-05
2.46647653774e-05
5.74351163889e-05
4.25411549588e-05
1.97588273475e-05
2.3222727013e-05
9.22100154858e-06
8.98901373338e-05
2.00069886349e-05
3.97887369516e-05
4.7885213765e-05
3.58041269863e-05
5.63580237905e-05
6.01052226512e-05
5.19620676052e-05
4.61735440087e-05
3.1880384036e-05
3.24750714173e-05
4.06189893937e-05
1.55687844435e-05
4.53441300087e-05
3.22853955271e-05
2.7970220455e-05
3.40406889834e-05
3.07047902874e-05
3.02307678327e-05
3.31863786774e-05
5.71747001542e-05
4.71537923065e-05
3.71581466814e-05
4.18556607558e-05
3.55815376105e-05
4.99792622066e-05
4.5137946541e-05
5.68051963163e-05
3.88949528876e-05
3.30739238653e-05
3.80142889256e-05
4.10257048268e-05
3.58556733107e-05
3.94933892714e-05
4.58615795783e-05
4.88378349426e-05
5.592179849e-05
2.09172225876e-05
3.51603778461e-05
2.87659400107e-05
2.29371978528e-05
2.94535035481e-05
2.9418712826e-05
2.86601816558e-05
3.28841002848e-05
5.62644953451e-05
4.65043646916e-05
4.816799885e-05
3.88472372221e-05
3.95914565807e-05
3.58826085836e-05
2.98365029777e-05
3.44426733916e-05
1.55582161779e-05
3.84711954293e-06
1.5470205617e-05
2.39580141582e-05
2.13150985931e-05
3.03870822878e-06
1.86444773646e-05
3.54198700462e-05
2.46992236224e-05
1.17912718993e-05
2.64281041592e-05
1.96244268691e-05
8.04919198114e-06
2.59109436256e-06
1.54281830814e-05
2.19476776341e-05
1.72601127123e-05
6.4918003636e-06
2.50045229662e-05
3.02662991469e-05
1.94330706284e-05
9.90478648648e-06
2.45444185057e-05
2.16319830289e-05
3.17821414505e-05
6.30179302627e-05
3.52600100957e-06
2.49637369069e-05
3.68621327813e-05
3.39142134516e-05
3.31552516947e-05
9.5951788829e-06
3.76193015901e-06
2.81698233789e-05
2.03198029995e-05
0.000114347976745
0.000100245829554
9.14931294782e-05
2.47905437167e-05
4.07960370652e-05
5.93737110327e-05
5.79531463261e-05
7.28132730342e-05
5.31399141083e-05
4.10526018383e-05
7.04917369913e-05
2.3437762044e-05
6.13383934861e-06
2.038067681e-05
3.04285645439e-05
2.83914801492e-05
1.48628222112e-05
3.3399256433e-05
1.55606133392e-05
7.8811892481e-05
0.00011171043225
0.000142766887782
6.20137778265e-05
0.000146684577593
0.000225784195085
0.000137693557109
0.000158939700963
6.6791290321e-05
8.2394834992e-05
5.77053290154e-05
6.32188028275e-05
2.5891422578e-05
2.9737104415e-05
4.59824156117e-05
2.72233510852e-05
3.20382163674e-05
1.3276619106e-05
3.94665070792e-05
7.95161267333e-07
3.15343396453e-05
2.67204718195e-05
2.89625958328e-05
3.46428521901e-05
1.58007468233e-05
2.37081705438e-07
8.45741622231e-07
1.51628859425e-05
8.3370161434e-06
2.21493269103e-05
6.10315319966e-06
5.54211679689e-06
9.44180145765e-08
4.68098987917e-06
2.21474036582e-05
1.20223789114e-05
1.26173871035e-05
1.72886950554e-05
4.75444537748e-06
1.71770458396e-06
1.97281744814e-06
8.1897076617e-06
1.72511664565e-05
9.45054152908e-06
1.47465745913e-05
3.40857700148e-06
2.00576899114e-05
7.14078894698e-06
1.85893785414e-05
3.36572044518e-05
5.23895093065e-05
4.92312548264e-05
3.92561817637e-05
1.03265617416e-05
5.22451079862e-05
2.95002825334e-05
3.81299774046e-05
5.23617363771e-06
1.06418173535e-05
4.01528940951e-05
7.54796937786e-05
8.64070434743e-05
7.94972258309e-06
4.44162417112e-05
2.62420999192e-06
9.33915682396e-07
1.25935491874e-05
2.09651443718e-05
3.69611043884e-06
2.05619531025e-10
3.11892086492e-06
1.18034659942e-05
2.04947752556e-05
6.3607305426e-07
1.22109158394e-05
9.95309705017e-06
5.55400139661e-05
4.14586887586e-05
2.03423135681e-05
2.58163398607e-06
1.18421887978e-05
1.38153305155e-05
4.71340406562e-07
5.03506868855e-06
7.69226667014e-05
5.66112123158e-05
1.28708070771e-05
2.92413202737e-06
6.52514815885e-06
2.72634202344e-05
2.79832889324e-05
2.01182343427e-05
3.03749124756e-05
3.06870743948e-06
8.14366283876e-06
1.83942626419e-05
2.13675413032e-05
2.5688708257e-05
1.8001479296e-05
2.70921497979e-05
2.72187958191e-05
2.37662745584e-05
2.19987472662e-05
2.09515477372e-05
2.62136234239e-05
2.3732460411e-05
2.42281575727e-05
3.49467633399e-05
2.59923158664e-05
2.2532977592e-05
3.5989631513e-05
7.66559724935e-05
7.01453081976e-05
0.000106639909829
7.6891341803e-05
2.67478057296e-05
2.56817544473e-05
1.51156012325e-05
2.02062458255e-05
2.27866424106e-05
1.99241337123e-05
2.3516015298e-05
2.44224359494e-05
2.50828957816e-05
8.22907086945e-05
1.20383968492e-05
5.61792366846e-06
9.17753031721e-07
3.47644686434e-07
2.34166750929e-06
5.56571417773e-06
2.18442386865e-06
4.41423749356e-07
1.13272846255e-05
1.03630509942e-05
2.15461373382e-05
6.40732944003e-06
7.84352182952e-06
1.95791256786e-05
2.21317519268e-05
2.26405424435e-05
1.4562259318e-05
3.33533742246e-05
2.69393954516e-05
2.68688170493e-05
4.08793825391e-05
3.84475858022e-05
3.84246430024e-05
1.43778033075e-05
1.47722646787e-05
1.44955958801e-05
1.4143983877e-05
4.08405575935e-06
1.3662924969e-05
1.94180627874e-05
2.07733076969e-05
6.59070546895e-08
2.394054552e-05
1.6858589754e-05
3.13991825608e-06
1.06478306144e-05
3.38400053491e-06
2.14514996068e-06
1.00796382062e-06
3.42691056941e-07
3.84505270937e-06
1.01118760479e-07
4.93551831304e-08
4.30248209681e-07
3.38849072784e-06
4.47709115828e-07
2.09747842045e-07
4.18343889427e-06
2.73229339598e-07
1.08649029283e-06
4.03016963736e-05
2.65001826265e-05
3.50016565631e-06
3.902905176e-05
5.85971833978e-06
3.3108347433e-05
3.84098620515e-05
4.22244015021e-05
8.69959175049e-06
6.04917858031e-06
5.30812597082e-06
3.76946527902e-06
6.82956031187e-06
8.83083975684e-06
5.4195114692e-06
4.91222460766e-06
4.46449497024e-06
5.74520590234e-06
3.91604965829e-06
4.78534117498e-06
9.45277071913e-06
1.14865187596e-05
6.05733403735e-06
1.47346414431e-06
1.69715584384e-06
1.35245869442e-05
1.34490030086e-05
1.86120786525e-06
2.09288126916e-06
8.52178778533e-06
1.03835610446e-05
9.47640549355e-07
1.05058958124e-06
6.32345881525e-06
6.31637863129e-06
1.58888370755e-06
1.46679232458e-06
7.55509255808e-07
2.66780707364e-05
1.99320283635e-05
2.69027697864e-05
3.01492061585e-05
2.60312039885e-05
2.20355448306e-05
1.99871012538e-05
1.97105867388e-05
1.71308662304e-05
1.79414593757e-05
1.86017875215e-05
1.64116706876e-05
1.84410287327e-05
1.81528301991e-05
2.24462576593e-05
1.6915688669e-05
1.79084801022e-05
1.85514609298e-05
1.69783857595e-05
1.7322986761e-05
3.196170082e-07
1.1604422104e-05
1.1593285732e-05
2.46534952972e-07
1.11057905167e-05
1.7424112698e-06
1.45935412947e-06
6.41067927407e-07
1.43941696769e-06
1.25979434491e-06
1.02907388539e-05
8.16000260396e-07
1.02895076339e-06
1.5335553138e-06
7.66501111197e-07
2.05043760577e-07
8.26395970162e-06
4.99058505504e-07
6.42421464201e-07
1.25027064115e-05
1.18793538582e-05
2.43409456712e-05
2.03735525126e-05
1.98935502094e-05
3.35215299705e-05
5.28187613093e-06
2.52608630971e-05
9.74104055981e-06
6.83550660437e-05
2.26052562335e-05
1.02656313475e-05
3.85851055027e-05
1.14237053271e-05
1.33481108629e-05
6.18791663011e-06
1.0130057062e-05
6.00409172694e-06
8.35725426383e-06
5.5774045337e-06
1.33267335183e-05
7.16115478315e-06
9.81643886174e-06
5.49964007813e-06
6.36720498054e-06
6.40403871745e-06
1.08431206924e-05
1.15091283031e-05
6.92438554437e-06
6.32268889652e-06
5.50850254558e-06
3.36169775818e-05
3.50269753925e-05
4.76234071535e-05
3.37047487078e-05
4.09062972841e-06
1.21046104379e-05
6.78982092521e-06
6.55768411394e-06
2.83928025453e-06
1.07380535504e-05
1.39308365688e-05
2.17081459254e-05
1.1752535841e-05
1.01001688619e-05
1.8466529164e-06
6.60788920602e-07
6.44055404976e-06
1.68299371879e-06
4.99605619682e-06
5.77684566531e-06
4.54344976602e-06
6.21220290371e-06
4.19962323327e-07
2.11120041543e-06
6.70939850114e-06
1.31451155547e-07
2.57218703388e-06
7.13832266379e-06
1.06357634916e-05
7.42388534692e-06
1.25746477627e-05
1.35624056841e-05
1.5200388678e-05
1.23940928613e-05
1.26099333611e-05
1.42288822909e-05
1.50143741729e-05
1.52087553376e-05
2.65608409165e-05
3.14357201862e-05
1.94716189992e-06
7.74946983001e-07
8.81053808724e-07
1.14486746297e-06
1.04883807173e-06
9.11483861969e-07
3.67475047119e-06
1.19618947365e-06
1.29265304636e-06
1.31475478709e-06
2.40333057703e-06
3.75759801711e-06
1.13081007329e-06
9.99215600806e-07
3.72802953453e-06
2.82349383318e-06
2.44815639435e-06
1.20388412759e-06
4.96329583257e-06
4.4031964723e-06
4.49339532136e-06
6.51960717292e-07
7.34091201163e-06
4.59479535479e-06
3.54074169856e-06
5.81232120731e-07
1.43416932986e-07
6.3345351356e-06
4.63724007119e-06
2.08578200744e-06
8.77130294908e-06
4.13579968411e-06
3.86476014346e-06
7.10044584479e-07
5.95987539785e-07
4.56261285522e-06
2.53974615925e-06
9.78888837593e-07
2.64608953253e-07
1.20963949744e-06
3.43159598723e-06
3.61686053236e-07
7.35400806998e-07
3.00231598004e-07
3.53808410345e-06
1.91585505447e-06
7.60913088968e-06
1.3298962013e-06
6.74904836642e-06
8.45334498293e-07
1.63828438052e-07
9.36002499759e-07
5.79914430187e-06
2.40778840426e-07
3.98806807592e-07
8.91462320568e-08
4.60084751928e-07
1.73930903187e-06
1.284564093e-06
1.23329517657e-06
1.13327674179e-06
6.85075136846e-08
5.56797938918e-07
2.91529747853e-07
9.15204344923e-07
1.31511988971e-07
2.38077867674e-06
3.99103417733e-07
8.18900243689e-08
8.67869924936e-09
5.7667343988e-07
8.77068799356e-07
8.82760228884e-07
2.8372535964e-07
8.49753573174e-07
2.33460118777e-06
1.32191548159e-05
4.71516213522e-06
1.90596284275e-05
1.84114095127e-05
3.8734091747e-07
6.89738064341e-07
2.57879696324e-06
3.68672271141e-07
4.19800133068e-06
5.35101353365e-06
2.81153071501e-06
3.32813696608e-06
1.618965545e-06
1.68605234633e-07
1.40969463648e-07
5.740788866e-07
1.14704884166e-07
5.93727185499e-09
9.82053125908e-08
4.23425403773e-07
3.62873591595e-06
3.4880916523e-06
7.43729262432e-06
8.07917888302e-08
1.67423277892e-05
1.63121319627e-05
5.22512107043e-06
4.15210571037e-06
6.98080419921e-06
1.93496184279e-05
1.68714802028e-05
4.2153410295e-06
5.80695126895e-06
4.48590517713e-06
1.51209417267e-05
1.09939590612e-05
1.20339419144e-05
1.14437349903e-05
1.99670981797e-05
6.05057108642e-06
1.07504808933e-05
6.24928032726e-06
2.35582717265e-06
7.20669739484e-07
2.56143783461e-07
1.82920455924e-06
1.75593034881e-05
1.82026312624e-05
1.22774701889e-05
1.55826401898e-05
3.43006397128e-05
3.02514307013e-05
1.41129601276e-07
8.43010045887e-07
1.40177426244e-05
1.14514357095e-06
3.55982393874e-05
4.90158052479e-05
6.56679829604e-06
7.01595274312e-06
3.47382117361e-06
4.04921147662e-06
7.85870151816e-06
3.52273280221e-06
6.04877274069e-06
6.16310295591e-06
1.12186863914e-05
5.19878012727e-06
8.21820566022e-07
2.37999775848e-06
3.37680168273e-06
3.02008377549e-06
4.11948632357e-06
2.06649345463e-06
4.27866525476e-06
4.54391840823e-06
2.55905821476e-08
8.78989173645e-08
3.55385633663e-07
6.21572391973e-07
5.16876501465e-07
3.94527575949e-08
3.88168738879e-07
1.30820036284e-06
1.35886264299e-05
1.21235520095e-05
1.06997255905e-07
4.39222608962e-08
2.27878187237e-07
1.90044176223e-07
1.10186647486e-06
2.33666469969e-08
4.46269197238e-07
4.4613678556e-07
4.9519681621e-07
6.79734204836e-09
5.86513296334e-08
4.58440637587e-07
5.56287470313e-08
5.78838123205e-09
6.30551255548e-07
2.91254116936e-07
6.33150038727e-07
1.49063295247e-07
8.87797698804e-07
4.4767493642e-07
1.35691056202e-05
1.3169251793e-05
1.75494379495e-05
1.65837037099e-05
2.05156088924e-05
1.87226086786e-05
1.43009746507e-05
2.08225778091e-05
6.05866611519e-07
2.49003558422e-06
1.18867258194e-06
1.09017972401e-06
2.32639333695e-06
1.61315915451e-06
9.0307635924e-07
1.36004774836e-06
1.37398170366e-06
2.15055692272e-06
3.87065351457e-06
4.63859965172e-06
2.17056368847e-06
6.53900190078e-06
1.11211286835e-06
1.75058365032e-07
2.35898395986e-07
3.96477480467e-07
3.26722457942e-07
3.99352079665e-08
9.53014939644e-07
7.04568658425e-07
8.30016626484e-06
8.93366410514e-06
5.50237138275e-07
4.7480621963e-07
4.45324910671e-07
1.80740846773e-07

