# vtk DataFile Version 3.0
File Name: Molecule/sphere_excent/sphere_excent_0-s5.vtk
ASCII
DATASET UNSTRUCTURED_GRID
FIELD FieldData 1
TIME 1 1 double
0.0
POINTS 830 double
0.587785252292 0.425325404176 -0.688190960236
0.425325404176 0.688190960236 -0.587785252292
0.688190960236 0.587785252292 -0.425325404176
0.850650808352 0.0 0.525731112119
0.809016994375 0.309016994375 0.5
0.69378047756 0.16062203564 0.702046444776
0.0 -0.850650808352 0.525731112119
-0.259891913008 -0.862668480416 0.433888564553
0.0 -1.0 0.0
-0.5 -0.809016994375 0.309016994375
-0.688190960236 -0.587785252292 0.425325404176
-0.850650808352 -0.525731112119 0.0
-0.425325404176 -0.688190960236 0.587785252292
-0.16062203564 -0.702046444776 0.69378047756
-0.433888564553 -0.259891913008 -0.862668480416
-0.587785252292 -0.425325404176 -0.688190960236
-0.69378047756 -0.16062203564 -0.702046444776
0.16062203564 -0.702046444776 -0.69378047756
0.259891913008 -0.862668480416 -0.433888564553
0.0 -0.850650808352 -0.525731112119
0.0 0.525731112119 0.850650808352
0.15643446504 0.519258489728 0.840177885327
0.16062203564 0.702046444776 0.69378047756
-0.220117027473 0.132792476828 0.966392597402
-0.137952242128 0.0 0.990438881957
-0.0822424652791 0.133071104141 0.987688340595
-0.951056516295 0.162459848116 0.26286555606
-1.0 0.0 0.0
-0.951056516295 -0.162459848116 0.26286555606
-0.850650808352 0.0 0.525731112119
-0.809016994375 -0.309016994375 0.5
0.5 0.809016994375 -0.309016994375
0.606825149272 0.758652300163 -0.237086325351
0.702046444776 0.69378047756 -0.16062203564
0.309016994375 0.5 -0.809016994375
0.37174803446 0.601500955008 -0.707106781186
0.468429850867 0.757935420048 -0.453990499739
0.383613732685 0.843911474622 -0.375038567478
0.346153014789 0.783451698363 -0.516121620051
0.259891913008 0.862668480416 -0.433888564553
0.296004592578 0.702309846744 -0.647411893882
0.213022865649 0.792649229259 -0.571251659136
0.16062203564 0.702046444776 -0.69378047756
0.237086325351 0.606825149272 -0.758652300163
0.131200378813 0.864929335863 -0.484441642061
0.0810862934433 0.78384304242 -0.615642020874
0.0 0.850650808352 -0.525731112119
0.711281734962 0.702907030488 0.0
0.850650808352 0.525731112119 0.0
0.702046444776 0.69378047756 0.16062203564
0.620239582613 0.78020437071 -0.08114185162
0.620239582613 0.78020437071 0.08114185162
0.525731112119 0.850650808352 0.0
0.519258489728 0.840177885327 -0.15643446504
0.606825149272 0.758652300163 0.237086325351
0.519258489728 0.840177885327 0.15643446504
0.5 0.809016994375 0.309016994375
0.26286555606 0.951056516295 -0.162459848116
0.266404701135 0.963861263467 0.0
0.399607051702 0.912982492932 -0.0823235800317
0.399607051702 0.912982492932 0.0823235800317
0.26286555606 0.951056516295 0.162459848116
0.386187385588 0.891006524188 -0.238676930319
0.264082750659 0.916244175191 -0.301258879093
0.131655371352 0.924304600611 -0.358228793487
0.132792476828 0.966392597402 -0.220117027473
0.0 0.915043421233 -0.403355348617
0.386187385588 0.891006524188 0.238676930319
0.383613732685 0.843911474622 0.375038567478
0.264082750659 0.916244175191 0.301258879093
0.259891913008 0.862668480416 0.433888564553
0.132792476828 0.966392597402 0.220117027473
0.131655371352 0.924304600611 0.358228793487
0.0 0.961938357784 0.273266528913
0.133071104141 0.987688340595 0.0822424652791
0.0 0.990438881957 0.137952242128
0.131200378813 0.864929335863 0.484441642061
0.0 0.915043421233 0.403355348617
0.0 0.850650808352 0.525731112119
-0.131200378813 0.864929335863 0.484441642061
-0.131655371352 0.924304600611 0.358228793487
-0.0810862934433 0.78384304242 0.615642020874
-0.259891913008 0.862668480416 0.433888564553
-0.213022865649 0.792649229259 0.571251659136
-0.346153014789 0.783451698363 0.516121620051
-0.296004592578 0.702309846744 0.647411893882
-0.425325404176 0.688190960236 0.587785252292
-0.383613732685 0.843911474622 0.375038567478
-0.468429850867 0.757935420048 0.453990499739
-0.16062203564 0.702046444776 0.69378047756
-0.237086325351 0.606825149272 0.758652300163
-0.37174803446 0.601500955008 0.707106781186
-0.309016994375 0.5 0.809016994375
-0.564254211766 0.646577791798 0.51337544123
-0.646577791798 0.51337544123 0.564254211766
-0.587785252292 0.425325404176 0.688190960236
-0.51337544123 0.564254211766 0.646577791798
-0.757935420048 0.453990499739 0.468429850867
-0.707106781186 0.37174803446 0.601500955008
-0.809016994375 0.309016994375 0.5
-0.453990499739 0.468429850867 0.757935420048
-0.783451698363 0.516121620051 0.346153014789
-0.843911474622 0.375038567478 0.383613732685
-0.375038567478 0.383613732685 0.843911474622
-0.516121620051 0.346153014789 0.783451698363
-0.647411893882 0.296004592578 0.702309846744
-0.571251659136 0.213022865649 0.792649229259
-0.69378047756 0.16062203564 0.702046444776
-0.433888564553 0.259891913008 0.862668480416
-0.758652300163 0.237086325351 0.606825149272
-0.615642020874 0.0810862934433 0.78384304242
-0.484441642061 0.131200378813 0.864929335863
-0.525731112119 0.0 0.850650808352
-0.15643446504 0.519258489728 0.840177885327
-0.08114185162 0.620239582613 0.78020437071
0.782888506207 0.519553709322 0.342271135182
0.688190960236 0.587785252292 0.425325404176
0.468429850867 0.757935420048 0.453990499739
0.641591214532 0.518332565981 0.56541318032
0.425325404176 0.688190960236 0.587785252292
0.346153014789 0.783451698363 0.516121620051
-0.69378047756 -0.16062203564 0.702046444776
-0.778605872826 -0.0768840702267 0.622785464303
-0.965056599484 0.224799542734 0.134651124684
-0.961938357784 0.273266528913 0.0
-0.0768840702267 0.622785464303 -0.778605872826
-0.16062203564 0.702046444776 -0.69378047756
-0.309016994375 0.5 -0.809016994375
0.484441642061 -0.131200378813 0.864929335863
0.571251659136 -0.213022865649 0.792649229259
0.615642020874 -0.0810862934433 0.78384304242
0.69378047756 -0.16062203564 0.702046444776
0.375038567478 -0.383613732685 -0.843911474622
0.238676930319 -0.386187385588 -0.891006524188
0.301258879093 -0.264082750659 -0.916244175191
0.309016994375 -0.5 -0.809016994375
0.220117027473 -0.132792476828 -0.966392597402
0.0822424652791 -0.133071104141 -0.987688340595
0.137952242128 0.0 -0.990438881957
0.0 0.0 -1.0
0.15643446504 -0.519258489728 -0.840177885327
0.0823235800317 -0.399607051702 -0.912982492932
0.0 -0.525731112119 -0.850650808352
0.162459848116 -0.26286555606 -0.951056516295
-0.0823235800317 -0.399607051702 -0.912982492932
0.0 -0.266404701135 -0.963861263467
-0.162459848116 -0.26286555606 -0.951056516295
-0.15643446504 -0.519258489728 -0.840177885327
-0.238676930319 -0.386187385588 -0.891006524188
-0.309016994375 -0.5 -0.809016994375
-0.0822424652791 -0.133071104141 -0.987688340595
0.237086325351 -0.606825149272 -0.758652300163
0.08114185162 -0.620239582613 -0.78020437071
0.0 -0.711281734962 -0.702907030488
-0.08114185162 -0.620239582613 -0.78020437071
-0.16062203564 -0.702046444776 -0.69378047756
-0.237086325351 -0.606825149272 -0.758652300163
-0.137952242128 0.0 -0.990438881957
-0.220117027473 -0.132792476828 -0.966392597402
-0.273266528913 0.0 -0.961938357784
-0.525731112119 0.0 -0.850650808352
-0.403355348617 0.0 -0.915043421233
0.702907030488 0.0 0.711281734962
0.615642020874 0.0810862934433 0.78384304242
0.525731112119 0.0 0.850650808352
0.571251659136 0.213022865649 0.792649229259
0.484441642061 0.131200378813 0.864929335863
-0.615642020874 -0.0810862934433 -0.78384304242
-0.615642020874 0.0810862934433 -0.78384304242
-0.702907030488 0.0 -0.711281734962
-0.69378047756 0.16062203564 -0.702046444776
-0.78020437071 -0.08114185162 -0.620239582613
-0.78020437071 0.08114185162 -0.620239582613
-0.850650808352 0.0 -0.525731112119
-0.758652300163 -0.237086325351 -0.606825149272
-0.840177885327 -0.15643446504 -0.519258489728
-0.758652300163 0.237086325351 -0.606825149272
-0.840177885327 0.15643446504 -0.519258489728
-0.961938357784 0.0 -0.273266528913
-0.951056516295 0.162459848116 -0.26286555606
-0.850650808352 0.525731112119 0.0
-0.864929335863 0.484441642061 -0.131200378813
-0.965056599484 0.224799542734 -0.134651124684
-0.862668480416 0.433888564553 -0.259891913008
-0.843911474622 0.375038567478 -0.383613732685
-0.453990499739 0.468429850867 -0.757935420048
-0.37174803446 0.601500955008 -0.707106781186
-0.51337544123 0.564254211766 -0.646577791798
-0.587785252292 0.425325404176 -0.688190960236
-0.425325404176 0.688190960236 -0.587785252292
-0.646577791798 0.51337544123 -0.564254211766
-0.564254211766 0.646577791798 -0.51337544123
-0.688190960236 0.587785252292 -0.425325404176
-0.707106781186 0.37174803446 -0.601500955008
-0.757935420048 0.453990499739 -0.468429850867
-0.809016994375 0.309016994375 -0.5
-0.468429850867 0.757935420048 -0.453990499739
-0.601500955008 0.707106781186 -0.37174803446
-0.5 0.809016994375 -0.309016994375
-0.375038567478 0.383613732685 -0.843911474622
-0.516121620051 0.346153014789 -0.783451698363
-0.433888564553 0.259891913008 -0.862668480416
-0.571251659136 0.213022865649 -0.792649229259
-0.647411893882 0.296004592578 -0.702309846744
-0.484441642061 0.131200378813 -0.864929335863
-0.26286555606 -0.951056516295 0.162459848116
0.425325404176 -0.688190960236 -0.587785252292
0.403355348617 0.0 -0.915043421233
0.358228793487 0.131655371352 -0.924304600611
0.484441642061 0.131200378813 -0.864929335863
0.433888564553 0.259891913008 -0.862668480416
0.273266528913 0.0 -0.961938357784
0.220117027473 0.132792476828 -0.966392597402
0.301258879093 0.264082750659 -0.916244175191
0.162459848116 0.26286555606 -0.951056516295
0.0822424652791 0.133071104141 -0.987688340595
0.375038567478 0.383613732685 -0.843911474622
0.238676930319 0.386187385588 -0.891006524188
-0.0822424652791 0.133071104141 -0.987688340595
0.0 0.266404701135 -0.963861263467
-0.162459848116 0.26286555606 -0.951056516295
-0.0823235800317 0.399607051702 -0.912982492932
0.0823235800317 0.399607051702 -0.912982492932
0.0 0.525731112119 -0.850650808352
-0.238676930319 0.386187385588 -0.891006524188
-0.15643446504 0.519258489728 -0.840177885327
0.15643446504 0.519258489728 -0.840177885327
[...]
CELL_DATA 1656
SCALARS cell_data_0 double
LOOKUP_TABLE default
3.10733226191e-08
8.54904961295e-06
8.72567109563e-06
1.95259716438e-05
1.26537191441e-05
2.15032723321e-06
5.20476393579e-05
2.24134714707e-05
1.11028909665e-05
1.12548678867e-05
5.56140807455e-05
2.77811416113e-05
3.1669644287e-05
5.97491934841e-07
7.24245708153e-07
5.55334759146e-08
1.95447211418e-08
2.05905683572e-07
5.3161525388e-07
2.60584762753e-07
1.90680309021e-07
7.95855837067e-08
8.00525304381e-08
7.75393401196e-09
1.08059884548e-08
4.16985148657e-07
2.24310811398e-07
1.07310689037e-08
2.47061326092e-08
4.95892494731e-08
4.17425319472e-07
2.53794393459e-07
1.29993105873e-08
3.87519443257e-07
3.47264374741e-08
9.06131442218e-07
5.47086463436e-07
5.36004733596e-07
5.79848725824e-07
4.07151924466e-07
5.15394780685e-07
4.36518479369e-07
1.92632297826e-07
2.02111230451e-07
5.14775058882e-08
5.45761501259e-07
7.60291780272e-07
5.17861047974e-07
1.0620622825e-06
4.12990388042e-07
9.07299336862e-07
9.72008790598e-07
7.19643773641e-07
2.28810251014e-07
2.0574361634e-07
1.52962320747e-08
5.64130161151e-08
7.22791051067e-08
2.46241394101e-07
3.59002961018e-08
1.66884852462e-07
1.27172197011e-07
1.31542482233e-06
1.32229157264e-06
1.0766557629e-06
1.46961268526e-06
1.08002667011e-06
1.34733223569e-06
1.18011012152e-06
1.49227556942e-06
8.71316175602e-07
9.74047731673e-07
1.67416596378e-06
1.60057728992e-06
1.3929114722e-06
1.66723889799e-06
1.68864680265e-06
1.5254049992e-06
1.41031402813e-06
1.93260275813e-06
2.05637811839e-06
2.21233387069e-06
2.06000658646e-06
2.25365064614e-06
1.54828142484e-06
1.88364880719e-06
2.72260934797e-06
2.47515574521e-06
2.45158968012e-06
5.35769616094e-06
2.49992372415e-06
3.6999698741e-06
3.25762064585e-06
2.82666818493e-06
1.58860223545e-06
3.36239183964e-06
3.33840585258e-06
4.21390557807e-06
4.21634640711e-06
6.07718400914e-06
1.60257150464e-06
6.64841583528e-07
6.09637131339e-06
4.65879650484e-06
3.89943650879e-06
3.72078459729e-06
1.25649157403e-06
1.32361011408e-06
3.19671249006e-06
3.09508765541e-06
3.62253344e-06
1.04250496193e-05
3.50400160052e-06
3.91563429544e-05
1.80463017847e-05
1.6773739261e-05
1.75222620546e-06
3.97119659007e-06
1.45124164629e-05
6.94414580559e-06
5.3831398852e-06
3.39150920549e-05
1.36453263918e-05
2.8524846736e-05
4.63499537946e-05
9.6932004502e-05
3.88929010471e-05
4.27547258426e-05
3.178468336e-06
1.82387016027e-05
5.97388563716e-06
4.86260981102e-06
5.33022212173e-06
3.54109155067e-05
7.91042348967e-05
3.24253717048e-05
2.80099366886e-05
3.64605781862e-05
6.38050136681e-05
1.51210009578e-05
4.73492905807e-05
4.85263894765e-05
5.66823837561e-05
7.05117192423e-05
1.90277477296e-05
7.18377726789e-05
9.25001546798e-06
5.6186174976e-06
9.25607779054e-05
5.92797215899e-05
8.79240127811e-05
4.89694978827e-05
6.86771296149e-05
0.000103211305996
6.52920630908e-05
7.2754607182e-05
5.89613864942e-05
8.62463348979e-05
6.70691986533e-05
6.66793931282e-05
5.22915596574e-05
7.10226185105e-05
3.70580242557e-05
5.77309566141e-05
6.35788443305e-05
6.08233602562e-05
4.46623701615e-05
3.35622768009e-05
2.12793234528e-05
1.61023656491e-05
1.79062294132e-06
2.52293862922e-05
2.44464812951e-06
7.45803290116e-07
3.17383349017e-06
4.2920456201e-06
1.04939894961e-05
9.59133793339e-06
2.02224620944e-05
1.31208413583e-05
7.50292239467e-06
4.39522253048e-06
1.30165081731e-05
4.37901945486e-06
1.78894007948e-05
2.50062929771e-05
6.30246650364e-05
3.54011521791e-05
1.30079101568e-05
1.68969240431e-05
6.33733699678e-06
1.99216116616e-06
4.28548763656e-06
4.23417509811e-06
4.92026144378e-06
4.03014610995e-06
5.9855763295e-06
5.64582046494e-06
9.86105918579e-06
7.56648226629e-06
1.25595674774e-05
1.46414524575e-05
2.32090522676e-05
2.52076757518e-05
1.80363216366e-05
4.84027608454e-06
3.75201342688e-06
1.39864908834e-05
8.3982432514e-06
7.55800641737e-06
1.79807362871e-05
2.05094281521e-05
8.11080766573e-07
1.82949931966e-05
2.34122338317e-05
2.18974344745e-05
1.37101536983e-05
1.32525603591e-05
4.91937617631e-07
8.58756102797e-06
5.02771796417e-07
6.58629905696e-07
4.66105808328e-06
6.92570774135e-06
4.88289387967e-06
5.65525576455e-07
4.39103564002e-06
6.98530895627e-06
5.0194779569e-06
8.4279521898e-07
4.98742431709e-07
4.35605146442e-06
7.39342170884e-06
1.87922786643e-06
5.6546190848e-06
1.20381896344e-05
5.41721668953e-07
1.17239347974e-06
1.02366408739e-05
4.74734025132e-06
1.05912402219e-05
1.37507352973e-06
2.02822085148e-06
5.25804313326e-06
8.98433456384e-06
3.11947469819e-06
5.87529529695e-06
4.69070572656e-06
4.53392491089e-06
1.1242950275e-06
2.08604389144e-06
6.23175603524e-07
3.23072993217e-06
9.61152024345e-06
1.28050974395e-05
1.28013390631e-05
8.87986666111e-06
1.1612114737e-05
2.904966273e-06
4.08375608759e-06
4.4213195654e-07
2.19095647747e-06
2.94137163039e-06
2.44561249261e-05
1.58978171718e-05
2.09810064605e-05
1.99320674289e-06
6.74934146545e-06
8.52352525067e-06
7.03207877651e-06
8.09693028107e-06
9.61268459848e-06
5.40701172671e-06
1.26072536353e-05
2.21706988944e-06
4.49795527888e-06
1.9991272949e-07
3.37278481467e-06
2.36423845831e-06
1.76053400646e-05
2.3824178299e-05
2.41244460773e-05
1.45007864012e-05
8.19035118971e-06
1.38531838088e-05
1.19281774028e-05
1.34276758491e-05
8.82928364219e-06
1.30236142786e-05
1.13928823636e-05
2.07105731032e-05
2.36964340875e-05
2.39225671258e-05
2.93093292837e-05
1.96080456735e-05
1.25993120744e-05
6.79778796551e-06
2.71797648598e-06
1.90863969412e-05
2.40098243459e-05
1.58119620273e-05
1.5629537776e-05
8.70485290723e-06
3.27457168713e-06
5.23378611409e-06
1.27112981936e-05
5.21568154744e-06
4.62492983446e-06
2.92624799981e-06
2.01631611662e-06
1.92172284562e-06
2.78915597807e-06
2.7031686233e-06
3.42521000685e-06
2.00451841292e-06
1.75707727714e-06
1.00868772819e-06
4.5248510963e-06
4.2150556094e-06
5.61990097501e-06
3.5374450726e-06
3.46970626548e-06
2.74964385636e-06
2.32013887486e-06
2.19632158551e-06
2.00127952944e-06
3.55987795224e-06
6.13005346586e-06
6.10949998903e-06
5.41051346493e-06
6.60024275e-06
7.21217390867e-06
4.7152699214e-06
6.9538148842e-06
8.82735321765e-06
7.47655384446e-06
7.98200576035e-06
8.23766172209e-06
9.36493146389e-06
7.54815937091e-06
4.28782433393e-06
4.87568806292e-06
3.77605358621e-06
3.30430206619e-06
4.70407581115e-06
5.38944207722e-06
4.09588542502e-06
4.16841882297e-06
4.98175427874e-06
9.03310409154e-06
7.1287552303e-06
6.12659264277e-06
4.18184251269e-06
2.64556101647e-06
2.75228313623e-06
4.77933557258e-06
2.44820272181e-06
6.02074906011e-06
5.32280089491e-06
5.23476947754e-06
1.12869105794e-05
5.58909711935e-06
6.29887100964e-06
2.39153966936e-06
3.87918003737e-06
6.92315390971e-08
1.92125457403e-08
1.89598125823e-07
2.34818023245e-06
1.90171861461e-07
1.86536993231e-06
1.26010900848e-07
1.5360237325e-07
1.0843750578e-08
4.24006804403e-08
1.42381024149e-07
1.53620270005e-06
1.61646935818e-07
1.52730602985e-07
3.66803361593e-08
1.23923446227e-06
1.68500197804e-07
3.57839893004e-07
6.49896721054e-07
2.11320895154e-06
1.65575152943e-06
1.17766570648e-06
6.99468570715e-06
1.00064128355e-06
1.85359599109e-06
2.82576903365e-06
1.79968974115e-06
3.07613608151e-06
6.87798332545e-06
4.90541313573e-06
5.20062273474e-06
1.01702162377e-05
5.58616667561e-07
1.05587994558e-05
2.28816813068e-05
1.26595340988e-05
2.25617486721e-05
2.92370976127e-06
4.15950226986e-06
3.92664244305e-06
5.81202937593e-06
2.70306507432e-06
8.04927619134e-06
4.71256654599e-07
1.16328590895e-06
6.98884509549e-07
1.8079571495e-06
1.84983164688e-06
4.49693488203e-05
4.55191515446e-05
4.11657076798e-05
4.47208734522e-05
0.00011671271376
0.000116314358621
3.25814851215e-05
3.03191898467e-05
6.21048056985e-05
6.06507902448e-05
2.33593103032e-05
2.31522382788e-05
2.13629581563e-05
1.65889872884e-05
1.78075425635e-05
2.81392035472e-05
5.55620088873e-05
2.81358339091e-05
2.67257752485e-05
2.21566879408e-05
2.1331156484e-05
5.10829447877e-05
7.22442094554e-05
1.54471159155e-05
2.25193918871e-05
7.69056133729e-06
2.1824606823e-05
7.10604918044e-05
0.000132335043311
7.25833067485e-05
7.72651825716e-05
3.10495594131e-06
1.3124864828e-05
3.60126914477e-06
3.37326087269e-06
9.08453383972e-06
2.44370213237e-05
1.27062908035e-05
1.10727604183e-05
5.13783332684e-06
2.64887022715e-05
1.79564162944e-05
1.11485864824e-05
2.42487279105e-05
4.801423897e-05
3.35341942033e-05
2.14403569438e-05
1.9607539375e-05
3.58921130483e-05
1.47155617492e-05
2.72533910923e-05
2.05674129357e-05
3.60062905301e-05
2.34683350213e-05
1.31030665419e-05
5.19660459538e-06
2.02063089171e-05
7.96968297475e-06
1.23076540036e-05
7.89547368726e-06
1.66809024138e-05
8.24862749681e-06
9.79073751559e-06
2.40111486342e-07
1.19860218593e-06
9.5395220086e-06
2.41734326224e-05
1.41809327503e-05
1.5043873617e-05
2.87489496312e-06
3.43558695389e-05
4.67702215151e-05
1.80377253267e-05
5.03049460624e-05
8.71349652785e-05
3.79502962893e-05
5.57295230949e-05
3.55581309753e-05
6.51593973078e-05
3.66430312232e-05
6.47876979891e-05
6.85693583468e-05
1.52594012508e-05
1.62366182039e-05
4.07114461959e-05
2.71613715526e-05
1.53523403568e-05
7.95812171162e-06
9.47256346586e-06
1.89742944692e-05
3.4452977659e-05
3.04754862187e-05
1.37466974535e-05
3.90734811513e-05
8.73958303887e-06
1.78142044572e-05
1.57271438989e-05
1.96573135638e-05
2.12771740998e-05
1.73007156385e-05
2.19326293441e-05
1.78971410042e-05
1.78819572609e-05
2.71938914825e-05
1.50249993736e-05
1.90735077073e-05
1.96359448294e-05
1.7586533999e-05
5.51766646843e-06
1.93257318043e-05
2.38633671281e-05
1.72488418012e-05
1.36240827132e-05
1.06000573687e-05
1.89808116358e-05
3.83291642547e-05
6.18144874179e-05
1.88529004879e-05
5.81899417473e-05
9.09755010278e-05
2.16466705895e-05
6.4865577e-05
0.000136937855684
0.000105400563382
7.30164386564e-05
6.90997722269e-05
6.13196542638e-05
1.98663317848e-05
1.86901634979e-05
4.81747894991e-05
0.000103434735114
4.92353740037e-05
5.79978225885e-05
2.63185191126e-05
2.72404977067e-05
4.26749050462e-05
7.50428884265e-05
4.34321407656e-05
4.90697570633e-05
2.90223675395e-05
4.53278151154e-05
2.64549911135e-05
3.18369925734e-05
3.07417494877e-05
4.43609428289e-05
2.74710121945e-05
3.03768821892e-05
3.45652577012e-05
5.53487846788e-05
3.9616239894e-05
3.34079414116e-05
2.93342782785e-05
4.36599511954e-05
1.85129368562e-05
3.36128413817e-05
4.79014756344e-05
5.97483667599e-05
2.82918831842e-05
4.10738245084e-05
4.69959426135e-05
7.59717007511e-05
3.32749194688e-05
4.50242421514e-05
1.86970195229e-05
4.37585087719e-05
3.53856791857e-05
3.42398682056e-05
2.12039032294e-05
1.65121218305e-05
1.82033791416e-05
3.52480150049e-05
2.35967858278e-05
2.19527909963e-05
4.92239625655e-08
4.51211500873e-06
3.92956914417e-06
3.80066125755e-06
4.04871333714e-06
3.14981109461e-06
3.88757901963e-06
3.07568200673e-06
2.72397344385e-06
2.32224031385e-06
4.13969024123e-06
3.8311006732e-06
3.90548877293e-06
3.23966939012e-06
1.60912544374e-06
2.06437133317e-06
2.31161514855e-06
2.48219624262e-06
3.74358505438e-06
3.63827911854e-06
3.38984713172e-06
4.40239380051e-06
1.25120484952e-06
4.08374263526e-06
2.08176186205e-06
2.71306810308e-06
2.45135784472e-06
2.56647916194e-06
2.47975440597e-06
4.1331510712e-06
2.3138178855e-06
2.50279485977e-06
1.3105164211e-06
1.60453523431e-06
2.20653306107e-06
1.51214420068e-06
2.60923725694e-06
2.81263998284e-06
1.17988262397e-06
1.36452844604e-06
1.21854735166e-06
1.28520625147e-06
1.04400272985e-06
1.18982747421e-06
1.38750914254e-06
1.18567145861e-06
1.27121456541e-06
1.48506972309e-06
1.31369207059e-06
2.02969958447e-06
1.94884680628e-06
1.87899827505e-06
1.71435940581e-06
1.66791843054e-06
1.70370232715e-06
2.05993522037e-06
1.8372071893e-06
1.89108733988e-06
1.63120030345e-06
1.91565143157e-06
2.32389611805e-06
1.76338003887e-06
1.51328486186e-06
1.4668350899e-06
1.31061014821e-06
1.44653383037e-06
1.33609080031e-06
1.53836844699e-06
1.38889251179e-06
1.47981585006e-06
1.20396631403e-06
1.36443905767e-06
1.7284504081e-06
1.33177183988e-06
1.55173035876e-06
1.777971403e-06
1.5209012924e-06
2.45549502411e-06
1.92997623143e-06
1.6276575666e-06
1.54388262752e-06
1.49255712635e-06
2.12897194034e-06
2.8634610564e-06
2.98531052938e-06
2.3226978759e-06
2.57811247458e-06
2.85969592555e-06
3.13903480342e-06
2.3750597584e-06
2.38299508191e-06
2.66469401488e-06
2.60606135278e-06
2.66055381932e-06
1.8039978905e-06
1.55702707942e-06
1.36122007287e-06
1.47798349344e-06
1.45387879642e-06
1.75610028738e-06
1.62448361738e-06
1.60519669511e-06
1.41401970997e-06
1.62115811085e-06
1.65171825673e-06
1.54620384443e-06
2.73790474266e-06
2.31413340833e-06
1.96153999148e-06
2.20229813781e-06
2.4729830107e-06
2.40428444608e-06
2.24604926947e-06
8.539527464e-07
2.24081837796e-06
2.10460990345e-06
1.81066441887e-06
2.08354149458e-06
2.16946193968e-06
2.41583383535e-06
2.83860296621e-06
1.98156649674e-06
3.23073386785e-06
2.69817044646e-06
2.88116496057e-06
2.29709616774e-06
1.83834902574e-06
2.0398726311e-06
1.93440461317e-06
1.82735982572e-06
1.89249511031e-06
2.25031307596e-06
2.79392294291e-06
1.92019134421e-06
4.20638258623e-07
2.71419122241e-06
1.97020688601e-06
1.34832151081e-06
2.42443828044e-06
3.76489080962e-06
2.47634691907e-06
3.18621219418e-06
3.94492932045e-05
1.55013438203e-05
2.96775982734e-06
2.2313713382e-06
2.0326091651e-06
2.64987005446e-06
1.97791861823e-06
7.82887444967e-07
2.05937007372e-06
1.98835285151e-06
1.73776077427e-06
1.89643134348e-06
9.50861254141e-06
2.17241134706e-05
6.08361399563e-06
1.60817956386e-06
4.61013108953e-06
1.48092780397e-07
3.41363223401e-07
7.10175269154e-07
3.12009126582e-07
9.42051343043e-07
5.95608400228e-07
2.20664787519e-07
5.88368234851e-07
5.69511663502e-06
1.11701215691e-06
3.86104909042e-06
1.89886564772e-06
4.03815362103e-06
2.40908660208e-06
1.97871845115e-06
1.67783303435e-06
1.15747309851e-06
9.33345057322e-07
2.17351870657e-06
9.93272854752e-07
2.84756600314e-06
8.8491735914e-07
2.73756469822e-06
1.24402075276e-06
1.98783933074e-06
5.16920197432e-07
5.16219468828e-07
2.48606114954e-07
1.49919032122e-06
5.17190183385e-08
3.89747748086e-07
1.45756236489e-07
6.45530913443e-07
1.10125924765e-07
4.05679694733e-07
1.56275142594e-06
1.92878028151e-06
8.58764312151e-07
1.35343340996e-06
4.74673773381e-06
3.80780591645e-07
4.63864093171e-06
1.06052660593e-06
5.88834245393e-06
2.86078278987e-07
1.62666516513e-05
1.3537409596e-05
2.45771008316e-07
1.62911964627e-06
6.71028732333e-06
7.90434729589e-07
3.58465270305e-07
1.15196935172e-06
5.43298713111e-06
1.45692428067e-06
2.34232273284e-05
3.29002328492e-05
1.97912902733e-05
3.18819146859e-05
1.75504200025e-05
1.32369646334e-05
3.33082139217e-07
1.15593377546e-05
1.20555376496e-05
1.44516497014e-05
5.88444935364e-07
1.20013809458e-05
1.20507253186e-07
2.19480441798e-07
3.4209118238e-07
5.54288362023e-07
2.98287796327e-07
3.53938900685e-07
3.86640881961e-07
5.13759799845e-07
3.32741037816e-07
1.05807377513e-07
2.05774472181e-07
1.3614044251e-07
3.00232471678e-08
1.22441373707e-07
1.37680871582e-07
1.61642796363e-09
9.48103517269e-08
4.13179646371e-08
1.01163241842e-07
1.44039274358e-07
3.15352324613e-07
3.51253961729e-07
3.14106983337e-07
2.27836154552e-07
1.87690693785e-07
1.62248761495e-07
2.68996420105e-07
1.80070301097e-07
4.92099944659e-07
4.15641073406e-07
6.24935685859e-07
6.99217201627e-07
5.52880608715e-08
2.736100251e-08
9.29024175029e-08
3.01398657582e-08
6.87724246333e-08
1.43101609032e-07
4.96152414901e-08
4.09521625662e-08
4.8008473565e-09
3.65468286479e-08
1.35921529709e-08
5.46862985567e-08
2.57989032863e-08
9.69956122474e-08
8.71840254201e-08
1.75061175141e-08
6.65884992018e-08
2.27430603021e-08
1.48041051654e-08
4.82176227276e-08
3.97033905312e-07
4.36483549599e-07
1.21517478079e-07
5.11766074702e-08
9.97484437305e-08
1.48646732089e-07
8.17233544371e-07
8.42578159115e-07
5.06018935396e-07
5.91590003135e-07
2.8452877656e-07
2.84958238957e-07
2.70349575513e-07
3.3945198908e-07
2.76674430153e-07
2.58105845777e-07
2.29140646216e-07
2.39537140282e-07
3.75010652249e-07
3.60225924355e-07
2.98836621114e-07
3.36638676802e-07
4.32848156564e-07
4.80754154367e-07
2.1603091136e-07
1.92661703902e-07
1.98867580419e-07
2.38062577018e-07
1.86225292985e-07
1.14554465448e-07
1.04813899416e-07
1.64104822076e-07
2.42628676952e-07
1.51879153614e-07
1.53402937839e-07
1.45777493759e-07
3.10471056418e-07
3.01208915402e-07
2.4062096701e-07
3.45272399841e-07
1.52816009724e-07
1.81694887313e-07
2.63344989756e-07
3.2380029282e-07
1.84478852019e-07
1.36195856988e-07
1.57084493018e-07
2.00348490774e-07
3.40447145773e-07
2.8565423151e-07
2.89480590049e-07
3.11718266216e-07
1.17400178444e-07
9.42856811488e-08
1.40142411025e-07
1.68436374838e-07
1.54369170862e-07
1.28560141293e-07
1.75069520985e-07
1.85619385782e-07
1.39802938049e-07
1.00797301612e-07
3.44726411871e-08
1.58169542878e-07
1.50503672894e-07
1.27500597919e-07
2.04027276988e-07
1.56497214867e-07
3.82782047808e-08
1.09525218408e-07
1.57135360397e-07
1.68160881185e-07
1.78551211049e-07
1.68809882035e-07
2.32111164689e-07
2.00273484274e-07
1.84152327431e-07
1.80692375575e-07
1.52310816889e-07
2.33036800475e-07
2.26234668402e-07
2.22462208743e-07
2.48849721521e-07
2.31320266993e-07
2.62062690901e-08
9.16935717094e-08
1.13438421259e-07
1.43509430435e-07
1.17255811988e-07
1.11001378101e-07
1.38506736411e-07
1.56207922474e-07
1.07109367206e-07
8.08698377464e-08
1.76634204084e-06
1.18769664144e-07
1.67944150755e-07
1.28751952644e-07
1.43507812376e-07
1.03232404416e-07
1.56920776818e-07
1.80138438295e-07
2.57541536421e-07
2.66332331066e-07
2.6295076805e-07
2.70803742661e-07
2.88540644085e-07
3.1448360092e-07
2.42557682941e-07
2.21514977027e-07
1.72202070766e-07
2.59397170689e-07
3.32505167381e-07
3.17941122265e-07
3.08159123889e-07
3.50377405897e-07
5.90778857027e-08
1.17440883052e-07
8.68146717038e-08
7.88748496468e-09
1.6553417521e-07
3.83672586354e-07
1.30266119411e-07
1.20241718254e-07
8.40262958845e-08
2.38133410366e-07
1.409444165e-07
9.86363612732e-08
1.94022462721e-08
1.64681354537e-07
1.164107868e-07
8.59213180246e-08
1.79795491848e-07
3.11060084601e-07
1.31460865734e-07
1.24124795267e-07
1.59317773694e-07
3.77365264065e-07
1.2302632423e-07
1.46117539135e-07
5.33913501506e-07
1.69403464258e-06
1.71172473731e-06
6.79809260394e-07
1.11476691937e-07
8.70925767484e-07
5.60960223217e-07
7.4734986788e-07
1.72076055458e-07
4.00188688289e-07
2.63414337974e-07
2.08151468513e-07
4.67807363226e-07
9.89531854599e-07
5.34898366387e-07
4.64822142975e-07
2.5400970851e-07
6.55580461065e-07
3.22071086467e-07
4.97594672418e-07
7.80650163276e-07
1.53407776302e-06
6.27830022641e-07
1.1732462137e-06
5.17272003715e-07
8.5634425924e-07
7.60709267833e-07
1.2182301876e-07
5.5873810665e-07
1.35281360766e-06
7.21818992735e-07
5.98736262251e-07
1.0029611538e-06
1.59581685579e-06
1.16713000043e-06
4.814274035e-07
2.15466450952e-07
5.46409768832e-07
4.94612496174e-07
1.96552267652e-06
2.42472652741e-07
7.18863103688e-08
2.09532799738e-07
1.28679726047e-07
9.37881942424e-08
1.94064906489e-07
2.59643954795e-08
7.74676638495e-08
1.72732840855e-07
1.15157607802e-08
5.74492459704e-08
5.8681870636e-08
9.22460285614e-08
1.59681859039e-07
3.10896080468e-08
5.9184026347e-08
1.14536120817e-06
1.20192506118e-06
7.22098099296e-07
7.05218187801e-07
6.7667736004e-07
8.14425325076e-07
1.60834942128e-06
1.39455607817e-06
8.74654192596e-07
8.62636069551e-07
7.6049833911e-07
7.41808101058e-07
8.65887002061e-07
9.58853023763e-07
1.04760071529e-06
1.14144239297e-06
3.9753391426e-07
1.00740836422e-06
7.18830420379e-07
4.76335459349e-07
2.55658396677e-06
3.99443324166e-06
1.0531958042e-06
1.02963918079e-06
1.33960161744e-06
1.43048109205e-06
5.36512912902e-07
7.45678842402e-07
1.72228598358e-07
5.17004953023e-07
2.09416287244e-07
8.07170670359e-08
9.08566606593e-07
2.48995191776e-06
1.33602624058e-06
7.29120114012e-07
3.34991047059e-07
2.35207863798e-06
1.22232413604e-06
2.06265125469e-06
1.58622563342e-07
2.28995955678e-06
2.05560373534e-06
8.17565175532e-07
3.86827215474e-06
7.38146419244e-06
3.89781990283e-06
3.38292258847e-06
4.05020651326e-06
8.27768391844e-06
3.85696870803e-06
3.90966103598e-06
4.75437801968e-06
1.04634471654e-05