# vtk DataFile Version 3.0
File Name: Molecule/sphere_excent/sphere_excent_0-s4.vtk
ASCII
DATASET UNSTRUCTURED_GRID
FIELD FieldData 1
TIME 1 1 double
0.0
POINTS 400 double
0.850650808352 -0.525731112119 0.0
1.0 0.0 0.0
0.809016994375 -0.309016994375 0.5
0.850650808352 0.525731112119 0.0
0.809016994375 0.309016994375 0.5
-0.809016994375 -0.309016994375 -0.5
-0.5 -0.809016994375 -0.309016994375
-0.850650808352 -0.525731112119 0.0
0.5 -0.809016994375 -0.309016994375
0.5 -0.809016994375 0.309016994375
0.0 -1.0 0.0
0.862668480416 0.433888564553 -0.259891913008
0.702046444776 0.69378047756 -0.16062203564
0.688190960236 0.587785252292 -0.425325404176
0.809016994375 0.309016994375 -0.5
0.587785252292 0.425325404176 -0.688190960236
0.425325404176 0.688190960236 -0.587785252292
0.525731112119 0.0 -0.850650808352
0.425325404176 0.688190960236 0.587785252292
0.16062203564 0.702046444776 0.69378047756
0.309016994375 0.5 0.809016994375
0.69378047756 -0.16062203564 -0.702046444776
0.433888564553 -0.259891913008 0.862668480416
0.309016994375 -0.5 0.809016994375
0.587785252292 -0.425325404176 0.688190960236
0.69378047756 -0.16062203564 0.702046444776
0.425325404176 -0.688190960236 0.587785252292
0.688190960236 -0.587785252292 0.425325404176
0.16062203564 -0.702046444776 0.69378047756
0.259891913008 -0.862668480416 0.433888564553
0.0 -0.850650808352 0.525731112119
0.850650808352 0.0 0.525731112119
0.69378047756 0.16062203564 0.702046444776
0.587785252292 0.425325404176 0.688190960236
0.433888564553 0.259891913008 0.862668480416
-0.259891913008 -0.862668480416 0.433888564553
-0.5 -0.809016994375 0.309016994375
-0.688190960236 -0.587785252292 0.425325404176
-0.809016994375 -0.309016994375 0.5
-0.425325404176 -0.688190960236 0.587785252292
-0.587785252292 -0.425325404176 0.688190960236
-0.309016994375 -0.5 0.809016994375
-0.16062203564 -0.702046444776 0.69378047756
-0.433888564553 -0.259891913008 -0.862668480416
-0.587785252292 -0.425325404176 -0.688190960236
-0.69378047756 -0.16062203564 -0.702046444776
-0.309016994375 -0.5 -0.809016994375
0.259891913008 -0.862668480416 -0.433888564553
0.587785252292 -0.425325404176 -0.688190960236
0.433888564553 -0.259891913008 -0.862668480416
0.809016994375 -0.309016994375 -0.5
0.688190960236 -0.587785252292 -0.425325404176
0.425325404176 -0.688190960236 -0.587785252292
0.309016994375 -0.5 -0.809016994375
0.16062203564 -0.702046444776 -0.69378047756
0.0 -0.850650808352 -0.525731112119
0.0 0.525731112119 0.850650808352
0.15643446504 0.519258489728 0.840177885327
-0.162459848116 0.26286555606 0.951056516295
0.0 0.266404701135 0.963861263467
-0.0823235800317 0.399607051702 0.912982492932
0.0823235800317 0.399607051702 0.912982492932
0.162459848116 0.26286555606 0.951056516295
-0.0822424652791 0.133071104141 0.987688340595
-0.220117027473 0.132792476828 0.966392597402
-0.137952242128 0.0 0.990438881957
0.238676930319 0.386187385588 0.891006524188
0.353553390593 0.135045378369 0.925614793411
-0.301258879093 -0.264082750659 0.916244175191
-0.220117027473 -0.132792476828 0.966392597402
-0.358228793487 -0.131655371352 0.924304600611
-0.162459848116 -0.26286555606 0.951056516295
-0.433888564553 -0.259891913008 0.862668480416
-0.375038567478 -0.383613732685 0.843911474622
-0.238676930319 -0.386187385588 0.891006524188
-0.273266528913 0.0 0.961938357784
-0.0822424652791 -0.133071104141 0.987688340595
-0.15643446504 -0.519258489728 0.840177885327
-0.0823235800317 -0.399607051702 0.912982492932
0.0 -0.525731112119 0.850650808352
0.0823235800317 -0.399607051702 0.912982492932
0.0 -0.266404701135 0.963861263467
0.162459848116 -0.26286555606 0.951056516295
0.15643446504 -0.519258489728 0.840177885327
0.238676930319 -0.386187385588 0.891006524188
0.0 -0.707106781187 0.707106781187
-0.643954748142 -0.294754166588 0.70600443598
0.951056516295 -0.162459848116 -0.26286555606
0.850650808352 0.0 -0.525731112119
0.951056516295 0.162459848116 -0.26286555606
-1.0 0.0 0.0
-0.951056516295 -0.162459848116 -0.26286555606
-0.525731112119 -0.850650808352 0.0
-0.26286555606 -0.951056516295 -0.162459848116
-0.26286555606 -0.951056516295 0.162459848116
-0.259891913008 -0.862668480416 -0.433888564553
0.0 -0.961938357784 -0.273266528913
-0.809016994375 0.309016994375 0.5
-0.951056516295 0.162459848116 0.26286555606
-0.850650808352 0.0 0.525731112119
-0.951056516295 -0.162459848116 0.26286555606
0.5 0.809016994375 -0.309016994375
0.606825149272 0.758652300163 -0.237086325351
0.309016994375 0.5 -0.809016994375
0.37174803446 0.601500955008 -0.707106781186
0.468429850867 0.757935420048 -0.453990499739
0.383613732685 0.843911474622 -0.375038567478
0.346153014789 0.783451698363 -0.516121620051
0.259891913008 0.862668480416 -0.433888564553
0.296004592578 0.702309846744 -0.647411893882
0.213022865649 0.792649229259 -0.571251659136
0.16062203564 0.702046444776 -0.69378047756
0.237086325351 0.606825149272 -0.758652300163
0.131200378813 0.864929335863 -0.484441642061
0.0810862934433 0.78384304242 -0.615642020874
0.0 0.850650808352 -0.525731112119
0.711281734962 0.702907030488 0.0
0.702046444776 0.69378047756 0.16062203564
0.620239582613 0.78020437071 -0.08114185162
0.620239582613 0.78020437071 0.08114185162
0.525731112119 0.850650808352 0.0
0.519258489728 0.840177885327 -0.15643446504
0.606825149272 0.758652300163 0.237086325351
0.519258489728 0.840177885327 0.15643446504
0.5 0.809016994375 0.309016994375
0.386187385588 0.891006524188 -0.238676930319
0.399607051702 0.912982492932 -0.0823235800317
0.26286555606 0.951056516295 -0.162459848116
0.266404701135 0.963861263467 0.0
0.399607051702 0.912982492932 0.0823235800317
0.26286555606 0.951056516295 0.162459848116
0.133071104141 0.987688340595 -0.0822424652791
0.133071104141 0.987688340595 0.0822424652791
0.0 1.0 0.0
0.386187385588 0.891006524188 0.238676930319
0.264082750659 0.916244175191 -0.301258879093
0.131655371352 0.924304600611 -0.358228793487
0.132792476828 0.966392597402 -0.220117027473
0.0 0.961938357784 -0.273266528913
0.0 0.915043421233 -0.403355348617
0.0 0.990438881957 -0.137952242128
0.383613732685 0.843911474622 0.375038567478
0.264082750659 0.916244175191 0.301258879093
0.259891913008 0.862668480416 0.433888564553
0.132792476828 0.966392597402 0.220117027473
0.131655371352 0.924304600611 0.358228793487
0.0 0.961938357784 0.273266528913
0.0 0.990438881957 0.137952242128
0.131200378813 0.864929335863 0.484441642061
0.0 0.915043421233 0.403355348617
0.0 0.850650808352 0.525731112119
-0.131200378813 0.864929335863 0.484441642061
-0.131655371352 0.924304600611 0.358228793487
-0.259891913008 0.862668480416 0.433888564553
-0.132792476828 0.966392597402 0.220117027473
-0.264082750659 0.916244175191 0.301258879093
-0.26286555606 0.951056516295 0.162459848116
-0.133071104141 0.987688340595 0.0822424652791
-0.383613732685 0.843911474622 0.375038567478
-0.386187385588 0.891006524188 0.238676930319
-0.5 0.809016994375 0.309016994375
-0.133071104141 0.987688340595 -0.0822424652791
-0.266404701135 0.963861263467 0.0
-0.26286555606 0.951056516295 -0.162459848116
-0.399607051702 0.912982492932 -0.0823235800317
-0.399607051702 0.912982492932 0.0823235800317
-0.525731112119 0.850650808352 0.0
-0.386187385588 0.891006524188 -0.238676930319
-0.519258489728 0.840177885327 -0.15643446504
-0.5 0.809016994375 -0.309016994375
-0.519258489728 0.840177885327 0.15643446504
-0.132792476828 0.966392597402 -0.220117027473
-0.131655371352 0.924304600611 -0.358228793487
-0.264082750659 0.916244175191 -0.301258879093
-0.259891913008 0.862668480416 -0.433888564553
-0.131200378813 0.864929335863 -0.484441642061
-0.383613732685 0.843911474622 -0.375038567478
-0.606825149272 0.758652300163 0.237086325351
-0.620239582613 0.78020437071 0.08114185162
-0.702046444776 0.69378047756 0.16062203564
-0.0810862934433 0.78384304242 0.615642020874
-0.213022865649 0.792649229259 0.571251659136
-0.16062203564 0.702046444776 0.69378047756
-0.346153014789 0.783451698363 0.516121620051
-0.296004592578 0.702309846744 0.647411893882
-0.425325404176 0.688190960236 0.587785252292
-0.468429850867 0.757935420048 0.453990499739
-0.237086325351 0.606825149272 0.758652300163
-0.37174803446 0.601500955008 0.707106781186
-0.309016994375 0.5 0.809016994375
-0.601500955008 0.707106781186 0.37174803446
-0.564254211766 0.646577791798 0.51337544123
-0.688190960236 0.587785252292 0.425325404176
-0.646577791798 0.51337544123 0.564254211766
-0.51337544123 0.564254211766 0.646577791798
-0.587785252292 0.425325404176 0.688190960236
-0.757935420048 0.453990499739 0.468429850867
-0.707106781186 0.37174803446 0.601500955008
-0.453990499739 0.468429850867 0.757935420048
-0.702309846744 0.647411893882 0.296004592578
-0.792649229259 0.571251659136 0.213022865649
-0.783451698363 0.516121620051 0.346153014789
-0.862668480416 0.433888564553 0.259891913008
-0.843911474622 0.375038567478 0.383613732685
-0.375038567478 0.383613732685 0.843911474622
-0.516121620051 0.346153014789 0.783451698363
-0.433888564553 0.259891913008 0.862668480416
-0.647411893882 0.296004592578 0.702309846744
-0.571251659136 0.213022865649 0.792649229259
-0.69378047756 0.16062203564 0.702046444776
-0.758652300163 0.237086325351 0.606825149272
-0.484441642061 0.131200378813 0.864929335863
-0.615642020874 0.0810862934433 0.78384304242
-0.525731112119 0.0 0.850650808352
-0.08114185162 0.620239582613 0.78020437071
-0.15643446504 0.519258489728 0.840177885327
-0.238676930319 0.386187385588 0.891006524188
-0.301258879093 0.264082750659 0.916244175191
-0.358228793487 0.131655371352 0.924304600611
-0.403355348617 0.0 0.915043421233
0.782888506207 0.519553709322 0.342271135182
0.688190960236 0.587785252292 0.425325404176
0.468429850867 0.757935420048 0.453990499739
0.641591214532 0.518332565981 0.56541318032
0.346153014789 0.783451698363 0.516121620051
-0.309016994375 0.5 -0.809016994375
-0.294754166588 0.70600443598 -0.643954748142
-0.16062203564 0.702046444776 -0.69378047756
-0.69378047756 -0.16062203564 0.702046444776
-0.778605872826 -0.0768840702267 0.622785464303
[...]
CELL_DATA 796
SCALARS cell_data_0 double
LOOKUP_TABLE default
1.10540745011e-05
4.73063110171e-06
7.46936409842e-05
0.000216505609644
0.000118194618894
1.38979245672e-05
7.20187247766e-06
7.9489307868e-06
1.00254073999e-05
3.21795049988e-07
6.37137551025e-07
3.39590183582e-06
4.65676348589e-05
8.71086322455e-05
1.53806398759e-05
3.92104873988e-05
2.27325227676e-05
5.79825850596e-05
5.38943374056e-05
1.93943375285e-05
8.77512652688e-06
1.21183306835e-05
7.32275714032e-06
2.2308234857e-05
7.4241156214e-06
2.72601173159e-05
5.3552898049e-06
6.64506733155e-06
2.46370284216e-05
3.41722613951e-06
7.083774872e-06
2.10324590676e-05
6.45213796286e-06
4.48781062558e-06
1.17157180105e-06
8.65732149838e-06
1.05405721002e-05
1.99601961673e-05
1.10836747513e-05
7.21912186361e-06
8.85755918383e-06
8.95314896145e-06
1.6460370431e-05
1.46369220822e-06
8.30822898929e-06
4.45439575034e-05
3.07353331374e-05
6.18230357055e-05
1.74828574599e-05
4.77453997504e-06
4.62822741017e-05
4.53846495631e-05
5.05961910965e-06
5.88964100081e-06
3.35311400058e-05
1.02971521216e-05
4.49245641918e-05
3.22154935896e-06
1.76744954657e-06
2.28647804474e-05
2.17778588419e-06
4.21525373385e-06
2.642448189e-06
1.54061913769e-05
9.86549532829e-06
1.55316765668e-05
1.19897727646e-05
1.66404074972e-05
8.90566116579e-06
1.59278924454e-05
1.38353064932e-05
6.45609449408e-06
1.47051506817e-05
8.13095833393e-06
6.96864864142e-06
6.96410580824e-06
1.13767531807e-05
1.43526353906e-05
9.76995895804e-06
1.6046278287e-05
8.43009941139e-06
9.04054291063e-06
9.6407316826e-06
1.225386054e-05
1.16983614938e-05
1.12547686114e-05
1.63197854606e-05
1.63802204946e-05
9.39387237164e-06
9.58098561813e-06
8.19968491592e-06
1.89370920721e-05
9.24863936679e-06
8.11701184986e-06
9.44354497312e-06
4.3788715406e-06
6.35377097328e-06
9.51618099224e-06
1.05425651557e-05
1.09780362495e-05
1.00614788601e-05
1.14156369145e-05
1.10824505921e-05
9.28430303862e-06
4.37576029477e-06
3.55697869936e-07
7.22510752297e-06
8.41507306608e-06
3.99944844554e-06
3.07172123237e-06
1.41285511103e-05
3.68543072839e-05
1.18637158566e-05
7.14761742132e-06
1.12513058598e-05
3.10789319649e-06
9.69916340143e-06
2.99379358537e-06
9.2338230366e-06
4.09638118057e-06
2.99901112849e-06
1.00885247449e-05
9.07629900869e-06
6.80704891084e-06
2.91455552851e-07
2.18739238718e-06
5.95097014249e-06
2.92240552748e-06
1.08360290507e-05
1.31084008106e-05
3.76698378775e-07
5.63575940124e-07
6.93735923511e-07
3.76500007173e-07
1.63952588203e-07
3.50793264292e-07
3.27734531581e-07
6.74150277759e-07
1.49598352576e-07
5.70737344369e-07
1.86843557187e-07
3.76684840888e-07
2.17990288513e-07
2.55207517203e-07
2.90919509239e-07
4.77919626209e-07
4.3872616891e-07
2.10020956798e-07
1.06414443677e-07
1.96832740696e-07
1.98298208272e-07
1.75714524757e-06
3.62933280977e-07
8.89350094277e-07
1.28235599299e-07
6.46629848301e-07
5.69007427278e-08
2.48196564976e-07
1.25979371681e-07
2.20654007946e-06
1.62000990921e-06
1.67091240297e-06
2.95409080966e-07
4.19660811097e-06
1.92458781484e-06
2.23560345156e-06
4.29250169253e-06
9.50570187235e-06
4.51656292254e-06
5.02693085136e-06
4.98225685972e-06
7.6340467611e-06
2.09295096017e-06
3.30679174447e-06
6.60714822769e-06
1.33327782211e-05
1.33438687244e-05
4.35947553376e-06
3.44520290818e-06
1.20880128398e-05
4.97415818812e-06
6.7099338624e-06
1.70794240724e-06
3.46190586351e-06
1.38167144292e-06
2.28033155064e-06
2.74686829506e-06
4.68116001036e-06
2.48139137495e-06
1.88406740018e-06
1.34935921359e-06
3.89742098219e-06
4.19820825953e-06
3.37203790252e-06
4.72964539888e-06
9.55852662554e-06
3.18624787448e-06
1.06945941777e-05
4.59977195721e-06
8.04451188456e-06
3.60967460459e-06
5.0400708994e-07
9.65100249542e-07
5.63733418199e-06
3.04885644119e-06
1.29620103094e-06
3.21411065106e-06
5.07510978806e-06
5.66849339394e-06
5.8869325678e-07
1.89571474422e-08
1.44216300145e-06
1.12448785937e-06
1.43615086304e-06
1.43231433456e-06
6.23808897833e-07
7.65438061912e-07
3.60082964021e-06
3.61837956839e-06
1.11181929732e-05
2.10135568127e-05
1.02942668256e-05
3.80514610338e-06
1.52624787251e-05
1.00349051931e-05
2.54571982473e-05
1.35617694318e-05
1.23972127436e-05
1.7890772448e-05
1.0300556119e-05
1.84637232766e-05
1.90693353577e-05
2.86743404079e-05
2.30825003224e-05
3.88562148339e-05
2.32668832778e-05
4.74149135152e-05
2.0116286373e-05
4.98403721197e-05
3.38402601368e-05
3.1523916793e-05
4.62537279585e-05
2.30045387867e-05
2.32286970251e-05
4.1213791748e-05
1.84840998664e-05
9.70124730245e-06
1.97810048228e-05
1.15484566675e-05
3.66861449228e-05
2.3486979663e-05
5.11083107318e-05
5.46544385993e-05
5.47169044218e-05
1.2821896702e-05
3.39641706502e-05
1.91455607131e-05
5.12953187074e-05
4.94185210186e-05
2.57706017117e-05
3.11126937936e-05
1.83046918656e-05
9.6506776499e-06
7.68493779024e-06
2.64935367232e-05
1.13711293948e-05
1.58591433664e-06
1.07400542026e-06
3.08204715132e-06
9.44341115347e-06
1.27559923229e-06
2.65836228556e-06
1.3184450305e-06
4.67617735145e-06
3.83435959473e-06
1.38590183901e-06
2.0765064389e-06
2.66627708991e-06
4.02066007202e-06
3.4954420412e-06
3.50830921044e-06
4.72397029247e-06
2.45836045634e-07
2.15648667622e-06
1.21864313487e-05
5.07475848203e-06
1.03007063118e-05
3.29475232412e-06
7.12101619507e-07
4.89642783266e-06
7.81817085456e-06
6.37220142139e-07
7.53986032218e-06
7.60837762297e-06
5.69668742187e-06
1.60081109807e-06
4.01129268827e-06
4.46411953027e-06
2.06634130332e-06
3.20450539547e-06
1.55845535181e-05
1.93122131463e-05
2.35936433011e-05
5.86597395784e-06
1.25300195009e-05
1.70340527748e-05
6.52132302191e-06
1.32952443497e-06
3.54390868514e-06
2.44118709044e-07
6.19623531841e-06
6.12662472534e-06
1.84213459749e-07
7.45184623215e-06
4.47569814196e-06
2.76997953311e-06
3.44212196078e-06
7.14904178211e-06
3.03281110112e-06
2.79794030504e-06
4.98572098457e-06
1.24703702066e-06
7.66336535251e-06
2.90974528546e-06
4.17626105012e-06
3.41663960699e-06
5.41271201968e-06
3.61546175602e-05
1.65062662862e-05
3.7334030848e-06
1.48200075191e-06
5.62980631516e-06
5.73642944571e-06
7.15971136133e-06
3.30482084265e-06
3.51525087867e-06
9.25430143701e-06
1.05530879563e-05
9.58803125364e-06
3.75461826926e-06
3.93377870849e-06
1.16652346684e-05
3.88514705097e-06
1.19308216841e-06
1.58564251545e-06
2.37552204381e-06
2.33874200117e-06
2.68852779365e-06
3.57166247765e-06
3.8386332187e-06
3.13246295892e-06
4.4369375637e-06
1.01888891689e-06
1.50802158764e-06
1.3232345354e-06
9.09408070434e-07
1.23068588606e-05
1.44379587228e-07
3.08546304876e-06
4.17084044998e-06
1.4891794624e-06
1.83423215993e-05
5.13023126954e-05
2.70378155771e-05
6.5067223611e-06
5.01875059816e-06
4.65951339613e-06
5.8867979841e-06
1.24508711569e-06
4.92107896692e-06
8.72675893146e-07
4.00545910928e-06
3.09330821569e-06
2.37461397702e-06
8.36715814678e-06
5.34357094143e-07
1.06322796304e-05
1.69168828467e-06
8.24152139345e-07
5.25900547293e-07
3.3284309177e-06
1.61904051965e-08
5.86477345065e-08
1.58298638451e-06
4.64493349026e-05
4.74678076022e-05
5.55804931781e-06
3.05646195679e-06
7.67853191747e-06
4.52368755455e-06
4.24081435664e-06
3.91561263035e-07
4.33464748255e-06
1.08125380711e-05
4.81540136126e-06
1.1737511883e-05
1.43107128957e-05
3.06904650197e-05
1.93582843903e-05
1.77472855223e-05
5.20730299564e-06
5.02687307324e-06
1.26370133644e-06
6.26389767294e-06
7.71142910787e-06
7.30479884018e-06
8.52345868632e-06
2.10154793068e-06
1.59323915995e-06
1.63283284656e-07
3.85682989803e-07
6.68641847032e-07
4.81623685877e-07
2.81609842428e-07
7.7411540696e-07
7.53781544266e-07
4.82638097049e-07
3.01762143767e-07
2.37474944298e-06
7.69844687334e-07
7.23370355893e-07
3.00236193937e-07
7.74821491285e-07
2.69256250176e-06
1.45776250358e-06
3.32140174692e-07
5.17181339854e-07
4.71745785414e-07
6.3858767674e-07
7.54834523073e-07
1.19540115404e-06
8.10377281532e-07
2.40892477301e-06
1.61303589086e-06
6.2664149033e-07
7.20197932007e-07
1.34546229765e-06
2.42797970155e-06
2.63737781861e-06
6.30581466463e-07
8.59268584024e-07
6.40419327917e-07
1.12967536169e-06
1.88552384268e-06
1.45656263066e-06
4.34637290312e-06
8.82936205884e-07
6.94902699443e-07
6.96660919401e-06
2.83223269044e-06
3.52975656777e-06
2.89464609781e-06
3.55272881386e-06
5.17899079737e-06
1.11025929515e-05
9.19013790911e-06
3.79904712654e-06
3.50256881728e-06
4.83505292138e-06
5.71818387166e-06
3.70746860933e-07
2.33452544089e-07
3.14308020539e-07
3.6083765749e-07
2.60569801312e-07
1.50874859922e-07
1.63648924985e-08
3.52007026758e-07
2.05387534535e-07
1.14628072154e-07
3.31420927782e-06
3.60917098761e-09
1.59736781727e-07
7.60340638737e-08
8.26279631143e-08
6.67780704809e-06
1.46099461205e-05
8.54971739358e-07
6.45989248917e-07
4.80139836996e-07
3.58370416201e-06
1.47498833858e-06
4.43487625791e-07
1.12828538233e-05
4.09619097522e-07
1.24188044738e-06
9.99678756862e-07
1.41414707226e-07
1.8503592406e-07
8.91199102895e-07
8.18628709065e-07
1.17191962051e-05
9.28930265625e-07
1.46042969424e-07
4.21051986213e-08
4.32666850496e-08
1.01273258546e-07
2.78176047222e-07
2.4910427611e-07
1.29370268834e-07
1.12681418515e-07
2.71257129482e-07
7.63398955244e-06
2.30362609322e-07
1.71737988387e-07
3.72726077594e-07
3.12163312662e-07
5.02808080327e-06
7.93422827476e-07
8.04958014521e-08
5.50995157482e-08
4.06830362983e-10
5.81063828374e-08
9.69533808948e-08
9.45270710827e-08
9.63359167189e-09
9.30936554754e-08
4.60151767841e-08
2.9185102598e-07
2.18380218984e-07
5.79118971291e-08
1.64789749491e-07
5.7186812946e-08
6.58210428777e-06
3.23089546972e-06
7.441483494e-07
7.98896787864e-07
9.80136689084e-07
6.35192085012e-06
4.47678321861e-07
1.55221985987e-05
8.60772788534e-06
5.49649861086e-06
9.17978719005e-06
6.02478140174e-06
1.52848562359e-06
1.96955347789e-05
2.23311923361e-05
3.45323350808e-06
8.28222810542e-07
1.14410334084e-06
3.54814826793e-06
4.33214918163e-06
3.30646607847e-06
3.8422496721e-06
4.67072064741e-07
2.52235081473e-07
3.2597555736e-08
4.40436151708e-07
4.66425126295e-07
2.89170677583e-07
8.93780644619e-08
1.96999995818e-06
4.52659129156e-07
4.15359597769e-07
2.31440959348e-07
7.53650616103e-07
3.31061247337e-07
3.0662631855e-06
9.53076449756e-07
1.46450391861e-06
1.03911214545e-06
1.61184094742e-06
1.90803057544e-06
2.69792873209e-06
1.93531684267e-06
1.77777620288e-06
1.60345961888e-06
2.44632756343e-06
2.06307495296e-06
1.71466809855e-06
1.4716392142e-06
2.31211967348e-06
8.45485694198e-07
3.1415321211e-06
1.04229422455e-06
7.18642433063e-07
1.09417674872e-06
7.84204545932e-07
1.39632831467e-06
1.17176222774e-06
1.40957035716e-06
4.57984720732e-07
2.88367999671e-07
2.45298089096e-07
3.99571754453e-07
1.71503434894e-06
1.16048398919e-06
6.75738173258e-07
1.60711084779e-06
8.49703963409e-07
8.70007580621e-07
8.57627152781e-07
7.07431342517e-08
6.5700349609e-06
1.16957498999e-07
1.12479857278e-07
6.96101653917e-06
7.91472148118e-06
3.43674823702e-07
1.533009591e-08
5.13103071639e-06
6.56994933503e-06
2.24328396229e-06
3.93711017381e-07
1.12519442522e-05
6.74657879595e-06
1.75654217734e-07
4.17775831831e-07
6.42952363868e-06
1.83037334798e-06
2.54880420827e-08
5.72314240819e-08
6.19399128951e-08
4.07279452202e-06
1.09999297682e-05
1.07512804365e-05
3.72296014664e-06
3.99732632858e-06
1.11073356447e-05
9.81815435451e-06
1.09177343026e-05
1.05076594034e-05
2.19047747597e-05
1.13375102769e-05
1.25136757157e-05
7.01729724037e-06
9.72719844709e-06
5.36261877855e-06
2.00247409783e-05
1.87040196691e-05
1.79468945707e-05
7.84575855036e-06
1.28022816218e-05
5.5623321819e-06
1.28516136972e-05
1.05830869467e-05
5.44952680182e-06
8.972268723e-06
9.0229356348e-06
5.21088120201e-06
4.55389718811e-06
5.00434552325e-06
5.00387296319e-06
9.6239310167e-06
8.30525112617e-06
1.95448346705e-06
1.17314180303e-06
1.31128400399e-06
2.92549273791e-06
8.76441599346e-07
7.87123494323e-07
5.17621740889e-06
5.43562015352e-06
2.07720676604e-06
2.54615844296e-06
6.92781697224e-06
5.12942731006e-06
4.65069312224e-06
3.57687202144e-06
3.30526589354e-06
4.96844445819e-06
4.80077382834e-06
6.60922626158e-06
7.39529598854e-06
7.73862373554e-06
8.01655710449e-06
7.66836921227e-06
8.87416909167e-06
7.87981191526e-06
1.02371277445e-05
1.23290203294e-05
7.22359907611e-06
5.83410087598e-06
1.84054954055e-06
1.63004780445e-06
6.47369654033e-06
4.55375373871e-06
7.81924327869e-06
3.43031606208e-06
7.56316872413e-06
5.994328963e-06
8.45984190328e-06
7.37638722869e-06
8.56955014087e-06
8.24453030989e-06
1.10888438973e-05
1.21518753356e-05
8.90368819925e-06
6.31427296268e-06
3.4605407521e-06
6.72223358852e-07
4.75043558562e-06
3.94807486762e-06
3.56641395128e-06
5.65778401098e-06
5.69218517904e-06
2.39492039048e-06
6.55531547154e-06
7.27942318775e-06
9.25393227878e-06
9.56409170397e-06
5.63038839329e-06
4.57254025894e-06
1.02767923623e-05
1.03687345145e-05
7.46505886631e-06
9.56569511237e-06
3.87555213107e-06
8.13431163396e-07
4.00165112839e-06
4.01934064352e-06
8.2082448795e-06
5.29673372354e-06
7.57061390773e-06
8.23411185904e-06
7.31337819184e-06
2.51996647162e-06
5.17356431015e-06
7.00823143781e-06
6.21056197792e-06
1.66483837281e-06
1.4120521169e-06
5.30362006995e-06
1.22953620627e-05
1.0216160046e-05
2.40090254761e-07
4.70196744722e-06
5.10513679801e-06
5.82424307349e-06
1.04791388686e-05
9.75658867703e-06
9.4589203159e-06
7.96308126056e-06
4.41412578084e-06
2.03733333252e-06
7.33770825733e-07
1.67552935369e-08
1.75237491789e-07
1.00500904408e-05
1.2339172623e-05
6.73330498379e-07
9.37971319504e-08
6.37933351417e-06
8.81814702647e-06
7.81068824988e-06
8.37874490609e-06
1.70952374918e-07
3.80901428538e-08
4.5877388021e-08
4.79057939018e-07
9.52083470667e-08
7.76661913158e-06
7.8252651567e-06
1.91357010404e-05
4.81518648557e-07
1.25720335257e-07
7.02957882039e-08
5.07872116476e-07
3.37497715548e-06
3.49731925462e-06
5.48219693531e-08
5.26559442427e-07
6.20141722434e-08
5.36614313553e-07
1.90378448148e-09
3.14864925295e-07
1.9793301307e-08
5.27194345944e-07
7.40047669073e-08
6.02345384116e-06
4.10421168008e-07
9.1365008993e-08
3.86990084647e-08
3.90867172228e-07
2.48474452486e-06
1.13326537406e-06
5.05907728118e-06
3.16431240525e-06
1.71394098236e-06
1.71851522771e-06
3.15672955465e-06
2.21242971525e-06
5.96006131717e-06
2.30648186652e-06
7.32265871925e-06
1.35239161944e-05
1.9934961601e-06
4.94675802841e-07
4.02581923428e-07
1.19820143368e-06
1.10077366516e-07
4.86388557677e-08
1.32201629991e-07
1.03663802186e-06
1.14044474352e-06

