# vtk DataFile Version 3.0
File Name: Molecule/sphere_excent/sphere_excent_0-s3.vtk
ASCII
DATASET UNSTRUCTURED_GRID
FIELD FieldData 1
TIME 1 1 double
0.0
POINTS 155 double
0.850650808352 -0.525731112119 0.0
0.809016994375 -0.309016994375 -0.5
1.0 0.0 0.0
0.809016994375 0.309016994375 -0.5
0.809016994375 -0.309016994375 0.5
0.850650808352 0.525731112119 0.0
0.809016994375 0.309016994375 0.5
-0.809016994375 -0.309016994375 -0.5
-0.850650808352 -0.525731112119 0.0
-1.0 0.0 0.0
-0.5 -0.809016994375 -0.309016994375
-0.5 -0.809016994375 0.309016994375
0.0 -1.0 0.0
0.0 -0.850650808352 -0.525731112119
-0.809016994375 0.309016994375 0.5
-0.809016994375 -0.309016994375 0.5
0.5 -0.809016994375 -0.309016994375
0.5 -0.809016994375 0.309016994375
0.862668480416 0.433888564553 -0.259891913008
0.702046444776 0.69378047756 -0.16062203564
0.688190960236 0.587785252292 -0.425325404176
0.5 0.809016994375 -0.309016994375
0.587785252292 0.425325404176 -0.688190960236
0.425325404176 0.688190960236 -0.587785252292
0.309016994375 0.5 -0.809016994375
0.525731112119 0.0 -0.850650808352
0.259891913008 0.862668480416 -0.433888564553
0.16062203564 0.702046444776 -0.69378047756
0.0 0.850650808352 -0.525731112119
0.702046444776 0.69378047756 0.16062203564
0.525731112119 0.850650808352 0.0
0.5 0.809016994375 0.309016994375
0.26286555606 0.951056516295 -0.162459848116
0.26286555606 0.951056516295 0.162459848116
0.0 1.0 0.0
0.0 0.961938357784 -0.273266528913
0.259891913008 0.862668480416 0.433888564553
0.0 0.961938357784 0.273266528913
0.0 0.850650808352 0.525731112119
-0.259891913008 0.862668480416 0.433888564553
-0.26286555606 0.951056516295 0.162459848116
-0.5 0.809016994375 0.309016994375
-0.26286555606 0.951056516295 -0.162459848116
-0.525731112119 0.850650808352 0.0
-0.5 0.809016994375 -0.309016994375
-0.259891913008 0.862668480416 -0.433888564553
-0.702046444776 0.69378047756 0.16062203564
-0.16062203564 0.702046444776 0.69378047756
-0.425325404176 0.688190960236 0.587785252292
-0.309016994375 0.5 0.809016994375
-0.688190960236 0.587785252292 0.425325404176
-0.587785252292 0.425325404176 0.688190960236
-0.862668480416 0.433888564553 0.259891913008
-0.433888564553 0.259891913008 0.862668480416
-0.69378047756 0.16062203564 0.702046444776
-0.525731112119 0.0 0.850650808352
0.16062203564 0.702046444776 0.69378047756
0.0 0.525731112119 0.850650808352
-0.162459848116 0.26286555606 0.951056516295
-0.273266528913 0.0 0.961938357784
0.425325404176 0.688190960236 0.587785252292
0.309016994375 0.5 0.809016994375
-0.309016994375 0.5 -0.809016994375
-0.850650808352 0.525731112119 0.0
0.69378047756 -0.16062203564 -0.702046444776
0.525731112119 0.0 0.850650808352
0.433888564553 -0.259891913008 0.862668480416
0.69378047756 -0.16062203564 0.702046444776
0.587785252292 -0.425325404176 0.688190960236
0.309016994375 -0.5 0.809016994375
0.425325404176 -0.688190960236 0.587785252292
0.688190960236 -0.587785252292 0.425325404176
0.16062203564 -0.702046444776 0.69378047756
0.259891913008 -0.862668480416 0.433888564553
0.0 -0.850650808352 0.525731112119
0.433888564553 -0.259891913008 -0.862668480416
0.273266528913 0.0 -0.961938357784
0.162459848116 -0.26286555606 -0.951056516295
0.309016994375 -0.5 -0.809016994375
0.0 0.0 -1.0
0.0 -0.525731112119 -0.850650808352
-0.162459848116 -0.26286555606 -0.951056516295
-0.309016994375 -0.5 -0.809016994375
0.16062203564 -0.702046444776 -0.69378047756
-0.16062203564 -0.702046444776 -0.69378047756
-0.273266528913 0.0 -0.961938357784
-0.433888564553 -0.259891913008 -0.862668480416
-0.525731112119 0.0 -0.850650808352
0.850650808352 0.0 0.525731112119
0.69378047756 0.16062203564 0.702046444776
0.587785252292 0.425325404176 0.688190960236
0.433888564553 0.259891913008 0.862668480416
-0.69378047756 -0.16062203564 -0.702046444776
-0.69378047756 0.16062203564 -0.702046444776
-0.850650808352 0.0 -0.525731112119
-0.809016994375 0.309016994375 -0.5
-0.862668480416 0.433888564553 -0.259891913008
-0.587785252292 0.425325404176 -0.688190960236
-0.425325404176 0.688190960236 -0.587785252292
-0.688190960236 0.587785252292 -0.425325404176
-0.433888564553 0.259891913008 -0.862668480416
-0.259891913008 -0.862668480416 0.433888564553
-0.688190960236 -0.587785252292 0.425325404176
-0.425325404176 -0.688190960236 0.587785252292
-0.587785252292 -0.425325404176 0.688190960236
-0.309016994375 -0.5 0.809016994375
-0.16062203564 -0.702046444776 0.69378047756
-0.587785252292 -0.425325404176 -0.688190960236
0.259891913008 -0.862668480416 -0.433888564553
0.587785252292 -0.425325404176 -0.688190960236
0.688190960236 -0.587785252292 -0.425325404176
0.425325404176 -0.688190960236 -0.587785252292
0.433888564553 0.259891913008 -0.862668480416
0.162459848116 0.26286555606 -0.951056516295
-0.162459848116 0.26286555606 -0.951056516295
0.0 0.525731112119 -0.850650808352
-0.702046444776 0.69378047756 -0.16062203564
-0.711281734962 0.702907030488 0.0
-0.606825149272 0.758652300163 -0.237086325351
-0.78384304242 0.615642020874 0.0810862934433
-0.78384304242 0.615642020874 -0.0810862934433
0.15643446504 0.519258489728 0.840177885327
-0.0823235800317 0.399607051702 0.912982492932
0.0 0.266404701135 0.963861263467
0.0823235800317 0.399607051702 0.912982492932
0.162459848116 0.26286555606 0.951056516295
-0.0822424652791 0.133071104141 0.987688340595
0.0822424652791 0.133071104141 0.987688340595
0.0 0.0 1.0
0.238676930319 0.386187385588 0.891006524188
-0.220117027473 0.132792476828 0.966392597402
-0.137952242128 0.0 0.990438881957
0.353553390593 0.135045378369 0.925614793411
0.273266528913 0.0 0.961938357784
-0.433888564553 -0.259891913008 0.862668480416
-0.358228793487 -0.131655371352 0.924304600611
-0.301258879093 -0.264082750659 0.916244175191
-0.220117027473 -0.132792476828 0.966392597402
-0.162459848116 -0.26286555606 0.951056516295
-0.375038567478 -0.383613732685 0.843911474622
-0.238676930319 -0.386187385588 0.891006524188
-0.0822424652791 -0.133071104141 0.987688340595
-0.15643446504 -0.519258489728 0.840177885327
-0.0823235800317 -0.399607051702 0.912982492932
0.0 -0.525731112119 0.850650808352
0.0823235800317 -0.399607051702 0.912982492932
0.0 -0.266404701135 0.963861263467
0.162459848116 -0.26286555606 0.951056516295
0.15643446504 -0.519258489728 0.840177885327
0.238676930319 -0.386187385588 0.891006524188
0.0822424652791 -0.133071104141 0.987688340595
0.0 -0.707106781187 0.707106781187
0.353553390593 -0.135045378369 0.925614793411
-0.782888506207 0.519553709322 -0.342271135182
-0.643954748142 -0.294754166588 0.70600443598

CELLS 306 1224
3 0 1 2
3 1 3 2
3 0 2 4
3 2 5 6
3 7 8 9
3 8 10 11
3 10 12 11
3 10 13 12
3 14 9 15
3 15 9 8
3 7 10 8
3 16 17 12
3 16 0 17
3 3 18 2
3 2 18 5
3 5 18 19
3 18 20 19
3 18 3 20
3 19 20 21
3 3 22 20
3 22 23 20
3 22 24 23
3 20 23 21
3 25 22 3
3 21 23 26
3 23 27 26
3 23 24 27
3 26 27 28
3 5 19 29
3 19 30 29
3 19 21 30
3 29 30 31
3 21 32 30
3 32 33 30
3 32 34 33
3 30 33 31
3 21 26 32
3 26 35 32
3 26 28 35
3 32 35 34
3 31 33 36
3 33 37 36
3 33 34 37
3 36 37 38
3 38 37 39
3 37 40 39
3 37 34 40
3 39 40 41
3 34 42 40
3 42 43 40
3 42 44 43
3 40 43 41
3 34 35 42
3 35 45 42
3 35 28 45
3 42 45 44
3 41 43 46
3 38 39 47
3 39 48 47
3 39 41 48
3 47 48 49
3 41 50 48
3 50 51 48
3 50 14 51
3 48 51 49
3 41 46 50
3 46 52 50
3 50 52 14
3 49 51 53
3 51 54 53
3 51 14 54
3 53 54 55
3 38 47 56
3 47 57 56
3 47 49 57
3 49 53 58
3 53 55 59
3 5 29 6
3 29 31 6
3 31 60 6
3 31 36 60
3 36 56 60
3 36 38 56
3 60 56 61
3 62 45 28
3 55 54 15
3 54 14 15
3 14 52 9
3 52 63 9
3 28 27 62
3 1 64 3
3 64 25 3
3 65 66 67
3 66 68 67
3 66 69 68
3 67 68 4
3 69 70 68
3 70 71 68
3 70 17 71
3 68 71 4
3 69 72 70
3 72 73 70
3 72 74 73
3 70 73 17
3 4 71 0
3 71 17 0
3 25 75 76
3 75 77 76
3 75 78 77
3 76 77 79
3 78 80 77
3 80 81 77
3 80 82 81
3 77 81 79
3 78 83 80
3 83 84 80
3 83 13 84
3 80 84 82
3 79 81 85
3 81 86 85
3 81 82 86
3 85 86 87
3 6 88 2
3 2 88 4
3 4 88 67
3 88 89 67
3 88 6 89
3 67 89 65
3 6 90 89
3 90 91 89
3 90 61 91
3 89 91 65
3 87 92 93
3 92 94 93
3 92 7 94
3 93 94 95
3 95 94 9
3 9 94 7
3 63 96 9
3 9 96 95
3 62 97 98
3 97 99 98
3 97 95 99
3 98 99 44
3 62 100 97
3 100 93 97
3 100 87 93
3 97 93 95
3 74 101 12
3 12 101 11
3 11 102 8
3 8 102 15
3 11 103 102
3 103 104 102
3 103 105 104
3 102 104 15
3 11 101 103
3 101 106 103
3 101 74 106
3 103 106 105
3 87 86 92
3 86 107 92
3 86 82 107
3 92 107 7
3 7 107 10
3 10 107 82
3 82 84 10
3 84 13 10
3 13 108 12
3 108 16 12
3 17 73 12
3 12 73 74
3 25 64 75
3 64 109 75
3 64 1 109
3 75 109 78
3 1 110 109
3 110 111 109
3 110 16 111
3 109 111 78
3 16 110 0
3 0 110 1
3 78 111 83
3 111 108 83
3 111 16 108
3 83 108 13
3 25 76 112
3 76 113 112
3 76 79 113
3 112 113 24
3 79 114 113
3 114 115 113
3 114 62 115
3 113 115 24
3 79 85 114
3 85 100 114
3 85 87 100
3 114 100 62
3 25 112 22
3 22 112 24
3 116 117 43
3 43 117 46
3 44 118 43
3 43 118 116
3 46 117 119
3 117 120 119
3 117 116 120
3 119 120 63
3 46 119 52
3 119 63 52
3 57 121 56
3 56 121 61
3 58 122 49
3 49 122 57
3 58 123 122
3 123 124 122
3 123 125 124
3 122 124 57
3 58 126 123
3 126 127 123
3 126 128 127
3 123 127 125
3 57 124 121
3 124 129 121
3 124 125 129
3 121 129 61
3 59 130 53
3 53 130 58
3 58 130 126
3 130 131 126
3 130 59 131
3 126 131 128
3 61 129 91
3 129 132 91
3 129 125 132
3 91 132 65
3 125 127 132
3 127 133 132
3 127 128 133
3 132 133 65
3 134 135 55
3 55 135 59
3 134 136 135
3 136 137 135
3 136 138 137
3 135 137 59
3 134 139 136
3 139 140 136
3 139 105 140
3 136 140 138
3 59 137 131
3 137 141 131
3 137 138 141
3 131 141 128
3 105 142 140
3 142 143 140
3 142 144 143
3 140 143 138
3 144 145 143
3 145 146 143
3 145 147 146
3 143 146 138
3 144 148 145
3 148 149 145
3 148 69 149
3 145 149 147
3 138 146 141
3 146 150 141
3 146 147 150
3 141 150 128
3 69 148 72
3 148 151 72
3 148 144 151
3 72 151 74
3 74 151 106
3 151 142 106
3 151 144 142
3 106 142 105
3 128 150 133
3 150 152 133
3 150 147 152
3 133 152 65
3 147 149 152
3 149 66 152
3 149 69 66
3 152 66 65
3 61 90 60
3 60 90 6
3 62 98 45
3 45 98 44
3 63 120 96
3 120 153 96
3 120 116 153
3 96 153 95
3 95 153 99
3 153 118 99
3 153 116 118
3 99 118 44
3 105 139 104
3 139 154 104
3 139 134 154
3 104 154 15
3 15 154 55
3 154 134 55
3 24 115 27
3 27 115 62

CELL_TYPES 306
5
5
5
5
5
5
5
5
5
5
5
5
5
5
5
5
5
5
5
5
5
5
5
5
5
5
5
5
5
5
5
5
5
5
5
5
5
5
5
5
5
5
5
5
5
5
5
5
5
5
5
5
5
5
5
5
5
5
5
5
5
5
5
5
5
5
5
5
5
5
5
5
5
5
5
5
5
5
5
5
5
5
5
5
5
5
5
5
5
5
5
5
5
5
5
5
5
5
5
5
5
5
5
5
5
5
5
5
5
5
5
5
5
5
5
5
5
5
5
5
5
5
5
5
5
5
5
5
5
5
5
5
5
5
5
5
5
5
5
5
5
5
5
5
5
5
5
5
5
5
5
5
5
5
5
5
5
5
5
5
5
5
5
5
5
5
5
5
5
5
5
5
5
5
5
5
5
5
5
5
5
5
5
5
5
5
5
5
5
5
5
5
5
5
5
5
5
5
5
5
5
5
5
5
5
5
5
5
5
5
5
5
5
5
5
5
5
5
5
5
5
5
5
5
5
5
5
5
5
5
5
5
5
5
5
5
5
5
5
5
5
5
5
5
5
5
5
5
5
5
5
5
5
5
5
5
5
5
5
5
5
5
5
5
5
5
5
5
5
5
5
5
5
5
5
5
5
5
5
5
5
5
5
5
5
5
5
5
5
5
5
5
5
5
5
5
5
5
5
5
5
5
5
5
5
5

CELL_DATA 306
SCALARS cell_data_0 double
LOOKUP_TABLE default
7.71843606932e-06
3.04492282624e-05
1.52727810923e-05
1.57794007786e-05
4.32238156189e-07
1.64816201974e-05
4.3513229868e-05
2.25179152837e-05
3.15739291786e-05
1.40904643494e-05
1.41302082849e-05
8.35498187863e-06
4.98911025446e-06
1.01454075113e-05
1.82198354866e-06
9.65458149976e-07
9.90246668682e-07
7.83589613229e-06
7.53787821228e-06
9.41170020462e-06
3.54166052845e-06
4.34022368935e-06
1.22704612454e-05
1.62534593651e-05
2.89457203202e-05
3.40466070159e-05
1.42910292779e-05
3.04963953912e-05
1.87923512359e-05
2.54772432929e-05
1.1830843977e-05
2.51938000453e-05
3.21231440238e-05
1.99950469941e-05
1.11717055698e-05
5.08803869171e-06
4.35661683585e-05
8.1352660485e-05
5.64014360894e-05
4.4701471061e-05
8.26637454073e-06
3.73848173977e-05
2.11967768956e-05
2.10265621008e-05
2.00635828794e-05
7.85117483048e-05
5.52304876219e-05
2.77256746432e-05
0.000108992806361
0.000266950966182
0.000166612630609
0.000105452054942
0.000100780190186
0.000144316065034
5.06754574919e-05
7.13477538764e-05
7.95258526198e-05
8.20405584798e-06
9.79813945587e-06
4.50971928618e-06
1.32588508574e-05
2.36491180057e-06
2.31318380987e-05
2.59823048332e-05
1.79491368431e-05
3.74376734308e-05
6.74383892469e-05
1.89322453284e-05
1.84523140462e-05
9.01971501809e-06
8.3511260976e-06
2.17016488467e-05
1.29992093347e-05
1.98874574042e-05
2.0435652787e-05
3.65125136768e-05
3.78224092747e-05
1.93705631768e-05
1.71720794157e-05
2.21522459559e-05
2.09576096391e-06
6.10269318306e-06
3.40586000237e-06
1.56661277353e-05
3.85294863361e-05
3.13876424086e-05
1.58608078126e-05
5.87162437824e-07
1.26843997763e-05
3.84829568683e-05
1.69428332825e-05
1.38600965933e-05
2.13881126798e-05
1.18269058269e-05
1.28752654243e-05
9.08813419213e-06
1.27330929341e-05
9.76733335387e-06
7.78802281107e-06
8.998186938e-06
1.03698572443e-05
8.02227829382e-06
8.61592510289e-06
6.54582306157e-06
1.1425132662e-05
9.2434712194e-06
2.67166594076e-05
5.46108227792e-05
3.10134285832e-05
4.0380251567e-05
8.06337061279e-05
7.38292875224e-05
5.06110983036e-05
1.96158555005e-05
3.73783876927e-05
3.2180520063e-05
3.41438356922e-07
4.25251112845e-05
2.48439014719e-06
1.6417464048e-06
5.49526707457e-06
1.03008601701e-05
1.45368466186e-05
1.38141950998e-05
8.09215441215e-06
9.80820017884e-06
8.98142178389e-06
1.81855355789e-05
1.05397064984e-05
1.29557142287e-05
1.37907604065e-05
2.13861586437e-05
2.46261317747e-05
2.5889790281e-05
2.04521557211e-05
1.78766296405e-05
1.95457452988e-05
2.26040599595e-05
1.77463506985e-05
2.20192968972e-05
7.31637909974e-05
5.49835706801e-05
2.86268456791e-05
1.23661823304e-05
3.48055529681e-05
3.52140299359e-05
1.56063155272e-05
3.64239675921e-05
9.01995827243e-06
1.63561105983e-07
4.67263159941e-06
1.0224530105e-05
7.82028620189e-06
1.00391299622e-05
1.24082276759e-05
1.04317067235e-05
6.80316280269e-06
8.41971526042e-06
8.6669079035e-06
1.04585961813e-05
1.76175392127e-05
5.67128727561e-06
4.78265924289e-06
7.12799438495e-06
9.56180429218e-06
1.55368833923e-05
1.4961626239e-05
5.12219112855e-06
4.2384444452e-06
1.00454316138e-05
8.53138337325e-06
9.42447149453e-06
6.93222864904e-06
8.06419766809e-06
2.35858366743e-06
1.2378082269e-05
4.67895966819e-06
3.33111778943e-06
5.7880967741e-06
5.03572991633e-06
1.38512654122e-05
1.07589530585e-05
2.84103397913e-06
3.67651444522e-08
2.73581069877e-06
2.53977714922e-07
1.79591432964e-05
2.07682313283e-05
2.00470335693e-05
4.29961121265e-06
3.8818570209e-05
0.000118099522696
0.00012821163944
5.52930346272e-05
3.04226253429e-05
2.75662918287e-05
9.34249804546e-06
3.63955319682e-05
2.70964120328e-06
3.15260590787e-06
6.87533999158e-05
0.000102595023239
5.95292510628e-05
5.65782437464e-05
4.59707806604e-05
6.83680668332e-05
3.53796429623e-05
3.64529995933e-05
5.24511902796e-05
3.25542887696e-05
1.92481626027e-06
2.03690990721e-06
1.88174102392e-05
1.43898330444e-05
6.4874197518e-06
8.58877054848e-06
1.18530397303e-05
4.01071876976e-06
1.25466577389e-05
9.42833847568e-06
2.25393540378e-05
1.62828060084e-05
6.13113153301e-06
2.43480498202e-05
3.74253726417e-06
3.82173244284e-06
2.56466622783e-05
2.33322663913e-05
1.09975652396e-05
9.30864503549e-06
1.44281902841e-05
1.87383990071e-05
1.70681416507e-05
1.46382377037e-05
1.3900770997e-05
1.89108082158e-05
2.51379978349e-05
1.1195843839e-05
3.82539470959e-05
1.12024855305e-05
1.88549085747e-05
2.14861720577e-05
9.19084809269e-06
5.07134079074e-06
1.39736243947e-05
1.11021166152e-05
5.05063116794e-06
3.12535065279e-06
2.85682131591e-06
1.14545425829e-05
1.41232961377e-05
1.20487777716e-05
1.60221024364e-05
1.90958835297e-05
7.88501013508e-06
1.49297534765e-06
8.4570904252e-06
1.33087140606e-05
8.4166164337e-06
2.97671346473e-06
1.43864868659e-05
1.59300581901e-05
6.97262365061e-06
3.79610073739e-06
6.43601412819e-06
1.12845988321e-05
1.9186576481e-05
6.72391233099e-06
1.70809646585e-05
2.31112716539e-05
1.14345054532e-05
7.43149557273e-06
1.09874034392e-05
6.07119936887e-06
6.17298539586e-06
7.35518604127e-06
1.09241209191e-05
1.2133351284e-05
3.69746465534e-05
3.953443015e-07
2.75616362804e-05
9.83886407391e-06
2.25300111009e-05
1.78504474247e-05
1.6587857069e-05
1.89395883272e-05
1.32829915435e-05
1.2207466034e-05
4.02809721057e-05
2.58259571596e-05
4.44632731951e-05
4.51322650328e-05
2.66557498323e-05
6.68669608274e-06
3.95336200536e-07
1.69149511407e-05
1.51314536549e-05
1.60841925994e-05
9.67005593967e-06
1.72907583416e-06
4.51644149109e-06
5.13956221381e-06
1.58008393591e-05
2.2431261797e-05
6.40859528391e-05
7.97910436297e-05

