# vtk DataFile Version 3.0
File Name: Molecule/sphere_dip_sim/sphere_dip_sim_0-s4.vtk
ASCII
DATASET UNSTRUCTURED_GRID
FIELD FieldData 1
TIME 1 1 double
0.0
POINTS 692 double
0.5 0.809016994375 0.309016994375
0.26286555606 0.951056516295 0.162459848116
0.259891913008 0.862668480416 0.433888564553
-0.16062203564 0.702046444776 0.69378047756
0.0 0.525731112119 0.850650808352
0.16062203564 0.702046444776 0.69378047756
0.425325404176 0.688190960236 0.587785252292
0.688190960236 0.587785252292 0.425325404176
0.0 0.850650808352 0.525731112119
0.309016994375 0.5 0.809016994375
0.809016994375 -0.309016994375 -0.5
0.850650808352 0.0 -0.525731112119
0.951056516295 -0.162459848116 -0.26286555606
0.951056516295 0.162459848116 -0.26286555606
0.809016994375 0.309016994375 -0.5
1.0 0.0 0.0
0.69378047756 -0.16062203564 -0.702046444776
0.69378047756 0.16062203564 -0.702046444776
0.587785252292 0.425325404176 -0.688190960236
0.688190960236 0.587785252292 -0.425325404176
0.425325404176 0.688190960236 -0.587785252292
0.5 0.809016994375 -0.309016994375
-0.259891913008 -0.862668480416 -0.433888564553
0.0 -0.850650808352 -0.525731112119
0.0 -0.961938357784 -0.273266528913
-0.26286555606 -0.951056516295 -0.162459848116
0.0 -1.0 0.0
0.0 -0.850650808352 0.525731112119
-0.259891913008 -0.862668480416 0.433888564553
-0.5 -0.809016994375 0.309016994375
-0.850650808352 -0.525731112119 0.0
-0.688190960236 -0.587785252292 0.425325404176
-0.809016994375 -0.309016994375 0.5
-0.425325404176 -0.688190960236 0.587785252292
-0.587785252292 -0.425325404176 0.688190960236
-0.309016994375 -0.5 0.809016994375
-0.16062203564 -0.702046444776 0.69378047756
-0.850650808352 0.0 0.525731112119
-0.951056516295 -0.162459848116 0.26286555606
-0.16062203564 -0.702046444776 -0.69378047756
0.259891913008 -0.862668480416 -0.433888564553
0.26286555606 -0.951056516295 -0.162459848116
0.5 -0.809016994375 -0.309016994375
0.26286555606 -0.951056516295 0.162459848116
0.688190960236 -0.587785252292 -0.425325404176
0.587785252292 -0.425325404176 -0.688190960236
0.425325404176 -0.688190960236 -0.587785252292
0.862668480416 -0.433888564553 -0.259891913008
0.702046444776 -0.69378047756 -0.16062203564
0.16062203564 -0.702046444776 -0.69378047756
0.990438881957 -0.137952242128 0.0
0.917539630891 -0.301683612961 -0.259052163504
0.961938357784 -0.273266528913 0.0
0.850650808352 -0.525731112119 0.0
0.915043421233 -0.403355348617 0.0
0.519258489728 0.840177885327 -0.15643446504
0.702046444776 0.69378047756 -0.16062203564
0.707106781187 0.707106781187 0.0
0.525731112119 0.850650808352 0.0
0.850650808352 0.525731112119 0.0
0.26286555606 0.951056516295 -0.162459848116
-0.5 0.809016994375 0.309016994375
-0.519258489728 0.840177885327 0.15643446504
-0.606825149272 0.758652300163 0.237086325351
-0.620239582613 0.78020437071 0.08114185162
-0.525731112119 0.850650808352 0.0
-0.620239582613 0.78020437071 -0.08114185162
-0.711281734962 0.702907030488 0.0
-0.519258489728 0.840177885327 -0.15643446504
-0.606825149272 0.758652300163 -0.237086325351
-0.601500955008 0.707106781186 0.37174803446
-0.564254211766 0.646577791798 0.51337544123
-0.468429850867 0.757935420048 0.453990499739
-0.51337544123 0.564254211766 0.646577791798
-0.425325404176 0.688190960236 0.587785252292
-0.15643446504 -0.519258489728 0.840177885327
-0.238676930319 -0.386187385588 0.891006524188
0.0 -0.525731112119 0.850650808352
-0.0823235800317 -0.399607051702 0.912982492932
0.15643446504 -0.519258489728 0.840177885327
0.238676930319 -0.386187385588 0.891006524188
0.0823235800317 -0.399607051702 0.912982492932
0.309016994375 -0.5 0.809016994375
0.16062203564 -0.702046444776 0.69378047756
0.0 -0.707106781187 0.707106781187
0.162459848116 -0.26286555606 0.951056516295
0.301258879093 -0.264082750659 0.916244175191
0.375038567478 -0.383613732685 0.843911474622
0.433888564553 -0.259891913008 0.862668480416
0.587785252292 -0.425325404176 0.688190960236
0.425325404176 -0.688190960236 0.587785252292
0.15643446504 -0.519258489728 -0.840177885327
0.0823235800317 -0.399607051702 -0.912982492932
0.238676930319 -0.386187385588 -0.891006524188
0.0 -0.525731112119 -0.850650808352
-0.0823235800317 -0.399607051702 -0.912982492932
0.0 -0.266404701135 -0.963861263467
-0.162459848116 -0.26286555606 -0.951056516295
-0.0822424652791 -0.133071104141 -0.987688340595
0.0 -0.707106781187 -0.707106781187
0.0 0.0 -1.0
-0.137952242128 0.0 -0.990438881957
-0.220117027473 -0.132792476828 -0.966392597402
-0.301258879093 -0.264082750659 -0.916244175191
-0.358228793487 -0.131655371352 -0.924304600611
-0.433888564553 -0.259891913008 -0.862668480416
-0.238676930319 -0.386187385588 -0.891006524188
-0.375038567478 -0.383613732685 -0.843911474622
-0.484441642061 -0.131200378813 -0.864929335863
-0.403355348617 0.0 -0.915043421233
0.924304600611 -0.358228793487 0.131655371352
0.864929335863 -0.484441642061 0.131200378813
0.966392597402 -0.220117027473 0.132792476828
0.916244175191 -0.301258879093 0.264082750659
0.951056516295 -0.162459848116 0.26286555606
0.862668480416 -0.433888564553 0.259891913008
0.987688340595 -0.0822424652791 0.133071104141
0.891006524188 -0.238676930319 0.386187385588
0.987688340595 0.0822424652791 0.133071104141
0.963861263467 0.0 0.266404701135
0.951056516295 0.162459848116 0.26286555606
0.850650808352 0.0 0.525731112119
0.961938357784 0.273266528913 0.0
0.925614793411 0.353553390593 0.135045378369
-0.5 0.809016994375 -0.309016994375
-0.688190960236 0.587785252292 -0.425325404176
-0.433888564553 -0.259891913008 0.862668480416
-0.615642020874 0.0810862934433 0.78384304242
-0.778605872826 -0.0768840702267 0.622785464303
-0.69378047756 -0.16062203564 0.702046444776
-0.643954748142 -0.294754166588 -0.70600443598
-0.69378047756 -0.16062203564 -0.702046444776
-0.587785252292 -0.425325404176 -0.688190960236
-0.309016994375 -0.5 -0.809016994375
-0.0822424652791 0.133071104141 -0.987688340595
-0.809016994375 -0.309016994375 -0.5
-0.862668480416 -0.433888564553 -0.259891913008
-0.951056516295 -0.162459848116 -0.26286555606
-0.961938357784 -0.273266528913 0.0
-1.0 0.0 0.0
-0.702046444776 -0.69378047756 -0.16062203564
-0.702046444776 -0.69378047756 0.16062203564
-0.525731112119 -0.850650808352 0.0
-0.5 -0.809016994375 -0.309016994375
0.266404701135 0.963861263467 0.0
0.399607051702 0.912982492932 -0.0823235800317
0.399607051702 0.912982492932 0.0823235800317
0.133071104141 0.987688340595 -0.0822424652791
0.133071104141 0.987688340595 0.0822424652791
0.0 1.0 0.0
0.0 0.961938357784 -0.273266528913
0.135045378369 0.925614793411 -0.353553390593
0.0 0.850650808352 -0.525731112119
0.132792476828 0.966392597402 0.220117027473
0.0 0.961938357784 0.273266528913
0.0 0.990438881957 0.137952242128
0.0 0.915043421233 0.403355348617
-0.131200378813 0.864929335863 0.484441642061
-0.131655371352 0.924304600611 0.358228793487
-0.259891913008 0.862668480416 0.433888564553
-0.132792476828 0.966392597402 0.220117027473
-0.264082750659 0.916244175191 0.301258879093
-0.26286555606 0.951056516295 0.162459848116
-0.133071104141 0.987688340595 0.0822424652791
-0.133071104141 0.987688340595 -0.0822424652791
-0.266404701135 0.963861263467 0.0
-0.26286555606 0.951056516295 -0.162459848116
-0.386187385588 0.891006524188 -0.238676930319
-0.259891913008 0.862668480416 -0.433888564553
-0.135045378369 0.925614793411 -0.353553390593
-0.0810862934433 0.78384304242 0.615642020874
-0.213022865649 0.792649229259 0.571251659136
-0.346153014789 0.783451698363 0.516121620051
-0.296004592578 0.702309846744 0.647411893882
-0.309016994375 0.5 0.809016994375
-0.15643446504 0.519258489728 0.840177885327
0.15643446504 0.519258489728 0.840177885327
-0.238676930319 0.386187385588 0.891006524188
-0.0823235800317 0.399607051702 0.912982492932
-0.162459848116 0.26286555606 0.951056516295
0.0823235800317 0.399607051702 0.912982492932
0.238676930319 0.386187385588 0.891006524188
0.162459848116 0.26286555606 0.951056516295
0.375038567478 0.383613732685 0.843911474622
0.301258879093 0.264082750659 0.916244175191
0.433888564553 0.259891913008 0.862668480416
0.358228793487 0.131655371352 0.924304600611
0.484441642061 0.131200378813 0.864929335863
0.403355348617 0.0 0.915043421233
0.273266528913 0.0 0.961938357784
0.525731112119 0.0 0.850650808352
-0.525731112119 0.0 0.850650808352
-0.484441642061 -0.131200378813 0.864929335863
-0.403355348617 0.0 0.915043421233
-0.358228793487 -0.131655371352 0.924304600611
-0.273266528913 0.0 0.961938357784
0.484441642061 -0.131200378813 0.864929335863
0.615642020874 -0.0810862934433 0.78384304242
0.571251659136 -0.213022865649 0.792649229259
0.69378047756 -0.16062203564 0.702046444776
0.516121620051 -0.346153014789 0.783451698363
0.647411893882 -0.296004592578 0.702309846744
0.758652300163 -0.237086325351 0.606825149272
0.707106781186 -0.37174803446 0.601500955008
0.809016994375 -0.309016994375 0.5
0.51337544123 -0.564254211766 0.646577791798
0.564254211766 -0.646577791798 0.51337544123
0.646577791798 -0.51337544123 0.564254211766
0.688190960236 -0.587785252292 0.425325404176
0.5 -0.809016994375 0.309016994375
0.468429850867 -0.757935420048 0.453990499739
0.259891913008 -0.862668480416 0.433888564553
0.218508012224 -0.790569415042 0.572061402817
0.891006524188 0.238676930319 0.386187385588
0.912982492932 0.0823235800317 0.399607051702
0.840177885327 0.15643446504 0.519258489728
0.809016994375 0.309016994375 0.5
0.840177885327 -0.15643446504 0.519258489728
0.78020437071 -0.08114185162 0.620239582613
0.78020437071 0.08114185162 0.620239582613
0.702907030488 0.0 0.711281734962
0.69378047756 0.16062203564 0.702046444776
0.758652300163 0.237086325351 0.606825149272
0.615642020874 0.0810862934433 0.78384304242
0.790569415042 0.572061402817 0.218508012224
0.862668480416 0.433888564553 0.259891913008
0.757935420048 0.453990499739 0.468429850867
0.587785252292 0.425325404176 0.688190960236
0.646577791798 0.51337544123 0.564254211766
0.453990499739 0.468429850867 0.757935420048
0.707106781186 0.37174803446 0.601500955008
0.647411893882 0.296004592578 0.702309846744
[...]
CELL_DATA 1380
SCALARS cell_data_0 double
LOOKUP_TABLE default
2.22699621522e-05
1.90559673576e-05
4.490253198e-05
1.66109351743e-05
3.99183779724e-07
5.70688090832e-06
1.45540485914e-05
9.70455401658e-05
0.000209622376097
9.09329117081e-05
0.000131628190555
7.17647403037e-05
3.49814112551e-05
7.24263791752e-05
5.33204835036e-05
7.60985264339e-06
1.49344989942e-06
1.16402906163e-05
5.81712702926e-06
1.50355432293e-06
5.96818838744e-06
4.50615931332e-06
1.96164790355e-05
8.67631694296e-06
9.53987936645e-06
4.23599217497e-06
8.30336412308e-06
1.51856005308e-05
3.4419011665e-05
6.02710924773e-05
4.50879819188e-06
1.55947481576e-05
1.90560265598e-05
1.4343174727e-05
2.11002455869e-05
0.000107259399464
1.27348699899e-05
8.84734811062e-06
8.23645202736e-06
3.48564057923e-06
3.57557535498e-06
7.4325016641e-08
2.46935772865e-05
2.50375124832e-05
4.02186778328e-06
1.85962943966e-05
5.05240584699e-07
4.4256531249e-06
2.56382452971e-06
1.76238716011e-06
1.77800668726e-05
2.54961388307e-05
3.13186140183e-06
2.83719752367e-05
8.49675060534e-06
5.98750809983e-06
1.60323575581e-06
1.32033278743e-06
2.22849107412e-06
2.86019803945e-06
2.19442213454e-06
1.36386728159e-06
3.6556603089e-07
2.31821832605e-06
3.38779161188e-06
5.30403086826e-06
7.16368230543e-06
1.37745635164e-06
6.29085596508e-07
2.40043901936e-06
2.56070374357e-06
3.42386934169e-06
2.23645964098e-06
2.33697850353e-06
1.18710624292e-05
6.16021282044e-06
4.75543316542e-06
1.10014094722e-05
1.11286392568e-05
1.4793753568e-05
1.34092420312e-05
1.30816509659e-05
1.2579716515e-05
1.67768587983e-05
1.6684476639e-05
2.02266168963e-05
1.43416300169e-05
6.65175974855e-06
4.10906896026e-06
1.98247834472e-05
1.61974706252e-05
1.41611950774e-05
1.42992467529e-05
1.09989578471e-05
1.06310120191e-05
1.01229951907e-05
8.86788883163e-06
1.14864984609e-05
9.11534024577e-06
1.36021049058e-07
1.22323488693e-06
4.0527703223e-06
8.4616121448e-06
1.1097674122e-05
1.12273789704e-05
2.60639651662e-06
6.24773566023e-06
4.24069257793e-06
1.14360090591e-05
1.31179643166e-05
1.12780311569e-05
1.77523602048e-05
2.73213463056e-05
1.34452379402e-05
4.39534361257e-05
5.44381632961e-05
6.34982549576e-05
1.94869407154e-06
2.02729391075e-05
1.68826770163e-05
1.76481846621e-05
1.84625314251e-06
6.32281627164e-07
4.70338891179e-06
1.11040825068e-05
1.87344397441e-05
2.13775026634e-05
4.42021701578e-05
3.00434672506e-05
6.1966642319e-05
2.44736601093e-05
2.03232792221e-05
2.38647118728e-05
5.60553176236e-06
7.78115924526e-07
5.17062142095e-09
1.93369137391e-06
9.73314405711e-07
1.33259270103e-06
7.21341747762e-07
3.97915216071e-06
2.01715537953e-06
3.6797825295e-06
9.64600991785e-06
9.8302758478e-06
9.05170703245e-06
6.23999113864e-06
6.15996627235e-06
1.18234109043e-05
6.72673810337e-06
4.54914864665e-06
7.23263557742e-06
7.38603890399e-06
7.49682826441e-06
5.74927855457e-06
3.13277239392e-06
3.49863773948e-06
8.99328576981e-06
5.44227665822e-06
5.53936767648e-06
1.05755630114e-05
1.97403317047e-05
1.8629657252e-05
8.93717021263e-06
1.193612686e-05
2.07590887372e-05
1.54628620499e-05
1.75896865434e-05
8.44248890719e-06
8.2495409985e-06
1.95780543489e-06
1.15939455527e-05
5.41474029237e-06
8.371814211e-06
9.29969969237e-07
1.57876245866e-07
8.55679421545e-06
4.10558177573e-06
8.13211728004e-06
5.48727698342e-06
4.90714315075e-06
6.90160078019e-06
2.72164596412e-06
3.21218322211e-06
1.07853246276e-07
3.03013845071e-06
5.21329959307e-07
2.68442937191e-06
2.31798917316e-07
3.53823882563e-07
1.02615418718e-05
1.10390114858e-05
1.18917490287e-05
1.07568222399e-05
1.01048139152e-05
1.23369382089e-05
1.39070925914e-05
1.10926702064e-05
1.01812288382e-05
1.13024515773e-05
1.34997503223e-05
9.27141114489e-06
8.36885554027e-06
9.90994849703e-06
1.11936657526e-05
9.61781316152e-06
9.73873184604e-06
1.02784436137e-05
1.17322191143e-05
9.34736999239e-06
9.62835974232e-06
1.00443058074e-05
9.71331020441e-06
1.16380713801e-05
7.17946082338e-06
7.21602809411e-06
7.84309703773e-06
5.62647151212e-06
9.00101630093e-06
5.26914977863e-06
1.88501386628e-06
4.74069513652e-06
1.46488472902e-06
1.12550522389e-06
1.69303986567e-06
2.8109036906e-07
1.16034826491e-05
2.8565195645e-06
1.28026364704e-05
7.0201890997e-06
1.03487514895e-05
5.24623344117e-06
7.31970877804e-08
3.36242832653e-06
4.3519806931e-06
3.39263369782e-06
1.24351548036e-05
2.0897400273e-07
3.82913398914e-08
4.9868318981e-06
7.61058919101e-07
1.15490209738e-06
4.69245846846e-06
1.07392155924e-06
4.95331705822e-06
1.92327086779e-06
7.22397148424e-07
2.56639380564e-06
6.31469963784e-06
1.61427806148e-06
1.25803794542e-06
4.08422385179e-07
4.17833960566e-06
4.92726838236e-06
7.97123925308e-07
4.97147158036e-06
4.25386338912e-05
1.66275451686e-05
8.03589089712e-06
5.66467767404e-06
1.68176204914e-05
2.06009344067e-06
1.63706206891e-06
1.41203850329e-05
9.29187850842e-06
4.81419642834e-06
6.66945951319e-06
1.31608367085e-06
1.8495361357e-06
4.44663758446e-07
2.09218359114e-06
3.0360082999e-06
1.94208063789e-06
1.57857514386e-07
3.35738329765e-06
3.99963241986e-06
7.14585936218e-06
1.12201348202e-06
3.99708137997e-06
6.49576172601e-06
6.55137497173e-06
7.93720610533e-06
3.71644055203e-08
6.24268762006e-06
8.02691585582e-06
6.18802706059e-06
9.92778796507e-06
1.11618064224e-05
1.42156250666e-05
3.98598563336e-06
1.58219831239e-05
1.14179277029e-05
8.57325934691e-06
1.02398510252e-05
1.17861004533e-05
9.62114429858e-06
9.65915161156e-06
9.35645817181e-06
4.39113101152e-06
2.37380657798e-06
8.90976331633e-06
6.81215033775e-06
5.90324175164e-05
2.78172488217e-05
1.54578813705e-05
2.38034711707e-06
4.02213377524e-06
5.25535249849e-06
3.71572088405e-05
5.13926745595e-05
2.16468652949e-05
1.64990343109e-05
2.99168469517e-05
3.73579357472e-05
3.31509419403e-05
3.40198546552e-05
5.57923656739e-05
4.68831080048e-05
3.77385541187e-05
3.36649654741e-05
1.85926725679e-05
2.93438798357e-06
1.00053703836e-05
1.51744765431e-05
1.46611103324e-05
3.94908130652e-05
2.20915593152e-05
1.09233281387e-05
3.15364726432e-05
2.38531971446e-05
4.80452055549e-06
1.70243377138e-06
1.15567868926e-06
2.14684597681e-06
2.81211424144e-06
9.10241541735e-06
1.61713175032e-06
5.40657027525e-06
5.95406255014e-06
8.72530970606e-07
1.39370405522e-06
6.58567322996e-06
7.04047495255e-06
6.650264647e-06
2.1713177452e-06
6.15746744537e-06
6.50254483777e-06
5.08438476544e-06
5.5598291103e-06
6.60029799892e-06
1.07806444515e-06
2.52842979995e-06
7.23913087938e-08
2.35777910948e-06
1.48368587188e-06
3.69128835702e-06
5.31344603664e-06
3.6957801545e-06
7.28073668286e-07
2.18861407294e-06
9.27143715e-07
3.35884170457e-06
1.57083938855e-05
9.15223316599e-06
8.29884227936e-09
2.94263755146e-06
1.52992738067e-06
4.84725831935e-06
3.70968624593e-06
2.99209663427e-07
2.22897965521e-05
7.05786330195e-06
1.00126773028e-06
7.27708415031e-06
1.55485792718e-06
5.93376053119e-07
1.06426591869e-06
1.68011696924e-06
1.26785617588e-06
6.71949371404e-07
5.33060973193e-07
8.87371223536e-07
1.84671922222e-07
4.9180607322e-07
6.59751669101e-07
4.78839013244e-07
3.2161556098e-07
4.96668858762e-07
5.1382504545e-06
5.86973413004e-07
3.54557101861e-07
1.65565664232e-07
1.43368241404e-07
3.74855781789e-06
5.63504022724e-06
5.31241856491e-06
6.91141126605e-06
1.82182219076e-06
1.8617274877e-06
2.82650320337e-06
9.5782357459e-06
5.21486751347e-07
6.93216191106e-06
5.9330084361e-06
9.52707719349e-06
3.59456035479e-06
1.09732525574e-05
4.29545033355e-06
3.30612616271e-06
8.1262329223e-06
4.35538641633e-06
1.66822782762e-06
2.93913715687e-06
4.78061432895e-06
4.96381183377e-06
8.77120216924e-06
1.82617084793e-05
2.29851768876e-05
3.69063195353e-06
6.05360392968e-06
2.39758409285e-06
3.12310748575e-06
1.49230444636e-06
1.01780621659e-05
8.14158473206e-06
2.38097049022e-06
4.31064512068e-07
4.02321411185e-07
2.8743031843e-06
1.14699375693e-06
1.53600675334e-05
2.22476997565e-05
2.16363472501e-05
3.9987787897e-05
8.43184509601e-05
5.66668216778e-05
1.98019554105e-06
9.25730407349e-06
4.22120321297e-06
1.11369851471e-06
4.52644157878e-06
3.08997041156e-07
6.33177641918e-06
2.54085559259e-06
2.4002195876e-06
3.50753000651e-06
6.71880222649e-07
6.72895586651e-08
3.42322830471e-06
5.03103415267e-07
4.79404223106e-06
1.33822284171e-06
1.26726101159e-06
6.85407129893e-06
5.17278481702e-06
4.67480552541e-06
3.49771021412e-06
4.86964935745e-06
3.47406450682e-06
6.76622340843e-06
6.45039784014e-06
9.98396362372e-06
6.71794625628e-06
1.39517930849e-05
1.16474593885e-05
1.71104835136e-05
5.3470066291e-06
1.89318192126e-05
2.15140981548e-05
5.17272335432e-05
9.83071046595e-06
5.67359730873e-06
5.22691594885e-06
2.39271257274e-05
8.87221469545e-05
1.48014228143e-05
4.26264815713e-05
5.4667166738e-06
2.67101331672e-06
2.06602099935e-06
5.78841431557e-06
3.21234177491e-06
1.05248557116e-05
6.7402454952e-06
8.05195792198e-06
5.86381971403e-07
1.46262116139e-06
4.9270003852e-06
9.08413031669e-06
2.53240567609e-05
7.29171114246e-06
6.1766953068e-06
4.15186804254e-06
6.42979090034e-06
6.70245161056e-06
6.87520245937e-06
5.1948501497e-06
5.51996105509e-06
4.17985863586e-06
6.18832360015e-06
3.92526284934e-08
1.07048925622e-06
7.34846425341e-08
6.96457805221e-07
5.07806886172e-06
4.61233531231e-06
6.10726060257e-06
6.407190415e-06
7.56801315101e-06
1.54053229946e-06
1.20503786864e-06
2.36666647438e-06
1.17803223103e-06
6.90718199881e-07
7.09936089049e-06
2.08033615345e-06
3.24088093141e-06
2.20685099801e-06
4.66331551822e-06
2.69654373829e-06
2.12387793534e-07
2.24676413434e-06
3.25592660227e-07
2.01076563153e-08
1.41263767379e-06
1.6358156238e-08
7.64280502655e-07
4.69661045387e-07
2.13349561673e-07
2.83376498288e-08
7.40754977169e-07
6.46670685304e-07
2.72222942247e-08
2.13145936951e-06
1.52902338346e-06
6.41075977696e-07
2.82185134232e-09
1.17904420955e-06
2.00837334826e-07
3.63067450698e-08
2.79333595636e-08
5.89963396488e-07
9.26879941907e-07
2.06178837334e-08
6.99692298138e-07
4.86694774333e-08
7.25789974398e-07
1.1085550256e-06
7.00917767747e-07
1.20025212929e-06
6.34388660425e-07
9.21191570785e-07
4.00691305672e-07
1.62411612002e-06
5.99055080732e-07
4.37041633365e-07
8.50549444526e-07
8.6662075549e-07
5.79907230325e-07
2.89314798049e-07
1.94369064595e-07
9.42764991184e-07
1.1237487399e-06
5.01408592042e-07
2.32148006773e-07
2.29699450007e-07
2.19945480083e-07
2.63109265244e-07
2.82476749459e-07
1.35710238552e-06
1.51936510585e-06
1.29356383824e-06
3.33610735283e-07
1.32665977186e-06
1.32197135981e-06
1.44042787918e-06
2.9196684339e-06
4.18846143315e-06
2.4572842577e-06
4.20479688313e-06
5.68836130892e-07
3.64523739987e-06
3.50632228946e-06
9.32704039568e-07
1.072066162e-06
2.71689365679e-06
7.40798161742e-07
5.45470099808e-07
3.27740789374e-06
1.48336863134e-06
1.47219354453e-06
2.73113308233e-06
4.46010235111e-07
2.77829750787e-06
1.60697680669e-06
1.19344704602e-06
1.14725973338e-06
1.42321712401e-06
1.65209103067e-06
1.3495015071e-06
6.92583372888e-07
1.14946314746e-06
2.39577185016e-07
7.14077120409e-07
2.9477144388e-07
3.31379925577e-07
1.92018861494e-06
3.39562549433e-06
1.47448710403e-06
1.88684860028e-06
1.96684753338e-06
2.41503795921e-06
7.69266118078e-07
6.76797155656e-07
1.67501384325e-06
2.07712882887e-06
8.26834928572e-07
7.34025496716e-07
3.06939888184e-07
1.43973106698e-06
3.20635307572e-07
2.18203643451e-07
1.34790379307e-06
1.71978254503e-06
8.06890756427e-07
5.96126036369e-07
1.14344854156e-06
7.2097115497e-07
7.31832356487e-07
5.16212151567e-07
8.5074755008e-07
1.16203861102e-06
2.77989641081e-07
4.51938228708e-07
1.41601513532e-06
1.06064279554e-06
1.10907599403e-06
9.56772077028e-07
2.08767587872e-06
3.747342185e-06
2.84235603081e-06
1.65838682906e-06
5.70242503511e-07
3.40319111199e-06
1.60194871228e-06
3.30357330361e-06
2.38204242011e-06
4.57348635708e-06
2.71665462352e-06
2.30603849194e-06
5.54669909929e-06
9.61900413046e-06
6.330502033e-06
4.2237155376e-06
6.39361059186e-06
1.18884809017e-05
7.5992977316e-06
5.84443037739e-06
7.82320516184e-06
1.43209489396e-05
7.75120692925e-06
8.04638285912e-06
4.72054949176e-06
1.10420783796e-05
8.17839766529e-06
5.23192091665e-06
2.90940980101e-06
8.3977451457e-06
3.9367005724e-06
8.37062737165e-06
9.10203896076e-06
1.64017010094e-05
9.64048660195e-06
9.41498411894e-06
5.60890013014e-06
1.22709812611e-05
8.53558249631e-06
9.97863288445e-06
8.36218758694e-06
1.59573669629e-05
1.03431027728e-05
8.26381901977e-06
3.90207029828e-06
1.04843716967e-05
9.17544413566e-06
4.53219443092e-06
8.54419117909e-06
1.23400411684e-05
5.91840922916e-06
6.40242500342e-06
7.68091549224e-06
1.18042456224e-05
6.01426735532e-06
6.24286601905e-06
2.26100206413e-06
6.39187232826e-06
5.74487286437e-06
3.47710843204e-06
7.1042861123e-07
1.10983817712e-06
5.18918264455e-07
6.66167652372e-07
1.87633980114e-06
5.57059248908e-06
3.23497568471e-06
1.2367075649e-06
4.20324035045e-07
2.90782366739e-06
5.47181073578e-08
2.85676194941e-06
1.84090353536e-06
6.3203818298e-06
3.15402459487e-06
1.65362828636e-06
3.44956245698e-06
9.17919621919e-06
7.70361419659e-06
3.79870488552e-06
6.84498088902e-06
1.0505568855e-05
6.16230682061e-06
5.56146958255e-06
6.01122757215e-06
7.4214453174e-06
2.93134473303e-06
4.54558849451e-06
4.50398926909e-06
8.09872939723e-06
5.34055657132e-06
1.64447190927e-06
2.55516955605e-06
7.39137011688e-06
2.33589849276e-06
7.1535980221e-06
5.06360834514e-06
1.15967613255e-05
8.73942633577e-06
7.46240929868e-06
2.27673885405e-06
7.4022925184e-06
3.22374123897e-06
8.61453337481e-06
6.8888032515e-06
1.11703065984e-05
8.94656370051e-06
4.75058095154e-06
1.69074471135e-06
6.67182715844e-06
2.92128254418e-06
4.90719832609e-06
5.88584800193e-06
7.52084416994e-06
5.18780025701e-06
3.04818663566e-06
5.01205572596e-07
5.7086482837e-06
8.48539968133e-06
5.51206854197e-06
1.11010072124e-06
6.14805231546e-06
2.87097530774e-06
6.21890764396e-06
8.7217961842e-06
5.98893180724e-06
3.12684796219e-06
4.2655859069e-07
1.94958431552e-06
4.52346486969e-07
3.73120607103e-06
3.35132638932e-06
4.3457753779e-06
1.56404136682e-06
3.92933561931e-06
3.29531294943e-06
5.05014321525e-06
4.17526316696e-06
1.96814571516e-06
1.43628567343e-06
2.30316576965e-06
3.36922488065e-06
2.70086130942e-06
9.97845193781e-07
1.52629872355e-06
4.78527793266e-06
2.86839802839e-06
8.96676985954e-06
8.62225486899e-07
1.70880593647e-06
5.82363007388e-06
4.4787893517e-07
7.83955814414e-07
3.71541520232e-06
1.76048537711e-06
2.67869454523e-07
1.9714034411e-06
5.12510541711e-06
9.6492392445e-07
3.39883651548e-06
4.70990357328e-06
5.75691966747e-06
8.99834920184e-07
2.11025313254e-06
3.33461307216e-06
6.5474653506e-06
3.03703459274e-06
1.53865404944e-06
1.59043369464e-06
1.97619679929e-06
1.31454125704e-06
1.5834917302e-06
2.64125123875e-06
2.2793030594e-06
4.97489109433e-08
2.72449334508e-07
2.81839506092e-06
2.70261636423e-06
2.12323827123e-06
1.84419214178e-06
3.00224458264e-06
4.39021596887e-06
7.30319725744e-06
5.21212038714e-06
3.08696488644e-06
4.85120575532e-06
4.50249439904e-07
3.0415537682e-06
7.51736962726e-06
5.07041230014e-06
3.25119788425e-06
1.06266818842e-06
9.63571928685e-07
2.00285637354e-06
1.46021229424e-06
3.16675267632e-07
2.34238153881e-06
9.95012473627e-07
2.08219487738e-06
7.30103144269e-07
4.03219817148e-06
2.07490578312e-06
9.03640420111e-07
2.4903687364e-06
3.88449524293e-06
3.86865810241e-06
4.26093992032e-06
1.41096963519e-06
2.39931925076e-06
5.07850909074e-07
5.48297136496e-06
3.27513965472e-06
5.84380759157e-07
7.5339210543e-06
2.05700824256e-06
5.78809262593e-06
4.25182701887e-07
7.6208099092e-06
3.75253904602e-06
6.55181638189e-07
3.00437089928e-06
6.00253454547e-07
6.84277295758e-07
2.67377590426e-06
1.90436113652e-06
2.14840121355e-06
2.85114106551e-06
2.977851084e-06
2.33551173118e-06
2.74748101127e-06
2.9800385532e-06
3.01040152128e-06
3.37114795137e-06
2.7158279191e-06
2.94762229157e-06
4.63727797388e-06
1.53005215404e-06
2.52405265343e-06
1.13162465018e-06
1.43165915169e-06
2.70585549502e-06
2.65571384638e-06
5.84409315675e-06
5.82265917069e-06
3.37975165756e-06
3.87872449265e-06
4.73598667039e-06
3.73727574313e-06
4.8084817942e-06
4.20205872547e-06
4.21405111744e-06
4.82455626408e-06
3.88514000978e-06
4.04075667223e-06
4.86308126454e-06
3.70273470822e-06
4.41805887405e-06
1.60175857377e-06
8.82770322204e-06
2.97036794476e-06
4.32589805659e-06
4.9043855745e-06
4.92096556556e-06
4.92059485285e-06
5.13783465265e-06
4.67890270744e-06
5.59477083012e-06
5.52762425096e-06
4.94747417378e-06
4.44487960371e-06
4.26913472376e-06
5.19411837866e-06
5.42785803897e-06
5.95108463721e-06
5.83776057555e-06
5.99898696974e-06
1.78072379039e-06
6.3250060028e-07
2.09586914746e-06
3.50597049219e-06
5.21334853268e-06
4.65852964157e-06
4.48359411348e-06
4.64960403098e-06
5.06951077309e-06
4.74225895684e-06
4.60370504936e-06
4.19817794172e-06
4.45978699921e-06
3.60816143257e-06
4.19027323058e-06
4.33605982941e-06
4.39218776165e-06
3.55005436195e-06
4.33944874714e-06
3.84044966001e-06
4.5802581833e-06
4.1286269042e-06
4.03111946608e-06
3.95796902096e-06
9.23394335405e-06
5.75793181484e-06
6.14603211296e-06
7.2952212737e-06
5.00653343931e-06
5.39218259032e-06
3.85594857193e-06
3.35531457917e-06
3.11713887472e-06
3.41965434361e-06
5.98597841408e-06
5.43617782449e-06
5.57954657625e-06
4.81036360343e-06
4.97194997144e-06
4.74439746201e-06
4.56387364664e-06
4.34590501228e-06
7.67164308078e-06
4.38620864167e-06
3.97504917888e-07
5.18912396811e-07
6.76110649323e-08
3.76235726081e-06
3.5439917773e-06
1.85964592824e-07
2.03257874959e-07
2.94406398021e-06
3.76327426329e-06
2.72869669893e-07
4.91210965346e-07
3.24207279841e-07
8.3804049135e-07
9.95369578198e-07
6.27436286526e-07
6.5482392949e-07
1.99363607253e-05
1.99501223697e-06
2.51512130244e-07
3.17666803312e-07
7.24881727434e-08
9.11854420137e-08
5.30119570118e-08
9.15323960027e-08
2.82934323933e-07
1.08628269051e-07
2.1705951693e-08
2.82314182066e-07
8.11692128003e-07
6.15523752601e-08
2.00237907247e-07
2.21561698641e-08
3.38144274008e-07
3.23385887908e-07
8.13060663246e-07
2.75214876658e-07
4.22039376265e-08
9.44549708832e-08
1.13021200689e-08
1.71737815437e-07
1.08161140334e-07
1.31410526169e-07
1.45433462438e-06
3.3431258701e-06
6.85839382389e-06
1.83242616541e-06
1.51046180501e-07
1.64971022428e-06
2.1882429937e-06
3.84572864743e-06
8.07218378977e-07
1.28599549498e-06
1.85301369019e-06
1.67688119019e-06
5.19949617006e-06
8.98825578248e-06
5.7672658777e-06
5.2940044012e-06
2.35201534445e-06
5.32146939577e-06
2.52835757781e-06
5.78473440099e-06
4.72155272601e-06
9.00564669307e-06
6.38309324366e-06
8.19878260729e-06
6.90843135826e-06
8.06000326232e-06
5.31484572712e-06
3.67569937186e-06
6.17016254971e-06
1.11764205184e-05
7.19114733546e-06
6.24219420085e-06
5.48179626361e-06
1.03326154561e-05
9.17516749681e-06
7.18340737884e-06
8.14207891752e-06
1.57104680085e-05
9.02133494113e-06
9.05898789811e-06
3.32504269822e-06
2.29178581833e-06
1.47374929562e-06
2.72843370152e-06
2.71057425033e-06
9.65087500635e-06
1.08319986865e-06
9.42713156585e-07
2.94526851331e-06
7.68003663575e-07
4.34354027432e-06
1.9393428531e-06
2.7190575983e-06
1.16466027513e-06
2.62453743445e-06
3.76256623319e-06
3.07472531717e-06
3.29763951108e-06
5.05165439065e-06
6.33068321062e-06
6.26592385887e-06
4.40472875446e-06
6.19415285627e-06
6.18289254859e-06
6.03214858076e-06
7.04585292779e-06
6.90994563512e-06
8.00810476609e-06
7.01070229107e-06
7.30002234963e-06
1.00539330367e-05
9.42413278723e-06
5.20694872394e-06
2.16904563059e-07
8.0320364579e-06
4.32049971195e-06
8.37792719794e-06
6.54896686073e-06
8.72931114857e-07
2.14354530043e-06
2.0560372853e-06
5.59885475541e-06
2.30716604589e-06
3.60791633493e-07
2.24415768838e-06
4.47309938791e-06
8.34088658681e-07
1.24246217111e-06
2.38748089333e-06
6.05278039566e-07
3.22444620121e-06
4.75503079358e-06
6.00686625341e-06
4.44338406591e-06
1.12611559035e-05
8.98150896788e-06
1.32750116838e-05
9.45695792445e-06
5.89308240603e-07
6.68062377634e-07
1.65778483482e-06
1.88679122856e-06
3.30773856504e-06
1.824153359e-06
3.74031981134e-07
1.58042887533e-06
4.9472261715e-06
1.82315461671e-06
7.68659318092e-08
3.7292326121e-06
3.03599377645e-06
9.78288227491e-06
8.4553856714e-06
9.42648234701e-06