# vtk DataFile Version 3.0
File Name: Molecule/sphere_dip_sim/sphere_dip_sim_0-s3.vtk
ASCII
DATASET UNSTRUCTURED_GRID
FIELD FieldData 1
TIME 1 1 double
0.0
POINTS 250 double
-0.809016994375 -0.309016994375 -0.5
-0.850650808352 -0.525731112119 0.0
-1.0 0.0 0.0
-0.5 -0.809016994375 -0.309016994375
-0.5 -0.809016994375 0.309016994375
0.26286555606 0.951056516295 -0.162459848116
0.26286555606 0.951056516295 0.162459848116
0.525731112119 0.850650808352 0.0
0.0 1.0 0.0
0.5 0.809016994375 0.309016994375
0.0 0.850650808352 -0.525731112119
0.259891913008 0.862668480416 0.433888564553
0.0 0.961938357784 0.273266528913
0.0 0.850650808352 0.525731112119
-0.259891913008 0.862668480416 0.433888564553
-0.26286555606 0.951056516295 0.162459848116
-0.26286555606 0.951056516295 -0.162459848116
-0.5 0.809016994375 -0.309016994375
-0.16062203564 0.702046444776 0.69378047756
-0.425325404176 0.688190960236 0.587785252292
0.16062203564 0.702046444776 0.69378047756
0.0 0.525731112119 0.850650808352
-0.309016994375 0.5 0.809016994375
0.309016994375 0.5 0.809016994375
-0.162459848116 0.26286555606 0.951056516295
0.162459848116 0.26286555606 0.951056516295
0.433888564553 0.259891913008 0.862668480416
0.273266528913 0.0 0.961938357784
0.525731112119 0.0 0.850650808352
-0.525731112119 0.0 0.850650808352
-0.433888564553 -0.259891913008 0.862668480416
-0.273266528913 0.0 0.961938357784
0.433888564553 -0.259891913008 0.862668480416
0.69378047756 -0.16062203564 0.702046444776
0.587785252292 -0.425325404176 0.688190960236
0.809016994375 -0.309016994375 0.5
0.309016994375 -0.5 0.809016994375
0.425325404176 -0.688190960236 0.587785252292
0.688190960236 -0.587785252292 0.425325404176
0.5 -0.809016994375 0.309016994375
0.0 -0.850650808352 0.525731112119
0.951056516295 0.162459848116 0.26286555606
0.809016994375 0.309016994375 0.5
0.850650808352 0.0 0.525731112119
0.69378047756 0.16062203564 0.702046444776
0.688190960236 0.587785252292 0.425325404176
0.850650808352 0.525731112119 0.0
0.425325404176 0.688190960236 0.587785252292
0.587785252292 0.425325404176 0.688190960236
-0.433888564553 0.259891913008 -0.862668480416
-0.525731112119 0.0 -0.850650808352
-0.809016994375 0.309016994375 -0.5
-0.162459848116 0.26286555606 -0.951056516295
-0.309016994375 0.5 -0.809016994375
0.0 0.525731112119 -0.850650808352
0.809016994375 -0.309016994375 -0.5
0.850650808352 0.0 -0.525731112119
0.951056516295 -0.162459848116 -0.26286555606
0.951056516295 0.162459848116 -0.26286555606
0.809016994375 0.309016994375 -0.5
1.0 0.0 0.0
0.69378047756 -0.16062203564 -0.702046444776
0.69378047756 0.16062203564 -0.702046444776
0.525731112119 0.0 -0.850650808352
0.961938357784 0.273266528913 0.0
0.862668480416 0.433888564553 -0.259891913008
0.702046444776 0.69378047756 -0.16062203564
0.688190960236 0.587785252292 -0.425325404176
0.5 0.809016994375 -0.309016994375
0.587785252292 0.425325404176 -0.688190960236
0.425325404176 0.688190960236 -0.587785252292
0.309016994375 0.5 -0.809016994375
0.433888564553 0.259891913008 -0.862668480416
0.259891913008 0.862668480416 -0.433888564553
0.16062203564 0.702046444776 -0.69378047756
-0.69378047756 -0.16062203564 -0.702046444776
-0.951056516295 0.162459848116 -0.26286555606
-0.862668480416 0.433888564553 -0.259891913008
-0.961938357784 0.273266528913 0.0
-0.850650808352 0.525731112119 0.0
-0.425325404176 0.688190960236 -0.587785252292
-0.587785252292 0.425325404176 -0.688190960236
-0.688190960236 0.587785252292 -0.425325404176
-0.26286555606 -0.951056516295 -0.162459848116
0.0 -1.0 0.0
-0.259891913008 -0.862668480416 -0.433888564553
0.0 -0.961938357784 -0.273266528913
0.0 -0.850650808352 -0.525731112119
-0.259891913008 -0.862668480416 0.433888564553
-0.688190960236 -0.587785252292 0.425325404176
-0.809016994375 -0.309016994375 0.5
-0.425325404176 -0.688190960236 0.587785252292
-0.587785252292 -0.425325404176 0.688190960236
-0.309016994375 -0.5 0.809016994375
-0.16062203564 -0.702046444776 0.69378047756
-0.809016994375 0.309016994375 0.5
-0.951056516295 0.162459848116 0.26286555606
-0.850650808352 0.0 0.525731112119
-0.951056516295 -0.162459848116 0.26286555606
-0.309016994375 -0.5 -0.809016994375
-0.425325404176 -0.688190960236 -0.587785252292
-0.587785252292 -0.425325404176 -0.688190960236
-0.688190960236 -0.587785252292 -0.425325404176
-0.16062203564 -0.702046444776 -0.69378047756
0.259891913008 -0.862668480416 -0.433888564553
0.26286555606 -0.951056516295 -0.162459848116
0.5 -0.809016994375 -0.309016994375
0.525731112119 -0.850650808352 0.0
0.26286555606 -0.951056516295 0.162459848116
0.433888564553 -0.259891913008 -0.862668480416
0.587785252292 -0.425325404176 -0.688190960236
0.309016994375 -0.5 -0.809016994375
0.688190960236 -0.587785252292 -0.425325404176
0.425325404176 -0.688190960236 -0.587785252292
0.862668480416 -0.433888564553 -0.259891913008
0.702046444776 -0.69378047756 -0.16062203564
0.850650808352 -0.525731112119 0.0
0.16062203564 -0.702046444776 -0.69378047756
0.990438881957 -0.137952242128 0.0
0.917539630891 -0.301683612961 -0.259052163504
0.961938357784 -0.273266528913 0.0
0.915043421233 -0.403355348617 0.0
0.519258489728 0.840177885327 -0.15643446504
0.707106781187 0.707106781187 0.0
-0.386187385588 0.891006524188 0.238676930319
-0.5 0.809016994375 0.309016994375
-0.525731112119 0.850650808352 0.0
-0.399607051702 0.912982492932 0.0823235800317
-0.519258489728 0.840177885327 -0.15643446504
-0.519258489728 0.840177885327 0.15643446504
-0.606825149272 0.758652300163 0.237086325351
-0.620239582613 0.78020437071 0.08114185162
-0.702046444776 0.69378047756 0.16062203564
-0.620239582613 0.78020437071 -0.08114185162
-0.711281734962 0.702907030488 0.0
-0.702046444776 0.69378047756 -0.16062203564
-0.606825149272 0.758652300163 -0.237086325351
-0.78384304242 0.615642020874 0.0810862934433
-0.78384304242 0.615642020874 -0.0810862934433
-0.468429850867 0.757935420048 0.453990499739
-0.37174803446 0.601500955008 0.707106781186
-0.601500955008 0.707106781186 0.37174803446
-0.564254211766 0.646577791798 0.51337544123
-0.688190960236 0.587785252292 0.425325404176
-0.646577791798 0.51337544123 0.564254211766
-0.51337544123 0.564254211766 0.646577791798
-0.587785252292 0.425325404176 0.688190960236
-0.757935420048 0.453990499739 0.468429850867
-0.707106781186 0.37174803446 0.601500955008
-0.453990499739 0.468429850867 0.757935420048
-0.702309846744 0.647411893882 0.296004592578
-0.792649229259 0.571251659136 0.213022865649
-0.783451698363 0.516121620051 0.346153014789
-0.862668480416 0.433888564553 0.259891913008
-0.864929335863 0.484441642061 0.131200378813
-0.843911474622 0.375038567478 0.383613732685
-0.375038567478 0.383613732685 0.843911474622
-0.516121620051 0.346153014789 0.783451698363
-0.433888564553 0.259891913008 0.862668480416
-0.647411893882 0.296004592578 0.702309846744
-0.571251659136 0.213022865649 0.792649229259
-0.69378047756 0.16062203564 0.702046444776
-0.758652300163 0.237086325351 0.606825149272
-0.484441642061 0.131200378813 0.864929335863
-0.615642020874 0.0810862934433 0.78384304242
0.0 0.266404701135 0.963861263467
-0.0822424652791 0.133071104141 0.987688340595
0.0822424652791 0.133071104141 0.987688340595
0.0 0.0 1.0
-0.220117027473 0.132792476828 0.966392597402
-0.137952242128 0.0 0.990438881957
0.220117027473 0.132792476828 0.966392597402
0.137952242128 0.0 0.990438881957
-0.162459848116 -0.26286555606 0.951056516295
-0.220117027473 -0.132792476828 0.966392597402
-0.238676930319 -0.386187385588 0.891006524188
-0.0822424652791 -0.133071104141 0.987688340595
-0.15643446504 -0.519258489728 0.840177885327
-0.0823235800317 -0.399607051702 0.912982492932
0.0 -0.525731112119 0.850650808352
0.0823235800317 -0.399607051702 0.912982492932
0.0 -0.266404701135 0.963861263467
0.162459848116 -0.26286555606 0.951056516295
0.15643446504 -0.519258489728 0.840177885327
0.238676930319 -0.386187385588 0.891006524188
0.0822424652791 -0.133071104141 0.987688340595
0.16062203564 -0.702046444776 0.69378047756
0.0 -0.707106781187 0.707106781187
0.220117027473 -0.132792476828 0.966392597402
0.301258879093 -0.264082750659 0.916244175191
0.358228793487 -0.131655371352 0.924304600611
0.375038567478 -0.383613732685 0.843911474622
0.601500955008 -0.707106781186 0.37174803446
0.757935420048 -0.453990499739 0.468429850867
0.843911474622 -0.375038567478 0.383613732685
0.783451698363 -0.516121620051 0.346153014789
0.862668480416 -0.433888564553 0.259891913008
0.702309846744 -0.647411893882 0.296004592578
0.792649229259 -0.571251659136 0.213022865649
0.702046444776 -0.69378047756 0.16062203564
0.606825149272 -0.758652300163 0.237086325351
0.864929335863 -0.484441642061 0.131200378813
0.78384304242 -0.615642020874 0.0810862934433
0.238676930319 -0.386187385588 -0.891006524188
0.353553390593 -0.135045378369 -0.925614793411
0.162459848116 -0.26286555606 -0.951056516295
0.273266528913 0.0 -0.961938357784
0.0822424652791 -0.133071104141 -0.987688340595
0.0 0.0 -1.0
0.15643446504 -0.519258489728 -0.840177885327
0.0823235800317 -0.399607051702 -0.912982492932
0.0 -0.525731112119 -0.850650808352
-0.0823235800317 -0.399607051702 -0.912982492932
0.0 -0.266404701135 -0.963861263467
-0.162459848116 -0.26286555606 -0.951056516295
-0.15643446504 -0.519258489728 -0.840177885327
-0.238676930319 -0.386187385588 -0.891006524188
-0.0822424652791 -0.133071104141 -0.987688340595
0.0 -0.707106781187 -0.707106781187
-0.137952242128 0.0 -0.990438881957
-0.220117027473 -0.132792476828 -0.966392597402
-0.273266528913 0.0 -0.961938357784
-0.301258879093 -0.264082750659 -0.916244175191
-0.358228793487 -0.131655371352 -0.924304600611
-0.433888564553 -0.259891913008 -0.862668480416
-0.375038567478 -0.383613732685 -0.843911474622
-0.403355348617 0.0 -0.915043421233
-0.484441642061 -0.131200378813 -0.864929335863
0.924304600611 -0.358228793487 0.131655371352
0.966392597402 -0.220117027473 0.132792476828
0.916244175191 -0.301258879093 0.264082750659
0.951056516295 -0.162459848116 0.26286555606
0.987688340595 -0.0822424652791 0.133071104141
0.891006524188 -0.238676930319 0.386187385588
0.987688340595 0.0822424652791 0.133071104141
0.963861263467 0.0 0.266404701135
0.925614793411 0.353553390593 0.135045378369
-0.782888506207 0.519553709322 -0.342271135182
-0.69378047756 -0.16062203564 0.702046444776
-0.778605872826 -0.0768840702267 0.622785464303
-0.965056599484 0.224799542734 0.134651124684
-0.643954748142 -0.294754166588 -0.70600443598
0.622785464303 -0.778605872826 -0.0768840702267
0.0822424652791 0.133071104141 -0.987688340595
0.353553390593 0.135045378369 -0.925614793411
0.162459848116 0.26286555606 -0.951056516295
0.238676930319 0.386187385588 -0.891006524188
-0.0822424652791 0.133071104141 -0.987688340595
0.0 0.266404701135 -0.963861263467
-0.220117027473 0.132792476828 -0.966392597402

CELLS 496 1984
3 0 1 2
3 1 3 4
3 5 6 7
3 5 8 6
3 7 6 9
3 8 5 10
3 9 6 11
3 6 12 11
3 6 8 12
3 11 12 13
3 13 12 14
3 12 15 14
3 12 8 15
3 8 16 15
3 17 16 10
3 8 16 10
3 13 14 18
3 14 19 18
3 13 18 20
3 18 21 20
3 18 22 21
3 20 21 23
3 22 24 21
3 21 25 23
3 23 25 26
3 26 27 28
3 29 30 31
3 28 32 33
3 32 34 33
3 33 34 35
3 36 37 34
3 37 38 34
3 39 37 40
3 41 42 43
3 35 43 33
3 43 44 33
3 43 42 44
3 33 44 28
3 9 45 46
3 46 45 42
3 9 47 45
3 47 48 45
3 47 23 48
3 45 48 42
3 9 11 47
3 11 20 47
3 11 13 20
3 47 20 23
3 42 48 44
3 48 26 44
3 48 23 26
3 44 26 28
3 49 50 51
3 52 53 54
3 52 49 53
3 54 53 10
3 55 56 57
3 56 58 57
3 56 59 58
3 57 58 60
3 55 61 56
3 61 62 56
3 61 63 62
3 56 62 59
3 60 58 64
3 58 65 64
3 58 59 65
3 64 65 46
3 46 65 66
3 65 67 66
3 65 59 67
3 66 67 68
3 59 69 67
3 69 70 67
3 69 71 70
3 67 70 68
3 59 62 69
3 62 72 69
3 62 63 72
3 69 72 71
3 68 70 73
3 70 74 73
3 70 71 74
3 73 74 10
3 50 75 51
3 75 0 51
3 2 76 0
3 0 76 51
3 51 76 77
3 76 78 77
3 76 2 78
3 77 78 79
3 53 80 10
3 10 80 17
3 53 81 80
3 81 82 80
3 81 51 82
3 80 82 17
3 3 83 4
3 83 84 4
3 3 85 83
3 85 86 83
3 85 87 86
3 83 86 84
3 40 88 84
3 4 88 84
3 4 89 1
3 1 89 90
3 4 91 89
3 91 92 89
3 91 93 92
3 89 92 90
3 4 88 91
3 88 94 91
3 88 40 94
3 91 94 93
3 95 96 97
3 96 98 97
3 96 2 98
3 97 98 90
3 90 98 1
3 98 2 1
3 99 100 101
3 100 102 101
3 100 3 102
3 101 102 0
3 99 103 100
3 103 85 100
3 103 87 85
3 100 85 3
3 0 102 1
3 102 3 1
3 87 104 86
3 104 105 86
3 104 106 105
3 86 105 84
3 106 107 105
3 107 108 105
3 107 39 108
3 105 108 84
3 84 108 40
3 108 39 40
3 63 61 109
3 61 110 109
3 61 55 110
3 109 110 111
3 55 112 110
3 112 113 110
3 112 106 113
3 110 113 111
3 55 114 112
3 114 115 112
3 114 116 115
3 112 115 106
3 111 113 117
3 113 104 117
3 113 106 104
3 117 104 87
3 60 118 57
3 118 119 57
3 118 120 119
3 57 119 55
3 116 121 114
3 121 119 114
3 121 120 119
3 114 119 55
3 68 122 66
3 122 123 66
3 122 7 123
3 66 123 46
3 46 123 9
3 123 7 9
3 7 122 5
3 68 122 5
3 10 73 5
3 68 73 5
3 15 124 14
3 14 124 125
3 126 127 16
3 16 127 15
3 17 128 16
3 16 128 126
3 15 127 124
3 127 129 124
3 127 126 129
3 124 129 125
3 125 129 130
3 129 131 130
3 129 126 131
3 130 131 132
3 126 133 131
3 133 134 131
3 133 135 134
3 131 134 132
3 126 128 133
3 128 136 133
3 128 17 136
3 133 136 135
3 132 134 137
3 134 138 137
3 134 135 138
3 137 138 79
3 125 139 14
3 14 139 19
3 19 140 18
3 18 140 22
3 125 141 139
3 141 142 139
3 141 143 142
3 139 142 19
3 143 144 142
3 144 145 142
3 144 146 145
3 142 145 19
3 143 147 144
3 147 148 144
3 147 95 148
3 144 148 146
3 19 145 140
3 145 149 140
3 145 146 149
3 140 149 22
3 125 130 141
3 130 150 141
3 130 132 150
3 141 150 143
3 132 151 150
3 151 152 150
3 151 153 152
3 150 152 143
3 132 137 151
3 137 154 151
3 137 79 154
3 151 154 153
3 143 152 147
3 152 155 147
3 152 153 155
3 147 155 95
3 22 149 156
3 149 157 156
3 149 146 157
3 156 157 158
3 146 159 157
3 159 160 157
3 159 161 160
3 157 160 158
3 146 148 159
3 148 162 159
3 148 95 162
3 159 162 161
3 158 160 163
3 160 164 163
3 160 161 164
3 163 164 29
3 24 165 21
3 165 25 21
3 24 166 165
3 166 167 165
3 166 168 167
3 165 167 25
3 22 156 24
3 156 158 24
3 31 169 158
3 158 169 24
3 158 163 31
3 163 29 31
3 24 169 166
3 169 170 166
3 169 31 170
3 166 170 168
3 25 171 26
3 171 27 26
3 25 167 171
3 167 172 171
3 167 168 172
3 171 172 27
3 173 174 30
3 30 174 31
3 93 175 30
3 30 175 173
3 31 174 170
3 174 176 170
3 174 173 176
3 170 176 168
3 93 177 175
3 177 178 175
3 177 179 178
3 175 178 173
3 179 180 178
3 180 181 178
3 180 182 181
3 178 181 173
3 179 183 180
3 183 184 180
3 183 36 184
3 180 184 182
3 173 181 176
3 181 185 176
3 181 182 185
3 176 185 168
3 36 183 186
3 183 187 186
3 183 179 187
3 186 187 40
3 93 177 94
3 177 187 94
3 177 179 187
3 94 187 40
3 168 185 172
3 185 188 172
3 185 182 188
3 172 188 27
3 182 189 188
3 189 190 188
3 189 32 190
3 188 190 27
3 182 184 189
3 184 191 189
3 184 36 191
3 189 191 32
3 27 190 28
3 190 32 28
3 32 191 34
3 191 36 34
3 39 192 37
3 37 192 38
3 38 193 34
3 34 193 35
3 40 186 37
3 36 186 37
3 35 193 194
3 193 195 194
3 193 38 195
3 194 195 196
3 38 197 195
3 197 198 195
3 197 199 198
3 195 198 196
3 38 192 197
3 192 200 197
3 192 39 200
3 197 200 199
3 196 198 201
3 198 202 201
3 198 199 202
3 201 202 116
3 111 203 109
3 203 204 109
3 203 205 204
3 109 204 63
3 63 204 206
3 204 207 206
3 204 205 207
3 206 207 208
3 111 209 203
3 209 210 203
3 209 211 210
3 203 210 205
3 211 212 210
3 212 213 210
3 212 214 213
3 210 213 205
3 211 215 212
3 215 216 212
3 215 99 216
3 212 216 214
3 205 213 207
3 213 217 207
3 213 214 217
3 207 217 208
3 99 215 103
3 215 218 103
3 215 211 218
3 103 218 87
3 111 209 117
3 209 218 117
3 209 211 218
3 117 218 87
3 208 217 219
3 217 220 219
3 217 214 220
3 219 220 221
3 214 222 220
3 222 223 220
3 222 224 223
3 220 223 221
3 214 216 222
3 216 225 222
3 216 99 225
3 222 225 224
3 221 223 226
3 223 227 226
3 223 224 227
3 226 227 50
3 116 121 201
3 121 228 201
3 121 120 228
3 201 228 196
3 120 229 228
3 229 230 228
3 229 231 230
3 228 230 196
3 120 118 229
3 118 232 229
3 118 60 232
3 229 232 231
3 196 230 194
3 230 233 194
3 230 231 233
3 194 233 35
3 60 234 232
3 234 235 232
3 234 41 235
3 232 235 231
3 231 235 43
3 41 235 43
3 35 233 43
3 231 233 43
3 41 236 42
3 42 236 46
3 60 234 64
3 234 236 64
3 234 41 236
3 64 236 46
3 51 81 49
3 53 81 49
3 79 138 77
3 138 237 77
3 138 135 237
3 77 237 51
3 17 136 82
3 136 237 82
3 136 135 237
3 82 237 51
3 90 92 30
3 93 92 30
3 29 238 30
3 90 238 30
3 29 164 238
3 164 239 238
3 164 161 239
3 238 239 90
3 161 162 239
3 162 97 239
3 162 95 97
3 239 97 90
3 95 155 96
3 155 240 96
3 155 153 240
3 96 240 2
3 153 154 240
3 154 78 240
3 154 79 78
3 240 78 2
3 50 227 75
3 227 241 75
3 227 224 241
3 75 241 0
3 224 225 241
3 225 101 241
3 225 99 101
3 241 101 0
3 116 202 115
3 202 242 115
3 202 199 242
3 115 242 106
3 106 242 107
3 242 200 107
3 242 199 200
3 107 200 39
3 208 243 206
3 243 244 206
3 243 245 244
3 206 244 63
3 63 244 72
3 244 246 72
3 244 245 246
3 72 246 71
3 208 247 243
3 247 248 243
3 247 52 248
3 243 248 245
3 245 248 54
3 52 248 54
3 71 246 54
3 245 246 54
3 208 219 247
3 219 249 247
3 219 221 249
3 247 249 52
3 52 249 49
3 221 249 49
3 221 226 49
3 226 50 49
3 10 74 54
3 71 74 54

CELL_TYPES 496
5
5
5
5
5
5
5
5
5
5
5
5
5
5
5
5
5
5
5
5
5
5
5
5
5
5
5
5
5
5
5
5
5
5
5
5
5
5
5
5
5
5
5
5
5
5
5
5
5
5
5
5
5
5
5
5
5
5
5
5
5
5
5
5
5
5
5
5
5
5
5
5
5
5
5
5
5
5
5
5
5
5
5
5
5
5
5
5
5
5
5
5
5
5
5
5
5
5
5
5
5
5
5
5
5
5
5
5
5
5
5
5
5
5
5
5
5
5
5
5
5
5
5
5
5
5
5
5
5
5
5
5
5
5
5
5
5
5
5
5
5
5
5
5
5
5
5
5
5
5
5
5
5
5
5
5
5
5
5
5
5
5
5
5
5
5
5
5
5
5
5
5
5
5
5
5
5
5
5
5
5
5
5
5
5
5
5
5
5
5
5
5
5
5
5
5
5
5
5
5
5
5
5
5
5
5
5
5
5
5
5
5
5
5
5
5
5
5
5
5
5
5
5
5
5
5
5
5
5
5
5
5
5
5
5
5
5
5
5
5
5
5
5
5
5
5
5
5
5
5
5
5
5
5
5
5
5
5
5
5
5
5
5
5
5
5
5
5
5
5
5
5
5
5
5
5
5
5
5
5
5
5
5
5
5
5
5
5
5
5
5
5
5
5
5
5
5
5
5
5
5
5
5
5
5
5
5
5
5
5
5
5
5
5
5
5
5
5
5
5
5
5
5
5
5
5
5
5
5
5
5
5
5
5
5
5
5
5
5
5
5
5
5
5
5
5
5
5
5
5
5
5
5
5
5
5
5
5
5
5
5
5
5
5
5
5
5
5
5
5
5
5
5
5
5
5
5
5
5
5
5
5
5
5
5
5
5
5
5
5
5
5
5
5
5
5
5
5
5
5
5
5
5
5
5
5
5
5
5
5
5
5
5
5
5
5
5
5
5
5
5
5
5
5
5
5
5
5
5
5
5
5
5
5
5
5
5
5
5
5
5
5
5
5
5
5
5
5
5
5
5
5
5
5
5
5
5
5
5
5
5
5
5
5
5
5
5
5
5
5
5
5
5
5
5
5
5
5
5
5
5
5
5
5
5
5
5
5
5
5
5
5
5
5
5
5

CELL_DATA 496
SCALARS cell_data_0 double
LOOKUP_TABLE default
4.42818327941e-05
3.50370399395e-05
2.07381286908e-05
2.74793612743e-05
8.75634343231e-06
2.2251468202e-05
4.36022406283e-07
4.39490313785e-06
1.59235877428e-05
1.06033241928e-06
6.70164494347e-06
4.40757787487e-05
4.77765710004e-05
7.85729667412e-05
3.30017712578e-05
6.75001621688e-05
1.93003195478e-05
2.23784763322e-05
1.14656556599e-05
6.5555070692e-06
1.10880158276e-05
9.56442899506e-06
2.9335905387e-05
4.33556854237e-05
3.808482425e-05
4.2328666446e-05
4.09152352248e-05
2.0630390446e-05
6.1173631247e-06
3.41252896931e-05
1.4850196246e-05
4.15033284629e-06
4.38534640922e-05
1.64684630083e-05
2.73135073431e-05
1.19416761539e-05
9.39614969382e-06
1.7973468172e-05
3.21305222617e-06
4.32287186637e-05
1.04308775734e-06
5.7776908974e-06
9.12227396153e-06
1.97173341292e-05
4.40582343732e-06
4.92299615945e-06
4.35074944668e-06
2.66050920133e-06
8.47525915775e-06
2.2627347858e-05
2.12008455993e-05
2.73310099149e-05
5.75488991926e-05
3.40996066037e-05
4.11161561502e-05
3.68495640714e-05
3.99872184814e-06
2.83021106307e-06
1.47950585826e-06
7.44426019586e-06
9.14378907733e-06
3.54374156247e-06
1.83782336211e-05
5.07700195135e-06
9.5430701162e-06
1.87356838136e-05
1.05989915042e-05
1.26510880362e-05
1.1061712269e-05
1.69153080206e-05
1.33888754455e-05
5.1632409229e-06
2.65416768592e-06
7.67989656084e-06
2.04006569912e-05
2.51061527474e-06
1.41176842122e-06
1.80049463692e-05
2.70503587008e-05
2.56543324196e-05
7.56134229423e-06
1.19471461279e-05
2.18833871323e-05
1.59793921453e-05
1.26050999153e-05
3.99338118327e-05
3.63104776812e-05
3.71453821222e-05
3.74520658798e-05
3.18234841572e-05
1.44598150536e-05
2.01644326987e-05
1.74894985877e-05
3.15624990693e-06
1.37148293407e-05
9.05055693127e-06
1.42642965106e-06
3.08169629003e-06
1.13216883846e-05
1.2734883336e-06
1.67304351241e-05
6.91751282618e-06
3.83531907396e-06
2.2905545895e-07
1.01521030928e-05
9.89763127308e-06
5.79458837468e-06
8.16324077637e-06
2.82116876499e-07
5.99559621537e-06
4.50699133237e-06
3.38007752081e-06
7.50228623243e-06
3.3441138557e-06
6.92047013393e-06
3.72879094544e-06
9.21695135665e-06
4.73210415879e-06
1.28085882778e-06
3.98146269955e-06
9.44824409131e-06
1.16051966223e-05
2.31611535865e-06
1.69330431179e-05
2.0632550621e-06
7.10307794312e-06
4.66145958645e-06
4.2480746552e-06
1.51982466144e-06
9.51185870831e-06
1.68695056859e-05
1.70386899793e-05
5.35801394554e-06
4.32786810999e-06
1.13593737692e-06
1.26665812153e-06
1.06665095491e-06
2.64466066711e-06
2.06076174775e-05
4.48372072033e-07
1.55377022366e-06
3.56072067e-05
2.85813970018e-05
1.7965253806e-05
8.55362428725e-06
1.89951794749e-05
5.37018108856e-06
9.39751965244e-06
7.2842122848e-06
9.80025348267e-06
6.12472264757e-06
7.08533841764e-06
7.62129525219e-06
6.20952608891e-06
1.75331591883e-05
1.2644671147e-05
5.48081395655e-06
1.24433061357e-05
3.69258606976e-06
2.63424183163e-06
4.78627692768e-07
3.55870267496e-06
5.28706461522e-06
8.37841538384e-07
6.70283248767e-06
2.80806874897e-08
1.13061918391e-06
9.91378533035e-06
1.19479608548e-05
6.73485735932e-06
7.74839961176e-06
1.43871252148e-05
9.10711783674e-06
1.31956646548e-05
9.28450061936e-06
6.84148102785e-06
1.99204299659e-05
6.50727466919e-06
2.31515663114e-05
4.60143823786e-05
3.53330175452e-05
2.81749239965e-05
1.16509610083e-05
2.2918072945e-06
3.30499707176e-06
2.09994847371e-06
1.12380623943e-06
3.49399773734e-07
1.533958155e-06
1.14477100094e-05
1.63077969887e-06
5.19788286749e-07
5.05982609089e-06
1.21557321474e-05
4.83199429337e-06
3.45536514858e-06
3.43041555423e-06
1.84136504497e-06
1.88812879112e-05
9.25448490132e-06
9.64928124547e-06
9.94577850445e-06
1.80539789895e-05
1.36200754364e-05
6.95522778421e-06
1.19120974705e-05
1.34484221309e-05
1.43216407698e-05
6.45132723744e-06
8.08162797628e-06
2.96606068706e-06
7.52193553843e-06
1.96332408181e-06
6.12900528281e-06
4.50624699126e-06
1.75294925385e-05
2.40512349258e-05
8.04875814542e-06
3.70017656628e-06
1.77895441026e-05
1.31532576272e-05
1.41102202753e-05
4.10155137681e-06
1.87553787564e-05
3.12669067333e-05
2.00330917698e-05
6.7705622054e-05
6.76947296847e-05
3.62242934196e-05
3.38854597609e-05
4.71549979602e-05
5.21425390894e-05
2.3002976957e-05
3.89568420483e-05
1.68098993762e-05
3.48806929302e-05
2.74086830242e-05
2.22976694715e-05
2.41185902805e-05
3.19844360056e-05
1.41251218975e-05
9.30431152869e-06
1.30331212508e-05
2.10487313607e-05
6.66648911946e-06
2.48699556357e-06
1.67297793043e-05
4.29269518813e-05
3.4383588937e-05
1.91549502788e-05
6.28510694216e-07
7.27629217994e-06
1.74365503875e-06
9.59762947715e-07
2.54338713873e-05
2.91966526703e-05
1.41796892647e-05
1.35475655158e-05
1.29812482436e-05
1.5905547092e-05
9.62330003404e-06
5.93134217939e-06
2.82669384385e-05
2.06588374508e-05
1.76673236301e-05
1.55010759683e-05
9.50450501905e-06
1.386457884e-05
1.6467633569e-05
1.57307506361e-05
2.55293795808e-05
2.82893677041e-05
1.31298556243e-05
6.77093728676e-06
6.14305373747e-06
1.32069228938e-05
2.54988534953e-05
2.57073141626e-05
1.00975609348e-05
1.94603363961e-05
1.5918977015e-05
1.52839993211e-05
1.29707301711e-05
1.37031380049e-05
3.23584001965e-06
8.42791281575e-08
6.7309343299e-06
8.5759827077e-06
7.658802483e-06
1.33152815651e-05
1.5563153126e-05
1.61582824768e-05
9.03456702384e-06
1.09188847236e-05
7.68128167904e-06
1.22289639221e-05
1.82950066745e-05
2.10118854987e-05
1.76967953779e-05
2.04292122701e-05
6.75258342786e-06
1.20883900383e-05
1.82875562114e-05
1.47303711866e-05
8.29264717609e-06
1.17790424834e-05
4.56184174382e-06
6.88993325534e-06
1.61502801154e-05
1.80897633998e-05
1.49993437797e-05
1.64666226388e-05
1.36269653688e-05
1.19926249257e-05
1.10188537094e-05
1.2908592989e-05
1.13476811028e-05
9.71221178009e-06
7.19896690605e-06
9.24842312961e-06
2.1514810819e-05
1.82408566874e-05
8.46187868923e-06
6.03284395262e-06
1.68471493916e-05
1.14430733689e-06
1.27088197679e-05
4.8624660724e-05
2.77616227938e-06
8.55760334388e-06
3.71518210234e-05
3.60446068064e-05
1.89058837839e-05
2.28167020616e-05
2.83991235491e-05
6.07674815198e-05
3.50377654418e-05
3.27290449568e-05
1.05341232675e-05
3.56550899075e-05
2.57417142512e-05
3.62782348893e-05
2.55112492007e-05
4.19794584038e-05
2.67267718666e-05
1.82090735057e-05
1.14973231996e-05
1.49934707382e-05
2.09062908096e-05
1.8551367127e-05
1.44633682933e-05
1.06605729514e-05
2.73419922072e-05
2.20828652494e-05
4.59470087066e-06
2.89291720868e-06
1.07341101991e-05
1.09854447493e-05
1.5487729112e-06
3.91230805577e-06
9.56523379692e-06
1.47139252833e-05
9.66704401928e-06
2.37152548265e-05
2.76755419678e-05
8.28302172162e-07
1.69035280506e-05
1.08253180777e-05
1.22120356046e-05
1.04603182457e-05
2.2954468476e-05
1.92721798057e-05
8.49259935984e-06
1.09895026065e-06
5.72835624187e-06
3.86038170761e-06
3.70221634206e-06
2.18730120649e-06
1.01844467448e-05
9.65929923805e-06
1.03074505217e-05
1.52749678869e-05
1.18689384881e-05
8.56625650428e-06
8.89933540294e-06
1.37043473685e-05
5.54377859658e-06
1.48715254233e-06
1.31771415959e-05
6.54469976861e-06
1.24632850362e-05
1.096106369e-05
9.31450329593e-06
8.63767918924e-06
6.88058491235e-06
8.66993277035e-06
8.63176112738e-07
6.70596463167e-06
1.23580295554e-06
5.67526688801e-10
2.29877128904e-07
7.85469692603e-07
2.71740426023e-06
2.45584540194e-06
3.34963276642e-06
1.61547157576e-06
7.130710416e-06
7.74814959086e-06
2.12529861089e-06
2.5229383492e-05
3.71428289507e-07
2.03501397625e-06
4.28710020786e-06
2.59671132703e-06
3.95513431219e-06
3.622804629e-06
1.73459039346e-05
3.38745094715e-06
2.22766726753e-05
1.24303826271e-05
5.33079503764e-06
1.27177845792e-06
6.55524725916e-06
7.12400966978e-06
2.80530492022e-05
1.40358456729e-05
1.87024931367e-05
2.46492690374e-05
2.044949352e-05
1.59446991835e-05
2.38594558517e-06
1.43330954821e-06
2.05609087842e-05
4.77654983181e-06
8.21763349045e-06
5.06264757328e-06
4.00950429506e-05
1.9476725592e-05
4.42566960988e-06
2.00467987477e-06
2.73470867536e-06
1.24675392022e-05
9.97560780492e-06
1.50740301664e-05
3.08312511901e-05
3.01636433033e-06
3.17313120688e-05
2.82198697095e-05
2.69117102036e-05
5.3471489116e-06
3.39877603459e-05
3.8159705413e-05
3.0682115585e-05
6.80121386389e-06
1.15692693744e-05
8.02984225057e-06
1.42813103655e-05
5.53527569275e-06
1.20383084603e-05
8.5928119886e-06
6.02838914659e-06
5.31673575281e-06
2.28885578201e-05
6.67815007204e-05
5.16860768027e-05
3.78123899882e-05
2.8485388991e-05
8.21115423002e-05
7.84769384328e-05
5.13207777512e-05
2.45258405978e-05
6.24034502733e-06
1.79847315109e-05
8.65379747112e-06
1.47527954347e-05
5.62600933294e-06
1.53812532036e-05
1.21398753226e-05
1.38362948765e-05
5.6315224218e-06
1.06910206077e-05
9.34061562864e-06
2.62460000893e-05
7.57734363453e-06
2.0622342158e-05
1.293906765e-05
1.17555738218e-05
5.10380586217e-06
1.6788561464e-05
2.85402823791e-06
2.12147095995e-05
2.12603704378e-05
2.08434810808e-05
1.9683991682e-05
2.36428745785e-05
1.47646902127e-05

