# vtk DataFile Version 3.0
File Name: Molecule/sphere_dip_sim/sphere_dip_sim_0-s2.vtk
ASCII
DATASET UNSTRUCTURED_GRID
FIELD FieldData 1
TIME 1 1 double
0.0
POINTS 95 double
0.809016994375 -0.309016994375 -0.5
0.809016994375 0.309016994375 -0.5
1.0 0.0 0.0
0.525731112119 0.0 -0.850650808352
0.850650808352 0.525731112119 0.0
0.5 0.809016994375 -0.309016994375
0.309016994375 0.5 -0.809016994375
0.0 0.850650808352 -0.525731112119
-0.525731112119 0.0 -0.850650808352
-0.809016994375 -0.309016994375 -0.5
-0.809016994375 0.309016994375 -0.5
-1.0 0.0 0.0
-0.850650808352 -0.525731112119 0.0
-0.850650808352 0.525731112119 0.0
-0.309016994375 0.5 -0.809016994375
-0.5 0.809016994375 -0.309016994375
-0.5 -0.809016994375 -0.309016994375
-0.5 -0.809016994375 0.309016994375
0.0 -1.0 0.0
0.0 -0.850650808352 -0.525731112119
0.0 -0.850650808352 0.525731112119
-0.809016994375 -0.309016994375 0.5
-0.309016994375 -0.5 0.809016994375
-0.809016994375 0.309016994375 0.5
-0.309016994375 -0.5 -0.809016994375
0.5 -0.809016994375 -0.309016994375
0.5 -0.809016994375 0.309016994375
0.309016994375 -0.5 -0.809016994375
0.850650808352 -0.525731112119 0.0
0.961938357784 -0.273266528913 0.0
0.525731112119 0.850650808352 0.0
0.5 0.809016994375 0.309016994375
0.26286555606 0.951056516295 -0.162459848116
0.26286555606 0.951056516295 0.162459848116
0.0 1.0 0.0
0.259891913008 0.862668480416 0.433888564553
0.0 0.961938357784 0.273266528913
0.0 0.850650808352 0.525731112119
-0.259891913008 0.862668480416 0.433888564553
-0.26286555606 0.951056516295 0.162459848116
-0.5 0.809016994375 0.309016994375
-0.26286555606 0.951056516295 -0.162459848116
-0.525731112119 0.850650808352 0.0
-0.702046444776 0.69378047756 0.16062203564
-0.702046444776 0.69378047756 -0.16062203564
-0.16062203564 0.702046444776 0.69378047756
-0.425325404176 0.688190960236 0.587785252292
-0.309016994375 0.5 0.809016994375
-0.688190960236 0.587785252292 0.425325404176
-0.587785252292 0.425325404176 0.688190960236
-0.862668480416 0.433888564553 0.259891913008
-0.433888564553 0.259891913008 0.862668480416
-0.69378047756 0.16062203564 0.702046444776
-0.525731112119 0.0 0.850650808352
0.16062203564 0.702046444776 0.69378047756
0.0 0.525731112119 0.850650808352
0.309016994375 0.5 0.809016994375
-0.162459848116 0.26286555606 0.951056516295
0.162459848116 0.26286555606 0.951056516295
0.0 0.0 1.0
-0.273266528913 0.0 0.961938357784
0.433888564553 0.259891913008 0.862668480416
0.273266528913 0.0 0.961938357784
0.525731112119 0.0 0.850650808352
-0.433888564553 -0.259891913008 0.862668480416
-0.162459848116 -0.26286555606 0.951056516295
0.0 -0.525731112119 0.850650808352
0.162459848116 -0.26286555606 0.951056516295
0.309016994375 -0.5 0.809016994375
0.433888564553 -0.259891913008 0.862668480416
0.69378047756 -0.16062203564 0.702046444776
0.587785252292 -0.425325404176 0.688190960236
0.809016994375 -0.309016994375 0.5
0.425325404176 -0.688190960236 0.587785252292
0.688190960236 -0.587785252292 0.425325404176
0.862668480416 -0.433888564553 0.259891913008
0.702046444776 -0.69378047756 0.16062203564
0.162459848116 -0.26286555606 -0.951056516295
0.0 0.0 -1.0
0.0 -0.525731112119 -0.850650808352
-0.162459848116 -0.26286555606 -0.951056516295
-0.273266528913 0.0 -0.961938357784
-0.433888564553 -0.259891913008 -0.862668480416
0.951056516295 -0.162459848116 0.26286555606
0.951056516295 0.162459848116 0.26286555606
0.850650808352 0.0 0.525731112119
0.809016994375 0.309016994375 0.5
0.69378047756 0.16062203564 0.702046444776
0.688190960236 0.587785252292 0.425325404176
0.425325404176 0.688190960236 0.587785252292
0.587785252292 0.425325404176 0.688190960236
-0.433888564553 0.259891913008 -0.862668480416
0.162459848116 0.26286555606 -0.951056516295
-0.162459848116 0.26286555606 -0.951056516295
0.0 0.525731112119 -0.850650808352

CELLS 186 744
3 0 1 2
3 0 3 1
3 2 1 4
3 4 1 5
3 1 6 5
3 1 3 6
3 5 6 7
3 8 9 10
3 9 11 10
3 9 12 11
3 10 11 13
3 7 14 15
3 14 10 15
3 12 16 17
3 16 18 17
3 16 19 18
3 17 18 20
3 12 17 21
3 17 22 21
3 17 20 22
3 23 11 21
3 21 11 12
3 24 16 9
3 24 19 16
3 9 16 12
3 19 25 18
3 25 26 18
3 18 26 20
3 3 0 27
3 0 25 27
3 0 28 25
3 27 25 19
3 2 29 0
3 28 29 0
3 5 30 4
3 4 30 31
3 5 32 30
3 32 33 30
3 32 34 33
3 30 33 31
3 34 32 7
3 5 32 7
3 31 33 35
3 33 36 35
3 33 34 36
3 35 36 37
3 37 36 38
3 36 39 38
3 36 34 39
3 38 39 40
3 34 41 39
3 41 42 39
3 41 15 42
3 39 42 40
3 15 41 7
3 34 41 7
3 40 42 43
3 42 44 43
3 42 15 44
3 43 44 13
3 37 38 45
3 38 46 45
3 38 40 46
3 45 46 47
3 40 48 46
3 48 49 46
3 48 23 49
3 46 49 47
3 40 43 48
3 43 50 48
3 43 13 50
3 48 50 23
3 47 49 51
3 49 52 51
3 49 23 52
3 51 52 53
3 37 45 54
3 45 55 54
3 45 47 55
3 54 55 56
3 47 57 55
3 57 58 55
3 57 59 58
3 55 58 56
3 47 51 57
3 51 60 57
3 51 53 60
3 57 60 59
3 56 58 61
3 58 62 61
3 58 59 62
3 61 62 63
3 53 64 60
3 64 65 60
3 64 22 65
3 60 65 59
3 22 66 65
3 66 67 65
3 66 68 67
3 65 67 59
3 68 66 20
3 22 66 20
3 59 67 62
3 67 69 62
3 67 68 69
3 62 69 63
3 63 69 70
3 69 71 70
3 69 68 71
3 70 71 72
3 68 73 71
3 73 74 71
3 73 26 74
3 71 74 72
3 26 73 20
3 68 73 20
3 72 74 75
3 74 76 75
3 74 26 76
3 75 76 28
3 27 77 3
3 3 77 78
3 27 79 77
3 79 80 77
3 79 24 80
3 77 80 78
3 24 79 19
3 27 79 19
3 78 80 81
3 80 82 81
3 80 24 82
3 81 82 8
3 28 29 75
3 29 83 75
3 29 2 83
3 75 83 72
3 2 84 83
3 84 85 83
3 84 86 85
3 83 85 72
3 86 84 4
3 2 84 4
3 72 85 70
3 85 87 70
3 85 86 87
3 70 87 63
3 31 88 4
3 4 88 86
3 31 89 88
3 89 90 88
3 89 56 90
3 88 90 86
3 31 35 89
3 35 54 89
3 35 37 54
3 89 54 56
3 86 90 87
3 90 61 87
3 90 56 61
3 87 61 63
3 14 91 10
3 91 8 10
3 13 44 10
3 15 44 10
3 22 64 21
3 21 64 53
3 53 52 21
3 52 23 21
3 23 50 11
3 50 13 11
3 8 82 9
3 82 24 9
3 28 76 25
3 25 76 26
3 78 92 3
3 3 92 6
3 78 93 92
3 93 94 92
3 93 14 94
3 92 94 6
3 78 81 93
3 81 91 93
3 81 8 91
3 93 91 14
3 6 94 7
3 94 14 7

CELL_TYPES 186
5
5
5
5
5
5
5
5
5
5
5
5
5
5
5
5
5
5
5
5
5
5
5
5
5
5
5
5
5
5
5
5
5
5
5
5
5
5
5
5
5
5
5
5
5
5
5
5
5
5
5
5
5
5
5
5
5
5
5
5
5
5
5
5
5
5
5
5
5
5
5
5
5
5
5
5
5
5
5
5
5
5
5
5
5
5
5
5
5
5
5
5
5
5
5
5
5
5
5
5
5
5
5
5
5
5
5
5
5
5
5
5
5
5
5
5
5
5
5
5
5
5
5
5
5
5
5
5
5
5
5
5
5
5
5
5
5
5
5
5
5
5
5
5
5
5
5
5
5
5
5
5
5
5
5
5
5
5
5
5
5
5
5
5
5
5
5
5
5
5
5
5
5
5
5
5
5
5
5
5
5
5
5
5
5
5

CELL_DATA 186
SCALARS cell_data_0 double
LOOKUP_TABLE default
2.64669630622e-05
1.69613974094e-05
0.000148437495902
0.000163878966133
9.51750014143e-06
7.18784568712e-05
5.84406403594e-05
4.05762583448e-05
2.7500688428e-05
8.51151111164e-06
9.51554530855e-06
4.20951701424e-05
6.00548458413e-05
2.92705099529e-05
1.89237259461e-06
8.580260006e-05
1.02289897374e-06
8.8233246869e-06
6.6159342662e-05
5.59647086692e-05
5.27006563242e-05
1.47402519858e-05
6.89129192417e-05
2.32806621649e-05
7.53190136852e-06
7.47496114289e-05
4.91470655975e-06
6.28412008641e-06
8.65495068068e-05
4.86873283591e-05
2.20634514763e-05
3.62728210057e-06
2.1821224561e-05
5.39269001715e-06
4.43488539054e-05
4.16837081433e-05
5.17111754362e-06
1.1714665165e-05
1.3754847297e-05
1.04873776731e-05
1.34620310109e-05
1.25337007274e-05
1.22843835619e-05
3.29399014871e-05
2.71839538932e-05
2.03805930492e-05
1.56158310734e-05
2.66932877105e-05
2.80168255397e-05
1.22208128972e-05
4.7527462568e-07
4.26440912828e-05
3.79289594983e-05
4.83927205805e-05
1.0138689608e-05
6.13269310749e-06
4.28554880191e-05
7.52727454372e-05
5.05943951043e-05
4.48227801408e-05
7.14241178049e-07
1.61761899431e-05
2.05524771237e-05
5.30639030388e-06
4.79055199057e-05
0.000105318158804
0.000103856127195
4.89932773218e-05
3.17124769493e-05
9.25928343393e-05
7.17347478614e-05
0.000104263002924
7.02190642672e-05
0.000164129747051
0.00012102138248
5.8259545377e-05
1.28800535646e-05
4.2044494768e-05
8.73055492599e-06
2.33883047959e-05
1.23738997238e-05
2.31940516621e-05
8.02102579365e-05
1.22347449009e-05
5.6703441205e-06
1.47012762687e-05
9.76070260548e-06
5.91635118483e-05
2.15422838098e-05
1.92406708082e-05
5.75429562311e-05
2.103126756e-05
2.3419319468e-05
2.51927748844e-05
2.60311198628e-05
5.79231371048e-05
5.5338818351e-05
6.23769940871e-05
4.67111225974e-05
8.60835044846e-05
5.8648801968e-05
2.74268378642e-05
6.74230873563e-05
4.99499903157e-05
4.10043789411e-05
3.65311077437e-05
2.28935988631e-05
1.74437938856e-05
2.49263904496e-05
9.69088543393e-06
3.31927767892e-05
1.36078988528e-05
4.05428723808e-06
8.93789547002e-06
2.40238023028e-05
2.18848407441e-05
6.85613441949e-05
0.000162142601799
7.64573171588e-05
0.000165480609697
6.37180421814e-05
0.000116531795503
2.93747344604e-05
1.74357427324e-06
5.89190020194e-08
7.2165964802e-05
2.11860427897e-05
5.11563460239e-05
6.61803278326e-05
4.17012001668e-05
3.07300866865e-05
3.51518939528e-05
3.18452983149e-05
4.63485584217e-05
3.19498739675e-06
7.7250950797e-05
4.85331073547e-06
4.40574248055e-06
1.35781661993e-06
2.23859003856e-05
2.9237282874e-05
5.95036092037e-05
1.58043923176e-05
2.14973620569e-06
1.66643801519e-06
1.38218992405e-05
4.2529002964e-05
3.93532335235e-05
7.62963618321e-07
2.2987749953e-07
1.15588379129e-05
4.77153070351e-07
3.58864634466e-06
1.70157624959e-05
1.72550825049e-05
1.38843401106e-06
6.78042751956e-07
3.73869589192e-06
7.26710617509e-06
1.33614113985e-05
3.34163257298e-05
9.81433013476e-06
3.2250600783e-05
5.63110439101e-05
3.65413364325e-05
3.37538158865e-05
1.24317589349e-05
9.69844472151e-05
0.00014886885391
0.00010798493977
4.31494494654e-05
5.17085137989e-05
0.000156170048443
0.000155532711461
0.000132538954334
6.62150770402e-05
7.16698110977e-05
3.68535476725e-06
2.23505993045e-05
1.47005412006e-05
6.66887090661e-05
2.20515416444e-05
1.75856902284e-05
1.650447611e-05
2.96462309847e-05
3.46588307176e-05

