# vtk DataFile Version 3.0
File Name: Molecule/sphere/sphere_0-s1.vtk
ASCII
DATASET UNSTRUCTURED_GRID
FIELD FieldData 1
TIME 1 1 double
0.0
POINTS 24 double
0.0 0.850650808352 0.525731112119
0.0 0.850650808352 -0.525731112119
-0.850650808352 0.525731112119 0.0
-0.525731112119 0.0 0.850650808352
0.525731112119 0.0 0.850650808352
0.0 -0.850650808352 0.525731112119
0.850650808352 -0.525731112119 0.0
0.850650808352 0.525731112119 0.0
-0.850650808352 -0.525731112119 0.0
0.688190960236 -0.26286555606 -0.425325404176
0.850650808352 0.0 0.0
0.688190960236 0.26286555606 -0.425325404176
0.525731112119 0.0 -0.850650808352
0.425325404176 0.688190960236 -0.26286555606
0.26286555606 0.425325404176 -0.688190960236
0.26286555606 -0.425325404176 -0.688190960236
0.0 0.0 -0.850650808352
-0.26286555606 -0.425325404176 -0.688190960236
0.0 -0.850650808352 -0.525731112119
-0.525731112119 0.0 -0.850650808352
-0.688190960236 -0.26286555606 -0.425325404176
-0.26286555606 0.425325404176 -0.688190960236
-0.425325404176 -0.688190960236 -0.26286555606
0.425325404176 -0.688190960236 -0.26286555606

CELLS 44 176
3 0 1 2
3 0 2 3
3 0 3 4
3 3 5 4
3 4 5 6
3 7 0 4
3 8 5 3
3 3 2 8
3 6 9 10
3 9 11 10
3 9 12 11
3 10 11 7
3 7 11 13
3 11 14 13
3 11 12 14
3 13 14 1
3 7 13 0
3 13 1 0
3 12 15 16
3 15 17 16
3 15 18 17
3 16 17 19
3 6 10 4
3 10 7 4
3 19 20 2
3 20 8 2
3 1 21 2
3 21 19 2
3 8 22 5
3 22 18 5
3 19 17 20
3 17 22 20
3 17 18 22
3 20 22 8
3 18 23 5
3 23 6 5
3 12 9 15
3 9 23 15
3 9 6 23
3 15 23 18
3 12 16 14
3 16 21 14
3 16 19 21
3 14 21 1

CELL_TYPES 44
5
5
5
5
5
5
5
5
5
5
5
5
5
5
5
5
5
5
5
5
5
5
5
5
5
5
5
5
5
5
5
5
5
5
5
5
5
5
5
5
5
5
5
5

CELL_DATA 44
SCALARS cell_data_0 double
LOOKUP_TABLE default
3.73682121417e-05
0.000240170166866
0.00105867042733
0.000881154702849
0.000452430185905
0.000216015892307
8.72081590841e-05
6.35823930776e-05
4.96963266237e-06
4.02500621213e-06
9.46948572055e-08
2.66608256874e-06
3.30487199455e-06
4.25320759072e-06
2.42644406977e-06
1.18651712774e-06
1.11795663502e-05
9.85492562634e-06
3.87217937327e-06
9.33479944606e-07
0.000293409087302
2.44108974645e-06
0.000296889273712
0.000276509280957
6.96506734158e-06
3.28371604724e-06
2.80041325322e-06
2.29179941808e-06
1.30898330096e-05
0.000699458690109
2.12479630348e-06
1.76377184652e-06
0.000312691588624
3.86062925582e-06
0.000702736215247
9.57418480514e-06
1.22945988798e-06
1.63158082638e-06
2.09810487938e-06
0.000322802786164
2.82004564965e-06
4.23729703535e-07
1.91601836277e-06
1.51182551353e-06

