# vtk DataFile Version 3.0
File Name: Molecule/sphere/sphere_0-s2.vtk
ASCII
DATASET UNSTRUCTURED_GRID
FIELD FieldData 1
TIME 1 1 double
0.0
POINTS 42 double
0.0 0.850650808352 0.525731112119
0.0 0.850650808352 -0.525731112119
-0.850650808352 0.525731112119 0.0
-0.525731112119 0.0 0.850650808352
-0.850650808352 -0.525731112119 0.0
0.850650808352 -0.525731112119 0.0
0.688190960236 -0.26286555606 -0.425325404176
0.850650808352 0.0 0.0
0.688190960236 0.26286555606 -0.425325404176
0.525731112119 0.0 -0.850650808352
0.850650808352 0.525731112119 0.0
0.425325404176 0.688190960236 -0.26286555606
0.26286555606 0.425325404176 -0.688190960236
0.26286555606 -0.425325404176 -0.688190960236
0.0 0.0 -0.850650808352
-0.26286555606 -0.425325404176 -0.688190960236
-0.525731112119 0.0 -0.850650808352
0.525731112119 0.0 0.850650808352
-0.688190960236 -0.26286555606 -0.425325404176
-0.26286555606 0.425325404176 -0.688190960236
-0.425325404176 -0.688190960236 -0.26286555606
-0.26286555606 0.425325404176 0.688190960236
0.26286555606 0.425325404176 0.688190960236
0.0 0.0 0.850650808352
-0.26286555606 -0.425325404176 0.688190960236
0.26286555606 -0.425325404176 0.688190960236
0.0 -0.850650808352 0.525731112119
0.688190960236 -0.26286555606 0.425325404176
0.425325404176 -0.688190960236 0.26286555606
0.0 -0.425325404176 -0.688190960236
0.13143277803 -0.637988106264 -0.606961036177
-0.13143277803 -0.637988106264 -0.606961036177
0.0 -0.850650808352 -0.525731112119
-0.212662702088 -0.769420884294 0.13143277803
-0.212662702088 -0.769420884294 -0.394298334089
0.0 -0.850650808352 0.0
-0.344095480118 -0.556758182206 -0.475528258148
0.212662702088 -0.769420884294 -0.394298334089
0.212662702088 -0.769420884294 0.13143277803
0.425325404176 -0.688190960236 -0.26286555606
0.637988106264 -0.606961036177 -0.13143277803
0.344095480118 -0.556758182206 -0.475528258148

CELLS 80 320
3 0 1 2
3 3 2 4
3 5 6 7
3 6 8 7
3 6 9 8
3 7 8 10
3 10 8 11
3 8 12 11
3 8 9 12
3 11 12 1
3 10 11 0
3 11 1 0
3 9 13 14
3 14 15 16
3 7 10 17
3 16 18 2
3 18 4 2
3 1 19 2
3 19 16 2
3 16 15 18
3 18 20 4
3 9 6 13
3 9 14 12
3 14 19 12
3 14 16 19
3 12 19 1
3 3 21 2
3 0 21 2
3 0 21 22
3 21 23 22
3 21 3 23
3 22 23 17
3 3 24 23
3 24 25 23
3 24 26 25
3 23 25 17
3 17 25 27
3 25 28 27
3 25 26 28
3 27 28 5
3 0 22 10
3 10 22 17
3 26 24 4
3 4 24 3
3 13 29 14
3 29 15 14
3 13 30 29
3 30 31 29
3 30 32 31
3 29 31 15
3 17 27 7
3 5 27 7
3 20 33 4
3 4 33 26
3 20 34 33
3 34 35 33
3 34 32 35
3 33 35 26
3 15 36 18
3 36 20 18
3 15 31 36
3 31 34 36
3 31 32 34
3 36 34 20
3 32 37 35
3 37 38 35
3 37 39 38
3 35 38 26
3 39 40 38
3 40 28 38
3 40 5 28
3 38 28 26
3 39 41 6
3 6 41 13
3 5 40 6
3 6 40 39
3 13 41 30
3 41 37 30
3 41 39 37
3 30 37 32

CELL_TYPES 80
5
5
5
5
5
5
5
5
5
5
5
5
5
5
5
5
5
5
5
5
5
5
5
5
5
5
5
5
5
5
5
5
5
5
5
5
5
5
5
5
5
5
5
5
5
5
5
5
5
5
5
5
5
5
5
5
5
5
5
5
5
5
5
5
5
5
5
5
5
5
5
5
5
5
5
5
5
5
5
5

CELL_DATA 80
SCALARS cell_data_0 double
LOOKUP_TABLE default
5.45332199824e-05
6.94491597425e-06
1.38211227387e-05
7.33819159183e-06
8.92727092122e-06
5.41637138586e-06
3.72897942658e-06
4.65423766887e-06
8.08277347181e-06
2.07912606967e-06
2.46292641096e-05
1.39623341628e-05
9.01721741643e-05
7.72720042482e-06
3.89759054228e-05
4.13195248997e-06
4.68831682443e-06
0.000294411218337
0.000280945885002
3.82502063865e-06
0.000142127501525
7.37124563282e-05
1.58506132624e-05
0.000154991050756
0.000184744993535
0.000163287417729
5.97994198416e-05
9.83977802078e-06
2.7675574692e-05
0.000427208098149
0.000192125278959
0.000220427140228
0.000115070546162
0.000248387555781
7.48284891596e-05
9.76650427274e-05
6.16821467593e-05
5.31269449055e-05
2.93182732885e-05
3.30273249412e-05
2.34590340121e-07
7.22008563642e-05
4.19458957786e-05
7.40666252893e-05
2.66387243521e-05
1.11852138936e-06
1.06640177128e-05
4.56368783803e-06
2.73741545771e-05
5.49239967572e-06
3.3389500944e-05
1.58216593486e-05
0.000106207225908
1.11690684063e-06
6.44712857578e-05
3.96409462406e-06
3.59290347737e-05
3.60279824873e-06
5.45386734837e-07
6.87332031166e-05
5.07335890199e-06
6.7824227032e-06
3.31278603273e-05
4.0120166499e-05
4.88174384294e-05
7.01434656434e-07
0.000635047953041
3.53521164438e-06
0.0005693909042
6.85575474664e-06
3.87330914141e-06
3.631825984e-06
0.000603479108545
2.32967506506e-05
5.87614090415e-07
0.000601394692207
1.20701172568e-05
4.03836245034e-06
0.000343205041859
2.51415103761e-05

