# vtk DataFile Version 3.0
File Name: Molecule/sphere_cent/sphere_cent_0-s20.vtk
ASCII
DATASET UNSTRUCTURED_GRID
FIELD FieldData 1
TIME 1 1 double
0.0
POINTS 751 double
-0.40811350942 0.66357284784 0.62640911341
-0.50126051903 0.51474148035 0.69553184509
-0.31633070111 0.52322852612 0.79122960567
0.5151373744 -0.80472201109 -0.29451858997
0.51157170534 -0.8524236083 -0.10650873184
0.35529974103 -0.90269207954 -0.24280431867
-0.51731485128 -0.78006696701 0.35192990303
-0.3569970727 -0.81303423643 0.45981684327
-0.46793740988 -0.70043814182 0.5388764143
-0.38578596711 -0.88347637653 0.26561063528
0.89085429907 0.27042725682 0.36491900682
0.84052687883 0.43716517091 0.31968230009
0.79017418623 0.35522800684 0.49944403768
0.7832878232 -0.39005282521 0.48381277919
0.70111823082 -0.56750392914 0.43126344681
0.82361114025 -0.48147833347 0.29949438572
0.37372142076 -0.82183146477 -0.42986312509
0.67102903128 -0.72181904316 -0.16888993979
0.89329695702 -0.28654551506 0.34510976076
0.99938243628 0.0089888339862 0.033746033907
0.98895835876 0.1336517036 -0.063711419702
0.98749786615 0.13203825057 0.086147464812
0.98661935329 -0.096243172884 0.13151246309
0.9811232686 0.04787446931 0.18735100329
-0.85114854574 -0.052553612739 -0.52143442631
-0.91035950184 -0.13195361197 -0.39114743471
-0.88884103298 0.031854595989 -0.45575967431
-0.95310872793 -0.0066353213042 -0.30233776569
-0.97518098354 0.11160720885 -0.1891747117
-0.9302777648 0.19893561304 -0.30781373382
-0.13648048043 0.13350951672 -0.98147928715
-0.22031693161 0.27513122559 -0.93580079079
-0.0040255216882 0.28043738008 -0.95978134871
0.12947140634 0.13573767245 -0.98222064972
0.18939991295 0.28836345673 -0.93839043379
0.054503969848 0.99837225676 -0.0088010299951
-0.10176094621 0.98711657524 -0.12317374349
-0.092220343649 0.99227315187 0.082746081054
-0.25121024251 0.96770977974 -0.011275622062
-0.2459332794 0.9570286274 0.15368273854
-0.43300661445 0.89392787218 -0.10973561555
-0.55483484268 0.8303578496 -0.039255369455
-0.40962472558 0.90911877155 0.075459316373
-0.38103696704 0.88291692734 0.27320328355
-0.5527869463 0.81773632765 0.16038674116
-0.50978511572 0.79132086039 0.33739390969
-0.30468037724 -0.92487978935 -0.22411778569
-0.12493178248 -0.98725104332 -0.098138518631
-0.2978964448 -0.95341068506 -0.046435002238
-0.01407564152 -0.99959146976 0.022880945355
-0.18874002993 -0.98077005148 0.049478448927
0.0975131616 -0.99185174704 -0.081562422216
0.31649833918 -0.94728779793 -0.048953391612
0.064570307732 -0.98851650953 0.13641168177
0.17091551423 -0.98400688171 0.049907490611
-0.093029104173 -0.98468798399 0.14698153734
0.32634049654 -0.10818725079 -0.93873208761
0.17998926342 -0.051653832197 -0.98225975037
0.2852178812 0.10349237919 -0.95281028748
0.16687382758 -0.24280756712 -0.95547348261
-0.15992714465 -0.25961202383 -0.95221191645
-0.18664072454 -0.058477435261 -0.98061448336
0.00056649593171 -0.1235383153 -0.99217802286
-0.32336586714 0.096892096102 -0.94123291969
-0.45262059569 0.28528928757 -0.84362483025
-0.52005791664 -0.012603388168 -0.85294377804
-0.3461394906 -0.091868549585 -0.93247514963
-0.31835696101 -0.20042985678 -0.9251947403
-0.95199662447 0.14682339132 0.26856723428
-0.97029590607 -0.048287514597 0.2368966341
-0.91174143553 -0.0080287493765 0.40973076224
-0.89842075109 0.35240107775 0.25867813826
-0.95308512449 0.28133380413 0.10791733861
-0.99284934998 0.086939454079 0.079134769738
0.072550088167 0.97941631079 -0.18839679658
-0.64569443464 0.50766742229 0.57028692961
-0.55663561821 0.63007485867 0.54132020473
-0.68936151266 0.59510427713 0.41295304894
-0.78160691261 0.44484651089 0.4365337193
-0.71123015881 0.38142773509 0.59045290947
-0.77421873808 0.57393783331 0.26453706622
-0.66007113457 0.70459610224 0.26048013568
-0.7060533762 0.70185709 0.088193558156
-0.33313474059 -0.54621070623 -0.76820546389
-0.14333841205 -0.55159968138 -0.82165926695
-0.24020643532 -0.66082799435 -0.71100127697
-0.023233413696 -0.6843791604 -0.72874820232
0.034827243537 -0.52981519699 -0.84718996286
-0.42009538412 -0.6452819705 -0.63778609037
0.2912247479 0.83326035738 -0.47008001804
0.12686248124 0.92861795425 -0.34862855077
0.33554655313 0.90317726135 -0.25518965721
-0.96723639965 -0.1861627996 -0.17253354192
-0.98964208364 -0.024167045951 -0.1404453665
-0.99925655127 -0.032045252621 -0.017598133534
-0.99300539494 0.097250595689 -0.066999331117
-0.058867361397 0.95060169697 -0.3035274148
0.26730239391 0.94253253937 -0.1905760318
-0.067505523562 0.87476086617 0.4797321558
0.098110929132 0.91807228327 0.38195335865
-0.071961253881 0.95648032427 0.2824600935
0.060463715345 0.9837243557 0.16579118371
0.049024350941 0.51503008604 0.85572952032
-0.11381570995 0.61353212595 0.78122842312
-0.15687349439 0.43181651831 0.88822561502
0.14702768624 0.35754552484 0.9222369194
-0.018820114434 0.32242456079 0.94639229774
0.30386927724 0.4454523623 0.84215843678
-0.32622882724 0.32591947913 0.88603955507
0.51420837641 0.41103231907 0.7526487112
0.40865653753 0.56770271063 0.71465110779
0.55964285135 0.53992712498 0.62858498096
0.45733588934 0.68171733618 0.57080817223
-0.4593000114 -0.72901892662 -0.50727701187
-0.30377489328 -0.76631933451 -0.56602811813
0.21856714785 0.60626912117 0.76464349031
0.04198455438 0.68092495203 0.73110371828
0.1731980294 0.73465508223 0.65587538481
0.31582057476 0.6958681345 0.64504659176
0.23272317648 0.83053046465 0.50551074743
0.06863527745 0.82110995054 0.56657934189
0.11091540754 0.21457514167 0.97038429976
0.2698777914 0.26000091434 0.92696881294
0.82275247574 0.1572303921 0.54616689682
0.92584234476 0.095471873879 0.36545881629
0.85352140665 -0.026680985466 0.52030318975
0.72636771202 0.002765487181 0.68728262186
0.67408490181 0.16147726774 0.72062510252
0.55551695824 0.036539208144 0.83053380251
0.020999606699 -0.012431302108 0.99938338995
-0.038813568652 0.14516459405 0.98869752884
-0.18063655496 0.015096625313 0.98343938589
-0.15681502223 0.23563636839 0.95868963003
-0.32469037175 -0.69444710016 0.64213353395
-0.45578071475 -0.60092675686 0.65661650896
-0.7824857235 -0.58091264963 -0.22354854643
-0.69592398405 -0.68787550926 -0.2060007453
-0.74365407228 -0.66374748945 -0.079401344061
-0.5348662734 -0.071238465607 0.84189409018
-0.49801558256 0.13275747001 0.8556779027
-0.64557790756 0.024730810896 0.7632035017
-0.4751739502 0.35815668106 0.80352634192
-0.59341585636 0.22452498972 0.77300083637
-0.41502389312 0.23097638786 0.87925702333
-0.60638087988 0.37838736176 0.69938117266
-0.70357471704 0.13947080076 0.69681841135
-0.70124512911 0.2643494308 0.66208148003
-0.59609800577 -0.33090764284 0.73155480623
-0.49597725272 -0.26110213995 0.8281159997
-0.63465690613 -0.17579767108 0.75163459778
-0.35998609662 -0.37812528014 0.85281765461
-0.4800336659 -0.45425719023 0.75039404631
-0.51939928532 -0.84257918596 0.13932180405
-0.35849291086 -0.92825931311 0.098913274705
-0.8745174408 0.20401667058 0.43838772178
-0.78717929125 0.28257706761 0.54800373316
0.54024910927 0.21515342593 0.81353211403
0.44204437733 0.14825694263 0.88429504633
0.41818028688 0.30263271928 0.85643237829
-0.58850950003 -0.55730444193 0.58576363325
-0.23924179375 -0.58095180988 0.77795428038
-0.35996443033 -0.58188849688 0.72923105955
-0.32969564199 -0.49547860026 0.80348169804
-0.8236566186 -0.55891400576 -0.09564165771
-0.87187594175 -0.46389883757 -0.15647932887
-0.8810723424 -0.4719350636 -0.030634956434
-0.80949574709 -0.58525592089 0.045380070806
-0.90740299225 -0.40796855092 0.10078938305
-0.70044124126 -0.70991826057 0.065485991538
-0.61714750528 -0.78035283089 -0.092598155141
-0.23648884892 -0.45426848531 0.8588501215
-0.77451479435 -0.055275611579 0.63009291887
-0.7790466547 0.053874019533 0.62451690435
-0.79172682762 0.15768314898 0.5897706151
-0.84758746624 -0.28495135903 0.44743412733
-0.92164379358 -0.19504219294 0.33531567454
-0.88860303164 -0.3672747016 0.27463898063
-0.95149892569 -0.24545274675 0.18526813388
-0.69993656874 -0.57210296392 0.42757806182
-0.70792561769 -0.47543543577 0.52197247744
-0.79988926649 -0.47101578116 0.37155988812
-0.59300595522 -0.66225713491 0.45795917511
-0.65998858213 -0.67561686039 0.32855591178
0.19863417745 -0.96157455444 -0.18935792148
0.19128361344 -0.93064290285 -0.3117184937
0.012592079118 -0.97840797901 -0.20617637038
-0.9857391119 -0.16291546822 -0.043425165117
-0.9894028306 -0.11344176531 0.090393505991
-0.96472769976 -0.25832289457 0.050752099603
-0.94173651934 -0.33193746209 -0.054331712425
-0.83348870277 -0.51695555449 0.19452723861
-0.75593394041 -0.58641177416 0.29039162397
-0.63368302584 -0.74438488483 0.21040983498
-0.62465268373 -0.43148207664 0.65083640814
-0.69383639097 -0.33825543523 0.63563084602
-0.74169039726 -0.64776027203 0.17369842529
-0.37265017629 0.81408149004 0.4438508153
-0.22158446908 0.79308980703 0.56653416157
-0.085168920457 0.76253902912 0.64131832123
-0.23824635148 0.68464565277 0.68880456686
0.91845417023 0.34571203589 0.19221161306
0.26344913244 -0.78218060732 -0.56456726789
0.43038830161 -0.72379738092 -0.53914904594
0.20235732198 -0.69775372744 -0.68711799383
0.091317892075 -0.78609037399 -0.61129975319
0.13061749935 -0.85477417707 -0.50228065252
0.2371840626 -0.87513077259 -0.42159879208
-0.026275057346 -0.87826710939 -0.47738221288
0.96120971441 -0.051888544112 0.27079671621
0.95561647415 0.1959708631 0.21990673244
0.96117985249 0.2675127089 0.067773938179
0.90407788754 0.42737391591 0.0028032318223
-0.22184294462 0.86473172903 0.45018094778
-0.46592414379 -0.88363665342 -0.036443818361
-0.23234145343 -0.95101624727 0.20398725569
-0.12897707522 -0.96038085222 -0.24704773724
0.27966248989 -0.95346003771 0.11212647706
0.38466349244 -0.91263633966 0.13792644441
0.19382080436 -0.95854306221 0.20849856734
0.30903431773 -0.92372709513 0.22624644637
-0.17300052941 -0.91254979372 -0.3704354167
-0.17190785706 -0.84231251478 -0.51084160805
-0.29252505302 -0.86288261414 -0.41205486655
-0.37794029713 -0.02718690224 0.92482250929
-0.28449878097 -0.13822747767 0.94869613647
[...]
CELL_DATA 1498
SCALARS cell_data_0 double
LOOKUP_TABLE default
1.16369853851e-09
1.30263759929e-08
3.83901478159e-10
1.22420356718e-09
4.58678760982e-09
7.91348377589e-09
8.05911766208e-09
1.27913181327e-08
3.59483314961e-09
1.57704596443e-09
7.09477905258e-09
8.51760086836e-11
1.4156471583e-08
1.1715845168e-08
6.12055019079e-09
5.41429852307e-10
1.4892620631e-08
1.68409196884e-08
8.40150087118e-09
1.87583627557e-09
7.28906495877e-09
3.98115375475e-09
3.0089558076e-09
4.96186507191e-09
2.69682240072e-08
1.82999490679e-09
2.58596432103e-09
1.9512868801e-08
7.31827243935e-10
2.82750550407e-09
5.86815341572e-10
7.70696177413e-09
6.4268667745e-10
1.68645268139e-08
1.51626917995e-08
6.87316344645e-09
3.39655883006e-08
4.0031302669e-08
2.35591101755e-08
1.42875011203e-08
1.60088751497e-08
5.30330368491e-09
1.20094387891e-08
1.33054900766e-08
9.67331945882e-10
3.94190105006e-10
1.61387420988e-09
1.06882162797e-09
8.4424819721e-10
1.54813878425e-09
3.52887708443e-09
1.23408758359e-08
1.27333599684e-08
1.01136261388e-08
9.82483255271e-09
2.87948865896e-09
3.86813233382e-08
1.01484951574e-08
1.04128624517e-08
1.81790197283e-09
3.14720679509e-09
7.86585649739e-09
3.29153532905e-09
7.79618268083e-09
6.54002949669e-10
2.30767535882e-08
4.39586634685e-09
3.56474943151e-09
4.21433803068e-09
1.59752781693e-08
3.70109215378e-09
1.49064621901e-08
1.07482837766e-08
4.75544615112e-09
1.03066952883e-09
6.23689344353e-09
1.42833303656e-08
1.74415740415e-08
8.69484776028e-11
2.19520558075e-09
1.49247924678e-08
1.84177542391e-09
3.32435668908e-09
1.05075487857e-08
1.18946288872e-08
5.81084895338e-09
1.33005181388e-08
7.54933260717e-09
9.77877088311e-09
6.32795426117e-09
4.21128696576e-09
1.13859280034e-08
3.68847071658e-09
8.60187172432e-09
6.11680492844e-09
7.08135956616e-09
6.32565511977e-09
3.35144935272e-09
6.85685387858e-09
1.42354026771e-08
4.22036056615e-09
3.53129891331e-09
1.50893523036e-08
3.46351216357e-09
1.03404912169e-08
1.15400450865e-08
4.36412274244e-09
2.03120808142e-09
6.41884658529e-09
9.18661248186e-09
7.98721908077e-09
7.44521509046e-09
1.45774656892e-08
9.50122822653e-10
1.59189505506e-08
8.41189790214e-09
7.19463808259e-09
7.0049792167e-09
2.48476292512e-08
9.41334927214e-09
5.19744089839e-09
6.0349515715e-09
5.23446321099e-09
5.65763923416e-09
1.02879202204e-08
7.25078146389e-10
6.27872240729e-09
1.14181637796e-08
3.42690932711e-09
4.59853560964e-09
9.30450580136e-09
3.98076937675e-09
3.19365426399e-09
2.35010485756e-09
6.67043939219e-09
4.0798323698e-09
4.66391206389e-09
8.46712092424e-09
8.85025917926e-09
5.96675528158e-09
7.72501833464e-10
4.82864257193e-10
3.06639773927e-09
3.11157086756e-09
3.69597867602e-09
1.40840812293e-08
1.44806820207e-08
1.31202989905e-09
1.3207030005e-09
5.41482396117e-09
8.47572166617e-09
6.69515531605e-09
3.44296037447e-09
3.8740224184e-10
4.47470842753e-09
1.12851035122e-08
3.73964085663e-09
3.64955443977e-09
3.17600250035e-09
2.16310956255e-09
1.55347717712e-09
6.79787753413e-09
7.5060675318e-09
1.08608054801e-08
1.19223643324e-08
7.9834824936e-09
9.60350470871e-09
7.15559126371e-09
3.10075625957e-09
2.03217332502e-09
6.56919020868e-09
1.02978034389e-09
5.86097685666e-09
3.89124520034e-10
3.57086651565e-09
7.79652234797e-09
3.23535878241e-09
5.76694901801e-09
4.10218036877e-10
8.22541829367e-09
2.23872868214e-10
1.51885466203e-09
1.14862253738e-08
4.38661897602e-09
1.27686684034e-10
6.79362683557e-09
1.99996164649e-08
2.91283950964e-09
1.64320816746e-09
1.07683891946e-09
7.01071652045e-09
9.71226776078e-09
6.85052222438e-09
3.10605193309e-09
6.33553967797e-09
8.57478405671e-09
5.33528051643e-09
1.13950785916e-09
3.18525403135e-09
9.83326739282e-10
1.23151824706e-10
1.25537198936e-08
4.39867460164e-09
5.56424019869e-09
6.26655000317e-09
1.09660316037e-08
5.92218363035e-09
2.29489856269e-09
3.06306923235e-09
1.19250179639e-08
1.01650565717e-08
2.33466885532e-09
2.67950286999e-09
8.41376169697e-09
3.52735611229e-09
9.24266438531e-09
5.74028808745e-09
9.28789603678e-09
9.74560498735e-09
6.5900341351e-09
4.24061118637e-09
2.22515236892e-09
4.39956798803e-09
1.55791152697e-09
7.3326026673e-09
5.09371636618e-09
7.36459533214e-09
4.18056284313e-10
7.46747519751e-09
1.04672147995e-09
1.39541609804e-08
5.79026231767e-09
1.02707857944e-08
6.80657336746e-09
2.27942978106e-09
9.6421025469e-09
1.64351854104e-08
7.30962956746e-09
6.61630551016e-09
9.68795562222e-09
9.09220667218e-09
8.34815409194e-10
1.19863248563e-09
3.39631301735e-09
5.80640364437e-09
1.24936069192e-08
1.29580677345e-08
7.27391657112e-09
8.10511655271e-09
6.07760696011e-09
1.51360821801e-08
7.28403223526e-09
1.77142322364e-08
2.2518330349e-09
1.18175574915e-08
4.1712002694e-09
1.19999367216e-08
5.31005742501e-09
1.70842727002e-09
2.62216689875e-09
6.16988803459e-10
1.91425226649e-09
8.34008107616e-09
2.95816944084e-09
3.51419264126e-09
2.76354948898e-09
7.79578286358e-09
5.61906992057e-09
7.40273550406e-09
4.76449981713e-09
3.06840057804e-10
4.44201439823e-09
1.47222379269e-08
5.9269881664e-09
4.02912853048e-09
1.10088898851e-09
6.62953896078e-09
1.74844740504e-09
5.01846681493e-09
9.38958665373e-09
4.03790405973e-09
3.28210962006e-09
1.70368394646e-09
1.4108465208e-08
1.57457115689e-08
5.24698100128e-09
2.7978335632e-09
2.89973023547e-09
3.10599829211e-09
5.38119937842e-09
2.55532576292e-09
1.3428030887e-08
6.14379804941e-09
7.23922785789e-09
4.13875028565e-09
9.32710233092e-09
6.97207184838e-09
7.44523916355e-10
4.19753208428e-09
1.88125454481e-10
3.16926665527e-09
1.23908728105e-08
4.33948423196e-09
1.64250393018e-08
1.3654105238e-09
5.95178248124e-10
1.29644150609e-09
1.612778144e-10
8.00298054558e-10
4.64837590567e-10
6.64869946054e-09
2.2831074566e-09
1.55226851541e-09
3.02104589543e-09
6.56228654167e-09
8.7918777231e-09
7.32815488575e-09
2.61720198241e-09
4.13341936078e-09
5.80740487423e-09
4.61249267231e-09
9.75655209807e-10
1.76013361838e-09
1.02406698818e-09
2.47015181021e-09
4.36500941134e-10
3.62135374801e-09
2.74978783337e-09
4.83005288158e-09
7.7770192017e-10
8.2904618438e-09
1.31789936667e-08
2.46320466038e-09
1.51558606478e-09
1.41940501128e-08
2.09653127635e-09
6.95906377009e-09
9.50769046294e-09
3.76395376259e-09
8.88021015164e-10
1.40106989778e-10
1.9199414404e-09
1.53958758066e-09
9.76106257145e-09
2.35656660094e-09
2.42287529214e-09
1.51814176993e-09
4.55056481368e-10
4.15601065103e-10
1.89982131647e-09
7.27205771012e-09
3.34116109188e-09
5.41204756015e-09
7.98823117985e-09
4.41892271988e-09
1.61515487732e-09
9.11592566171e-09
5.93698807141e-09
5.85922167111e-10
5.06919829658e-09
3.61521936557e-09
1.12861852203e-08
7.44007510728e-09
1.56123720038e-08
3.31557287417e-09
4.19929668473e-09
1.876831173e-09
3.3501239975e-09
5.32852627999e-09
5.19847466306e-10
7.87113425973e-09
3.06925386107e-09
9.21359040863e-09
1.01948558895e-08
5.82720146833e-09
7.33113819188e-09
9.41241211777e-09
6.90294092502e-09
7.39795513889e-09
2.14886441301e-09
6.98118144287e-09
5.82415571472e-09
1.01829670453e-08
2.07653149269e-09
3.15877164927e-09
6.86197532498e-09
7.88499884925e-09
6.3304822621e-09
3.53498335692e-09
1.45791533021e-09
1.00155226644e-09
3.27935411413e-09
9.86730884104e-09
4.32176849238e-09
2.01920839388e-09
3.80290755596e-09
9.10850460352e-09
7.55401288585e-09
5.39167388249e-09
7.08314066388e-10
2.64152978546e-09
2.37810289636e-09
2.86986582477e-09
1.17990252889e-08
2.12296456743e-09
4.14331735137e-09
3.39572111813e-09
2.46542922153e-09
2.68882218518e-09
4.75551410699e-10
4.3294734435e-10
9.69318674506e-09
4.30132223926e-09
4.99608954069e-09
6.02016648946e-09
3.36988848988e-09
1.09079122225e-08
3.27799523309e-09
3.30496644756e-09
7.43720119439e-09
8.12993590931e-09
7.09757001798e-09
1.45924047567e-08
1.09678751359e-09
3.13841165631e-09
1.4205417313e-08
5.43063774896e-09
3.15965038656e-09
1.40269548295e-09
1.85136757083e-09
1.03206022075e-08
1.25263908628e-08
4.86809178017e-09
6.81010180228e-10
5.11031003196e-09
1.0536278038e-08
1.48719964841e-08
4.46597345251e-09
1.00346455746e-08
6.14596223845e-09
3.56527757848e-09
3.47089210705e-09
1.06387139585e-08
7.5200023624e-09
7.64987422247e-09
5.5045569072e-09
8.63339071666e-09
9.74224620535e-11
1.09745154162e-10
1.03667340705e-08
9.46214848841e-09
2.11803428012e-09
2.22556040218e-09
6.65999353474e-09
7.21385819554e-09
2.99655610904e-10
1.05444874183e-08
4.93826561632e-09
1.32770675058e-08
1.10196403304e-08
1.33099946483e-09
9.16073005501e-11
6.55511266141e-09
3.21817345004e-09
9.48665969853e-10
1.90172094659e-09
7.29850390531e-10
7.09282621167e-09
5.63686625984e-09
7.33872702893e-09
3.27353417584e-09
7.88268414514e-09
4.87971917732e-11
1.0778048208e-08
1.09465817023e-09
5.73210672154e-09
5.59558912765e-09
9.71802399714e-10
1.69188028363e-09
2.58906760883e-09
1.51807869717e-09
3.16918534682e-09
1.56395699051e-09
1.04148787727e-08
2.74853127324e-09
2.9315684891e-09
4.48360285101e-09
5.912851636e-09
1.46801651916e-11
1.33654507543e-09
1.50919196481e-09
1.40604296588e-09
2.40732986427e-09
3.80836356896e-09
7.79630020343e-09
6.1962528119e-10
2.70885037154e-09
1.93307267146e-09
1.68708724173e-09
8.84340819706e-09
3.63205393564e-09
6.48344129794e-10
7.02282008588e-09
9.44008832057e-10
3.95888619363e-09
7.30794036959e-10
1.00054467802e-08
1.9361448818e-09
1.3037346781e-08
5.48714475552e-09
8.49524733506e-09
3.32333139679e-09
4.14018396881e-09
2.36505996649e-09
2.08362532059e-09
8.40836877914e-09
1.17653390447e-08
8.05013894717e-09
2.1660988366e-09
2.13216974792e-09
1.52351422707e-09
2.73243787031e-09
2.08954437606e-09
1.52918300435e-09
6.44428837353e-10
1.45906486902e-09
1.31957397434e-08
1.29651247912e-10
2.37881208672e-09
4.12602760414e-09
6.59011059615e-09
3.60497098965e-09
1.58075272176e-09
6.34312326144e-09
6.68549453035e-09
8.68423725089e-09
3.53276564632e-12
2.12426190206e-10
8.66666925502e-10
2.36882685249e-09
5.22295869835e-09
1.40073276096e-08
1.29953436123e-08
8.07383557961e-09
9.941649214e-09
8.74609795141e-09
8.53298753491e-09
3.54673755665e-09
9.98300136857e-09
1.66849110679e-09
6.95879134648e-09
1.84332897026e-09
1.72440840554e-09
8.73752734148e-09
5.52406513926e-09
1.71060057009e-09
8.46523850045e-11
5.61670042065e-09
1.14976738982e-09
6.08367537876e-09
6.45340422925e-09
3.0115290268e-09
4.32161612142e-09
8.77258489796e-09
1.23343901599e-08
9.05753218637e-09
1.51139119839e-09
1.23583304864e-09
1.39746347333e-09
4.21950206578e-09
4.98448812739e-09
2.83415930778e-09
1.44178905022e-09
3.59942375261e-10
4.81631561348e-11
2.28825431236e-09
4.22469905453e-09
6.85301904296e-09
1.17833453396e-09
4.55729335692e-09
1.94057465494e-09
4.4401007086e-09
2.80465321469e-10
3.87652652526e-09
6.32736185356e-09
6.0663053577e-09
1.10977757631e-08
5.79748829413e-09
5.07361605959e-09
5.36034070323e-09
2.40067631724e-09
4.62206591674e-09
8.31242750082e-09
2.87987678967e-09
5.73553365029e-09
1.13019074396e-08
5.6028099555e-09
1.72459775918e-09
2.87068201689e-09
5.07208243586e-09
9.13832475964e-10
5.72448548025e-11
1.51842462205e-09
3.70827011049e-09
1.85581153638e-09
1.04754297786e-08
2.7926849477e-10
5.11384067936e-09
8.81513814232e-09
9.96585348069e-11
1.468207859e-09
4.46569846234e-09
3.34660576143e-09
3.59197693637e-09
4.31808412112e-09
1.66379319037e-09
1.20211401244e-09
1.84801568575e-09
7.7571601725e-09
5.35396941709e-09
5.90403883504e-09
9.06370153838e-10
2.50469937187e-09
3.92907824377e-09
2.6313991231e-10
1.76612171371e-09
1.13419171846e-09
7.11714789638e-10
4.73253427003e-10
8.96104747864e-10
2.04491088329e-09
4.41825403057e-09
2.04923632461e-09
1.50875265111e-08
9.25388766248e-10
2.75775005557e-10
2.10575101274e-10
3.49726540178e-09
3.80594860928e-11
2.43334850925e-09
7.85258708556e-09
3.57145376704e-09
6.34271539447e-09
3.45786481151e-09
5.17543963373e-09
3.49462284453e-10
4.0384571562e-09
4.26665572455e-09
1.21699916978e-09
4.68457376652e-09
5.10359460538e-09
1.11281545251e-09
5.86480615507e-09
1.10926655894e-08
2.75475355686e-09
5.84652032609e-09
5.67522436867e-09
2.1108334986e-10
1.58560422963e-09
3.93601582439e-09
1.34647688254e-10
1.34339662138e-08
1.85154383813e-08
3.15728007569e-09
4.85360150041e-09
8.8264588908e-09
1.14747642064e-08
3.45097154486e-10
3.18937983709e-09
1.34812089987e-09
1.17600654877e-08
4.30510759972e-09
5.54496073026e-09
2.06384547249e-09
2.57726229954e-09
2.09941611492e-09
7.54325490197e-10
1.46040893016e-09
1.47322548712e-09
4.78810689647e-09
2.9554927302e-09
2.59699507547e-09
1.84265708484e-09
6.71227182685e-09
6.73112175902e-09
5.37060099389e-09
9.29949069337e-09
2.85570249273e-09
4.71332207306e-09
3.42038220649e-09
8.64201877228e-10
4.51676741423e-09
9.59798037204e-09
1.39648557153e-08
6.60758303833e-09
6.88030287691e-09
2.57634706475e-09
1.45347262943e-09
1.14702759285e-08
8.06504442911e-10
1.07999117614e-09
4.51292266523e-09
1.03675395267e-08
3.29156232421e-09
1.07047164337e-09
1.45821760641e-08
5.89945662653e-09
2.79508372562e-09
1.85409182313e-09
5.08666123547e-09
1.28579477649e-08
5.37118289814e-09
3.03972138959e-09
4.53137800035e-09
5.59051502234e-09
1.40548648453e-09
1.1897443147e-08
1.45229026067e-09
9.47918796337e-10
4.34596840835e-09
1.70619925253e-09
6.07794632834e-09
7.50905060282e-09
4.97274339489e-09
8.07891639219e-10
1.51682250283e-09
1.70454059245e-09
1.64173083462e-09
1.73418769654e-09
6.72001113321e-09
9.82691463654e-09
4.83130817591e-10
5.5831327522e-09
1.71476827504e-09
6.52815310401e-10
2.56475560374e-09
8.29300424043e-10
5.52858886538e-09
2.29904096638e-09
2.83640204113e-09
1.97927613351e-09
2.88301628798e-09
1.90088167187e-09
2.99145512817e-09
3.26402629068e-10
1.1356999286e-09
3.10970368107e-09
3.45465374078e-09
2.68812893049e-11
1.85027194995e-09
1.01065458785e-09
1.4239527112e-10
1.7973108437e-09
2.31607745665e-09
3.69949315539e-10
8.56603882192e-10
1.18653738595e-09
2.60111875945e-09
7.49314717397e-09
2.43453448634e-09
7.22102786089e-10
1.6351073653e-08
1.1748921808e-08
5.47602293812e-09
1.87060855174e-09
6.72263798076e-11
1.102844349e-09
2.89729408938e-09
2.41842882125e-09
1.26445097642e-09
3.77742465586e-11
1.4737725017e-09
2.41733020974e-09
3.99917959879e-10
2.87774686063e-09
3.39613863577e-09
4.02239467723e-09
1.21194092114e-09
8.9209169656e-11
1.1159426527e-09
2.74345397923e-10
2.04801247395e-09
8.02222836256e-10
5.40237734364e-10
4.37784585565e-10
7.11661930558e-10
5.95052508204e-10
2.42926661421e-09
2.19346604774e-10
1.15724943033e-09
3.45572107513e-09
1.25336119586e-09
4.80709068242e-09
1.71455889562e-09
5.07381445435e-09
1.31000686783e-08
1.76577615629e-09
5.39559075432e-09
1.87982456929e-09
6.88815903803e-09
7.19563092506e-09
7.99345280811e-09
1.38860418917e-08
7.86423419275e-10
2.64884768025e-10
2.96359534693e-09
4.77400698335e-09
6.42973396726e-09
9.16590220857e-09
3.46837619243e-09
1.93841107929e-09
5.8063570932e-10
5.64771898044e-09
1.26340792007e-08
8.59510478719e-10
1.80002831529e-09
2.35433492551e-09
3.04978530772e-09
1.39600484183e-09
1.78568416655e-09
3.37700755629e-10
1.59739129676e-09
8.32867125733e-09
1.05882604277e-08
2.02368173713e-09
5.1912230687e-09
5.167397233e-09
7.57218386716e-10
2.68096263068e-09
2.71692440215e-09
3.11690540531e-09
1.07208412782e-09
2.95394351975e-09
4.45949981773e-11
1.01100902849e-08
1.16390063565e-10
2.37860560828e-09
5.72794175956e-09
2.86624888863e-09
2.93379627056e-09
3.98810639124e-09
5.26394151378e-10
2.30298002587e-10
2.6568311157e-09
2.87915374421e-09
5.40942526079e-09
7.9665714353e-10
6.20088012011e-10
1.1331353688e-08
2.02361979112e-09
5.00747708792e-09
7.49901173088e-09
4.84627190761e-09
5.57540879068e-09
1.41427607245e-08
1.19871600438e-09
2.41213256682e-09
6.10012311314e-10
6.9257358793e-11
5.56654368737e-09
6.65782766412e-09
7.34572955338e-09
5.47182161608e-11
5.86703543764e-09
5.25688737889e-09
1.9613761216e-10
8.40470028216e-10
1.13850586772e-09
8.74296609245e-09
3.8910160576e-10
1.01172240056e-08
2.86575378019e-09
7.39630239199e-09
3.81137474239e-09
4.19276405766e-09
4.66254240075e-09
2.42274278698e-09
1.85617859707e-08
8.3413786014e-10
9.42445826071e-09
7.70241955113e-09
2.69764157619e-09
9.03985838189e-09
2.53473299039e-09
1.44595566701e-08
5.64558619887e-10
4.27413606438e-09
2.19546848788e-09
4.07014138929e-09
2.17750956149e-09
2.7110534515e-09
1.17607700522e-09
9.37925678435e-09
1.93180596381e-09
6.72940080532e-09
1.864256378e-09
4.68362331005e-09
9.50218053489e-09
2.28132859356e-09
5.99985730395e-09
4.61078292376e-09
7.60932211593e-09
4.22585995897e-10
4.98414188093e-09
3.1914362149e-09
7.62250155409e-10
7.28175257171e-09
1.64715541655e-11
4.33836593182e-09
5.16917731901e-10
5.51459188538e-09
4.22423606135e-09
9.97394674405e-09
3.14658750542e-09
8.89839285623e-09
6.60935254393e-09
9.39118665581e-10
3.01324076204e-09
6.08290632135e-10
5.06434751121e-10
4.06563209192e-09
6.48601915869e-10
5.78707396776e-09
4.92171076416e-09
1.05786886459e-08
1.04138582741e-08
2.63910955979e-09
5.2089504383e-09
4.81313160688e-09
5.25930415474e-09
4.75810537008e-09
1.15698287444e-08
9.53208675522e-10
2.19167817422e-09
6.28220434707e-10
1.53791188807e-09
1.14866311863e-09
1.20462658684e-08
4.31401302165e-09
3.0295931776e-09
6.50779657721e-09
6.86837742272e-09
1.96188012784e-09
2.08640247716e-10
1.11233507336e-08
3.22994983389e-09
6.82920463439e-10
7.38985118909e-09
2.37448059135e-10
2.00421969769e-09
1.11731801873e-08
9.71950582772e-10
7.85378160813e-09
1.30297211263e-09
1.85070314978e-09
4.39890637529e-09
2.11764515389e-09
1.12521585862e-09
4.09947983396e-09
1.91573315131e-09
5.39513136667e-09
2.95664788898e-10
2.8244533692e-10
4.46496995944e-09
2.19234617124e-09
8.60635461968e-10
1.01219065835e-08
4.39941322769e-10
2.12328377431e-09
1.3305927303e-10
2.20930902683e-09
5.34713219725e-09
2.40061268645e-09
6.313433615e-10
3.98805231989e-09
2.19839710977e-09
3.68775444045e-09
8.03803464468e-09
1.59791000737e-09
1.36054130714e-08
1.07258260512e-08
4.47566525198e-09
1.84599629614e-09
3.18982760113e-09
1.39569018058e-09
6.78547851769e-09
1.00084787394e-08
1.3869030597e-08
2.24554065229e-09
4.80814524571e-10
3.28767229158e-09
1.90873416987e-09
8.96151380399e-09
1.02469846683e-10
3.09879803582e-09
1.44884028995e-09
5.44312867982e-09
3.82143436553e-09
3.47099863226e-09
7.63446982607e-10
3.78982293964e-09
6.04546037288e-09
5.40213594011e-09
2.8779180939e-10
1.6360451712e-09
1.54122327597e-10
1.7554502843e-09
1.38778658604e-09
6.7157247276e-09
8.91228331769e-10
2.20819900783e-09
2.66157290701e-09
7.78466129718e-10
3.35752602011e-09
3.8100575381e-10
3.35163265423e-09
7.88474138295e-09
5.71385158586e-09
4.18075354185e-10
9.32341655391e-11
4.74308093147e-09
4.0086364393e-09
4.00338051075e-10
2.87529839498e-09
1.92718261056e-10
2.79228529803e-09
1.08545555527e-09
6.12477366644e-09
2.50002895195e-09
1.36890294752e-08
4.25673413835e-09
9.77729690395e-09
5.9047810968e-09
5.31271109515e-09
1.91789814264e-08
1.26759718661e-09
5.65837666879e-09
3.56914147169e-09
5.62957566229e-09
8.13105494942e-09
1.05221802026e-08
8.72078748394e-09
7.56503130069e-10
1.34625579844e-09
8.96326863908e-09
3.15820222463e-09
2.97900869754e-09
5.84827612962e-09
7.40096342576e-09
9.38170350885e-10
2.84870727805e-10
1.33659721738e-09
6.70159941675e-10
8.71905507698e-09
1.58262763763e-09
1.40109502686e-09
1.30679717093e-08
1.69317210944e-09
3.31584405128e-09
6.31830209528e-09
6.70355700158e-10
1.85704713425e-08
7.05317542351e-10
3.04259800204e-10
3.45310979046e-10
4.76025351922e-09
4.94226409934e-09
3.59018643754e-09
1.811688541e-08
7.12998906951e-09
2.80438825004e-09
5.7718876877e-09
2.36494736777e-09
2.78024642689e-09
6.78277602122e-10
1.17665209816e-09
3.19238213042e-09
3.85826357908e-09
2.78359834099e-09
1.94135376652e-10
1.69023842412e-09
2.31475766145e-09
3.0481863484e-09
3.23554676466e-09
2.94526324234e-09
8.2067993735e-09
8.85798958853e-10
2.36412636979e-09
6.61616685466e-09
9.24742703046e-09
9.98671636452e-09
3.78062692509e-09
3.26354671669e-09
1.8480868336e-09
4.90720388464e-10
8.55038010325e-10
5.96320876321e-09
4.43494159082e-09
1.12314341459e-09
1.17206875694e-08
2.73533921069e-10
7.036893057e-10
4.44416889169e-09
2.34176718499e-09
2.31941716322e-09
5.52204353224e-09
2.79508440872e-09
1.75226948125e-09
2.18455922467e-09
9.56146692843e-09
8.656167221e-09
1.20344993975e-09
9.77749094508e-10
3.04574601859e-09