# vtk DataFile Version 3.0
File Name: Molecule/sphere_cent/sphere_cent_0-s31.vtk
ASCII
DATASET UNSTRUCTURED_GRID
FIELD FieldData 1
TIME 1 1 double
0.0
POINTS 3530 double
-0.5801730752 -0.15747126937 0.79909175634
-0.51134419441 -0.20053184032 0.8356385231
-0.53915321827 -0.094108484685 0.83688950539
-0.69617664814 0.38329181075 0.60696566105
-0.70658522844 0.30134406686 0.64024931192
-0.65223163366 0.3521964252 0.67119282484
0.96543478966 0.21264502406 0.15071219206
0.98312479258 0.14946499467 0.10511906445
0.97072267532 0.23150537908 0.063872329891
0.32895284891 -0.90424627066 -0.27213928103
0.24145969748 -0.92253768444 -0.30092328787
0.33441820741 -0.87180536985 -0.35793274641
0.35968899727 -0.82597690821 -0.43400233984
0.27340587974 -0.850073874 -0.45012700558
0.32574388385 -0.80223828554 -0.50032073259
-0.14590249956 -0.89221799374 0.42672115564
-0.22165250778 -0.90444755554 0.36445790529
-0.13057015836 -0.93186849356 0.33843511343
0.97053658962 -0.23790347576 -0.038540534675
0.98880124092 -0.14846839011 -0.01298350282
0.97513246536 -0.21449545026 0.054243925959
0.98526138067 -0.14296761155 -0.093577444553
0.98948788643 -0.055733796209 -0.13338111341
0.99582237005 -0.07375253737 -0.05331871286
0.97685647011 0.055833972991 -0.20647774637
0.9556966424 0.06057811901 -0.28782364726
0.96567177773 0.12325368077 -0.228283301
-0.33036148548 -0.47535014153 0.81541675329
-0.2512858212 -0.42905953526 0.86761516333
-0.3438603282 -0.39629650116 0.85127836466
0.71543854475 0.6686797142 0.20180265605
0.71412730217 0.64321064949 0.27622056007
0.76488673687 0.6043035984 0.22292003036
0.33005008101 -0.29812845588 -0.89537870884
0.38885754347 -0.36342021823 -0.84654176235
0.30485135317 -0.38853296638 -0.86949419975
-0.81946957111 -0.38515979052 -0.424405545
-0.85614931583 -0.38673684001 -0.34238064289
-0.86404889822 -0.31091225147 -0.39571690559
-0.93092924356 -0.31160506606 -0.19034679234
-0.91291099787 -0.30250912905 -0.27339094877
-0.88860476017 -0.37540370226 -0.26334637403
-0.94383645058 -0.23669946194 -0.22999086976
-0.88793820143 -0.31913390756 -0.33115589619
0.82924520969 0.14496178925 -0.53967195749
0.8390365839 0.22496542335 -0.49532678723
0.87681978941 0.15141737461 -0.45585155487
-0.052584424615 -0.43657067418 0.89794576168
-0.092458583415 -0.50030362606 0.86087948084
-0.0039131953381 -0.49008253217 0.87164998055
0.83560878038 -0.4115331769 -0.3634968996
0.86771827936 -0.33253473043 -0.36935809255
0.87307202816 -0.38195198774 -0.30292510986
0.05053768307 -0.98378443718 0.17190389335
0.055051434785 -0.96519166231 0.25568178296
-0.019528128207 -0.97223627567 0.23319786787
0.029015697539 -0.94710338116 0.31958779693
0.10806980729 -0.93667399883 0.33309456706
-0.64316344261 -0.11003388464 -0.75759315491
-0.61860889196 -0.1623186022 -0.76877951622
-0.67780905962 -0.1789239496 -0.71313410997
0.79592639208 -0.29800277948 -0.52696740627
0.74842572212 -0.29151919484 -0.59564119577
0.79358184338 -0.22802625597 -0.56411445141
0.7223533392 0.35769492388 -0.59182101488
0.72335469723 0.40794828534 -0.55707329512
0.75616085529 0.35096865892 -0.55221498013
0.56482350826 -0.44282734394 -0.69631671906
0.54278588295 -0.53350478411 -0.64863681793
0.49862253666 -0.49142169952 -0.71404218674
-0.30780354142 -0.81713712215 0.48732361197
-0.22181814909 -0.85298740864 0.47239902616
-0.25104770064 -0.80162662268 0.54253685474
-0.16904135048 -0.82051622868 0.54583829641
0.58015060425 -0.79143643379 0.19248469174
0.63755381107 -0.75856995583 0.13400374353
0.65127229691 -0.72735404968 0.21625737846
0.65822702646 0.70919948816 0.2525049448
-0.78703778982 -0.46766468883 -0.40224525332
-0.76754790545 -0.43963387609 -0.46635699272
-0.78578448296 -0.37137019634 -0.49458146095
-0.83451282978 -0.30026945472 -0.46195092797
-0.87014055252 -0.23019066453 -0.43559083343
0.761926651 0.25932136178 -0.59345549345
0.79961967468 0.27311086655 -0.53477597237
0.79871582985 0.20853996277 -0.56437236071
0.5655528307 -0.81462264061 0.12704661489
0.83101505041 -0.32202714682 -0.45351889729
0.86641669273 -0.26580950618 -0.42264184356
0.83586418629 -0.24976104498 -0.48881715536
0.75598657131 -0.33945268393 -0.55968666077
0.7821944356 -0.36657816172 -0.50377976894
0.50277727842 0.39862149954 -0.76701027155
0.4644497335 0.48007047176 -0.74417251348
0.53897714615 0.44669285417 -0.71411848068
0.53850209713 -0.14178991318 0.83060783148
0.58558815718 -0.20579409599 0.78399789333
0.61920666695 -0.11749450862 0.77638685703
0.65563094616 -0.19458144903 0.72957843542
-0.59891456366 -0.71363300085 -0.36333581805
-0.60510486364 -0.74408304691 -0.28307744861
-0.65057212114 -0.68996602297 -0.31717088819
0.60081893206 -0.066107846797 -0.79630255699
0.68374055624 -0.017554398626 -0.72952151299
0.6539247632 -0.1009439975 -0.74944573641
0.75855261087 -0.080229192972 -0.64658325911
0.74229550362 0.026281885803 -0.66920620203
0.68281066418 0.090900234878 -0.72492033243
-0.44511055946 -0.62617516518 -0.64011490345
-0.45578661561 -0.6937790513 -0.55756849051
-0.52809250355 -0.63312488794 -0.56588697433
0.050907149911 -0.016358586028 0.99830907583
0.15105690062 0.0071408795193 0.98844915628
0.091247975826 0.067574329674 0.99352753162
0.18927749991 0.095222257078 0.97729855776
0.25391200185 0.029124032706 0.96678513288
0.95214229822 -0.066261649132 0.29838404059
0.94075477123 -0.15788477659 0.30005165935
0.97013491392 -0.1024229005 0.21983025968
0.67173457146 0.74070936441 -0.0092294327915
0.67031568289 0.73855191469 0.07114187628
0.71816247702 0.6949338913 0.033707968891
0.83910876513 0.53322136402 -0.10748810321
0.78471618891 0.61021929979 -0.10883593559
0.81804835796 0.57354611158 -0.038368005306
0.4758220017 0.84786838293 0.23375734687
0.40059360862 0.89794254303 0.18216976523
0.39255318046 0.88294017315 0.25744384527
0.49133557081 0.85870724916 0.14560681581
0.31205016375 0.92700719833 0.20797376335
0.3270560205 0.93808931112 0.11401294917
0.41218432784 0.90502893925 0.10498154908
0.72079795599 0.30279675126 -0.62349420786
0.74841958284 0.32053056359 -0.58045899868
0.71924710274 0.24271330237 -0.65095889568
0.73309844732 0.15033839643 -0.66310435534
0.68495160341 0.20351012051 -0.69957089424
0.64104086161 0.36635345221 -0.67439597845
0.6177650094 0.32173150778 -0.71753174067
0.57658356428 0.3798981905 -0.7233466506
0.55831372738 0.31155046821 -0.76888626814
0.59055107832 -0.33507481217 0.73410093784
0.5355296731 -0.33527976274 0.77508974075
0.54754018784 -0.40544989705 0.73194354773
0.53543365002 0.79655635357 0.28071394563
0.55199044943 0.80848491192 0.20396448672
0.61759829521 0.76242429018 0.19305443764
0.59418386221 0.75986039639 0.26374733448
0.57457220554 0.80816721916 0.12908510864
0.5322239399 0.84433710575 0.061618883163
0.45952811837 -0.5761294961 -0.67593115568
0.50185030699 -0.61476194859 -0.60844373703
0.58150690794 -0.57906126976 -0.57140344381
0.63590216637 -0.50864225626 -0.58031094074
-0.52351337671 -0.55314493179 -0.64802992344
0.81455308199 0.49511888623 -0.30208149552
0.76869529486 0.53024888039 -0.35760271549
0.7630559206 0.58785551786 -0.26855760813
0.70530313253 0.63496172428 -0.31491619349
0.70947635174 0.65932971239 -0.24861322343
0.59858459234 0.74068182707 -0.30510869622
0.58018964529 0.712500453 -0.39460191131
0.54256337881 0.76647257805 -0.34368431568
-0.79561465979 0.50867658854 -0.32863950729
-0.84232115746 0.45163738728 -0.2941044867
-0.79932808876 0.54066735506 -0.26217073202
0.76929658651 -0.39843812585 0.49939796329
0.69720232487 -0.44711381197 0.5602735877
0.73460954428 -0.48313117027 0.47636193037
0.45130094886 0.076682254672 -0.88906478882
0.40438678861 0.18597264588 -0.8954693079
0.4848317802 0.16300404072 -0.85928243399
0.46329167485 0.25296372175 -0.84930217266
-0.67672550678 -0.26315015554 0.68758940697
-0.73309051991 -0.25494855642 0.63051921129
-0.68668174744 -0.32927551866 0.64777350426
-0.75359803438 -0.31584239006 0.57644128799
-0.61425614357 -0.30958920717 0.7258015275
-0.72512632608 -0.39202278852 0.5656979084
-0.77907639742 -0.36504727602 0.50968754292
0.57461160421 -0.77087235451 0.27487412095
0.49775332212 -0.83204084635 0.24479040504
0.8105956316 0.44664472342 -0.37791919708
0.51783245802 -0.83731758595 0.17382983863
-0.10149896145 -0.56744945049 0.81708449125
-0.022725611925 -0.56047600508 0.82774710655
0.37364348769 -0.060298617929 0.92558145523
0.43993061781 -0.057181283832 0.89619630575
0.41857299209 0.0079952478409 0.90814524889
0.7466121316 0.6389502883 -0.18518652022
0.71360754967 0.68820941448 -0.13072595
0.65031039715 0.74377036095 -0.15453249216
0.68465799093 0.70113259554 -0.19908191264
0.79664462805 0.57704913616 -0.17991089821
0.50633132458 -0.47107288241 0.72230029106
0.48183497787 -0.44219073653 0.7564881444
0.6123431921 -0.40409508348 0.67944097519
0.61316215992 -0.48438361287 0.6239605546
0.55957686901 -0.46819588542 0.68383681774
0.65753591061 -0.51694476604 0.54810082912
0.53383463621 -0.58030182123 0.61503922939
0.4783500433 -0.5823931098 0.65706241131
0.50464582443 -0.62747728825 0.59292501211
0.52218568325 0.83135062456 -0.19017976522
0.47170266509 0.8723667264 -0.12828275561
0.55439573526 0.82585579157 -0.10247572511
-0.67208439112 0.25415822864 -0.69559526443
-0.69532907009 0.14093624055 -0.70473694801
-0.73048102856 0.2416151166 -0.63876837492
-0.78935521841 -0.038090091199 -0.61265575886
-0.76889950037 0.05870578438 -0.63666981459
-0.74625813961 -0.034180305898 -0.66468530893
-0.71476870775 0.023697033525 -0.69877123833
-0.63740891218 0.74530231953 -0.19451548159
-0.70831811428 0.68986439705 -0.14949926734
-0.65581989288 0.74812078476 -0.10106026381
-0.70191073418 0.7097465992 -0.056793808937
-0.65375030041 0.75658553839 -0.013707532547
0.39573252201 -0.18456639349 -0.89932787418
0.35281705856 -0.11659745127 -0.92835509777
0.42951434851 -0.098615936935 -0.89766067266
-0.81998306513 0.54153120518 0.18535743654
-0.77452290058 0.58371251822 0.24242627621
-0.77567362785 0.61071711779 0.15872433782
0.43101525307 0.26774737239 0.86168801785
0.37465465069 0.20926141739 0.90318387747
[...]
CELL_DATA 7056
SCALARS cell_data_0 double
LOOKUP_TABLE default
5.21335816547e-10
7.49799662044e-10
1.61898100923e-09
1.54711624826e-09
1.65285962705e-09
1.31449732401e-09
9.23889604726e-10
1.73565421066e-10
5.62782837364e-10
1.3345967047e-09
1.65460364275e-09
3.97954775089e-10
2.06954077774e-09
2.33688363897e-09
3.25757765976e-10
6.58469211518e-10
4.08557593795e-10
1.91141317717e-09
2.06089229265e-10
7.18097946423e-10
7.88116374099e-10
7.90251421466e-10
4.34317211356e-11
1.2292742452e-09
1.92659415006e-09
1.46152659406e-09
2.14934224471e-10
2.06373864932e-10
1.13814309879e-09
3.64365014563e-09
1.33306935027e-09
2.82891944548e-10
1.51125176687e-09
8.81193670948e-10
1.19028748667e-09
9.2608881435e-10
4.21308518049e-11
1.07955676601e-10
1.2438399684e-09
2.84216911354e-10
4.66635806313e-10
4.72624390425e-10
3.10959877659e-10
9.36497161671e-10
1.89501152062e-09
5.77570631077e-10
1.00714920361e-09
2.75506685757e-09
7.56854139492e-10
3.29055728707e-10
5.28480744727e-10
2.72376326471e-10
1.60208312572e-09
5.52410891381e-10
8.59406780796e-10
6.24368098275e-10
5.28812163687e-10
1.04701979323e-09
6.71324846259e-10
1.55264085856e-09
5.87214538524e-10
1.18630374923e-09
3.37946633289e-10
3.79282452266e-11
2.17683610497e-09
3.52622889064e-10
1.32376943528e-09
1.36891797303e-09
2.27220875697e-12
8.12664065248e-11
6.95957839297e-10
2.12832895124e-10
1.01680340935e-11
9.07640562596e-10
8.19785169541e-10
8.58237349578e-10
7.12916816731e-10
9.53385289204e-11
1.22640743484e-09
1.07159432731e-09
1.98319926845e-09
9.59324866101e-10
4.02182938274e-10
5.31021277173e-09
2.33546159942e-10
2.14954716654e-10
2.61190381321e-10
9.84284712127e-10
2.0281256908e-09
5.82744074165e-10
1.12721996868e-09
1.42119452168e-09
8.47553179852e-10
9.00234431179e-10
1.20719497831e-10
9.67529161641e-10
1.89001471944e-09
2.65811467032e-10
4.33691256463e-10
1.28700731806e-09
1.84223412678e-09
1.47103269219e-10
7.01695854602e-10
6.69091869509e-10
1.36751081477e-09
7.73288456634e-10
1.28401946941e-09
1.49903880679e-09
1.80936182782e-09
1.86750885714e-09
2.79636671493e-09
7.75268879705e-10
5.98622485171e-10
6.90037961886e-11
8.34393559601e-10
1.31276211201e-09
7.17605075331e-10
6.62721987383e-11
6.90152128422e-11
1.14163245954e-09
4.69795302575e-10
2.33592569721e-10
1.5773596485e-10
1.74444815554e-09
5.55073173519e-10
3.43010962828e-09
2.14969846089e-09
4.28091837465e-10
1.796069914e-09
1.46404534427e-09
8.44960031796e-10
2.27960391292e-09
5.66293034933e-10
3.61643316684e-10
1.43266896418e-09
1.04328566379e-09
1.09999869497e-09
2.78425635236e-10
2.05395546474e-11
1.47944542023e-10
3.03349698956e-10
2.50162653043e-10
3.79818555934e-10
6.92197503115e-10
1.23389652007e-09
3.18379517278e-10
3.29835434007e-10
1.31385020086e-09
1.4756004644e-09
7.10760694778e-11
1.33325058944e-09
3.77584261873e-10
1.54624543013e-09
1.64598585023e-10
1.96545822995e-09
1.02551773403e-09
4.96889836782e-10
1.33847623988e-09
7.41532117783e-10
9.20313196145e-10
6.5830861713e-10
3.38783182405e-10
4.91094787344e-10
8.36743736573e-10
4.06257765316e-10
4.81964315065e-11
8.52949931022e-10
6.21737729694e-10
4.90200118681e-11
9.72122392887e-10
1.19558323253e-09
6.68435237828e-10
1.12866928782e-09
6.85960553825e-10
5.34136533115e-10
2.53578267789e-09
6.66817783094e-10
4.77280448486e-10
3.87884223806e-10
6.34772185312e-10
2.50519299125e-09
9.12124113244e-11
1.13965220546e-09
2.30331114063e-10
1.4977439275e-09
2.43256666806e-09
3.38992121307e-10
1.49878361897e-09
1.38364176731e-09
8.77719288769e-10
6.74047430565e-10
1.36138101237e-09
3.64652749853e-10
7.23467450344e-10
2.83008333334e-10
2.70333029806e-09
2.59691135185e-10
9.90258415952e-10
6.77118478947e-10
1.15486995625e-09
1.24979537498e-09
1.52832854824e-10
8.52457353855e-11
4.70574415551e-10
3.34620376924e-10
9.74597105e-10
1.75330873042e-10
4.64185969774e-10
3.25299542967e-12
1.68407213325e-11
1.36875838353e-09
1.71585716404e-09
1.83721755055e-09
2.05675934993e-09
5.11851985621e-10
3.28569251069e-10
1.36622536213e-09
1.86493873374e-09
6.85606563624e-10
1.06313849308e-09
4.72078782725e-10
5.13847940258e-10
4.28209980937e-10
5.83013841525e-10
1.01819834872e-09
6.55860212973e-10
8.92666362282e-10
1.73515384256e-09
1.08741868149e-09
2.13490070096e-10
2.61078426137e-09
1.93645918623e-10
1.3738069533e-09
1.82167989661e-09
1.62654514238e-10
1.96696898896e-10
1.07541469321e-10
2.20096240992e-10
1.11035440126e-09
1.07158490334e-10
2.43693774581e-10
1.16145615247e-09
3.07133462267e-09
2.90643192315e-09
7.68966211065e-10
4.17876785599e-10
1.31664644977e-10
1.11270140225e-10
1.68320882394e-10
3.71532805169e-10
1.29067539955e-09
8.16597759127e-10
9.94956564456e-10
7.60663592068e-11
6.94696776329e-10
1.08710886057e-09
1.23989465872e-09
1.55941438642e-10
2.9284620674e-10
4.95916705839e-10
2.1609299874e-10
6.14429241311e-10
1.51992137155e-10
1.53067687311e-10
3.2335639665e-10
1.6248304861e-09
1.77329939258e-09
6.71373497096e-10
1.42314930267e-10
1.6819981569e-09
5.11212469437e-10
9.81343093173e-10
2.93425381386e-10
1.51487372892e-10
3.66348993926e-10
7.74202918813e-10
5.96343286862e-10
1.66898337258e-09
2.64690438563e-10
1.73688054302e-10
4.00395530928e-10
9.52649705049e-11
1.15410091855e-09
1.26676891694e-09
7.0345929974e-10
1.46258968798e-09
5.6533518871e-10
6.09780930833e-10
6.54183001234e-10
1.39351273627e-10
7.32682138649e-10
1.59144788172e-09
3.63886623577e-10
1.86575490646e-09
1.20341407053e-10
4.88382792654e-10
5.81385610532e-12
1.26087087691e-09
3.96756927227e-10
4.39728206047e-10
3.10497896846e-09
1.08639358619e-09
6.77625176779e-10
1.11564311558e-09
7.71536853359e-11
7.14095486304e-10
7.81971702383e-10
1.45501431108e-10
6.82114259215e-10
1.78951179406e-09
1.99572973621e-10
6.30294067687e-10
1.45676252352e-09
5.63281369021e-10
4.52674561836e-10
1.13521605638e-09
7.62858009398e-10
1.78108393593e-10
1.44953641841e-10
1.39668515523e-11
4.20437715546e-10
3.78195406319e-10
1.36563482619e-09
6.86749500482e-10
1.29088459896e-09
2.33851077902e-09
8.62197412667e-10
6.95911452721e-10
3.32212009404e-10
1.75387632388e-10
1.04173191297e-10
2.12102044399e-10
7.68839163002e-10
1.52163564856e-10
6.88197310965e-10
4.5364030937e-10
7.25349469901e-10
9.71277757545e-10
4.48586513387e-10
1.32594348965e-09
8.14108755402e-11
6.69108321781e-10
9.10246718657e-10
9.57727037503e-10
7.87925303378e-10
4.15196165466e-10
3.13722987485e-10
4.52258058936e-10
1.02370740548e-09
7.63949936509e-11
1.28566147945e-09
6.77631842703e-10
1.7778895008e-10
2.09119710962e-10
2.85072691593e-10
4.21564792459e-10
3.19162230947e-10
8.64200740888e-11
1.56316306644e-10
6.0617430129e-10
1.03156606813e-09
4.51871708194e-10
1.36311114849e-09
3.85302979558e-10
2.85815941484e-10
2.30151856086e-09
9.6509467581e-11
6.94284775357e-10
7.02581359401e-10
2.34001600973e-09
1.41503203485e-10
1.32868338886e-09
9.50689613102e-10
2.0707184206e-09
8.68841258566e-10
1.36436676318e-10
3.5334178207e-10
7.83484038473e-10
6.83998435519e-10
4.23908694902e-10
2.74739260135e-09
6.19025989957e-10
1.85573721061e-10
1.42851267305e-09
5.32110133882e-10
2.32285083863e-09
5.72221611763e-10
7.12861985144e-10
3.06677459533e-10
8.57677924611e-10
3.7211475757e-10
2.03889558141e-09
1.26382935213e-10
5.19207098607e-10
5.65157217428e-10
4.35120867121e-10
1.00402249008e-10
1.03290909292e-09
1.05646384087e-10
2.4756600685e-09
8.51862973112e-10
1.1202440674e-09
3.47362515693e-10
1.10205521002e-09
4.67838141553e-10
2.65999551661e-10
7.73173361848e-11
1.73869556127e-09
4.35937596765e-10
1.44755870651e-09
1.52583510391e-09
1.19002762448e-09
9.15579847822e-10
1.27904981604e-09
4.16900530286e-10
2.16959801054e-09
9.7148205285e-10
2.13903869467e-09
7.06217732015e-10
1.1919057685e-09
3.04096802315e-10
3.60966812384e-10
1.83828614327e-09
7.35686130745e-10
3.32328229325e-10
8.61888508888e-10
6.53514125029e-11
5.30521587469e-10
7.77194068311e-10
2.59468295464e-10
1.25642954221e-11
1.6753359664e-10
2.82209594726e-10
2.3275461726e-10
3.64780971205e-10
3.90231534547e-09
5.30562476273e-10
3.77411878007e-10
6.61441392496e-10
1.08465048077e-11
3.89457623779e-10
4.06084496386e-10
4.67291395892e-10
6.17069940694e-10
1.25312614229e-09
1.18132019746e-09
2.48869664213e-09
9.63426792628e-10
4.2130617239e-10
2.81103087107e-10
2.28006916672e-10
2.39289005973e-10
2.32612967296e-11
3.22790328827e-10
1.13519177089e-10
3.6972125572e-10
1.04607668996e-09
6.7060875047e-10
1.96887452116e-10
1.71237685876e-09
9.89793843861e-11
4.07569166386e-10
2.4841889959e-10
9.71465211429e-10
4.91961332189e-10
1.19448281577e-09
6.56261712563e-10
1.70941676385e-10
1.57648061189e-09
2.42335240663e-09
1.23749129768e-09
1.12031912048e-09
1.08318890888e-09
8.57545564623e-10
2.37185999057e-09
1.71947386629e-09
9.52605527671e-10
1.55491250705e-09
5.16635999674e-10
1.43812920764e-11
9.87643469764e-10
5.52893849097e-11
1.15123478058e-09
1.96147636419e-09
1.50434468414e-09
3.99270889214e-10
5.21868277361e-10
2.7047936699e-10
2.08750359578e-10
1.3873355925e-09
2.32418437122e-10
2.63924895533e-10
8.28622266597e-10
2.51650746424e-10
5.49580080541e-11
1.54534787299e-10
5.78091239488e-10
1.392891623e-09
1.91301655855e-09
2.72092547688e-09
9.87820237826e-10
1.88994388297e-10
7.60741654755e-10
1.16068918514e-09
1.49992249084e-09
3.79748561613e-10
7.91037040502e-10
1.29772795292e-10
1.81941865949e-09
1.21997462519e-09
4.66354738863e-10
6.46446027456e-10
5.11899867237e-10
4.09738566201e-10
9.37261532354e-10
2.87016545018e-10
6.98087095682e-10
2.24843673074e-10
5.50863383263e-10
2.254289791e-10
2.61503080689e-10
1.82485058112e-10
4.37765084626e-10
1.5227249566e-10
2.22564614577e-10
4.42390384285e-10
3.83041519759e-10
1.49263835518e-09
1.29116249895e-09
1.09103208555e-09
1.30220738988e-09
2.26371343817e-10
5.9753403608e-10
1.67277551813e-09
1.15239849236e-09
1.25669061875e-09
7.39054336649e-10
3.3545020705e-10
5.83332306239e-11
2.83841562704e-10
1.71152906143e-09
1.2816263881e-09
9.50725650698e-10
6.00141994745e-10
7.43352876049e-11
4.78334234139e-10
5.78010822096e-10
1.02743032492e-09
1.33517963976e-09
4.73629638469e-12
5.53188784275e-10
6.2497555851e-10
1.93286645353e-09
1.58511827941e-09
2.00890488072e-10
2.75969363197e-10
3.11509026345e-10
5.63704858977e-10
2.53878255706e-09
1.10798924605e-09
1.84641026239e-10
2.04072725175e-09
1.78429688983e-10
1.60178690469e-09
2.59717434371e-10
4.10857929513e-10
5.47077352688e-10
3.69027686267e-11
1.86598116161e-09
8.91409313645e-10
8.08228871053e-10
4.47454465703e-10
2.33229121579e-10
9.81774678222e-10
1.51578402622e-09
1.04329171266e-09
1.60909239719e-09
1.33085178499e-09
1.46591820532e-09
1.09776319611e-09
8.13005856621e-10
1.18450202053e-09
9.34353380816e-10
5.87047508906e-10
3.03464172969e-11
3.43199864351e-10
3.16445655305e-09
3.48834526832e-10
7.87557170316e-10
1.24633849406e-09
8.71706240069e-10
5.50689181075e-10
1.08020219373e-09
3.79884792838e-10
1.01954952185e-11
6.23100730025e-11
1.96288311948e-09
8.72704113245e-10
4.00191937996e-10
1.55851633199e-09
6.82660460149e-10
1.5115913462e-09
9.35719785186e-11
2.57191531648e-09
7.48047114544e-10
9.31631807231e-10
1.41928182047e-09
1.74701507428e-09
8.35525513556e-12
6.45569704463e-10
9.14118103979e-10
1.9942218798e-09
6.59133758418e-10
2.31738140339e-09
6.2039911227e-10
1.42648365876e-10
5.67382286042e-10
5.89106826423e-10
6.92104008708e-10
9.82609646035e-11
1.04280669896e-09
9.62151463479e-10
9.55035797759e-11
1.93614415509e-10
1.06213261762e-09
4.18583386829e-10
4.81577108027e-10
1.34995188831e-09
5.34883531206e-10
1.65289520957e-10
4.22732825291e-10
6.71770708918e-10
1.096206306e-09
6.23741973595e-10
4.18141887214e-10
2.51801923187e-10
2.68802632097e-10
4.39610222692e-10
9.49641973242e-10
5.03857614069e-10
4.34522844868e-10
3.66298665341e-10
1.11806603151e-09
1.77615542299e-09
4.06666133082e-10
9.8406680021e-10
6.35219105592e-10
6.84836920843e-10
4.79055911716e-10
2.70782656179e-10
6.40313423982e-10
6.60100299575e-10
1.46337257299e-10
1.82175482448e-10
3.04498241846e-10
6.25373595403e-10
7.12465926377e-10
3.86285727956e-10
9.27673623751e-10
1.17308183881e-09
2.41717721081e-10
5.32564056722e-10
7.41735647733e-10
8.39802211659e-10
1.72480119686e-09
5.24931613432e-10
1.54271969973e-09
1.47936520643e-09
9.26091832119e-10
5.80510738899e-10
2.11252100696e-10
1.34362547329e-09
1.7086615278e-09
2.09659243245e-09
1.61539399557e-10
5.48807229272e-10
2.45086498825e-10
5.1850035606e-10
4.2503247223e-10
2.7104062478e-10
1.06016291512e-10
2.37832540036e-10
1.88493615624e-09
3.25550297927e-11
1.69237984007e-10
8.62889159927e-10
1.88225556708e-10
7.0990863383e-11
4.0424344718e-10
1.46036832199e-09
5.64734438009e-10
1.13961657189e-09
1.11366526084e-09
1.45217990657e-09
8.84707198119e-10
8.71825021858e-10
1.16646529308e-09
8.57435269158e-11
6.16197863048e-10
1.33760203661e-09
5.48314883541e-10
2.93072204399e-10
3.40085108773e-10
5.7412575642e-10
5.88965367583e-10
7.99067451724e-10
2.12297757866e-10
1.50162319635e-10
3.38735424486e-10
1.01908911268e-09
6.56889864722e-10
6.23606547631e-10
4.77031435822e-11
3.1306608262e-10
8.27929961892e-12
7.8341994347e-10
1.07421928023e-09
1.59964590443e-10
6.4928702214e-10
2.92665166684e-10
1.50613887508e-10
1.11839850493e-10
1.86298162196e-10
3.85096846794e-11
4.69462210258e-10
8.3671492432e-10
4.74567497556e-10
2.17563354185e-10
7.10051108991e-10
1.13719428223e-10
5.28706686543e-10
8.45041835821e-10
9.19059698937e-10
1.32338532567e-09
1.27570306552e-09
2.87007018938e-10
3.46727530285e-10
5.04300281279e-10
2.45896640376e-10
8.88609311988e-11
1.43168614904e-09
1.2480558352e-09
1.44752776477e-09
1.03520635813e-09
7.63966657957e-10
4.09656468136e-10
2.76766997221e-10
1.45882051121e-10
1.30820025775e-09
3.66849394858e-11
1.72656191144e-10
7.48066372747e-10
1.3016817603e-09
4.48801863365e-10
1.18872415889e-09
6.99371199307e-10
8.89423566221e-10
2.17073311106e-09
1.68852870379e-10
2.50908971249e-09
3.74978067548e-10
4.63895057809e-10
3.83735456884e-11
1.31192500601e-11
6.71153526129e-10
3.67121369873e-10
5.39045706166e-10
9.49467972699e-10
1.05206339772e-10
1.63452871058e-10
5.91087492669e-10
2.78381304959e-09
6.66044743486e-10
1.96733582859e-09
1.24933153105e-09
1.55036143723e-09
6.60888883271e-10
6.43782754597e-10
9.02453902733e-10
1.61552446128e-09
4.6133728031e-10
2.29262829509e-10
7.28352302175e-10
1.90488672148e-10
5.48642599343e-10
2.98309001968e-10
2.9247842591e-10
2.69205117936e-11
1.8045599293e-10
1.27872199597e-09
1.09912085535e-09
9.22326753669e-11
3.74537170887e-10
6.7449749765e-10
1.10478954669e-09
2.03192199887e-10
1.01019796465e-09
3.11345471504e-10
1.94575670185e-10
1.15713522834e-09
2.04619326666e-09
8.31283400964e-10
1.25099871961e-09
1.19231828259e-09
1.0921384627e-09
1.9530565229e-09
1.82219641908e-09
1.78660744797e-10
7.14740726777e-10
1.05733369804e-10
1.86052846664e-10
1.41170475187e-09
6.07909259167e-10
1.27458380473e-10
1.51548807985e-09
2.39605186996e-09
2.01496975083e-09
5.63429149341e-10
1.23078597017e-09
7.96259136752e-10
1.27708234423e-10
1.51583778517e-10
4.11246982627e-10
4.1497142338e-10
1.31224356837e-10
5.69208092105e-10
5.19265786519e-11
6.19475405869e-10
8.83512439235e-10
1.05576704338e-09
1.37674176563e-10
1.34488494244e-09
1.41749444535e-09
4.95207538416e-10
2.57120630639e-10
1.39359073794e-09
1.43293263924e-09
8.11258924586e-10
1.21725886214e-09
2.36521168195e-10
6.48268805836e-10
3.84532954103e-10
1.08946276951e-10
8.00569469287e-10
3.62621681441e-11
2.04244676989e-10
2.36490442061e-10
4.63026623978e-10
2.16221501716e-09
1.51905626292e-09
1.61589797981e-10
2.56436299701e-10
6.52280833204e-10
2.47444621361e-10
2.86176268905e-10
2.40095592821e-10
3.01799669897e-10
7.14189048516e-10
6.59067154439e-10
1.08304663209e-09
2.80609823703e-11
2.1822222031e-09
7.56748191804e-10
3.6570927212e-10
2.32139280612e-10
5.81034219387e-10
2.12968198196e-10
1.11762932556e-09
1.37291643276e-09
7.66171259356e-11
2.40164455157e-10
7.91729609788e-10
7.11863527408e-10
1.53135704004e-11
2.77760026604e-10
4.19381690249e-10
4.66484496166e-10
3.90342592723e-10
3.92636834436e-10
1.47328173759e-09
3.70395484168e-09
9.82803560985e-11
2.84470105721e-10
6.96112048496e-10
1.59994640824e-10
1.55160422588e-10
9.84641946768e-10
7.24664328816e-10
1.23978703902e-09
2.35333885392e-09
1.05972605633e-09
5.2054804009e-10
3.28734896581e-10
4.20174697766e-11
5.956941585e-10
1.22286668215e-09
3.56707796773e-10
2.91683483212e-10
5.8997813295e-10
5.8868943231e-10
5.61825463522e-10
1.26566948209e-09
1.5355195815e-09
1.98355614545e-10
3.89798029734e-10
6.24561924982e-10
1.06616771327e-09
1.08696960475e-09
4.13188078843e-10
4.07963673012e-10
7.1343232628e-10
1.4997663083e-09
3.41314294894e-10
1.31059503621e-09
3.7755550202e-10
7.28721682829e-10
3.68497443667e-10
1.363081017e-09
1.29898155722e-10
5.79720015234e-10
1.32036450933e-09
2.88938729445e-10
1.2082359894e-10
2.78587001812e-10
8.08685892507e-10
4.77030628447e-10
5.1784174534e-10
8.5847271456e-10
2.91287210127e-10
2.71998564398e-10
8.8700427493e-10
3.89776881604e-10
2.41048105977e-10
2.23365102061e-10
5.92957911265e-10
1.72199747484e-10
4.41228146438e-10
3.13241386591e-10
1.91798119658e-09
5.97352413967e-10
6.21169203973e-10
7.47824355376e-10
1.104894254e-10
1.77932037457e-10
2.83950198618e-10
4.10608667896e-10
9.99365103655e-10
1.12087459708e-10
4.15184021103e-10
5.80378961627e-10
2.77371407039e-10
9.12938591435e-10
8.2413613967e-10
1.06056537625e-09
5.06322246275e-10
1.49649991555e-11
9.44253916874e-10
3.44870634161e-10
8.74849927531e-10
6.6380453694e-10
1.10836593633e-09
1.10368119413e-09
3.46271397267e-10
2.55826449957e-10
1.58112729418e-10
8.18912246608e-10
6.60496531539e-10
2.95092006655e-10
2.50682140878e-10
1.27369082697e-09
8.40746544058e-10
4.96026239051e-11
5.33828191793e-10
3.60815148015e-11
1.30340782527e-10
1.89462578917e-10
3.05388554975e-10
8.63101171979e-11
5.62737150627e-10
4.85649337643e-10
1.92323931993e-09
8.20213651066e-10
1.155077693e-09
7.89579915295e-10
6.63723412711e-10
9.25368769957e-10
4.61151039332e-10
1.226173148e-10
2.59499274379e-09
4.58776012013e-10
2.06404773904e-09
3.14273778147e-10
1.08363874388e-09
9.65249819616e-10
5.48917297831e-10
2.05389584071e-09
2.45778871158e-10
1.48800052968e-09
4.70045414806e-10
1.60296690334e-09
3.96017895365e-10
6.33398829071e-10
5.73464164817e-10
1.42675577805e-09
5.06010686529e-11
2.82951673291e-09
7.03841662921e-10
1.19536416877e-09
6.9965770896e-10
2.02482839224e-09
6.02252049692e-10
5.71845633431e-10
1.15423258981e-09
1.21400422901e-09
2.19532367886e-09
1.4725617743e-10
1.5695246641e-09
1.34794225007e-09
4.1499243068e-10
2.18492382256e-09
9.11438010561e-10
1.57362122545e-11
3.25827352936e-10
1.02979304248e-09
6.80631976704e-10
8.99862780866e-10
1.06541965678e-09
6.50312095992e-10
7.26747738798e-11
1.35566310196e-09
3.031447839e-10
3.51510514373e-10
4.52598374734e-10
7.25061718843e-10
2.23928048619e-10
1.11469252732e-10
4.16774473762e-10
2.56854337506e-10
7.28336584488e-10
5.76882435953e-10
5.819254424e-10
1.62865190673e-09
5.84309391702e-10
8.2496442559e-10
6.48742258768e-10
1.13283618194e-09
6.32747158545e-10
9.9478955079e-11
9.8206008188e-10
4.3719791105e-10
8.13220678166e-10
9.1505450908e-10
2.22974267031e-10
9.50834989101e-10
8.5776778306e-10
3.26356812608e-10
4.20471764348e-10
1.24986972803e-09
1.12152868131e-09
2.70699638434e-10
1.54902173297e-10
1.19015136908e-09
1.81012701955e-09
6.86908314288e-10
9.44694063267e-10
1.06386691204e-09
4.16098494477e-09
1.42966969956e-09
1.79940468843e-10
1.951758142e-10
1.21061646964e-09
6.17146948989e-10
1.45573165144e-10
3.61942154115e-10
1.06116265925e-09
8.19434326722e-10
2.04728090977e-10
3.54464061499e-10
9.52973615401e-10
5.48981470042e-10
8.95029569444e-11
3.33504563457e-10
7.65616091285e-10
5.17882980017e-11
1.14141858991e-09
1.02012751225e-09
2.23840564195e-10
8.76559937318e-10
5.68065370097e-10
6.74603490884e-10
1.32146474862e-11
6.70804082055e-10
1.87579890508e-09
2.13583730941e-10
9.10046199542e-11
1.08742615537e-09
4.26912342215e-10
4.16583027106e-11
7.97755685584e-11
4.60764600563e-10
1.99087268821e-10
1.34867786088e-10
1.20588683971e-10
8.61240214846e-10
3.14410684301e-11
1.99891692004e-10
2.54455835114e-10
1.19386020225e-09
6.54785506712e-10
1.84715664107e-10
2.02159840598e-11
7.98544629042e-10
5.286549079e-10
1.28337576168e-10