# vtk DataFile Version 3.0
File Name: Molecule/sphere_cent/sphere_cent_0-s2.vtk
ASCII
DATASET UNSTRUCTURED_GRID
FIELD FieldData 1
TIME 1 1 double
0.0
POINTS 60 double
2.22044605e-16 0.850650787 0.525731087
-8.38999654e-07 0.9998914 3.80273057e-09
-0.49994585 0.80892897 0.3089838
-0.49994597 0.80892873 -0.30898413
0.0 0.85065079 -0.52573115
-0.85065079 0.52573115 0.0
-0.30898312 0.49994561 0.80892938
-0.80892956 0.30898276 0.49994543
-0.525731087 5.55111512e-17 0.850650787
-0.3089838 -0.49994585 0.80892897
-1.68982695e-09 -8.44592535e-07 0.9998914
0.30898413 -0.49994597 0.80892873
0.0 -0.85065079 0.52573109
0.525731087 2.77555756e-17 0.850650787
0.80892915 -0.30898345 0.4999457
0.49994546 -0.80892956 0.30898276
0.85065079 -0.52573109 0.0
0.99989146 -9.97142457e-09 4.16701624e-07
0.80892909 0.30898342 0.49994564
0.85065079 0.52573115 0.0
-0.52573115 0.0 -0.85065079
-0.80892938 -0.30898309 -0.49994558
-0.80892915 0.30898345 -0.4999457
-0.999891341 8.57100435e-09 4.13158006e-07
-0.850650787 -0.525731087 4.4408921e-16
-0.30898345 0.49994564 -0.80892909
-0.49994546 -0.80892956 -0.30898276
-0.4999457 -0.80892915 0.30898345
4.25156401e-07 -0.999891341 4.2034709e-09
2.22044605e-16 -0.850650787 -0.525731087
-0.80892909 -0.30898345 0.49994567
-0.30898413 -0.49994594 -0.80892873
0.49994564 -0.80892909 -0.30898345
0.52573109 0.0 -0.85065079
0.8089292 -0.30898347 -0.49994573
0.30898312 -0.49994558 -0.80892938
1.08978977e-08 -8.69491412e-09 -0.9998914
0.30898276 0.49994543 -0.80892956
0.90441033 -0.15449174 -0.24997266
0.808928967 3.27825e-07 -0.499945834
0.90441009 0.15449206 -0.24997276
0.80892873 0.30898413 -0.49994594
0.65443715 0.55895676 -0.40446453
0.49994558 0.80892938 -0.30898312
0.55895574 0.40446478 -0.65443775
0.40446417 0.65443741 -0.55895634
0.49994573 0.808929175 3.4273e-07
0.49994588 0.80892897 0.3089838
0.24997237 0.90441039 -0.15449156
0.24997252 0.90441018 0.1544919
1.63915e-07 0.499945655 0.808929265
0.30898345 0.4999457 0.80892915
-0.15449156 0.24997238 0.90441039
0.15449172 0.24997243 0.90441027
0.15449156 -0.24997279 -0.90441039
-5.0664e-07 -0.49994576 -0.808929056
-0.15449206 -0.24997297 -0.90441006
0.65443748 0.55895619 0.40446472
0.40446466 0.65443733 0.55895647
0.55895627 0.40446456 0.65443739

CELLS 116 464
3 0 1 2
3 1 3 2
3 1 4 3
3 2 3 5
3 0 2 6
3 2 7 6
3 2 5 7
3 6 7 8
3 8 9 10
3 9 11 10
3 9 12 11
3 10 11 13
3 13 11 14
3 11 15 14
3 11 12 15
3 14 15 16
3 16 17 14
3 17 18 14
3 17 19 18
3 14 18 13
3 20 21 22
3 21 23 22
3 21 24 23
3 22 23 5
3 4 25 3
3 25 22 3
3 25 20 22
3 3 22 5
3 24 26 27
3 26 28 27
3 26 29 28
3 27 28 12
3 24 27 30
3 27 9 30
3 27 12 9
3 30 9 8
3 8 7 30
3 7 23 30
3 7 5 23
3 30 23 24
3 20 31 21
3 31 26 21
3 31 29 26
3 21 26 24
3 29 32 28
3 32 15 28
3 32 16 15
3 28 15 12
3 33 34 35
3 34 32 35
3 34 16 32
3 35 32 29
3 33 36 37
3 36 25 37
3 36 20 25
3 37 25 4
3 34 38 16
3 16 38 17
3 34 39 38
3 39 40 38
3 39 41 40
3 38 40 17
3 41 39 33
3 34 39 33
3 17 40 19
3 40 41 19
3 41 42 19
3 19 42 43
3 41 44 42
3 44 45 42
3 44 37 45
3 42 45 43
3 37 44 33
3 41 44 33
3 43 45 4
3 45 37 4
3 43 46 19
3 19 46 47
3 43 48 46
3 48 49 46
3 48 1 49
3 46 49 47
3 1 48 4
3 43 48 4
3 47 49 0
3 49 1 0
3 6 50 0
3 0 50 51
3 6 52 50
3 52 53 50
3 52 10 53
3 50 53 51
3 10 52 8
3 6 52 8
3 51 53 13
3 53 10 13
3 35 54 33
3 33 54 36
3 35 55 54
3 55 56 54
3 55 31 56
3 54 56 36
3 31 55 29
3 35 55 29
3 36 56 20
3 56 31 20
3 47 57 19
3 19 57 18
3 47 58 57
3 58 59 57
3 58 51 59
3 57 59 18
3 51 58 0
3 47 58 0
3 18 59 13
3 59 51 13

CELL_TYPES 116
5
5
5
5
5
5
5
5
5
5
5
5
5
5
5
5
5
5
5
5
5
5
5
5
5
5
5
5
5
5
5
5
5
5
5
5
5
5
5
5
5
5
5
5
5
5
5
5
5
5
5
5
5
5
5
5
5
5
5
5
5
5
5
5
5
5
5
5
5
5
5
5
5
5
5
5
5
5
5
5
5
5
5
5
5
5
5
5
5
5
5
5
5
5
5
5
5
5
5
5
5
5
5
5
5
5
5
5
5
5
5
5
5
5
5
5

CELL_DATA 116
SCALARS cell_data_0 double
LOOKUP_TABLE default
2.02134243178e-06
4.76178080175e-06
7.45292796785e-07
1.07366466437e-06
1.70473838951e-06
2.38316823373e-06
2.2439017066e-07
5.55721681462e-06
1.51437108351e-06
2.84913002722e-06
1.37370813962e-06
3.82913983727e-08
1.33033176382e-06
1.53999496401e-06
1.10931672132e-06
1.49169048211e-06
6.47285523534e-07
2.94811265888e-06
4.24535000575e-08
1.03373100928e-06
2.5274561861e-06
3.8968379492e-07
8.32007493059e-07
1.36606427073e-06
5.68183021672e-07
3.13059750684e-06
1.12173492855e-06
4.27328335507e-07
1.07064022435e-06
2.29412421322e-06
4.15359097058e-06
5.84600923007e-06
9.18428317362e-07
5.55854306142e-07
1.39081412242e-06
4.98110681796e-07
1.37523109772e-06
1.01470319613e-06
1.28624276501e-06
5.97078225943e-07
1.12114123247e-06
3.43773501402e-06
1.60538716709e-06
3.41259564642e-07
5.56866059161e-06
2.70481444335e-06
6.94069808585e-07
5.57611735796e-06
7.05446800718e-06
2.66963420715e-06
6.41453130932e-07
5.51857367585e-06
1.1003226108e-06
3.66055476262e-06
7.94998206653e-07
8.33834541152e-07
5.31707895777e-07
6.45079133736e-07
3.14408341749e-06
5.34393044665e-07
1.96138453166e-06
1.88988514036e-06
6.15820760192e-06
2.51236720541e-06
2.6712221743e-06
2.89219260053e-06
8.91345081197e-07
2.50614748553e-07
3.02301439377e-06
2.31390944097e-06
1.78296798628e-07
5.59672277033e-07
5.43222252678e-08
3.29001669561e-06
6.35307357631e-06
6.32944696864e-07
3.59190594097e-06
2.78676557625e-06
1.5039238389e-06
6.46210601794e-07
3.56510598806e-07
2.24097272491e-06
4.93135129162e-07
3.48942727506e-06
6.93741879282e-06
5.88515244486e-07
1.41928420555e-06
1.5494232925e-06
2.28979217388e-06
1.33629127092e-06
1.65490804161e-06
6.15963787874e-08
2.03560391411e-06
4.22400252515e-06
1.12292848291e-06
4.70989520426e-07
1.0189502831e-06
7.2052501883e-08
1.59063831528e-06
7.84289361421e-07
1.64788268688e-06
5.44274419096e-07
2.86986190764e-06
4.95225186984e-06
8.91484887097e-07
4.01403902858e-07
6.96598954181e-07
5.78020772686e-07
1.40122574438e-06
3.5733091856e-07
2.26308904996e-06
7.034092383e-07
3.0046752569e-06
5.42708270262e-06
8.40033806872e-07
1.03350528548e-06

