# vtk DataFile Version 3.0
File Name: Molecule/sphere/sphere_0-s3.vtk
ASCII
DATASET UNSTRUCTURED_GRID
FIELD FieldData 1
TIME 1 1 double
0.0
POINTS 21 double
0.0 0.850650808352 0.525731112119
0.0 0.850650808352 -0.525731112119
-0.850650808352 0.525731112119 0.0
-0.525731112119 0.0 0.850650808352
0.525731112119 0.0 0.850650808352
0.0 -0.850650808352 0.525731112119
0.850650808352 -0.525731112119 0.0
0.850650808352 0.525731112119 0.0
-0.525731112119 0.0 -0.850650808352
-0.850650808352 -0.525731112119 0.0
0.525731112119 0.0 -0.850650808352
0.309016994375 -0.5 -0.809016994375
0.0 0.0 -1.0
-0.309016994375 -0.5 -0.809016994375
0.0 -0.850650808352 -0.525731112119
0.809016994375 0.309016994375 -0.5
0.5 0.809016994375 -0.309016994375
0.309016994375 0.5 -0.809016994375
-0.5 -0.809016994375 -0.309016994375
-0.5 -0.809016994375 0.309016994375
0.0 -1.0 0.0

CELLS 38 152
3 0 1 2
3 0 2 3
3 0 3 4
3 3 5 4
3 4 5 6
3 6 7 4
3 7 0 4
3 8 9 2
3 1 8 2
3 3 2 9
3 10 11 12
3 11 13 12
3 11 14 13
3 12 13 8
3 8 13 9
3 14 11 6
3 10 11 6
3 12 8 1
3 10 15 6
3 6 15 7
3 7 15 16
3 15 17 16
3 15 10 17
3 16 17 1
3 7 16 0
3 16 1 0
3 1 17 12
3 10 17 12
3 9 18 19
3 18 20 19
3 18 14 20
3 19 20 5
3 9 19 3
3 19 5 3
3 5 20 6
3 14 20 6
3 14 18 13
3 13 18 9

CELL_TYPES 38
5
5
5
5
5
5
5
5
5
5
5
5
5
5
5
5
5
5
5
5
5
5
5
5
5
5
5
5
5
5
5
5
5
5
5
5
5
5

CELL_DATA 38
SCALARS cell_data_0 double
LOOKUP_TABLE default
2.5101711293e-06
0.000137782406019
0.00108268002948
0.000910422930218
0.000369115230053
0.000425752497605
8.91367497288e-05
3.98102604252e-06
1.66448830904e-05
6.25268436032e-05
1.4354192992e-05
1.17641148225e-06
0.000353187011376
1.6792708162e-06
2.27473663549e-06
0.000556541843191
6.25835374705e-06
1.2601728427e-05
6.95615605866e-06
3.48408237031e-05
2.55833761169e-06
2.63119696134e-06
3.40962353421e-06
3.65762481611e-07
4.83095022573e-05
1.12472074554e-05
8.5490057852e-06
1.9483855939e-06
2.29906694927e-06
3.5645587357e-06
0.000368514531044
1.62388093278e-05
2.25921184936e-05
4.2887245771e-05
1.14475255199e-05
0.000610836019235
0.000382886813512
7.48809140258e-07

