# vtk DataFile Version 3.0
File Name: Molecule/sphere/sphere_0-s1.vtk
ASCII
DATASET UNSTRUCTURED_GRID
FIELD FieldData 1
TIME 1 1 double
0.0
POINTS 15 double
0.850650808352 -0.525731112119 0.0
0.525731112119 0.0 -0.850650808352
0.850650808352 0.525731112119 0.0
0.0 0.850650808352 -0.525731112119
0.0 0.850650808352 0.525731112119
-0.850650808352 0.525731112119 0.0
-0.525731112119 0.0 0.850650808352
0.525731112119 0.0 0.850650808352
0.0 -0.850650808352 0.525731112119
-0.525731112119 0.0 -0.850650808352
-0.850650808352 -0.525731112119 0.0
0.0 -0.850650808352 -0.525731112119
0.309016994375 -0.5 -0.809016994375
0.0 0.0 -1.0
-0.309016994375 -0.5 -0.809016994375

CELLS 26 104
3 0 1 2
3 2 1 3
3 2 3 4
3 4 3 5
3 4 5 6
3 4 6 7
3 6 8 7
3 7 8 0
3 0 2 7
3 2 4 7
3 9 10 5
3 3 9 5
3 10 11 8
3 10 8 6
3 6 5 10
3 11 0 8
3 1 12 13
3 12 14 13
3 12 11 14
3 13 14 9
3 9 14 10
3 14 11 10
3 11 12 0
3 1 12 0
3 1 13 3
3 13 9 3

CELL_TYPES 26
5
5
5
5
5
5
5
5
5
5
5
5
5
5
5
5
5
5
5
5
5
5
5
5
5
5

CELL_DATA 26
SCALARS cell_data_0 double
LOOKUP_TABLE default
0.00144968603058
0.00148823225741
1.70113923698e-05
6.62904183357e-05
0.000195324432357
0.000516632940727
0.00020691281976
0.00014353350767
3.16937819698e-05
0.000197621920756
0.00105817154204
0.00114546590001
1.51034995774e-06
0.00012447159498
2.42380721151e-05
4.01038766391e-05
0.000341125900187
9.07153538106e-08
3.90160863898e-06
0.000351065517527
0.000632016931379
3.95508244939e-06
1.14347891153e-05
0.000671074348027
0.000625329778295
0.000626134458368

