# vtk DataFile Version 3.0
File Name: Molecule/arg/arg_5.0-1.vtk
ASCII
DATASET UNSTRUCTURED_GRID
FIELD FieldData 1
TIME 1 1 double
0.0
POINTS 848 double
-3.403 0.327 1.604
-3.45 0.103 1.078
-3.138 0.005 1.702
-3.183 -0.208 1.2
-2.981 -0.361 1.858
-3.028 -0.584 1.332
-3.298 -0.003 0.536
-3.038 -0.309 0.683
-2.876 -0.691 0.79
-2.971 0.024 0.066
-2.725 -0.284 0.235
-2.549 -0.664 0.32
-2.984 0.046 0.042
-2.617 -0.045 -0.207
-2.63 -0.024 -0.229
-2.351 -0.22 -0.527
-2.365 -0.198 -0.55
-2.2 -0.483 -0.862
-2.216 -0.458 -0.889
-3.25 0.578 -0.258
-2.686 0.062 -0.328
-2.904 0.498 -0.574
-2.48 -0.047 -0.742
-2.684 0.361 -0.973
-2.39 -0.269 -1.153
-2.617 0.185 -1.409
-3.173 1.207 -0.458
-2.84 1.014 -0.738
-2.625 0.846 -1.127
-2.55 0.723 -1.58
-2.776 1.74 -0.497
-2.515 1.451 -0.77
-2.319 1.256 -1.157
-2.211 1.177 -1.613
-2.622 1.932 -0.429
-2.434 1.563 -0.734
-2.291 1.743 -0.67
-2.16 1.459 -1.077
-2.01 1.647 -1.011
-1.982 1.439 -1.492
-1.81 1.654 -1.416
-2.666 2.281 -0.134
-2.046 2.135 -0.548
-2.085 2.448 -0.283
-1.615 2.438 -0.879
-1.659 2.787 -0.585
-2.622 2.533 0.247
-2.045 2.674 0.059
-1.614 3.039 -0.203
-2.495 2.657 0.67
-1.932 2.785 0.438
-1.488 3.163 0.22
-2.925 2.572 1.071
-2.251 2.77 1.005
-2.634 2.694 1.361
-2.033 3.002 1.293
-2.411 2.928 1.645
-1.863 3.333 1.507
-2.279 3.251 1.894
-3.186 2.284 1.521
-2.865 2.437 1.761
-2.64 2.674 2.039
-2.53 2.972 2.328
-3.419 1.801 1.788
-2.888 2.359 1.917
-3.122 1.876 2.185
-2.717 2.558 2.345
-2.979 2.017 2.644
-3.567 1.179 1.827
-3.202 1.735 2.161
-3.333 1.184 2.196
-3.094 1.732 2.585
-3.223 1.188 2.619
-3.107 1.793 3.017
-3.25 1.192 3.055
-3.408 0.559 1.798
-3.191 0.635 2.17
-3.084 0.647 2.593
-3.095 0.593 3.027
-3.105 0.348 2.085
-3.1 0.088 1.867
-2.97 0.105 2.152
-3.02 0.504 2.546
-2.901 0.29 2.606
-2.978 0.383 3.085
-2.865 -0.346 2.113
-2.52 -0.7 2.425
-2.789 -0.06 2.411
-2.48 -0.378 2.69
-2.828 0.19 2.745
-2.523 -0.123 3.02
-2.645 0.041 3.387
-2.46 -1.117 2.184
-2.148 -0.9 2.844
-2.09 -1.3 2.613
-2.003 -1.142 3.367
-1.937 -1.6 3.103
-2.268 -1.45 1.888
-1.906 -1.62 2.328
-1.726 -1.965 2.777
-1.967 -1.659 1.57
-1.617 -1.821 2.023
-1.396 -2.195 2.428
-1.592 -1.721 1.268
-1.257 -1.88 1.733
-0.984 -2.263 2.097
-2.026 -1.588 0.931
-1.351 -1.766 0.91
-1.757 -1.641 0.594
-1.133 -1.941 0.578
-1.555 -1.812 0.25
-0.96 -2.23 0.303
-1.437 -2.084 -0.068
-2.342 -1.257 0.596
-2.053 -1.332 0.28
-1.861 -1.491 -0.075
-1.784 -1.721 -0.435
-2.487 -0.785 0.321
-2.189 -0.889 0.022
-2.002 -1.032 -0.342
-1.943 -1.202 -0.738
-2.264 -0.668 -0.026
-2.322 -0.554 -0.027
-2.141 -0.611 -0.433
-2.203 -0.492 -0.433
-2.131 -0.618 -0.861
-2.114 -0.682 -1.181
-1.927 -1.264 -1.052
-2.312 -0.441 -1.376
-2.121 -0.506 -1.916
-2.042 -0.816 -1.214
-1.838 -0.886 -1.79
-1.682 -1.348 -1.746
-1.975 -0.256 -2.322
-1.864 -0.768 -1.888
-1.672 -0.441 -2.421
-1.897 0.192 -2.527
-1.57 0.147 -2.691
-1.996 0.646 -2.441
-1.495 0.306 -2.776
-1.602 0.798 -2.682
-1.198 0.386 -3.152
-1.328 0.981 -3.039
-2.011 1.039 -2.18
-1.619 1.224 -2.399
-1.348 1.496 -2.696
-1.72 1.257 -2.235
-1.479 1.817 -1.75
-1.107 2.057 -2.211
-1.346 2.153 -1.415
-1.642 2.007 -1.116
-1.319 2.584 -1.178
-0.816 3.013 -1.267
-1.111 2.259 -1.642
-0.623 2.675 -1.729
-0.543 2.537 -2.312
0.466 3.148 -0.891
-0.416 2.926 -1.599
0.331 3.005 -1.38
-0.131 2.956 -2.042
0.328 3.005 -1.907
-0.002 3.1 -2.533
0.456 3.148 -2.398
-0.048 3.337 -3.001
0.699 3.415 -2.782
0.833 2.913 -0.61
0.619 2.806 -1.364
0.976 2.577 -1.092
0.892 2.689 -1.891
1.303 2.425 -1.576
1.057 2.557 -0.305
1.192 2.232 -0.796
1.553 2.026 -1.234
0.979 2.767 0.195
1.24 2.204 -0.113
1.167 2.404 0.362
1.539 1.918 0.039
1.462 2.128 0.539
0.737 2.845 0.68
0.936 2.478 0.823
1.22 2.206 1.024
0.406 3.093 0.833
0.71 2.572 1.142
0.419 2.789 1.277
0.841 2.425 1.643
0.539 2.651 1.783
1.112 2.426 2.108
0.748 2.699 2.276
0.011 3.456 0.651
0.142 3.058 1.218
-0.201 3.373 1.06
-0.01 3.117 1.656
-0.348 3.428 1.5
-0.034 3.266 2.099
-0.415 3.616 1.924
-0.504 3.599 0.465
-0.648 3.497 0.898
-0.789 3.55 1.341
-0.913 3.754 1.744
-1.038 3.495 0.311
-1.112 3.406 0.765
-1.247 3.461 1.209
-1.429 3.653 1.595
-1.502 3.118 0.685
-1.632 3.177 1.131
-0.05 3.403 2.531
0.304 2.919 2.221
0.288 3.057 2.654
0.729 2.855 2.766
-0.175 3.437 2.964
0.162 3.091 3.09
0.587 2.894 3.259
-0.395 3.364 3.353
-0.059 3.019 3.48
0.337 2.812 3.701
-0.687 3.194 3.654
-0.352 2.847 3.783
0.006 2.617 4.044
-1.13 3.18 3.766
-0.58 2.815 3.881
-1.094 2.799 4.011
-1.584 3.151 3.721
-1.62 2.766 3.959
-1.995 3.111 3.523
-2.096 2.719 3.73
-2.312 3.063 3.198
-2.464 2.664 3.352
-2.498 3.015 2.783
-2.679 2.608 2.871
-0.832 2.373 4.277
-0.242 2.183 4.431
-1.061 1.806 4.483
-0.466 1.628 4.634
-1.364 2.231 4.354
-1.452 1.611 4.604
-1.713 1.977 4.492
-1.735 2.528 4.103
-2.033 2.233 4.276
-2.128 2.66 3.763
-2.373 2.347 3.982
-2.496 2.611 3.374
-2.69 2.305 3.646
-2.791 2.388 2.985
-2.945 2.113 3.311
-1.464 1.095 4.666
-0.956 1.592 4.533
-0.968 1.074 4.596
-0.48 1.041 4.705
-1.655 0.731 4.634
-1.079 0.886 4.596
-1.26 0.541 4.565
-0.689 0.687 4.666
-0.881 0.322 4.633
-0.333 0.517 4.869
-0.555 0.096 4.831
-2.027 0.463 4.516
-1.383 0.368 4.531
-1.728 0.119 4.423
-1.114 -0.009 4.584
-1.476 -0.27 4.469
-0.878 -0.357 4.785
-1.3 -0.661 4.651
-2.342 0.241 4.242
-2.019 -0.087 4.169
-1.783 -0.487 4.202
-1.658 -0.914 4.34
-2.557 0.093 3.848
-2.219 -0.224 3.803
-1.993 -0.631 3.818
-1.903 -1.082 3.892
-2.301 -0.273 3.375
-2.078 -0.682 3.368
-0.557 -0.612 4.999
-0.228 -0.165 5.05
-0.202 -0.89 5.102
0.134 -0.447 5.155
0.164 -1.171 5.088
0.507 -0.734 5.141
0.37 -1.612 4.973
0.615 -0.976 5.092
0.811 -1.395 4.983
1.043 -0.806 5.264
1.249 -1.247 5.15
0.578 -1.993 4.725
1.008 -1.757 4.747
1.457 -1.629 4.901
0.77 -2.282 4.364
1.191 -2.031 4.405
1.649 -1.918 4.541
0.93 -2.454 3.923
1.343 -2.194 3.985
1.809 -2.089 4.099
1.044 -2.494 3.437
1.451 -2.232 3.524
1.923 -2.129 3.613
1.103 -2.399 2.949
1.506 -2.141 3.061
1.981 -2.034 3.126
1.1 -2.176 2.501
1.504 -1.93 2.635
1.979 -1.811 2.678
1.037 -1.846 2.131
1.444 -1.616 2.284
1.916 -1.481 2.307
0.647 -2.269 2.118
0.836 -1.714 1.711
0.512 -2.064 1.7
0.77 -1.662 1.233
0.47 -1.987 1.224
0.848 -1.697 0.757
0.525 -2.047 0.746
1.061 -1.813 0.337
0.67 -2.236 0.324
0.119 -2.499 2.107
0.075 -2.255 1.691
0.064 -2.164 1.215
0.088 -2.237 0.737
0.142 -2.466 0.313
-0.457 -2.497 2.099
-0.401 -2.253 1.685
-0.378 -2.162 1.209
-0.389 -2.235 0.73
-0.434 -2.464 0.306
-0.837 -2.059 1.682
-0.782 -1.983 1.207
-0.825 -2.042 0.728
1.48 -1.078 0.031
1.032 -1.487 0.709
1.333 -0.958 0.489
1.12 -1.273 1.146
1.358 -0.854 0.972
1.315 -1.197 1.595
1.553 -0.779 1.421
1.592 -1.27 1.999
1.893 -0.741 1.779
2.335 -0.746 2.002
1.639 -0.712 -0.547
1.476 -0.549 0.311
1.615 -0.229 -0.195
1.697 -0.118 0.66
1.842 0.216 0.134
1.696 -1.15 -0.796
1.805 -0.426 -1.067
1.856 -0.818 -1.29
2.201 -0.141 -1.444
2.256 -0.562 -1.683
1.615 -1.54 -1.111
1.784 -1.167 -1.572
2.179 -0.936 -1.985
1.405 -1.841 -1.462
1.595 -1.437 -1.886
1.977 -1.225 -2.321
1.085 -2.024 -1.812
1.309 -1.6 -2.199
0.689 -2.07 -2.126
0.875 -1.352 -3.195
0.186 -1.352 -2.841
0.466 -1.134 -3.344
-0.548 -1.409 -2.576
-0.152 -1.05 -2.884
-0.822 -1.287 -2.506
-0.408 -0.948 -2.806
-0.669 -0.831 -2.739
-0.336 -0.591 -3.197
-0.616 -0.466 -3.125
-1.31 -1.347 -2.194
-0.988 -0.705 -2.664
-1.485 -0.767 -2.346
-1.322 -0.31 -2.728
-0.95 -0.071 -3.189
0.104 -0.811 -3.39
-0.311 -0.212 -3.619
0.128 -0.454 -3.788
-0.16 0.24 -3.931
0.27 -0.03 -4.081
0.101 0.716 -4.098
0.516 0.418 -4.238
-0.411 1.252 -3.909
0.377 1.347 -4.4
0.11 1.626 -4.301
-0.398 1.946 -3.588
0.117 1.987 -4.134
-0.712 2.237 -2.975
-0.106 2.463 -3.53
-0.314 2.656 -3.124
0.028 3.029 -3.665
-0.135 3.18 -3.347
-0.202 2.855 -2.684
0.9 3.106 -3.671
0.173 2.486 -3.833
0.85 2.546 -3.838
0.989 2.064 -4.14
0.819 3.383 -2.845
1.267 2.733 -3.406
1.204 2.948 -2.765
1.749 2.404 -3.353
1.668 2.681 -2.526
0.902 2.914 -2.485
0.749 2.956 -2.405
1.123 2.627 -2.01
1.688 2.19 -1.733
1.962 2.454 -2.382
2.133 1.624 -1.992
2.194 2.159 -2.516
2.141 1.301 -1.585
2.428 1.273 -2.257
2.435 0.969 -1.874
2.042 0.907 -1.262
2.342 0.599 -1.57
1.911 1.516 -1.257
1.884 0.909 -0.851
1.768 1.444 -0.847
1.861 0.913 -0.411
1.75 1.425 -0.407
1.976 0.918 0.014
1.858 1.462 0.018
1.454 1.892 -0.826
1.449 1.855 -0.388
1.867 0.812 -0.4
1.753 0.215 -0.299
1.896 0.717 -0.83
1.788 0.151 -0.734
2.06 0.644 -1.234
1.942 0.027 -1.129
2.566 1.229 -2.871
2.241 1.687 -2.422
2.339 1.656 -2.857
2.27 2.135 -2.856
2.341 1.264 -3.459
2.179 1.681 -3.275
2.146 2.154 -3.181
1.83 1.363 -3.817
1.817 1.751 -3.528
1.863 2.209 -3.379
1.605 0.935 -4.222
1.413 1.57 -3.947
1.254 1.267 -4.234
1.103 1.869 -4.167
0.979 1.632 -4.39
1.11 0.579 -4.381
0.902 1.014 -4.346
0.705 1.435 -4.478
0.482 0.901 -4.245
1.404 2.01 -3.684
1.315 2.161 -3.664
2.007 0.383 0.735
1.733 -0.159 1.085
2.004 0.279 1.15
1.861 -0.287 1.473
2.124 0.139 1.536
2.068 -0.489 1.788
2.355 -0.024 1.857
2.675 -0.196 2.083
2.074 0.941 0.928
2.063 0.767 1.319
2.181 0.613 1.7
2.417 0.492 2.036
2.749 0.417 2.295
1.884 1.434 1.198
1.897 1.199 1.555
2.02 1.032 1.93
2.241 0.95 2.287
2.541 0.959 2.592
1.624 1.884 1.117
1.755 1.469 1.75
1.503 1.904 1.671
1.842 1.579 2.299
1.557 2.073 2.21
1.11 2.216 1.58
1.886 1.845 2.759
2.132 1.224 2.493
2.174 1.477 2.929
2.585 1.225 3.051
1.814 2.002 3.263
2.105 1.625 3.407
2.513 1.382 3.555
1.633 2.033 3.763
1.933 1.655 3.881
2.331 1.413 4.055
1.359 1.937 4.21
1.674 1.563 4.305
2.058 1.316 4.502
1.021 1.721 4.561
1.354 1.359 4.638
1.72 1.101 4.853
0.651 1.408 4.781
1.002 1.062 4.847
1.35 0.788 5.074
0.073 1.245 4.841
0.82 0.891 4.947
0.23 0.725 5.008
0.672 0.387 5.179
1.205 0.294 5.301
0.564 -0.173 5.245
1.099 -0.256 5.367
-1.834 2.927 0.971
1.396 -0.602 0.696
1.678 -0.195 -0.741
-2.913 1.955 -0.341
-3.327 1.641 -0.268
-3.327 2.032 -0.008
-2.913 2.297 -0.026
-3.327 2.292 0.383
-2.913 2.519 0.384
-3.327 2.384 0.843
-3.656 1.544 0.048
-3.656 1.916 0.37
-3.656 2.055 0.843
-3.656 1.916 1.316
-3.867 1.641 0.843
-3.867 1.411 1.241
-3.656 0.342 1.089
-3.656 0.609 1.504
-3.867 0.951 1.241
-3.867 0.721 0.843
-3.656 0.342 0.597
-3.867 0.951 0.445
-3.656 0.609 0.182
[...]
CELL_DATA 1692
SCALARS cell_data_0 double
LOOKUP_TABLE default
1.91536461924e-06
3.5914195801e-06
1.86848040415e-06
1.94161423749e-06
4.13500143502e-06
4.03220306762e-06
3.6858362822e-06
2.58793036886e-06
2.19273652262e-06
1.32339710368e-06
1.96864151479e-06
4.40993854933e-07
2.53637825441e-08
2.96461027817e-08
1.33466194432e-07
3.28413788713e-08
5.38626505572e-08
1.47305900457e-07
3.91674204794e-06
5.58569101242e-06
3.9538150885e-06
4.34386960064e-06
1.09666896535e-06
1.21973295176e-06
1.00816235489e-05
8.09110159463e-06
6.57743996465e-06
6.44308475401e-06
4.40709156987e-06
4.88839976708e-06
7.35175489162e-06
5.97739846847e-06
8.79260591205e-06
5.66754010197e-06
4.18103577551e-06
8.2679870549e-07
6.73020334847e-07
5.24146588481e-07
3.35294052618e-07
3.75506422893e-07
1.01164690846e-07
5.91524006545e-07
7.64738423225e-06
6.89131859359e-06
2.03008075019e-06
1.99342842683e-06
7.97151318591e-06
4.30926460837e-06
4.24857325243e-06
6.93178187012e-06
6.70918145586e-06
6.47585885095e-06
7.01684071862e-06
6.84560393331e-06
2.35476172741e-05
1.89115534299e-05
2.34172278725e-05
2.18175979705e-05
2.42912447165e-05
7.79143769375e-06
1.52079273698e-05
5.67943569847e-06
8.9989349575e-06
1.39981392906e-05
9.4700475543e-06
1.06638735213e-05
3.23108498458e-06
6.7795619449e-06
5.25885479682e-06
4.88333499658e-06
8.01447717191e-06
5.64257741621e-06
4.39740519154e-06
1.90557382152e-06
2.27927489633e-06
2.75691126027e-06
3.90392110988e-06
2.14024587226e-06
1.67468463273e-06
1.50041037737e-06
1.76119436053e-06
3.18902140099e-06
4.85682971093e-07
2.91695373047e-08
4.52683376996e-07
4.55188982176e-07
9.22582361653e-07
9.01422138249e-07
7.08331750789e-07
1.69648270659e-07
6.56707563409e-07
3.95248537939e-08
8.21306809204e-08
7.63620057237e-08
1.8848183416e-07
1.62596721087e-07
6.11457871045e-07
1.84895408629e-06
3.64875094657e-06
3.20850390698e-06
7.2346167702e-07
1.38108496686e-06
1.94808552173e-06
1.79374431824e-06
7.31290854963e-07
1.21404656135e-06
1.42145454707e-06
1.15910701127e-06
8.88944378092e-07
1.14686225867e-06
1.07283990391e-06
8.02618671058e-08
8.41891395214e-07
8.45118033746e-07
1.2059337169e-06
1.16082673679e-06
1.21605775478e-06
1.05365125403e-06
6.08005899583e-07
7.99908899892e-07
9.35584010551e-07
1.01305258314e-06
1.00733674832e-06
7.87556583414e-07
1.18688256948e-07
3.50889147506e-07
7.86689896301e-07
9.2780114095e-07
6.9111086013e-07
3.77753819151e-07
1.20317094636e-07
3.02010836594e-07
3.09184486775e-07
3.88166107182e-07
3.49678179191e-07
4.43743433043e-07
3.33251186321e-07
1.31914004215e-06
6.42243044306e-07
5.77897163338e-07
1.14623715979e-06
1.46873564508e-06
1.04960430265e-06
1.9772912426e-07
8.5072172404e-07
1.17437421304e-06
9.59502440329e-07
1.26677744224e-06
1.26102796429e-06
1.36640012143e-06
1.42773673766e-06
2.52850580728e-06
1.91076729985e-06
2.49420217054e-06
2.45070421099e-06
3.2098508474e-06
2.00252100482e-06
2.72011516241e-06
5.38673910071e-06
5.26896946905e-06
2.60481962502e-06
2.40391366584e-06
2.44310199856e-06
1.85823474665e-06
4.63652009053e-06
5.58734077482e-06
5.78676077774e-06
6.58417940559e-06
6.97666638051e-06
3.34305969724e-06
4.54361577215e-06
8.5026569543e-07
2.36071129279e-06
1.63556404858e-06
4.54704745104e-06
8.51115820887e-06
1.27584135602e-06
1.49390815925e-06
1.8672671241e-06
5.08564253643e-06
3.26267820583e-06
3.95253277034e-06
3.99137107842e-06
5.22464494003e-06
2.48613734616e-06
2.13935606976e-06
2.15636311817e-06
2.22971750522e-06
1.89423048076e-06
1.80228388719e-06
2.0283873527e-06
1.90354295155e-06
1.58750287965e-06
1.39990117473e-06
1.46887213101e-06
1.08958337753e-06
1.30467509481e-06
1.74382299698e-06
9.7844352178e-07
5.79148359921e-07
3.55250431355e-07
4.07907552779e-07
4.71934435553e-07
4.52458297766e-07
6.25258138652e-07
4.96789597547e-07
5.11731766633e-07
4.27320919371e-07
3.20096726177e-07
2.60242974391e-07
5.4400830201e-07
4.66786165097e-07
4.21871539593e-07
2.86109387951e-07
2.67811731918e-07
1.05527927055e-07
4.83863277225e-07
2.57499251365e-07
3.12027135052e-07
1.59917775535e-07
2.0410330468e-07
1.08907299502e-06
5.74091611355e-07
5.4020862917e-07
1.22865571992e-06
1.60556901248e-06
1.16244774013e-07
1.75599325699e-07
4.35042094973e-07
4.26429284322e-07
1.28475257775e-06
2.40889905807e-06
1.97460201217e-06
6.659173197e-06
2.29257182634e-06
7.0128854319e-07
4.53324779524e-06
3.27646952157e-06
2.68288382033e-07
9.81729970348e-08
3.62878025436e-08
1.03590964466e-07
3.1411375372e-08
3.60169558885e-08
9.51581904028e-08
1.33051729487e-07
3.88277110262e-09
2.65793588255e-08
1.34046345226e-06
2.74223639646e-06
1.78213544511e-06
2.79040722497e-06
2.95914722483e-06
1.78127590517e-06
1.10784759818e-06
4.26327655477e-06
7.5278938974e-06
1.10563167798e-05
1.92245147098e-05
1.79990335211e-05
2.73128408414e-05
2.00270981534e-05
2.26309866316e-05
1.57328952629e-05
9.33821098039e-06
6.63228481e-06
2.77021180356e-06
4.51899646392e-06
4.38020594394e-06
1.92516672661e-06
2.02407320154e-06
2.01633395621e-06
2.15710536484e-06
9.20578562751e-07
8.80845444076e-07
6.10808455639e-07
2.89571321758e-07
2.31339253444e-07
1.13645870932e-07
4.05017211422e-07
8.82780327714e-07
9.98792594376e-07
1.09855462811e-06
1.94068378743e-06
8.38498239682e-07
4.09654214235e-06
3.40110210496e-06
7.26499736203e-06
5.39295891612e-06
4.67831758855e-06
4.96238152778e-06
3.07141006171e-06
4.19459302816e-06
1.37769775708e-06
3.60779333956e-06
9.35127256895e-07
5.88936643478e-07
5.63245944807e-07
5.49433748895e-07
1.33935295761e-06
2.48836698747e-06
1.97285278277e-06
2.32910210131e-06
1.15075809413e-06
1.96972833556e-06
2.15257446257e-06
3.8294945755e-06
3.67429631603e-06
2.81641101253e-06
2.28947891453e-06
2.99627560709e-06
3.20709356208e-06
3.10941758865e-06
6.23605423466e-06
3.21922687177e-06
2.07778990631e-06
3.70582072923e-06
1.9692568466e-06
1.19099929111e-06
1.3839428702e-06
9.46404983397e-07
1.87523953054e-06
2.01049820037e-06
6.75610679233e-07
8.36538176594e-07
1.88321608013e-06
1.13390760365e-06
8.0225370076e-07
1.49206906645e-06
1.36705484819e-06
6.49623311494e-07
5.38167873039e-08
2.45915671583e-07
5.21050435677e-07
2.89612470446e-07
7.55495658179e-07
6.28608205025e-07
5.86571210875e-07
6.7493199478e-08
2.19021883849e-06
4.36508877504e-06
1.98645865361e-06
8.5885397725e-07
2.55858534493e-06
2.65043824884e-06
3.398130607e-07
5.91677816408e-07
5.61719756296e-07
6.06904741265e-07
1.58258039533e-06
1.859679925e-06
5.75836790413e-07
4.25801717065e-06
4.20426318144e-06
1.90385074205e-07
9.70197733909e-08
1.3062178266e-06
1.58495063655e-06
2.56029745462e-07
5.46154041109e-07
1.27421610931e-07
2.19307862844e-06
3.72469294547e-07
8.31161135981e-07
9.57357657927e-07
1.25358724612e-06
1.55309150788e-06
1.79748406862e-06
1.74230037755e-06
1.32387071434e-06
4.79021642123e-06
3.5498511934e-06
3.20474364686e-06
1.71134802985e-06
1.20534531148e-06
9.98010759029e-07
3.03262261862e-09
2.83365801964e-07
7.99586162982e-08
3.13147917057e-07
3.37022617758e-06
1.78380494903e-06
1.88564144992e-06
1.96872829161e-06
4.70506685378e-08
3.35077536534e-06
5.79818558902e-06
2.40811959597e-05
1.42248453796e-05
2.64610388196e-05
3.25149005455e-05
8.17875194735e-05
3.22653759321e-05
1.89026865381e-05
5.5774812152e-05
6.39448007813e-05
5.04844004047e-05
5.56093840402e-05
0.000110700719614
0.000102278150551
4.78122810589e-05
5.87974810826e-06
5.96062959044e-06
1.25761532923e-05
9.56685410186e-06
4.92617224854e-06
1.87769915142e-05
1.14785261533e-05
1.63423256292e-05
8.72669666977e-06
3.9112051696e-06
8.01295332413e-06
5.84223679537e-08
5.83020362336e-07
2.21614544461e-07
1.90052309164e-06
5.42337352135e-06
5.2980118765e-06
8.15070872981e-06
8.93823596857e-06
1.09915504648e-05
7.25775642699e-06
9.51083346915e-06
6.32927670396e-06
8.87696206369e-06
5.50848158547e-06
6.08403424223e-06
5.23300961622e-06
1.6897528985e-05
1.17543412223e-05
1.25012956321e-05
1.92255194594e-05
2.24508450109e-05
1.52559766189e-05
1.44404581243e-05
2.38722385561e-05
2.89828704528e-06
3.62167036359e-06
3.69158014912e-06
4.55405576861e-06
1.75552347019e-05
8.98907787183e-06
1.22756217338e-05
8.03796157648e-06
1.08790432213e-06
1.255888783e-07
7.34394026846e-08
5.256248825e-07
8.12025106997e-06
4.10266707526e-06
2.10945330136e-07
1.15757144556e-07
9.76386425057e-07
8.05194830501e-06
1.06839506019e-06
4.53566033679e-07
2.01781716157e-07
9.32603933133e-07
1.1696967108e-05
7.16684049348e-06
6.7985269772e-06
7.7784414895e-06
5.48238787252e-06
6.31045833334e-06
9.17747591133e-06
3.05764210736e-05
1.58033648274e-05
1.38424426025e-05
3.77080272966e-07
2.62128062639e-06
3.64689030874e-06
4.530959559e-06
2.34421733724e-05
1.76789351765e-05
4.28585156647e-06
2.17980446285e-06
1.43098047558e-05
1.02298162726e-06
1.53001493541e-06
3.15433145714e-06
1.27521198059e-07
7.6668384942e-07
3.18908009832e-06
2.4999478928e-06
6.87660945087e-07
2.05610622777e-07
6.18315413348e-09
4.34958166639e-07
5.9586676061e-07
6.72540917251e-07
5.19238416835e-07
2.90841328254e-06
2.74484834792e-06
1.2624209834e-06
1.69923866534e-06
3.35185399399e-06
5.44031417938e-07
3.39335349072e-08
1.12048894057e-07
6.67851663629e-07
6.1393991012e-07
1.00721123143e-06
6.39614375122e-07
1.15206390562e-06
3.92933398841e-07
8.59057144128e-07
1.54494897412e-06
2.47838437224e-06
1.64917707256e-06
1.14812190169e-06
5.33937809887e-07
4.5408747226e-06
1.09892300939e-06
1.41154817938e-06
2.2206914537e-06
2.35383618288e-06
1.7437807392e-06
3.82262185941e-06
6.59583176666e-06
6.99840058686e-06
9.09022168073e-06
1.67340671313e-05
1.00350282567e-05
6.22009177364e-06
5.56033049239e-06
4.00899179749e-06
1.01753934602e-05
6.62336413675e-07
1.92269175694e-06
2.35056903902e-06
1.18160012615e-06
2.8722453863e-06
4.57642873808e-06
3.53201890348e-06
3.73082547331e-06
4.07971103082e-06
3.12328050746e-06
2.4837256409e-06
2.69743977804e-06
1.80006591746e-06
1.31433241411e-06
1.44662825399e-06
1.46448580663e-06
1.62313930248e-06
9.01215752767e-07
5.22304638174e-07
7.03882403433e-07
5.43316814318e-07
5.05157509763e-07
5.03115119336e-07
1.27732078812e-07
7.53078956829e-07
6.25159015542e-06
7.23520971415e-06
4.07535955603e-06
3.57528722055e-06
8.54146956371e-06
5.48207929633e-06
2.54270702324e-06
5.63288381032e-07
7.52352924258e-07
1.44773668065e-06
3.00293699001e-07
2.15546587003e-07
1.67127452537e-07
7.83536774455e-07
9.19061315585e-08
8.45332034363e-07
1.01585664688e-06
6.57121675443e-07
7.54128881769e-07
8.21476579803e-09
1.39274273485e-06
7.51485104293e-07
3.91602781522e-07
6.94177578129e-07
2.06543394347e-07
1.50230987929e-06
8.34858715164e-07
9.8495140156e-07
1.53234111491e-06
3.52152319188e-07
7.12746576172e-07
2.377797672e-06
1.58790778821e-06
2.33807987533e-06
7.02100229031e-07
1.08759217429e-07
6.94453757256e-06
1.2979487773e-05
1.32813922395e-05
3.95977602603e-06
7.59916739577e-06
4.52358059242e-06
3.43804497136e-06
3.81315605647e-06
2.00916912065e-06
9.95057575932e-07
1.74962384021e-06
1.91963652301e-06
2.49387366125e-06
7.31697315556e-07
3.01245309749e-07
2.91062815632e-07
6.36551965031e-07
1.19681935039e-07
1.19630961504e-07
3.62910438393e-07
7.97017867615e-07
4.76966207904e-08
1.59598502335e-07
5.22028609737e-07
2.60118454905e-06
3.30555712661e-06
7.86534585576e-07
1.78538389663e-07
1.06810605758e-06
1.85657025906e-06
1.54104390586e-06
2.1583511974e-06
1.2206332506e-06
9.52684379339e-07
1.64805000364e-07
7.58976849172e-07
8.14879201813e-07
3.79262700086e-07
2.309822162e-07
1.96872533017e-08
9.84790842679e-08
4.06365066428e-08
6.13671743131e-08
3.81266260592e-07
3.01729167206e-07
7.07530507507e-07
7.31091165138e-07
4.0647270272e-06
2.27347954574e-06
2.21811619386e-06
5.44236940816e-06
3.27696753024e-06
3.46705217724e-06
5.53174148459e-06
2.88474804887e-06
2.47194373031e-06
3.98961892416e-06
2.29025502864e-06
5.191502809e-06
2.8103941639e-07
8.50065042954e-07
4.10754429102e-07
1.02667568966e-06
1.19153099008e-06
3.33809213156e-06
1.35452332138e-06
3.06216267414e-06
1.28596607084e-06
8.22165232656e-07
8.74410427261e-07
1.31431695561e-06
1.3284150416e-06
1.21856413731e-06
8.32822538442e-07
5.85078825022e-07
7.95431692067e-07
4.10876256279e-07
7.87983056191e-07
2.017721689e-08
3.26895842967e-08
1.13234427842e-06
1.01650034772e-06
7.27309880097e-07
1.40926044993e-06
1.63711187757e-06
1.50622135039e-06
8.46285109317e-07
5.38679263789e-07
4.12935078217e-07
2.63641056679e-07
3.14929125041e-07
1.64243421158e-06
1.54205209546e-06
2.16687392624e-07
1.91805596397e-07
4.62816454619e-07
5.13363541504e-07
7.13557105545e-07
7.83132702304e-07
1.11031313226e-06
7.01296031662e-07
1.65143122344e-06
3.88505088424e-08
4.5601979678e-08
2.73256727335e-07
5.45541368403e-07
5.87209888123e-07
1.81788741282e-07
1.2846812415e-06
1.92552420277e-06
1.73003058115e-06
1.91758172338e-06
9.57408071911e-07
6.18412439185e-07
9.64816955674e-07
3.96852275355e-06
9.62080156111e-06
4.86434947142e-06
9.20704236262e-06
6.87061427632e-07
8.17577053214e-07
8.48406571403e-06
5.53863808378e-06
3.21464024968e-06
6.15666964945e-07
2.13615637381e-06
5.89855029288e-06
5.72450063829e-06
1.21725873272e-05
5.98716504477e-06
9.90638208331e-06
8.12259458725e-06
8.33557769214e-06
1.4014287352e-05
6.66841608416e-06
8.23221565741e-06
1.69563680906e-06
6.43589411905e-07
1.65757137818e-06
6.00992371118e-07
3.55697982147e-08
1.8819582527e-06
1.81112996415e-06
1.31708267552e-06
4.07531173797e-06
3.19690477729e-06
4.68060904011e-06
1.73314934403e-06
2.25371405571e-06
3.94007341046e-06
2.23379344659e-06
5.70060732114e-06
4.10394291996e-06
3.3194254742e-06
1.43388023908e-06
1.40501817767e-06
3.01907084102e-07
2.78550003112e-07
1.94054507201e-07
1.85848299179e-07
1.36410505993e-07
1.32144252374e-07
7.09555081457e-08
1.1427430681e-07
1.25254271144e-08
1.45794593942e-09
1.43448434351e-07
4.48666882137e-07
1.72671649387e-07
4.69671615469e-07
1.34226761785e-07
4.76237220497e-07
2.12676345178e-07
1.98124613356e-07
7.62650288854e-07
4.25634953714e-07
3.77898805596e-07
3.81010426529e-07
6.5301393185e-08
1.33144667397e-06
1.88680588174e-06
1.63688788723e-06
1.5470876273e-06
1.87132515024e-06
1.4020943832e-06
1.69484682445e-06
2.73812227469e-06
6.30613303983e-06
2.42859777796e-06
1.90266768155e-06
3.0218541873e-07
1.03773304557e-07
1.46686435392e-05
1.36320497221e-05
1.79256867914e-05
1.47846169416e-06
4.17388114683e-07
2.47790849151e-06
1.21655722598e-06
1.85469580013e-06
4.84940554137e-08
1.31637929802e-07
2.44431252165e-06
2.32766299103e-06
7.65623877261e-08
8.00485462017e-06
2.02418643749e-06
2.60230111363e-06
1.62119510787e-06
8.80728645194e-07
2.23405143551e-06
3.48709454434e-07
3.81667659966e-07
8.88622235213e-08
3.38015458896e-07
2.12197962606e-06
3.29437133334e-08
8.50079662658e-07
1.0763031932e-06
2.94959398146e-07
1.10687493297e-07
4.91423143053e-07
2.20142376416e-07
1.69754872443e-07
4.77367244347e-07
1.69733635673e-07
1.00563688038e-06
2.45595541346e-06
1.51461976025e-06
1.74403238137e-06
4.81890549397e-07
9.3495652912e-07
1.65875335311e-07
1.5210831666e-06
5.20350491682e-07
1.08021768093e-06
4.86797674846e-07
6.47382749424e-07
2.01981662741e-07
2.51560834458e-08
3.8440213557e-07
3.29349155009e-07
1.1866178985e-06
8.9575362528e-07
8.33272485297e-07
4.67306123584e-07
4.13372020925e-07
3.57456060977e-07
1.43196001568e-06
6.82650280115e-07
1.22004345937e-07
1.50740564453e-06
2.25857851936e-08
2.13338547508e-06
1.95713242522e-06
5.36508107832e-07
1.16432830671e-06
5.52871072788e-06
2.81624438589e-07
1.49853530943e-07
1.20650250128e-07
1.23349607003e-07
4.93414553183e-09
1.5584595188e-07
1.17180172486e-08
3.92114286156e-08
4.09873162191e-07
1.41714158085e-07
7.44465364072e-07
7.01100520925e-07
6.58113996346e-07
5.55441153596e-07
6.13431109677e-07
1.93533972747e-06
8.02360845046e-08
4.31567058863e-07
5.17949678857e-07
2.37630394562e-07
2.0290903191e-07
2.32469056627e-07
9.63219475359e-08
3.14880911038e-08
7.6276252198e-07
8.38217212158e-07
1.57249957074e-06
8.18249437532e-07
1.56948501108e-06
1.72264923947e-06
9.68054452454e-07
1.15765105771e-06
5.47095770328e-07
2.78519390527e-06
4.39806477802e-07
5.59297660575e-07
4.65214401039e-06
1.01136099516e-06
2.00734141131e-06
4.74093911893e-07
6.7991011518e-08
2.49916300884e-06
8.19418358396e-08
1.82787401668e-07
9.92387631505e-08
1.94168624649e-07
8.93166092163e-08
8.35443665203e-08
9.70749695387e-08
2.66358181304e-08
1.39900003802e-07
7.16659607376e-08
6.67901825723e-08
2.92748152462e-08
3.91913518825e-08
1.06155663667e-07
9.58263623082e-09
1.35805653775e-07
1.07510703285e-07
7.19474086739e-08
3.62813087758e-08
1.37889724508e-08
1.24318213321e-07
2.16737866267e-06
5.87838670896e-06
1.58689165619e-06
5.37182419593e-08
1.94120877594e-08
4.20351667907e-08
6.47452824209e-08
9.2688915656e-08
9.98397160306e-08
2.19916935612e-07
1.23387185133e-07
1.69016021772e-07
1.07862158522e-06
8.24065100462e-07
5.89142888002e-07
1.57702297795e-07
5.21126701298e-08
2.9737245827e-07
4.2031015325e-07
2.04658067932e-07
1.5762279871e-07
1.22470334872e-07
9.25790772295e-08
1.87065222616e-06
5.34497447144e-06
3.23967130705e-07
2.38712823699e-06
1.8316233243e-06
2.8405698678e-06
3.5900358187e-07
5.92989529645e-07
1.71553292565e-06
1.26701679179e-06
2.92690701416e-06
1.1493520912e-06
6.82497356824e-06
1.45912258216e-06
4.33258935825e-06
7.50991148697e-07
1.00363808815e-07
1.12053367283e-07
1.42982256209e-07
2.97662386346e-08
6.78451460361e-09
1.87321134182e-07
2.06072922189e-07
3.63395916009e-07
2.78457527877e-07
1.849736629e-07
1.64588982744e-07
2.51206988026e-05
6.13846404935e-06
6.53726952892e-06
1.55171478243e-05
3.94697167956e-06
1.53334563795e-05
2.49999468277e-05
2.40975672089e-05
1.49727587056e-05
8.99531718004e-06
2.95164379278e-06
4.46905603708e-06
1.71891487549e-06
1.68772251869e-05
1.30561914365e-05
1.37175811181e-05
1.81744619704e-05
1.75165611344e-05
1.56278894652e-06
1.36212915723e-06
3.90840019002e-08
2.68029895392e-07
5.05307073708e-07
2.47739079119e-07
5.31223796173e-07
4.01149503341e-06
2.49743077241e-06
6.48041620074e-06
3.71177583393e-06
5.78170210104e-06
6.74242790739e-06
4.63713818458e-06
1.02000616505e-05
2.11599917722e-05
1.69776593172e-05
1.36141335139e-05
1.00747597424e-05
1.16240409563e-07
6.61385523982e-06
5.13275397168e-06
3.46292061692e-06
2.43401817807e-06
6.30129522845e-07
6.60653864069e-09
3.07197468757e-07
5.29270044106e-07
2.35865067111e-06
1.89729360609e-06
5.35408660756e-06
4.20652846283e-06
5.28357583238e-06
3.29340139087e-06
2.17777117995e-06
7.55991782661e-07
8.12487720097e-07
2.27641271116e-06
7.51442733885e-07
2.73721173992e-07
8.74860954007e-08
1.77446263628e-07
7.24327037153e-07
6.49406564513e-07
4.2468832982e-07
2.84682915351e-07
4.90870483641e-07
4.26758796426e-07
1.31085245299e-06
7.45602080387e-07
8.44125235357e-07
3.6194599276e-07
1.33215695701e-06
1.55462141777e-06
3.70588009618e-07
3.29896801864e-07
3.28285177388e-08
1.19315895982e-07
2.81789055853e-07
6.06048134904e-08
1.53728564922e-07
9.09130798023e-08
1.22655284061e-07
1.60720814137e-07
2.11865097579e-07
1.88232111432e-07
2.67594380997e-07
2.15663181917e-07
3.48112604046e-07
1.20073007857e-07
8.36756976917e-07
3.81481621748e-07
9.85672849294e-07
2.64343144567e-07
7.19864187117e-07
2.73451205045e-07
1.66289854904e-07
8.06134791088e-07
7.86671453959e-07
1.2258457393e-06
1.33373410705e-06
3.72068543489e-07
5.65501736351e-07
3.61120824574e-07
1.06194829665e-06
6.95508518362e-07
1.1728137401e-06
3.42367087355e-07
4.82935361525e-07
1.03557298826e-07
4.28130541317e-07
6.88044633294e-07
4.21784928408e-07
4.09680348107e-08
7.31511158091e-07
4.98851995265e-07
9.04635786247e-07
1.04062251371e-06
6.74538066774e-07
5.32986297936e-07
1.63583870001e-06
2.28131741635e-06
2.0348572763e-06
2.02200807271e-06
7.62992053943e-06
1.03315950304e-05
5.44677718923e-06
2.09808337108e-06
1.33850751199e-06
6.22254053851e-07
1.23697155114e-06
6.87480586507e-07
1.54136988593e-06
2.41088377454e-06
1.48142747788e-06
2.62816105019e-06
3.3994386593e-06
3.90930816324e-06
3.46210864448e-06
9.54932723015e-07
3.41149230751e-06
5.58159972009e-06
5.7617691533e-07
4.25393313596e-06
2.75773820351e-06
1.35357506907e-07
3.50827530462e-07
1.6618483968e-06
5.07858322513e-07
6.29434933683e-07
4.13674592643e-07
2.33962971344e-07
7.23562333819e-07
4.59579643416e-07
3.30312937646e-07
9.1324578394e-07
7.7736029182e-07