# vtk DataFile Version 3.0
File Name: Molecule/arg/arg_5.0-2.vtk
ASCII
DATASET UNSTRUCTURED_GRID
FIELD FieldData 1
TIME 1 1 double
0.0
POINTS 874 double
-3.403 0.327 1.604
-3.45 0.103 1.078
-3.138 0.005 1.702
-3.183 -0.208 1.2
-2.981 -0.361 1.858
-3.028 -0.584 1.332
-3.298 -0.003 0.536
-3.038 -0.309 0.683
-2.876 -0.691 0.79
-2.971 0.024 0.066
-2.725 -0.284 0.235
-2.549 -0.664 0.32
-2.984 0.046 0.042
-2.617 -0.045 -0.207
-2.63 -0.024 -0.229
-2.351 -0.22 -0.527
-2.365 -0.198 -0.55
-2.2 -0.483 -0.862
-2.216 -0.458 -0.889
-3.25 0.578 -0.258
-2.686 0.062 -0.328
-2.904 0.498 -0.574
-2.48 -0.047 -0.742
-2.684 0.361 -0.973
-2.39 -0.269 -1.153
-2.617 0.185 -1.409
-3.173 1.207 -0.458
-2.84 1.014 -0.738
-2.625 0.846 -1.127
-2.55 0.723 -1.58
-2.776 1.74 -0.497
-2.515 1.451 -0.77
-2.319 1.256 -1.157
-2.211 1.177 -1.613
-2.622 1.932 -0.429
-2.434 1.563 -0.734
-2.291 1.743 -0.67
-2.16 1.459 -1.077
-2.01 1.647 -1.011
-1.982 1.439 -1.492
-1.81 1.654 -1.416
-2.666 2.281 -0.134
-2.046 2.135 -0.548
-2.085 2.448 -0.283
-1.615 2.438 -0.879
-1.659 2.787 -0.585
-2.622 2.533 0.247
-2.045 2.674 0.059
-1.614 3.039 -0.203
-2.495 2.657 0.67
-1.932 2.785 0.438
-1.488 3.163 0.22
-2.925 2.572 1.071
-2.251 2.77 1.005
-2.634 2.694 1.361
-2.033 3.002 1.293
-2.411 2.928 1.645
-1.863 3.333 1.507
-2.279 3.251 1.894
-3.186 2.284 1.521
-2.865 2.437 1.761
-2.64 2.674 2.039
-2.53 2.972 2.328
-3.419 1.801 1.788
-2.888 2.359 1.917
-3.122 1.876 2.185
-2.717 2.558 2.345
-2.979 2.017 2.644
-3.567 1.179 1.827
-3.202 1.735 2.161
-3.333 1.184 2.196
-3.094 1.732 2.585
-3.223 1.188 2.619
-3.107 1.793 3.017
-3.25 1.192 3.055
-3.408 0.559 1.798
-3.191 0.635 2.17
-3.084 0.647 2.593
-3.095 0.593 3.027
-3.105 0.348 2.085
-3.1 0.088 1.867
-2.97 0.105 2.152
-3.02 0.504 2.546
-2.901 0.29 2.606
-2.978 0.383 3.085
-2.865 -0.346 2.113
-2.52 -0.7 2.425
-2.789 -0.06 2.411
-2.48 -0.378 2.69
-2.828 0.19 2.745
-2.523 -0.123 3.02
-2.645 0.041 3.387
-2.46 -1.117 2.184
-2.148 -0.9 2.844
-2.09 -1.3 2.613
-2.003 -1.142 3.367
-1.937 -1.6 3.103
-2.268 -1.45 1.888
-1.906 -1.62 2.328
-1.726 -1.965 2.777
-1.967 -1.659 1.57
-1.617 -1.821 2.023
-1.396 -2.195 2.428
-1.592 -1.721 1.268
-1.257 -1.88 1.733
-0.984 -2.263 2.097
-2.026 -1.588 0.931
-1.351 -1.766 0.91
-1.757 -1.641 0.594
-1.133 -1.941 0.578
-1.555 -1.812 0.25
-0.96 -2.23 0.303
-1.437 -2.084 -0.068
-2.342 -1.257 0.596
-2.053 -1.332 0.28
-1.861 -1.491 -0.075
-1.784 -1.721 -0.435
-2.487 -0.785 0.321
-2.189 -0.889 0.022
-2.002 -1.032 -0.342
-1.943 -1.202 -0.738
-2.264 -0.668 -0.026
-2.322 -0.554 -0.027
-2.141 -0.611 -0.433
-2.203 -0.492 -0.433
-2.131 -0.618 -0.861
-2.114 -0.682 -1.181
-1.927 -1.264 -1.052
-2.312 -0.441 -1.376
-2.121 -0.506 -1.916
-2.042 -0.816 -1.214
-1.838 -0.886 -1.79
-1.682 -1.348 -1.746
-1.975 -0.256 -2.322
-1.864 -0.768 -1.888
-1.672 -0.441 -2.421
-1.897 0.192 -2.527
-1.57 0.147 -2.691
-1.996 0.646 -2.441
-1.495 0.306 -2.776
-1.602 0.798 -2.682
-1.198 0.386 -3.152
-1.328 0.981 -3.039
-2.011 1.039 -2.18
-1.619 1.224 -2.399
-1.348 1.496 -2.696
-1.72 1.257 -2.235
-1.479 1.817 -1.75
-1.107 2.057 -2.211
-1.346 2.153 -1.415
-1.642 2.007 -1.116
-1.319 2.584 -1.178
-0.816 3.013 -1.267
-1.111 2.259 -1.642
-0.623 2.675 -1.729
-0.543 2.537 -2.312
0.466 3.148 -0.891
-0.416 2.926 -1.599
0.331 3.005 -1.38
-0.131 2.956 -2.042
0.328 3.005 -1.907
-0.002 3.1 -2.533
0.456 3.148 -2.398
-0.048 3.337 -3.001
0.699 3.415 -2.782
0.833 2.913 -0.61
0.619 2.806 -1.364
0.976 2.577 -1.092
0.892 2.689 -1.891
1.303 2.425 -1.576
1.057 2.557 -0.305
1.192 2.232 -0.796
1.553 2.026 -1.234
0.979 2.767 0.195
1.24 2.204 -0.113
1.167 2.404 0.362
1.539 1.918 0.039
1.462 2.128 0.539
0.737 2.845 0.68
0.936 2.478 0.823
1.22 2.206 1.024
0.406 3.093 0.833
0.71 2.572 1.142
0.419 2.789 1.277
0.841 2.425 1.643
0.539 2.651 1.783
1.112 2.426 2.108
0.748 2.699 2.276
0.011 3.456 0.651
0.142 3.058 1.218
-0.201 3.373 1.06
-0.01 3.117 1.656
-0.348 3.428 1.5
-0.034 3.266 2.099
-0.415 3.616 1.924
-0.504 3.599 0.465
-0.648 3.497 0.898
-0.789 3.55 1.341
-0.913 3.754 1.744
-1.038 3.495 0.311
-1.112 3.406 0.765
-1.247 3.461 1.209
-1.429 3.653 1.595
-1.502 3.118 0.685
-1.632 3.177 1.131
-0.05 3.403 2.531
0.304 2.919 2.221
0.288 3.057 2.654
0.729 2.855 2.766
-0.175 3.437 2.964
0.162 3.091 3.09
0.587 2.894 3.259
-0.395 3.364 3.353
-0.059 3.019 3.48
0.337 2.812 3.701
-0.687 3.194 3.654
-0.352 2.847 3.783
0.006 2.617 4.044
-1.13 3.18 3.766
-0.58 2.815 3.881
-1.094 2.799 4.011
-1.584 3.151 3.721
-1.62 2.766 3.959
-1.995 3.111 3.523
-2.096 2.719 3.73
-2.312 3.063 3.198
-2.464 2.664 3.352
-2.498 3.015 2.783
-2.679 2.608 2.871
-0.832 2.373 4.277
-0.242 2.183 4.431
-1.061 1.806 4.483
-0.466 1.628 4.634
-1.364 2.231 4.354
-1.452 1.611 4.604
-1.713 1.977 4.492
-1.735 2.528 4.103
-2.033 2.233 4.276
-2.128 2.66 3.763
-2.373 2.347 3.982
-2.496 2.611 3.374
-2.69 2.305 3.646
-2.791 2.388 2.985
-2.945 2.113 3.311
-1.464 1.095 4.666
-0.956 1.592 4.533
-0.968 1.074 4.596
-0.48 1.041 4.705
-1.655 0.731 4.634
-1.079 0.886 4.596
-1.26 0.541 4.565
-0.689 0.687 4.666
-0.881 0.322 4.633
-0.333 0.517 4.869
-0.555 0.096 4.831
-2.027 0.463 4.516
-1.383 0.368 4.531
-1.728 0.119 4.423
-1.114 -0.009 4.584
-1.476 -0.27 4.469
-0.878 -0.357 4.785
-1.3 -0.661 4.651
-2.342 0.241 4.242
-2.019 -0.087 4.169
-1.783 -0.487 4.202
-1.658 -0.914 4.34
-2.557 0.093 3.848
-2.219 -0.224 3.803
-1.993 -0.631 3.818
-1.903 -1.082 3.892
-2.301 -0.273 3.375
-2.078 -0.682 3.368
-0.557 -0.612 4.999
-0.228 -0.165 5.05
-0.202 -0.89 5.102
0.134 -0.447 5.155
0.164 -1.171 5.088
0.507 -0.734 5.141
0.37 -1.612 4.973
0.615 -0.976 5.092
0.811 -1.395 4.983
1.043 -0.806 5.264
1.249 -1.247 5.15
0.578 -1.993 4.725
1.008 -1.757 4.747
1.457 -1.629 4.901
0.77 -2.282 4.364
1.191 -2.031 4.405
1.649 -1.918 4.541
0.93 -2.454 3.923
1.343 -2.194 3.985
1.809 -2.089 4.099
1.044 -2.494 3.437
1.451 -2.232 3.524
1.923 -2.129 3.613
1.103 -2.399 2.949
1.506 -2.141 3.061
1.981 -2.034 3.126
1.1 -2.176 2.501
1.504 -1.93 2.635
1.979 -1.811 2.678
1.037 -1.846 2.131
1.444 -1.616 2.284
1.916 -1.481 2.307
0.647 -2.269 2.118
0.836 -1.714 1.711
0.512 -2.064 1.7
0.77 -1.662 1.233
0.47 -1.987 1.224
0.848 -1.697 0.757
0.525 -2.047 0.746
1.061 -1.813 0.337
0.67 -2.236 0.324
0.119 -2.499 2.107
0.075 -2.255 1.691
0.064 -2.164 1.215
0.088 -2.237 0.737
0.142 -2.466 0.313
-0.457 -2.497 2.099
-0.401 -2.253 1.685
-0.378 -2.162 1.209
-0.389 -2.235 0.73
-0.434 -2.464 0.306
-0.837 -2.059 1.682
-0.782 -1.983 1.207
-0.825 -2.042 0.728
1.48 -1.078 0.031
1.032 -1.487 0.709
1.333 -0.958 0.489
1.12 -1.273 1.146
1.358 -0.854 0.972
1.315 -1.197 1.595
1.553 -0.779 1.421
1.592 -1.27 1.999
1.893 -0.741 1.779
2.335 -0.746 2.002
1.639 -0.712 -0.547
1.476 -0.549 0.311
1.615 -0.229 -0.195
1.697 -0.118 0.66
1.842 0.216 0.134
1.696 -1.15 -0.796
1.805 -0.426 -1.067
1.856 -0.818 -1.29
2.201 -0.141 -1.444
2.256 -0.562 -1.683
1.615 -1.54 -1.111
1.784 -1.167 -1.572
0.186 -1.352 -2.841
-0.548 -1.409 -2.576
-0.152 -1.05 -2.884
-0.822 -1.287 -2.506
-0.408 -0.948 -2.806
-0.669 -0.831 -2.739
-0.336 -0.591 -3.197
-0.616 -0.466 -3.125
-1.31 -1.347 -2.194
-0.988 -0.705 -2.664
-1.485 -0.767 -2.346
-1.322 -0.31 -2.728
-0.95 -0.071 -3.189
0.104 -0.811 -3.39
-0.311 -0.212 -3.619
0.128 -0.454 -3.788
-0.16 0.24 -3.931
0.27 -0.03 -4.081
0.101 0.716 -4.098
0.516 0.418 -4.238
-0.411 1.252 -3.909
0.377 1.347 -4.4
0.11 1.626 -4.301
-0.398 1.946 -3.588
0.117 1.987 -4.134
-0.712 2.237 -2.975
-0.106 2.463 -3.53
-0.314 2.656 -3.124
0.028 3.029 -3.665
-0.135 3.18 -3.347
-0.202 2.855 -2.684
0.9 3.106 -3.671
0.173 2.486 -3.833
0.85 2.546 -3.838
0.989 2.064 -4.14
0.819 3.383 -2.845
1.267 2.733 -3.406
1.204 2.948 -2.765
1.749 2.404 -3.353
1.668 2.681 -2.526
0.902 2.914 -2.485
0.749 2.956 -2.405
1.123 2.627 -2.01
1.688 2.19 -1.733
1.962 2.454 -2.382
2.133 1.624 -1.992
2.194 2.159 -2.516
2.141 1.301 -1.585
2.428 1.273 -2.257
2.435 0.969 -1.874
2.042 0.907 -1.262
2.342 0.599 -1.57
1.911 1.516 -1.257
1.884 0.909 -0.851
1.768 1.444 -0.847
1.861 0.913 -0.411
1.75 1.425 -0.407
1.976 0.918 0.014
1.858 1.462 0.018
1.454 1.892 -0.826
1.449 1.855 -0.388
1.867 0.812 -0.4
1.753 0.215 -0.299
1.896 0.717 -0.83
1.788 0.151 -0.734
2.06 0.644 -1.234
1.942 0.027 -1.129
2.566 1.229 -2.871
2.241 1.687 -2.422
2.339 1.656 -2.857
2.27 2.135 -2.856
2.341 1.264 -3.459
2.179 1.681 -3.275
2.146 2.154 -3.181
1.83 1.363 -3.817
1.817 1.751 -3.528
1.863 2.209 -3.379
1.605 0.935 -4.222
1.413 1.57 -3.947
1.254 1.267 -4.234
1.103 1.869 -4.167
0.979 1.632 -4.39
1.11 0.579 -4.381
0.902 1.014 -4.346
0.705 1.435 -4.478
0.482 0.901 -4.245
1.404 2.01 -3.684
1.315 2.161 -3.664
2.007 0.383 0.735
1.733 -0.159 1.085
2.004 0.279 1.15
1.861 -0.287 1.473
2.124 0.139 1.536
2.068 -0.489 1.788
2.355 -0.024 1.857
2.675 -0.196 2.083
2.074 0.941 0.928
2.063 0.767 1.319
2.181 0.613 1.7
2.417 0.492 2.036
2.749 0.417 2.295
1.884 1.434 1.198
1.897 1.199 1.555
2.02 1.032 1.93
2.241 0.95 2.287
2.541 0.959 2.592
1.624 1.884 1.117
1.755 1.469 1.75
1.503 1.904 1.671
1.842 1.579 2.299
1.557 2.073 2.21
1.11 2.216 1.58
1.886 1.845 2.759
2.132 1.224 2.493
2.174 1.477 2.929
2.585 1.225 3.051
1.814 2.002 3.263
2.105 1.625 3.407
2.513 1.382 3.555
1.633 2.033 3.763
1.933 1.655 3.881
2.331 1.413 4.055
1.359 1.937 4.21
1.674 1.563 4.305
2.058 1.316 4.502
1.021 1.721 4.561
1.354 1.359 4.638
1.72 1.101 4.853
0.651 1.408 4.781
1.002 1.062 4.847
1.35 0.788 5.074
0.073 1.245 4.841
0.82 0.891 4.947
0.23 0.725 5.008
0.672 0.387 5.179
1.205 0.294 5.301
0.564 -0.173 5.245
1.099 -0.256 5.367
-1.834 2.927 0.971
1.396 -0.602 0.696
1.678 -0.195 -0.741
-2.913 1.955 -0.341
-3.327 1.641 -0.268
-3.327 2.032 -0.008
-2.913 2.297 -0.026
-3.327 2.292 0.383
-2.913 2.519 0.384
-3.327 2.384 0.843
-3.656 1.544 0.048
-3.656 1.916 0.37
-3.656 2.055 0.843
-3.656 1.916 1.316
-3.867 1.641 0.843
-3.867 1.411 1.241
-3.656 0.342 1.089
-3.656 0.609 1.504
-3.867 0.951 1.241
-3.867 0.721 0.843
-3.656 0.342 0.597
-3.867 0.951 0.445
-3.656 0.609 0.182
-3.656 1.057 -0.022
-3.867 1.411 0.445
-3.94 1.181 0.843
-2.457 -1.44 1.367
-2.786 -1.076 1.613
-2.786 -1.076 1.121
-2.457 -1.348 0.907
-2.786 -0.809 2.028
-2.215 0.2 -2.35
[...]
CELL_DATA 1744
SCALARS cell_data_0 double
LOOKUP_TABLE default
1.9178847666e-06
3.59343134447e-06
1.86920846109e-06
1.95039037822e-06
4.11721015003e-06
4.02842627955e-06
3.71166116687e-06
2.60812173259e-06
2.19017447088e-06
1.3283761758e-06
1.97475141558e-06
4.37240956674e-07
2.49167128452e-08
3.03004413526e-08
1.34089684441e-07
3.50006651899e-08
5.56504279654e-08
1.46138063127e-07
3.91937058342e-06
5.58624828867e-06
3.95527418946e-06
4.33227625808e-06
1.09298212802e-06
1.21777885986e-06
1.00651384038e-05
8.09064189959e-06
6.57505839547e-06
6.42612081044e-06
4.39132521736e-06
4.88697993154e-06
7.35676801009e-06
5.98560434749e-06
8.78135902596e-06
5.6672032854e-06
4.1896768357e-06
8.358936639e-07
6.76555349285e-07
5.2704061035e-07
3.33251636144e-07
3.76679357967e-07
9.80432639612e-08
5.92465943099e-07
7.65167662743e-06
6.8853135821e-06
2.02169714592e-06
1.97366494376e-06
7.98538424409e-06
4.32438053391e-06
4.23679747878e-06
6.90363776373e-06
6.72326577033e-06
6.50911700733e-06
7.0433383323e-06
6.91337782322e-06
2.35316524071e-05
1.89195867367e-05
2.34007160261e-05
2.18113665672e-05
2.43257901337e-05
7.81307909481e-06
1.52373696695e-05
5.70137993575e-06
9.01767597056e-06
1.40378916044e-05
9.47424423832e-06
1.06878229237e-05
3.24929064247e-06
6.81702966086e-06
5.28213220464e-06
4.89255600101e-06
7.97256529503e-06
5.60146441448e-06
4.37061217785e-06
1.90957024345e-06
2.27602985419e-06
2.75914111113e-06
3.9034786542e-06
2.1504701981e-06
1.67988357616e-06
1.49763438654e-06
1.76506044985e-06
3.18033404964e-06
4.85786116996e-07
2.89193146417e-08
4.49184142071e-07
4.53605830116e-07
9.18224591361e-07
8.99087920626e-07
7.04788042676e-07
1.67788328959e-07
6.51110307088e-07
4.06369921569e-08
8.35819940398e-08
7.73956289541e-08
1.87641573438e-07
1.65992362075e-07
6.10839120443e-07
1.84884847274e-06
3.65832814492e-06
3.21690561374e-06
7.21556578809e-07
1.38349351318e-06
1.95286080189e-06
1.7960741725e-06
7.2875142565e-07
1.2145337042e-06
1.42467591839e-06
1.15709020174e-06
8.88175048075e-07
1.15173525443e-06
1.07232016717e-06
7.99134213484e-08
8.43122899096e-07
8.45551707467e-07
1.20188214606e-06
1.16684795986e-06
1.21333650363e-06
1.05668034345e-06
6.06796108744e-07
7.96853275156e-07
9.41302316122e-07
1.02449319192e-06
1.0246321379e-06
7.94540288176e-07
1.16353837631e-07
3.48803436876e-07
7.89043270133e-07
9.32391355049e-07
6.94608631755e-07
3.79187422739e-07
1.20334774224e-07
3.00492370085e-07
3.09975444951e-07
3.88916489785e-07
3.5074579746e-07
4.4563961047e-07
3.29252246536e-07
1.3035184311e-06
6.3882258011e-07
5.78143397552e-07
1.14577739155e-06
1.46993527843e-06
1.04985490988e-06
1.87891708009e-07
8.50822171453e-07
1.16597520442e-06
9.57501292655e-07
1.27839620199e-06
1.2717857869e-06
1.37298911879e-06
1.41190264172e-06
2.51336175247e-06
1.92158622767e-06
2.49233937447e-06
2.44789468247e-06
3.20382166848e-06
1.99986032045e-06
2.71496791878e-06
5.39829507369e-06
5.27555066167e-06
2.59916762482e-06
2.40457243441e-06
2.43185029649e-06
1.85164923432e-06
4.61338008485e-06
5.57844898036e-06
5.77818751139e-06
6.58547499481e-06
6.9873465379e-06
3.36174492187e-06
4.56356710962e-06
8.55141534199e-07
2.3648860222e-06
1.63567005027e-06
4.53893559741e-06
8.49776957674e-06
1.27567117445e-06
1.47109662733e-06
1.81499154193e-06
5.03650044795e-06
3.25053199418e-06
3.93993460831e-06
3.97831676523e-06
5.25032238638e-06
2.4857254535e-06
2.13817650469e-06
2.15612586785e-06
2.23583925662e-06
1.8921388606e-06
1.80395958624e-06
2.03665806773e-06
1.90921153511e-06
1.5819977071e-06
1.39762858302e-06
1.46922701194e-06
1.10166475405e-06
1.3164931888e-06
1.74879125842e-06
9.78159212813e-07
5.78227569769e-07
3.52042470701e-07
4.07238600569e-07
4.72977455509e-07
4.52970841209e-07
6.28032709927e-07
4.99336009763e-07
5.09657265667e-07
4.25848541827e-07
3.18777379411e-07
2.59969491673e-07
5.4500833202e-07
4.66305967813e-07
4.22420846875e-07
2.85186264773e-07
2.6732702105e-07
1.06198857626e-07
4.95192679476e-07
2.65344471481e-07
3.13162968517e-07
1.60894148049e-07
2.04005251556e-07
1.10587499681e-06
5.74914707371e-07
5.40116717464e-07
1.22938518239e-06
1.60506502001e-06
1.1556224226e-07
1.75414949879e-07
4.34767191323e-07
4.26819993906e-07
1.28435227585e-06
2.40986253199e-06
1.97193846341e-06
6.65452476605e-06
2.29499088688e-06
7.01687009736e-07
4.52602071777e-06
3.27350075738e-06
2.6948453506e-07
9.95348374924e-08
3.68782979655e-08
1.07577303875e-07
3.07940240664e-08
3.98072615014e-08
9.98848765488e-08
1.35201029621e-07
1.47021735349e-09
2.40002951597e-08
1.3466842618e-06
2.75140240638e-06
1.78588996126e-06
2.79796045703e-06
2.96700248921e-06
1.77876098154e-06
1.10504255985e-06
4.25480725001e-06
7.52233242541e-06
1.10541339772e-05
1.92254613697e-05
1.79942743794e-05
2.73141893338e-05
2.00238922993e-05
2.26365968566e-05
1.57163405984e-05
9.3245717038e-06
6.61088348151e-06
2.76382977243e-06
4.50363695747e-06
4.3656719919e-06
1.91621167933e-06
2.01631059388e-06
2.01691896521e-06
2.16374700728e-06
9.15081107897e-07
8.74705466527e-07
6.04085799879e-07
2.80938133279e-07
2.28023722224e-07
1.2217172352e-07
4.23155933805e-07
9.00978460847e-07
1.00958077106e-06
1.10366502316e-06
1.94546876637e-06
8.50333402057e-07
4.10154370056e-06
3.39957756947e-06
7.25544244905e-06
5.3895300911e-06
4.68416852572e-06
4.96762927352e-06
3.07177160845e-06
4.1878651255e-06
1.37671780758e-06
3.61682702175e-06
9.37600387757e-07
5.8754222707e-07
5.62534598418e-07
5.47877201551e-07
1.33799518213e-06
2.48661893027e-06
1.96389249488e-06
2.32358450457e-06
1.13979460345e-06
1.96523884944e-06
2.14605123251e-06
3.83918507892e-06
3.67954033315e-06
2.81839833471e-06
2.28586933373e-06
3.00543958456e-06
3.21675257885e-06
3.110674477e-06
6.2432759918e-06
3.22336509953e-06
2.07307599817e-06
3.70844672021e-06
1.97581685578e-06
1.19174517352e-06
1.38409764756e-06
9.46750212171e-07
1.87551505001e-06
2.01376706157e-06
6.72832852186e-07
8.32352306374e-07
1.87943743044e-06
1.13193497518e-06
8.0241920324e-07
1.49300195446e-06
1.36926914394e-06
6.49081732524e-07
5.45131419057e-08
2.45029921034e-07
5.21109897806e-07
2.89409860445e-07
7.58621963073e-07
6.31258971546e-07
5.90205229266e-07
7.03199094901e-08
2.59558601272e-07
1.69688145646e-06
3.0371355902e-07
1.01025494112e-06
2.94364345494e-06
3.07786113076e-06
2.88962400632e-06
1.08576266972e-06
7.2578655355e-07
1.21174211952e-06
1.09657178191e-06
1.87459731461e-06
2.23533077609e-06
2.53790744777e-06
2.10292895357e-06
1.21272535983e-06
1.35575235512e-06
6.00811326161e-09
7.59328483304e-08
7.01353368791e-07
3.79882120647e-07
1.18645980836e-06
1.01837382783e-06
3.08063684644e-06
1.0068740591e-06
3.34183111645e-07
5.35108113273e-07
4.59017952715e-07
1.01814339898e-06
9.77109501415e-07
8.14149343805e-07
3.53591833102e-06
7.31763027947e-08
1.41645918509e-06
1.42360813939e-05
4.06417652496e-06
7.97647009396e-06
3.6310342267e-06
3.99566962629e-05
2.72817791998e-05
3.03747386319e-05
3.56062535663e-07
4.37990422516e-06
4.68111889569e-06
1.2752849063e-06
2.66602293665e-05
4.66598533365e-05
1.51827528862e-05
1.92800182266e-05
9.59389558792e-05
5.5064812513e-05
4.13534148181e-06
2.00913818704e-06
1.27213388191e-07
1.86252005515e-06
2.84384794788e-06
2.88745516715e-06
2.17025473434e-06
2.08241922245e-07
1.98346183696e-06
8.40468972902e-07
1.85312875159e-06
1.02561829412e-05
1.91436069914e-06
4.57227588963e-06
2.42652772093e-06
3.78835820528e-06
8.31962900099e-06
6.84256959478e-06
1.13825901799e-05
7.93642694296e-06
1.12399673902e-05
8.3652977446e-06
1.03098762729e-05
7.40760630503e-06
1.07896702596e-05
6.53047889065e-06
7.34521130174e-06
5.02345075776e-06
8.41827069125e-06
7.62167288932e-06
8.4349203802e-06
2.04574227014e-05
2.57182748641e-05
2.56407437175e-05
2.51873768171e-05
4.16140148399e-05
1.21467691447e-06
1.80186543509e-06
2.19698568982e-06
4.68307438005e-06
2.31028243881e-05
1.0173761531e-05
9.57480796065e-06
5.09541424853e-06
1.44977606944e-06
1.38420936736e-05
1.45771205814e-05
1.00566401031e-05
5.28303306222e-07
4.05037615178e-06
6.3233212503e-06
1.87068209346e-05
7.55584344162e-06
2.82309353059e-06
1.63967988825e-06
3.86737258374e-07
1.32917104112e-05
1.04076391434e-05
7.85419064796e-06
5.67538436531e-07
4.628460953e-07
1.21972476771e-07
5.66603619656e-06
3.42326226174e-06
1.09967782609e-05
5.17757370353e-06
6.48067851189e-06
1.75518492258e-06
6.82262848098e-09
5.64664495276e-07
2.82583913564e-06
2.15186573121e-06
3.26881703852e-07
2.26976581073e-07
6.26881467927e-07
1.21178501484e-06
6.29189193558e-08
1.38258563767e-06
1.68670652769e-06
2.59588249887e-06
2.56444388478e-07
6.18499739431e-07
2.89005157184e-06
2.79170993186e-06
8.52110260553e-07
9.04773051106e-08
1.04438534284e-06
2.15777964918e-06
2.09813208019e-06
4.42996812257e-07
1.59521191278e-06
3.43137622295e-06
2.76558499505e-06
1.41870311185e-06
1.81378132969e-06
3.3937134668e-06
2.28807751189e-06
4.03661511701e-06
1.95168294422e-06
2.76756678901e-06
2.03343384514e-06
5.48124332755e-06
4.075085651e-06
1.46830291502e-05
6.73131109491e-06
7.77732104906e-06
6.98132958059e-06
1.01891391737e-05
9.12479683296e-06
1.0057774205e-05
1.44214820561e-05
1.57337505042e-05
8.09574810845e-06
4.39914814002e-06
8.01357952154e-06
2.19576825364e-06
3.70794720219e-06
9.10463353938e-07
4.07184217953e-06
1.99881713513e-06
8.6644151978e-07
1.18946997677e-06
1.46177510556e-06
1.96085893238e-06
1.21875451764e-06
1.31761172647e-06
1.1748194256e-06
2.18993816999e-06
1.63548447373e-06
1.02236756219e-06
2.08548236244e-06
3.4585178555e-06
2.51784459894e-06
1.62663320572e-06
1.91318168397e-06
1.99782023297e-06
1.73933297545e-07
5.89614325727e-07
2.0776239637e-06
4.61832613411e-06
2.40290603897e-06
1.84718540946e-06
2.0295759064e-06
1.46613517346e-06
5.00132908229e-07
5.28866098137e-07
5.49701448665e-07
5.17372717958e-07
8.20848698864e-07
9.19114897677e-07
2.0381167659e-07
1.02767261343e-06
4.71763208584e-06
1.66127986756e-06
1.34358862431e-07
3.6104315458e-07
4.37485559191e-06
1.66348856415e-06
8.14755183588e-08
2.70924260054e-08
3.71164970352e-07
1.20795379518e-06
3.01264549111e-07
2.1647483487e-07
1.69424865753e-07
7.75370601111e-07
9.07432086253e-08
8.46454431976e-07
1.01872357119e-06
6.49174007527e-07
7.54639133519e-07
1.16209337389e-08
1.38849679006e-06
7.5149640379e-07
3.91963660883e-07
6.94215886533e-07
2.07016664562e-07
1.50387253053e-06
8.33026326387e-07
9.85146898791e-07
1.53781599339e-06
3.4769541329e-07
7.15886576316e-07
2.38383299636e-06
1.59609420672e-06
2.39324326624e-06
5.39373161765e-07
1.22225324108e-07
6.41851759505e-06
1.30067289699e-05
1.25482331815e-05
3.58545170609e-06
7.61240474431e-06
4.54465562192e-06
3.46230008191e-06
3.83342713981e-06
2.01797422418e-06
9.91431908753e-07
1.74850414526e-06
1.91164527242e-06
2.48942996728e-06
7.29130949828e-07
3.00266717382e-07
2.91660640296e-07
6.35563924106e-07
1.19092950435e-07
1.20003976903e-07
3.63065749249e-07
7.92728401298e-07
4.86784916527e-08
1.606799986e-07
5.19880285935e-07
2.60196500226e-06
3.31049539292e-06
7.85648341387e-07
1.13634848397e-07
4.71896819106e-07
5.08114500353e-07
4.70032152356e-07
8.96363865725e-07
1.02764700388e-06
8.48459980493e-07
1.6457657586e-07
7.60169736054e-07
8.16080944251e-07
3.79032914142e-07
2.30431625728e-07
1.92660825871e-08
9.75334088701e-08
4.06657135044e-08
6.15689129e-08
3.80604692997e-07
3.04832681342e-07
7.06725109593e-07
7.31249378521e-07
4.06410040388e-06
2.26177285877e-06
2.19745759389e-06
5.33683219358e-06
3.22117903577e-06
3.39649032539e-06
5.53823897807e-06
2.88789393629e-06
2.4743926991e-06
4.38319523381e-06
2.68428315451e-06
5.82628136253e-06
3.25693757641e-07
8.53244782852e-07
4.13938359768e-07
3.29425913875e-06
1.17021205455e-06
3.53525123168e-06
1.05093267088e-06
3.06443414083e-06
2.09150041783e-06
1.26735972555e-06
1.28802921727e-06
1.30822397476e-06
1.32465744836e-06
1.22364026836e-06
8.41689911585e-07
5.8725796035e-07
8.04552428881e-07
4.12041474075e-07
7.86455390243e-07
1.97353640163e-08
3.23785960582e-08
1.12912570999e-06
1.01416921439e-06
7.23859594073e-07
1.40079198292e-06
1.63995196327e-06
1.50730837921e-06
8.59687236626e-07
5.37368600414e-07
4.11442736098e-07
2.6087732928e-07
3.12418578771e-07
1.64394221694e-06
1.54862056971e-06
6.66167281637e-07
7.65185142715e-07
1.22919693627e-06
5.384482213e-07
3.3473632554e-07
7.81643691674e-07
3.28630913335e-07
2.81802851078e-07
1.06386549051e-06
9.97815489391e-06
1.08298739152e-05
2.80054872559e-05
4.77235865556e-06
1.64394626699e-05
3.24523012546e-06
1.40084129015e-06
7.26787721169e-07
2.57584167565e-06
6.78921727233e-06
5.26636790899e-06
1.00995749231e-06
9.20002229856e-08
5.8177735737e-07
4.00637909769e-07
1.2345063503e-06
3.04816589791e-06
7.2962254516e-07
8.80887851134e-08
1.54542786771e-06
4.45324852654e-07
2.40552886262e-07
6.0402370557e-07
2.10061446508e-06
2.70897297524e-06
2.79057563838e-06
1.1695817993e-05
6.67693873617e-06
1.20468027328e-05
9.71375861218e-06
1.04326442864e-05
6.36561021515e-06
9.40551800801e-06
1.06252268404e-05
3.01214835049e-06
1.25411024728e-06
2.62468455934e-06
5.1927666032e-06
7.55992260149e-07
1.25969789567e-06
3.42799707888e-07
6.16325354268e-07
3.50883315933e-06
2.32987163026e-06
4.24455767662e-06
1.46546509109e-06
8.60206267703e-07
7.27279403364e-07
1.49771088169e-06
1.28689206522e-06
4.65196385563e-07
2.94167617919e-07
1.7932092804e-06
1.73497487183e-06
1.81345994585e-07
2.47544564363e-07
1.36625801016e-07
1.50146157287e-07
6.46228162965e-08
6.36430612096e-07
2.15749538573e-06
6.79716417133e-07
7.81064435969e-07
4.11411150998e-08
1.55163713254e-06
2.48250150124e-06
8.37151747116e-07
7.17529044095e-07
6.15497145421e-07
7.03687362661e-07
9.26897456419e-07
1.7623366747e-06
1.65520976749e-06
2.59976548285e-06
2.46335792397e-06
3.06117926311e-06
2.34200121352e-06
1.76445001674e-06
7.67782661951e-07
6.42041037568e-07
5.99734119913e-07
5.43508865446e-07
1.49002368511e-06
2.40341085669e-06
2.56344228549e-06
6.37881650209e-06
3.25298695713e-06
2.61210046548e-06
8.62502076516e-07
2.92973095572e-07
1.48356236107e-05
1.42520887143e-05
1.84822531466e-05
1.59219131909e-06
4.63786891027e-07
2.45301632952e-06
1.1629843602e-06
1.81797316349e-06
3.85329487411e-08
7.30106514652e-08
2.71215878928e-06
4.80882825419e-06
1.95050598352e-06
1.20521030838e-05
5.29688046227e-06
4.00021940619e-06
2.99964375647e-06
2.0592590118e-06
2.82607208089e-06
8.13123366739e-07
6.49557062635e-07
3.57875797981e-07
5.96168967089e-07
2.88428924526e-06
3.39508225898e-08
1.92611838022e-08
1.45905738245e-08
2.41139188605e-08
2.23838549974e-07
1.55804200148e-07
4.5436979388e-07
3.46874050501e-07
2.06189720167e-07
1.59183729987e-07
6.46155542578e-08
7.5178771184e-07
8.36424499154e-07
1.41053277163e-06
1.63554202709e-07
9.38692098894e-07
1.66775702965e-07
5.1105906257e-07
1.20993738877e-07
3.22931279771e-07
1.75542345734e-08
6.50063542935e-07
2.01585400556e-07
2.52064043031e-08
1.95315934009e-07
4.28550098334e-07
1.39078508584e-06
8.62941018049e-07
7.90457033842e-07
3.59145957017e-07
3.56195555343e-07
2.45606828929e-07
1.40320690088e-06
6.02131814489e-07
9.03310032718e-08
1.1817167296e-06
2.40293068758e-07
2.529632327e-06
2.30063408538e-06
5.36794311215e-07
1.16704628472e-06
5.53664179959e-06
8.13427171702e-07
7.0450958257e-07
6.38532359493e-07
8.56326507027e-07
6.87415091605e-07
5.43773361024e-07
6.94122600889e-07
6.44997418288e-07
7.03389337233e-07
6.54042519825e-07
9.698572573e-07
9.19734614303e-07
8.37176717462e-07
7.39927923396e-07
5.03965761127e-07
1.88439507962e-06
1.50576512793e-08
5.5492091527e-07
6.18800898353e-07
7.03694254299e-07
8.87930293316e-07
5.83928559392e-07
4.51058510174e-07
4.56685647856e-07
1.15160964964e-06
1.20459756393e-06
2.08198447377e-06
1.46071930598e-06
1.89901197488e-06
2.04821783035e-06
1.47184860857e-06
1.36404509534e-06
1.05456129381e-06
4.28647825221e-06
1.16254093901e-06
8.9443553557e-07
5.02984910575e-06
1.20252779629e-06
2.08887224798e-06
5.83100762571e-07
2.16761692393e-07
2.44257471857e-06
7.84900449789e-08
2.38340759871e-07
1.74460639252e-07
2.89191607791e-07
2.2454242683e-07
8.86540403759e-08
2.24942757146e-08
7.36929246874e-08
2.75937879693e-07
1.67228403721e-07
2.66199832464e-08
1.73744183975e-08
4.26084826595e-08
8.22181437549e-08
1.0699084317e-07
1.75190965269e-07
1.18908191516e-07
1.54294630811e-08
1.52058376971e-07
2.04938450878e-07
8.36364194947e-08
2.33900866725e-06
6.10060540202e-06
1.70106266414e-06
3.40010227437e-08
2.27280707317e-08
2.04774966178e-07
1.29663675404e-07
1.63468615606e-07
1.63354678811e-07
1.80602401511e-07
5.85350713415e-08
1.52133220054e-07
1.04775806364e-06
7.70849687973e-07
5.77906789885e-07
1.57385777589e-07
3.30934704164e-08
2.80431965146e-07
4.26439540322e-07
2.1012196052e-07
1.87626149218e-07
1.73403029536e-07
1.33805131683e-07
1.92718853454e-06
5.43947134569e-06
3.24091934992e-07
2.38700183471e-06
1.83139877733e-06
2.83593357485e-06
3.54523692782e-07
5.87937391537e-07
1.71562334086e-06
1.26671612517e-06
2.92825460546e-06
1.15011618357e-06
6.83478626853e-06
1.46663420064e-06
4.33960647264e-06
7.53068816085e-07
2.44201342787e-05
6.64540612504e-06
1.42269697031e-05
1.73253460565e-05
2.4624923948e-05
1.84578474184e-05
2.71637739167e-05
1.03433862149e-05
1.61317190239e-05
9.73762321771e-06
3.27101993084e-06
8.32714583552e-06
5.0933610604e-06
4.07723625741e-06
1.46192190876e-05
8.34171690655e-06
7.76243939663e-06
1.58323726288e-05
9.37323656185e-06
1.62831951754e-05
1.81978830722e-05
6.03729648155e-06
5.70402551593e-06
2.19596926246e-06
5.15612833722e-06
1.01324589669e-06
3.10465205381e-06
5.54905793654e-06
2.92805640675e-06
5.58078987854e-06
4.89846636885e-06
1.80837245301e-05
1.02634845917e-05
1.02583613956e-05
1.35442966031e-05
6.57765106795e-07
4.22799496494e-06
2.85107982179e-06
6.80682747736e-06
2.08599636463e-05
2.2233132706e-05
2.39338041028e-05
2.748847904e-05
1.36037655256e-05
1.238312671e-05
7.62474092199e-06
3.84631336185e-06
5.0707395808e-06
1.15656377954e-07
5.5455390279e-06
4.89095613751e-06
3.21589473187e-06
1.76131187076e-06
1.28343588314e-06
2.33808656892e-07
8.64380908538e-07
8.25750479187e-07
5.2568763561e-07
3.2574253832e-07
9.40511295761e-07
9.77626695796e-07
2.90919433374e-06
1.885998662e-06
2.62700033325e-06
1.26507084281e-06
1.06385662551e-06
7.65681758071e-07
5.62481590121e-07
9.22582081462e-08
7.58162792924e-08
1.96510013585e-07
4.10113688096e-07
5.48278211845e-08
1.69503612422e-07
3.09882953527e-07
4.13533661021e-07
5.76556728199e-07
6.64510134961e-07
5.6421467186e-07
6.45869015805e-07
4.08939346671e-07
1.77090884985e-06
1.41690914976e-06
2.1564712663e-06
6.53873127575e-07
3.20819553174e-07
1.10171626638e-06
1.53748497363e-07
5.40877352481e-07
2.14283434645e-07
9.17184293373e-09
2.78343125529e-07
1.59713123066e-07
3.34103433799e-07
7.37327675546e-08
7.8810531448e-08
2.48882726398e-06
1.56306355956e-06
1.77000176898e-06
9.19672048804e-07
9.48718071485e-07
1.68802833673e-07
2.72053875688e-07
4.11476394225e-07
4.30082211076e-07
5.52067327074e-07
9.28545964587e-07
4.68989353161e-07
1.99319719709e-07
9.61094057708e-08
3.71103929422e-07
4.89614058463e-08
3.03248851209e-07
1.67592755003e-06
8.34110270367e-07
1.2071859851e-06
4.26644007293e-07
4.87945796251e-07
4.03524963423e-07
1.01570075251e-06
1.36863214687e-06
1.68447698818e-06
1.52504453592e-07
3.7600374056e-07
5.17860526005e-07
7.15702639939e-07
7.44320893718e-07
4.28201359355e-07
4.86315280425e-07
1.26215538043e-06
2.0527469531e-06
2.74232436227e-06
2.92417084413e-06
6.08041146078e-06
4.04365337658e-06
4.42672771924e-06
1.83046974682e-06
3.37128318464e-07
7.67012061982e-08
6.77526961902e-07
5.14750114222e-07
1.76841849906e-06
2.02193149494e-06
1.15144484086e-06
1.12385606319e-06
2.4130758325e-06
3.0653724602e-06
3.7984081254e-06
1.16036179753e-06
3.69925604182e-06
6.82821910435e-06
2.04037394407e-06
4.79142164383e-06
2.77110431921e-06
1.93992817618e-07
6.01633494714e-07
1.93482494427e-06
5.19547489114e-07
9.51766689924e-07
7.28603420963e-07
5.4175136487e-07
7.96533243682e-07
2.6263145714e-07
2.04951103797e-07
3.94710293182e-07
4.79230364055e-08
1.24022358877e-07
6.96530983581e-07
2.16553417344e-07
2.42889126519e-07
4.63628346032e-08
3.80249883539e-07
5.08384983407e-07
7.15063617671e-07
8.8310968357e-07
5.37391511072e-07