# vtk DataFile Version 3.0
File Name: Molecule/arg/arg_12.0-2.vtk
ASCII
DATASET UNSTRUCTURED_GRID
FIELD FieldData 1
TIME 1 1 double
0.0
POINTS 2154 double
-3.403 0.327 1.604
-3.452 0.202 1.348
-3.215 0.119 1.662
-3.262 -0.0 1.417
-3.073 -0.113 1.748
-3.12 -0.233 1.503
-2.981 -0.361 1.858
-3.03 -0.485 1.602
-3.45 0.103 1.078
-3.261 -0.095 1.158
-3.118 -0.328 1.244
-3.028 -0.584 1.332
-3.398 0.034 0.803
-3.211 -0.162 0.894
-3.068 -0.394 0.98
-2.976 -0.654 1.057
-3.298 -0.003 0.536
-3.114 -0.197 0.638
-2.972 -0.43 0.724
-2.876 -0.691 0.79
-3.153 -0.007 0.286
-2.976 -0.201 0.399
-2.833 -0.433 0.485
-2.731 -0.694 0.541
-2.971 0.024 0.066
-2.801 -0.171 0.187
-2.658 -0.404 0.273
-2.549 -0.664 0.32
-2.984 0.046 0.042
-2.699 -0.017 -0.133
-2.712 0.004 -0.155
-2.471 -0.12 -0.363
-2.484 -0.099 -0.385
-2.302 -0.279 -0.611
-2.316 -0.256 -0.635
-2.2 -0.483 -0.862
-2.216 -0.458 -0.889
-3.158 0.288 -0.115
-2.753 0.07 -0.229
-2.901 0.276 -0.363
-2.57 0.022 -0.532
-2.704 0.21 -0.654
-2.446 -0.093 -0.847
-2.58 0.095 -0.969
-2.39 -0.269 -1.153
-2.537 -0.063 -1.287
-3.25 0.578 -0.258
-2.98 0.523 -0.485
-2.777 0.436 -0.766
-2.653 0.32 -1.08
-2.617 0.185 -1.409
-3.255 0.893 -0.375
-2.985 0.792 -0.586
-2.781 0.681 -0.857
-2.657 0.565 -1.172
-2.621 0.454 -1.509
-3.173 1.207 -0.458
-2.914 1.061 -0.656
-2.716 0.926 -0.921
-2.592 0.81 -1.236
-2.55 0.723 -1.58
-3.008 1.498 -0.5
-2.774 1.309 -0.692
-2.588 1.151 -0.954
-2.464 1.036 -1.268
-2.41 0.97 -1.615
-2.776 1.74 -0.497
-2.575 1.516 -0.689
-2.407 1.34 -0.951
-2.283 1.225 -1.266
-2.211 1.177 -1.613
-2.622 1.932 -0.429
-2.515 1.601 -0.663
-2.37 1.782 -0.599
-2.287 1.501 -0.894
-2.142 1.682 -0.83
-2.106 1.446 -1.176
-1.952 1.639 -1.108
-1.982 1.439 -1.492
-1.81 1.654 -1.416
-2.663 2.202 -0.218
-2.323 2.018 -0.459
-2.36 2.267 -0.264
-2.046 2.135 -0.548
-2.083 2.377 -0.358
-1.806 2.278 -0.69
-1.844 2.526 -0.495
-1.615 2.438 -0.879
-1.656 2.708 -0.668
-2.655 2.421 0.048
-2.352 2.47 -0.019
-2.075 2.574 -0.12
-1.836 2.729 -0.25
-1.647 2.927 -0.402
-2.597 2.577 0.351
-2.3 2.613 0.261
-2.024 2.713 0.152
-1.783 2.872 0.03
-1.59 3.083 -0.1
-2.495 2.657 0.67
-2.205 2.687 0.555
-1.932 2.785 0.438
-1.689 2.947 0.324
-1.488 3.163 0.22
-2.797 2.625 0.927
-2.31 2.73 0.924
-2.585 2.701 1.158
-2.137 2.872 1.156
-2.401 2.844 1.381
-1.986 3.077 1.354
-2.255 3.048 1.583
-1.863 3.333 1.507
-2.155 3.302 1.755
-3.035 2.497 1.22
-2.8 2.584 1.424
-2.608 2.732 1.635
-2.466 2.934 1.844
-2.385 3.178 2.038
-3.186 2.284 1.521
-2.937 2.39 1.697
-2.739 2.546 1.897
-2.601 2.744 2.112
-2.53 2.972 2.328
-3.324 2.06 1.667
-2.975 2.319 1.779
-3.111 2.099 1.924
-2.815 2.412 2.059
-2.958 2.183 2.21
-2.717 2.558 2.345
-2.872 2.307 2.509
-3.419 1.801 1.788
-3.205 1.843 2.043
-3.055 1.917 2.334
-2.979 2.017 2.644
-3.531 1.499 1.816
-3.247 1.745 2.062
-3.348 1.473 2.087
-3.133 1.725 2.369
-3.23 1.464 2.393
-3.086 1.741 2.693
-3.185 1.474 2.718
-3.107 1.793 3.017
-3.215 1.501 3.044
-3.567 1.179 1.827
-3.381 1.183 2.097
-3.262 1.186 2.403
-3.217 1.189 2.728
-3.25 1.192 3.055
-3.525 0.859 1.821
-3.342 0.893 2.092
-3.225 0.909 2.398
-3.18 0.905 2.723
-3.209 0.883 3.049
-3.408 0.559 1.798
-3.236 0.622 2.071
-3.123 0.649 2.378
-3.075 0.639 2.703
-3.095 0.593 3.027
-3.105 0.348 2.085
-3.1 0.088 1.867
-2.97 0.105 2.152
-3.031 0.459 2.387
-2.908 0.238 2.449
-3.027 0.542 2.707
-2.911 0.332 2.766
-2.978 0.383 3.085
-2.865 -0.346 2.113
-2.719 -0.541 2.278
-2.797 -0.13 2.332
-2.664 -0.308 2.482
-2.794 0.071 2.575
-2.666 -0.1 2.72
-2.855 0.244 2.83
-2.724 0.07 2.978
-2.837 0.195 3.245
-2.52 -0.7 2.425
-2.482 -0.453 2.616
-2.491 -0.24 2.849
-2.546 -0.073 3.11
-2.645 0.041 3.387
-2.495 -0.985 2.272
-2.309 -0.792 2.616
-2.285 -1.065 2.47
-2.148 -0.9 2.844
-2.124 -1.174 2.697
-2.044 -1.018 3.098
-2.02 -1.306 2.944
-2.003 -1.142 3.367
-1.975 -1.455 3.199
-2.41 -1.24 2.09
-2.204 -1.309 2.295
-2.042 -1.418 2.522
-1.933 -1.562 2.76
-1.882 -1.734 2.999
-2.268 -1.45 1.888
-2.068 -1.51 2.101
-1.906 -1.62 2.328
-1.791 -1.774 2.557
-1.726 -1.965 2.777
-2.078 -1.605 1.676
-1.885 -1.659 1.899
-1.723 -1.769 2.124
-1.599 -1.93 2.343
-1.517 -2.136 2.544
-1.848 -1.697 1.466
-1.666 -1.747 1.697
-1.503 -1.857 1.923
-1.367 -2.023 2.131
-1.265 -2.236 2.314
-1.592 -1.721 1.268
-1.42 -1.77 1.508
-1.257 -1.88 1.733
-1.109 -2.047 1.932
-0.984 -2.263 2.097
-1.82 -1.681 1.103
-1.41 -1.742 0.999
-1.625 -1.705 0.842
-1.237 -1.838 0.739
-1.452 -1.801 0.583
-1.085 -2.004 0.503
-1.311 -1.964 0.338
-0.96 -2.23 0.303
-1.211 -2.186 0.121
-2.026 -1.588 0.931
-1.819 -1.616 0.68
-1.646 -1.713 0.421
-1.517 -1.871 0.167
-1.437 -2.084 -0.068
-2.203 -1.444 0.759
-1.986 -1.481 0.518
-1.813 -1.578 0.259
-1.692 -1.729 -0.004
-1.631 -1.926 -0.256
-2.342 -1.257 0.596
-2.117 -1.305 0.364
-1.944 -1.402 0.106
-1.83 -1.543 -0.166
-1.784 -1.721 -0.435
-2.438 -1.034 0.448
-2.208 -1.094 0.224
-2.034 -1.191 -0.034
-1.926 -1.321 -0.313
-1.889 -1.476 -0.598
-2.487 -0.785 0.321
-2.254 -0.858 0.104
-2.08 -0.956 -0.154
-1.974 -1.073 -0.44
-1.943 -1.202 -0.738
-2.311 -0.692 0.068
-2.37 -0.577 0.067
-2.189 -0.632 -0.224
-2.248 -0.516 -0.225
-2.128 -0.607 -0.539
-2.191 -0.484 -0.54
-2.131 -0.618 -0.861
-2.114 -0.682 -1.181
-2.003 -0.9 -0.803
-1.987 -0.962 -1.114
-1.927 -1.264 -1.052
-2.312 -0.441 -1.376
-2.242 -0.501 -1.651
-2.116 -0.68 -1.269
-2.044 -0.743 -1.552
-1.985 -0.96 -1.159
-1.906 -1.028 -1.469
-1.837 -1.343 -1.406
-2.121 -0.506 -1.916
-1.92 -0.747 -1.824
-1.77 -1.033 -1.766
-1.682 -1.348 -1.746
-2.018 -0.367 -2.203
-1.864 -0.768 -1.888
-1.729 -0.586 -2.265
-1.939 -0.122 -2.418
-1.625 -0.265 -2.547
-1.897 0.192 -2.527
-1.57 0.147 -2.691
-1.971 0.497 -2.491
-1.62 0.271 -2.677
-1.697 0.588 -2.639
-1.383 0.337 -2.889
-1.468 0.686 -2.847
-1.198 0.386 -3.152
-1.296 0.786 -3.104
-2.011 0.787 -2.372
-1.738 0.89 -2.515
-1.513 1.019 -2.711
-1.347 1.167 -2.948
-2.011 1.039 -2.18
-1.739 1.151 -2.316
-1.514 1.306 -2.491
-1.348 1.496 -2.696
-2.106 1.164 -1.908
-1.72 1.257 -2.235
-1.844 1.421 -1.879
-1.631 1.561 -2.005
-1.505 1.361 -2.45
-1.417 1.659 -2.224
-1.259 1.801 -2.466
-1.479 1.817 -1.75
-1.268 1.91 -1.974
-1.107 2.057 -2.211
-1.379 2.028 -1.517
-1.683 1.878 -1.211
-1.325 2.288 -1.323
-1.617 2.145 -1.029
-1.319 2.584 -1.178
-1.091 2.821 -1.245
-1.192 2.409 -1.391
-0.972 2.637 -1.456
-1.111 2.259 -1.642
-0.89 2.489 -1.707
-1.083 2.139 -1.92
-0.849 2.382 -1.989
-0.852 2.322 -2.287
-0.816 3.013 -1.267
-0.707 2.822 -1.477
-0.623 2.675 -1.729
-0.568 2.578 -2.012
-0.543 2.537 -2.312
-0.463 3.323 -1.084
-0.576 2.949 -1.44
-0.315 3.179 -1.304
-0.367 2.923 -1.657
-0.177 3.089 -1.559
-0.198 2.935 -1.908
-0.057 3.059 -1.834
-0.077 2.986 -2.18
0.041 3.09 -2.119
-0.01 3.073 -2.462
0.111 3.18 -2.399
-0.0 3.192 -2.74
0.151 3.324 -2.662
-0.048 3.337 -3.001
0.158 3.517 -2.895
0.018 3.374 -0.943
0.042 3.216 -1.2
0.081 3.117 -1.483
0.136 3.08 -1.778
0.202 3.107 -2.072
0.276 3.197 -2.351
0.356 3.346 -2.601
0.438 3.547 -2.812
0.466 3.148 -0.891
0.373 3.049 -1.162
0.322 2.995 -1.455
0.315 2.989 -1.757
0.352 3.031 -2.055
0.43 3.12 -2.333
0.548 3.25 -2.579
0.699 3.415 -2.782
0.725 3.006 -0.709
0.525 2.952 -1.115
0.774 2.816 -0.939
0.619 2.806 -1.364
0.87 2.668 -1.187
0.743 2.717 -1.627
1.008 2.572 -1.44
0.892 2.689 -1.891
1.182 2.53 -1.686
0.926 2.805 -0.509
0.968 2.622 -0.748
1.065 2.473 -0.994
1.214 2.366 -1.236
1.407 2.305 -1.463
1.057 2.557 -0.305
1.094 2.383 -0.551
1.192 2.232 -0.796
1.348 2.112 -1.027
1.553 2.026 -1.234
1.025 2.711 0.026
1.165 2.316 -0.174
1.134 2.463 0.143
1.328 2.1 -0.057
1.298 2.247 0.259
1.539 1.918 0.039
1.507 2.071 0.37
0.916 2.809 0.362
1.03 2.557 0.464
1.193 2.341 0.58
1.398 2.17 0.706
0.737 2.845 0.68
0.859 2.592 0.768
1.023 2.375 0.884
1.22 2.206 1.024
0.406 3.093 0.833
0.701 2.668 0.949
0.4 2.893 1.088
0.724 2.531 1.242
0.435 2.747 1.375
0.803 2.443 1.543
0.507 2.664 1.68
0.935 2.407 1.837
0.613 2.648 1.986
1.112 2.426 2.108
0.748 2.699 2.276
0.2 3.324 0.732
0.198 3.058 1.115
0.015 3.263 1.025
0.05 3.076 1.433
-0.124 3.271 1.348
-0.029 3.146 1.769
-0.208 3.348 1.68
-0.034 3.266 2.099
-0.232 3.489 2.002
-0.057 3.491 0.624
-0.214 3.412 0.929
-0.342 3.413 1.256
-0.433 3.494 1.586
-0.481 3.65 1.897
-0.35 3.583 0.516
-0.475 3.494 0.833
-0.59 3.491 1.165
-0.688 3.574 1.492
-0.764 3.739 1.794
-0.659 3.595 0.416
-0.75 3.504 0.744
-0.852 3.5 1.08
-0.958 3.584 1.405
-1.063 3.75 1.697
-0.965 3.525 0.33
-1.022 3.441 0.667
-1.111 3.441 1.007
-1.225 3.523 1.329
-1.358 3.682 1.613
-1.247 3.378 0.263
-1.273 3.311 0.607
-1.35 3.316 0.95
-1.471 3.394 1.271
-1.631 3.54 1.549
-1.488 3.12 0.569
-1.554 3.135 0.914
-1.681 3.207 1.233
-0.032 3.368 2.384
0.177 3.023 2.187
0.179 3.124 2.469
0.443 2.83 2.247
0.444 2.936 2.542
0.75 2.815 2.6
-0.08 3.426 2.677
0.131 3.181 2.758
0.395 2.996 2.845
0.695 2.881 2.933
-0.175 3.437 2.964
0.038 3.192 3.042
0.296 3.007 3.142
0.587 2.894 3.259
-0.313 3.4 3.231
-0.099 3.156 3.306
0.154 2.97 3.419
0.431 2.852 3.563
-0.486 3.318 3.465
-0.27 3.074 3.537
-0.025 2.884 3.661
0.234 2.758 3.828
-0.687 3.194 3.654
-0.468 2.951 3.724
-0.233 2.756 3.857
0.006 2.617 4.044
-0.978 3.186 3.746
-0.58 2.815 3.881
-0.918 2.806 3.988
-1.283 3.172 3.769
-1.271 2.79 4.014
-1.584 3.151 3.721
-1.62 2.766 3.959
-1.866 3.125 3.605
-1.947 2.736 3.824
-2.113 3.095 3.427
-2.233 2.701 3.618
-2.312 3.063 3.198
-2.464 2.664 3.352
-2.452 3.031 2.928
-2.626 2.627 3.04
-2.526 3.0 2.633
-2.712 2.591 2.698
-0.707 2.613 4.1
-0.29 2.688 3.939
-0.414 2.492 4.151
-0.119 2.419 4.258
-0.832 2.373 4.277
-0.535 2.258 4.323
-0.242 2.183 4.431
-0.951 2.101 4.406
-0.651 1.995 4.448
-0.359 1.917 4.558
-1.061 1.806 4.483
-0.757 1.709 4.523
-0.466 1.628 4.634
-1.253 2.101 4.412
-1.452 1.611 4.604
-1.618 1.865 4.542
-1.482 2.346 4.283
-1.815 2.077 4.43
-1.735 2.528 4.103
-2.033 2.233 4.276
-1.998 2.635 3.884
-2.26 2.326 4.086
-2.256 2.664 3.636
-2.483 2.351 3.873
-2.496 2.611 3.374
-2.69 2.305 3.646
-2.703 2.48 3.112
-2.869 2.192 3.42
-2.867 2.279 2.864
-3.01 2.018 3.206
-1.454 1.356 4.66
-1.124 1.592 4.538
-1.126 1.34 4.593
-0.789 1.598 4.548
-0.791 1.334 4.606
-0.469 1.338 4.698
-1.464 1.095 4.666
-1.135 1.082 4.6
[...]
CELL_DATA 4304
SCALARS cell_data_0 double
LOOKUP_TABLE default
8.51049419992e-08
1.6419516478e-07
2.14584150292e-07
2.2737645599e-07
2.05354313168e-07
1.96912017192e-07
1.21491070071e-07
1.62901944624e-07
2.05785302525e-07
2.13484002733e-07
2.0655876621e-07
2.20771863974e-07
1.28311264251e-07
1.69069601301e-07
2.07473694633e-07
2.12187322696e-07
2.13151471232e-07
2.53547376829e-07
1.6140926303e-07
2.36472203048e-07
2.46630552075e-07
2.89608502841e-07
2.89123241054e-07
2.9836084588e-07
2.44814820167e-07
2.67631897623e-07
3.1039479634e-07
3.24751847386e-07
3.06294922298e-07
3.24516716351e-07
2.22276595515e-07
2.76596675993e-07
3.30993289688e-07
3.65442130979e-07
3.80958738058e-07
3.66815087489e-07
3.58813729834e-08
6.31691329115e-08
6.89508680815e-08
8.56892616195e-08
9.81135707774e-08
1.16456327809e-07
1.26538593796e-07
1.24703890182e-07
2.63416897617e-07
2.73314775353e-07
4.98482091142e-07
4.80839433524e-07
6.37052692977e-07
6.59004188122e-07
7.20302058562e-07
7.54954271957e-07
2.04292383341e-08
1.61035340588e-07
3.11086194549e-07
3.36260962711e-07
4.21281414951e-07
3.92011757678e-07
5.60868166895e-07
5.5899652125e-07
1.19045154233e-07
5.49869230771e-08
1.59407647005e-07
1.14937113957e-07
1.88623315948e-07
3.41805210211e-07
4.50459531131e-07
5.60330265183e-07
2.493550916e-07
1.62981224374e-07
1.91208384427e-07
2.58183774565e-07
1.29851709044e-07
1.88492985621e-07
4.44117185455e-07
4.27555322941e-07
2.22438610546e-07
2.63788008318e-07
4.69998433652e-07
5.87093546919e-07
4.38977938416e-07
3.41067664079e-07
1.86760773708e-07
5.54522003949e-07
5.60118716731e-08
8.48745575413e-07
1.59335662283e-06
3.80971591585e-06
2.40491156361e-06
3.03878912502e-06
1.88677865159e-06
4.3668167231e-07
6.73436389393e-07
9.2665417811e-07
1.81591443148e-06
9.40497076649e-07
2.4536656163e-07
4.8721221355e-08
8.10117531401e-07
1.24958990618e-06
1.00335590587e-06
2.03633863669e-06
9.5280348294e-07
6.25685034582e-07
1.21616946601e-07
1.8174669334e-07
2.25876873652e-07
1.70986008832e-07
2.32203088282e-06
1.76453842997e-06
1.36212490788e-06
6.76773970138e-07
2.93944404396e-07
1.74771567093e-07
2.06779971572e-07
4.06771966821e-07
1.60864228084e-06
1.12188756235e-06
7.83284955261e-07
3.69946524943e-07
2.4824104288e-07
3.2223241941e-07
4.74331134174e-07
7.5669002516e-07
6.45961645144e-07
4.95362342275e-07
6.03565834496e-07
4.65045338197e-07
3.93649865677e-07
3.36378040808e-07
4.85130855198e-07
2.74156169639e-07
9.26288131193e-07
1.51423413488e-06
1.21573018411e-06
1.87428095327e-06
1.6692280431e-06
1.85748216145e-06
9.69141007945e-07
1.43676218568e-06
2.17806232662e-06
1.30612304724e-06
1.66506905794e-06
1.41570776582e-06
1.86817218491e-06
1.52948578522e-06
1.88764732198e-06
2.05243586724e-06
1.00653082363e-06
7.8109354203e-07
1.04030161724e-06
9.32612249335e-07
1.0272980855e-06
1.01659955408e-06
1.48279230819e-06
1.20005783702e-06
9.02176333146e-07
9.42877267134e-07
1.00512024842e-06
9.51777376302e-07
7.89545055264e-07
8.51529638566e-07
7.84957067839e-07
8.34384681538e-07
9.42490257111e-07
1.1432565619e-06
1.09584711678e-06
9.78510740287e-07
1.02015668513e-06
1.08707695698e-06
8.56165692421e-07
8.74675006639e-07
9.13177967552e-07
1.08849519204e-06
1.00201087259e-06
1.32540707967e-06
1.83662423862e-06
1.62429437032e-06
1.13875490924e-06
1.16137293078e-06
1.07875638517e-06
1.34396158431e-06
1.51483022033e-06
1.98536814569e-06
2.13183815993e-06
2.01603261677e-06
1.79817018458e-06
1.97458046729e-06
1.61890015058e-06
2.05719029553e-06
1.97913277417e-06
2.65694858649e-06
1.75394285764e-06
1.57911160321e-06
2.2749914318e-06
1.86749254761e-06
2.02952688079e-06
1.57938456042e-06
1.90695186111e-06
1.24762622125e-06
4.75453735182e-07
1.75040702453e-07
5.35400873253e-07
7.94330555233e-07
1.3673075053e-06
1.32331635197e-06
8.92529220427e-07
6.4978630564e-07
1.60179180191e-07
4.6140145149e-09
6.25714124755e-07
7.32637323588e-07
7.01498014686e-07
6.16868273633e-07
4.81786516575e-07
3.95491655693e-07
3.59577127065e-07
7.20483075568e-07
5.53602160381e-07
3.49246447109e-07
4.81453454262e-07
3.89793336673e-07
3.66896536305e-07
5.16349811341e-07
7.73739806366e-07
9.16805194017e-07
3.39160284837e-07
5.00390979326e-07
2.09976729911e-07
2.15525081918e-07
1.03313698959e-06
9.26488282476e-07
1.39414305818e-06
6.69575055332e-07
1.15625610462e-06
1.09876980246e-06
6.43150514041e-07
2.76710121059e-07
2.77819049891e-07
2.16249667605e-07
8.79181056105e-08
7.61402084389e-07
1.72673442475e-06
1.42495230398e-06
7.08830814373e-07
7.22814005511e-07
5.05077379847e-07
1.12572472003e-06
1.10941580505e-06
2.08194479889e-06
1.61220306181e-06
1.45601080591e-06
1.52652988037e-06
1.57446081165e-06
1.45826999773e-06
1.58840876233e-06
1.96370736161e-06
2.69852520175e-06
2.30603949587e-06
2.60595690275e-06
1.97773341673e-06
1.87563826743e-06
1.56650431614e-06
2.37733911491e-06
2.81018697882e-06
3.99505184692e-06
2.1318428758e-06
1.51442135114e-06
1.99737932426e-06
1.39144945538e-06
1.94929562001e-06
1.68582862452e-06
2.71534281394e-06
2.15451330323e-06
6.84841733676e-07
6.50330475744e-07
3.03172356102e-07
6.7397707387e-07
3.62574490701e-07
9.063636856e-07
5.46976987197e-07
1.91912087439e-06
1.62277255024e-06
2.17192179351e-06
1.74790772767e-06
1.43500086572e-06
1.00343089409e-06
7.5807641334e-07
1.7821256147e-06
2.25328595444e-06
3.72786460707e-06
3.86206282545e-06
2.21622601788e-06
1.04613717057e-06
2.96571585551e-07
4.5268022392e-07
1.13223300607e-06
1.07857504673e-06
3.40570099626e-06
1.93221777522e-06
1.29528855302e-06
5.88946605534e-07
5.95702597583e-07
9.57266487786e-07
5.73356536475e-07
1.15269372003e-06
1.10410467371e-06
1.44747629979e-06
1.55412768621e-06
1.89013273894e-06
1.18912543224e-06
3.31009307956e-06
3.52702896593e-06
6.68953399788e-06
1.07088877803e-06
4.34464957831e-06
6.09871932595e-06
1.00029614108e-05
7.82904016222e-06
6.26025115342e-06
4.20462333451e-06
2.06425181438e-06
4.92205888052e-08
1.00327149182e-07
2.24888792252e-07
3.77130055469e-07
3.02691321708e-07
1.10217324744e-06
6.10762192847e-07
2.71429372673e-07
2.23125609319e-06
2.68559647136e-06
3.39258690834e-06
1.14474507099e-07
7.51357466298e-07
6.84584012626e-07
4.32013434737e-07
1.15161949761e-06
9.89212130097e-07
1.99449147169e-06
1.02224278973e-06
4.50312976972e-06
1.09871609527e-06
4.78821859517e-06
6.64882636415e-06
5.82927675591e-06
4.23171219729e-06
3.81922113269e-06
3.4757075259e-07
7.80265958797e-07
1.1011406227e-06
1.69403842493e-06
4.285005801e-07
5.28039875607e-07
1.28758030235e-06
3.29728188425e-06
2.27055994957e-06
9.69173707087e-07
2.95776392385e-07
6.06683141376e-07
2.48476531117e-06
1.36146498151e-06
6.76420433588e-07
3.27737918768e-07
5.40837008265e-08
7.51833193909e-08
1.89486599816e-07
3.0943472533e-07
4.33959237953e-07
2.82111430124e-08
1.69973013439e-07
1.09190580841e-06
6.12370787465e-07
4.17092442907e-08
5.07499957543e-08
1.1511253386e-06
1.26954510624e-06
1.00636631418e-06
1.16636437294e-06
1.25860822285e-06
1.10071620485e-06
1.23763010921e-06
1.18063847845e-06
1.35381879312e-06
1.35316388289e-06
1.00070839774e-06
7.77936888856e-07
6.34348055814e-07
6.19393495065e-07
6.7683393094e-07
4.26166516624e-07
4.59771746287e-07
5.95730393149e-07
6.67507558998e-07
7.89095317708e-07
9.14662933633e-07
1.00819954672e-06
1.13780110697e-06
4.45304465835e-07
6.5253806006e-07
6.07763598587e-07
7.4424603204e-07
8.0154022209e-07
1.00812358666e-06
1.08085901246e-06
1.73879374049e-06
6.16356620504e-07
4.11514724679e-07
4.90717910956e-07
4.47916314184e-07
4.64504815295e-07
4.20946696625e-07
4.2540269695e-07
4.09801703172e-07
6.25567349822e-07
7.85930483814e-07
1.07551946538e-06
1.19470441804e-06
1.3501117096e-06
1.37024487924e-06
5.30378224751e-07
5.07039795438e-07
5.32950876877e-07
4.52946764835e-07
4.86878583241e-07
4.27089134615e-07
4.33161070006e-07
4.35018050652e-07
4.69614832387e-07
5.83946364103e-07
5.87894041238e-07
8.02963761746e-07
8.84606419654e-07
1.2806811628e-06
7.10216445395e-07
6.71996219456e-07
6.38861883963e-07
6.19821638946e-07
6.07219005206e-07
5.56132526078e-07
5.5747499341e-07
5.19253038036e-07
5.05473350747e-07
5.70528270933e-07
5.5747885472e-07
8.68974772668e-07
9.11072771558e-07
1.5974710126e-06
6.9432612208e-07
7.32167441688e-07
9.06939330294e-07
1.00868237178e-06
1.10691530292e-06
1.24926721756e-06
1.92207719623e-06
2.13462652007e-06
6.1918550341e-07
7.12597568497e-07
8.5162307471e-07
1.0012056227e-06
1.1329295864e-06
1.29510875219e-06
1.28404805954e-06
1.4870050118e-06
5.94670138475e-07
7.31178708572e-07
9.09522615751e-07
1.12455624066e-06
1.19199891232e-06
1.24045024393e-06
1.21497796765e-06
1.70231957895e-06
3.85892788572e-07
3.12276534379e-07
3.99205300162e-07
3.84113043724e-07
4.31377871909e-07
4.22432503791e-07
2.05197163619e-07
2.53110663479e-07
2.30530781078e-07
1.53487992853e-07
3.23317018735e-07
4.77816800117e-07
8.55119707117e-08
1.55620341503e-07
2.77153552697e-07
3.34341912983e-07
3.83925904935e-07
3.17761845963e-07
3.29705754796e-07
6.54556318867e-08
4.74016045762e-07
5.25342266919e-07
4.70681934843e-07
4.48014452872e-07
3.99111743339e-07
4.00660645464e-07
4.51954330007e-07
4.70451305034e-07
1.20542353853e-07
1.38437038205e-07
2.30169505173e-07
2.54860100109e-07
3.26255970271e-07
2.65665474067e-07
5.24697122619e-08
1.71200269476e-08
1.83271991431e-07
2.68107879706e-07
2.55394341737e-07
3.64299237271e-07
3.02355702538e-07
3.09851888548e-07
2.54213655996e-07
3.14178267597e-07
4.62647810248e-07
4.24870717793e-07
4.03151623597e-07
4.13099716843e-07
3.91604282712e-07
3.66302356885e-07
3.2548884254e-07
3.1739215988e-07
4.78914873442e-07
4.1222118545e-07
4.33354378386e-07
3.66728903367e-07
3.4849982194e-07
2.86962659796e-07
2.72390506417e-07
1.76240804772e-07
2.86631068208e-07
1.29100547039e-07
2.37791908143e-07
8.54817473567e-08
1.79464237233e-07
1.17274844551e-07
1.39411536865e-07
5.5195674866e-08
3.88630465698e-08
1.07487823152e-08
2.4157463946e-08
4.04709145302e-09
2.06508084222e-08
1.76633736673e-08
1.3476776497e-08
1.85810429888e-08
9.08623898524e-08
1.09842652652e-07
4.79945874986e-09
8.42860817089e-08
9.1162774056e-08
6.9792740024e-09
9.84871445036e-08
9.61416404279e-08
1.42004915731e-07
4.17827574328e-07
4.94392423475e-07
5.90708677951e-07
5.06083375909e-07
6.67420574305e-07
3.70912803462e-07
4.33041907171e-07
4.93505770734e-07
6.22743358412e-07
7.50461139968e-07
9.38963067247e-07
3.49870145863e-07
3.83544313556e-07
4.78190941008e-07
5.54913874243e-07
7.12628695163e-07
8.26730713321e-07
2.33950019163e-07
2.48905788573e-07
3.50661343718e-07
3.59885152057e-07
4.91745843516e-07
4.74161037056e-07
9.96744970476e-08
9.26662487772e-08
1.29324238847e-07
6.19206393957e-08
1.38911239992e-07
3.61084862256e-08
5.63474710585e-07
5.4810828368e-07
2.96657867958e-08
5.40504396206e-08
1.49559140251e-09
4.49724236189e-07
1.29794072883e-06
1.16111529096e-07
2.03928543945e-08
7.3557224643e-08
2.01876511316e-07
2.02791718425e-07
2.40548035746e-07
2.15101052693e-07
2.76847343366e-07
2.98394896216e-07
3.00661393073e-07
2.26325503647e-07
2.12250035708e-07
2.10627532317e-07
2.63258749018e-07
2.75774925311e-07
3.68770656033e-07
4.24889382679e-07
2.02223778785e-07
3.58971808547e-08
5.84214519632e-07
4.88452702468e-07
6.02695215779e-08
1.03735093188e-07
5.20359979169e-08
1.84459198201e-07
2.61070872454e-07
2.01470007055e-07
2.4605173856e-07
2.15752716992e-07
4.0927362736e-07
4.48771888847e-07
2.15487597795e-07
5.65562624268e-07
1.99849825732e-06
1.62791430769e-06
1.00223203813e-06
6.47323036842e-07
6.55058293526e-07
1.1122248379e-06
2.28559737946e-06
2.34508295692e-06
1.95291861193e-06
1.25861774777e-06
1.91248218491e-06
3.79274415553e-06
5.81997194027e-06
4.68692167865e-06
4.86635347973e-06
7.33130428751e-06
7.12624620096e-06
4.27938980184e-06
2.40779640771e-07
8.16479211787e-09
1.36089357926e-08
2.03396246817e-08
1.72517768424e-07
1.56054392722e-07
5.97661133814e-07
6.15092590752e-07
3.52967070917e-10
1.24185907821e-08
9.27363771201e-09
2.84147554512e-07
2.23910844559e-06
6.96702663212e-07
4.68385836837e-08
5.3666669181e-08
4.90112072109e-08
6.20133995112e-08
5.38922698155e-07
2.47057669556e-06
7.1498787245e-07
5.17874316386e-08
4.84633520384e-08
4.58760119136e-08
4.56182821139e-08
7.97845413181e-09
1.04458838279e-07
2.75454249785e-07
2.92982067366e-10
3.49147542611e-10
3.55814753855e-08
9.59649490241e-08
1.07566345495e-07
3.63963155111e-07
2.55379001068e-07
5.74509970713e-07
3.11184876058e-07
7.90113334573e-07
7.04672784471e-07
1.09938146751e-06
6.06817354576e-07
8.8560449672e-07
7.8445129136e-07
1.65316851425e-06
2.67550129519e-06
3.03879662851e-06
1.6665075879e-06
1.65376320237e-06
1.29162176422e-06
2.39688972225e-06
2.48024660874e-06
5.41968405793e-06
3.91221718284e-06
3.02194145259e-06
2.46948054056e-06
3.86771945434e-06
3.91721455474e-06
5.55258357221e-06
5.94194958445e-06
6.04622814303e-06
2.44477370379e-06
2.10068006856e-06
4.35271809985e-06
5.12168695076e-06
5.79127120731e-06
4.29247526226e-06
3.13651652017e-06
5.26215746675e-07
2.76651406268e-06
6.49525452493e-06
5.9050466444e-06
6.45862827444e-06
6.25126820183e-06
5.52061106847e-06
6.2057526782e-06
4.87037457158e-06
3.19063391384e-06
2.6097611031e-06
3.48527424484e-06
3.02592907297e-06
1.64197752063e-06
1.54147991304e-06
2.01813588152e-06
1.61905590534e-06
7.87198849279e-07
8.36680244541e-07
8.4828055384e-07
6.20740306214e-07
6.98796126634e-07
6.14689482565e-07
5.85277314509e-07
3.42133545003e-07
3.429720649e-07
1.39461696437e-07
1.89721469758e-07
2.12793342165e-07
1.18220760123e-07
3.73741724441e-08
1.83428090478e-09
1.10431011132e-09
2.48487975788e-08
6.18121258115e-08
5.32737184793e-08
1.21151564777e-08
6.22411869188e-09
3.99819824855e-08
2.49404374834e-08
1.79882263699e-07
1.71968181561e-07
8.43429028113e-08
2.18561905948e-07
3.33442187824e-07
1.65197802823e-07
4.96051030554e-07
4.13780488558e-07
3.12552422863e-07
1.337099823e-07
3.60780114965e-07
1.75763382772e-07
1.00239623385e-06
1.35050641917e-06
8.8181212531e-07
8.54770137191e-07
8.66798040685e-07
1.01801447846e-06
1.24978543663e-06
1.16284574814e-06
1.20975672911e-06
8.97555736751e-07
8.82123074195e-07
1.0225997063e-06
9.71709989229e-07
1.18399254626e-06
7.6113543266e-07
7.29807836967e-07
6.05247095288e-07
6.41621806585e-07
9.31529308492e-07
5.81584193913e-07
4.38002596386e-07
3.89676416053e-07
2.97815570539e-07
4.31158898651e-07
3.85096240091e-07
2.30286159711e-07
8.74199682063e-08
1.50150626182e-07
6.74857426018e-08
1.27640677332e-07
7.64624763626e-08
7.75105932131e-08
6.73950797863e-09
2.55211704546e-07
1.19494935169e-07
3.01551154064e-07
2.41390731978e-07
5.85585616725e-09
1.80213195017e-07
1.10746302052e-07
4.86102714264e-07
4.08676466527e-07
4.78302557298e-07
4.44185823588e-07
5.65977741267e-07
7.46615297639e-08
5.55137279089e-09
2.0547681473e-07
2.49804503142e-07
3.06045833044e-07
4.09690840305e-07
6.14289935965e-07
7.00427354777e-07
7.73610051711e-07
6.58301082986e-07
1.00567917977e-06
1.05895096621e-06
6.64785828029e-07
1.07696621919e-06
3.78659231824e-07
6.80201062638e-07
8.57245948355e-08
1.97180613348e-07
3.00417097978e-07
5.84213431135e-08
3.08275901435e-07
1.63841242322e-07
1.31334646147e-06
9.12690137483e-07
1.49650566953e-06
9.31242013387e-07
1.22217751319e-06
3.22115614677e-07
5.13681169256e-07
2.73315499763e-09
9.2675535015e-08
2.74189251847e-07
1.00511521448e-07
2.01732619667e-07
4.75604487952e-07
1.17137869968e-07
2.02665704103e-07
1.3444746325e-08
2.572205609e-08
3.43729824475e-08
2.87631478567e-08
2.81400553235e-07
9.71635650775e-08
2.34510951613e-07
1.49698656773e-07
2.91970009799e-07
1.69886897514e-07
2.30505300091e-07
5.15356002814e-08
2.12549956372e-08
9.59814169813e-08
3.07313994409e-08
2.868660909e-07
5.76364996554e-08
1.49091496625e-07
9.54254955141e-08
4.10353687432e-07
6.74599266606e-07
9.1865354984e-07
1.10660804971e-06
5.31875573675e-07
6.20816601706e-07
7.85110513686e-08
1.69066819185e-07
3.05064629995e-08
5.36537377395e-08
1.63940183499e-07
3.49097766353e-08
2.72547139209e-07
3.91736189404e-07
1.72771888952e-06
1.08827846222e-06
1.00015533388e-06
5.95367969637e-07
6.33858244361e-07
4.40356539323e-07
2.80105698553e-07
8.37604684117e-08
1.60499864686e-08
1.42290396018e-07
1.03668092435e-07
6.93748373408e-08
6.67504636272e-07
2.98962960207e-07
8.74750135172e-07
6.28320646756e-07
1.14345658371e-06
8.71204252846e-07
6.8888852742e-07
4.78793590156e-07
3.42641914045e-07
1.94601260292e-08
7.03985224654e-08
7.2641942672e-07
5.62714295685e-07
3.03211061633e-07
9.4129572319e-08
1.36504679516e-07
7.78322981481e-07
1.31324495709e-08
2.43627684796e-07
3.63642996309e-07
5.90057668771e-07
5.26069943385e-07
3.9865352412e-08
3.41380866694e-08
1.88504812439e-07
3.26598943998e-07
3.84450336297e-07
1.42293173078e-07
7.95059311869e-08
2.66982889909e-08
1.21338962326e-07
1.03667687646e-07
3.86236136221e-07
1.37176038124e-06
8.50893413721e-07
8.67074502706e-07
8.63538536482e-08
4.01550666674e-08
8.26442767487e-07
7.84654774626e-07
8.82714596441e-08
4.64797422274e-08
1.45453016315e-06
1.38651557633e-06
8.87865712774e-07
8.71364287837e-07
1.3064654173e-08
1.29976475859e-07
1.84126029244e-07
6.68651611931e-07
1.59200020012e-08
4.75775952932e-08
2.90572765947e-07
1.78981047747e-07
3.07078367903e-09
1.0004671356e-07
1.56129139676e-06
1.62955684814e-06
7.85621946352e-07
3.46987515377e-08
1.68970663691e-07
2.53544826422e-08
2.91364327124e-10
3.81253337507e-08
1.26281079321e-06
1.30983043768e-06
6.15268789467e-07
5.16383052058e-08
6.20044357224e-09
1.54918202159e-07
1.31242630039e-07
1.43795194818e-07
9.50035784985e-07
9.75028391403e-07
4.43434857818e-07
6.83134201181e-08
1.94675094681e-07
3.71338507836e-07
2.99269565201e-07
3.0504849195e-07
6.16010936762e-07
6.21392613649e-07
2.6526203196e-07
1.14909124325e-07
4.23719692882e-07
6.48721347306e-07
5.38714491051e-07
5.76569926281e-07
3.0503232187e-07
2.98708072309e-07
1.19452583268e-07
2.28992286449e-07
7.47330905193e-07
1.11074614844e-06
9.62124118056e-07
1.16573016546e-06
6.95659139541e-08
4.45981048634e-08
4.62869908246e-08
4.21780354538e-07
1.17823043692e-06
1.58394830777e-06
1.59011531875e-06
2.26292487987e-06
1.06769453119e-07
6.10473613138e-07
7.21518660076e-07
1.82596939535e-06
1.73070993626e-06
1.94385873284e-06
2.24068911803e-06
2.86019898084e-06
1.50709620353e-06
1.97252373234e-06
2.22948405147e-06
2.21458587788e-06
1.93882369932e-06
2.11132885426e-06
2.42294226353e-06
3.19374255226e-06
1.87287589348e-06
1.90284629847e-06
2.14909107176e-06
1.69063779689e-06
1.82302410094e-06
1.97867061824e-06
2.69330131929e-06
3.55691421583e-06
1.83927476699e-06
2.07650245442e-06
1.82824866985e-06
2.24354953897e-06
2.16403849951e-06
3.05979888014e-06
3.34251393891e-06
4.60860114188e-06
9.7930348475e-07
1.01961890613e-06
2.64794307187e-06
1.34236034334e-06
1.56321007953e-06
1.79141663037e-06
4.14828553901e-06
7.17884113992e-06
2.76343133582e-07
2.6158041419e-06
2.74305943196e-06
7.01542824853e-06
5.58875396538e-06
1.39497900472e-05
1.15245618051e-05
9.63397212203e-06
7.79897030797e-07
6.15402638431e-06
9.85624368745e-07
9.61531301201e-06
3.77387174141e-06
2.35422298551e-06
6.39632221175e-06
7.62070312461e-06
1.09587200133e-05
7.50253326784e-06
7.86987956442e-06
1.46340577379e-05
9.42355146451e-06
4.03688013072e-06
7.82054708339e-06
6.67910014994e-06
7.00741650806e-06
4.77712809224e-06
3.51708994553e-06
6.3613203661e-06
3.22255447144e-06
5.99666857407e-06
5.98455659495e-06
6.89925370517e-06
5.86729457688e-07
1.14956228574e-06
9.94868486986e-06
7.04471245267e-06
3.36311626024e-06
2.71407976016e-06
1.10656247672e-06
1.66169880397e-06
2.58963063838e-06
2.66701351048e-06
1.64480368245e-07
5.04375885975e-06
3.80182725175e-06
2.47756513888e-06
1.62672365479e-06
3.34874745854e-07
3.03139206187e-06
2.17711913409e-06
6.47537370609e-06
5.85000481252e-06
4.52436981458e-06
4.57834839047e-06
1.62867306242e-06
1.21800411873e-06
2.32364952067e-07
4.99684947108e-07
2.00727886935e-06
4.45615969541e-07
5.58753869699e-06
2.66125131621e-06
3.07607877066e-06
1.67721426835e-06
7.0811103932e-07
2.48300545853e-06
3.74882601831e-06
1.94453529024e-06
1.96137540146e-06
2.38009214676e-06
9.10572466749e-07
9.03242028541e-07
2.41131181631e-06
2.68486654795e-06
1.33828699313e-06
4.01606914203e-07
1.673003149e-06
6.34212864588e-07
1.01363831692e-06