# vtk DataFile Version 3.0
File Name: Molecule/arg/arg_5.0-4.vtk
ASCII
DATASET UNSTRUCTURED_GRID
FIELD FieldData 1
TIME 1 1 double
0.0
POINTS 835 double
-3.403 0.327 1.604
-3.45 0.103 1.078
-3.138 0.005 1.702
-3.183 -0.208 1.2
-2.981 -0.361 1.858
-3.028 -0.584 1.332
-3.298 -0.003 0.536
-3.038 -0.309 0.683
-2.876 -0.691 0.79
-2.971 0.024 0.066
-2.725 -0.284 0.235
-2.549 -0.664 0.32
-2.984 0.046 0.042
-2.617 -0.045 -0.207
-2.63 -0.024 -0.229
-2.351 -0.22 -0.527
-2.365 -0.198 -0.55
-2.2 -0.483 -0.862
-2.216 -0.458 -0.889
-3.25 0.578 -0.258
-2.686 0.062 -0.328
-2.904 0.498 -0.574
-2.48 -0.047 -0.742
-2.684 0.361 -0.973
-2.39 -0.269 -1.153
-2.617 0.185 -1.409
-3.173 1.207 -0.458
-2.84 1.014 -0.738
-2.625 0.846 -1.127
-2.55 0.723 -1.58
-2.776 1.74 -0.497
-2.515 1.451 -0.77
-2.319 1.256 -1.157
-2.211 1.177 -1.613
-2.622 1.932 -0.429
-2.434 1.563 -0.734
-2.291 1.743 -0.67
-2.16 1.459 -1.077
-2.01 1.647 -1.011
-1.982 1.439 -1.492
-1.81 1.654 -1.416
-2.666 2.281 -0.134
-2.046 2.135 -0.548
-2.085 2.448 -0.283
-1.615 2.438 -0.879
-1.659 2.787 -0.585
-2.622 2.533 0.247
-2.045 2.674 0.059
-1.614 3.039 -0.203
-2.495 2.657 0.67
-1.932 2.785 0.438
-1.488 3.163 0.22
-2.925 2.572 1.071
-2.251 2.77 1.005
-2.634 2.694 1.361
-2.033 3.002 1.293
-2.411 2.928 1.645
-1.863 3.333 1.507
-2.279 3.251 1.894
-3.186 2.284 1.521
-2.865 2.437 1.761
-2.64 2.674 2.039
-2.53 2.972 2.328
-3.419 1.801 1.788
-2.888 2.359 1.917
-3.122 1.876 2.185
-2.717 2.558 2.345
-2.979 2.017 2.644
-3.567 1.179 1.827
-3.202 1.735 2.161
-3.333 1.184 2.196
-3.094 1.732 2.585
-3.223 1.188 2.619
-3.107 1.793 3.017
-3.25 1.192 3.055
-3.408 0.559 1.798
-3.191 0.635 2.17
-3.084 0.647 2.593
-3.095 0.593 3.027
-3.105 0.348 2.085
-3.1 0.088 1.867
-2.97 0.105 2.152
-3.02 0.504 2.546
-2.901 0.29 2.606
-2.978 0.383 3.085
-2.865 -0.346 2.113
-2.52 -0.7 2.425
-2.789 -0.06 2.411
-2.48 -0.378 2.69
-2.828 0.19 2.745
-2.523 -0.123 3.02
-2.645 0.041 3.387
-2.46 -1.117 2.184
-2.148 -0.9 2.844
-2.09 -1.3 2.613
-2.003 -1.142 3.367
-1.937 -1.6 3.103
-2.268 -1.45 1.888
-1.906 -1.62 2.328
-1.726 -1.965 2.777
-1.967 -1.659 1.57
-1.617 -1.821 2.023
-1.396 -2.195 2.428
-1.592 -1.721 1.268
-1.257 -1.88 1.733
-0.984 -2.263 2.097
-2.026 -1.588 0.931
-1.351 -1.766 0.91
-1.757 -1.641 0.594
-1.133 -1.941 0.578
-1.555 -1.812 0.25
-0.96 -2.23 0.303
-1.437 -2.084 -0.068
-2.342 -1.257 0.596
-2.053 -1.332 0.28
-1.861 -1.491 -0.075
-1.784 -1.721 -0.435
-2.487 -0.785 0.321
-2.189 -0.889 0.022
-2.002 -1.032 -0.342
-1.943 -1.202 -0.738
-2.264 -0.668 -0.026
-2.322 -0.554 -0.027
-2.141 -0.611 -0.433
-2.203 -0.492 -0.433
-2.131 -0.618 -0.861
-2.114 -0.682 -1.181
-1.927 -1.264 -1.052
-2.312 -0.441 -1.376
-2.121 -0.506 -1.916
-2.042 -0.816 -1.214
-1.838 -0.886 -1.79
-1.682 -1.348 -1.746
-1.975 -0.256 -2.322
-1.864 -0.768 -1.888
-1.672 -0.441 -2.421
-1.897 0.192 -2.527
-1.57 0.147 -2.691
-1.996 0.646 -2.441
-1.495 0.306 -2.776
-1.602 0.798 -2.682
-1.198 0.386 -3.152
-1.328 0.981 -3.039
-2.011 1.039 -2.18
-1.619 1.224 -2.399
-1.348 1.496 -2.696
-1.72 1.257 -2.235
-1.479 1.817 -1.75
-1.107 2.057 -2.211
-1.346 2.153 -1.415
-1.642 2.007 -1.116
-1.319 2.584 -1.178
-0.816 3.013 -1.267
-1.111 2.259 -1.642
-0.623 2.675 -1.729
-0.543 2.537 -2.312
0.466 3.148 -0.891
-0.416 2.926 -1.599
0.331 3.005 -1.38
-0.131 2.956 -2.042
0.328 3.005 -1.907
-0.002 3.1 -2.533
0.456 3.148 -2.398
-0.048 3.337 -3.001
0.699 3.415 -2.782
0.833 2.913 -0.61
0.619 2.806 -1.364
0.976 2.577 -1.092
0.892 2.689 -1.891
1.303 2.425 -1.576
1.057 2.557 -0.305
1.192 2.232 -0.796
1.553 2.026 -1.234
0.979 2.767 0.195
1.24 2.204 -0.113
1.167 2.404 0.362
1.539 1.918 0.039
1.462 2.128 0.539
0.737 2.845 0.68
0.936 2.478 0.823
1.22 2.206 1.024
0.406 3.093 0.833
0.71 2.572 1.142
0.419 2.789 1.277
0.841 2.425 1.643
0.539 2.651 1.783
1.112 2.426 2.108
0.748 2.699 2.276
0.011 3.456 0.651
0.142 3.058 1.218
-0.201 3.373 1.06
-0.01 3.117 1.656
-0.348 3.428 1.5
-0.034 3.266 2.099
-0.415 3.616 1.924
-0.504 3.599 0.465
-0.648 3.497 0.898
-0.789 3.55 1.341
-0.913 3.754 1.744
-1.038 3.495 0.311
-1.112 3.406 0.765
-1.247 3.461 1.209
-1.429 3.653 1.595
-1.502 3.118 0.685
-1.632 3.177 1.131
-0.05 3.403 2.531
0.304 2.919 2.221
0.288 3.057 2.654
0.729 2.855 2.766
-0.175 3.437 2.964
0.162 3.091 3.09
0.587 2.894 3.259
-0.395 3.364 3.353
-0.059 3.019 3.48
0.337 2.812 3.701
-0.687 3.194 3.654
-0.352 2.847 3.783
0.006 2.617 4.044
-1.13 3.18 3.766
-0.58 2.815 3.881
-1.094 2.799 4.011
-1.584 3.151 3.721
-1.62 2.766 3.959
-1.995 3.111 3.523
-2.096 2.719 3.73
-2.312 3.063 3.198
-2.464 2.664 3.352
-2.498 3.015 2.783
-2.679 2.608 2.871
-0.832 2.373 4.277
-0.242 2.183 4.431
-1.061 1.806 4.483
-0.466 1.628 4.634
-1.364 2.231 4.354
-1.452 1.611 4.604
-1.713 1.977 4.492
-1.735 2.528 4.103
-2.033 2.233 4.276
-2.128 2.66 3.763
-2.373 2.347 3.982
-2.496 2.611 3.374
-2.69 2.305 3.646
-2.791 2.388 2.985
-2.945 2.113 3.311
-1.464 1.095 4.666
-0.956 1.592 4.533
-0.968 1.074 4.596
-0.48 1.041 4.705
-1.655 0.731 4.634
-1.079 0.886 4.596
-1.26 0.541 4.565
-0.689 0.687 4.666
-0.881 0.322 4.633
-0.333 0.517 4.869
-0.555 0.096 4.831
-2.027 0.463 4.516
-1.383 0.368 4.531
-1.728 0.119 4.423
-1.114 -0.009 4.584
-1.476 -0.27 4.469
-0.878 -0.357 4.785
-1.3 -0.661 4.651
-2.342 0.241 4.242
-2.019 -0.087 4.169
-1.783 -0.487 4.202
-1.658 -0.914 4.34
-2.557 0.093 3.848
-2.219 -0.224 3.803
-1.993 -0.631 3.818
-1.903 -1.082 3.892
-2.301 -0.273 3.375
-2.078 -0.682 3.368
-0.557 -0.612 4.999
-0.228 -0.165 5.05
-0.202 -0.89 5.102
0.134 -0.447 5.155
0.164 -1.171 5.088
0.507 -0.734 5.141
0.37 -1.612 4.973
0.615 -0.976 5.092
0.811 -1.395 4.983
1.043 -0.806 5.264
1.249 -1.247 5.15
0.578 -1.993 4.725
1.008 -1.757 4.747
1.457 -1.629 4.901
0.77 -2.282 4.364
1.191 -2.031 4.405
1.649 -1.918 4.541
0.93 -2.454 3.923
1.343 -2.194 3.985
1.809 -2.089 4.099
1.044 -2.494 3.437
1.451 -2.232 3.524
1.923 -2.129 3.613
1.103 -2.399 2.949
1.506 -2.141 3.061
1.981 -2.034 3.126
1.1 -2.176 2.501
1.504 -1.93 2.635
1.979 -1.811 2.678
1.037 -1.846 2.131
1.444 -1.616 2.284
1.916 -1.481 2.307
0.647 -2.269 2.118
0.836 -1.714 1.711
0.512 -2.064 1.7
0.77 -1.662 1.233
0.47 -1.987 1.224
0.848 -1.697 0.757
0.525 -2.047 0.746
1.061 -1.813 0.337
0.67 -2.236 0.324
0.119 -2.499 2.107
0.075 -2.255 1.691
0.064 -2.164 1.215
0.088 -2.237 0.737
0.142 -2.466 0.313
-0.457 -2.497 2.099
-0.401 -2.253 1.685
-0.378 -2.162 1.209
-0.389 -2.235 0.73
-0.434 -2.464 0.306
-0.837 -2.059 1.682
-0.782 -1.983 1.207
-0.825 -2.042 0.728
1.48 -1.078 0.031
1.032 -1.487 0.709
1.333 -0.958 0.489
1.12 -1.273 1.146
1.358 -0.854 0.972
1.315 -1.197 1.595
1.553 -0.779 1.421
1.592 -1.27 1.999
1.893 -0.741 1.779
2.335 -0.746 2.002
1.639 -0.712 -0.547
1.476 -0.549 0.311
1.615 -0.229 -0.195
1.697 -0.118 0.66
1.842 0.216 0.134
1.696 -1.15 -0.796
1.805 -0.426 -1.067
1.856 -0.818 -1.29
2.201 -0.141 -1.444
2.256 -0.562 -1.683
1.615 -1.54 -1.111
1.784 -1.167 -1.572
2.179 -0.936 -1.985
1.405 -1.841 -1.462
1.595 -1.437 -1.886
1.977 -1.225 -2.321
1.085 -2.024 -1.812
1.309 -1.6 -2.199
1.67 -1.4 -2.657
0.689 -2.07 -2.126
0.955 -1.641 -2.48
1.29 -1.444 -2.958
0.256 -1.974 -2.373
0.567 -1.556 -2.702
-0.171 -1.746 -2.529
-0.548 -1.409 -2.576
0.186 -1.352 -2.841
-0.152 -1.05 -2.884
0.466 -1.134 -3.344
0.104 -0.811 -3.39
-0.822 -1.287 -2.506
-0.408 -0.948 -2.806
-0.669 -0.831 -2.739
-0.336 -0.591 -3.197
-0.616 -0.466 -3.125
-1.31 -1.347 -2.194
-0.988 -0.705 -2.664
-1.485 -0.767 -2.346
-1.322 -0.31 -2.728
-0.95 -0.071 -3.189
-0.311 -0.212 -3.619
0.128 -0.454 -3.788
-0.16 0.24 -3.931
0.27 -0.03 -4.081
0.101 0.716 -4.098
0.516 0.418 -4.238
-0.411 1.252 -3.909
0.377 1.347 -4.4
0.11 1.626 -4.301
-0.398 1.946 -3.588
0.117 1.987 -4.134
-0.712 2.237 -2.975
-0.106 2.463 -3.53
-0.314 2.656 -3.124
0.028 3.029 -3.665
-0.135 3.18 -3.347
-0.202 2.855 -2.684
0.9 3.106 -3.671
0.173 2.486 -3.833
0.85 2.546 -3.838
0.989 2.064 -4.14
0.819 3.383 -2.845
1.267 2.733 -3.406
1.204 2.948 -2.765
1.749 2.404 -3.353
1.668 2.681 -2.526
0.902 2.914 -2.485
0.749 2.956 -2.405
1.123 2.627 -2.01
1.688 2.19 -1.733
1.962 2.454 -2.382
2.133 1.624 -1.992
2.194 2.159 -2.516
2.141 1.301 -1.585
2.428 1.273 -2.257
2.435 0.969 -1.874
2.042 0.907 -1.262
2.342 0.599 -1.57
1.911 1.516 -1.257
1.884 0.909 -0.851
1.768 1.444 -0.847
1.861 0.913 -0.411
1.75 1.425 -0.407
1.976 0.918 0.014
1.858 1.462 0.018
1.454 1.892 -0.826
1.449 1.855 -0.388
1.867 0.812 -0.4
1.753 0.215 -0.299
1.896 0.717 -0.83
1.942 0.027 -1.129
2.566 1.229 -2.871
2.241 1.687 -2.422
2.339 1.656 -2.857
2.27 2.135 -2.856
2.341 1.264 -3.459
2.179 1.681 -3.275
2.146 2.154 -3.181
1.83 1.363 -3.817
1.817 1.751 -3.528
1.863 2.209 -3.379
1.605 0.935 -4.222
1.413 1.57 -3.947
1.254 1.267 -4.234
1.103 1.869 -4.167
0.979 1.632 -4.39
1.11 0.579 -4.381
0.902 1.014 -4.346
0.705 1.435 -4.478
0.482 0.901 -4.245
1.404 2.01 -3.684
1.315 2.161 -3.664
2.007 0.383 0.735
1.733 -0.159 1.085
2.004 0.279 1.15
1.861 -0.287 1.473
2.124 0.139 1.536
2.068 -0.489 1.788
2.355 -0.024 1.857
2.675 -0.196 2.083
2.074 0.941 0.928
2.063 0.767 1.319
2.181 0.613 1.7
2.417 0.492 2.036
2.749 0.417 2.295
1.884 1.434 1.198
1.897 1.199 1.555
2.02 1.032 1.93
2.241 0.95 2.287
2.541 0.959 2.592
1.624 1.884 1.117
1.755 1.469 1.75
1.503 1.904 1.671
1.842 1.579 2.299
1.557 2.073 2.21
1.11 2.216 1.58
1.886 1.845 2.759
2.132 1.224 2.493
2.174 1.477 2.929
2.585 1.225 3.051
1.814 2.002 3.263
2.105 1.625 3.407
2.513 1.382 3.555
1.633 2.033 3.763
1.933 1.655 3.881
2.331 1.413 4.055
1.359 1.937 4.21
1.674 1.563 4.305
2.058 1.316 4.502
1.021 1.721 4.561
1.354 1.359 4.638
1.72 1.101 4.853
0.651 1.408 4.781
1.002 1.062 4.847
1.35 0.788 5.074
0.073 1.245 4.841
0.82 0.891 4.947
0.23 0.725 5.008
0.672 0.387 5.179
1.205 0.294 5.301
0.564 -0.173 5.245
1.099 -0.256 5.367
-1.834 2.927 0.971
1.396 -0.602 0.696
1.678 -0.195 -0.741
1.788 0.151 -0.734
2.06 0.644 -1.234
-2.913 1.955 -0.341
-3.327 1.641 -0.268
-3.327 2.032 -0.008
-2.913 2.297 -0.026
-3.327 2.292 0.383
-2.913 2.519 0.384
-3.327 2.384 0.843
-3.656 1.544 0.048
-3.656 1.916 0.37
-3.656 2.055 0.843
-3.656 1.916 1.316
-3.867 1.641 0.843
-3.867 1.411 1.241
-3.656 0.342 1.089
-3.656 0.609 1.504
[...]
CELL_DATA 1666
SCALARS cell_data_0 double
LOOKUP_TABLE default
6.36284777866e-09
8.66627424343e-09
1.17842084271e-08
2.60358447104e-09
1.37367439687e-08
8.46298494927e-10
1.25623951075e-08
8.32863677581e-09
1.23021202925e-09
4.66922438339e-09
2.4862355551e-09
7.36958518069e-09
8.42452295691e-10
9.09257038342e-10
4.48168567834e-10
1.12487345122e-10
2.86991196588e-10
1.1933652226e-10
4.40465793012e-09
3.33202452093e-09
7.09465351503e-09
2.62529995343e-09
3.37237218057e-09
4.37959985996e-10
1.76349363587e-08
1.12474841847e-08
4.60681342843e-09
1.32857458707e-08
9.99791743263e-09
2.7277273994e-09
8.62538806817e-10
1.67813500044e-08
1.51058797866e-08
1.34630458279e-08
1.22647304517e-10
4.49421425658e-08
1.05233791094e-08
1.46468821892e-08
3.98153364946e-09
3.43908873767e-09
8.48220502732e-09
2.45760596322e-11
5.66576749066e-08
1.60801111993e-08
4.99720091005e-08
7.04747792978e-08
1.64313656458e-10
2.87730516152e-09
3.18632254815e-09
4.71663148767e-10
2.38315211081e-08
5.62852166586e-09
1.74342042564e-08
7.24328208905e-08
1.99429002716e-08
4.07209718183e-08
2.65840005718e-08
2.23851891044e-08
1.68093590147e-09
4.41896518076e-08
3.66493229161e-08
6.420234005e-09
1.44993271792e-08
5.91272771799e-09
1.04702962966e-08
6.59853594547e-09
6.13532484545e-09
8.84359414883e-09
8.16385511891e-09
3.98585575759e-09
7.76961483011e-09
1.07591388438e-08
9.00710698665e-09
6.54306994284e-09
2.50697509457e-09
4.0193967546e-09
5.61934918446e-09
2.35954959049e-09
5.43168915726e-09
4.69678034681e-09
6.99909641962e-09
5.99431893113e-09
3.38848288908e-10
2.34331786505e-10
1.51885274912e-09
2.26163140558e-09
1.91542934107e-09
3.1139974875e-09
5.54593612133e-10
4.4906322882e-10
3.52990777748e-09
3.61480713499e-09
5.06958588559e-10
1.33029277281e-09
2.23463883078e-09
5.43375615927e-09
5.82371699389e-09
3.75025883723e-10
2.1498309318e-09
8.85007000247e-10
3.77504898129e-09
8.09831316766e-10
1.85225240493e-09
2.83297814102e-09
2.51816235257e-09
2.08261333546e-09
4.55317579773e-10
2.72763852626e-10
5.0997444336e-09
2.31012977553e-09
1.88373533323e-10
1.1230037637e-09
3.18814799683e-09
2.05663520088e-09
1.94410975153e-09
2.40043087264e-10
1.21957473627e-09
1.91734453038e-09
2.47233613495e-09
4.19715631535e-09
2.15443120854e-09
1.11045360006e-09
1.31383178447e-09
9.65482976923e-10
6.4069904199e-09
6.84799353401e-09
3.78057561562e-09
6.20568215415e-10
1.48466388177e-10
1.4339384498e-09
8.14898422487e-10
5.33859166187e-10
5.76989337491e-10
5.11247161265e-10
2.96542186881e-10
5.98732677398e-10
1.13134514774e-09
3.35654540889e-09
1.89582913629e-10
7.70382659593e-10
3.16267703028e-09
1.64809531563e-09
3.34414686623e-09
2.76604949537e-09
8.20743724862e-10
1.34371938468e-09
4.84743959019e-10
7.58162617106e-10
7.1762037382e-10
1.09612459155e-09
9.80293752515e-10
7.78481595101e-10
1.3919692112e-09
1.23192258389e-09
5.38538307315e-10
1.50598808576e-09
2.30374228562e-08
4.19129034318e-08
2.79996227794e-09
5.05226861068e-10
9.7469023414e-09
7.71917590493e-09
1.04816083078e-09
3.4574975216e-08
4.94616099771e-10
4.91745880572e-09
3.59920465775e-09
4.46460792746e-09
5.79977158643e-09
5.42658073692e-09
5.25984219207e-09
3.17367110337e-10
2.5855280026e-13
6.80292252974e-12
4.43442024505e-10
5.73641091718e-10
1.29742644693e-10
6.97952973753e-10
3.18169939615e-10
6.16779067575e-10
1.70732636852e-09
1.35453596939e-09
4.00515699456e-10
3.85415371493e-10
1.31179576715e-09
8.90039410904e-10
9.37220530508e-10
5.37474541138e-10
1.93257524582e-09
3.12840351313e-10
7.15275852455e-10
5.33408699853e-10
3.61395783172e-10
4.84976442622e-10
5.21605213867e-10
8.61632044162e-10
1.02298873103e-09
1.49377550019e-09
1.36968456186e-09
8.55507530786e-10
7.61961115218e-10
9.46562017678e-11
5.52080510977e-10
3.06476146358e-11
1.65764577373e-09
6.096397494e-10
6.40839650504e-10
3.03100741652e-10
1.41655055621e-10
6.28821739829e-10
2.60124890047e-10
3.95418137057e-10
3.61510367565e-10
6.97775008461e-10
7.30263232198e-10
1.32504154438e-10
3.37248397956e-08
2.89591775272e-08
2.7299716348e-10
1.8864912017e-09
1.52117884817e-09
2.12456345251e-08
8.9725896074e-10
1.91026647523e-09
1.18235854774e-09
2.45751719193e-09
3.10302601326e-09
1.38784837161e-09
1.25742017478e-09
5.7858346275e-10
5.11140253039e-09
1.05163313189e-08
5.45294995666e-09
4.55551958098e-09
8.52705772944e-09
4.04092308226e-09
4.47713122518e-09
1.01390861456e-09
6.39544689158e-10
6.95896774932e-10
5.28176309833e-10
1.74548554191e-10
5.41782076702e-10
9.27095475064e-10
7.83064154565e-10
1.98595063495e-10
4.31997410883e-10
4.45866787597e-10
4.23037667627e-09
4.85354522941e-09
1.12534240342e-09
2.65124674257e-09
1.50567861296e-09
3.04974249626e-09
2.3953943619e-09
3.3453474353e-09
8.46763167393e-09
4.81264311678e-09
1.08339854795e-08
1.18560350544e-09
1.66505799599e-08
1.97576114595e-08
7.23272157182e-09
6.84634467978e-09
3.15236906932e-09
5.93645201312e-10
2.8394813373e-09
3.57025729652e-09
4.28100699496e-09
1.16600461005e-09
5.27116254874e-10
4.38488795287e-10
1.38055457727e-09
7.49742547299e-10
1.23442881716e-09
1.81361365363e-09
1.37444288506e-09
2.64461034497e-09
1.43160617554e-09
1.70510968082e-09
2.70299258808e-10
3.49831482656e-09
3.10701865694e-09
2.88591837959e-09
2.61436134514e-09
6.36224405758e-09
5.20435104425e-09
4.7701103459e-09
4.22007730748e-09
4.13730269611e-09
6.6069268779e-09
5.36221068996e-09
3.66193125855e-09
8.17644647433e-10
4.37574390471e-09
2.80116620576e-09
1.53268027143e-09
2.69858406371e-09
2.02754077632e-09
4.48016209018e-10
1.77817979827e-09
8.11887015477e-10
4.43206911487e-10
1.08038794653e-09
2.66970732068e-09
5.21542792823e-10
1.08503084481e-09
3.46750271639e-09
3.03502932496e-09
5.37039068265e-09
1.4293417958e-09
4.73430103419e-09
8.87369504832e-09
8.00274702868e-09
6.65609548289e-09
1.1615495571e-08
8.79251879341e-09
4.29645570114e-09
4.64763322521e-09
3.76961572871e-09
5.96903934075e-09
3.95889845631e-09
9.67668250183e-11
1.47333116924e-09
3.13426047368e-09
1.74719036684e-08
4.7169423947e-09
3.42883843461e-08
5.34502985322e-08
6.69046719434e-08
7.39591449634e-09
2.63859452086e-10
3.25607200756e-08
3.00999905873e-08
3.89932533367e-08
7.4000441959e-09
2.3606649848e-08
3.33657538214e-08
1.31740931566e-08
1.11321921155e-08
1.52756885919e-08
2.696268382e-10
3.41644448189e-09
5.00347914661e-09
9.36051533315e-09
7.80573135984e-09
3.04002883093e-09
2.06100410455e-09
2.03939253642e-09
2.55954621572e-09
2.46436098887e-09
3.86476646381e-09
3.62270007599e-09
5.53119999605e-09
2.95758607348e-10
8.51758415044e-10
3.8589286144e-09
1.28919372028e-08
1.27808462354e-08
1.21920636373e-08
1.18107582327e-10
1.57697111991e-08
7.55501763646e-10
2.95447641088e-08
3.49951427792e-08
3.28393995017e-08
1.02665643527e-08
1.18781571578e-08
2.95827745885e-09
1.11159177513e-08
1.8628932258e-08
9.44126892777e-09
7.62451978792e-09
4.86306407665e-09
2.78019665116e-09
7.123090819e-10
3.72100689743e-09
4.19441169593e-09
5.51282097016e-09
3.99186212559e-09
1.65534991676e-08
9.78023625233e-09
9.94070065322e-09
9.00103621827e-09
5.40193897085e-09
3.09809923637e-09
9.87495202797e-09
7.49794688536e-09
4.71205269769e-10
4.95303559007e-09
5.54155726834e-09
7.35935553732e-09
5.8868921506e-09
9.95920887011e-09
1.12535944904e-08
1.00469904722e-07
4.69742386875e-08
2.84210273067e-08
4.30565953241e-08
1.0183231618e-11
1.48296373783e-08
2.09366581419e-08
1.02753248666e-07
6.40209946538e-08
1.42919315364e-07
4.75738386135e-09
1.09420839251e-07
1.14471712365e-07
1.99924939274e-07
2.38283813313e-07
4.72336518363e-08
6.64053954831e-08
6.67013335387e-08
1.10982192047e-08
1.6471134986e-07
2.12314282353e-07
2.16643718773e-07
3.22812373229e-08
1.00025617449e-07
1.00411788542e-07
1.02736157161e-07
3.68391111908e-09
2.94041331869e-08
6.48362561644e-08
1.40742940152e-07
6.91852867793e-08
4.87627736527e-08
7.1915787654e-09
4.16137001613e-08
3.70587499261e-08
6.84295896038e-08
1.18115981024e-08
4.83614503669e-09
4.93645891026e-09
5.45914738432e-09
1.5777673971e-08
1.01350320903e-08
1.46800529123e-08
2.72422742424e-08
1.36685969169e-08
2.0117374805e-07
1.7951748954e-07
1.80188646357e-07
1.86803878242e-08
8.72641643675e-08
8.99812185908e-08
8.80769487656e-08
2.53624843012e-08
2.83350470564e-09
2.9185450818e-09
2.83635058621e-09
2.83046118175e-09
2.03073882628e-08
2.28253064144e-08
4.39499089653e-08
1.28183228341e-08
8.3091370486e-09
8.35484555281e-10
2.04915789334e-10
7.35963432575e-09
1.99488431882e-08
9.06614313879e-09
1.36340862609e-08
2.31859923775e-09
6.14524417543e-09
5.88551837844e-09
1.03046017476e-08
8.44942101162e-09
8.06755623733e-09
2.51550578926e-09
1.00907816908e-08
1.14741497336e-08
5.21006967728e-08
1.31174106384e-07
1.52582337829e-07
3.88644525993e-09
6.02741958011e-08
1.08439598873e-07
4.26235395728e-08
4.39015051176e-08
1.61290337758e-07
8.01202319605e-08
8.70144202782e-08
4.18424602593e-08
2.91397346005e-08
6.82834925981e-08
9.84274766997e-08
4.75506446894e-08
7.14550526529e-08
5.2218357763e-08
4.88182706903e-08
1.63112605584e-10
5.46130378027e-09
7.45870858013e-10
1.36312233863e-11
1.19255002936e-09
5.60374854303e-09
4.24051629312e-09
1.27924443263e-09
5.10095036282e-10
6.25893018405e-10
1.34612248453e-09
2.17009569445e-09
2.01173245499e-09
3.38742691299e-09
2.2890869505e-09
2.0455663104e-09
2.06286092099e-09
1.08866574708e-09
6.90145124336e-11
3.74890745202e-09
9.9425242906e-10
7.02571604313e-10
7.84348920565e-10
2.71084078261e-09
1.74349480485e-09
2.40812050074e-09
3.71957793686e-09
6.23396561576e-09
7.75690893529e-09
6.36096472749e-09
5.86066200753e-09
9.38772157291e-11
5.46778764623e-10
2.23341932746e-09
4.95741297028e-09
6.66380519711e-09
4.80389400067e-09
1.67372227339e-08
5.81157840968e-09
2.53944880868e-08
3.27319655511e-08
8.0075033266e-09
5.6747530076e-09
2.08052846969e-09
3.98872313289e-09
2.03472033438e-08
4.36781182743e-09
4.77949083037e-09
1.16196379695e-08
5.71853833174e-10
8.7208092866e-10
9.80325864395e-09
9.2093867086e-09
3.65741994069e-09
1.0796212944e-09
1.20560101512e-09
3.46490653961e-09
6.11172018964e-10
2.09364756431e-09
6.47852347483e-10
8.92454764333e-10
1.49908169943e-09
1.7091911413e-10
7.14147288976e-10
1.70601959781e-09
2.19523260886e-08
2.12906603807e-08
4.77638807297e-10
2.63902945218e-09
2.8135502172e-08
5.54562892587e-09
2.75106377325e-10
4.30885433846e-10
1.17107845311e-08
5.08987381295e-09
1.25291569325e-08
1.67932152662e-07
1.70841980554e-07
1.6407082638e-07
3.60609324516e-09
3.50836330332e-09
4.82279973982e-09
3.25094274093e-09
4.85863849569e-09
1.97092914429e-09
2.07647338688e-09
3.26622141838e-09
3.83394197102e-09
2.16526333301e-09
2.92733459587e-09
3.73484660659e-11
1.44199656914e-09
2.70824233304e-08
7.7584100215e-09
4.32333674482e-10
1.46835599249e-09
2.72185427046e-09
7.71202067295e-09
1.57097939373e-08
4.89943129516e-08
1.13172187427e-08
3.55337631258e-08
5.25938979294e-08
2.79150896932e-07
1.34471466638e-07
1.70916460989e-07
4.0811152603e-09
2.39083834297e-07
3.42798435481e-07
1.627179607e-09
3.46902990566e-10
2.14212760792e-09
6.59720869961e-10
2.03159928695e-09
5.64067983866e-10
3.01802581417e-09
3.50515660975e-09
2.81554158935e-09
1.03207424639e-09
4.108694377e-10
2.14529295453e-11
1.06701311238e-10
9.32435781064e-10
1.05346214582e-09
4.42791642683e-09
3.0228897828e-09
2.29087035056e-09
2.91847715498e-10
2.30182905958e-09
9.29440754347e-09
5.89614115668e-09
2.81330391434e-09
2.62214496787e-08
2.13554648747e-08
3.32331987119e-09
3.39658144199e-09
8.00371827662e-09
4.13491414432e-09
5.11512206273e-09
8.2755914248e-10
7.18643258629e-10
1.41620392638e-09
9.69526765289e-10
1.69977518361e-09
5.89501006966e-10
1.8243222825e-10
2.92831687169e-10
8.31979086727e-11
1.18108446829e-10
1.9218436699e-10
4.84615236473e-10
3.32046991407e-10
1.82734325048e-09
8.40472249747e-10
4.30380613998e-10
9.35562103818e-09
4.42751731881e-09
3.55003624818e-09
2.97054065858e-09
1.18005240379e-09
5.24978203464e-10
2.27406483303e-09
2.2489897231e-09
5.02662406592e-09
4.42240217748e-10
4.88531268552e-10
4.53148985686e-10
6.47268171289e-10
3.19787783475e-09
2.41244291807e-09
1.78633230593e-09
1.05047855235e-09
6.44826648692e-09
3.38598201682e-09
4.00686727461e-09
2.51032064817e-10
1.0524602811e-12
2.00658256815e-09
3.11821335952e-09
1.64620290247e-09
1.85019973916e-09
4.21781940859e-10
1.90988179329e-10
5.87610377456e-10
1.25630518444e-10
8.80843516639e-10
6.55419219767e-10
4.16569234592e-10
1.9049472965e-10
6.93416935891e-10
5.93284524687e-10
1.84901796428e-10
9.1110802876e-10
1.00810480614e-09
6.8391342636e-10
9.78064451443e-11
2.11543220418e-09
1.42867815217e-09
5.5348864985e-09
4.66288007335e-09
5.30647489125e-09
1.93750647057e-08
1.5389833341e-08
1.27699154481e-08
3.6344475313e-09
2.03376025416e-09
5.32134420665e-09
2.54333880491e-09
8.37598285675e-10
1.66171599403e-10
1.19440333963e-09
2.99797356475e-09
9.76509969423e-08
9.2023773181e-08
8.70838113434e-08
6.18096833095e-08
9.75570657129e-09
5.70846033012e-08
4.7200845555e-08
6.10774632109e-08
4.05379875969e-08
1.69397525402e-09
5.22249329516e-09
2.83421625317e-09
2.77582867662e-10
1.53871747586e-07
3.39287380867e-08
2.86557243477e-08
2.28135746761e-08
2.44469575478e-08
3.48813223117e-09
5.66319248403e-10
9.31381653763e-08
9.28549626008e-08
5.66214854469e-09
8.26021130377e-09
6.81654203615e-08
5.01188232722e-08
6.42788034826e-08
1.84062560146e-08
5.15608088819e-10
1.71766867308e-09
9.07562346527e-09
9.01530919839e-09
4.82017603679e-10
3.27671150952e-09
5.04257036755e-09
1.5282413842e-08
7.09615133163e-09
8.74262921399e-09
3.57717523451e-08
1.07031525548e-07
4.79645206057e-08
1.02607085579e-07
2.18781810331e-09
2.29278720287e-09
1.98948363377e-08
2.15398871863e-08
1.78391608969e-09
2.70996062442e-09
4.35549371053e-09
1.12533799714e-08
1.09039553064e-09
5.25220494445e-10
2.72414148115e-10
6.07398720711e-10
2.45014580566e-10
7.02200672962e-10
3.70655220144e-10
3.73267382889e-10
2.94323050134e-10
5.36159450128e-11
5.80752161216e-10
1.98757892893e-09
2.23559787617e-09
1.28977408768e-09
9.32353853798e-10
4.11371275141e-10
3.2507800144e-10
4.85653567649e-10
1.67453504038e-09
4.94865602211e-10
8.37956438445e-10
9.78815512313e-10
3.01066291578e-10
2.62960240013e-09
9.20812846199e-10
3.16829078209e-10
9.73409923517e-10
7.05161050619e-10
2.90728597176e-10
5.27901181082e-09
2.63167682489e-09
2.44140161482e-09
3.83839762708e-09
1.65874307083e-09
3.92460865182e-09
1.85709439168e-10
3.58115161441e-08
3.22502438213e-08
1.14121571375e-08
1.21518878768e-08
2.34577133142e-09
2.34843553949e-10
1.88085463831e-09
1.77788241831e-08
4.80126662867e-09
4.130900299e-09
1.72148210003e-09
1.16488310686e-08
1.0973137372e-10
1.78099987391e-08
9.45476804683e-10
6.19775942117e-09
7.84069335028e-09
7.52153734889e-09
1.36449319384e-08
2.19986896019e-09
3.26438867984e-09
5.56096263972e-10
2.82114654957e-10
2.43523886284e-09
3.72940897358e-10
8.02507407189e-09
2.8815826499e-09
1.65187359671e-10
1.24830890479e-09
1.39114279893e-09
1.39623622287e-10
5.70686745016e-11
7.22045874359e-09
8.13468218403e-09
6.77712189039e-09
6.95461370095e-09
7.98936066296e-09
1.40533980733e-11
3.59942838531e-09
9.01998029517e-09
1.96380400535e-09
8.8382448055e-10
4.98460803502e-11
5.87374912896e-09
7.29529249141e-09
4.93191718661e-09
2.20525576847e-11
4.13983550485e-11
1.94841898012e-09
2.1419112522e-09
1.7950934858e-09
4.39847663633e-10
3.83719265938e-10
1.30025097502e-09
1.50646487805e-09
2.46951536997e-09
3.55232337286e-09
2.84884970264e-09
1.15448196455e-09
6.61607471737e-09
3.02348962087e-08
4.24463225383e-08
9.63856019339e-10
2.2801779652e-09
1.01698180227e-09
1.69108338774e-08
7.10119675773e-09
6.61078046447e-09
2.55575076679e-10
4.35482252181e-09
2.32052509726e-09
1.23455422438e-09
2.90434123715e-09
1.42637089526e-10
9.83960324682e-10
7.48292455113e-10
4.11339703896e-09
1.43670212947e-09
2.22489812616e-09
3.53628203569e-09
1.69131014117e-09
3.34266810787e-08
2.55764822595e-08
3.15473856149e-09
6.90242616004e-10
1.39032905335e-10
1.71851136215e-09
2.84700762598e-10
1.21505466492e-09
1.09518446524e-09
2.37708517295e-09
2.012698524e-09
5.98470229972e-09
1.21037221766e-08
8.11419967705e-09
5.42998655406e-09
8.4688832888e-09
9.3138401419e-10
3.95167468387e-09
1.50320922985e-08
5.79144255831e-09
1.63326188974e-09
2.25550679564e-10
2.68639031721e-09
3.73854131667e-09
2.52982901994e-09
2.23234058111e-10
2.82645489879e-09
4.19231269285e-08
2.99941739713e-10
2.18128414385e-10
5.27149722479e-10
2.91056187627e-10
3.82943275246e-11
7.03011369248e-10
4.51012018868e-10
4.11887469657e-11
6.41803418175e-11
2.31340222484e-10
1.37191600073e-10
1.45779866919e-10
3.81568108931e-10
9.33611921233e-11
6.43715740476e-11
2.4101203144e-11
3.63964833292e-10
1.76842022187e-11
2.83302885046e-11
4.49907967916e-10
6.02992318495e-09
1.36792249759e-08
4.44730454472e-09
6.06664678677e-10
7.37077365391e-10
2.49485685047e-10
7.92121865694e-10
7.93933136355e-10
4.18524875292e-10
1.80904097958e-09
1.58819586828e-09
3.62813611753e-10
4.93775030437e-09
5.23893966796e-09
2.738875856e-09
4.08313011647e-11
4.49260884052e-10
3.81990328422e-10
6.53101222657e-10
2.53629673902e-10
3.78705619983e-11
6.41731271228e-10
4.98421697812e-10
2.42361827155e-08
3.7509635178e-08
4.83547557967e-10
5.93530499918e-09
5.55724876993e-09
8.04053311565e-09
1.98136812583e-09
1.94659008222e-09
3.14600467386e-10
2.10039447046e-10
5.58466186334e-11
3.33406974718e-10
2.32202187319e-09
6.94471331994e-10
3.28808673939e-10
2.72973889981e-09
5.03215478894e-10
9.58692387087e-11
1.64914772643e-10
4.52376242354e-10
6.37310869739e-10
6.16148215507e-10
7.3048908036e-10
1.34126880629e-09
1.14337807385e-09
1.77233215712e-10
7.86282088459e-10
1.02937657899e-09
9.93953831966e-10
1.3589883153e-09
1.77260360772e-09
1.18646225946e-09
7.63597179572e-10
2.26267644961e-10
1.14757967494e-08
1.20798958127e-08
1.02815913945e-08
6.73300350093e-09
3.5900588437e-09
1.80241016075e-09
2.86603380157e-09
4.73063383893e-09
2.40814883142e-09
1.92830779052e-09
4.07222640406e-10
9.69018706083e-10
3.30893451804e-09
2.02165197917e-09
6.05942745709e-10
6.53476507532e-10
3.94912032453e-10
2.35058958871e-10
2.65662258478e-09
2.11279981947e-09
5.40144087277e-09
8.4313843089e-09
2.15571176409e-09
1.41535330553e-08
1.65820399202e-09
3.32992108427e-09
9.11134649116e-10
1.10667617411e-11
4.1011403388e-10
7.12018559405e-09
5.37925729991e-10
5.88434490393e-09
1.50571605089e-09
4.84002277711e-09
8.79300370168e-09
3.94841722079e-09
3.20377413267e-09
1.39604792476e-08
1.62419740618e-08
2.41716849643e-09
2.63464590408e-10
3.77866025604e-09
1.93359523996e-09
5.05306180358e-10
9.98815402873e-11
9.10915718457e-10
1.56488043819e-09
2.13232496984e-10
2.22678191912e-09
4.74013413416e-09
6.93149736777e-09
3.06665462546e-09
7.91688051414e-09
1.06626225216e-08
4.33361530416e-09
2.62570363193e-09
4.49734212838e-09
5.46262541935e-10
1.07385272288e-09
3.42090670797e-10
4.28518727565e-10
5.67653997405e-10
3.03169634535e-10
1.70775874323e-09
1.87579743765e-10
5.53862773293e-10
4.88487062902e-10
2.07432296259e-09
4.22930524489e-10
2.73069355201e-09
1.06878886413e-09
1.80890488425e-09
1.69946716534e-10
5.68745385091e-10
2.34659846373e-10
1.43347610775e-09
3.47448274739e-09
3.01425525769e-09
3.49732650949e-10
3.86640475799e-10
3.49533055251e-09
7.08645976395e-10
4.85951004056e-10
2.27895456226e-09
1.24660340961e-09
5.09688425298e-09
5.85127468741e-09
1.43506298455e-09
4.07979313099e-10
8.70736168551e-09
4.5675868049e-09
4.68811825533e-09
2.66034459102e-08
9.98229494209e-09
7.55500114502e-09
1.9622622314e-08
3.04500349453e-08
1.87922787222e-08
9.7649830904e-09
7.08324839212e-09
2.73388637538e-09
4.63964721452e-09
5.36371071009e-09
1.39589063779e-09
1.98359872807e-09
3.17695146123e-09
1.78119605476e-09
5.41464909266e-09
1.13754693744e-08
2.2618991881e-08
3.03143804019e-08
7.73847820968e-09
4.06103272119e-09
2.22773191695e-09
4.68238277872e-09
9.35288243912e-09
6.40379406817e-09
1.85982393313e-09
2.09360532092e-09
2.81834461857e-09
2.13549134698e-10
2.83067379405e-10
8.46982666426e-09
5.75876190439e-09
3.24945022781e-09
1.86017359219e-09
2.07121136292e-09
1.79395308351e-09
3.75171028149e-09
1.71518049315e-09
3.29676493217e-11
2.84283619745e-09
6.20517854542e-09
1.82624363892e-09
3.84722340594e-09
3.13133569027e-09
1.12623999944e-09
1.11611869131e-09