# vtk DataFile Version 3.0
File Name: Molecule/arg/arg_13.5-3.vtk
ASCII
DATASET UNSTRUCTURED_GRID
FIELD FieldData 1
TIME 1 1 double
0.0
POINTS 2515 double
-3.403 0.327 1.604
-3.452 0.202 1.348
-3.215 0.119 1.662
-3.262 -0.0 1.417
-3.073 -0.113 1.748
-3.12 -0.233 1.503
-2.981 -0.361 1.858
-3.03 -0.485 1.602
-3.45 0.103 1.078
-3.261 -0.095 1.158
-3.118 -0.328 1.244
-3.028 -0.584 1.332
-3.398 0.034 0.803
-3.211 -0.162 0.894
-3.068 -0.394 0.98
-2.976 -0.654 1.057
-3.298 -0.003 0.536
-3.114 -0.197 0.638
-2.972 -0.43 0.724
-2.876 -0.691 0.79
-3.153 -0.007 0.286
-2.976 -0.201 0.399
-2.833 -0.433 0.485
-2.731 -0.694 0.541
-2.971 0.024 0.066
-2.801 -0.171 0.187
-2.658 -0.404 0.273
-2.549 -0.664 0.32
-2.984 0.046 0.042
-2.75 -0.004 -0.09
-2.763 0.017 -0.113
-2.556 -0.072 -0.268
-2.569 -0.051 -0.29
-2.396 -0.177 -0.461
-2.409 -0.155 -0.484
-2.276 -0.316 -0.661
-2.29 -0.293 -0.686
-2.2 -0.483 -0.862
-2.216 -0.458 -0.889
-3.158 0.288 -0.115
-2.796 0.071 -0.172
-2.948 0.283 -0.31
-2.637 0.05 -0.409
-2.775 0.243 -0.534
-2.512 -0.016 -0.658
-2.645 0.17 -0.779
-2.429 -0.124 -0.909
-2.565 0.066 -1.033
-2.39 -0.269 -1.153
-2.537 -0.063 -1.287
-3.25 0.578 -0.258
-3.029 0.537 -0.435
-2.849 0.475 -0.648
-2.717 0.393 -0.888
-2.638 0.295 -1.145
-2.617 0.185 -1.409
-3.255 0.893 -0.375
-3.034 0.813 -0.538
-2.853 0.726 -0.742
-2.721 0.635 -0.979
-2.642 0.542 -1.238
-2.621 0.454 -1.509
-3.173 1.207 -0.458
-2.961 1.09 -0.611
-2.787 0.978 -0.808
-2.657 0.877 -1.042
-2.577 0.79 -1.303
-2.55 0.723 -1.58
-3.008 1.498 -0.5
-2.817 1.344 -0.647
-2.656 1.21 -0.842
-2.531 1.1 -1.074
-2.448 1.019 -1.336
-2.41 0.97 -1.615
-2.776 1.74 -0.497
-2.613 1.557 -0.645
-2.47 1.404 -0.839
-2.352 1.286 -1.072
-2.264 1.21 -1.334
-2.211 1.177 -1.613
-2.622 1.932 -0.429
-2.565 1.626 -0.624
-2.419 1.808 -0.56
-2.373 1.536 -0.795
-2.23 1.716 -0.731
-2.208 1.473 -1.002
-2.061 1.658 -0.936
-2.076 1.44 -1.237
-1.919 1.637 -1.168
-1.982 1.439 -1.492
-1.81 1.654 -1.416
-2.663 2.202 -0.218
-2.323 2.018 -0.459
-2.36 2.267 -0.264
-2.046 2.135 -0.548
-2.083 2.377 -0.358
-1.806 2.278 -0.69
-1.844 2.526 -0.495
-1.615 2.438 -0.879
-1.656 2.708 -0.668
-2.655 2.421 0.048
-2.352 2.47 -0.019
-2.075 2.574 -0.12
-1.836 2.729 -0.25
-1.647 2.927 -0.402
-2.597 2.577 0.351
-2.3 2.613 0.261
-2.024 2.713 0.152
-1.783 2.872 0.03
-1.59 3.083 -0.1
-2.495 2.657 0.67
-2.205 2.687 0.555
-1.932 2.785 0.438
-1.689 2.947 0.324
-1.488 3.163 0.22
-2.727 2.643 0.859
-2.31 2.73 0.924
-2.521 2.716 1.096
-2.137 2.872 1.156
-2.339 2.859 1.321
-1.986 3.077 1.354
-2.192 3.064 1.522
-1.863 3.333 1.507
-2.087 3.319 1.689
-2.925 2.572 1.071
-2.701 2.653 1.288
-2.512 2.798 1.506
-2.369 3.001 1.711
-2.279 3.251 1.894
-3.081 2.451 1.295
-2.843 2.542 1.492
-2.648 2.692 1.701
-2.508 2.893 1.911
-2.43 3.133 2.111
-3.186 2.284 1.521
-2.937 2.39 1.697
-2.739 2.546 1.897
-2.601 2.744 2.112
-2.53 2.972 2.328
-3.324 2.06 1.667
-2.975 2.319 1.779
-3.111 2.099 1.924
-2.815 2.412 2.059
-2.958 2.183 2.21
-2.717 2.558 2.345
-2.872 2.307 2.509
-3.419 1.801 1.788
-3.205 1.843 2.043
-3.055 1.917 2.334
-2.979 2.017 2.644
-3.531 1.499 1.816
-3.277 1.754 2.004
-3.38 1.477 2.029
-3.171 1.729 2.243
-3.269 1.465 2.268
-3.106 1.727 2.498
-3.203 1.466 2.522
-3.084 1.749 2.759
-3.185 1.478 2.784
-3.107 1.793 3.017
-3.215 1.501 3.044
-3.567 1.179 1.827
-3.413 1.182 2.04
-3.3 1.185 2.277
-3.235 1.188 2.532
-3.217 1.19 2.794
-3.25 1.192 3.055
-3.525 0.859 1.821
-3.374 0.888 2.034
-3.264 0.905 2.272
-3.198 0.91 2.527
-3.18 0.902 2.789
-3.209 0.883 3.049
-3.408 0.559 1.798
-3.266 0.612 2.013
-3.161 0.643 2.252
-3.096 0.65 2.507
-3.074 0.633 2.768
-3.095 0.593 3.027
-3.105 0.348 2.085
-3.1 0.088 1.867
-2.97 0.105 2.152
-3.031 0.459 2.387
-2.908 0.238 2.449
-3.027 0.542 2.707
-2.911 0.332 2.766
-2.978 0.383 3.085
-2.865 -0.346 2.113
-2.719 -0.541 2.278
-2.797 -0.13 2.332
-2.664 -0.308 2.482
-2.794 0.071 2.575
-2.666 -0.1 2.72
-2.855 0.244 2.83
-2.724 0.07 2.978
-2.837 0.195 3.245
-2.52 -0.7 2.425
-2.482 -0.453 2.616
-2.491 -0.24 2.849
-2.546 -0.073 3.11
-2.645 0.041 3.387
-2.502 -0.946 2.296
-2.309 -0.792 2.616
-2.292 -1.028 2.493
-2.148 -0.9 2.844
-2.131 -1.136 2.72
-2.044 -1.018 3.098
-2.027 -1.266 2.968
-2.003 -1.142 3.367
-1.984 -1.412 3.226
-2.44 -1.171 2.145
-2.233 -1.243 2.347
-2.072 -1.352 2.575
-1.964 -1.493 2.815
-1.915 -1.659 3.059
-2.335 -1.366 1.976
-2.132 -1.43 2.186
-1.971 -1.539 2.413
-1.858 -1.689 2.646
-1.8 -1.873 2.874
-2.192 -1.524 1.797
-1.995 -1.581 2.015
-1.833 -1.691 2.241
-1.714 -1.848 2.466
-1.642 -2.046 2.678
-2.015 -1.638 1.615
-1.826 -1.69 1.841
-1.664 -1.801 2.066
-1.536 -1.964 2.282
-1.449 -2.172 2.478
-1.813 -1.704 1.437
-1.632 -1.754 1.669
-1.469 -1.865 1.895
-1.332 -2.031 2.102
-1.226 -2.245 2.282
-1.592 -1.721 1.268
-1.42 -1.77 1.508
-1.257 -1.88 1.733
-1.109 -2.047 1.932
-0.984 -2.263 2.097
-1.82 -1.681 1.103
-1.41 -1.742 0.999
-1.625 -1.705 0.842
-1.237 -1.838 0.739
-1.452 -1.801 0.583
-1.085 -2.004 0.503
-1.311 -1.964 0.338
-0.96 -2.23 0.303
-1.211 -2.186 0.121
-2.026 -1.588 0.931
-1.819 -1.616 0.68
-1.646 -1.713 0.421
-1.517 -1.871 0.167
-1.437 -2.084 -0.068
-2.203 -1.444 0.759
-1.986 -1.481 0.518
-1.813 -1.578 0.259
-1.692 -1.729 -0.004
-1.631 -1.926 -0.256
-2.342 -1.257 0.596
-2.117 -1.305 0.364
-1.944 -1.402 0.106
-1.83 -1.543 -0.166
-1.784 -1.721 -0.435
-2.438 -1.034 0.448
-2.208 -1.094 0.224
-2.034 -1.191 -0.034
-1.926 -1.321 -0.313
-1.889 -1.476 -0.598
-2.487 -0.785 0.321
-2.254 -0.858 0.104
-2.08 -0.956 -0.154
-1.974 -1.073 -0.44
-1.943 -1.202 -0.738
-2.311 -0.692 0.068
-2.37 -0.577 0.067
-2.189 -0.632 -0.224
-2.248 -0.516 -0.225
-2.128 -0.607 -0.539
-2.191 -0.484 -0.54
-2.131 -0.618 -0.861
-2.114 -0.682 -1.181
-2.003 -0.9 -0.803
-1.987 -0.962 -1.114
-1.927 -1.264 -1.052
-2.312 -0.441 -1.376
-2.242 -0.501 -1.651
-2.116 -0.68 -1.269
-2.044 -0.743 -1.552
-1.985 -0.96 -1.159
-1.906 -1.028 -1.469
-1.837 -1.343 -1.406
-2.121 -0.506 -1.916
-1.92 -0.747 -1.824
-1.77 -1.033 -1.766
-1.682 -1.348 -1.746
-2.018 -0.367 -2.203
-1.864 -0.768 -1.888
-1.729 -0.586 -2.265
-1.939 -0.122 -2.418
-1.625 -0.265 -2.547
-1.897 0.192 -2.527
-1.57 0.147 -2.691
-1.956 0.421 -2.508
-1.62 0.271 -2.677
-1.681 0.509 -2.657
-1.383 0.337 -2.889
-1.45 0.6 -2.867
-1.198 0.386 -3.152
-1.276 0.687 -3.126
-1.996 0.646 -2.441
-1.722 0.743 -2.587
-1.496 0.856 -2.79
-1.328 0.981 -3.039
-2.015 0.855 -2.33
-1.742 0.96 -2.472
-1.517 1.096 -2.663
-1.352 1.255 -2.893
-2.011 1.039 -2.18
-1.739 1.151 -2.316
-1.514 1.306 -2.491
-1.348 1.496 -2.696
-2.106 1.164 -1.908
-1.72 1.257 -2.235
-1.844 1.421 -1.879
-1.668 1.465 -2.085
-1.505 1.361 -2.45
-1.453 1.565 -2.303
-1.296 1.704 -2.546
-1.587 1.653 -1.922
-1.374 1.749 -2.143
-1.215 1.892 -2.383
-1.479 1.817 -1.75
-1.268 1.91 -1.974
-1.107 2.057 -2.211
-1.379 2.028 -1.517
-1.683 1.878 -1.211
-1.325 2.288 -1.323
-1.617 2.145 -1.029
-1.319 2.584 -1.178
-1.091 2.821 -1.245
-1.192 2.409 -1.391
-0.972 2.637 -1.456
-1.111 2.259 -1.642
-0.89 2.489 -1.707
-1.083 2.139 -1.92
-0.849 2.382 -1.989
-0.852 2.322 -2.287
-0.816 3.013 -1.267
-0.707 2.822 -1.477
-0.623 2.675 -1.729
-0.568 2.578 -2.012
-0.543 2.537 -2.312
-0.463 3.323 -1.084
-0.576 2.949 -1.44
-0.315 3.179 -1.304
-0.367 2.923 -1.657
-0.177 3.089 -1.559
-0.198 2.935 -1.908
-0.057 3.059 -1.834
-0.077 2.986 -2.18
0.041 3.09 -2.119
-0.01 3.073 -2.462
0.111 3.18 -2.399
-0.0 3.192 -2.74
0.151 3.324 -2.662
-0.048 3.337 -3.001
0.158 3.517 -2.895
0.018 3.374 -0.943
0.042 3.216 -1.2
0.081 3.117 -1.483
0.136 3.08 -1.778
0.202 3.107 -2.072
0.276 3.197 -2.351
0.356 3.346 -2.601
0.438 3.547 -2.812
0.466 3.148 -0.891
0.373 3.049 -1.162
0.322 2.995 -1.455
0.315 2.989 -1.757
0.352 3.031 -2.055
0.43 3.12 -2.333
0.548 3.25 -2.579
0.699 3.415 -2.782
0.725 3.006 -0.709
0.525 2.952 -1.115
0.774 2.816 -0.939
0.619 2.806 -1.364
0.87 2.668 -1.187
0.743 2.717 -1.627
1.008 2.572 -1.44
0.892 2.689 -1.891
1.182 2.53 -1.686
0.926 2.805 -0.509
0.968 2.622 -0.748
1.065 2.473 -0.994
1.214 2.366 -1.236
1.407 2.305 -1.463
1.057 2.557 -0.305
1.094 2.383 -0.551
1.192 2.232 -0.796
1.348 2.112 -1.027
1.553 2.026 -1.234
1.04 2.677 -0.058
1.165 2.316 -0.174
1.149 2.431 0.062
1.328 2.1 -0.057
1.312 2.215 0.179
1.539 1.918 0.039
1.523 2.038 0.286
0.979 2.767 0.195
1.091 2.517 0.304
1.254 2.301 0.421
1.462 2.128 0.539
0.877 2.824 0.444
0.993 2.571 0.542
1.156 2.355 0.659
1.36 2.185 0.788
0.737 2.845 0.68
0.859 2.592 0.768
1.023 2.375 0.884
1.22 2.206 1.024
0.406 3.093 0.833
0.703 2.695 0.902
0.398 2.923 1.043
0.71 2.572 1.142
0.419 2.789 1.277
0.756 2.48 1.392
0.466 2.698 1.526
0.841 2.425 1.643
0.539 2.651 1.783
0.961 2.407 1.884
0.634 2.652 2.036
1.112 2.426 2.108
0.748 2.699 2.276
0.2 3.324 0.732
0.235 3.06 1.055
0.049 3.27 0.963
0.102 3.062 1.303
-0.074 3.26 1.216
0.01 3.098 1.567
-0.164 3.294 1.481
-0.036 3.167 1.836
-0.218 3.371 1.746
-0.034 3.266 2.099
-0.232 3.489 2.002
-0.057 3.491 0.624
-0.185 3.421 0.865
-0.295 3.402 1.124
-0.383 3.436 1.389
-0.446 3.519 1.65
-0.481 3.65 1.897
-0.35 3.583 0.516
-0.45 3.505 0.768
-0.545 3.481 1.032
-0.632 3.514 1.298
-0.705 3.601 1.555
-0.764 3.739 1.794
-0.659 3.595 0.416
-0.731 3.515 0.677
-0.81 3.491 0.946
-0.894 3.523 1.213
-0.979 3.611 1.466
-1.063 3.75 1.697
-0.965 3.525 0.33
-1.008 3.452 0.598
-1.072 3.431 0.872
-1.154 3.464 1.139
-1.25 3.549 1.39
-1.358 3.682 1.613
-1.247 3.378 0.263
-1.264 3.318 0.538
-1.313 3.305 0.815
-1.393 3.339 1.082
-1.5 3.418 1.331
-1.631 3.54 1.549
-1.482 3.124 0.498
-1.519 3.122 0.778
-1.598 3.157 1.046
-1.714 3.228 1.292
-0.032 3.368 2.384
0.177 3.023 2.187
0.179 3.124 2.469
0.443 2.83 2.247
0.444 2.936 2.542
0.75 2.815 2.6
-0.08 3.426 2.677
0.131 3.181 2.758
0.395 2.996 2.845
0.695 2.881 2.933
-0.175 3.437 2.964
0.038 3.192 3.042
0.296 3.007 3.142
0.587 2.894 3.259
-0.313 3.4 3.231
-0.099 3.156 3.306
0.154 2.97 3.419
0.431 2.852 3.563
-0.486 3.318 3.465
-0.27 3.074 3.537
-0.025 2.884 3.661
0.234 2.758 3.828
-0.687 3.194 3.654
-0.468 2.951 3.724
-0.233 2.756 3.857
0.006 2.617 4.044
-0.948 3.187 3.74
-0.58 2.815 3.881
-0.883 2.808 3.981
-1.222 3.175 3.77
-1.2 2.794 4.016
-1.495 3.158 3.743
-1.517 2.774 3.984
[...]
CELL_DATA 5026
SCALARS cell_data_0 double
LOOKUP_TABLE default
7.34975511317e-08
1.2801092967e-07
1.59565483938e-07
1.77704565989e-07
1.79575943356e-07
1.72668496007e-07
1.07572486237e-07
1.44184407832e-07
1.62018769154e-07
1.88905179324e-07
1.84491297821e-07
2.01329530838e-07
1.23107414598e-07
1.7054198344e-07
2.01167916023e-07
2.35024251578e-07
2.2359660129e-07
2.43279192861e-07
1.47811310386e-07
1.98832110122e-07
2.45873564022e-07
2.70520767529e-07
2.71358881206e-07
2.8114952307e-07
2.28317749245e-07
2.94103463853e-07
2.96361842979e-07
3.25356887851e-07
3.10742252124e-07
3.24793395699e-07
2.718760557e-07
3.38791332057e-07
3.85645218715e-07
4.60870758332e-07
4.0507975499e-07
4.20239617817e-07
2.82815762005e-08
4.95900740729e-08
5.95471479196e-08
7.22107710401e-08
7.76264314996e-08
9.11992099092e-08
9.3265111096e-08
1.14286200371e-07
1.15803935641e-07
1.08214409803e-07
3.30245989867e-07
3.78614803104e-07
5.17168939766e-07
4.68034935793e-07
5.72051900429e-07
5.54119592571e-07
5.74331080002e-07
5.8210829396e-07
5.43621506313e-07
5.46929261096e-07
2.65092431509e-07
2.60983933387e-07
3.52299630244e-07
3.55746720638e-07
4.54140800581e-07
4.69312070638e-07
5.361200552e-07
5.55370618752e-07
5.29878616653e-07
5.09578402025e-07
1.72692130498e-07
1.84423132894e-07
2.75461784987e-07
2.996197196e-07
3.8671566769e-07
4.26395317523e-07
4.86122118066e-07
5.18067376383e-07
4.90484952782e-07
5.18559102131e-07
6.73199074829e-08
7.20057500735e-08
1.92435257536e-07
2.31559822759e-07
3.57446493075e-07
3.81336680035e-07
4.54154027845e-07
5.16953040592e-07
5.35126950929e-07
5.86598010901e-07
3.87680474186e-08
8.24195476172e-08
1.29245124576e-07
1.50824802672e-07
2.46564424444e-07
2.74814805756e-07
4.45872820223e-07
4.82205384719e-07
5.43109555819e-07
5.78243179227e-07
1.10764081517e-07
8.50622900939e-08
6.15775261574e-08
2.0727895132e-07
2.92502859005e-07
4.52550117534e-07
4.34914578423e-07
5.90592860778e-07
6.16481108209e-07
7.4652777976e-07
3.34512741384e-08
9.11345654586e-08
6.49657315692e-09
1.24584367298e-07
1.24481384185e-07
1.10548501788e-07
3.54315990823e-07
3.78771244772e-07
7.03972145128e-07
7.88264950619e-07
4.05369410984e-06
7.0612073083e-06
5.04944554119e-06
4.12722337912e-06
4.87739980628e-06
3.26349803686e-06
1.08207046444e-06
7.08282490388e-08
7.22771809079e-06
5.56717134112e-06
5.19636922462e-06
3.82825537628e-06
1.7133936248e-06
6.80003210469e-07
3.43371690688e-07
6.5569604283e-07
5.05118391511e-06
4.3368053845e-06
4.03680770742e-06
2.45602798286e-06
1.21775861266e-06
5.54994620757e-07
4.35012956879e-07
7.22235064979e-07
2.09263021869e-06
1.5235160804e-06
2.34305273334e-06
1.70626597339e-06
1.09768354774e-06
8.55006312375e-07
6.0155153816e-07
4.73150486094e-07
5.83184195362e-07
7.91400094001e-07
6.30556886931e-07
6.67520849049e-07
9.39262400135e-07
1.01052983335e-06
8.04590598701e-07
8.72448031524e-07
1.152563269e-06
6.2307143157e-07
5.08572828995e-07
6.07932122422e-07
8.59180406549e-07
1.12985395967e-06
1.25926081561e-06
1.52459034004e-06
8.14492964649e-07
4.1907803347e-07
4.88053192089e-07
5.69271916147e-07
9.66546062736e-07
1.13035780929e-06
1.402630541e-06
1.44977370863e-06
4.81921361135e-07
7.1298238428e-07
8.55540762742e-07
1.21526568618e-06
1.0812186823e-06
1.64001177327e-06
1.57998694083e-06
1.27746054853e-06
1.20130502925e-06
1.30052647163e-06
1.39469083891e-06
1.17892914091e-06
9.54531717188e-07
9.2243262353e-07
9.29756948429e-07
9.16202189129e-07
1.06602307013e-06
1.26100064749e-06
1.20168705819e-06
1.04245706321e-06
6.64175213657e-07
5.8851134509e-07
5.28658109026e-07
6.01953921241e-07
7.4729955669e-07
8.19496877e-07
9.36998660909e-07
1.05735172991e-06
8.53753279594e-07
8.75180067937e-07
6.81498920982e-07
5.86244469725e-07
6.60497060209e-07
8.00665048594e-07
8.48407712718e-07
9.93037181977e-07
1.02715058587e-06
1.05999767393e-06
9.72223998063e-07
8.91859635665e-07
8.55571317939e-07
1.05841373716e-06
1.04276147862e-06
1.21344732861e-06
1.15613023254e-06
1.2058369715e-06
1.01807630512e-06
1.03026186548e-06
8.5070933191e-07
1.02117481607e-06
1.00347372707e-06
1.00716742675e-06
1.38059177693e-06
1.27612204889e-06
1.22174607891e-06
1.27959281507e-06
1.21318273895e-06
1.44895094927e-06
1.27624203567e-06
1.05477756028e-06
4.78334329768e-07
1.79646997153e-07
6.48060741449e-07
8.64011021139e-07
1.59063558599e-06
1.3357800411e-06
9.54797709208e-07
5.99346368444e-07
1.25904583414e-07
2.93476776466e-08
5.42267357481e-07
6.75052720579e-07
6.39119025728e-07
7.60458117481e-07
8.45092153199e-07
8.27778095203e-07
7.29926685841e-07
6.46590732917e-07
5.86018582903e-07
2.50173607873e-07
4.86317641402e-07
3.96034641714e-07
5.82606459359e-07
5.40804098017e-07
5.59049975567e-07
4.84657126893e-07
1.03412453813e-07
1.71641004732e-07
6.39204985707e-07
6.90651530829e-07
1.30269321002e-06
1.30671451038e-06
1.43537401377e-06
9.08307725962e-07
4.65844775907e-07
4.96806080195e-07
9.10901639058e-09
5.74138043783e-09
5.63764275404e-07
4.60577263949e-07
5.72200952714e-07
1.58149493175e-07
1.05201728835e-06
9.94408320567e-07
6.89928378207e-07
3.72982237978e-07
3.25444471889e-08
1.09314716242e-07
3.07265175601e-07
9.70165368234e-07
1.40691193226e-06
1.12693636159e-06
6.13435819447e-07
6.00336446064e-07
5.33210475254e-07
1.01576943848e-06
1.10193621093e-06
1.78816250053e-06
1.31207037258e-06
1.21365783727e-06
1.18824944602e-06
1.57903012816e-06
1.4779769925e-06
1.86253269533e-06
1.80847836298e-06
1.87569830782e-06
1.79625145418e-06
1.71907416548e-06
1.68048319931e-06
1.58513802382e-06
1.79184045644e-06
2.02854785761e-06
1.88117081745e-06
2.45537110693e-06
1.22423814346e-06
1.10341074965e-06
1.58707152209e-06
1.62336915128e-06
1.76441424838e-06
2.23626659751e-06
2.77205021212e-06
2.24489423602e-06
1.93882695555e-06
2.36069832812e-06
1.79593853208e-06
1.26618440649e-06
1.51463085211e-06
1.30386837517e-06
1.19636896447e-06
7.12621438651e-07
1.74310647787e-06
6.60048112104e-07
8.3241316981e-07
5.91777973231e-07
7.81929913911e-07
7.72206109691e-07
6.65331607394e-07
1.24268676875e-06
8.18320834348e-07
1.64188694043e-06
1.27249425836e-06
2.24476705398e-06
1.35797437679e-06
2.17626412836e-06
1.93674244091e-06
1.92844004311e-06
2.28641579621e-06
2.12997112552e-06
2.77119364064e-06
2.75349747221e-06
3.11929975918e-06
3.77867916582e-06
2.3258320773e-06
1.32483730607e-06
1.41320322193e-06
9.71021389514e-07
1.75363887031e-06
1.38730888648e-06
2.76359740764e-06
1.75157666076e-06
1.25675474159e-06
6.94435321113e-07
8.03627376308e-07
7.09436786494e-07
6.55019470331e-07
1.04247894437e-06
9.44131138162e-07
8.94105571741e-07
8.8457583914e-07
1.2497626115e-06
4.88425902481e-07
1.11688862565e-06
1.64983454933e-06
3.32941461607e-06
3.47046970379e-06
6.05296480313e-06
3.10482499263e-06
1.15338551542e-06
2.56866210197e-07
1.65792145166e-07
1.0331411186e-07
4.07586863901e-08
8.2195145902e-07
6.8234056472e-07
2.42614453756e-07
8.76730420873e-07
7.38884807538e-07
2.947044039e-06
1.67259852287e-06
6.90030104341e-06
6.7885348525e-07
3.04722298987e-07
2.24519196026e-06
1.97804576314e-06
7.37324220131e-06
4.68256234923e-06
1.95912803506e-07
1.21495644835e-06
1.67566987211e-06
3.19619169143e-06
1.95790362552e-06
7.30128550502e-07
1.33812837073e-06
1.33045157489e-06
4.97427500602e-06
2.44471837026e-06
2.07070611317e-06
3.08051789872e-08
1.97078916218e-07
7.11603888951e-07
4.05983880716e-07
7.80099949611e-07
4.42322144893e-07
1.74981342649e-06
1.54048925428e-06
8.36226275234e-07
5.12145584444e-07
9.7959312286e-08
9.04777291395e-07
6.42384188601e-07
1.37039707156e-07
3.12827618591e-07
1.746423611e-07
1.27455108422e-07
3.71482927357e-08
3.70425964081e-07
9.00753263161e-07
9.22919424456e-07
5.57459925134e-07
1.21181076972e-06
6.30305057558e-07
8.47346649895e-08
6.22082250112e-07
8.39009222731e-07
2.00744603803e-07
6.22847613047e-07
6.96426046668e-07
7.24973673501e-07
7.39446110248e-07
8.54326385845e-07
7.990229889e-07
9.26729586401e-07
1.39846056524e-06
9.84023803915e-07
7.56148786319e-07
6.01458301883e-07
5.98198820013e-07
6.60337187922e-07
4.08209882197e-07
4.35170098428e-07
5.80421021717e-07
6.40848915134e-07
7.58798951477e-07
8.71572459173e-07
1.06042685636e-06
1.23184687192e-06
4.33957032247e-07
6.043099051e-07
5.64973565443e-07
7.12078734661e-07
7.65550629067e-07
9.87552878254e-07
1.08433024881e-06
1.84345656968e-06
5.27003799924e-07
3.17016855486e-07
5.52327057348e-07
4.01832500824e-07
5.36143124595e-07
4.0743341347e-07
4.838911052e-07
5.73719233619e-07
6.25268713519e-07
8.21484160525e-07
7.34616855024e-07
1.0479735053e-06
9.259617704e-07
1.3143128103e-06
2.78582664412e-07
3.86954117644e-07
3.84911737838e-07
4.25932234749e-07
4.24774618761e-07
4.13490084226e-07
5.65998182537e-07
5.87479218333e-07
7.14693007172e-07
7.07708942201e-07
7.13063347388e-07
8.34436245213e-07
9.00731395733e-07
1.43385094249e-06
6.33319886149e-07
6.75210471846e-07
6.52504728722e-07
5.51029565059e-07
5.49344881585e-07
4.89912742777e-07
5.0782664426e-07
4.75402981535e-07
5.00061733222e-07
6.02557093063e-07
6.28829417147e-07
9.68387505936e-07
1.04044594918e-06
1.65726988904e-06
6.59259294164e-07
6.89086229278e-07
7.77632434209e-07
8.918598479e-07
1.00670476878e-06
1.20961398841e-06
1.66548201242e-06
1.79418225505e-06
5.78843026259e-07
6.45977546938e-07
7.79266130818e-07
8.8195928561e-07
1.02081932686e-06
1.16518475861e-06
1.19235474912e-06
1.33580797621e-06
7.19162916806e-07
8.14029353284e-07
7.01417310005e-07
8.08722039954e-07
9.41482867395e-07
1.08241307548e-06
1.17049894289e-06
1.72791856724e-06
5.60186883874e-07
4.19985974367e-07
4.48001968361e-07
4.01395562383e-07
4.05782783428e-07
3.47214181269e-07
3.5812486557e-07
3.47268962321e-07
3.48907991298e-07
3.92731529606e-07
3.61863797857e-07
3.63710895612e-07
3.25763523448e-07
3.42183928636e-07
3.95375379351e-07
4.14626624712e-07
3.89178569132e-07
3.26996257436e-07
2.1563722832e-07
1.86213329476e-07
2.93062380947e-07
2.41979361359e-07
2.66966906046e-07
2.13136436899e-07
1.53295939675e-07
1.11463832711e-07
1.00700332558e-07
4.43845265535e-09
1.33609001702e-07
7.55319639968e-08
3.22803078723e-07
3.30631841364e-07
3.08984107684e-07
3.25964888502e-07
3.86967722476e-07
3.0624089144e-07
2.94456919512e-07
9.83580491147e-08
2.07472699713e-07
1.95269861835e-07
1.74789572383e-07
1.23414832563e-07
1.13966800339e-07
9.72401308996e-08
7.5335236122e-08
9.85170771774e-08
1.86005893611e-07
1.43183768282e-07
1.36669574839e-07
8.12340436487e-08
8.93121164314e-08
1.16079225653e-07
1.28237722588e-07
1.4323949794e-07
1.25054192396e-07
1.5116901996e-07
1.72184691506e-07
1.8978139151e-07
1.08378715905e-07
1.79891659898e-07
1.81353099613e-07
2.6200017281e-07
1.94635787833e-07
2.05386337223e-07
1.66110452563e-07
2.09472306809e-07
3.20342375735e-07
3.26739567773e-07
3.20361684273e-07
3.20461013725e-07
2.86750397866e-07
2.84908071568e-07
2.69552390374e-07
2.64457601568e-07
2.34360865205e-07
2.13141843899e-07
3.7826509426e-07
3.39761649023e-07
3.45610306422e-07
2.8938377737e-07
2.91436736311e-07
2.51810257478e-07
2.44851370045e-07
1.67181326759e-07
1.65126841413e-07
8.70987776676e-08
2.23587020244e-07
9.33101451859e-08
1.95111746448e-07
1.12702965766e-07
2.05850852044e-07
1.06611351388e-07
1.00907481056e-07
5.8257972759e-09
3.90162573307e-08
3.42440945508e-08
5.00530363727e-08
4.83136406112e-08
1.20122733921e-08
1.92045928429e-08
8.61949579407e-09
8.80413543475e-09
2.26036513816e-08
2.51640368395e-08
2.36833307486e-08
4.61313915035e-08
1.29739809186e-07
2.2245060149e-07
2.10626601606e-07
4.91354907871e-07
4.85445892745e-07
7.21328249131e-07
3.39474635294e-07
3.94232483287e-07
4.40608076075e-07
5.50497136145e-07
6.56021094272e-07
8.75909422674e-07
3.30014536909e-07
3.78698285755e-07
4.51416238399e-07
5.54582448217e-07
7.01561801645e-07
8.46560088034e-07
2.73396358053e-07
2.98141104466e-07
3.88293460311e-07
4.30013264249e-07
5.7334992518e-07
6.41840955333e-07
1.48903201397e-07
1.64373841984e-07
2.45293202852e-07
2.37484679701e-07
3.36374244156e-07
3.07116217908e-07
2.22833578872e-07
1.51217488225e-07
1.06850760422e-07
6.37263326819e-08
7.36882011701e-08
5.01553941394e-08
6.89371051119e-07
2.75527356386e-07
1.31922756473e-08
1.70397882758e-08
5.92779133914e-08
1.30028866707e-08
3.44802055429e-08
8.8834044385e-08
1.91019915137e-07
1.86822434922e-07
2.11052940827e-07
1.60345846755e-07
1.9670804402e-07
1.67724427898e-07
2.14132077295e-07
1.98512752873e-07
1.81601205637e-07
9.58127125569e-08
2.1624737476e-07
2.90207162114e-07
4.83743896303e-07
1.45309563796e-07
2.69797880694e-07
3.09542762271e-07
2.18145136995e-07
2.38701313672e-07
2.33790965778e-07
1.86434854307e-07
1.99347355517e-07
8.83416711235e-08
9.8443108155e-08
1.76830833107e-08
5.69237317459e-07
5.90838222652e-07
3.28849803503e-08
5.92662680426e-07
1.40174460326e-06
4.7407148621e-07
5.03115620033e-07
4.15769387859e-07
2.31076326276e-07
1.32932855377e-07
2.1270149398e-07
4.67725203786e-07
7.67439493902e-07
7.55462863596e-07
5.65013692567e-07
3.37522351591e-07
3.35559485578e-07
5.93762551546e-07
1.05080283152e-06
1.24386727569e-06
1.14849106484e-06
6.68567749285e-07
4.79672448408e-07
5.15892733341e-07
8.66566382525e-07
1.41409204512e-06
1.16525873756e-06
1.57154917901e-06
1.61692627567e-06
1.43526457859e-06
1.72880875171e-06
1.27942929527e-06
1.34218330601e-06
1.1686443668e-06
1.03128279589e-06
8.85196981736e-07
2.96545315082e-06
3.29371002553e-06
3.76007017766e-06
4.55796308191e-06
4.96061123457e-06
6.95730019195e-06
4.87841811948e-06
2.73561612977e-06
6.98312535579e-07
1.35356006771e-06
4.6340624272e-07
3.06571530062e-08
3.86306034769e-08
3.36656196267e-08
3.44741902767e-08
2.72061452336e-08
2.5203139128e-08
1.43906773832e-08
4.99147308203e-08
7.99858576935e-08
2.68772979804e-08
4.07829941524e-08
3.90036028641e-08
1.8404247465e-08
2.56439038008e-09
1.94239917693e-08
4.27193048896e-08
3.69945821478e-08
1.65881884791e-08
1.29218396142e-09
3.02564804709e-08
3.79803204948e-08
3.87052407798e-08
3.90371355671e-08
3.19970005047e-08
4.84091982567e-08
5.04090182005e-08
3.56043104694e-08
2.65247685853e-08
7.65467967434e-09
1.97700779447e-08
1.90677428375e-08
4.07283102281e-08
4.94568102831e-08
6.39435654666e-08
7.79102707045e-08
6.44501381734e-08
5.80461263175e-08
3.36502155269e-08
6.30709395871e-08
6.96428156553e-08
9.61377125529e-08
4.48987454317e-09
1.25293715222e-07
1.25700009891e-08
7.75921531695e-08
3.68733591816e-08
8.2713036705e-08
8.22927386365e-08
2.85784907439e-07
7.93763539764e-07
9.87570617275e-07
4.82131789951e-07
6.93787159616e-07
3.98209137642e-07
5.51980185009e-07
2.9228645873e-07
9.20166780149e-07
7.38299498728e-07
1.22897689702e-06
1.1404768833e-06
8.68044658408e-07
1.08903909511e-06
1.69841362277e-06
1.42009043872e-06
2.03227693611e-06
1.70858448291e-06
1.2739699504e-06
7.6660811454e-07
2.72913542888e-07
4.2517243572e-06
7.8411173598e-06
5.00639708969e-06
5.02751659525e-06
8.12975888098e-06
7.94746539631e-06
7.63091176156e-06
6.81754090585e-06
6.03824325875e-06
5.53163307761e-06
6.4800140517e-06
5.5948790949e-06
3.60218620843e-06
3.11081344391e-06
4.02963871843e-06
3.66575237174e-06
2.12802369073e-06
2.07170559811e-06
2.64751365205e-06
1.97917524678e-06
1.38426665239e-06
1.61393196573e-06
1.62734350636e-06
1.22829918373e-06
1.0674975465e-06
9.23945340181e-07
1.15333744613e-06
8.16510234509e-07
8.80901420356e-07
4.42179220372e-07
4.79907251095e-07
3.86029853099e-07
3.40781161092e-07
1.70268596339e-07
1.78648595701e-07
6.97874509047e-08
1.04586380773e-07
1.18485238121e-07
2.53495821896e-09
2.83633361811e-08
3.5374641661e-08
2.55784826419e-08
3.21600259425e-08
2.9334856561e-08
1.12725187458e-07
9.56320665447e-08
9.27381136256e-08
9.72456552619e-08
1.20158341237e-07
1.3830232857e-07
3.45653373414e-07
3.62674937112e-07
1.94134887368e-07
2.35958310795e-07
3.0841206049e-07
3.84333364816e-07
8.9579170465e-07
6.01020393631e-07
2.57085946726e-07
3.75254244576e-07
5.50534378511e-07
1.10228455135e-06
1.38776919431e-06
1.12030997069e-06
7.73651251375e-07
7.16413543573e-07
1.11699093285e-06
1.07097350151e-06
1.0548125714e-06
6.87168040486e-07
4.92375585104e-07
6.72141337368e-07
7.48542218757e-07
1.17590255785e-06
8.43452229094e-07
6.09599739492e-07
5.23142106035e-07
4.16649050903e-07
6.5961456394e-07
5.98410760499e-07
4.27585907439e-07
2.58317823476e-07
2.35550211193e-07
1.5582169451e-07
2.78903067586e-07
1.23421930757e-07
2.12388007558e-08
4.38192337619e-08
1.71150460733e-08
3.98921879489e-08
1.50510269747e-07
3.204570508e-08
2.85893900955e-08
4.32607373716e-08
1.81474596943e-08
2.35800486815e-07
9.30429551011e-08
5.64134787347e-07
3.64072135822e-07
4.53346477327e-07
5.4235454533e-07
2.72869622051e-07
4.86142656769e-07
3.95630201785e-07
1.99907619732e-07
1.8269141163e-09
4.52624618903e-08
5.88895309491e-08
9.70072234989e-08
1.22416822723e-07
2.11521679917e-07
2.56055353432e-07
4.44093050425e-07
4.91338547602e-07
7.17621146074e-07
7.10755341646e-07
6.50272447398e-07
4.50769116585e-07
1.35166084631e-07
4.73140638662e-08
1.76478579435e-08
1.13630250194e-08
4.36890472275e-08
4.67987841105e-08
1.16532127103e-07
1.36484424736e-07
2.65830602964e-07
3.06979708617e-07
4.45333006146e-07
4.56677752772e-07
4.5044115439e-07
1.48573547084e-07
9.12629363633e-07
1.41841801898e-06
5.18242400882e-07
1.16623901493e-06
5.17235312994e-07
8.83066894611e-07
3.01883141998e-07
4.5810863887e-07
7.13220732522e-08
1.19865255874e-07
1.53177060225e-07
1.12654735805e-07
8.81846286948e-08
1.0558457081e-07
1.95825774372e-06
8.50339767941e-07
1.5024515858e-06
6.53098954122e-07
9.99847867382e-07
2.84752755337e-07
4.61821288831e-07
2.56677023189e-08
9.04322408967e-08
1.52210582214e-07
1.26215396497e-07
2.14067168356e-07
1.52509919372e-07
1.41837219435e-07
1.8603642821e-07
3.38642061048e-07
4.8191198308e-07
8.56945272616e-07
4.13968833905e-07
7.1838913151e-07
1.54116786349e-07
2.82798311264e-07
7.0453429303e-08
4.40194460916e-08
1.65793419468e-07
1.63489444354e-07
1.59666216468e-07
1.30765634515e-07
2.99585247521e-07
2.54189162377e-07
7.69792703319e-07
2.04143119939e-07
5.98234082064e-07
3.34967107419e-07
7.29498001041e-07
6.86369994608e-07
4.19307440074e-07
5.55968498861e-07
1.43130190834e-07
3.29182303237e-07
1.39906464947e-08
2.34690374573e-07
1.72436358665e-07
2.09371773931e-07
3.45218875388e-08
2.09650666145e-08
9.33640049056e-08
7.32828095027e-08
3.61118384989e-07
1.99067902202e-08
2.56268457104e-07
1.08955483486e-07
5.90193893098e-08
1.49259177851e-07
2.37838412143e-07
2.64816872842e-07
4.17041915722e-07
4.54945863044e-07
5.06477653051e-07
4.1557022152e-07
2.87189405463e-07
1.46416866906e-07
4.33579360356e-08
4.88976639094e-08
3.75226838599e-08
2.37457258863e-08
6.70626982609e-08
1.27591574577e-08
1.46586946988e-07
6.28097864318e-08
1.30822074625e-07
7.33997555362e-08
2.07574958227e-07
1.10343609147e-07
5.74612142184e-07
3.4007496529e-07
5.74866602988e-07
9.37902868385e-08
3.00680868622e-07
1.5919880288e-07
1.08404312315e-07
1.03492526172e-07
2.26772299376e-07
3.03318933912e-07
2.05497236309e-07
2.2581390241e-07
1.55663977647e-07
6.4808920327e-08
5.45128185456e-08
2.74132984631e-07
9.15179012298e-08
6.62780871592e-08
2.38133031075e-07
5.17886148196e-07
9.85804304846e-08
1.32188851995e-07
5.30439651906e-07
4.64102878847e-07
1.7658564542e-07
2.5384550776e-07
1.08726921952e-07
8.45615059227e-08
3.02282657853e-07
3.21622089495e-07
7.34271690404e-08
4.8823665663e-08
3.72901161796e-07
5.29057440911e-07
2.65596991688e-07
2.01235383194e-07
1.58027080326e-08
1.37334179169e-06
8.57951045371e-07
8.53949397253e-07
9.40512498288e-08
4.42506716707e-08
8.17200620567e-07
7.41035671574e-07
1.66407966869e-07
1.36284554032e-07
1.45645579913e-06
1.38642286678e-06
8.80328825717e-07
8.7881594782e-07
4.16582176411e-09
7.97157670573e-08
1.40532197803e-07
6.70855899955e-07
2.03346653581e-08
5.13680615245e-08
2.89767783872e-07
1.79981514206e-07
4.40324114901e-08
1.54770477802e-07
1.5611792436e-06
1.63110488059e-06
7.88560262973e-07
3.39685171202e-08
1.7000765981e-07
2.64964530558e-08
3.18155027029e-10
4.10397488348e-08
1.26857483479e-06
1.31285361955e-06
6.1116856964e-07
4.75232320807e-08
6.13987443936e-09
1.55584820893e-07
1.31147041731e-07
1.47114214506e-07
9.61421199341e-07
9.80034753129e-07
4.38966995948e-07
6.92049845847e-08
1.9795937864e-07
3.72706317694e-07
2.99928227925e-07