# vtk DataFile Version 3.0
File Name: Molecule/arg/arg_2.0-3.vtk
ASCII
DATASET UNSTRUCTURED_GRID
FIELD FieldData 1
TIME 1 1 double
0.0
POINTS 389 double
-3.403 0.327 1.604
-3.398 0.034 0.803
-2.981 -0.361 1.858
-2.976 -0.654 1.057
-2.971 0.024 0.066
-2.549 -0.664 0.32
-2.984 0.046 0.042
-2.2 -0.483 -0.862
-2.216 -0.458 -0.889
-3.255 0.893 -0.375
-2.57 0.022 -0.532
-2.781 0.681 -0.857
-2.39 -0.269 -1.153
-2.621 0.454 -1.509
-2.776 1.74 -0.497
-2.407 1.34 -0.951
-2.211 1.177 -1.613
-2.622 1.932 -0.429
-1.982 1.439 -1.492
-1.81 1.654 -1.416
-2.495 2.657 0.67
-1.615 2.438 -0.879
-1.488 3.163 0.22
-3.186 2.284 1.521
-1.863 3.333 1.507
-2.53 2.972 2.328
-3.419 1.801 1.788
-2.717 2.558 2.345
-2.979 2.017 2.644
-3.408 0.559 1.798
-3.107 1.793 3.017
-3.095 0.593 3.027
-3.105 0.348 2.085
-3.1 0.088 1.867
-2.97 0.105 2.152
-2.978 0.383 3.085
-2.865 -0.346 2.113
-2.52 -0.7 2.425
-2.645 0.041 3.387
-2.268 -1.45 1.888
-2.003 -1.142 3.367
-1.726 -1.965 2.777
-1.592 -1.721 1.268
-0.984 -2.263 2.097
-2.203 -1.444 0.759
-0.96 -2.23 0.303
-1.631 -1.926 -0.256
-2.487 -0.785 0.321
-1.943 -1.202 -0.738
-2.131 -0.618 -0.861
-2.114 -0.682 -1.181
-1.927 -1.264 -1.052
-2.312 -0.441 -1.376
-2.121 -0.506 -1.916
-1.682 -1.348 -1.746
-1.897 0.192 -2.527
-1.864 -0.768 -1.888
-1.57 0.147 -2.691
-2.011 1.039 -2.18
-1.198 0.386 -3.152
-1.348 1.496 -2.696
-1.72 1.257 -2.235
-1.479 1.817 -1.75
-1.107 2.057 -2.211
-1.319 2.584 -1.178
-0.816 3.013 -1.267
-0.543 2.537 -2.312
0.466 3.148 -0.891
-0.131 2.956 -2.042
0.328 3.005 -1.907
-0.048 3.337 -3.001
1.057 2.557 -0.305
0.892 2.689 -1.891
1.553 2.026 -1.234
0.737 2.845 0.68
1.539 1.918 0.039
1.22 2.206 1.024
0.406 3.093 0.833
0.756 2.48 1.392
0.466 2.698 1.526
1.112 2.426 2.108
0.748 2.699 2.276
-0.152 3.531 0.588
-0.034 3.266 2.099
-0.572 3.688 1.862
-0.865 3.557 0.357
-1.261 3.713 1.639
-1.359 3.167 3.763
-1.995 3.111 3.523
-1.359 2.784 4.008
-2.096 2.719 3.73
-2.593 2.636 3.121
0.006 2.617 4.044
-1.061 1.806 4.483
-0.466 1.628 4.634
-1.452 1.611 4.604
-1.543 2.398 4.242
-1.868 2.121 4.396
-2.128 2.66 3.763
-1.464 1.095 4.666
-0.48 1.041 4.705
-1.655 0.731 4.634
-0.333 0.517 4.869
-0.555 0.096 4.831
-0.878 -0.357 4.785
-0.383 -0.749 5.065
-0.05 -0.304 5.117
0.164 -1.171 5.088
0.507 -0.734 5.141
1.988 -1.959 2.939
1.037 -1.846 2.131
1.916 -1.481 2.307
1.061 -1.813 0.337
0.064 -2.164 1.215
0.142 -2.466 0.313
-0.782 -1.983 1.207
1.48 -1.078 0.031
1.078 -1.33 0.996
1.331 -0.887 0.812
1.4 -1.205 1.737
1.652 -0.762 1.553
2.335 -0.746 2.002
1.639 -0.712 -0.547
1.697 -0.118 0.66
1.842 0.216 0.134
1.664 -1.393 -0.979
2.201 -0.141 -1.444
2.226 -0.795 -1.858
1.348 -1.888 -1.533
1.923 -1.27 -2.389
0.708 -1.279 -3.267
-0.548 -1.409 -2.576
0.104 -0.811 -3.39
-0.822 -1.287 -2.506
-0.336 -0.591 -3.197
-0.616 -0.466 -3.125
-0.988 -0.705 -2.664
-0.251 0.008 -3.791
0.185 -0.248 -3.95
0.101 0.716 -4.098
0.516 0.418 -4.238
-0.398 1.946 -3.588
0.377 1.347 -4.4
0.117 1.987 -4.134
0.028 3.029 -3.665
0.9 3.106 -3.671
0.989 2.064 -4.14
0.819 3.383 -2.845
1.749 2.404 -3.353
1.668 2.681 -2.526
0.699 3.415 -2.782
1.123 2.627 -2.01
2.133 1.624 -1.992
2.194 2.159 -2.516
2.042 0.907 -1.262
2.428 1.273 -2.257
2.342 0.599 -1.57
1.976 0.918 0.014
1.896 0.717 -0.83
1.788 0.151 -0.734
1.83 1.363 -3.817
1.863 2.209 -3.379
1.103 1.869 -4.167
2.073 0.663 0.819
1.861 -0.287 1.473
2.18 0.376 1.607
2.748 0.111 2.175
1.884 1.434 1.198
2.02 1.032 1.93
2.541 0.959 2.592
1.842 1.579 2.299
1.864 1.938 3.008
2.563 1.318 3.301
1.633 2.033 3.763
2.331 1.413 4.055
1.197 1.843 4.4
1.895 1.223 4.692
0.651 1.408 4.781
1.35 0.788 5.074
0.82 0.891 4.947
0.613 0.111 5.233
1.146 0.023 5.355
1.043 -0.806 5.264
0.77 -1.662 1.233
-3.741 1.924 0.843
-3.197 2.264 0.147
-3.741 1.553 0.199
-3.741 0.809 0.199
-3.741 0.437 0.843
-3.94 1.181 0.843
-2.871 -0.981 1.367
-2.307 -0.067 -2.173
0.367 3.512 -0.086
-0.376 3.711 -0.086
-1.12 3.307 -0.782
-1.198 3.826 3.191
-1.198 4.012 2.497
-1.891 3.826 2.497
-1.891 3.597 3.203
-2.399 3.319 2.497
-2.423 3.039 2.998
-0.505 3.826 2.497
-2.655 2.52 3.176
-1.895 1.207 4.74
-2.589 1.578 4.495
-2.589 0.836 4.495
-3.096 0.86 3.954
-2.342 0.241 4.242
-3.096 1.554 3.954
-2.827 2.227 3.476
0.518 -2.667 4.028
-0.18 -2.439 4.587
-0.18 -2.834 3.995
0.518 -2.834 3.297
-0.18 -2.973 3.297
-0.18 -2.834 2.599
0.518 -2.667 2.566
-0.18 -1.847 4.982
-0.878 -1.524 4.94
-0.878 -2.2 4.615
-0.878 -2.667 4.028
-0.878 -2.834 3.297
-0.878 -2.667 2.566
-1.47 -1.333 4.574
-1.47 -1.994 4.272
-1.47 -2.387 3.66
-1.47 -2.387 2.934
-1.865 -1.498 3.901
0.119 -2.499 2.107
1.109 -2.324 2.763
1.026 -2.497 3.536
0.805 -2.327 4.281
0.496 -1.85 4.839
-1.658 -0.914 4.34
1.164 -2.311 -0.471
0.572 -2.591 -0.103
0.572 -2.758 -0.834
1.164 -2.311 -1.197
0.572 -2.591 -1.565
-0.126 -2.758 -0.136
-0.126 -2.897 -0.834
-0.126 -2.758 -1.532
-0.126 -2.363 -2.124
-0.824 -2.591 -0.103
-0.824 -2.758 -0.834
-0.824 -2.591 -1.565
-0.824 -2.124 -2.152
-1.416 -2.311 -0.471
-1.416 -2.311 -1.197
-1.416 -1.918 -1.809
0.082 -1.898 -2.448
0.772 -2.072 -2.068
-0.957 1.437 -3.446
-0.957 0.685 -3.554
1.907 1.65 0.623
0.587 2.894 3.259
0.933 2.637 3.76
1.525 2.409 3.029
0.933 2.17 4.347
0.235 1.817 4.714
3.668 -0.309 3.703
3.529 0.389 3.703
3.529 0.04 4.307
3.529 -0.658 4.307
3.529 -1.007 3.703
3.529 -0.658 3.099
3.529 0.04 3.099
3.134 0.776 4.4
3.134 0.227 4.876
3.134 -0.493 4.98
3.134 -1.154 4.678
3.134 -1.547 4.066
3.134 -1.547 3.34
3.134 -1.154 2.728
3.134 -0.493 2.426
3.134 0.227 2.53
3.134 0.776 3.006
3.134 0.981 3.703
2.542 1.209 4.434
2.542 0.742 5.021
2.542 0.066 5.346
2.542 -0.684 5.346
2.542 -1.36 5.021
2.542 -1.827 4.434
2.542 -1.994 3.703
2.542 -1.827 2.972
2.542 -1.36 2.385
1.844 0.389 5.388
1.844 -0.309 5.527
1.844 -1.007 5.388
1.844 -1.599 4.993
1.684 -1.962 4.458
1.905 -2.132 3.712
1.375 -1.486 5.015
2.923 0.206 -2.769
2.759 0.566 -2.145
2.759 -0.154 -2.145
2.759 -0.515 -2.769
2.759 -0.154 -3.393
2.759 0.566 -3.393
2.298 -1.093 -2.769
2.298 -0.845 -3.532
2.298 -0.195 -4.004
2.298 0.607 -4.004
1.632 -1.006 -3.843
1.632 -0.368 -4.283
1.632 0.401 -4.377
0.892 -1.006 -3.843
0.892 -0.368 -4.283
1.371 -1.446 -2.902
0.206 3.1655 3.1115
-0.175 3.437 2.964
-0.431 3.3155 3.309
-0.05 3.044 3.4565
-0.687 3.194 3.654
-0.58 2.815 3.881
-0.8205 2.3105 4.182
-1.302 2.102 4.3625
1.355 -2.2295 3.997
1.7945 -2.047 4.085
1.4655 -2.3145 3.624
1.0675 -2.4105 3.1495
1.507 -2.228 3.2375
1.9465 -2.0455 3.3255
1.5485 -2.1415 2.851
0.4445 -2.0805 1.67
0.417 -1.913 1.224
0.0915 -2.3315 1.661
-0.4325 -2.381 2.102
-0.46 -2.2135 1.656
1.3475 -1.671 -2.2285
1.647 -1.358 -2.6455
1.0715 -1.759 -2.485
0.427 -1.985 -2.258
0.7265 -1.672 -2.675
1.0395 -1.3625 -3.0845
0.395 -1.5885 -2.8575
-1.0615 2.6065 4.0615
0.3255 3.376 -2.8915
-1.023 3.1805 3.7085
-0.6335 3.0045 3.7675
-0.9695 2.991 3.822
-2.514 2.4335 3.579
-2.373 2.347 3.982
-2.6 2.287 3.729
-2.741 2.3735 3.326
-2.817 2.2685 2.91
-2.903 2.122 3.06
-1.61 -0.058 4.5135
-1.268 -0.6355 4.5625
-2.0 -0.3365 4.291
-2.4935 0.141 3.8145
-2.1515 -0.4365 3.8635
-1.8305 -1.028 3.8535
-2.324 -0.5505 3.377
0.7695 -1.328 5.0515
1.209 -1.146 5.1395
0.9355 -1.668 4.927
0.6505 -2.0885 4.56
1.09 -1.9065 4.648
0.7995 3.2605 -3.2265
1.4435 -0.9065 5.326
1.6095 -1.2465 5.2015
-0.1045 3.3515 2.5315
0.357 2.9825 2.1875
0.2865 3.068 2.62
-2.2595 2.879 3.364
-2.3445 2.6775 3.4255
-2.508 2.8375 3.0595
-2.1205 2.234 4.189
-0.01 3.183 -3.333
0.464 3.0675 -3.668
-0.8515 3.826 2.844
-0.6865 3.6315 3.0775
-0.34 3.6315 2.7305
-0.2695 3.546 2.298
-2.8425 1.566 4.2245
-2.2285 1.8495 4.4455
-2.481 1.9625 4.2385
-2.7345 1.9505 3.968
0.13875 3.3565 -2.94625
0.84975 3.18325 -3.44875
0.5625 3.31825 -3.059
0.61275 3.241 -3.28125
0.37575 3.29875 -3.11375
0.426 3.2215 -3.336
0.663 3.16375 -3.5035
0.189 3.27925 -3.1685
0.227 3.12525 -3.5005

CELLS 774 3096
3 0 1 2
3 2 1 3
3 1 4 3
3 3 4 5
3 4 6 7
3 7 6 8
3 6 9 10
3 10 9 11
3 10 11 12
3 12 11 13
3 9 14 11
3 11 14 15
3 11 15 13
3 13 15 16
3 14 17 18
3 18 17 19
3 17 20 21
3 21 20 22
3 20 23 24
3 24 23 25
3 23 26 27
3 27 26 28
3 26 29 30
3 30 29 31
3 29 0 32
3 32 0 33
3 32 34 31
3 31 34 35
3 34 33 36
3 36 33 2
3 36 37 35
3 35 37 38
3 37 39 40
3 40 39 41
3 39 42 41
3 41 42 43
3 42 44 45
3 45 44 46
3 44 47 46
3 46 47 48
3 47 5 49
3 49 5 7
3 49 50 48
3 48 50 51
3 50 8 52
3 52 8 12
3 52 53 51
3 51 53 54
3 53 55 56
3 56 55 57
3 55 58 59
3 59 58 60
3 58 16 61
3 61 16 18
3 61 62 60
3 60 62 63
3 62 19 64
3 64 19 21
3 64 65 63
3 63 65 66
3 65 67 68
3 68 67 69
3 68 69 70
3 67 71 72
3 72 71 73
3 71 74 75
3 75 74 76
3 74 77 78
3 78 77 79
3 78 79 80
3 80 79 81
3 77 82 83
3 83 82 84
3 82 85 84
3 84 85 86
3 85 22 86
3 86 22 24
3 87 88 89
3 89 88 90
3 91 25 27
3 92 93 94
3 95 96 97
3 96 98 97
3 95 99 94
3 94 99 100
3 99 101 102
3 102 101 103
3 104 105 103
3 103 105 106
3 105 107 106
3 106 107 108
3 109 110 111
3 112 113 114
3 113 115 114
3 114 115 45
3 112 116 117
3 117 116 118
3 117 118 119
3 119 118 120
3 119 120 111
3 111 120 121
3 116 122 123
3 123 122 124
3 122 125 126
3 126 125 127
3 125 128 127
3 127 128 129
3 130 131 132
3 131 133 134
3 134 133 135
3 133 54 136
3 136 54 56
3 136 57 135
3 135 57 59
3 134 137 132
3 132 137 138
3 137 139 138
3 138 139 140
3 139 141 142
3 142 141 143
3 141 66 144
3 143 145 146
3 145 147 148
3 148 147 149
3 147 150 151
3 151 150 72
3 151 152 149
3 149 152 153
3 152 154 155
3 155 154 156
3 154 73 157
3 157 73 75
3 157 124 158
3 158 124 159
3 158 159 156
3 156 159 126
3 155 160 153
3 153 160 161
3 160 140 162
3 162 140 142
3 162 146 161
3 161 146 148
3 123 163 164
3 164 163 165
3 164 165 121
3 121 165 166
3 163 167 165
3 165 167 168
3 165 168 166
3 166 168 169
3 167 76 170
3 170 76 80
3 170 171 169
3 169 171 172
3 171 173 172
3 172 173 174
3 173 175 174
3 174 175 176
3 175 177 176
3 176 177 178
3 177 100 179
3 179 100 102
3 179 180 178
3 178 180 181
3 180 108 181
3 181 108 182
3 33 0 2
3 7 5 4
3 12 8 10
3 10 8 6
3 18 16 15
3 18 15 14
3 21 19 17
3 24 22 20
3 27 25 23
3 30 28 26
3 32 31 29
3 36 35 34
3 115 43 42
3 115 42 45
3 49 48 47
3 52 51 50
3 56 54 53
3 59 57 55
3 61 60 58
3 64 63 62
3 70 66 68
3 68 66 65
3 72 150 69
3 72 69 67
3 75 73 71
3 80 76 78
3 78 76 74
3 83 79 77
3 95 94 93
3 102 100 99
3 104 103 101
3 182 108 107
3 119 111 110
3 119 110 183
3 119 183 117
3 117 183 112
3 164 121 120
3 164 120 118
3 164 118 123
3 123 118 116
3 159 124 122
3 159 122 126
3 134 132 131
3 136 135 133
3 142 140 139
3 144 143 141
3 148 146 145
3 151 149 147
3 155 153 152
3 158 156 154
3 158 154 157
3 162 161 160
3 170 169 168
3 170 168 167
3 179 178 177
3 184 185 186
3 187 188 189
3 186 187 189
3 184 186 189
3 189 188 29
3 189 29 26
3 189 26 184
3 184 26 23
3 184 23 185
3 185 23 20
3 185 20 17
3 185 17 14
3 185 14 186
3 186 14 9
3 186 9 187
3 187 9 6
3 187 6 1
3 187 1 188
3 188 1 0
3 188 0 29
3 1 6 4
3 5 47 3
3 3 47 44
3 3 44 190
3 3 190 2
3 2 190 37
3 2 37 36
3 37 190 39
3 39 190 44
3 39 44 42
3 8 50 49
3 8 49 7
3 16 58 13
3 13 58 191
3 13 191 52
3 13 52 12
3 52 191 53
3 53 191 55
3 55 191 58
3 19 62 18
3 18 62 61
3 82 77 192
3 82 192 193
3 82 193 85
3 85 193 194
3 85 194 22
3 22 194 21
3 21 194 64
3 64 194 65
3 65 194 193
3 65 193 67
3 67 193 192
3 67 192 71
3 71 192 74
3 74 192 77
3 195 196 197
3 195 197 198
3 198 197 199
3 198 199 200
3 198 200 88
3 198 88 87
3 198 87 195
3 201 84 196
3 196 84 86
3 196 86 197
3 197 86 24
3 197 24 199
3 199 24 25
3 199 25 200
3 96 89 90
3 96 90 98
3 98 91 202
3 202 91 27
3 203 204 205
3 205 204 206
3 205 206 207
3 205 207 101
3 205 101 203
3 203 101 99
3 203 99 95
3 203 95 97
3 208 209 30
3 208 30 206
3 206 30 31
3 206 31 35
3 206 35 38
3 33 34 32
3 210 211 212
3 213 210 212
3 213 212 214
3 213 214 215
3 216 213 215
3 217 218 219
3 211 217 219
3 211 219 220
3 212 211 220
3 212 220 221
3 214 212 221
3 215 214 221
3 215 221 222
3 218 223 224
3 219 218 224
3 220 219 224
3 220 224 225
3 221 220 225
3 221 225 226
3 222 221 226
3 224 223 227
3 225 224 227
3 225 227 41
3 225 41 226
3 226 41 43
3 226 43 222
3 222 228 215
3 215 228 216
3 216 228 110
3 216 110 229
3 216 229 213
3 213 230 210
3 210 230 231
3 210 231 211
3 211 232 217
3 217 232 107
3 217 107 218
3 218 107 105
3 218 105 104
3 218 104 223
3 223 233 227
3 227 40 41
3 234 235 236
3 237 234 236
3 237 236 238
3 236 235 239
3 236 239 240
3 236 240 241
3 238 236 241
3 238 241 242
3 239 243 244
3 240 239 244
3 241 240 244
3 241 244 245
3 242 241 245
3 242 245 246
3 244 243 247
3 244 247 248
3 245 244 248
3 245 248 249
3 246 245 249
3 246 249 133
3 246 133 131
3 246 131 250
3 246 250 242
3 242 251 238
3 238 251 237
3 237 251 128
3 237 128 125
3 237 125 234
3 234 125 116
3 234 116 112
3 234 112 235
3 235 112 114
3 235 114 239
3 239 114 243
3 243 114 45
3 243 45 247
3 247 45 46
3 247 46 248
3 248 46 51
3 248 51 249
3 249 51 54
3 249 54 133
3 51 46 48
3 116 125 122
3 57 136 56
3 60 63 141
3 60 141 252
3 60 252 59
3 59 252 253
3 59 253 137
3 59 137 135
3 135 137 134
3 137 253 139
3 139 253 252
3 139 252 141
3 141 63 66
3 73 154 152
3 73 152 151
3 73 151 72
3 76 167 254
3 76 254 75
3 75 254 157
3 157 254 163
3 157 163 124
3 124 163 123
3 163 254 167
3 255 92 256
3 255 256 257
3 255 257 81
3 81 257 80
3 80 257 170
3 170 257 171
3 171 257 173
3 173 257 256
3 173 256 258
3 173 258 175
3 175 258 177
3 177 258 259
3 177 259 100
3 100 259 94
3 94 259 92
3 92 259 258
3 92 258 256
3 106 108 180
3 106 180 102
3 106 102 103
3 102 180 179
3 260 261 262
3 260 262 263
3 260 263 264
3 260 264 265
3 260 265 266
3 260 266 261
3 262 261 267
3 262 267 268
3 262 268 269
3 263 262 269
3 263 269 270
3 263 270 271
3 264 263 271
3 264 271 272
3 265 264 272
3 265 272 273
3 265 273 274
3 266 265 274
3 266 274 275
3 266 275 276
3 261 266 276
3 261 276 277
3 261 277 267
3 267 277 278
3 267 278 279
3 268 267 279
3 268 279 280
3 269 268 280
3 269 280 281
3 270 269 281
3 270 281 282
3 270 282 283
3 271 270 283
3 271 283 284
3 272 271 284
3 272 284 285
3 273 272 285
3 273 285 286
3 280 279 287
3 280 287 288
3 281 280 288
3 281 288 289
3 282 281 289
3 282 289 290
3 283 282 290
3 283 290 291
3 283 292 284
3 284 109 285
3 285 109 111
3 285 111 286
3 286 111 121
3 286 121 274
3 286 274 273
3 274 121 166
3 274 166 275
3 275 166 169
3 275 169 276
3 276 169 172
3 276 172 277
3 277 172 174
3 277 174 278
3 278 174 176
3 278 176 279
3 279 176 287
3 287 176 178
3 287 178 181
3 287 181 288
3 288 181 182
3 290 293 291
3 294 295 296
3 294 296 297
3 294 297 298
3 294 298 299
3 297 300 301
3 298 297 301
3 298 301 302
3 298 302 303
3 299 298 303
3 302 301 304
3 302 304 305
3 302 305 306
3 303 302 306
3 304 307 308
3 305 304 308
3 305 308 306
3 306 308 140
3 306 140 160
3 306 160 303
3 303 160 299
3 299 160 155
3 299 155 295
3 299 295 294
3 295 155 156
3 295 156 296
3 296 156 126
3 296 126 127
3 296 127 297
3 297 127 300
3 300 127 129
3 300 309 301
3 301 309 304
3 304 130 307
3 307 130 132
3 307 132 138
3 307 138 308
3 308 138 140
3 143 146 142
3 142 146 162
3 149 153 148
3 148 153 161
3 81 310 255
3 311 312 310
3 312 313 310
3 312 314 313
3 310 313 255
3 255 313 92
3 313 314 92
3 315 316 92
3 316 93 92
3 93 317 95
3 317 96 95
3 230 318 231
3 231 318 291
3 291 318 319
3 318 320 319
3 318 230 320
3 319 320 292
3 230 321 320
3 321 322 320
3 321 229 322
3 320 322 292
3 292 322 323
3 322 324 323
3 322 229 324
3 323 324 109
3 109 324 110
3 229 324 110
3 228 325 110
3 110 325 183
3 183 325 326
3 325 327 326
3 325 228 327
3 326 327 113
3 183 326 112
3 326 113 112
3 228 328 327
3 328 329 327
3 328 43 329
3 327 329 113
3 113 329 115
3 329 43 115
3 251 330 128
3 128 330 129
3 129 330 331
3 330 332 331
3 330 251 332
3 331 332 309
3 251 333 332
3 333 334 332
3 333 250 334
3 332 334 309
3 309 334 335
3 334 336 335
3 334 250 336
3 335 336 130
3 130 336 131
3 250 336 131
3 314 312 195
3 96 317 337
3 317 316 337
3 317 93 316
3 337 316 315
3 96 337 89
3 337 315 89
3 43 328 222
3 222 328 228
3 229 321 213
3 213 321 230
3 250 333 242
3 242 333 251
3 291 319 283
3 283 319 292
3 292 323 284
3 284 323 109
3 129 331 300
3 300 331 309
3 309 335 304
3 304 335 130
3 150 338 69
3 314 339 340
3 339 341 340
3 339 87 341
3 340 341 315
3 315 341 89
3 341 87 89
3 202 342 98
3 98 342 343
3 343 342 344
3 342 345 344
3 342 202 345
3 344 345 209
3 202 346 345
3 346 347 345
3 346 28 347
3 345 347 209
3 209 347 30
3 347 28 30
3 207 348 101
3 101 348 104
3 104 348 349
3 348 350 349
3 348 207 350
3 349 350 233
3 207 351 350
3 351 352 350
3 351 38 352
3 350 352 233
3 233 352 353
3 352 354 353
3 352 38 354
3 353 354 40
3 232 355 107
3 107 355 182
3 182 355 356
3 355 357 356
3 355 232 357
3 356 357 293
3 232 358 357
3 358 359 357
3 358 231 359
3 357 359 293
3 293 359 291
3 359 231 291
3 40 354 37
3 354 38 37
3 314 340 92
3 315 340 92
3 87 339 195
3 195 339 314
3 28 346 27
3 202 346 27
3 208 344 209
3 38 351 206
3 206 351 207
3 231 358 211
3 211 358 232
3 104 349 223
3 223 349 233
3 233 353 227
3 227 353 40
3 150 360 147
3 182 361 288
3 288 361 289
3 289 361 362
3 361 356 362
3 361 182 356
3 362 356 293
3 289 362 290
3 362 293 290
3 83 363 364
3 363 365 364
3 363 311 365
3 364 365 81
3 200 366 88
3 88 366 90
3 90 366 367
3 366 368 367
3 366 200 368
3 367 368 91
3 91 368 25
3 200 368 25
3 343 369 98
3 97 369 98
3 70 370 66
3 144 370 66
3 144 371 143
3 371 145 143
3 83 364 79
3 364 81 79
3 195 372 196
3 201 372 196
3 195 373 372
3 373 374 372
3 373 311 374
3 372 374 201
3 201 374 375
3 374 363 375
3 374 311 363
3 375 363 83
3 201 375 84
3 375 83 84
3 90 367 98
3 98 367 91
3 204 376 206
3 376 208 206
3 97 377 203
3 203 377 204
3 204 377 378
3 377 369 378
3 377 97 369
3 378 369 343
3 204 378 376
3 378 379 376
3 378 343 379
3 376 379 208
3 81 365 310
3 311 365 310
3 311 373 312
3 195 373 312
3 70 380 69
3 380 338 69
3 208 379 344
3 343 379 344
3 145 381 147
3 381 360 147
3 360 382 150
3 150 382 338
3 360 383 382
3 383 384 382
3 383 385 384
3 382 384 338
3 360 381 383
3 381 386 383
3 381 145 386
3 383 386 385
3 338 384 380
3 384 387 380
3 384 385 387
3 380 387 70
3 70 387 370
3 387 388 370
3 387 385 388
3 370 388 144
3 385 386 388
3 386 371 388
3 386 145 371
3 388 371 144

CELL_TYPES 774
5
5
5
5
5
5
5
5
5
5
5
5
5
5
5
5
5
5
5
5
5
5
5
5
5
5
5
5
5
5
5
5
5
5
5
5
5
5
5
5
5
5
5
5
5
5
5
5
5
5
5
5
5
5
5
5
5
5
5
5
5
5
5
5
5
5
5
5
5
5
5
5
5
5
5
5
5
5
5
5
5
5
5
5
5
5
5
5
5
5
5
5
5
5
5
5
5
5
5
5
5
5
5
5
5
5
5
5
5
5
5
5
5
5
5
5
5
5
5
5
5
5
5
5
5
5
5
5
5
5
5
5
5
5
5
5
5
5
5
5
5
5
5
5
5
5
5
5
5
5
5
5
5
5
5
5
5
5
5
5
5
5
5
5
5
5
5
5
5
5
5
5
5
5
5
5
5
5
5
5
5
5
5
5
5
5
5
5
5
5
5
5
5
5
5
5
5
5
5
5
5
5
5
5
5
5
5
5
5
5
5
5
5
5
5
5
5
5
5
5
5
5
5
5
5
5
5
5
5
5
5
5
5
5
5
5
5
5
5
5
5
5
5
5
5
5
5
5
5
5
5
5
5
5
5
5
5
5
5
5
5
5
5
5
5
5
5
5
5
5
5
5
5
5
5
5
5
5
5
5
5
5
5
5
5
5
5
5
5
5
5
5
5
5
5
5
5
5
5
5
5
5
5
5
5
5
5
5
5
5
5
5
5
5
5
5
5
5
5
5
5
5
5
5
5
5
5
5
5
5
5
5
5
5
5
5
5
5
5
5
5
5
5
5
5
5
5
5
5
5
5
5
5
5
5
5
5
5
5
5
5
5
5
5
5
5
5
5
5
5
5
5
5
5
5
5
5
5
5
5
5
5
5
5
5
5
5
5
5
5
5
5
5
5
5
5
5
5
5
5
5
5
5
5
5
5
5
5
5
5
5
5
5
5
5
5
5
5
5
5
5
5
5
5
5
5
5
5
5
5
5
5
5
5
5
5
5
5
5
5
5
5
5
5
5
5
5
5
5
5
5
5
5
5
5
5
5
5
5
5
5
5
5
5
5
5
5
5
5
5
5
5
5
5
5
5
5
5
5
5
5
5
5
5
5
5
5
5
5
5
5
5
5
5
5
5
5
5
5
5
5
5
5
5
5
5
5
5
5
5
5
5
5
5
5
5
5
5
5
5
5
5
5
5
5
5
5
5
5
5
5
5
5
5
5
5
5
5
5
5
5
5
5
5
5
5
5
5
5
5
5
5
5
5
5
5
5
5
5
5
5
5
5
5
5
5
5
5
5
5
5
5
5
5
5
5
5
5
5
5
5
5
5
5
5
5
5
5
5
5
5
5
5
5
5
5
5
5
5
5
5
5
5
5
5
5
5
5
5
5
5
5
5
5
5
5
5
5
5
5
5
5
5
5
5
5
5
5
5
5
5
5
5
5
5
5
5
5
5
5
5
5
5
5
5
5
5
5
5
5
5
5
5
5
5
5
5
5
5
5
5
5
5
5
5
5
5
5
5
5
5
5
5
5
5
5
5
5
5
5
5
5
5
5
5
5
5
5
5
5
5
5
5
5
5
5
5
5
5
5
5
5
5
5
5
5
5
5
5
5
5
5
5
5
5
5
5
5
5
5
5
5
5
5
5
5
5
5
5
5
5
5
5
5
5
5
5
5
5
5
5
5
5
5
5
5
5
5
5
5
5
5
5
5
5
5
5
5
5
5
5
5
5
5
5
5
5
5
5
5
5
5
5
5

CELL_DATA 774
SCALARS cell_data_0 double
LOOKUP_TABLE default
1.28603074013e-07
2.29428859231e-06
2.05524579992e-06
2.3036169295e-07
2.92781327409e-06
2.20450073896e-06
3.86600622397e-07
3.0061577095e-06
2.11122586462e-06
1.90477987958e-06
3.24087032599e-06
1.12496963007e-06
1.21973309357e-06
2.20836869815e-06
1.21617152471e-06
8.6952481951e-07
1.17732495685e-05
1.07419102154e-05
2.52558887482e-05
2.53381669417e-05
5.77830225834e-06
3.44073706287e-06
1.00456522894e-06
7.23824689971e-07
2.01245636355e-07
1.84312736135e-07
7.62462007169e-07
5.02951254221e-07
4.177171526e-07
1.80451570179e-07
3.00418142831e-06
3.33185281249e-06
1.09080915195e-05
1.28702115049e-05
5.15000875588e-06
6.7455894687e-06
4.74514472763e-06
1.09850178732e-06
5.67679823181e-06
3.7431447117e-07
6.72504565471e-07
1.22842248105e-06
2.43016251226e-07
1.18268960896e-06
2.97914904399e-07
3.24103410878e-07
1.30941280719e-06
7.38743462259e-07
1.68058772789e-06
3.21790115374e-06
7.98351578763e-06
1.43958397065e-05
2.1012189492e-06
2.71575181723e-06
7.78606367316e-06
8.91475240767e-06
4.11067639643e-06
2.24310247196e-06
5.35074472469e-06
1.27018490518e-05
7.56179471853e-06
4.21430384697e-06
8.65980924719e-06
1.42024070697e-06
6.07897089605e-06
1.12932545702e-05
1.75721343487e-05
1.80406295457e-06
6.8851651415e-08
1.21747750618e-07
2.51659607284e-06
3.06439276092e-05
0.00016802829618
0.000278981946164
0.000264669860699
9.40075686339e-05
1.00017052223e-05
7.5293632148e-05
0.000100320942481
5.07296577995e-06
4.65365286552e-05
5.31127808514e-05
5.24170750154e-05
1.21249282799e-05
1.45728656291e-05
2.5989134182e-06
2.88404167039e-06
1.19847964169e-05
5.8151376694e-05
5.54226887276e-05
3.69392223866e-05
4.83397892315e-07
7.0046800946e-07
7.49312182448e-06
3.49147798683e-06
7.46505547328e-06
3.13468142656e-06
1.9696496321e-06
1.88087749462e-06
1.99225799718e-06
2.94748332004e-06
9.02464931714e-06
8.10025970102e-06
3.21327091033e-06
1.25241605643e-07
3.07116526891e-07
3.34198764557e-06
2.00178299304e-07
9.71968252332e-07
1.82125259257e-06
4.63182413416e-06
4.21086055681e-06
7.01047468238e-06
6.30596030632e-06
8.28830205131e-07
1.53314984483e-07
5.51298002801e-07
5.62149934142e-07
1.13325240803e-05
1.14768485981e-05
2.39014710305e-05
1.08345436657e-05
1.37238771033e-05
1.46812979178e-05
5.3297798436e-06
7.48801236207e-06
3.14050797154e-05
1.47589531466e-05
4.00471009921e-06
6.15700383752e-06
6.77785897215e-06
1.72219305014e-05
3.78334021235e-06
3.79783991137e-06
5.17358021279e-07
4.56971233882e-06
9.48586740071e-06
2.45133162053e-05
1.29918035098e-05
1.18419003778e-05
4.57656474434e-06
3.6233107386e-06
2.54097897338e-06
8.29138073069e-07
1.31488571854e-06
1.83850047286e-06
3.42699439175e-07
6.05487686579e-07
2.15306167228e-06
3.15665194467e-06
7.30404963411e-06
1.11356072291e-05
8.28479932391e-06
7.59840639541e-06
9.39382862032e-06
9.82332345719e-06
5.44407648167e-06
4.60055753908e-06
3.39921134433e-07
4.99057395975e-06
7.35428518644e-06
4.89449771063e-06
2.79223303492e-06
1.48043133973e-06
6.69845375573e-07
1.43773404903e-06
1.12035477331e-07
2.42476185025e-06
1.34205442076e-06
1.60090651226e-06
5.03740764796e-07
7.766387757e-07
1.15795120003e-06
1.56172651438e-05
8.12013897739e-06
1.96587878168e-06
6.23294170525e-07
1.30190711824e-06
3.91097866669e-06
4.9086700242e-06
3.56899381366e-06
1.98074593369e-06
2.94362728727e-07
3.5859581786e-07
1.00848791276e-06
7.51136539653e-06
1.79800417892e-05
9.74668198026e-06
1.53738772939e-05
8.03383118262e-06
1.26699005536e-05
7.17871363526e-06
6.98621166953e-06
2.05829043214e-06
1.01194654022e-05
3.6142076992e-06
4.75457399435e-06
1.09480523331e-06
2.10391852584e-06
3.34810503132e-07
1.15553641155e-06
2.92834299741e-06
1.65608274104e-06
1.41525163551e-06
2.31008639786e-06
4.27595638466e-06
7.90276715083e-06
2.77071550768e-06
6.61289070873e-07
2.67798793103e-06
4.6271974058e-07
9.26330301468e-06
2.94463191755e-06
9.14802978248e-06
1.55064032884e-06
4.69725630438e-07
8.95942833178e-07
1.11630369416e-05
3.22353754594e-06
1.85356636448e-06
3.15111547147e-06
4.01848864992e-07
2.1676646209e-05
2.06751786638e-05
2.25229234101e-05
3.52881696319e-05
6.51769547271e-05
3.90971831086e-05
4.71644152679e-06
5.08469874294e-06
1.59705490492e-05
7.04155035276e-06
8.99833414043e-07
8.06711373816e-07
1.04954134312e-06
5.79153388791e-07
1.0182708875e-06
9.93165920492e-07
1.02213570804e-07
4.84239098995e-08
1.01084310865e-08
3.21363281212e-07
4.31067103586e-08
7.66162723371e-07
6.37196532592e-07
3.08638145556e-07
1.55102518895e-06
4.54620492243e-07
2.14533358153e-06
2.58611952199e-06
1.5352698803e-06
1.71281985442e-07
6.37046064996e-08
4.51516902157e-06
3.3868487142e-06
1.84342923986e-07
9.74996373431e-07
8.31336940144e-07
1.1290469965e-07
1.99720979607e-06
1.38959349279e-06
6.02193985639e-06
3.9294697531e-05
4.2559292506e-05
5.39037723218e-05
5.60429739665e-05
4.9930330766e-05
8.76753943364e-07
6.88105866324e-07
1.62486186397e-07
6.31310150026e-06
1.95712958744e-05
3.3859062277e-05
3.4725073842e-05
3.93745762105e-05
1.50304671788e-05
4.73595818416e-07
1.28388544061e-07
1.25777666441e-06
1.37112956012e-05
5.86818099046e-05
4.11742356374e-05
5.85563734857e-06
4.86672017481e-05
8.14835535707e-05
1.18687936727e-06
2.7586359535e-06
1.29442683616e-06
4.02347756189e-06
1.10552734579e-05
0.000134982749652
1.0110024543e-05
7.16579613067e-07
6.03564166482e-07
5.83343609433e-08
3.43174545187e-07
3.15169988503e-06
4.36511567261e-06
8.6443512303e-07
7.61217870075e-07
1.27845366646e-06
5.08283108509e-06
3.35755768224e-06
3.80512484437e-07
6.98567596911e-07
2.74363951722e-07
1.62479129946e-07
2.39437730915e-07
5.08609101898e-06
7.15223879841e-06
4.92296758212e-06
3.54406677572e-06
2.28823882341e-06
1.94654447034e-05
2.30714330344e-05
5.07128273681e-06
6.32942682202e-07
2.31753246828e-06
3.17388480745e-06
2.36887374093e-06
8.75478618887e-07
2.69401644609e-06
2.88634170141e-06
7.72415620273e-07
5.33619646893e-08
8.81220880752e-07
2.62456360888e-07
1.74171859123e-07
7.43677087865e-07
8.98202457773e-09
2.98165876603e-06
2.7645839622e-07
1.27692103624e-06
2.03470345097e-07
7.15744296225e-06
6.24224940693e-06
8.23725775332e-06
1.68310731003e-06
2.05190736258e-06
4.70654497854e-06
4.14537389649e-06
5.09138970549e-06
2.09244854862e-05
1.38734741746e-05
2.08972545042e-05
1.9101877429e-05
2.28333060994e-05
7.08621332077e-06
1.69319445977e-07
7.00591888565e-06
6.88301764271e-07
5.15208668635e-07
5.86629335337e-07
9.31194092415e-07
1.0316756555e-06
4.93028713421e-06
6.63848776406e-06
1.20529345802e-05
5.96852645953e-07
3.22741505712e-07
6.25153932411e-06
1.35376096115e-05
1.80947549623e-05
4.73773734184e-05
1.30316280569e-06
3.32344526543e-07
3.02090878277e-06
1.4423324253e-06
3.11661747895e-05
2.00518929211e-05
6.86293835448e-06
2.35788761516e-05
2.80409279123e-05
4.38524140176e-06
1.67799150972e-07
2.68530232805e-07
6.11665753515e-07
1.95063089833e-06
8.24680065258e-06
7.5606369371e-06
3.59864843786e-06
2.9877842526e-06
1.23544424199e-06
1.95176025766e-06
8.61859217571e-07
7.54579676056e-07
1.063758607e-06
2.72039256923e-07
2.20451749311e-07
7.30565987253e-07
2.32312525926e-07
1.67707094376e-06
4.53784550865e-07
5.25611618474e-06
1.08915367443e-05
2.31653200217e-05
1.00833774133e-05
1.26685427016e-05
4.31967279029e-06
3.87509180293e-06
5.35242286265e-06
1.11620370425e-06
4.84490065335e-06
1.05257627494e-05
1.20880407758e-05
2.52254805027e-05
5.42087851692e-08
2.18171511865e-05
5.33479687152e-06
1.87855813812e-06
7.89207042142e-06
3.10387008528e-06
7.64057927261e-07
2.16105860994e-06
3.36862645681e-06
7.79695268088e-08
3.15832055356e-05
3.87189794121e-06
2.65554088924e-05
4.29655348164e-07
1.27175450822e-05
7.54336549956e-06
5.74138243566e-06
4.66075034004e-06
2.76441018089e-06
1.78432837281e-06
5.73562433391e-07
8.13722691032e-06
1.59383114212e-05
1.91882802982e-05
4.53005065712e-05
2.15799404485e-05
3.4428373353e-06
4.47429960986e-05
5.61473293695e-05
3.06695455768e-05
1.89207484348e-06
5.58311186415e-07
1.67512330239e-06
2.77220187796e-06
5.05472422162e-07
4.99165662852e-08
9.87838479634e-09
1.38568524331e-06
2.95904779991e-05
4.5325766901e-05
1.28069601793e-05
1.12617225051e-05
2.69520329474e-07
1.12337565626e-06
4.1610265591e-07
1.52941194798e-07
4.37757355801e-08
1.6673600106e-05
1.43492779675e-05
3.38299054842e-05
6.40911618949e-06
9.74374705979e-07
3.47916145863e-06
5.58424823118e-06
6.84863199282e-06
6.74055587805e-07
2.753974582e-05
2.13104197085e-05
4.5405777717e-05
6.56736257558e-06
7.03299383411e-06
1.03804201419e-06
5.77637579551e-07
2.30599051466e-06
6.30165215312e-06
2.37754222215e-06
5.42686100451e-07
8.31731067327e-07
4.81107357181e-07
1.04585491442e-06
1.68911868303e-06
1.13410550924e-06
3.46949616698e-06
1.53945931723e-06
4.01690921657e-06
2.39120387727e-06
2.41659556271e-06
1.12054586589e-05
2.52345329301e-06
1.17569183696e-07
5.40177102573e-07
9.47616614147e-07
1.04730087638e-05
1.18533088845e-05
1.11734637107e-05
2.22178163656e-05
5.02044615524e-06
5.54058913833e-06
6.21046545671e-06
6.95848256356e-06
8.78032239647e-06
3.01627427889e-06
1.64279361555e-06
1.2084264976e-07
1.21481005437e-06
1.52282002455e-06
1.55034389051e-06
1.3545498727e-06
1.1794985473e-06
1.54896491689e-06
3.93569486332e-06
1.80488615177e-06
9.45361917216e-07
2.55747071081e-07
2.31829603514e-06
3.18719052112e-06
3.78731062752e-06
1.97175556054e-06
4.78800941961e-07
4.14758491126e-06
3.0931616026e-06
5.70181208558e-07
6.10307126533e-07
3.44550227327e-07
1.08977745653e-06
2.07321438361e-06
1.72752600432e-06
3.91924679432e-06
3.83437428279e-06
3.61284527963e-06
1.24244558124e-05
6.0615170715e-06
3.77316670941e-06
3.86386900761e-06
3.63372390757e-06
3.74933697928e-06
8.48777068985e-07
1.07903313523e-06
1.24510601216e-06
5.27951867051e-07
3.1457278824e-06
4.06472417425e-06
1.73374502862e-07
1.2877187644e-06
1.30015578587e-06
1.97029032169e-06
3.85415987023e-07
1.18231022434e-05
2.5086849773e-06
6.2345221559e-06
6.25871555684e-06
2.71369090081e-05
4.48660362718e-06
3.23002770907e-07
4.38630950859e-07
7.30099936555e-06
2.87545629769e-05
4.48009062531e-06
5.93766506813e-06
1.12405869752e-05
4.4781033786e-06
3.00284082487e-05
3.08052704428e-06
8.97095426368e-07
8.27996479962e-07
1.52601774693e-06
1.21192937038e-06
1.48935940454e-06
1.34405708005e-06
3.08198758888e-07
4.61072266008e-07
1.57291791178e-07
1.21655216196e-06
2.02562359929e-07
2.09740542189e-06
5.96916084602e-08
5.59148386125e-07
1.07937331077e-07
9.04660988312e-06
4.42899568924e-06
9.56864732817e-07
1.6092512177e-07
4.02806563845e-06
5.39133756654e-07
1.75589959528e-06
2.26188729163e-06
3.78584661862e-06
6.0653261561e-08
4.30060641604e-07
4.61878311453e-07
1.02267701079e-06