# vtk DataFile Version 3.0
File Name: Molecule/sphere_excent/sphere_excent_0-s2.vtk
ASCII
DATASET UNSTRUCTURED_GRID
FIELD FieldData 1
TIME 1 1 double
0.0
POINTS 162 double
0.85065081 -0.52573111 0.0
0.86266848 -0.43388856 -0.25989191
0.96193836 -0.27326653 0.0
0.95105652 -0.16245985 -0.26286556
0.80901699 -0.30901699 -0.5
1.0 0.0 0.0
0.85065081 0.0 -0.52573111
0.95105652 0.16245985 -0.26286556
0.80901699 0.30901699 -0.5
0.69378048 -0.16062203 -0.70204645
0.69378048 0.16062203 -0.70204645
0.52573111 0.0 -0.85065081
0.96193836 0.27326653 0.0
0.86266848 0.43388856 -0.25989191
0.85065081 0.52573111 0.0
0.70204645 0.69378048 -0.16062203
0.68819096 0.58778525 -0.4253254
0.5 0.80901699 -0.30901699
0.58778525 0.4253254 -0.68819096
0.4253254 0.68819096 -0.58778525
0.30901699 0.5 -0.80901699
0.43388856 0.25989191 -0.86266848
0.25989191 0.86266848 -0.43388856
0.16062203 0.70204645 -0.69378048
0.0 0.85065081 -0.52573111
0.70204645 0.69378048 0.16062203
0.52573111 0.85065081 0.0
0.5 0.80901699 0.30901699
0.26286556 0.95105652 -0.16245985
0.26286556 0.95105652 0.16245985
0.0 1.0 0.0
0.0 0.96193836 -0.27326653
0.25989191 0.86266848 0.43388856
0.0 0.96193836 0.27326653
0.0 0.85065081 0.52573111
-0.25989191 0.86266848 0.43388856
-0.26286556 0.95105652 0.16245985
-0.5 0.80901699 0.30901699
-0.26286556 0.95105652 -0.16245985
-0.52573111 0.85065081 0.0
-0.5 0.80901699 -0.30901699
-0.25989191 0.86266848 -0.43388856
-0.70204645 0.69378048 0.16062203
-0.70204645 0.69378048 -0.16062203
-0.85065081 0.52573111 0.0
-0.16062203 0.70204645 0.69378048
-0.4253254 0.68819096 0.58778525
-0.30901699 0.5 0.80901699
-0.68819096 0.58778525 0.4253254
-0.58778525 0.4253254 0.68819096
-0.80901699 0.30901699 0.5
-0.86266848 0.43388856 0.25989191
-0.43388856 0.25989191 0.86266848
-0.69378048 0.16062203 0.70204645
-0.52573111 0.0 0.85065081
0.16062203 0.70204645 0.69378048
0.0 0.52573111 0.85065081
0.30901699 0.5 0.80901699
-0.16245985 0.26286556 0.95105652
0.16245985 0.26286556 0.95105652
0.0 0.0 1.0
-0.27326653 0.0 0.96193836
0.43388856 0.25989191 0.86266848
0.27326653 0.0 0.96193836
0.52573111 0.0 0.85065081
-0.43388856 -0.25989191 0.86266848
-0.16245985 -0.26286556 0.95105652
-0.30901699 -0.5 0.80901699
0.0 -0.52573111 0.85065081
0.16245985 -0.26286556 0.95105652
0.30901699 -0.5 0.80901699
-0.16062203 -0.70204645 0.69378048
0.16062203 -0.70204645 0.69378048
0.0 -0.85065081 0.52573111
0.43388856 -0.25989191 0.86266848
0.69378048 -0.16062203 0.70204645
0.58778525 -0.4253254 0.68819096
0.80901699 -0.30901699 0.5
0.4253254 -0.68819096 0.58778525
0.68819096 -0.58778525 0.4253254
0.5 -0.80901699 0.30901699
0.25989191 -0.86266848 0.43388856
0.86266848 -0.43388856 0.25989191
0.70204645 -0.69378048 0.16062203
0.43388856 -0.25989191 -0.86266848
0.27326653 0.0 -0.96193836
0.16245985 -0.26286556 -0.95105652
0.30901699 -0.5 -0.80901699
0.0 0.0 -1.0
0.0 -0.52573111 -0.85065081
-0.16245985 -0.26286556 -0.95105652
-0.30901699 -0.5 -0.80901699
0.16062203 -0.70204645 -0.69378048
-0.16062203 -0.70204645 -0.69378048
0.0 -0.85065081 -0.52573111
-0.27326653 0.0 -0.96193836
-0.43388856 -0.25989191 -0.86266848
-0.52573111 0.0 -0.85065081
0.95105652 -0.16245985 0.26286556
0.95105652 0.16245985 0.26286556
0.85065081 0.0 0.52573111
0.80901699 0.30901699 0.5
0.86266848 0.43388856 0.25989191
0.69378048 0.16062203 0.70204645
0.68819096 0.58778525 0.4253254
0.4253254 0.68819096 0.58778525
0.58778525 0.4253254 0.68819096
-0.69378048 -0.16062203 -0.70204645
-0.69378048 0.16062203 -0.70204645
-0.85065081 0.0 -0.52573111
-0.80901699 -0.30901699 -0.5
-0.80901699 0.30901699 -0.5
-0.95105652 -0.16245985 -0.26286556
-0.95105652 0.16245985 -0.26286556
-1.0 0.0 0.0
-0.86266848 -0.43388856 -0.25989191
-0.96193836 -0.27326653 0.0
-0.85065081 -0.52573111 0.0
-0.86266848 0.43388856 -0.25989191
-0.96193836 0.27326653 0.0
-0.16062203 0.70204645 -0.69378048
-0.4253254 0.68819096 -0.58778525
-0.30901699 0.5 -0.80901699
-0.58778525 0.4253254 -0.68819096
-0.68819096 0.58778525 -0.4253254
-0.43388856 0.25989191 -0.86266848
-0.70204645 -0.69378048 -0.16062203
-0.70204645 -0.69378048 0.16062203
-0.52573111 -0.85065081 0.0
-0.5 -0.80901699 -0.30901699
-0.5 -0.80901699 0.30901699
-0.26286556 -0.95105652 -0.16245985
-0.26286556 -0.95105652 0.16245985
0.0 -1.0 0.0
-0.25989191 -0.86266848 -0.43388856
0.0 -0.96193836 -0.27326653
-0.25989191 -0.86266848 0.43388856
0.0 -0.96193836 0.27326653
-0.86266848 -0.43388856 0.25989191
-0.68819096 -0.58778525 0.4253254
-0.80901699 -0.30901699 0.5
-0.4253254 -0.68819096 0.58778525
-0.58778525 -0.4253254 0.68819096
-0.69378048 -0.16062203 0.70204645
-0.85065081 0.0 0.52573111
-0.95105652 0.16245985 0.26286556
-0.95105652 -0.16245985 0.26286556
-0.58778525 -0.4253254 -0.68819096
-0.4253254 -0.68819096 -0.58778525
-0.68819096 -0.58778525 -0.4253254
0.25989191 -0.86266848 -0.43388856
0.26286556 -0.95105652 -0.16245985
0.5 -0.80901699 -0.30901699
0.52573111 -0.85065081 0.0
0.26286556 -0.95105652 0.16245985
0.70204645 -0.69378048 -0.16062203
0.58778525 -0.4253254 -0.68819096
0.68819096 -0.58778525 -0.4253254
0.4253254 -0.68819096 -0.58778525
0.16245985 0.26286556 -0.95105652
-0.16245985 0.26286556 -0.95105652
0.0 0.52573111 -0.85065081

CELLS 320 1280
3 0 1 2
3 1 3 2
3 1 4 3
3 2 3 5
3 4 6 3
3 6 7 3
3 6 8 7
3 3 7 5
3 4 9 6
3 9 10 6
3 9 11 10
3 6 10 8
3 5 7 12
3 7 13 12
3 7 8 13
3 12 13 14
3 14 13 15
3 13 16 15
3 13 8 16
3 15 16 17
3 8 18 16
3 18 19 16
3 18 20 19
3 16 19 17
3 8 10 18
3 10 21 18
3 10 11 21
3 18 21 20
3 17 19 22
3 19 23 22
3 19 20 23
3 22 23 24
3 14 15 25
3 15 26 25
3 15 17 26
3 25 26 27
3 17 28 26
3 28 29 26
3 28 30 29
3 26 29 27
3 17 22 28
3 22 31 28
3 22 24 31
3 28 31 30
3 27 29 32
3 29 33 32
3 29 30 33
3 32 33 34
3 34 33 35
3 33 36 35
3 33 30 36
3 35 36 37
3 30 38 36
3 38 39 36
3 38 40 39
3 36 39 37
3 30 31 38
3 31 41 38
3 31 24 41
3 38 41 40
3 37 39 42
3 39 43 42
3 39 40 43
3 42 43 44
3 34 35 45
3 35 46 45
3 35 37 46
3 45 46 47
3 37 48 46
3 48 49 46
3 48 50 49
3 46 49 47
3 37 42 48
3 42 51 48
3 42 44 51
3 48 51 50
3 47 49 52
3 49 53 52
3 49 50 53
3 52 53 54
3 34 45 55
3 45 56 55
3 45 47 56
3 55 56 57
3 47 58 56
3 58 59 56
3 58 60 59
3 56 59 57
3 47 52 58
3 52 61 58
3 52 54 61
3 58 61 60
3 57 59 62
3 59 63 62
3 59 60 63
3 62 63 64
3 54 65 61
3 65 66 61
3 65 67 66
3 61 66 60
3 67 68 66
3 68 69 66
3 68 70 69
3 66 69 60
3 67 71 68
3 71 72 68
3 71 73 72
3 68 72 70
3 60 69 63
3 69 74 63
3 69 70 74
3 63 74 64
3 64 74 75
3 74 76 75
3 74 70 76
3 75 76 77
3 70 78 76
3 78 79 76
3 78 80 79
3 76 79 77
3 70 72 78
3 72 81 78
3 72 73 81
3 78 81 80
3 77 79 82
3 79 83 82
3 79 80 83
3 82 83 0
3 11 84 85
3 84 86 85
3 84 87 86
3 85 86 88
3 87 89 86
3 89 90 86
3 89 91 90
3 86 90 88
3 87 92 89
3 92 93 89
3 92 94 93
3 89 93 91
3 88 90 95
3 90 96 95
3 90 91 96
3 95 96 97
3 0 2 82
3 2 98 82
3 2 5 98
3 82 98 77
3 5 99 98
3 99 100 98
3 99 101 100
3 98 100 77
3 5 12 99
3 12 102 99
3 12 14 102
3 99 102 101
3 77 100 75
3 100 103 75
3 100 101 103
3 75 103 64
3 14 25 102
3 25 104 102
3 25 27 104
3 102 104 101
3 27 105 104
3 105 106 104
3 105 57 106
3 104 106 101
3 27 32 105
3 32 55 105
3 32 34 55
3 105 55 57
3 101 106 103
3 106 62 103
3 106 57 62
3 103 62 64
3 97 107 108
3 107 109 108
3 107 110 109
3 108 109 111
3 110 112 109
3 112 113 109
3 112 114 113
3 109 113 111
3 110 115 112
3 115 116 112
3 115 117 116
3 112 116 114
3 111 113 118
3 113 119 118
3 113 114 119
3 118 119 44
3 24 120 41
3 120 121 41
3 120 122 121
3 41 121 40
3 122 123 121
3 123 124 121
3 123 111 124
3 121 124 40
3 122 125 123
3 125 108 123
3 125 97 108
3 123 108 111
3 40 124 43
3 124 118 43
3 124 111 118
3 43 118 44
3 117 126 127
3 126 128 127
3 126 129 128
3 127 128 130
3 129 131 128
3 131 132 128
3 131 133 132
3 128 132 130
3 129 134 131
3 134 135 131
3 134 94 135
3 131 135 133
3 130 132 136
3 132 137 136
3 132 133 137
3 136 137 73
3 117 127 138
3 127 139 138
3 127 130 139
3 138 139 140
3 130 141 139
3 141 142 139
3 141 67 142
3 139 142 140
3 130 136 141
3 136 71 141
3 136 73 71
3 141 71 67
3 140 142 143
3 142 65 143
3 142 67 65
3 143 65 54
3 54 53 143
3 53 144 143
3 53 50 144
3 143 144 140
3 50 145 144
3 145 146 144
3 145 114 146
3 144 146 140
3 50 51 145
3 51 119 145
3 51 44 119
3 145 119 114
3 140 146 138
3 146 116 138
3 146 114 116
3 138 116 117
3 97 96 107
3 96 147 107
3 96 91 147
3 107 147 110
3 91 148 147
3 148 149 147
3 148 129 149
3 147 149 110
3 91 93 148
3 93 134 148
3 93 94 134
3 148 134 129
3 110 149 115
3 149 126 115
3 149 129 126
3 115 126 117
3 94 150 135
3 150 151 135
3 150 152 151
3 135 151 133
3 152 153 151
3 153 154 151
3 153 80 154
3 151 154 133
3 152 155 153
3 155 83 153
3 155 0 83
3 153 83 80
3 133 154 137
3 154 81 137
3 154 80 81
3 137 81 73
3 11 9 84
3 9 156 84
3 9 4 156
3 84 156 87
3 4 157 156
3 157 158 156
3 157 152 158
3 156 158 87
3 4 1 157
3 1 155 157
3 1 0 155
3 157 155 152
3 87 158 92
3 158 150 92
3 158 152 150
3 92 150 94
3 11 85 21
3 85 159 21
3 85 88 159
3 21 159 20
3 88 160 159
3 160 161 159
3 160 122 161
3 159 161 20
3 88 95 160
3 95 125 160
3 95 97 125
3 160 125 122
3 20 161 23
3 161 120 23
3 161 122 120
3 23 120 24

CELL_TYPES 320
5
5
5
5
5
5
5
5
5
5
5
5
5
5
5
5
5
5
5
5
5
5
5
5
5
5
5
5
5
5
5
5
5
5
5
5
5
5
5
5
5
5
5
5
5
5
5
5
5
5
5
5
5
5
5
5
5
5
5
5
5
5
5
5
5
5
5
5
5
5
5
5
5
5
5
5
5
5
5
5
5
5
5
5
5
5
5
5
5
5
5
5
5
5
5
5
5
5
5
5
5
5
5
5
5
5
5
5
5
5
5
5
5
5
5
5
5
5
5
5
5
5
5
5
5
5
5
5
5
5
5
5
5
5
5
5
5
5
5
5
5
5
5
5
5
5
5
5
5
5
5
5
5
5
5
5
5
5
5
5
5
5
5
5
5
5
5
5
5
5
5
5
5
5
5
5
5
5
5
5
5
5
5
5
5
5
5
5
5
5
5
5
5
5
5
5
5
5
5
5
5
5
5
5
5
5
5
5
5
5
5
5
5
5
5
5
5
5
5
5
5
5
5
5
5
5
5
5
5
5
5
5
5
5
5
5
5
5
5
5
5
5
5
5
5
5
5
5
5
5
5
5
5
5
5
5
5
5
5
5
5
5
5
5
5
5
5
5
5
5
5
5
5
5
5
5
5
5
5
5
5
5
5
5
5
5
5
5
5
5
5
5
5
5
5
5
5
5
5
5
5
5
5
5
5
5
5
5
5
5
5
5
5
5
5
5
5
5
5
5

CELL_DATA 320
SCALARS cell_data_0 double
LOOKUP_TABLE default
6.77962898095e-07
1.88745251244e-06
3.94600246449e-06
4.06605027911e-07
1.93051099187e-05
3.34486365078e-05
3.33720850915e-05
8.61854276348e-06
4.9158642383e-05
6.26879550076e-05
3.52905731897e-05
2.45045999888e-05
1.96105892298e-05
3.41818757732e-05
1.79469501307e-05
1.5202514439e-05
5.82768425439e-06
4.77250885801e-05
4.4141907447e-05
3.3937328639e-05
7.109526039e-05
0.000145709619171
6.63900914288e-05
9.19840267263e-05
2.58918603568e-05
5.08844734152e-05
2.46567045909e-05
3.65387596551e-05
7.59847018979e-05
0.000137694339333
6.91417093982e-05
7.14411740981e-05
4.89040842474e-05
0.000153277602371
5.8348488339e-05
0.000122011842358
0.000222555065628
0.000408204863547
0.000204094551116
0.000149440426682
0.000149464583166
0.000241728607056
7.91829171776e-05
0.000135757172391
0.000115896709098
0.000199821085806
8.43145820624e-05
6.57556848526e-05
3.64926458964e-05
0.000145515369337
8.09655299273e-05
7.2537018743e-05
9.62720992835e-05
0.000190915668339
6.38106792529e-05
9.73813563693e-05
5.53031900475e-05
0.000178656899257
0.000118435945512
9.31827237937e-05
4.26942830662e-05
8.53934105413e-05
4.14319829718e-05
2.96349306215e-05
1.05372903131e-05
2.06511009001e-05
1.10778344604e-05
1.54199556552e-05
1.30173606741e-05
2.5641619633e-05
1.28983358263e-05
1.86387779889e-05
3.61052115379e-05
6.92332460238e-05
2.48967167617e-05
2.12630667158e-05
2.35739315436e-05
1.6335698558e-05
8.70346610801e-06
2.44854446234e-05
1.05681939789e-05
1.86315190466e-05
2.306898398e-05
2.11099718625e-05
3.42026749304e-05
4.80648952449e-05
4.96654754167e-05
3.23558329129e-05
3.06514294929e-05
4.18947318094e-05
3.18459654827e-05
3.99653466151e-05
2.17018679458e-05
2.5946608089e-05
3.02963744949e-05
1.64089663045e-05
2.42925951324e-05
2.4654695431e-05
2.01913380457e-05
2.89902808883e-05
2.40347356367e-05
2.14614399526e-05
2.23874880675e-05
2.61495987756e-05
1.55547984756e-05
1.12258600312e-05
1.04574548166e-05
1.46632165733e-05
2.12148242826e-05
1.84343561704e-05
1.93390987072e-05
1.6897804883e-05
1.39392102537e-05
1.29657646075e-05
1.57546956845e-05
1.17547693227e-05
1.49417121629e-05
1.02435627775e-05
8.22113325786e-06
1.13091204277e-05
1.19910575332e-05
8.10363857517e-06
8.72489505612e-06
6.83864659775e-06
5.6296323023e-06
3.66085541626e-06
4.73205729413e-06
1.19131694974e-06
1.95896590619e-05
2.65337903413e-05
1.82696112424e-05
1.60884438016e-05
3.2008889946e-05
4.10664702677e-05
3.11313015297e-05
1.70058584327e-05
3.61440303912e-05
5.87045376833e-05
2.84896925354e-05
3.75813682704e-05
8.56568127069e-06
5.96731601732e-06
6.72638205132e-06
7.28370104208e-07
1.92307509731e-06
2.77370175816e-06
2.84233429479e-06
4.09093352219e-06
4.71776127617e-06
7.30780028303e-06
8.18743397718e-06
8.46482087514e-06
4.47377355054e-06
2.79617452832e-06
4.41588230512e-06
4.68072917678e-06
1.024172603e-05
1.11270511187e-05
1.05136262313e-05
1.33750190177e-05
3.61899531252e-05
3.50501294055e-05
3.23830431916e-05
5.07740057515e-06
8.7131858068e-06
1.28929805677e-05
1.58634827486e-05
1.07769975931e-05
2.23099089112e-05
2.04399519712e-05
2.17483014991e-05
1.50328757984e-05
1.24442757335e-05
1.55932082397e-05
1.51136793271e-05
1.49585616927e-05
2.71313982141e-06
4.04561667506e-06
6.72339936259e-06
9.60663726129e-06
3.97998059068e-06
1.16322596496e-07
1.48330871762e-06
8.55670824771e-06
8.77922194127e-07
2.10590064218e-06
2.40508954428e-06
3.5011148835e-07
4.75719991248e-06
1.90727192312e-06
2.80246171061e-07
2.30771973096e-06
6.35977246931e-05
7.02951186511e-05
6.80583278788e-06
5.92686123417e-05
9.15752235348e-06
5.36314146659e-06
1.0822050589e-05
1.67420567356e-06
9.9675700414e-06
7.28499693002e-06
5.15108605877e-06
1.01084861014e-05
9.33253301753e-06
1.06500723407e-05
6.00813921447e-06
7.08033985949e-06
1.28181429327e-06
1.00348532065e-07
2.79784739791e-06
1.84507091105e-06
2.30914721568e-06
2.20473936267e-06
2.08759821806e-06
3.55637145495e-06
7.2356548808e-06
7.02683456856e-06
8.52937053227e-06
1.65024225945e-06
4.25451872063e-06
1.84349580399e-06
1.88666050914e-07
3.92119048191e-06
5.30321895381e-07
6.45682639441e-06
9.84301856597e-08
1.77850305e-07
3.42201417023e-06
1.01284903128e-05
1.26437182724e-05
3.18240872434e-06
1.55994895675e-06
9.46401866553e-06
9.74189396348e-06
1.64304080641e-05
9.16127680248e-06
2.1399879674e-05
2.32523478972e-05
2.22058075697e-05
1.9246662954e-05
1.04161318532e-05
9.53472236158e-06
9.80436607223e-06
7.59229355945e-06
6.07815576653e-06
3.73332309015e-07
8.55648265748e-06
1.2744019318e-06
4.99765753933e-06
2.46407355169e-06
9.45312573706e-07
4.54079962849e-06
2.22858885745e-06
1.55176143122e-06
9.37979523734e-07
2.00290796587e-06
1.78358652244e-06
1.02893463732e-06
4.90767775362e-06
1.33533376836e-06
4.06413773259e-07
3.39368135075e-06
3.34387150588e-06
1.47635714533e-05
2.22937775128e-05
2.19033568904e-05
8.6858565192e-06
1.64546486376e-06
7.6419702301e-07
2.64517171218e-06
1.72256968934e-06
3.63956280609e-06
2.70483369857e-06
2.97177281227e-08
1.9506860021e-06
6.28384484324e-07
4.04030158563e-07
2.32849071798e-06
3.76658559943e-07
1.69174099906e-07
7.33998134016e-07
9.94093605309e-07
1.35056850291e-06
1.59022141993e-06
3.3245204665e-06
4.9581598309e-06
6.00594800519e-06
3.96484564603e-05
3.80910005641e-05
2.43994084452e-05
1.13227773015e-05
1.32397644102e-06
7.40293170751e-09
2.38883146678e-07
2.81790483078e-06
2.8719221581e-06
1.49406995339e-06
2.37160564796e-07
1.77460540353e-07
1.28316715224e-05
9.74701127938e-06
3.50615293035e-07
1.02977672584e-05
2.7580500983e-05
2.58831309501e-05
9.48548673317e-06
1.38166694202e-05
1.94902131714e-06
2.36082164011e-09
2.71985095777e-06
5.15104312559e-07
1.95737998976e-06
3.94172955852e-06
4.38355250893e-06
7.05659814294e-06
2.25982054374e-05
2.46732389287e-05
3.59877824561e-06
2.71356494914e-05

