# vtk DataFile Version 3.0
File Name: Molecule/sphere_dip/sphere_dip_0-s4.vtk
ASCII
DATASET UNSTRUCTURED_GRID
FIELD FieldData 1
TIME 1 1 double
0.0
POINTS 59 double
0.850650808352 -0.525731112119 0.0
0.809016994375 -0.309016994375 -0.5
1.0 0.0 0.0
0.809016994375 0.309016994375 -0.5
0.525731112119 0.0 -0.850650808352
0.850650808352 0.525731112119 0.0
0.0 0.850650808352 0.525731112119
-0.309016994375 0.5 0.809016994375
0.309016994375 0.5 0.809016994375
0.0 0.0 1.0
-0.525731112119 0.0 0.850650808352
0.525731112119 0.0 0.850650808352
-0.309016994375 -0.5 0.809016994375
0.309016994375 -0.5 0.809016994375
0.0 -0.850650808352 0.525731112119
0.309016994375 -0.5 -0.809016994375
0.0 0.0 -1.0
-0.309016994375 -0.5 -0.809016994375
0.0 -0.850650808352 -0.525731112119
-0.525731112119 0.0 -0.850650808352
0.809016994375 -0.309016994375 0.5
0.809016994375 0.309016994375 0.5
0.5 0.809016994375 0.309016994375
-0.809016994375 -0.309016994375 -0.5
-0.809016994375 0.309016994375 -0.5
-1.0 0.0 0.0
-0.850650808352 -0.525731112119 0.0
-0.850650808352 0.525731112119 0.0
0.0 0.850650808352 -0.525731112119
-0.309016994375 0.5 -0.809016994375
-0.5 0.809016994375 -0.309016994375
-0.5 -0.809016994375 -0.309016994375
-0.5 -0.809016994375 0.309016994375
0.0 -1.0 0.0
-0.809016994375 -0.309016994375 0.5
-0.809016994375 0.309016994375 0.5
0.5 -0.809016994375 -0.309016994375
0.5 -0.809016994375 0.309016994375
0.309016994375 0.5 -0.809016994375
-0.26286555606 0.951056516295 0.162459848116
-0.5 0.809016994375 0.309016994375
0.0 1.0 0.0
-0.26286555606 0.951056516295 -0.162459848116
-0.525731112119 0.850650808352 0.0
0.587785252292 -0.425325404176 0.688190960236
0.425325404176 -0.688190960236 0.587785252292
0.688190960236 -0.587785252292 0.425325404176
0.5 0.809016994375 -0.309016994375
0.525731112119 0.850650808352 0.0
0.26286555606 0.951056516295 -0.162459848116
0.26286555606 0.951056516295 0.162459848116
0.259891913008 0.862668480416 0.433888564553
0.0 0.961938357784 0.273266528913
0.688190960236 0.587785252292 -0.425325404176
0.587785252292 0.425325404176 -0.688190960236
0.425325404176 0.688190960236 -0.587785252292
-0.425325404176 0.688190960236 0.587785252292
-0.688190960236 0.587785252292 0.425325404176
-0.587785252292 0.425325404176 0.688190960236

CELLS 114 456
3 0 1 2
3 1 3 2
3 1 4 3
3 2 3 5
3 6 7 8
3 7 9 8
3 7 10 9
3 8 9 11
3 10 12 9
3 12 13 9
3 12 14 13
3 9 13 11
3 4 15 16
3 15 17 16
3 15 18 17
3 16 17 19
3 0 2 20
3 2 21 20
3 2 5 21
3 20 21 11
3 5 22 21
3 22 8 21
3 21 8 11
3 19 23 24
3 23 25 24
3 23 26 25
3 24 25 27
3 28 29 30
3 29 24 30
3 29 19 24
3 30 24 27
3 26 31 32
3 31 33 32
3 31 18 33
3 32 33 14
3 26 32 34
3 32 12 34
3 32 14 12
3 34 12 10
3 10 35 34
3 35 25 34
3 35 27 25
3 34 25 26
3 19 17 23
3 17 31 23
3 17 18 31
3 23 31 26
3 18 36 33
3 36 37 33
3 36 0 37
3 33 37 14
3 4 1 15
3 1 36 15
3 1 0 36
3 15 36 18
3 4 16 38
3 16 29 38
3 16 19 29
3 38 29 28
3 6 39 40
3 41 42 39
3 42 43 39
3 42 30 43
3 39 43 40
3 30 42 28
3 28 42 41
3 40 43 27
3 43 30 27
3 13 44 11
3 11 44 20
3 13 45 44
3 45 46 44
3 45 37 46
3 44 46 20
3 37 45 14
3 14 45 13
3 20 46 0
3 46 37 0
3 47 48 5
3 5 48 22
3 47 49 48
3 49 50 48
3 49 41 50
3 48 50 22
3 41 49 28
3 28 49 47
3 22 50 51
3 50 52 51
3 50 41 52
3 51 52 6
3 22 51 8
3 51 6 8
3 6 52 39
3 39 52 41
3 3 53 5
3 5 53 47
3 3 54 53
3 54 55 53
3 54 38 55
3 53 55 47
3 38 54 4
3 4 54 3
3 47 55 28
3 55 38 28
3 40 56 6
3 6 56 7
3 40 57 56
3 57 58 56
3 57 35 58
3 56 58 7
3 35 57 27
3 27 57 40
3 7 58 10
3 58 35 10

CELL_TYPES 114
5
5
5
5
5
5
5
5
5
5
5
5
5
5
5
5
5
5
5
5
5
5
5
5
5
5
5
5
5
5
5
5
5
5
5
5
5
5
5
5
5
5
5
5
5
5
5
5
5
5
5
5
5
5
5
5
5
5
5
5
5
5
5
5
5
5
5
5
5
5
5
5
5
5
5
5
5
5
5
5
5
5
5
5
5
5
5
5
5
5
5
5
5
5
5
5
5
5
5
5
5
5
5
5
5
5
5
5
5
5
5
5
5
5

CELL_DATA 114
SCALARS cell_data_0 double
LOOKUP_TABLE default
0.000337453583189
0.000198026104985
7.09357973206e-05
0.000200842152618
8.22490272015e-05
0.000264434184971
0.000213019955664
0.000224566770488
0.000203931192882
0.000247142075582
9.20808473222e-05
0.00022776866247
0.000219657629801
0.000273888480009
5.69088659699e-05
0.000207543387574
0.000186387312935
5.36490429943e-05
0.000182692148338
1.65853955036e-05
0.00016650298219
1.17534853868e-05
5.36148948628e-05
5.24748696139e-05
1.5220819785e-06
9.77224734103e-05
0.000475107467388
4.23849754714e-05
4.48146547673e-05
8.88398087334e-05
0.000455565109989
0.000208678327403
8.30498418333e-05
1.5402794976e-06
5.19673558233e-05
0.000186358890025
4.73338606126e-06
2.08957571632e-06
9.75809549116e-05
6.61524260547e-05
1.12625402466e-05
0.000442225713103
0.000102379404199
9.40198267632e-05
6.08435695697e-05
3.97761350296e-05
7.54478783442e-05
7.99051572314e-06
2.30910828556e-06
9.59501511269e-05
7.59609782496e-06
7.89228911729e-05
8.14378516856e-05
0.000168886767226
8.3767953564e-06
8.55008020324e-05
0.000198931195594
0.000206757274434
0.00013877595734
4.27407071413e-05
4.11396792385e-06
7.08869656833e-06
1.24066636181e-05
3.97881626213e-05
1.48286633937e-06
7.38851252271e-07
0.000365204366398
0.000273449467734
3.4554237817e-05
7.18680546094e-06
1.54445968186e-05
7.40669775873e-06
8.61585843831e-07
5.11012823694e-06
7.60520038736e-06
2.88441554138e-05
3.91802593841e-05
5.55278569567e-05
9.43370648109e-05
9.52839541852e-05
2.39979293622e-05
2.05949043765e-07
4.56541214326e-06
2.38773402458e-05
1.38817013784e-06
2.80621144906e-05
1.93929607236e-05
1.05343867466e-06
3.72053639937e-06
9.33766988176e-07
1.70431377841e-05
1.51808253964e-05
8.04151529339e-07
3.78825684078e-06
4.45998758636e-05
9.62708047431e-05
1.6552352322e-06
1.84767853313e-06
9.93283304293e-05
2.42518532537e-05
0.000150770251692
2.90480388189e-06
2.65399670115e-05
0.000140443508649
4.20472570333e-05
1.74070526486e-05
2.76033731171e-05
1.8891254372e-06
1.32312415529e-06
8.5922642688e-06
0.000212452301086
0.000322296132557
4.75917598898e-05
3.07418417065e-05

