# vtk DataFile Version 3.0
File Name: Molecule/sphere_dip/sphere_dip_0-s3.vtk
ASCII
DATASET UNSTRUCTURED_GRID
FIELD FieldData 1
TIME 1 1 double
0.0
POINTS 53 double
0.850650808352 -0.525731112119 0.0
0.809016994375 -0.309016994375 -0.5
1.0 0.0 0.0
0.809016994375 0.309016994375 -0.5
0.525731112119 0.0 -0.850650808352
0.850650808352 0.525731112119 0.0
0.5 0.809016994375 -0.309016994375
0.309016994375 0.5 -0.809016994375
0.0 0.850650808352 -0.525731112119
0.0 0.850650808352 0.525731112119
-0.5 0.809016994375 0.309016994375
-0.309016994375 0.5 0.809016994375
-0.809016994375 0.309016994375 0.5
-0.850650808352 0.525731112119 0.0
-0.525731112119 0.0 0.850650808352
0.309016994375 0.5 0.809016994375
0.0 0.0 1.0
0.525731112119 0.0 0.850650808352
-0.309016994375 -0.5 0.809016994375
0.309016994375 -0.5 0.809016994375
0.0 -0.850650808352 0.525731112119
0.309016994375 -0.5 -0.809016994375
0.0 0.0 -1.0
-0.309016994375 -0.5 -0.809016994375
0.0 -0.850650808352 -0.525731112119
-0.525731112119 0.0 -0.850650808352
0.809016994375 -0.309016994375 0.5
0.809016994375 0.309016994375 0.5
0.5 0.809016994375 0.309016994375
-0.809016994375 -0.309016994375 -0.5
-0.809016994375 0.309016994375 -0.5
-1.0 0.0 0.0
-0.850650808352 -0.525731112119 0.0
-0.309016994375 0.5 -0.809016994375
-0.5 0.809016994375 -0.309016994375
-0.5 -0.809016994375 -0.309016994375
-0.5 -0.809016994375 0.309016994375
0.0 -1.0 0.0
-0.809016994375 -0.309016994375 0.5
0.5 -0.809016994375 -0.309016994375
0.5 -0.809016994375 0.309016994375
-0.26286555606 0.951056516295 0.162459848116
0.0 1.0 0.0
-0.26286555606 0.951056516295 -0.162459848116
-0.525731112119 0.850650808352 0.0
0.587785252292 -0.425325404176 0.688190960236
0.425325404176 -0.688190960236 0.587785252292
0.688190960236 -0.587785252292 0.425325404176
0.525731112119 0.850650808352 0.0
0.26286555606 0.951056516295 -0.162459848116
0.26286555606 0.951056516295 0.162459848116
0.259891913008 0.862668480416 0.433888564553
0.0 0.961938357784 0.273266528913

CELLS 102 408
3 0 1 2
3 1 3 2
3 1 4 3
3 2 3 5
3 5 3 6
3 3 7 6
3 3 4 7
3 6 7 8
3 9 10 11
3 10 12 11
3 10 13 12
3 11 12 14
3 9 11 15
3 11 16 15
3 11 14 16
3 15 16 17
3 14 18 16
3 18 19 16
3 18 20 19
3 16 19 17
3 4 21 22
3 21 23 22
3 21 24 23
3 22 23 25
3 0 2 26
3 2 27 26
3 2 5 27
3 26 27 17
3 5 28 27
3 28 15 27
3 27 15 17
3 25 29 30
3 29 31 30
3 29 32 31
3 30 31 13
3 8 33 34
3 33 30 34
3 33 25 30
3 34 30 13
3 32 35 36
3 35 37 36
3 35 24 37
3 36 37 20
3 32 36 38
3 36 18 38
3 36 20 18
3 38 18 14
3 14 12 38
3 12 31 38
3 12 13 31
3 38 31 32
3 25 23 29
3 23 35 29
3 23 24 35
3 29 35 32
3 24 39 37
3 39 40 37
3 39 0 40
3 37 40 20
3 4 1 21
3 1 39 21
3 1 0 39
3 21 39 24
3 4 22 7
3 22 33 7
3 22 25 33
3 7 33 8
3 9 41 10
3 42 43 41
3 43 44 41
3 43 34 44
3 41 44 10
3 34 43 8
3 8 43 42
3 10 44 13
3 44 34 13
3 19 45 17
3 17 45 26
3 19 46 45
3 46 47 45
3 46 40 47
3 45 47 26
3 40 46 20
3 20 46 19
3 26 47 0
3 47 40 0
3 6 48 5
3 5 48 28
3 6 49 48
3 49 50 48
3 49 42 50
3 48 50 28
3 42 49 8
3 8 49 6
3 28 50 51
3 50 52 51
3 50 42 52
3 51 52 9
3 28 51 15
3 51 9 15
3 9 52 41
3 41 52 42

CELL_TYPES 102
5
5
5
5
5
5
5
5
5
5
5
5
5
5
5
5
5
5
5
5
5
5
5
5
5
5
5
5
5
5
5
5
5
5
5
5
5
5
5
5
5
5
5
5
5
5
5
5
5
5
5
5
5
5
5
5
5
5
5
5
5
5
5
5
5
5
5
5
5
5
5
5
5
5
5
5
5
5
5
5
5
5
5
5
5
5
5
5
5
5
5
5
5
5
5
5
5
5
5
5
5
5

CELL_DATA 102
SCALARS cell_data_0 double
LOOKUP_TABLE default
8.39199883166e-05
8.00290056669e-05
8.404304039e-05
9.19930132599e-05
0.000198933081146
0.000738295075957
0.000440014026533
0.000420641602634
0.000106368728171
0.000716966907626
0.000601779238519
0.000251234993242
7.86585309803e-06
0.000260962178988
0.000223784767765
0.000207435351511
0.000222781526713
0.000274975481008
5.60234364749e-05
0.000225791945458
0.000225133536729
0.000256311296215
8.62916869703e-05
0.000204022437035
8.33299047393e-05
1.76090815472e-05
1.16668072816e-06
5.93024580885e-06
8.17938755854e-05
9.73086941229e-05
8.29939923623e-06
1.80562442475e-05
5.83782737997e-05
7.41442672022e-05
8.92430762563e-06
4.13541510353e-05
5.15613648633e-05
9.15108858468e-05
1.11019543887e-05
1.16861294149e-05
9.20659568467e-06
1.57974581353e-06
5.69984561772e-07
4.92649534663e-06
2.42710169481e-05
2.02509201426e-05
6.68511521513e-05
0.000227845520601
0.000441631220875
0.000440652712086
1.69177354843e-06
7.07605706471e-05
8.58996950544e-06
4.27961616302e-05
6.21732977084e-05
1.39516226993e-06
6.16713890088e-06
7.00757227926e-05
1.10400763613e-05
5.14144161549e-05
4.84672903503e-05
7.2607735125e-05
3.56944198317e-05
6.4161747551e-05
0.000183812185683
0.000204567358274
0.000139385820513
3.95238862306e-05
2.52679683859e-05
4.71585165746e-07
4.05819315097e-06
2.47645107522e-05
9.71020850022e-07
3.32139040208e-05
4.87599723682e-05
1.14390533298e-05
2.45155950553e-05
7.28312470029e-06
9.12157664741e-06
2.06114408963e-06
4.98456016736e-07
1.89673074609e-06
8.14422809304e-06
2.34645487801e-05
4.54156525831e-05
4.10650226045e-05
4.76170647689e-05
5.34323276452e-05
2.42829715773e-05
2.91363410679e-07
2.55054548961e-05
2.72091013914e-05
3.319541634e-05
2.93252057274e-05
2.2294449772e-05
9.85081543106e-07
2.14195404788e-05
1.03321397639e-06
6.13281739375e-05
9.08563990323e-06
5.95179524953e-07
2.13393816155e-05

