# vtk DataFile Version 3.0
File Name: Molecule/sphere_dip/sphere_dip_0-s2.vtk
ASCII
DATASET UNSTRUCTURED_GRID
FIELD FieldData 1
TIME 1 1 double
0.0
POINTS 48 double
0.850650808352 -0.525731112119 0.0
0.809016994375 -0.309016994375 -0.5
1.0 0.0 0.0
0.809016994375 0.309016994375 -0.5
0.525731112119 0.0 -0.850650808352
0.850650808352 0.525731112119 0.0
0.5 0.809016994375 -0.309016994375
0.309016994375 0.5 -0.809016994375
0.0 0.850650808352 -0.525731112119
0.5 0.809016994375 0.309016994375
0.0 1.0 0.0
0.0 0.850650808352 0.525731112119
-0.5 0.809016994375 0.309016994375
-0.309016994375 0.5 0.809016994375
-0.809016994375 0.309016994375 0.5
-0.850650808352 0.525731112119 0.0
-0.525731112119 0.0 0.850650808352
0.309016994375 0.5 0.809016994375
0.0 0.0 1.0
0.525731112119 0.0 0.850650808352
-0.309016994375 -0.5 0.809016994375
0.309016994375 -0.5 0.809016994375
0.0 -0.850650808352 0.525731112119
0.309016994375 -0.5 -0.809016994375
0.0 0.0 -1.0
-0.309016994375 -0.5 -0.809016994375
0.0 -0.850650808352 -0.525731112119
-0.525731112119 0.0 -0.850650808352
0.809016994375 -0.309016994375 0.5
0.809016994375 0.309016994375 0.5
-0.809016994375 -0.309016994375 -0.5
-0.809016994375 0.309016994375 -0.5
-1.0 0.0 0.0
-0.850650808352 -0.525731112119 0.0
-0.309016994375 0.5 -0.809016994375
-0.5 0.809016994375 -0.309016994375
-0.5 -0.809016994375 -0.309016994375
-0.5 -0.809016994375 0.309016994375
0.0 -1.0 0.0
-0.809016994375 -0.309016994375 0.5
0.5 -0.809016994375 -0.309016994375
0.5 -0.809016994375 0.309016994375
-0.26286555606 0.951056516295 0.162459848116
-0.26286555606 0.951056516295 -0.162459848116
-0.525731112119 0.850650808352 0.0
0.587785252292 -0.425325404176 0.688190960236
0.425325404176 -0.688190960236 0.587785252292
0.688190960236 -0.587785252292 0.425325404176

CELLS 92 368
3 0 1 2
3 1 3 2
3 1 4 3
3 2 3 5
3 5 3 6
3 3 7 6
3 3 4 7
3 6 7 8
3 5 6 9
3 6 10 9
3 6 8 10
3 9 10 11
3 11 12 13
3 12 14 13
3 12 15 14
3 13 14 16
3 11 13 17
3 13 18 17
3 13 16 18
3 17 18 19
3 16 20 18
3 20 21 18
3 20 22 21
3 18 21 19
3 4 23 24
3 23 25 24
3 23 26 25
3 24 25 27
3 0 2 28
3 2 29 28
3 2 5 29
3 28 29 19
3 5 9 29
3 9 17 29
3 9 11 17
3 29 17 19
3 27 30 31
3 30 32 31
3 30 33 32
3 31 32 15
3 8 34 35
3 34 31 35
3 34 27 31
3 35 31 15
3 33 36 37
3 36 38 37
3 36 26 38
3 37 38 22
3 33 37 39
3 37 20 39
3 37 22 20
3 39 20 16
3 16 14 39
3 14 32 39
3 14 15 32
3 39 32 33
3 27 25 30
3 25 36 30
3 25 26 36
3 30 36 33
3 26 40 38
3 40 41 38
3 40 0 41
3 38 41 22
3 4 1 23
3 1 40 23
3 1 0 40
3 23 40 26
3 4 24 7
3 24 34 7
3 24 27 34
3 7 34 8
3 10 42 11
3 11 42 12
3 10 43 42
3 43 44 42
3 43 35 44
3 42 44 12
3 35 43 8
3 8 43 10
3 12 44 15
3 44 35 15
3 21 45 19
3 19 45 28
3 21 46 45
3 46 47 45
3 46 41 47
3 45 47 28
3 41 46 22
3 22 46 21
3 28 47 0
3 47 41 0

CELL_TYPES 92
5
5
5
5
5
5
5
5
5
5
5
5
5
5
5
5
5
5
5
5
5
5
5
5
5
5
5
5
5
5
5
5
5
5
5
5
5
5
5
5
5
5
5
5
5
5
5
5
5
5
5
5
5
5
5
5
5
5
5
5
5
5
5
5
5
5
5
5
5
5
5
5
5
5
5
5
5
5
5
5
5
5
5
5
5
5
5
5
5
5
5
5

CELL_DATA 92
SCALARS cell_data_0 double
LOOKUP_TABLE default
8.68594512313e-05
7.49815337127e-05
7.66978454085e-06
0.000104061513148
8.70492095091e-06
1.6821533954e-05
1.16467109208e-05
5.22290864932e-06
8.61999115801e-05
0.000682986403096
0.000374440364099
0.000599341081998
0.000119070434214
0.000130467875601
9.04265240862e-05
6.36219756561e-05
1.00633742121e-05
1.43093573935e-05
9.18169837054e-05
3.82140463155e-05
9.16880216928e-05
9.07984986679e-05
6.02209621931e-05
5.52538557113e-05
0.000224466893947
0.000262569987294
8.03181537611e-05
0.000210857070889
0.000210522101144
0.000180248451378
8.20692215933e-05
6.92909733911e-05
7.25194960607e-05
8.67162666962e-05
0.000104984451917
7.41373259314e-06
2.116596881e-05
5.10279470826e-05
6.16429939458e-06
7.44077035197e-05
1.39834228275e-06
9.48514476109e-05
6.66589705825e-05
0.000167631060385
2.87857356522e-07
9.1649367707e-06
1.35718477204e-05
2.97152665922e-06
9.49141944075e-06
3.61540960008e-06
2.22851481287e-06
7.04371337468e-05
5.6845817714e-05
9.76130159929e-06
9.64397532184e-06
2.16633775304e-06
9.15865070215e-05
5.41024879323e-05
3.12011465366e-05
1.10800483369e-05
1.47721360127e-05
2.53351888874e-05
2.38358354019e-05
6.51325247376e-06
6.02456588381e-05
5.19261724755e-05
3.7092132458e-06
3.15023516984e-05
0.000208646408874
0.0002734175655
0.00020485918123
5.99115017773e-05
0.000224105342514
4.40550464977e-05
0.000133160737753
7.57422378917e-07
2.36775651214e-05
2.72068484531e-05
2.84694914894e-05
0.000204772034617
4.68310106196e-05
4.0863894924e-05
2.36780739929e-05
5.01644642966e-05
8.88661841035e-06
2.06468323503e-06
3.55681021758e-06
2.44851294611e-05
4.01580009001e-06
2.28075264676e-05
4.90760975835e-05
1.19432087738e-05

