# vtk DataFile Version 3.0
File Name: Molecule/sphere_dip/sphere_dip_0-s5.vtk
ASCII
DATASET UNSTRUCTURED_GRID
FIELD FieldData 1
TIME 1 1 double
0.0
POINTS 66 double
0.850650808352 -0.525731112119 0.0
0.809016994375 -0.309016994375 -0.5
1.0 0.0 0.0
0.809016994375 0.309016994375 -0.5
0.525731112119 0.0 -0.850650808352
0.850650808352 0.525731112119 0.0
0.0 0.850650808352 0.525731112119
-0.309016994375 0.5 0.809016994375
0.309016994375 0.5 0.809016994375
0.0 0.0 1.0
-0.525731112119 0.0 0.850650808352
0.525731112119 0.0 0.850650808352
-0.309016994375 -0.5 0.809016994375
0.309016994375 -0.5 0.809016994375
0.0 -0.850650808352 0.525731112119
0.309016994375 -0.5 -0.809016994375
0.0 0.0 -1.0
-0.309016994375 -0.5 -0.809016994375
0.0 -0.850650808352 -0.525731112119
-0.525731112119 0.0 -0.850650808352
0.809016994375 -0.309016994375 0.5
0.809016994375 0.309016994375 0.5
0.5 0.809016994375 0.309016994375
-0.809016994375 -0.309016994375 -0.5
-0.809016994375 0.309016994375 -0.5
-0.850650808352 -0.525731112119 0.0
-1.0 0.0 0.0
0.0 0.850650808352 -0.525731112119
-0.309016994375 0.5 -0.809016994375
-0.5 0.809016994375 -0.309016994375
-0.5 -0.809016994375 -0.309016994375
-0.5 -0.809016994375 0.309016994375
0.0 -1.0 0.0
-0.809016994375 -0.309016994375 0.5
-0.809016994375 0.309016994375 0.5
0.5 -0.809016994375 -0.309016994375
0.5 -0.809016994375 0.309016994375
0.309016994375 0.5 -0.809016994375
-0.26286555606 0.951056516295 0.162459848116
-0.5 0.809016994375 0.309016994375
0.0 1.0 0.0
-0.26286555606 0.951056516295 -0.162459848116
-0.525731112119 0.850650808352 0.0
-0.850650808352 0.525731112119 0.0
0.587785252292 -0.425325404176 0.688190960236
0.425325404176 -0.688190960236 0.587785252292
0.688190960236 -0.587785252292 0.425325404176
0.5 0.809016994375 -0.309016994375
0.525731112119 0.850650808352 0.0
0.26286555606 0.951056516295 -0.162459848116
0.26286555606 0.951056516295 0.162459848116
0.259891913008 0.862668480416 0.433888564553
0.0 0.961938357784 0.273266528913
0.688190960236 0.587785252292 -0.425325404176
0.587785252292 0.425325404176 -0.688190960236
0.425325404176 0.688190960236 -0.587785252292
-0.425325404176 0.688190960236 0.587785252292
-0.688190960236 0.587785252292 0.425325404176
-0.587785252292 0.425325404176 0.688190960236
-0.951056516295 0.162459848116 -0.26286555606
-0.862668480416 0.433888564553 -0.259891913008
-0.961938357784 0.273266528913 0.0
-0.688190960236 0.587785252292 -0.425325404176
-0.702046444776 0.69378047756 -0.16062203564
-0.951056516295 0.162459848116 0.26286555606
-0.862668480416 0.433888564553 0.259891913008

CELLS 128 512
3 0 1 2
3 1 3 2
3 1 4 3
3 2 3 5
3 6 7 8
3 7 9 8
3 7 10 9
3 8 9 11
3 10 12 9
3 12 13 9
3 12 14 13
3 9 13 11
3 4 15 16
3 15 17 16
3 15 18 17
3 16 17 19
3 0 2 20
3 2 21 20
3 2 5 21
3 20 21 11
3 5 22 21
3 22 8 21
3 21 8 11
3 19 23 24
3 23 25 26
3 27 28 29
3 28 19 24
3 25 30 31
3 30 32 31
3 30 18 32
3 31 32 14
3 25 31 33
3 31 12 33
3 31 14 12
3 33 12 10
3 10 34 33
3 33 26 25
3 19 17 23
3 17 30 23
3 17 18 30
3 23 30 25
3 18 35 32
3 35 36 32
3 35 0 36
3 32 36 14
3 4 1 15
3 1 35 15
3 1 0 35
3 15 35 18
3 4 16 37
3 16 28 37
3 16 19 28
3 37 28 27
3 6 38 39
3 40 41 38
3 41 42 38
3 41 29 42
3 38 42 39
3 29 41 27
3 27 41 40
3 39 42 43
3 13 44 11
3 11 44 20
3 13 45 44
3 45 46 44
3 45 36 46
3 44 46 20
3 36 45 14
3 14 45 13
3 20 46 0
3 46 36 0
3 47 48 5
3 5 48 22
3 47 49 48
3 49 50 48
3 49 40 50
3 48 50 22
3 40 49 27
3 27 49 47
3 22 50 51
3 50 52 51
3 50 40 52
3 51 52 6
3 22 51 8
3 51 6 8
3 6 52 38
3 38 52 40
3 3 53 5
3 5 53 47
3 3 54 53
3 54 55 53
3 54 37 55
3 53 55 47
3 37 54 4
3 4 54 3
3 47 55 27
3 55 37 27
3 39 56 6
3 6 56 7
3 39 57 56
3 57 58 56
3 57 34 58
3 56 58 7
3 43 57 39
3 7 58 10
3 58 34 10
3 26 59 23
3 23 59 24
3 24 59 60
3 59 61 60
3 59 26 61
3 60 61 43
3 24 62 28
3 28 62 29
3 29 62 63
3 62 60 63
3 62 24 60
3 63 60 43
3 34 64 33
3 64 26 33
3 34 65 64
3 65 61 64
3 65 43 61
3 64 61 26
3 29 63 42
3 42 63 43
3 43 65 57
3 57 65 34

CELL_TYPES 128
5
5
5
5
5
5
5
5
5
5
5
5
5
5
5
5
5
5
5
5
5
5
5
5
5
5
5
5
5
5
5
5
5
5
5
5
5
5
5
5
5
5
5
5
5
5
5
5
5
5
5
5
5
5
5
5
5
5
5
5
5
5
5
5
5
5
5
5
5
5
5
5
5
5
5
5
5
5
5
5
5
5
5
5
5
5
5
5
5
5
5
5
5
5
5
5
5
5
5
5
5
5
5
5
5
5
5
5
5
5
5
5
5
5
5
5
5
5
5
5
5
5
5
5
5
5
5
5

CELL_DATA 128
SCALARS cell_data_0 double
LOOKUP_TABLE default
0.000337557368135
0.000198160365562
7.08973807242e-05
0.000201123103167
8.24059842569e-05
0.000265772696801
0.000213447371264
0.000226198649599
0.000203573207514
0.000250423422786
9.38386115828e-05
0.000231617017963
0.000226243557941
0.000239459072879
8.99831424544e-05
0.000208131001605
0.00021897031438
7.43081823724e-05
0.000178638400278
4.15588313577e-06
0.000162142849792
7.91855626875e-06
5.70033064762e-05
4.65858997392e-05
0.000101467117346
4.44817393556e-05
9.51739811341e-05
0.000193296498173
8.1529711418e-05
8.21012198782e-05
1.40310667194e-05
5.95584640431e-05
6.79065621232e-05
5.12645422113e-05
9.6344883539e-05
6.80958133903e-05
7.51979273157e-05
8.9384054702e-05
1.49527377845e-05
1.80038020828e-05
0.000208213645831
1.97473050435e-06
7.99310020617e-05
0.000189698885636
5.67992486298e-05
1.37957739066e-05
1.104763667e-05
0.000171021980174
4.4792383287e-05
8.42328757265e-05
0.000201891270687
0.000214372567083
0.00013951727199
4.28820717057e-05
4.66306405066e-06
7.74350144956e-06
1.29877512922e-05
3.99761947168e-05
7.44747669977e-07
1.81962023394e-06
0.00036572430229
3.52809032768e-05
1.3721307625e-06
1.57817494857e-05
7.42602822065e-06
2.00005232939e-05
1.19671231384e-06
1.98999572824e-05
2.94377192387e-05
5.12450554417e-05
0.00010442988993
9.44905571813e-05
9.52449968289e-05
2.40034882118e-05
2.04535481267e-07
4.57333982763e-06
2.38723469389e-05
1.36814553388e-06
2.80509577596e-05
1.93587151447e-05
1.03696269581e-06
3.77232031406e-06
9.40928718523e-07
1.7084956772e-05
1.51520962259e-05
6.21858023013e-07
3.62094169896e-06
4.47091280244e-05
9.64429324383e-05
1.68304237284e-06
1.87453423033e-06
9.91875837441e-05
2.42202812435e-05
0.000150706003175
2.90871843546e-06
2.64676462673e-05
0.000140209184477
4.26148554595e-05
1.74895414444e-05
2.85746558011e-05
1.67074375995e-06
1.42752864357e-06
8.62549914445e-06
0.000324808988381
4.78330641917e-05
3.0966109739e-05
3.49524050754e-06
1.85610030447e-06
1.72725919631e-06
3.23538671659e-07
2.11264287568e-06
0.000110321337318
2.57048749809e-05
1.75203828986e-05
3.39472605492e-06
7.19468770866e-07
1.18544565317e-06
0.00011155668504
1.48618960247e-05
5.50138253965e-06
6.1659937107e-07
4.15930666814e-07
0.000109807031332
2.14551189439e-06
1.06436938687e-05
0.000132529539794
0.000114281905629
1.34568892453e-06

