# vtk DataFile Version 3.0
File Name: Molecule/sphere_dip_C5/sphere_dip_C5_0-s4.vtk
ASCII
DATASET UNSTRUCTURED_GRID
FIELD FieldData 1
TIME 1 1 double
0.0
POINTS 83 double
0.525731112119 0.0 0.850650808352
0.309016994375 -0.5 0.809016994375
0.809016994375 -0.309016994375 0.5
0.5 -0.809016994375 0.309016994375
0.0 -0.850650808352 0.525731112119
0.850650808352 -0.525731112119 0.0
0.525731112119 0.0 -0.850650808352
0.309016994375 -0.5 -0.809016994375
0.0 0.0 -1.0
-0.309016994375 -0.5 -0.809016994375
-0.525731112119 0.0 -0.850650808352
1.0 0.0 0.0
0.809016994375 0.309016994375 0.5
0.850650808352 0.525731112119 0.0
0.5 0.809016994375 0.309016994375
0.309016994375 0.5 0.809016994375
0.0 0.850650808352 0.525731112119
-0.809016994375 -0.309016994375 -0.5
-0.809016994375 0.309016994375 -0.5
-1.0 0.0 0.0
-0.850650808352 -0.525731112119 0.0
-0.850650808352 0.525731112119 0.0
0.0 0.850650808352 -0.525731112119
-0.309016994375 0.5 -0.809016994375
-0.5 0.809016994375 -0.309016994375
-0.5 -0.809016994375 -0.309016994375
-0.5 -0.809016994375 0.309016994375
0.0 -1.0 0.0
-0.809016994375 -0.309016994375 0.5
-0.309016994375 -0.5 0.809016994375
-0.525731112119 0.0 0.850650808352
-0.809016994375 0.309016994375 0.5
0.309016994375 0.5 -0.809016994375
0.5 0.809016994375 -0.309016994375
0.525731112119 0.850650808352 0.0
0.26286555606 0.951056516295 -0.162459848116
0.26286555606 0.951056516295 0.162459848116
0.0 1.0 0.0
-0.26286555606 0.951056516295 0.162459848116
-0.5 0.809016994375 0.309016994375
-0.26286555606 0.951056516295 -0.162459848116
-0.525731112119 0.850650808352 0.0
-0.702046444776 0.69378047756 0.16062203564
-0.702046444776 0.69378047756 -0.16062203564
-0.425325404176 0.688190960236 0.587785252292
-0.309016994375 0.5 0.809016994375
-0.688190960236 0.587785252292 0.425325404176
-0.587785252292 0.425325404176 0.688190960236
-0.862668480416 0.433888564553 0.259891913008
0.862668480416 -0.433888564553 -0.259891913008
0.961938357784 -0.273266528913 0.0
0.951056516295 -0.162459848116 -0.26286555606
0.809016994375 -0.309016994375 -0.5
0.850650808352 0.0 -0.525731112119
0.951056516295 0.162459848116 -0.26286555606
0.809016994375 0.309016994375 -0.5
0.69378047756 -0.16062203564 -0.702046444776
0.69378047756 0.16062203564 -0.702046444776
0.688190960236 0.587785252292 -0.425325404176
0.587785252292 0.425325404176 -0.688190960236
0.425325404176 0.688190960236 -0.587785252292
0.433888564553 0.259891913008 -0.862668480416
0.5 -0.809016994375 -0.309016994375
0.702046444776 -0.69378047756 -0.16062203564
0.688190960236 -0.587785252292 -0.425325404176
0.0 0.525731112119 0.850650808352
-0.162459848116 0.26286555606 0.951056516295
0.162459848116 0.26286555606 0.951056516295
0.0 0.0 1.0
-0.162459848116 -0.26286555606 0.951056516295
0.0 -0.525731112119 0.850650808352
0.162459848116 -0.26286555606 0.951056516295
0.0 -0.525731112119 -0.850650808352
0.16062203564 -0.702046444776 -0.69378047756
-0.16062203564 -0.702046444776 -0.69378047756
0.0 -0.850650808352 -0.525731112119
-0.26286555606 -0.951056516295 -0.162459848116
-0.259891913008 -0.862668480416 -0.433888564553
0.0 -0.961938357784 -0.273266528913
-0.425325404176 -0.688190960236 -0.587785252292
0.259891913008 -0.862668480416 -0.433888564553
0.26286555606 -0.951056516295 -0.162459848116
0.425325404176 -0.688190960236 -0.587785252292

CELLS 162 648
3 0 1 2
3 1 3 2
3 1 4 3
3 2 3 5
3 6 7 8
3 8 9 10
3 11 12 2
3 11 13 12
3 2 12 0
3 13 14 12
3 14 15 12
3 14 16 15
3 12 15 0
3 10 17 18
3 17 19 18
3 17 20 19
3 18 19 21
3 22 23 24
3 23 18 24
3 23 10 18
3 20 25 26
3 26 27 4
3 20 26 28
3 26 29 28
3 26 4 29
3 28 29 30
3 30 31 28
3 31 19 28
3 28 19 20
3 10 9 17
3 17 25 20
3 27 3 4
3 8 23 32
3 8 10 23
3 32 23 22
3 33 34 13
3 13 34 14
3 33 35 34
3 35 36 34
3 35 37 36
3 34 36 14
3 37 35 22
3 22 35 33
3 14 36 16
3 36 37 16
3 37 38 16
3 16 38 39
3 37 40 38
3 40 41 38
3 40 24 41
3 38 41 39
3 24 40 22
3 22 40 37
3 39 41 42
3 41 43 42
3 41 24 43
3 42 43 21
3 39 44 16
3 16 44 45
3 39 46 44
3 46 47 44
3 46 31 47
3 44 47 45
3 39 42 46
3 42 48 46
3 42 21 48
3 46 48 31
3 45 47 30
3 47 31 30
3 21 43 18
3 18 43 24
3 31 48 19
3 48 21 19
3 5 49 50
3 49 51 50
3 49 52 51
3 50 51 11
3 52 53 51
3 53 54 51
3 53 55 54
3 51 54 11
3 52 56 53
3 56 57 53
3 56 6 57
3 53 57 55
3 11 54 13
3 54 55 13
3 55 58 13
3 13 58 33
3 55 59 58
3 59 60 58
3 59 32 60
3 58 60 33
3 55 57 59
3 57 61 59
3 57 6 61
3 59 61 32
3 33 60 22
3 60 32 22
3 5 50 2
3 50 11 2
3 62 63 3
3 63 5 3
3 6 56 7
3 56 52 7
3 52 64 7
3 52 49 64
3 49 63 64
3 49 5 63
3 64 63 62
3 32 61 8
3 8 61 6
3 45 65 16
3 16 65 15
3 45 66 65
3 66 67 65
3 66 68 67
3 65 67 15
3 68 66 30
3 30 66 45
3 15 67 0
3 67 68 0
3 29 69 30
3 30 69 68
3 29 70 69
3 70 71 69
3 70 1 71
3 69 71 68
3 1 70 4
3 4 70 29
3 68 71 0
3 71 1 0
3 7 72 8
3 72 9 8
3 7 73 72
3 73 74 72
3 73 75 74
3 72 74 9
3 25 76 26
3 76 27 26
3 25 77 76
3 77 78 76
3 77 75 78
3 76 78 27
3 9 79 17
3 79 25 17
3 9 74 79
3 74 77 79
3 74 75 77
3 79 77 25
3 75 80 78
3 80 81 78
3 80 62 81
3 78 81 27
3 27 81 3
3 3 81 62
3 7 82 73
3 82 80 73
3 82 62 80
3 73 80 75
3 62 82 64
3 64 82 7

CELL_TYPES 162
5
5
5
5
5
5
5
5
5
5
5
5
5
5
5
5
5
5
5
5
5
5
5
5
5
5
5
5
5
5
5
5
5
5
5
5
5
5
5
5
5
5
5
5
5
5
5
5
5
5
5
5
5
5
5
5
5
5
5
5
5
5
5
5
5
5
5
5
5
5
5
5
5
5
5
5
5
5
5
5
5
5
5
5
5
5
5
5
5
5
5
5
5
5
5
5
5
5
5
5
5
5
5
5
5
5
5
5
5
5
5
5
5
5
5
5
5
5
5
5
5
5
5
5
5
5
5
5
5
5
5
5
5
5
5
5
5
5
5
5
5
5
5
5
5
5
5
5
5
5
5
5
5
5
5
5
5
5
5
5
5
5

CELL_DATA 162
SCALARS cell_data_0 double
LOOKUP_TABLE default
0.00019053551405
0.000117391384174
4.40737758513e-05
1.77543750508e-05
0.000480677694695
0.000313008850238
0.000111616888808
7.30846402891e-05
0.000152228595553
9.92640002277e-05
0.000203533597396
9.70501238019e-05
0.000224848402224
9.22349037008e-06
3.89101955496e-06
2.80149262319e-05
2.27092505677e-05
9.22976257753e-05
3.94046121459e-05
2.76464030487e-05
2.83407887882e-05
0.000115809804254
7.07408861838e-05
0.000169825929405
4.20359219274e-05
0.000217975031633
0.000167675351415
0.000115006313449
6.42000209819e-05
6.08848405642e-05
1.36165419354e-05
0.000172561630446
0.000419852557082
0.000245399588197
0.000164589801477
6.64402934213e-05
2.15648750487e-05
5.20916865848e-05
1.41881704347e-05
9.45051830606e-06
7.10164744984e-06
2.22026636764e-05
0.000123694592977
5.08297514886e-05
6.43960910741e-05
0.000117546724484
0.00011341168332
4.85409399813e-05
8.50645425503e-05
3.57579898028e-05
6.21553952173e-05
5.61008914171e-05
4.10844199756e-05
1.51352867525e-05
1.62066182755e-05
1.91629772318e-05
3.42179694323e-06
2.8435687379e-06
4.37427497041e-05
2.29523644539e-05
3.90455317653e-05
3.70286285661e-05
4.82543114183e-05
9.15095486417e-06
1.35475535721e-05
9.0880139096e-06
2.21375041203e-05
0.00012165339918
9.468553018e-05
6.28350847757e-06
6.85005180936e-06
3.85473759563e-05
2.6736166686e-05
1.31721012882e-06
5.46705340409e-06
1.29868116392e-05
3.36840148322e-06
1.3622794935e-05
5.25728216974e-06
9.11527672938e-06
2.03758605311e-06
1.47500041213e-05
7.95241045399e-07
1.88830117504e-06
8.89284930906e-06
1.21744505169e-05
4.04944765366e-06
1.55709442233e-06
5.47686270814e-05
1.19100359596e-05
2.87240694454e-06
2.89505545217e-05
4.93106317334e-05
1.30277819487e-05
5.2018960221e-06
4.38115007041e-06
2.48392588719e-05
0.000133176535784
7.85561170214e-05
2.00548236401e-05
2.1906998153e-05
9.02099265096e-05
8.96510183918e-05
8.70815850323e-05
0.000129618302923
0.000433675322438
0.000105301575368
0.000139636748509
3.70078591065e-05
0.000141319869828
0.00017607249455
0.000120935845423
2.04353221691e-05
4.48773137013e-06
2.65583601795e-05
9.02251926556e-05
8.16978486401e-05
2.37552893094e-05
0.000220268129005
0.000120583328948
0.000132811080683
0.000205284933135
0.000150101042065
0.00020762185874
4.15871407927e-05
8.45323740557e-05
6.81519054801e-05
0.000122965818075
6.13402452843e-05
3.09073363952e-05
0.000194285853124
0.00014570864328
0.000291507116309
0.000193281851447
4.52665989503e-05
1.12442536957e-06
1.12672029213e-05
1.92421774871e-05
3.5245479797e-06
1.35140412378e-06
3.38096508801e-06
6.98852715244e-07
9.43302287984e-06
5.31071662326e-06
3.75926437267e-05
4.66872339042e-06
1.8800470105e-05
7.44337468112e-07
1.1287361068e-05
3.35279108252e-06
9.79630814595e-06
2.88591503417e-07
2.7886256919e-06
5.53148986482e-06
2.20962323694e-05
1.58968188256e-05
4.3911329529e-05
5.92415665701e-07
1.84316012412e-06
1.00026495173e-05
9.20047071287e-05
0.000181941406031

