# vtk DataFile Version 3.0
File Name: Molecule/sphere_dip_C5/sphere_dip_C5_0-s5.vtk
ASCII
DATASET UNSTRUCTURED_GRID
FIELD FieldData 1
TIME 1 1 double
0.0
POINTS 118 double
0.525731112119 0.0 0.850650808352
0.309016994375 -0.5 0.809016994375
0.809016994375 -0.309016994375 0.5
0.5 -0.809016994375 0.309016994375
0.0 -0.850650808352 0.525731112119
0.850650808352 -0.525731112119 0.0
1.0 0.0 0.0
0.809016994375 0.309016994375 0.5
0.850650808352 0.525731112119 0.0
-0.525731112119 0.0 -0.850650808352
-0.809016994375 -0.309016994375 -0.5
-0.809016994375 0.309016994375 -0.5
-1.0 0.0 0.0
-0.850650808352 -0.525731112119 0.0
-0.850650808352 0.525731112119 0.0
0.0 0.850650808352 -0.525731112119
-0.309016994375 0.5 -0.809016994375
-0.5 0.809016994375 -0.309016994375
-0.5 -0.809016994375 -0.309016994375
-0.5 -0.809016994375 0.309016994375
0.0 -1.0 0.0
-0.809016994375 -0.309016994375 0.5
-0.309016994375 -0.5 0.809016994375
-0.809016994375 0.309016994375 0.5
0.5 0.809016994375 -0.309016994375
0.525731112119 0.850650808352 0.0
0.5 0.809016994375 0.309016994375
0.26286555606 0.951056516295 -0.162459848116
0.26286555606 0.951056516295 0.162459848116
0.0 1.0 0.0
0.0 0.850650808352 0.525731112119
-0.26286555606 0.951056516295 0.162459848116
-0.5 0.809016994375 0.309016994375
-0.26286555606 0.951056516295 -0.162459848116
-0.525731112119 0.850650808352 0.0
-0.702046444776 0.69378047756 0.16062203564
-0.702046444776 0.69378047756 -0.16062203564
-0.425325404176 0.688190960236 0.587785252292
-0.309016994375 0.5 0.809016994375
-0.688190960236 0.587785252292 0.425325404176
-0.587785252292 0.425325404176 0.688190960236
-0.862668480416 0.433888564553 0.259891913008
-0.525731112119 0.0 0.850650808352
0.862668480416 -0.433888564553 -0.259891913008
0.961938357784 -0.273266528913 0.0
0.951056516295 -0.162459848116 -0.26286555606
0.809016994375 -0.309016994375 -0.5
0.850650808352 0.0 -0.525731112119
0.951056516295 0.162459848116 -0.26286555606
0.809016994375 0.309016994375 -0.5
0.69378047756 -0.16062203564 -0.702046444776
0.69378047756 0.16062203564 -0.702046444776
0.525731112119 0.0 -0.850650808352
0.688190960236 0.587785252292 -0.425325404176
0.587785252292 0.425325404176 -0.688190960236
0.425325404176 0.688190960236 -0.587785252292
0.309016994375 0.5 -0.809016994375
0.433888564553 0.259891913008 -0.862668480416
0.5 -0.809016994375 -0.309016994375
0.702046444776 -0.69378047756 -0.16062203564
0.688190960236 -0.587785252292 -0.425325404176
0.0 0.525731112119 0.850650808352
0.309016994375 0.5 0.809016994375
-0.162459848116 0.26286555606 0.951056516295
0.0 -0.525731112119 0.850650808352
0.162459848116 -0.26286555606 0.951056516295
-0.162459848116 -0.26286555606 0.951056516295
0.16062203564 -0.702046444776 -0.69378047756
-0.16062203564 -0.702046444776 -0.69378047756
0.0 -0.525731112119 -0.850650808352
0.0 -0.850650808352 -0.525731112119
-0.26286555606 -0.951056516295 -0.162459848116
-0.259891913008 -0.862668480416 -0.433888564553
0.0 -0.961938357784 -0.273266528913
-0.309016994375 -0.5 -0.809016994375
-0.425325404176 -0.688190960236 -0.587785252292
0.259891913008 -0.862668480416 -0.433888564553
0.26286555606 -0.951056516295 -0.162459848116
0.309016994375 -0.5 -0.809016994375
0.425325404176 -0.688190960236 -0.587785252292
0.433888564553 -0.259891913008 -0.862668480416
0.273266528913 0.0 -0.961938357784
0.162459848116 -0.26286555606 -0.951056516295
0.0 0.0 -1.0
-0.162459848116 -0.26286555606 -0.951056516295
-0.273266528913 0.0 -0.961938357784
-0.433888564553 -0.259891913008 -0.862668480416
0.69378047756 0.16062203564 0.702046444776
0.688190960236 0.587785252292 0.425325404176
0.425325404176 0.688190960236 0.587785252292
0.587785252292 0.425325404176 0.688190960236
0.433888564553 0.259891913008 0.862668480416
-0.433888564553 0.259891913008 -0.862668480416
-0.587785252292 -0.425325404176 0.688190960236
-0.69378047756 -0.16062203564 0.702046444776
-0.433888564553 -0.259891913008 0.862668480416
-0.162459848116 0.26286555606 -0.951056516295
0.162459848116 0.26286555606 -0.951056516295
0.0 0.525731112119 -0.850650808352
0.587785252292 -0.425325404176 -0.688190960236
0.757935420048 -0.453990499739 -0.468429850867
0.518332565981 -0.56541318032 -0.641591214532
0.0 0.266404701135 0.963861263467
0.162459848116 0.26286555606 0.951056516295
-0.0822424652791 0.133071104141 0.987688340595
0.0822424652791 0.133071104141 0.987688340595
0.0 0.0 1.0
0.238676930319 0.386187385588 0.891006524188
-0.273266528913 0.0 0.961938357784
-0.353553390593 0.135045378369 0.925614793411
0.353553390593 0.135045378369 0.925614793411
0.273266528913 0.0 0.961938357784
-0.238676930319 -0.386187385588 0.891006524188
-0.353553390593 -0.135045378369 0.925614793411
-0.0822424652791 -0.133071104141 0.987688340595
0.15643446504 -0.519258489728 -0.840177885327
0.0 -0.273266528913 -0.961938357784
-0.15643446504 -0.519258489728 -0.840177885327

CELLS 232 928
3 0 1 2
3 1 3 2
3 1 4 3
3 2 3 5
3 6 7 2
3 6 8 7
3 9 10 11
3 10 12 11
3 10 13 12
3 11 12 14
3 15 16 17
3 16 11 17
3 13 18 19
3 19 20 4
3 13 19 21
3 19 4 22
3 23 12 21
3 21 12 13
3 10 18 13
3 20 3 4
3 24 25 8
3 8 25 26
3 24 27 25
3 27 28 25
3 27 29 28
3 25 28 26
3 29 27 15
3 15 27 24
3 26 28 30
3 28 29 30
3 29 31 30
3 30 31 32
3 29 33 31
3 33 34 31
3 33 17 34
3 31 34 32
3 17 33 15
3 15 33 29
3 32 34 35
3 34 36 35
3 34 17 36
3 35 36 14
3 32 37 30
3 30 37 38
3 32 39 37
3 39 40 37
3 39 23 40
3 37 40 38
3 32 35 39
3 35 41 39
3 35 14 41
3 39 41 23
3 38 40 42
3 40 23 42
3 14 36 11
3 11 36 17
3 23 41 12
3 41 14 12
3 5 43 44
3 43 45 44
3 43 46 45
3 44 45 6
3 46 47 45
3 47 48 45
3 47 49 48
3 45 48 6
3 46 50 47
3 50 51 47
3 50 52 51
3 47 51 49
3 6 48 8
3 48 49 8
3 49 53 8
3 8 53 24
3 49 54 53
3 54 55 53
3 54 56 55
3 53 55 24
3 49 51 54
3 51 57 54
3 51 52 57
3 54 57 56
3 24 55 15
3 55 56 15
3 5 44 2
3 44 6 2
3 58 59 3
3 59 5 3
3 43 59 60
3 43 5 59
3 60 59 58
3 38 61 30
3 30 61 62
3 38 63 61
3 64 65 66
3 64 1 65
3 1 64 4
3 4 64 22
3 65 1 0
3 67 68 69
3 67 70 68
3 18 71 19
3 71 20 19
3 18 72 71
3 72 73 71
3 72 70 73
3 71 73 20
3 74 75 10
3 75 18 10
3 74 68 75
3 68 72 75
3 68 70 72
3 75 72 18
3 70 76 73
3 76 77 73
3 76 58 77
3 73 77 20
3 20 77 3
3 3 77 58
3 78 79 67
3 79 76 67
3 79 58 76
3 67 76 70
3 58 79 60
3 52 80 81
3 80 82 81
3 80 78 82
3 81 82 83
3 83 84 85
3 84 86 85
3 84 74 86
3 85 86 9
3 7 87 2
3 2 87 0
3 26 88 8
3 8 88 7
3 26 89 88
3 89 90 88
3 89 62 90
3 88 90 7
3 62 89 30
3 30 89 26
3 7 90 87
3 90 91 87
3 90 62 91
3 87 91 0
3 16 92 11
3 92 9 11
3 22 93 19
3 19 93 21
3 21 93 94
3 93 95 94
3 93 22 95
3 94 95 42
3 21 94 23
3 23 94 42
3 9 86 10
3 86 74 10
3 83 96 97
3 96 98 97
3 96 16 98
3 97 98 56
3 83 85 96
3 85 92 96
3 85 9 92
3 96 92 16
3 56 98 15
3 98 16 15
3 78 80 50
3 50 80 52
3 46 99 50
3 50 99 78
3 46 100 99
3 100 101 99
3 100 60 101
3 99 101 78
3 60 100 43
3 43 100 46
3 83 97 57
3 57 97 56
3 52 81 57
3 57 81 83
3 63 102 61
3 102 103 61
3 63 104 102
3 104 105 102
3 104 106 105
3 102 105 103
3 103 107 61
3 61 107 62
3 106 104 108
3 104 109 108
3 104 63 109
3 108 109 42
3 42 109 38
3 109 63 38
3 62 107 91
3 107 110 91
3 107 103 110
3 91 110 0
3 103 105 110
3 105 111 110
3 105 106 111
3 110 111 0
3 22 112 95
3 112 113 95
3 112 66 113
3 95 113 42
3 42 113 108
3 113 114 108
3 113 66 114
3 108 114 106
3 66 112 64
3 64 112 22
3 106 114 65
3 65 114 66
3 0 111 65
3 65 111 106
3 78 115 82
3 115 116 82
3 115 69 116
3 82 116 83
3 69 117 116
3 117 84 116
3 117 74 84
3 116 84 83
3 69 115 67
3 67 115 78
3 74 117 68
3 68 117 69
3 78 101 79
3 79 101 60

CELL_TYPES 232
5
5
5
5
5
5
5
5
5
5
5
5
5
5
5
5
5
5
5
5
5
5
5
5
5
5
5
5
5
5
5
5
5
5
5
5
5
5
5
5
5
5
5
5
5
5
5
5
5
5
5
5
5
5
5
5
5
5
5
5
5
5
5
5
5
5
5
5
5
5
5
5
5
5
5
5
5
5
5
5
5
5
5
5
5
5
5
5
5
5
5
5
5
5
5
5
5
5
5
5
5
5
5
5
5
5
5
5
5
5
5
5
5
5
5
5
5
5
5
5
5
5
5
5
5
5
5
5
5
5
5
5
5
5
5
5
5
5
5
5
5
5
5
5
5
5
5
5
5
5
5
5
5
5
5
5
5
5
5
5
5
5
5
5
5
5
5
5
5
5
5
5
5
5
5
5
5
5
5
5
5
5
5
5
5
5
5
5
5
5
5
5
5
5
5
5
5
5
5
5
5
5
5
5
5
5
5
5
5
5
5
5
5
5
5
5
5
5
5
5
5
5
5
5
5
5
5
5
5
5
5
5

CELL_DATA 232
SCALARS cell_data_0 double
LOOKUP_TABLE default
0.000200208225451
0.000154855660517
1.82435033525e-05
6.81862223274e-05
8.68538487335e-05
2.27412834968e-05
3.28036579667e-05
1.03047004909e-05
7.85526534665e-06
1.50600307225e-05
8.24050333774e-05
2.52751822745e-05
0.000157009824381
0.000285160869824
0.000109405202594
8.23340078418e-05
0.000115483416661
9.75122131128e-06
3.95424042373e-05
0.000111840025849
8.35110610655e-05
6.62158561833e-05
5.06044888221e-05
4.67611440683e-05
4.68555363155e-06
3.80379669504e-05
2.45192597464e-05
2.7202036453e-05
1.87266839873e-05
3.26792367102e-05
2.79371941114e-05
3.43919913085e-05
8.34285249035e-06
1.20694494944e-05
2.53442747295e-06
6.63338613731e-06
3.45775436422e-05
2.09631012019e-05
5.4066460747e-06
9.36179561056e-06
1.26049841468e-06
9.42334788763e-06
2.57851924585e-06
3.56121392773e-05
2.67207626673e-05
4.61990896373e-05
1.88070341707e-05
5.03534100309e-05
1.22338089154e-05
1.90073707796e-05
1.30197273169e-05
5.40014708224e-07
0.000121669466528
7.34888528337e-05
9.50877816673e-06
5.97958746968e-06
2.60567212737e-05
2.16472979051e-05
7.34370982163e-06
8.70858034762e-06
1.43188359997e-07
4.40147346006e-06
1.26945961833e-06
5.18074209568e-06
3.98526557371e-06
1.53362611536e-06
7.39715224342e-06
3.05145327521e-06
2.37670116985e-05
4.47615520924e-06
1.02080953275e-06
8.19162652996e-06
9.7794691327e-05
8.15991814888e-05
0.000134525096772
0.000290047933642
0.000171397693775
0.000171126150692
4.97181944833e-05
0.000107268405739
7.1757659807e-05
0.000104050427351
0.000195100948361
0.000201689168728
3.01527881572e-05
2.58528027909e-05
0.000147406844397
0.000119684256649
0.000193283498462
6.44015127067e-05
0.000211315048631
6.99859055072e-05
7.16765010064e-05
8.65134379142e-05
9.81940551351e-05
7.82927464866e-05
6.43144422976e-05
7.32503246331e-05
0.000152319579867
2.99185242492e-06
1.1112199744e-05
0.000101679625714
6.94603825297e-05
1.55884496601e-05
2.53704301397e-06
9.65232190433e-06
1.85706441448e-06
1.44156494604e-05
3.20412143428e-05
7.95659717828e-06
2.49097397961e-06
1.3083152517e-05
1.76430850733e-05
5.35805494049e-06
8.38861164388e-06
1.76531630332e-07
4.94365441401e-07
9.9574457845e-06
8.75032142445e-06
3.76670827467e-06
3.67445561064e-06
1.65205748409e-06
8.25593055446e-06
9.76275080489e-05
1.78424264623e-05
5.81127196786e-07
5.30587030801e-06
1.91064199589e-05
5.00190410516e-05
4.02401055386e-05
2.00508742639e-05
4.968533564e-05
4.6460865318e-05
6.41576944563e-05
3.34960101335e-06
1.03593727067e-05
3.11230389126e-05
3.70282365646e-06
2.51995441445e-05
1.93892615937e-05
5.29048224626e-05
7.34635178044e-05
2.63775178448e-05
3.90159629746e-05
4.56812371554e-05
3.45050828916e-05
5.85051464401e-05
7.04024029792e-05
2.0629866281e-05
0.000131705375652
2.76110989206e-06
4.76438264625e-05
4.71048693398e-05
5.73019945456e-05
1.02193008583e-05
7.70048363447e-05
3.914050365e-05
3.73725899574e-05
2.48680225225e-05
3.06968680107e-06
5.91912739344e-06
4.46204104944e-06
5.00155470135e-05
5.75142885833e-05
6.77182127915e-05
2.87124280281e-05
3.59643033711e-05
4.13423193553e-05
7.13466500612e-06
2.225591264e-05
8.87330329073e-06
7.4957027666e-06
5.00118031786e-05
0.000120028580206
0.000214382155338
5.41569335848e-05
9.38386579367e-05
3.96814103964e-05
7.38747495664e-05
4.51691672502e-05
6.93314819505e-05
7.03895835457e-05
5.64556831127e-05
5.77622676938e-05
2.00315671055e-05
7.81681461928e-06
2.44499072752e-05
1.90496793512e-05
4.79757054595e-05
3.09635962128e-05
4.66172130773e-05
1.01989312228e-06
3.68187628643e-05
1.85478845855e-05
6.27176444473e-05
7.07469380017e-05
1.52904155754e-05
1.10170727689e-05
3.2800131805e-05
1.77798722734e-05
3.65298627063e-05
4.18621973512e-06
4.35526758975e-05
9.50328132219e-06
2.90892166804e-05
2.66867642932e-05
3.14167985971e-05
3.39865877501e-05
2.09616793348e-05
2.24978243408e-06
3.62732109833e-05
4.57480497302e-05
4.34424493978e-05
3.14283271708e-05
7.09950994879e-05
6.53432463795e-05
8.3008936818e-05
0.000115266903591
3.13637345622e-06
1.94157741038e-07
1.33263513321e-06
1.20006518606e-05
1.27153610489e-06
1.63660169365e-08
4.19567272605e-06
1.23582707463e-05
1.41049026796e-06
3.02465671845e-06
3.88994792231e-06
1.57300884022e-06
5.1735153447e-05
0.000119188132466

