# vtk DataFile Version 3.0
File Name: Molecule/sphere_dip_sim/sphere_dip_sim_0-s3.vtk
ASCII
DATASET UNSTRUCTURED_GRID
FIELD FieldData 1
TIME 1 1 double
0.0
POINTS 21 double
0.850650808352 -0.525731112119 0.0
0.525731112119 0.0 -0.850650808352
0.850650808352 0.525731112119 0.0
0.0 0.850650808352 -0.525731112119
0.0 0.850650808352 0.525731112119
-0.850650808352 0.525731112119 0.0
0.525731112119 0.0 0.850650808352
0.0 -0.850650808352 0.525731112119
0.0 -0.850650808352 -0.525731112119
-0.525731112119 0.0 -0.850650808352
-0.809016994375 -0.309016994375 -0.5
-0.809016994375 0.309016994375 -0.5
-1.0 0.0 0.0
-0.850650808352 -0.525731112119 0.0
-0.525731112119 0.0 0.850650808352
-0.5 -0.809016994375 -0.309016994375
-0.5 -0.809016994375 0.309016994375
0.0 -1.0 0.0
-0.309016994375 0.5 0.809016994375
0.309016994375 0.5 0.809016994375
0.0 0.0 1.0

CELLS 38 152
3 0 1 2
3 2 1 3
3 2 3 4
3 4 3 5
3 6 7 0
3 1 8 9
3 0 2 6
3 1 0 8
3 1 9 3
3 9 10 11
3 10 12 11
3 10 13 12
3 11 12 5
3 9 11 3
3 3 11 5
3 5 12 14
3 14 12 13
3 9 10 8
3 13 15 16
3 15 17 16
3 15 8 17
3 16 17 7
3 13 16 14
3 16 7 14
3 7 17 0
3 8 17 0
3 8 15 10
3 13 15 10
3 14 18 5
3 4 18 5
3 4 18 19
3 18 20 19
3 18 14 20
3 19 20 6
3 6 20 7
3 14 20 7
3 4 19 2
3 2 19 6

CELL_TYPES 38
5
5
5
5
5
5
5
5
5
5
5
5
5
5
5
5
5
5
5
5
5
5
5
5
5
5
5
5
5
5
5
5
5
5
5
5
5
5

CELL_DATA 38
SCALARS cell_data_0 double
LOOKUP_TABLE default
3.69320442546e-05
7.57180906879e-05
0.000835232242125
0.00246127895145
0.000207642247036
0.0013008273201
2.85485510581e-05
0.000204601386491
0.00114151953034
1.72485977644e-05
0.000112477918895
0.000104698887426
0.000738711401719
7.17272008837e-05
0.000551498697725
0.00107852358435
0.000149299963531
6.08461330265e-05
3.04069526485e-06
7.8913401153e-06
9.44000748056e-06
1.10119851973e-05
5.4386453373e-05
0.000129734568531
7.48215599116e-05
4.11272645871e-05
6.08058783747e-05
2.36703053605e-05
0.000397359782772
0.00169242068863
0.000214812660558
9.05964176966e-05
4.47285925453e-05
7.42305834787e-05
0.0003629213856
0.000314353663307
0.000584571577764
3.00547279886e-05

