# vtk DataFile Version 3.0
File Name: Molecule/sphere_cent/sphere_cent_0-s29.vtk
ASCII
DATASET UNSTRUCTURED_GRID
FIELD FieldData 1
TIME 1 1 double
0.0
POINTS 852 double
-0.43869063258 0.62975358963 0.63965761662
-0.492392838 0.51020586491 0.70504945517
-0.3379971385 0.52724677324 0.77956408262
-0.86958432198 0.07885761559 -0.48722544312
-0.91192430258 0.15881621838 -0.37779191136
-0.84443974495 0.24609228969 -0.47508427501
-0.32564502954 0.47004598379 -0.82033807039
-0.40919134021 0.316473037 -0.8558100462
-0.47859361768 0.44430610538 -0.75691384077
0.92441350222 -0.12971141934 -0.35862642527
0.97164148092 -0.092108078301 -0.21654927731
0.9379902482 -0.2360188216 -0.25167635083
-0.83929169178 -0.22299084067 0.49563983083
-0.75723254681 -0.15333855152 0.63478535414
-0.84649181366 -0.058792296797 0.52850091457
-0.71596246958 -0.33337184787 0.61337476969
-0.57959455252 -0.46017569304 0.67249679565
-0.57685053349 -0.31062531471 0.75541257858
-0.55820590258 0.27963373065 -0.78107231855
-0.18728554249 -0.54685908556 -0.81566768885
-0.085236653686 -0.66681867838 -0.73976916075
-0.26071166992 -0.65567833185 -0.70858156681
0.79309505224 0.33202043176 -0.51061159372
0.82459974289 0.42176994681 -0.37511283159
0.88441717625 0.289488554 -0.36405208707
-0.39686653018 -0.53623116016 -0.74464863539
-0.40674173832 -0.66362243891 -0.62783706188
0.86068320274 0.50283098221 -0.079213187099
0.88953506947 0.39848607779 -0.22242772579
0.80950111151 0.54092669487 -0.22737517953
-0.29121565819 -0.19606854022 0.93627524376
-0.16251695156 -0.31015580893 0.93660062551
-0.10753400624 -0.16208283603 0.98085141182
-0.98239356279 -0.1604847461 -0.094705700874
-0.94741714001 -0.28770470619 -0.1396843195
-0.96354216337 -0.26605087519 0.019630238414
-0.77454721928 -0.50042521954 -0.38615739346
-0.74362170696 -0.61272078753 -0.2673895359
-0.83043122292 -0.49643874168 -0.25259134173
-0.83970463276 0.30556714535 0.44890293479
-0.87898331881 0.37080299854 0.29976707697
-0.9169896245 0.22118411958 0.33100530505
-0.68326824903 0.70040655136 -0.2058262825
-0.57880866528 0.79484915733 -0.18188002706
-0.59513014555 0.73004990816 -0.33591085672
-0.79784351587 0.42973220348 0.42279440165
-0.46859443188 0.8226352334 -0.32193735242
-0.73201233149 0.36585071683 0.57451045513
-0.98650628328 0.13721755147 0.08709346503
-0.94164431095 0.29084426165 0.16918517649
-0.96373862028 0.26483535767 0.029999878258
-0.43036276102 -0.76098895073 -0.48545828462
-0.29526406527 -0.77080219984 -0.5644993186
-0.29934215546 -0.85770046711 -0.41801130772
-0.34900137782 0.90191179514 -0.25409692526
-0.31196409464 0.85832065344 -0.40734755993
-0.21043390036 0.93360209465 -0.28970131278
-0.24226480722 0.95783239603 -0.15428431332
-0.32588794827 0.76211357117 -0.55918627977
-0.44922575355 0.77029007673 -0.45254778862
-0.55338609219 0.76233953238 0.33464559913
-0.44435968995 0.75990098715 0.47391277552
-0.41155219078 0.84367930889 0.34451970458
0.13333302736 -0.93816632032 -0.31900283694
0.16311295331 -0.97501522303 -0.14960409701
0.013692864217 -0.9734454155 -0.22533775866
-0.045904643834 -0.9987513423 0.015672696754
-0.098342463374 -0.98643547297 -0.13040797412
0.047322295606 -0.99628871679 -0.071041584015
-0.85948318243 -0.28211921453 -0.42618811131
-0.83298742771 -0.17439010739 -0.52496773005
-0.77576810122 -0.29850667715 -0.55571854115
-0.78724586964 -0.59807944298 -0.14944010973
-0.67483341694 -0.72460836172 -0.13961572945
-0.69695484638 -0.71684134007 -0.002270990517
-0.57332730293 -0.819255054 0.0014266193612
0.49082842469 0.81975030899 0.29511490464
0.46340808272 0.76408499479 0.44879555702
0.59626841545 0.71370333433 0.36753693223
0.55921697617 0.64979964495 0.5148383379
0.41707926989 0.68742948771 0.59437084198
0.68268698454 0.59067815542 0.43015387654
0.52260190248 0.56375217438 0.6395996213
0.64986771345 0.51175016165 0.56193399429
0.60311406851 0.42388406396 0.67569118738
0.76356416941 0.43237510324 0.47962006927
0.71246498823 0.35401710868 0.60584467649
0.81153410673 0.27736645937 0.51425647736
-0.45522385836 -0.39327090979 0.79879277945
-0.44760173559 -0.25059834123 0.85836839676
-0.32620251179 -0.34183183312 0.88131266832
-0.323477 -0.4982496202 0.80441874266
0.34427589178 -0.93295139074 0.10404013842
0.20752489567 -0.97110903263 0.11743685603
0.28790932894 -0.95698177814 -0.035643678159
0.41168317199 -0.90789741278 -0.077289298177
0.32659113407 -0.92514193058 -0.19206637144
-0.13568732142 -0.91486340761 0.38018625975
0.022152358666 -0.91105526686 0.4116897881
-0.059006050229 -0.85224556923 0.51973319054
-0.038815736771 -0.96477669477 0.25985220075
0.09179379791 -0.81622499228 0.57030916214
0.72829097509 0.16475062072 0.66513425112
-0.15481109917 0.2736800909 0.94920355082
-0.32289382815 0.27816596627 0.90462332964
-0.23344324529 0.16135372221 0.95888221264
-0.38225853443 0.14848543704 0.91203933954
-0.48209938407 0.26588615775 0.83480584621
-0.27950587869 0.041235413402 0.95911127329
0.72051173449 0.635391891 0.27770391107
0.60990303755 0.76094907522 0.22113338113
0.86009538174 0.3640833497 0.35730430484
0.78122580051 0.50914716721 0.36120384932
-0.3999826014 0.39641582966 0.82634705305
-0.24861010909 0.40039035678 0.88192641735
-0.64731067419 -0.75221985579 0.11943034828
-0.063291653991 0.12625655532 0.9895632267
-0.7748401165 -0.58177417517 0.24726375937
-0.73746472597 -0.6547228694 0.1642511338
-0.67888826132 -0.67506998777 0.28841423988
0.68843197823 0.59158152342 -0.41893312335
0.55468595028 0.65792882442 -0.50934863091
0.59368991852 0.71672296524 -0.36578589678
0.46464449167 0.76880115271 -0.43936264515
0.42050471902 0.69563186169 -0.58244532347
0.50246673822 0.81421035528 -0.29071259499
-0.25195902586 -0.0026533568744 -0.96770060062
-0.38046264648 -0.014978038147 -0.92459076643
-0.33172306418 0.15232783556 -0.9309592247
-0.47452706099 0.16832046211 -0.86376464367
0.45277893543 -0.26650848985 0.85085237026
0.31558430195 -0.28181755543 0.90606313944
0.37906822562 -0.43258625269 0.81750541925
0.37770950794 -0.12987610698 0.91678118706
0.21426670253 -0.13748264313 0.96703118086
0.30790606141 0.0050038849004 0.95136958361
0.51209211349 0.33668500185 0.79018574953
0.63509213924 0.29287627339 0.7147796154
0.58011627197 0.19281518459 0.79051631689
0.27339747548 0.52106279135 -0.80853050947
0.16901835799 0.66078156233 -0.73067080975
0.34948545694 0.61448228359 -0.70728737116
0.28714540601 0.7228924036 -0.62848937511
0.32619205117 0.80367726088 -0.4976760149
0.19341363013 0.80721431971 -0.55660319328
0.21892216802 0.89436233044 -0.39000418782
0.48223343492 0.020172227174 0.87548905611
0.063187219203 -0.21909157932 0.97355818748
0.054244901985 -0.081780098379 0.99517631531
0.16407139599 0.0193193499 0.98612248898
0.15450303257 -0.26064172387 -0.95297139883
0.23083685338 -0.12474624068 -0.96496093273
0.31056880951 -0.2548712194 -0.91571998596
0.35695457458 -0.10281771421 -0.92824304104
0.2864588201 0.01534696389 -0.95796567202
0.36902490258 0.86143320799 -0.34895423055
0.29477393627 0.93312466145 -0.20560106635
0.25089129806 -0.38795658946 -0.88678723574
0.38670414686 -0.38286536932 -0.83898687363
0.44302785397 -0.25958931446 -0.85795760155
0.31823456287 -0.51295691729 -0.79678869247
0.10392397642 0.86946028471 -0.48265534639
-0.053474716842 -0.50910794735 -0.85845208168
-0.15485003591 -0.41103625298 -0.8983310461
-0.34321191907 -0.15307950974 -0.9265383482
-0.27436867356 0.8697347641 0.40962713957
-0.25156775117 0.92699158192 0.27817976475
-0.28798291087 0.94955283403 0.1240599826
-0.12970811129 0.97358071804 0.18261007965
0.004889995791 -0.2141866684 -0.97676289082
0.088308431208 -0.11288032681 -0.98966747522
-0.044146098197 -0.090051084757 -0.99488282204
0.018744403496 0.020111490041 -0.99960839748
0.68750983477 0.40852469206 -0.60034757853
0.73242676258 0.46861410141 -0.49385023117
0.62388700247 0.533654809 -0.57092732191
0.57039469481 0.42663058639 -0.70116561651
-0.44071125984 -0.8961135745 0.050953537226
-0.48469719291 -0.86066061258 0.15605595708
-0.82628822327 0.44203603268 -0.3479667902
-0.89232105017 0.31077820063 -0.32728242874
-0.8796390295 0.41660815477 -0.22940689325
-0.92788767815 0.32083576918 -0.18978708982
0.1334746331 0.72041404247 0.6805716157
0.084199383855 0.62042748928 0.77972972393
0.22314566374 0.61800181866 0.75385630131
0.17214481533 0.51435053349 0.84007430077
0.29854607582 0.48508405685 0.82189208269
0.33539170027 -0.84138888121 -0.42361369729
0.29440328479 -0.78182214499 -0.54786854982
0.452501297 -0.74878311157 -0.48436114192
0.17157573998 -0.86763215065 -0.46653530002
0.99907314777 -0.0059616286308 0.018264625221
0.98639500141 0.16110244393 0.031807340682
0.98213261366 0.094284825027 0.16289043427
0.95819550753 0.24875688553 0.14090234041
0.93883508444 0.34293580055 0.029269130901
0.90524625778 0.38626337051 0.17708238959
0.62923413515 -0.33584919572 -0.70084095001
0.51955324411 -0.35674729943 -0.77639782429
0.593716681 -0.23494401574 -0.76920056343
0.57683956623 -0.45807373524 -0.67629146576
-0.16680541635 -0.75507712364 -0.63406026363
-0.038166958839 -0.78412729502 -0.61823016405
0.0741334185 -0.70899617672 -0.70107966661
0.7510843873 0.64550411701 -0.13847078383
0.78369557858 0.62099826336 0.011766146868
0.65867972374 0.75070935488 -0.050217036158
0.62576889992 0.75073128939 -0.2115765363
0.70255595446 0.6547499299 -0.27872428298
0.70171910524 0.27516034245 -0.65688925982
-0.17452520132 -0.84569990635 -0.50299102068
0.95983380079 -0.0065292753279 0.28045025468
0.94338047504 0.1324210614 0.3036942482
0.17984932661 -0.2968173027 0.93782919645
0.2356415391 -0.4090514183 0.88110542297
0.011393490247 -0.90081948042 -0.43263676763
0.49729019403 0.4667621851 0.73130524158
0.49644586444 0.57292336226 -0.65214532614
0.42816880345 0.23653765023 0.87187194824
0.36397621036 0.35072126985 0.86282461882
0.41341775656 0.43838763237 0.79803001881
0.40753504634 0.53511929512 0.73980784416
0.15387374163 0.012088875286 -0.9879976511
0.45736932755 -0.48784610629 -0.7434579134
0.52637565136 0.83841121197 -0.14114837348
[...]
CELL_DATA 1700
SCALARS cell_data_0 double
LOOKUP_TABLE default
1.62181359103e-08
4.06226123064e-09
1.58084853974e-08
8.74062794908e-09
1.45913536436e-08
4.22964873975e-08
6.51515651618e-08
1.35534874209e-08
2.63586568315e-08
3.29663623484e-08
2.78233372711e-08
2.35924100561e-08
5.44469129421e-08
3.8907523005e-08
1.41138906017e-08
1.46120216174e-08
9.56494747675e-09
1.52245237004e-08
1.96110457455e-08
1.6356087885e-08
5.16634498616e-10
4.19181176968e-09
7.23288455242e-09
2.12228588381e-09
1.71283654374e-08
1.03409832208e-08
9.85247215614e-09
1.84344214869e-09
5.04920697037e-09
1.64387202939e-08
1.40664801826e-08
3.97701209992e-08
7.90008856912e-09
4.49409793467e-08
1.05732308769e-08
9.72203114162e-09
1.20700059668e-08
1.27529622832e-08
2.35724182124e-08
8.36994758155e-09
3.78215983475e-09
3.11598484125e-09
1.66657099366e-10
8.77017553161e-10
2.78917753906e-09
5.75252110833e-09
5.8176519785e-09
6.35256909475e-09
2.96527399114e-09
4.33625785503e-09
1.73679478221e-08
2.51357013367e-09
1.97494146148e-08
9.43659622394e-10
2.4636559533e-09
1.97887148938e-08
6.18807359813e-09
8.83716168113e-09
1.93282887909e-08
1.95734412808e-08
5.28414985485e-08
1.11508701853e-08
1.76428803088e-09
1.49255579273e-08
2.02174928461e-09
2.45535676495e-08
2.04520415461e-08
5.95351699441e-09
4.0236584298e-09
1.41735563527e-08
5.01849184572e-09
3.07810149113e-09
3.50943285364e-09
1.78790166461e-08
4.94830579131e-09
9.82490465491e-09
2.8699895118e-09
7.57958288711e-09
5.51987397137e-08
3.54962826701e-09
2.22680588493e-08
9.40668637449e-09
1.28862097896e-10
3.94342598578e-09
2.33031909262e-08
2.72892622561e-08
2.28822077722e-08
5.20619576495e-08
6.58612483415e-09
2.22779353699e-08
8.1679667899e-09
1.47979307759e-09
3.24380568101e-08
3.36788897681e-08
4.55648785162e-09
2.78957495795e-09
2.67468056295e-08
5.18367922436e-08
2.02389563366e-08
3.00408785343e-08
1.64387546362e-08
3.69659905089e-09
2.47442446337e-09
2.58364561905e-09
3.29585189769e-08
8.95478620513e-09
5.3642572994e-09
1.16701186431e-09
1.78344095421e-08
1.6546218441e-08
2.47223442642e-10
6.30369857e-09
6.72981977524e-09
1.40909139789e-08
1.4939437945e-08
1.26438141618e-08
3.59342429191e-08
1.80860552479e-08
3.37645611483e-08
2.5417935707e-08
8.03363706471e-09
2.8097591214e-08
8.1985650503e-09
7.41043497121e-09
9.42689448502e-09
7.68733850515e-09
1.03869624394e-08
1.93679536352e-08
1.55487093624e-08
1.39723889805e-08
9.81902011212e-09
1.50200058989e-08
5.34551532955e-09
4.97558471554e-09
4.26604875488e-09
2.6844571667e-08
3.94427923097e-08
2.69983622484e-08
7.23047636699e-09
5.91656534932e-09
1.04313819478e-08
1.58414027376e-09
2.61719756236e-09
1.68444358183e-08
9.20173874157e-09
2.00267812683e-08
5.00028958739e-08
6.76426404349e-09
1.48481405678e-08
2.91599378083e-08
1.14264289689e-08
5.87493754736e-09
1.10470277986e-08
2.26469217289e-08
1.34736534388e-08
1.20755669869e-08
1.64020723738e-08
2.72342428774e-08
1.64284679309e-08
1.72724473134e-09
6.03482944041e-08
4.68794922093e-09
1.9108323432e-10
1.74370601024e-08
1.13720587173e-08
3.41486515102e-08
2.40004882207e-08
2.72907775889e-08
8.0315471863e-09
1.09282566039e-08
2.08087052687e-08
1.26920834865e-08
2.30803016261e-09
8.15822155796e-09
7.12138344057e-09
1.59723720159e-09
1.78801133588e-08
1.82593011858e-08
2.27824114837e-08
8.01854588625e-09
3.24972531215e-08
2.11756313421e-08
1.24718347363e-09
1.87318996511e-08
2.02760354595e-09
1.67294883863e-08
4.97195553946e-08
2.3010981403e-08
1.16157433583e-08
5.61024319899e-10
1.63592453406e-08
2.08309472799e-09
2.05265495091e-09
1.30276411592e-08
1.12922350202e-08
1.17101012505e-08
7.10774622179e-09
1.87387086413e-09
2.84915583058e-08
3.37960604674e-09
4.48218560437e-09
6.26595006055e-09
1.95541635284e-08
2.40142944267e-10
2.43411894958e-09
9.10659515561e-10
2.81064231052e-08
2.0133012306e-09
2.33522284382e-08
8.07739308778e-09
8.91375121184e-09
5.28391496326e-09
1.54145131969e-08
1.14265599883e-08
1.94103360255e-09
8.82540140459e-09
1.8092301211e-08
4.93220079246e-08
1.86291807071e-08
1.2334093505e-10
6.88164431741e-09
3.6507359796e-09
2.57714659997e-08
5.64406129767e-09
1.74718238113e-09
1.8311418351e-08
4.71376809263e-09
3.70787492126e-08
1.48790621941e-09
7.3987441193e-09
8.80980638527e-09
4.28015596757e-09
8.93372283008e-09
5.90131988818e-09
8.64783529643e-09
2.7804480494e-09
2.32139016124e-08
1.83691416826e-08
2.79758193968e-09
7.28431746054e-09
6.58070211016e-09
6.46894536154e-09
2.46416489435e-09
2.59926404395e-09
2.93948425565e-09
4.94700375804e-11
7.87998738402e-09
7.00296106294e-10
2.80287817834e-09
5.34820978363e-09
9.9450401878e-09
5.1869650767e-08
1.02584253247e-08
1.77599438086e-08
1.26710967713e-08
1.32171672685e-08
2.14917824157e-09
3.50896147627e-08
1.07064831351e-08
3.93760607044e-09
1.42811122657e-09
4.49919831786e-09
3.58469639666e-09
1.50384984894e-08
2.5740593434e-08
8.71030224161e-10
2.35317043715e-08
1.20896242345e-08
1.74057913028e-09
9.76160132821e-09
2.27727399958e-08
1.77694903431e-08
7.77231716092e-10
2.71346633281e-09
2.84423085191e-08
8.60198091114e-09
3.21049685692e-09
3.28438498122e-08
8.85291792326e-09
4.74817349104e-09
7.13455340901e-09
2.47804261668e-08
1.22744667069e-08
5.32735748374e-09
8.3142123968e-09
1.20479544647e-08
1.27350011918e-08
7.71905372866e-09
1.64385476888e-08
6.55101463513e-09
2.98101067311e-09
5.14705660789e-09
1.54596329861e-08
1.467135028e-09
1.51508284696e-09
1.10991892231e-09
8.13600337724e-09
1.46843390643e-09
4.68137409842e-09
4.20944497251e-09
8.455349778e-09
1.98831481226e-08
1.34598348895e-08
3.24875026401e-09
6.66191927369e-10
1.69631389274e-08
1.72589182178e-09
5.83077821421e-09
2.99181404537e-09
4.43840564519e-09
6.56521389981e-09
2.46459121084e-08
3.34516856954e-09
3.43522309019e-09
2.04273115659e-08
2.73838236883e-08
2.35653974407e-08
1.4156507063e-08
2.19116760769e-08
1.21484275723e-08
1.43408615387e-09
9.31970575743e-09
5.6835865656e-09
1.0800796589e-09
9.96843649896e-09
5.26409082639e-09
8.0800075779e-09
4.14831143373e-09
5.99749504942e-09
2.1923496519e-08
9.56041103946e-11
8.60447984864e-09
1.07368066238e-08
3.59595249914e-09
2.82647213421e-09
8.33853035036e-09
8.01078066575e-09
7.298997218e-09
3.91771948567e-08
2.23303830273e-08
3.14844437434e-09
2.30115388052e-09
4.5231237915e-09
7.82762138632e-09
2.44971525865e-09
1.37716739189e-08
2.95267923958e-09
7.80536448512e-10
3.69605978411e-09
1.18311952618e-08
6.64522142749e-09
1.72255925413e-08
8.23844529584e-09
3.35992439046e-08
1.97929319748e-09
1.39802009196e-09
9.00937771001e-09
2.03843470194e-09
9.32001735668e-09
5.24409751367e-09
3.15530653933e-09
2.37345973999e-08
1.01663225731e-08
3.66569218457e-09
9.77586393872e-09
3.549044723e-08
1.05103588939e-08
8.04031756328e-09
2.55752227078e-09
3.78146072333e-10
1.68313089541e-08
4.58525052622e-08
2.35744905811e-09
2.45486585548e-09
2.22632274722e-08
1.29705571195e-08
5.49900595967e-09
5.69977537753e-09
7.74715731802e-09
5.59854948977e-09
5.25452627373e-09
7.35791428675e-09
1.49043624928e-08
2.74892137824e-09
2.05692742123e-08
1.63047013326e-08
1.01705627689e-08
7.24553388256e-09
1.95054375018e-08
1.79579090513e-09
2.21533864185e-08
3.78297721027e-09
9.38264380683e-10
1.74476844095e-08
3.02362800838e-09
2.38571959384e-08
1.04312063985e-08
9.64187222393e-09
1.10738741824e-08
1.23042411271e-08
4.25264023919e-09
1.32241177848e-08
5.86411128379e-10
8.38318363719e-11
9.26044823299e-09
9.74154362793e-09
6.37626958954e-09
2.63181990429e-10
9.65464789248e-09
5.37365224565e-09
8.82023086194e-11
1.33582282587e-08
3.4819905105e-09
1.45914293419e-08
1.01215331508e-08
5.4527449136e-09
1.06538033501e-09
1.20147560376e-09
5.90272669053e-09
1.39213997473e-08
5.18232171097e-09
5.3455491424e-09
1.99675465257e-08
1.97414681804e-09
8.42276033951e-09
1.61470587748e-08
9.80624800273e-09
5.44398440657e-09
1.3628169068e-08
1.24022741239e-08
6.7818802684e-09
8.92632034474e-09
7.79610048672e-09
6.15112434196e-09
5.15145993132e-09
2.68793912256e-09
4.45288732214e-10
2.44940105806e-08
1.08327132283e-08
8.47155245974e-09
1.15865317166e-08
9.24280593546e-09
4.30381772335e-09
6.99636694331e-09
1.17940536409e-08
8.28607947102e-09
1.29547840981e-08
7.53950432517e-09
2.98025512848e-09
1.35573118436e-09
9.97669009658e-09
5.0280279546e-09
1.98264704569e-08
8.07460397648e-09
1.04806690258e-08
5.15088478618e-09
1.79654289943e-09
4.92670327331e-09
7.83656046708e-09
2.20639574066e-09
2.55072913304e-09
5.58562177329e-10
5.09455622254e-10
1.04961256304e-08
3.03950369515e-09
1.04262282337e-08
7.43249608933e-09
4.5183540667e-09
1.95371615556e-08
7.10855332929e-09
4.13469796135e-09
1.24350252173e-08
2.86924934681e-09
2.06118701634e-08
7.34670473247e-09
3.14395254961e-10
9.78852952648e-09
4.04372917269e-09
1.16510242326e-09
1.49837169177e-08
2.62153137183e-08
3.94353242346e-10
2.82172013887e-08
9.62709982861e-09
4.26413743273e-09
1.07644824839e-09
1.8925088166e-08
4.20857267508e-10
1.20379532662e-08
2.57751859175e-08
4.60712811738e-09
1.41888508018e-08
1.29490153583e-09
3.86777366198e-09
1.49370040023e-08
5.63798660192e-09
1.54296331497e-08
3.5129619198e-10
1.50354789273e-08
6.24611537716e-09
9.7068537275e-10
2.83136028166e-09
4.90725203242e-09
2.14631085205e-08
3.7334468706e-09
3.09276754025e-09
2.64269663017e-09
1.96156107969e-09
8.91599655968e-09
7.87445556084e-09
1.38937430788e-08
7.01111353841e-09
1.53695314408e-08
1.40199467358e-08
8.12035680517e-09
5.62778928634e-09
6.39168004023e-10
2.89654581798e-09
8.83258112515e-09
8.99242754266e-09
8.30521138424e-09
4.65806178993e-09
3.03066149393e-09
4.99987312132e-10
5.63415035435e-09
1.00079746185e-08
4.09553670345e-09
2.3103347865e-08
1.5894666254e-08
8.36276437852e-09
2.89721022196e-08
3.21606093657e-08
4.749093986e-09
9.84085548883e-09
3.69938050992e-09
6.01372521291e-09
1.05320834921e-08
2.50736734821e-09
1.65639296406e-08
1.35576010668e-08
4.05258603687e-10
7.63475896703e-09
1.2914986142e-08
1.06519600458e-08
5.52346666444e-09
4.66954617887e-09
1.55423280695e-08
2.77639980223e-08
6.04311023961e-09
2.77593653606e-08
1.40631390862e-08
1.22585043223e-08
1.73974974882e-10
1.4361462471e-09
5.46178309298e-09
1.24154320627e-08
1.32658863047e-09
2.79153958884e-09
2.50665486978e-08
1.9357722488e-08
1.03918721901e-09
1.48801044222e-08
1.81008607363e-08
2.16992529059e-08
1.44831137296e-08
1.24103684498e-08
1.61134227978e-08
6.80413106242e-10
3.54324539248e-09
6.42081929864e-09
1.92177868867e-08
1.41722464484e-08
1.00030785724e-08
5.1043756232e-09
3.45662917837e-09
1.44322522437e-10
1.16276246864e-08
8.32760801423e-09
3.12575046153e-09
1.13372702438e-08
5.08545034424e-09
2.84794939355e-08
1.14471271934e-08
6.25676866405e-09
5.30504306052e-09
1.89389729529e-08
1.26093456477e-08
8.7653628689e-09
1.25858150069e-09
9.2276988888e-09
7.75503040239e-09
3.68296075629e-09
6.53641716372e-09
4.13681768641e-09
7.10345303564e-09
1.50437088064e-09
9.66568401716e-09
2.96022052589e-09
4.01692153071e-09
1.15975316967e-08
3.89242474936e-09
5.65233196132e-09
1.29214197122e-08
4.30504720348e-09
8.15639940208e-09
1.94789822498e-08
1.83457476021e-08
7.51302339912e-09
2.29795732758e-08
1.78878504815e-08
1.17274157361e-08
3.27485964367e-09
5.37594285655e-09
7.06095657604e-09
6.03553910729e-09
8.43863165506e-10
2.68890234473e-09
5.22900245027e-09
6.98724299903e-09
4.43124319206e-09
8.64890130329e-10
4.17693561841e-09
3.97459019922e-09
5.88051018457e-09
3.62240794271e-08
2.88276596737e-08
2.70810641233e-09
1.48950347933e-08
3.4450323339e-09
1.14042100528e-08
8.36563126518e-09
6.20206245604e-09
5.75213797706e-09
4.79591248377e-09
1.66560550267e-08
3.42005672744e-09
5.02218219677e-09
2.87900366533e-08
3.02066150407e-08
6.81276380973e-09
8.19478652075e-09
6.06206352958e-09
1.71859053646e-08
1.73152663877e-08
8.78154967887e-09
2.01068172823e-08
1.03866427575e-08
4.37347897519e-09
3.95975079674e-09
1.63448725866e-08
1.21822749222e-09
3.77789719988e-09
9.63071543608e-09
1.12406989934e-08
1.81444270625e-09
2.68377668183e-09
8.75916087664e-10
1.07518782514e-08
9.65013754251e-09
2.67357295826e-09
1.53281234747e-08
1.93582306091e-09
1.604135553e-08
1.39271925184e-08
2.92985195954e-09
4.74406047806e-09
4.91739144628e-09
2.10810474301e-09
2.21245015506e-09
2.08946055541e-09
2.1141292961e-08
1.18479502453e-08
2.52104627963e-08
8.42523901361e-09
4.53916044427e-09
1.62651673601e-08
5.9274520043e-09
5.05704977717e-09
1.47374738617e-08
1.68410602919e-08
6.15766455219e-09
7.97625583875e-09
8.69522553712e-09
7.91678822938e-10
4.32176338121e-09
9.57576940004e-09
1.11762372654e-08
3.73578873767e-09
2.18237909146e-09
4.01461182278e-09
9.50531997559e-09
3.13037631772e-08
2.02977715168e-09
5.89274073376e-09
1.11797870792e-08
5.90593825258e-09
1.05986167064e-08
1.33542586558e-08
1.42265729315e-08
9.04817996427e-09
7.96035898538e-10
6.20470419537e-09
7.87865771741e-09
7.7929123156e-09
3.24461386743e-09
4.59185304559e-09
8.19078576992e-10
2.05536887101e-08
9.15271199201e-09
1.63924147877e-08
1.46770471112e-08
1.2467912436e-08
1.53212058283e-08
1.77412298206e-10
2.31793533931e-09
7.78658334508e-09
2.70128700264e-09
8.90028025694e-10
8.71320755957e-10
9.71338069492e-09
8.19731941554e-09
4.60080802764e-10
2.56346460782e-10
1.16132371745e-08
2.28663104027e-08
2.4966381275e-08
4.49164947589e-09
8.33050287762e-09
5.81215888118e-10
1.22719752852e-09
2.85082883007e-09
1.69290478967e-08
6.24296192144e-09
1.08556882585e-08
2.93894166776e-10
8.32589257366e-09
7.54086327124e-09
4.45734649843e-09
2.02687261763e-08
8.7477579652e-10
4.89107904138e-09
1.02185636101e-09
1.68272393438e-09
1.91050972416e-08
6.37032499988e-09
1.23893220487e-08
1.73726594446e-09
2.01957581792e-09
2.8161722789e-09
6.51789854833e-10
7.81928464104e-09
1.26366459411e-09
1.44418426588e-08
1.71213033748e-09
6.91916500005e-10
4.91760459409e-09
4.56560726846e-09
1.11433374414e-08
3.73797382466e-09
1.03774727964e-08
7.20264478909e-10
3.24805274471e-09
2.80379408059e-09
2.86924599578e-09
7.33382082663e-10
4.86766195488e-10
6.50258626127e-09
8.79707894267e-10
1.1173969677e-08
4.74430921477e-09
7.79305060284e-10
3.34778801378e-09
2.75815295952e-09
8.39897140688e-09
9.83649938697e-09
6.46807720663e-09
2.64468978197e-09
2.94483973846e-09
2.68537103873e-10
7.48755550556e-09
2.07798718334e-09
7.98228919212e-09
2.31786291126e-09
1.77123208853e-09
4.68588341089e-09
6.80395151349e-09
1.01082923391e-08
1.10311109575e-08
5.50487945003e-09
7.22070744441e-09
4.10807748494e-10
7.02090526437e-09
6.29476819395e-09
2.62956501676e-08
3.85796917553e-09
5.02595826992e-09
5.01177922549e-10
6.99648437522e-09
2.37348268788e-09
9.45685279599e-09
1.17621198702e-09
3.09834817331e-08
1.69990500991e-08
2.72243265323e-09
1.09920787477e-08
5.88205585604e-09
6.1296339185e-09
2.61784270308e-09
5.10055802079e-09
3.06221017319e-09
3.36323099431e-08
1.21401139405e-08
5.9533601161e-09
5.27010667548e-09
1.33286998455e-08
2.17294553035e-09
5.6503430323e-09
1.105711513e-08
1.99906782111e-09
3.75853622534e-09
6.61611688834e-09
1.51823131695e-08
1.51663369598e-08
5.42520172869e-09
3.05452333786e-09
2.9322915466e-09
5.18977521274e-09
7.80950736973e-09
1.85200940823e-08
1.20078661812e-08
7.9995392321e-09
5.26628462616e-09
4.50419139111e-09
1.17259461728e-08
2.18161763588e-08
5.05317962447e-09
7.21977887019e-09
1.53451674324e-09
5.92532619678e-09
1.0718517845e-08
5.78100558469e-09
9.32328736989e-09
4.99750607831e-09
2.92981645983e-09
1.50163957318e-09
1.41846708543e-08
3.43963201243e-09
9.57862704133e-09
6.3145657714e-09
8.58673615955e-10
1.00926484164e-08
8.85425377697e-10
5.98571707504e-09
2.8158576223e-09
8.73237079555e-09
4.24963479635e-10
2.44984823288e-09
1.68719911448e-09
1.02810209647e-08
1.6629174191e-09
5.07324684764e-09
7.87459624597e-09
9.39118355575e-09
2.14167845174e-09
3.18038722725e-09
7.00613137928e-10
9.2425758842e-09
9.8516545743e-09
1.9721220468e-08
1.52435565212e-08
4.74093637562e-09
8.71233412053e-09
9.74879356737e-10
8.45474687069e-09
7.18132248322e-09
2.59783244903e-09
1.03495516792e-08
2.77482874393e-09
2.53907218481e-08
2.1930983958e-08
2.56313916552e-09
3.02319130729e-09
1.18511928704e-08
7.12673783023e-09
6.66759109624e-09
2.91657358775e-09
6.06649830413e-09
2.18857445259e-09
8.85174916429e-09
1.46092696349e-08
7.29707045422e-10
5.01273518708e-09
4.4871009773e-09
3.56145694295e-09
1.74885234867e-08
2.53132671046e-09
2.90493440964e-09
4.8914396297e-09
1.19086152561e-08
6.65862656015e-09
5.06392405812e-09
3.20267641731e-09
1.17173165893e-09
3.7866754587e-08
1.54594700099e-08
8.53709432493e-09
3.26470442452e-09
7.30326736018e-09
1.8802160427e-08
8.79501406401e-09
6.06883211166e-09
3.23548664136e-09
1.34309546574e-08
8.50456670922e-09
3.06896148606e-08
1.96862287359e-08
1.07319808539e-08
7.94307304672e-09
1.27457525988e-08
9.2377062379e-09
2.34581830097e-08
2.67145331827e-09
8.77172133481e-09
1.63995978599e-08
1.31700088227e-08
2.17565289889e-10
9.5424888994e-09
2.89345302189e-09
1.12919173718e-08
8.32145532472e-09
1.32180238348e-08
4.6184760804e-09
4.13956227379e-10
1.59511134378e-08
8.03319631634e-09
1.04314176888e-09
7.37422601242e-09
4.37990497796e-09
1.44372715348e-11
3.81634280144e-08
5.26832024579e-09
2.10070000535e-09
1.03767029841e-08
4.69483809807e-09
1.16613087411e-08
3.07269323555e-09
1.08486024183e-08
1.26749318248e-08
7.38622267276e-09
4.35424876942e-09
1.50756976531e-09
1.04707972526e-08
3.8257190285e-09
1.33879535418e-09
3.26347555079e-09
4.21261727545e-09
1.02257122971e-09
2.82510167053e-09
9.96135361489e-09
4.45061704607e-09
8.34309296093e-09
9.57986082635e-09
9.65312092656e-09
1.23147559354e-08
3.12205383461e-09
4.4716584203e-10
2.23423050972e-08
9.62421263483e-09
3.36697623956e-10
7.32386047938e-09
2.14418923611e-09
4.21746941349e-09
4.23299981272e-09
9.29793014689e-09
3.11704697868e-09
1.37533407545e-09
1.88543842386e-08
9.23463349324e-10
1.81864700427e-09
1.0723194476e-08
1.0997241536e-08
1.10450213111e-08
1.00301421035e-08
5.69837214758e-10
5.45279820943e-09
4.37714608764e-09
1.20648051631e-08
1.38767144828e-09
3.63406545404e-09
7.57428117644e-09
2.27602804619e-08
1.00956563046e-08
3.29809760075e-09
5.72711268377e-09
1.15428784371e-08
5.74806657254e-09
8.49598412424e-09
3.45914053813e-09
2.07800491885e-09
6.79423319948e-09
2.2051212865e-08
1.05516668783e-08
2.25552145563e-09
1.33099731357e-09
1.76229217068e-09
6.5267453025e-09
2.69183312081e-09
2.39605253986e-08
2.79060153991e-09
1.85300661282e-09
5.84121549625e-09
4.24142590788e-09
7.92968165496e-09
1.23029137899e-08
5.43409093616e-09
9.8912886498e-09
1.9879454319e-08
3.20312793649e-09
7.1571750232e-09
2.6904100388e-09
1.03268221932e-09
4.62698001679e-09
1.10868849329e-09
4.85617382741e-09
7.62599311114e-09
1.36230120667e-08
1.41999077098e-08
1.1605043851e-09
5.43850531513e-09
4.17564972889e-09
1.34564010559e-09
1.84820327262e-09
1.76293382944e-09
5.09410625358e-09
7.96224223238e-09
5.08876137041e-09
5.05388492046e-09
1.33922472581e-08
1.47808612001e-09
3.326350764e-10
1.89844682125e-10
7.38186829282e-09
1.00050524418e-08
9.97199656557e-09
4.48541633029e-09
9.18068024307e-09
1.07337980966e-08
6.93631058541e-09
1.82343823117e-08
1.13378318256e-09
1.45714923579e-09
9.83153408028e-09
4.85075072943e-09
8.80433594972e-09
7.77129110375e-09
7.52686599041e-09
7.25488638732e-09
1.14702018881e-08
8.55582794459e-09
7.73568570961e-09
2.39974623722e-09
9.88703353999e-10
3.71114171651e-09
2.01408803448e-10
1.1670002301e-08
4.82174113776e-09
6.56005975351e-11
1.06608003201e-09
3.2153271943e-09
9.10296401333e-09
4.09674893352e-10
1.73963060536e-09
4.63782274854e-09
1.99839635534e-09
1.02888925367e-08
6.49149887125e-10
9.83160139574e-10
4.85602799659e-09
3.82950846702e-09
3.66327905959e-09
1.172834261e-08
9.70852673822e-09
1.21725254047e-08
9.31527700757e-09
5.3198515674e-09
3.18955826343e-09
4.55572355683e-09
4.86033856053e-09
7.65897767168e-09
2.95406102991e-10
2.35558043247e-08
7.42101197279e-10
2.72895771441e-09
5.97620734689e-09
1.60792294064e-08
1.14768586323e-08
1.60341592125e-08
4.17317940251e-09
3.62061337744e-09
1.99169919849e-09
4.95091567424e-09
3.69328187317e-09
4.11442192809e-09
1.04034222952e-08
7.34457916006e-09
9.91985911451e-09
3.95814999932e-09
6.36900751547e-09
7.35886490934e-09
2.35918907901e-09
4.00796429445e-10
6.17748042623e-09
1.22289397415e-08
3.53693894679e-09