# vtk DataFile Version 3.0
File Name: Molecule/sphere_cent/sphere_cent_0-s17.vtk
ASCII
DATASET UNSTRUCTURED_GRID
FIELD FieldData 1
TIME 1 1 double
0.0
POINTS 226 double
0.33763456345 -0.50432497263 -0.79471045732
0.065567366779 -0.50681138039 -0.85957825184
0.17074035108 -0.25934350491 -0.9505495429
-0.11968025565 -0.24914754927 -0.96077555418
0.0086948415264 0.025203289464 -0.99956339598
0.49248385429 0.82177609205 0.28629282117
0.42740297318 0.688801229 0.58555042744
0.68643963337 0.58998221159 0.42507812381
0.5896602869 0.42908605933 0.68422883749
0.28900843859 0.49643799663 0.81846779585
0.82334256172 0.28995761275 0.48779559135
0.76599729061 0.37292796373 -0.52311325073
0.55654382706 0.4550408721 -0.69508129358
0.65664118528 0.61916708946 -0.43057408929
0.41505739093 0.69590002298 -0.58604562283
0.28046807647 0.49734282494 -0.82087111473
0.482444942 0.8283982873 -0.28420037031
-0.54131668806 -0.26522299647 0.7977719903
-0.32899013162 -0.48755514622 0.80869865417
-0.34903916717 -0.16496364772 0.92217534781
-0.019204258919 -0.53122496605 0.84554767609
-0.15177598596 -0.31791383028 0.93538886309
0.14867840707 -0.26932325959 0.95146876574
-0.93777489662 0.15658205748 0.30831244588
-0.95477318764 -0.14536970854 0.25874325633
-0.86708068848 -0.045353807509 0.49600380659
-0.8373324275 -0.27617356181 0.4713678956
0.02563575469 0.99955612421 -0.0037326177116
-0.23795840144 0.96133685112 -0.13257838786
-0.24702909589 0.9573110342 0.14955426753
-0.47474467754 0.87933707237 -0.014668862335
-0.65098839998 0.58335381746 0.48463177681
-0.54083484411 0.47811684012 0.69198870659
-0.4186245203 0.66564720869 0.61708766222
-0.30512362719 0.49069026113 0.81616616249
0.50539129972 -0.860879004 0.054917018861
0.23998118937 -0.95920628309 0.1431581527
0.29512932897 -0.93746775389 -0.17468239367
-0.51523429155 -0.80580478907 -0.29054197669
-0.29619961977 -0.94071614742 -0.15496569872
-0.54579412937 -0.83756792545 0.004166004248
-0.28478828073 -0.94784575701 0.14301171899
-0.50934052467 -0.80495727062 0.30433219671
-0.24307271838 -0.8651740551 0.43860188127
-0.029907818884 -0.96189135313 0.27174857259
-0.0056393644772 -0.99890297651 -0.010716447607
0.099082522094 -0.82385963202 0.55773818493
-0.43431285024 -0.69175940752 0.57683950663
-0.63956564665 -0.62266623974 0.45045289397
-0.56273722649 -0.49319827557 0.6632591486
-0.1842096597 -0.71232360601 0.67719841003
-0.94690471888 -0.10345308483 -0.30344292521
-0.93923389912 0.15106190741 -0.30758801103
-0.8606313467 0.0043822457083 -0.50778180361
-0.82829105854 0.3104172647 -0.46629026532
-0.80040180683 0.54179149866 -0.25579798222
-0.92163825035 0.34854274988 -0.16985350847
-0.29620668292 0.49980136752 -0.81387013197
-0.53509247303 0.45708605647 -0.71023219824
-0.42472708225 0.66046988964 -0.61759454012
-0.67542517185 0.55397289991 -0.48579260707
-0.36580592394 -0.51787745953 -0.77304792404
-0.44473919272 -0.6606952548 -0.60397958755
-0.60349535942 -0.4384213388 -0.66587555408
-0.64509624243 -0.61540454626 -0.45203280449
0.52326476574 0.00023517664522 0.85216677189
0.44391188025 -0.25500392914 0.85895055532
0.68687701225 -0.15816771984 0.70936340094
0.58711647987 -0.43763059378 0.68100774288
0.32371616364 -0.51361507177 0.79373377562
0.78198206425 -0.33030834794 0.52858936787
0.45402106643 -0.67057704926 0.5865842104
0.68380045891 -0.57599490881 0.44795566797
0.51033657789 -0.7913351655 0.33527463675
0.86488503218 -0.42054760456 0.27281761169
0.71931540966 -0.66617113352 0.19686542451
0.85238778591 -0.52035343647 -0.030739242211
0.86596345901 -0.034821283072 0.49810943007
0.69963181019 0.13779045641 0.70106637478
-0.26478216052 0.04612743482 -0.96318620443
-0.1432659477 0.28649118543 -0.94729191065
-0.39590445161 0.2572709918 -0.88150066137
-0.57032072544 -0.053246233612 -0.81969249249
0.42492249608 0.24988907576 0.86999964714
0.27851775289 0.011076590046 0.96031868458
-0.056179907173 0.86255317926 0.50209981203
-0.13712289929 0.68050295115 0.7197496891
0.13786162436 0.71190953255 0.68856847286
-0.0048033911735 0.50293761492 0.86428153515
-0.15996961296 0.28109320998 0.94620496035
0.13804930449 0.27690881491 0.95089542866
0.0096196671948 0.048800297081 0.99876832962
-0.496938169 0.26007434726 0.82764023542
-0.27605000138 0.042398922145 0.95996320248
-0.0075129102916 0.51111775637 -0.85947173834
0.13432222605 0.71269267797 -0.68838137388
-0.1389143616 0.6853377223 -0.71482539177
-0.055600956082 0.86213904619 -0.50368738174
0.23873117566 0.87221986055 0.42676836252
0.23617129028 0.87448495626 -0.42346286774
0.13586936891 0.27705386281 -0.95118838549
0.27597275376 0.95124989748 0.13750870526
0.033447958529 0.96446073055 0.26054444909
0.45086431503 -0.66874331236 -0.59116888046
0.20803083479 -0.71066504717 -0.67207837105
0.28160199523 -0.83903127909 -0.46554997563
0.50980472565 -0.7752378583 -0.37290400267
-0.029333971441 -0.87882292271 -0.47584360838
0.53523534536 -0.001570606255 -0.84467852116
0.2884593606 0.011098037474 -0.95739775896
0.39046764374 0.25398555398 -0.88484352827
0.45041757822 -0.25581923127 -0.8553237319
-0.26773428917 0.87454783916 0.40277004242
0.85212755203 0.52325123549 -0.0069478144869
0.67668288946 0.72515612841 -0.12719850242
0.7047393322 0.69502788782 0.14220951498
0.49898523092 0.86659109592 0.0027756378986
0.27420014143 0.95151638985 -0.13937625289
0.040675371885 0.96490979195 -0.25933635235
0.99779289961 -0.020771326497 0.056159213185
0.96101850271 0.27271708846 0.045164331794
0.94595986605 0.16348542273 0.28006705642
0.86688762903 0.43512928486 0.24310320616
0.67187792063 -0.19743202627 -0.71385204792
0.58292639256 -0.44931039214 -0.67695116997
0.78681766987 -0.34130376577 -0.51403158903
0.81900006533 -0.060139380395 -0.57057827711
0.70725816488 0.064334876835 -0.70396286249
0.90320080519 0.38570702076 -0.18800985813
0.96654814482 0.17698231339 -0.1852208674
0.66709089279 -0.58656680584 -0.45920962095
0.82936441898 -0.4733864367 -0.29676169157
0.71342009306 -0.66057682037 -0.23383766413
0.93778824806 -0.24870164692 -0.23970758915
0.90841847658 -0.11852239817 -0.40070298314
0.91544675827 0.073536239564 -0.39561182261
0.97306728363 -0.036080468446 -0.22523887455
0.82188379765 0.16169069707 -0.54623073339
0.88762897253 0.26931655407 -0.3736153543
0.97294181585 -0.22668613493 -0.034366611391
-0.71147155762 -0.17527896166 0.68029123545
0.55334073305 -0.81738090515 -0.16020661592
0.6986758709 -0.71467101574 -0.031900703907
-0.76438391209 -0.46295261383 0.44869598746
-0.70277529955 -0.35108843446 0.61870467663
-0.73001199961 0.014019086957 0.68324178457
-0.52395343781 -0.0025332355872 0.85155814886
-0.72718751431 0.15421585739 -0.66877985001
-0.69412845373 0.35554823279 -0.62593632936
-0.59037703276 0.23144975305 -0.77331161499
-0.15609450638 -0.53422731161 -0.83074057102
-0.22162547708 -0.67941153049 -0.6982665062
-0.025731371716 -0.70849025249 -0.70486432314
-0.24750287831 -0.79423242807 -0.55465090275
0.81552857161 0.44987052679 -0.36406517029
0.5854575038 0.21645481884 -0.78127902746
0.70446264744 0.26604148746 -0.65800273418
-0.83275347948 0.31583064795 0.45454755425
-0.82366627455 0.1541389823 0.54573076963
-0.70248711109 0.36102774739 0.61334836483
-0.67964345217 0.17773735523 0.71145397425
0.79477584362 0.56334501505 -0.22579467297
-0.28611209989 -0.36767211556 -0.88483703136
-0.3561424613 -0.16619178653 -0.91957509518
-0.46586355567 -0.30022615194 -0.83111292124
-0.11567110568 -0.12481079251 0.98537415266
-0.85224676132 -0.52130478621 0.0043923016638
-0.87959492207 -0.40744826198 0.24505016208
-0.96164178848 -0.2711930275 0.035775355995
-0.99954903126 -0.015095156617 0.0085801845416
-0.75423318148 -0.61362153292 0.23370008171
-0.71648782492 -0.69614100456 0.009335690178
-0.88328456879 -0.26854321361 -0.38388475776
-0.83117365837 -0.14709496498 -0.53603470325
-0.98676139116 0.093306913972 -0.13264749944
-0.98520034552 -0.11478175223 -0.12751431763
-0.93598902225 -0.31449851394 -0.15756759048
-0.85754865408 -0.44052863121 -0.26496517658
-0.77058893442 -0.45160624385 -0.44950991869
-0.69312024117 -0.18397332728 -0.69590681791
-0.78636223078 -0.28715994954 -0.54611635208
-0.74579566717 -0.61647307873 -0.24664306641
-0.86470556259 0.42252784967 0.27172496915
-0.54473006725 0.82021546364 -0.17419815063
-0.36937108636 0.89554333687 -0.24778755009
-0.53350156546 0.83029937744 0.16160875559
-0.45305967331 0.82989037037 0.32447218895
-0.60542619228 0.7174128294 0.34470286965
-0.68015372753 0.7329877615 -0.0033570798114
-0.69586181641 0.69880175591 0.16571243107
-0.85453814268 0.51928389072 0.0015549730742
-0.70162832737 0.69096374512 -0.17358775437
-0.61571288109 0.70353454351 -0.35487675667
-0.44514727592 0.76458162069 0.46595928073
-0.77394604683 0.45901927352 0.43641203642
-0.77737319469 0.57443010807 0.25585025549
-0.45501810312 0.7573364377 -0.46820884943
-0.47311726213 0.81618529558 -0.33162993193
-0.98584204912 0.10457510501 0.13143593073
-0.93517351151 0.32586836815 0.1390594244
-0.96526664495 0.26086324453 -0.0077935094014
-0.29717075825 -0.86715000868 -0.39956116676
-0.46118035913 -0.76059389114 -0.45668825507
0.90091574192 -0.22378566861 0.37179595232
0.95679479837 -0.06027982384 0.28443661332
0.95790404081 -0.228658095 0.17375685275
0.91915309429 -0.37351077795 -0.12460647523
0.92887502909 -0.36520689726 0.062300343066
-0.2906883657 0.86006075144 -0.41912221909
-0.16552513838 0.92948526144 -0.32949286699
-0.25429672003 0.78829205036 0.56022578478
0.37051358819 -0.89163333178 0.26034551859
0.18850925565 -0.91356492043 0.36013656855
0.31475657225 -0.83096313477 0.4575202167
-0.25711604953 0.78510212898 -0.56337285042
0.22221890092 -0.68920594454 0.68888145685
0.15366834402 -0.53997522593 0.82763385773
0.051222033799 -0.69080871344 0.72128134966
0.12866830826 -0.93615722656 -0.32693761587
-0.017481697723 -0.96810752153 -0.24975678325
0.13585071266 -0.98487627506 -0.1081301719
-0.66386789083 -0.73700273037 -0.1251398325
-0.14555174112 -0.98434609175 -0.099592991173
-0.16027796268 -0.9360679388 -0.31312206388
-0.73547774553 -0.032766174525 -0.67682188749
-0.79989886284 -0.58810913563 -0.11843521893

CELLS 448 1792
3 0 1 2
3 1 3 2
3 2 3 4
3 5 6 7
3 6 8 7
3 6 9 8
3 7 8 10
3 11 12 13
3 12 14 13
3 12 15 14
3 13 14 16
3 17 18 19
3 18 20 21
3 20 22 21
3 23 24 25
3 25 24 26
3 27 28 29
3 28 30 29
3 31 32 33
3 33 32 34
3 35 36 37
3 38 39 40
3 39 41 40
3 40 41 42
3 42 41 43
3 41 44 43
3 41 45 44
3 43 44 46
3 42 47 48
3 47 49 48
3 47 18 49
3 42 43 47
3 43 50 47
3 43 46 50
3 47 50 18
3 18 50 20
3 36 44 45
3 51 52 53
3 53 52 54
3 55 54 56
3 57 58 59
3 58 60 59
3 61 62 63
3 62 64 63
3 65 66 67
3 66 68 67
3 66 69 68
3 67 68 70
3 69 71 68
3 71 72 68
3 71 73 72
3 68 72 70
3 70 72 74
3 72 75 74
3 72 73 75
3 74 75 76
3 70 77 67
3 77 78 67
3 77 10 78
3 67 78 65
3 4 79 80
3 79 81 80
3 79 82 81
3 80 81 57
3 3 79 4
3 65 78 83
3 8 78 10
3 69 66 22
3 22 66 84
3 35 75 73
3 57 81 58
3 85 86 87
3 86 88 87
3 86 34 88
3 87 88 9
3 34 89 88
3 89 90 88
3 89 91 90
3 88 90 9
3 89 92 93
3 9 90 83
3 90 84 83
3 90 91 84
3 83 84 65
3 15 94 95
3 94 96 95
3 94 57 96
3 95 96 97
3 85 87 98
3 6 87 9
3 9 83 8
3 8 83 78
3 15 95 14
3 14 95 99
3 65 84 66
3 22 84 91
3 34 86 33
3 59 96 57
3 57 94 80
3 80 94 100
3 5 101 98
3 101 102 98
3 101 27 102
3 98 102 85
3 0 103 104
3 103 105 104
3 103 106 105
3 104 105 107
3 108 109 110
3 109 100 110
3 109 4 100
3 110 100 15
3 4 109 2
3 2 109 111
3 0 104 1
3 5 98 6
3 6 98 87
3 12 110 15
3 85 102 112
3 29 102 27
3 37 105 106
3 15 100 94
3 80 100 4
3 113 114 115
3 114 116 115
3 114 16 116
3 115 116 5
3 16 99 117
3 99 118 117
3 99 97 118
3 117 118 27
3 119 120 121
3 120 122 121
3 120 113 122
3 121 122 10
3 108 123 111
3 123 124 111
3 123 125 124
3 111 124 0
3 125 123 126
3 126 123 127
3 113 120 128
3 129 120 119
3 108 111 109
3 2 111 0
3 113 115 122
3 7 115 5
3 10 122 7
3 7 122 115
3 16 114 13
3 97 99 95
3 14 99 16
3 27 118 28
3 77 121 10
3 16 117 116
3 101 117 27
3 5 116 101
3 101 116 117
3 0 124 103
3 103 124 130
3 125 131 130
3 131 132 130
3 131 76 132
3 130 132 106
3 133 131 125
3 126 134 125
3 125 134 133
3 126 135 134
3 135 136 134
3 135 129 136
3 134 136 133
3 126 137 135
3 137 138 135
3 137 11 138
3 135 138 129
3 133 136 139
3 136 129 119
3 26 140 25
3 106 141 37
3 141 35 37
3 76 142 132
3 142 141 132
3 142 35 141
3 132 141 106
3 48 49 143
3 26 144 140
3 144 17 140
3 144 49 17
3 145 140 146
3 18 17 49
3 54 147 53
3 58 148 60
3 148 54 60
3 54 148 147
3 148 149 147
3 148 58 149
3 147 149 82
3 35 142 75
3 75 142 76
3 82 149 81
3 81 149 58
3 125 130 124
3 103 130 106
3 1 150 3
3 61 150 151
3 150 152 151
3 150 1 152
3 151 152 153
3 13 154 11
3 11 154 138
3 108 155 127
3 155 156 127
3 155 12 156
3 127 156 137
3 157 158 159
3 158 145 160
3 158 25 145
3 160 145 146
3 25 158 23
3 23 158 157
3 31 159 32
3 32 92 34
3 34 92 89
3 32 159 92
3 159 160 92
3 160 159 158
3 92 160 146
3 61 151 62
3 107 152 104
3 104 152 1
3 12 155 110
3 110 155 108
3 113 161 114
3 114 161 13
3 137 156 11
3 11 156 12
3 108 127 123
3 126 127 137
3 138 128 129
3 129 128 120
3 113 128 161
3 128 154 161
3 128 138 154
3 161 154 13
3 17 146 140
3 140 145 25
3 3 162 163
3 162 164 163
3 162 61 164
3 163 164 82
3 146 19 93
3 19 165 93
3 19 21 165
3 93 165 91
3 91 165 22
3 22 165 21
3 166 167 168
3 24 167 26
3 169 168 24
3 24 168 167
3 48 170 42
3 40 42 171
3 166 170 167
3 170 143 167
3 170 48 143
3 167 143 26
3 172 51 173
3 52 51 174
3 169 175 168
3 175 176 168
3 175 51 176
3 168 176 166
3 166 176 177
3 176 172 177
3 176 51 172
3 177 172 178
3 82 164 179
3 63 164 61
3 64 178 63
3 63 178 180
3 180 178 172
3 178 181 177
3 178 64 181
3 38 181 64
3 3 163 79
3 79 163 82
3 146 93 92
3 89 93 91
3 26 143 144
3 144 143 49
3 21 19 18
3 17 19 146
3 61 162 150
3 150 162 3
3 157 182 23
3 183 30 184
3 30 185 29
3 29 185 186
3 186 185 187
3 185 188 189
3 185 30 188
3 189 188 190
3 30 183 188
3 183 191 188
3 191 183 192
3 188 191 190
3 187 31 193
3 157 194 182
3 194 195 182
3 194 31 195
3 182 195 190
3 190 195 189
3 195 187 189
3 195 31 187
3 189 187 185
3 59 60 196
3 197 192 183
3 192 55 191
3 192 60 55
3 191 55 190
3 54 55 60
3 31 194 159
3 159 194 157
3 23 198 24
3 198 169 24
3 169 198 174
3 198 199 200
3 198 23 199
3 200 199 190
3 38 201 39
3 52 174 56
3 174 200 56
3 200 174 198
3 56 200 190
3 62 202 64
3 202 38 64
3 38 202 201
3 202 153 201
3 202 62 153
3 201 153 107
3 74 203 70
3 70 203 77
3 119 204 205
3 204 203 205
3 204 77 203
3 205 203 74
3 77 204 121
3 121 204 119
3 107 153 152
3 151 153 62
3 169 174 175
3 175 174 51
3 190 199 182
3 182 199 23
3 52 56 54
3 55 56 190
3 76 206 207
3 206 139 207
3 206 133 139
3 207 139 205
3 186 112 29
3 29 112 102
3 197 184 208
3 184 209 208
3 184 28 209
3 208 209 97
3 186 193 112
3 193 210 112
3 193 33 210
3 112 210 85
3 73 211 35
3 35 211 36
3 36 211 212
3 211 213 212
3 211 73 213
3 212 213 46
3 36 212 44
3 44 212 46
3 97 214 208
3 214 196 208
3 214 59 196
3 208 196 197
3 46 213 215
3 71 213 73
3 85 210 86
3 86 210 33
3 59 214 96
3 96 214 97
3 97 209 118
3 118 209 28
3 133 206 131
3 131 206 76
3 28 184 30
3 183 184 197
3 33 193 31
3 187 193 186
3 197 196 192
3 192 196 60
3 205 139 119
3 119 139 136
3 76 207 74
3 74 207 205
3 20 216 22
3 216 69 22
3 69 216 215
3 216 217 215
3 216 20 217
3 215 217 46
3 107 218 219
3 218 220 219
3 218 37 220
3 219 220 45
3 45 220 36
3 36 220 37
3 40 221 38
3 38 221 181
3 166 171 170
3 170 171 42
3 39 222 41
3 222 45 41
3 45 222 219
3 222 223 219
3 222 39 223
3 219 223 107
3 46 217 50
3 50 217 20
3 180 173 179
3 173 224 179
3 173 53 224
3 179 224 82
3 180 179 63
3 63 179 164
3 69 215 71
3 71 215 213
3 37 218 105
3 105 218 107
3 82 224 147
3 147 224 53
3 53 173 51
3 172 173 180
3 181 225 177
3 177 225 166
3 166 225 171
3 225 221 171
3 225 181 221
3 171 221 40
3 107 223 201
3 201 223 39

CELL_TYPES 448
5
5
5
5
5
5
5
5
5
5
5
5
5
5
5
5
5
5
5
5
5
5
5
5
5
5
5
5
5
5
5
5
5
5
5
5
5
5
5
5
5
5
5
5
5
5
5
5
5
5
5
5
5
5
5
5
5
5
5
5
5
5
5
5
5
5
5
5
5
5
5
5
5
5
5
5
5
5
5
5
5
5
5
5
5
5
5
5
5
5
5
5
5
5
5
5
5
5
5
5
5
5
5
5
5
5
5
5
5
5
5
5
5
5
5
5
5
5
5
5
5
5
5
5
5
5
5
5
5
5
5
5
5
5
5
5
5
5
5
5
5
5
5
5
5
5
5
5
5
5
5
5
5
5
5
5
5
5
5
5
5
5
5
5
5
5
5
5
5
5
5
5
5
5
5
5
5
5
5
5
5
5
5
5
5
5
5
5
5
5
5
5
5
5
5
5
5
5
5
5
5
5
5
5
5
5
5
5
5
5
5
5
5
5
5
5
5
5
5
5
5
5
5
5
5
5
5
5
5
5
5
5
5
5
5
5
5
5
5
5
5
5
5
5
5
5
5
5
5
5
5
5
5
5
5
5
5
5
5
5
5
5
5
5
5
5
5
5
5
5
5
5
5
5
5
5
5
5
5
5
5
5
5
5
5
5
5
5
5
5
5
5
5
5
5
5
5
5
5
5
5
5
5
5
5
5
5
5
5
5
5
5
5
5
5
5
5
5
5
5
5
5
5
5
5
5
5
5
5
5
5
5
5
5
5
5
5
5
5
5
5
5
5
5
5
5
5
5
5
5
5
5
5
5
5
5
5
5
5
5
5
5
5
5
5
5
5
5
5
5
5
5
5
5
5
5
5
5
5
5
5
5
5
5
5
5
5
5
5
5
5
5
5
5
5
5
5
5
5
5
5
5
5
5
5
5
5
5
5
5
5
5
5
5
5
5
5
5
5
5
5
5
5
5
5
5
5
5
5
5
5
5
5
5
5
5
5
5
5
5
5
5
5
5
5
5
5
5

CELL_DATA 448
SCALARS cell_data_0 double
LOOKUP_TABLE default
7.74769647465e-08
2.88145770171e-08
2.07958996658e-07
4.66684793511e-07
2.50157861592e-07
3.18352260068e-07
4.991300619e-07
2.08347817987e-07
2.1535230092e-07
2.19407415502e-07
1.95199155502e-07
4.12216787684e-07
2.02314680005e-08
1.93493959538e-07
1.26108264614e-07
1.33888322592e-07
8.64906462097e-08
1.29218601288e-07
1.84708160691e-09
3.05952729623e-08
3.44687292729e-07
9.85603137988e-08
2.37676215757e-07
7.31773520597e-08
1.01206361223e-07
2.62093815404e-08
5.9564382981e-08
4.07245794716e-07
1.11356934278e-07
1.98739998655e-07
1.25018149867e-08
4.3475553004e-08
1.48108616559e-07
2.92548131687e-07
3.25894120825e-08
1.80999062606e-07
7.85086090374e-08
8.46754636598e-08
1.48317372117e-08
2.89287074825e-07
1.80722749999e-07
4.69666696878e-08
6.91343390285e-08
8.59203111472e-09
1.00276624257e-07
8.63431426582e-09
1.38504352803e-08
9.25424108513e-08
9.07496931096e-08
3.47688918059e-08
6.24773128469e-08
8.9607508344e-08
2.82392571075e-08
5.15090965711e-08
1.87442429259e-08
2.48010671293e-07
8.9322411297e-08
1.13955580704e-07
2.14996121001e-07
1.18501613593e-07
3.68046136533e-08
1.57237415239e-07
2.822883706e-07
7.74549199178e-08
1.91219757739e-07
2.86208400036e-08
1.4290793671e-07
2.97309873332e-07
2.03463217595e-07
1.4805741976e-07
1.29606586328e-07
4.03440986177e-08
3.97579015733e-08
2.82066266673e-08
8.57384046017e-08
3.74636028209e-08
4.52841917729e-08
1.06367137743e-08
8.08963828547e-08
4.44554640681e-07
4.92715099642e-08
1.42136891998e-07
3.81908635619e-08
1.07761821417e-07
2.68848236394e-08
5.20407128637e-08
7.94941141267e-08
2.76575581453e-08
2.086616696e-07
1.39374786543e-07
5.74641120835e-08
1.5398848185e-07
4.61622373923e-08
8.92524357392e-08
4.56437256567e-08
2.05660799169e-07
4.43877632406e-08
4.2312970236e-08
4.33776927738e-08
1.65426777304e-08
6.91996348767e-08
3.01221571492e-08
1.52749809443e-07
1.95903108753e-08
7.35817337863e-08
8.58497235607e-08
1.32443217159e-07
2.04984004864e-07
6.43736909481e-08
4.94167763048e-09
6.31473244391e-08
5.24154861448e-08
9.44717577402e-08
1.96362513718e-07
8.19256803596e-08
1.95762052398e-07
1.92121633456e-07
1.81526263984e-07
1.49033528945e-07
5.77135502905e-08
1.54678445242e-07
4.77697671844e-08
1.14486606662e-07
8.80682140006e-08
3.29184734057e-08
6.55663736547e-08
2.31816674669e-08
5.33396870357e-09
8.38271840431e-09
2.98205374928e-08
1.23748838068e-07
3.34468794585e-08
3.66375310462e-08
5.89114469922e-08
4.27990570424e-08
1.4549582544e-08
1.56017616687e-07
1.52301802757e-08
4.68395264251e-08
4.43461967555e-08
3.27754045701e-08
6.53674726081e-08
8.56205410392e-09
4.40045207531e-08
1.32518221078e-07
3.59834003745e-08
1.57547349731e-07
3.43393511124e-07
2.34307114715e-07
1.54752370354e-07
1.16698444782e-07
1.24704966784e-07
9.4669250021e-08
1.96982039522e-07
1.51787516941e-08
6.42814505206e-08
4.87117369392e-09
6.55389966613e-08
3.47701543075e-08
2.26182653819e-08
4.33108916145e-08
4.98637543036e-08
1.03174242936e-07
3.6648128472e-09
5.20912128106e-09
1.36304729755e-07
5.14151803071e-08
1.32876752566e-07
4.89608035922e-08
4.59055097697e-08
1.49823938774e-07
6.60334698341e-08
4.3111613465e-08
6.26554752114e-08
3.83018401271e-08
7.83355280477e-10
4.81973314128e-08
2.01963331591e-08
7.15381958272e-08
5.27391164865e-08
1.18958969861e-08
7.38872534706e-08
1.04352971107e-07
6.17214057602e-08
5.34918478204e-08
4.84411692856e-08
3.72380514695e-09
1.67431469041e-08
6.75151875457e-08
9.19857015574e-08
1.25926421148e-07
9.28392751484e-08
4.57823894073e-08
3.55607876527e-08
4.8144235567e-08
7.54813626945e-08
3.07372213431e-08
1.13024338562e-08
1.25508340282e-08
7.8250995031e-08
1.1652531956e-07
2.4936638676e-08
6.50629838101e-08
8.06227226787e-08
1.02248965902e-07
2.11438803854e-08
6.80640682872e-08
6.03897286849e-08
8.38532678252e-08
1.10105261526e-07
1.06338593814e-07
8.20235967962e-08
6.9280279719e-08
4.49951441853e-08
7.61053398899e-08
2.2001838912e-08
5.12446828284e-08
4.02247092907e-08
5.07391805616e-09
1.30712016901e-07
6.41068193156e-08
1.18829306835e-07
3.64293464967e-07
1.97068185841e-07
2.01596873305e-07
9.03382761257e-08
7.0287688447e-08
7.13287020112e-08
1.9116007652e-07
3.83611642653e-08
7.00833822636e-08
1.01006287709e-07
8.01597314615e-08
7.47824863238e-08
1.49796704192e-07
1.0037078257e-07
1.89019646157e-08
9.06519835676e-08
8.09225674148e-08
1.14097659772e-07
1.18888126475e-07
6.57301534792e-08
2.8829499737e-08
4.27408742916e-08
1.28996046145e-07
6.34220040585e-09
2.10880795639e-08
3.78768043784e-09
2.01790347932e-09
5.59510058312e-09
5.36470743573e-08
1.20193165473e-08
6.60832331725e-08
7.51456819729e-08
1.68589570247e-07
1.774464795e-08
2.74136385802e-09
3.59323126415e-08
1.41145733409e-08
6.24776775594e-08
5.69846339298e-08
2.52613163166e-07
7.07158333086e-08
3.35036513061e-08
1.10233199222e-07
1.03795854495e-07
3.78360884521e-08
4.70611088454e-08
1.3418058947e-07
1.11236664658e-07
9.7414732052e-08
4.48605354538e-09
1.0297826478e-07
2.85752783479e-08
3.34648215268e-08
1.92436236644e-08
1.7836366742e-07
5.5623262715e-08
2.54574264884e-08
4.45172810669e-08
1.05545846294e-07
1.19495127461e-07
2.67608791134e-08
1.22837184229e-07
7.39078918976e-08
4.17778307071e-08
1.87429340756e-07
3.3726382399e-08
1.11588081553e-07
2.71965233507e-08
1.70296838032e-07
2.08024536381e-08
1.13035430928e-07
2.14072808396e-08
5.58547491805e-08
5.13544906066e-10
4.55826388288e-08
7.74545991988e-08
8.40673950839e-08
5.32285589199e-08
3.73035051627e-09
1.16204368891e-08
2.48749040346e-09
8.56604816778e-08
6.63391817902e-08
2.08761641781e-08
1.24279645857e-08
1.43161164383e-07
5.28570167144e-08
1.80497447429e-08
3.3224374757e-08
1.8153078901e-08
5.56473511899e-08
5.03818151645e-08
3.31487068792e-08
1.05672193883e-07
8.95080509937e-08
5.88537899162e-08
1.43626194421e-08
3.06593707433e-08
1.59708480171e-07
2.79271642459e-08
9.46584132846e-08
5.56597716736e-08
3.97559160794e-08
6.16967713744e-08
4.75113751214e-08
1.77574842668e-08
2.43349497271e-08
6.44073691289e-08
6.45274879199e-09
6.37248829726e-09
6.45256682562e-08
5.887139351e-09
8.2109487409e-08
1.11145875682e-07
1.73766406682e-07
2.51339110137e-08
2.91792542412e-08
5.0348932865e-08
1.4789952497e-07
3.61069017381e-08
1.52638953085e-08
2.96071646374e-08
4.91095099352e-08
1.00428014891e-07
4.68762260838e-09
4.74529338276e-08
2.32773298561e-07
4.99484453289e-09
1.55014138041e-07
9.40856264113e-08
2.10735832592e-08
8.31505552674e-09
6.01647873496e-08
1.46841659428e-08
7.86998710054e-08
3.59584711962e-08
1.17030832472e-07
3.86139191128e-08
1.6631254744e-08
2.6755383013e-07
4.19950694864e-08
3.14824407308e-08
1.61009919831e-09
3.55286275475e-08
5.12072545451e-08
5.31292956331e-08
4.90498814131e-08
4.90038776288e-08
4.32615337697e-08
2.61051476725e-08
4.00745849516e-08
3.19674902667e-08
2.30776227175e-08
4.63046068668e-08
1.05534688785e-08
5.43805576513e-08
1.38530667896e-08
5.46443216729e-08
1.98359600099e-08
3.25834355943e-08
9.05558672399e-08
1.78122389484e-08
1.59498890237e-08
9.66646799201e-09
2.70226769654e-08
3.83960366854e-08
6.59679222446e-08
6.28681018146e-08
1.30825629821e-07
2.07350536295e-08
7.85804165029e-08
8.77625323775e-08
4.00742115412e-08
7.81555009349e-08
9.14309883149e-08
3.82290833549e-08
4.38898587701e-08
1.12703216035e-07
3.8553497069e-09
9.73400025985e-08
1.26765406497e-07
1.6012304517e-07
5.31896645476e-08
1.12570491096e-08
4.9289084337e-08
9.91892205744e-08
6.30632004819e-08
2.78563886985e-08
5.81897830653e-08
2.111147007e-08
1.83398908913e-08
6.61263981301e-08
1.11251574524e-07
5.93440120938e-08
3.51933239752e-08
4.30516852268e-07
2.20143842215e-08
1.73408726984e-08
4.06028600535e-08
5.00740480256e-08
6.5618651878e-09
1.18452893103e-08
2.49448579924e-08
2.37986244056e-08
2.16154134484e-08
6.75742064801e-08
3.02147564578e-08
6.00216402383e-08
3.8069284529e-08
2.91877772518e-07
4.32867342267e-08
1.42188097529e-07
2.27727910132e-08
6.76585059392e-08
1.66080129453e-08
3.31399714091e-08
5.65949055052e-08
9.45219861359e-08
4.99495734864e-08
3.20287834964e-08
4.06550057604e-08
2.9919564965e-08
2.64156900246e-08
1.02775374572e-07
5.24711832077e-08
4.04097962364e-08

