# vtk DataFile Version 3.0
File Name: Molecule/sphere_excent/sphere_excent_0-s1.vtk
ASCII
DATASET UNSTRUCTURED_GRID
FIELD FieldData 1
TIME 1 1 double
0.0
POINTS 42 double
0.85065081 -0.52573111 0.0
0.80901699 -0.30901699 -0.5
1.0 0.0 0.0
0.80901699 0.30901699 -0.5
0.52573111 0.0 -0.85065081
0.85065081 0.52573111 0.0
0.5 0.80901699 -0.30901699
0.30901699 0.5 -0.80901699
0.0 0.85065081 -0.52573111
0.5 0.80901699 0.30901699
0.0 1.0 0.0
0.0 0.85065081 0.52573111
-0.5 0.80901699 0.30901699
-0.5 0.80901699 -0.30901699
-0.85065081 0.52573111 0.0
-0.30901699 0.5 0.80901699
-0.80901699 0.30901699 0.5
-0.52573111 0.0 0.85065081
0.30901699 0.5 0.80901699
0.0 0.0 1.0
0.52573111 0.0 0.85065081
-0.30901699 -0.5 0.80901699
0.30901699 -0.5 0.80901699
0.0 -0.85065081 0.52573111
0.80901699 -0.30901699 0.5
0.5 -0.80901699 0.30901699
0.30901699 -0.5 -0.80901699
0.0 0.0 -1.0
-0.30901699 -0.5 -0.80901699
0.0 -0.85065081 -0.52573111
-0.52573111 0.0 -0.85065081
0.80901699 0.30901699 0.5
-0.80901699 -0.30901699 -0.5
-0.80901699 0.30901699 -0.5
-1.0 0.0 0.0
-0.85065081 -0.52573111 0.0
-0.30901699 0.5 -0.80901699
-0.5 -0.80901699 -0.30901699
-0.5 -0.80901699 0.30901699
0.0 -1.0 0.0
-0.80901699 -0.30901699 0.5
0.5 -0.80901699 -0.30901699

CELLS 80 320
3 0 1 2
3 1 3 2
3 1 4 3
3 2 3 5
3 5 3 6
3 3 7 6
3 3 4 7
3 6 7 8
3 5 6 9
3 6 10 9
3 6 8 10
3 9 10 11
3 11 10 12
3 10 13 12
3 10 8 13
3 12 13 14
3 11 12 15
3 12 16 15
3 12 14 16
3 15 16 17
3 11 15 18
3 15 19 18
3 15 17 19
3 18 19 20
3 17 21 19
3 21 22 19
3 21 23 22
3 19 22 20
3 20 22 24
3 22 25 24
3 22 23 25
3 24 25 0
3 4 26 27
3 26 28 27
3 26 29 28
3 27 28 30
3 0 2 24
3 2 31 24
3 2 5 31
3 24 31 20
3 5 9 31
3 9 18 31
3 9 11 18
3 31 18 20
3 30 32 33
3 32 34 33
3 32 35 34
3 33 34 14
3 8 36 13
3 36 33 13
3 36 30 33
3 13 33 14
3 35 37 38
3 37 39 38
3 37 29 39
3 38 39 23
3 35 38 40
3 38 21 40
3 38 23 21
3 40 21 17
3 17 16 40
3 16 34 40
3 16 14 34
3 40 34 35
3 30 28 32
3 28 37 32
3 28 29 37
3 32 37 35
3 29 41 39
3 41 25 39
3 41 0 25
3 39 25 23
3 4 1 26
3 1 41 26
3 1 0 41
3 26 41 29
3 4 27 7
3 27 36 7
3 27 30 36
3 7 36 8

CELL_TYPES 80
5
5
5
5
5
5
5
5
5
5
5
5
5
5
5
5
5
5
5
5
5
5
5
5
5
5
5
5
5
5
5
5
5
5
5
5
5
5
5
5
5
5
5
5
5
5
5
5
5
5
5
5
5
5
5
5
5
5
5
5
5
5
5
5
5
5
5
5
5
5
5
5
5
5
5
5
5
5
5
5

CELL_DATA 80
SCALARS cell_data_0 double
LOOKUP_TABLE default
2.72152579583e-05
1.56189630567e-05
1.7002074089e-05
2.62538725173e-06
9.14963818253e-05
0.000196043189952
3.23481219532e-05
0.000168218898307
0.000217149043336
0.000521953964421
0.000263601446243
0.000161390796947
0.0005437521319
0.00119928288773
0.00028341976566
0.000755153450828
0.000370039920959
0.000753224602412
0.000620040176667
2.77490999103e-05
6.73560573412e-05
0.000242157320676
0.000201140502127
0.00015519084515
0.000153133831968
0.000174944522931
6.51627374295e-05
0.000122458824554
4.32714391604e-05
3.89351331901e-05
3.72430768985e-05
1.64597946264e-05
1.49893831921e-06
3.08368524672e-05
2.65319983493e-05
3.02040429906e-05
8.07776700062e-06
2.85369090638e-05
1.56004996714e-05
3.6749116045e-05
3.54202315607e-05
1.81135703191e-06
4.54989880291e-06
6.81848340858e-05
8.10169197614e-06
5.49953983976e-06
8.0863937919e-07
1.24809452555e-05
0.000121115949894
0.00014185420435
7.97598751185e-06
0.000138756427592
1.47239823056e-06
5.03107571785e-07
1.00727546856e-06
1.25381443833e-05
1.56362436808e-06
4.21364758291e-05
3.95358078225e-05
7.64422357877e-05
1.84800987075e-05
6.98501808146e-05
7.42881465979e-05
3.19551964234e-06
3.01159875568e-05
2.92542032364e-05
2.5507334338e-05
9.14063016043e-07
1.00728639922e-06
1.14833475277e-05
1.98459026419e-06
1.97521252588e-05
1.23006663066e-05
1.45156775851e-05
3.22069335087e-05
1.56195644883e-06
2.49506198217e-05
2.88077053008e-05
3.16829733219e-06
3.29229172043e-05

