# vtk DataFile Version 3.0
File Name: Molecule/sphere_dip_C5/sphere_dip_C5_0-s5.vtk
ASCII
DATASET UNSTRUCTURED_GRID
FIELD FieldData 1
TIME 1 1 double
0.0
POINTS 58 double
0.0 0.850650808352 0.525731112119
-0.5 0.809016994375 0.309016994375
-0.309016994375 0.5 0.809016994375
-0.809016994375 0.309016994375 0.5
-0.525731112119 0.0 0.850650808352
0.309016994375 0.5 0.809016994375
0.0 0.0 1.0
0.525731112119 0.0 0.850650808352
-0.309016994375 -0.5 0.809016994375
0.309016994375 -0.5 0.809016994375
0.0 -0.850650808352 0.525731112119
0.809016994375 -0.309016994375 0.5
0.5 -0.809016994375 0.309016994375
0.850650808352 -0.525731112119 0.0
0.525731112119 0.0 -0.850650808352
0.309016994375 -0.5 -0.809016994375
0.0 0.0 -1.0
-0.309016994375 -0.5 -0.809016994375
0.0 -0.850650808352 -0.525731112119
-0.525731112119 0.0 -0.850650808352
1.0 0.0 0.0
0.809016994375 0.309016994375 0.5
0.850650808352 0.525731112119 0.0
0.5 0.809016994375 0.309016994375
-0.809016994375 -0.309016994375 -0.5
-0.809016994375 0.309016994375 -0.5
-1.0 0.0 0.0
-0.850650808352 -0.525731112119 0.0
-0.850650808352 0.525731112119 0.0
0.0 0.850650808352 -0.525731112119
-0.309016994375 0.5 -0.809016994375
-0.5 0.809016994375 -0.309016994375
-0.5 -0.809016994375 -0.309016994375
-0.5 -0.809016994375 0.309016994375
0.0 -1.0 0.0
-0.809016994375 -0.309016994375 0.5
0.5 -0.809016994375 -0.309016994375
0.809016994375 -0.309016994375 -0.5
0.309016994375 0.5 -0.809016994375
0.0 1.0 0.0
-0.26286555606 0.951056516295 0.162459848116
-0.26286555606 0.951056516295 -0.162459848116
-0.525731112119 0.850650808352 0.0
-0.702046444776 0.69378047756 0.16062203564
-0.702046444776 0.69378047756 -0.16062203564
0.5 0.809016994375 -0.309016994375
0.525731112119 0.850650808352 0.0
0.26286555606 0.951056516295 -0.162459848116
0.26286555606 0.951056516295 0.162459848116
0.809016994375 0.309016994375 -0.5
0.688190960236 0.587785252292 -0.425325404176
0.587785252292 0.425325404176 -0.688190960236
0.425325404176 0.688190960236 -0.587785252292
0.862668480416 -0.433888564553 -0.259891913008
0.961938357784 -0.273266528913 0.0
0.951056516295 -0.162459848116 -0.26286555606
0.850650808352 0.0 -0.525731112119
0.951056516295 0.162459848116 -0.26286555606

CELLS 112 448
3 0 1 2
3 1 3 2
3 2 3 4
3 0 2 5
3 2 6 5
3 2 4 6
3 5 6 7
3 4 8 6
3 8 9 6
3 8 10 9
3 6 9 7
3 7 9 11
3 9 12 11
3 9 10 12
3 11 12 13
3 14 15 16
3 15 17 16
3 15 18 17
3 16 17 19
3 20 21 11
3 20 22 21
3 11 21 7
3 22 23 21
3 23 5 21
3 23 0 5
3 21 5 7
3 19 24 25
3 24 26 25
3 24 27 26
3 25 26 28
3 29 30 31
3 30 25 31
3 30 19 25
3 27 32 33
3 32 34 33
3 32 18 34
3 33 34 10
3 27 33 35
3 33 8 35
3 33 10 8
3 35 8 4
3 4 3 35
3 3 26 35
3 3 28 26
3 35 26 27
3 19 17 24
3 17 32 24
3 17 18 32
3 24 32 27
3 18 36 34
3 36 12 34
3 36 13 12
3 34 12 10
3 14 37 15
3 37 36 15
3 15 36 18
3 14 16 38
3 16 30 38
3 16 19 30
3 38 30 29
3 39 40 0
3 0 40 1
3 39 41 40
3 41 42 40
3 41 31 42
3 40 42 1
3 31 41 29
3 29 41 39
3 1 42 43
3 42 44 43
3 42 31 44
3 43 44 28
3 1 43 3
3 43 28 3
3 28 44 25
3 25 44 31
3 45 46 22
3 22 46 23
3 45 47 46
3 47 48 46
3 47 39 48
3 46 48 23
3 39 47 29
3 29 47 45
3 23 48 0
3 48 39 0
3 49 50 22
3 22 50 45
3 49 51 50
3 51 52 50
3 51 38 52
3 50 52 45
3 38 51 14
3 14 51 49
3 45 52 29
3 52 38 29
3 13 53 54
3 53 55 54
3 53 37 55
3 54 55 20
3 37 56 55
3 56 57 55
3 56 49 57
3 55 57 20
3 49 56 14
3 14 56 37
3 20 57 22
3 57 49 22
3 13 54 11
3 54 20 11
3 37 53 36
3 53 13 36

CELL_TYPES 112
5
5
5
5
5
5
5
5
5
5
5
5
5
5
5
5
5
5
5
5
5
5
5
5
5
5
5
5
5
5
5
5
5
5
5
5
5
5
5
5
5
5
5
5
5
5
5
5
5
5
5
5
5
5
5
5
5
5
5
5
5
5
5
5
5
5
5
5
5
5
5
5
5
5
5
5
5
5
5
5
5
5
5
5
5
5
5
5
5
5
5
5
5
5
5
5
5
5
5
5
5
5
5
5
5
5
5
5
5
5
5
5

CELL_DATA 112
SCALARS cell_data_0 double
LOOKUP_TABLE default
0.000109946731156
0.000153417815132
0.000123293790401
0.000165736719843
0.000442854673152
0.00037161031572
0.000372111535479
0.000392600623559
0.000437644413637
0.00019450067635
0.000380539978149
0.000147954947743
0.000157655952238
0.000103441449835
1.99510128264e-05
0.000201963920109
1.86747747333e-05
7.69230877214e-05
0.00068531702292
9.62356019566e-05
8.0827003406e-05
8.3109883863e-05
2.88349509773e-05
0.000172235981145
0.00012234872553
0.000144337035703
0.000776936673777
0.000113146896198
0.000124370398841
0.000231068630985
0.000204153942172
4.33447560677e-05
0.000723093707805
9.04019586891e-06
5.83799882585e-05
4.92092789468e-05
4.41938730897e-05
3.66521293776e-05
0.000182348509948
0.000132401704949
0.000165737974296
7.63555473649e-05
4.59806881468e-05
0.000151430254794
4.55224573087e-05
0.000760971304124
4.2500153275e-05
6.60542765043e-05
6.82861612011e-05
5.2623126637e-05
3.14271076537e-05
1.78537705423e-05
2.46900386365e-05
0.00024861983283
3.72021148299e-05
6.12412799349e-05
0.000189314219448
1.14733003309e-05
0.000687902098862
0.0001822503503
1.95301065529e-05
3.02402488876e-05
1.88453838195e-06
1.45966077539e-06
6.32616137945e-06
1.23443711578e-05
0.000106067007373
8.20898456016e-05
1.12813440528e-05
3.88570353946e-06
4.1295853524e-06
3.62580986462e-05
4.13009324513e-05
4.14850947483e-05
9.20700843568e-05
1.74759247898e-05
6.23700499969e-05
4.40614966876e-05
9.22714869624e-07
4.26838990015e-06
4.91658407639e-06
1.47099232953e-05
8.27698250936e-05
8.88079282679e-05
3.56293795091e-05
2.51302497435e-05
6.8678017e-05
6.67306722839e-05
5.24349962491e-07
5.89793398269e-07
7.61027041308e-07
1.04006141922e-06
9.48030918596e-05
8.94311876618e-05
7.78765196478e-05
8.46958549619e-05
1.14603184098e-05
1.11505651416e-06
9.49385935971e-06
9.27346574356e-07
1.08410254719e-05
1.03847893758e-06
5.8238494913e-07
7.77425802942e-07
8.99861813171e-05
0.00012507358867
7.26833120049e-05
6.78372788581e-05
3.92189393123e-06
1.60280696439e-05
1.55193362632e-05
1.96617754474e-05

