# vtk DataFile Version 3.0
File Name: Molecule/sphere_cent/sphere_cent_0-s2.vtk
ASCII
DATASET UNSTRUCTURED_GRID
FIELD FieldData 1
TIME 1 1 double
0.0
POINTS 162 double
1.7013015747 -1.0514621735 -1.0099508785e-08
1.7256970406 -0.87005537748 -0.51440179348
1.9221675396 -0.55218583345 0.00013108387066
1.9020745754 -0.3196798861 -0.52894872427
1.6180135012 -0.61802619696 -0.99998736382
1.9999747276 -3.5074023685e-09 7.5418063261e-07
1.7045457363 0.00015010347124 -1.0461255312
1.9020708799 0.31973794103 -0.52891933918
1.6180127859 0.61802750826 -0.99998778105
1.3846590519 -0.31776049733 -1.407618165
1.3845626116 0.31785205007 -1.4076926708
1.0514621735 9.0796277163e-09 -1.7013015747
1.9222145081 0.5520259738 -0.00026584637817
1.7257585526 0.86992222071 -0.51442831755
1.7013015747 1.0514622927 3.216102229e-08
1.4077743292 1.3844938278 -0.31778454781
1.373118639 1.1755487919 -0.85586065054
0.99998706579 1.6180138588 -0.61802554131
1.1754580736 0.85587108135 -1.3731886148
0.85580974817 1.3731496334 -1.1755470037
0.61802488565 0.99998688698 -1.6180143356
0.87013834715 0.51450008154 -1.72562778
0.51459115744 1.7255564928 -0.87022525072
0.31806486845 1.4077744484 -1.3844311237
-5.5903914387e-08 1.7013015747 -1.0514622927
1.4078541994 1.3843640089 0.31799769402
1.0462056398 1.7044999599 1.1189456018e-05
0.99998754263 1.6180131435 0.618026793
0.5288515687 1.9021036625 -0.31965854764
0.52891755104 1.902072072 0.3197324872
-1.5821950683e-06 1.9999747276 1.6894716737e-09
0.00013461749768 1.9221993685 -0.55207961798
0.51442670822 1.7258226871 0.86979460716
0.00013050399139 1.922203064 0.55206829309
-3.4741201027e-09 1.7013015747 1.0514621735
-0.51439255476 1.7256377935 0.87017995119
-0.52895510197 1.9020711184 0.31968563795
-0.99998754263 1.6180130243 0.618026793
-0.5290235281 1.9020386934 -0.31976026297
-1.0462604761 1.704464674 -2.8594204196e-06
-0.99998784065 1.6180127859 -0.61802744865
-0.51441848278 1.7257592678 -0.8699260354
-1.4076234102 1.3846518993 0.31776875257
-1.4076938629 1.3845616579 -0.31785365939
-1.7013015747 1.0514622927 -5.313612661e-09
-0.31778025627 1.4077712297 1.384498477
-0.85586321354 1.3731119633 1.1755543947
-0.61802560091 0.99998706579 1.6180138588
-1.3731883764 1.1754615307 0.85586684942
-1.1755472422 0.85580962896 1.3731496334
-1.6180143356 0.61802488565 0.99998688698
-1.7256265879 0.87014096975 0.51449948549
-0.87022519112 0.51459109783 1.725556612
-1.3844311237 0.31806486845 1.4077744484
-1.0514621735 -5.376178791e-08 1.7013015747
0.31786546111 1.4078490734 1.3844001293
6.186167866e-06 1.0462030172 1.7045016289
0.61802619696 0.99998730421 1.6180135012
-0.31965836883 0.52885180712 1.9021036625
0.31973195076 0.52891689539 1.9020721912
1.8974338545e-08 -1.5941659512e-06 1.9999747276
-0.55207955837 0.00013461642084 1.9221993685
0.86979401112 0.51442676783 1.7258229256
0.55206829309 0.00013048603432 1.922203064
1.0514621735 -2.3442110475e-08 1.7013015747
-0.87018156052 -0.51439249516 1.7256370783
-0.31968510151 -0.52895480394 1.9020712376
-0.618026793 -0.99998760223 1.6180130243
0.00014812772861 -1.0461264849 1.7045452595
0.31982383132 -0.52881997824 1.9020862579
0.61802744865 -0.99998784065 1.6180126667
-0.31776085496 -1.4076184034 1.3846586943
0.3178524673 -1.4076925516 1.3845626116
9.1175103023e-09 -1.7013015747 1.0514621735
0.86992669106 -0.51441907883 1.7257591486
1.3844941854 -0.31778368354 1.4077744484
1.175547719 -0.8558613658 1.3731187582
1.6180135012 -0.61802619696 0.99998736382
0.85587155819 -1.3731884956 1.1754578352
1.3731478453 -1.1755481958 0.85581070185
0.99998688698 -1.6180143356 0.61802488565
0.51450020075 -1.72562778 0.87013834715
1.7254943848 -0.87035322189 0.51458621025
1.4077751637 -1.3844320774 0.31806209683
0.86997526884 -0.51431208849 -1.7257651091
0.55223661661 4.3948593884e-06 -1.9221539497
0.31967389584 -0.52895241976 -1.9020744562
0.61802554131 -0.99998706579 -1.6180138588
-1.9231420012e-08 -5.4113726833e-08 -1.9999747276
-0.00015086166968 -1.0461252928 -1.7045458555
-0.31973803043 -0.52892011404 -1.9020705223
-0.61802750826 -0.99998778105 -1.6180127859
0.3177601397 -1.4076179266 -1.3846595287
-0.31785207987 -1.4076926708 -1.3845624924
-2.563267465e-08 -1.7013015747 -1.0514621735
-0.55202579498 -0.00026651986991 -1.9222146273
-0.86992222071 -0.51442837715 -1.7257584333
-1.0514622927 1.2114576009e-10 -1.7013015747
1.9020668268 -0.31969124079 0.52896553278
1.9020410776 0.31975868344 0.52901536226
1.7044036388 -3.4812223021e-05 1.0463635921
1.6180135012 0.61802619696 0.99998730421
1.7258322239 0.86983454227 0.51433080435
1.3845906258 0.31772243977 1.4076958895
1.3731253147 1.175534606 0.85586798191
0.85568517447 1.3731350899 1.1756585836
1.1755441427 0.85559397936 1.3732919693
-1.3844937086 -0.31778454781 -1.4077743292
-1.3843648434 0.31799656153 -1.4078537226
-1.7045007944 9.8447153505e-06 -1.0462052822
-1.618013978 -0.61802554131 -0.99998700619
-1.6180135012 0.61802619696 -0.99998730421
-1.9021155834 -0.31952399015 -0.52888089418
-1.9020715952 0.31973490119 -0.52891790867
-1.9999747276 9.944274737e-09 7.5759788842e-07
-1.7258287668 -0.86978340149 -0.51442527771
-1.9222028255 -0.55206763744 -0.00013327183842
-1.7013015747 -1.0514621735 2.2591876814e-08
-1.7258918285 0.86971211433 -0.51433765888
-1.9221892357 0.55211937428 -0.00025716578239
-0.31785872579 1.4078469276 -1.3844038248
-0.85586506128 1.3731199503 -1.1755437851
-0.61802625656 0.99998724461 -1.6180135012
-1.1756926775 0.85578483343 -1.3730401993
-1.3732967377 1.175538063 -0.85559457541
-0.87026357651 0.51449507475 -1.7255675793
-1.4077757597 -1.3844920397 -0.31778532267
-1.4078537226 -1.3843648434 0.31799659133
-1.0462052822 -1.704500556 1.0403070519e-05
-0.99998694658 -1.6180143356 -0.61802488565
-0.99998730421 -1.6180136204 0.61802619696
-0.52888047695 -1.9021158218 -0.31952172518
-0.52891796827 -1.9020717144 0.31973469257
7.8559912708e-07 -1.9999747276 4.7354240529e-09
-0.51433724165 -1.725897193 -0.86970132589
-0.00013072106231 -1.9222029448 -0.55206894875
-0.51433700323 -1.7258906364 0.86971455812
-0.00025715059019 -1.9221893549 0.55211925507
-1.7257087231 -0.8700928092 0.51430553198
-1.373118639 -1.1755405664 0.85587114096
-1.6180135012 -0.61802625656 0.99998736382
-0.85567754507 -1.3731366396 1.1756625175
-1.1755120754 -0.85572332144 1.3732353449
-1.3843398094 -0.31813064218 1.4078505039
-1.7044955492 -5.0571534302e-06 1.0462119579
-1.9021202326 0.31974464655 0.52874606848
-1.9020773172 -0.3199429214 0.52878504992
-1.1755468845 -0.85586166382 -1.3731187582
-0.85577094555 -1.3732862473 -1.1754198074
-1.3732888699 -1.175547719 -0.85559386015
0.51430559158 -1.72570467 -0.87010002136
0.5289516449 -1.9020729065 -0.3196798861
0.99998730421 -1.6180135012 -0.61802625656
1.0462341309 -1.7044807673 0.00019049437833
0.52878391743 -1.9020762444 0.31995299459
1.407687664 -1.3846029043 -0.31770578027
1.1755481958 -0.85585784912 -1.3731200695
1.3731276989 -1.1756714582 -0.85567933321
0.85559546947 -1.373285532 -1.17555058
0.31968218088 0.52895545959 -1.9020711184
-0.31989678741 0.52898436785 -1.9020284414
-1.7664933694e-06 1.0464749336 -1.7043373585

CELLS 320 1280
3 0 1 2
3 1 3 2
3 1 4 3
3 2 3 5
3 4 6 3
3 6 7 3
3 6 8 7
3 3 7 5
3 4 9 6
3 9 10 6
3 9 11 10
3 6 10 8
3 5 7 12
3 7 13 12
3 7 8 13
3 12 13 14
3 14 13 15
3 13 16 15
3 13 8 16
3 15 16 17
3 8 18 16
3 18 19 16
3 18 20 19
3 16 19 17
3 8 10 18
3 10 21 18
3 10 11 21
3 18 21 20
3 17 19 22
3 19 23 22
3 19 20 23
3 22 23 24
3 14 15 25
3 15 26 25
3 15 17 26
3 25 26 27
3 17 28 26
3 28 29 26
3 28 30 29
3 26 29 27
3 17 22 28
3 22 31 28
3 22 24 31
3 28 31 30
3 27 29 32
3 29 33 32
3 29 30 33
3 32 33 34
3 34 33 35
3 33 36 35
3 33 30 36
3 35 36 37
3 30 38 36
3 38 39 36
3 38 40 39
3 36 39 37
3 30 31 38
3 31 41 38
3 31 24 41
3 38 41 40
3 37 39 42
3 39 43 42
3 39 40 43
3 42 43 44
3 34 35 45
3 35 46 45
3 35 37 46
3 45 46 47
3 37 48 46
3 48 49 46
3 48 50 49
3 46 49 47
3 37 42 48
3 42 51 48
3 42 44 51
3 48 51 50
3 47 49 52
3 49 53 52
3 49 50 53
3 52 53 54
3 34 45 55
3 45 56 55
3 45 47 56
3 55 56 57
3 47 58 56
3 58 59 56
3 58 60 59
3 56 59 57
3 47 52 58
3 52 61 58
3 52 54 61
3 58 61 60
3 57 59 62
3 59 63 62
3 59 60 63
3 62 63 64
3 54 65 61
3 65 66 61
3 65 67 66
3 61 66 60
3 67 68 66
3 68 69 66
3 68 70 69
3 66 69 60
3 67 71 68
3 71 72 68
3 71 73 72
3 68 72 70
3 60 69 63
3 69 74 63
3 69 70 74
3 63 74 64
3 64 74 75
3 74 76 75
3 74 70 76
3 75 76 77
3 70 78 76
3 78 79 76
3 78 80 79
3 76 79 77
3 70 72 78
3 72 81 78
3 72 73 81
3 78 81 80
3 77 79 82
3 79 83 82
3 79 80 83
3 82 83 0
3 11 84 85
3 84 86 85
3 84 87 86
3 85 86 88
3 87 89 86
3 89 90 86
3 89 91 90
3 86 90 88
3 87 92 89
3 92 93 89
3 92 94 93
3 89 93 91
3 88 90 95
3 90 96 95
3 90 91 96
3 95 96 97
3 0 2 82
3 2 98 82
3 2 5 98
3 82 98 77
3 5 99 98
3 99 100 98
3 99 101 100
3 98 100 77
3 5 12 99
3 12 102 99
3 12 14 102
3 99 102 101
3 77 100 75
3 100 103 75
3 100 101 103
3 75 103 64
3 14 25 102
3 25 104 102
3 25 27 104
3 102 104 101
3 27 105 104
3 105 106 104
3 105 57 106
3 104 106 101
3 27 32 105
3 32 55 105
3 32 34 55
3 105 55 57
3 101 106 103
3 106 62 103
3 106 57 62
3 103 62 64
3 97 107 108
3 107 109 108
3 107 110 109
3 108 109 111
3 110 112 109
3 112 113 109
3 112 114 113
3 109 113 111
3 110 115 112
3 115 116 112
3 115 117 116
3 112 116 114
3 111 113 118
3 113 119 118
3 113 114 119
3 118 119 44
3 24 120 41
3 120 121 41
3 120 122 121
3 41 121 40
3 122 123 121
3 123 124 121
3 123 111 124
3 121 124 40
3 122 125 123
3 125 108 123
3 125 97 108
3 123 108 111
3 40 124 43
3 124 118 43
3 124 111 118
3 43 118 44
3 117 126 127
3 126 128 127
3 126 129 128
3 127 128 130
3 129 131 128
3 131 132 128
3 131 133 132
3 128 132 130
3 129 134 131
3 134 135 131
3 134 94 135
3 131 135 133
3 130 132 136
3 132 137 136
3 132 133 137
3 136 137 73
3 117 127 138
3 127 139 138
3 127 130 139
3 138 139 140
3 130 141 139
3 141 142 139
3 141 67 142
3 139 142 140
3 130 136 141
3 136 71 141
3 136 73 71
3 141 71 67
3 140 142 143
3 142 65 143
3 142 67 65
3 143 65 54
3 54 53 143
3 53 144 143
3 53 50 144
3 143 144 140
3 50 145 144
3 145 146 144
3 145 114 146
3 144 146 140
3 50 51 145
3 51 119 145
3 51 44 119
3 145 119 114
3 140 146 138
3 146 116 138
3 146 114 116
3 138 116 117
3 97 96 107
3 96 147 107
3 96 91 147
3 107 147 110
3 91 148 147
3 148 149 147
3 148 129 149
3 147 149 110
3 91 93 148
3 93 134 148
3 93 94 134
3 148 134 129
3 110 149 115
3 149 126 115
3 149 129 126
3 115 126 117
3 94 150 135
3 150 151 135
3 150 152 151
3 135 151 133
3 152 153 151
3 153 154 151
3 153 80 154
3 151 154 133
3 152 155 153
3 155 83 153
3 155 0 83
3 153 83 80
3 133 154 137
3 154 81 137
3 154 80 81
3 137 81 73
3 11 9 84
3 9 156 84
3 9 4 156
3 84 156 87
3 4 157 156
3 157 158 156
3 157 152 158
3 156 158 87
3 4 1 157
3 1 155 157
3 1 0 155
3 157 155 152
3 87 158 92
3 158 150 92
3 158 152 150
3 92 150 94
3 11 85 21
3 85 159 21
3 85 88 159
3 21 159 20
3 88 160 159
3 160 161 159
3 160 122 161
3 159 161 20
3 88 95 160
3 95 125 160
3 95 97 125
3 160 125 122
3 20 161 23
3 161 120 23
3 161 122 120
3 23 120 24

CELL_TYPES 320
5
5
5
5
5
5
5
5
5
5
5
5
5
5
5
5
5
5
5
5
5
5
5
5
5
5
5
5
5
5
5
5
5
5
5
5
5
5
5
5
5
5
5
5
5
5
5
5
5
5
5
5
5
5
5
5
5
5
5
5
5
5
5
5
5
5
5
5
5
5
5
5
5
5
5
5
5
5
5
5
5
5
5
5
5
5
5
5
5
5
5
5
5
5
5
5
5
5
5
5
5
5
5
5
5
5
5
5
5
5
5
5
5
5
5
5
5
5
5
5
5
5
5
5
5
5
5
5
5
5
5
5
5
5
5
5
5
5
5
5
5
5
5
5
5
5
5
5
5
5
5
5
5
5
5
5
5
5
5
5
5
5
5
5
5
5
5
5
5
5
5
5
5
5
5
5
5
5
5
5
5
5
5
5
5
5
5
5
5
5
5
5
5
5
5
5
5
5
5
5
5
5
5
5
5
5
5
5
5
5
5
5
5
5
5
5
5
5
5
5
5
5
5
5
5
5
5
5
5
5
5
5
5
5
5
5
5
5
5
5
5
5
5
5
5
5
5
5
5
5
5
5
5
5
5
5
5
5
5
5
5
5
5
5
5
5
5
5
5
5
5
5
5
5
5
5
5
5
5
5
5
5
5
5
5
5
5
5
5
5
5
5
5
5
5
5
5
5
5
5
5
5
5
5
5
5
5
5
5
5
5
5
5
5
5
5
5
5
5
5

CELL_DATA 320
SCALARS cell_data_0 double
LOOKUP_TABLE default
5.13294053729e-09
4.28708540972e-08
8.77348479149e-09
8.84533399246e-09
9.97096791347e-08
7.94893635302e-08
7.53680558983e-08
7.56277492247e-08
6.62571141457e-09
4.54210451638e-09
4.99040866245e-08
1.19428480656e-08
4.40513612594e-08
1.75527406255e-08
1.5235424222e-08
3.3657232542e-08
1.46273104499e-08
2.59198898482e-08
5.71965952089e-09
3.06752739282e-09
1.00822400144e-07
1.05189775687e-07
7.58674790854e-08
1.00083399585e-07
1.09898333563e-08
8.85820549968e-09
4.49750462617e-08
2.30601429625e-08
1.1446600976e-08
1.52816059765e-08
1.71552234207e-08
2.96689028633e-08
3.07790269998e-08
1.52934159959e-08
2.31605115692e-08
5.0005286738e-08
5.97632184623e-08
6.25476379295e-08
6.05037309951e-08
5.71819562251e-08
2.40904846538e-08
6.68066139128e-09
2.44024209557e-08
2.44964074582e-08
7.93155084913e-09
4.00013499779e-08
1.14520037248e-08
4.30324375712e-09
2.99240170456e-09
1.89077536476e-08
3.12922666749e-08
4.43311452522e-08
3.42830294475e-08
3.75907759952e-08
5.4142894469e-08
1.44098506943e-08
2.47190955659e-08
3.55115790522e-09
2.53365024065e-08
3.04011740526e-08
4.76033582858e-08
3.90279370483e-09
2.6507211723e-08
9.18231792121e-09
6.22428979776e-09
4.10908259144e-08
1.28483850224e-08
9.1290320749e-09
7.38896575168e-08
1.03306304628e-07
8.77424786108e-08
1.00177581137e-07
3.05328438639e-08
3.10875165232e-09
2.94761120756e-08
2.39963218859e-08
7.13909567596e-09
5.43048466476e-09
2.07247883278e-08
3.14176899655e-08
2.63430891192e-08
5.44352342612e-09
5.34876927324e-09
2.57172751034e-08
8.27194881192e-08
8.64922576366e-08
9.92380703899e-08
8.31381820875e-08
4.36414759257e-09
2.55667899577e-08
1.2969491581e-08
8.29051504898e-09
2.04364661325e-09
2.98334963263e-08
9.78192180147e-09
8.44476191571e-09
2.95443384779e-08
3.90789213751e-09
2.69222356413e-08
4.65006250002e-09
7.68298173322e-08
5.64191546214e-08
3.44384153984e-08
7.12795773924e-08
2.79670147181e-08
4.83440449334e-10
1.70290903743e-08
3.14631635839e-08
1.09449235136e-08
8.69483037897e-09
4.31539014362e-08
8.61437438677e-09
8.76057920016e-09
4.10909999335e-08
1.0981908799e-08
5.97132618274e-09
7.69880367694e-08
1.0451678289e-07
6.16171355487e-08
9.34841049769e-08
2.6296701623e-08
3.83295610534e-08
1.30668377659e-08
1.11391323409e-08
2.95850732178e-08
1.50875787506e-08
4.52895778092e-08
3.62055496495e-08
4.92159129844e-08
5.4695314923e-09
4.07475598329e-08
7.89100051567e-09
6.37248445578e-08
6.67481714815e-08
6.11967475428e-08
5.97298428727e-08
4.33120717478e-08
1.285989179e-08
6.59642213197e-08
2.34801832581e-08
2.72915432361e-08
6.62238843872e-09
2.46041438531e-08
2.62172626884e-08
1.66341393314e-08
1.34131549583e-08
2.28349785311e-08
4.8626454835e-08
5.83321143995e-08
5.83055130143e-08
7.75697161407e-08
5.43258731112e-08
2.65376468218e-08
1.7787748134e-08
4.90277154463e-08
2.5964628117e-08
9.26089301319e-09
4.09024626135e-09
2.57502287703e-08
2.9592127825e-08
4.99295707387e-08
1.6949229102e-08
3.02292492011e-08
2.57813933041e-08
7.87989125714e-08
8.73919587276e-08
8.56076434437e-08
8.2614735768e-08
4.97030093733e-09
8.30965152722e-09
2.71922751951e-08
2.36442378592e-08
2.35261801336e-08
7.63702659407e-09
3.95122920891e-09
3.00497154484e-08
1.5355501929e-08
4.06008155444e-08
7.6302251401e-09
9.47537630619e-09
8.50042950273e-08
6.51470735082e-08
6.18623964871e-08
7.54586332376e-08
7.40321283194e-09
4.02557304681e-09
2.93404865338e-08
2.38380811666e-08
3.21391649836e-08
1.30453871555e-08
2.26277474517e-08
2.45362125438e-08
2.50410311987e-08
8.82376425301e-09
2.18160963899e-08
2.5942456611e-08
3.91064011265e-08
6.27316311471e-08
7.20130919284e-08
7.7819811515e-08
4.88789746538e-08
2.4889106179e-09
3.00222184525e-08
1.22288040755e-08
1.02088083864e-08
6.02769915678e-09
1.42731177433e-08
2.47163671712e-08
4.67592845257e-08
1.6762231646e-08
3.19014786815e-08
4.74578771805e-08
7.71573454284e-08
8.68988401162e-08
6.34037429581e-08
5.92076694695e-08
6.50456640384e-09
2.98175340513e-08
2.61081897447e-08
2.30084865309e-08
2.16870508127e-08
9.13385202226e-09
4.39983927113e-08
1.36524989396e-08
3.01193627868e-08
1.46793339827e-08
6.42930217968e-08
2.96230264763e-08
1.54601120132e-08
4.25779908683e-08
6.28827435626e-08
5.76183280362e-08
4.31993991129e-08
1.04085315053e-08
1.18721037662e-08
4.35495577446e-08
2.83542295782e-08
1.43172678201e-08
2.32955034794e-08
4.97758650626e-08
4.9735863938e-08
3.39390632655e-08
4.1736077743e-08
4.80792308369e-08
4.13198847799e-08
2.03700731392e-08
4.10582684439e-08
3.69810798506e-08
4.35106232021e-08
1.30314229792e-08
2.51299737148e-08
2.21613208487e-08
2.93759600825e-08
1.48827088851e-08
4.2615273268e-08
2.87782074485e-08
1.50848757942e-08
1.9478895005e-08
2.36446841301e-08
1.32310643141e-08
3.7190571784e-08
4.02951677026e-08
5.61024323807e-08
6.13859510138e-08
4.52036565876e-08
1.34804831188e-08
4.49408245869e-08
2.83120630096e-08
7.22884295029e-09
4.25329156809e-09
2.80823300476e-08
2.93883618877e-08
4.55558640104e-08
4.770276241e-09
2.59161458006e-08
2.68043213548e-08
5.99980203417e-08
3.76629912826e-08
1.37902279788e-08
3.37227528078e-08
2.17831437822e-08
1.31040166474e-08
1.5738701791e-08
6.52325598858e-08
6.59915950665e-08
2.29797520688e-09
3.31346376679e-08
3.32613347175e-09
4.86195587488e-08
1.84199105802e-08
2.79949445762e-08
6.7754306543e-08
3.85298431749e-08
1.82591849925e-08
4.03205477447e-08
1.46485024564e-08
2.2733184341e-08
9.27217101356e-09
4.02578358909e-09
2.28760363772e-08
6.53609421505e-08
3.48629818505e-08
4.33290434475e-08
6.55177321403e-08
2.8971066914e-08
5.0054288145e-09
2.99418943204e-08
4.36219859366e-08
3.50056776461e-08
1.72931513198e-08
1.47136993917e-08
1.47000035252e-08
2.7399920546e-08
3.17401071562e-09
2.95390564771e-08
4.82520953935e-08
4.94813750055e-08
3.38023546794e-09
4.3082231595e-08
9.91179254181e-09

