# vtk DataFile Version 3.0
File Name: Molecule/sphere_excent/sphere_excent_0-s27.vtk
ASCII
DATASET UNSTRUCTURED_GRID
FIELD FieldData 1
TIME 1 1 double
0.0
POINTS 1072 double
-0.23750014603 0.95492297411 -0.17736802995
-0.44274929166 0.88921135664 -0.099941432476
-0.28586569428 0.95786601305 -0.0026867939159
-0.93505525589 0.16078931093 -0.31608611345
-0.94424021244 0.30935171247 -0.11135371029
-0.84763038158 0.4391862452 -0.29773819447
-0.21863673627 -0.68078804016 0.69908088446
-0.26556789875 -0.74212557077 0.6153190732
-0.14645810425 -0.76130783558 0.63160568476
-0.10693065077 -0.68690848351 0.7186806798
-0.28636360168 -0.93775594234 0.19549526274
-0.45029750466 -0.86972004175 0.2017968148
-0.36810538173 -0.92800480127 0.05400711298
-0.68013209105 0.12486925721 0.72236955166
-0.74526083469 0.18527987599 0.64039832354
-0.7575494051 0.075851812959 0.6483719945
0.60987216234 -0.23977510631 0.75536549091
0.64263761044 -0.3070409596 0.70195323229
0.67274695635 -0.21917641163 0.70629626513
-0.089097321033 0.026801632717 0.99542397261
-0.16278502345 0.031295262277 0.98614901304
-0.12987707555 -0.035550978035 0.99089848995
0.68410652876 0.50728839636 0.5239636898
0.74333417416 0.56233602762 0.36197689176
0.6400423646 0.62929666042 0.4407504499
0.59391140938 0.73398637772 0.32881972194
0.53591257334 0.70420771837 0.46566444635
0.43580135703 -0.83207762241 0.34210464358
0.44371470809 -0.87883716822 0.17404536903
0.56925773621 -0.78004223108 0.25690248609
-0.41445797682 -0.26135480404 0.87173545361
-0.33394527435 -0.31567043066 0.88815551996
-0.36329445243 -0.20536671579 0.90873384476
-0.70274525881 -0.32575783134 0.63241875172
-0.70470690727 -0.23394834995 0.66981184483
-0.78075581789 -0.23043978214 0.58044844866
-0.64624255896 -0.29376763105 0.70411026478
-0.74091982841 -0.141367957 0.65652734041
0.10804813355 -0.056856427342 0.99251019955
0.13871721923 0.00038424227387 0.99027901888
0.067735791206 -0.0056852139533 0.9976863265
-0.082606203854 -0.44582599401 0.891292274
-0.087403252721 -0.53063815832 0.84307527542
-0.00097077677492 -0.47995662689 0.87727987766
-0.25371941924 -0.29478105903 0.92124271393
-0.25112649798 -0.35847645998 0.89905101061
-0.31495204568 -0.40828818083 0.8566300869
-0.415007025 -0.58078229427 0.70024114847
-0.33011633158 -0.61200094223 0.71844661236
-0.38132113218 -0.53330427408 0.75505691767
-0.39116510749 -0.37503144145 0.8404212594
-0.19676154852 -0.52479690313 0.82816392183
-0.15935395658 -0.47139689326 0.86733072996
0.45357698202 -0.83451902866 -0.30987215042
0.64334571362 -0.75299727917 -0.13711225986
0.50757437944 -0.85710346699 -0.086600936949
0.61401838064 -0.78553050756 0.074644111097
0.69050651789 0.27722045779 0.6681099534
0.7323910594 0.18139660358 0.65625053644
0.7478544116 0.28177765012 0.60094344616
0.66503340006 0.19641345739 0.72038471699
-0.19911465049 0.89114511013 0.40765154362
-0.24831391871 0.81471997499 0.52318876982
-0.082056678832 0.88277065754 0.46247312427
-0.31719613075 0.86880367994 0.380212605
-0.44664901495 0.83302670717 0.32622417808
-0.37082576752 0.80194836855 0.46819797158
-0.56593948603 0.77976232767 0.2676256299
-0.47931805253 0.76888680458 0.42285659909
0.045678630471 0.75848317146 0.65008026361
0.041539270431 0.83411026001 0.54999881983
-0.051011562347 0.77950650454 0.62431836128
0.85501480103 0.075133413076 0.51277732849
0.79658722878 0.15503779054 0.58413767815
0.77644342184 0.086977429688 0.6233612895
0.17351704836 0.77100598812 0.61267465353
0.16911797225 0.83883422613 0.51731902361
0.29432424903 0.77118313313 0.56444561481
0.28984877467 0.69214093685 0.66099840403
-0.8824711442 0.042854588479 0.4683907032
-0.92862790823 -0.0708623752 0.36415606737
-0.86392825842 -0.077302508056 0.49728262424
-0.94973820448 -0.19257992506 0.24628707767
-0.89307129383 -0.21200966835 0.39601796865
-0.52513259649 0.83924335241 0.13365057111
-0.18130947649 -0.1842854917 0.96600025892
-0.16176784039 -0.10908326507 0.98077523708
-0.23052561283 -0.13071839511 0.96424347162
-0.20369899273 -0.055738262832 0.97746300697
0.37715744972 0.70317697525 0.60262256861
0.34219840169 0.81649446487 0.46499302983
0.42293077707 0.75159531832 0.50610256195
0.60796272755 0.47442406416 0.63624882698
0.69729024172 0.38949617743 0.60169821978
0.3548156321 -0.25796699524 0.89829188585
0.36490020156 -0.33521923423 0.86854922771
0.42481470108 -0.29581740499 0.85556823015
0.45108947158 -0.37936887145 0.80766743422
0.39036175609 -0.38649436831 0.83548372984
0.49603563547 -0.30716004968 0.81213670969
0.42653429508 -0.50149643421 0.75264388323
0.49614948034 -0.44127315283 0.74771267176
0.41194865108 -0.43800070882 0.79888391495
0.0084491772577 0.49040231109 0.8714389801
-0.019105205312 0.56006145477 0.82819002867
-0.06527684629 0.51457649469 0.85490614176
0.076724842191 0.44329825044 0.89307850599
0.093732781708 0.5094358325 0.8553467989
0.57005184889 0.34437680244 0.7457883954
0.50189483166 0.34165599942 0.79457986355
0.53482156992 0.253238976 0.80605107546
0.98582565784 -0.026918532327 -0.16138592362
0.99655377865 0.076419331133 0.032445892692
0.99317681789 -0.10281279683 0.055040556937
0.9775762558 0.0071570631117 0.20993803442
0.96035850048 0.17697788775 0.21527865529
0.92425739765 0.11844930053 0.36296615005
0.93492096663 -0.04231788218 0.35174039006
0.86352527142 0.22169472277 0.45284679532
0.89292311668 0.30065053701 0.33483567834
0.44951477647 0.89132118225 -0.051305525005
0.57346206903 0.81429177523 0.090770825744
0.61804455519 0.78146594763 -0.085552878678
0.7231566906 0.68512493372 0.084746457636
-0.041265141219 0.99375641346 -0.083319947124
0.021443968639 0.95442223549 -0.29499143362
0.84336006641 -0.37276393175 0.38696226478
0.88226300478 -0.2337692529 0.40782421827
0.81867313385 -0.27225893736 0.50560760498
0.6409625411 0.35600760579 0.67996901274
0.62079399824 0.27709189057 0.73339754343
-0.78436619043 -0.34816426039 -0.51342374086
-0.93509680033 -0.13228036463 -0.32872581482
-0.83861106634 -0.0087992660701 -0.54464834929
-0.99186789989 -0.018689146265 -0.12538917363
-0.79108798504 0.29259413481 -0.53691285849
0.80217057467 -0.33757123351 -0.49240398407
0.6461134553 -0.57105189562 -0.50619953871
0.63485872746 -0.38685461879 -0.66808402538
0.31400534511 -0.6779987812 0.66461706161
0.39386114478 -0.59996402264 0.69634830952
0.30243891478 -0.60586488247 0.73558151722
-0.046915143728 -0.80789452791 0.58739519119
-0.035693481565 -0.74157047272 0.66990667582
0.25736424327 -0.9469602108 0.19172634184
0.40901088715 -0.90830385685 0.078664496541
0.093711920083 -0.99336546659 0.065575763583
0.27791813016 -0.95917236805 0.0514517501
-0.60045045614 -0.77268826962 0.20593550801
-0.55940902233 -0.82840228081 0.012936560437
-0.72830104828 -0.67131340504 0.13733464479
-0.14948609471 -0.84349745512 0.51586723328
-0.57273644209 0.067560561001 0.81685066223
-0.6278321147 0.025926610455 0.77789777517
-0.55989032984 -0.00044937219354 0.8285690546
-0.68262588978 -0.66746175289 0.29535061121
0.79596346617 -0.16562977433 0.58220982552
0.74666142464 -0.26607277989 0.60916292667
0.7359815836 -0.36230736971 0.57179123163
0.49194917083 -0.68594437838 0.53615289927
0.56552791595 -0.618712008 0.54526436329
0.47258201241 -0.62337213755 0.62294238806
0.58067601919 -0.67356705666 0.45714175701
0.48150798678 -0.75435900688 0.44616115093
0.57265734673 -0.73126775026 0.36972853541
0.08852764219 -0.98118424416 -0.17056438327
-0.087266623974 -0.9959526062 0.0012271264568
-0.62133932114 0.22137577832 0.75161927938
-0.57915753126 0.17899736762 0.79516088963
-0.54342079163 0.2528270483 0.80048036575
-0.76386082172 -0.57520616055 0.29257416725
0.66621470451 -0.57444918156 0.47534120083
0.48801401258 -0.53314960003 0.69107937813
0.40031981468 -0.68272489309 0.61122179031
0.80989199877 -0.050366163254 0.58376407623
0.85133337975 -0.11748043448 0.5109629631
0.9572827816 0.26309156418 -0.11051498353
0.87306326628 0.38261964917 -0.29923647642
0.86306464672 0.4894040525 -0.12424333394
-0.52028924227 0.73206865788 -0.4396418035
-0.70048385859 0.5363470912 -0.47075033188
-0.70482617617 0.65752398968 -0.26612854004
-0.81713610888 0.56545174122 -0.11025185138
0.29030436277 0.052880492061 0.95543515682
0.33736598492 0.097675070167 0.93629020452
0.25716400146 0.10681591928 0.96044570208
0.35772258043 0.021881917492 0.93341457844
0.41221413016 0.072764508426 0.90817087889
0.12535840273 0.3900141716 0.91223233938
0.15161168575 0.4453137219 0.8824365139
0.19032940269 0.3876504302 0.90188550949
0.059851076454 0.16468566656 0.98452472687
0.10435861349 0.22939530015 0.96762681007
0.030607094988 0.22885724902 0.97297650576
-0.42148917913 0.68629026413 0.59238028526
-0.49950107932 0.66264015436 0.55793333054
-0.47856777906 0.61379498243 0.62790983915
-0.58824276924 0.57228517532 0.57133579254
-0.13736113906 -0.94341415167 0.30175638199
-0.23059697449 -0.89836090803 0.37379494309
-0.095239140093 -0.90347111225 0.41770294309
0.025626793504 -0.9382879734 0.34484231472
0.23632019758 -0.8696090579 0.43277999759
0.17385996878 -0.91948205233 0.35247096419
0.31005185843 -0.89886915684 0.30942356586
-0.54978078604 0.80044776201 -0.23866494
-0.37761721015 0.87085223198 -0.31459218264
-0.69426453114 0.70001834631 0.166645661
-0.62902581692 0.77081423998 -0.095983713865
0.58235609531 -0.1573035568 0.79755520821
0.54544579983 -0.24119350314 0.80269259214
0.56943148375 -0.30832216144 0.7620254159
0.47960436344 -0.23620447516 0.84509384632
0.52784454823 -0.17507603765 0.83098161221
-0.047445073724 0.11547458917 0.99209600687
0.01656886749 0.10541880131 0.99428331852
-0.0063198530115 0.16996915638 0.98542404175
0.80809420347 -0.50592201948 -0.3012354672
0.30026653409 0.160868451 0.94018602371
0.37821495533 0.15514317155 0.91260516644
0.1302626729 -0.9610735774 0.24351403117
0.030922785401 -0.97683978081 0.21156276762
-0.36220636964 0.17263202369 0.91573494673
-0.36613118649 0.10106697679 0.92504692078
-0.2992285192 0.11533743888 0.94708794355
-0.40200346708 0.044613476843 0.91454702616
-0.43842726946 0.10780963302 0.89198797941
[...]
CELL_DATA 2140
SCALARS cell_data_0 double
LOOKUP_TABLE default
4.25156373961e-09
1.08947792743e-08
1.164739928e-08
8.65149794352e-09
2.32554413045e-09
1.77788316768e-08
4.31081072591e-09
4.28664382511e-09
9.0676633816e-10
1.70530560288e-08
1.24695763332e-08
1.06212594557e-08
7.26195334492e-09
7.54964008816e-09
1.29790211329e-08
3.60059027427e-09
1.26367635846e-09
7.10852146005e-09
5.20601641469e-09
4.17263262362e-09
2.20630311311e-09
6.0835569678e-09
7.4830355893e-09
6.89138464244e-12
1.43358881766e-09
5.15187395778e-09
5.78664260033e-10
1.12064451228e-08
6.21763821372e-09
5.11957838801e-09
7.26441734705e-09
2.097799218e-09
1.0315989396e-09
5.02388546733e-09
4.4342548044e-09
5.7303791576e-10
1.51311425808e-08
9.94225393938e-09
1.10421197825e-09
5.3588018944e-09
8.43146981555e-09
6.80407375989e-09
1.83473490041e-08
1.33750306373e-08
7.29190704803e-10
6.350924746e-09
5.29966626835e-09
2.50671407416e-08
8.91790009679e-09
4.56173381351e-09
4.61433773376e-09
2.62120104099e-09
2.66324002245e-09
6.56792592873e-09
2.26396181647e-09
2.70590677553e-09
2.98017830885e-09
6.27638951594e-09
1.76540286033e-09
2.16111563673e-08
3.6809356727e-09
1.32787548138e-08
9.75887626246e-09
2.53442951387e-09
1.22099887193e-08
1.07182715853e-08
1.42940255975e-08
8.67107412524e-09
1.19471748779e-08
4.37050911997e-10
1.22727723718e-08
2.95431109262e-09
1.315651532e-08
3.53168993104e-09
1.47065883494e-08
8.88360350342e-09
3.34470683695e-09
1.36013630495e-09
1.04946834614e-08
1.37161505851e-09
5.51275052622e-09
2.69852512162e-10
6.67640594391e-09
6.67058952315e-10
1.00307165928e-09
4.25839092081e-09
2.82895467999e-09
1.22579794935e-08
1.432275553e-09
2.53490891828e-09
2.47703682124e-09
3.75289809504e-09
5.78806565952e-09
4.16330338704e-09
1.54649858735e-10
5.40743740187e-09
6.81848240355e-09
1.69217718966e-09
1.2834297311e-08
5.63739949395e-09
3.7339054979e-09
6.51178911145e-09
1.47706890258e-08
1.07354536814e-08
1.3643770428e-08
1.41206467722e-08
2.65323344446e-09
8.30598114331e-09
7.10429716666e-09
1.57476758673e-09
3.11341455091e-09
1.86817046645e-09
7.11434107497e-10
9.56427014003e-10
2.39471960844e-09
8.38107935516e-09
2.80813100239e-09
1.39225692018e-08
8.75641228851e-09
1.22189957188e-09
7.52236881928e-09
7.94533935211e-09
2.65354869155e-09
2.40175827613e-09
3.2496524738e-09
9.68244285095e-09
4.05385357769e-10
8.36244715403e-09
4.77886458812e-09
1.25141866339e-09
3.21761691241e-09
9.10399324372e-09
2.05648996284e-09
6.93874748167e-09
2.78568914699e-09
9.4988691761e-09
3.25726023791e-09
8.57083182614e-09
1.93329775282e-08
3.32788374098e-09
1.18584046463e-08
5.95777871578e-09
9.81403946994e-09
5.81492710441e-09
2.59562596912e-09
4.33947153519e-09
1.21587897445e-08
1.89266611391e-08
3.7768578195e-09
7.68936885515e-09
1.95219131414e-09
9.68912583907e-09
7.3884347702e-09
8.44006320417e-09
7.41422066954e-09
9.47811005882e-09
5.55114205078e-09
2.91868681692e-09
4.10868114259e-09
1.16609080828e-09
7.08964968445e-09
3.80560784251e-09
9.69984852688e-09
5.52971586454e-09
1.379372074e-08
8.10292046395e-09
7.53815847242e-09
2.20461062733e-09
5.22569946517e-09
1.2817961099e-09
6.42454480165e-09
2.13089877979e-09
4.14314763896e-09
5.14509387282e-09
3.5322079943e-09
1.4020126467e-08
7.26292285375e-09
6.00153487543e-10
9.55785479124e-09
6.74638788528e-09
1.33898240729e-09
9.3793983684e-09
9.26192206823e-09
3.52247574275e-09
1.00716122422e-08
5.26684024661e-11
9.81843956317e-09
3.05001866053e-09
1.64603091578e-09
1.94020543623e-09
1.15641977731e-08
4.60332836227e-09
6.70612520005e-09
7.89516640558e-11
2.18585932481e-09
6.93476486686e-09
7.21044427551e-10
7.16518673532e-09
1.4438769364e-09
4.15164030025e-09
6.35757675294e-09
7.62572734527e-09
4.85678206302e-09
1.31672173104e-08
9.6666314827e-09
2.97408347385e-09
8.98181971593e-09
1.85975170757e-09
3.26888542768e-10
3.6971155205e-09
5.10598983859e-09
1.06835570462e-08
7.60572922827e-09
1.14082864436e-09
9.9879256328e-09
1.52235933907e-09
8.76021987336e-09
1.42145469635e-10
1.41807904449e-10
6.37965814852e-09
7.41221600776e-09
5.01503607907e-09
1.83734656753e-08
5.30521055046e-09
1.66871341235e-12
7.51173820656e-10
3.57694567024e-09
1.02606620571e-08
3.17758140422e-09
1.04994504356e-10
4.38525442595e-09
4.44370908141e-10
6.37259864942e-10
3.28163784326e-10
9.52044550853e-09
5.77073320691e-09
8.42964465552e-09
3.6937779085e-09
6.9793498887e-09
3.51174698184e-10
8.79806423807e-09
2.22368672732e-10
3.00630386502e-09
1.03556136794e-08
6.55092673775e-10
5.35382690855e-09
2.00357177405e-09
7.83413055719e-09
7.03712764517e-09
2.43351264893e-09
2.76632675684e-09
1.26299278144e-09
4.42057140148e-09
4.22773356768e-09
3.28661676958e-10
1.42134604873e-08
9.85341170676e-09
1.67290798727e-12
4.69009653482e-09
4.69972727294e-09
2.09160535136e-09
8.54714767225e-09
4.85101034961e-09
2.20586184593e-09
9.28327081557e-09
9.02440350156e-09
6.86212919701e-09
8.56520857266e-09
1.01682250115e-08
9.4412670539e-09
3.97386071462e-09
4.3324650176e-09
1.55862288356e-09
1.35036084182e-09
6.22463620694e-09
3.9075817631e-09
1.23298318648e-08
5.85643499021e-09
1.16379372533e-08
3.55548726209e-09
8.23309755077e-09
6.43043216302e-09
2.84960296048e-09
2.93101401258e-09
6.25272607405e-09
9.0613903902e-09
1.1265814416e-08
7.95696328018e-09
5.53217230696e-10
2.06775555467e-09
6.60492933795e-09
8.21133446612e-09
3.41776424074e-09
3.9334220395e-09
6.86083925925e-10
4.117232125e-10
5.33808037537e-09
6.9290769766e-09
8.87982400922e-09
8.20437264576e-09
1.06527539484e-09
2.03494051459e-09
2.53848164412e-09
9.48884629211e-09
6.51867558151e-09
4.35294684912e-09
1.60970738639e-09
6.07109529586e-09
4.67558762529e-09
5.71765840743e-09
6.57525175535e-09
5.79065077261e-09
7.30104223168e-09
2.63297886964e-09
1.87022107555e-10
5.15537775386e-10
2.30422042845e-09
2.22748930931e-09
1.58325292799e-08
5.58646523036e-09
4.81567874202e-09
7.66115523251e-09
5.66178447506e-09
6.67775482057e-09
9.91709132704e-09
1.01961355393e-08
3.55685665254e-09
2.18253093058e-09
1.09800441768e-08
9.55878441931e-09
7.2404517264e-10
2.91055613991e-11
2.53948101783e-09
1.20277786184e-08
1.8803498901e-09
1.47652405109e-08
2.02323903297e-09
1.01145600091e-09
1.66555214051e-09
3.73998383465e-09
1.440253514e-08
1.00924972644e-08
1.5028458456e-08
3.12114882722e-09
8.76089414319e-09
7.52553395929e-10
9.61479958817e-09
1.29212375176e-08
1.10617598435e-08
3.92213331552e-10
7.35163499397e-09
7.68085330638e-09
3.76287150323e-09
5.80986525537e-09
1.02156960838e-08
2.68779482003e-09
1.80201294403e-09
2.25093601135e-09
2.44009662092e-09
1.46769017047e-08
2.65675803107e-10
1.99874015951e-09
9.10920046782e-09
5.74125058074e-09
6.11131234645e-09
5.43116331035e-09
5.52210537428e-09
5.16306220317e-09
3.06685908209e-10
1.49917579174e-09
5.225535837e-09
8.85035723346e-09
6.54869349892e-09
6.99511657152e-09
2.47322871876e-09
1.95126766018e-10
1.64714642115e-09
4.82220097898e-09
6.65031412368e-09
6.50747570248e-09
3.71660650237e-11
1.01422424869e-08
9.12312006874e-09
4.81199488196e-10
9.9840242734e-09
9.88965677916e-09
2.78262696729e-09
1.26578763645e-08
9.23679942088e-09
1.17587197518e-08
1.58708150541e-09
2.99610911212e-09
1.79720774495e-09
3.91039780507e-09
5.11751089916e-09
3.19284284336e-09
9.10208159823e-10
4.62297791651e-09
3.30484419625e-09
1.74014364267e-09
1.13641804926e-09
9.69780824421e-10
5.84477432281e-09
2.84861939497e-09
7.84875571227e-09
5.96580253309e-09
4.0054243681e-09
4.9679276982e-09
4.37884954385e-09
1.33096476551e-08
1.18725568846e-09
6.17953456201e-10
3.35713473384e-09
5.97793486164e-09
9.42829993981e-09
1.09339750305e-08
1.41333524723e-08
5.77951317239e-09
3.83949610143e-09
4.39076070641e-09
6.68665778031e-09
3.17019034911e-09
1.01785289579e-08
4.93822680779e-09
4.16193248317e-09
4.64395074209e-09
3.6928472806e-09
6.29992353387e-09
3.54399260917e-09
2.97064165615e-10
5.17425471214e-09
3.45464218854e-09
2.5884236153e-09
7.2972113765e-09
8.22117332064e-09
9.52805605217e-09
4.44789339689e-09
2.26302744377e-09
1.29823474101e-08
1.59394771162e-08
7.42250890881e-09
6.72143673734e-10
1.3418167548e-08
2.52844373753e-10
5.4558873544e-09
2.50998810115e-09
3.19095353734e-09
1.35209842089e-08
1.32401521325e-08
1.16799149237e-08
6.68215257412e-09
8.69637916113e-09
1.53523763444e-09
3.09409231267e-09
1.23089510114e-08
5.80745301475e-10
3.80932165415e-09
1.2924579798e-08
3.57025966262e-09
1.39354902466e-08
5.83241538291e-09
9.49227004775e-09
1.58085611178e-09
2.32547457432e-09
7.44001704438e-09
5.01724355094e-09
8.06323661619e-09
1.09944888687e-08
4.13814541089e-09
1.8081649518e-09
1.32386123806e-08
4.71122760232e-09
2.91590221018e-09
3.44959509909e-09
6.85957386735e-10
2.76206326455e-09
5.50439400413e-11
8.76918237217e-09
3.45030673757e-09
1.48415137484e-09
9.26887525087e-09
3.16399660354e-09
1.25992501326e-08
4.93998148696e-09
8.96939230668e-09
5.13927996226e-09
1.81852615723e-09
7.46005564998e-09
1.34462572642e-08
5.72346520555e-09
3.48456504995e-10
5.88206621458e-09
1.07560173531e-08
1.76638186578e-09
1.42872513918e-08
5.46808391707e-09
9.38694000764e-09
2.42229751583e-09
7.26500369474e-09
5.6886880067e-09
4.74840338897e-09
1.37320729637e-09
3.97617094447e-09
2.44700187583e-09
8.95587194553e-09
8.35749379821e-10
1.31647394417e-08
7.32101411669e-10
2.27846298392e-08
4.81108642373e-11
1.86462191815e-10
5.85175381475e-10
1.0477859055e-09
4.77098308987e-09
4.25153188755e-09
1.20879189498e-08
9.68160488171e-09
9.35681282169e-09
7.82982130905e-09
8.02675392956e-09
1.59246066079e-09
2.62719847861e-09
6.91308162896e-10
1.70662973929e-09
4.61704393549e-09
6.83355469641e-09
5.39856872622e-09
5.94647109376e-09
3.56203129948e-09
5.2451444935e-09
3.60003365206e-09
2.01996557728e-10
3.55131820798e-09
6.86242511552e-09
2.35356450903e-09
3.5207974721e-09
6.06917668499e-09
1.16710147915e-08
4.1544055853e-09
4.63268391527e-09
1.00926934083e-08
2.93877780638e-09
4.46553296271e-09
1.32545072729e-08
6.03928262075e-10
9.33707634911e-10
1.80492180428e-09
1.61175641385e-09
2.20770381852e-09
1.43072981909e-08
3.19547400288e-09
3.21199199883e-09
3.49595399466e-09
1.70185265636e-09
2.54638820158e-09
3.88191389964e-09
9.99778024291e-09
3.74473840629e-09
4.59575473884e-10
1.89030304194e-09
1.67479539129e-09
3.48717263448e-09
2.99371513862e-09
4.7935300015e-09
2.38651294024e-09
2.0180007745e-09
7.21619380302e-09
1.2220374494e-09
3.46818643231e-09
9.40649456305e-10
1.52453791794e-09
1.86892812074e-09
8.9531130634e-10
1.06508467774e-09
2.50785625994e-09
6.27736053564e-10
1.90272758835e-09
7.26405238442e-09
2.85607852928e-09
1.28791489186e-09
6.27512939281e-10
3.04037423785e-09
5.50234354065e-09
3.26134637991e-09
6.00150810495e-09
3.19984494671e-09
5.32014507406e-09
1.18188626966e-08
4.67473250169e-09
1.28454807909e-08
1.03827505171e-09
7.17459941114e-09
8.08984101537e-09
2.05416188403e-09
7.46315901924e-09
8.47285213801e-09
8.72948065836e-09
1.05091616096e-08
8.83307401134e-10
3.25882346861e-09
9.76810136973e-09
7.04347618629e-09
8.22891035452e-09
6.4362673033e-09
9.53917873205e-10
6.39705658214e-09
9.9694658744e-10
1.61023138835e-08
6.7968274556e-09
8.67979706461e-09
4.86286284025e-09
8.07080170807e-09
7.12560137288e-10
4.39154515459e-09
4.21417937414e-09
4.47432035097e-09
7.16699741107e-09
1.28724481164e-10
1.15884379155e-09
1.05289354408e-08
9.35402578889e-09
1.66165721561e-09
2.28946804386e-10
1.38056028543e-08
4.55300647799e-09
6.54265219371e-09
2.50093932672e-09
4.96378464821e-09
6.55275220279e-09
6.59228884893e-11
3.22571744728e-09
7.46385845479e-10
1.89347605372e-09
6.43416000912e-09
2.30432888143e-09
5.08270000523e-09
5.8231542859e-09
3.40941072548e-10
2.78284589846e-09
3.02337363776e-09
7.85305605669e-09
7.24573088773e-09
4.8768339697e-09
1.30697964965e-08
2.16074675688e-09
9.97738746941e-09
5.40371129495e-09
1.5097463831e-09
4.42260408714e-09
4.28975137687e-09
2.91401622822e-09
5.31225731411e-09
4.10327806971e-09
4.07450076509e-09
5.03403697144e-09
6.44504207605e-10
8.21984839158e-09
3.6693276683e-09
2.3776964083e-09
5.17809281058e-09
7.17162378013e-09
1.47811917041e-09
7.77356200186e-09
3.51978996761e-09
1.64026239544e-09
4.34866013057e-09
5.81187500612e-09
9.48008251033e-10
1.51371155682e-09
5.08471647188e-09
2.96700563206e-09
3.80906200432e-09
1.16535961203e-09
2.54706554759e-09
6.85322119416e-09
3.02055105974e-09
1.3268064784e-08
2.12518550825e-09
4.99181344482e-09
6.65107464861e-09
1.17699676553e-10
4.2611594803e-09
6.93443395283e-09
4.02130246974e-09
2.62951786367e-09
3.26948326031e-09
2.03578112072e-09
1.73842637062e-09
1.66582050449e-09
1.12374318191e-09
5.94778638404e-09
1.13098270877e-09
3.82604699041e-09
1.01101063328e-08
6.28398949125e-09
7.45954065235e-09
9.5494921312e-09
3.61140744145e-09
1.32279564039e-08
3.73678886723e-10
1.72988499441e-09
8.19047245615e-09
2.31904066741e-09
7.79166719614e-09
1.66372195866e-09
1.17346320961e-08
2.62231008568e-10
8.34967640756e-09
8.85980525283e-09
1.22597246087e-09
2.54636270645e-09
1.60863254381e-09
1.9803809486e-09
1.82046748972e-09
6.86891604951e-10
6.21929832735e-09
1.37100691998e-09
8.5916484697e-09
4.15223858749e-09
6.07752188818e-09
3.91707308063e-09
4.31407915381e-09
2.65775630812e-10
5.05817995435e-10
1.1527541739e-09
7.16558739633e-10
3.82944543837e-09
5.814637427e-09
8.16308801255e-11
3.26809317847e-10
9.4404179559e-11
3.45580185797e-09
3.49123887574e-09
9.84151410851e-10
4.2790187616e-09
3.38410220229e-09
3.23481140399e-09
7.83530322647e-10
1.82715292043e-09
4.08460490739e-09
4.34302070612e-09
1.04096440853e-09
7.4763973247e-10
2.27029421134e-09
2.79007884887e-09
8.65298019411e-11
4.09745956761e-09
2.34504844771e-09
3.46459236272e-09
6.42353919616e-09
5.82407791342e-09
1.0356097094e-09
3.79923119164e-09
3.91589477166e-09
7.80724493962e-10
4.31529038895e-10
1.7706774781e-09
3.71432616838e-09
1.02038351431e-08
1.63282774828e-10
2.28526661646e-09
3.26797445524e-09
5.39666068452e-09
8.40195812704e-09
3.64696362872e-09
2.45505170319e-09
4.53019762555e-09
4.24768963488e-09
6.99165257943e-10
5.95402071677e-11
1.44851332518e-09
1.88289893901e-09
7.0303848431e-10
8.10356627569e-09
2.30399017435e-09
1.00822643737e-09
3.47265977418e-09
2.1688706661e-09
3.02317135702e-09
3.71487630176e-09
4.16491198816e-09
3.20863665785e-09
1.28698951502e-09
4.44860128304e-09
8.69301371559e-09
3.37505098335e-09
1.34456920688e-09
7.1903744823e-09
5.1712360382e-09
3.62131851213e-09
1.6107419706e-08
7.96390651976e-09
3.84954219455e-09
3.09960294083e-09
3.11300212064e-09
2.06910016225e-09
2.03074122784e-09
7.51763445208e-09
7.10124777051e-10
2.85040085897e-09
6.81146622352e-09
3.39317727383e-09
2.19272191792e-09
8.88985116578e-09
8.01775512344e-09
1.86673514009e-09
9.90801995998e-09
2.03871293177e-09
5.56024393625e-09
9.1320245599e-10
6.82949131288e-09
2.76929292611e-09
3.92082818449e-09
3.76101777541e-09
7.54499963063e-10
1.02070065673e-09
4.14317667148e-10
2.68692929063e-09
5.14573205386e-10
5.05900911963e-09
4.52420839825e-09
5.69765253887e-09
3.63761447473e-09
9.51810729047e-09
1.14638376843e-09
6.1400048188e-09
8.48676378232e-09
3.05970167232e-09
9.00061034581e-11
1.33547948437e-08
3.96008023516e-09
4.27102158426e-10
7.70067061807e-09
7.30385934011e-09
9.22643575051e-10
5.20277795948e-09
6.1035762488e-09
1.23991730654e-08
5.35429237181e-09
7.74376024894e-09
4.90899227477e-10
4.73713580099e-09
2.92154300858e-09
6.53522732016e-09
4.05516833342e-09
2.26531184912e-09
2.28963680208e-09
8.32452183202e-09
1.07081509595e-08
2.41913486933e-10
1.04197558936e-09
6.27301420087e-09
4.74238582781e-09
9.74159237154e-10
3.83528560978e-09
3.64347550434e-09
9.16051590262e-10
2.46400910185e-09
1.11524548038e-09
1.9817564989e-09
3.38124765436e-09
3.86639378028e-09
9.04671574402e-10
1.78886465254e-09
3.98469502893e-09
9.2399715949e-09
4.82946142092e-09
1.19363269481e-08
1.47314917939e-08
9.43272314967e-09
9.17199527456e-10
5.650813078e-09
3.15263962064e-09
4.75817635409e-09
5.56567014116e-09
5.04452351793e-09
5.43074059864e-09
4.13145497921e-09
1.73103879119e-09
1.3961583955e-09
9.60751522638e-10
1.58878587048e-09
9.55249722712e-10
2.97750536448e-09
5.92312154958e-10
2.84725081742e-09
1.18422289881e-09
5.28082445629e-09
3.62223631351e-09
8.08537627573e-10
3.14435998211e-09
9.12499016072e-09
1.08857784199e-08
6.3113468721e-10
3.12775937249e-09
1.42987864526e-08
1.24541413405e-08
9.88530813063e-10
2.93779038684e-09
3.84501571136e-09
1.82600819435e-09
7.13414395041e-10
9.47105815141e-10
5.64715817439e-09
6.30601818872e-09
1.12967406777e-08
8.01597334497e-09
1.02840825554e-08
1.03674528414e-09
6.39612861366e-09
7.48124561996e-09
1.03765978596e-09
5.07185909294e-09
3.68892651373e-09
8.10462547011e-09
1.24220549875e-08
1.64391218365e-10
4.25370817994e-09
7.68197285141e-09
3.74264779613e-09
4.96449640491e-09
1.42400622159e-09
4.84901261883e-09
6.99953720309e-09
2.11260541093e-09
2.98310221023e-09
3.45181122753e-10
2.31042163532e-09
2.44423629241e-09
4.46382193774e-09
1.41577491638e-11
3.27526329952e-09
1.88444044632e-09
2.71304031724e-09
2.29629038784e-09
4.01617439671e-11
3.52720399143e-10
7.1338109882e-09
5.12074421704e-09
2.91187791977e-09
6.90342882617e-11
5.10262610897e-10
5.68225443639e-09
3.46668776142e-09
1.00897995166e-09
6.61855689826e-09
1.06938346698e-08
1.37174057559e-08
5.37615335416e-09
3.28379943226e-09
3.55900071189e-09
3.68934892845e-09
4.55479912083e-09
2.34429837986e-09
3.34552740245e-09
2.41635400215e-09
1.27202536505e-10
5.40277970496e-10
3.81552094857e-10
9.6079220745e-10
3.86291419282e-09
1.65385406634e-09
1.22100118206e-09
6.27645583021e-09
2.68431781975e-09
3.30702089922e-09
4.02113736672e-09
1.09066885044e-08
4.83668319687e-09
2.92526722182e-10
3.45734640731e-09
4.44248957297e-09
2.26142805509e-09
1.34423083478e-09
4.20120730957e-10
2.76901636068e-09
1.66364900744e-09
5.92736488211e-10
4.12526674357e-09
3.16233390073e-09
5.40360000822e-09
1.41810191989e-09
3.79844489665e-09
1.53326714225e-09
6.97138241392e-09
3.47004607195e-09
1.05026536032e-08
3.10587597242e-09
5.98847339972e-09
1.27416040497e-08
1.14321928674e-09
3.13208801081e-09
1.2377808426e-09
6.32676446715e-10
5.62112601345e-10
6.87645551641e-10
2.2856364412e-09
1.33472676725e-09
3.59298157043e-09
2.30336768095e-09
1.59077618249e-09
1.81126720216e-09
2.82516722218e-09
1.0177439037e-09
1.59309273215e-09
2.117830719e-09
2.4742155331e-09
3.77595472598e-10
6.10082769301e-09
8.17286312819e-10
2.39334870675e-09
4.9963867484e-09
5.17110765032e-10
7.12595494697e-09
7.22924911656e-09
2.77795311254e-09
5.84392296983e-09
1.18597245974e-09
2.22705450594e-09
5.0839888287e-10
6.50814350204e-10
2.25858121717e-10
3.59856301397e-09
8.34098553283e-10
4.10003443902e-10
6.49344342141e-09
8.49451376777e-09
3.78008166203e-10
1.83977980034e-09
2.76576068366e-09
2.18229406931e-09
2.47322380084e-09
7.06580966009e-09
7.54986715636e-09
3.91775361684e-10
1.32746923624e-09
6.17099449547e-09
1.52162271964e-09
2.45577755752e-09
4.04988193304e-09
1.16598408409e-09
3.31779813907e-09
3.51850525863e-09
1.11426946604e-08
4.6259085231e-09
4.68277120005e-10
8.46426870874e-09
7.23628910269e-09
1.09999061505e-08
4.83475351841e-09
6.95678130689e-09
7.06996482164e-09
5.22396825067e-10
7.95558961309e-09
4.89926898888e-09
7.00035596182e-09
5.3633952055e-10
2.0790783258e-10
4.15020974717e-09
4.0157994803e-09
7.5197359432e-09
1.77581395223e-09
1.94536597703e-09
4.49383297886e-09
5.1528509839e-11
2.97685575077e-09
5.48956926976e-09
8.74186026176e-10
2.86231941599e-09
2.20188179036e-09
6.30397282298e-09
5.09417950172e-10
1.02564764787e-08
1.46712041612e-08
1.45654540131e-09
2.73425797006e-09
4.80647310399e-09
6.6611600041e-09
5.74368998543e-09
8.07154370109e-10
9.26674634176e-10
1.5547892548e-08
1.11012302642e-08
3.79750489869e-09
2.43050269911e-09
2.34176178882e-09
8.96800370618e-09
3.71183673747e-09
1.9174260482e-09
7.07136557517e-10
7.19020168108e-09
4.89104996148e-10
3.25806239993e-09
1.00906902133e-08
2.82808556565e-09
1.84799852775e-09
5.89936900813e-09
3.72999320788e-10
4.255411037e-09
6.37305785345e-09
4.51816744112e-09
5.75614750773e-09
7.99657472146e-09
2.47275754997e-09
7.36325555737e-09
2.24738934093e-09
1.88491040905e-09
1.92241238623e-09
1.90282201999e-09
6.73414634314e-10
6.19446196214e-10
8.29310938123e-10
9.76120727813e-10
1.62636697222e-09