# vtk DataFile Version 3.0
File Name: Molecule/sphere_excent/sphere_excent_0-s19.vtk
ASCII
DATASET UNSTRUCTURED_GRID
FIELD FieldData 1
TIME 1 1 double
0.0
POINTS 344 double
0.81473642588 -0.28921633959 -0.49915927649
0.98399859667 -0.029185602441 -0.14990989864
0.80253171921 -0.54497992992 -0.23576943576
0.52461385727 -0.00045028724708 -0.85140073299
0.80259156227 0.28415879607 -0.5204064846
0.2804107368 -0.4863024056 -0.8258754015
-0.00065535178874 0.00037513801362 -0.99992877245
-0.30619257689 -0.49622902274 -0.8125564456
0.0053078271449 -0.84182476997 -0.53988039494
-0.52600395679 -0.00041076546768 -0.85045135021
-0.027717009187 0.83212572336 -0.55215674639
-0.30788633227 0.49338600039 -0.8136048913
-0.50402325392 0.76311844587 -0.39832615852
-0.79287475348 0.31299614906 -0.51955026388
-0.79127907753 -0.3380599916 -0.50579887629
-0.46585828066 -0.78961586952 -0.39947381616
0.46076288819 -0.81164997816 -0.35665920377
0.097682148218 -0.98562204838 -0.12115843594
0.28273665905 0.49160477519 -0.82170885801
-0.48525348306 0.011137634516 0.87400430441
-0.46490758657 -0.13275079429 0.87527626753
-0.34997308254 -0.038459423929 0.93533021212
-0.75085479021 0.21699292958 0.6237694025
-0.85686028004 0.3087477684 0.41290354729
-0.867382586 0.07493866235 0.49106699228
0.27633583546 -0.58951473236 0.75890129805
0.18915449083 -0.47403794527 0.85993868113
0.10627631098 -0.57494783401 0.81100612879
0.33712631464 -0.44436350465 0.82976442575
0.87528574467 -0.4799323678 0.015843275934
0.94891989231 -0.20583586395 0.23487123847
0.81058496237 -0.42154276371 0.40465047956
-0.71694779396 0.44289425015 0.53842747211
-0.74669831991 0.57950234413 0.32650968432
-0.61036449671 0.63090753555 0.47792118788
-0.55233180523 0.79362243414 0.25277319551
0.11068332195 -0.68329894543 0.72019171715
0.33019033074 -0.70343464613 0.62782818079
0.47241452336 0.8132199645 0.33956217766
0.31921833754 0.93354481459 0.16099303961
0.27726131678 0.88754236698 0.36696767807
0.025725653395 0.96231347322 0.2705758214
-0.85607111454 -0.51137840748 -0.053182378411
-0.94142901897 -0.15965923667 -0.29665115476
-0.46819186211 -0.83896255493 0.27340704203
-0.29183888435 -0.94411712885 0.15306636691
-0.23526521027 -0.89718532562 0.37170377374
-0.96286725998 -0.17489241064 0.20557937026
-0.960539639 -0.27740293741 -0.014636679552
-0.87356436253 -0.45593085885 0.16945059597
-0.99708706141 0.0045876428485 -0.071506664157
-0.96518105268 0.1451856643 0.21742540598
-0.18710455298 0.27176654339 0.94398772717
-0.29233956337 0.28756135702 0.91204851866
-0.25621554255 0.18368239701 0.94890725613
-0.36631539464 0.16825394332 0.91469073296
0.013597052544 0.84837794304 0.52892053127
-0.19194792211 0.88995939493 0.41274991632
-0.27436921 0.95333451033 0.12525853515
-0.10665480793 0.18870542943 0.97603231668
-0.012000958435 0.99814611673 -0.053419437259
-0.27334171534 0.94316440821 -0.18833068013
-0.51481878757 0.85404330492 -0.048595760018
0.86832690239 0.49032381177 -0.065296471119
0.70490431786 0.69603693485 0.13226811588
0.86108660698 0.45804175735 0.22066301107
0.74671876431 0.55916440487 0.36023166776
0.84877306223 0.32266721129 0.41901934147
-0.93910551071 0.16340993345 -0.30227795243
-0.95525598526 0.29407995939 -0.028786838055
-0.83752816916 0.46355542541 -0.28861874342
-0.69776713848 -0.69404554367 -0.17707169056
-0.71670633554 -0.68486851454 0.12648285925
-0.55121910572 -0.83424377441 0.0096637541428
-0.89032953978 0.41567486525 0.18501745164
-0.81681799889 0.57377505302 -0.049889847636
-0.18329913914 0.4162761569 0.89045321941
-0.31242534518 0.52514016628 0.79116904736
-0.12221962959 0.55368053913 0.82324844599
0.076900407672 0.42947366834 0.89959460497
-0.050937846303 0.4066824019 0.91208130121
0.02454610914 0.28625109792 0.95784384012
-0.70253705978 0.70268017054 0.10543951392
0.96240574121 0.24810555577 -0.10482615232
0.95248943567 0.20690363646 0.21678560972
-0.18913282454 -0.82516795397 0.5321213603
-0.1231226176 -0.74901682138 0.65070730448
-0.29607912898 -0.74508428574 0.59763228893
-0.232781142 -0.67836886644 0.696819067
-0.43369847536 -0.65624165535 0.61724668741
-0.32152381539 -0.60338491201 0.72942298651
-0.40072616935 -0.7848585248 0.47274211049
-0.09129755944 0.31041118503 0.94621443748
-0.11150609702 -0.65171182156 0.75019884109
-0.059387627989 -0.21734125912 0.97427380085
-0.019395574927 -0.088302008808 0.995890975
-0.14179491997 -0.12522082031 0.98189377785
-0.63885712624 0.11157342046 0.76022899151
-0.74327683449 0.033208895475 0.66806638241
-0.62748968601 -0.10315044224 0.77153992653
-0.74120289087 -0.1160550788 0.6611943841
-0.84174585342 -0.096481814981 0.53106588125
0.49027860165 0.56567889452 0.66293424368
0.58425366879 0.64644831419 0.49087268114
0.45281910896 0.71903336048 0.52723067999
0.67603164911 0.51099860668 0.53088378906
0.59799557924 -0.20987817645 0.77285563946
0.63495916128 -0.32822290063 0.69937062263
0.68135887384 -0.21521218121 0.69904398918
0.40218952298 0.44666090608 0.79901665449
0.2985098958 0.53983509541 0.78681415319
-0.057983729988 0.042868133634 0.99705207348
-0.12569773197 -0.030980985612 0.99155044556
-0.16125577688 0.055130906403 0.98530644178
0.62859964371 0.70667725801 0.32380768657
0.52124810219 0.84382051229 0.1267516315
0.61057144403 0.43790668249 0.65970367193
-0.58774775267 -0.64912211895 0.48256871104
-0.54962718487 -0.53938084841 0.63789242506
0.068202935159 -0.21919195354 0.9732607007
0.10084438324 -0.071076244116 0.99230033159
-0.33588600159 -0.19631564617 0.92117667198
-0.54059326649 0.49214026332 0.68168318272
-0.43225356936 0.40664589405 0.80477911234
0.39163967967 -0.83589619398 0.38384950161
0.4441896081 -0.87916761637 0.17211709917
0.57572519779 -0.75621747971 0.31040430069
0.56663650274 -0.67328518629 0.47397854924
0.70391726494 -0.61625754833 0.3504793644
0.6763650775 -0.73104172945 0.090162239969
-0.43157163262 -0.2678283453 0.86132967472
-0.32003521919 -0.31361207366 0.8939076066
-0.40895846486 -0.37350898981 0.83256644011
-0.38278144598 -0.46242776513 0.79976582527
-0.48901975155 -0.45156887174 0.74626290798
-0.42876085639 -0.54745459557 0.71864646673
-0.5165296793 -0.34309819341 0.78451710939
-0.60218495131 -0.41744452715 0.68051224947
-0.61679667234 -0.31007832289 0.72346335649
-0.55547451973 -0.22622570395 0.80013263226
-0.67434298992 -0.46617880464 0.57249343395
-0.71325415373 -0.33569395542 0.61522346735
-0.79918217659 -0.36474296451 0.47709101439
-0.79286152124 -0.2272875458 0.56539338827
-0.6796246171 -0.21747820079 0.70054197311
0.12128333747 -0.35663852096 0.92633503675
0.023130904883 -0.47471505404 0.87984907627
0.19934032857 -0.25265190005 0.94681972265
0.25001302361 -0.35445475578 0.90105336905
0.33551570773 -0.21339672804 0.91747754812
0.051904771477 0.021676542237 0.9983663559
0.16206812859 0.029379086569 0.98588234186
-0.50606364012 0.25429153442 0.82407838106
-0.39599749446 0.29603627324 0.86921852827
-0.31988674402 0.39905074239 0.85928308964
-0.20404903591 -0.94911503792 -0.23784041405
-0.64851438999 0.35290783644 0.67434453964
-0.5485188365 0.35672864318 0.75624322891
-0.61758309603 0.24764414132 0.74646389484
-0.10412318259 -0.42499646544 0.89917564392
-0.0085645942017 -0.33792838454 0.94112449884
-0.18057310581 -0.20757111907 0.9613931179
-0.12487176061 -0.31042560935 0.94236302376
-0.0077853701077 -0.60234981775 0.79792827368
-0.0092315198854 -0.72636318207 0.68724042177
-0.20978009701 -0.59383630753 0.77675825357
-0.29347410798 -0.51826900244 0.80326908827
-0.094266392291 -0.5377638936 0.83772033453
-0.18865615129 -0.51577430964 0.83568572998
-0.22386653721 -0.44518485665 0.86699736118
-0.13038568199 -0.99105548859 0.017112135887
-0.36320915818 -0.92693418264 -0.093275435269
-0.10728687048 -0.94353985786 0.30968090892
0.30460396409 -0.043461702764 0.95106989145
0.19917969406 -0.068392977118 0.97757601738
0.25126844645 -0.14842006564 0.95624828339
0.16197553277 -0.1560293287 0.97438168526
-0.23333379626 -0.28214383125 0.9305267334
-0.20884290338 -0.36648914218 0.90663337708
-0.31021672487 -0.41048547626 0.85743921995
0.38439846039 -0.076885685325 0.91933178902
0.49525564909 -0.86543232203 -0.075012393296
0.68409752846 -0.70825314522 -0.1579670012
0.5838996172 -0.49757054448 0.64093446732
0.66244804859 -0.54178321362 0.51673787832
0.71403551102 -0.39871457219 0.57545787096
0.81938159466 -0.27956861258 0.50041675568
0.7275737524 0.36251965165 0.58236765862
0.78806370497 0.2234980911 0.57353514433
0.68700736761 0.27742958069 0.67135244608
0.72020018101 0.18245078623 0.66935014725
0.64433580637 0.14542020857 0.75077652931
0.55628156662 0.059896469116 0.82888114452
0.53598380089 0.23344296217 0.81108689308
-0.18046197295 0.70668011904 0.6841288209
-0.10329053551 0.788626194 0.60581189394
-0.30492502451 0.79527819157 0.52387404442
-0.37975180149 0.86046916246 0.33944991231
-0.46904802322 0.76505810022 0.44107145071
-0.41896206141 0.69178670645 0.58769804239
0.05173163116 0.7324565649 0.67878431082
-0.048217482865 0.6746249795 0.73651075363
0.079548507929 0.62342143059 0.77779644728
0.67811572552 0.015945797786 0.73467767239
0.75669199228 0.078414365649 0.64888173342
0.77862912416 -0.049707852304 0.62467551231
0.86350762844 0.043405205011 0.50168740749
0.75034141541 -0.25863334537 0.60760128498
0.17950417101 0.7529283762 0.63301563263
0.19438128173 0.64243537188 0.7411673665
0.31171286106 0.64840221405 0.694462955
0.1797824502 0.53414654732 0.82598733902
0.26203107834 0.42666828632 0.86520010233
0.17627248168 0.85241681337 0.49205330014
0.35080364347 0.80996978283 0.4699626267
0.29643929005 0.76107794046 0.57695120573
-0.75506436825 -0.56973206997 0.324146837
-0.8502073288 -0.40115571022 0.34046205878
-0.88254511356 -0.22158144414 0.4146412909
-0.92610800266 -0.066072583199 0.3712464869
-0.54016625881 0.83397436142 0.10655354708
-0.73075836897 -0.50935912132 0.45447421074
-0.25158640742 -0.12365116924 0.95988804102
-0.21766379476 -0.04175331071 0.97517853975
0.38602688909 0.68289411068 0.62010860443
0.72678041458 -0.12820127606 0.67465364933
[...]
CELL_DATA 684
SCALARS cell_data_0 double
LOOKUP_TABLE default
7.26578944325e-08
1.28972213409e-07
1.91887154302e-09
3.00515297727e-08
4.08843794514e-08
4.96782882834e-08
5.10364243019e-08
8.56113184831e-08
1.61274783572e-08
4.20645070231e-08
7.72978101449e-08
3.07251135716e-08
1.9092838247e-09
1.74981203441e-08
6.0964229888e-08
1.09775002746e-08
1.08244541354e-07
1.20137784741e-07
4.88821198607e-08
3.48135439253e-08
7.48139471025e-08
1.26278453526e-07
5.58439661807e-08
1.21563451735e-07
1.50411274351e-07
4.40015459678e-08
4.75072541426e-08
2.6994770575e-08
1.54428372882e-08
2.88023142239e-09
2.83887240951e-08
4.37753891802e-09
8.83929920304e-08
5.86971499589e-08
5.33190601277e-08
6.56320747199e-08
3.50858732955e-08
8.19026170898e-08
4.44605297866e-08
7.67262132006e-08
1.21187974727e-08
4.78582651343e-09
1.23376982326e-07
4.02154175323e-08
1.28190968311e-08
8.37816317017e-08
5.7895101329e-08
7.26574796492e-09
1.81152973757e-08
3.28045273933e-09
1.07953015614e-07
1.88166806415e-09
4.76933522062e-08
8.88558407909e-08
5.51386840815e-08
7.13276756823e-09
3.26883982039e-08
4.5809007171e-08
1.37577704845e-07
3.4128125013e-08
1.28180556226e-07
1.02422843604e-08
3.28025153015e-08
2.8228884772e-08
1.12612293342e-08
3.15704783169e-08
3.73975457851e-09
9.2959475621e-08
1.17549103068e-08
1.13394928389e-07
6.79841461388e-08
1.29889544899e-08
7.21851561736e-08
6.78327790474e-08
2.15941692595e-08
1.50628852025e-07
3.11435024797e-09
1.20157962553e-08
8.35270042413e-08
1.0957665897e-07
8.41851653861e-08
5.69966982424e-08
8.36893062936e-08
1.02321714513e-07
3.51728282868e-09
3.08526618078e-08
4.71467623184e-08
5.4863681094e-08
1.24822062131e-07
5.14925089916e-08
2.88008102962e-08
2.22527794771e-08
4.6818256335e-08
3.18792776085e-08
8.02896927723e-08
9.93236044289e-09
4.88460390974e-08
3.8954428427e-08
1.96790674251e-08
8.7214178524e-08
6.02219040781e-08
1.01574040338e-07
7.41916190151e-08
1.24498423548e-07
4.71264961245e-08
2.81140822925e-08
1.14162947935e-08
3.28156219961e-08
5.96866547564e-08
2.04654965273e-08
2.11368623826e-08
3.15081723989e-08
4.68117086755e-08
5.07166781627e-08
3.4800621673e-08
3.59105141492e-08
4.24682513774e-09
3.2783127372e-08
3.82279897361e-08
4.30801704386e-08
6.12520116792e-08
7.56893306394e-08
1.03291048548e-08
1.06463965007e-08
2.90010099456e-08
2.86560872345e-08
3.36438516136e-08
3.44518658208e-08
4.4883686098e-08
2.74361262265e-08
1.48501718575e-08
2.22765828445e-08
2.50483901398e-08
4.68758556338e-08
2.1446896509e-09
2.60474613227e-08
4.35218539991e-08
4.74173151833e-08
1.32264846184e-10
5.89604451705e-08
4.71817127385e-08
8.67712824238e-08
2.90060975262e-08
1.80944792763e-08
3.9325034978e-08
1.01838776665e-07
1.01209332234e-08
4.1385357378e-08
3.05864314402e-08
5.08211494339e-08
3.32551329716e-09
2.7056918399e-09
5.45473447021e-09
1.11677866069e-07
7.45705513799e-08
7.34077477944e-09
1.26520945024e-08
2.202834821e-08
2.78000207161e-08
2.44679165122e-08
3.7931379201e-08
7.91759611937e-08
4.74066206958e-08
5.87208059842e-08
1.00271307683e-08
4.18179460211e-08
4.41227648061e-08
6.75764402703e-08
9.63318311172e-08
1.23801615184e-08
7.98863084457e-08
7.59081467113e-09
2.48060592059e-08
6.91298572208e-08
5.19700988519e-08
3.70779282959e-09
6.93160801299e-08
3.88712678384e-08
9.32433833177e-08
3.59221743496e-08
1.3401436516e-08
2.26776941462e-08
2.53959078871e-08
4.97759222699e-08
5.70440150601e-09
1.14532508611e-08
1.60191244951e-09
1.81483633275e-08
7.00180557053e-08
4.66192284302e-08
6.83692328358e-09
8.20577116977e-09
1.24757747559e-08
1.33557035612e-07
6.03802953571e-08
5.34445282552e-08
8.52453983944e-08
3.11858261791e-08
5.85646304404e-09
1.89360669338e-08
2.6905765546e-08
2.28949090013e-08
4.22989439245e-08
3.52022125317e-08
2.30354805134e-08
2.97095425996e-08
4.60976341763e-08
7.10534624253e-08
9.8206673054e-08
2.67140294448e-08
3.24377972533e-08
5.74772226665e-08
3.45002127989e-08
2.38404938104e-08
8.60024800595e-09
2.45316925554e-08
3.7775950332e-08
3.61206608861e-09
2.49159414766e-08
2.62039052921e-08
8.86904038509e-09
5.68542042134e-08
5.21112504383e-09
2.96175056719e-08
2.59608583559e-08
5.13048443299e-08
4.89090157185e-08
4.24015988139e-08
9.64150579433e-08
1.18680189335e-07
2.01251797103e-08
2.70404508161e-08
1.13150178474e-08
2.48131884934e-08
3.14166652589e-09
1.38121484139e-08
5.61605025764e-08
1.87623611049e-08
2.34544563001e-08
1.41338342839e-08
5.02528325034e-08
8.07241682322e-08
7.05865039616e-09
1.133796337e-07
4.95101748053e-08
8.6368931145e-08
3.17050996125e-08
3.30837748987e-08
2.67390011738e-08
2.3486207421e-08
1.1050209942e-08
7.34854442608e-08
1.13876820456e-08
9.8990355566e-08
2.86612275723e-09
2.73119236767e-08
4.65768390602e-09
5.13701397684e-09
2.90803072115e-08
1.08270762682e-08
5.05368750024e-08
5.33994974536e-09
1.18711314671e-07
5.39017453163e-08
4.30593259881e-09
5.10876989796e-08
2.6961841165e-08
3.6106725622e-08
1.81972323691e-09
2.77292332343e-08
2.64645381892e-08
1.1673549597e-08
1.01475815144e-08
5.52866016395e-08
2.39614770129e-08
1.62415021435e-09
1.1154958004e-09
3.83930067747e-09
1.86110051363e-08
2.54635188339e-08
1.7883532899e-08
2.29162700459e-08
1.11919528416e-08
7.9772996834e-08
4.21033311111e-09
3.04960808052e-09
2.08719337711e-08
2.95373939595e-08
1.45257817208e-08
4.98662090055e-10
1.52144127849e-10
4.85840519653e-08
9.58340220164e-09
2.17109721556e-08
4.85512241233e-10
5.5195435021e-08
1.12520995537e-08
2.26268583024e-08
8.99437068895e-09
1.42455610414e-08
4.05791460244e-09
3.21472650958e-09
2.06758132324e-08
7.43527686656e-08
9.39473376788e-08
4.01095214639e-08
1.33969618386e-09
1.97227128679e-08
2.53323167764e-08
1.8613790287e-08
3.0876787976e-08
6.60038912671e-09
3.86180906811e-08
3.51021794214e-08
7.3514915954e-09
2.04230694564e-08
1.81063358527e-08
2.52532499369e-08
1.48585233174e-08
1.67347364758e-08
3.44256881684e-09
3.92141784948e-08
2.43028676498e-08
5.79312571787e-08
3.0080234059e-09
3.00062905979e-08
9.84109262496e-09
1.44051746958e-07
2.66318932705e-08
2.48798708391e-08
1.55451014863e-08
4.79623292825e-08
5.04975107082e-08
5.73214227651e-08
3.94043427101e-08
1.47595837091e-08
4.12005466721e-08
1.80553700807e-08
1.49467357565e-09
2.46980088873e-08
5.65013922903e-10
2.29829317177e-08
4.77908133701e-09
7.84971808931e-09
1.21840858007e-08
7.435870339e-09
1.42438226566e-08
4.40035112367e-09
8.29996857722e-08
9.81861622796e-09
4.02250705831e-08
5.33972778986e-08
3.55077563537e-09
3.30581207862e-10
3.78436161938e-08
1.78399899519e-08
2.39557430136e-08
5.43858802741e-08
3.91857581248e-09
5.04519954981e-09
3.97902465463e-08
5.53925147889e-09
4.43274411968e-09
4.72757765281e-09
2.26075071859e-08
1.41030882553e-08
4.92902366083e-08
4.3490647675e-08
3.09783108169e-09
3.50461038281e-08
1.56632940953e-08
1.75678290191e-07
7.83118107835e-09
9.14180864347e-09
8.58291011332e-09
1.62554363736e-08
2.57704239453e-08
3.51423131003e-08
6.77105875944e-09
3.03505331385e-08
4.9245142028e-08
4.00184992678e-08
2.93469970444e-08
2.36961148191e-08
5.03426274509e-08
6.35962631027e-10
1.05583672019e-08
2.07630094163e-08
3.49283838597e-08
2.29647217553e-08
4.18858603665e-08
8.96367963388e-08
8.63710430854e-10
5.8689700385e-08
6.45527594318e-08
8.22105606118e-09
1.20659202464e-08
3.45240612419e-08
2.1208571288e-08
3.27968938145e-08
1.18185984734e-08
2.35412740115e-08
2.30404635764e-08
2.21096197547e-10
1.52127594302e-09
2.39653167334e-08
1.3538442836e-08
7.26274710738e-09
1.83886950147e-08
1.06857546818e-07
5.99971428898e-09
8.15828395302e-09
4.97859347835e-08
5.19419563596e-09
8.64881302321e-09
2.98762282793e-08
7.59369793739e-09
2.59833431406e-08
5.76977220031e-08
2.10687398867e-08
1.28983347632e-08
2.56295575834e-08
6.0929489513e-08
5.77458887286e-09
1.99842714786e-08
2.32387973352e-08
1.71318296136e-08
4.20029532789e-08
1.44349740013e-08
4.27581096223e-08
9.14659790705e-08
1.08545781165e-08
4.0014939514e-08
3.54795288665e-08
2.03675804256e-08
1.10829879705e-08
1.31018214309e-08
3.25637807724e-08
3.64724879838e-08
5.34213473642e-08
4.31142246364e-08
3.56023326179e-08
1.84693333491e-08
6.71769226249e-08
2.27890596619e-08
1.68853406998e-08
8.65612548931e-08
1.34476033878e-08
8.16889560493e-08
1.61043714829e-08
1.90760293398e-08
3.0557863357e-08
2.15143454776e-08
2.56916690946e-08
3.45543954792e-08
1.36235371145e-08
1.1001744861e-08
1.75735013102e-08
2.09166457394e-08
1.01852023254e-08
3.69568738558e-08
6.97878300901e-09
2.06736117659e-08
5.84313182478e-09
2.28520356023e-08
2.64613735895e-08
4.43988224003e-08
8.39413877615e-09
5.52821503646e-09
7.50900416753e-08
1.04401488393e-07
6.00808562572e-08
2.64262571746e-08
1.53801703933e-07
8.22309066655e-09
1.76052193931e-09
1.4605368708e-08
3.42361431201e-09
1.29880679401e-08
6.3534685076e-09
4.65065852236e-10
9.23647436086e-09
5.12498517061e-10
7.47275293888e-09
1.45083013883e-08
7.52981309712e-09
1.21250518027e-08
4.65620440915e-08
3.75127547217e-08
1.63896579802e-08
7.46336504118e-08
4.38188192534e-09
5.35025154407e-08
9.04119708307e-09
3.85200463918e-09
1.44126268477e-08
7.45231548447e-09
7.24199413629e-08
2.04615743187e-09
2.02255181101e-08
4.5720786818e-09
4.54595346233e-09
7.32415599399e-09
8.92010079928e-08
4.71137162865e-08
2.64946986826e-08
2.38545168441e-08
3.29945298852e-09
1.69371732862e-08
2.96318167408e-08
4.21341369823e-08
4.33761610454e-08
4.2593056751e-09
3.69051090251e-08
3.32432557483e-08
3.27641613951e-08
1.22723060373e-09
4.94461101747e-08
2.85801099039e-08
1.45349918478e-08
7.59912161215e-09
2.27725841739e-08
1.07787424762e-08
3.76153634726e-08
1.89043317331e-08
5.88399874348e-09
1.00625419375e-09
6.96294228775e-09
4.4044418029e-09
9.83825934455e-09
5.75975217988e-08
1.60090527366e-08
3.28828337627e-08
2.25736430637e-08
4.20788804012e-08
9.59025366039e-09
4.42241696486e-08
4.22038544662e-08
7.39700696558e-09
8.94400365595e-10
4.17797660944e-08
2.55048375899e-08
1.8174916405e-08
7.76081560559e-08
6.47130966953e-08
2.5770293821e-08
8.80226136189e-08
1.01861036708e-08
2.6298749703e-08
4.97592432832e-08
1.54941647273e-09
5.44867139887e-09
2.14944657574e-08
3.35354744252e-10
5.07252804334e-08
1.14157830153e-08
3.31548475294e-08
1.94342896334e-08
4.811356315e-08
4.15106804501e-08
7.92933652663e-09
4.1497683863e-08
6.00879347755e-09
7.58654590939e-09
1.0701705967e-07
4.4253759547e-08
6.79727831773e-09
3.53911862296e-08
5.52109111032e-08
2.4418338036e-08
5.82237096982e-09
1.12820964969e-08
1.18418924053e-08
9.80274418842e-09
7.25447833633e-08
3.93221409105e-08
3.53820394686e-08
1.52703228943e-08
8.58860697604e-09
4.91258662221e-09
9.27744914938e-08
2.4408784351e-08
9.53555332279e-09
1.23231909149e-09
4.60110262558e-09
1.04705258546e-08
1.11161163158e-08
1.35586365589e-08
3.75022444423e-09
1.23232951362e-08
2.63150424237e-08
3.64859547611e-09
2.20992681366e-08
8.2597110593e-08
6.03379441022e-08
5.10300465511e-09
1.26929631277e-08
4.64495456429e-08
1.59689350859e-08
1.63242739222e-08
9.49610969511e-09
1.04546328598e-08
2.30662350307e-08
3.86911366443e-08
3.16389697435e-08
3.43794463333e-08
4.27283468981e-08
1.6790277249e-08
1.60139789908e-09
5.86974963479e-08
5.59048606048e-08
1.77289911951e-08
1.62581847952e-08
7.50213924941e-09
1.39904210979e-08
2.44199599231e-09
1.60389977643e-08
4.42721909402e-08
5.97819247902e-08
1.09774656795e-08
1.29972865909e-08
1.28310076437e-08
5.75871042029e-09
6.5179679663e-08
2.07136579834e-09
4.00389163791e-08
6.27427102732e-10
6.97882924828e-09
2.19238390492e-08
1.39206833766e-08
1.37835011732e-08
5.07372501759e-09
1.39453811879e-08
2.30271076163e-09
1.38070641316e-08
1.8564524123e-08
1.90203683241e-08
1.4488679647e-09
4.20347744495e-08
8.76793542021e-08
1.11591103865e-07
3.58430977495e-08
4.3565211196e-08
2.57393989869e-08
1.52945318549e-08
2.10234148388e-08
4.36971143558e-08
5.27958914166e-08
4.86743915194e-09
2.58609736856e-10
2.8593043547e-09
1.87927893625e-08
5.63887007874e-08
1.98846875283e-08
1.09643959124e-09
5.36652321723e-08
2.73520180762e-08
2.9625512627e-09
1.10648976403e-08
6.91996151228e-09
3.45142500369e-08
4.36335661907e-08
1.31632367131e-08
6.55800502997e-09
1.4753848124e-08
1.07350126041e-09
4.4256751398e-08
1.5237261926e-08
1.07577499632e-08
2.91845448827e-08
3.91662280013e-09
1.73264444103e-10
4.69643175241e-09
1.47088433863e-08
1.0291713037e-08
2.18425011643e-08
4.52394685018e-08
3.51584474503e-08
7.69911643249e-09
1.87060987024e-08
7.32625413693e-09
1.81743287199e-08
4.65948366382e-09
6.88518702538e-08

