# vtk DataFile Version 3.0
File Name: Molecule/sphere_excent/sphere_excent_0-s5.vtk
ASCII
DATASET UNSTRUCTURED_GRID
FIELD FieldData 1
TIME 1 1 double
0.0
POINTS 56 double
0.85064989328 -0.52573275566 2.9757136417e-06
0.80892878771 -0.30898308754 -0.49994635582
0.99989742041 -4.1311445784e-06 -4.5135038818e-07
0.80892622471 0.30898621678 -0.4999486208
0.52572894096 8.6081705319e-08 -0.85065215826
0.85063898563 0.5257511735 -0.0001005501108
0.49994462729 0.80893039703 -0.30898395181
0.30898025632 0.4999448657 -0.80893093348
-2.4966459478e-06 0.85065150261 -0.52572995424
0.50014322996 0.8090570569 0.30848446488
-5.7045490394e-06 0.99989789724 4.8098248953e-05
3.7492143747e-05 0.84999042749 0.52670162916
-0.50021648407 0.80906438828 0.30859446526
-0.49995577335 0.80892711878 -0.30898764729
-0.85065937042 0.5257204771 -2.8394857509e-05
-0.32890242338 0.52315145731 0.78509694338
-0.81562870741 0.31905093789 0.48034229875
-0.30218300223 -0.52446401119 0.79492694139
-0.00048281956697 -0.85263860226 0.52263557911
0.31036150455 -0.5535337925 0.77245521545
0.49984127283 -0.8101939559 0.30623239279
0.80808275938 -0.30898088217 0.50113743544
0.3089812398 -0.4999448061 -0.80893075466
-4.0153264536e-07 -1.1567369995e-07 -0.99989140034
-0.30898627639 -0.49994692206 -0.80892717838
-1.1338693184e-06 -0.85064899921 -0.52573406696
-0.52573281527 1.32618311e-06 -0.85064977407
0.81055891514 0.31015959382 0.49673104286
0.55470478535 0.041843384504 0.83005076647
0.34429126978 0.51053804159 0.78699988127
-0.80893611908 -0.3089825511 -0.49994069338
-0.80893486738 0.30898371339 -0.49994254112
-0.99995243549 7.6575823186e-05 0.00026063030236
-0.85065042973 -0.52572983503 1.1640562661e-05
-0.30898338556 0.49994534254 -0.80892890692
-0.49994465709 -0.80893158913 -0.30898439884
-0.49986645579 -0.8093110323 0.3084077239
-3.1182695238e-05 -0.99988973141 -0.00027598123415
-0.80536073446 -0.32145798206 0.49537751079
0.49993473291 -0.80890500546 -0.30907747149
0.27243578434 -0.017092049122 0.96197891235
0.15694203973 0.2668697536 0.95079427958
0.15135063231 -0.27393010259 0.94928598404
-0.021983306855 0.0035433322191 0.99975091219
0.44018465281 -0.25366747379 0.86131030321
-0.00011760729831 0.52626276016 0.85034132004
-0.16878388822 0.27122202516 0.94764560461
-0.5327578783 0.013653914444 0.8459482193
-0.43761152029 -0.25483885407 0.86219632626
-0.28817951679 -0.0034315523226 0.95731914043
-0.1810644418 -0.24852186441 0.95149034262
-0.45101127028 0.26979526877 0.85066437721
-0.59918707609 0.43091586232 0.67467981577
-0.69670921564 0.16605685651 0.69786995649
-0.69895374775 -0.14239214361 0.70051187277
-0.85227543116 0.00029161432758 0.52299112082

CELLS 108 432
3 0 1 2
3 1 3 2
3 1 4 3
3 2 3 5
3 5 3 6
3 3 7 6
3 3 4 7
3 6 7 8
3 5 6 9
3 6 10 9
3 6 8 10
3 9 10 11
3 11 10 12
3 10 13 12
3 10 8 13
3 12 13 14
3 11 12 15
3 12 14 16
3 17 18 19
3 19 20 21
3 19 18 20
3 21 20 0
3 4 22 23
3 22 24 23
3 22 25 24
3 23 24 26
3 0 2 21
3 2 27 21
3 2 5 27
3 21 27 28
3 5 9 27
3 9 29 27
3 9 11 29
3 27 29 28
3 26 30 31
3 30 32 31
3 30 33 32
3 31 32 14
3 8 34 13
3 34 31 13
3 34 26 31
3 13 31 14
3 33 35 36
3 35 37 36
3 35 25 37
3 36 37 18
3 33 36 38
3 36 17 38
3 36 18 17
3 16 14 32
3 38 32 33
3 26 24 30
3 24 35 30
3 24 25 35
3 30 35 33
3 25 39 37
3 39 20 37
3 39 0 20
3 37 20 18
3 4 1 22
3 1 39 22
3 1 0 39
3 22 39 25
3 4 23 7
3 23 34 7
3 23 26 34
3 7 34 8
3 40 28 41
3 19 42 17
3 43 42 40
3 42 44 40
3 42 19 44
3 40 44 28
3 28 44 21
3 44 19 21
3 15 45 11
3 11 45 29
3 15 46 45
3 46 41 45
3 46 43 41
3 45 41 29
3 29 41 28
3 40 41 43
3 47 48 49
3 48 50 49
3 48 17 50
3 49 50 43
3 17 48 38
3 43 50 42
3 42 50 17
3 47 49 51
3 46 49 43
3 16 52 12
3 12 52 15
3 15 52 51
3 52 53 51
3 52 16 53
3 51 53 47
3 47 53 54
3 53 55 54
3 53 16 55
3 54 55 38
3 38 55 32
3 32 55 16
3 15 51 46
3 46 51 49
3 47 54 48
3 48 54 38

CELL_TYPES 108
5
5
5
5
5
5
5
5
5
5
5
5
5
5
5
5
5
5
5
5
5
5
5
5
5
5
5
5
5
5
5
5
5
5
5
5
5
5
5
5
5
5
5
5
5
5
5
5
5
5
5
5
5
5
5
5
5
5
5
5
5
5
5
5
5
5
5
5
5
5
5
5
5
5
5
5
5
5
5
5
5
5
5
5
5
5
5
5
5
5
5
5
5
5
5
5
5
5
5
5
5
5
5
5
5
5
5
5

CELL_DATA 108
SCALARS cell_data_0 double
LOOKUP_TABLE default
1.07639937182e-07
2.7814610096e-07
2.75162272008e-08
8.65275559089e-10
2.12814971003e-07
2.02850335336e-07
1.01500828866e-07
1.43117925131e-07
6.5381723443e-07
1.92953602033e-07
1.769315386e-07
1.23467420264e-06
1.34520480392e-06
1.17153990098e-06
3.83431095889e-07
9.8849225989e-07
5.91285708981e-06
1.53420326137e-06
9.25058472094e-07
6.60651848457e-06
6.57556930677e-06
1.54847299854e-06
1.29820316697e-08
5.02131105124e-08
2.75806191232e-09
2.28772746381e-08
4.5983576907e-07
2.57765161915e-06
7.03410699155e-07
3.33800897591e-06
1.45907383167e-06
3.11814052266e-08
1.12313002285e-06
7.36891913127e-06
1.64309567929e-07
2.71529302762e-07
4.88475462667e-07
4.32424717582e-07
7.7414425656e-08
3.69345785227e-08
9.36084531001e-09
1.29295802995e-07
6.25890977697e-07
2.69987849669e-07
1.8525997604e-07
1.15393583078e-06
1.42798078998e-06
4.74102217281e-07
1.03862312752e-06
2.07138995773e-06
2.07215098126e-06
4.02993267912e-08
3.52263184835e-08
4.66357684618e-08
1.32853267477e-07
3.02791307066e-07
3.65980380521e-07
2.45618241217e-07
5.74756428437e-07
4.77212816133e-08
1.93022948979e-07
8.74947976077e-08
3.66538559006e-08
1.00917061097e-08
3.64519484617e-08
2.09514970664e-08
7.58317822673e-09
2.60479934999e-06
4.7707599652e-06
3.69210628697e-07
1.07480408179e-06
5.71771414684e-06
2.66902494703e-06
2.4324684531e-06
2.31323526647e-06
3.14576577848e-06
2.86208154689e-06
3.10772809441e-07
1.62084775234e-06
1.59808728185e-06
9.02169820398e-07
2.0419785351e-06
1.40506184356e-06
6.64968823519e-07
8.12591706353e-07
1.30121594881e-06
9.32343006052e-07
5.88793426771e-06
2.80754636948e-08
9.92043974265e-07
7.30739163591e-07
9.8692712201e-07
1.40348713136e-06
2.15647819719e-06
3.00209486353e-07
4.10555375688e-07
8.87544219587e-08
3.30272422451e-07
7.3592002073e-07
2.9710384819e-07
4.59844305138e-07
9.21876205391e-07
8.28379829307e-07
1.02547417511e-06
3.2765253723e-07
2.24324072154e-06
8.320457956e-07
2.89582275437e-06

