# vtk DataFile Version 3.0
File Name: Molecule/sphere_dip_12/sphere_dip_12_0-s4.vtk
ASCII
DATASET UNSTRUCTURED_GRID
FIELD FieldData 1
TIME 1 1 double
0.0
POINTS 414 double
1.0 0.0 0.0
0.809016994375 0.309016994375 -0.5
0.850650808352 0.525731112119 0.0
0.5 0.809016994375 -0.309016994375
0.5 0.809016994375 0.309016994375
0.0 1.0 0.0
0.0 0.961938357784 0.273266528913
0.0 0.850650808352 0.525731112119
-0.259891913008 0.862668480416 0.433888564553
-0.26286555606 0.951056516295 0.162459848116
-0.5 0.809016994375 0.309016994375
0.0 0.850650808352 -0.525731112119
-0.26286555606 0.951056516295 -0.162459848116
-0.425325404176 0.688190960236 0.587785252292
-0.16062203564 0.702046444776 0.69378047756
0.809016994375 -0.309016994375 -0.5
0.850650808352 0.0 -0.525731112119
0.69378047756 -0.16062203564 -0.702046444776
0.69378047756 0.16062203564 -0.702046444776
0.688190960236 0.587785252292 -0.425325404176
0.587785252292 0.425325404176 -0.688190960236
0.425325404176 0.688190960236 -0.587785252292
0.259891913008 0.862668480416 -0.433888564553
-0.309016994375 0.5 0.809016994375
-0.162459848116 0.26286555606 0.951056516295
0.0 0.525731112119 0.850650808352
0.162459848116 0.26286555606 0.951056516295
0.0 0.0 1.0
0.309016994375 0.5 0.809016994375
-0.433888564553 0.259891913008 0.862668480416
-0.273266528913 0.0 0.961938357784
0.273266528913 0.0 0.961938357784
0.433888564553 0.259891913008 0.862668480416
-0.525731112119 0.0 0.850650808352
-0.433888564553 -0.259891913008 0.862668480416
-0.162459848116 -0.26286555606 0.951056516295
-0.951056516295 -0.162459848116 -0.26286555606
-0.951056516295 0.162459848116 -0.26286555606
-0.850650808352 0.0 -0.525731112119
-1.0 0.0 0.0
-0.809016994375 -0.309016994375 -0.5
-0.862668480416 -0.433888564553 -0.259891913008
-0.961938357784 -0.273266528913 0.0
-0.850650808352 -0.525731112119 0.0
-0.809016994375 0.309016994375 -0.5
-0.862668480416 0.433888564553 -0.259891913008
-0.961938357784 0.273266528913 0.0
-0.850650808352 0.525731112119 0.0
-0.16062203564 0.702046444776 -0.69378047756
-0.425325404176 0.688190960236 -0.587785252292
-0.259891913008 0.862668480416 -0.433888564553
-0.5 0.809016994375 -0.309016994375
-0.309016994375 0.5 -0.809016994375
-0.587785252292 0.425325404176 -0.688190960236
-0.688190960236 0.587785252292 -0.425325404176
-0.702046444776 0.69378047756 -0.16062203564
-0.702046444776 -0.69378047756 -0.16062203564
-0.702046444776 -0.69378047756 0.16062203564
-0.259891913008 -0.862668480416 0.433888564553
0.0 -0.961938357784 0.273266528913
0.0 -0.850650808352 0.525731112119
-0.862668480416 -0.433888564553 0.259891913008
-0.5 -0.809016994375 0.309016994375
-0.688190960236 -0.587785252292 0.425325404176
-0.425325404176 -0.688190960236 0.587785252292
-0.309016994375 -0.5 0.809016994375
-0.587785252292 -0.425325404176 0.688190960236
-0.16062203564 -0.702046444776 0.69378047756
-0.862668480416 0.433888564553 0.259891913008
-0.16062203564 -0.702046444776 -0.69378047756
0.0 -0.850650808352 -0.525731112119
-0.259891913008 -0.862668480416 -0.433888564553
-0.688190960236 -0.587785252292 -0.425325404176
0.688190960236 -0.587785252292 -0.425325404176
0.587785252292 -0.425325404176 -0.688190960236
0.862668480416 -0.433888564553 -0.259891913008
0.16062203564 -0.702046444776 -0.69378047756
0.259891913008 -0.862668480416 -0.433888564553
0.484441642061 0.131200378813 -0.864929335863
0.643954748142 0.294754166588 -0.70600443598
0.433888564553 0.259891913008 -0.862668480416
-0.519258489728 0.840177885327 -0.15643446504
-0.519258489728 0.840177885327 0.15643446504
-0.702046444776 0.69378047756 0.16062203564
-0.707106781187 0.707106781187 0.0
-0.525731112119 0.850650808352 0.0
-0.601500955008 0.707106781186 0.37174803446
-0.757935420048 0.453990499739 0.468429850867
-0.790569415042 0.572061402817 0.218508012224
-0.688190960236 0.587785252292 0.425325404176
0.0810862934433 -0.78384304242 0.615642020874
-0.0768840702267 -0.622785464303 0.778605872826
0.16062203564 -0.702046444776 0.69378047756
0.259891913008 -0.862668480416 0.433888564553
0.525731112119 0.0 -0.850650808352
0.358228793487 -0.131655371352 -0.924304600611
0.273266528913 0.0 -0.961938357784
0.433888564553 -0.259891913008 -0.862668480416
0.301258879093 -0.264082750659 -0.916244175191
0.220117027473 -0.132792476828 -0.966392597402
0.162459848116 -0.26286555606 -0.951056516295
0.137952242128 0.0 -0.990438881957
0.0822424652791 -0.133071104141 -0.987688340595
0.0 0.0 -1.0
0.0 -0.266404701135 -0.963861263467
-0.0822424652791 -0.133071104141 -0.987688340595
-0.137952242128 0.0 -0.990438881957
-0.220117027473 -0.132792476828 -0.966392597402
0.915043421233 -0.403355348617 0.0
0.924304600611 -0.358228793487 0.131655371352
0.864929335863 -0.484441642061 0.131200378813
0.0822424652791 0.133071104141 -0.987688340595
0.220117027473 0.132792476828 -0.966392597402
-0.0822424652791 0.133071104141 -0.987688340595
0.0 0.266404701135 -0.963861263467
-0.220117027473 0.132792476828 -0.966392597402
0.688190960236 0.587785252292 0.425325404176
0.809016994375 0.309016994375 0.5
0.425325404176 0.688190960236 0.587785252292
0.587785252292 0.425325404176 0.688190960236
0.259891913008 0.862668480416 0.433888564553
0.16062203564 0.702046444776 0.69378047756
-0.266404701135 0.963861263467 0.0
-0.399607051702 0.912982492932 -0.0823235800317
-0.399607051702 0.912982492932 0.0823235800317
-0.0810862934433 0.78384304242 0.615642020874
-0.37174803446 0.601500955008 0.707106781186
-0.646577791798 0.51337544123 0.564254211766
-0.564254211766 0.646577791798 0.51337544123
-0.51337544123 0.564254211766 0.646577791798
-0.587785252292 0.425325404176 0.688190960236
-0.453990499739 0.468429850867 0.757935420048
0.0768840702267 0.622785464303 0.778605872826
0.309016994375 -0.5 0.809016994375
0.375038567478 -0.383613732685 0.843911474622
0.162459848116 -0.26286555606 0.951056516295
0.224799542734 -0.134651124684 0.965056599484
0.433888564553 -0.259891913008 0.862668480416
0.525731112119 0.0 0.850650808352
0.484441642061 -0.131200378813 0.864929335863
0.615642020874 -0.0810862934433 0.78384304242
0.571251659136 -0.213022865649 0.792649229259
0.69378047756 -0.16062203564 0.702046444776
0.516121620051 -0.346153014789 0.783451698363
0.647411893882 -0.296004592578 0.702309846744
0.587785252292 -0.425325404176 0.688190960236
0.453990499739 -0.468429850867 0.757935420048
0.758652300163 -0.237086325351 0.606825149272
0.707106781186 -0.37174803446 0.601500955008
0.809016994375 -0.309016994375 0.5
0.37174803446 -0.601500955008 0.707106781186
0.51337544123 -0.564254211766 0.646577791798
0.425325404176 -0.688190960236 0.587785252292
0.564254211766 -0.646577791798 0.51337544123
0.646577791798 -0.51337544123 0.564254211766
0.688190960236 -0.587785252292 0.425325404176
0.468429850867 -0.757935420048 0.453990499739
0.601500955008 -0.707106781186 0.37174803446
0.5 -0.809016994375 0.309016994375
0.757935420048 -0.453990499739 0.468429850867
0.237086325351 -0.606825149272 0.758652300163
0.296004592578 -0.702309846744 0.647411893882
0.213022865649 -0.792649229259 0.571251659136
0.346153014789 -0.783451698363 0.516121620051
0.383613732685 -0.843911474622 0.375038567478
0.843911474622 -0.375038567478 0.383613732685
0.783451698363 -0.516121620051 0.346153014789
0.862668480416 -0.433888564553 0.259891913008
0.702309846744 -0.647411893882 0.296004592578
0.606825149272 -0.758652300163 0.237086325351
0.702046444776 -0.69378047756 0.16062203564
0.309016994375 -0.5 -0.809016994375
0.15643446504 -0.519258489728 -0.840177885327
0.238676930319 -0.386187385588 -0.891006524188
0.0823235800317 -0.399607051702 -0.912982492932
0.0 -0.525731112119 -0.850650808352
-0.15643446504 -0.519258489728 -0.840177885327
-0.0823235800317 -0.399607051702 -0.912982492932
-0.238676930319 -0.386187385588 -0.891006524188
-0.309016994375 -0.5 -0.809016994375
-0.162459848116 -0.26286555606 -0.951056516295
-0.301258879093 -0.264082750659 -0.916244175191
-0.375038567478 -0.383613732685 -0.843911474622
-0.433888564553 -0.259891913008 -0.862668480416
-0.273266528913 0.0 -0.961938357784
-0.358228793487 -0.131655371352 -0.924304600611
-0.403355348617 0.0 -0.915043421233
-0.484441642061 -0.131200378813 -0.864929335863
-0.525731112119 0.0 -0.850650808352
0.961938357784 -0.273266528913 0.0
0.990438881957 -0.137952242128 0.0
0.966392597402 -0.220117027473 0.132792476828
0.987688340595 -0.0822424652791 0.133071104141
0.951056516295 -0.162459848116 0.26286555606
0.916244175191 -0.301258879093 0.264082750659
0.891006524188 -0.238676930319 0.386187385588
0.987688340595 0.0822424652791 0.133071104141
0.963861263467 0.0 0.266404701135
0.951056516295 0.162459848116 0.26286555606
0.912982492932 0.0823235800317 0.399607051702
0.912982492932 -0.0823235800317 0.399607051702
0.850650808352 0.0 0.525731112119
0.891006524188 0.238676930319 0.386187385588
0.840177885327 0.15643446504 0.519258489728
0.840177885327 -0.15643446504 0.519258489728
0.78020437071 -0.08114185162 0.620239582613
0.78020437071 0.08114185162 0.620239582613
0.702907030488 0.0 0.711281734962
0.69378047756 0.16062203564 0.702046444776
0.758652300163 0.237086325351 0.606825149272
0.615642020874 0.0810862934433 0.78384304242
0.519553709322 0.342271135182 0.782888506207
-0.433888564553 0.259891913008 -0.862668480416
-0.484441642061 0.131200378813 -0.864929335863
-0.643954748142 0.294754166588 -0.70600443598
-0.69378047756 0.16062203564 -0.702046444776
-0.69378047756 -0.16062203564 -0.702046444776
-0.643954748142 -0.294754166588 -0.70600443598
0.26286555606 -0.951056516295 0.162459848116
0.134651124684 -0.965056599484 0.224799542734
0.0 -1.0 0.0
-0.162459848116 0.26286555606 -0.951056516295
-0.238676930319 0.386187385588 -0.891006524188
-0.0823235800317 0.399607051702 -0.912982492932
-0.15643446504 0.519258489728 -0.840177885327
0.0 0.525731112119 -0.850650808352
0.162459848116 0.26286555606 -0.951056516295
0.0823235800317 0.399607051702 -0.912982492932
0.238676930319 0.386187385588 -0.891006524188
0.15643446504 0.519258489728 -0.840177885327
0.309016994375 0.5 -0.809016994375
[...]
CELL_DATA 824
SCALARS cell_data_0 double
LOOKUP_TABLE default
6.76083756278e-05
0.000175009123895
0.000437508752588
0.000221008080154
4.86392836063e-05
2.74480303491e-05
6.48216199315e-05
2.02419559515e-05
2.51333081447e-05
4.23051674666e-05
3.13322887684e-05
4.41459516469e-05
4.76058333882e-05
2.18623128345e-05
1.9779456005e-05
0.000106812033623
0.000173263580432
1.6614290375e-05
6.56970586903e-05
2.23608064333e-05
5.80801433727e-05
1.61905773292e-06
3.34582948393e-05
6.69423496458e-05
8.79590325015e-05
4.92424172602e-05
5.57041512937e-05
7.27592455182e-05
5.99740645294e-05
7.20177344177e-05
4.41414449205e-05
6.04385222063e-05
0.000727368456691
0.000633465564604
0.000292319072878
0.000585632617829
0.000285349489362
0.000505625901919
0.000936439059928
0.000455296693811
0.000977694518258
0.0006557869998
0.000348073130354
0.00108630251385
0.000522665829821
0.000777450815434
0.0006915809328
0.0010773760147
0.00052896869284
0.00053450412553
0.000182557846324
0.000533014684349
8.46368164698e-07
2.20442446594e-05
2.50110129854e-05
4.92899119739e-06
0.000243866642589
0.000190370389671
0.00018587971022
1.34479148057e-06
8.349382066e-06
0.000179596685766
9.66209535927e-05
7.7859148063e-05
0.000354286987811
4.79141789206e-05
8.675611689e-06
4.00314350255e-05
4.93974724967e-05
6.37653210353e-05
2.24053834384e-05
3.28358933034e-05
1.59829073112e-05
1.18835576149e-05
0.000167576935911
0.000264312042013
1.48524089954e-05
8.02567187419e-06
2.54705959673e-05
3.77285821906e-06
2.29024368853e-05
0.000126972156785
0.000155531344351
0.000119125246357
1.67706326931e-05
6.43875051394e-06
5.32487408643e-06
6.19900701457e-06
9.17007151825e-06
8.51095317314e-06
1.31096859701e-05
1.63415150521e-05
8.55722160264e-07
5.4828409028e-06
1.40220256484e-05
4.05679149446e-06
1.32246673557e-06
8.05832357137e-05
3.6926360673e-05
4.26985749885e-05
4.59148011547e-05
4.57153142022e-05
4.85248422096e-05
5.74162029292e-05
5.57626909286e-05
8.27124270322e-05
7.32188077588e-05
9.97122422384e-05
7.78938685837e-05
5.18668416278e-05
2.6313768356e-06
8.53256189184e-05
4.93502037734e-05
7.65044880225e-05
8.98475994316e-05
5.67059332842e-05
7.57750435903e-05
6.5578594566e-05
0.000265922867648
0.000211111014673
0.000399210427156
0.000611556622076
0.000374465678368
0.000370512448487
0.000366569066731
0.000447517463771
0.000255842156177
0.000242659140463
0.000166841354988
0.000201898474908
0.000117804030921
0.000122443350813
9.82804531195e-05
0.000158410057877
0.000105027289929
8.34282692398e-05
0.00011613521265
0.000114103219874
9.51210167211e-05
9.75233763418e-05
7.77976603811e-05
0.00018214262728
0.000161849264463
0.000126984906697
0.000134386461242
0.000216353188323
0.000179458073024
0.000111295676673
0.000179298129079
0.000286426956866
0.000216187449335
0.000126753541043
0.00011244347145
5.67111854828e-05
1.85716481422e-05
5.72951066857e-07
6.36601129979e-06
6.1121736989e-06
4.61739130109e-06
4.00966361895e-06
4.51084520355e-06
5.2630641589e-06
3.49558228904e-06
3.65022497357e-06
1.6877735072e-05
1.34270405067e-05
2.8734461951e-05
3.80049027713e-06
1.95365784423e-06
2.38926777636e-06
2.05003602586e-06
1.32848171893e-05
2.39097128826e-06
4.51334043677e-06
2.94923295305e-06
3.27528929421e-06
1.95230758239e-06
1.64709290115e-06
3.0921096767e-07
1.49193152501e-06
8.81664776335e-07
1.91191133186e-07
4.26260271015e-06
8.79237530173e-08
1.19175060302e-06
9.15925067183e-07
1.79754120418e-07
1.75641462884e-05
3.57565918122e-06
2.6224922963e-06
7.79578351554e-06
1.83387095357e-06
1.10286358107e-05
2.33959879664e-06
2.52272949256e-06
5.89605596001e-07
6.83807057475e-07
1.95703181602e-06
2.08465529857e-06
4.45168873914e-06
2.11734922943e-05
6.2358668731e-06
3.21112644218e-06
6.69480450926e-06
2.54487485197e-05
6.59675084838e-05
3.33143392974e-05
6.4731359036e-05
3.65633012171e-05
3.95944443918e-05
4.25244942876e-05
5.62693186983e-05
4.60342722883e-05
4.47077110132e-05
4.49992309974e-05
4.95156354561e-05
4.1599254681e-05
3.70434925268e-05
2.56364135984e-05
3.43189993857e-05
4.44304517254e-05
8.63644799219e-06
2.98404202746e-05
2.52516154585e-05
8.6180241713e-05
0.000163378123856
7.52439936724e-05
0.000136124153586
3.67682086701e-05
7.44611810282e-05
9.17665764924e-05
5.55233800375e-05
8.20538385846e-05
0.000168210621469
9.9957655872e-05
0.00014613443679
0.000137403786109
0.000185625519211
0.000100762811811
0.000126750128344
8.15418153706e-05
0.000105372898252
5.02862472594e-05
8.31817082424e-05
9.32987727589e-05
0.000102550505692
6.095311515e-05
9.39883614132e-05
6.5470421702e-05
6.79503089078e-05
9.87387430249e-05
6.73051941121e-05
3.6435855277e-05
2.38229712312e-05
3.12191827747e-05
6.11156683678e-06
2.99692917976e-05
4.00537501107e-05
3.00484671173e-05
1.88213466033e-05
3.97821793352e-05
4.77815763505e-05
3.61325915084e-05
2.70510490191e-05
5.56681825414e-06
1.52890992801e-05
2.24637079428e-05
1.49952991701e-06
0.000106662645264
0.000136487389692
4.5956483472e-05
0.000112432882689
5.60564579591e-05
4.87218277103e-05
5.81182163594e-05
2.94973178799e-05
5.31467471671e-05
3.64982684773e-05
5.6986626134e-05
3.01106606247e-05
2.2849455983e-05
4.94347447373e-05
2.69188939879e-05
4.57664583239e-05
6.82799966616e-05
5.70658745492e-05
4.31368368663e-05
4.52716259841e-05
5.32577432616e-05
4.33420224678e-05
4.05237804433e-05
3.58344193615e-05
5.26044173487e-05
3.78588441111e-05
3.11753075112e-05
3.36057213325e-05
5.01752279004e-05
3.96331229645e-05
3.22538671837e-05
3.39738203175e-05
2.46594741005e-06
1.97068731657e-05
1.28035760574e-05
2.08813660295e-05
2.51607944682e-05
1.62993063515e-05
9.19079635853e-07
4.4285275969e-06
2.00243221282e-05
2.10682329721e-05
2.53045686363e-05
1.74227446002e-05
2.32638285626e-05
2.6575001901e-05
1.4505802197e-05
1.76591644592e-05
2.10627095682e-05
1.70958907216e-05
2.44862742085e-05
1.83963065534e-05
1.11114566256e-05
1.93723213728e-05
2.21484685546e-05
2.02109902139e-05
2.08592612682e-05
1.80155231834e-05
1.98203063881e-05
2.09528926891e-05
1.20106901579e-05
2.1984992484e-05
3.20159209953e-05
3.72071655926e-05
6.52626315751e-06
4.94564209123e-06
3.3763575777e-05
4.65645633595e-05
1.61604233518e-06
1.97232498012e-05
2.69617965524e-05
1.30648420251e-05
1.95262083418e-05
2.8880322337e-05
5.36811665344e-06
4.82501497838e-05
5.00252348889e-05
3.04835930472e-05
3.57777912564e-06
1.98697830997e-05
0.000132495485867
6.89697930886e-05
0.000103766854122
0.000171225324201
0.000173243719024
0.000103312976739
0.000134708268233
0.000240202338032
6.01008999635e-05
0.000200469338953
0.000174644237872
1.89272347068e-05
9.5860637959e-05
1.56918228639e-06
4.30771768865e-05
2.48746816546e-06
2.07805268184e-06
1.41283184817e-06
4.48289194154e-07
1.18148933443e-05
2.11314193295e-06
1.91345720895e-06
2.07891660968e-06
1.11635770207e-06
9.15428674464e-09
3.31245240827e-06
8.687940691e-05
1.43393536309e-06
2.16025767625e-06
7.19188653485e-06
5.62467817366e-06
8.57851392619e-05
2.00416837459e-06
4.67798997219e-06
8.5067945069e-05
9.80172295792e-06
2.3244767629e-06
3.51789672535e-06
3.869957088e-05
2.84283933377e-06
3.90990566466e-05
4.06412487936e-06
5.28510877786e-05
3.12505339744e-06
9.63255314941e-05
7.00575004883e-05
2.82869503205e-07
4.4276592079e-07
5.41397854154e-05
1.76188558131e-06
0.00013284844817
0.000314385919025
0.000313332671123
0.000281710697388
7.0009227566e-05
3.17897904239e-06
2.86823211027e-06
5.24883393313e-05
2.03428737719e-06
9.66148982763e-07
6.63298936676e-07
2.38624966741e-07
7.49373110076e-07
4.084009897e-06
1.54046267314e-06
8.99564533098e-07
1.06384341254e-07
1.51199094155e-06
9.45711285939e-07
3.79686828877e-06
2.7316109306e-06
2.48923303399e-06
1.52110917019e-06
1.63013677872e-06
8.7577739951e-06
7.45919713534e-06
1.30724268211e-05
9.89280229811e-06
5.26105021382e-06
4.92785462697e-06
3.90626580769e-06
3.07115503857e-06
2.98120367228e-06
2.77346867057e-06
1.22476918222e-06
2.21430075575e-06
2.17045743995e-06
1.50320792554e-06
2.01078949814e-06
6.58060747876e-07
1.32505582409e-06
8.03180825786e-06
9.14411983652e-06
1.53149837644e-05
2.11992556808e-05
2.79611452428e-05
2.88715425674e-05
7.76931739444e-06
1.60949958332e-05
2.27556101305e-05
1.23639832144e-05
1.44284863395e-05
9.01947979391e-06
1.89279826396e-05
2.77728137396e-05
1.60561211469e-05
1.82420230382e-05
4.24084929445e-05
2.40884952424e-05
4.38540351303e-05
3.20675013783e-05
4.21991214663e-05
0.000119768915282
1.26789986821e-05
7.54062444298e-06
6.75661198803e-06
5.28168279461e-05
1.25417652499e-05
2.00307845002e-05
1.6316396863e-05
1.76328157297e-05
2.01203519138e-06
5.45034171201e-06
6.51466047377e-06
4.38645202683e-05
4.01663589802e-06
1.04794315722e-05
9.8232856256e-06
1.97622330052e-05
3.91472598322e-05
2.95802394237e-06
7.10211917941e-05
4.33473382961e-05
5.7433446354e-05
3.57934363287e-05
2.97242130572e-05
9.67079874969e-06
5.81884961411e-06
2.52259400231e-06
6.87718973326e-06
1.91993013532e-05
3.00427131251e-05
4.91402008499e-05
3.81567181345e-05
4.24758704317e-05
3.06562244542e-05
8.60330495649e-06
6.10105660677e-06
3.24584942912e-05
2.39421475519e-06
3.68809634222e-05
0.000180354194025
4.28712669547e-06
3.47141111473e-06
2.36782209717e-06
4.12377839569e-05
3.38834957866e-06
0.000113919433554
6.1425569482e-06
9.15705800749e-06
8.12979669751e-06
6.79053581575e-05
4.21498517387e-06
1.99162119264e-05
1.26928262361e-05
2.11193741858e-05
5.95385107767e-05
1.50790599287e-06
3.24671736538e-06
5.55693285901e-07
1.45785089584e-05
2.09958235376e-05
8.14125459314e-06
3.21299226708e-05
1.30702695862e-05
3.39184295923e-05
3.80632982315e-05
2.55571650684e-05
2.62553208545e-05
2.95700580117e-05
5.69074658359e-06
3.12837929602e-06
8.0290786647e-06
7.55645294733e-06
4.94680498267e-05
3.71379375073e-05
2.16752341516e-05
1.15631055684e-05
2.85277236265e-05
2.38028514078e-05
2.35394825821e-06
1.95287199163e-06
2.28833848002e-06
1.25711630991e-06
3.51906971702e-05
4.50620849036e-05
2.33235551687e-05
2.31364934174e-05
6.61360935926e-06
5.2258153513e-06
9.60023809453e-06
3.80278409504e-06
2.13141770505e-05
2.28579487381e-05
2.65320198867e-06
2.24303762442e-05
1.56763964393e-05
4.17380575198e-06
2.1464994702e-05
2.92993239343e-05
2.58323977231e-05
4.32779042767e-05
2.56530737892e-05
3.91300684883e-05
8.67431772921e-06
1.85170968517e-05
8.7929165438e-06
2.15162682507e-05
4.79241382381e-05
3.64407713131e-05
2.4909252778e-05
3.06871362201e-05
3.07288642406e-05
2.10640362897e-05
2.86590756083e-05
3.24807021452e-05
9.89351136721e-06
1.22474597239e-05
1.46825596292e-05
1.25105913456e-05
5.8661575859e-05
3.37441047359e-05
2.56606333595e-05
4.57709034682e-05
3.57249761385e-05
3.71316174741e-05
1.52566712429e-05
1.59453864719e-05
1.85715240301e-06
3.24721145957e-05
3.14866677738e-06
3.81124332172e-06
4.49945961184e-06
1.4170190485e-05
8.00463123636e-06
4.32840607014e-06
1.9718476906e-06
4.37217048992e-06
6.65725761938e-06
6.95583875737e-06
7.1468866256e-06
1.00452557734e-05
5.63025442842e-05
2.2956788518e-05
6.64296173172e-06
3.3944161521e-05
3.37383367528e-06
1.30622672209e-06
2.68536889492e-06
1.65529212508e-05
1.11908640978e-05
5.131943333e-06
4.20620157204e-06
6.22099295112e-06
4.91792750079e-05
6.66899577594e-05
1.2299389626e-06
5.73098599477e-06
9.58150323412e-06
5.39628779879e-07
1.70292619965e-05
1.9865519783e-05
3.29781805694e-05
2.2837233514e-05
1.10274661504e-06
1.14991345442e-05
1.2996119917e-05
1.29484483018e-05
1.83101398562e-07
1.31313954232e-05
1.56795453053e-06
1.40407332001e-06
1.33208891585e-07
1.77367054162e-06
1.60000038113e-07
9.98784824108e-09
1.02334303924e-07
1.4873604135e-07
1.34490249896e-07
2.4884777357e-08
2.06609002248e-08
1.20563196792e-07
1.49955849198e-07
5.56435733851e-08
6.05819331049e-08
4.98410600242e-08
1.30264525198e-07
5.28223262324e-06
5.34405918632e-06
7.6502718214e-06
3.73629268885e-05
3.71128080679e-05
4.17539597101e-05
4.52863749239e-05
3.35444035358e-05
3.14590526481e-05
3.48233635116e-05
2.26225728104e-05
2.76621881146e-05
2.46095459057e-05
1.88823193878e-05
2.0863354637e-05
3.18889333523e-05
3.31381044754e-05
3.7578156306e-05
3.84362019189e-05
3.94677917714e-05
3.92626252127e-05
2.10224318588e-05
3.82236752479e-05
2.36777408808e-05
1.86278640095e-05
1.79586014072e-05
2.79587526899e-05
2.54730981134e-05
7.31696557553e-07
1.72822603293e-07
7.55556950136e-06
5.8807979046e-06
2.39849621881e-05
3.3708741863e-05
3.36363079978e-05
3.33674637951e-05
3.39425263007e-05
2.6799531623e-05
2.35330111253e-05
3.16062546752e-05
2.34594513032e-05
2.08771121374e-05
2.73979619759e-05
3.0994692298e-05
2.88373149539e-05
1.3546692312e-06
3.98660436407e-06
1.09861831796e-05
8.85808061498e-06
2.58403483152e-07
2.30270001956e-07
5.05291956235e-05
3.207264981e-05
4.6366071708e-05
6.90494164413e-05
7.33109018912e-06
2.05176681627e-05
3.82823563236e-06
3.09066781384e-05
2.65535709392e-05
1.77169428117e-05
4.82355174328e-06
1.01737829562e-06
5.92058921782e-07
4.48004386027e-05
7.1085270288e-06
3.2703741369e-06
1.02392999436e-05
1.40017502076e-05
1.96853662735e-05
2.27707027355e-05
2.86465351765e-05
1.95751079458e-05
1.79082020566e-05
1.20183158755e-05
1.49011424325e-05
1.04708337664e-05
1.05032549829e-05
1.78565226662e-06
1.06372028514e-07
8.9406744411e-09
1.38941979946e-07
1.66067381753e-06
1.37804767396e-07
1.99021238637e-07
5.99570008381e-08
8.86717690708e-08
1.67642074806e-06
7.38043065794e-08
1.89156217442e-07
5.44494777085e-08
4.64398987363e-08
3.13575433351e-07
1.06867290054e-06
3.83520114889e-06
4.40175954457e-07
2.52609730689e-05
2.48879184928e-05
3.25305812311e-05
0.000102158638254
7.33189774346e-07
1.31790190006e-05
1.38344215964e-05
5.07009624223e-05
1.37810489149e-05
2.02691763678e-05
4.22017632504e-05
8.35215380961e-06
8.62658313107e-06
1.27568165833e-05
7.11536849682e-06
2.772593187e-05
1.63505469266e-05
3.69236546569e-06
2.22430643343e-05
4.61155425098e-05
1.7046904446e-05
5.11305296101e-05
3.70130284744e-05
2.30738792888e-05
5.1763983258e-07
2.38729655631e-05
1.35945460459e-05
2.36120780647e-05
1.99878239183e-07
1.48380284961e-05
1.34596202343e-05
3.34094504257e-05
3.3167188653e-05
3.10080723147e-05
3.29521368874e-05
1.49679645347e-05
1.66139735621e-05
1.6747129183e-05
1.94299163566e-05
1.35924842021e-05
1.27970391537e-05
1.74996079453e-05
1.78019868596e-05
3.75446924531e-05
3.88560273464e-05
3.93165443172e-05
3.71220502011e-05
2.61275978091e-05
1.33237715472e-05
2.79027950059e-05
1.65632250385e-05
2.20912503642e-05
2.07377614751e-05
2.78683285275e-05
3.49385638723e-05
3.46166891183e-05
3.25231769627e-05
3.13239992175e-05
3.14014294239e-05
2.49496822578e-05
1.32394279672e-05
1.29729472713e-05
1.76686859738e-05
2.04862785505e-05
1.95166602943e-05
1.31454699756e-05
3.01702984297e-05
8.8083643855e-06
6.46574196721e-06
1.35819043913e-05
9.56082185738e-06
2.42102476486e-05
2.3421967294e-05
1.78179359919e-05
2.46811024916e-05
2.48881596101e-05
2.21155412315e-05
2.0536665891e-05
2.08829554798e-05
9.5957249943e-06
7.75000351186e-06
2.94905014898e-05
9.55072718809e-06

