# vtk DataFile Version 3.0
File Name: Molecule/sphere_dip_12/sphere_dip_12_0-s3.vtk
ASCII
DATASET UNSTRUCTURED_GRID
FIELD FieldData 1
TIME 1 1 double
0.0
POINTS 172 double
1.0 0.0 0.0
0.809016994375 0.309016994375 -0.5
0.850650808352 0.525731112119 0.0
0.5 0.809016994375 -0.309016994375
0.5 0.809016994375 0.309016994375
0.0 1.0 0.0
0.809016994375 0.309016994375 0.5
0.309016994375 0.5 0.809016994375
0.0 0.850650808352 0.525731112119
0.0 0.961938357784 0.273266528913
-0.259891913008 0.862668480416 0.433888564553
-0.26286555606 0.951056516295 0.162459848116
-0.5 0.809016994375 0.309016994375
-0.26286555606 0.951056516295 -0.162459848116
-0.525731112119 0.850650808352 0.0
0.0 0.850650808352 -0.525731112119
-0.16062203564 0.702046444776 0.69378047756
-0.425325404176 0.688190960236 0.587785252292
-0.309016994375 0.5 0.809016994375
-0.688190960236 0.587785252292 0.425325404176
-0.587785252292 0.425325404176 0.688190960236
0.309016994375 -0.5 0.809016994375
0.433888564553 -0.259891913008 0.862668480416
0.0 0.0 1.0
0.525731112119 0.0 0.850650808352
0.69378047756 -0.16062203564 0.702046444776
0.587785252292 -0.425325404176 0.688190960236
0.809016994375 -0.309016994375 0.5
0.425325404176 -0.688190960236 0.587785252292
0.688190960236 -0.587785252292 0.425325404176
0.5 -0.809016994375 0.309016994375
0.16062203564 -0.702046444776 0.69378047756
0.259891913008 -0.862668480416 0.433888564553
0.862668480416 -0.433888564553 0.259891913008
0.702046444776 -0.69378047756 0.16062203564
0.309016994375 -0.5 -0.809016994375
0.0 -0.525731112119 -0.850650808352
0.162459848116 -0.26286555606 -0.951056516295
-0.309016994375 -0.5 -0.809016994375
-0.162459848116 -0.26286555606 -0.951056516295
-0.433888564553 -0.259891913008 -0.862668480416
-0.273266528913 0.0 -0.961938357784
-0.525731112119 0.0 -0.850650808352
0.961938357784 -0.273266528913 0.0
0.951056516295 -0.162459848116 0.26286555606
0.951056516295 0.162459848116 0.26286555606
0.850650808352 0.0 0.525731112119
0.69378047756 0.16062203564 0.702046444776
-0.433888564553 0.259891913008 -0.862668480416
-0.809016994375 0.309016994375 -0.5
-0.809016994375 -0.309016994375 -0.5
0.0 -1.0 0.0
-0.162459848116 0.26286555606 -0.951056516295
-0.309016994375 0.5 -0.809016994375
0.0 0.525731112119 -0.850650808352
0.162459848116 0.26286555606 -0.951056516295
0.309016994375 0.5 -0.809016994375
0.809016994375 -0.309016994375 -0.5
0.850650808352 0.0 -0.525731112119
0.69378047756 -0.16062203564 -0.702046444776
0.69378047756 0.16062203564 -0.702046444776
0.525731112119 0.0 -0.850650808352
0.688190960236 0.587785252292 -0.425325404176
0.587785252292 0.425325404176 -0.688190960236
0.425325404176 0.688190960236 -0.587785252292
0.259891913008 0.862668480416 -0.433888564553
0.16062203564 0.702046444776 -0.69378047756
-0.162459848116 0.26286555606 0.951056516295
0.0 0.525731112119 0.850650808352
0.162459848116 0.26286555606 0.951056516295
-0.433888564553 0.259891913008 0.862668480416
-0.273266528913 0.0 0.961938357784
-0.525731112119 0.0 0.850650808352
0.433888564553 0.259891913008 0.862668480416
0.273266528913 0.0 0.961938357784
-0.433888564553 -0.259891913008 0.862668480416
-0.162459848116 -0.26286555606 0.951056516295
-0.309016994375 -0.5 0.809016994375
-0.850650808352 0.0 -0.525731112119
-0.951056516295 -0.162459848116 -0.26286555606
-0.951056516295 0.162459848116 -0.26286555606
-1.0 0.0 0.0
-0.862668480416 -0.433888564553 -0.259891913008
-0.961938357784 -0.273266528913 0.0
-0.850650808352 -0.525731112119 0.0
-0.862668480416 0.433888564553 -0.259891913008
-0.961938357784 0.273266528913 0.0
-0.850650808352 0.525731112119 0.0
-0.16062203564 0.702046444776 -0.69378047756
-0.259891913008 0.862668480416 -0.433888564553
-0.425325404176 0.688190960236 -0.587785252292
-0.5 0.809016994375 -0.309016994375
-0.587785252292 0.425325404176 -0.688190960236
-0.688190960236 0.587785252292 -0.425325404176
-0.702046444776 0.69378047756 -0.16062203564
-0.702046444776 -0.69378047756 -0.16062203564
-0.702046444776 -0.69378047756 0.16062203564
-0.525731112119 -0.850650808352 0.0
-0.5 -0.809016994375 -0.309016994375
-0.5 -0.809016994375 0.309016994375
-0.26286555606 -0.951056516295 -0.162459848116
-0.26286555606 -0.951056516295 0.162459848116
-0.259891913008 -0.862668480416 -0.433888564553
0.0 -0.961938357784 -0.273266528913
0.0 -0.850650808352 -0.525731112119
-0.259891913008 -0.862668480416 0.433888564553
0.0 -0.961938357784 0.273266528913
0.0 -0.850650808352 0.525731112119
-0.862668480416 -0.433888564553 0.259891913008
-0.688190960236 -0.587785252292 0.425325404176
-0.809016994375 -0.309016994375 0.5
-0.425325404176 -0.688190960236 0.587785252292
-0.587785252292 -0.425325404176 0.688190960236
-0.16062203564 -0.702046444776 0.69378047756
-0.69378047756 -0.16062203564 0.702046444776
-0.69378047756 0.16062203564 0.702046444776
-0.850650808352 0.0 0.525731112119
-0.809016994375 0.309016994375 0.5
-0.951056516295 0.162459848116 0.26286555606
-0.951056516295 -0.162459848116 0.26286555606
-0.862668480416 0.433888564553 0.259891913008
-0.425325404176 -0.688190960236 -0.587785252292
-0.587785252292 -0.425325404176 -0.688190960236
-0.688190960236 -0.587785252292 -0.425325404176
-0.16062203564 -0.702046444776 -0.69378047756
0.259891913008 -0.862668480416 -0.433888564553
0.26286555606 -0.951056516295 -0.162459848116
0.5 -0.809016994375 -0.309016994375
0.688190960236 -0.587785252292 -0.425325404176
0.587785252292 -0.425325404176 -0.688190960236
0.425325404176 -0.688190960236 -0.587785252292
0.862668480416 -0.433888564553 -0.259891913008
0.702046444776 -0.69378047756 -0.16062203564
0.850650808352 -0.525731112119 0.0
0.16062203564 -0.702046444776 -0.69378047756
0.917539630891 -0.301683612961 -0.259052163504
0.915043421233 -0.403355348617 0.0
0.484441642061 0.131200378813 -0.864929335863
0.643954748142 0.294754166588 -0.70600443598
0.433888564553 0.259891913008 -0.862668480416
0.375038567478 0.383613732685 -0.843911474622
-0.519258489728 0.840177885327 -0.15643446504
-0.519258489728 0.840177885327 0.15643446504
-0.702046444776 0.69378047756 0.16062203564
-0.707106781187 0.707106781187 0.0
-0.601500955008 0.707106781186 0.37174803446
-0.757935420048 0.453990499739 0.468429850867
-0.790569415042 0.572061402817 0.218508012224
0.0810862934433 -0.78384304242 0.615642020874
-0.0768840702267 -0.622785464303 0.778605872826
0.792649229259 -0.571251659136 0.213022865649
0.864929335863 -0.484441642061 0.131200378813
0.78384304242 -0.615642020874 0.0810862934433
0.433888564553 -0.259891913008 -0.862668480416
0.358228793487 -0.131655371352 -0.924304600611
0.273266528913 0.0 -0.961938357784
0.301258879093 -0.264082750659 -0.916244175191
0.220117027473 -0.132792476828 -0.966392597402
0.137952242128 0.0 -0.990438881957
0.0822424652791 -0.133071104141 -0.987688340595
0.0 0.0 -1.0
0.0 -0.266404701135 -0.963861263467
-0.0822424652791 -0.133071104141 -0.987688340595
-0.137952242128 0.0 -0.990438881957
-0.220117027473 -0.132792476828 -0.966392597402
0.924304600611 -0.358228793487 0.131655371352
0.622785464303 -0.778605872826 -0.0768840702267
0.220117027473 0.132792476828 -0.966392597402
0.0822424652791 0.133071104141 -0.987688340595
-0.0822424652791 0.133071104141 -0.987688340595
0.0 0.266404701135 -0.963861263467
-0.220117027473 0.132792476828 -0.966392597402

CELLS 340 1360
3 0 1 2
3 2 3 4
3 3 5 4
3 2 4 6
3 4 7 6
3 4 8 7
3 5 9 4
3 4 9 8
3 8 9 10
3 9 11 10
3 9 5 11
3 10 11 12
3 5 13 11
3 13 14 11
3 15 13 5
3 8 10 16
3 10 17 16
3 10 12 17
3 16 17 18
3 19 20 17
3 17 20 18
3 8 16 7
3 21 22 23
3 24 22 25
3 22 26 25
3 22 21 26
3 25 26 27
3 21 28 26
3 28 29 26
3 28 30 29
3 26 29 27
3 21 31 28
3 31 32 28
3 28 32 30
3 27 29 33
3 29 30 34
3 35 36 37
3 36 38 39
3 39 38 40
3 41 40 42
3 43 0 44
3 33 44 27
3 0 45 44
3 45 46 44
3 45 6 46
3 44 46 27
3 6 45 2
3 2 45 0
3 27 46 25
3 46 47 25
3 46 6 47
3 25 47 24
3 7 47 6
3 48 42 49
3 42 40 50
3 30 32 51
3 52 53 54
3 55 54 56
3 41 42 48
3 52 48 53
3 57 58 0
3 58 1 0
3 57 59 58
3 59 60 58
3 59 61 60
3 58 60 1
3 1 62 2
3 2 62 3
3 1 63 62
3 63 64 62
3 63 56 64
3 62 64 3
3 3 64 65
3 64 66 65
3 64 56 66
3 65 66 15
3 3 65 5
3 65 15 5
3 18 67 68
3 67 69 68
3 67 23 69
3 68 69 7
3 18 70 67
3 70 71 67
3 70 72 71
3 67 71 23
3 7 69 73
3 69 74 73
3 69 23 74
3 73 74 24
3 72 75 71
3 75 76 71
3 75 77 76
3 71 76 23
3 23 76 21
3 21 76 77
3 50 78 42
3 42 78 49
3 50 79 78
3 79 80 78
3 79 81 80
3 78 80 49
3 50 82 79
3 82 83 79
3 82 84 83
3 79 83 81
3 49 80 85
3 80 86 85
3 80 81 86
3 85 86 87
3 15 88 89
3 88 90 89
3 88 53 90
3 89 90 91
3 53 92 90
3 92 93 90
3 92 49 93
3 90 93 91
3 91 93 94
3 93 85 94
3 93 49 85
3 94 85 87
3 84 95 96
3 95 97 96
3 95 98 97
3 96 97 99
3 98 100 97
3 100 101 97
3 100 51 101
3 97 101 99
3 98 102 100
3 102 103 100
3 102 104 103
3 100 103 51
3 99 101 105
3 101 106 105
3 101 51 106
3 105 106 107
3 84 96 108
3 96 109 108
3 96 99 109
3 108 109 110
3 99 111 109
3 111 112 109
3 111 77 112
3 109 112 110
3 99 105 111
3 105 113 111
3 105 107 113
3 111 113 77
3 110 112 114
3 112 75 114
3 112 77 75
3 114 75 72
3 72 115 114
3 115 116 114
3 115 117 116
3 114 116 110
3 117 118 116
3 118 119 116
3 118 81 119
3 116 119 110
3 117 120 118
3 120 86 118
3 120 87 86
3 118 86 81
3 110 119 108
3 119 83 108
3 119 81 83
3 108 83 84
3 38 121 122
3 121 123 122
3 121 98 123
3 122 123 50
3 38 124 121
3 124 102 121
3 124 104 102
3 121 102 98
3 50 123 82
3 123 95 82
3 123 98 95
3 82 95 84
3 104 125 103
3 125 126 103
3 125 127 126
3 103 126 51
3 51 126 30
3 30 126 127
3 57 128 129
3 128 130 129
3 128 127 130
3 129 130 35
3 57 131 128
3 131 132 128
3 131 133 132
3 128 132 127
3 35 130 134
3 130 125 134
3 130 127 125
3 134 125 104
3 43 135 0
3 0 135 57
3 57 135 131
3 135 136 131
3 135 43 136
3 131 136 133
3 61 137 60
3 137 138 60
3 137 139 138
3 60 138 1
3 1 138 63
3 138 140 63
3 138 139 140
3 63 140 56
3 91 141 13
3 13 141 14
3 14 142 11
3 11 142 12
3 15 89 13
3 13 89 91
3 12 142 143
3 142 144 143
3 142 14 144
3 143 144 87
3 14 141 144
3 141 94 144
3 141 91 94
3 144 94 87
3 12 145 17
3 145 19 17
3 19 146 20
3 146 117 20
3 117 146 120
3 146 147 120
3 146 19 147
3 120 147 87
3 87 147 143
3 147 145 143
3 147 19 145
3 143 145 12
3 72 70 20
3 20 70 18
3 117 115 20
3 20 115 72
3 18 68 16
3 16 68 7
3 107 148 113
3 148 149 113
3 148 31 149
3 113 149 77
3 77 149 21
3 149 31 21
3 24 74 22
3 22 74 23
3 31 148 32
3 148 107 32
3 34 150 29
3 29 150 33
3 33 150 151
3 150 152 151
3 150 34 152
3 151 152 133
3 153 154 61
3 61 154 155
3 153 156 154
3 156 157 154
3 156 37 157
3 154 157 155
3 37 156 35
3 35 156 153
3 155 157 158
3 157 159 158
3 157 37 159
3 158 159 160
3 39 161 36
3 36 161 37
3 37 161 159
3 161 162 159
3 161 39 162
3 159 162 160
3 104 124 36
3 36 124 38
3 35 134 36
3 36 134 104
3 160 162 163
3 162 164 163
3 162 39 164
3 163 164 41
3 41 164 40
3 40 164 39
3 133 136 151
3 136 165 151
3 136 43 165
3 151 165 33
3 33 165 44
3 44 165 43
3 7 73 47
3 47 73 24
3 49 92 48
3 48 92 53
3 38 122 40
3 40 122 50
3 133 152 132
3 152 166 132
3 152 34 166
3 132 166 127
3 127 166 30
3 166 34 30
3 107 106 32
3 32 106 51
3 57 129 153
3 153 129 35
3 61 59 153
3 153 59 57
3 139 137 155
3 155 137 61
3 155 167 139
3 167 55 139
3 155 158 167
3 158 168 167
3 158 160 168
3 167 168 55
3 56 140 55
3 55 140 139
3 160 169 168
3 169 170 168
3 169 52 170
3 168 170 55
3 55 170 54
3 54 170 52
3 160 163 169
3 163 171 169
3 163 41 171
3 169 171 52
3 52 171 48
3 48 171 41
3 15 66 54
3 54 66 56
3 53 88 54
3 54 88 15

CELL_TYPES 340
5
5
5
5
5
5
5
5
5
5
5
5
5
5
5
5
5
5
5
5
5
5
5
5
5
5
5
5
5
5
5
5
5
5
5
5
5
5
5
5
5
5
5
5
5
5
5
5
5
5
5
5
5
5
5
5
5
5
5
5
5
5
5
5
5
5
5
5
5
5
5
5
5
5
5
5
5
5
5
5
5
5
5
5
5
5
5
5
5
5
5
5
5
5
5
5
5
5
5
5
5
5
5
5
5
5
5
5
5
5
5
5
5
5
5
5
5
5
5
5
5
5
5
5
5
5
5
5
5
5
5
5
5
5
5
5
5
5
5
5
5
5
5
5
5
5
5
5
5
5
5
5
5
5
5
5
5
5
5
5
5
5
5
5
5
5
5
5
5
5
5
5
5
5
5
5
5
5
5
5
5
5
5
5
5
5
5
5
5
5
5
5
5
5
5
5
5
5
5
5
5
5
5
5
5
5
5
5
5
5
5
5
5
5
5
5
5
5
5
5
5
5
5
5
5
5
5
5
5
5
5
5
5
5
5
5
5
5
5
5
5
5
5
5
5
5
5
5
5
5
5
5
5
5
5
5
5
5
5
5
5
5
5
5
5
5
5
5
5
5
5
5
5
5
5
5
5
5
5
5
5
5
5
5
5
5
5
5
5
5
5
5
5
5
5
5
5
5
5
5
5
5
5
5
5
5
5
5
5
5
5
5
5
5
5
5
5
5
5
5
5
5
5
5
5
5
5
5
5
5
5
5
5
5
5
5
5
5
5
5

CELL_DATA 340
SCALARS cell_data_0 double
LOOKUP_TABLE default
5.81682659382e-05
4.11129733751e-05
8.4004286095e-05
5.57935478533e-06
0.000229514507108
0.000338475970573
1.88020607309e-05
3.56647324337e-05
1.67520145525e-05
3.17890450672e-07
1.29011596374e-05
2.97868052824e-07
1.89287823915e-05
0.000135006399859
1.2092754299e-05
3.3260271352e-05
2.96442094152e-05
1.44821357065e-05
4.62728315041e-05
0.000273105422993
0.000288028130214
0.000207837506547
9.46733510196e-06
0.000280906201186
0.000499222216178
0.000169782224242
0.000309038359286
9.99790748576e-05
0.000161601805498
4.99740803856e-05
0.000119431452705
8.4794137897e-05
0.000167035469775
6.77012805526e-05
7.06913596589e-05
0.000132498141417
0.000178833720039
0.000180766521053
0.000170136169387
0.000221494817048
0.000175896145446
9.63110144076e-05
8.48042085762e-05
0.000160587881571
7.83473548792e-05
0.000105144571974
3.78183949665e-05
4.11452250935e-05
0.000258660796099
0.000307912838463
5.75926323573e-05
0.000180769713386
0.000134674081348
0.00022789808753
0.000233157496589
0.000524878458043
0.000213368413386
0.000268162250968
0.000221595295862
0.000174594475377
5.42121948448e-05
4.88847406372e-05
3.66351446934e-05
5.48560648613e-05
9.13654642428e-05
4.69828660458e-05
3.64282957879e-05
7.69289954786e-06
5.00651096193e-05
5.55166999328e-05
9.24331433698e-05
1.29985657068e-05
1.44212252899e-05
4.78690785996e-05
7.56046601427e-05
4.16229091681e-05
9.69016742048e-06
3.72083934047e-05
3.35685774615e-05
5.9472046264e-05
8.20555233292e-05
4.08446636382e-07
6.83146606083e-06
1.92801308229e-05
7.80395898423e-06
6.03185190182e-05
3.5750896104e-05
3.65522440956e-05
6.55750235186e-05
2.23835607302e-05
8.53941679675e-06
1.21656358153e-05
2.61680516123e-06
5.36504142818e-05
0.000163460534161
9.87848723465e-05
0.000137922047876
0.000133963746846
3.067641228e-05
2.45726984392e-05
6.72865221662e-05
3.26474242142e-05
1.96574094387e-05
7.76600254848e-07
3.97916222689e-07
7.88938951383e-05
2.30762396636e-05
9.56902800418e-06
6.55157132588e-05
4.70899756294e-06
3.78373263874e-05
4.30402641824e-05
4.00746508406e-05
1.7669067517e-05
2.6155559245e-05
5.00167682271e-05
4.28849501867e-05
3.47969742027e-05
1.77536398042e-05
2.0309593797e-05
2.82833736497e-05
1.087680503e-05
3.78836841718e-06
3.63788825822e-06
0.000167527222443
7.19761281728e-05
0.000196960925444
2.44471318406e-06
0.000222161241326
9.10089166026e-05
0.000152994543824
1.47047651743e-05
1.9162059893e-05
0.000177386255834
9.04087457347e-05
1.62176798113e-05
0.000212110650551
1.49159022042e-05
1.38452687552e-07
2.14178046421e-06
7.44194966597e-05
0.000107604960499
8.37112468672e-05
8.88802812152e-06
1.51261372316e-05
0.00011103116608
8.11780068804e-05
2.63842939555e-06
1.86296104674e-06
1.22578003046e-05
0.000127408499149
3.83560211808e-05
8.19708845261e-06
3.05385551152e-05
4.28593394293e-05
7.80987705934e-05
7.6266831484e-05
0.000163254521974
0.000102286804321
9.3232163333e-05
0.000190075892619
0.000177454732851
7.47405687523e-05
5.03961746614e-05
5.32275742171e-06
0.000138521799691
0.000130973348076
2.34863223957e-05
0.000105770797506
6.9029941651e-06
8.58424232389e-05
2.0006347859e-05
0.000227040466798
1.81215261295e-05
6.75721369114e-05
3.51552241736e-05
2.60884074649e-05
0.000131151215028
1.48810951207e-06
1.40234439579e-05
0.000216671355386
8.27331577582e-06
1.67530744996e-05
9.30822443427e-06
0.000166303849811
0.000184329231488
0.000423581302128
0.000415096893215
3.08754742997e-05
3.45675811505e-05
0.000143894567104
7.6450706214e-05
2.71758098938e-05
6.26753585283e-05
7.31036977416e-05
0.000309694345011
6.20707777637e-05
2.33084428646e-05
0.000132128325187
1.34723190694e-05
0.000249706913438
6.35649205249e-05
3.00872333019e-05
0.000105094894748
0.000209089060619
3.4045485554e-05
5.83698884899e-05
4.36318213272e-05
4.69241856206e-05
2.82481719438e-05
2.87237456044e-05
4.31037689964e-05
4.68001353692e-05
4.93956881127e-05
1.81930823879e-06
6.09156508328e-05
6.10929153979e-05
7.43465162005e-07
1.30637535073e-05
2.82709131559e-07
2.42457478461e-07
9.97159857357e-07
4.79423508514e-05
1.34821901727e-06
4.57727446688e-05
3.7356890099e-06
4.00425965269e-06
3.05368455387e-06
1.24633697148e-05
1.33403425797e-05
0.000127126339315
0.000152478855472
2.03592198113e-05
7.84008014363e-06
6.18612650177e-06
1.78578115408e-06
7.81020128504e-07
1.24847651497e-06
2.523529697e-06
1.93936929832e-06
0.000196859887453
0.000253567064348
0.000297900736361
0.000215625618286
8.89557310348e-06
5.44509377195e-05
2.77170013935e-06
6.83182192042e-06
2.40381544224e-05
6.80897210734e-06
3.61754785025e-05
4.26624604551e-05
3.13586439928e-05
5.72003793329e-07
6.02421595532e-05
1.90523816576e-05
0.000163797390268
0.000119315717597
0.000107967016788
0.00018505024394
0.000162619517205
0.000111893416212
7.05134524884e-05
8.86973664513e-05
1.4190000019e-05
1.89482598932e-05
1.8934045724e-05
2.81547121822e-05
7.32910411054e-05
5.55999012672e-05
2.94938698086e-05
1.39263475056e-05
2.58003130615e-05
6.19450994929e-05
0.0001054830903
0.000110600978585
3.80816750931e-05
5.83307744719e-06
3.72705762138e-05
7.4495066126e-05
6.57887846864e-05
9.80765292292e-05
9.49532327161e-05
5.84940388395e-05
6.37882609234e-05
1.59621009935e-06
3.06733070662e-05
4.3028228809e-05
0.000122142962732
9.57179116355e-05
6.80514260121e-05
6.96859540733e-05
5.82333455599e-05
5.40297178788e-05
4.92479498789e-05
8.88643482768e-05
9.55187339464e-05
9.90851663227e-06
8.27013699274e-05
7.24566405558e-05
0.000113557306722
8.63345850706e-05
0.000183425422148
0.000192062644042
0.000189038190033
0.000175912470028
0.000191301033088
9.42530412897e-05
5.24304161101e-05
0.000297612868143
7.02656245176e-05
9.71708293206e-05
0.000113599212884
7.40511429105e-05
7.89652723722e-05
8.88141792046e-05
0.000102997190568
0.00011279920227
3.43741601471e-05
1.74791595807e-06
6.42226906481e-05
3.85996693973e-05
9.08329722224e-05
9.07608551139e-05
7.71142488303e-05
2.34839775655e-06
5.17195524444e-05
4.72112564666e-05
0.000133930815149
0.000137098152434
6.3768311179e-05
1.56959917386e-06
4.30207274836e-05
4.27480730086e-05
0.000112485335476
0.000121888983361
8.97729674031e-05
0.000129688133288
8.45416227856e-05
9.08064355913e-05

