# vtk DataFile Version 3.0
File Name: Molecule/sphere_dip_C5/sphere_dip_C5_0-s2.vtk
ASCII
DATASET UNSTRUCTURED_GRID
FIELD FieldData 1
TIME 1 1 double
0.0
POINTS 54 double
0.850650808352 -0.525731112119 0.0
0.809016994375 -0.309016994375 -0.5
1.0 0.0 0.0
0.809016994375 0.309016994375 -0.5
0.525731112119 0.0 -0.850650808352
0.850650808352 0.525731112119 0.0
0.5 0.809016994375 -0.309016994375
0.309016994375 0.5 -0.809016994375
0.0 0.850650808352 -0.525731112119
0.0 0.850650808352 0.525731112119
-0.309016994375 0.5 0.809016994375
0.309016994375 0.5 0.809016994375
0.0 0.0 1.0
-0.525731112119 0.0 0.850650808352
0.525731112119 0.0 0.850650808352
-0.309016994375 -0.5 0.809016994375
0.309016994375 -0.5 0.809016994375
0.0 -0.850650808352 0.525731112119
0.809016994375 -0.309016994375 0.5
0.5 -0.809016994375 0.309016994375
0.309016994375 -0.5 -0.809016994375
0.0 0.0 -1.0
-0.309016994375 -0.5 -0.809016994375
0.0 -0.850650808352 -0.525731112119
-0.525731112119 0.0 -0.850650808352
0.809016994375 0.309016994375 0.5
0.5 0.809016994375 0.309016994375
-0.809016994375 -0.309016994375 -0.5
-0.809016994375 0.309016994375 -0.5
-1.0 0.0 0.0
-0.850650808352 -0.525731112119 0.0
-0.850650808352 0.525731112119 0.0
-0.309016994375 0.5 -0.809016994375
-0.5 0.809016994375 -0.309016994375
-0.5 -0.809016994375 -0.309016994375
-0.5 -0.809016994375 0.309016994375
0.0 -1.0 0.0
-0.809016994375 -0.309016994375 0.5
-0.809016994375 0.309016994375 0.5
0.5 -0.809016994375 -0.309016994375
0.525731112119 0.850650808352 0.0
0.26286555606 0.951056516295 -0.162459848116
0.26286555606 0.951056516295 0.162459848116
0.0 1.0 0.0
-0.26286555606 0.951056516295 0.162459848116
-0.5 0.809016994375 0.309016994375
-0.26286555606 0.951056516295 -0.162459848116
-0.525731112119 0.850650808352 0.0
-0.702046444776 0.69378047756 0.16062203564
-0.702046444776 0.69378047756 -0.16062203564
-0.425325404176 0.688190960236 0.587785252292
-0.688190960236 0.587785252292 0.425325404176
-0.587785252292 0.425325404176 0.688190960236
-0.862668480416 0.433888564553 0.259891913008

CELLS 104 416
3 0 1 2
3 1 3 2
3 1 4 3
3 2 3 5
3 5 3 6
3 3 7 6
3 3 4 7
3 6 7 8
3 9 10 11
3 10 12 11
3 10 13 12
3 11 12 14
3 13 15 12
3 15 16 12
3 15 17 16
3 12 16 14
3 14 16 18
3 16 19 18
3 16 17 19
3 18 19 0
3 4 20 21
3 20 22 21
3 20 23 22
3 21 22 24
3 0 2 18
3 2 25 18
3 2 5 25
3 18 25 14
3 5 26 25
3 26 11 25
3 26 9 11
3 25 11 14
3 24 27 28
3 27 29 28
3 27 30 29
3 28 29 31
3 8 32 33
3 32 28 33
3 32 24 28
3 30 34 35
3 34 36 35
3 34 23 36
3 35 36 17
3 30 35 37
3 35 15 37
3 35 17 15
3 37 15 13
3 13 38 37
3 38 29 37
3 37 29 30
3 24 22 27
3 22 34 27
3 22 23 34
3 27 34 30
3 23 39 36
3 39 19 36
3 39 0 19
3 36 19 17
3 4 1 20
3 1 39 20
3 1 0 39
3 20 39 23
3 4 21 7
3 21 32 7
3 21 24 32
3 7 32 8
3 6 40 5
3 5 40 26
3 6 41 40
3 41 42 40
3 41 43 42
3 40 42 26
3 43 41 8
3 8 41 6
3 26 42 9
3 42 43 9
3 43 44 9
3 9 44 45
3 43 46 44
3 46 47 44
3 46 33 47
3 44 47 45
3 33 46 8
3 8 46 43
3 45 47 48
3 47 49 48
3 47 33 49
3 48 49 31
3 45 50 9
3 9 50 10
3 45 51 50
3 51 52 50
3 51 38 52
3 50 52 10
3 45 48 51
3 48 53 51
3 48 31 53
3 51 53 38
3 10 52 13
3 52 38 13
3 31 49 28
3 28 49 33
3 38 53 29
3 53 31 29

CELL_TYPES 104
5
5
5
5
5
5
5
5
5
5
5
5
5
5
5
5
5
5
5
5
5
5
5
5
5
5
5
5
5
5
5
5
5
5
5
5
5
5
5
5
5
5
5
5
5
5
5
5
5
5
5
5
5
5
5
5
5
5
5
5
5
5
5
5
5
5
5
5
5
5
5
5
5
5
5
5
5
5
5
5
5
5
5
5
5
5
5
5
5
5
5
5
5
5
5
5
5
5
5
5
5
5
5
5

CELL_DATA 104
SCALARS cell_data_0 double
LOOKUP_TABLE default
0.0013285178994
0.00165324836299
0.00100646839597
0.000372181144685
0.000373314552986
0.000869030314175
0.00043743248393
0.00044354062145
0.000218342259529
0.000411718971657
0.000349950952621
0.000331180553204
0.000358770401785
0.000437840749839
0.000174415010852
0.000346215232578
0.000211267529511
0.000170541451375
0.000125189949325
3.27911377508e-05
4.90072224855e-05
7.62185081467e-05
4.63643788861e-05
5.62573786495e-05
0.000274129339792
3.03014741772e-06
5.71277886631e-05
0.000178872254485
5.39276272276e-05
0.000161048078917
0.00012457153232
0.000217037582941
2.33160286932e-05
2.90671290793e-05
0.000181065297567
6.45124360694e-05
3.02713569162e-05
1.64273441664e-05
4.37056017245e-05
0.000264092108717
7.04638605883e-05
4.27190455917e-05
2.95518693105e-05
0.000114025924526
0.000104175155736
7.56174716893e-05
0.000186455122655
0.000162238350336
9.27485133062e-05
0.00011487683283
3.79065665956e-05
8.9406094624e-05
7.66378165683e-05
0.000232014091159
7.84650954985e-06
5.00326855158e-05
9.86840874768e-05
7.04514154603e-05
0.000691893401402
0.00079224169683
0.000923226597233
2.40087563426e-05
0.000211664036461
0.00028755264823
6.15929456105e-05
0.00024188183487
7.46726110684e-05
5.51290479705e-06
5.87561636081e-05
4.53124011855e-06
1.78968290404e-05
1.12117089272e-05
3.69782885201e-05
0.000104220419665
1.47218533992e-05
4.48279888844e-06
1.76889061539e-06
1.95012005399e-05
1.92632488591e-05
3.06994244377e-06
1.95723171456e-06
6.12060924068e-06
4.66350935448e-06
3.0940391794e-05
1.42964232296e-06
8.00680313649e-07
1.18374639185e-06
1.10985125951e-05
2.76600039507e-05
7.50845129845e-05
1.86370599865e-06
3.15754724641e-06
1.55952251873e-05
3.19043770776e-05
1.55508602632e-06
7.50603682275e-07
1.10611643362e-05
1.12616383877e-05
0.000104728079852
7.51766255858e-05
2.36615213781e-05
2.35731297207e-06
1.79336440813e-05
2.99849834387e-05

