# vtk DataFile Version 3.0
File Name: Molecule/sphere_dip_C5/sphere_dip_C5_0-s3.vtk
ASCII
DATASET UNSTRUCTURED_GRID
FIELD FieldData 1
TIME 1 1 double
0.0
POINTS 67 double
0.0 0.850650808352 0.525731112119
-0.309016994375 0.5 0.809016994375
0.309016994375 0.5 0.809016994375
0.0 0.0 1.0
-0.525731112119 0.0 0.850650808352
0.525731112119 0.0 0.850650808352
-0.309016994375 -0.5 0.809016994375
0.309016994375 -0.5 0.809016994375
0.0 -0.850650808352 0.525731112119
0.809016994375 -0.309016994375 0.5
0.5 -0.809016994375 0.309016994375
0.850650808352 -0.525731112119 0.0
0.525731112119 0.0 -0.850650808352
0.309016994375 -0.5 -0.809016994375
0.0 0.0 -1.0
-0.309016994375 -0.5 -0.809016994375
0.0 -0.850650808352 -0.525731112119
-0.525731112119 0.0 -0.850650808352
1.0 0.0 0.0
0.809016994375 0.309016994375 0.5
0.850650808352 0.525731112119 0.0
0.5 0.809016994375 0.309016994375
-0.809016994375 -0.309016994375 -0.5
-0.809016994375 0.309016994375 -0.5
-1.0 0.0 0.0
-0.850650808352 -0.525731112119 0.0
-0.850650808352 0.525731112119 0.0
0.0 0.850650808352 -0.525731112119
-0.309016994375 0.5 -0.809016994375
-0.5 0.809016994375 -0.309016994375
-0.5 -0.809016994375 -0.309016994375
-0.5 -0.809016994375 0.309016994375
0.0 -1.0 0.0
-0.809016994375 -0.309016994375 0.5
-0.809016994375 0.309016994375 0.5
0.5 -0.809016994375 -0.309016994375
0.309016994375 0.5 -0.809016994375
0.5 0.809016994375 -0.309016994375
0.525731112119 0.850650808352 0.0
0.26286555606 0.951056516295 -0.162459848116
0.26286555606 0.951056516295 0.162459848116
0.0 1.0 0.0
-0.26286555606 0.951056516295 0.162459848116
-0.5 0.809016994375 0.309016994375
-0.26286555606 0.951056516295 -0.162459848116
-0.525731112119 0.850650808352 0.0
-0.702046444776 0.69378047756 0.16062203564
-0.702046444776 0.69378047756 -0.16062203564
-0.425325404176 0.688190960236 0.587785252292
-0.688190960236 0.587785252292 0.425325404176
-0.587785252292 0.425325404176 0.688190960236
-0.862668480416 0.433888564553 0.259891913008
0.862668480416 -0.433888564553 -0.259891913008
0.961938357784 -0.273266528913 0.0
0.951056516295 -0.162459848116 -0.26286555606
0.809016994375 -0.309016994375 -0.5
0.850650808352 0.0 -0.525731112119
0.951056516295 0.162459848116 -0.26286555606
0.809016994375 0.309016994375 -0.5
0.69378047756 -0.16062203564 -0.702046444776
0.69378047756 0.16062203564 -0.702046444776
0.688190960236 0.587785252292 -0.425325404176
0.587785252292 0.425325404176 -0.688190960236
0.425325404176 0.688190960236 -0.587785252292
0.433888564553 0.259891913008 -0.862668480416
0.702046444776 -0.69378047756 -0.16062203564
0.688190960236 -0.587785252292 -0.425325404176

CELLS 130 520
3 0 1 2
3 1 3 2
3 1 4 3
3 2 3 5
3 4 6 3
3 6 7 3
3 6 8 7
3 3 7 5
3 5 7 9
3 7 10 9
3 7 8 10
3 9 10 11
3 12 13 14
3 13 15 14
3 13 16 15
3 14 15 17
3 18 19 9
3 18 20 19
3 9 19 5
3 20 21 19
3 21 2 19
3 21 0 2
3 19 2 5
3 17 22 23
3 22 24 23
3 22 25 24
3 23 24 26
3 27 28 29
3 28 23 29
3 28 17 23
3 25 30 31
3 30 32 31
3 30 16 32
3 31 32 8
3 25 31 33
3 31 6 33
3 31 8 6
3 33 6 4
3 4 34 33
3 34 24 33
3 33 24 25
3 17 15 22
3 15 30 22
3 15 16 30
3 22 30 25
3 16 35 32
3 35 10 32
3 32 10 8
3 13 35 16
3 14 28 36
3 14 17 28
3 36 28 27
3 37 38 20
3 20 38 21
3 37 39 38
3 39 40 38
3 39 41 40
3 38 40 21
3 41 39 27
3 27 39 37
3 21 40 0
3 40 41 0
3 41 42 0
3 0 42 43
3 41 44 42
3 44 45 42
3 44 29 45
3 42 45 43
3 29 44 27
3 27 44 41
3 43 45 46
3 45 47 46
3 45 29 47
3 46 47 26
3 43 48 0
3 0 48 1
3 43 49 48
3 49 50 48
3 49 34 50
3 48 50 1
3 43 46 49
3 46 51 49
3 46 26 51
3 49 51 34
3 1 50 4
3 50 34 4
3 26 47 23
3 23 47 29
3 34 51 24
3 51 26 24
3 11 52 53
3 52 54 53
3 52 55 54
3 53 54 18
3 55 56 54
3 56 57 54
3 56 58 57
3 54 57 18
3 55 59 56
3 59 60 56
3 59 12 60
3 56 60 58
3 18 57 20
3 57 58 20
3 58 61 20
3 20 61 37
3 58 62 61
3 62 63 61
3 62 36 63
3 61 63 37
3 58 60 62
3 60 64 62
3 60 12 64
3 62 64 36
3 37 63 27
3 63 36 27
3 11 53 9
3 53 18 9
3 35 65 10
3 65 11 10
3 12 59 13
3 59 55 13
3 55 66 13
3 66 35 13
3 55 52 66
3 52 65 66
3 52 11 65
3 66 65 35
3 36 64 14
3 14 64 12

CELL_TYPES 130
5
5
5
5
5
5
5
5
5
5
5
5
5
5
5
5
5
5
5
5
5
5
5
5
5
5
5
5
5
5
5
5
5
5
5
5
5
5
5
5
5
5
5
5
5
5
5
5
5
5
5
5
5
5
5
5
5
5
5
5
5
5
5
5
5
5
5
5
5
5
5
5
5
5
5
5
5
5
5
5
5
5
5
5
5
5
5
5
5
5
5
5
5
5
5
5
5
5
5
5
5
5
5
5
5
5
5
5
5
5
5
5
5
5
5
5
5
5
5
5
5
5
5
5
5
5
5
5
5
5

CELL_DATA 130
SCALARS cell_data_0 double
LOOKUP_TABLE default
0.000153255848048
0.000440241381898
0.000365481340863
0.000385420927562
0.000368609633976
0.00043151863305
0.000186934161304
0.000377597698653
0.000170478837617
0.000188846018675
0.000123090762293
8.27013813988e-05
0.00021676357491
7.72817563172e-05
0.000762752949774
0.000264794569012
0.000120126540027
1.81686573486e-05
9.00999410544e-05
3.96322425378e-05
0.000184384530136
8.59947263269e-05
0.000165114978112
0.000367244890803
0.000126926714319
6.78298381662e-05
9.09093008311e-05
0.000182656109196
7.39264521519e-05
0.000265980896447
5.52651427275e-06
4.36065579166e-05
0.000587078018127
3.23592242843e-05
3.49304890987e-05
0.000151118748065
0.000104259795238
0.000142891927639
8.73279369478e-05
0.000105882556777
2.20464225471e-05
0.000336822978568
0.000114520195862
0.000722720017008
7.68350673446e-05
0.000612167052405
5.1086682259e-05
4.75745231421e-05
0.000674779534564
1.58365393207e-05
0.000199800929555
0.000170795526828
1.7496682883e-05
2.4221865765e-06
9.4886696574e-06
6.27844282619e-06
6.23916971319e-06
9.74837829965e-06
0.00011152039074
0.000101318336129
1.36268552797e-05
4.20003160968e-05
4.5620184053e-05
5.78376694849e-05
3.25561500764e-06
1.31681756274e-06
6.24550409742e-06
4.04116614992e-06
0.000106061524528
9.79923506032e-05
1.55581265154e-05
1.60888300805e-05
1.07821233132e-05
3.314510377e-05
7.33288484473e-05
7.56626885017e-06
8.92398035801e-06
2.16033082952e-05
3.01506761453e-05
3.28808730952e-05
1.37005127845e-05
1.44148094516e-06
1.76625694318e-05
1.44617783475e-05
8.12812486163e-05
5.83937902555e-05
7.76953982582e-05
5.53438822951e-05
3.22407610235e-05
6.88957389248e-06
1.82947403156e-06
4.91488226941e-06
2.71673410231e-06
7.19831781596e-06
1.68009528245e-06
1.84318256115e-06
4.18906865533e-07
7.11000485941e-06
8.42997732927e-07
1.23799487192e-06
4.59050089994e-05
5.00316731525e-07
5.7225340761e-06
1.21570067022e-05
1.48964160032e-05
1.33721814363e-05
1.00243852082e-06
5.69698295049e-07
2.02816408077e-06
9.75238265597e-07
1.08996401991e-06
5.86155794669e-07
4.53269696443e-05
2.012136654e-06
7.77498040471e-05
8.87618652484e-05
2.71332253206e-05
3.66815366621e-05
1.29543637185e-05
1.66592036823e-05
9.91939448084e-05
3.76546381043e-07
6.95340245251e-09
1.07297950985e-05
7.61734081765e-07
5.9915222028e-07
7.43817217781e-07
3.86337512016e-06
8.91105449585e-06
0.000100776966041

