# vtk DataFile Version 3.0
File Name: Molecule/arg/arg_5.0-4.vtk
ASCII
DATASET UNSTRUCTURED_GRID
FIELD FieldData 1
TIME 1 1 double
0.0
POINTS 898 double
-3.403 0.327 1.604
-3.45 0.103 1.078
-3.138 0.005 1.702
-3.183 -0.208 1.2
-2.981 -0.361 1.858
-3.028 -0.584 1.332
-3.298 -0.003 0.536
-3.038 -0.309 0.683
-2.876 -0.691 0.79
-2.971 0.024 0.066
-2.725 -0.284 0.235
-2.549 -0.664 0.32
-2.984 0.046 0.042
-2.617 -0.045 -0.207
-2.63 -0.024 -0.229
-2.351 -0.22 -0.527
-2.365 -0.198 -0.55
-2.2 -0.483 -0.862
-2.216 -0.458 -0.889
-3.25 0.578 -0.258
-2.686 0.062 -0.328
-2.904 0.498 -0.574
-2.48 -0.047 -0.742
-2.684 0.361 -0.973
-2.39 -0.269 -1.153
-2.617 0.185 -1.409
-3.173 1.207 -0.458
-2.84 1.014 -0.738
-2.625 0.846 -1.127
-2.55 0.723 -1.58
-2.776 1.74 -0.497
-2.515 1.451 -0.77
-2.319 1.256 -1.157
-2.211 1.177 -1.613
-2.622 1.932 -0.429
-2.434 1.563 -0.734
-2.291 1.743 -0.67
-2.16 1.459 -1.077
-2.01 1.647 -1.011
-1.982 1.439 -1.492
-1.81 1.654 -1.416
-2.666 2.281 -0.134
-2.046 2.135 -0.548
-2.085 2.448 -0.283
-1.615 2.438 -0.879
-1.659 2.787 -0.585
-2.622 2.533 0.247
-2.045 2.674 0.059
-1.614 3.039 -0.203
-2.495 2.657 0.67
-1.932 2.785 0.438
-1.488 3.163 0.22
-2.925 2.572 1.071
-2.251 2.77 1.005
-2.634 2.694 1.361
-2.033 3.002 1.293
-2.411 2.928 1.645
-1.863 3.333 1.507
-2.279 3.251 1.894
-3.186 2.284 1.521
-2.865 2.437 1.761
-2.64 2.674 2.039
-2.53 2.972 2.328
-3.419 1.801 1.788
-2.888 2.359 1.917
-3.122 1.876 2.185
-2.717 2.558 2.345
-2.979 2.017 2.644
-3.567 1.179 1.827
-3.202 1.735 2.161
-3.333 1.184 2.196
-3.094 1.732 2.585
-3.223 1.188 2.619
-3.107 1.793 3.017
-3.25 1.192 3.055
-3.408 0.559 1.798
-3.191 0.635 2.17
-3.084 0.647 2.593
-3.095 0.593 3.027
-3.105 0.348 2.085
-3.1 0.088 1.867
-2.97 0.105 2.152
-3.02 0.504 2.546
-2.901 0.29 2.606
-2.978 0.383 3.085
-2.865 -0.346 2.113
-2.52 -0.7 2.425
-2.789 -0.06 2.411
-2.48 -0.378 2.69
-2.828 0.19 2.745
-2.523 -0.123 3.02
-2.645 0.041 3.387
-2.46 -1.117 2.184
-2.148 -0.9 2.844
-2.09 -1.3 2.613
-2.003 -1.142 3.367
-1.937 -1.6 3.103
-2.268 -1.45 1.888
-1.906 -1.62 2.328
-1.726 -1.965 2.777
-1.967 -1.659 1.57
-1.617 -1.821 2.023
-1.396 -2.195 2.428
-1.592 -1.721 1.268
-1.257 -1.88 1.733
-0.984 -2.263 2.097
-2.026 -1.588 0.931
-1.351 -1.766 0.91
-1.757 -1.641 0.594
-1.133 -1.941 0.578
-1.555 -1.812 0.25
-0.96 -2.23 0.303
-1.437 -2.084 -0.068
-2.342 -1.257 0.596
-2.053 -1.332 0.28
-1.861 -1.491 -0.075
-1.784 -1.721 -0.435
-2.487 -0.785 0.321
-2.189 -0.889 0.022
-2.002 -1.032 -0.342
-1.943 -1.202 -0.738
-2.264 -0.668 -0.026
-2.322 -0.554 -0.027
-2.141 -0.611 -0.433
-2.203 -0.492 -0.433
-2.131 -0.618 -0.861
-2.114 -0.682 -1.181
-1.927 -1.264 -1.052
-2.312 -0.441 -1.376
-2.121 -0.506 -1.916
-2.042 -0.816 -1.214
-1.838 -0.886 -1.79
-1.682 -1.348 -1.746
-1.975 -0.256 -2.322
-1.864 -0.768 -1.888
-1.672 -0.441 -2.421
-1.897 0.192 -2.527
-1.57 0.147 -2.691
-1.996 0.646 -2.441
-1.495 0.306 -2.776
-1.602 0.798 -2.682
-1.198 0.386 -3.152
-1.328 0.981 -3.039
-2.011 1.039 -2.18
-1.619 1.224 -2.399
-1.348 1.496 -2.696
-1.72 1.257 -2.235
-1.479 1.817 -1.75
-1.107 2.057 -2.211
-1.346 2.153 -1.415
-1.642 2.007 -1.116
-1.319 2.584 -1.178
-0.816 3.013 -1.267
-1.111 2.259 -1.642
-0.623 2.675 -1.729
-0.543 2.537 -2.312
0.466 3.148 -0.891
-0.416 2.926 -1.599
0.331 3.005 -1.38
-0.131 2.956 -2.042
0.328 3.005 -1.907
-0.002 3.1 -2.533
0.456 3.148 -2.398
-0.048 3.337 -3.001
0.833 2.913 -0.61
0.619 2.806 -1.364
0.976 2.577 -1.092
0.892 2.689 -1.891
1.303 2.425 -1.576
1.057 2.557 -0.305
1.192 2.232 -0.796
1.553 2.026 -1.234
0.979 2.767 0.195
1.24 2.204 -0.113
1.167 2.404 0.362
1.539 1.918 0.039
1.462 2.128 0.539
0.737 2.845 0.68
0.936 2.478 0.823
1.22 2.206 1.024
0.406 3.093 0.833
0.71 2.572 1.142
0.419 2.789 1.277
0.841 2.425 1.643
0.539 2.651 1.783
1.112 2.426 2.108
0.748 2.699 2.276
0.011 3.456 0.651
0.142 3.058 1.218
-0.201 3.373 1.06
-0.01 3.117 1.656
-0.348 3.428 1.5
-0.034 3.266 2.099
-0.415 3.616 1.924
-0.504 3.599 0.465
-0.648 3.497 0.898
-0.789 3.55 1.341
-0.913 3.754 1.744
-1.038 3.495 0.311
-1.112 3.406 0.765
-1.247 3.461 1.209
-1.429 3.653 1.595
-1.502 3.118 0.685
-1.632 3.177 1.131
-0.05 3.403 2.531
0.304 2.919 2.221
0.288 3.057 2.654
0.729 2.855 2.766
-0.175 3.437 2.964
0.162 3.091 3.09
0.587 2.894 3.259
-0.395 3.364 3.353
-0.059 3.019 3.48
0.337 2.812 3.701
-0.687 3.194 3.654
-0.352 2.847 3.783
0.006 2.617 4.044
-1.13 3.18 3.766
-0.58 2.815 3.881
-1.094 2.799 4.011
-1.584 3.151 3.721
-1.62 2.766 3.959
-1.995 3.111 3.523
-2.096 2.719 3.73
-2.312 3.063 3.198
-2.464 2.664 3.352
-2.498 3.015 2.783
-2.679 2.608 2.871
-0.832 2.373 4.277
-0.242 2.183 4.431
-1.061 1.806 4.483
-0.466 1.628 4.634
-1.364 2.231 4.354
-1.452 1.611 4.604
-1.713 1.977 4.492
-1.735 2.528 4.103
-2.033 2.233 4.276
-2.128 2.66 3.763
-2.373 2.347 3.982
-2.496 2.611 3.374
-2.69 2.305 3.646
-2.791 2.388 2.985
-2.945 2.113 3.311
-1.464 1.095 4.666
-0.956 1.592 4.533
-0.968 1.074 4.596
-0.48 1.041 4.705
-1.655 0.731 4.634
-1.079 0.886 4.596
-1.26 0.541 4.565
-0.689 0.687 4.666
-0.881 0.322 4.633
-0.333 0.517 4.869
-0.555 0.096 4.831
-2.027 0.463 4.516
-1.383 0.368 4.531
-1.728 0.119 4.423
-1.114 -0.009 4.584
-1.476 -0.27 4.469
-0.878 -0.357 4.785
-1.3 -0.661 4.651
-2.342 0.241 4.242
-2.019 -0.087 4.169
-1.783 -0.487 4.202
-1.658 -0.914 4.34
-2.557 0.093 3.848
-2.219 -0.224 3.803
-1.993 -0.631 3.818
-1.903 -1.082 3.892
-2.301 -0.273 3.375
-2.078 -0.682 3.368
-0.557 -0.612 4.999
-0.228 -0.165 5.05
-0.202 -0.89 5.102
0.134 -0.447 5.155
0.164 -1.171 5.088
0.507 -0.734 5.141
0.37 -1.612 4.973
0.615 -0.976 5.092
0.811 -1.395 4.983
1.043 -0.806 5.264
1.249 -1.247 5.15
0.578 -1.993 4.725
1.008 -1.757 4.747
1.457 -1.629 4.901
0.77 -2.282 4.364
1.191 -2.031 4.405
1.649 -1.918 4.541
0.93 -2.454 3.923
1.343 -2.194 3.985
1.809 -2.089 4.099
1.044 -2.494 3.437
1.451 -2.232 3.524
1.923 -2.129 3.613
1.103 -2.399 2.949
1.506 -2.141 3.061
1.981 -2.034 3.126
1.1 -2.176 2.501
1.504 -1.93 2.635
1.979 -1.811 2.678
1.037 -1.846 2.131
1.444 -1.616 2.284
1.916 -1.481 2.307
0.647 -2.269 2.118
0.836 -1.714 1.711
0.512 -2.064 1.7
0.77 -1.662 1.233
0.47 -1.987 1.224
0.848 -1.697 0.757
0.525 -2.047 0.746
1.061 -1.813 0.337
0.67 -2.236 0.324
0.119 -2.499 2.107
0.075 -2.255 1.691
0.064 -2.164 1.215
0.088 -2.237 0.737
0.142 -2.466 0.313
-0.457 -2.497 2.099
-0.401 -2.253 1.685
-0.378 -2.162 1.209
-0.389 -2.235 0.73
-0.434 -2.464 0.306
-0.837 -2.059 1.682
-0.782 -1.983 1.207
-0.825 -2.042 0.728
1.48 -1.078 0.031
1.032 -1.487 0.709
1.333 -0.958 0.489
1.12 -1.273 1.146
1.358 -0.854 0.972
1.315 -1.197 1.595
1.553 -0.779 1.421
1.592 -1.27 1.999
1.893 -0.741 1.779
2.335 -0.746 2.002
1.639 -0.712 -0.547
1.476 -0.549 0.311
1.615 -0.229 -0.195
1.697 -0.118 0.66
1.842 0.216 0.134
1.696 -1.15 -0.796
1.805 -0.426 -1.067
1.856 -0.818 -1.29
2.201 -0.141 -1.444
2.256 -0.562 -1.683
1.615 -1.54 -1.111
1.784 -1.167 -1.572
2.179 -0.936 -1.985
1.405 -1.841 -1.462
1.595 -1.437 -1.886
1.977 -1.225 -2.321
1.085 -2.024 -1.812
1.309 -1.6 -2.199
1.67 -1.4 -2.657
0.689 -2.07 -2.126
0.955 -1.641 -2.48
1.29 -1.444 -2.958
0.256 -1.974 -2.373
0.567 -1.556 -2.702
0.875 -1.352 -3.195
-0.171 -1.746 -2.529
0.186 -1.352 -2.841
0.466 -1.134 -3.344
-0.548 -1.409 -2.576
-0.152 -1.05 -2.884
0.104 -0.811 -3.39
-0.822 -1.287 -2.506
-0.408 -0.948 -2.806
-0.669 -0.831 -2.739
-0.336 -0.591 -3.197
-0.616 -0.466 -3.125
-1.31 -1.347 -2.194
-0.988 -0.705 -2.664
-1.485 -0.767 -2.346
-1.322 -0.31 -2.728
-0.95 -0.071 -3.189
-0.311 -0.212 -3.619
0.128 -0.454 -3.788
-0.16 0.24 -3.931
0.27 -0.03 -4.081
0.101 0.716 -4.098
0.516 0.418 -4.238
-0.411 1.252 -3.909
0.377 1.347 -4.4
-0.398 1.946 -3.588
-0.712 2.237 -2.975
-0.106 2.463 -3.53
-0.314 2.656 -3.124
0.028 3.029 -3.665
-0.135 3.18 -3.347
-0.202 2.855 -2.684
0.173 2.486 -3.833
0.85 2.546 -3.838
0.117 1.987 -4.134
0.902 2.914 -2.485
0.699 3.415 -2.782
0.749 2.956 -2.405
1.123 2.627 -2.01
2.133 1.624 -1.992
2.141 1.301 -1.585
2.428 1.273 -2.257
2.435 0.969 -1.874
2.042 0.907 -1.262
2.342 0.599 -1.57
1.911 1.516 -1.257
1.884 0.909 -0.851
1.768 1.444 -0.847
1.861 0.913 -0.411
1.75 1.425 -0.407
1.976 0.918 0.014
1.858 1.462 0.018
1.454 1.892 -0.826
1.449 1.855 -0.388
1.867 0.812 -0.4
1.753 0.215 -0.299
1.896 0.717 -0.83
1.788 0.151 -0.734
2.06 0.644 -1.234
1.942 0.027 -1.129
2.566 1.229 -2.871
2.241 1.687 -2.422
2.339 1.656 -2.857
2.194 2.159 -2.516
2.27 2.135 -2.856
2.341 1.264 -3.459
2.179 1.681 -3.275
2.146 2.154 -3.181
1.83 1.363 -3.817
1.817 1.751 -3.528
1.863 2.209 -3.379
1.605 0.935 -4.222
1.413 1.57 -3.947
1.11 0.579 -4.381
1.254 1.267 -4.234
0.902 1.014 -4.346
0.979 1.632 -4.39
0.705 1.435 -4.478
0.482 0.901 -4.245
1.103 1.869 -4.167
0.989 2.064 -4.14
1.404 2.01 -3.684
1.315 2.161 -3.664
1.749 2.404 -3.353
2.007 0.383 0.735
1.733 -0.159 1.085
2.004 0.279 1.15
1.861 -0.287 1.473
2.124 0.139 1.536
2.068 -0.489 1.788
2.355 -0.024 1.857
2.675 -0.196 2.083
2.074 0.941 0.928
2.063 0.767 1.319
2.181 0.613 1.7
2.417 0.492 2.036
2.749 0.417 2.295
1.884 1.434 1.198
1.897 1.199 1.555
2.02 1.032 1.93
2.241 0.95 2.287
2.541 0.959 2.592
1.624 1.884 1.117
1.755 1.469 1.75
1.503 1.904 1.671
1.842 1.579 2.299
1.557 2.073 2.21
1.11 2.216 1.58
1.886 1.845 2.759
2.132 1.224 2.493
2.174 1.477 2.929
2.585 1.225 3.051
1.814 2.002 3.263
2.105 1.625 3.407
2.513 1.382 3.555
1.633 2.033 3.763
1.933 1.655 3.881
2.331 1.413 4.055
1.359 1.937 4.21
1.674 1.563 4.305
2.058 1.316 4.502
1.021 1.721 4.561
1.354 1.359 4.638
1.72 1.101 4.853
0.651 1.408 4.781
1.002 1.062 4.847
1.35 0.788 5.074
0.073 1.245 4.841
0.82 0.891 4.947
0.23 0.725 5.008
0.672 0.387 5.179
1.205 0.294 5.301
0.564 -0.173 5.245
1.099 -0.256 5.367
-1.834 2.927 0.971
1.396 -0.602 0.696
1.678 -0.195 -0.741
1.267 2.733 -3.406
0.9 3.106 -3.671
1.668 2.681 -2.526
1.204 2.948 -2.765
0.819 3.383 -2.845
-2.913 1.955 -0.341
-3.327 1.641 -0.268
-3.327 2.032 -0.008
-2.913 2.297 -0.026
-3.327 2.292 0.383
-2.913 2.519 0.384
-3.327 2.384 0.843
-3.656 1.544 0.048
-3.656 1.916 0.37
-3.656 2.055 0.843
-3.656 1.916 1.316
-3.867 1.641 0.843
-3.867 1.411 1.241
-3.656 0.342 1.089
-3.656 0.609 1.504
-3.867 0.951 1.241
-3.867 0.721 0.843
[...]
CELL_DATA 1792
SCALARS cell_data_0 double
LOOKUP_TABLE default
1.64379511608e-08
1.02250207843e-08
2.70734716852e-08
1.36503651162e-08
6.03926265416e-09
1.23287236278e-08
1.2748141096e-08
1.42024914061e-09
2.1524917544e-08
3.49265383376e-08
1.65801523049e-08
9.32081714788e-09
1.32942988436e-08
3.09851487485e-09
5.60336621453e-09
1.26829474153e-08
8.49596359656e-09
4.48137580483e-09
5.07624367878e-08
4.39855156751e-08
6.97710379309e-08
7.78282425089e-08
1.19791013249e-07
4.81266543953e-08
9.1780663462e-09
6.03343003286e-09
3.71468004818e-09
1.76208146816e-09
2.5737568382e-08
4.03285761141e-08
2.10770696093e-08
3.83678423198e-08
5.37474133965e-08
4.25053778483e-08
2.14384754377e-08
6.53575499666e-08
1.11697170043e-08
1.40992278954e-08
1.06052444082e-09
2.87797925774e-08
2.5000901856e-08
3.21337313526e-09
2.23813398279e-08
2.27337782552e-08
4.09983365161e-08
6.46840898254e-08
2.83538348374e-09
7.28465486088e-09
1.44447384267e-08
1.99859031092e-08
1.12554129005e-08
2.4205661255e-08
1.05634223536e-08
1.17002835877e-09
2.01613940887e-08
1.68825682003e-08
1.55339816135e-08
1.83746692986e-08
1.25554329286e-08
7.99438386381e-09
2.53440209019e-09
1.30563410873e-08
2.23347980664e-09
1.44474748783e-08
1.56921133975e-09
7.75594436988e-09
3.78642282726e-09
1.24540910685e-08
1.36041530317e-08
3.06140660018e-10
6.16266360031e-09
3.99554080106e-09
1.52977832398e-08
4.01390555239e-09
1.94196552521e-08
1.49531231788e-09
1.36804647505e-08
2.24264187665e-08
1.88190491698e-08
1.2766506691e-08
5.04534141344e-09
9.39619999508e-09
3.0559030965e-09
4.9894893619e-09
7.59699755243e-10
1.05897320681e-08
1.4674956556e-08
1.18595766437e-08
6.27621178869e-09
6.03745040451e-09
1.70478927693e-08
3.8293512414e-08
9.44699176748e-09
8.07041623966e-10
1.78713449798e-08
2.47358961298e-08
2.06437768968e-07
1.49451408868e-07
7.33114507019e-07
6.36496275899e-08
6.38181393604e-08
1.50816686675e-07
2.95188422178e-07
7.15034784771e-08
7.70566761299e-08
3.33135989603e-08
1.11008336451e-07
3.12898265434e-08
1.04313930922e-07
6.32928750961e-08
5.82554088575e-08
3.93278412753e-08
2.42863114316e-08
7.45284325135e-08
5.4567836986e-08
6.81639551189e-08
6.85874522527e-08
2.78789554083e-08
2.98341566114e-10
1.03831643346e-08
1.00640227229e-08
4.490817888e-09
1.98778371547e-08
3.86496408339e-09
3.54255807008e-08
3.51856678234e-08
2.8828464646e-08
3.99034260227e-08
1.24849426772e-08
9.97282552927e-09
1.44685380821e-08
2.52243169413e-08
8.27659534882e-09
1.18520089803e-08
2.18890346543e-08
5.96480351001e-10
3.84007562724e-08
5.27110897865e-08
1.76432273784e-08
3.18214001206e-08
2.64969765497e-08
7.64247879575e-08
4.86286944391e-08
4.22051452877e-08
1.93418925535e-08
2.48201152456e-08
2.97197441829e-08
1.00471963953e-07
3.47641028837e-09
3.58210328807e-08
1.24460185351e-07
1.7160007201e-08
1.11818691858e-07
1.20191635098e-07
1.53661318082e-08
4.97714318214e-08
3.64764931271e-08
1.58183547938e-08
6.93308333843e-09
1.57100960675e-07
4.18410274753e-08
5.9598998367e-08
1.47699626458e-08
2.22332721622e-08
1.83805332781e-08
9.99459309103e-09
2.69240225224e-07
2.56437649782e-07
2.84200632857e-07
4.78602784342e-09
1.15221430904e-07
6.69529667911e-09
4.64696508193e-08
1.15775944012e-07
1.78669879918e-08
5.75507338882e-09
2.84917314663e-08
3.1700728324e-07
1.84716553313e-07
4.58349927182e-08
1.03341119354e-07
4.6971146564e-08
4.31851260031e-08
4.06631427298e-08
4.55048896296e-08
3.06764470053e-08
2.13054127998e-08
3.18196710977e-09
1.95203986854e-08
1.00205677551e-08
9.60592481748e-10
1.55685000618e-09
3.13141968375e-09
1.59610318341e-08
1.75025567305e-08
1.20075825633e-08
5.27225511713e-08
1.09905908611e-08
1.51536395255e-08
5.52134428883e-09
2.61971010299e-08
1.79113387625e-08
1.5100507168e-08
3.90264569276e-09
2.12085066984e-09
5.80212452416e-09
1.36951959738e-09
9.11445699121e-09
1.52158743661e-09
1.17684240978e-09
4.85840201704e-09
2.97178166848e-09
4.39531496176e-10
1.03506170061e-08
1.47232700773e-09
8.14204773964e-09
1.40009590904e-08
1.08979131256e-08
4.78202590331e-09
2.49619479423e-09
2.81841889462e-09
2.73467571915e-09
2.38000086709e-08
2.3274210527e-08
4.17394010701e-08
6.43265494302e-09
1.61658973402e-08
3.94902733254e-08
7.86004814483e-08
4.61464570015e-10
5.85641688525e-09
2.79642342731e-08
1.09485762731e-07
3.03557923568e-09
8.89793427775e-09
8.33080238609e-10
4.4542948623e-08
1.9855986444e-09
9.43135038293e-09
7.19024377547e-10
2.48021729942e-09
1.11411754129e-09
6.27071591946e-09
2.88131451228e-09
2.9462605871e-09
1.9209451934e-09
4.437767287e-09
4.3738781056e-09
8.43683354098e-09
2.05493246197e-08
3.7001550034e-08
7.57970909613e-09
2.38214928566e-08
1.19544926922e-08
3.35866905331e-09
9.3882864245e-10
1.94905297865e-09
1.02716051517e-09
1.24678887347e-09
4.28226717582e-09
1.06910232674e-09
3.9021958237e-09
1.92898729328e-09
6.31674529002e-10
2.71855394934e-09
6.57513709286e-09
1.35145791084e-08
2.91092884703e-09
2.29982188755e-08
4.22060670809e-10
1.0914625835e-08
3.9545597947e-09
1.31947094787e-09
5.17326764665e-09
8.91286336e-09
4.69563565727e-10
8.51485708868e-09
1.38988444872e-08
1.09240945016e-08
1.60112500731e-08
2.37741087704e-09
1.27376092532e-08
1.53226660969e-08
5.18726587047e-09
2.0231714567e-08
6.51901610287e-08
4.41106638135e-08
2.14873936565e-08
3.23925820039e-08
1.8766117599e-08
6.76955290021e-08
1.30166235019e-07
1.09227111557e-07
3.92035483479e-08
6.51720600558e-08
1.28546829742e-07
3.0308216821e-07
1.92499385044e-07
3.90010188992e-07
2.37911179786e-08
1.55538188176e-08
5.84896887417e-10
1.40653372163e-08
2.67465971555e-08
9.1032765711e-09
2.32528477633e-08
3.10345952949e-09
2.166013901e-08
2.12312045146e-08
1.27280070317e-08
6.03874528959e-08
2.53752390547e-08
8.6085912143e-08
5.56876192284e-08
1.61378094552e-07
3.01089606843e-08
4.88543521686e-08
9.17395397619e-08
3.06651566225e-07
1.7410859963e-07
5.7511067617e-08
4.24320703086e-08
4.04802844958e-10
2.01063006421e-07
2.1286961683e-07
6.61325279214e-08
5.71138238159e-08
2.78851041975e-08
2.55025739704e-07
4.24023247899e-08
2.94814671548e-08
6.223072579e-09
1.08348150094e-07
5.94086285389e-09
9.83897642165e-09
2.61087828075e-08
2.7134680869e-09
8.11472008985e-08
6.6175147057e-08
2.30095382355e-08
3.60476610227e-08
9.28827396807e-08
1.90718175844e-08
2.19439707439e-07
3.33067579971e-08
2.79481716698e-08
3.41646537718e-08
1.51131380969e-08
1.33966707753e-08
7.38085024824e-10
1.34110909452e-09
9.8291359017e-08
3.63073014621e-08
3.54123316221e-08
1.72289599027e-08
1.63507075515e-09
1.9380131909e-08
9.21449722886e-09
2.24105019187e-08
6.58458734564e-08
2.3916750866e-08
3.59246249178e-08
9.37159773127e-09
4.07675188296e-08
3.56133178867e-08
5.83670809211e-08
6.80450520405e-08
2.98332688293e-08
4.58599552586e-08
3.87099726983e-07
1.08153436346e-07
8.09194822489e-08
2.79578843308e-08
8.43584758962e-10
1.46618977909e-08
1.5133801152e-08
5.12895763216e-08
1.74438940106e-08
3.59390500371e-09
7.56853379904e-08
8.91819373026e-08
1.17390012733e-08
1.31133483908e-08
2.61632351342e-08
6.9551084279e-08
6.10694766884e-08
1.16816137207e-07
2.24238041386e-09
8.12412872221e-08
2.39005906704e-09
1.13044108491e-07
1.47537621641e-08
7.2345313744e-08
3.10290364055e-08
8.92551614785e-08
3.82351056664e-08
6.12902284291e-08
5.45719269711e-08
7.76694390489e-08
4.18669726253e-08
4.71764317031e-08
9.02768281868e-08
5.45300935213e-08
5.82829754393e-08
3.36426646842e-08
1.17165221674e-07
3.26238780371e-08
6.94456566293e-08
1.9749456785e-08
1.64137658735e-07
1.14755752703e-08
7.32066828106e-08
2.17924580727e-08
2.34483300245e-07
9.15386909498e-08
2.3174959433e-08
3.07942216417e-08
4.98343125263e-08
3.45199867984e-08
1.83881249996e-08
2.44378501564e-08
5.00788950054e-09
4.5346809483e-08
3.34059192608e-08
6.5364989085e-09
1.23991911048e-08
3.37949947687e-08
8.49357074324e-08
8.54416191584e-08
1.88913122908e-07
3.71500469411e-08
3.62947603277e-07
6.110665966e-08
5.20991581765e-07
1.99659364664e-07
4.79688817774e-07
5.36006983978e-07
3.42908003084e-07
1.99301204216e-07
9.90870444489e-09
2.44996334846e-07
5.51020861143e-07
1.28581783435e-07
2.58141680725e-07
2.32593058545e-08
7.1166006546e-08
4.68049075027e-08
9.7386568462e-08
8.67845864686e-08
1.06172826499e-07
3.15551280334e-08
2.83321799279e-08
6.75027110377e-08
1.20499852001e-08
2.18323110381e-08
1.2566180685e-08
6.10447635661e-08
1.02547310005e-07
1.4530250776e-08
3.06269371319e-08
6.72589057873e-09
4.86809138547e-09
5.98551378024e-10
4.30221462628e-08
2.49982632549e-08
2.92995351922e-08
5.12907416087e-08
1.15039452409e-07
4.08778384017e-08
1.22282217978e-07
5.73219756224e-07
2.48495700029e-08
1.14203809605e-06
2.87783249875e-07
1.76131893813e-07
1.79183590993e-07
4.2370833746e-07
4.04976083388e-07
1.32255530859e-07
3.89036044612e-07
1.82600235819e-07
6.16054707034e-07
8.68064398142e-07
3.37722248729e-07
1.78256925111e-07
6.88327553562e-07
4.82939635879e-07
2.02372865373e-08
2.71341218711e-07
1.76686181533e-07
9.10754042072e-07
2.33470527397e-07
1.83210241867e-07
3.25796519143e-07
2.37455208399e-07
8.55378494527e-11
2.98813825077e-08
1.6011665385e-09
1.88886141417e-08
4.94085013081e-09
1.30047466168e-08
1.77117993239e-08
8.25299698043e-11
5.31957145096e-09
1.14071986238e-08
4.39064749615e-09
5.79689426491e-09
1.46179924112e-08
1.16497336869e-08
3.54830410812e-09
3.75687905558e-08
7.06693465746e-09
1.45648234523e-08
1.9500312535e-08
9.22516172062e-09
7.99300579127e-09
1.08970459265e-08
2.77439562132e-08
1.0297990771e-07
1.19800602453e-08
4.00691205216e-08
5.07685834648e-08
1.78015807914e-08
1.9447462161e-08
2.94485574036e-09
5.1799564565e-08
1.30038306791e-07
6.32436518749e-08
1.87959703962e-07
5.67709241578e-08
1.53292643739e-07
2.26806250084e-08
1.70298198295e-07
2.58125455242e-07
8.73582931644e-08
7.17692304837e-08
9.62349448092e-08
5.47932192743e-08
1.91507023896e-07
1.31964451465e-07
8.71324004055e-08
1.02349577287e-07
3.90194751195e-07
1.22465671413e-09
4.4030367309e-08
1.82149606662e-08
1.37234561649e-07
1.52629921593e-08
3.36672189221e-09
1.04823694048e-08
2.68285133203e-09
2.69678318566e-08
1.50186577478e-08
3.97881848001e-09
2.75238302212e-08
1.55555284211e-08
8.50561385327e-09
1.94897534326e-08
1.1768853315e-09
2.96383043394e-08
1.79405853689e-08
9.84772339093e-10
1.16765814234e-09
1.93089981756e-08
3.62323299601e-09
1.05466614315e-08
5.44585358237e-11
1.7063022963e-08
1.31244846934e-08
2.02519867914e-09
1.97331161826e-08
4.38459342646e-09
2.61990606172e-09
4.08429225877e-09
6.70160793307e-08
2.93916198044e-08
1.66891673624e-08
1.60667698812e-08
1.05035847099e-08
6.19721425909e-08
2.20546384366e-08
7.58792307435e-08
3.78392360181e-09
5.75120714976e-09
3.28999559443e-09
1.39227972215e-08
6.34712024904e-10
1.64533848444e-08
8.31655551023e-09
1.69132285091e-09
1.24468271741e-08
3.13672198783e-09
1.17832856693e-09
1.41179908368e-09
1.8103949704e-09
8.52640307785e-09
6.9120017902e-09
1.37894074147e-09
2.32704659283e-09
9.83269293116e-09
6.17082614025e-09
2.01674039443e-09
4.40497314332e-09
6.01065370957e-09
4.17455652198e-09
4.89957152196e-09
1.12022322083e-08
1.98108253399e-08
1.34212404052e-08
2.86926702199e-08
5.57758607481e-08
5.67113810711e-07
6.15684862202e-07
5.83608473688e-07
4.5789872373e-08
1.41998949187e-08
4.86191321102e-08
3.89969775308e-08
1.75425829136e-08
3.35152971753e-08
5.13090973936e-09
4.78560692612e-08
3.03522859478e-08
1.95720629521e-08
4.07261532953e-09
1.22009427464e-08
2.28667544252e-08
2.77213665124e-08
3.92267166941e-08
4.02261902235e-08
6.5085981086e-08
1.21320386548e-08
8.68115700951e-08
5.65420118681e-08
7.82660426327e-08
1.02384834751e-07
2.44722376541e-08
7.93766862882e-08
1.58262063931e-07
2.67003561418e-07
1.40773838286e-07
1.16015990204e-07
1.77894859108e-07
2.26486243579e-08
3.51950772933e-07
1.32786536382e-07
8.97782096323e-08
8.61764979922e-08
1.68961678987e-07
5.93404450831e-09
7.73077088821e-08
7.21775435219e-08
2.69555787564e-08
1.82923284723e-08
1.0331314372e-08
1.29295060698e-08
3.70919796166e-08
1.19181533898e-08
5.02149072045e-09
3.81926102839e-08
1.32322153491e-08
2.21392253158e-11
1.18157064827e-08
2.11612802516e-08
3.82727461625e-09
9.11667558147e-09
1.31906556916e-09
3.76417240261e-09
1.00872739601e-09
7.00075914006e-09
7.77224946876e-09
1.93272198974e-09
6.71052277933e-10
2.08792166636e-08
1.9778394593e-09
1.74596171997e-09
1.41772344156e-09
2.39935051314e-09
5.59362549749e-09
1.70913267969e-09
1.91144187735e-09
1.99885300234e-10
4.08815523745e-08
6.09938903664e-08
8.25278191077e-08
6.99861509332e-08
2.57008696285e-08
1.21059737069e-07
4.94027776504e-08
1.36778174357e-08
3.02256208205e-09
3.09596497946e-08
2.11115886486e-09
7.20803744276e-09
2.44498621647e-09
5.79476339299e-08
6.7460510188e-08
1.55402358908e-07
1.15422276943e-07
2.47643391348e-08
2.24594457751e-08
6.1741813804e-08
1.038082295e-09
5.94044036274e-08
5.46658320363e-08
4.43681500711e-08
4.65996623896e-08
1.00084415089e-08
4.55137978558e-09
5.12724358776e-08
6.88193777294e-09
2.81934584265e-08
1.51921664753e-08
4.94926902207e-08
5.21748948769e-07
1.92780026801e-07
2.98757919734e-07
3.16594838098e-07
3.80470070367e-07
1.29890941883e-07
4.55187123076e-08
3.76707369337e-07
5.79296952421e-08
6.73799063529e-07
4.67725098811e-08
8.47027341807e-08
7.05493516238e-09
4.16991505237e-09
2.61794481828e-08
3.61776469058e-08
3.03464790352e-08
5.1928129722e-07
1.12449536506e-07
9.03247793768e-08
1.56421751572e-08
2.18399163314e-08
2.11117731726e-09
9.65873658663e-08
6.08716540148e-09
1.60477114267e-08
8.40168932888e-09
1.1443511075e-08
3.96081385231e-09
2.07754533325e-09
2.43334840576e-09
1.44119255465e-09
3.46831948024e-09
1.13815154311e-09
1.13193244937e-10
2.46596750409e-09
3.54408192881e-09
1.25899207731e-09
1.27499270468e-09
3.32259829287e-09
1.46694542877e-11
3.40186506092e-10
7.31697152872e-10
1.06566105072e-09
3.49122791399e-09
3.68809923775e-09
2.65763952825e-10
1.44846531697e-10
1.06120822583e-09
2.68073282006e-09
1.01619262096e-09
1.73053483205e-09
3.40762630227e-09
9.96432133597e-10
1.59496672823e-09
1.83662929214e-09
1.58086892118e-09
3.75314439225e-09
5.44798772863e-09
3.64971148823e-09
5.79791703881e-09
9.86033343923e-09
6.38744634179e-09
3.45512754835e-09
3.88874246224e-09
8.79625710834e-09
6.47513000904e-09
8.11502254768e-09
6.86286419501e-09
3.10442399455e-10
6.64209363781e-09
2.61603532902e-09
9.9065575997e-09
3.08729145812e-09
1.70269616905e-08
5.92921715025e-09
1.05302131646e-09
1.18827405803e-08
1.14294594261e-08
3.87868210665e-08
2.50825893333e-09
1.9126127593e-08
1.96432674766e-09
5.97479499064e-09
5.96635563133e-09
2.81063469795e-11
1.19537227167e-08
6.31113179686e-09
1.78658672673e-09
3.02930519581e-08
4.1281203566e-10
4.84535173553e-11
1.23750704123e-08
1.40063863862e-08
1.8600572007e-08
1.40239683932e-08
2.10778195273e-08
1.00577945987e-07
1.34083577236e-08
2.94347389921e-08
1.87761638262e-08
5.09592387069e-09
8.32083701559e-09
2.39052697071e-08
3.85922861922e-09
1.51087533333e-08
2.86042834497e-08
4.88143226285e-09
3.41827666132e-08
2.71086646204e-08
6.78948898159e-08
5.86895913418e-09
3.35561797015e-09
5.28503694944e-08
5.15510176518e-08
6.58962411175e-08
1.31017609011e-08
1.86568360674e-09
3.3684346395e-08
3.63571730794e-08
1.01925160353e-07
2.72886796283e-09
8.10853494378e-08
6.2579857293e-09
6.94969066887e-08
2.77632247138e-08
5.98076167187e-09
3.48605198169e-08
6.8305649037e-08
7.55535441957e-08
2.16726030385e-09
1.84746884735e-08
4.75235110709e-10
2.08463127449e-08
1.6677145257e-09
7.68171290092e-09
7.65250674421e-09
6.11641537346e-10
1.07085752473e-08
5.12289243578e-10
2.30704489378e-09
9.96052396055e-09
3.02993106948e-09
5.36521547987e-09
8.1371333218e-09
1.38569775628e-09
4.02905384549e-09
1.53609322649e-08
4.84600724227e-09
3.77060970121e-09
5.17342063406e-09
2.11380195726e-09
5.84977013212e-11
1.25883294328e-08
4.14197693797e-09
1.76728897117e-08
1.50961381687e-09
1.45896568134e-08
3.47321664105e-08
4.61559730284e-10
3.95316051683e-08
4.61286711582e-08
4.53308325567e-08
4.42628055364e-08
3.56967798778e-08
1.55497454167e-08
1.70555242841e-08
6.82142710083e-08
6.26362064709e-08
8.68995609479e-09
5.55978719146e-09
1.17834637931e-08
9.14103853684e-09
2.19421829342e-09
6.13428269963e-10
5.22309948494e-09
1.23133017852e-09
1.20154639747e-10
1.05310904433e-10
2.1706199626e-10
4.06059056757e-09
4.50409460938e-10
1.21347108226e-09
1.84291027744e-09
1.36693699853e-09
3.02308139939e-10
2.20735420611e-09
1.57270076622e-09
4.47724230787e-10
2.36412778481e-09
1.01458345872e-09
1.36661125238e-09
6.07872403757e-09
1.18700842233e-09
1.21103824665e-08
6.68162314831e-10
4.59470571762e-09
1.99301143887e-09
4.86660735777e-09
1.15543970857e-09
1.00768533074e-09
1.57158568094e-09
2.27246946205e-09
5.86392569644e-10
2.09103154623e-09
7.75477761478e-09
6.65207223958e-09
9.31011920676e-09
8.91283371336e-09
6.3044869195e-10
1.19785076526e-08
1.06635802068e-08
4.23857659315e-09
7.55118385665e-09
3.93768715962e-10
9.26971976936e-09
7.13872627962e-09
6.79862127659e-09
1.09358145527e-08
2.04214456479e-08
6.7414298173e-09
3.86908542845e-09
1.17916604537e-09
8.34270241309e-10
4.61032068863e-09
4.15857817325e-09
5.64612990273e-09
4.48107177634e-09
4.77453678494e-09
7.61641631282e-09
1.40465953934e-08
1.57455051606e-08
5.61239638434e-10
2.11466290983e-09
5.47264619725e-10
3.24038127634e-09
1.42366349438e-09
2.51938308182e-10
9.04068599312e-10
2.68382895053e-09
1.57190075546e-09
1.15833475753e-09
3.57183252449e-09
5.80188828888e-09
2.70460221584e-09
4.75098046992e-09
2.74784923582e-09
1.03533354772e-09
1.30033291748e-08
1.38404064849e-09
3.35196567736e-09
6.39062167349e-10
1.66443167296e-09
5.58182975731e-09
2.83483484319e-09
9.39877733459e-09
1.08795270448e-09
7.0003690586e-09
3.12988321341e-08
6.06661796694e-09
1.76434052988e-08
8.54275217379e-10
2.91902881454e-09
2.52670001984e-09
2.98487743509e-09
2.62484514364e-09
2.5865209337e-09
2.29774977753e-09
4.83750557497e-09
3.15002454518e-09
2.70777608021e-09
2.67997622129e-09
2.48816498461e-09
2.26740324575e-09
1.30212272111e-09
5.20158391676e-09
6.30343909239e-10
8.11026855858e-09
5.05832927578e-09
3.46691953622e-09
1.90136302715e-08
1.96690961626e-07
5.5634987807e-09
2.07204909386e-07
4.88460105247e-08
5.32307629885e-08
1.12790010666e-08
1.00144549476e-07
3.11402256141e-08
3.71096882033e-07
2.37266248886e-07
1.73811707978e-07
4.9567316661e-07
4.44855207234e-07
1.4064719078e-07
2.16064958672e-07
1.5266178208e-08
4.65406297061e-08
4.81586122783e-09
1.83603968547e-08
1.2411109748e-08
5.96805599918e-08
3.62171374683e-08
1.01371488327e-07
1.04950637848e-07
5.13345789582e-08
2.22985444698e-07
1.35551161043e-07
2.31746393141e-07
1.80719658729e-07
9.95297239601e-08
7.3251589822e-08
1.37773578101e-08
1.14325030316e-09
6.11958585677e-09
6.01679377819e-09
6.72310362076e-09
3.40566634857e-08
2.72655137007e-08
5.35216995176e-08
6.55905633159e-08
2.39990112606e-08
8.01855687044e-08
2.76270131403e-08
4.87008118461e-08
1.52823936521e-08
2.22042405742e-08
2.06547387511e-10
3.72586952281e-10
2.61145328505e-10
1.03279096554e-08
3.29762869639e-09
8.20730969247e-09
1.04605447495e-08
1.43351094438e-08
1.84907823636e-08
7.95886093573e-09
5.97849693253e-09
4.23504210276e-09
4.22506198851e-08
1.30445152632e-08
4.99739391648e-09
3.83481450613e-09
1.81715658306e-08
5.20340759235e-09
1.5782674109e-07
8.90984397658e-09
1.1794372173e-07
4.64396730732e-08
1.00217558879e-07
1.31420820916e-08
3.84765617459e-08
1.61842192185e-08
1.9616322314e-08
2.69355373916e-09
2.16996827178e-08
1.9978217005e-08
2.6968420882e-08
4.52674233885e-08
4.00991939108e-08
4.8988589518e-08
1.10798694455e-07
2.15387264041e-07
1.37988714293e-08
9.1543544855e-08
3.59939821078e-07
5.03779323734e-07
4.18654933387e-07
2.77822945275e-07
2.57921650036e-07
1.01186575973e-07
4.34324218749e-08
3.18168223967e-08
1.34819686882e-08
1.53038140879e-09
6.38969667547e-09
9.88283830233e-09
9.88113195725e-09
5.35114643017e-09
2.23640974809e-08
2.16671515131e-08
4.48652456331e-08
3.37202634194e-08
6.41698593713e-09
9.01490630176e-08
7.05889562178e-08
4.86688939246e-08
6.63852089289e-08
1.9993857815e-07
4.21913530992e-08
4.39646185158e-10
1.92467892268e-08
1.31622495844e-08
5.55516892212e-09
2.00490336655e-09
9.8068035948e-10
4.41229581914e-09
9.61482875196e-11
9.54236963446e-09
4.97171213815e-09