# vtk DataFile Version 3.0
File Name: Molecule/arg/arg_5.0-7.vtk
ASCII
DATASET UNSTRUCTURED_GRID
FIELD FieldData 1
TIME 1 1 double
0.0
POINTS 915 double
-3.403 0.327 1.604
-3.45 0.103 1.078
-3.138 0.005 1.702
-3.183 -0.208 1.2
-2.981 -0.361 1.858
-3.028 -0.584 1.332
-3.298 -0.003 0.536
-3.038 -0.309 0.683
-2.876 -0.691 0.79
-2.971 0.024 0.066
-2.725 -0.284 0.235
-2.549 -0.664 0.32
-2.984 0.046 0.042
-2.617 -0.045 -0.207
-2.63 -0.024 -0.229
-2.351 -0.22 -0.527
-2.365 -0.198 -0.55
-2.2 -0.483 -0.862
-2.216 -0.458 -0.889
-3.25 0.578 -0.258
-2.686 0.062 -0.328
-2.904 0.498 -0.574
-2.48 -0.047 -0.742
-2.684 0.361 -0.973
-2.39 -0.269 -1.153
-2.617 0.185 -1.409
-3.173 1.207 -0.458
-2.84 1.014 -0.738
-2.625 0.846 -1.127
-2.55 0.723 -1.58
-2.776 1.74 -0.497
-2.515 1.451 -0.77
-2.319 1.256 -1.157
-2.211 1.177 -1.613
-2.622 1.932 -0.429
-2.434 1.563 -0.734
-2.291 1.743 -0.67
-2.16 1.459 -1.077
-2.01 1.647 -1.011
-1.982 1.439 -1.492
-1.81 1.654 -1.416
-2.666 2.281 -0.134
-2.046 2.135 -0.548
-2.085 2.448 -0.283
-1.615 2.438 -0.879
-1.659 2.787 -0.585
-2.622 2.533 0.247
-2.045 2.674 0.059
-1.614 3.039 -0.203
-2.495 2.657 0.67
-1.932 2.785 0.438
-1.488 3.163 0.22
-2.925 2.572 1.071
-2.251 2.77 1.005
-2.634 2.694 1.361
-2.033 3.002 1.293
-2.411 2.928 1.645
-1.863 3.333 1.507
-2.279 3.251 1.894
-3.186 2.284 1.521
-2.865 2.437 1.761
-2.64 2.674 2.039
-2.53 2.972 2.328
-3.419 1.801 1.788
-2.888 2.359 1.917
-3.122 1.876 2.185
-2.717 2.558 2.345
-2.979 2.017 2.644
-3.567 1.179 1.827
-3.202 1.735 2.161
-3.333 1.184 2.196
-3.094 1.732 2.585
-3.223 1.188 2.619
-3.107 1.793 3.017
-3.25 1.192 3.055
-3.408 0.559 1.798
-3.191 0.635 2.17
-3.084 0.647 2.593
-3.095 0.593 3.027
-3.105 0.348 2.085
-3.1 0.088 1.867
-2.97 0.105 2.152
-3.02 0.504 2.546
-2.901 0.29 2.606
-2.978 0.383 3.085
-2.865 -0.346 2.113
-2.52 -0.7 2.425
-2.789 -0.06 2.411
-2.48 -0.378 2.69
-2.828 0.19 2.745
-2.523 -0.123 3.02
-2.645 0.041 3.387
-2.46 -1.117 2.184
-2.148 -0.9 2.844
-2.09 -1.3 2.613
-2.003 -1.142 3.367
-1.937 -1.6 3.103
-2.268 -1.45 1.888
-1.906 -1.62 2.328
-1.726 -1.965 2.777
-1.967 -1.659 1.57
-1.617 -1.821 2.023
-1.396 -2.195 2.428
-1.592 -1.721 1.268
-1.257 -1.88 1.733
-0.984 -2.263 2.097
-2.026 -1.588 0.931
-1.351 -1.766 0.91
-1.757 -1.641 0.594
-1.133 -1.941 0.578
-1.555 -1.812 0.25
-0.96 -2.23 0.303
-1.437 -2.084 -0.068
-2.342 -1.257 0.596
-2.053 -1.332 0.28
-1.861 -1.491 -0.075
-1.784 -1.721 -0.435
-2.487 -0.785 0.321
-2.189 -0.889 0.022
-2.002 -1.032 -0.342
-1.943 -1.202 -0.738
-2.264 -0.668 -0.026
-2.322 -0.554 -0.027
-2.141 -0.611 -0.433
-2.203 -0.492 -0.433
-2.131 -0.618 -0.861
-2.114 -0.682 -1.181
-1.927 -1.264 -1.052
-2.312 -0.441 -1.376
-2.121 -0.506 -1.916
-2.042 -0.816 -1.214
-1.838 -0.886 -1.79
-1.682 -1.348 -1.746
-1.975 -0.256 -2.322
-1.864 -0.768 -1.888
-1.672 -0.441 -2.421
-1.897 0.192 -2.527
-1.57 0.147 -2.691
-1.996 0.646 -2.441
-1.495 0.306 -2.776
-1.602 0.798 -2.682
-1.198 0.386 -3.152
-1.328 0.981 -3.039
-2.011 1.039 -2.18
-1.619 1.224 -2.399
-1.348 1.496 -2.696
-1.72 1.257 -2.235
-1.479 1.817 -1.75
-1.107 2.057 -2.211
-1.346 2.153 -1.415
-1.642 2.007 -1.116
-1.319 2.584 -1.178
-0.816 3.013 -1.267
-1.111 2.259 -1.642
-0.623 2.675 -1.729
-0.543 2.537 -2.312
0.466 3.148 -0.891
-0.416 2.926 -1.599
0.331 3.005 -1.38
-0.131 2.956 -2.042
0.328 3.005 -1.907
-0.002 3.1 -2.533
0.456 3.148 -2.398
-0.048 3.337 -3.001
0.699 3.415 -2.782
0.833 2.913 -0.61
0.619 2.806 -1.364
0.976 2.577 -1.092
0.892 2.689 -1.891
1.303 2.425 -1.576
1.057 2.557 -0.305
1.192 2.232 -0.796
1.553 2.026 -1.234
0.979 2.767 0.195
1.24 2.204 -0.113
1.167 2.404 0.362
1.539 1.918 0.039
1.462 2.128 0.539
0.737 2.845 0.68
0.936 2.478 0.823
1.22 2.206 1.024
0.406 3.093 0.833
0.71 2.572 1.142
0.419 2.789 1.277
0.841 2.425 1.643
0.539 2.651 1.783
1.112 2.426 2.108
0.748 2.699 2.276
0.011 3.456 0.651
0.142 3.058 1.218
-0.201 3.373 1.06
-0.01 3.117 1.656
-0.348 3.428 1.5
-0.034 3.266 2.099
-0.415 3.616 1.924
-0.504 3.599 0.465
-0.648 3.497 0.898
-0.789 3.55 1.341
-0.913 3.754 1.744
-1.038 3.495 0.311
-1.112 3.406 0.765
-1.247 3.461 1.209
-1.429 3.653 1.595
-1.502 3.118 0.685
-1.632 3.177 1.131
-0.05 3.403 2.531
0.304 2.919 2.221
0.288 3.057 2.654
0.729 2.855 2.766
-0.175 3.437 2.964
0.162 3.091 3.09
0.587 2.894 3.259
-0.395 3.364 3.353
-0.059 3.019 3.48
0.337 2.812 3.701
-0.687 3.194 3.654
-0.352 2.847 3.783
0.006 2.617 4.044
-1.13 3.18 3.766
-0.58 2.815 3.881
-1.094 2.799 4.011
-1.584 3.151 3.721
-1.62 2.766 3.959
-1.995 3.111 3.523
-2.096 2.719 3.73
-2.312 3.063 3.198
-2.464 2.664 3.352
-2.498 3.015 2.783
-2.679 2.608 2.871
-0.832 2.373 4.277
-0.242 2.183 4.431
-1.061 1.806 4.483
-0.466 1.628 4.634
-1.364 2.231 4.354
-1.452 1.611 4.604
-1.713 1.977 4.492
-1.735 2.528 4.103
-2.033 2.233 4.276
-2.128 2.66 3.763
-2.373 2.347 3.982
-2.496 2.611 3.374
-2.69 2.305 3.646
-2.791 2.388 2.985
-2.945 2.113 3.311
-1.464 1.095 4.666
-0.956 1.592 4.533
-0.968 1.074 4.596
-0.48 1.041 4.705
-1.655 0.731 4.634
-1.079 0.886 4.596
-1.26 0.541 4.565
-0.689 0.687 4.666
-0.881 0.322 4.633
-0.333 0.517 4.869
-0.555 0.096 4.831
-2.027 0.463 4.516
-1.383 0.368 4.531
-1.728 0.119 4.423
-1.114 -0.009 4.584
-1.476 -0.27 4.469
-0.878 -0.357 4.785
-1.3 -0.661 4.651
-2.342 0.241 4.242
-2.019 -0.087 4.169
-1.783 -0.487 4.202
-1.658 -0.914 4.34
-2.557 0.093 3.848
-2.219 -0.224 3.803
-1.993 -0.631 3.818
-1.903 -1.082 3.892
-2.301 -0.273 3.375
-2.078 -0.682 3.368
-0.557 -0.612 4.999
-0.228 -0.165 5.05
-0.202 -0.89 5.102
0.134 -0.447 5.155
0.164 -1.171 5.088
0.507 -0.734 5.141
0.37 -1.612 4.973
0.615 -0.976 5.092
0.811 -1.395 4.983
1.043 -0.806 5.264
1.249 -1.247 5.15
0.578 -1.993 4.725
1.008 -1.757 4.747
1.457 -1.629 4.901
0.77 -2.282 4.364
1.191 -2.031 4.405
1.649 -1.918 4.541
0.93 -2.454 3.923
1.343 -2.194 3.985
1.809 -2.089 4.099
1.044 -2.494 3.437
1.451 -2.232 3.524
1.923 -2.129 3.613
1.103 -2.399 2.949
1.506 -2.141 3.061
1.981 -2.034 3.126
1.1 -2.176 2.501
1.504 -1.93 2.635
1.979 -1.811 2.678
1.037 -1.846 2.131
1.444 -1.616 2.284
1.916 -1.481 2.307
0.647 -2.269 2.118
0.836 -1.714 1.711
0.512 -2.064 1.7
0.77 -1.662 1.233
0.47 -1.987 1.224
0.848 -1.697 0.757
0.525 -2.047 0.746
1.061 -1.813 0.337
0.67 -2.236 0.324
0.119 -2.499 2.107
0.075 -2.255 1.691
0.064 -2.164 1.215
0.088 -2.237 0.737
0.142 -2.466 0.313
-0.457 -2.497 2.099
-0.401 -2.253 1.685
-0.378 -2.162 1.209
-0.389 -2.235 0.73
-0.434 -2.464 0.306
-0.837 -2.059 1.682
-0.782 -1.983 1.207
-0.825 -2.042 0.728
1.12 -1.273 1.146
1.358 -0.854 0.972
1.315 -1.197 1.595
1.48 -1.078 0.031
1.639 -0.712 -0.547
1.476 -0.549 0.311
1.615 -0.229 -0.195
1.697 -0.118 0.66
1.842 0.216 0.134
-0.171 -1.746 -2.529
-0.548 -1.409 -2.576
0.186 -1.352 -2.841
-0.152 -1.05 -2.884
-0.822 -1.287 -2.506
-0.408 -0.948 -2.806
-0.669 -0.831 -2.739
-0.336 -0.591 -3.197
-0.616 -0.466 -3.125
-1.485 -0.767 -2.346
-0.988 -0.705 -2.664
-1.322 -0.31 -2.728
-0.95 -0.071 -3.189
-0.311 -0.212 -3.619
0.104 -0.811 -3.39
0.128 -0.454 -3.788
-0.16 0.24 -3.931
0.27 -0.03 -4.081
0.101 0.716 -4.098
0.516 0.418 -4.238
-0.411 1.252 -3.909
0.377 1.347 -4.4
0.11 1.626 -4.301
-0.398 1.946 -3.588
0.117 1.987 -4.134
-0.712 2.237 -2.975
-0.106 2.463 -3.53
-0.314 2.656 -3.124
0.028 3.029 -3.665
-0.135 3.18 -3.347
-0.202 2.855 -2.684
0.173 2.486 -3.833
0.85 2.546 -3.838
0.989 2.064 -4.14
1.267 2.733 -3.406
0.819 3.383 -2.845
1.204 2.948 -2.765
1.749 2.404 -3.353
1.668 2.681 -2.526
0.902 2.914 -2.485
0.749 2.956 -2.405
1.123 2.627 -2.01
1.688 2.19 -1.733
1.962 2.454 -2.382
2.133 1.624 -1.992
2.194 2.159 -2.516
2.141 1.301 -1.585
2.428 1.273 -2.257
2.435 0.969 -1.874
2.042 0.907 -1.262
2.342 0.599 -1.57
1.911 1.516 -1.257
1.884 0.909 -0.851
1.768 1.444 -0.847
1.861 0.913 -0.411
1.75 1.425 -0.407
1.976 0.918 0.014
1.858 1.462 0.018
1.454 1.892 -0.826
1.449 1.855 -0.388
1.867 0.812 -0.4
1.753 0.215 -0.299
1.896 0.717 -0.83
1.788 0.151 -0.734
2.06 0.644 -1.234
1.942 0.027 -1.129
2.201 -0.141 -1.444
2.566 1.229 -2.871
2.241 1.687 -2.422
2.339 1.656 -2.857
2.27 2.135 -2.856
2.341 1.264 -3.459
2.179 1.681 -3.275
2.146 2.154 -3.181
1.83 1.363 -3.817
1.817 1.751 -3.528
1.863 2.209 -3.379
1.605 0.935 -4.222
1.413 1.57 -3.947
1.254 1.267 -4.234
1.103 1.869 -4.167
0.979 1.632 -4.39
1.11 0.579 -4.381
0.902 1.014 -4.346
0.705 1.435 -4.478
0.482 0.901 -4.245
1.404 2.01 -3.684
1.315 2.161 -3.664
2.007 0.383 0.735
1.733 -0.159 1.085
2.004 0.279 1.15
1.861 -0.287 1.473
2.124 0.139 1.536
2.068 -0.489 1.788
2.355 -0.024 1.857
2.335 -0.746 2.002
2.675 -0.196 2.083
2.074 0.941 0.928
2.063 0.767 1.319
2.181 0.613 1.7
2.417 0.492 2.036
2.749 0.417 2.295
1.884 1.434 1.198
1.897 1.199 1.555
2.02 1.032 1.93
2.241 0.95 2.287
2.541 0.959 2.592
1.624 1.884 1.117
1.755 1.469 1.75
1.503 1.904 1.671
1.842 1.579 2.299
1.557 2.073 2.21
1.11 2.216 1.58
1.886 1.845 2.759
2.132 1.224 2.493
2.174 1.477 2.929
2.585 1.225 3.051
1.814 2.002 3.263
2.105 1.625 3.407
2.513 1.382 3.555
1.633 2.033 3.763
1.933 1.655 3.881
2.331 1.413 4.055
1.359 1.937 4.21
1.674 1.563 4.305
2.058 1.316 4.502
1.021 1.721 4.561
1.354 1.359 4.638
1.72 1.101 4.853
0.651 1.408 4.781
1.002 1.062 4.847
1.35 0.788 5.074
0.073 1.245 4.841
0.82 0.891 4.947
0.23 0.725 5.008
0.672 0.387 5.179
1.205 0.294 5.301
0.564 -0.173 5.245
1.099 -0.256 5.367
-1.834 2.927 0.971
1.032 -1.487 0.709
1.553 -0.779 1.421
1.396 -0.602 0.696
1.333 -0.958 0.489
1.678 -0.195 -0.741
1.805 -0.426 -1.067
0.9 3.106 -3.671
-2.913 1.955 -0.341
-3.327 1.641 -0.268
-3.327 2.032 -0.008
-2.913 2.297 -0.026
-3.327 2.292 0.383
-2.913 2.519 0.384
-3.327 2.384 0.843
-3.656 1.544 0.048
-3.656 1.916 0.37
-3.656 2.055 0.843
-3.656 1.916 1.316
-3.867 1.641 0.843
-3.867 1.411 1.241
-3.656 0.342 1.089
-3.656 0.609 1.504
-3.867 0.951 1.241
-3.867 0.721 0.843
-3.656 0.342 0.597
-3.867 0.951 0.445
-3.656 0.609 0.182
-3.656 1.057 -0.022
-3.867 1.411 0.445
-3.94 1.181 0.843
-2.457 -1.44 1.367
-2.786 -1.076 1.613
-2.786 -1.076 1.121
-2.457 -1.348 0.907
-2.786 -0.809 2.028
-2.215 0.2 -2.35
-2.215 -0.241 -2.149
-2.52 0.083 -1.912
-2.52 0.561 -1.912
0.827 3.098 -0.086
0.498 3.335 -0.546
0.498 3.427 -0.086
0.498 3.335 0.374
[...]
CELL_DATA 1826
SCALARS cell_data_0 double
LOOKUP_TABLE default
1.90877670382e-06
3.61470206169e-06
1.85960421886e-06
1.95754243683e-06
4.11778858836e-06
4.04956319477e-06
3.71612391668e-06
2.60953589623e-06
2.17831081101e-06
1.31401870102e-06
2.01079535363e-06
4.46524041862e-07
2.14166805574e-08
5.47942028899e-08
7.60798015132e-08
8.51160685502e-08
4.86105588658e-08
1.13714236892e-07
3.84773849507e-06
5.66655958977e-06
3.92210002453e-06
4.42266552732e-06
1.07422701182e-06
1.23859608436e-06
1.00310564785e-05
8.16825554484e-06
6.51653332671e-06
6.4879053934e-06
4.39152068556e-06
4.88936711173e-06
7.35193845578e-06
5.99052046858e-06
8.75861159949e-06
5.67395295093e-06
4.19781520651e-06
8.13641296326e-07
6.67573401188e-07
5.43750380015e-07
3.25241191892e-07
3.93546190281e-07
1.05674813966e-07
5.93015099941e-07
7.63662762554e-06
6.99455892878e-06
1.98971744946e-06
2.03571964192e-06
7.90225154336e-06
4.36060827334e-06
4.1898620929e-06
7.11933168857e-06
6.64599863263e-06
6.76078375632e-06
7.43788198784e-06
7.28542129663e-06
2.73265771816e-05
2.2390065904e-05
2.2474481547e-05
2.20526253891e-05
2.45564981683e-05
7.83151617564e-06
1.94974872531e-05
5.71939545969e-06
9.00335917659e-06
1.40495767498e-05
9.48119360848e-06
1.07011539283e-05
3.20787853509e-06
6.77103216056e-06
5.26684223769e-06
4.89224421749e-06
7.90444087373e-06
5.575315989e-06
4.35075954166e-06
1.88877665275e-06
2.29253876866e-06
2.73390575501e-06
3.92629454533e-06
2.1382743545e-06
1.70356921147e-06
1.46527501651e-06
1.8000315692e-06
3.16337632828e-06
4.86206400726e-07
2.54222622277e-08
4.51639369923e-07
4.45897521428e-07
9.30429261436e-07
8.88255989451e-07
7.05828699305e-07
1.70281893278e-07
6.65386228399e-07
4.4521140326e-08
1.21141411907e-07
9.66881671218e-08
2.19147577641e-07
1.58838230738e-07
6.29677484705e-07
1.78196868271e-06
3.77532247602e-06
3.2730315953e-06
7.39769797572e-07
1.33541213031e-06
2.01935742533e-06
1.82359099804e-06
7.44556902272e-07
1.20545753998e-06
1.44602828034e-06
1.16935457964e-06
8.91337181885e-07
1.16119463151e-06
1.07903098169e-06
7.76086228471e-08
8.32412966227e-07
8.12142926628e-07
1.21184630511e-06
1.1476919646e-06
1.22860284985e-06
1.05242692371e-06
6.21491441648e-07
7.79106674196e-07
9.51938770724e-07
1.0139032876e-06
1.01306004449e-06
8.00238124087e-07
1.24918005067e-07
3.46522000456e-07
7.83310736042e-07
9.38483893961e-07
6.7353763443e-07
3.70173799868e-07
1.22195548525e-07
3.00241264142e-07
3.13178038722e-07
3.87217339284e-07
3.53276579359e-07
4.48112223024e-07
3.63938447823e-07
1.27226093301e-06
6.25987390774e-07
5.82881357991e-07
1.14047263795e-06
1.42759424884e-06
1.00727386531e-06
2.52431260043e-07
8.37950117688e-07
1.18031432978e-06
9.61649491696e-07
1.28404080288e-06
1.25454654752e-06
1.34777893742e-06
1.42092530569e-06
2.54056150076e-06
1.90390617784e-06
2.48917090219e-06
2.4491888301e-06
3.21639006358e-06
1.99770522166e-06
2.69069588703e-06
5.37491375252e-06
5.24413648354e-06
2.56772982957e-06
2.39839565996e-06
2.425484436e-06
1.86173442284e-06
4.61943910764e-06
5.52415488745e-06
5.82117853531e-06
6.61640832297e-06
6.9716821934e-06
3.27378577307e-06
4.57223172165e-06
8.3131405973e-07
2.39195784409e-06
1.54173426159e-06
4.50092582056e-06
8.51983106661e-06
1.2391471724e-06
1.4050656738e-06
1.85654851498e-06
5.01317440642e-06
3.26599215356e-06
3.88703057437e-06
4.03692028917e-06
5.22355896956e-06
2.48298931005e-06
2.12681072656e-06
2.18618209159e-06
2.24865329556e-06
1.9185056528e-06
1.80397643683e-06
2.03998553928e-06
1.89798303527e-06
1.59444305977e-06
1.39160682161e-06
1.48106887377e-06
1.07462517118e-06
1.29572729914e-06
1.73128437454e-06
9.66704709728e-07
5.69532505701e-07
3.55261406756e-07
4.07817520724e-07
4.74549733921e-07
4.51241651635e-07
6.32403534531e-07
4.97961052719e-07
5.17499578297e-07
4.31012166722e-07
3.18600608439e-07
2.65765708763e-07
5.46026840155e-07
4.74046331437e-07
4.17299333447e-07
2.97584112458e-07
2.56577492341e-07
1.17144715355e-07
4.90635900907e-07
2.48124089842e-07
2.98829776645e-07
1.70271992146e-07
1.87232326081e-07
1.10602841657e-06
5.77523581671e-07
4.94145204536e-07
1.24346471871e-06
1.57876732815e-06
8.99342260836e-08
2.42118798054e-07
4.72322063982e-07
3.5744380457e-07
1.24955979316e-06
2.47977435493e-06
1.92938482888e-06
6.69320032745e-06
2.26263103346e-06
7.24090891578e-07
4.49781318011e-06
3.27575376158e-06
2.65297441656e-07
9.85301051765e-08
3.33551344284e-08
1.02153353714e-07
3.00551604188e-08
3.96333481691e-08
9.50062602449e-08
1.24638114893e-07
5.8557154867e-09
2.27470373554e-08
1.34952810175e-06
2.74927023732e-06
1.77469252052e-06
2.83367677872e-06
2.96115634498e-06
1.79429319318e-06
1.10827577911e-06
4.26189035427e-06
7.52868681504e-06
1.10429222232e-05
1.92189924111e-05
1.79897447606e-05
2.73297624615e-05
2.00219837859e-05
2.26308951175e-05
1.5681556988e-05
9.32935178267e-06
6.61214477221e-06
2.76382169589e-06
4.48772864843e-06
4.37802688971e-06
1.92039514033e-06
2.01950001059e-06
2.0272130693e-06
2.17801512604e-06
9.1052882232e-07
8.61549272209e-07
5.88718424325e-07
3.61696998999e-07
1.42897716124e-07
7.780346804e-08
3.29816955209e-07
8.41611180792e-07
9.6528871069e-07
1.29295390672e-06
1.97988402295e-06
8.01702493655e-07
4.11289769894e-06
3.54589459287e-06
7.38974885871e-06
5.37225081484e-06
4.60755253404e-06
5.09859633594e-06
3.1180039921e-06
4.36044840276e-06
1.33364380525e-06
3.58498111687e-06
9.64184460956e-07
6.3178935366e-07
6.33693615163e-07
4.9793685378e-07
1.39699540076e-06
2.49304004398e-06
1.9607641593e-06
2.32490087228e-06
1.15132842929e-06
1.99161094759e-06
2.15080458739e-06
3.81512739443e-06
3.59940068173e-06
2.80820020753e-06
2.28239747465e-06
3.00195684827e-06
2.61398667921e-06
2.61251847922e-06
3.23058608367e-06
1.20682543669e-06
7.22703382001e-07
2.19332228675e-06
5.66069575982e-07
1.33261451443e-06
1.25566268577e-06
1.11102646007e-06
2.61911500717e-06
2.94598715519e-06
2.78789657994e-06
2.87297848899e-06
3.78722805081e-06
2.67500102318e-06
2.46187777564e-06
3.19857669314e-06
3.07542267559e-06
2.16207954354e-06
1.45778596747e-06
1.72285773874e-06
1.12268669446e-06
6.42626126263e-07
1.91676800161e-07
1.47252873352e-07
4.64597520789e-07
5.69237281635e-07
4.29798742573e-07
4.84525455497e-07
8.77504136558e-07
1.40539959188e-06
4.47214091303e-07
1.89911643039e-06
1.52711434109e-06
3.50160308667e-08
1.01079680281e-07
2.27564752482e-07
7.88863743914e-08
1.55736431516e-06
6.25532677489e-08
6.5436253135e-07
8.34374996896e-06
8.06621480619e-06
1.4343973721e-05
2.460794794e-06
1.66172619477e-05
1.33863986561e-05
2.29844865796e-05
1.25735073893e-05
1.95371982385e-05
1.85704198759e-05
9.00334169911e-06
3.03228304398e-05
3.99529025696e-05
1.0160282113e-05
1.58007927256e-05
1.37906719312e-05
2.08864211493e-05
2.12607747789e-05
1.62851840946e-06
9.0306557209e-06
7.19457901951e-06
2.31501586104e-06
2.01092626512e-07
2.98248434107e-06
4.10086861482e-06
9.65136916242e-08
4.21771326462e-08
1.18413191945e-06
4.18722814529e-07
1.35735818135e-06
2.11688763308e-05
3.08278913105e-05
1.36956028038e-05
1.47280257826e-05
1.05862255265e-06
3.40591672812e-06
5.91553556425e-06
7.12793391866e-06
1.14317224168e-05
4.20942972547e-06
8.25094109685e-06
5.08774735083e-06
6.9723080529e-06
4.93895115253e-06
7.68672522532e-06
3.89296592552e-06
6.64193295858e-06
9.52858770671e-06
2.22697434292e-05
3.20086273692e-05
1.09190742988e-05
1.03694245646e-05
2.88017645604e-05
4.85345021032e-06
6.2349667848e-06
5.14234558993e-06
5.53898573789e-06
1.60337321565e-05
6.3091565767e-06
8.9410265354e-07
6.77828254292e-06
8.39977075457e-07
5.42211288271e-07
4.42735922016e-07
1.53639748967e-06
1.0178087874e-06
7.61764239245e-07
7.10499331139e-07
4.74803521078e-07
6.09871059145e-07
2.69448517067e-07
1.66954857091e-06
8.78774712426e-07
4.21216796444e-08
3.62000326749e-07
1.34396363385e-07
6.36414584335e-07
8.74252396113e-07
8.40747618332e-07
5.52093618429e-07
5.33773973862e-07
3.70125753576e-07
2.04138950269e-08
7.21178274248e-07
1.90175705779e-06
3.20107254532e-07
9.32819580672e-08
3.51057801219e-06
3.38566446237e-06
2.01977862924e-06
1.50357862502e-07
1.66605870531e-06
2.05883978833e-06
5.27743275447e-07
1.1363287975e-06
2.8908390668e-06
4.71325049002e-06
2.49668826878e-06
1.38652889738e-06
3.47873505756e-06
3.38781924414e-06
1.36992774081e-05
8.62733237706e-06
3.18621678693e-07
1.88555931626e-06
1.63891772658e-05
8.02081378068e-06
2.67737713621e-06
3.97899422607e-06
5.72911528965e-06
4.45271690207e-06
4.56826557565e-06
4.88738717412e-06
8.39462233541e-07
1.09989594298e-06
1.16042995334e-06
5.12910630098e-07
1.45172627419e-07
1.19516516983e-07
3.46060862681e-07
7.20730479279e-08
8.20934587947e-07
6.12680712841e-07
5.82829274725e-07
3.57657303234e-07
4.48804078336e-07
5.57573488107e-07
4.36110711217e-07
8.4357200573e-07
6.27944370564e-07
7.39004347028e-07
3.56234806379e-07
1.65834276593e-07
2.36890995264e-07
7.24168941809e-07
1.33553763424e-06
1.79819072108e-06
9.22834748655e-07
5.94187906054e-07
7.27065019746e-07
6.4500187128e-08
6.33581040045e-07
1.05026885372e-06
2.17914037193e-06
1.16927994927e-06
2.14474518852e-06
2.8461030874e-06
1.81597454565e-06
7.74338175138e-07
4.25225432497e-06
2.53374302521e-06
1.7797230991e-06
2.57443267223e-06
2.41831328006e-06
1.84494589963e-06
1.96004736997e-06
2.27684062863e-06
1.73381263316e-06
1.28185230213e-06
1.49464088198e-06
1.45469458784e-06
9.30427397273e-07
7.40388206713e-07
8.73414759787e-07
7.31579663689e-07
3.04539072691e-07
4.02399257521e-07
4.97863090376e-07
6.40708582789e-07
4.99810126468e-06
1.90659009918e-06
2.50211659427e-07
4.1827041041e-07
4.33303395351e-06
1.73532539839e-06
2.95128207463e-08
2.01870224121e-07
5.9018514636e-07
1.30410775576e-06
3.06804437484e-07
2.14040553971e-07
1.60865688902e-07
7.58473202528e-07
1.10776471764e-07
8.59149163572e-07
1.02704425932e-06
6.7408969842e-07
7.55984164091e-07
3.54754238141e-08
1.39356596257e-06
6.65895046863e-07
3.5667183251e-07
6.8409420763e-07
2.14502466707e-07
1.52097428931e-06
8.25256953426e-07
1.00457914377e-06
1.557368412e-06
3.68554933373e-07
7.03000738754e-07
2.37848914414e-06
1.64055762709e-06
2.52006126674e-06
7.50388899934e-07
1.04193602225e-07
6.82646280771e-06
1.31831082394e-05
1.24569880223e-05
3.11701103274e-06
6.79876157221e-06
4.5538998337e-06
3.4588938834e-06
3.8321363717e-06
2.02585128705e-06
9.98327061341e-07
1.74807970187e-06
1.90373722786e-06
2.46574587854e-06
7.32213228862e-07
3.02348894786e-07
2.87425444536e-07
6.43848763331e-07
1.30810410492e-07
1.04827073417e-07
3.6671757609e-07
7.88806228537e-07
2.47188910858e-08
1.42219024055e-07
4.90708714012e-07
2.64754103115e-06
3.46711817527e-06
7.25174567093e-07
3.0969612297e-06
1.27214593099e-05
1.19774054728e-05
7.6317737956e-06
8.91671159293e-07
1.52810901816e-06
1.47270347832e-07
7.64234485429e-07
8.02608028542e-07
3.8129998617e-07
2.24110645104e-07
6.30291885892e-08
1.30251911882e-07
6.41379861658e-08
1.11484556932e-07
3.43659092775e-07
3.07732729984e-07
7.29019815991e-07
7.34214592187e-07
4.05933425674e-06
2.24204560033e-06
2.17300798482e-06
8.61825478083e-06
5.00628700287e-06
5.61060681487e-06
5.51760185745e-06
2.88171815156e-06
2.43547961686e-06
5.72088165869e-06
3.72825513545e-06
7.79992968048e-06
3.52779964055e-07
8.31433817434e-07
3.73237675127e-07
1.27329906617e-06
8.77958410809e-07
2.63754038878e-06
1.41501677788e-06
3.06116147063e-06
1.53545527982e-06
9.33569349765e-07
1.0079873771e-06
1.31185941291e-06
1.32841990714e-06
1.23048541023e-06
8.29097737344e-07
5.84319828515e-07
8.12022179467e-07
4.07257301458e-07
7.84796639667e-07
2.98989286964e-08
3.03751905861e-08
1.13093556932e-06
1.01581345733e-06
7.26636848428e-07
1.40924428454e-06
1.64089929272e-06
1.5171403426e-06
8.21818715069e-07
4.93500577127e-07
3.53884287375e-07
2.48215174523e-07
3.17180957102e-07
1.62616955486e-06
1.53146770068e-06
9.99880277304e-06
2.13278979731e-06
1.96547760801e-07
2.11415536412e-08
2.47495617409e-05
5.45458991488e-06
1.30393344611e-06
4.76588043099e-06
6.99056184666e-06
3.16998107285e-06
9.59759510094e-07
4.95738898958e-08
5.07698068346e-07
4.04304399025e-07
1.99785832792e-06
4.48158950023e-06
1.38284764462e-06
2.96945366405e-08
4.64115057794e-06
3.1553084636e-06
1.1670614077e-06
2.464365911e-07
2.35525193713e-06
2.15383383702e-06
9.20156816127e-06
1.37271816098e-05
1.31345886729e-05
1.40043339934e-05
6.3710046142e-06
1.05541980498e-05
2.1506410329e-05
1.20592449934e-05
1.30164958917e-05
2.81757440852e-06
9.74651070248e-07
1.89674291896e-07
1.31032789743e-07
2.0545503054e-07
1.70392445647e-07
6.5574040926e-08
6.40212660748e-08
8.87935155815e-06
6.09976628352e-06
8.03577782835e-06
1.63480933908e-06
8.5450353869e-07
7.85689832148e-07
1.22354130915e-06
4.52750357991e-07
1.36494984827e-07
5.10766636827e-07
1.58163452653e-06
1.53374555448e-06
2.04381222658e-07
1.87716584328e-07
1.75159714168e-06
1.48986594295e-06
1.59985722341e-06
6.77443449515e-07
8.55486810713e-07
1.83119842252e-06
3.0528521733e-06
2.66235177646e-06
2.74958920865e-06
1.77047560232e-06
1.7127450934e-06
5.98948717792e-07
6.36353249663e-07
5.22723490605e-07
6.10669662605e-07
5.07763880925e-07
7.87540972705e-07
7.45091991313e-07
7.72409595774e-07
9.23075179634e-07
1.59550735205e-06
6.29588360702e-07
5.76472156239e-07
5.13584323737e-07
5.21247379912e-07
7.65722040814e-07
8.19345438367e-07
3.45915067804e-06
1.98335549197e-06
5.7591427652e-06
4.13175031807e-06
3.77973462825e-06
2.65561056289e-06
2.71388662349e-06
2.09775790775e-05
2.2086156745e-05
2.51562941103e-05
1.96511354963e-06
1.01032822254e-06
2.9821183212e-06
1.52373066212e-06
1.79712288211e-06
4.00032690816e-08
6.64129477916e-08
3.47585375992e-06
3.87401542791e-06
4.90904156421e-07
9.18182150399e-06
3.25925555716e-06
3.7681417535e-06
2.70489522181e-06
2.01277567916e-06
3.03697340043e-06
1.00828911329e-06
8.397603837e-07
1.15632297649e-06
1.04587264522e-06
4.18286803047e-06
6.78985621624e-08
3.85126667662e-07
2.51100168907e-07
2.62333676527e-07
2.65642276198e-07
2.12554375551e-07
4.47756542573e-07
3.16832355329e-07
3.63233761016e-07
3.92515127922e-07
3.72427102846e-07
5.3202411757e-08
6.92681979056e-08
6.70507317783e-07
5.06914543143e-07
9.42032882805e-07
1.67863845577e-07
6.31197268457e-08
5.74449994032e-08
1.7486518507e-08
2.19609214479e-07
6.22981476469e-07
2.09017151444e-07
3.03936694641e-08
1.08882769527e-06
1.28754297398e-06
2.1518100016e-06
1.06343253447e-06
1.02903211894e-06
8.01193633101e-07
5.89095520118e-07
8.19928482822e-07
1.88405762733e-06
1.38744760326e-06
1.20531204018e-06
3.7199797781e-07
7.76215576401e-07
3.11113916129e-06
2.71460960469e-06
5.43117620145e-07
1.14887794347e-06
5.48477439382e-06
1.01867829629e-06
8.71160654171e-07
7.81114906244e-07
9.13084424074e-07
8.06062762034e-07
8.02049789344e-07
8.66752522824e-07
8.31242376409e-07
8.80736300442e-07
7.76641642554e-07
1.12016121128e-06
1.00751507389e-06
8.51630055764e-07
8.10940438959e-07
5.49093119829e-07
1.94054023996e-06
1.0010351957e-08
5.99604581885e-07
6.86763961732e-07
7.37927922159e-07
9.62938608011e-07
7.70282999196e-07
5.16426802425e-07
5.11181868691e-07
1.14819180116e-06
1.20511163595e-06
2.09413979135e-06
1.63323922343e-06
2.05092405341e-06
2.19603138883e-06
1.67531652786e-06
1.34432529533e-06
9.98264300423e-07
4.23597872815e-06
1.27815690558e-06
1.0824212046e-06
5.09111189874e-06
1.38998177533e-06
2.19220456164e-06
7.91231780054e-07
3.89493202357e-07
2.53537732258e-06
8.02299571947e-08
2.0940820182e-07
1.2612649667e-07
2.24564909104e-07
1.95885929819e-07
8.32101002226e-08
1.12939163564e-07
8.66210484522e-08
1.02778654116e-07
6.11035445323e-08
6.03673294048e-08
6.96204078455e-08
8.96167780105e-06
9.33463416454e-06
2.83144379374e-05
5.72693237936e-06
7.48890978644e-08
1.70023659837e-05
2.46153975583e-05
3.53349555001e-05
7.69880932905e-06
7.02889265838e-06
1.45115083507e-06
1.65618636795e-05
9.23232479127e-06
9.23841291076e-06
1.36497564368e-05
3.38641363104e-07
2.68853843682e-07
1.94289951859e-07
1.1232354414e-06
8.76920121903e-07
6.07981430883e-07
1.33285760053e-07
5.15859117961e-09
2.43182192977e-07
3.38823016113e-07
1.64926394193e-07
5.62439670601e-08
2.23219910781e-08
6.08084961911e-06
1.26336069809e-05
3.23427648762e-07
2.39445089426e-06
1.8372467696e-06
2.83669870734e-06
3.55017575618e-07
5.88085350813e-07
1.72104080068e-06
1.25828199926e-06
2.97109059511e-06
1.13730631275e-06
6.82110597039e-06
1.46064063609e-06
4.32941001934e-06
7.61458806672e-07
2.22489953332e-06
3.36025036778e-06
4.86920554048e-06
4.48805786921e-06
6.19039397849e-06
1.48266789479e-05
4.88400071412e-06
1.14423527521e-05
9.10400661227e-06
1.12926405779e-05
1.09743801872e-05
6.67554299406e-06
1.23455832908e-05
7.91833116552e-06
2.85870441786e-06
5.80271521551e-06
2.21370971333e-06
2.49000683504e-07
5.89650612521e-08
6.25178755927e-08
3.61468539716e-08
2.5628781557e-07
1.5162950475e-06
5.48470561975e-07
7.87206202812e-07
1.29334483314e-06
3.40602726679e-06
5.95225996447e-06
7.81354547002e-06
9.49784955988e-06
4.56089062628e-06
3.373751682e-06
9.81390727469e-07
1.26065040527e-06
2.5557098763e-06
1.88706621415e-06
6.17383912736e-06
6.11152828326e-06
9.16816832759e-06
6.64905723596e-06
6.08897657742e-06
7.06973017694e-06
1.71576306747e-05
2.30947478282e-05
1.57064362181e-05
4.16150870261e-06
9.36048162621e-07
2.31364331829e-07
1.14592549038e-07
1.78193008671e-06
3.94318207209e-06
1.84890750281e-06
2.20806461232e-06
1.04374911734e-06
1.17958315889e-07
2.40853695145e-07
1.93647533267e-07
2.44858782712e-07
6.03510115687e-07
8.6324211546e-07
7.53742687809e-08
1.11538888701e-07
5.98327293445e-07
5.41263372039e-07
6.27540593667e-07
5.56289657386e-07
6.84459257966e-07
5.07410790507e-07
6.2422082824e-07
2.87873258853e-07
7.68137963588e-07
9.27117705988e-08
4.26356161187e-09
5.28419454498e-07
5.96329414592e-07
9.35435181825e-07
8.89815024882e-07
1.07067936431e-06
7.88077864945e-07
6.55761417783e-07
4.62843217399e-07
1.85558791453e-06
1.04630674986e-06
1.1079722408e-06
8.42432245267e-07
1.27124748016e-06
9.87508297979e-07
8.86985499805e-07
2.53531130268e-07
2.59640741184e-07
5.14853513762e-07
3.83183471375e-07
4.35223558153e-07
1.51636390947e-07
1.22252904284e-07
3.88023897173e-07
1.00485152065e-06
5.58372479234e-07
4.1055911969e-07
5.98075969956e-07
4.26131129876e-07
4.94734272754e-07
4.95809884276e-07
4.13125077934e-07
4.31683648843e-07
1.76431846457e-07
1.90639739726e-07
1.42742348462e-07
3.24571089237e-07
3.34193213503e-07
4.11351647182e-07
3.7549697093e-07
6.04657480158e-07
1.77017850426e-06
9.76260815118e-07
1.25391519382e-06
8.43958593168e-07
8.47295959904e-07
5.93101291124e-07
4.82614361647e-07
6.84756239065e-07
8.81597911111e-06
5.47173772015e-06
7.14714347018e-06
3.92230184359e-08
1.05281897523e-07
5.38507733644e-07
3.09434206304e-07
1.90065906129e-06
2.36746644797e-06
2.904142792e-06
3.34956143532e-06
3.57629066878e-06
5.66149342029e-06
3.69504461112e-06
3.51588267065e-06
6.74401778193e-07
4.29449228917e-07
1.64337110063e-07
1.21401667353e-06
1.07572993745e-06
1.48466591546e-06
1.70252736788e-06
9.04677983427e-07
9.01297222728e-07
2.45689734001e-06
3.94248504062e-06
4.79370689075e-06
1.84013795556e-06
4.58540949277e-06
7.2973269375e-06
1.74212474962e-06
3.23641755738e-06
2.09198270324e-06
3.27255380169e-07
5.42216177242e-07
1.97046456723e-06
2.79381013717e-08
8.22113008172e-07
5.54371361038e-07
3.85297212534e-07
7.56585356809e-07
3.18253537717e-07
2.08612176361e-07
2.85787384435e-07
4.43905847481e-08
7.17931594813e-08
5.52019921658e-07
1.77994435256e-07
5.63444253999e-08
2.12352672419e-07
3.61355331238e-07
2.80773387258e-07
4.19295167963e-07
5.13205848217e-07
1.84133778449e-08
1.69555195474e-07
7.68330373199e-07
8.3392002558e-07
5.89256518061e-07
3.17055799625e-07
2.4813491587e-07
5.668103192e-07
6.66854144994e-07
2.72735777461e-07
2.77445425501e-07
1.38188952502e-06
1.70450393269e-06
2.69462403038e-06
1.25697882973e-06
2.31232715066e-06
1.38859641273e-06
3.41495775401e-06
1.94520534524e-06
4.04082536141e-06
2.25600732844e-06
4.35235072948e-06
3.13729966346e-06
6.21076952112e-06
4.86797192828e-06
6.64485762824e-06
5.30226837742e-06
1.26003437209e-05
1.10683003152e-05
1.60517223335e-05
9.35762274355e-06
1.72807877009e-05
1.3507733391e-05
4.43182041939e-06
5.06475270108e-06