# vtk DataFile Version 3.0
File Name: Molecule/arg/arg_12.5-5.vtk
ASCII
DATASET UNSTRUCTURED_GRID
FIELD FieldData 1
TIME 1 1 double
0.0
POINTS 2895 double
-3.403 0.327 1.604
-3.452 0.202 1.348
-3.215 0.119 1.662
-3.262 -0.0 1.417
-3.073 -0.113 1.748
-3.12 -0.233 1.503
-2.981 -0.361 1.858
-3.03 -0.485 1.602
-3.45 0.103 1.078
-3.261 -0.095 1.158
-3.118 -0.328 1.244
-3.028 -0.584 1.332
-3.398 0.034 0.803
-3.211 -0.162 0.894
-3.068 -0.394 0.98
-2.976 -0.654 1.057
-3.298 -0.003 0.536
-3.114 -0.197 0.638
-2.972 -0.43 0.724
-2.876 -0.691 0.79
-3.153 -0.007 0.286
-2.976 -0.201 0.399
-2.833 -0.433 0.485
-2.731 -0.694 0.541
-2.971 0.024 0.066
-2.801 -0.171 0.187
-2.658 -0.404 0.273
-2.549 -0.664 0.32
-2.984 0.046 0.042
-2.699 -0.017 -0.133
-2.712 0.004 -0.155
-2.471 -0.12 -0.363
-2.484 -0.099 -0.385
-2.302 -0.279 -0.611
-2.316 -0.256 -0.635
-2.2 -0.483 -0.862
-2.216 -0.458 -0.889
-3.158 0.288 -0.115
-2.796 0.071 -0.172
-2.948 0.283 -0.31
-2.637 0.05 -0.409
-2.775 0.243 -0.534
-2.512 -0.016 -0.658
-2.645 0.17 -0.779
-2.429 -0.124 -0.909
-2.565 0.066 -1.033
-2.39 -0.269 -1.153
-2.537 -0.063 -1.287
-3.25 0.578 -0.258
-3.029 0.537 -0.435
-2.849 0.475 -0.648
-2.717 0.393 -0.888
-2.638 0.295 -1.145
-2.617 0.185 -1.409
-3.255 0.893 -0.375
-3.034 0.813 -0.538
-2.853 0.726 -0.742
-2.721 0.635 -0.979
-2.642 0.542 -1.238
-2.621 0.454 -1.509
-3.173 1.207 -0.458
-2.961 1.09 -0.611
-2.787 0.978 -0.808
-2.657 0.877 -1.042
-2.577 0.79 -1.303
-2.55 0.723 -1.58
-3.008 1.498 -0.5
-2.817 1.344 -0.647
-2.656 1.21 -0.842
-2.531 1.1 -1.074
-2.448 1.019 -1.336
-2.41 0.97 -1.615
-2.776 1.74 -0.497
-2.613 1.557 -0.645
-2.47 1.404 -0.839
-2.352 1.286 -1.072
-2.264 1.21 -1.334
-2.211 1.177 -1.613
-2.622 1.932 -0.429
-2.515 1.601 -0.663
-2.37 1.782 -0.599
-2.287 1.501 -0.894
-2.142 1.682 -0.83
-2.106 1.446 -1.176
-1.952 1.639 -1.108
-1.982 1.439 -1.492
-1.81 1.654 -1.416
-2.663 2.202 -0.218
-2.323 2.018 -0.459
-2.36 2.267 -0.264
-2.046 2.135 -0.548
-2.083 2.377 -0.358
-1.806 2.278 -0.69
-1.844 2.526 -0.495
-1.615 2.438 -0.879
-1.656 2.708 -0.668
-2.655 2.421 0.048
-2.352 2.47 -0.019
-2.075 2.574 -0.12
-1.836 2.729 -0.25
-1.647 2.927 -0.402
-2.597 2.577 0.351
-2.3 2.613 0.261
-2.024 2.713 0.152
-1.783 2.872 0.03
-1.59 3.083 -0.1
-2.495 2.657 0.67
-2.205 2.687 0.555
-1.932 2.785 0.438
-1.689 2.947 0.324
-1.488 3.163 0.22
-2.797 2.625 0.927
-2.31 2.73 0.924
-2.585 2.701 1.158
-2.137 2.872 1.156
-2.401 2.844 1.381
-1.986 3.077 1.354
-2.255 3.048 1.583
-1.863 3.333 1.507
-2.155 3.302 1.755
-3.035 2.497 1.22
-2.8 2.584 1.424
-2.608 2.732 1.635
-2.466 2.934 1.844
-2.385 3.178 2.038
-3.186 2.284 1.521
-2.937 2.39 1.697
-2.739 2.546 1.897
-2.601 2.744 2.112
-2.53 2.972 2.328
-3.324 2.06 1.667
-2.975 2.319 1.779
-3.111 2.099 1.924
-2.815 2.412 2.059
-2.958 2.183 2.21
-2.717 2.558 2.345
-2.872 2.307 2.509
-3.419 1.801 1.788
-3.205 1.843 2.043
-3.055 1.917 2.334
-2.979 2.017 2.644
-3.531 1.499 1.816
-3.247 1.745 2.062
-3.348 1.473 2.087
-3.133 1.725 2.369
-3.23 1.464 2.393
-3.086 1.741 2.693
-3.185 1.474 2.718
-3.107 1.793 3.017
-3.215 1.501 3.044
-3.567 1.179 1.827
-3.381 1.183 2.097
-3.262 1.186 2.403
-3.217 1.189 2.728
-3.25 1.192 3.055
-3.525 0.859 1.821
-3.342 0.893 2.092
-3.225 0.909 2.398
-3.18 0.905 2.723
-3.209 0.883 3.049
-3.408 0.559 1.798
-3.236 0.622 2.071
-3.123 0.649 2.378
-3.075 0.639 2.703
-3.095 0.593 3.027
-3.105 0.348 2.085
-3.1 0.088 1.867
-2.97 0.105 2.152
-3.031 0.459 2.387
-2.908 0.238 2.449
-3.027 0.542 2.707
-2.911 0.332 2.766
-2.978 0.383 3.085
-2.865 -0.346 2.113
-2.719 -0.541 2.278
-2.797 -0.13 2.332
-2.664 -0.308 2.482
-2.794 0.071 2.575
-2.666 -0.1 2.72
-2.855 0.244 2.83
-2.724 0.07 2.978
-2.837 0.195 3.245
-2.52 -0.7 2.425
-2.482 -0.453 2.616
-2.491 -0.24 2.849
-2.546 -0.073 3.11
-2.645 0.041 3.387
-2.502 -0.946 2.296
-2.309 -0.792 2.616
-2.292 -1.028 2.493
-2.148 -0.9 2.844
-2.44 -1.171 2.145
-2.233 -1.243 2.347
-2.131 -1.136 2.72
-2.072 -1.352 2.575
-2.335 -1.366 1.976
-2.132 -1.43 2.186
-1.971 -1.539 2.413
-1.964 -1.493 2.815
-1.858 -1.689 2.646
-1.915 -1.659 3.059
-1.8 -1.873 2.874
-2.192 -1.524 1.797
-1.995 -1.581 2.015
-1.833 -1.691 2.241
-1.714 -1.848 2.466
-1.642 -2.046 2.678
-2.015 -1.638 1.615
-1.826 -1.69 1.841
-1.664 -1.801 2.066
-1.536 -1.964 2.282
-1.449 -2.172 2.478
-1.813 -1.704 1.437
-1.632 -1.754 1.669
-1.469 -1.865 1.895
-1.332 -2.031 2.102
-1.226 -2.245 2.282
-1.592 -1.721 1.268
-1.42 -1.77 1.508
-1.257 -1.88 1.733
-1.109 -2.047 1.932
-0.984 -2.263 2.097
-1.82 -1.681 1.103
-1.41 -1.742 0.999
-1.625 -1.705 0.842
-1.237 -1.838 0.739
-1.452 -1.801 0.583
-1.085 -2.004 0.503
-1.311 -1.964 0.338
-0.96 -2.23 0.303
-1.211 -2.186 0.121
-2.026 -1.588 0.931
-1.819 -1.616 0.68
-1.646 -1.713 0.421
-1.517 -1.871 0.167
-1.437 -2.084 -0.068
-2.203 -1.444 0.759
-1.986 -1.481 0.518
-1.813 -1.578 0.259
-1.692 -1.729 -0.004
-1.631 -1.926 -0.256
-2.342 -1.257 0.596
-2.117 -1.305 0.364
-1.944 -1.402 0.106
-1.83 -1.543 -0.166
-1.784 -1.721 -0.435
-2.438 -1.034 0.448
-2.208 -1.094 0.224
-2.034 -1.191 -0.034
-1.926 -1.321 -0.313
-1.889 -1.476 -0.598
-2.487 -0.785 0.321
-2.254 -0.858 0.104
-2.08 -0.956 -0.154
-1.974 -1.073 -0.44
-1.943 -1.202 -0.738
-2.311 -0.692 0.068
-2.37 -0.577 0.067
-2.189 -0.632 -0.224
-2.248 -0.516 -0.225
-2.128 -0.607 -0.539
-2.191 -0.484 -0.54
-2.131 -0.618 -0.861
-2.114 -0.682 -1.181
-2.003 -0.9 -0.803
-1.987 -0.962 -1.114
-1.927 -1.264 -1.052
-2.312 -0.441 -1.376
-2.242 -0.501 -1.651
-2.116 -0.68 -1.269
-2.044 -0.743 -1.552
-1.985 -0.96 -1.159
-1.906 -1.028 -1.469
-1.837 -1.343 -1.406
-2.121 -0.506 -1.916
-1.92 -0.747 -1.824
-1.77 -1.033 -1.766
-1.682 -1.348 -1.746
-2.018 -0.367 -2.203
-1.864 -0.768 -1.888
-1.729 -0.586 -2.265
-1.939 -0.122 -2.418
-1.625 -0.265 -2.547
-1.897 0.192 -2.527
-1.57 0.147 -2.691
-1.971 0.497 -2.491
-1.62 0.271 -2.677
-1.697 0.588 -2.639
-1.383 0.337 -2.889
-1.468 0.686 -2.847
-1.198 0.386 -3.152
-1.296 0.786 -3.104
-2.011 0.787 -2.372
-1.738 0.89 -2.515
-1.513 1.019 -2.711
-1.347 1.167 -2.948
-2.011 1.039 -2.18
-1.739 1.151 -2.316
-1.514 1.306 -2.491
-1.348 1.496 -2.696
-2.106 1.164 -1.908
-1.72 1.257 -2.235
-1.844 1.421 -1.879
-1.631 1.561 -2.005
-1.505 1.361 -2.45
-1.417 1.659 -2.224
-1.259 1.801 -2.466
-1.479 1.817 -1.75
-1.268 1.91 -1.974
-1.107 2.057 -2.211
-1.379 2.028 -1.517
-1.683 1.878 -1.211
-1.325 2.288 -1.323
-1.617 2.145 -1.029
-1.319 2.584 -1.178
-1.091 2.821 -1.245
-1.192 2.409 -1.391
-0.972 2.637 -1.456
-1.111 2.259 -1.642
-0.89 2.489 -1.707
-1.083 2.139 -1.92
-0.849 2.382 -1.989
-0.852 2.322 -2.287
-0.816 3.013 -1.267
-0.707 2.822 -1.477
-0.623 2.675 -1.729
-0.568 2.578 -2.012
-0.543 2.537 -2.312
-0.463 3.323 -1.084
-0.576 2.949 -1.44
-0.315 3.179 -1.304
-0.367 2.923 -1.657
-0.177 3.089 -1.559
-0.198 2.935 -1.908
-0.057 3.059 -1.834
-0.077 2.986 -2.18
0.041 3.09 -2.119
-0.01 3.073 -2.462
0.111 3.18 -2.399
0.018 3.374 -0.943
0.042 3.216 -1.2
0.081 3.117 -1.483
0.136 3.08 -1.778
0.202 3.107 -2.072
0.276 3.197 -2.351
0.151 3.324 -2.662
0.466 3.148 -0.891
0.373 3.049 -1.162
0.322 2.995 -1.455
0.315 2.989 -1.757
0.352 3.031 -2.055
0.725 3.006 -0.709
0.525 2.952 -1.115
0.774 2.816 -0.939
0.619 2.806 -1.364
0.87 2.668 -1.187
0.743 2.717 -1.627
1.008 2.572 -1.44
0.892 2.689 -1.891
1.182 2.53 -1.686
0.926 2.805 -0.509
0.968 2.622 -0.748
1.065 2.473 -0.994
1.214 2.366 -1.236
1.407 2.305 -1.463
1.057 2.557 -0.305
1.094 2.383 -0.551
1.192 2.232 -0.796
1.348 2.112 -1.027
1.553 2.026 -1.234
1.025 2.711 0.026
1.165 2.316 -0.174
1.134 2.463 0.143
1.328 2.1 -0.057
1.298 2.247 0.259
1.539 1.918 0.039
1.507 2.071 0.37
0.916 2.809 0.362
1.03 2.557 0.464
1.193 2.341 0.58
1.398 2.17 0.706
0.737 2.845 0.68
0.859 2.592 0.768
1.023 2.375 0.884
1.22 2.206 1.024
0.406 3.093 0.833
0.701 2.668 0.949
0.4 2.893 1.088
0.724 2.531 1.242
0.435 2.747 1.375
0.803 2.443 1.543
0.507 2.664 1.68
0.935 2.407 1.837
0.613 2.648 1.986
1.112 2.426 2.108
0.748 2.699 2.276
0.2 3.324 0.732
0.235 3.06 1.055
0.049 3.27 0.963
0.102 3.062 1.303
-0.074 3.26 1.216
0.01 3.098 1.567
-0.164 3.294 1.481
-0.036 3.167 1.836
-0.218 3.371 1.746
-0.034 3.266 2.099
-0.232 3.489 2.002
-0.057 3.491 0.624
-0.185 3.421 0.865
-0.295 3.402 1.124
-0.383 3.436 1.389
-0.446 3.519 1.65
-0.481 3.65 1.897
-0.35 3.583 0.516
-0.45 3.505 0.768
-0.545 3.481 1.032
-0.632 3.514 1.298
-0.705 3.601 1.555
-0.764 3.739 1.794
-0.659 3.595 0.416
-0.731 3.515 0.677
-0.81 3.491 0.946
-0.894 3.523 1.213
-0.979 3.611 1.466
-1.063 3.75 1.697
-0.965 3.525 0.33
-1.008 3.452 0.598
-1.072 3.431 0.872
-1.154 3.464 1.139
-1.25 3.549 1.39
-1.358 3.682 1.613
-1.247 3.378 0.263
-1.264 3.318 0.538
-1.313 3.305 0.815
-1.393 3.339 1.082
-1.5 3.418 1.331
-1.631 3.54 1.549
-1.482 3.124 0.498
-1.519 3.122 0.778
-1.598 3.157 1.046
-1.714 3.228 1.292
-0.032 3.368 2.384
0.177 3.023 2.187
0.179 3.124 2.469
0.443 2.83 2.247
0.444 2.936 2.542
0.75 2.815 2.6
-0.08 3.426 2.677
0.131 3.181 2.758
0.395 2.996 2.845
0.695 2.881 2.933
-0.175 3.437 2.964
0.038 3.192 3.042
0.296 3.007 3.142
0.587 2.894 3.259
-0.313 3.4 3.231
-0.099 3.156 3.306
0.154 2.97 3.419
0.431 2.852 3.563
-0.486 3.318 3.465
-0.27 3.074 3.537
-0.025 2.884 3.661
0.234 2.758 3.828
-0.687 3.194 3.654
-0.468 2.951 3.724
-0.233 2.756 3.857
0.006 2.617 4.044
-0.948 3.187 3.74
-0.58 2.815 3.881
-0.883 2.808 3.981
-1.222 3.175 3.77
-1.2 2.794 4.016
-1.495 3.158 3.743
-1.517 2.774 3.984
-1.756 3.136 3.659
-1.82 2.748 3.887
-1.995 3.111 3.523
-2.096 2.719 3.73
-2.199 3.083 3.341
-2.333 2.687 3.518
-2.361 3.054 3.12
-2.52 2.653 3.262
-2.473 3.025 2.87
-2.65 2.619 2.973
-2.53 2.997 2.603
-2.716 2.587 2.663
-0.707 2.613 4.1
-0.29 2.688 3.939
-0.414 2.492 4.151
-0.119 2.419 4.258
-0.832 2.373 4.277
-0.535 2.258 4.323
-0.242 2.183 4.431
-0.951 2.101 4.406
-0.651 1.995 4.448
-0.359 1.917 4.558
-1.061 1.806 4.483
-0.757 1.709 4.523
-0.466 1.628 4.634
-1.232 2.074 4.422
-1.452 1.611 4.604
-1.599 1.842 4.55
-1.434 2.302 4.313
-1.773 2.038 4.456
-1.657 2.48 4.162
-1.966 2.193 4.326
-1.892 2.602 3.976
-2.169 2.297 4.166
-2.128 2.66 3.763
-2.373 2.347 3.982
-2.355 2.652 3.532
-2.568 2.341 3.783
-2.562 2.58 3.294
-2.747 2.278 3.578
[...]
CELL_DATA 5786
SCALARS cell_data_0 double
LOOKUP_TABLE default
4.68850246262e-10
1.31596110428e-10
3.40454564132e-09
3.25653131657e-09
6.21666603846e-09
4.05929905846e-09
5.10508536526e-10
2.0661367259e-09
2.28153467611e-09
9.06654731322e-10
4.67101803956e-09
5.13598781739e-10
1.68702784683e-09
2.27713387045e-09
3.65375626457e-11
5.16466992693e-12
1.81638195939e-09
1.34894333795e-09
1.81274694838e-09
2.71008722271e-09
2.79483869279e-10
7.99692802882e-10
1.56670380742e-09
1.51974309152e-09
2.94693323661e-09
3.46086362793e-09
1.15691546361e-09
2.18672331686e-09
1.92869794891e-09
4.65938795101e-10
6.97210294985e-09
3.8051462304e-09
3.04887829334e-09
1.98043812526e-09
7.08743591508e-10
2.44052214604e-09
2.853513879e-09
1.45907816445e-09
3.9923010773e-09
2.0064270352e-09
6.8063339458e-09
6.58895542168e-09
2.66379282175e-09
2.0303776748e-09
7.01340373973e-09
8.52189659048e-09
1.23324711773e-08
1.11089932584e-08
8.51336111584e-09
1.08202959249e-08
1.03859325996e-08
1.0475916306e-08
2.0542737674e-08
4.25049923467e-09
5.8219081418e-10
1.12780304148e-09
4.00469125895e-09
1.8827103734e-09
2.84421520842e-09
7.18764764753e-10
1.01006285753e-09
1.35445011095e-09
1.13962161207e-08
2.69283349334e-09
6.37120125055e-10
3.88000864411e-10
7.40304508403e-11
2.70235585035e-09
1.02791947532e-09
7.94542123239e-10
5.76282883281e-10
3.69396814455e-09
5.7357705431e-09
3.34882469032e-10
4.85872940587e-11
8.68921194281e-10
1.08698757538e-09
6.7318977327e-10
7.22498184961e-10
1.89389298653e-09
2.58940913777e-09
4.87053888442e-09
8.681112558e-09
2.18239480567e-09
1.26017938856e-09
2.14648736859e-09
1.23988770901e-09
2.90023449285e-09
1.74611726837e-09
3.8645039615e-09
5.06389655648e-09
6.15514719533e-09
5.66342119374e-09
3.87347061213e-09
2.68168072611e-09
5.01262702648e-09
5.87200050918e-09
4.41372963061e-09
9.04583197495e-09
5.80035531956e-09
1.37067242733e-08
8.04663386495e-09
7.36108557294e-11
5.78967296199e-09
3.26441923068e-09
4.02321296788e-09
1.446204753e-09
1.29258398871e-10
5.0587774366e-10
9.7282888672e-10
7.42389080204e-09
1.07904336888e-08
5.81469584222e-09
7.89783233383e-09
1.05713717531e-08
1.17177415028e-08
7.9976963967e-09
1.3784383276e-08
1.28932530548e-08
1.23731559001e-08
2.0506497436e-09
4.17145630195e-10
5.00703441799e-09
2.96331422627e-09
4.34077664467e-09
2.14692012717e-09
4.59572487605e-09
5.35274483148e-09
4.31689051676e-10
4.83572858272e-10
1.91687199381e-09
1.62772477199e-09
2.09042005914e-09
8.53847494252e-10
3.70865327223e-09
1.75611762423e-09
2.43997192083e-09
4.6008039483e-09
1.68858835751e-09
3.61265627742e-09
2.97490403395e-09
3.19714839069e-09
2.54051480607e-10
1.86755891185e-09
5.97015233802e-09
6.7460890954e-09
5.68509477547e-09
5.97045091409e-09
4.94396804084e-09
4.5779438309e-09
4.50435746145e-09
2.79700491551e-09
2.56540822645e-09
6.56504554099e-10
1.06813427385e-09
9.34027488292e-10
1.11077771245e-09
4.98880947848e-11
2.48821254261e-09
1.39382133407e-09
8.51695100114e-10
3.63440636209e-09
2.23169573157e-09
5.07955508454e-09
3.41289793832e-09
5.28933739697e-09
1.2050912114e-10
1.06855415312e-09
2.42106004402e-10
1.57008728239e-09
2.57915964365e-09
1.33219999382e-09
3.91729624928e-09
3.43753149901e-09
2.05885920856e-09
3.1755759839e-09
6.9890712892e-10
3.01354855265e-09
1.00185954043e-09
1.00227005894e-09
4.50389110355e-10
1.14721851753e-09
3.31363759608e-09
7.81054489087e-10
2.76495870098e-09
6.1093488486e-10
3.68894396641e-09
1.54484060275e-09
5.02670008052e-10
2.5477772213e-09
1.9713106642e-10
1.61362579818e-09
3.76574357519e-10
2.25436245316e-09
2.79862646547e-09
1.72351249107e-09
2.71035605138e-09
2.88812927561e-09
9.057413506e-10
1.63356437641e-09
7.54109585916e-11
2.23305504151e-09
3.19754080992e-09
1.53482385038e-09
4.08768639557e-09
3.72657608033e-09
3.54169117049e-09
1.7423043948e-09
3.77802749866e-09
2.33448022564e-09
2.89196294711e-09
5.18218610724e-10
2.10031250155e-09
2.96198711411e-09
1.92139601256e-09
1.5856457668e-09
2.49790850764e-09
1.65366194895e-09
4.87615491744e-09
3.2557802315e-09
5.32596450664e-10
6.67027948898e-09
9.96652619931e-10
5.35061343389e-09
4.80385995644e-09
9.76855900331e-10
4.16388104971e-09
1.00640531307e-09
4.87196059859e-09
2.51708918489e-09
1.30271748428e-08
4.48798337361e-09
3.45072711767e-09
8.12137950839e-09
3.93599340275e-10
1.63329183435e-09
6.95268257878e-10
2.88464534281e-09
1.27514477542e-08
1.4641360289e-08
4.47104907527e-08
8.69718039498e-10
1.97529123045e-09
1.54685836296e-08
9.26493659388e-09
4.35097364926e-09
7.45353571905e-10
4.86582232487e-09
8.24355579745e-09
3.44444151052e-08
3.74557160727e-09
4.37617503492e-08
1.70747469159e-08
2.74940317565e-09
4.51631383541e-10
1.56935123104e-09
5.5793174892e-09
9.96712127224e-09
3.69698793858e-09
1.33016402804e-08
6.68269445125e-09
8.03551993078e-09
1.9254677092e-09
4.21062323687e-10
4.36072864098e-09
5.39838066022e-09
3.97757168582e-10
7.90952631535e-09
3.35462219079e-09
7.54027521815e-09
3.1100431708e-09
1.133477039e-09
2.04542615991e-09
1.18743438227e-09
1.60760139281e-09
4.76554961007e-09
3.58839676994e-09
1.09523679103e-08
7.18205770133e-09
5.61804339884e-09
6.51334886894e-09
3.14806811913e-09
1.59730780682e-08
3.05033914792e-09
5.17417948083e-09
3.14636177809e-09
8.59834651053e-09
6.80916754911e-09
1.13964086261e-08
1.03410049267e-08
8.62145616349e-09
1.35575857045e-08
4.74137362829e-09
1.90643483646e-09
2.54776382172e-09
6.99297016299e-10
1.06759806213e-09
4.77198323378e-10
1.40008128676e-09
8.87669544078e-09
2.70313026251e-09
3.16118281685e-09
2.65145544657e-09
3.69057978215e-10
1.4456197806e-10
1.19321927683e-09
1.43058417405e-09
7.69934110381e-09
2.13365457186e-09
3.54077355189e-09
3.58493882111e-09
4.69564740273e-10
9.19028733967e-10
1.00102635364e-09
5.2141269605e-09
8.438053082e-09
2.82474888906e-09
4.27891129776e-09
5.35453594327e-09
2.08099551914e-09
4.381876692e-10
1.29523944692e-09
6.19461170173e-09
6.60409826541e-09
2.66858449006e-09
6.84033107426e-09
6.86973522038e-09
6.05419235254e-09
6.73879398533e-09
1.02848319592e-08
1.87836535748e-09
5.45625703195e-09
1.6196938807e-09
6.90916531079e-09
2.99769007374e-09
1.03957510351e-09
7.89988212599e-09
1.27597100337e-09
1.81536483811e-09
8.36041275273e-09
2.5504753172e-09
6.20850563312e-09
7.03303285401e-09
1.30794043116e-08
5.33926487124e-09
1.08987962893e-08
7.77168187744e-09
2.86305504816e-09
6.00573760225e-09
9.4325406998e-09
3.92926397408e-09
1.4442600321e-08
4.68546798291e-09
4.6558279607e-09
2.48056821818e-08
2.32705315336e-10
1.34758273751e-08
3.54366359859e-09
3.86594162953e-09
3.57524575651e-09
4.1997095271e-09
8.46733007798e-09
1.23618365398e-08
8.94410148796e-09
3.32540602887e-08
6.33852125666e-09
1.06182749662e-08
2.06003986527e-08
5.89357060841e-11
3.0211837047e-08
7.89262832714e-09
1.67543088119e-08
2.03263922083e-08
4.00364753725e-09
3.77371493718e-09
1.34283105895e-08
3.25909121732e-09
2.16812251521e-08
3.90466834551e-08
1.42448350004e-08
2.76119882365e-08
6.04614041677e-09
6.49334737449e-09
5.34623068663e-09
9.291460764e-09
1.04642367691e-08
1.45510192623e-08
2.15525196053e-08
1.18688488951e-08
3.29716131513e-08
9.50429523687e-09
2.68519097587e-08
3.43222426868e-08
5.63742962074e-09
1.56485615628e-08
6.45072979958e-09
4.05857034084e-09
2.1116360473e-09
9.50925012856e-09
6.83771739229e-09
1.48565710175e-08
1.30360405055e-09
9.17133019742e-09
2.90639187059e-08
1.21952506235e-08
2.89652563218e-08
7.49781210217e-09
4.27024862286e-08
5.24125452645e-09
2.49519832764e-09
2.79952302489e-09
3.25195860148e-09
1.68687185453e-08
1.3049638778e-08
2.52325254367e-08
1.55356962768e-09
1.38125932379e-08
2.52376101861e-08
2.66619164062e-08
3.38818638265e-08
2.79345742466e-08
1.85895635611e-08
2.0470879482e-08
1.0091759763e-08
2.16841832769e-08
9.14689362894e-10
1.66432456273e-08
8.05412930024e-09
3.17945723023e-09
1.07779415171e-08
2.41513284693e-09
9.29107413666e-09
2.28718084004e-09
5.08276197941e-09
4.45173207891e-09
2.25439776674e-09
8.44739441596e-09
2.21300118804e-08
8.93902672e-09
1.98678862019e-08
1.40006885235e-08
1.20568537498e-08
1.4566818693e-08
4.14701953031e-10
1.13391267255e-08
8.04893939036e-09
2.8240329501e-09
6.75423202988e-09
2.84578559961e-08
1.66738540533e-08
3.48910119554e-08
2.93507366932e-08
5.62399379156e-08
4.96426318686e-08
1.80508005726e-10
1.95244668941e-09
7.70097505868e-09
1.1069289807e-09
1.23981099818e-08
5.70786964626e-09
3.82802703953e-08
7.83129209626e-10
8.8014752937e-09
1.16554153118e-08
7.98787683689e-09
1.2618894538e-08
1.22655065118e-08
1.74400051489e-08
5.32159823885e-09
2.72201659476e-09
7.12442511992e-09
1.55923049186e-08
1.29722425522e-08
1.38110463117e-08
7.06741180328e-09
6.58162367803e-09
1.65905199561e-09
9.70336345966e-11
4.69997056834e-09
1.22730317277e-09
5.40799073313e-09
1.0931136215e-09
1.90961601642e-09
3.32170992564e-09
2.04974424036e-09
4.86176848668e-09
1.32460777003e-09
2.80366060844e-09
5.9172773741e-09
5.78066340687e-10
4.94231216162e-09
2.08464298126e-09
1.06191654215e-09
3.46219688758e-09
1.05954251801e-09
1.76767276742e-08
2.25782502012e-08
2.9754192339e-08
8.95983356022e-10
3.13986610583e-09
3.23257545987e-10
3.88679050504e-09
2.54702766371e-09
3.97774850188e-09
1.95093272489e-09
2.74856716774e-09
4.16488430094e-09
1.88328129714e-09
2.80843809183e-09
1.44929103926e-09
2.07713871558e-09
1.29176959194e-09
2.15818528783e-09
1.08749668677e-09
1.9105973805e-09
1.97209842057e-10
2.85400458313e-09
4.73660045165e-10
2.73512251376e-09
2.16334616072e-09
4.10301653081e-10
1.56012309842e-10
1.85255198664e-10
3.6361233791e-10
5.7735057374e-10
1.51208925144e-10
1.68348047843e-09
1.17859767066e-09
1.83730599179e-09
1.39158180395e-09
6.78450863799e-10
1.23697082518e-09
1.27797535836e-09
4.78776888551e-10
3.9250833857e-10
8.10607904136e-10
8.13415504885e-10
4.13583736057e-10
6.34724996583e-10
1.89611158174e-09
8.20976125916e-11
4.75912705584e-10
1.52216718755e-10
2.06770567765e-10
2.5467816672e-10
7.03076874982e-10
2.01158946542e-09
2.12690327657e-10
2.58132872463e-09
2.53880359587e-09
1.54174454331e-10
3.58722817801e-10
3.79794562265e-10
8.34794565671e-10
1.01313751753e-09
1.60844927807e-09
1.41839003193e-09
8.32883501497e-10
3.98045136808e-09
1.16716494433e-09
1.79101474854e-09
1.63436816834e-09
1.80490846585e-09
4.02185687167e-10
2.12367732003e-09
2.04274617331e-09
2.96776281507e-10
5.09007194058e-11
2.31894274587e-09
2.77581868587e-09
2.62568090588e-09
8.57972449644e-09
9.27083104295e-09
1.00581328405e-08
7.10352936821e-10
2.24119405987e-09
2.25305067357e-10
8.2703982741e-09
1.15735642307e-08
1.53658544514e-09
1.34252162222e-09
2.55400462051e-09
1.16320377074e-09
1.02200852509e-08
1.58160044585e-08
6.6642265478e-09
8.24220496836e-10
1.61713012635e-09
1.02380449982e-09
1.06059002117e-08
1.7830840594e-08
2.4174743112e-08
7.04718949194e-10
1.76409588359e-09
4.50745841439e-10
8.7749313784e-09
8.71417644732e-09
1.61248183603e-08
1.80720755684e-10
2.99938571199e-09
1.51454352198e-09
3.40353807614e-09
1.80836512965e-09
8.32027126158e-09
1.5857118475e-09
3.11989990004e-10
2.49685307029e-11
2.43814442948e-09
1.72703108689e-09
1.49228245198e-09
7.36886629427e-10
1.60396218518e-09
1.31432886932e-09
5.06236270369e-10
2.2930936529e-09
1.13058529234e-09
2.51640736715e-09
1.08655467321e-09
2.47705172532e-09
1.62466045074e-09
2.37091529976e-09
2.55331657752e-09
2.60232258797e-09
2.8712725373e-09
5.88286496447e-10
3.22997277563e-09
7.23103623328e-10
4.98779388028e-09
1.66433643846e-09
1.17555847481e-09
2.80437318765e-09
2.60224890032e-09
1.53434285713e-09
6.69808031057e-10
1.36969566026e-09
1.87753751018e-09
1.51888160845e-09
6.98222428109e-10
2.13368557856e-09
1.97439710795e-09
1.47302718466e-09
8.67618616119e-10
5.20960557217e-10
3.2909519183e-10
2.95261464509e-10
1.49024416172e-11
1.04549642322e-09
1.20879330511e-09
1.08863988199e-09
1.27033755232e-09
9.3882887601e-10
2.18228040747e-09
1.8822819937e-09
2.36028969943e-09
1.42186773166e-09
1.3890743834e-09
2.3674001199e-09
1.07141450533e-09
2.89873985313e-09
1.66750419964e-09
2.40870075865e-09
1.39441923751e-09
1.12345793342e-09
2.24496367381e-09
1.54528253063e-09
2.30344221681e-09
3.31119450548e-10
2.55340247423e-09
3.22011847566e-09
1.80467488515e-10
5.50586316317e-10
4.57167155768e-09
1.35375769791e-09
5.24160735532e-09
9.7008031276e-10
1.67917057688e-09
2.82890916607e-09
1.07860032374e-09
2.11985544943e-09
2.85162552744e-09
5.31184854111e-10
1.59853610621e-09
1.52238163802e-09
3.14641779689e-10
2.02781206637e-09
7.09599468469e-11
2.34743871423e-09
1.22660862103e-09
3.56515041799e-10
7.20816099401e-10
1.6920605763e-09
2.69662569558e-09
1.16904534186e-09
4.39241609663e-09
2.99164383567e-10
2.0065031565e-09
4.30076099824e-09
1.92869149244e-09
3.96614213258e-09
4.15860646097e-09
1.37375979333e-09
4.01466388228e-09
3.62713192438e-09
1.19705541673e-09
8.70574441401e-10
4.14038540824e-09
5.5830380846e-09
1.81877426122e-09
1.05921087994e-08
9.11344582745e-09
3.13969955675e-09
4.41018998129e-09
3.34490000329e-09
4.36014733484e-09
3.95977780242e-09
7.01281278929e-09
4.78377731876e-09
1.14780768841e-09
2.17906591081e-08
2.30073886373e-08
4.42325472825e-09
5.82189008632e-09
6.08398814668e-09
7.49771171965e-09
1.14151945493e-08
1.8441500227e-08
3.80363397212e-09
2.78931246717e-08
3.39531730534e-08
8.97786413703e-09
7.28667532612e-09
1.54488659665e-08
7.52728952333e-09
3.14494333187e-08
2.76311873318e-08
1.36616923302e-09
2.39436684872e-09
3.97297908424e-09
1.45504904601e-09
1.34310244111e-10
4.04500134293e-10
2.95387828287e-09
1.72731577155e-09
1.54075996206e-09
1.11941687942e-10
1.42867730054e-09
1.92908547904e-09
2.85437107573e-09
4.75430656399e-10
6.68878817068e-10
1.75252405288e-09
3.14320384726e-09
1.56719987029e-09
6.60369085295e-10
2.14923290148e-09
4.37656746705e-09
9.61664077595e-10
1.75618657895e-09
2.76019873873e-09
2.42461067518e-09
4.14708383977e-09
4.85586504571e-09
2.7645316501e-09
6.33820143667e-10
6.68951674609e-10
5.42042579317e-09
6.19159353103e-09
4.43430740273e-09
8.89934447401e-09
4.0873146532e-09
6.3969377271e-09
4.25285491937e-09
1.49312519013e-08
1.6541878966e-08
2.2889997642e-08
1.05790938755e-08
1.13148082798e-08
1.23776544586e-10
2.1122309496e-08
3.41804310785e-08
2.25850961542e-08
2.62894346432e-08
1.88716912148e-08
2.22391398957e-08
3.2373671478e-08
2.53059291883e-08
6.02957145984e-08
9.83835380849e-09
5.20587548371e-08
4.66602244267e-08
2.97669323519e-09
4.26232763877e-08
4.02644148483e-08
5.25607449202e-09
1.85521626108e-09
3.41454750964e-08
4.82703388986e-08
2.83640488737e-08
1.15610019662e-08
4.39342641297e-09
1.21494775602e-08
3.15979657968e-08
3.25907537851e-08
2.66092815591e-08
6.57015159459e-09
6.0313433738e-09
4.20381389334e-09
1.50184977734e-08
2.03535074479e-10
1.64414831214e-08
4.94285321432e-09
3.1754710471e-09
6.72655040494e-10
5.26190458839e-09
8.08424393458e-10
6.45018015398e-09
3.03265413645e-09
1.89970890462e-09
9.13514819289e-10
9.96644153229e-10
4.22858366761e-09
2.47297191008e-09
6.86212143987e-09
7.11509640302e-09
4.63323127779e-10
5.70804413973e-09
3.45398270016e-09
9.14274600778e-09
7.7464267879e-09
1.55770486185e-08
1.58373375959e-08
1.3616226679e-08
3.01707463724e-08
7.50222477938e-10
2.61201668456e-08
3.87424072277e-09
2.41463762926e-09
6.43196055713e-09
3.07717384228e-10
1.60934309584e-09
1.98261762261e-09
1.4461361564e-09
4.16266447329e-09
1.63923977964e-09
4.20096429837e-09
1.36297967907e-09
9.60826383827e-09
8.22505393451e-09
1.51666488034e-08
2.84655699012e-09
3.15749682603e-09
4.49788136315e-09
2.18192709064e-09
2.55054773811e-09
2.48969464691e-10
9.6315490995e-11
1.09644365631e-09
5.51195780766e-10
1.11333235931e-09
2.29584727418e-09
6.08821940388e-09
6.13282978907e-09
1.41482359677e-08
2.54281995157e-09
2.27948884427e-09
4.09780762074e-09
1.21348992505e-09
1.34296197902e-09
7.12966068485e-10
1.49192375168e-09
7.89016106824e-10
1.40421685847e-09
1.13054018055e-09
1.95585953085e-09
3.90961725405e-09
7.49086117158e-09
9.85871906908e-09
3.31521467386e-09
3.61835387615e-10
2.97885247852e-09
1.43257838226e-09
8.85991928001e-10
4.27039266542e-10
2.85039238681e-10
2.26898136996e-09
2.24318641368e-09
3.15984131007e-10
2.36333109444e-09
2.47677940227e-09
6.05367640628e-09
1.0544761768e-08
4.97769021405e-10
4.42149852556e-09
5.91863961737e-10
1.7862193854e-09
3.79118061659e-10
1.11978510539e-09
1.9406200561e-09
3.15721248327e-09
2.52783484085e-09
2.36680733455e-09
4.43408203726e-09
1.53410098788e-09
8.18971607395e-09
8.94610407089e-09
2.79914784773e-09
3.1584821445e-09
2.00386832369e-11
8.5610990199e-09
1.09464256283e-09
8.70320813338e-09
3.39721554145e-10
9.71007225346e-09
5.08895030905e-09
1.06973288916e-08
1.25775417826e-08
7.79053119718e-09
1.32020619604e-08
3.08248961116e-09
6.81346388171e-09
5.53449173344e-08
2.09926557643e-08
5.18025628573e-08
2.80309194573e-08
1.05747910675e-08
2.50699557768e-08
8.97688214812e-09
7.05719589071e-09
3.02330974348e-10
1.64253741826e-09
5.14328774929e-10
1.23891945039e-10
1.21548616391e-09
2.26377162436e-09
8.8045037679e-09
2.29067738221e-09
2.44358700539e-09
4.52775065731e-08
1.05665903744e-08
4.97702677744e-08
2.03648916153e-09
1.02813435368e-08
9.9165473589e-09
7.85524375098e-11
9.48546692897e-10
2.3673291806e-09
1.48624449124e-09
6.88154482205e-09
3.45742578901e-09
7.02223680252e-09
3.94223545513e-09
8.93306271984e-10
1.91797408688e-08
1.4058670747e-08
2.16478899822e-08
1.62146369845e-08
5.7107707647e-09
7.04091786466e-09
9.16663716716e-10
7.23732315109e-09
4.99853230802e-09
1.56152500551e-08
1.95251275614e-09
1.09733123567e-08
3.42599320837e-09
6.87566537952e-09
5.6601893225e-10
2.85889551707e-09
9.40313582289e-09
3.14896531644e-09
2.05054357322e-09
3.22212246532e-09
8.31431418935e-09
7.42720663885e-09
1.49386191288e-08
8.33712455624e-09
1.70188303196e-09
5.39817147902e-09
1.47892806163e-09
6.20456608826e-09
2.53008947258e-10
1.01775802447e-08
6.86711261436e-09
6.36949606779e-09
4.57100185551e-10
4.98896002938e-09
2.09486329528e-09
6.53973983516e-09
1.61063990982e-09
1.04339008503e-08
4.12025438565e-09
5.4042641724e-09
5.13356817695e-10
4.82630292773e-09
2.74983948632e-09
6.53114832259e-09
3.9954531936e-09
1.07120574686e-08
3.06855568141e-09
3.36616364145e-09
1.02597136233e-09
3.85641644916e-09
3.99192415853e-09
6.08634572845e-09
5.4816804936e-09
9.74710292318e-09
1.32517670537e-09
4.50399529846e-09
2.20129591786e-10
3.50009548388e-09
6.05930633925e-09
6.3711517625e-09
6.28496685389e-09
9.6679105735e-09
2.51749538242e-10
3.33595976225e-09
3.64213856756e-10
2.98133239108e-09
5.88251880386e-09
4.97544306803e-09
9.15720381241e-09
7.91023833912e-09
1.47241596202e-09
3.63022376242e-09
7.29478735928e-10
4.57187677608e-09
6.5867802862e-09
4.07219690762e-09
1.07022424739e-08
6.10951048005e-09
3.4801774358e-09
2.80266517134e-09
1.39297270129e-09
3.47400346504e-09
7.32693829701e-09
2.80652760232e-09
1.2448932469e-08
4.68814353292e-09
4.00539469454e-09
1.99592084669e-09
4.25178139282e-10
3.92892097988e-09
8.49592267553e-09
2.20868804391e-09
1.45191169271e-08
2.42393768337e-09
6.25002441504e-09
6.31668245614e-10
5.52615304939e-10
4.35883546309e-09
1.000131834e-08
4.16010052133e-10
1.80179372934e-08
6.21573305773e-10
7.97002431969e-09
2.9271443661e-09
5.99080880999e-11
5.04948640745e-09
1.07546359701e-08
5.44813895955e-10
2.09381996676e-08
2.11991499787e-09
1.02351626188e-08
2.93551752082e-09
6.26149098675e-10
6.22937536219e-09
1.1652570084e-08
4.07485114881e-09
2.47437957627e-08
4.44940109381e-09
1.70946879605e-08
7.62026552067e-09
9.9201204681e-09
1.23115363204e-08
3.33671890676e-09
8.45398611781e-09
1.63868134728e-08
1.51629571162e-08
6.38651851943e-11
1.47111102903e-09
1.39871443287e-08
1.22335584035e-08
4.19351350449e-09
7.84404685763e-09
7.68389810628e-09
2.74132554463e-09
4.76662950387e-09
7.35779536147e-09
7.04004552906e-09
8.03093574831e-10
5.97536580901e-09
9.09295684167e-09
5.94490751861e-09
5.47716012569e-09
4.35581010624e-09
7.81597032084e-09
2.23551751667e-08
6.326240559e-09
1.3263095074e-08
1.49174763075e-08
1.63642869635e-08
4.55885508183e-09
2.21095826194e-08
2.0767164069e-08
1.52347665763e-08
1.04291991326e-09
4.59752488633e-09
1.21128009953e-08
2.03838904939e-09
9.33938821358e-09
9.32533045516e-09
1.13265902411e-08
5.48397520462e-09
7.32575650218e-09
1.31960131528e-08