# vtk DataFile Version 3.0
File Name: Molecule/arg/arg_12.5-2.vtk
ASCII
DATASET UNSTRUCTURED_GRID
FIELD FieldData 1
TIME 1 1 double
0.0
POINTS 2382 double
-3.403 0.327 1.604
-3.452 0.202 1.348
-3.215 0.119 1.662
-3.262 -0.0 1.417
-3.073 -0.113 1.748
-3.12 -0.233 1.503
-2.981 -0.361 1.858
-3.03 -0.485 1.602
-3.45 0.103 1.078
-3.261 -0.095 1.158
-3.118 -0.328 1.244
-3.028 -0.584 1.332
-3.398 0.034 0.803
-3.211 -0.162 0.894
-3.068 -0.394 0.98
-2.976 -0.654 1.057
-3.298 -0.003 0.536
-3.114 -0.197 0.638
-2.972 -0.43 0.724
-2.876 -0.691 0.79
-3.153 -0.007 0.286
-2.976 -0.201 0.399
-2.833 -0.433 0.485
-2.731 -0.694 0.541
-2.971 0.024 0.066
-2.801 -0.171 0.187
-2.658 -0.404 0.273
-2.549 -0.664 0.32
-2.984 0.046 0.042
-2.699 -0.017 -0.133
-2.712 0.004 -0.155
-2.471 -0.12 -0.363
-2.484 -0.099 -0.385
-2.302 -0.279 -0.611
-2.316 -0.256 -0.635
-2.2 -0.483 -0.862
-2.216 -0.458 -0.889
-3.158 0.288 -0.115
-2.796 0.071 -0.172
-2.948 0.283 -0.31
-2.637 0.05 -0.409
-2.775 0.243 -0.534
-2.512 -0.016 -0.658
-2.645 0.17 -0.779
-2.429 -0.124 -0.909
-2.565 0.066 -1.033
-2.39 -0.269 -1.153
-2.537 -0.063 -1.287
-3.25 0.578 -0.258
-3.029 0.537 -0.435
-2.849 0.475 -0.648
-2.717 0.393 -0.888
-2.638 0.295 -1.145
-2.617 0.185 -1.409
-3.255 0.893 -0.375
-3.034 0.813 -0.538
-2.853 0.726 -0.742
-2.721 0.635 -0.979
-2.642 0.542 -1.238
-2.621 0.454 -1.509
-3.173 1.207 -0.458
-2.961 1.09 -0.611
-2.787 0.978 -0.808
-2.657 0.877 -1.042
-2.577 0.79 -1.303
-2.55 0.723 -1.58
-3.008 1.498 -0.5
-2.817 1.344 -0.647
-2.656 1.21 -0.842
-2.531 1.1 -1.074
-2.448 1.019 -1.336
-2.41 0.97 -1.615
-2.776 1.74 -0.497
-2.613 1.557 -0.645
-2.47 1.404 -0.839
-2.352 1.286 -1.072
-2.264 1.21 -1.334
-2.211 1.177 -1.613
-2.622 1.932 -0.429
-2.515 1.601 -0.663
-2.37 1.782 -0.599
-2.287 1.501 -0.894
-2.142 1.682 -0.83
-2.106 1.446 -1.176
-1.952 1.639 -1.108
-1.982 1.439 -1.492
-1.81 1.654 -1.416
-2.663 2.202 -0.218
-2.323 2.018 -0.459
-2.36 2.267 -0.264
-2.046 2.135 -0.548
-2.083 2.377 -0.358
-1.806 2.278 -0.69
-1.844 2.526 -0.495
-1.615 2.438 -0.879
-1.656 2.708 -0.668
-2.655 2.421 0.048
-2.352 2.47 -0.019
-2.075 2.574 -0.12
-1.836 2.729 -0.25
-1.647 2.927 -0.402
-2.597 2.577 0.351
-2.3 2.613 0.261
-2.024 2.713 0.152
-1.783 2.872 0.03
-1.59 3.083 -0.1
-2.495 2.657 0.67
-2.205 2.687 0.555
-1.932 2.785 0.438
-1.689 2.947 0.324
-1.488 3.163 0.22
-2.797 2.625 0.927
-2.31 2.73 0.924
-2.585 2.701 1.158
-2.137 2.872 1.156
-2.401 2.844 1.381
-1.986 3.077 1.354
-2.255 3.048 1.583
-1.863 3.333 1.507
-2.155 3.302 1.755
-3.035 2.497 1.22
-2.8 2.584 1.424
-2.608 2.732 1.635
-2.466 2.934 1.844
-2.385 3.178 2.038
-3.186 2.284 1.521
-2.937 2.39 1.697
-2.739 2.546 1.897
-2.601 2.744 2.112
-2.53 2.972 2.328
-3.324 2.06 1.667
-2.975 2.319 1.779
-3.111 2.099 1.924
-2.815 2.412 2.059
-2.958 2.183 2.21
-2.717 2.558 2.345
-2.872 2.307 2.509
-3.419 1.801 1.788
-3.205 1.843 2.043
-3.055 1.917 2.334
-2.979 2.017 2.644
-3.531 1.499 1.816
-3.247 1.745 2.062
-3.348 1.473 2.087
-3.133 1.725 2.369
-3.23 1.464 2.393
-3.086 1.741 2.693
-3.185 1.474 2.718
-3.107 1.793 3.017
-3.215 1.501 3.044
-3.567 1.179 1.827
-3.381 1.183 2.097
-3.262 1.186 2.403
-3.217 1.189 2.728
-3.25 1.192 3.055
-3.525 0.859 1.821
-3.342 0.893 2.092
-3.225 0.909 2.398
-3.18 0.905 2.723
-3.209 0.883 3.049
-3.408 0.559 1.798
-3.236 0.622 2.071
-3.123 0.649 2.378
-3.075 0.639 2.703
-3.095 0.593 3.027
-3.105 0.348 2.085
-3.1 0.088 1.867
-2.97 0.105 2.152
-3.031 0.459 2.387
-2.908 0.238 2.449
-3.027 0.542 2.707
-2.911 0.332 2.766
-2.978 0.383 3.085
-2.865 -0.346 2.113
-2.719 -0.541 2.278
-2.797 -0.13 2.332
-2.664 -0.308 2.482
-2.794 0.071 2.575
-2.666 -0.1 2.72
-2.855 0.244 2.83
-2.724 0.07 2.978
-2.837 0.195 3.245
-2.52 -0.7 2.425
-2.482 -0.453 2.616
-2.491 -0.24 2.849
-2.546 -0.073 3.11
-2.645 0.041 3.387
-2.502 -0.946 2.296
-2.309 -0.792 2.616
-2.292 -1.028 2.493
-2.148 -0.9 2.844
-2.131 -1.136 2.72
-2.044 -1.018 3.098
-2.027 -1.266 2.968
-2.003 -1.142 3.367
-1.984 -1.412 3.226
-2.44 -1.171 2.145
-2.233 -1.243 2.347
-2.072 -1.352 2.575
-1.964 -1.493 2.815
-1.915 -1.659 3.059
-2.335 -1.366 1.976
-2.132 -1.43 2.186
-1.971 -1.539 2.413
-1.858 -1.689 2.646
-1.8 -1.873 2.874
-2.192 -1.524 1.797
-1.995 -1.581 2.015
-1.833 -1.691 2.241
-1.714 -1.848 2.466
-1.642 -2.046 2.678
-2.015 -1.638 1.615
-1.826 -1.69 1.841
-1.664 -1.801 2.066
-1.536 -1.964 2.282
-1.449 -2.172 2.478
-1.813 -1.704 1.437
-1.632 -1.754 1.669
-1.469 -1.865 1.895
-1.332 -2.031 2.102
-1.226 -2.245 2.282
-1.592 -1.721 1.268
-1.42 -1.77 1.508
-1.257 -1.88 1.733
-1.109 -2.047 1.932
-0.984 -2.263 2.097
-1.82 -1.681 1.103
-1.41 -1.742 0.999
-1.625 -1.705 0.842
-1.237 -1.838 0.739
-1.452 -1.801 0.583
-1.085 -2.004 0.503
-1.311 -1.964 0.338
-0.96 -2.23 0.303
-1.211 -2.186 0.121
-2.026 -1.588 0.931
-1.819 -1.616 0.68
-1.646 -1.713 0.421
-1.517 -1.871 0.167
-1.437 -2.084 -0.068
-2.203 -1.444 0.759
-1.986 -1.481 0.518
-1.813 -1.578 0.259
-1.692 -1.729 -0.004
-1.631 -1.926 -0.256
-2.342 -1.257 0.596
-2.117 -1.305 0.364
-1.944 -1.402 0.106
-1.83 -1.543 -0.166
-1.784 -1.721 -0.435
-2.438 -1.034 0.448
-2.208 -1.094 0.224
-2.034 -1.191 -0.034
-1.926 -1.321 -0.313
-1.889 -1.476 -0.598
-2.487 -0.785 0.321
-2.254 -0.858 0.104
-2.08 -0.956 -0.154
-1.974 -1.073 -0.44
-1.943 -1.202 -0.738
-2.311 -0.692 0.068
-2.37 -0.577 0.067
-2.189 -0.632 -0.224
-2.248 -0.516 -0.225
-2.128 -0.607 -0.539
-2.191 -0.484 -0.54
-2.131 -0.618 -0.861
-2.114 -0.682 -1.181
-2.003 -0.9 -0.803
-1.987 -0.962 -1.114
-1.927 -1.264 -1.052
-2.312 -0.441 -1.376
-2.242 -0.501 -1.651
-2.116 -0.68 -1.269
-2.044 -0.743 -1.552
-1.985 -0.96 -1.159
-1.906 -1.028 -1.469
-1.837 -1.343 -1.406
-2.121 -0.506 -1.916
-1.92 -0.747 -1.824
-1.77 -1.033 -1.766
-1.682 -1.348 -1.746
-2.018 -0.367 -2.203
-1.864 -0.768 -1.888
-1.729 -0.586 -2.265
-1.939 -0.122 -2.418
-1.625 -0.265 -2.547
-1.897 0.192 -2.527
-1.57 0.147 -2.691
-1.971 0.497 -2.491
-1.62 0.271 -2.677
-1.697 0.588 -2.639
-1.383 0.337 -2.889
-1.468 0.686 -2.847
-1.198 0.386 -3.152
-1.296 0.786 -3.104
-2.011 0.787 -2.372
-1.738 0.89 -2.515
-1.513 1.019 -2.711
-1.347 1.167 -2.948
-2.011 1.039 -2.18
-1.739 1.151 -2.316
-1.514 1.306 -2.491
-1.348 1.496 -2.696
-2.106 1.164 -1.908
-1.72 1.257 -2.235
-1.844 1.421 -1.879
-1.631 1.561 -2.005
-1.505 1.361 -2.45
-1.417 1.659 -2.224
-1.259 1.801 -2.466
-1.479 1.817 -1.75
-1.268 1.91 -1.974
-1.107 2.057 -2.211
-1.379 2.028 -1.517
-1.683 1.878 -1.211
-1.325 2.288 -1.323
-1.617 2.145 -1.029
-1.319 2.584 -1.178
-1.091 2.821 -1.245
-1.192 2.409 -1.391
-0.972 2.637 -1.456
-1.111 2.259 -1.642
-0.89 2.489 -1.707
-1.083 2.139 -1.92
-0.849 2.382 -1.989
-0.852 2.322 -2.287
-0.816 3.013 -1.267
-0.707 2.822 -1.477
-0.623 2.675 -1.729
-0.568 2.578 -2.012
-0.543 2.537 -2.312
-0.463 3.323 -1.084
-0.576 2.949 -1.44
-0.315 3.179 -1.304
-0.367 2.923 -1.657
-0.177 3.089 -1.559
-0.198 2.935 -1.908
-0.057 3.059 -1.834
-0.077 2.986 -2.18
0.041 3.09 -2.119
-0.01 3.073 -2.462
0.111 3.18 -2.399
-0.0 3.192 -2.74
0.151 3.324 -2.662
-0.048 3.337 -3.001
0.158 3.517 -2.895
0.018 3.374 -0.943
0.042 3.216 -1.2
0.081 3.117 -1.483
0.136 3.08 -1.778
0.202 3.107 -2.072
0.276 3.197 -2.351
0.356 3.346 -2.601
0.438 3.547 -2.812
0.466 3.148 -0.891
0.373 3.049 -1.162
0.322 2.995 -1.455
0.315 2.989 -1.757
0.352 3.031 -2.055
0.43 3.12 -2.333
0.548 3.25 -2.579
0.725 3.006 -0.709
0.525 2.952 -1.115
0.774 2.816 -0.939
0.619 2.806 -1.364
0.87 2.668 -1.187
0.743 2.717 -1.627
1.008 2.572 -1.44
0.892 2.689 -1.891
1.182 2.53 -1.686
0.926 2.805 -0.509
0.968 2.622 -0.748
1.065 2.473 -0.994
1.214 2.366 -1.236
1.407 2.305 -1.463
1.057 2.557 -0.305
1.094 2.383 -0.551
1.192 2.232 -0.796
1.348 2.112 -1.027
1.553 2.026 -1.234
1.025 2.711 0.026
1.165 2.316 -0.174
1.134 2.463 0.143
1.328 2.1 -0.057
1.298 2.247 0.259
1.539 1.918 0.039
1.507 2.071 0.37
0.916 2.809 0.362
1.03 2.557 0.464
1.193 2.341 0.58
1.398 2.17 0.706
0.737 2.845 0.68
0.859 2.592 0.768
1.023 2.375 0.884
1.22 2.206 1.024
0.406 3.093 0.833
0.701 2.668 0.949
0.4 2.893 1.088
0.724 2.531 1.242
0.435 2.747 1.375
0.803 2.443 1.543
0.507 2.664 1.68
0.935 2.407 1.837
0.613 2.648 1.986
1.112 2.426 2.108
0.748 2.699 2.276
0.2 3.324 0.732
0.235 3.06 1.055
0.049 3.27 0.963
0.102 3.062 1.303
-0.074 3.26 1.216
0.01 3.098 1.567
-0.164 3.294 1.481
-0.036 3.167 1.836
-0.218 3.371 1.746
-0.034 3.266 2.099
-0.232 3.489 2.002
-0.057 3.491 0.624
-0.185 3.421 0.865
-0.295 3.402 1.124
-0.383 3.436 1.389
-0.446 3.519 1.65
-0.481 3.65 1.897
-0.35 3.583 0.516
-0.45 3.505 0.768
-0.545 3.481 1.032
-0.632 3.514 1.298
-0.705 3.601 1.555
-0.764 3.739 1.794
-0.659 3.595 0.416
-0.731 3.515 0.677
-0.81 3.491 0.946
-0.894 3.523 1.213
-0.979 3.611 1.466
-1.063 3.75 1.697
-0.965 3.525 0.33
-1.008 3.452 0.598
-1.072 3.431 0.872
-1.154 3.464 1.139
-1.25 3.549 1.39
-1.358 3.682 1.613
-1.247 3.378 0.263
-1.264 3.318 0.538
-1.313 3.305 0.815
-1.393 3.339 1.082
-1.5 3.418 1.331
-1.631 3.54 1.549
-1.482 3.124 0.498
-1.519 3.122 0.778
-1.598 3.157 1.046
-1.714 3.228 1.292
-0.032 3.368 2.384
0.177 3.023 2.187
0.179 3.124 2.469
0.443 2.83 2.247
0.444 2.936 2.542
0.75 2.815 2.6
-0.08 3.426 2.677
0.131 3.181 2.758
0.395 2.996 2.845
0.695 2.881 2.933
-0.175 3.437 2.964
0.038 3.192 3.042
0.296 3.007 3.142
0.587 2.894 3.259
-0.313 3.4 3.231
-0.099 3.156 3.306
0.154 2.97 3.419
0.431 2.852 3.563
-0.486 3.318 3.465
-0.27 3.074 3.537
-0.025 2.884 3.661
0.234 2.758 3.828
-0.687 3.194 3.654
-0.468 2.951 3.724
-0.233 2.756 3.857
0.006 2.617 4.044
-0.948 3.187 3.74
-0.58 2.815 3.881
-0.883 2.808 3.981
-1.222 3.175 3.77
-1.2 2.794 4.016
-1.495 3.158 3.743
-1.517 2.774 3.984
-1.756 3.136 3.659
-1.82 2.748 3.887
-1.995 3.111 3.523
-2.096 2.719 3.73
-2.199 3.083 3.341
-2.333 2.687 3.518
-2.361 3.054 3.12
-2.52 2.653 3.262
-2.473 3.025 2.87
-2.65 2.619 2.973
-2.53 2.997 2.603
-2.716 2.587 2.663
-0.707 2.613 4.1
-0.29 2.688 3.939
-0.414 2.492 4.151
-0.119 2.419 4.258
-0.832 2.373 4.277
-0.535 2.258 4.323
-0.242 2.183 4.431
-0.951 2.101 4.406
-0.651 1.995 4.448
-0.359 1.917 4.558
-1.061 1.806 4.483
-0.757 1.709 4.523
-0.466 1.628 4.634
-1.232 2.074 4.422
-1.452 1.611 4.604
-1.599 1.842 4.55
[...]
CELL_DATA 4760
SCALARS cell_data_0 double
LOOKUP_TABLE default
8.00164422922e-10
7.97137527041e-10
2.92942695522e-09
2.68789461854e-09
5.60165302025e-09
2.77198743963e-09
3.04959061911e-10
1.30770501165e-09
5.39898106696e-10
4.63720731888e-10
2.61941993004e-09
6.68608431546e-10
1.99204317515e-09
1.56006235735e-09
3.46353804491e-10
1.24382189113e-09
2.51387723852e-09
1.0075956076e-09
2.39768470041e-09
2.61199708776e-09
5.954520793e-10
1.46501213169e-09
1.55142888716e-09
1.64282354212e-09
3.18870910853e-09
2.60553297471e-09
1.65551233137e-09
6.88146332068e-10
2.41667621371e-09
9.54113677196e-10
5.98323366239e-09
4.11656115117e-09
3.07215795669e-09
3.33665239136e-09
4.14390748408e-09
3.61763499635e-09
2.85510582073e-09
1.43000180593e-09
4.17836813652e-09
2.34081386961e-09
6.9385672975e-09
7.12996293787e-09
2.57882671879e-09
2.01177416972e-09
6.50003804719e-09
7.97169329224e-09
1.02889989115e-08
1.01224669913e-08
8.52688760518e-09
1.09216679387e-08
1.04139452247e-08
9.89718013038e-09
1.98657114576e-08
4.31440702416e-09
2.06008968593e-09
3.33133036813e-10
4.64717491367e-09
1.92217315838e-09
3.19512760362e-09
3.46134022978e-10
3.25062721873e-09
1.47862968605e-09
1.08391252776e-08
3.89600656822e-09
7.76884319269e-10
2.48969206792e-10
1.32498400913e-09
1.92068265117e-09
1.09885974043e-09
1.12791677189e-09
2.0934919305e-09
2.12164391546e-09
5.99382978437e-09
8.73598321546e-11
7.87468151032e-11
1.17460831118e-09
1.31983381855e-09
1.881441326e-11
2.39824220231e-09
1.12597654897e-09
3.23207767047e-09
4.47125135482e-09
8.5184950959e-09
3.00868151632e-09
1.42525890476e-09
1.66189829526e-09
7.7315748644e-10
1.87018324746e-10
2.46853907694e-09
4.32591044726e-09
3.91375512474e-09
6.63671754083e-09
4.91323262603e-09
4.24824327508e-09
2.08608743427e-09
5.77465148551e-09
4.72053929988e-09
2.07409686245e-09
9.79033382113e-09
5.64605085066e-09
1.23894793407e-08
8.61518399544e-09
1.10076369737e-10
5.75322362398e-09
2.46727500573e-09
4.31005659314e-09
3.97829370071e-09
2.5695997995e-10
1.236949655e-09
2.1471173259e-10
7.23660192168e-09
1.13286343788e-08
7.19165264225e-09
8.23326059469e-09
1.00910669813e-08
1.263442753e-08
7.98830726015e-09
1.36334565852e-08
1.21248353796e-08
1.35954796458e-08
1.63531467184e-09
3.70179720275e-10
4.84748474606e-09
3.71837218154e-09
3.33538590757e-09
2.57676853085e-09
4.69111416634e-09
4.22055187403e-09
1.14061110784e-09
5.06200177278e-10
2.41369802247e-09
1.32408133429e-09
2.36070460944e-09
2.36335953867e-10
3.84469165455e-09
2.11464913148e-09
1.94377770119e-09
5.72341218174e-09
2.08060191022e-09
3.39144001356e-09
3.76692203022e-09
3.01358749032e-09
3.64583508719e-10
2.66343366602e-09
6.87888561928e-09
6.77241961536e-09
6.17264563011e-09
7.07807858818e-09
3.28960527143e-09
5.08403586394e-09
4.55245865841e-09
2.76846731523e-09
1.83308827553e-09
2.95018365227e-11
2.05328795734e-09
2.78019521078e-10
6.23016292633e-10
2.23922349318e-10
2.60927266902e-09
9.74172796108e-10
6.38642254874e-10
3.91783545842e-09
1.46422002555e-09
4.11599740301e-09
1.57079241013e-09
4.26839304452e-09
1.29084092542e-10
1.24417800988e-09
3.28871241342e-10
1.44595677936e-09
2.5006685505e-09
1.5961201231e-09
4.12185978241e-09
3.17791357202e-09
2.07775296841e-09
3.12490893454e-09
1.53010585353e-09
3.70535002913e-09
2.47459515105e-12
7.22658705693e-10
1.34583328014e-09
8.67737937621e-10
2.51835149681e-09
1.10922042778e-09
3.99147876537e-09
2.10965919748e-10
3.18674851182e-09
1.00949540992e-09
1.20742421205e-09
1.87050266375e-09
4.18316331676e-10
3.47987702145e-10
9.25948468382e-10
1.13294710068e-09
1.66116147288e-09
1.23743294495e-09
1.77707155232e-09
2.70920783862e-09
9.01375996939e-10
1.60549450383e-09
1.20969834688e-09
2.19615675132e-09
2.77690044714e-09
9.91882161924e-10
3.75596178317e-09
3.4793933609e-09
2.81828299157e-09
2.24705474485e-09
2.93409702892e-09
2.69292638165e-09
1.96417521654e-09
8.127521696e-10
1.20341424859e-09
2.98541191871e-09
1.53185154503e-09
2.13581771095e-09
2.22879655578e-09
2.48660406026e-09
5.30133192002e-09
3.15800600142e-09
9.66703024841e-11
6.99548455176e-09
8.13005728582e-10
3.91803622496e-09
5.60877543484e-09
8.86438206548e-10
4.02239336453e-09
7.17181533124e-11
5.05392112299e-09
2.33329667613e-09
1.2916687613e-08
5.82071665426e-09
5.54255029632e-09
6.57975811305e-09
1.81533838824e-09
9.53025394721e-10
3.56151716402e-09
2.93449260631e-09
1.41183781085e-08
1.36836715299e-08
5.07423653132e-08
2.84392772383e-08
1.02572262031e-07
5.50847522323e-09
1.03741431761e-07
1.64222966309e-08
1.59191776459e-09
1.89064474945e-09
1.07072797019e-08
3.03066675033e-09
2.85896020687e-08
4.9675621687e-09
5.72031691007e-08
2.25626513234e-08
7.00046392436e-09
2.01134580118e-09
3.92924088965e-09
7.11622887807e-09
1.78034314552e-08
3.96884317015e-09
2.85758905571e-08
1.81444598325e-08
1.43637918048e-09
1.01196475823e-09
4.74215715495e-09
4.92742150696e-09
1.09267057293e-08
3.09070489204e-09
1.57021419711e-08
7.22722753281e-09
4.96785793386e-09
3.40000903662e-09
1.19100417981e-09
1.84713599959e-09
4.69948206812e-09
4.31417522363e-10
7.60996088577e-09
2.99415834527e-09
5.12784102219e-09
3.90407350871e-09
3.24743768078e-10
5.14126643304e-10
2.71307557459e-09
2.41619881351e-09
4.93224715429e-09
1.45824842723e-09
8.06168630663e-09
7.97556784192e-09
6.90354178504e-09
6.00967638462e-09
7.22057018303e-10
1.60884833573e-08
2.36950086736e-09
1.18800054234e-09
3.65147495894e-09
8.49520602354e-09
6.65869588318e-09
1.25481938807e-08
9.95600363758e-09
8.84831145966e-09
1.15352149615e-08
3.68032926592e-09
9.76612033186e-10
2.96705664826e-09
1.59599204595e-09
6.04710499681e-10
4.45773264427e-10
1.28170274926e-09
9.67277378545e-09
5.24115454998e-09
3.24785586015e-09
2.61872994854e-09
4.80145281859e-11
1.67669092631e-09
7.89157746581e-10
1.42737304557e-09
6.17653100317e-09
2.17338434322e-09
3.97149099414e-09
4.41476196687e-09
1.52682019071e-09
1.80103813497e-09
1.71373625695e-09
2.22701607706e-09
7.11431214734e-09
3.36641460631e-09
4.01279878194e-09
4.51074420445e-09
6.52845442908e-10
2.43600361214e-10
2.26710816159e-09
4.83533793569e-09
6.35011411428e-09
3.13743210999e-09
1.03443066772e-08
1.07855660632e-08
3.37915987203e-09
7.83173303701e-09
9.13450573637e-09
3.56358645486e-09
4.718627842e-09
8.47515761218e-11
5.09113999344e-09
2.73630435111e-09
1.13808445854e-09
8.35935816038e-09
1.75308322896e-09
1.75885118464e-09
7.36026772968e-09
3.32947978778e-09
1.94624616217e-09
9.28087885884e-09
9.20008658222e-09
5.76543054525e-09
1.17896703413e-08
8.00597649049e-09
3.71012785902e-09
6.357001982e-09
8.7116081679e-09
4.61320576803e-09
1.32992950597e-08
5.12308464838e-09
3.58748584233e-09
2.40673299567e-08
2.11508289204e-10
1.22531260447e-08
3.47290724107e-09
4.97398505106e-09
3.16718994936e-09
4.69181620786e-09
8.27820105739e-09
1.1905447778e-08
9.72099196115e-09
3.45616730285e-08
6.35377087859e-09
1.07886116392e-08
2.19216575468e-08
1.21719481537e-09
3.20720170718e-08
7.41003557089e-09
1.69736385091e-08
2.20953689303e-08
5.81278966289e-09
3.98810365738e-09
1.22259324013e-08
4.96778635628e-09
2.10512965528e-08
4.04940762092e-08
1.54862020417e-08
2.68122104869e-08
4.49153848176e-09
7.70983428275e-09
4.92036148838e-09
1.09069885777e-08
1.10606074403e-08
1.30093129537e-08
2.32400986081e-08
1.22660240407e-08
3.42122471795e-08
9.58521249197e-09
2.74358163437e-08
3.3257003309e-08
2.92606015472e-09
8.85920055118e-09
5.36184554054e-09
3.49111098244e-09
9.85921202877e-10
1.01329015393e-08
6.64067970367e-09
1.60336300323e-08
4.33735658261e-09
8.04650638895e-09
2.97473149248e-08
1.27854925641e-08
2.95097793409e-08
9.41698825875e-09
4.27965572083e-08
4.08791403478e-09
3.48850338924e-09
4.02899867144e-09
5.94175972149e-09
1.88903657013e-08
1.24478875163e-08
2.53845046237e-08
1.58316361754e-09
1.76729612196e-08
2.39416216866e-08
2.89493572258e-08
3.34944079121e-08
2.83339654646e-08
1.79608332792e-08
1.95063884765e-08
1.06507694115e-08
2.27181851141e-08
1.96100653277e-09
2.75273670878e-08
1.78597166534e-09
2.46066375075e-08
1.29251988491e-07
1.45933329957e-08
8.12465458493e-09
5.82308974258e-10
1.06357664565e-08
2.67957869936e-09
8.4037486286e-09
2.75450887445e-09
7.61202592578e-09
5.38863818815e-09
1.55276569312e-09
1.44857762273e-08
4.68962928597e-08
1.81543647231e-08
3.2672688409e-08
1.37657016971e-07
7.4408578061e-09
1.87541905564e-08
1.58101332428e-08
1.23783351042e-08
1.36593705711e-08
2.1185499558e-09
1.59236900455e-08
8.63806049745e-09
1.50754014528e-08
6.15179232235e-09
9.23019287347e-08
2.30535205748e-08
2.92025570069e-09
6.04188435061e-09
2.78778850165e-08
1.47777763409e-08
3.45127204007e-08
2.92276702744e-08
5.76931258448e-08
4.59608475925e-08
2.21532079674e-09
2.62650271347e-09
8.4274579969e-09
4.57163681575e-10
1.04941066116e-08
4.07454836164e-09
3.57678561403e-08
3.07211653052e-09
1.17335552048e-08
1.21696137152e-08
6.88892880179e-09
1.46360632647e-08
1.27810114696e-08
1.53058242644e-08
4.77845043235e-09
1.99479791757e-09
7.36872832665e-09
1.4453339919e-08
1.38645076082e-08
1.18569732976e-08
7.2528487653e-09
4.30217494898e-09
4.81512168413e-09
5.78356032675e-10
6.86442940932e-09
5.28535984511e-09
3.60170889644e-09
1.80407335875e-09
4.03736046703e-09
3.81195450425e-09
2.97356530468e-09
4.62943108243e-09
2.48344406576e-09
3.78334746551e-09
5.19721541758e-09
6.51566450179e-10
8.70136476742e-09
1.89831488151e-09
5.40599943508e-10
3.41370481972e-09
1.33339747502e-09
1.84933297461e-08
2.29415985084e-08
2.96734451819e-08
1.17606728222e-09
2.54139448651e-09
3.3739795133e-09
3.47833395424e-09
1.52531744488e-10
4.79513274692e-09
1.68888853176e-09
3.96810323136e-09
3.25907768815e-09
2.96097546602e-09
3.29960596325e-10
1.55649351243e-10
1.40048669617e-09
9.5117753164e-10
3.43611037853e-09
2.98173278609e-09
5.73774241748e-10
1.3492018207e-10
2.20763368606e-09
4.44919626059e-10
4.18207011671e-10
1.57788308969e-10
6.84779608151e-10
1.26243759257e-09
1.61519536409e-09
5.62718155988e-11
6.99181968826e-10
6.62575722166e-10
1.66555201152e-09
1.50524664695e-09
4.1819062729e-10
1.027157131e-09
1.05109734157e-09
1.23994802972e-10
5.81392767569e-10
2.76430248936e-10
2.26666415392e-09
2.23520262324e-09
1.42283847066e-09
1.70459648018e-10
8.53034100453e-10
8.96516269708e-10
9.87476521849e-12
1.01587707886e-10
4.20033621216e-10
3.79700340303e-10
1.15211400891e-09
6.10777797181e-10
9.51644032127e-10
2.59745698764e-10
1.78495276592e-09
1.69205374371e-09
2.15409187996e-10
2.46189839762e-10
5.4423854097e-10
9.53312555255e-10
1.4962695161e-09
2.47047680497e-09
1.01441602214e-09
1.29492822857e-09
3.07142011104e-09
3.21901850957e-09
1.8126609221e-09
7.83658344353e-10
2.41097228342e-09
4.72628669415e-10
3.38664611229e-09
3.05341091103e-09
4.35248749994e-10
8.01571463691e-11
2.11147994012e-09
3.46965859544e-09
2.47677592821e-09
8.13453617793e-09
8.98417479577e-09
1.01699656907e-08
5.14113808911e-11
1.94423395068e-09
1.9056403297e-10
7.20875138249e-09
1.14149574692e-08
1.98184077057e-09
1.31649417812e-09
2.30907288545e-09
1.31020709978e-09
1.04734579345e-08
1.5506319278e-08
5.42959908596e-09
6.13034067095e-10
2.29788650442e-09
5.4374139071e-10
1.19567046159e-08
1.66016213203e-08
2.39978882965e-08
9.68710217239e-10
8.79628897526e-10
8.9070958049e-10
7.84297112768e-09
8.37535655819e-09
1.5525998392e-08
1.76423267379e-10
3.16104134493e-09
9.27517058725e-10
3.28824412859e-09
2.12316875994e-09
8.2358225345e-09
6.45004699221e-10
9.92365102323e-11
1.42124943288e-09
1.14449336845e-09
3.56180059592e-10
4.72995135757e-11
5.99436775386e-10
1.50677903699e-09
5.10038575007e-10
1.21824818491e-09
1.77169641537e-09
1.79711057131e-09
2.53227840225e-09
1.53944485626e-09
2.23189560703e-09
1.57338174721e-09
2.49651423011e-09
2.33701786901e-09
2.50017369695e-09
2.7816941408e-09
5.34182604007e-10
2.89524881374e-09
2.1224602259e-10
4.36915785802e-09
4.65350290526e-10
1.8819173015e-09
1.9938582432e-09
2.57449269976e-09
1.38721418623e-09
8.32375941476e-10
2.16990783225e-09
2.22606537295e-09
1.39279430397e-09
3.80522587015e-10
2.21348740688e-09
2.15824639284e-09
1.28201813105e-10
7.50958983601e-10
9.08861843626e-10
4.83336843128e-10
4.28280090842e-10
4.73694691239e-11
7.67310388201e-10
1.21272835683e-09
6.84986386749e-10
2.12188157741e-09
1.78555883971e-09
2.11731872462e-09
1.79253377351e-09
1.93113222681e-09
1.83438408221e-09
1.1749913164e-09
2.36821796796e-09
1.12124539401e-09
3.18018054902e-09
1.32717788359e-09
1.60149988216e-09
1.00155773054e-09
1.4434657367e-09
2.03431091136e-09
1.57104515219e-09
2.05932438642e-09
3.75044435265e-11
2.36295022504e-09
3.61462338186e-09
3.3382234516e-10
3.21383695783e-10
4.47974648761e-09
1.61419379509e-09
6.90217517316e-09
1.12931758816e-09
1.32745489583e-09
2.02185241221e-09
1.0041766766e-09
2.88328732994e-09
2.54850411947e-09
5.069616725e-10
1.39154139513e-09
1.43728117521e-09
6.08433419249e-10
2.60863376458e-09
6.01123060144e-10
2.09587147894e-09
9.12395230737e-10
1.05423361939e-09
5.07719531794e-10
1.07391627868e-09
2.8536063224e-09
8.10292782256e-10
1.49871400689e-09
5.07724077821e-10
2.75986843701e-09
3.98148878837e-09
1.58369035111e-09
4.44217983416e-09
4.03967923633e-09
1.85257959057e-09
4.03425782275e-09
1.79257567681e-09
3.24721460541e-09
1.45938255931e-09
3.05268393864e-09
4.60170098312e-09
1.9195565647e-09
1.07051449391e-08
9.86371688957e-09
2.94666325228e-09
4.12664687724e-09
3.22314611831e-09
4.8875822032e-09
4.43758792429e-09
7.26647192752e-09
4.55610916337e-09
1.98574292325e-09
2.21437616221e-08
2.29634412859e-08
4.22615473198e-09
6.14753013492e-09
6.32953152486e-09
8.10117384833e-09
1.1414603603e-08
1.72036983478e-08
4.1550138913e-09
1.70937390696e-08
4.15087994132e-08
3.36559035808e-08
8.94513093153e-09
7.32617763779e-09
1.42854924977e-08
7.50243134396e-09
3.45987839359e-08
3.90786267579e-08
3.54261331543e-08
6.25192458315e-08
4.99837012545e-08
7.34176243849e-08
1.89114305506e-09
2.24023207776e-09
3.83582711657e-09
1.21598175086e-09
8.33032238122e-10
4.76004217465e-10
3.18225761182e-09
1.62421384789e-09
1.50660784498e-09
4.01375061919e-10
1.53396557067e-09
1.74481026987e-09
2.61491667948e-09
2.04944133691e-10
8.59729897072e-10
1.60919043807e-09
2.93366536427e-09
1.27463839498e-09
7.54612118569e-10
1.5502301856e-09
5.03987790819e-09
4.01030104721e-10
1.66568183148e-09
1.78449179427e-09
2.99537883466e-09
5.11480822868e-09
3.35932230953e-09
2.18809540935e-09
9.65289529941e-11
2.51329585168e-10
5.02767570947e-09
6.56881031305e-09
5.50697408772e-09
9.34179316862e-09
3.26149157303e-09
5.59834006928e-09
4.51525939633e-09
1.45758663726e-08
1.54177647407e-08
2.26016274463e-08
9.50435728918e-09
1.03340674438e-08
1.24431569039e-10
1.85431488128e-08
4.37775266959e-08
4.17999808111e-08
2.05813112615e-08
2.10067078055e-08
1.8683817439e-08
1.42257478074e-08
8.33456257746e-08
3.15436846962e-08
4.23952050415e-08
3.37649711462e-08
2.85399588081e-08
5.69863678402e-08
5.77593746892e-08
2.50573288796e-08
5.17445008227e-08
4.16281105607e-08
3.24786353825e-08
4.61039922222e-08
2.62303659103e-08
8.48575799093e-09
4.78142372066e-08
5.11775115302e-08
1.06367828771e-08
1.31425568726e-08
4.96503655484e-11
2.00878431162e-09
3.22513951927e-08
4.06770152944e-08
1.87642476958e-08
2.64242991721e-08
1.00390929241e-08
4.05620889141e-09
1.3586087217e-08
3.17954451566e-08
1.73259240044e-08
3.64631827971e-08
7.24661690919e-09
5.63300906584e-09
3.96403460591e-09
1.44261626367e-08
3.08506415182e-09
1.56366906171e-08
4.17397978256e-09
2.86212345092e-09
3.70448917153e-10
6.11241052793e-09
1.28131920216e-09
6.13872535976e-09
3.42833626752e-09
1.11129323905e-09
3.72349070509e-10
1.83411510456e-09
4.86839701176e-09
3.53799530001e-10
7.07555143273e-09
6.60679042714e-09
7.84135116867e-10
6.74643316295e-09
4.127116653e-09
8.65929984131e-09
8.49982534957e-09
1.47257408843e-08
1.52197215338e-08
1.3882337463e-08
3.01890789608e-08
2.30421776318e-10
2.66314007255e-08
1.95672200038e-10
2.56249993809e-09
6.47914127651e-09
9.96954286901e-10
2.74971428018e-09
2.67022173719e-09
2.96021598749e-10
3.36892876842e-09
1.0092395936e-09
4.40756523246e-09
2.51078166831e-10
8.14620992866e-09
8.50971539652e-09
1.45024684686e-08
2.93823168055e-09
2.2761742848e-09
4.65405868892e-09
1.91898735911e-09
3.09085008044e-09
1.35059692396e-09
7.67795945849e-10
8.71226393131e-10
3.2412153445e-09
3.983577505e-09
1.2790181858e-09
7.19522076499e-09
6.73550448845e-09
1.30682711799e-08
1.43119420297e-09
2.91257528359e-09
4.42389805592e-09
1.3689000059e-09
7.93489202106e-10
2.5816010621e-09
5.06943933349e-09
3.16474460332e-09
1.00068566363e-09
2.53180675465e-10
2.86131815845e-09
4.63512308402e-09
6.86770859713e-09
1.20145730043e-08
3.17987420266e-09
1.76644078064e-09
4.07709310821e-09
1.50621073343e-09
6.79090859368e-10
2.16578767316e-09
1.07611271332e-09
1.36832022154e-10
3.00519146969e-09
8.01379207782e-10
2.91432974763e-09
3.37466733407e-09
4.9282632302e-09
1.0663925761e-08
1.91719129553e-09
1.53740637942e-09
1.80105662965e-09
3.07402461607e-09
1.07833916667e-09
3.62450809166e-09
2.75281309209e-09
1.39138440654e-09
4.36337178514e-09
3.66622687836e-10
2.58289395992e-09
1.50465186372e-09
9.19200820445e-09
1.14415366266e-08
7.14971593822e-09
4.43539559846e-09
1.65588287254e-09
9.13929180634e-09
1.12207725122e-09
8.97846470618e-09
7.28743080651e-10
1.14145548562e-08
4.13967437588e-09
1.11307519372e-08
1.28650129388e-08
6.66268016811e-09
1.86501027476e-08
3.87901158367e-09
3.67561889938e-09
5.18067683475e-08
2.17698858787e-08
5.29085196563e-08
2.61537881957e-08
1.20752807092e-08
2.08782993488e-08
8.60939627915e-09
6.14237344912e-09
1.22551161505e-09
5.66639000929e-10
1.20040881506e-09
1.46420207749e-09
1.54880801446e-09
1.10909357905e-09
8.36576694536e-09
3.0778257438e-09
1.38498729816e-09
4.69182545377e-08
1.03843075093e-08
4.75762374661e-08
2.31235814888e-10
1.32636692534e-08
5.23815296743e-09
3.52446286589e-12
4.81478707768e-09
2.23383203494e-09
5.76888118084e-10
7.15067728927e-09
4.15911448251e-09
9.0795382784e-09
4.42963314583e-09
1.20804649787e-09
2.10698489005e-08
1.39140931926e-08
2.01479814685e-08
1.59730972213e-08
4.86981888825e-09
1.09069626956e-08
7.56300048647e-10
7.98021921097e-09
4.83924726227e-09
1.49109853641e-08
1.2758259842e-09
1.04364501968e-08
4.02140807286e-09
6.91336747575e-09
7.29726073929e-10
8.15411611751e-10
1.00214399217e-08
2.69457438345e-09
3.7233895427e-09
4.46593637992e-09
1.07911611521e-08
6.67722633358e-09
1.66995076854e-08
9.02687672106e-09
1.71460922975e-09
4.71201244209e-09
1.34868638745e-09
6.87692031746e-09
6.31803140233e-10
9.70170691535e-09
7.4675191548e-09
7.63331933051e-09
5.62994253231e-10
4.7688137731e-09
2.0522884256e-09
7.14626758877e-09
1.63717809888e-09
9.68337840348e-09
5.24740704737e-09
6.03731933948e-09
6.5741541856e-10
4.8351741917e-09
2.69934393849e-09
6.92162994616e-09
3.47897942541e-09
9.75803805642e-09
2.91367221189e-09
3.76386792884e-09
7.85797813859e-11
4.80361521163e-09
3.73624246492e-09
6.8403030215e-09
5.33486877403e-09
9.35523792353e-09
1.49138788616e-09
4.66518976296e-09
2.43760127829e-10
4.59691339072e-09
4.43053959549e-09
5.43049744436e-09
7.02113859939e-09
8.16101510661e-09
2.34357781219e-10
3.07510584513e-09
7.27689432453e-10
4.12687232348e-09
5.42250421862e-09
4.50996656131e-09
8.42503209005e-09
7.33661181501e-09
1.02088793082e-09
3.13740021774e-09
5.38576110521e-10
3.94270883053e-09
6.30768026499e-09
4.12328182135e-09
1.01848035342e-08
5.89914639542e-09
2.84705560298e-09
2.42101189612e-09
1.11604374184e-09
3.07763686046e-09
7.35834302374e-09
2.2488080987e-09
1.23343649252e-08
4.63459120463e-09
3.74542878194e-09
1.47494853204e-09
9.82826514638e-10
3.77608498334e-09
8.43615153335e-09
1.99047014165e-09
1.46318865161e-08
2.19682678739e-09
5.8948143399e-09
1.05156001241e-09
2.45805075858e-09
5.10578581975e-09
9.1488711373e-09
7.44254198433e-10
1.54404784628e-08
1.73006462835e-09
6.31303524458e-09
2.59698626274e-09
4.83131809548e-10
4.91294755903e-09
1.20248429372e-08
6.56168454434e-10
2.24091307554e-08
2.62968517445e-09
1.12387798673e-08
3.86642829499e-09
1.06431286795e-09
6.31476859798e-09
1.14076478221e-08
4.02774948364e-09
2.43640819282e-08
4.10993783139e-09
1.63061261291e-08
8.68387136346e-09
6.93551495254e-09
1.21609467089e-08
4.43741197313e-09
8.30825128266e-09