# vtk DataFile Version 3.0
File Name: Molecule/arg/arg_2.0-R1.vtk
ASCII
DATASET UNSTRUCTURED_GRID
FIELD FieldData 1
TIME 1 1 double
0.0
POINTS 1250 double
-3.403 0.327 1.604
-3.4005 0.1805 1.2035
-3.192 -0.017 1.731
-3.1895 -0.1635 1.3305
-3.398 0.034 0.803
-2.981 -0.361 1.858
-2.9785 -0.5075 1.4575
-3.187 -0.31 0.93
-2.976 -0.654 1.057
-3.1845 0.029 0.4345
-2.9735 -0.315 0.5615
-2.971 0.024 0.066
-2.7625 -0.659 0.6885
-2.76 -0.32 0.193
-2.549 -0.664 0.32
-2.9775 0.035 0.054
-2.5855 -0.2295 -0.398
-2.592 -0.2185 -0.41
-2.984 0.046 0.042
-2.2 -0.483 -0.862
-2.208 -0.4705 -0.8755
-2.6 -0.206 -0.4235
-2.216 -0.458 -0.889
-3.1195 0.4695 -0.1665
-2.777 0.034 -0.245
-2.9125 0.4575 -0.4535
-3.255 0.893 -0.375
-2.57 0.022 -0.532
-2.6755 0.3515 -0.6945
-3.018 0.787 -0.616
-2.781 0.681 -0.857
-2.48 -0.1235 -0.8425
-2.5855 0.206 -1.005
-2.39 -0.269 -1.153
-2.5055 0.0925 -1.331
-2.701 0.5675 -1.183
-2.621 0.454 -1.509
-3.0155 1.3165 -0.436
-2.7785 1.2105 -0.677
-2.776 1.74 -0.497
-2.594 1.0105 -0.904
-2.5915 1.54 -0.724
-2.407 1.34 -0.951
-2.514 0.897 -1.23
-2.416 0.8155 -1.561
-2.309 1.2585 -1.282
-2.211 1.177 -1.613
-2.699 1.836 -0.463
-2.379 1.5895 -0.9945
-2.302 1.6855 -0.9605
-2.622 1.932 -0.429
-1.982 1.439 -1.492
-1.896 1.5465 -1.454
-2.216 1.793 -0.9225
-1.81 1.654 -1.416
-2.5585 2.2945 0.1205
-2.1185 2.185 -0.654
-2.055 2.5475 -0.1045
-2.495 2.657 0.67
-1.615 2.438 -0.879
-1.5515 2.8005 -0.3295
-1.9915 2.91 0.445
-1.488 3.163 0.22
-2.8405 2.4705 1.0955
-2.179 2.995 1.0885
-2.5245 2.8085 1.514
-3.186 2.284 1.521
-1.863 3.333 1.507
-2.1965 3.1525 1.9175
-2.858 2.628 1.9245
-2.53 2.972 2.328
-3.3025 2.0425 1.6545
-2.9515 2.421 1.933
-3.068 2.1795 2.0665
-3.419 1.801 1.788
-2.717 2.558 2.345
-2.848 2.2875 2.4945
-3.199 1.909 2.216
-2.979 2.017 2.644
-3.4135 1.18 1.793
-3.263 1.797 2.4025
-3.2575 1.176 2.4075
-3.408 0.559 1.798
-3.107 1.793 3.017
-3.101 1.193 3.022
-3.2515 0.576 2.4125
-3.095 0.593 3.027
-3.4055 0.443 1.701
-3.2565 0.4535 1.9415
-3.254 0.3375 1.8445
-3.105 0.348 2.085
-3.1025 0.218 1.976
-3.2515 0.2075 1.7355
-3.1 0.088 1.867
-3.0375 0.2265 2.1185
-3.1 0.4705 2.556
-3.0325 0.349 2.5895
-2.97 0.105 2.152
-3.0365 0.488 3.056
-2.974 0.244 2.6185
-2.978 0.383 3.085
-3.035 0.0965 2.0095
-2.9175 -0.1205 2.1325
-2.9825 -0.129 1.99
-2.865 -0.346 2.113
-2.923 -0.3535 1.9855
-3.0405 -0.1365 1.8625
-2.6925 -0.523 2.269
-2.9215 0.0185 2.599
-2.749 -0.1585 2.755
-2.52 -0.7 2.425
-2.8115 0.212 3.236
-2.5825 -0.3295 2.906
-2.645 0.041 3.387
-2.394 -1.075 2.1565
-2.2615 -0.921 2.896
-2.1355 -1.296 2.6275
-2.268 -1.45 1.888
-2.003 -1.142 3.367
-1.8645 -1.5535 3.072
-1.997 -1.7075 2.3325
-1.726 -1.965 2.777
-1.93 -1.5855 1.578
-1.659 -1.843 2.0225
-1.592 -1.721 1.268
-1.355 -2.114 2.437
-1.288 -1.992 1.6825
-0.984 -2.263 2.097
-1.8975 -1.5825 1.0135
-1.276 -1.9755 0.7855
-1.5815 -1.837 0.531
-2.203 -1.444 0.759
-0.96 -2.23 0.303
-1.2955 -2.078 0.0235
-1.917 -1.685 0.2515
-1.631 -1.926 -0.256
-2.345 -1.1145 0.54
-2.059 -1.3555 0.0325
-2.487 -0.785 0.321
-1.787 -1.564 -0.497
-2.215 -0.9935 -0.2085
-1.943 -1.202 -0.738
-2.518 -0.7245 0.3205
-2.309 -0.7015 -0.27
-2.34 -0.641 -0.2705
-2.131 -0.618 -0.861
-2.1655 -0.5505 -0.8615
-2.3745 -0.5735 -0.271
-2.1225 -0.65 -1.021
-2.037 -0.91 -0.7995
-2.0285 -0.942 -0.9595
-2.114 -0.682 -1.181
-1.935 -1.233 -0.895
-2.0205 -0.973 -1.1165
-1.927 -1.264 -1.052
-2.165 -0.57 -1.035
-2.213 -0.5615 -1.2785
-2.264 -0.4495 -1.1325
-2.312 -0.441 -1.376
-2.351 -0.355 -1.2645
-2.303 -0.3635 -1.021
-2.2165 -0.4735 -1.646
-2.1195 -0.8525 -1.214
-2.024 -0.885 -1.484
-2.121 -0.506 -1.916
-1.8045 -1.306 -1.399
-1.9015 -0.927 -1.831
-1.682 -1.348 -1.746
-2.009 -0.157 -2.2215
-1.9925 -0.637 -1.902
-1.8805 -0.288 -2.2075
-1.897 0.192 -2.527
-1.864 -0.768 -1.888
-1.717 -0.3105 -2.2895
-1.7335 0.1695 -2.609
-1.57 0.147 -2.691
-1.954 0.6155 -2.3535
-1.5475 0.289 -2.8395
-1.6045 0.7125 -2.666
-2.011 1.039 -2.18
-1.198 0.386 -3.152
-1.273 0.941 -2.924
-1.6795 1.2675 -2.438
-1.348 1.496 -2.696
-2.111 1.108 -1.8965
-1.8655 1.148 -2.2075
-1.9655 1.217 -1.924
-1.72 1.257 -2.235
-1.851 1.348 -1.8635
-2.0965 1.308 -1.5525
-1.5995 1.537 -1.9925
-1.534 1.3765 -2.4655
-1.4135 1.6565 -2.223
-1.479 1.817 -1.75
-1.2275 1.7765 -2.4535
-1.293 1.937 -1.9805
-1.107 2.057 -2.211
-1.6445 1.7355 -1.583
-1.399 2.2005 -1.464
-1.5645 2.119 -1.297
-1.319 2.584 -1.178
-1.467 2.511 -1.0285
-1.7125 2.046 -1.1475
-1.0675 2.7985 -1.2225
-1.213 2.3205 -1.6945
-0.9615 2.535 -1.739
-0.816 3.013 -1.267
-0.825 2.297 -2.2615
-0.6795 2.775 -1.7895
-0.543 2.537 -2.312
-0.175 3.0805 -1.079
-0.4735 2.9845 -1.6545
0.1675 3.052 -1.4665
0.466 3.148 -0.891
-0.131 2.956 -2.042
0.0985 2.9805 -1.9745
0.397 3.0765 -1.399
0.328 3.005 -1.907
-0.0895 3.1465 -2.5215
0.14 3.171 -2.454
-0.048 3.337 -3.001
0.3255 3.376 -2.8915
0.5135 3.21 -2.3445
0.699 3.415 -2.782
0.7615 2.8525 -0.598
0.679 2.9185 -1.391
0.9745 2.623 -1.098
1.057 2.557 -0.305
0.892 2.689 -1.891
1.2225 2.3575 -1.5625
1.305 2.2915 -0.7695
1.553 2.026 -1.234
0.897 2.701 0.1875
1.298 2.2375 -0.133
1.138 2.3815 0.3595
0.737 2.845 0.68
1.539 1.918 0.039
1.3795 2.062 0.5315
0.9785 2.5255 0.852
1.22 2.206 1.024
0.5715 2.969 0.7565
0.7465 2.6625 1.036
0.581 2.7865 1.1125
0.406 3.093 0.833
0.756 2.48 1.392
0.611 2.589 1.459
0.436 2.8955 1.1795
0.466 2.698 1.526
0.934 2.453 1.75
0.789 2.562 1.817
1.112 2.426 2.108
0.93 2.5625 2.192
0.607 2.6985 1.901
0.748 2.699 2.276
0.127 3.312 0.7105
0.186 3.1795 1.466
-0.093 3.3985 1.3435
-0.152 3.531 0.588
-0.034 3.266 2.099
-0.303 3.477 1.9805
-0.362 3.6095 1.225
-0.572 3.688 1.862
-0.5085 3.544 0.4725
-0.7185 3.6225 1.1095
-0.865 3.557 0.357
-0.9165 3.7005 1.7505
-1.063 3.635 0.998
-1.261 3.713 1.639
-1.1765 3.36 0.2885
-1.3745 3.438 0.9295
-1.562 3.523 1.573
-1.6755 3.248 0.8635
-0.1045 3.3515 2.5315
0.357 2.9825 2.1875
0.2865 3.068 2.62
-0.175 3.437 2.964
0.6675 2.7965 2.7675
0.206 3.1655 3.1115
0.587 2.894 3.259
-0.431 3.3155 3.309
-0.05 3.044 3.4565
-0.687 3.194 3.654
0.2965 2.7555 3.6515
-0.3405 2.9055 3.849
0.006 2.617 4.044
-1.023 3.1805 3.7085
-0.6335 3.0045 3.7675
-0.9695 2.991 3.822
-1.359 3.167 3.763
-0.58 2.815 3.881
-0.9695 2.7995 3.9445
-1.359 2.9755 3.8855
-1.359 2.784 4.008
-1.677 3.139 3.643
-1.677 2.9475 3.7655
-1.995 3.111 3.523
-1.7275 2.7515 3.869
-2.0455 2.915 3.6265
-2.096 2.719 3.73
-2.209 3.075 3.2605
-2.2595 2.879 3.364
-2.423 3.039 2.998
-2.3445 2.6775 3.4255
-2.508 2.8375 3.0595
-2.593 2.636 3.121
-2.4765 3.0055 2.663
-2.5615 2.804 2.7245
-2.655 2.597 2.733
-2.6235 2.765 2.3365
-0.8205 2.3105 4.182
-0.287 2.716 3.9625
-0.5275 2.2115 4.2635
-1.061 1.806 4.483
-0.23 2.1225 4.339
-0.7635 1.717 4.5585
-0.466 1.628 4.634
-1.302 2.102 4.3625
-1.2565 1.7085 4.5435
-1.4975 2.0045 4.423
-1.543 2.398 4.242
-1.452 1.611 4.604
-1.66 1.866 4.5
-1.7055 2.2595 4.319
-1.868 2.121 4.396
-1.8355 2.529 4.0025
-1.998 2.3905 4.0795
-2.128 2.66 3.763
-2.1205 2.234 4.189
-2.2505 2.5035 3.8725
-2.373 2.347 3.982
-2.3915 2.59 3.4695
-2.514 2.4335 3.579
-2.655 2.52 3.176
-2.6 2.287 3.729
-2.741 2.3735 3.326
-2.827 2.227 3.476
-2.817 2.2685 2.91
-2.903 2.122 3.06
-2.967 2.01 3.2465
-3.043 1.905 2.8305
-1.458 1.353 4.635
-0.959 1.6195 4.619
-0.965 1.3615 4.65
-1.464 1.095 4.666
-0.473 1.3345 4.6695
-0.972 1.068 4.6855
-0.48 1.041 4.705
-1.5595 0.913 4.65
-0.8985 0.806 4.7675
-0.994 0.624 4.7515
-1.655 0.731 4.634
-0.333 0.517 4.869
-0.444 0.3065 4.85
-1.105 0.4135 4.7325
-0.555 0.096 4.831
-1.9985 0.486 4.438
-1.2665 0.187 4.7095
-1.61 -0.058 4.5135
-2.342 0.241 4.242
-0.878 -0.357 4.785
-1.268 -0.6355 4.5625
-2.0 -0.3365 4.291
-1.658 -0.914 4.34
-2.4935 0.141 3.8145
-2.1515 -0.4365 3.8635
-1.8305 -1.028 3.8535
-2.324 -0.5505 3.377
-0.6305 -0.553 4.925
-0.7165 -0.1305 4.808
-0.469 -0.3265 4.948
-0.383 -0.749 5.065
-0.3025 -0.104 4.974
-0.2165 -0.5265 5.091
-0.05 -0.304 5.117
-0.1095 -0.96 5.0765
0.057 -0.7375 5.1025
0.164 -1.171 5.088
0.2285 -0.519 5.129
0.3355 -0.9525 5.1145
0.507 -0.734 5.141
0.33 -1.5105 4.9635
0.6035 -0.9885 5.176
0.7695 -1.328 5.0515
0.496 -1.85 4.839
1.043 -0.806 5.264
1.209 -1.146 5.1395
0.9355 -1.668 4.927
1.375 -1.486 5.015
0.6505 -2.0885 4.56
1.09 -1.9065 4.648
0.805 -2.327 4.281
1.5295 -1.724 4.7365
1.2445 -2.1445 4.3695
1.684 -1.962 4.458
0.9155 -2.412 3.9085
1.355 -2.2295 3.997
1.026 -2.497 3.536
1.7945 -2.047 4.085
1.4655 -2.3145 3.624
1.905 -2.132 3.712
1.0675 -2.4105 3.1495
1.507 -2.228 3.2375
1.109 -2.324 2.763
1.9465 -2.0455 3.3255
1.5485 -2.1415 2.851
1.988 -1.959 2.939
1.073 -2.085 2.447
1.5125 -1.9025 2.535
1.037 -1.846 2.131
1.952 -1.72 2.623
1.4765 -1.6635 2.219
1.916 -1.481 2.307
0.578 -2.1725 2.119
0.9035 -1.754 1.682
0.4445 -2.0805 1.67
0.119 -2.499 2.107
0.77 -1.662 1.233
0.417 -1.913 1.224
0.0915 -2.3315 1.661
0.064 -2.164 1.215
0.9155 -1.7375 0.785
0.5625 -1.9885 0.776
1.061 -1.813 0.337
0.6015 -2.1395 0.325
0.103 -2.315 0.764
0.142 -2.466 0.313
-0.4325 -2.381 2.102
-0.46 -2.2135 1.656
-0.359 -2.0735 1.211
-0.883 -2.123 1.652
-0.782 -1.983 1.207
-0.32 -2.2245 0.76
-0.409 -2.348 0.308
-0.871 -2.1065 0.755
1.2705 -1.4455 0.184
1.0695 -1.5715 0.6665
1.279 -1.204 0.5135
1.48 -1.078 0.031
1.078 -1.33 0.996
1.2045 -1.1085 0.904
1.4055 -0.9825 0.4215
1.331 -0.887 0.812
1.239 -1.2675 1.3665
1.3655 -1.046 1.2745
1.4 -1.205 1.737
1.526 -0.9835 1.645
1.4915 -0.8245 1.1825
1.652 -0.762 1.553
1.658 -1.343 2.022
1.784 -1.1215 1.93
2.1255 -1.1135 2.1545
1.9935 -0.754 1.7775
2.335 -0.746 2.002
1.5595 -0.895 -0.258
1.5885 -0.598 0.3455
1.668 -0.415 0.0565
1.639 -0.712 -0.547
1.697 -0.118 0.66
1.7695 0.049 0.397
1.7405 -0.248 -0.2065
1.842 0.216 0.134
1.6515 -1.0525 -0.763
1.92 -0.4265 -0.9955
1.9325 -0.767 -1.2115
1.664 -1.393 -0.979
2.201 -0.141 -1.444
2.2135 -0.468 -1.651
1.945 -1.094 -1.4185
2.226 -0.795 -1.858
1.506 -1.6405 -1.256
1.787 -1.3415 -1.6955
1.348 -1.888 -1.533
2.0745 -1.0325 -2.1235
1.6355 -1.579 -1.961
1.923 -1.27 -2.389
1.06 -1.98 -1.8005
1.3475 -1.671 -2.2285
0.772 -2.072 -2.068
1.647 -1.358 -2.6455
1.0715 -1.759 -2.485
1.371 -1.446 -2.902
0.427 -1.985 -2.258
0.7265 -1.672 -2.675
0.082 -1.898 -2.448
[...]
CELL_DATA 2496
SCALARS cell_data_0 double
LOOKUP_TABLE default
2.80005312983e-08
7.33917878727e-08
2.40015989789e-08
2.40319019772e-07
5.36103956857e-07
5.69851868594e-07
9.73266183999e-08
2.73376278949e-07
1.32394811429e-07
6.13546268014e-07
5.64974084676e-07
2.98675273656e-07
4.32595220332e-07
8.10263253064e-07
6.43297592837e-07
9.01393850379e-07
9.61076465271e-08
3.2225456169e-07
8.66884666144e-07
2.45014295195e-07
3.22590364231e-07
7.05464791701e-07
2.59424582128e-07
3.96788913252e-07
8.05157285598e-07
1.03782938881e-06
4.33591597049e-07
1.03896356635e-06
1.01602748828e-06
1.03395087769e-06
3.08720116848e-07
7.08202595134e-07
1.13579563343e-06
1.29156469944e-06
9.40007088368e-07
1.05273148464e-06
1.11814305591e-06
1.33668202939e-06
9.06299908959e-07
9.59235374584e-07
2.32920931714e-07
1.00131166136e-06
7.05647498918e-07
6.85012290237e-07
7.89191472269e-07
9.38395955721e-07
6.02663357763e-07
9.30926196464e-07
7.71397449632e-07
9.57300066924e-07
9.02440926388e-07
6.67035317775e-07
5.54998270976e-07
6.68061658541e-07
1.02610542272e-06
9.95619403417e-07
9.83180284551e-08
9.88668889871e-09
7.36720368228e-08
2.45454442154e-07
6.27958953346e-07
3.25960816907e-07
2.25766929232e-07
7.69484331253e-07
1.0424952492e-06
1.4607959239e-06
4.01301458085e-07
1.83528072275e-06
1.85818248796e-06
1.46569975612e-06
3.19470788869e-07
9.88602134492e-07
3.8467719082e-07
3.84799275168e-07
1.87067307548e-06
4.65549980771e-07
5.74454362297e-07
8.37810111334e-08
2.02548444522e-06
6.13489763863e-07
8.26530041805e-07
2.65520329913e-08
1.22158602799e-06
6.70910066265e-07
8.11486959029e-07
3.29291644923e-07
1.91264387812e-06
3.66454340143e-07
1.15864630219e-05
9.03562927434e-06
4.14206205626e-06
8.31653731989e-06
1.7953161327e-06
9.13285903502e-07
2.18172824122e-06
2.85867871056e-07
1.60270151344e-09
3.26744120328e-08
3.02221182982e-08
4.14139479885e-08
5.88633710612e-08
6.50410263541e-08
5.09548147043e-08
6.55673979421e-08
4.66778792277e-08
3.94302642727e-09
2.02526515517e-08
1.77312169584e-09
1.25578469965e-08
6.98281013391e-08
1.03956708888e-08
6.270923144e-08
2.98614006138e-08
5.01171069239e-08
5.92443126348e-08
5.23715194876e-08
3.72535994141e-08
4.89355331639e-08
3.72043769749e-08
3.28914669086e-08
1.95969161079e-07
2.14024012684e-07
3.29167544986e-07
2.10909510368e-07
4.26904307243e-07
2.28775775611e-07
2.20077164468e-07
6.08985573819e-07
3.61452612718e-07
5.95467438851e-07
2.25466650798e-07
2.88881648916e-06
4.35689225943e-06
7.88942720985e-07
1.95547506797e-06
1.15824548616e-07
8.34035178587e-06
8.8266739959e-06
6.98795911809e-06
2.11288260796e-06
3.32050895564e-06
1.32286287994e-05
8.75762395619e-06
1.36734178301e-05
4.26136176576e-06
6.31650493115e-06
2.73069077262e-06
4.69742943525e-06
2.13753323064e-06
3.37502870857e-06
2.93216848991e-06
9.20645537204e-07
2.7621384998e-06
2.47284086598e-06
1.42061026934e-06
5.10952558283e-07
3.26882778461e-08
5.02287335256e-08
1.50595013133e-07
1.33643317011e-07
5.86671047621e-08
4.00424014285e-08
9.56737553856e-08
7.39464300411e-08
2.09471012786e-07
6.05969877154e-08
1.07070477305e-07
1.57469868827e-07
1.92684580635e-07
8.72903347506e-08
1.15244364984e-07
1.33484546976e-07
8.8260214352e-08
1.60828581762e-08
1.13544747367e-07
1.37361148287e-07
1.25083884209e-07
5.09147095881e-08
1.69690073784e-07
1.86763830328e-07
2.16381871174e-08
1.09046918786e-07
9.50691214675e-08
2.28812040604e-08
7.35335528244e-07
1.28225632041e-06
4.02243906178e-07
3.5324872426e-07
8.07123167239e-08
1.87421562698e-09
4.41368952026e-08
2.02448191729e-07
1.59019161087e-07
2.72384381724e-07
3.08972620369e-07
1.60331562103e-07
3.94127792473e-07
6.29045995871e-07
2.88930181581e-07
5.14534545369e-07
8.67640531152e-07
1.53282792943e-06
1.88759921435e-06
1.72263564373e-06
3.2786006905e-06
2.24343668185e-06
1.68717569095e-06
3.06957424967e-06
2.1330379211e-07
1.93185484072e-07
3.55443250003e-07
5.25016013004e-07
7.10629277684e-07
2.36462477922e-07
4.28762637983e-07
5.36831562585e-07
9.93415409425e-07
9.61343364311e-07
1.09521659532e-06
9.17764471667e-07
9.76926482692e-07
1.22800142667e-06
1.24184073424e-06
1.44798965333e-06
7.62662575977e-07
3.90327119579e-07
7.3755391104e-07
3.56971497231e-07
1.47029820991e-07
3.98634818077e-08
4.44360261508e-07
2.13865802515e-07
7.77410127718e-07
1.19747009454e-06
8.45007171559e-07
2.0091771864e-06
3.05155693582e-06
3.04200551594e-06
2.0874395116e-06
3.962323586e-06
1.72728456103e-06
2.03584292866e-06
2.15467326567e-06
3.45733787231e-06
1.73994183678e-06
1.3933008059e-06
1.03073029035e-06
1.74022150741e-06
1.64722515947e-06
1.54078682126e-06
1.85917499052e-06
1.5424232359e-06
2.02408968025e-06
1.2713328672e-06
1.20467395507e-06
1.3367184797e-06
8.40247493159e-07
4.19700812192e-06
2.88306768921e-06
2.09193104101e-07
3.06935436857e-06
7.88193849237e-07
5.2085718251e-07
4.72449823479e-06
4.21683430987e-07
9.73099702236e-07
1.11745632126e-06
1.15010255377e-06
6.57104909019e-07
1.83113239743e-07
1.27744186738e-06
4.53900470422e-07
3.53189025135e-07
3.58245389623e-07
3.50511850383e-07
2.48695117988e-09
1.1051789173e-07
1.05794037647e-06
7.44610969486e-07
6.73459683595e-08
4.40259052808e-07
3.52133908849e-07
2.34791128672e-07
5.2283606183e-07
6.00431804128e-07
3.06537805429e-07
2.23645288499e-07
1.66803788449e-07
1.48106657225e-07
6.72908848529e-08
8.93110528938e-09
3.17666002139e-07
4.46946935836e-07
7.89858867534e-09
1.09313883448e-06
6.19655320775e-07
4.92999270588e-07
9.24869530379e-08
2.83679268191e-07
1.00691167551e-06
3.5533982726e-07
2.23165725147e-07
1.18025397516e-06
9.46224159789e-07
1.3221450035e-06
1.10196121297e-06
6.88777162449e-07
2.11018657473e-06
2.16152891919e-06
1.51804294454e-06
9.63531149323e-07
1.68826351312e-06
3.5083364859e-07
1.17061023825e-06
3.04649146102e-06
2.63294785349e-07
7.90315399394e-07
1.19889821621e-06
3.56508510812e-06
1.424783295e-06
4.24310043699e-06
3.48075423323e-06
2.4891166101e-06
3.27349595383e-06
4.17677703777e-06
4.55982225026e-06
2.55825942806e-06
2.28528240997e-06
1.32817505731e-06
2.57615186528e-06
2.4593743632e-06
1.30538987071e-06
1.99529965966e-06
3.49588435259e-06
2.74197562648e-06
3.44144581832e-06
1.57579703254e-06
9.75273472783e-07
8.87210694059e-07
1.63869372854e-06
8.2103170589e-07
1.78235023604e-07
9.04306133234e-07
7.83455636585e-07
4.96695418392e-07
2.26481605355e-08
4.85616244115e-07
6.72760893998e-07
3.84671417331e-07
1.80327200529e-07
1.33123269258e-06
6.53992075504e-07
1.16769782272e-06
6.35594329199e-07
4.30337485728e-07
1.23080417055e-06
5.55126899038e-07
4.22970225177e-07
9.14566008869e-07
4.60068962348e-07
5.34729208548e-06
1.25136116884e-05
3.890015561e-06
1.26674233148e-05
2.20765290179e-05
3.40132238433e-05
9.92793709287e-06
2.23762840253e-05
1.39032179372e-05
2.01339350686e-05
3.77418320619e-06
1.64233123694e-05
4.29272990743e-06
8.81638533993e-06
6.13805565931e-06
6.0631306626e-06
4.98965751408e-06
7.81812310661e-06
5.21846170571e-06
7.0991296176e-06
8.58381170225e-06
2.97858293415e-06
6.10459124995e-06
4.06815289528e-06
3.0582792016e-06
1.55104162986e-05
1.11661427605e-06
2.05226568512e-05
3.74215258706e-06
1.85632323331e-07
8.20699056407e-11
7.32498309507e-06
1.94244868596e-06
1.47819466533e-05
6.76884975407e-06
2.53754311129e-05
1.81705349628e-05
2.12145409553e-05
1.6015356177e-05
3.54241546496e-06
1.16854957677e-05
1.59889216993e-05
7.30180624706e-06
7.15948972241e-06
7.28590736645e-06
1.4181025669e-05
6.3334411456e-06
1.04856655451e-05
2.70265152223e-05
4.03145099429e-05
3.5518998188e-05
4.51600511983e-06
2.00583302511e-06
6.67333706327e-06
1.02410196893e-05
9.65977142184e-08
1.27949637768e-05
2.57253722564e-05
1.81088077668e-05
1.56504687072e-05
1.32804315107e-05
3.47704751363e-05
3.09131352971e-05
2.45291111492e-05
3.16205238927e-05
6.11395506294e-05
3.63896601908e-05
4.22849215262e-05
2.55932126602e-05
6.88521629463e-05
6.92121198759e-05
2.76300648666e-05
2.38637741239e-06
3.62841333413e-06
2.08898229695e-06
3.09553798795e-06
9.52638477334e-07
9.49264904409e-07
1.73962436402e-06
5.64270208025e-07
1.49887041217e-06
4.2991065068e-07
4.73756610242e-07
2.46820654303e-07
4.33659527094e-08
9.45916094573e-08
2.08523004421e-07
6.32144493203e-08
2.00506607608e-06
2.32936096026e-06
8.44289515121e-07
2.71239187323e-06
1.38309059121e-06
1.72215613888e-06
1.5066171592e-06
2.08204204955e-06
1.03566627564e-06
9.03502577244e-07
1.66951010091e-07
1.24553925145e-06
8.07279050048e-07
2.07355194147e-07
3.89930334659e-08
7.12663053604e-07
1.90579265125e-06
1.50553038514e-06
2.91767776311e-06
1.06573202472e-06
2.60548060883e-06
2.13228765045e-06
1.82379717343e-06
2.8435573248e-06
2.24583580515e-06
1.36815199077e-06
1.14732812729e-06
1.335347812e-06
2.01123880039e-06
2.34341759645e-07
2.61126509089e-07
6.48841406043e-07
1.46599049268e-07
3.44745977386e-07
1.27175056392e-07
3.00943326222e-07
1.7517452599e-06
7.68990942959e-06
3.94331197108e-06
7.82371968276e-06
3.53080269221e-05
4.28001697512e-05
6.36661335e-07
4.36084431178e-05
3.47556313445e-06
2.76397155343e-06
2.80025975798e-07
4.05067113225e-06
4.786003703e-06
1.12887632264e-05
1.10098350522e-05
2.11560896413e-06
1.00977517251e-05
7.32927796339e-05
5.41425830437e-05
6.01275131307e-05
3.47492078879e-07
1.37418660379e-06
1.1125870672e-06
2.72716883439e-06
6.356048352e-06
1.33769081197e-05
9.97957670886e-06
1.06497774523e-05
3.94604673389e-05
4.57250007455e-05
6.37331383228e-06
3.91622960274e-05
7.68419843606e-06
6.17951057163e-06
3.48816726948e-06
2.27162587804e-06
1.34517314001e-06
1.08095478185e-06
1.17858593914e-06
1.02062373532e-06
6.66671872481e-07
6.00939053528e-07
6.68006351165e-07
4.96286200666e-07
3.51450909728e-07
2.78565474552e-07
3.33962029231e-07
1.0012818497e-07
9.58127987292e-08
1.29838935567e-07
9.09292768922e-08
3.55552434333e-08
7.71751924275e-08
5.61045382235e-09
6.45783777918e-11
1.19152608424e-07
1.56427536943e-07
5.14633155676e-08
4.17982417963e-07
5.73982599722e-08
8.94016926879e-07
5.44577300097e-07
8.79470086748e-07
7.90042710085e-07
6.64007887436e-07
2.79134809782e-07
5.91986022158e-07
5.66937161557e-07
3.55280915962e-07
4.51818005084e-07
1.33050115233e-06
9.10990364988e-07
2.44653720899e-06
2.76546808151e-06
2.57307982083e-06
8.6736073243e-06
2.21596329499e-06
1.21956474214e-06
1.99281437762e-06
6.91743148879e-06
9.22587481048e-06
5.5720707498e-06
5.04744355153e-06
1.02757848339e-05
4.48912699881e-06
8.21553864438e-06
7.34090693043e-06
1.4534367878e-05
1.2926436503e-05
1.10100409541e-05
1.13154035224e-05
8.54041474771e-06
1.27806124445e-05
1.81348220292e-05
1.77209888178e-05
1.45980805533e-05
1.43199168469e-05
1.96583730269e-05
1.90401694859e-05
1.81419684872e-05
2.32964001092e-05
2.33146825024e-05
1.10905395131e-05
1.7882797513e-05
1.51592884759e-05
2.07065602476e-05
1.12694114604e-05
1.64988524477e-05
1.13552462344e-06
1.92347948904e-06
7.2618536998e-07
1.21566156243e-06
4.18473320472e-07
5.41051438788e-07
3.1655589748e-07
7.63356967295e-08
1.3344641274e-07
1.18015230783e-07
3.97749369497e-07
8.11468185733e-07
1.20614906579e-06
1.01117224336e-06
5.2517569745e-07
9.93834191294e-07
8.39904760157e-07
6.97636477954e-07
1.06559444974e-06
9.09144543305e-07
8.82395272132e-07
3.37330692106e-07
9.89100647885e-07
5.0774631557e-07
2.38720938033e-07
1.63116358255e-07
5.0848263403e-07
1.20035214553e-07
2.94393351118e-07
3.73464077175e-09
6.06912918853e-07
8.78763272339e-07
2.60727541954e-07
2.479488508e-07
5.06276488889e-07
5.10716211159e-07
5.49448069658e-07
1.25527715686e-07
4.39945678733e-07
1.50074149375e-07
9.37492051988e-07
1.28366516835e-06
1.20068214268e-06
2.08105118212e-06
1.8832630641e-06
5.75364297058e-07
9.34462745492e-07
2.23219086212e-06
2.76335268852e-06
5.92465510091e-06
9.07107105402e-06
1.06881282071e-05
7.27348783738e-06
7.83863334588e-06
5.29694530811e-06
3.71602468718e-06
5.20828790189e-06
5.32912782407e-06
2.50320255211e-06
6.87043535929e-06
7.81119583729e-06
4.20904336465e-06
3.90562800043e-06
4.97785657503e-06
6.43348605145e-06
7.81053120321e-06
6.12119236551e-06
8.56989541694e-06
9.15208105528e-06
7.74682312425e-06
7.34003717321e-06
8.58414896843e-06
1.14629456451e-06
1.3516076555e-06
7.86893867371e-07
1.1111282065e-06
1.80676540987e-06
9.66354642685e-07
1.29643944903e-06
1.09101426052e-06
6.06856312594e-06
3.1661122648e-06
4.67613652335e-06
4.10648946593e-06
1.79760050482e-06
1.22514687994e-06
1.82076542888e-06
1.45138892537e-06
1.12089329878e-06
5.83730224421e-07
7.75615878706e-07
6.21730562271e-07
2.9612547928e-07
2.42708782162e-07
4.29992903218e-07
1.88463659172e-08
4.15130649089e-06
2.28417140756e-06
3.65945469131e-06
3.39422040765e-06
3.1737013395e-06
2.46459077089e-06
3.09069089638e-06
2.24256947197e-06
1.18947209394e-06
8.74512673863e-07
1.19411885505e-06
7.09080003442e-07
5.93175727264e-07
7.03206260323e-07
8.6755349456e-07
4.61245255149e-07
2.15617998646e-07
4.12244408051e-07
3.06613704152e-07
6.83445140711e-08
4.07949102782e-07
1.83920903094e-07
1.45404786399e-07
6.17745619671e-08
1.66316673465e-06
3.13179994001e-06
5.04685765921e-06
6.52472378983e-06
6.83738710616e-06
3.93240331849e-06
4.52975703843e-06
4.24848250434e-06
2.55754043835e-06
4.11959580987e-06
1.90969284426e-06
1.79636524786e-05
1.64413451135e-05
4.11720574881e-06
1.31791043769e-06
3.87204497773e-06
3.14254400471e-06
1.28700897108e-06
1.29110569749e-06
1.46499082376e-06
1.49542913999e-06
1.69984077805e-06
1.65604158397e-06
1.71298867533e-06
7.29024754122e-07
1.09312125755e-06
1.84448255379e-06
3.84848765401e-06
2.55112828475e-06
2.06911400495e-06
3.37974270785e-06
3.29512425867e-06
1.64095345903e-06
1.11867942259e-06
2.93284936631e-06
5.72684922301e-07
1.770308007e-06
2.60858566014e-06
3.79422199379e-06
4.01153261957e-06
2.98125932519e-06
2.48618950109e-06
1.36640722465e-06
4.90891033621e-06
1.99128310935e-06
1.90102759976e-07
6.17014234849e-07
4.36834289304e-07
1.24242582747e-06
1.16216926133e-07
4.61689496167e-07
1.39468325377e-06
1.03639967664e-06
3.80505288231e-07
5.63971633019e-07
7.07921263473e-07
7.7099627865e-07
7.31803184582e-07
1.06568952144e-06
1.23378325242e-06
1.93114594849e-06
8.92921714734e-07
9.97252658545e-07
1.39979449571e-06
1.44623643278e-06
1.0604229296e-06
1.89294345095e-06
9.14384596777e-07
1.27316913385e-06
1.06327024311e-06
1.18263093246e-06
1.59808614847e-06
2.25782347035e-06
1.30110249946e-06
1.92764742857e-06
1.26613584087e-06
2.1896024236e-06
1.22629993238e-06
1.02872849281e-06
1.61255799125e-06
1.16091237564e-06
9.82893704305e-07
8.51436142655e-07
8.99697614165e-07
1.52443675738e-06
1.10401681162e-06
6.3614204994e-07
7.1584760978e-07
2.28369462279e-07
4.54561810405e-07
1.87188534071e-08
8.6091056593e-08
3.48107151422e-08
4.66882779643e-07
5.19103657605e-08
3.01546935264e-07
2.01127070675e-07
2.59005612172e-07
1.23496475395e-07
1.45014721666e-07
1.15205457217e-07
3.28402567856e-07
1.6628157671e-07
2.60789794265e-07
2.10743735883e-07
1.4440181148e-07
3.43636279606e-07
3.80366132915e-07
4.91266632689e-07
7.25818645236e-08
3.82755715367e-07
7.67249050708e-07
3.74910437388e-07
1.1572316304e-07
6.20140384658e-08
7.39202144414e-07
8.00397204419e-07
8.48633772258e-09
5.99433863694e-09
3.45915606691e-08
5.20890238483e-08
2.88430385939e-08
3.90856773923e-08
5.45964350624e-08
1.31533149857e-06
9.17519169261e-07
7.58007908101e-07
1.40074297813e-06
4.60497568724e-07
5.35940666939e-07
3.69180436896e-07
4.45311747572e-07
4.47204553202e-07
5.82217782634e-07
8.87714930258e-07
5.97671343821e-07
5.05137571483e-07
4.97840224405e-07
5.09153346645e-07
4.74632479523e-07
6.15154830772e-07
4.05600327091e-07
5.02387296001e-07
3.72454390206e-07
1.19955141732e-06
8.54569032647e-07
1.23067687996e-06
1.02265169609e-06
1.26868395652e-06
1.93924165946e-07
1.83318468056e-07
9.37704850553e-08
7.85109733037e-07
3.33196885765e-07
5.69766414063e-07
7.22257892664e-07
3.86953879133e-06
3.75146925408e-06
1.72565050244e-06
2.64300975137e-06
1.01372972827e-07
5.00795477172e-08
4.04583267354e-08
9.54659983784e-09
8.8801303839e-08
1.03008851185e-07
1.18402700458e-07
5.63422521182e-08
2.5953304658e-05
3.29724476839e-05
3.23363187172e-05
1.60935365873e-06
3.90553186169e-06
8.37752447584e-06
1.32377710695e-05
2.22223813809e-06
5.81535760731e-07
3.72617278568e-07
8.1489466157e-07
1.38618697296e-06
4.45866731916e-07
1.59502269015e-07
2.53669577127e-07
1.76757938627e-07
3.10338900289e-07
2.65439367117e-07
4.98886939967e-07
2.50726160959e-07
3.70344966393e-07
2.19782461594e-07
2.03326722941e-07
3.65359249805e-07
2.1271037484e-08
1.35255586963e-07
3.33297631883e-07
2.18377331548e-07
5.90462391288e-07
3.84179183845e-08
1.85487657832e-08
1.11765971355e-07
8.20362233081e-07
1.23628545463e-06
1.82842874328e-06
1.10886905691e-06
2.7272126772e-06
2.8139771729e-06
3.60759211451e-06
2.35430466396e-06
2.59807010771e-06
2.52977850598e-06
3.60005017145e-06
1.41401031192e-06
2.63360108466e-06
4.10474605254e-07
4.93177561298e-07
1.18456038972e-06
2.2549355662e-06
2.19663443183e-06
3.09412088289e-06
1.5611269233e-06
6.86471942207e-07
1.32735288004e-06
2.03448861035e-06
1.25096032176e-06
6.17885571083e-07
6.14133089504e-07
5.49742383803e-07
8.24257582928e-07
7.34949029667e-07
9.03360389658e-07
9.31937418685e-07
7.52511313362e-07
4.56041052742e-07
1.30522696256e-07
1.74034690434e-07
1.41631908999e-07
2.70927465102e-07
1.10772195691e-06
9.00587840871e-08
1.06970653727e-06
2.32642535964e-06
3.01240246804e-06
2.14017083152e-06
6.75862712815e-07
1.14987496186e-05
1.55525264119e-05
3.68298475169e-06
9.92153031294e-06
2.06329029103e-07
2.98951934838e-06
3.0745940372e-06
3.44628793816e-06
8.79507811787e-06
1.61788223847e-05
9.21393437686e-06
8.70928117018e-06
7.28113618346e-07
8.84695629785e-07
1.3063647313e-07
9.56805623188e-07
2.60205295631e-07
2.88729693967e-06
3.40546220924e-06
2.46330209765e-06
8.63028951504e-07
1.80628371842e-05
2.02283720566e-05
2.12499851513e-05
2.93334669487e-07
5.66040356045e-07
9.02644312015e-07
6.96189676147e-07
9.53388929065e-07
6.32899216988e-07
4.34296365986e-07
4.73506688026e-07
2.3987685609e-07
1.63920584742e-07
3.75513441996e-08
1.3124012549e-07
4.02694243772e-07
5.23095816852e-07
2.52149408151e-07
4.88902094554e-07
6.04508574069e-07
2.20412219173e-06
1.86868966333e-06
1.89407126077e-06
1.24469138251e-06
1.05440384479e-06
1.37205458525e-06
8.71504754751e-07
9.14360278263e-07
1.10941388285e-06
9.20192899968e-07
1.29744853514e-06
6.48495279428e-07
6.68821502251e-07
1.07778227643e-06
8.13495387913e-08
8.74278787891e-07
6.2205044954e-06
4.34409509431e-06
6.60866981161e-06
3.99769785568e-07
2.63947762546e-07
3.66027703868e-07
1.65564507843e-07
4.67373469873e-07
4.48162048391e-07
2.55019108775e-07
4.74449841007e-07
3.91701468215e-06
3.48019654999e-06
5.00948396748e-06
2.16916541873e-06
9.09210088397e-06
6.52911587181e-06
4.43150342763e-06
6.11192750777e-06
6.14270394222e-06
5.75544471644e-06
4.71098194678e-06
6.20198137404e-06
5.71720823927e-07
5.67402246063e-07
7.65661249796e-07
9.08361013541e-07
1.80820151392e-07
2.37225848024e-07
3.60033194261e-08
4.29663645922e-07
5.19490421306e-07
3.74126771931e-07
3.53409603475e-07
3.21257312575e-07
8.76836578159e-06
2.71484412392e-06
2.76702535962e-06
3.4709068265e-06
1.1069154232e-06
7.7161726342e-07
5.10673542333e-07
2.28794714351e-07
1.12722592843e-06
6.77561810424e-07
9.6176166172e-08
3.22952544612e-07
7.87635391817e-08
1.05031975947e-07
1.74002353231e-07
6.86787893672e-08
3.23419886771e-07
1.52619256391e-07
7.44768452676e-07
8.72151331188e-07
7.46520841034e-07
1.28500563418e-07
1.76778809566e-06
4.8984545838e-07
6.95026352332e-07
1.55997525464e-07
7.49219944616e-07
5.44822318702e-07
3.11132843741e-07
9.12770885671e-08
7.59953260063e-07
6.45624716282e-07
7.16421554045e-07
1.97025989029e-07
2.63491920959e-06
8.27778845226e-09
1.27194511488e-06
2.33002525292e-07
8.9402397005e-07
3.9445987791e-06
9.22557767147e-07
8.09724344276e-08
1.4840098796e-06
5.26617350209e-07
4.70040647229e-07
5.22620591515e-09
1.0227730792e-06
8.29832085738e-07
5.74009603629e-07
1.396701012e-07
1.38845435633e-06
1.07343664388e-06
1.28153958407e-06
3.64238049563e-07
1.46920288614e-06
2.00408227911e-07
7.02278018771e-07
4.94982066165e-07
1.36633445506e-07
4.22640208417e-07
1.63165377561e-07
7.47492747518e-08
7.19319816237e-08
1.0065730063e-07
7.84020380029e-07