# vtk DataFile Version 3.0
File Name: Molecule/arg/arg_4.0-2.vtk
ASCII
DATASET UNSTRUCTURED_GRID
FIELD FieldData 1
TIME 1 1 double
0.0
POINTS 680 double
-3.403 0.327 1.604
-3.45 0.103 1.078
-2.981 -0.361 1.858
-3.028 -0.584 1.332
-3.298 -0.003 0.536
-2.876 -0.691 0.79
-2.971 0.024 0.066
-2.549 -0.664 0.32
-2.984 0.046 0.042
-2.471 -0.12 -0.363
-2.484 -0.099 -0.385
-2.2 -0.483 -0.862
-2.216 -0.458 -0.889
-3.25 0.578 -0.258
-2.57 0.022 -0.532
-2.777 0.436 -0.766
-2.39 -0.269 -1.153
-2.617 0.185 -1.409
-3.173 1.207 -0.458
-2.716 0.926 -0.921
-2.55 0.723 -1.58
-2.776 1.74 -0.497
-2.407 1.34 -0.951
-2.211 1.177 -1.613
-2.622 1.932 -0.429
-2.287 1.501 -0.894
-2.142 1.682 -0.83
-1.982 1.439 -1.492
-1.81 1.654 -1.416
-2.655 2.421 0.048
-2.046 2.135 -0.548
-2.075 2.574 -0.12
-1.615 2.438 -0.879
-1.647 2.927 -0.402
-2.495 2.657 0.67
-1.932 2.785 0.438
-1.488 3.163 0.22
-2.925 2.572 1.071
-2.137 2.872 1.156
-2.512 2.798 1.506
-1.863 3.333 1.507
-2.279 3.251 1.894
-3.186 2.284 1.521
-2.739 2.546 1.897
-2.53 2.972 2.328
-3.419 1.801 1.788
-2.888 2.359 1.917
-3.122 1.876 2.185
-2.717 2.558 2.345
-2.979 2.017 2.644
-3.567 1.179 1.827
-3.133 1.725 2.369
-3.262 1.186 2.403
-3.107 1.793 3.017
-3.25 1.192 3.055
-3.408 0.559 1.798
-3.123 0.649 2.378
-3.095 0.593 3.027
-3.105 0.348 2.085
-3.1 0.088 1.867
-2.97 0.105 2.152
-3.02 0.504 2.546
-2.901 0.29 2.606
-2.978 0.383 3.085
-2.865 -0.346 2.113
-2.52 -0.7 2.425
-2.794 0.071 2.575
-2.491 -0.24 2.849
-2.645 0.041 3.387
-2.46 -1.117 2.184
-2.148 -0.9 2.844
-2.09 -1.3 2.613
-2.003 -1.142 3.367
-1.937 -1.6 3.103
-2.268 -1.45 1.888
-1.906 -1.62 2.328
-1.726 -1.965 2.777
-1.967 -1.659 1.57
-1.617 -1.821 2.023
-1.396 -2.195 2.428
-1.592 -1.721 1.268
-1.257 -1.88 1.733
-0.984 -2.263 2.097
-2.026 -1.588 0.931
-1.237 -1.838 0.739
-1.646 -1.713 0.421
-0.96 -2.23 0.303
-1.437 -2.084 -0.068
-2.342 -1.257 0.596
-1.944 -1.402 0.106
-1.784 -1.721 -0.435
-2.487 -0.785 0.321
-2.08 -0.956 -0.154
-1.943 -1.202 -0.738
-2.189 -0.632 -0.224
-2.248 -0.516 -0.225
-2.131 -0.618 -0.861
-2.114 -0.682 -1.181
-1.927 -1.264 -1.052
-2.312 -0.441 -1.376
-2.121 -0.506 -1.916
-2.042 -0.816 -1.214
-1.838 -0.886 -1.79
-1.682 -1.348 -1.746
-1.975 -0.256 -2.322
-1.864 -0.768 -1.888
-1.672 -0.441 -2.421
-1.897 0.192 -2.527
-1.57 0.147 -2.691
-1.996 0.646 -2.441
-1.495 0.306 -2.776
-1.602 0.798 -2.682
-1.198 0.386 -3.152
-1.328 0.981 -3.039
-2.011 1.039 -2.18
-1.619 1.224 -2.399
-1.348 1.496 -2.696
-1.72 1.257 -2.235
-1.479 1.817 -1.75
-1.107 2.057 -2.211
-1.346 2.153 -1.415
-1.642 2.007 -1.116
-1.319 2.584 -1.178
-0.816 3.013 -1.267
-1.111 2.259 -1.642
-0.623 2.675 -1.729
-0.543 2.537 -2.312
0.466 3.148 -0.891
-0.416 2.926 -1.599
0.331 3.005 -1.38
-0.131 2.956 -2.042
0.328 3.005 -1.907
-0.002 3.1 -2.533
0.456 3.148 -2.398
-0.048 3.337 -3.001
0.699 3.415 -2.782
0.833 2.913 -0.61
0.619 2.806 -1.364
0.976 2.577 -1.092
0.892 2.689 -1.891
1.303 2.425 -1.576
1.057 2.557 -0.305
1.192 2.232 -0.796
1.553 2.026 -1.234
0.979 2.767 0.195
1.539 1.918 0.039
1.462 2.128 0.539
0.737 2.845 0.68
1.22 2.206 1.024
0.406 3.093 0.833
0.71 2.572 1.142
0.419 2.789 1.277
0.841 2.425 1.643
0.539 2.651 1.783
1.112 2.426 2.108
0.748 2.699 2.276
0.011 3.456 0.651
0.05 3.076 1.433
-0.284 3.383 1.279
-0.034 3.266 2.099
-0.415 3.616 1.924
-0.504 3.599 0.465
-0.72 3.504 1.122
-0.913 3.754 1.744
-1.038 3.495 0.311
-1.173 3.416 0.991
-1.429 3.653 1.595
-1.554 3.135 0.914
-0.08 3.426 2.677
0.304 2.919 2.221
0.258 3.08 2.801
0.695 2.881 2.933
-0.313 3.4 3.231
0.024 3.055 3.358
0.431 2.852 3.563
-0.687 3.194 3.654
-0.352 2.847 3.783
0.006 2.617 4.044
-1.222 3.175 3.77
-0.58 2.815 3.881
-1.2 2.794 4.016
-1.756 3.136 3.659
-1.82 2.748 3.887
-2.199 3.083 3.341
-2.333 2.687 3.518
-2.473 3.025 2.87
-2.65 2.619 2.973
-0.832 2.373 4.277
-0.242 2.183 4.431
-1.061 1.806 4.483
-0.466 1.628 4.634
-1.434 2.302 4.313
-1.452 1.611 4.604
-1.773 2.038 4.456
-1.892 2.602 3.976
-2.169 2.297 4.166
-2.355 2.652 3.532
-2.568 2.341 3.783
-2.74 2.445 3.06
-2.9 2.162 3.376
-1.464 1.095 4.666
-0.956 1.592 4.533
-0.968 1.074 4.596
-0.48 1.041 4.705
-1.655 0.731 4.634
-0.882 0.784 4.614
-1.066 0.434 4.582
-0.333 0.517 4.869
-0.555 0.096 4.831
-2.14 0.383 4.441
-1.246 0.178 4.538
-1.7 -0.148 4.358
-0.878 -0.357 4.785
-1.429 -0.753 4.566
-2.498 0.133 3.99
-2.035 -0.382 3.936
-1.836 -1.037 4.053
-2.172 -0.468 3.371
-0.383 -0.749 5.065
-0.05 -0.304 5.117
0.164 -1.171 5.088
0.507 -0.734 5.141
0.4 -1.671 4.946
0.615 -0.976 5.092
0.839 -1.451 4.956
1.043 -0.806 5.264
1.279 -1.306 5.122
0.636 -2.087 4.632
1.063 -1.845 4.659
1.514 -1.722 4.808
0.844 -2.371 4.183
1.26 -2.115 4.232
1.723 -2.007 4.359
1.002 -2.493 3.648
1.411 -2.231 3.724
1.881 -2.129 3.824
1.092 -2.439 3.086
1.496 -2.18 3.191
1.971 -2.075 3.263
1.104 -2.215 2.561
1.508 -1.967 2.692
1.983 -1.85 2.738
1.037 -1.846 2.131
1.444 -1.616 2.284
1.916 -1.481 2.307
0.647 -2.269 2.118
0.798 -1.688 1.555
0.487 -2.024 1.545
0.806 -1.676 0.912
0.496 -2.012 0.902
1.061 -1.813 0.337
0.67 -2.236 0.324
0.119 -2.499 2.107
0.068 -2.206 1.536
0.076 -2.194 0.893
0.142 -2.466 0.313
-0.457 -2.497 2.099
-0.39 -2.205 1.53
-0.381 -2.193 0.887
-0.434 -2.464 0.306
-0.808 -2.019 1.528
-0.8 -2.007 0.885
1.48 -1.078 0.031
1.043 -1.422 0.814
1.323 -0.93 0.61
1.205 -1.217 1.373
1.436 -0.812 1.205
1.517 -1.238 1.905
1.797 -0.747 1.701
2.335 -0.746 2.002
1.639 -0.712 -0.547
1.476 -0.549 0.311
1.615 -0.229 -0.195
1.697 -0.118 0.66
1.842 0.216 0.134
1.693 -1.21 -0.838
1.805 -0.426 -1.067
1.853 -0.872 -1.327
2.201 -0.141 -1.444
2.253 -0.62 -1.722
1.568 -1.637 -1.21
1.741 -1.254 -1.66
2.133 -1.029 -2.079
1.279 -1.936 -1.614
1.483 -1.521 -2.022
1.857 -1.315 -2.467
0.866 -2.068 -1.998
1.113 -1.639 -2.366
1.46 -1.442 -2.835
0.381 -2.015 -2.311
0.679 -1.593 -2.646
0.995 -1.392 -3.136
-0.112 -1.786 -2.513
0.238 -1.387 -2.827
0.523 -1.172 -3.329
-0.548 -1.409 -2.576
-0.152 -1.05 -2.884
0.104 -0.811 -3.39
-0.822 -1.287 -2.506
-0.408 -0.948 -2.806
-0.669 -0.831 -2.739
-0.336 -0.591 -3.197
-0.616 -0.466 -3.125
-1.31 -1.347 -2.194
-0.988 -0.705 -2.664
-1.485 -0.767 -2.346
-1.322 -0.31 -2.728
-0.95 -0.071 -3.189
-0.311 -0.212 -3.619
0.128 -0.454 -3.788
-0.16 0.24 -3.931
0.27 -0.03 -4.081
0.101 0.716 -4.098
0.516 0.418 -4.238
-0.411 1.252 -3.909
0.377 1.347 -4.4
0.11 1.626 -4.301
-0.398 1.946 -3.588
0.117 1.987 -4.134
-0.106 2.463 -3.53
-0.202 2.855 -2.684
0.028 3.029 -3.665
0.173 2.486 -3.833
0.9 3.106 -3.671
0.85 2.546 -3.838
0.989 2.064 -4.14
1.267 2.733 -3.406
0.819 3.383 -2.845
1.204 2.948 -2.765
1.749 2.404 -3.353
0.902 2.914 -2.485
0.749 2.956 -2.405
1.123 2.627 -2.01
1.688 2.19 -1.733
1.668 2.681 -2.526
1.962 2.454 -2.382
2.133 1.624 -1.992
2.194 2.159 -2.516
2.141 1.301 -1.585
2.428 1.273 -2.257
2.435 0.969 -1.874
2.042 0.907 -1.262
2.342 0.599 -1.57
1.911 1.516 -1.257
1.855 0.911 -0.632
1.743 1.428 -0.628
1.976 0.918 0.014
1.858 1.462 0.018
1.44 1.861 -0.608
1.861 0.778 -0.544
1.751 0.201 -0.446
1.991 0.665 -1.105
1.878 0.074 -1.004
2.497 1.237 -3.182
2.241 1.687 -2.422
2.29 1.662 -3.078
2.232 2.14 -3.028
1.83 1.363 -3.817
1.817 1.751 -3.528
1.863 2.209 -3.379
1.382 0.739 -4.338
1.413 1.57 -3.947
1.095 1.128 -4.316
1.103 1.869 -4.167
0.855 1.524 -4.455
0.482 0.901 -4.245
1.404 2.01 -3.684
1.315 2.161 -3.664
2.007 0.383 0.735
1.766 -0.192 1.22
2.031 0.236 1.284
1.991 -0.414 1.693
2.267 0.032 1.759
2.675 -0.196 2.083
2.074 0.941 0.928
2.088 0.713 1.449
2.326 0.528 1.931
2.749 0.417 2.295
1.884 1.434 1.198
1.926 1.135 1.68
2.158 0.967 2.172
2.541 0.959 2.592
1.624 1.884 1.117
1.755 1.469 1.75
1.503 1.904 1.671
1.842 1.579 2.299
1.557 2.073 2.21
1.11 2.216 1.58
1.886 1.845 2.759
2.132 1.224 2.493
2.174 1.477 2.929
2.585 1.225 3.051
1.814 2.002 3.263
2.105 1.625 3.407
2.513 1.382 3.555
1.633 2.033 3.763
1.933 1.655 3.881
2.331 1.413 4.055
1.359 1.937 4.21
1.674 1.563 4.305
2.058 1.316 4.502
1.021 1.721 4.561
1.354 1.359 4.638
1.72 1.101 4.853
0.651 1.408 4.781
1.002 1.062 4.847
1.35 0.788 5.074
0.073 1.245 4.841
0.82 0.891 4.947
0.23 0.725 5.008
0.672 0.387 5.179
1.205 0.294 5.301
0.564 -0.173 5.245
1.099 -0.256 5.367
-1.999 2.782 0.776
-1.065 -1.824 1.176
1.419 -0.545 0.696
1.7 -0.166 -0.791
-3.196 2.043 -0.114
-3.592 1.578 -0.026
-3.592 1.985 0.326
-3.196 2.357 0.319
-3.592 2.137 0.843
-3.196 2.469 0.843
-3.592 1.985 1.36
-3.85 1.69 0.843
-3.85 1.435 1.283
-3.592 0.264 0.574
-3.85 0.672 0.843
-3.85 0.927 0.403
-3.592 0.555 0.121
-3.592 1.045 -0.103
-3.85 1.435 0.403
-3.94 1.181 0.843
-3.85 0.927 1.283
-3.592 0.555 1.565
-2.722 -1.154 1.098
-2.722 -1.154 1.636
-2.722 -0.863 2.089
-2.326 -1.497 1.099
-2.482 0.597 -1.975
-2.482 0.047 -1.975
0.763 3.18 -0.086
0.367 3.4 -0.61
0.367 3.512 -0.086
0.367 3.4 0.438
-0.118 3.59 -0.615
-0.118 3.688 -0.086
-0.634 3.59 -0.615
-0.634 3.688 -0.086
-1.119 3.512 -0.086
-1.119 3.4 -0.61
-1.119 3.086 -1.043
-0.667 3.796 3.018
-0.667 3.906 2.497
-1.198 3.918 2.998
-1.198 3.65 3.431
-1.198 3.918 1.996
-1.198 4.012 2.497
-1.729 3.906 2.497
-1.729 3.796 3.018
-1.729 3.482 3.449
-1.729 3.796 1.976
-2.179 3.606 2.497
-2.179 3.474 2.987
-1.895 1.335 4.734
-2.426 1.603 4.572
-2.426 1.073 4.627
-2.426 2.064 4.305
-2.876 2.056 3.843
-2.876 1.697 4.202
-2.876 1.207 4.334
-2.876 0.717 4.202
-2.426 0.566 4.463
-3.176 1.738 3.353
-3.176 1.472 3.813
-3.176 0.942 3.813
-2.876 0.358 3.843
-3.176 0.676 3.353
-3.282 1.207 3.353
0.578 -2.491 4.272
0.08 -2.472 4.525
0.08 -2.776 4.08
0.578 -2.727 3.81
0.08 -2.934 3.566
0.578 -2.808 3.297
0.08 -2.934 3.028
0.578 -2.727 2.784
0.08 -2.776 2.514
0.08 -2.052 4.861
-0.44 -2.052 4.861
-0.44 -2.472 4.525
-0.44 -2.776 4.08
-0.44 -2.934 3.566
-0.44 -2.934 3.028
-0.44 -2.776 2.514
-0.44 -1.551 5.057
-0.938 -1.149 4.956
-0.938 -1.662 4.875
-0.938 -2.124 4.639
-0.938 -2.491 4.272
-0.938 -2.727 3.81
-0.938 -2.808 3.297
-0.938 -2.727 2.784
-0.938 -2.491 2.322
-1.374 -1.149 4.675
-1.374 -1.677 4.571
-1.374 -2.124 4.272
-1.374 -2.423 3.825
-1.374 -2.527 3.297
-1.374 -2.423 2.769
-1.714 -1.289 4.273
-1.714 -1.795 4.042
-1.714 -2.095 3.575
-1.93 -1.406 3.742
1.624 -1.33 -0.389
1.408 -1.719 -0.089
1.408 -2.019 -0.556
[...]
CELL_DATA 1356
SCALARS cell_data_0 double
LOOKUP_TABLE default
1.94424362724e-08
3.17848828187e-09
6.21117090657e-09
1.15144766761e-08
3.92936804651e-08
1.05667173413e-08
3.90285470189e-08
2.05836713863e-08
1.65120625737e-08
7.81120053093e-09
8.54440891071e-08
7.08994194319e-08
1.41589320941e-07
3.891307925e-08
3.81654525264e-09
1.24595940463e-08
3.07146789233e-09
7.38094682889e-08
4.82913836504e-08
6.54788297172e-08
6.62382678598e-08
1.27994973581e-07
3.80046652726e-08
3.96994362988e-08
2.46984072106e-08
8.3265712414e-09
6.87840120782e-08
7.95935318022e-08
8.09944471522e-08
1.01544401191e-07
8.28710310211e-09
4.39591779136e-08
5.51081469017e-09
2.12797983705e-08
1.44880430062e-08
1.36248235917e-08
3.06812543481e-08
1.71970583756e-08
4.66002301252e-09
2.43268826014e-08
1.46265174568e-08
5.85445664393e-09
5.85112357071e-09
6.74438487561e-09
1.69598907139e-08
1.50078746393e-09
3.10263163203e-09
5.97082410501e-09
2.97375730474e-08
2.35610183617e-09
3.25136679159e-08
3.46263852908e-08
6.66044187816e-09
8.9092164128e-09
1.71799834515e-09
1.00646344999e-08
9.62669214864e-09
1.63361357943e-08
2.33148352601e-08
1.75899855709e-08
4.55742230778e-09
6.23716597144e-09
2.21991400544e-08
6.99194045118e-08
3.7887957133e-08
5.1557570727e-08
2.69860524368e-07
1.59821671587e-07
9.18229635e-07
8.19790339583e-08
5.4836993062e-08
1.58415499735e-07
2.711912632e-07
1.28147382633e-07
9.37713095916e-08
3.72907204268e-08
1.34710157711e-07
5.30680068615e-08
9.93748721217e-08
4.4576109832e-08
4.75588089791e-08
3.70765203536e-08
3.43790356548e-09
6.58535814761e-08
1.01533879055e-07
3.65284339813e-08
2.5387551954e-08
2.62441516552e-08
4.1798908142e-08
2.97106076581e-09
7.44079626939e-08
6.70366887082e-08
1.58355347926e-08
2.59405475135e-09
4.71323693681e-08
3.64612018614e-08
1.94751774268e-08
2.81365098527e-08
5.55546144108e-08
6.08796799885e-08
1.86744041128e-08
7.03768152944e-09
3.74498298769e-09
7.77923460996e-08
4.2402535189e-08
5.00183001954e-08
9.28762933709e-09
3.37917652521e-08
6.4602535562e-08
7.79330315779e-08
8.80467985201e-08
3.31044263435e-08
1.55814183085e-07
2.5595367253e-08
8.95906430373e-08
1.4168640977e-07
4.72745589734e-09
8.03690233932e-08
2.3513519387e-08
2.89376353505e-08
1.27102990503e-07
7.29766840565e-08
3.55628429996e-08
7.21351683271e-08
1.54041944902e-08
3.01517660373e-08
2.35601505151e-08
6.78824768261e-08
3.22590408984e-07
2.09416462084e-07
3.06080660551e-07
5.94691684407e-09
1.36470114717e-07
2.1925529541e-08
6.50013568762e-08
9.94346466612e-08
1.52612976111e-07
1.63553148149e-06
1.24810155019e-09
3.74790476513e-08
3.17361643596e-07
1.78658787681e-07
5.68712760355e-08
5.19746490841e-08
2.37096921216e-08
1.14630538042e-07
2.27834090406e-08
2.57773111583e-08
6.13319788301e-09
7.81179056413e-09
1.18865376342e-08
6.82130230598e-09
8.86511084615e-09
2.5164857435e-08
1.67181164566e-08
7.95766536866e-08
4.92805838327e-09
1.56164517963e-08
1.68887134644e-08
2.17708277225e-08
4.39123505942e-09
5.29764235857e-09
6.25507542776e-09
3.71519421205e-09
7.93522615551e-09
6.25654911542e-09
6.78819577568e-09
2.80328189839e-09
1.46324290574e-08
1.28813317684e-08
4.87244454416e-09
4.60424781897e-09
1.37183678331e-09
3.43103525654e-08
3.26223174928e-08
3.41876878103e-08
1.90214102231e-09
2.65373521763e-08
1.04524425946e-07
2.23654351806e-07
8.29862044575e-09
1.34307833706e-08
3.13093852426e-08
1.28707894163e-07
2.30178367042e-09
1.53866378705e-08
2.35965754096e-09
2.76897498543e-09
3.89107927047e-10
6.42817101276e-09
3.93500060801e-09
4.76681783237e-09
8.59052518367e-09
1.55885608349e-08
2.74278827257e-08
4.60995129823e-08
7.67705528863e-09
2.34560849892e-08
1.27573422662e-08
6.27754107551e-09
1.32160244527e-10
2.39643318052e-10
4.19160856192e-09
5.20095506128e-10
5.71454984192e-09
3.99731024003e-09
1.07985446602e-09
1.03609823731e-08
9.69234635106e-09
1.82811560417e-08
6.4026235579e-09
2.37646235212e-08
4.19040243008e-09
7.64045215004e-09
1.41991649236e-08
3.55602727703e-10
6.81923400822e-09
5.14273250735e-08
1.07347923987e-07
3.64121578317e-08
3.73699578722e-08
1.1472163485e-07
2.33170502396e-07
2.10595215916e-07
1.29818043475e-07
3.0208466064e-07
1.70989037413e-07
4.9106041326e-07
5.5612913152e-08
4.17024907394e-11
4.22274790193e-08
6.46347822484e-09
2.25150630296e-08
3.38958713122e-09
2.78626218585e-08
4.41295385258e-08
5.96194368584e-09
1.16765583949e-07
1.92983763511e-08
8.05610302445e-08
1.53903629118e-07
2.75676575908e-07
1.22780227966e-07
3.45369719343e-08
1.47147738579e-07
1.57429656426e-07
1.03730847695e-07
1.06662172877e-07
2.59809331009e-07
6.92160137063e-08
2.22163661666e-08
1.01845617768e-06
1.35970051159e-07
3.92339163181e-09
1.0800747475e-07
2.99246855385e-07
1.95115671948e-08
1.81751436394e-08
3.57175328299e-08
3.79782695004e-08
8.61189755044e-08
6.00673434926e-08
1.39257292944e-07
3.38103025643e-08
3.51113348827e-07
7.03080209683e-08
8.70563801942e-08
3.0195390363e-09
3.47384192542e-08
1.64665918876e-08
1.47980259058e-07
6.35476357521e-08
4.98051523275e-08
8.78847394851e-09
3.5833538893e-08
4.93879452119e-08
1.00074927078e-07
3.02954316405e-08
6.96161974043e-08
1.42881286561e-08
8.88005440826e-08
5.97056523482e-08
7.32226833522e-08
6.32836639947e-08
3.74837211792e-07
1.81542879049e-07
6.34625474634e-08
3.65175316684e-08
1.96511561963e-08
5.44205470151e-08
6.4674719028e-09
4.57547582439e-08
5.99795989707e-08
8.62554737977e-08
1.41268303063e-09
1.02445168166e-09
2.73843291076e-08
7.67029739151e-08
1.00212923776e-07
1.33611799479e-07
1.28693467902e-08
9.51135032187e-08
7.16983691584e-09
1.28201596786e-07
2.35821976818e-08
7.96538491209e-08
3.69634500758e-08
1.04898402125e-07
3.89849559979e-08
6.60908838571e-08
7.27361073998e-08
7.37016751335e-08
6.17840788112e-08
4.32791861028e-08
1.22904532636e-07
6.24212738828e-08
7.45676643963e-08
2.26835752419e-08
1.89326707106e-07
4.99503142928e-09
8.78207677557e-08
1.90020323297e-08
2.80530619653e-07
1.01757528991e-07
1.75080482755e-08
3.65262824585e-08
4.63374980093e-08
2.88843509905e-08
1.03270865029e-08
3.90045437198e-08
2.7215915328e-09
5.10310147183e-08
2.99367405705e-08
6.35335614449e-09
8.43542366361e-09
6.22847407846e-09
8.34929473673e-08
1.00225212966e-07
1.64865972986e-07
8.29896412388e-08
3.2753698755e-07
6.57091999373e-08
2.49323208877e-07
6.33725400893e-07
2.42511386717e-07
1.04179716191e-07
5.96003739654e-07
5.92255719608e-07
1.68012492066e-06
1.02506176337e-06
1.50151409525e-06
2.27225096889e-06
1.78526152303e-07
5.91252286539e-07
3.40855531997e-07
5.96336351252e-09
3.085201838e-08
4.42899463563e-08
1.34969091705e-06
7.55088038363e-07
1.44837107773e-06
1.2273092751e-06
3.93085572013e-08
1.70567269537e-07
9.03991075267e-08
8.63672650904e-08
6.17836357525e-08
5.20808060366e-08
4.40480716983e-08
4.97043480988e-08
2.17761897599e-08
1.67964824899e-07
7.20213816432e-08
1.20196602105e-08
2.42530266854e-08
5.95018807106e-08
7.88218138809e-08
1.48483404116e-07
4.80297329809e-08
2.85515552214e-07
1.09220803076e-06
1.28742466379e-07
1.73643071309e-06
2.80791783669e-07
2.661174397e-07
6.32076050542e-07
8.51106363578e-08
1.31836113424e-06
1.71487679968e-06
8.73649902118e-07
2.8635063767e-06
8.32735651191e-07
5.18933833631e-08
6.16123265811e-07
9.45893388245e-08
4.86748807916e-07
1.55411088679e-07
1.86617966582e-07
3.96215562282e-08
2.34918031986e-07
1.61069383133e-08
2.67284201638e-08
1.91599353783e-08
1.54011457593e-08
7.68616128593e-09
3.13631984172e-09
2.00662930193e-08
5.21938833561e-10
1.69509026561e-08
2.041969715e-08
3.74537337712e-08
7.56244270464e-08
2.21758852112e-08
1.8091896649e-08
6.21785011562e-09
2.37535688428e-08
1.12358118231e-08
1.10122347096e-07
3.10478895691e-09
3.84393080074e-08
7.05972614096e-08
5.67193353659e-08
1.90040255107e-08
6.68151770081e-09
6.95191736919e-08
7.06254048651e-08
4.58376755092e-08
2.29172543859e-07
7.65466243785e-08
1.35879758713e-07
2.15298530853e-07
1.60609326744e-07
5.91282909419e-08
9.0507583232e-08
1.52212183103e-07
1.83742218942e-08
7.00402267663e-08
4.66457655864e-07
1.43882362269e-07
5.10206242473e-08
1.60462728614e-07
3.64520179267e-07
6.18230210951e-09
5.98868186994e-08
1.09270716762e-08
1.15001981287e-07
2.10096103026e-08
5.31287851636e-09
9.15471908276e-09
4.61969037035e-09
2.61183224192e-08
1.47512325381e-08
3.41942181128e-09
1.38277954616e-08
1.70397559399e-08
6.31216405548e-09
6.90654425127e-09
4.10093123497e-09
3.544623933e-08
1.23380039875e-08
1.86102076501e-08
1.28425620525e-09
6.18546268246e-08
9.07015085756e-08
5.57191504321e-08
1.53361507279e-08
4.27494130123e-08
4.86208720022e-08
1.29389292615e-08
1.25947385092e-08
6.26774292347e-08
1.98031504493e-08
8.40632351209e-08
1.73821468765e-08
1.57119631848e-08
2.72222039013e-08
3.44743522513e-08
8.61061264676e-09
2.43900908839e-09
1.60786489032e-08
3.71769548461e-09
9.39766313104e-09
1.1418814487e-08
1.49501478617e-08
7.84520505804e-09
1.13040030493e-08
1.69340857078e-08
1.99909984822e-08
1.38869445229e-08
3.11924092971e-08
2.40290095059e-08
3.43912042264e-08
4.50779253072e-07
7.80217131851e-07
3.76601381355e-07
7.61183755414e-07
3.38234576714e-08
3.2130456085e-08
7.44793814371e-08
1.3379283955e-07
1.36619008343e-09
1.55665527775e-08
2.78221919935e-08
5.99080267478e-08
3.55189514435e-08
7.80947557351e-09
2.3220485766e-08
2.94360580776e-08
3.88702648627e-08
3.64388184758e-08
5.67412332273e-08
7.18752960943e-09
8.86209528823e-08
5.80969354312e-08
9.88211491477e-08
1.27203361397e-07
1.00049562281e-08
2.65733474243e-07
1.12939461203e-07
7.49895405742e-07
2.51634801401e-07
5.39611853607e-08
1.77633096696e-07
7.52185828714e-07
1.54697256675e-07
3.13598384666e-07
1.56365534283e-07
9.47294157906e-08
1.35985324234e-07
4.48238577395e-08
8.15773929544e-08
1.30933680701e-07
1.92926823887e-08
1.65326430979e-08
2.93895149456e-08
2.96696905246e-09
6.20679646145e-08
1.21694105428e-08
4.14291649836e-09
3.90282210724e-08
7.26394186983e-09
1.21142423194e-08
4.56789176178e-10
3.79636395048e-09
3.31281884149e-09
1.69897848096e-08
1.87159677755e-09
8.15858232293e-10
3.88526890923e-08
6.96466746505e-09
2.65244285528e-09
3.71369134277e-09
6.87201504521e-10
1.70905100262e-08
1.53900297459e-08
1.46884689225e-09
1.20481072775e-08
2.01825420624e-07
1.60879797663e-07
5.8481963865e-08
2.50167106396e-08
1.99617050751e-08
3.39440093391e-08
2.29824596716e-08
4.52035805426e-08
5.13091139079e-08
2.17355119459e-07
1.06594545441e-07
3.23808106917e-08
3.21949259515e-08
8.52221573564e-08
5.69932832312e-09
8.45319880301e-08
2.45637508482e-08
7.09063312384e-08
9.18728459258e-09
1.32581397535e-08
5.03724295114e-08
4.2822506467e-09
2.66271912738e-08
1.99374163725e-08
2.43070246137e-08
5.26650987995e-07
7.37231115832e-07
5.77857967585e-07
1.41367054932e-06
2.38276461874e-06
8.43119967991e-07
2.1085776916e-09
8.44408575741e-07
2.01397569484e-07
2.65383521812e-07
1.59463008139e-07
1.47471696742e-07
4.38404099193e-08
6.75991115574e-08
2.87980791109e-08
5.70492619318e-09
4.13737217027e-08
4.26824407364e-07
8.58958559937e-08
7.44769447295e-07
1.58280574477e-07
6.06189356525e-08
3.8791281926e-08
1.57914811549e-07
6.08487540851e-08
3.03321093635e-08
1.33888732415e-08
1.03061581447e-08
7.56087768876e-09
2.52168339345e-09
4.35894681828e-09
8.60378044442e-09
1.98223683947e-09
8.6815504557e-10
1.29606582663e-09
6.35547891539e-09
3.57473088633e-09
1.35621166909e-09
2.52160067358e-09
9.69074260649e-10
1.36042294624e-09
9.81263436531e-10
3.7199094242e-09
1.57894998898e-09
2.95612144004e-10
9.94275687975e-10
9.96286888987e-10
3.74350508821e-11
1.42549816415e-08
6.91456242154e-10
7.15569411277e-09
6.4982052275e-09
5.39952842428e-09
1.88962909817e-09
3.35056452896e-09
9.41843148694e-09
2.427325793e-09
2.63590635982e-09
1.54485987225e-09
7.3457795378e-09
4.51197297334e-09
4.72076136234e-09
2.55934481551e-08
1.46116338653e-08
2.06147759721e-08
1.68176825034e-08
8.07280266919e-09
1.53727892032e-08
7.35177244861e-10
7.96115377671e-09
2.31708425139e-08
2.10805575227e-09
2.12057506181e-08
4.4046578917e-09
6.44709942771e-09
1.16504832071e-08
1.14753110957e-08
1.21574482954e-09
1.3772459082e-08
2.51219540183e-08
1.36900546492e-11
2.04438639923e-08
1.33899467697e-08
3.91248550424e-08
3.75557061542e-08
3.5180402179e-08
6.26011285714e-09
5.00112207768e-08
1.60714617867e-08
7.65147862398e-08
2.12544851038e-09
4.22718430703e-08
4.18722633194e-08
5.79565429611e-08
6.76514284356e-09
1.70074787997e-08
4.77075820596e-08
7.74847250618e-08
1.68613818993e-08
1.24555284461e-07
6.99970024455e-08
5.71426678036e-08
1.02477094255e-07
4.47093949989e-08
7.17043215407e-08
3.42945060397e-08
5.90638063511e-08
2.15747942044e-08
1.83989395844e-07
9.33139850954e-08
8.92883170763e-09
3.00260446081e-08
8.79068737434e-08
9.38426539569e-09
2.54965237534e-08
2.32766969735e-08
8.03440700763e-09
4.33196193604e-09
2.54177335384e-09
4.48207343079e-09
4.36638474439e-09
2.76951304267e-09
5.11538303714e-09
3.36992317138e-09
1.44780806645e-08
1.70747086612e-08
1.58181844214e-08
1.54968958496e-08
6.28711403723e-09
1.32039633774e-09
3.56782326485e-09
9.66199657675e-09
3.08102913318e-09
3.29184536361e-09
4.18605197235e-08
1.87467738679e-08
3.6169578843e-08
4.26354306542e-08
8.35888680415e-08
1.33685043979e-07
3.3943586644e-08
3.30217771366e-08
1.48799034004e-08
3.11003439022e-08
3.52439243231e-08
2.66379413492e-08
8.51854482904e-08
1.29157106612e-09
8.82441343039e-09
7.64582948612e-09
1.71380830682e-09
1.99581834828e-09
5.92507639607e-10
1.34307515592e-09
2.0322558502e-10
7.85480428598e-11
1.31538100747e-10
1.57912727663e-10
3.95397232226e-10
2.22400078963e-09
1.01611582675e-08
3.26753966655e-09
1.79490703347e-08
3.00509926456e-09
8.98522305158e-09
2.80280050745e-09
5.53439521339e-09
4.17634178601e-09
8.79271861483e-11
1.24494753664e-09
1.0187332919e-08
1.30072937238e-08
6.84739509173e-09
1.66877505046e-08
4.25149655961e-09
1.16698690957e-08
1.05518264959e-08
1.09261038117e-09
3.59901106519e-10
9.38374294076e-09
1.20357779175e-08
2.39118150109e-09
1.87481362487e-08
2.57420937306e-08
1.2530691721e-08
3.69615452832e-09
1.42295262585e-09
5.26900185376e-09
6.27035146775e-09
4.38792258306e-09
8.89611750035e-09
8.85877676577e-09
1.56441209496e-08
2.11068555604e-08
9.22928824065e-09
3.223571172e-09
2.57977397412e-09
9.21000795825e-10
3.04947293286e-09
2.13932365624e-09
1.29061318746e-08
3.32735278451e-09
5.3740062133e-11
4.42398760802e-09
5.00575672141e-09
7.41940320732e-10
1.63408761106e-08
5.84110639873e-09
3.86342276685e-09
3.21978188127e-09
1.71834877834e-09
4.57328632339e-09
7.57494882326e-09
1.72453219128e-08
2.00087623983e-08
1.29552371898e-09
4.42783384668e-10
3.03885668476e-09
4.01493050793e-09
4.08171208998e-09
4.23561397675e-09
1.60332524721e-08
8.61353979606e-09
5.11975246147e-09
7.36226263486e-09
8.89962899079e-10
1.75539367005e-08
2.54463800306e-09
2.72211264593e-09
3.78106553177e-09
1.2135226623e-09
7.74207258977e-09
1.24402149447e-09
1.07874875371e-08
9.26753215254e-10
2.82984726303e-09
1.81246855894e-08
1.78066579236e-07
3.98105138776e-08
3.62854205359e-08
4.54842816471e-07
2.12027107751e-07
1.18916056831e-07
1.90852666716e-07
6.13429731444e-08
1.42539496048e-07
2.00289820357e-08
2.62078713623e-07
4.70925825844e-07
3.59853157731e-07
7.39534610909e-07
6.58594051055e-07
2.56685818479e-07
1.94220791258e-07
3.82168218209e-09
3.26746547052e-08
1.6049099405e-08
8.36059209818e-08
6.96151622522e-08
1.15419041965e-07
1.81679941138e-07
2.937276666e-08
1.73779183651e-07
8.94434070456e-08
5.87116647801e-08
6.39865457523e-09
3.17586055067e-08
1.69765688488e-09
9.2379336263e-09
1.85606809905e-08
8.13145582941e-10
1.7205939615e-08
5.84792752633e-09
2.48078905796e-08
2.31258909552e-08
1.42241337924e-08
1.29556543259e-08
7.64531989286e-09
1.77903360731e-09
1.68151148231e-08
6.6583081431e-08
1.41291462219e-08
1.56580785138e-08
2.96017146824e-08
2.68955411664e-08
9.51989915513e-08
5.13596499049e-08
2.17503995257e-07
3.81495193816e-07
9.62600997156e-08
1.55268874817e-08
4.2091759985e-08
1.03478003961e-08
4.43263222323e-08
1.22885827108e-08
2.21062015727e-08
1.58965073899e-08
7.44302329109e-08
1.75930976829e-07
3.43553739035e-07
1.56433434461e-07
1.62193276985e-07
2.41729999531e-08
2.8183496799e-07
2.98788427922e-07
2.66630378612e-07
4.06817084695e-07
1.83958313249e-07
3.03475940352e-07
5.70148950684e-08
1.22625658417e-07
1.09556149658e-08
6.75192961862e-08
3.93336818774e-09
2.23405948363e-08
1.13663487033e-08
3.36530983895e-08
1.04125775202e-07
1.67257537053e-08
4.11449059274e-08
2.39831391126e-08
1.12472131067e-07
1.47828090732e-07
2.55964710451e-07
1.09032871472e-07
3.43340177077e-08
3.61812894365e-09
2.38805182074e-08
4.06735149893e-09
1.08596348939e-08
3.31208822021e-09
2.9483630941e-09
4.25459356316e-09
2.12959820756e-09
8.47685828326e-10
2.01959387077e-08
7.12079651022e-10
1.80536789606e-09
1.35139198999e-09
1.68969447307e-09
3.23060432758e-09
1.62819808776e-09
2.25694026999e-08
9.53932094959e-09
2.27583539954e-09
3.27820526972e-09
5.5474194429e-09
1.54114380346e-09
1.16100160138e-09
2.65141373751e-10
3.9554084883e-10
8.09948076745e-09
4.01101914464e-10
8.7978620972e-09
3.82487972615e-09
2.71949447117e-09
8.44329155787e-10
5.08441218937e-09
4.16266277216e-10
2.07445435458e-09
7.61677361894e-09
1.22925589475e-09
3.11245912463e-09
2.78181799374e-09
2.37087794875e-09
1.97112063276e-09
6.3072620422e-09
1.86677183886e-08
5.35573770257e-09
6.99685056987e-09
1.47692286978e-08
7.19339805967e-09
1.46304971392e-08
1.5581228742e-08
3.85007201248e-08
9.56324140539e-09
1.53850484147e-08
9.11372589858e-09
3.15179136745e-08
3.25473672359e-09
1.50294862866e-08
7.14952115864e-09
1.01484782788e-08
8.52204847067e-09
7.80133358466e-09
1.67079776022e-08
1.23177287702e-08
2.12287516075e-08
4.68195756694e-08
4.02411011379e-08
3.04942896383e-08
8.97517652162e-09
5.77476998653e-08
1.07905215093e-07
1.72862867943e-07
2.34144807257e-07
2.60212353573e-07
2.33111814628e-08
5.37292370006e-08
3.27028534183e-08
3.54913552616e-08
3.44763577087e-08
2.47551192038e-08
7.72420147485e-08
1.46430342668e-08
1.5832487208e-09
2.2493562883e-08
3.47597518779e-09
3.24007848165e-08
3.19896613476e-08
2.11766696177e-08
3.1089274639e-08
5.55302492971e-09
3.53304494691e-08
1.07883481203e-07
1.04961425871e-07
8.13046264567e-08
7.84192707411e-08
2.22460464831e-07
3.79172843828e-08
1.33449773457e-07
2.74281628039e-07
1.07429460161e-07
1.08100853477e-08
5.93001686784e-08
8.19560404224e-08
1.28422855686e-07
9.31351986103e-09
1.14947830175e-09
7.30059507673e-08
1.47398374155e-07
6.99483275807e-09
1.18400700543e-08
4.61064535747e-08
5.22403509605e-09
1.4596592902e-07
1.0418381639e-06
3.92053876762e-08
7.14593544462e-08
1.03398956296e-08
8.19405848572e-08
1.58337059345e-07
3.98867424278e-07
5.84110119116e-08
6.58788026937e-09
2.8148966123e-08
2.84154950569e-08
2.36682284338e-09
6.01756041881e-09
2.41486192541e-08
2.79623165327e-08
2.64872119929e-08
1.34614677851e-08
1.43342369365e-08
1.17795820561e-08
1.06763945273e-08
1.29398587212e-08
6.26018376949e-07
5.51803370071e-07
6.57504646566e-07
2.52420603328e-07
1.95174868474e-07
1.50749894657e-07
6.00542508773e-08
1.56412085355e-08
1.10311306383e-08
6.50194064027e-09
2.8880627886e-08
3.78011720813e-08
2.89054758618e-08
1.4099352963e-07
2.90419305234e-07
3.24682700207e-07
2.08818262954e-07
3.11317010524e-07
6.41034544279e-07
4.89729960414e-08
1.31028294072e-07
8.61147194855e-07
1.50748407602e-07
6.21222145073e-09
1.34220003844e-07
3.45148834492e-07
5.08451077951e-08
8.66921491647e-09
2.51870389805e-09
5.28634481997e-08
7.54989911243e-09
3.24579981425e-09
1.5011959487e-08
6.10451013803e-08
9.45047293514e-10
3.08925399659e-07
3.78329382375e-07
1.7295783485e-08
1.25181569808e-08
4.55245485079e-08
4.68865308909e-08
2.43718574619e-08
9.09692456574e-09
3.03868064344e-08
6.68052323611e-09
1.12856187329e-08
1.2660200821e-08
1.17338807646e-08
3.00698095116e-08
1.03549950927e-07
8.68898965566e-08
4.75342567594e-09
6.84164980607e-09
9.4544077694e-09
4.6686248261e-08
6.21096708794e-09
4.0364506433e-08
1.44801228508e-08
1.48118259944e-08
5.88176293128e-09
3.54637884327e-08
8.92108527635e-09
4.00371354809e-08
1.81029602625e-07
1.45881890811e-07
1.36977109466e-07
1.72748199306e-07
3.90409103576e-07
1.58805713874e-07
8.36032456473e-08
2.06007776549e-08
1.24859704516e-08
1.33214341698e-08
6.89743216241e-09