# vtk DataFile Version 3.0
File Name: Molecule/arg/arg_5.0-3.vtk
ASCII
DATASET UNSTRUCTURED_GRID
FIELD FieldData 1
TIME 1 1 double
0.0
POINTS 867 double
-3.403 0.327 1.604
-3.45 0.103 1.078
-3.138 0.005 1.702
-3.183 -0.208 1.2
-2.981 -0.361 1.858
-3.028 -0.584 1.332
-3.298 -0.003 0.536
-3.038 -0.309 0.683
-2.876 -0.691 0.79
-2.971 0.024 0.066
-2.725 -0.284 0.235
-2.549 -0.664 0.32
-2.984 0.046 0.042
-2.617 -0.045 -0.207
-2.63 -0.024 -0.229
-2.351 -0.22 -0.527
-2.365 -0.198 -0.55
-2.2 -0.483 -0.862
-2.216 -0.458 -0.889
-3.25 0.578 -0.258
-2.686 0.062 -0.328
-2.904 0.498 -0.574
-2.48 -0.047 -0.742
-2.684 0.361 -0.973
-2.39 -0.269 -1.153
-2.617 0.185 -1.409
-3.173 1.207 -0.458
-2.84 1.014 -0.738
-2.625 0.846 -1.127
-2.55 0.723 -1.58
-2.776 1.74 -0.497
-2.515 1.451 -0.77
-2.319 1.256 -1.157
-2.211 1.177 -1.613
-2.622 1.932 -0.429
-2.434 1.563 -0.734
-2.291 1.743 -0.67
-2.16 1.459 -1.077
-2.01 1.647 -1.011
-1.982 1.439 -1.492
-1.81 1.654 -1.416
-2.666 2.281 -0.134
-2.046 2.135 -0.548
-2.085 2.448 -0.283
-1.615 2.438 -0.879
-1.659 2.787 -0.585
-2.622 2.533 0.247
-2.045 2.674 0.059
-1.614 3.039 -0.203
-2.495 2.657 0.67
-1.932 2.785 0.438
-1.488 3.163 0.22
-2.925 2.572 1.071
-2.251 2.77 1.005
-2.634 2.694 1.361
-2.033 3.002 1.293
-2.411 2.928 1.645
-1.863 3.333 1.507
-2.279 3.251 1.894
-3.186 2.284 1.521
-2.865 2.437 1.761
-2.64 2.674 2.039
-2.53 2.972 2.328
-3.419 1.801 1.788
-2.888 2.359 1.917
-3.122 1.876 2.185
-2.717 2.558 2.345
-2.979 2.017 2.644
-3.567 1.179 1.827
-3.202 1.735 2.161
-3.333 1.184 2.196
-3.094 1.732 2.585
-3.223 1.188 2.619
-3.107 1.793 3.017
-3.25 1.192 3.055
-3.408 0.559 1.798
-3.191 0.635 2.17
-3.084 0.647 2.593
-3.095 0.593 3.027
-3.105 0.348 2.085
-3.1 0.088 1.867
-2.97 0.105 2.152
-3.02 0.504 2.546
-2.901 0.29 2.606
-2.978 0.383 3.085
-2.865 -0.346 2.113
-2.52 -0.7 2.425
-2.789 -0.06 2.411
-2.48 -0.378 2.69
-2.828 0.19 2.745
-2.523 -0.123 3.02
-2.645 0.041 3.387
-2.46 -1.117 2.184
-2.148 -0.9 2.844
-2.09 -1.3 2.613
-2.003 -1.142 3.367
-1.937 -1.6 3.103
-2.268 -1.45 1.888
-1.906 -1.62 2.328
-1.726 -1.965 2.777
-1.967 -1.659 1.57
-1.617 -1.821 2.023
-1.396 -2.195 2.428
-1.592 -1.721 1.268
-1.257 -1.88 1.733
-0.984 -2.263 2.097
-2.026 -1.588 0.931
-1.351 -1.766 0.91
-1.757 -1.641 0.594
-1.133 -1.941 0.578
-1.555 -1.812 0.25
-0.96 -2.23 0.303
-1.437 -2.084 -0.068
-2.342 -1.257 0.596
-2.053 -1.332 0.28
-1.861 -1.491 -0.075
-1.784 -1.721 -0.435
-2.487 -0.785 0.321
-2.189 -0.889 0.022
-2.002 -1.032 -0.342
-1.943 -1.202 -0.738
-2.264 -0.668 -0.026
-2.322 -0.554 -0.027
-2.141 -0.611 -0.433
-2.203 -0.492 -0.433
-2.131 -0.618 -0.861
-2.114 -0.682 -1.181
-1.927 -1.264 -1.052
-2.312 -0.441 -1.376
-2.121 -0.506 -1.916
-2.042 -0.816 -1.214
-1.838 -0.886 -1.79
-1.682 -1.348 -1.746
-1.975 -0.256 -2.322
-1.864 -0.768 -1.888
-1.672 -0.441 -2.421
-1.897 0.192 -2.527
-1.57 0.147 -2.691
-1.996 0.646 -2.441
-1.495 0.306 -2.776
-1.602 0.798 -2.682
-1.198 0.386 -3.152
-1.328 0.981 -3.039
-2.011 1.039 -2.18
-1.619 1.224 -2.399
-1.348 1.496 -2.696
-1.72 1.257 -2.235
-1.479 1.817 -1.75
-1.107 2.057 -2.211
-1.346 2.153 -1.415
-1.642 2.007 -1.116
-1.319 2.584 -1.178
-0.816 3.013 -1.267
-1.111 2.259 -1.642
-0.623 2.675 -1.729
-0.543 2.537 -2.312
0.466 3.148 -0.891
-0.416 2.926 -1.599
0.331 3.005 -1.38
-0.131 2.956 -2.042
0.328 3.005 -1.907
-0.002 3.1 -2.533
0.456 3.148 -2.398
-0.048 3.337 -3.001
0.699 3.415 -2.782
0.833 2.913 -0.61
0.619 2.806 -1.364
0.976 2.577 -1.092
0.892 2.689 -1.891
1.303 2.425 -1.576
1.057 2.557 -0.305
1.192 2.232 -0.796
1.553 2.026 -1.234
0.979 2.767 0.195
1.24 2.204 -0.113
1.167 2.404 0.362
1.539 1.918 0.039
1.462 2.128 0.539
0.737 2.845 0.68
0.936 2.478 0.823
1.22 2.206 1.024
0.406 3.093 0.833
0.71 2.572 1.142
0.419 2.789 1.277
0.841 2.425 1.643
0.539 2.651 1.783
1.112 2.426 2.108
0.748 2.699 2.276
0.011 3.456 0.651
0.142 3.058 1.218
-0.201 3.373 1.06
-0.01 3.117 1.656
-0.348 3.428 1.5
-0.034 3.266 2.099
-0.415 3.616 1.924
-0.504 3.599 0.465
-0.648 3.497 0.898
-0.789 3.55 1.341
-0.913 3.754 1.744
-1.038 3.495 0.311
-1.112 3.406 0.765
-1.247 3.461 1.209
-1.429 3.653 1.595
-1.502 3.118 0.685
-1.632 3.177 1.131
-0.05 3.403 2.531
0.304 2.919 2.221
0.288 3.057 2.654
0.729 2.855 2.766
-0.175 3.437 2.964
0.162 3.091 3.09
0.587 2.894 3.259
-0.395 3.364 3.353
-0.059 3.019 3.48
0.337 2.812 3.701
-0.687 3.194 3.654
-0.352 2.847 3.783
0.006 2.617 4.044
-1.13 3.18 3.766
-0.58 2.815 3.881
-1.094 2.799 4.011
-1.584 3.151 3.721
-1.62 2.766 3.959
-1.995 3.111 3.523
-2.096 2.719 3.73
-2.312 3.063 3.198
-2.464 2.664 3.352
-2.498 3.015 2.783
-2.679 2.608 2.871
-0.832 2.373 4.277
-0.242 2.183 4.431
-1.061 1.806 4.483
-0.466 1.628 4.634
-1.364 2.231 4.354
-1.452 1.611 4.604
-1.713 1.977 4.492
-1.735 2.528 4.103
-2.033 2.233 4.276
-2.128 2.66 3.763
-2.373 2.347 3.982
-2.496 2.611 3.374
-2.69 2.305 3.646
-2.791 2.388 2.985
-2.945 2.113 3.311
-1.464 1.095 4.666
-0.956 1.592 4.533
-0.968 1.074 4.596
-0.48 1.041 4.705
-1.655 0.731 4.634
-1.079 0.886 4.596
-1.26 0.541 4.565
-0.689 0.687 4.666
-0.881 0.322 4.633
-0.333 0.517 4.869
-0.555 0.096 4.831
-2.027 0.463 4.516
-1.383 0.368 4.531
-1.728 0.119 4.423
-1.114 -0.009 4.584
-1.476 -0.27 4.469
-0.878 -0.357 4.785
-1.3 -0.661 4.651
-2.342 0.241 4.242
-2.019 -0.087 4.169
-1.783 -0.487 4.202
-1.658 -0.914 4.34
-2.557 0.093 3.848
-2.219 -0.224 3.803
-1.993 -0.631 3.818
-1.903 -1.082 3.892
-2.301 -0.273 3.375
-2.078 -0.682 3.368
-0.557 -0.612 4.999
-0.228 -0.165 5.05
-0.202 -0.89 5.102
0.134 -0.447 5.155
0.164 -1.171 5.088
0.507 -0.734 5.141
0.37 -1.612 4.973
0.615 -0.976 5.092
0.811 -1.395 4.983
1.043 -0.806 5.264
1.249 -1.247 5.15
0.578 -1.993 4.725
1.008 -1.757 4.747
1.457 -1.629 4.901
0.77 -2.282 4.364
1.191 -2.031 4.405
1.649 -1.918 4.541
0.93 -2.454 3.923
1.343 -2.194 3.985
1.809 -2.089 4.099
1.044 -2.494 3.437
1.451 -2.232 3.524
1.923 -2.129 3.613
1.103 -2.399 2.949
1.506 -2.141 3.061
1.981 -2.034 3.126
1.1 -2.176 2.501
1.504 -1.93 2.635
1.979 -1.811 2.678
1.037 -1.846 2.131
1.444 -1.616 2.284
1.916 -1.481 2.307
0.647 -2.269 2.118
0.836 -1.714 1.711
0.512 -2.064 1.7
0.77 -1.662 1.233
0.47 -1.987 1.224
0.848 -1.697 0.757
0.525 -2.047 0.746
1.061 -1.813 0.337
0.67 -2.236 0.324
0.119 -2.499 2.107
0.075 -2.255 1.691
0.064 -2.164 1.215
0.088 -2.237 0.737
0.142 -2.466 0.313
-0.457 -2.497 2.099
-0.401 -2.253 1.685
-0.378 -2.162 1.209
-0.389 -2.235 0.73
-0.434 -2.464 0.306
-0.837 -2.059 1.682
-0.782 -1.983 1.207
-0.825 -2.042 0.728
1.48 -1.078 0.031
1.032 -1.487 0.709
1.333 -0.958 0.489
1.12 -1.273 1.146
1.358 -0.854 0.972
1.315 -1.197 1.595
1.553 -0.779 1.421
1.592 -1.27 1.999
1.893 -0.741 1.779
2.335 -0.746 2.002
1.639 -0.712 -0.547
1.476 -0.549 0.311
1.615 -0.229 -0.195
1.697 -0.118 0.66
1.842 0.216 0.134
1.696 -1.15 -0.796
1.805 -0.426 -1.067
1.856 -0.818 -1.29
2.201 -0.141 -1.444
2.256 -0.562 -1.683
1.615 -1.54 -1.111
1.784 -1.167 -1.572
2.179 -0.936 -1.985
1.405 -1.841 -1.462
1.595 -1.437 -1.886
1.977 -1.225 -2.321
1.085 -2.024 -1.812
1.309 -1.6 -2.199
1.67 -1.4 -2.657
0.689 -2.07 -2.126
0.955 -1.641 -2.48
1.29 -1.444 -2.958
0.256 -1.974 -2.373
0.567 -1.556 -2.702
0.875 -1.352 -3.195
-0.171 -1.746 -2.529
0.186 -1.352 -2.841
0.466 -1.134 -3.344
-0.548 -1.409 -2.576
-0.152 -1.05 -2.884
0.104 -0.811 -3.39
-0.822 -1.287 -2.506
-0.408 -0.948 -2.806
-0.669 -0.831 -2.739
-0.336 -0.591 -3.197
-0.616 -0.466 -3.125
-1.31 -1.347 -2.194
-0.988 -0.705 -2.664
-1.485 -0.767 -2.346
-1.322 -0.31 -2.728
-0.95 -0.071 -3.189
-0.311 -0.212 -3.619
0.128 -0.454 -3.788
-0.16 0.24 -3.931
0.27 -0.03 -4.081
0.101 0.716 -4.098
0.516 0.418 -4.238
-0.411 1.252 -3.909
0.377 1.347 -4.4
0.11 1.626 -4.301
-0.398 1.946 -3.588
0.117 1.987 -4.134
-0.712 2.237 -2.975
-0.106 2.463 -3.53
-0.314 2.656 -3.124
0.028 3.029 -3.665
-0.135 3.18 -3.347
-0.202 2.855 -2.684
0.173 2.486 -3.833
0.85 2.546 -3.838
1.267 2.733 -3.406
0.819 3.383 -2.845
1.204 2.948 -2.765
1.749 2.404 -3.353
0.902 2.914 -2.485
0.749 2.956 -2.405
1.123 2.627 -2.01
1.688 2.19 -1.733
2.133 1.624 -1.992
1.962 2.454 -2.382
2.194 2.159 -2.516
2.141 1.301 -1.585
2.428 1.273 -2.257
2.435 0.969 -1.874
2.042 0.907 -1.262
2.342 0.599 -1.57
1.911 1.516 -1.257
1.884 0.909 -0.851
1.768 1.444 -0.847
1.861 0.913 -0.411
1.75 1.425 -0.407
1.976 0.918 0.014
1.858 1.462 0.018
1.454 1.892 -0.826
1.449 1.855 -0.388
1.867 0.812 -0.4
1.753 0.215 -0.299
1.896 0.717 -0.83
1.788 0.151 -0.734
2.06 0.644 -1.234
1.942 0.027 -1.129
2.566 1.229 -2.871
2.241 1.687 -2.422
2.339 1.656 -2.857
2.27 2.135 -2.856
2.341 1.264 -3.459
2.179 1.681 -3.275
2.146 2.154 -3.181
1.83 1.363 -3.817
1.817 1.751 -3.528
1.863 2.209 -3.379
1.605 0.935 -4.222
1.413 1.57 -3.947
1.254 1.267 -4.234
1.103 1.869 -4.167
0.979 1.632 -4.39
1.11 0.579 -4.381
0.902 1.014 -4.346
0.705 1.435 -4.478
0.482 0.901 -4.245
0.989 2.064 -4.14
1.404 2.01 -3.684
1.315 2.161 -3.664
2.007 0.383 0.735
1.733 -0.159 1.085
2.004 0.279 1.15
1.861 -0.287 1.473
2.124 0.139 1.536
2.068 -0.489 1.788
2.355 -0.024 1.857
2.675 -0.196 2.083
2.074 0.941 0.928
2.063 0.767 1.319
2.181 0.613 1.7
2.417 0.492 2.036
2.749 0.417 2.295
1.884 1.434 1.198
1.897 1.199 1.555
2.02 1.032 1.93
2.241 0.95 2.287
2.541 0.959 2.592
1.624 1.884 1.117
1.755 1.469 1.75
1.503 1.904 1.671
1.842 1.579 2.299
1.557 2.073 2.21
1.11 2.216 1.58
1.886 1.845 2.759
2.132 1.224 2.493
2.174 1.477 2.929
2.585 1.225 3.051
1.814 2.002 3.263
2.105 1.625 3.407
2.513 1.382 3.555
1.633 2.033 3.763
1.933 1.655 3.881
2.331 1.413 4.055
1.359 1.937 4.21
1.674 1.563 4.305
2.058 1.316 4.502
1.021 1.721 4.561
1.354 1.359 4.638
1.72 1.101 4.853
0.651 1.408 4.781
1.002 1.062 4.847
1.35 0.788 5.074
0.073 1.245 4.841
0.82 0.891 4.947
0.23 0.725 5.008
0.672 0.387 5.179
1.205 0.294 5.301
0.564 -0.173 5.245
1.099 -0.256 5.367
-1.834 2.927 0.971
1.396 -0.602 0.696
1.678 -0.195 -0.741
0.9 3.106 -3.671
1.668 2.681 -2.526
-2.913 1.955 -0.341
-3.327 1.641 -0.268
-3.327 2.032 -0.008
-2.913 2.297 -0.026
-3.327 2.292 0.383
-2.913 2.519 0.384
-3.327 2.384 0.843
-3.656 1.544 0.048
-3.656 1.916 0.37
-3.656 2.055 0.843
-3.656 1.916 1.316
-3.867 1.641 0.843
-3.867 1.411 1.241
-3.656 0.342 1.089
[...]
CELL_DATA 1730
SCALARS cell_data_0 double
LOOKUP_TABLE default
1.48090592106e-08
1.11770712752e-08
2.86275936857e-08
1.18225203686e-08
5.62043759548e-09
1.1454818881e-08
1.1509824438e-08
9.70666593151e-10
2.33474692184e-08
3.59018395296e-08
1.87056438069e-08
3.4776341693e-09
1.32426178481e-08
3.39058378477e-09
5.28672450582e-09
1.34733047645e-08
6.74789258763e-09
5.53251091187e-09
4.99392419156e-08
4.43804044411e-08
7.22075652601e-08
7.6590562542e-08
1.18363951637e-07
5.01875913308e-08
1.06328940139e-08
6.34685434191e-09
3.44790793752e-10
1.8464828001e-09
2.76132637959e-08
4.03223097149e-08
1.80717925541e-08
4.11834349194e-08
5.35547970753e-08
4.28029301131e-08
2.13997109473e-08
6.29508856105e-08
1.00210265203e-08
1.42660714218e-08
1.83812304482e-09
2.3897328659e-08
2.53228169968e-08
1.27300355887e-09
2.11261095198e-08
2.44436649623e-08
3.63936193863e-08
5.81616980984e-08
4.2758442526e-09
5.4918312496e-09
1.78275229222e-08
1.95333843091e-08
1.05748439337e-08
2.54859647867e-08
9.83800826753e-09
2.16868402842e-09
1.70816578159e-08
1.70500240122e-08
1.68774410716e-08
1.67481442874e-08
1.56218136111e-08
7.94887765042e-09
1.4964369943e-09
1.37474901009e-08
2.17954956721e-09
1.57924612405e-08
1.24356862055e-09
8.37676087287e-09
3.98086004311e-09
1.0823496323e-08
1.58400512966e-08
1.99845294486e-09
4.80643921169e-09
1.56391690852e-09
1.64911962546e-08
5.08525320179e-09
2.01772436181e-08
2.4327758271e-09
1.55663943742e-08
2.21707359156e-08
1.77521907482e-08
1.28755345163e-08
3.87161025753e-09
1.15446698377e-08
1.37760300722e-09
1.48423091635e-09
2.41579392741e-09
1.09088462256e-08
1.55912995452e-08
1.11714379843e-08
4.81716923694e-09
5.43841530261e-09
1.52540280625e-08
3.68296303592e-08
8.16178435712e-09
1.9044170543e-09
1.87681251745e-08
2.69838568571e-08
2.12036162162e-07
1.49426422167e-07
7.29305303374e-07
6.52378556161e-08
5.95736875473e-08
1.51500332475e-07
2.9185115217e-07
7.03292415148e-08
7.40013800102e-08
3.35357214007e-08
1.11269583295e-07
3.3994128445e-08
1.01881382155e-07
6.09708569952e-08
6.03919702651e-08
3.82358704859e-08
2.39286845481e-08
7.42368270012e-08
5.53601800406e-08
6.62514269024e-08
6.64215935085e-08
2.40833090159e-08
2.3609708955e-09
1.27077073548e-08
8.60594509415e-09
8.44451902069e-09
1.69112491831e-08
9.93121822931e-10
3.73344914558e-08
3.21914448852e-08
3.10301295384e-08
4.16515104657e-08
1.77741925678e-08
1.20848834627e-08
1.5206917013e-08
2.5353208206e-08
7.14564119332e-09
9.88206816661e-09
2.16189499981e-08
1.74867665681e-09
3.82822448931e-08
5.41382428744e-08
1.62206306512e-08
3.42405381095e-08
2.56332911103e-08
7.86799329887e-08
5.28872839422e-08
4.19468089355e-08
1.87439156339e-08
2.74165985648e-08
3.20312265372e-08
9.81729228942e-08
2.29711231415e-09
3.99147424422e-08
1.27085621276e-07
1.72069926227e-08
1.08395846519e-07
1.2408967962e-07
1.71186818438e-08
4.45698295465e-08
3.73984044179e-08
1.62472035888e-08
4.05343303989e-09
1.53688155066e-07
4.37356827683e-08
5.84477348293e-08
9.45547237828e-09
2.38119076987e-08
2.35803783066e-08
2.27957634047e-09
2.74636626379e-07
2.65318200179e-07
2.93138598933e-07
1.33884442178e-08
1.11014037808e-07
1.36515552384e-08
2.30112889815e-08
1.29731953001e-07
2.41656928007e-07
1.08237585548e-06
7.84890584706e-10
3.79963309129e-08
3.1605899096e-07
2.28864312758e-07
4.43080176391e-08
1.08403683771e-07
5.64612292828e-08
5.79297552481e-08
4.43027375823e-08
3.92512755637e-08
3.09796457722e-08
1.83805194592e-08
9.73870294154e-09
1.93211544253e-08
8.58786637051e-10
6.83500836604e-10
2.07023139132e-09
4.17309858695e-09
9.31374184824e-09
1.24398482856e-08
6.49540901287e-09
5.05600786316e-08
8.1486003112e-09
1.38126944342e-08
1.0189591541e-08
2.05032284866e-08
1.89571517929e-08
1.35942292259e-08
2.70877759432e-09
6.12314841634e-10
5.01172284812e-09
2.9227197465e-09
8.63086721734e-09
2.5606544757e-09
2.69182097423e-09
5.48750930836e-09
4.53508219746e-09
1.31810029587e-09
4.79107918783e-09
1.3499840227e-09
3.19023403815e-09
1.59183558395e-08
1.09354810952e-08
5.07580447383e-09
2.65438886239e-09
1.47977976248e-09
4.18204570688e-09
2.31927060714e-08
2.50095295378e-08
4.22570894524e-08
3.31308122198e-09
1.46232881903e-08
3.96821272566e-08
7.95013177975e-08
3.49579484818e-10
7.07964635138e-09
2.68072189126e-08
1.09786341596e-07
3.38385739263e-09
9.44291030431e-09
2.21287665787e-10
4.32771909997e-08
2.28783461944e-09
7.89105966994e-09
9.15803377277e-10
2.3696864044e-09
1.10859025678e-09
5.30791948355e-09
2.63205884397e-09
4.12130828363e-09
2.80441336254e-09
5.85669411013e-09
5.23498320254e-09
9.44969821166e-09
2.04719108256e-08
3.58398556368e-08
6.79969481781e-09
2.36098886915e-08
1.1255591416e-08
3.97571005433e-09
5.50344494903e-10
1.50977342261e-09
6.77386986873e-10
6.21487769597e-10
4.56498592457e-09
9.89604260983e-10
3.43141959374e-09
2.52966066388e-09
2.33509691829e-09
2.66366939242e-09
7.16822607848e-09
1.46051725468e-08
2.05698999622e-09
2.17987993595e-08
2.87698610783e-09
9.42118485784e-09
3.29984945062e-09
1.7241534718e-09
5.28857381763e-09
8.68862025837e-09
1.70922102667e-09
7.12429814745e-09
1.3716283434e-08
1.05976932227e-08
1.63676548729e-08
2.33458626082e-09
1.29985654243e-08
1.4850858586e-08
4.89061254748e-09
2.06860803948e-08
6.58061750621e-08
4.29097100124e-08
2.24628345863e-08
3.27150927368e-08
1.76937061589e-08
6.800092908e-08
1.30933625646e-07
1.11701738925e-07
3.89059536471e-08
6.37075578861e-08
1.27026096364e-07
3.0104108539e-07
1.91374105321e-07
3.87949112055e-07
2.50731886455e-08
1.42791984785e-08
4.83277861543e-09
1.31148378907e-08
2.67557586023e-08
1.02818695069e-08
2.19684979901e-08
4.17680031423e-09
2.08586683614e-08
1.96271047109e-08
1.2854054822e-08
5.91746495003e-08
2.62256035737e-08
8.46544727725e-08
5.70336153274e-08
1.60539778184e-07
2.64511138684e-08
5.09494888493e-08
9.33417948589e-08
3.07448836948e-07
1.75238657635e-07
5.47940859701e-08
4.23537035527e-08
7.8346853774e-10
2.03103954413e-07
2.14638673082e-07
6.6195575724e-08
5.79444033955e-08
2.7242336091e-08
2.52678160568e-07
4.11588601383e-08
3.04088579117e-08
6.38407600941e-09
1.07300960019e-07
5.12088794539e-09
7.70432917248e-09
2.49157498559e-08
6.43929022293e-09
7.95327910843e-08
6.35897166426e-08
2.25041479719e-08
3.73497092423e-08
9.12371504015e-08
2.05235937611e-08
2.18450107718e-07
3.23586633233e-08
2.77021988542e-08
3.12475684718e-08
1.37384659365e-08
1.16270909806e-08
3.21346214352e-09
4.45509981612e-09
1.01904040738e-07
3.66747964538e-08
3.64740385587e-08
1.8638425716e-08
1.78742895039e-09
1.83917523252e-08
1.12214325181e-08
2.01823856713e-08
6.61052527239e-08
2.58293859909e-08
3.9641566847e-08
8.63940192926e-09
4.08764883163e-08
3.79356066045e-08
5.5935144006e-08
6.45385309061e-08
3.39312445737e-08
4.03434519846e-08
3.85139347183e-07
1.07152081466e-07
8.14508722721e-08
2.5458541223e-08
9.73536238065e-10
1.42044600604e-08
1.64038348352e-08
5.11558869942e-08
2.01871966574e-08
1.93250364447e-09
7.6732837667e-08
9.20822606094e-08
1.3919502201e-08
1.00392636555e-08
2.72428584282e-08
6.36033543684e-08
5.87783931752e-08
1.18912810101e-07
1.40566665438e-09
7.83709265803e-08
2.26402861433e-09
1.13711674881e-07
1.75281217028e-08
6.97059344519e-08
3.20533292536e-08
9.10933948815e-08
3.69133573815e-08
5.78523899501e-08
5.60717967283e-08
7.90503138222e-08
4.06644544397e-08
4.65682758853e-08
8.94966072105e-08
5.4035528418e-08
5.83800343943e-08
3.51259626344e-08
1.16335303993e-07
3.28922082967e-08
6.92130691833e-08
1.93301313888e-08
1.65740103625e-07
1.29614038922e-08
7.33921711113e-08
2.13344527065e-08
2.3365070544e-07
8.96230510754e-08
2.25153316239e-08
3.16349835129e-08
4.78345194133e-08
3.04917671248e-08
1.72734135769e-08
2.62779286693e-08
5.67453539111e-09
4.91083596702e-08
3.26649849938e-08
7.24887223553e-09
5.52900982706e-09
3.61810968795e-08
8.77458955823e-08
8.42133278977e-08
1.86034285978e-07
5.06737003443e-08
3.70951890155e-07
5.89363168646e-08
4.34206855123e-07
9.41127712344e-07
1.3599737474e-06
1.13047801269e-06
2.34785212114e-07
4.49652121755e-07
4.85525072463e-07
3.41405949597e-07
2.25529331437e-07
1.1959686324e-08
8.16352339587e-08
4.96796989034e-07
5.18225507493e-07
2.45456010279e-07
6.17045912354e-07
3.49275996188e-08
1.1932959175e-07
1.20020360126e-07
1.78533529988e-06
1.06163859828e-06
6.34234096381e-08
9.69737306235e-08
1.01923205801e-07
1.0307821979e-07
1.46433237878e-08
5.95607314341e-09
6.3005374247e-08
1.24794768024e-08
1.92448761026e-08
7.33954633242e-09
7.89818349113e-08
1.00855097164e-07
3.63401096912e-09
2.26153449488e-08
6.89583354688e-09
2.69508117599e-09
5.2863217775e-09
4.91161507224e-08
2.23034640433e-08
2.58468256043e-08
4.81878837348e-08
1.13639337027e-07
4.19859549722e-08
1.23891289318e-07
5.73764863654e-07
6.95563852243e-09
1.18287744271e-06
2.9213548309e-07
1.7836893863e-07
1.81075323302e-07
4.22553155981e-07
4.194048528e-07
1.30380988298e-07
3.93195895883e-07
1.89031111836e-07
6.61647444239e-07
9.07499700336e-07
1.63464228182e-07
1.29984530202e-06
1.71280250524e-08
3.28466920283e-07
1.44932952473e-07
5.74305316175e-07
5.09138950174e-07
1.31351572166e-08
2.81138411472e-07
1.71955901009e-07
9.17174211603e-07
2.45388879047e-07
2.57347048567e-07
2.46746125821e-07
1.34612269957e-07
3.60199735572e-09
2.67703480281e-08
3.61229028513e-09
2.29108743052e-08
1.00029715085e-08
1.03569741338e-08
1.68508803596e-08
2.11822692533e-09
4.6706115068e-10
1.1436479671e-08
2.19476147933e-09
6.36654032986e-09
1.33147913431e-08
1.10730816315e-08
4.48998266834e-09
3.70128346937e-08
1.03384940289e-08
1.59094723034e-08
1.74682441705e-08
7.16837921874e-09
7.93663023533e-09
1.39825887283e-08
2.82026868547e-08
9.87380066773e-08
1.54131436652e-08
3.75099662336e-08
5.09210347898e-08
1.69146367727e-08
1.62185551603e-08
1.84087280814e-09
5.3768531096e-08
1.30983269999e-07
6.12436476203e-08
1.88058665117e-07
5.43276171125e-08
1.52976082015e-07
2.15609273132e-08
1.72127400335e-07
2.56201364779e-07
8.81119770538e-08
7.15599041206e-08
9.47455651676e-08
5.51687746777e-08
1.91338813348e-07
1.3008487475e-07
8.69978561233e-08
1.03309845931e-07
3.94162854128e-07
3.39133125164e-09
4.21113190447e-08
2.16434505486e-08
1.35775778645e-07
1.74724249582e-08
4.68898807473e-09
1.15143668294e-08
1.75649920731e-09
2.56479782605e-08
1.41307843973e-08
5.33973535451e-09
2.88551215579e-08
1.61798011204e-08
9.42700209114e-09
2.00208960341e-08
1.57830675236e-09
3.0032406076e-08
1.73993737574e-08
2.42243760407e-09
2.24148710242e-09
1.85014292208e-08
2.07488732804e-09
1.29411923929e-08
3.8243787107e-09
1.74071499829e-08
1.43635818695e-08
3.34588233669e-09
2.2269059531e-08
6.62189468191e-10
2.07487273947e-09
2.33285364813e-09
6.4849360218e-08
2.47988457311e-08
1.71929247963e-08
1.61603014086e-08
1.00353814565e-08
6.29091095306e-08
1.64023940859e-08
7.99253138457e-08
5.26297054709e-10
4.85102269002e-09
2.87878427867e-09
1.113572474e-08
6.06327459166e-10
1.74326592936e-08
8.20889780938e-09
1.30711227468e-09
8.24699957797e-09
1.91756547584e-09
6.60459599202e-10
7.89954780952e-10
1.31034808165e-09
7.81597338427e-09
6.63420465046e-09
2.06723160935e-09
2.3836966234e-09
9.57244271241e-09
6.01231186221e-09
2.39757654864e-09
6.15603704391e-09
5.19338318761e-09
4.11076639276e-09
5.84114405639e-09
1.06782740863e-08
2.00200710416e-08
1.38029638662e-08
2.61077136563e-08
5.54319247357e-08
5.64068999425e-07
6.16026669971e-07
5.82025438438e-07
4.55114826226e-08
1.19378825079e-08
5.05431060802e-08
4.08878661574e-08
1.87121400258e-08
3.28868254206e-08
3.11208725092e-09
4.58930176272e-08
2.89637391689e-08
1.98392594241e-08
3.65100060094e-09
1.49301058287e-08
2.15901546968e-08
2.67349793382e-08
4.18770815989e-08
4.18190844581e-08
6.55752646314e-08
1.41446889566e-08
8.5961878071e-08
5.49505305434e-08
7.9973627105e-08
1.06052460444e-07
2.53029992434e-08
1.04573680505e-07
1.07779780248e-07
3.90974185056e-07
1.20563102325e-07
1.31422219836e-07
1.84496086071e-07
6.78569371317e-07
2.31866412789e-07
1.73731034162e-07
1.43902993115e-07
8.13086193769e-08
1.47363271946e-07
1.00892985e-08
7.29821184993e-08
7.36526042354e-08
2.55737684291e-08
1.71212139884e-08
3.98816627246e-09
5.83497488567e-10
3.58194292798e-08
1.42018732239e-08
6.13542353125e-09
3.43948741515e-08
9.39245037785e-09
4.80557627849e-11
1.01139080643e-08
1.99096412551e-09
1.96795197837e-09
8.96206426087e-09
1.6002959585e-09
3.67656643441e-09
1.60177388848e-09
6.63443320801e-09
6.26151386375e-09
9.20685693457e-10
1.00193021471e-09
2.01996519753e-08
3.18161648928e-09
1.72032022019e-09
2.2816042924e-09
1.83662008326e-09
5.70381721992e-09
2.4217755343e-09
1.1055292333e-09
1.40255126757e-09
4.1583633596e-08
5.8141438912e-08
8.39519155e-08
7.16037772729e-08
2.30728561926e-08
1.1701872575e-07
5.14002619533e-08
1.23495577489e-08
2.0446638192e-09
3.42570110452e-08
6.43682399098e-09
6.71175267814e-09
9.70813825537e-09
5.4756068973e-08
7.03853004971e-08
1.6131367133e-07
1.14362740567e-07
2.02106501087e-08
2.001276104e-08
6.82530956145e-08
2.59366117902e-09
5.75193529382e-08
5.40208276841e-08
4.57183789898e-08
4.97090921775e-08
9.00799150958e-09
7.28821506203e-09
5.17941193049e-08
6.92749926698e-09
2.93444677812e-08
1.3520932302e-08
5.38312503331e-08
5.45197310979e-07
2.58570222815e-07
3.9357190713e-08
9.56697551091e-08
4.04974918924e-07
4.24055725469e-07
1.10154223941e-07
6.78486278034e-07
1.47757085089e-07
2.37163862589e-07
4.62280535975e-08
8.59689057181e-08
3.56440282014e-09
1.19539632724e-08
1.92633104521e-08
3.25663891454e-08
3.19417173956e-08
5.5897213939e-07
2.17415726774e-07
5.96738475655e-07
5.47842463913e-08
1.66595351673e-08
2.25495127871e-08
3.46322136937e-09
9.71068995907e-08
7.83647077717e-09
1.69974542268e-08
9.10124503294e-09
1.25852266702e-08
3.28922851746e-09
2.27054036808e-09
2.63999690172e-09
2.69303363208e-09
2.12715053493e-09
7.47238858755e-10
2.90864866215e-10
1.92628950423e-09
3.24137330345e-09
2.60541623105e-09
2.43950186711e-10
2.42376918058e-09
3.50511681883e-10
1.15298983447e-09
6.03808441461e-10
2.64001907171e-09
2.79421106387e-09
3.02423564993e-09
2.36299961802e-09
1.44680785383e-09
2.54751627805e-10
2.5717144683e-09
8.09081932456e-10
1.97853438922e-09
3.55318445082e-09
2.20473812909e-09
9.10280195272e-10
3.08794821465e-10
8.03621364103e-11
4.52534410164e-09
4.94726183173e-09
3.98398213881e-09
4.87174832327e-09
1.02382554895e-08
5.92115743139e-09
2.11259856326e-09
3.5780406424e-09
1.05095274718e-08
5.68912984124e-09
7.63053626143e-09
6.41545126525e-09
3.19139353205e-11
5.93980309831e-09
2.03328980965e-09
8.9115575276e-09
2.7978308813e-09
1.86495717198e-08
5.15048728221e-09
2.03043650366e-09
1.0604264622e-08
1.29933504015e-08
3.8019975863e-08
4.94335298861e-10
1.79865096409e-08
9.14504436537e-10
6.59607046126e-09
6.33768742852e-09
5.94191700559e-10
1.11303565276e-08
6.32889420084e-09
1.8607895207e-09
2.86258608774e-08
6.95047194689e-10
4.50268139939e-10
1.02249344921e-08
1.36058870379e-08
1.72557713714e-08
1.17835019782e-08
1.94904650954e-08
9.86635430259e-08
1.40700538572e-08
3.16607119081e-08
1.86145746578e-08
5.47913598844e-09
5.27570198085e-09
2.10247056526e-08
2.52915303149e-09
1.55183470659e-08
2.75083724104e-08
5.36273040533e-09
3.5937456398e-08
2.57947438393e-08
6.74292347739e-08
5.63348780313e-09
1.04024240776e-09
5.096765176e-08
5.37507010222e-08
6.81747714431e-08
7.06531935123e-09
2.19611625982e-09
3.49801172964e-08
3.91017391171e-08
1.03713916613e-07
6.65511414291e-09
8.00701461218e-08
5.97380931092e-09
7.19926625159e-08
2.60181321587e-08
5.86995330303e-09
3.55206055004e-08
6.88026096847e-08
7.97168755991e-08
7.32916003963e-09
2.23478252154e-08
1.24529114411e-08
2.22947271238e-08
2.70778439717e-09
1.10488254432e-08
5.11440110668e-09
8.08668396298e-10
1.13301099433e-08
2.9249826284e-09
1.57208663536e-09
1.25753642733e-08
8.62738174575e-09
4.0516981729e-09
1.23412804399e-08
1.86777338486e-09
2.68566371318e-09
9.76869956117e-09
6.93383077468e-09
6.99854270427e-09
4.47137715026e-09
1.14726218455e-09
3.82528078907e-09
9.59728931086e-09
6.92603465992e-09
1.36410195367e-08
5.26348553755e-09
1.17720270494e-08
3.15176759702e-08
3.44665550349e-09
3.64976562027e-08
5.65763730966e-08
4.05343205328e-08
4.7103311213e-08
4.14428115381e-08
1.60011659526e-08
4.97570171306e-09
7.55891414057e-08
6.40709094026e-08
1.28029841203e-08
8.60721189714e-09
1.07081220109e-08
1.01559507917e-08
1.1646669947e-09
1.98264190339e-09
7.79768679783e-09
2.90499826923e-09
8.96312650594e-10
4.36890909527e-11
5.62198311576e-10
5.60225004934e-09
5.20680500304e-11
9.80570957836e-10
1.64478009408e-09
2.32462405199e-11
1.71694286298e-09
1.45530662126e-09
8.22891397614e-10
2.36135784568e-10
2.47770889065e-10
8.62245134066e-10
1.44357062545e-09
5.32447279314e-09
2.31801966822e-09
1.27997771767e-08
2.73837686677e-09
4.87545806019e-09
3.301221537e-09
4.22672080618e-09
7.83319610524e-10
1.93226531325e-09
1.95325949095e-09
4.0547228204e-09
1.28102479289e-09
3.55479907716e-09
8.94274632937e-09
5.41395654214e-09
8.74536082728e-09
8.96356489163e-09
1.02073520577e-11
1.28873131613e-08
9.87047690524e-09
4.36411965406e-09
6.17833040121e-09
3.31082334902e-09
8.78732641176e-09
6.77188241066e-09
9.4884062924e-09
1.17119197199e-08
2.1814365791e-08
6.94137173309e-09
4.1105449039e-09
1.43393416326e-09
2.12673952253e-09
5.71510457804e-09
4.16000564551e-09
5.71010737357e-09
4.37007922836e-09
5.97281569931e-09
7.82177387445e-09
1.35896638071e-08
1.62540260168e-08
1.82405530205e-10
3.00396158938e-09
1.88408404169e-09
6.37830782015e-09
3.01165395785e-10
1.2719518899e-10
1.18721580554e-09
2.46810890256e-10
1.92344777654e-09
1.82056758483e-10
2.50685774163e-09
3.25790156847e-09
3.03059862741e-09
2.62535873725e-09
2.27071119654e-09
4.64635981752e-10
1.19611501578e-08
9.56569253069e-10
1.66867533674e-09
1.03094374849e-09
7.46828538961e-10
5.73165167277e-09
1.28283938584e-09
8.91676603323e-09
2.04799844117e-10
8.23592221515e-09
3.03708665692e-08
6.7161504692e-09
1.85385507332e-08
1.83044955705e-09
4.32843131831e-09
2.59426486636e-09
5.22654467567e-09
1.22542792883e-10
1.05482569128e-09
9.01644716276e-10
3.40912760502e-09
3.37813453312e-09
3.73779237104e-09
2.76167983663e-09
2.26091206002e-09
2.2637836101e-09
7.86413109916e-10
6.67679838002e-09
3.26808448488e-10
8.54295372481e-09
3.2670807982e-09
3.06565138568e-09
1.81458190905e-08
1.95373865016e-07
8.738504687e-09
2.02528534948e-07
4.9960982401e-08
5.51313369812e-08
1.07946145114e-08
9.86726100399e-08
3.29029862376e-08
3.74765865902e-07
2.3828450386e-07
1.73858353804e-07
4.95673598092e-07
4.45400944925e-07
1.40783326456e-07
2.22645250503e-07
1.45360376602e-08
4.71517232809e-08
5.56135497716e-09
1.81481043245e-08
1.23554571032e-08
5.99044360919e-08
3.69555405988e-08
1.01991333717e-07
1.03911670604e-07
5.15809894647e-08
2.22713358806e-07
1.3598740725e-07
2.31974797087e-07
1.81018467841e-07
9.82813374917e-08
7.35203456013e-08
1.35403335065e-08
1.13636227119e-09
5.7745923897e-09
5.79954101805e-09
6.85699067957e-09
3.40668923794e-08
2.69816100213e-08
5.42419002565e-08
6.61734890037e-08
2.45404659093e-08
8.03327085321e-08
2.73607861324e-08
4.83021302807e-08
1.58143154805e-08
2.06986994138e-08
1.14643752249e-09
8.27207030985e-10
1.5941713081e-09
1.06876722187e-08
5.68171729849e-09
8.63318998838e-09
1.1086611611e-08
1.48348123792e-08
1.87309373496e-08
6.32259164418e-09
6.87899886314e-09
4.1048603555e-09
4.19746802005e-08
1.33417576465e-08
4.86596161775e-09
4.19018727536e-09
1.68496741366e-08
4.39939490058e-09
1.59675343478e-07
7.50981335788e-09
1.19299166316e-07
4.68564419851e-08
9.60745014419e-08
1.3939651721e-08
3.9439632095e-08
1.87891870063e-08
2.07687853078e-08
2.61944228416e-09
2.15911727097e-08
2.03756711638e-08
2.62906186414e-08
4.65869032589e-08
4.02589065775e-08
5.14579057571e-08
1.10113583043e-07
2.10173783588e-07
1.65454467524e-09
9.16089982063e-08
3.6484589952e-07
4.99754287326e-07
4.20149140165e-07
2.78534798227e-07
2.57245641034e-07
1.04146223662e-07
4.32397273348e-08
3.39835326415e-08
1.30036292245e-08
2.17656394363e-09
6.89138394841e-09
1.23301324277e-08
1.12902689203e-08
6.42189582529e-09
2.24777092136e-08
2.0886854703e-08
4.54690323711e-08
3.43080008829e-08
8.25758096143e-09
9.01916608764e-08
7.08353555367e-08
4.93810070332e-08
6.54753844751e-08