# vtk DataFile Version 3.0
File Name: Molecule/sphere_cent/sphere_cent_0-s3.vtk
ASCII
DATASET UNSTRUCTURED_GRID
FIELD FieldData 1
TIME 1 1 double
0.0
POINTS 120 double
0.850650808352 -0.525731112119 0.0
0.809016994375 -0.309016994375 -0.5
1.0 0.0 0.0
0.809016994375 0.309016994375 -0.5
0.525731112119 0.0 -0.850650808352
0.850650808352 0.525731112119 0.0
0.525731112119 0.0 0.850650808352
0.309016994375 -0.5 0.809016994375
0.809016994375 -0.309016994375 0.5
0.5 -0.809016994375 0.309016994375
0.809016994375 0.309016994375 0.5
0.654508497187 0.559016994375 -0.404508497188
0.5 0.809016994375 -0.309016994375
0.559016994375 0.404508497188 -0.654508497187
0.404508497188 0.654508497187 -0.559016994375
0.309016994375 0.5 -0.809016994375
0.0 0.850650808352 -0.525731112119
0.5 0.809016994375 0.0
0.5 0.809016994375 0.309016994375
0.25 0.904508497187 -0.154508497188
0.25 0.904508497187 0.154508497188
0.0 1.0 0.0
0.0 0.850650808352 0.525731112119
-0.25 0.904508497187 0.154508497188
-0.5 0.809016994375 0.309016994375
-0.25 0.904508497187 -0.154508497188
-0.5 0.809016994375 0.0
-0.5 0.809016994375 -0.309016994375
-0.850650808352 0.525731112119 0.0
-0.309016994375 0.5 0.809016994375
0.0 0.5 0.809016994375
0.309016994375 0.5 0.809016994375
-0.525731112119 0.0 0.850650808352
-0.154508497188 0.25 0.904508497187
0.154508497188 0.25 0.904508497187
0.0 0.0 1.0
0.309016994375 -0.5 -0.809016994375
0.154508497188 -0.25 -0.904508497187
0.0 0.0 -1.0
0.0 -0.5 -0.809016994375
-0.154508497188 -0.25 -0.904508497187
-0.309016994375 -0.5 -0.809016994375
0.0 -0.850650808352 -0.525731112119
-0.525731112119 0.0 -0.850650808352
0.404508497188 0.654508497187 0.559016994375
0.654508497187 0.559016994375 0.404508497188
0.559016994375 0.404508497188 0.654508497187
-0.309016994375 0.5 -0.809016994375
-0.404508497188 0.654508497187 -0.559016994375
-0.559016994375 0.404508497188 -0.654508497187
-0.654508497187 0.559016994375 -0.404508497188
-0.809016994375 0.309016994375 -0.5
-0.809016994375 0.309016994375 0.5
-0.809016994375 0.0 0.5
-0.904508497187 0.154508497188 0.25
-0.904508497187 -0.154508497188 0.25
-1.0 0.0 0.0
-0.809016994375 -0.309016994375 0.5
-0.850650808352 -0.525731112119 0.0
0.559016994375 -0.404508497188 -0.654508497187
0.654508497187 -0.559016994375 -0.404508497188
0.404508497188 -0.654508497187 -0.559016994375
0.5 -0.809016994375 -0.309016994375
0.154508497188 0.25 -0.904508497187
-0.154508497188 0.25 -0.904508497187
0.0 0.5 -0.809016994375
-0.404508497188 0.654508497187 0.559016994375
-0.654508497187 0.559016994375 0.404508497188
-0.559016994375 0.404508497188 0.654508497187
-0.417374053247 -0.25 0.829833901363
-0.26286555606 0.0 0.925325404176
-0.154508497188 -0.25 0.904508497187
-0.309016994375 -0.5 0.809016994375
0.0 -0.5 0.809016994375
0.154508497188 -0.25 0.904508497187
-0.154508497188 -0.675325404176 0.667374053247
0.154508497188 -0.675325404176 0.667374053247
0.0 -0.850650808352 0.525731112119
0.404508497188 -0.654508497187 0.559016994375
0.25 -0.829833901363 0.417374053247
0.829833901363 0.417374053247 0.25
-0.667374053247 -0.154508497188 -0.675325404176
-0.809016994375 -0.309016994375 -0.5
-0.904508497187 0.154508497188 -0.25
-0.829833901363 -0.417374053247 -0.25
-0.829833901363 0.417374053247 -0.25
-0.925325404176 0.26286555606 0.0
-0.675325404176 -0.667374053247 -0.154508497188
-0.675325404176 -0.667374053247 0.154508497188
-0.5 -0.809016994375 0.0
-0.5 -0.809016994375 -0.309016994375
-0.5 -0.809016994375 0.309016994375
-0.25 -0.904508497187 -0.154508497188
-0.25 -0.904508497187 0.154508497188
0.0 -1.0 0.0
-0.25 -0.829833901363 -0.417374053247
0.0 -0.925325404176 -0.26286555606
-0.25 -0.829833901363 0.417374053247
0.0 -0.925325404176 0.26286555606
-0.829833901363 -0.417374053247 0.25
-0.654508497187 -0.559016994375 0.404508497188
-0.404508497188 -0.654508497187 0.559016994375
-0.559016994375 -0.404508497188 0.654508497187
-0.667374053247 -0.154508497188 0.675325404176
-0.417374053247 -0.25 -0.829833901363
-0.559016994375 -0.404508497188 -0.654508497187
-0.404508497188 -0.654508497187 -0.559016994375
-0.654508497187 -0.559016994375 -0.404508497188
-0.154508497188 -0.675325404176 -0.667374053247
0.25 -0.829833901363 -0.417374053247
0.25 -0.904508497187 -0.154508497188
0.5 -0.809016994375 0.0
0.25 -0.904508497187 0.154508497188
-0.077254248594 0.375 0.856762745781
0.0 0.25 0.904508497187
0.077254248594 0.375 0.856762745781
0.75257965277 0.542374053247 0.202254248594
0.731762745781 0.434016994375 0.452254248594
0.452254248594 -0.731762745781 -0.434016994375
0.202254248594 -0.75257965277 -0.542374053247

CELLS 236 944
3 0 1 2
3 1 3 2
3 1 4 3
3 2 3 5
3 6 7 8
3 8 9 0
3 0 2 8
3 2 10 8
3 8 10 6
3 3 11 5
3 5 11 12
3 3 13 11
3 13 14 11
3 13 15 14
3 11 14 12
3 15 13 4
3 4 13 3
3 12 14 16
3 14 15 16
3 12 17 5
3 5 17 18
3 12 19 17
3 19 20 17
3 19 21 20
3 17 20 18
3 21 19 16
3 16 19 12
3 18 20 22
3 20 21 22
3 21 23 22
3 22 23 24
3 21 25 23
3 25 26 23
3 25 27 26
3 23 26 24
3 27 25 16
3 16 25 21
3 24 26 28
3 26 27 28
3 29 30 22
3 22 30 31
3 32 33 29
3 31 34 6
3 34 35 6
3 36 37 4
3 4 37 38
3 36 39 37
3 39 40 37
3 39 41 40
3 37 40 38
3 42 39 36
3 38 40 43
3 18 44 45
3 44 46 45
3 44 31 46
3 31 44 22
3 22 44 18
3 10 46 6
3 46 31 6
3 47 48 16
3 16 48 27
3 47 49 48
3 49 50 48
3 49 51 50
3 48 50 27
3 51 49 43
3 43 49 47
3 27 50 28
3 52 53 32
3 52 54 53
3 54 55 53
3 54 56 55
3 53 55 57
3 28 54 52
3 55 56 58
3 1 59 4
3 4 59 36
3 1 60 59
3 60 61 59
3 59 61 36
3 62 60 0
3 0 60 1
3 38 63 4
3 4 63 15
3 38 64 63
3 64 65 63
3 64 47 65
3 63 65 15
3 47 64 43
3 43 64 38
3 15 65 16
3 65 47 16
3 24 66 22
3 22 66 29
3 24 67 66
3 67 68 66
3 67 52 68
3 66 68 29
3 52 67 28
3 28 67 24
3 29 68 32
3 68 52 32
3 32 69 70
3 69 71 70
3 69 72 71
3 70 71 35
3 72 73 71
3 73 74 71
3 73 7 74
3 71 74 35
3 72 75 73
3 75 76 73
3 75 77 76
3 73 76 7
3 35 74 6
3 74 7 6
3 7 78 8
3 78 9 8
3 7 76 78
3 76 79 78
3 76 77 79
3 78 79 9
3 5 80 2
3 2 80 10
3 43 81 51
3 81 82 51
3 56 83 82
3 82 83 51
3 82 84 56
3 84 58 56
3 51 83 85
3 83 86 85
3 83 56 86
3 85 86 28
3 58 87 88
3 87 89 88
3 87 90 89
3 88 89 91
3 90 92 89
3 92 93 89
3 92 94 93
3 89 93 91
3 90 95 92
3 95 96 92
3 95 42 96
3 92 96 94
3 91 93 97
3 93 98 97
3 93 94 98
3 97 98 77
3 58 88 99
3 88 100 99
3 88 91 100
3 99 100 57
3 91 101 100
3 101 102 100
3 101 72 102
3 100 102 57
3 91 97 101
3 97 75 101
3 97 77 75
3 101 75 72
3 57 102 103
3 102 69 103
3 102 72 69
3 103 69 32
3 43 104 81
3 104 105 81
3 104 41 105
3 81 105 82
3 41 106 105
3 106 107 105
3 106 90 107
3 105 107 82
3 41 108 106
3 108 95 106
3 108 42 95
3 106 95 90
3 82 107 84
3 107 87 84
3 107 90 87
3 84 87 58
3 42 109 96
3 109 110 96
3 109 62 110
3 96 110 94
3 62 111 110
3 111 112 110
3 111 9 112
3 110 112 94
3 9 111 0
3 0 111 62
3 94 112 98
3 112 79 98
3 112 9 79
3 98 79 77
3 33 113 29
3 29 113 30
3 33 114 113
3 114 115 113
3 114 34 115
3 113 115 30
3 34 114 35
3 35 114 33
3 30 115 31
3 115 34 31
3 32 70 33
3 33 70 35
3 42 108 39
3 39 108 41
3 41 104 40
3 40 104 43
3 45 116 18
3 18 116 5
3 5 116 80
3 116 117 80
3 116 45 117
3 80 117 10
3 10 117 46
3 46 117 45
3 51 85 50
3 50 85 28
3 57 103 53
3 53 103 32
3 28 86 54
3 54 86 56
3 58 99 55
3 55 99 57
3 62 118 60
3 60 118 61
3 61 119 36
3 36 119 42
3 61 118 119
3 118 109 119
3 118 62 109
3 119 109 42

CELL_TYPES 236
5
5
5
5
5
5
5
5
5
5
5
5
5
5
5
5
5
5
5
5
5
5
5
5
5
5
5
5
5
5
5
5
5
5
5
5
5
5
5
5
5
5
5
5
5
5
5
5
5
5
5
5
5
5
5
5
5
5
5
5
5
5
5
5
5
5
5
5
5
5
5
5
5
5
5
5
5
5
5
5
5
5
5
5
5
5
5
5
5
5
5
5
5
5
5
5
5
5
5
5
5
5
5
5
5
5
5
5
5
5
5
5
5
5
5
5
5
5
5
5
5
5
5
5
5
5
5
5
5
5
5
5
5
5
5
5
5
5
5
5
5
5
5
5
5
5
5
5
5
5
5
5
5
5
5
5
5
5
5
5
5
5
5
5
5
5
5
5
5
5
5
5
5
5
5
5
5
5
5
5
5
5
5
5
5
5
5
5
5
5
5
5
5
5
5
5
5
5
5
5
5
5
5
5
5
5
5
5
5
5
5
5
5
5
5
5
5
5
5
5
5
5
5
5
5
5
5
5
5
5
5
5
5
5
5
5

CELL_DATA 236
SCALARS cell_data_0 double
LOOKUP_TABLE default
1.78029093284e-06
3.36785126736e-07
9.34616819056e-07
5.64991541031e-06
4.2121299487e-08
6.73315773612e-07
1.74355839203e-06
4.42477902915e-06
3.34336303106e-06
5.5418416531e-07
1.58756935396e-06
2.93768620264e-07
2.44897150866e-06
2.36044246657e-07
5.94291984829e-07
1.33955271163e-06
3.15118843202e-08
6.06747426501e-07
1.50933046128e-06
2.86888457417e-07
2.75034898245e-06
4.17651413145e-07
1.83810482219e-06
7.33224093277e-07
5.62222514574e-07
2.75555067926e-07
3.56302141367e-07
1.36117414513e-07
1.99461721081e-06
2.31403828052e-10
2.44247836585e-06
6.16980691552e-07
4.38196269074e-07
2.05080702994e-06
2.0399242829e-06
2.97766739651e-06
4.13942644228e-07
1.45855457191e-06
1.50074640725e-06
1.67752825406e-06
4.24875200681e-07
2.17037457264e-06
2.3348093246e-06
7.64215020803e-08
8.07236623847e-07
1.56983744507e-06
5.50889985665e-07
1.47851334133e-06
4.96350382644e-07
8.77860641058e-07
1.29017464906e-07
5.92429942806e-07
8.29356659805e-07
2.93796069397e-06
5.08859713848e-07
6.68659200792e-08
1.57704686514e-07
3.33942351613e-08
2.00717293347e-06
3.93381002934e-07
2.79838813446e-06
4.34225921269e-07
1.92733708604e-06
4.86016648722e-07
4.58498007925e-07
2.25819526972e-06
2.51079741233e-07
6.50739491649e-07
5.50688466184e-07
1.23640172232e-06
2.92071670057e-07
4.68441479211e-07
2.04714779752e-06
3.77229508206e-07
3.40760564692e-07
6.14576433602e-07
6.33329099666e-07
6.46941429903e-07
2.09947175211e-07
7.52303403312e-07
4.40746236724e-07
1.15461968364e-06
7.86080107053e-07
7.15385418132e-07
8.70524476792e-07
1.57814478806e-06
4.65816794688e-09
5.47947385439e-07
1.01815117432e-06
1.26963621367e-06
1.317069889e-06
4.924649592e-07
5.18342516476e-07
2.38455554628e-06
1.0177886469e-07
2.04729568159e-06
1.03189057836e-06
8.91812819736e-07
9.65371526008e-08
1.31449240314e-06
3.18547434767e-07
5.58018989845e-07
7.78135226525e-07
1.60601596795e-06
3.69082905006e-07
7.57882167786e-07
3.56738097329e-07
2.26712446597e-06
1.5904384327e-06
1.41811932861e-06
1.91025928097e-06
7.35576296695e-08
9.33283386906e-07
2.21996747055e-06
1.077075241e-06
1.17614475429e-06
1.77284400881e-06
3.31101702517e-06
1.17160954056e-06
2.6153308764e-07
1.80471284586e-06
9.14471566286e-07
2.59115576232e-06
8.3241922589e-07
1.34966486799e-06
2.40605302999e-06
1.72934463345e-06
1.50626441315e-06
9.77006571299e-08
1.01706889551e-06
1.20504820388e-06
6.6045111536e-07
2.2501937952e-07
1.15269374567e-06
9.64746299623e-07
1.99790600365e-06
6.72267622829e-07
3.96330450703e-07
1.93431260786e-06
1.93369918053e-06
2.34742649225e-07
1.0162068826e-06
1.70330999588e-06
3.99806932992e-07
8.86276640272e-07
1.87101125167e-06
7.03204854697e-07
1.52456682245e-06
4.24380544256e-07
8.79042835556e-07
8.13747962295e-08
1.27860019131e-06
3.85306595687e-07
1.82007620634e-06
4.74351711885e-07
3.66741784254e-07
1.99325835887e-06
2.04618162634e-06
5.32151580387e-07
3.98206334382e-07
7.54517681121e-07
1.7178070775e-06
1.75820255071e-06
3.35723721649e-07
1.91973588958e-06
7.83812693963e-07
5.99775105295e-07
8.66040042797e-07
2.54441933436e-07
1.4422803105e-06
3.54662162164e-07
6.84199867009e-07
1.82101534241e-06
1.60908000935e-06
5.65363758393e-07
3.48957862563e-07
9.51477564456e-07
1.81844885738e-06
1.62839937184e-06
1.45981838233e-06
4.92684561704e-07
1.66830624155e-07
7.92799624451e-07
4.84708321758e-07
3.48536376391e-08
1.87525162602e-06
2.0988934744e-07
5.08582663954e-07
9.18483003543e-07
1.89011310264e-06
1.983188893e-06
5.5634284414e-07
1.82305785841e-06
3.59925887472e-07
1.62254768316e-06
1.67916767098e-06
3.65194132803e-07
2.76636660389e-07
4.22803935944e-07
2.07252837229e-07
1.04574444438e-07
4.0593713688e-07
3.10043828815e-07
3.59381933367e-07
3.78025769054e-07
1.0368682562e-06
9.60067690802e-07
6.02165189116e-07
3.81065407803e-07
4.62078090681e-07
4.9747112968e-07
6.89432146478e-07
4.22338917388e-08
2.0035373396e-06
9.56451552415e-07
1.40166229765e-07
7.02797814404e-07
5.87774773282e-07
3.4790207842e-07
8.67633569161e-07
5.06135056175e-07
1.13007301725e-06
1.66599415414e-06
7.12347973743e-08
4.64901867646e-07
8.26838363898e-07
2.5485330021e-07
1.74299396814e-06
2.02036285682e-07
9.18135460264e-08
3.78375179979e-07
5.24213165688e-07
1.11777249733e-07
1.77380688835e-07
1.75566586758e-07
6.16015165146e-07

