# vtk DataFile Version 3.0
File Name: Molecule/sphere_cent/sphere_cent_0-s4.vtk
ASCII
DATASET UNSTRUCTURED_GRID
FIELD FieldData 1
TIME 1 1 double
0.0
POINTS 212 double
0.850650808352 -0.525731112119 0.0
0.809016994375 -0.309016994375 -0.5
1.0 0.0 0.0
0.525731112119 0.0 -0.850650808352
0.809016994375 0.309016994375 -0.5
0.850650808352 0.525731112119 0.0
0.654508497187 0.559016994375 -0.404508497188
0.5 0.809016994375 -0.309016994375
0.309016994375 0.5 -0.809016994375
0.559016994375 0.404508497188 -0.654508497187
0.404508497188 0.654508497187 -0.559016994375
0.0 0.850650808352 -0.525731112119
0.25 0.904508497187 -0.154508497188
0.5 0.809016994375 0.0
0.25 0.904508497187 0.154508497188
0.0 0.850650808352 0.525731112119
0.0 0.5 0.809016994375
0.309016994375 0.5 0.809016994375
0.309016994375 -0.5 -0.809016994375
0.154508497188 -0.25 -0.904508497187
0.0 0.0 -1.0
0.0 -0.5 -0.809016994375
-0.154508497188 -0.25 -0.904508497187
-0.309016994375 -0.5 -0.809016994375
0.0 -0.850650808352 -0.525731112119
-0.525731112119 0.0 -0.850650808352
0.404508497188 0.654508497187 0.559016994375
0.5 0.809016994375 0.309016994375
-0.309016994375 0.5 -0.809016994375
-0.559016994375 0.404508497188 -0.654508497187
-0.404508497188 0.654508497187 -0.559016994375
-0.654508497187 0.559016994375 -0.404508497188
-0.5 0.809016994375 -0.309016994375
-0.850650808352 0.525731112119 0.0
-0.809016994375 0.309016994375 0.5
-0.809016994375 0.0 0.5
-0.525731112119 0.0 0.850650808352
-0.904508497187 0.154508497188 0.25
-1.0 0.0 0.0
-0.904508497187 -0.154508497188 0.25
-0.850650808352 -0.525731112119 0.0
0.559016994375 -0.404508497188 -0.654508497187
0.654508497187 -0.559016994375 -0.404508497188
0.404508497188 -0.654508497187 -0.559016994375
0.5 -0.809016994375 -0.309016994375
0.154508497188 0.25 -0.904508497187
-0.154508497188 0.25 -0.904508497187
0.0 0.5 -0.809016994375
-0.654508497187 0.559016994375 0.404508497188
-0.417374053247 -0.25 0.829833901363
-0.26286555606 0.0 0.925325404176
-0.154508497188 -0.25 0.904508497187
-0.309016994375 -0.5 0.809016994375
0.0 0.0 1.0
-0.154508497188 -0.675325404176 0.667374053247
0.0 -0.5 0.809016994375
0.0 -0.850650808352 0.525731112119
0.154508497188 -0.675325404176 0.667374053247
0.154508497188 -0.25 0.904508497187
0.525731112119 0.0 0.850650808352
0.25 -0.829833901363 0.417374053247
0.404508497188 -0.654508497187 0.559016994375
-0.904508497187 0.154508497188 -0.25
-0.809016994375 -0.309016994375 -0.5
-0.829833901363 -0.417374053247 -0.25
-0.809016994375 0.309016994375 -0.5
-0.829833901363 0.417374053247 -0.25
-0.925325404176 0.26286555606 0.0
-0.5 -0.809016994375 -0.309016994375
-0.25 -0.904508497187 -0.154508497188
-0.5 -0.809016994375 0.0
-0.25 -0.904508497187 0.154508497188
0.0 -1.0 0.0
-0.5 -0.809016994375 0.309016994375
-0.25 -0.829833901363 -0.417374053247
0.0 -0.925325404176 -0.26286555606
-0.25 -0.829833901363 0.417374053247
0.0 -0.925325404176 0.26286555606
-0.675325404176 -0.667374053247 0.154508497188
-0.829833901363 -0.417374053247 0.25
-0.654508497187 -0.559016994375 0.404508497188
-0.404508497188 -0.654508497187 0.559016994375
-0.559016994375 -0.404508497188 0.654508497187
-0.667374053247 -0.154508497188 0.675325404176
-0.417374053247 -0.25 -0.829833901363
-0.559016994375 -0.404508497188 -0.654508497187
-0.667374053247 -0.154508497188 -0.675325404176
-0.404508497188 -0.654508497187 -0.559016994375
-0.654508497187 -0.559016994375 -0.404508497188
-0.154508497188 -0.675325404176 -0.667374053247
-0.675325404176 -0.667374053247 -0.154508497188
0.25 -0.829833901363 -0.417374053247
0.25 -0.904508497187 -0.154508497188
0.5 -0.809016994375 0.0
0.25 -0.904508497187 0.154508497188
0.5 -0.809016994375 0.309016994375
-0.309016994375 0.5 0.809016994375
-0.077254248594 0.375 0.856762745781
-0.154508497188 0.25 0.904508497187
0.0 0.25 0.904508497187
0.077254248594 0.375 0.856762745781
0.154508497188 0.25 0.904508497187
0.75257965277 0.542374053247 0.202254248594
0.654508497187 0.559016994375 0.404508497188
0.731762745781 0.434016994375 0.452254248594
0.452254248594 -0.731762745781 -0.434016994375
0.202254248594 -0.75257965277 -0.542374053247
0.904508497187 0.154508497188 -0.25
0.925325404176 0.26286555606 0.0
0.829833901363 0.417374053247 -0.25
0.809016994375 -0.309016994375 0.5
0.667374053247 -0.154508497188 0.675325404176
0.309016994375 -0.5 0.809016994375
0.654508497187 -0.559016994375 0.404508497188
0.904508497187 -0.154508497188 0.25
0.904508497187 0.154508497188 0.25
0.809016994375 0.0 0.5
0.809016994375 0.309016994375 0.5
0.667374053247 0.154508497188 0.675325404176
0.606762745781 0.481762745782 -0.529508497188
0.481762745782 0.529508497188 -0.606762745781
0.529508497188 0.606762745781 -0.481762745782
0.675325404176 0.667374053247 0.0
0.675325404176 0.667374053247 0.154508497188
0.5 0.809016994375 0.154508497188
0.0 1.0 0.0
0.125 0.952254248593 0.077254248594
0.0 0.925325404176 -0.26286555606
0.125 0.87757965277 0.340119804654
0.0 0.925325404176 0.26286555606
-0.125 0.952254248593 0.077254248594
-0.125 0.87757965277 0.340119804654
-0.25 0.904508497187 0.154508497188
-0.25 0.829833901363 0.417374053247
-0.375 0.856762745781 0.231762745782
-0.5 0.809016994375 0.309016994375
-0.125 0.952254248593 -0.077254248594
-0.25 0.904508497187 0.0
-0.25 0.904508497187 -0.154508497188
-0.375 0.856762745781 -0.077254248594
-0.375 0.856762745781 0.077254248594
-0.5 0.809016994375 0.0
-0.375 0.856762745781 -0.231762745782
-0.5 0.809016994375 -0.154508497188
-0.5 0.809016994375 0.154508497188
-0.25 0.829833901363 -0.417374053247
-0.125 0.87757965277 -0.340119804654
-0.154508497188 0.675325404176 0.667374053247
-0.340119804654 0.125 0.87757965277
-0.417374053247 0.25 0.829833901363
-0.231762745782 0.375 0.856762745781
0.231762745782 0.375 0.856762745781
0.417374053247 0.25 0.829833901363
0.340119804654 0.125 0.87757965277
0.529508497188 0.606762745781 0.481762745782
0.481762745782 0.529508497188 0.606762745781
0.606762745781 0.481762745782 0.529508497188
0.559016994375 0.404508497188 0.654508497187
0.356762745782 0.577254248593 0.684016994375
0.434016994375 0.452254248594 0.731762745781
0.684016994375 0.356762745782 0.577254248593
0.542374053247 0.202254248594 0.75257965277
-0.202254248594 0.75257965277 -0.542374053247
-0.452254248594 0.731762745781 -0.434016994375
-0.684016994375 0.356762745782 -0.577254248593
-0.667374053247 0.154508497188 -0.675325404176
-0.542374053247 0.202254248594 -0.75257965277
-0.856762745781 -0.077254248594 0.375
-0.809016994375 -0.154508497188 0.5
-0.856762745781 -0.231762745782 0.375
-0.809016994375 -0.309016994375 0.5
-0.452254248594 0.731762745781 0.434016994375
-0.202254248594 0.75257965277 0.542374053247
-0.404508497188 0.654508497187 0.559016994375
-0.356762745782 0.577254248593 0.684016994375
-0.577254248593 0.684016994375 0.356762745782
-0.529508497188 0.606762745781 0.481762745782
-0.606762745781 0.481762745782 0.529508497188
-0.481762745782 0.529508497188 0.606762745781
-0.559016994375 0.404508497188 0.654508497187
-0.434016994375 0.452254248594 0.731762745781
-0.542374053247 0.202254248594 0.75257965277
-0.077254248594 -0.375 0.856762745781
0.077254248594 -0.375 0.856762745781
0.0 -0.25 0.904508497187
0.154508497188 -0.5 0.809016994375
0.231762745782 -0.375 0.856762745781
0.077254248594 -0.587662702088 0.738195523811
0.231762745782 -0.587662702088 0.738195523811
0.606762745782 -0.481762745781 0.529508497187
0.452254248594 -0.731762745781 0.434016994375
0.840242354857 0.471552582683 0.125
0.914916950682 0.208687026623 0.125
0.829833901363 0.417374053247 0.25
0.819425447869 0.363195523811 0.375
-0.596552582683 -0.077254248594 -0.762988106264
-0.738195523811 0.0772542485935 -0.587662702088
-0.738195523811 -0.231762745782 -0.587662702088
-0.809016994375 0.0 -0.5
-0.675325404176 -0.667374053247 0.0
-0.587662702088 -0.738195523811 -0.077254248594
-0.587662702088 -0.738195523811 0.077254248594
-0.731762745781 -0.434016994375 0.452254248594
-0.529508497188 -0.606762745781 0.481762745782
-0.481762745782 -0.529508497188 0.606762745781
-0.606762745781 -0.481762745782 0.529508497188
-0.356762745782 -0.577254248593 0.684016994375
-0.434016994375 -0.452254248594 0.731762745781
-0.684016994375 -0.356762745782 0.577254248593
0.626289826385 0.675695523811 0.255635621485
0.801615230561 0.534052582683 0.101127124297
0.791206777066 0.479874053247 0.226127124297

CELLS 420 1680
3 0 1 2
3 1 3 4
3 5 6 7
3 8 9 3
3 3 9 4
3 7 10 11
3 10 8 11
3 7 12 13
3 12 14 13
3 11 12 7
3 15 16 17
3 18 19 3
3 3 19 20
3 18 21 19
3 21 22 19
3 21 23 22
3 19 22 20
3 24 21 18
3 20 22 25
3 15 26 27
3 28 29 30
3 29 31 30
3 32 31 33
3 34 35 36
3 34 37 35
3 37 38 39
3 33 37 34
3 39 38 40
3 1 41 3
3 3 41 18
3 1 42 41
3 42 43 41
3 41 43 18
3 44 42 0
3 0 42 1
3 20 45 3
3 3 45 8
3 20 46 45
3 46 47 45
3 46 28 47
3 45 47 8
3 28 46 25
3 25 46 20
3 8 47 11
3 47 28 11
3 34 48 33
3 36 49 50
3 49 51 50
3 49 52 51
3 50 51 53
3 52 54 55
3 54 56 57
3 53 58 59
3 57 60 61
3 57 56 60
3 38 62 63
3 63 64 38
3 64 40 38
3 65 62 66
3 62 67 66
3 62 38 67
3 66 67 33
3 68 69 70
3 69 71 70
3 69 72 71
3 70 71 73
3 68 74 69
3 74 75 69
3 74 24 75
3 69 75 72
3 73 71 76
3 71 77 76
3 71 72 77
3 76 77 56
3 40 78 79
3 78 80 79
3 78 73 80
3 73 76 81
3 76 54 81
3 76 56 54
3 82 49 83
3 83 49 36
3 84 85 86
3 84 23 85
3 23 87 85
3 87 88 85
3 87 68 88
3 85 88 63
3 23 89 87
3 89 74 87
3 89 24 74
3 87 74 68
3 63 88 64
3 88 90 64
3 88 68 90
3 64 90 40
3 24 91 75
3 91 92 75
3 91 44 92
3 75 92 72
3 44 93 92
3 93 94 92
3 93 95 94
3 92 94 72
3 95 93 0
3 0 93 44
3 72 94 77
3 94 60 77
3 94 95 60
3 77 60 56
3 96 97 16
3 98 99 97
3 99 100 97
3 99 101 100
3 97 100 16
3 101 99 53
3 53 99 98
3 16 100 17
3 98 50 53
3 24 89 21
3 21 89 23
3 23 84 22
3 22 84 25
3 102 103 104
3 65 66 31
3 31 66 33
3 35 83 36
3 33 67 37
3 37 67 38
3 40 79 39
3 44 105 42
3 42 105 43
3 43 106 18
3 18 106 24
3 43 105 106
3 105 91 106
3 105 44 91
3 106 91 24
3 4 107 1
3 1 107 2
3 2 107 108
3 107 109 108
3 107 4 109
3 108 109 5
3 110 111 112
3 112 111 59
3 110 113 0
3 113 95 0
3 2 114 0
3 0 114 110
3 2 115 114
3 115 116 114
3 115 117 116
3 114 116 110
3 110 116 111
3 116 118 111
3 116 117 118
3 111 118 59
3 5 109 6
3 6 109 4
3 9 119 4
3 4 119 6
3 9 120 119
3 120 121 119
3 120 10 121
3 119 121 6
3 10 120 8
3 8 120 9
3 6 121 7
3 121 10 7
3 13 122 7
3 7 122 5
3 5 122 123
3 122 124 123
3 122 13 124
3 123 124 27
3 125 126 12
3 12 126 14
3 27 124 14
3 14 124 13
3 11 127 12
3 12 127 125
3 14 128 27
3 27 128 15
3 14 126 128
3 126 129 128
3 126 125 129
3 128 129 15
3 125 130 129
3 130 131 129
3 130 132 131
3 129 131 15
3 15 131 133
3 131 134 133
3 131 132 134
3 133 134 135
3 125 136 130
3 136 137 130
3 136 138 137
3 130 137 132
3 138 139 137
3 139 140 137
3 139 141 140
3 137 140 132
3 138 142 139
3 142 143 139
3 142 32 143
3 139 143 141
3 132 140 134
3 140 144 134
3 140 141 144
3 134 144 135
3 32 142 145
3 142 146 145
3 142 138 146
3 145 146 11
3 11 146 127
3 146 136 127
3 146 138 136
3 127 136 125
3 135 144 33
3 144 141 33
3 141 143 33
3 143 32 33
3 15 147 16
3 16 147 96
3 36 148 149
3 148 150 149
3 148 98 150
3 149 150 96
3 17 151 152
3 151 153 152
3 151 101 153
3 152 153 59
3 59 153 53
3 53 153 101
3 26 154 27
3 27 154 103
3 26 155 154
3 155 156 154
3 155 157 156
3 154 156 103
3 26 158 155
3 158 159 155
3 158 17 159
3 155 159 157
3 17 158 15
3 158 26 15
3 117 160 118
3 160 161 118
3 160 157 161
3 118 161 59
3 157 159 161
3 159 152 161
3 159 17 152
3 161 152 59
3 30 162 28
3 28 162 11
3 11 162 145
3 162 163 145
3 162 30 163
3 145 163 32
3 29 164 31
3 164 65 31
3 32 163 31
3 31 163 30
3 65 164 165
3 164 166 165
3 164 29 166
3 165 166 25
3 25 166 28
3 166 29 28
3 39 167 37
3 37 167 35
3 35 167 168
3 167 169 168
3 167 39 169
3 168 169 170
3 135 171 133
3 171 172 133
3 171 173 172
3 133 172 15
3 15 172 147
3 172 174 147
3 172 173 174
3 147 174 96
3 135 175 171
3 175 176 171
3 175 48 176
3 171 176 173
3 48 177 176
3 177 178 176
3 177 179 178
3 176 178 173
3 179 177 34
3 34 177 48
3 173 178 174
3 178 180 174
3 178 179 180
3 174 180 96
3 48 175 33
3 33 175 135
3 96 180 149
3 180 181 149
3 180 179 181
3 149 181 36
3 36 181 34
3 34 181 179
3 55 182 52
3 52 182 51
3 55 183 182
3 183 184 182
3 183 58 184
3 182 184 51
3 55 185 183
3 185 186 183
3 185 112 186
3 183 186 58
3 51 184 53
3 184 58 53
3 57 187 54
3 54 187 55
3 55 187 185
3 187 188 185
3 187 57 188
3 185 188 112
3 58 186 59
3 186 112 59
3 61 189 112
3 112 189 110
3 61 190 189
3 190 113 189
3 190 95 113
3 189 113 110
3 112 188 61
3 188 57 61
3 95 190 60
3 60 190 61
3 5 191 108
3 191 192 108
3 191 193 192
3 108 192 2
3 2 192 115
3 192 194 115
3 192 193 194
3 115 194 117
3 25 195 165
3 195 196 165
3 195 86 196
3 165 196 65
3 86 197 196
3 197 198 196
3 197 63 198
3 196 198 65
3 65 198 62
3 62 198 63
3 90 199 40
3 40 199 78
3 90 200 199
3 200 201 199
3 200 70 201
3 199 201 78
3 70 200 68
3 68 200 90
3 78 201 73
3 201 70 73
3 80 202 79
3 79 202 170
3 81 203 73
3 73 203 80
3 81 204 203
3 204 205 203
3 204 82 205
3 203 205 80
3 81 206 204
3 206 207 204
3 206 52 207
3 204 207 82
3 80 205 202
3 205 208 202
3 205 82 208
3 202 208 170
3 52 206 54
3 54 206 81
3 170 208 83
3 208 82 83
3 82 207 49
3 207 52 49
3 86 195 84
3 84 195 25
3 63 197 85
3 85 197 86
3 96 150 97
3 97 150 98
3 101 151 100
3 100 151 17
3 98 148 50
3 50 148 36
3 102 209 103
3 103 209 27
3 27 209 123
3 209 210 123
3 209 102 210
3 123 210 5
3 5 210 191
3 210 211 191
3 210 102 211
3 191 211 193
3 193 211 104
3 104 211 102
3 117 194 104
3 104 194 193
3 157 160 104
3 104 160 117
3 103 156 104
3 104 156 157
3 35 168 83
3 83 168 170
3 170 169 79
3 79 169 39

CELL_TYPES 420
5
5
5
5
5
5
5
5
5
5
5
5
5
5
5
5
5
5
5
5
5
5
5
5
5
5
5
5
5
5
5
5
5
5
5
5
5
5
5
5
5
5
5
5
5
5
5
5
5
5
5
5
5
5
5
5
5
5
5
5
5
5
5
5
5
5
5
5
5
5
5
5
5
5
5
5
5
5
5
5
5
5
5
5
5
5
5
5
5
5
5
5
5
5
5
5
5
5
5
5
5
5
5
5
5
5
5
5
5
5
5
5
5
5
5
5
5
5
5
5
5
5
5
5
5
5
5
5
5
5
5
5
5
5
5
5
5
5
5
5
5
5
5
5
5
5
5
5
5
5
5
5
5
5
5
5
5
5
5
5
5
5
5
5
5
5
5
5
5
5
5
5
5
5
5
5
5
5
5
5
5
5
5
5
5
5
5
5
5
5
5
5
5
5
5
5
5
5
5
5
5
5
5
5
5
5
5
5
5
5
5
5
5
5
5
5
5
5
5
5
5
5
5
5
5
5
5
5
5
5
5
5
5
5
5
5
5
5
5
5
5
5
5
5
5
5
5
5
5
5
5
5
5
5
5
5
5
5
5
5
5
5
5
5
5
5
5
5
5
5
5
5
5
5
5
5
5
5
5
5
5
5
5
5
5
5
5
5
5
5
5
5
5
5
5
5
5
5
5
5
5
5
5
5
5
5
5
5
5
5
5
5
5
5
5
5
5
5
5
5
5
5
5
5
5
5
5
5
5
5
5
5
5
5
5
5
5
5
5
5
5
5
5
5
5
5
5
5
5
5
5
5
5
5
5
5
5
5
5
5
5
5
5
5
5
5
5
5
5
5
5
5
5
5
5
5
5
5
5
5
5
5
5
5
5
5
5
5
5
5
5
5
5
5
5
5
5
5
5
5
5
5
5
5
5
5
5
5
5
5
5
5
5
5
5
5
5
5
5
5

CELL_DATA 420
SCALARS cell_data_0 double
LOOKUP_TABLE default
3.46838311146e-06
2.61779414637e-06
8.48547118505e-07
1.4372902512e-06
8.40892926798e-07
2.35931072076e-06
4.42560287388e-07
8.92191072204e-07
6.38151308062e-08
8.23294271407e-08
7.81900635895e-07
2.96602749714e-07
3.30966265676e-07
1.20717663093e-06
2.47490276492e-06
4.73228802392e-08
3.07086231844e-07
1.59175475176e-06
5.50689789489e-07
4.37074952123e-07
4.50262836577e-08
6.16112486742e-07
1.75568182934e-06
4.6159643366e-07
7.0076073583e-07
1.47267774891e-07
3.71354550062e-06
1.14422534113e-06
4.33372941465e-07
2.7849265865e-09
6.30272053338e-07
2.92136457149e-06
3.85714054814e-07
7.96937587566e-08
6.08165164971e-07
1.04628885191e-06
1.64525980239e-06
1.85715529293e-06
5.09261797329e-07
4.54278648718e-07
2.29393336106e-06
1.03262381883e-06
3.54394192748e-06
1.99323013433e-06
8.12785375051e-07
8.3401579207e-07
5.00105307507e-07
6.27572462178e-07
3.60126554555e-07
2.27451627419e-07
5.62921845468e-07
1.479387172e-06
1.27822012999e-06
1.03550569204e-07
1.14425003504e-06
2.54808258086e-07
2.10296104401e-06
4.9685344316e-06
4.77449010555e-07
5.05342667041e-07
1.58034180571e-06
2.0946917943e-06
1.96552896257e-06
3.60490524662e-07
2.08140144778e-06
6.96753348305e-07
8.41804841666e-07
1.87387576372e-06
9.16077145934e-07
7.11697375104e-07
1.21531499682e-06
2.42008604116e-07
1.93351203591e-06
1.53462041688e-06
2.37043187364e-06
1.13964626057e-07
6.32783005568e-07
1.04133883351e-06
2.71904277118e-07
1.68240835836e-06
6.73791848609e-08
6.18379187662e-07
8.03627094519e-07
8.30949311388e-07
1.23471843948e-06
8.73991793561e-07
2.21368205969e-06
3.25550483e-07
1.6909088037e-06
1.3075384092e-06
1.12543097007e-07
7.52100943222e-07
1.70779730244e-06
2.1297235399e-07
1.76259246262e-06
2.18571254218e-06
3.86246183786e-07
2.2553818257e-06
1.6077564589e-07
4.50968444059e-07
2.30531094101e-07
2.52309146257e-06
5.28495271682e-07
3.79342251059e-07
7.18898188318e-07
1.29839278095e-06
1.11660680808e-06
9.01460632637e-07
2.83735800841e-07
1.05414731186e-06
1.00940921682e-06
4.25364534743e-07
1.77714673457e-07
4.24922706088e-07
1.13578595884e-07
3.46509737362e-07
5.31480322518e-07
8.92550011626e-08
7.15452956031e-07
1.07894015146e-07
1.37854439604e-06
7.93962962133e-09
7.06550120081e-07
4.31928329265e-07
9.95429390156e-07
1.67046250929e-06
8.38420222007e-07
8.84256143681e-07
1.75140249031e-06
2.18444188434e-07
6.16963555565e-07
9.77197264393e-07
2.77972436702e-07
1.28436402651e-06
6.0070682107e-07
2.42134711996e-07
8.67591825578e-07
4.31806248843e-07
2.5666961479e-06
2.42438858872e-06
1.93396851327e-06
3.93583744814e-07
2.20419687953e-06
1.20621895014e-06
3.40708361969e-07
7.32568997477e-07
1.67091282361e-06
1.62461116945e-06
1.38100844839e-06
2.93488898788e-06
6.82581925573e-07
2.98544935806e-06
9.70775273613e-07
1.62239598513e-06
3.13476640961e-07
7.64217588694e-07
2.37098795424e-07
7.62464115888e-07
1.73192464627e-07
2.05820133154e-06
4.51503173455e-07
4.28265857835e-07
4.663444553e-07
5.30069706453e-07
6.12474613118e-07
3.42495347214e-07
6.45794308124e-09
7.10058183329e-07
2.74799708011e-07
3.65285295229e-07
1.24426651451e-07
1.52486944695e-07
4.48318889329e-08
3.25646954547e-07
5.33415838684e-08
1.94097601115e-07
6.80449412865e-09
2.66515226152e-07
4.45783665767e-07
1.08591952471e-07
6.68221468374e-08
2.66014994468e-07
2.77100099723e-07
5.1883462547e-07
1.62824306477e-07
3.03705122787e-07
7.46770312999e-08
8.41120886977e-07
7.1650337597e-07
3.47401735331e-07
4.66270403623e-07
7.63704926398e-07
8.75621132647e-07
1.05953387724e-07
1.23882145507e-07
1.09159089228e-06
5.24220497142e-07
7.67949024648e-08
3.35785806829e-08
2.17147016563e-07
4.12224261712e-07
4.85785097653e-07
3.8242030697e-07
1.53744383009e-07
1.70533014339e-07
1.05996605934e-07
4.45483993921e-07
1.10938287059e-07
7.73975208525e-08
1.08525530819e-07
8.53896461325e-08
6.06993564141e-07
2.8784454848e-07
3.88593875345e-07
3.46607617009e-07
1.02133426321e-07
1.6424796395e-07
3.55055871545e-07
2.80285638275e-07
4.02955085618e-07
1.82708113608e-06
1.88166886636e-09
4.90650058665e-07
1.1875089751e-06
1.0465183894e-08
1.26869426822e-06
7.14316975721e-07
5.07725831138e-07
2.73319538997e-07
1.56780058663e-06
7.17024874664e-07
2.55176429883e-07
2.95393904593e-07
3.91563404079e-07
2.38742150175e-07
1.20273903836e-06
8.96838751291e-09
3.6217293321e-07
3.21909372286e-07
5.19368030379e-07
4.66514292299e-07
3.52911688357e-07
1.89607446586e-07
6.87176761252e-08
3.4527043804e-07
3.36067432077e-07
4.02493739231e-07
6.7538661823e-07
5.4788014305e-07
1.47514028014e-07
6.51006131883e-07
3.78718527293e-07
6.67679149297e-07
3.08849007937e-07
2.06544201531e-07
2.42595572637e-07
2.095315162e-07
6.79132515442e-08
4.31755330348e-07
1.74597702799e-07
2.1005151978e-07
6.14279125754e-07
5.27113957406e-08
5.01529366583e-07
9.46982693842e-07
3.93944365067e-07
2.45589430525e-07
8.969640204e-07
7.21222054929e-07
7.53559074287e-09
4.15398861823e-07
1.29381922977e-06
1.31315922372e-06
1.09421446185e-06
2.03277722039e-07
1.80806600499e-11
3.56171322614e-07
5.1476116991e-07
1.1175457498e-06
6.06349607505e-08
6.85407449623e-07
6.60603411942e-07
4.02857064389e-07
1.18997804389e-07
4.56693089075e-07
1.18416704561e-06
8.47466803827e-07
1.83274071625e-07
9.15843412576e-08
2.32394340469e-07
4.76228634119e-07
3.67855063691e-07
4.30277130748e-07
5.10256829765e-07
6.00089745222e-07
3.45862615106e-08
2.72842244273e-07
1.42621244767e-07
1.89212823992e-08
1.15147393722e-06
4.00965386985e-07
2.51546962534e-06
1.68753961914e-06
6.61222605378e-07
3.25256837256e-07
7.53303620027e-07
1.41259778144e-06
1.24974001413e-06
9.88344106727e-08
1.5378773785e-07
1.96736889188e-07
4.21193872265e-07
4.33769436391e-07
4.29117798533e-07
2.12554795004e-08
1.27358237895e-07
9.56169576335e-07
1.35276652143e-07
4.54112776546e-07
4.26041565687e-07
3.27567224e-07
5.6429382496e-07
1.66909522351e-07
6.45284825644e-08
2.62709498785e-07
1.06043223791e-06
4.12753050792e-07
1.74055342703e-06
1.73788746213e-07
3.39920484052e-07
7.54147829872e-07
1.13907274997e-06
3.13184904428e-08
4.92344401329e-07
1.84258938032e-06
7.789184233e-07
2.79301666264e-07
8.78417249998e-08
8.68104373707e-07
1.48516133169e-07
1.06090056978e-07
8.03655531851e-07
3.04551500233e-07
6.05930424975e-07
2.50920625017e-07
7.17506840449e-08
7.54281946844e-07
2.79792008147e-07
1.84497219576e-07
2.5984548944e-07
1.57937455642e-07
1.95958760432e-07
5.80772822356e-07
4.23839324593e-07
5.1417317385e-08
8.21164365438e-07
8.36527061173e-07
8.29359407052e-07
9.61463868753e-08
8.14420660356e-08
6.92586315006e-11
9.83011549828e-08
8.65740985496e-07
8.08024056786e-07
3.7985362759e-07
4.25615555422e-07
3.30437209367e-07
5.29777641099e-07
3.63254291908e-07
4.91210134186e-07
4.12669330516e-08
6.52093839647e-08
3.94467682111e-08
1.11289810098e-08
3.65946361651e-08
9.11499847561e-08
2.91976150414e-07
1.24889509871e-07
9.23927185392e-08
8.03605107494e-08
1.24928473681e-07
2.21957482827e-07
5.82730368211e-07
8.0967580134e-08
3.10597837975e-07
1.52628405196e-07
7.04556328621e-08
4.35049490841e-07
3.54085796703e-08
7.93495766504e-07
1.56300432675e-07
1.564793601e-07
7.50632029286e-07
1.63212682999e-07
7.65266128347e-08
2.56861674663e-07
6.03236987058e-07
5.24038838279e-07
1.50065019667e-07
1.63931998863e-07
1.37319530718e-07
1.04920103932e-07
7.14231159127e-08
1.44573661446e-07
2.1844138749e-07
7.95071832951e-08
1.55696999567e-08
2.00717485211e-07
1.80086956551e-07
2.69601370349e-07
2.60952953924e-08
1.01723721389e-07
3.96010804657e-07
2.31513018038e-08
2.34376830442e-07
5.17153794037e-07
1.64885592733e-07
5.86924675789e-07
7.60271669765e-07
2.59947070483e-07

