# vtk DataFile Version 3.0
File Name: Molecule/sphere_cent/sphere_cent_0-s2.vtk
ASCII
DATASET UNSTRUCTURED_GRID
FIELD FieldData 1
TIME 1 1 double
0.0
POINTS 72 double
0.850650808352 -0.525731112119 0.0
0.809016994375 -0.309016994375 -0.5
1.0 0.0 0.0
0.809016994375 0.309016994375 -0.5
0.525731112119 0.0 -0.850650808352
0.850650808352 0.525731112119 0.0
0.0 0.850650808352 0.525731112119
-0.5 0.809016994375 0.309016994375
-0.309016994375 0.5 0.809016994375
-0.809016994375 0.309016994375 0.5
-0.850650808352 0.525731112119 0.0
-0.525731112119 0.0 0.850650808352
-0.309016994375 -0.5 0.809016994375
0.0 0.0 1.0
0.309016994375 -0.5 0.809016994375
0.0 -0.850650808352 0.525731112119
0.525731112119 0.0 0.850650808352
0.809016994375 -0.309016994375 0.5
0.5 -0.809016994375 0.309016994375
0.809016994375 0.309016994375 0.5
-0.525731112119 0.0 -0.850650808352
-0.809016994375 -0.309016994375 -0.5
-0.809016994375 0.309016994375 -0.5
-1.0 0.0 0.0
-0.850650808352 -0.525731112119 0.0
-0.5 -0.809016994375 -0.309016994375
-0.5 -0.809016994375 0.309016994375
0.0 -1.0 0.0
0.0 -0.850650808352 -0.525731112119
-0.809016994375 -0.309016994375 0.5
-0.309016994375 -0.5 -0.809016994375
0.5 -0.809016994375 -0.309016994375
0.654508497187 0.559016994375 -0.404508497188
0.5 0.809016994375 -0.309016994375
0.559016994375 0.404508497188 -0.654508497187
0.404508497188 0.654508497187 -0.559016994375
0.309016994375 0.5 -0.809016994375
0.0 0.850650808352 -0.525731112119
0.5 0.809016994375 0.0
0.5 0.809016994375 0.309016994375
0.25 0.904508497187 -0.154508497188
0.25 0.904508497187 0.154508497188
0.0 1.0 0.0
-0.25 0.904508497187 0.154508497188
-0.25 0.904508497187 -0.154508497188
-0.5 0.809016994375 0.0
-0.5 0.809016994375 -0.309016994375
0.0 0.5 0.809016994375
0.309016994375 0.5 0.809016994375
-0.154508497188 0.25 0.904508497187
0.154508497188 0.25 0.904508497187
0.309016994375 -0.5 -0.809016994375
0.154508497188 -0.25 -0.904508497187
0.0 0.0 -1.0
0.0 -0.5 -0.809016994375
-0.154508497188 -0.25 -0.904508497187
0.654508497187 0.559016994375 0.404508497188
0.404508497188 0.654508497187 0.559016994375
0.559016994375 0.404508497188 0.654508497187
-0.309016994375 0.5 -0.809016994375
-0.404508497188 0.654508497187 -0.559016994375
-0.559016994375 0.404508497188 -0.654508497187
-0.654508497187 0.559016994375 -0.404508497188
-0.809016994375 0.0 0.5
-0.904508497187 0.154508497188 0.25
-0.904508497187 -0.154508497188 0.25
0.559016994375 -0.404508497188 -0.654508497187
0.654508497187 -0.559016994375 -0.404508497188
0.404508497188 -0.654508497187 -0.559016994375
0.154508497188 0.25 -0.904508497187
-0.154508497188 0.25 -0.904508497187
0.0 0.5 -0.809016994375

CELLS 140 560
3 0 1 2
3 1 3 2
3 1 4 3
3 2 3 5
3 6 7 8
3 7 9 8
3 7 10 9
3 8 9 11
3 11 12 13
3 12 14 13
3 12 15 14
3 13 14 16
3 16 14 17
3 14 18 17
3 14 15 18
3 17 18 0
3 0 2 17
3 2 19 17
3 2 5 19
3 17 19 16
3 20 21 22
3 21 23 22
3 21 24 23
3 22 23 10
3 24 25 26
3 25 27 26
3 25 28 27
3 26 27 15
3 24 26 29
3 26 12 29
3 26 15 12
3 29 12 11
3 20 30 21
3 30 25 21
3 30 28 25
3 21 25 24
3 28 31 27
3 31 18 27
3 31 0 18
3 27 18 15
3 3 32 5
3 5 32 33
3 3 34 32
3 34 35 32
3 34 36 35
3 32 35 33
3 36 34 4
3 4 34 3
3 33 35 37
3 35 36 37
3 33 38 5
3 5 38 39
3 33 40 38
3 40 41 38
3 40 42 41
3 38 41 39
3 42 40 37
3 37 40 33
3 39 41 6
3 41 42 6
3 42 43 6
3 6 43 7
3 42 44 43
3 44 45 43
3 44 46 45
3 43 45 7
3 46 44 37
3 37 44 42
3 7 45 10
3 45 46 10
3 8 47 6
3 6 47 48
3 8 49 47
3 49 50 47
3 49 13 50
3 47 50 48
3 13 49 11
3 11 49 8
3 48 50 16
3 50 13 16
3 51 52 4
3 4 52 53
3 51 54 52
3 54 55 52
3 54 30 55
3 52 55 53
3 30 54 28
3 28 54 51
3 53 55 20
3 55 30 20
3 39 56 5
3 5 56 19
3 39 57 56
3 57 58 56
3 57 48 58
3 56 58 19
3 48 57 6
3 6 57 39
3 19 58 16
3 58 48 16
3 59 60 37
3 37 60 46
3 59 61 60
3 61 62 60
3 61 22 62
3 60 62 46
3 22 61 20
3 20 61 59
3 46 62 10
3 62 22 10
3 9 63 11
3 11 63 29
3 9 64 63
3 64 65 63
3 64 23 65
3 63 65 29
3 23 64 10
3 10 64 9
3 29 65 24
3 65 23 24
3 1 66 4
3 4 66 51
3 1 67 66
3 67 68 66
3 67 31 68
3 66 68 51
3 31 67 0
3 0 67 1
3 51 68 28
3 68 31 28
3 53 69 4
3 4 69 36
3 53 70 69
3 70 71 69
3 70 59 71
3 69 71 36
3 59 70 20
3 20 70 53
3 36 71 37
3 71 59 37

CELL_TYPES 140
5
5
5
5
5
5
5
5
5
5
5
5
5
5
5
5
5
5
5
5
5
5
5
5
5
5
5
5
5
5
5
5
5
5
5
5
5
5
5
5
5
5
5
5
5
5
5
5
5
5
5
5
5
5
5
5
5
5
5
5
5
5
5
5
5
5
5
5
5
5
5
5
5
5
5
5
5
5
5
5
5
5
5
5
5
5
5
5
5
5
5
5
5
5
5
5
5
5
5
5
5
5
5
5
5
5
5
5
5
5
5
5
5
5
5
5
5
5
5
5
5
5
5
5
5
5
5
5
5
5
5
5
5
5
5
5
5
5
5
5

CELL_DATA 140
SCALARS cell_data_0 double
LOOKUP_TABLE default
3.29672732079e-08
1.6069667064e-06
1.50264666084e-06
5.55940250359e-07
6.31476730325e-07
2.39400290198e-06
1.53889199753e-07
2.46275880931e-07
6.94630836834e-07
2.46158638642e-06
4.82430725335e-07
5.82643552874e-07
7.84537727823e-07
2.21493733342e-06
6.7087353971e-07
5.97790627801e-07
2.08237442762e-07
2.91085744501e-07
1.8744442053e-06
2.08936342562e-06
6.95674125457e-07
2.60307780202e-07
5.85560695369e-08
4.96877798115e-06
1.42813788228e-06
3.04245057975e-06
2.43086341499e-06
3.61304104911e-07
4.50323476471e-06
3.56078326209e-06
2.34894315156e-06
2.47809099091e-06
2.5345500547e-06
5.69457106829e-06
6.7514298205e-07
2.84632670434e-06
2.38091823125e-07
3.21979313632e-06
1.17919531136e-06
3.09705504811e-06
6.86190338867e-07
1.32979161083e-06
3.24655484246e-08
1.74185266181e-06
1.01660726758e-06
2.50154568522e-07
6.20245787615e-07
1.23997785473e-06
1.30840421411e-06
1.45502400414e-06
5.19729418384e-07
1.26346179762e-06
4.30607175083e-07
1.87553205915e-06
2.07121690579e-08
1.19359025135e-06
2.62507281803e-07
9.56343177384e-07
1.23611612954e-06
1.29107223433e-06
6.69223405001e-07
1.08932223087e-06
1.23564309824e-07
1.9423863183e-06
7.21334228406e-07
1.74483323056e-07
8.27331726495e-07
1.48472562462e-06
9.75296953343e-07
8.18144055342e-07
5.68256128302e-07
9.62788938497e-07
2.84440072448e-07
2.65593295885e-06
2.27625689378e-07
1.18270149734e-06
5.53458754827e-07
1.42969479023e-06
1.22566994507e-06
1.56699951577e-06
8.84108973022e-07
8.24337019294e-07
9.80098186381e-07
7.64957761878e-07
9.96260653408e-07
9.37473863373e-07
8.03218603883e-07
8.08730023512e-07
5.19648537422e-07
5.81091821433e-07
1.64065925318e-06
2.38214872384e-06
1.41431000045e-06
1.73144860223e-06
1.91276360472e-07
5.56677059032e-07
9.20955174727e-07
1.21532700743e-06
3.72907501048e-07
1.22496407665e-06
6.34231434337e-07
1.45529564742e-06
5.39739592853e-07
6.06719865358e-07
1.64210193087e-06
1.03222189271e-06
1.62876977319e-06
4.01281035847e-07
7.17643002287e-07
2.03113562544e-06
3.77510624664e-07
1.68514368719e-06
7.14945964092e-07
1.11937506444e-06
1.63191561061e-06
1.59201490215e-06
2.16605887604e-06
7.07243860421e-07
1.72779658594e-06
1.84524433192e-06
1.4213209472e-06
9.19043288165e-07
1.15465109276e-06
8.60129116666e-07
1.73095508559e-06
1.04119072399e-06
1.59972470856e-06
7.38600563326e-07
8.7036520843e-07
2.26786987402e-06
1.07554810002e-06
9.16981284221e-07
1.26212048505e-06
3.36526658541e-07
6.57207497102e-07
1.13638745041e-06
1.40136123887e-07
7.87261352596e-07
1.35308245248e-06
5.47006118746e-07

