# vtk DataFile Version 3.0
File Name: Molecule/sphere_cent/sphere_cent_0-s5.vtk
ASCII
DATASET UNSTRUCTURED_GRID
FIELD FieldData 1
TIME 1 1 double
0.0
POINTS 318 double
0.850650808352 0.525731112119 0.0
0.654508497187 0.559016994375 -0.404508497188
0.5 0.809016994375 -0.309016994375
0.309016994375 0.5 -0.809016994375
0.559016994375 0.404508497188 -0.654508497187
0.525731112119 0.0 -0.850650808352
0.25 0.904508497187 -0.154508497188
0.5 0.809016994375 0.0
0.25 0.904508497187 0.154508497188
0.0 0.850650808352 0.525731112119
0.0 0.5 0.809016994375
0.309016994375 0.5 0.809016994375
0.309016994375 -0.5 -0.809016994375
0.154508497188 -0.25 -0.904508497187
0.0 0.0 -1.0
0.0 -0.850650808352 -0.525731112119
0.0 -0.5 -0.809016994375
0.404508497188 0.654508497187 0.559016994375
0.5 0.809016994375 0.309016994375
-0.309016994375 0.5 -0.809016994375
-0.559016994375 0.404508497188 -0.654508497187
-0.404508497188 0.654508497187 -0.559016994375
-0.654508497187 0.559016994375 -0.404508497188
-0.809016994375 0.309016994375 0.5
-0.809016994375 0.0 0.5
-0.525731112119 0.0 0.850650808352
-0.904508497187 0.154508497188 0.25
-1.0 0.0 0.0
-0.904508497187 -0.154508497188 0.25
0.559016994375 -0.404508497188 -0.654508497187
0.5 -0.809016994375 -0.309016994375
0.654508497187 -0.559016994375 -0.404508497188
0.850650808352 -0.525731112119 0.0
-0.417374053247 -0.25 0.829833901363
-0.26286555606 0.0 0.925325404176
-0.154508497188 -0.25 0.904508497187
-0.309016994375 -0.5 0.809016994375
0.0 0.0 1.0
-0.154508497188 -0.675325404176 0.667374053247
0.0 -0.5 0.809016994375
0.0 -0.850650808352 0.525731112119
0.154508497188 -0.675325404176 0.667374053247
0.154508497188 -0.25 0.904508497187
0.525731112119 0.0 0.850650808352
0.25 -0.829833901363 0.417374053247
0.404508497188 -0.654508497187 0.559016994375
-0.809016994375 0.309016994375 -0.5
-0.904508497187 0.154508497188 -0.25
-0.829833901363 0.417374053247 -0.25
-0.925325404176 0.26286555606 0.0
-0.5 -0.809016994375 0.309016994375
-0.25 -0.904508497187 0.154508497188
-0.25 -0.829833901363 0.417374053247
0.0 -0.925325404176 0.26286555606
-0.675325404176 -0.667374053247 0.154508497188
-0.654508497187 -0.559016994375 0.404508497188
-0.404508497188 -0.654508497187 0.559016994375
-0.559016994375 -0.404508497188 0.654508497187
-0.667374053247 -0.154508497188 0.675325404176
-0.417374053247 -0.25 -0.829833901363
-0.559016994375 -0.404508497188 -0.654508497187
-0.667374053247 -0.154508497188 -0.675325404176
-0.309016994375 -0.5 -0.809016994375
-0.404508497188 -0.654508497187 -0.559016994375
-0.154508497188 -0.675325404176 -0.667374053247
-0.25 -0.829833901363 -0.417374053247
0.5 -0.809016994375 0.309016994375
0.5 -0.809016994375 0.0
0.25 -0.904508497187 0.154508497188
-0.309016994375 0.5 0.809016994375
-0.077254248594 0.375 0.856762745781
-0.154508497188 0.25 0.904508497187
0.0 0.25 0.904508497187
0.077254248594 0.375 0.856762745781
0.154508497188 0.25 0.904508497187
-0.154508497188 -0.25 -0.904508497187
-0.525731112119 0.0 -0.850650808352
0.75257965277 0.542374053247 0.202254248594
0.654508497187 0.559016994375 0.404508497188
0.731762745781 0.434016994375 0.452254248594
0.452254248594 -0.731762745781 -0.434016994375
0.404508497188 -0.654508497187 -0.559016994375
0.202254248594 -0.75257965277 -0.542374053247
0.25 -0.829833901363 -0.417374053247
0.809016994375 -0.309016994375 0.5
0.667374053247 -0.154508497188 0.675325404176
0.309016994375 -0.5 0.809016994375
0.654508497187 -0.559016994375 0.404508497188
0.809016994375 0.0 0.5
0.667374053247 0.154508497188 0.675325404176
0.809016994375 0.309016994375 0.5
0.606762745781 0.481762745782 -0.529508497188
0.809016994375 0.309016994375 -0.5
0.481762745782 0.529508497188 -0.606762745781
0.529508497188 0.606762745781 -0.481762745782
0.404508497188 0.654508497187 -0.559016994375
0.675325404176 0.667374053247 0.0
0.675325404176 0.667374053247 0.154508497188
0.5 0.809016994375 0.154508497188
0.0 1.0 0.0
0.125 0.952254248593 0.077254248594
0.0 0.850650808352 -0.525731112119
0.0 0.925325404176 -0.26286555606
0.125 0.87757965277 0.340119804654
0.0 0.925325404176 0.26286555606
-0.125 0.952254248593 0.077254248594
-0.125 0.87757965277 0.340119804654
-0.25 0.904508497187 0.154508497188
-0.25 0.829833901363 0.417374053247
-0.375 0.856762745781 0.231762745782
-0.5 0.809016994375 0.309016994375
-0.125 0.952254248593 -0.077254248594
-0.25 0.904508497187 0.0
-0.25 0.904508497187 -0.154508497188
-0.375 0.856762745781 -0.077254248594
-0.375 0.856762745781 0.077254248594
-0.5 0.809016994375 0.0
-0.375 0.856762745781 -0.231762745782
-0.5 0.809016994375 -0.154508497188
-0.5 0.809016994375 -0.309016994375
-0.5 0.809016994375 0.154508497188
-0.25 0.829833901363 -0.417374053247
-0.125 0.87757965277 -0.340119804654
-0.850650808352 0.525731112119 0.0
-0.154508497188 0.675325404176 0.667374053247
-0.340119804654 0.125 0.87757965277
-0.417374053247 0.25 0.829833901363
-0.231762745782 0.375 0.856762745781
0.231762745782 0.375 0.856762745781
0.417374053247 0.25 0.829833901363
0.340119804654 0.125 0.87757965277
0.529508497188 0.606762745781 0.481762745782
0.481762745782 0.529508497188 0.606762745781
0.606762745781 0.481762745782 0.529508497188
0.559016994375 0.404508497188 0.654508497187
0.356762745782 0.577254248593 0.684016994375
0.434016994375 0.452254248594 0.731762745781
0.684016994375 0.356762745782 0.577254248593
0.542374053247 0.202254248594 0.75257965277
-0.202254248594 0.75257965277 -0.542374053247
-0.452254248594 0.731762745781 -0.434016994375
-0.684016994375 0.356762745782 -0.577254248593
-0.667374053247 0.154508497188 -0.675325404176
-0.542374053247 0.202254248594 -0.75257965277
-0.856762745781 -0.077254248594 0.375
-0.809016994375 -0.154508497188 0.5
-0.856762745781 -0.231762745782 0.375
-0.809016994375 -0.309016994375 0.5
-0.452254248594 0.731762745781 0.434016994375
-0.202254248594 0.75257965277 0.542374053247
-0.404508497188 0.654508497187 0.559016994375
-0.356762745782 0.577254248593 0.684016994375
-0.577254248593 0.684016994375 0.356762745782
-0.529508497188 0.606762745781 0.481762745782
-0.654508497187 0.559016994375 0.404508497188
-0.606762745781 0.481762745782 0.529508497188
-0.481762745782 0.529508497188 0.606762745781
-0.559016994375 0.404508497188 0.654508497187
-0.434016994375 0.452254248594 0.731762745781
-0.542374053247 0.202254248594 0.75257965277
-0.077254248594 -0.375 0.856762745781
0.077254248594 -0.375 0.856762745781
0.0 -0.25 0.904508497187
0.154508497188 -0.5 0.809016994375
0.231762745782 -0.375 0.856762745781
0.077254248594 -0.587662702088 0.738195523811
0.231762745782 -0.587662702088 0.738195523811
0.606762745782 -0.481762745781 0.529508497187
0.452254248594 -0.731762745781 0.434016994375
0.840242354857 0.471552582683 0.125
0.925325404176 0.26286555606 0.0
0.914916950682 0.208687026623 0.125
0.829833901363 0.417374053247 0.25
0.819425447869 0.363195523811 0.375
0.904508497187 0.154508497188 0.25
-0.596552582683 -0.077254248594 -0.762988106264
-0.738195523811 0.0772542485935 -0.587662702088
-0.738195523811 -0.231762745782 -0.587662702088
-0.809016994375 0.0 -0.5
-0.809016994375 -0.309016994375 -0.5
-0.675325404176 -0.667374053247 -0.154508497188
-0.587662702088 -0.738195523811 -0.077254248594
-0.675325404176 -0.667374053247 0.0
-0.587662702088 -0.738195523811 0.077254248594
-0.5 -0.809016994375 0.0
-0.731762745781 -0.434016994375 0.452254248594
-0.829833901363 -0.417374053247 0.25
-0.529508497188 -0.606762745781 0.481762745782
-0.481762745782 -0.529508497188 0.606762745781
-0.606762745781 -0.481762745782 0.529508497188
-0.356762745782 -0.577254248593 0.684016994375
-0.434016994375 -0.452254248594 0.731762745781
-0.684016994375 -0.356762745782 0.577254248593
0.626289826385 0.675695523811 0.255635621485
0.801615230561 0.534052582683 0.101127124297
0.791206777066 0.479874053247 0.226127124297
0.829833901363 -0.417374053247 -0.25
0.925325404176 -0.26286555606 0.0
0.904508497187 -0.154508497188 -0.25
0.809016994375 -0.309016994375 -0.5
1.0 0.0 0.0
0.667374053247 -0.154508497188 -0.675325404176
0.809016994375 0.0 -0.5
0.667374053247 0.154508497188 -0.675325404176
0.452254248594 0.731762745781 -0.434016994375
0.25 0.829833901363 -0.417374053247
0.202254248594 0.75257965277 -0.542374053247
0.356762745782 0.577254248593 -0.684016994375
0.154508497188 0.675325404176 -0.667374053247
0.077254248594 -0.375 -0.856762745781
-0.077254248594 -0.375 -0.856762745781
0.0 -0.25 -0.904508497187
-0.26286555606 0.0 -0.925325404176
-0.577254248593 0.684016994375 -0.356762745782
-0.675325404176 0.667374053247 -0.154508497188
-0.75257965277 0.542374053247 -0.202254248594
-0.856762745781 0.231762745782 0.375
-0.87757965277 0.340119804654 0.125
-0.829833901363 0.417374053247 0.25
-0.925325404176 -0.26286555606 0.0
-0.850650808352 -0.525731112119 0.0
0.606762745781 -0.481762745782 -0.529508497188
0.529508497188 -0.606762745781 -0.481762745782
0.481762745782 -0.529508497188 -0.606762745781
0.077254248594 0.125 -0.952254248593
0.154508497188 0.25 -0.904508497187
0.231762745782 0.375 -0.856762745781
-0.077254248594 0.125 -0.952254248593
0.0 0.25 -0.904508497187
-0.154508497188 0.25 -0.904508497187
-0.077254248594 0.375 -0.856762745781
0.077254248594 0.375 -0.856762745781
0.0 0.5 -0.809016994375
0.154508497188 0.5 -0.809016994375
-0.340119804654 0.125 -0.87757965277
0.0 0.675325404176 -0.667374053247
-0.904508497187 -0.154508497188 -0.25
-0.819425447869 -0.363195523811 -0.375
-0.914916950682 -0.208687026623 -0.125
-0.829833901363 -0.417374053247 -0.25
-0.840242354857 -0.471552582683 -0.125
-0.877579652769 0.340119804654 -0.125
-0.840242354857 0.471552582683 -0.125
-0.887988106264 0.394298334089 0.0
-0.5 -0.809016994375 -0.309016994375
-0.375 -0.856762745781 -0.231762745782
-0.5 -0.809016994375 -0.154508497188
-0.375 -0.856762745781 -0.077254248594
-0.25 -0.904508497187 -0.154508497188
-0.25 -0.904508497187 0.0
-0.375 -0.856762745781 0.077254248594
-0.125 -0.952254248593 -0.077254248594
-0.125 -0.952254248593 0.077254248594
0.0 -1.0 0.0
-0.375 -0.819425447869 -0.363195523811
[...]
CELL_DATA 632
SCALARS cell_data_0 double
LOOKUP_TABLE default
1.5286299429e-06
1.4057992945e-06
1.14822332002e-06
1.77444839559e-06
9.56017175326e-07
2.49147753245e-06
2.47115088382e-07
7.54586397167e-07
3.81251550838e-06
2.20504425966e-07
2.23443347948e-06
1.49751886131e-06
5.86503262709e-07
1.03220828069e-06
6.99202131836e-07
2.65530110135e-07
7.07798663407e-07
9.00812556173e-07
1.08733412312e-06
1.43383514323e-07
2.30722497915e-07
2.97344357502e-06
2.36942612338e-07
1.91974524727e-07
7.60979263403e-07
6.97937613999e-07
9.95796221812e-07
1.52728818119e-07
1.21197481819e-06
2.65717097917e-07
1.87252788033e-06
2.05846729641e-07
2.55720205025e-07
1.72761105896e-06
7.13834743074e-07
9.87628805292e-07
1.21437147215e-06
1.48841593286e-06
2.5790704687e-07
4.32252624463e-08
9.35047686926e-07
1.60597601338e-06
1.32446126569e-07
5.46429237403e-07
2.29985219596e-07
2.18169780966e-07
1.65080065386e-07
1.82786232036e-07
8.90694595338e-07
8.7888342848e-07
1.10646411947e-07
7.20967223101e-07
6.49549696641e-07
1.38145387114e-06
1.33807280047e-06
6.16135988974e-07
7.46094828154e-08
5.69676400605e-07
1.21920807642e-06
4.17275543737e-07
4.97101208536e-07
6.51715155919e-07
7.30853201676e-07
8.79554062193e-07
4.39940918823e-07
2.24020529981e-06
1.11633767591e-06
1.51472020957e-07
1.66383440759e-06
3.85625884821e-08
5.59221910445e-07
7.84544413731e-07
5.17576619468e-07
3.25857473076e-07
9.22836686073e-08
1.67007219721e-07
4.53723015508e-07
4.09422032064e-07
7.61853906747e-09
7.9918850059e-07
1.19370863334e-06
4.14005422491e-07
1.96836377465e-07
1.73630092882e-06
3.63720817974e-07
5.21818591531e-07
1.75996331824e-06
3.74715347628e-07
1.59710302747e-06
1.2348816684e-06
1.19264258037e-06
2.21258590046e-06
3.42316457896e-08
9.38492466044e-08
5.76254548125e-07
9.90126996735e-07
7.93847606997e-07
1.52427177968e-07
1.15037332969e-07
9.68994898393e-07
6.83207203076e-07
4.14328181619e-07
4.30690042515e-07
1.7147211284e-07
6.84682235255e-07
3.85629671864e-07
1.65205234137e-07
1.72436691459e-07
3.70784749777e-07
5.16478082319e-07
6.99043481651e-07
3.52950164693e-07
4.47598866955e-07
4.56355683645e-07
3.06035856602e-07
4.24309227044e-07
2.1864524503e-07
1.00516960441e-07
3.13479945221e-07
4.0048416837e-07
6.58992007e-07
7.81253204408e-07
9.78315056749e-08
1.46612411731e-08
1.23436454946e-07
1.13179891256e-07
5.48030841485e-07
1.4918463789e-06
6.10441366598e-07
8.51848863952e-07
7.74187266912e-07
5.3001625752e-07
3.4958027452e-07
1.50999042164e-06
7.59694183958e-07
3.85189005471e-08
8.63174961974e-08
7.91079930283e-07
1.99645253958e-06
5.29059168834e-07
9.87878851914e-07
1.1157832888e-06
6.68779733008e-08
5.90639956858e-08
4.76519372195e-08
5.13412794595e-08
2.14420957138e-07
8.66932209357e-08
3.3036645281e-07
7.95950108475e-09
1.40501028797e-06
7.23187150642e-07
4.16777538769e-07
1.60284899848e-07
5.95772743031e-08
8.81100150119e-07
2.32866833972e-07
1.58857479197e-07
2.03254509402e-07
1.11439205354e-06
9.13814488313e-07
1.16057690138e-06
7.86900857137e-08
4.95257812773e-08
1.23842732472e-07
1.55936173713e-06
9.48762127945e-07
1.28343929383e-07
1.32563043371e-07
4.36813560591e-07
6.32137949672e-07
4.81541521851e-07
3.69962577143e-07
4.18715935852e-09
9.95720979197e-07
6.65957078894e-07
3.40900540216e-07
1.24446325757e-07
6.55144012504e-08
8.01564551678e-08
1.33360702344e-07
3.44918372751e-07
3.5812899211e-07
4.66136959988e-08
5.48114716807e-07
5.5020131995e-07
3.08679515697e-07
1.06985249042e-07
1.11434728178e-06
2.39489027239e-08
1.75869991472e-08
2.84473529243e-07
4.01338353276e-07
6.32446372424e-07
6.02556979531e-07
1.65115130327e-07
8.2678771674e-08
1.34797075067e-07
1.74506017014e-07
9.89945320156e-08
1.19360075173e-08
1.04269374923e-06
1.38390310409e-06
2.79697440422e-07
1.20747537361e-07
6.26777483938e-07
1.13936446475e-06
8.9921868959e-07
1.29824623091e-08
1.7170551031e-07
2.39137164418e-07
4.4361765227e-07
4.83247174191e-07
2.87524011655e-07
4.84366047717e-08
1.26219990684e-07
8.69128527893e-07
5.16076924427e-08
7.16367264704e-07
3.21806348339e-07
1.18188302147e-07
2.31275851915e-07
1.42643720104e-07
3.28266248388e-07
4.49028140446e-07
5.91297745969e-07
2.83973602932e-06
9.59780299046e-07
5.06893481159e-07
1.0318079883e-06
8.18497701688e-07
6.20157804126e-07
8.26554907746e-07
2.41700899801e-08
8.47912954593e-07
2.83559647205e-07
4.58768254179e-07
5.68332122829e-07
5.57870579965e-07
1.68825769454e-07
1.02876672657e-06
3.35845856424e-07
1.94411522301e-07
1.71265863775e-07
8.97236176364e-08
1.97370350306e-07
1.08498746838e-06
4.62416976976e-07
3.33467139964e-07
5.96686511076e-07
6.33529597783e-07
6.16442785319e-07
6.00608191352e-07
2.70022333784e-07
7.84247935186e-07
1.8506819995e-07
4.24353192329e-07
9.67676115633e-08
3.11041349658e-07
7.84215223224e-08
6.59164669177e-07
5.86605514626e-07
4.48611038772e-07
4.80311748447e-07
2.74172151107e-07
9.89319136768e-08
4.29740944498e-07
1.96094686249e-07
4.37016806909e-08
5.50581267483e-08
1.6736719501e-07
3.21276678806e-07
4.65713149203e-07
3.84867471153e-07
3.26423811773e-07
8.75846936811e-08
9.3192104567e-08
5.31615344561e-07
2.79391378863e-07
1.17359679355e-06
6.08531357669e-07
1.44011101041e-07
6.12439546363e-07
1.08440053908e-07
1.97960588536e-07
3.77862709158e-07
5.18967968126e-07
1.57111924634e-07
8.47089682333e-08
1.14459581603e-06
8.53401990032e-07
4.3388758456e-07
2.52759023849e-07
9.73617990299e-07
4.25794240708e-07
1.78132101479e-07
1.68109162331e-07
6.34400437642e-08
9.42336820174e-08
2.03693263388e-08
2.77561062631e-07
1.12457845038e-07
2.48029798299e-11
3.42136801748e-07
6.82018425424e-08
1.266452125e-07
2.32827302766e-07
3.83607251895e-07
3.9096347529e-07
7.56208370269e-07
1.32079071774e-07
1.04882163052e-06
1.94410749424e-08
1.13518093412e-06
8.61539815219e-08
5.76871632821e-07
2.27757961761e-06
1.20056927339e-07
4.43005080975e-07
6.73960954955e-08
4.83742530664e-07
6.4487636203e-07
6.18312167874e-07
2.1868766856e-07
3.91442349588e-07
1.7149616375e-07
1.77962538599e-06
9.00640622725e-08
9.55255287205e-07
1.45930525647e-06
9.76020952286e-07
7.31920148809e-07
2.36406390611e-07
2.82786414835e-07
2.48916077707e-07
2.58329988061e-07
7.16178350183e-07
7.2453335921e-07
8.63585700982e-08
7.79816049655e-08
9.95814791575e-07
2.28343090398e-07
9.95875605642e-07
2.3364452088e-08
6.8285376238e-07
5.92997586788e-07
1.587413114e-06
2.14296655975e-07
5.91658043078e-07
4.10653885519e-07
3.41489435389e-07
1.53698283748e-06
6.25706328832e-07
2.034312251e-07
1.32552154233e-07
4.06454254307e-07
4.79866179499e-07
3.30065940709e-07
1.11008654298e-07
8.35983357443e-08
8.94679467943e-08
4.01683143508e-07
2.66811685547e-07
9.2154865248e-07
6.14831958032e-07
1.25922432588e-07
2.73195986051e-07
1.26112353519e-06
4.78693942083e-07
2.77123052331e-06
2.08130612247e-07
3.39181320661e-07
9.55298966038e-08
5.39071864697e-07
3.410156869e-07
6.73299830397e-07
4.39815110738e-07
7.75689774916e-07
9.64512932428e-08
5.22162993673e-08
3.80413790249e-07
2.43451027439e-07
3.04008738427e-07
7.96971929862e-07
1.33275103791e-06
6.831914624e-07
2.63224295847e-07
7.31012292546e-07
5.99789614476e-07
4.05278398152e-07
1.07860091529e-06
3.30886385216e-07
5.14875573694e-07
2.4043353846e-07
1.07301375791e-06
8.39460747625e-07
1.27832650917e-07
1.69165019748e-06
1.3115719541e-06
8.20862672504e-09
1.03927691899e-06
1.58726417271e-07
5.42626929605e-07
3.47449617159e-07
5.41496391427e-07
9.26729671411e-09
1.44981010491e-06
5.46047345646e-07
2.77437683714e-07
5.24737697964e-08
3.51568513315e-07
1.4604893894e-07
2.20129061341e-07
3.88624544045e-07
1.31187132801e-07
4.2052616808e-07
2.03480612164e-07
3.95201240905e-07
1.13206667746e-07
2.87122670758e-07
1.45411116498e-07
4.96987919793e-07
9.42064640173e-09
2.27193583864e-07
3.69821300086e-07
5.92152198963e-08
1.74437515561e-07
6.91881446669e-07
1.16764416377e-07
2.49578296107e-07
1.26375444075e-07
2.68814402095e-07
3.35871963231e-07
5.17959640286e-07
2.23403934082e-07
2.76559208676e-07
8.07299630218e-08
1.03743399154e-07
3.90781239788e-08
2.02654727414e-08
2.60622009284e-07
6.27011409149e-07
6.52657834476e-08
2.60077687198e-07
1.42668541278e-07
1.46322923044e-07
5.32000470391e-07
2.89515508155e-07
6.7122721655e-07
1.00777388184e-07
1.11781016487e-07
1.95303398805e-07
9.23173117165e-07
3.53639863954e-07
5.91314815542e-07
6.05542357019e-07
1.87051617199e-07
2.18049029346e-07
4.64173102853e-07
1.46281946875e-07
1.93763297723e-07
7.02752241096e-07
5.44992157524e-07
5.88766751529e-07
2.25009159558e-08
9.75468618757e-08
1.46953321668e-07
4.96442513362e-07
9.00920497669e-07
1.30735320487e-07
2.69651224333e-08
2.91177839279e-07
2.30024413771e-07
2.31105994648e-07
2.20123840903e-07
4.06303419252e-08
1.61723767038e-07
2.93375925683e-07
5.31705736301e-07
1.63798683354e-08
5.49629642647e-07
3.72203977535e-07
9.74984891136e-09
1.02890452759e-06
5.66185478599e-08
2.49850733749e-07
1.34638177524e-07
9.74787149674e-08
2.75153744717e-07
3.87839321234e-08
3.82228062321e-08
6.43831135025e-07
4.69896879226e-07
4.23471306168e-07
2.92539769713e-08
9.23600182946e-07
7.72307149647e-08
5.48105623181e-07
4.77515763836e-07
3.88601314458e-07
4.26400348851e-08
6.30444278171e-07
1.11600345959e-06
6.06816925996e-07
1.32253953628e-07
3.65531356377e-07
3.06200412258e-07
1.01328280918e-06
8.03110381656e-07
1.70148454202e-07
2.01557986605e-07
8.57438617728e-08
5.97922794917e-07
3.5578285311e-07
1.04102014199e-06
5.97315461712e-08
2.7831485347e-07
6.02097892484e-08
2.81902611535e-07
2.33146225372e-07
2.88312394443e-07
1.8443413757e-08
8.41657065749e-09
1.14273960296e-07
5.81376734959e-07
6.86248777667e-07
4.00217455273e-07
7.37777121006e-07
1.73505999382e-07
1.12532339376e-07
1.06282314782e-07
1.14730177417e-06
1.01521662364e-06
6.58715660187e-07
5.39780242942e-07
8.34883824097e-07
8.27982620536e-07
1.24909215318e-06
1.02042376282e-06
2.73007707372e-07
5.81772494942e-08
2.20986260718e-07
2.77563271352e-07
3.53942837094e-07
2.30869105577e-07
2.29916038249e-07
1.43199558278e-07
8.46025748549e-08
2.62761056262e-07
9.54147751174e-08
2.93869917386e-07
6.27080581178e-07
8.64772603615e-07
5.53990828795e-07
1.24008006534e-06
6.76025560885e-08
1.16772875424e-07
1.03413224615e-07
2.26997101859e-07
2.61658737858e-07
8.92484017448e-08
1.58756501206e-07
7.95565337418e-07
4.28776835696e-08
9.91643008718e-08
2.40628884593e-07
1.31720195804e-07
2.98550645958e-08
1.0181438938e-07
2.15178987171e-09
1.97331938396e-07
7.60341801059e-08
1.13730024065e-07
1.27586687454e-07
9.62599127096e-08
9.90938367657e-08
2.47515709601e-07
6.3416967189e-07
9.97497944481e-07
4.78136482891e-07
1.61561743568e-07
3.34123833898e-09
2.33292221043e-07
2.06160112069e-07
1.19249493173e-07
1.74519904274e-07
8.61825726966e-07
2.09538789476e-07
4.90974499298e-09
1.92444462269e-07
1.16340019578e-07
1.51975213602e-07
1.16873814039e-07
8.33104515929e-08
1.56110927295e-07
2.49683633586e-07
5.27320989733e-07
3.20430587863e-07
1.13011379934e-06
4.0345401863e-08
1.07227644415e-07
8.84729460853e-07
2.07575734088e-07
5.49657335786e-08
4.30367822282e-08
7.13977969223e-08
2.1909247915e-07
7.61593880627e-08
3.10248045021e-08
7.61526915472e-08
5.06325430004e-08
2.65607166666e-07
9.16241909743e-08
6.63170576435e-07
2.57398368018e-07
5.64644025824e-08
7.05905840155e-08
1.26327828641e-07
1.17935697571e-07
3.66962816158e-07
6.36548762347e-07
1.57333178951e-07
1.3870469571e-07
3.55877542565e-07
2.49912225125e-07
3.0234418937e-07
8.85376368534e-08
1.45157083977e-07
2.77548726897e-07
5.0167780729e-07
2.76664464057e-07
5.3514580458e-08

