# vtk DataFile Version 3.0
File Name: Molecule/sphere_dip_C5/sphere_dip_C5_0-s4.vtk
ASCII
DATASET UNSTRUCTURED_GRID
FIELD FieldData 1
TIME 1 1 double
0.0
POINTS 53 double
0.850650808352 -0.525731112119 0.0
0.809016994375 -0.309016994375 -0.5
1.0 0.0 0.0
0.809016994375 0.309016994375 -0.5
0.525731112119 0.0 -0.850650808352
0.850650808352 0.525731112119 0.0
0.0 0.850650808352 0.525731112119
-0.5 0.809016994375 0.309016994375
-0.309016994375 0.5 0.809016994375
-0.809016994375 0.309016994375 0.5
-0.525731112119 0.0 0.850650808352
0.309016994375 0.5 0.809016994375
0.0 0.0 1.0
0.525731112119 0.0 0.850650808352
-0.309016994375 -0.5 0.809016994375
0.309016994375 -0.5 0.809016994375
0.0 -0.850650808352 0.525731112119
0.809016994375 -0.309016994375 0.5
0.5 -0.809016994375 0.309016994375
0.309016994375 -0.5 -0.809016994375
0.0 0.0 -1.0
-0.309016994375 -0.5 -0.809016994375
0.0 -0.850650808352 -0.525731112119
-0.525731112119 0.0 -0.850650808352
0.809016994375 0.309016994375 0.5
0.5 0.809016994375 0.309016994375
-0.809016994375 -0.309016994375 -0.5
-0.809016994375 0.309016994375 -0.5
-1.0 0.0 0.0
-0.850650808352 -0.525731112119 0.0
-0.850650808352 0.525731112119 0.0
0.0 0.850650808352 -0.525731112119
-0.309016994375 0.5 -0.809016994375
-0.5 0.809016994375 -0.309016994375
-0.5 -0.809016994375 -0.309016994375
-0.5 -0.809016994375 0.309016994375
0.0 -1.0 0.0
-0.809016994375 -0.309016994375 0.5
0.5 -0.809016994375 -0.309016994375
0.309016994375 0.5 -0.809016994375
0.0 1.0 0.0
-0.26286555606 0.951056516295 0.162459848116
-0.26286555606 0.951056516295 -0.162459848116
-0.525731112119 0.850650808352 0.0
-0.702046444776 0.69378047756 0.16062203564
-0.702046444776 0.69378047756 -0.16062203564
0.5 0.809016994375 -0.309016994375
0.525731112119 0.850650808352 0.0
0.26286555606 0.951056516295 -0.162459848116
0.26286555606 0.951056516295 0.162459848116
0.688190960236 0.587785252292 -0.425325404176
0.587785252292 0.425325404176 -0.688190960236
0.425325404176 0.688190960236 -0.587785252292

CELLS 102 408
3 0 1 2
3 1 3 2
3 1 4 3
3 2 3 5
3 6 7 8
3 7 9 8
3 8 9 10
3 6 8 11
3 8 12 11
3 8 10 12
3 11 12 13
3 10 14 12
3 14 15 12
3 14 16 15
3 12 15 13
3 13 15 17
3 15 18 17
3 15 16 18
3 17 18 0
3 4 19 20
3 19 21 20
3 19 22 21
3 20 21 23
3 0 2 17
3 2 24 17
3 2 5 24
3 17 24 13
3 5 25 24
3 25 11 24
3 25 6 11
3 24 11 13
3 23 26 27
3 26 28 27
3 26 29 28
3 27 28 30
3 31 32 33
3 32 27 33
3 32 23 27
3 29 34 35
3 34 36 35
3 34 22 36
3 35 36 16
3 29 35 37
3 35 14 37
3 35 16 14
3 37 14 10
3 10 9 37
3 9 28 37
3 9 30 28
3 37 28 29
3 23 21 26
3 21 34 26
3 21 22 34
3 26 34 29
3 22 38 36
3 38 18 36
3 38 0 18
3 36 18 16
3 4 1 19
3 1 38 19
3 1 0 38
3 19 38 22
3 4 20 39
3 20 32 39
3 20 23 32
3 39 32 31
3 40 41 6
3 6 41 7
3 40 42 41
3 42 43 41
3 42 33 43
3 41 43 7
3 33 42 31
3 31 42 40
3 7 43 44
3 43 45 44
3 43 33 45
3 44 45 30
3 7 44 9
3 44 30 9
3 30 45 27
3 27 45 33
3 46 47 5
3 5 47 25
3 46 48 47
3 48 49 47
3 48 40 49
3 47 49 25
3 40 48 31
3 31 48 46
3 25 49 6
3 49 40 6
3 3 50 5
3 5 50 46
3 3 51 50
3 51 52 50
3 51 39 52
3 50 52 46
3 39 51 4
3 4 51 3
3 46 52 31
3 52 39 31

CELL_TYPES 102
5
5
5
5
5
5
5
5
5
5
5
5
5
5
5
5
5
5
5
5
5
5
5
5
5
5
5
5
5
5
5
5
5
5
5
5
5
5
5
5
5
5
5
5
5
5
5
5
5
5
5
5
5
5
5
5
5
5
5
5
5
5
5
5
5
5
5
5
5
5
5
5
5
5
5
5
5
5
5
5
5
5
5
5
5
5
5
5
5
5
5
5
5
5
5
5
5
5
5
5
5
5

CELL_DATA 102
SCALARS cell_data_0 double
LOOKUP_TABLE default
0.00132116840656
0.00161601770377
0.00109694879433
0.000663063258744
0.000160750272608
0.00019456914682
0.000214647964506
0.000218978434545
0.000442410287228
0.000366662939676
0.00035972735607
0.000358348438456
0.000442187305974
0.000197892213516
0.0003652169653
0.000222748939904
0.000180615497883
0.000133993079112
5.38120605211e-05
8.48231751219e-05
4.99371597267e-05
2.53556329776e-05
9.19943026528e-05
0.000272805091131
2.81158449726e-06
0.000261231374314
0.000181175202703
9.21706149177e-05
0.000168947496667
0.000131096150348
0.000221501740214
7.42171459237e-05
2.88352505088e-05
0.00019045203997
6.73439438843e-05
2.7474543267e-05
1.2769853873e-05
9.77538177037e-05
0.000190804216235
8.62029396389e-06
2.737531111e-05
7.66397715089e-05
6.33206216137e-05
0.000158699539722
0.000121623875173
0.000200124378511
0.00016108643432
8.71040846821e-05
4.4409062198e-06
0.000130388771838
7.2847769545e-05
6.71629843605e-05
5.72393788439e-05
0.000240603196474
7.83998440452e-06
3.37683459583e-05
0.000141398349252
6.85218568818e-05
0.000774588459646
0.000820722521725
0.000965162819861
3.32569958944e-05
0.000130898821757
0.000128460278515
0.000117265891143
0.000108408729762
1.95136733959e-05
4.25363747511e-05
4.74998079486e-06
1.31765793641e-06
5.52235176529e-07
9.8525107264e-06
5.30843513338e-06
2.17904630338e-05
7.61739197022e-06
2.21677850913e-06
3.33609825066e-07
8.38886196189e-06
4.34935864906e-05
1.07519197151e-05
2.45322406519e-05
4.40462531323e-06
0.000188658171165
9.26548436686e-05
5.07008294904e-05
6.19101790515e-07
7.64519832356e-06
9.25204004311e-06
1.99694028195e-05
9.60717838892e-05
1.40486027998e-05
1.37843889727e-05
0.00019498025154
0.000188011091376
5.13080867736e-05
9.52282902862e-07
1.82066984982e-05
4.96923117943e-05
5.25712344081e-05
0.000114814710565
9.44639184529e-05
4.09273176e-05

