# vtk DataFile Version 3.0
File Name: Molecule/sphere_dip_C5/sphere_dip_C5_0-s3.vtk
ASCII
DATASET UNSTRUCTURED_GRID
FIELD FieldData 1
TIME 1 1 double
0.0
POINTS 50 double
0.850650808352 -0.525731112119 0.0
0.809016994375 -0.309016994375 -0.5
1.0 0.0 0.0
0.809016994375 0.309016994375 -0.5
0.525731112119 0.0 -0.850650808352
0.850650808352 0.525731112119 0.0
0.5 0.809016994375 -0.309016994375
0.309016994375 0.5 -0.809016994375
0.0 0.850650808352 -0.525731112119
0.0 0.850650808352 0.525731112119
-0.5 0.809016994375 0.309016994375
-0.309016994375 0.5 0.809016994375
-0.809016994375 0.309016994375 0.5
-0.525731112119 0.0 0.850650808352
0.309016994375 0.5 0.809016994375
0.0 0.0 1.0
0.525731112119 0.0 0.850650808352
-0.309016994375 -0.5 0.809016994375
0.309016994375 -0.5 0.809016994375
0.0 -0.850650808352 0.525731112119
0.809016994375 -0.309016994375 0.5
0.5 -0.809016994375 0.309016994375
0.309016994375 -0.5 -0.809016994375
0.0 0.0 -1.0
-0.309016994375 -0.5 -0.809016994375
0.0 -0.850650808352 -0.525731112119
-0.525731112119 0.0 -0.850650808352
0.809016994375 0.309016994375 0.5
0.5 0.809016994375 0.309016994375
-0.809016994375 -0.309016994375 -0.5
-0.809016994375 0.309016994375 -0.5
-1.0 0.0 0.0
-0.850650808352 -0.525731112119 0.0
-0.850650808352 0.525731112119 0.0
-0.309016994375 0.5 -0.809016994375
-0.5 0.809016994375 -0.309016994375
-0.5 -0.809016994375 -0.309016994375
-0.5 -0.809016994375 0.309016994375
0.0 -1.0 0.0
-0.809016994375 -0.309016994375 0.5
0.5 -0.809016994375 -0.309016994375
0.0 1.0 0.0
-0.26286555606 0.951056516295 0.162459848116
-0.26286555606 0.951056516295 -0.162459848116
-0.525731112119 0.850650808352 0.0
-0.702046444776 0.69378047756 0.16062203564
-0.702046444776 0.69378047756 -0.16062203564
0.525731112119 0.850650808352 0.0
0.26286555606 0.951056516295 -0.162459848116
0.26286555606 0.951056516295 0.162459848116

CELLS 96 384
3 0 1 2
3 1 3 2
3 1 4 3
3 2 3 5
3 5 3 6
3 3 7 6
3 3 4 7
3 6 7 8
3 9 10 11
3 10 12 11
3 11 12 13
3 9 11 14
3 11 15 14
3 11 13 15
3 14 15 16
3 13 17 15
3 17 18 15
3 17 19 18
3 15 18 16
3 16 18 20
3 18 21 20
3 18 19 21
3 20 21 0
3 4 22 23
3 22 24 23
3 22 25 24
3 23 24 26
3 0 2 20
3 2 27 20
3 2 5 27
3 20 27 16
3 5 28 27
3 28 14 27
3 28 9 14
3 27 14 16
3 26 29 30
3 29 31 30
3 29 32 31
3 30 31 33
3 8 34 35
3 34 30 35
3 34 26 30
3 32 36 37
3 36 38 37
3 36 25 38
3 37 38 19
3 32 37 39
3 37 17 39
3 37 19 17
3 39 17 13
3 13 12 39
3 12 31 39
3 12 33 31
3 39 31 32
3 26 24 29
3 24 36 29
3 24 25 36
3 29 36 32
3 25 40 38
3 40 21 38
3 40 0 21
3 38 21 19
3 4 1 22
3 1 40 22
3 1 0 40
3 22 40 25
3 4 23 7
3 23 34 7
3 23 26 34
3 7 34 8
3 41 42 9
3 9 42 10
3 41 43 42
3 43 44 42
3 43 35 44
3 42 44 10
3 35 43 8
3 8 43 41
3 10 44 45
3 44 46 45
3 44 35 46
3 45 46 33
3 10 45 12
3 45 33 12
3 33 46 30
3 30 46 35
3 6 47 5
3 5 47 28
3 6 48 47
3 48 49 47
3 48 41 49
3 47 49 28
3 41 48 8
3 8 48 6
3 28 49 9
3 49 41 9

CELL_TYPES 96
5
5
5
5
5
5
5
5
5
5
5
5
5
5
5
5
5
5
5
5
5
5
5
5
5
5
5
5
5
5
5
5
5
5
5
5
5
5
5
5
5
5
5
5
5
5
5
5
5
5
5
5
5
5
5
5
5
5
5
5
5
5
5
5
5
5
5
5
5
5
5
5
5
5
5
5
5
5
5
5
5
5
5
5
5
5
5
5
5
5
5
5
5
5
5
5

CELL_DATA 96
SCALARS cell_data_0 double
LOOKUP_TABLE default
0.000476571009349
0.000592606781205
0.000256454041115
0.000355454397643
0.000905441816639
0.00169192556044
0.000438532693574
0.00105721141085
0.000102020669233
0.000137055309247
0.000206385257113
0.000211914413
0.000439226149993
0.000356630359146
0.000349770232274
0.000346058941783
0.000411255509222
0.000203656706416
0.000340895579356
0.000209565134875
0.000138171812396
0.000128298889789
0.000151336346869
1.91108081784e-05
4.35953538193e-05
3.2306034356e-05
4.75107942267e-05
0.000378427795919
0.00011584089197
8.20879978346e-05
0.000145377253791
4.50176613487e-05
9.58240574534e-05
8.7698682641e-05
0.000215878054174
1.94250553432e-05
8.64086739501e-06
1.8348638331e-05
1.8749410459e-05
8.44265413171e-05
6.17812867846e-05
1.92371921092e-05
3.22601907513e-05
5.90097314084e-05
7.439475836e-05
1.6605923215e-05
4.29287302484e-05
0.000174841470782
0.000132733966382
0.000209054067145
0.000168824500106
0.000123448337026
3.03287369605e-05
3.58797736713e-05
4.98384720668e-05
7.49962358979e-05
5.64252163728e-05
6.08874978594e-05
4.97444917084e-05
4.9638830809e-05
0.000157985937185
1.83617693235e-06
6.67647401448e-05
8.19215322026e-05
0.000243602122012
1.67315904444e-05
0.000205860220262
0.000256486367921
3.54210440339e-05
0.000234110089196
4.08406077148e-05
1.48186892868e-05
4.66389859303e-05
1.02767363277e-06
1.60792541526e-05
7.43091355173e-06
3.73393149021e-05
8.75253379219e-05
6.71722384795e-06
8.62320598355e-07
1.38281329194e-05
1.12068168599e-05
1.95694081059e-05
7.55777313369e-06
1.63709637394e-05
2.18105821478e-05
0.000289214025139
4.95858864915e-05
0.000189447091932
9.8820017611e-07
4.61758732215e-05
3.95105646431e-05
8.72513250543e-05
0.000337086290678
2.80014991528e-05
4.04795341437e-05

