# vtk DataFile Version 3.0
File Name: Molecule/sphere_dip_C5/sphere_dip_C5_0-s2.vtk
ASCII
DATASET UNSTRUCTURED_GRID
FIELD FieldData 1
TIME 1 1 double
0.0
POINTS 47 double
0.850650808352 -0.525731112119 0.0
0.809016994375 -0.309016994375 -0.5
1.0 0.0 0.0
0.809016994375 0.309016994375 -0.5
0.525731112119 0.0 -0.850650808352
0.850650808352 0.525731112119 0.0
0.5 0.809016994375 -0.309016994375
0.309016994375 0.5 -0.809016994375
0.0 0.850650808352 -0.525731112119
0.5 0.809016994375 0.309016994375
0.0 1.0 0.0
0.0 0.850650808352 0.525731112119
-0.5 0.809016994375 0.309016994375
-0.309016994375 0.5 0.809016994375
-0.809016994375 0.309016994375 0.5
-0.525731112119 0.0 0.850650808352
0.309016994375 0.5 0.809016994375
0.0 0.0 1.0
0.525731112119 0.0 0.850650808352
-0.309016994375 -0.5 0.809016994375
0.309016994375 -0.5 0.809016994375
0.0 -0.850650808352 0.525731112119
0.809016994375 -0.309016994375 0.5
0.5 -0.809016994375 0.309016994375
0.309016994375 -0.5 -0.809016994375
0.0 0.0 -1.0
-0.309016994375 -0.5 -0.809016994375
0.0 -0.850650808352 -0.525731112119
-0.525731112119 0.0 -0.850650808352
0.809016994375 0.309016994375 0.5
-0.809016994375 -0.309016994375 -0.5
-0.809016994375 0.309016994375 -0.5
-1.0 0.0 0.0
-0.850650808352 -0.525731112119 0.0
-0.850650808352 0.525731112119 0.0
-0.309016994375 0.5 -0.809016994375
-0.5 0.809016994375 -0.309016994375
-0.5 -0.809016994375 -0.309016994375
-0.5 -0.809016994375 0.309016994375
0.0 -1.0 0.0
-0.809016994375 -0.309016994375 0.5
0.5 -0.809016994375 -0.309016994375
-0.26286555606 0.951056516295 0.162459848116
-0.26286555606 0.951056516295 -0.162459848116
-0.525731112119 0.850650808352 0.0
-0.702046444776 0.69378047756 0.16062203564
-0.702046444776 0.69378047756 -0.16062203564

CELLS 90 360
3 0 1 2
3 1 3 2
3 1 4 3
3 2 3 5
3 5 3 6
3 3 7 6
3 3 4 7
3 6 7 8
3 5 6 9
3 6 10 9
3 6 8 10
3 9 10 11
3 11 12 13
3 12 14 13
3 13 14 15
3 11 13 16
3 13 17 16
3 13 15 17
3 16 17 18
3 15 19 17
3 19 20 17
3 19 21 20
3 17 20 18
3 18 20 22
3 20 23 22
3 20 21 23
3 22 23 0
3 4 24 25
3 24 26 25
3 24 27 26
3 25 26 28
3 0 2 22
3 2 29 22
3 2 5 29
3 22 29 18
3 5 9 29
3 9 16 29
3 9 11 16
3 29 16 18
3 28 30 31
3 30 32 31
3 30 33 32
3 31 32 34
3 8 35 36
3 35 31 36
3 35 28 31
3 33 37 38
3 37 39 38
3 37 27 39
3 38 39 21
3 33 38 40
3 38 19 40
3 38 21 19
3 40 19 15
3 15 14 40
3 14 32 40
3 14 34 32
3 40 32 33
3 28 26 30
3 26 37 30
3 26 27 37
3 30 37 33
3 27 41 39
3 41 23 39
3 41 0 23
3 39 23 21
3 4 1 24
3 1 41 24
3 1 0 41
3 24 41 27
3 4 25 7
3 25 35 7
3 25 28 35
3 7 35 8
3 10 42 11
3 11 42 12
3 10 43 42
3 43 44 42
3 43 36 44
3 42 44 12
3 36 43 8
3 8 43 10
3 12 44 45
3 44 46 45
3 44 36 46
3 45 46 34
3 12 45 14
3 45 34 14
3 34 46 31
3 31 46 36

CELL_TYPES 90
5
5
5
5
5
5
5
5
5
5
5
5
5
5
5
5
5
5
5
5
5
5
5
5
5
5
5
5
5
5
5
5
5
5
5
5
5
5
5
5
5
5
5
5
5
5
5
5
5
5
5
5
5
5
5
5
5
5
5
5
5
5
5
5
5
5
5
5
5
5
5
5
5
5
5
5
5
5
5
5
5
5
5
5
5
5
5
5
5
5

CELL_DATA 90
SCALARS cell_data_0 double
LOOKUP_TABLE default
0.000250875450635
0.000328045418059
9.61493034051e-05
0.000200059202452
0.000227431918221
0.000633884154084
0.000265191896258
0.000461061863655
0.000828968502063
0.00148357993463
0.000430749241919
0.000699211808681
2.1223001671e-05
4.09019687077e-05
0.000166881411101
0.000182129965904
0.000434190158786
0.000352622867206
0.000354142990502
0.000352519939209
0.000433273399483
0.00021632400372
0.000349635400443
0.000216845284941
0.000190182939939
0.000147940152254
5.34694437544e-05
7.6295057966e-05
9.31607007759e-05
7.37927753355e-05
3.07554467605e-05
0.000122496400231
2.22911030937e-05
7.69034147971e-05
0.00016662110684
0.000411937661589
0.000330689274569
0.000258939145847
0.0002051657879
3.96910982551e-05
1.75548889773e-06
5.22957515604e-06
9.68004724283e-06
0.000202644703829
0.00022244964274
3.81234220632e-05
3.96713060231e-06
1.96722553493e-06
4.90237947624e-06
3.40296878893e-05
3.12789163783e-06
0.000140269569808
0.000130640832996
0.000203276179
0.000105214287746
3.25671481332e-05
5.2727364543e-07
1.64254795554e-05
3.44267649918e-05
2.05476786767e-05
1.0353385807e-05
1.62834086428e-05
4.89311682885e-06
4.69016746944e-05
3.90558526535e-06
6.76284749004e-05
0.000103114461979
0.000115703071999
7.33621411964e-05
6.67097892666e-05
0.000191471982828
0.000239513224576
3.51618410138e-05
0.000221009792592
4.64356346967e-05
2.74533635668e-05
4.89799975497e-05
1.5490758577e-06
4.8575542972e-05
3.84377544234e-05
9.44906545904e-05
9.3688147517e-05
3.32166768076e-05
8.08342744685e-07
4.16490413602e-05
6.54751146661e-06
6.22787624836e-05
1.4087830349e-05
1.68130241109e-05
8.86246418411e-05

