# vtk DataFile Version 3.0
File Name: Molecule/sphere_excent/sphere_excent_0-s1.vtk
ASCII
DATASET UNSTRUCTURED_GRID
FIELD FieldData 1
TIME 1 1 double
0.0
POINTS 42 double
0.85065078735 -0.52573108673 0.0
0.80892920494 -0.30898347497 -0.49994572997
0.99989145994 -9.9714245749e-09 4.1670162432e-07
0.8089287281 0.30898413062 -0.49994593859
0.52573108673 0.0 -0.85065078735
0.85065078735 0.52573114634 0.0
0.49994558096 0.80892938375 -0.30898311734
0.30898275971 0.49994543195 -0.80892956257
0.0 0.85065078735 -0.52573114634
0.49994587898 0.80892896652 0.3089838028
-8.3899965375e-07 0.99989140034 3.8027305749e-09
2.2204460493e-16 0.85065078735 0.52573108673
-0.49994584918 0.80892896652 0.3089838028
-0.49994596839 0.8089287281 -0.30898413062
-0.85065078735 0.52573114634 0.0
-0.30898311734 0.49994561076 0.80892938375
-0.80892956257 0.30898275971 0.49994543195
-0.52573108673 5.5511151231e-17 0.85065078735
0.30898344517 0.49994570017 0.80892914534
-1.689826945e-09 -8.4459253458e-07 0.99989140034
0.52573108673 2.7755575616e-17 0.85065078735
-0.3089838028 -0.49994584918 0.80892896652
0.30898413062 -0.49994596839 0.8089287281
0.0 -0.85065078735 0.52573108673
0.80892914534 -0.30898344517 0.49994570017
0.49994546175 -0.80892956257 0.30898275971
0.30898311734 -0.49994558096 -0.80892938375
1.0897897695e-08 -8.694914122e-09 -0.99989140034
-0.30898413062 -0.49994593859 -0.8089287281
2.2204460493e-16 -0.85065078735 -0.52573108673
-0.52573114634 0.0 -0.85065078735
0.80892908573 0.30898341537 0.49994564056
-0.80892938375 -0.30898308754 -0.49994558096
-0.80892914534 0.30898344517 -0.49994570017
-0.99989134073 8.5710043507e-09 4.1315800559e-07
-0.85065078735 -0.52573108673 4.4408920985e-16
-0.30898344517 0.49994564056 -0.80892908573
-0.49994546175 -0.80892956257 -0.30898275971
-0.49994570017 -0.80892914534 0.30898344517
4.2515640075e-07 -0.99989134073 4.2034709047e-09
-0.80892908573 -0.30898344517 0.49994567037
0.49994564056 -0.80892908573 -0.30898344517

CELLS 80 320
3 0 1 2
3 1 3 2
3 1 4 3
3 2 3 5
3 5 3 6
3 3 7 6
3 3 4 7
3 6 7 8
3 5 6 9
3 6 10 9
3 6 8 10
3 9 10 11
3 11 10 12
3 10 13 12
3 10 8 13
3 12 13 14
3 11 12 15
3 12 16 15
3 12 14 16
3 15 16 17
3 11 15 18
3 15 19 18
3 15 17 19
3 18 19 20
3 17 21 19
3 21 22 19
3 21 23 22
3 19 22 20
3 20 22 24
3 22 25 24
3 22 23 25
3 24 25 0
3 4 26 27
3 26 28 27
3 26 29 28
3 27 28 30
3 0 2 24
3 2 31 24
3 2 5 31
3 24 31 20
3 5 9 31
3 9 18 31
3 9 11 18
3 31 18 20
3 30 32 33
3 32 34 33
3 32 35 34
3 33 34 14
3 8 36 13
3 36 33 13
3 36 30 33
3 13 33 14
3 35 37 38
3 37 39 38
3 37 29 39
3 38 39 23
3 35 38 40
3 38 21 40
3 38 23 21
3 40 21 17
3 17 16 40
3 16 34 40
3 16 14 34
3 40 34 35
3 30 28 32
3 28 37 32
3 28 29 37
3 32 37 35
3 29 41 39
3 41 25 39
3 41 0 25
3 39 25 23
3 4 1 26
3 1 41 26
3 1 0 41
3 26 41 29
3 4 27 7
3 27 36 7
3 27 30 36
3 7 36 8

CELL_TYPES 80
5
5
5
5
5
5
5
5
5
5
5
5
5
5
5
5
5
5
5
5
5
5
5
5
5
5
5
5
5
5
5
5
5
5
5
5
5
5
5
5
5
5
5
5
5
5
5
5
5
5
5
5
5
5
5
5
5
5
5
5
5
5
5
5
5
5
5
5
5
5
5
5
5
5
5
5
5
5
5
5

CELL_DATA 80
SCALARS cell_data_0 double
LOOKUP_TABLE default
2.72020012497e-05
1.56114773885e-05
1.69988723497e-05
2.62648964037e-06
9.15148991731e-05
0.000196079762175
3.23526574052e-05
0.000168291554442
0.000217107416732
0.000521915757642
0.000263713129618
0.000161370670181
0.000544133184616
0.00119959380482
0.00028338502951
0.000755424254333
0.000370344299034
0.000753628144115
0.000620453318554
2.77258218009e-05
6.73525485678e-05
0.000242247254097
0.000201185760653
0.000155176768125
0.000153155221362
0.000175021390029
6.51555447259e-05
0.000122485653065
4.32651418251e-05
3.89450699701e-05
3.72343285646e-05
1.64598942009e-05
1.4965711552e-06
3.08351857291e-05
2.654115343e-05
3.02144966029e-05
8.0817509468e-06
2.85446512202e-05
1.55988077995e-05
3.67457092492e-05
3.5382671049e-05
1.74486799978e-06
4.51440268289e-06
6.81554788059e-05
8.1050196437e-06
5.49291220212e-06
8.08681459288e-07
1.24798467549e-05
0.000121050383243
0.000141757828461
7.97887607774e-06
0.000138692121285
1.47731433427e-06
5.02715121547e-07
1.01054142368e-06
1.25357424404e-05
1.57233630443e-06
4.21510035212e-05
3.95317054987e-05
7.64441707945e-05
1.8464823539e-05
6.98632649878e-05
7.43151340446e-05
3.20015731338e-06
3.01323217867e-05
2.92652298343e-05
2.55223341558e-05
9.17879082907e-07
1.01055050562e-06
1.1486273667e-05
1.97697494184e-06
1.97496736714e-05
1.23009211641e-05
1.45123592414e-05
3.21922110931e-05
1.5621854288e-06
2.49598015262e-05
2.88130811298e-05
3.16844325194e-06
3.29383789365e-05

