# vtk DataFile Version 3.0
File Name: Molecule/sphere_cent/sphere_cent_0-s2.vtk
ASCII
DATASET UNSTRUCTURED_GRID
FIELD FieldData 1
TIME 1 1 double
0.0
POINTS 57 double
0.8504909277 -0.52598559856 -2.8181983414e-09
0.80893647671 -0.30899640918 -0.49994462729
0.99990016222 -8.4054026956e-06 8.0801481772e-07
0.80893516541 0.3089953661 -0.49994710088
0.52573078871 -3.8157025983e-08 -0.85065096617
0.85049122572 0.52598577738 6.9208908826e-08
0.50399112701 0.79988694191 -0.32219213247
0.30889463425 0.49980869889 -0.80909687281
0.00014158168051 0.8508413434 -0.52535289526
-0.00013781494636 0.85080081224 0.52544432878
-0.29524496198 0.49482899904 0.8158339262
0.30911874771 0.49979239702 0.80905240774
0.00012966882787 -0.00018909385835 0.99992120266
-0.52582705021 0.00038404852967 0.85056143999
0.52573597431 -8.3295135482e-06 0.85064786673
-0.30899569392 -0.49995392561 0.80894058943
0.30898886919 -0.49996650219 0.80892926455
-5.9502735894e-07 -0.85086750984 0.52530992031
0.80893647671 -0.30899679661 0.49994435906
0.50399208069 -0.79988396168 0.32218661904
0.30898442864 -0.49996423721 -0.80893164873
-1.4305510376e-06 -4.0527938836e-06 -0.99989384413
-0.3089864552 -0.49996507168 -0.80893039703
-3.452605597e-07 -0.85086810589 -0.5253097415
-0.52573162317 -7.1770116961e-08 -0.85065048933
0.80900490284 0.30877617002 0.50000947714
0.50385773182 0.8000600934 0.32196542621
-0.80893719196 -0.3089940846 -0.49994581938
-0.8090171814 0.30879169703 -0.49999541044
-0.99992769957 -0.00010580036178 -0.00019399194571
-0.8504884243 -0.52599084377 -2.8018548619e-06
-0.85039502382 0.52607351542 0.00013336115808
-0.30890291929 0.49982133508 -0.80908352137
-0.50455182791 0.80025738478 -0.32176458836
-0.5040794611 -0.79970926046 0.3223554492
-0.80895245075 -0.30899113417 0.49995788932
-0.81640475988 0.2953555584 0.49375411868
-0.50399369001 -0.7998868227 -0.32218298316
0.5040191412 -0.79987037182 -0.32216027379
0.5250941515 0.85106486082 -1.6081086869e-05
0.26409903169 0.95085120201 -0.1620195061
0.26402190328 0.95089972019 0.16210530698
-1.2694212273e-05 0.99982196093 1.2094224985e-05
-0.26362410188 0.9511256218 0.16127026081
-0.49989688396 0.8088837862 0.3089569509
-0.26413717866 0.95084357262 -0.1620170325
-0.52490401268 0.85123062134 -0.00085995654808
-0.42590799928 0.68737143278 0.58849078417
-0.68813085556 0.58710795641 0.42649546266
-0.58781450987 0.42590150237 0.68783384562
-0.52510464191 -0.8510581255 1.2003719348e-05
-0.26409631968 -0.95085090399 -0.16201937199
-0.26411768794 -0.95084023476 0.16204728186
3.1882615303e-07 -0.99981456995 3.145764822e-07
0.2641172111 -0.9508472085 -0.16201332211
0.52513444424 -0.85103929043 2.0856981791e-05
0.26411032677 -0.9508446455 0.16203427315

CELLS 110 440
3 0 1 2
3 1 3 2
3 1 4 3
3 2 3 5
3 5 3 6
3 3 7 6
3 3 4 7
3 6 7 8
3 9 10 11
3 10 12 11
3 10 13 12
3 11 12 14
3 13 15 12
3 15 16 12
3 15 17 16
3 12 16 14
3 14 16 18
3 16 19 18
3 16 17 19
3 18 19 0
3 4 20 21
3 20 22 21
3 20 23 22
3 21 22 24
3 0 2 18
3 2 25 18
3 2 5 25
3 18 25 14
3 5 26 25
3 26 11 25
3 26 9 11
3 25 11 14
3 24 27 28
3 27 29 28
3 27 30 29
3 28 29 31
3 8 32 33
3 32 28 33
3 32 24 28
3 33 28 31
3 30 34 35
3 34 15 35
3 34 17 15
3 35 15 13
3 13 36 35
3 36 29 35
3 36 31 29
3 35 29 30
3 24 22 27
3 22 37 27
3 22 23 37
3 27 37 30
3 4 1 20
3 1 38 20
3 1 0 38
3 20 38 23
3 4 21 7
3 21 32 7
3 21 24 32
3 7 32 8
3 6 39 5
3 5 39 26
3 6 40 39
3 40 41 39
3 40 42 41
3 39 41 26
3 42 40 8
3 8 40 6
3 26 41 9
3 41 42 9
3 42 43 9
3 9 43 44
3 42 45 43
3 45 46 43
3 45 33 46
3 43 46 44
3 33 45 8
3 8 45 42
3 44 46 31
3 46 33 31
3 44 47 9
3 9 47 10
3 44 48 47
3 48 49 47
3 48 36 49
3 47 49 10
3 36 48 31
3 31 48 44
3 10 49 13
3 49 36 13
3 37 50 30
3 30 50 34
3 37 51 50
3 51 52 50
3 51 53 52
3 50 52 34
3 53 51 23
3 23 51 37
3 34 52 17
3 52 53 17
3 38 54 23
3 23 54 53
3 38 55 54
3 55 56 54
3 55 19 56
3 54 56 53
3 19 55 0
3 0 55 38
3 53 56 17
3 56 19 17

CELL_TYPES 110
5
5
5
5
5
5
5
5
5
5
5
5
5
5
5
5
5
5
5
5
5
5
5
5
5
5
5
5
5
5
5
5
5
5
5
5
5
5
5
5
5
5
5
5
5
5
5
5
5
5
5
5
5
5
5
5
5
5
5
5
5
5
5
5
5
5
5
5
5
5
5
5
5
5
5
5
5
5
5
5
5
5
5
5
5
5
5
5
5
5
5
5
5
5
5
5
5
5
5
5
5
5
5
5
5
5
5
5
5
5

CELL_DATA 110
SCALARS cell_data_0 double
LOOKUP_TABLE default
2.80294883855e-07
4.18252451708e-07
2.13374287779e-07
2.684478559e-07
4.02251043649e-08
3.02630309502e-07
1.87380425578e-07
3.60869673058e-08
4.40625904413e-08
2.99997618367e-07
5.62542198663e-08
1.98222383512e-07
2.94034545995e-07
4.15960172219e-07
3.37905639708e-07
2.0556582018e-07
2.06317961241e-07
2.94892856816e-07
3.8960349547e-08
5.47709902009e-08
2.15708570979e-07
4.1095015619e-07
3.45391706262e-07
1.97925810688e-07
2.79635303945e-07
4.15639697082e-07
2.70115807675e-07
2.1337799433e-07
4.72794755106e-08
3.00830061232e-07
4.15454616887e-08
1.97103821176e-07
2.25118430766e-07
4.15831512132e-07
2.7748845659e-07
3.50803175784e-07
3.55472900109e-08
3.1080268152e-07
1.83530243642e-07
3.53063950278e-08
3.03257762688e-08
3.00515906148e-07
4.56572393797e-08
2.70256701511e-07
3.28699751466e-08
3.07785326632e-07
4.26372661972e-08
2.69009580708e-07
2.06212884832e-07
2.94881695349e-07
4.34649090929e-08
5.21732317524e-08
2.05389190885e-07
2.96835708632e-07
5.28599545458e-08
4.40910149097e-08
2.13962984204e-07
4.07153291342e-07
2.02435868313e-07
3.55575574057e-07
2.47351580124e-08
2.94413113523e-08
2.49101149328e-07
2.40796005593e-07
2.29070827058e-07
2.42084873153e-07
1.86677169615e-07
1.29348489434e-07
1.19608900826e-07
1.5270381864e-07
1.11916442595e-07
9.7734753926e-08
2.54434691044e-07
1.91728477264e-07
2.65404090497e-07
2.54647488474e-07
9.59413289213e-08
1.93605108818e-07
2.08010295253e-07
1.34485746976e-07
1.87891766826e-07
1.31821625118e-07
2.2869950183e-07
2.41030087021e-07
2.4754761969e-07
2.42212148956e-07
1.22583387142e-07
1.72236115273e-07
2.38011268852e-08
6.91211686122e-08
2.19245559005e-08
2.97895023757e-08
2.45879499106e-07
2.40270040458e-07
2.33899671964e-07
2.43565841618e-07
1.8451046909e-07
1.22252636327e-07
1.16103308089e-07
1.52342720326e-07
1.13868469448e-07
1.72543273803e-07
2.46014401434e-07
2.39603927945e-07
2.43630839165e-07
2.33794983838e-07
2.21630330374e-08
3.0094251091e-08
1.84293593401e-07
1.50109581503e-07

