# vtk DataFile Version 3.0
File Name: Molecule/sphere_cent/sphere_cent_0-s16.vtk
ASCII
DATASET UNSTRUCTURED_GRID
FIELD FieldData 1
TIME 1 1 double
0.0
POINTS 437 double
0.51160681248 0.79700410366 -0.32094269991
0.31269100308 0.93080157042 -0.18674722314
0.5227407217 0.85161375999 -0.010749327019
-0.41376209259 0.67357242107 0.61204308271
-0.50144386292 0.50180405378 0.70433688164
-0.30382746458 0.52859473228 0.79234826565
-0.5146677494 -0.8117480278 -0.27624347806
-0.31865999103 -0.92450022697 -0.20883692801
-0.47660934925 -0.87752974033 -0.047562588006
0.5221824646 -0.7870246172 -0.32788139582
0.52625715733 -0.84679329395 -0.061174333096
0.34670194983 -0.9085123539 -0.23309640586
-0.8518345356 0.0071645034477 -0.52384436131
-0.92002773285 0.21757075191 -0.32571461797
-0.79342257977 0.3230574131 -0.51590150595
-0.21689715981 0.31876987219 -0.9226886034
-0.32217755914 0.5158059597 -0.79382282495
-0.00075066037243 0.52239823341 -0.85265529156
0.21517337859 0.31973996758 -0.92273694277
0.32035806775 0.51737302542 -0.79353123903
0.67781996727 0.13400837779 -0.72131198645
0.51845055819 0.00040099647595 -0.8551030159
0.45994603634 0.27058666945 -0.84568059444
0.57232147455 0.45564061403 -0.68139892817
0.53809666634 -0.0035450544674 0.84275239706
0.45662230253 -0.25289767981 0.85247969627
0.66301554441 -0.20041491091 0.71984291077
-0.46102848649 0.2691706717 -0.84558290243
-0.58920687437 0.43985715508 -0.67775481939
-0.68410629034 0.15480802953 -0.71276277304
-0.51979112625 0.00091694609728 -0.85431879759
-0.520842731 -0.7785551548 0.34995481372
-0.33001747727 -0.8160610199 0.47263863683
-0.4665851295 -0.6952509284 0.54655760527
-0.35475435853 -0.51961135864 -0.77705550194
-0.44670784473 -0.63537096977 -0.62973356247
-0.58005791903 -0.44787168503 -0.67935478687
-0.66776430607 -0.58751279116 -0.4570736289
-0.68209785223 -0.69463729858 -0.22811932862
-0.63356983662 -0.77072829008 -0.062026083469
-0.37548062205 -0.88992017508 0.25764772296
0.68371075392 -0.13151164353 -0.7158510685
0.85403883457 -7.9373916378e-05 -0.52018994093
0.89566278458 0.26559442282 0.35564211011
0.84516847134 0.44406402111 0.29657492042
0.77624303102 0.36767116189 0.51100552082
-0.68543225527 -0.12739387155 -0.7154430151
0.31629440188 0.099399581552 -0.94341188669
-0.31785017252 0.098258152604 -0.94303607941
0.81525343657 0.50655972958 -0.27978423238
0.67231297493 0.58955895901 -0.44768971205
0.70552092791 0.68447697163 -0.1799467057
0.78762716055 -0.3561116457 0.50038689375
0.67368513346 -0.5878431201 0.44781979918
0.83044171333 -0.47438311577 0.29162028432
0.70920318365 -0.67520570755 0.19962577522
0.5285166502 -0.76481568813 0.36733740568
0.0012237230549 0.85260981321 -0.52253168821
-0.15471361578 0.71217781305 -0.68470203876
-0.26403701305 0.84281861782 -0.46903848648
-0.44111588597 0.67456883192 -0.59191739559
-0.50732982159 0.79660242796 -0.32871705294
-0.67622548342 0.58471095562 -0.4481408596
-0.71921670437 0.66935288906 -0.18629087508
-0.84672647715 0.45761695504 -0.27146157622
-0.86091393232 0.50866049528 0.0060543995351
0.6764960289 -0.5860375762 -0.44593793154
0.68807280064 -0.70360082388 -0.17617882788
0.44670027494 -0.68391788006 -0.575337708
0.34633177519 -0.82442826033 -0.44695207477
-0.081409059465 0.94223821163 -0.32493793964
-0.27494797111 0.92962265015 -0.24526360631
-0.57867819071 0.81376498938 -0.05363143608
-0.71550261974 0.69533741474 0.067735292017
0.3155605793 -0.5236030221 -0.79078286886
0.19560275972 -0.67952167988 -0.70680093765
0.06940317899 -0.5235041976 -0.84817296267
0.90912771225 -0.24275146425 0.33722159266
-0.94401937723 0.31332403421 -0.1035599038
0.15398485959 0.71292889118 -0.68408823013
0.44104242325 0.67392385006 -0.59270137548
0.44217047095 -0.66891926527 0.59739136696
0.59653913975 -0.45140638947 0.66218084097
0.28271049261 0.83789205551 -0.46685063839
0.32031404972 -0.52665060759 0.7868245244
0.19462671876 -0.69482433796 0.69014906883
0.30204996467 -0.82114720345 0.48375579715
0.99967479706 0.006906259805 0.022168539464
0.98787677288 0.13266150653 -0.078552857041
0.98776131868 0.13010522723 0.085654228926
0.98701363802 -0.10167320818 0.1237526238
0.98165500164 0.044811848551 0.18517354131
0.95346665382 -0.054713487625 0.29548725486
0.86260068417 -0.049849715084 0.50269150734
-0.91162800789 -0.17312590778 -0.37043365836
-0.95421683788 -0.0089325355366 -0.29883396626
-0.97756910324 0.13480275869 -0.16221517324
5.0259754062e-05 -0.09071265161 -0.99582546949
-0.10637234896 0.11844863743 -0.98725634813
0.10396807641 0.11889593303 -0.98746067286
-0.00091632769909 0.290358603 -0.9569106698
-0.24471415579 0.95620065928 0.16062645614
-0.35599383712 0.88572716713 0.29753181338
-0.09287174046 0.95153033733 0.29296508431
0.07167840004 0.99706846476 -0.006860836409
-0.099854029715 0.98819738626 -0.11604963243
-0.089022070169 0.99220454693 0.087095163763
-0.25936681032 0.96551966667 -0.020928757265
-0.41396763921 0.90324908495 -0.11266461015
-0.40773743391 0.90960496664 0.079803310335
-0.54904323816 0.81851649284 0.16911141574
-0.51373374462 0.78258299828 0.35051748157
-0.2943906486 -0.95480525494 -0.038499999791
-0.11798826605 -0.98787391186 -0.10064195096
-0.007176195737 -0.9997497797 0.016735430807
-0.18680503964 -0.98114138842 0.049091622233
0.098740488291 -0.99119251966 -0.087605014443
0.30738192797 -0.95075875521 -0.034528248012
0.07035895437 -0.98849964142 0.13384328783
0.17948831618 -0.98238652945 0.051370169967
-0.089004203677 -0.98626971245 0.1380212307
0.34290966392 -0.11578097194 -0.93220061064
0.18160362542 -0.057235527784 -0.98172402382
0.15688957274 -0.26993465424 -0.94899612665
-0.14879691601 -0.29456463456 -0.94369101524
-0.18224744499 -0.0600813739 -0.98142021894
0.46403467655 -0.25728923082 -0.84677094221
-0.34458580613 -0.11883495003 -0.93119716644
-0.46668028831 -0.25444188714 -0.84597879648
0.49544605613 0.80196219683 0.33175301552
0.27459642291 0.83874982595 0.46997311711
0.46609568596 0.69691509008 0.54488420486
-0.94977211952 0.14044247568 0.27942582965
-0.97314172983 -0.054518613964 0.22380653024
-0.88598287106 -0.031134411693 0.46241948009
-0.86925947666 0.21634216607 0.44411721826
-0.88868814707 0.3717007339 0.26836204529
-0.95351576805 0.2840385437 0.10063752532
-0.99430966377 0.096940129995 0.043173968792
0.070099540055 0.97986418009 -0.18692411482
0.29772177339 0.93475735188 0.18740583956
-0.64159214497 0.50959336758 0.5732049346
-0.55660754442 0.64290887117 0.52550661564
-0.67851626873 0.60633391142 0.41402637959
-0.7848687768 0.43800348043 0.43830579519
-0.71215313673 0.37826550007 0.5913734436
-0.78884857893 0.56539028883 0.24091307819
-0.65934479237 0.7057723403 0.25915774703
-0.14398139715 -0.54518282413 -0.8257638216
-0.2354605794 -0.66265833378 -0.7109426856
-0.0241835583 -0.69066631794 -0.72258031368
0.64785170555 0.62921398878 0.42603376508
0.12506023049 0.92897629738 -0.34841004014
-0.96401494741 -0.19461710751 -0.18066240847
-0.99126577377 -0.013651640154 -0.13059356809
-0.99845397472 -0.05118476972 -0.020436100662
-0.067306779325 0.87102395296 0.48645156622
0.10212295502 0.92808586359 0.35775649548
0.071461163461 0.98150068521 0.17744635046
-0.31874442101 -0.85674220324 -0.40525895357
0.043359491974 0.51949030161 0.8532782793
-0.1031858772 0.63371986151 0.76583337784
-0.15837536752 0.42255631089 0.89227253199
0.14204472303 0.35752892494 0.92297762632
-0.020961109549 0.31987431645 0.94721508026
0.30541902781 0.44234859943 0.84320390224
-0.1804894805 0.23533287644 0.95498597622
-0.32965913415 0.29620915651 0.8962879777
0.53276973963 0.40409886837 0.7430357933
0.41492760181 0.5659968257 0.71237421036
0.57987242937 0.52968239784 0.61748439074
-0.45874330401 -0.75233590603 -0.47258093953
-0.28846055269 -0.77331990004 -0.5641887784
0.22069367766 0.60252326727 0.7670019269
0.038831077516 0.68561780453 0.72679501772
0.16170832515 0.72812438011 0.66559582949
0.31220468879 0.69744777679 0.64479339123
0.065991647542 0.817299366 0.57206881046
0.051957283169 -0.020339492708 0.99821215868
0.29101085663 0.009707717225 0.95594733953
0.12065410614 0.17790654302 0.97649538517
0.28516387939 0.24038545787 0.92782634497
0.82124477625 0.15657304227 0.54858380556
0.93123537302 0.097814120352 0.35036799312
0.72050702572 0.013988580555 0.69309896231
0.67486959696 0.17792981863 0.71549022198
-0.32155737281 0.13370978832 0.93737220764
-0.18691135943 0.018923901021 0.98203581572
-0.47928825021 0.12961243093 0.86794835329
-0.38901203871 -0.010893572122 0.92105364799
-0.54329293966 -0.06891477108 0.83658576012
-0.045081555843 0.14635714889 0.98817700148
-0.31983056664 -0.69697296619 0.6418133378
-0.45020842552 -0.59576690197 0.66499972343
-0.13227501512 -0.7271105051 0.67327111959
-0.22057785094 -0.6069444418 0.76339864731
-0.78659003973 -0.56662493944 -0.24518992007
-0.83796459436 -0.43193399906 -0.33242595196
-0.748288095 -0.65765380859 -0.087530612946
-0.64140409231 0.032200414687 0.76636725664
-0.47618168592 0.34788927436 0.80757522583
-0.5888324976 0.22150549293 0.7772462368
-0.60930335522 0.37226730585 0.70013552904
-0.005784496665 -0.56011646986 0.82693696022
-0.69311952591 0.14277777076 0.70620328188
-0.69998085499 0.26192840934 0.66439437866
-0.59510445595 -0.33577701449 0.73007106781
-0.4944485724 -0.25821253657 0.8298085928
-0.67500561476 -0.18884533644 0.7131742239
-0.34895476699 -0.38278445601 0.85529911518
-0.47210979462 -0.45662939548 0.75390625
-0.79393708706 0.12491653115 0.59455883503
-0.77306067944 -0.055259183049 0.63182073832
-0.82564169168 -0.28027108312 0.48888668418
-0.53597778082 -0.83265453577 0.13851028681
-0.69560027122 -0.71529144049 0.066083393991
-0.34722429514 -0.93222516775 0.10030060261
-0.78443562984 0.27644082904 0.55510234833
0.53752171993 0.21518106759 0.81527835131
0.42050519586 0.14488400519 0.89564943314
0.42410075665 0.30183628201 0.85382854939
-0.59087431431 -0.54260194302 0.59685903788
-0.35114553571 -0.58701217175 0.72943794727
-0.3172223568 -0.50351792574 0.80358409882
-0.82611149549 -0.55403423309 -0.10280199349
[...]
CELL_DATA 870
SCALARS cell_data_0 double
LOOKUP_TABLE default
2.3312279124e-08
7.76166824226e-09
6.35706078698e-09
1.35158905002e-08
2.98499896917e-08
3.4255879211e-08
3.8640836783e-08
2.4190887178e-08
3.59794112867e-08
4.77074975421e-08
1.27794877429e-08
5.12991177055e-09
8.85761853567e-10
7.95014676617e-09
1.14429385612e-08
3.92211892102e-09
2.98792462266e-08
3.80242722874e-08
1.93846325643e-08
1.53590183544e-08
1.66308659107e-08
5.44535441921e-08
5.87948220541e-09
4.55683166573e-09
1.68545493572e-09
1.89776643415e-08
2.97516747891e-08
8.73224497961e-09
5.17604914325e-09
3.03139057788e-08
1.56185449423e-08
1.90359011048e-08
1.79238874919e-08
1.05676516624e-08
1.07980469847e-08
7.78029839454e-09
5.96894037582e-09
1.21690877975e-08
7.5567905319e-09
7.69120747534e-09
2.80094139665e-08
2.02906681059e-08
2.30251745708e-08
4.62944646044e-09
4.27185042576e-09
2.710680433e-08
1.8836040094e-08
1.52500673685e-08
1.50415209446e-08
2.55364676299e-08
1.83728160515e-08
4.4477005347e-09
3.26217118037e-08
2.54545362833e-08
1.13052989397e-08
3.15146742114e-08
8.1872576729e-10
6.48941871465e-09
2.45597034235e-08
1.19364452479e-08
1.8430503599e-08
1.00673507667e-08
3.03303961301e-09
1.78050559248e-09
1.18979769904e-08
4.58317585866e-08
2.51926306371e-08
2.07544968589e-09
4.74515867238e-09
1.71991755152e-08
3.20647302013e-08
1.93718964813e-09
5.89430029683e-09
9.52409446e-10
1.89393204302e-10
6.04784186541e-09
3.50203577007e-08
6.52783443438e-09
1.0094793367e-08
9.08936644693e-09
3.0699425573e-08
1.18930975613e-08
1.25075982311e-08
1.11818922469e-08
6.77858997103e-09
9.21850180016e-09
1.01917997855e-08
4.5613983168e-09
2.17173154811e-08
1.25992926903e-08
2.54930384822e-08
1.8641762658e-08
8.54948411427e-09
1.44651446653e-09
9.92051411512e-09
2.64524357029e-10
9.89037647198e-09
4.46352699996e-09
6.51786708158e-09
8.60509005109e-10
2.46137727751e-09
1.31274483971e-09
1.32689984116e-08
1.23808269676e-08
5.05729765689e-10
6.03075032392e-09
1.24069580385e-08
1.32257334843e-08
4.21786850765e-09
3.19825896873e-09
2.10785480406e-08
7.58864589071e-09
1.66207844617e-09
1.12144548468e-08
1.63179978772e-08
1.10094168696e-08
1.55866455852e-09
1.47202792845e-08
2.45835099115e-08
2.01930460296e-08
2.11091453442e-08
1.96074447584e-08
4.92801814615e-09
4.84720050149e-10
1.2481351071e-08
1.22594927875e-08
4.37438308352e-09
7.75619309415e-09
2.25074956733e-08
1.67868842643e-09
2.40602717401e-08
1.62811741576e-08
1.26821236723e-08
1.10425116594e-08
1.67657038434e-08
2.36901566758e-08
2.02956383752e-09
2.31857979879e-09
5.31735785522e-08
1.02255154353e-08
1.26995628364e-08
4.8221284266e-09
1.62081848596e-08
2.63351043925e-08
1.16014295491e-08
2.47181688205e-08
1.21540592558e-08
7.13378838472e-09
7.91133988697e-11
9.63177414718e-10
2.16565239064e-09
2.35748805009e-09
5.4446682378e-09
2.49415857775e-08
1.28246044691e-08
6.24742149752e-09
1.60947798945e-08
7.04715270046e-09
1.49298537279e-08
1.87879133808e-08
1.66095284864e-09
2.77885831168e-09
2.06607216385e-08
7.02452283951e-09
2.75654983449e-08
4.67385592445e-09
1.2059523957e-09
2.23410348059e-08
3.30605033511e-09
2.04277422619e-08
1.00553970664e-08
1.370121462e-08
6.41511770676e-10
1.28163445598e-08
6.5009761908e-09
1.59186922879e-08
3.73144826818e-09
6.10004604245e-09
2.33995363779e-08
9.11147229456e-09
4.45891495249e-09
8.84132185852e-09
1.93193859363e-08
8.28604889871e-09
1.09490257569e-08
4.70932602107e-09
6.76699530416e-10
1.92711931068e-08
1.29512038991e-08
1.70041538813e-08
1.53884670159e-08
4.02944838184e-08
3.18095483948e-08
7.15390340739e-09
2.11682340431e-08
6.86930318085e-10
8.70592203043e-09
1.47732535703e-08
1.42747868194e-08
1.09271022725e-08
9.13223312738e-09
6.83368451818e-09
1.3291028341e-08
5.57378685421e-09
1.46712050687e-08
1.81996058641e-08
4.62491548596e-09
9.28345920779e-09
2.38641204787e-08
3.1634929326e-08
1.19195387604e-08
2.0379524528e-08
1.360439122e-08
3.83859352489e-09
1.56795353279e-08
8.32705594311e-09
8.42653746907e-09
1.6149184384e-08
1.16301233944e-08
5.20277137208e-09
1.56877513549e-08
1.11344735041e-08
1.03041393367e-09
1.42087185112e-08
2.57307677276e-09
4.06992638988e-09
5.77897193656e-09
8.56872196887e-09
2.16135896577e-08
1.6150898791e-08
6.0949891216e-09
8.47291510099e-10
9.28278571202e-09
5.26185237108e-09
1.11375945403e-09
3.40790418347e-09
1.24672892645e-08
2.73237951353e-08
1.95365692826e-09
7.87835163972e-10
5.47639140714e-10
1.52684699356e-08
6.71800905417e-09
9.49782092093e-09
1.86862417924e-09
2.48719464539e-09
2.41704842959e-08
2.50387930114e-09
3.91051602097e-10
4.47170154742e-09
1.02332096805e-08
1.88533009333e-08
2.20986617196e-08
2.25894236638e-08
3.06838495868e-08
1.29601802063e-08
1.03913654649e-08
6.17427166796e-09
1.68932867564e-08
1.14055351921e-08
9.18791831181e-10
1.35822351188e-09
3.77389133e-09
7.24761555771e-09
5.15305843138e-10
2.297950088e-08
7.55622228159e-09
2.51743073753e-09
5.42067292922e-09
1.3716060454e-08
3.93595419007e-10
1.69648319083e-09
6.45909714153e-09
2.20940844267e-10
1.94318267463e-09
4.01078063218e-09
3.17748314948e-09
8.25854764095e-09
1.18707599304e-08
6.42530209159e-09
6.78511920626e-09
3.60388678523e-09
8.9539940388e-09
2.63975215216e-09
2.25211707829e-09
3.50302178125e-09
1.10138891136e-08
2.07149103893e-09
6.05797016082e-09
1.29143509058e-10
7.01546351002e-10
9.33584803481e-09
1.10272837931e-08
1.3619342841e-08
8.65697837381e-09
1.9219139241e-08
8.55237268706e-09
3.1234694636e-08
2.5148968176e-08
1.00748604533e-08
5.26491217074e-09
9.75530061875e-09
2.57133713892e-08
4.88887325334e-09
8.68815972117e-09
3.79539968325e-09
1.50767917259e-08
4.11502080827e-10
4.36937091201e-09
1.83275186762e-08
1.78263920102e-08
2.67710791663e-09
1.71187246299e-09
1.08490939315e-08
1.19516641574e-08
1.65914912231e-08
1.3365296444e-08
2.19275421021e-08
4.94896523327e-09
4.09671567578e-09
1.76378415638e-10
2.28806609445e-09
3.94677245609e-09
2.23299429363e-09
3.00824300582e-09
2.90547441866e-09
5.15863710024e-09
4.0660492835e-09
6.28445148812e-09
3.08166881214e-09
1.19916181308e-09
4.60771009449e-09
2.33669229724e-09
1.61739797969e-08
5.30562094975e-09
7.10351558772e-09
1.10309011715e-08
1.90236789985e-08
2.18047157274e-08
1.22835021824e-08
1.73151065541e-09
3.5799507107e-09
4.66149476185e-09
1.56717849807e-08
3.16689702209e-10
5.08073199335e-09
1.33849248376e-09
5.67479983335e-09
7.06751193525e-09
4.00524385177e-09
4.32043791551e-09
2.76518725714e-08
5.86431553503e-09
1.3797511017e-09
4.66206213881e-09
5.01205304746e-09
2.84679903932e-09
5.8152578138e-09
8.79256964567e-09
5.34820845602e-09
1.15277165379e-09
4.57031846344e-09
1.57176769043e-09
1.69833137106e-08
9.71803475852e-09
6.02188312771e-09
1.3234427208e-10
6.62515569087e-09
1.28422168601e-08
2.28567365664e-08
1.72349075103e-08
8.34526753698e-09
2.35921986359e-09
1.09414510668e-08
3.54101108106e-09
1.27527981481e-09
5.6046449179e-09
1.1469173521e-08
1.51868892579e-08
1.29895322298e-08
8.40401902134e-09
2.76891988189e-09
4.43783635153e-09
8.82523148676e-09
1.46664769028e-09
9.59995779583e-09
9.49324022194e-09
3.67371198872e-09
1.38175599664e-08
1.65177143418e-08
2.15449806081e-08
3.53966043136e-09
9.98690449463e-09
3.2427012975e-10
7.53951883867e-09
1.10738891812e-08
1.26090682584e-08
1.07262927838e-08
8.09360799435e-09
1.06377414298e-08
1.48969185924e-08
1.31742570103e-09
3.4824200677e-09
2.88660291819e-09
7.55086760503e-09
3.30457489989e-09
3.61007512567e-09
4.31913904407e-09
8.20237990737e-09
5.77590866184e-09
4.43296999792e-09
5.23326273774e-09
3.96749788219e-09
2.84092280019e-08
1.38102209908e-08
8.37169057676e-10
2.00443636814e-08
1.31609698591e-08
8.14417189237e-09
6.13331541015e-09
1.72195278229e-08
1.60773231736e-08
1.73816977562e-08
1.01300973279e-09
3.46487335056e-09
8.2007503379e-10
8.09181980979e-09
6.89745914891e-09
7.15743223475e-11
2.11703873603e-09
4.92236478087e-09
2.1347209723e-09
6.7845362354e-09
1.09277148489e-08
2.00687923535e-08
6.21005437108e-09
1.77676638145e-09
2.70058609275e-09
1.40831013633e-08
1.94374084351e-09
2.3866571804e-09
1.52880563358e-09
7.57468551136e-09
3.62562707391e-09
5.9367588408e-09
7.61102600463e-09
4.8720065354e-09
1.15412245573e-09
2.63028013294e-08
1.58871222546e-09
1.80566429235e-08
2.47087714702e-08
7.46530711382e-09
3.86167164941e-09
5.41040395533e-09
3.71359539454e-09
1.11006516546e-08
1.53550561411e-09
1.06408010724e-08
8.45575763484e-09
4.09008718068e-09
8.23404465025e-09
8.35414906601e-10
9.704022068e-09
1.38645711497e-08
2.75590784178e-09
9.08455729761e-09
1.98521056245e-08
1.1016245918e-08
4.97645892963e-09
3.12105362353e-09
1.03418080804e-08
1.34751893561e-08
1.1732208293e-08
2.79703548345e-09
3.04924413832e-09
7.57740242658e-09
3.11277668131e-09
2.40717801434e-10
1.33581728482e-08
9.23025339198e-09
1.89504837732e-09
1.74246846839e-10
4.48828133399e-09
4.86020491725e-10
1.72986510583e-09
1.82302894575e-08
2.16194778925e-09
8.97376910668e-11
5.4668620011e-09
8.67304908616e-09
1.00088276607e-08
2.84011894026e-09
9.42731852104e-09
6.06008524257e-09
3.46597993577e-09
5.00449080482e-09
1.7962849862e-09
4.82113336562e-09
1.3328731051e-09
5.31811327921e-09
1.88799725071e-08
7.88034381906e-10
1.24908343696e-09
2.06124986855e-08
2.62346125034e-09
6.15937901401e-09
1.50961819947e-08
3.67654315211e-09
2.71259139477e-09
3.72725095902e-09
2.68861483661e-10
1.70065011204e-09
1.31404110636e-08
3.6375840852e-09
2.27713240336e-09
5.30495770506e-10
1.01856060236e-09
3.04003068049e-09
2.34727274232e-09
4.28550690865e-09
4.75001058568e-09
8.52049277849e-09
7.43397411296e-09
4.70847689563e-09
3.76216737343e-09
4.28393976365e-09
5.67735862288e-09
9.03571415767e-09
1.9979475382e-08
4.06749273696e-09
1.14860073364e-09
1.38429789089e-08
7.97535847212e-09
9.51414561788e-10
6.89259819492e-09
1.73095988263e-09
4.74393436092e-10
5.77176054653e-09
5.45324006009e-09
1.05141833732e-09
4.95674495312e-09
6.29841155497e-09
6.97331998518e-09
1.63352795488e-08
3.23200772695e-09
6.73548158256e-09
3.85502685896e-09
5.02227913804e-09
1.53521165264e-08
3.4353982675e-09
9.27471923836e-10
7.21871544182e-09
5.48064286439e-09
1.47686816657e-08
1.09315511374e-08
2.66000518986e-08
6.702699686e-09
3.31174219006e-09
2.66344692e-08
2.60006157494e-10
2.696621098e-09
2.40557215703e-09
1.70854126601e-08
7.67040212938e-09
7.07137908494e-09
8.05150144196e-09
9.04821034421e-09
1.83343816949e-08
3.21361611455e-10
4.96149557029e-09
2.34262905754e-09
4.915865361e-09
2.17138987681e-09
3.89899122311e-10
2.93782250588e-10
8.96182213312e-09
2.35964032485e-09
1.41651328268e-08
2.43683709362e-08
2.80198860736e-08
4.31066701128e-09
2.68026318231e-08
7.9344794524e-09
5.14883131784e-09
5.22132488104e-10
2.65089799732e-09
1.15257799427e-08
1.98386722051e-08
1.90830430142e-10
3.64657139486e-09
2.03896599908e-08
1.4019619711e-08
1.09425616112e-08
1.62468148318e-10
2.69938562013e-09
1.18675583831e-09
4.64614117893e-10
8.87884839141e-09
1.61199713419e-09
3.9186324891e-08
2.35045440751e-09
2.26997062687e-09
5.57266998329e-09
1.06142236944e-08
1.91682146474e-09
8.52947993486e-09
9.23238035245e-09
4.4794350135e-09
2.07738345186e-09
1.76926229692e-08
1.22003833758e-08
1.70671564097e-08
1.62051078549e-08
4.96768939708e-09
7.11376891567e-09
9.13194487294e-09
8.89504875576e-09
5.51186065595e-09
8.97934875587e-09
6.43659873287e-09
1.62778228244e-09
1.40057203436e-09
4.65206875018e-09
9.67762416567e-10
1.00881641151e-08
3.929833197e-11
6.35030603701e-09
1.52920355516e-08
1.61600705957e-09
5.01628692049e-10
5.57084997206e-09
9.26358048357e-09
1.09319000037e-08
7.63545473017e-11
2.86282799594e-09
2.50295063216e-09
5.95548733416e-10
2.78043841363e-09
1.49665421745e-08
7.27444435936e-09
1.80478324801e-09
9.67583765084e-10
6.26742313978e-09
1.22235076304e-08
1.24762482554e-08
5.02936490922e-09
1.08359881284e-08
3.55674497807e-09
1.2706205094e-08
1.05394207782e-09
1.25347254034e-09
6.38996163789e-10
2.4530284964e-09
6.03936004174e-09
1.18881165706e-09
1.54370891256e-08
3.7522677494e-09
8.23524434042e-10
3.05827669209e-09
9.48282866658e-09
4.64567182054e-09
4.63897657397e-09
7.99696479579e-09
3.50280471815e-09
3.1022658818e-09
9.62792767659e-09
3.65435914587e-09
5.50672566095e-09
1.91057807439e-08
6.82828871916e-09
6.76834543591e-09
2.02389472863e-08
8.04044504662e-09
2.04642857021e-09
8.04538446932e-09
1.60924086767e-09
8.70678231551e-09
4.69300580732e-10
5.38896225883e-10
1.82142007057e-09
9.76980032282e-09
1.99942281121e-09
9.52667378575e-10
1.8576919786e-09
1.84931613642e-09
1.29460809266e-09
6.75810611957e-09
1.43858434097e-08
3.3485123827e-08
1.48946829817e-08
1.44883358516e-09
9.21259816289e-09
6.44771274587e-09
2.24560886475e-08
8.20441113852e-09
7.56239119726e-09
7.43020796489e-09
5.79983110794e-09
1.30531740027e-08
7.93995231911e-10
7.995638712e-09
4.36193691527e-08
3.93843049575e-08
3.86093856817e-09
1.73718890996e-08
1.09446110447e-08
1.46564963951e-08
1.36086062601e-08
1.15712492041e-08
1.21673287371e-08
3.31557143665e-08
6.09251188751e-10
1.21653106756e-08
1.99345522346e-08
1.73874881429e-08
1.14353291736e-08
5.90176133847e-09
5.75119993265e-10
4.0066837097e-09
1.84325261165e-08
4.95998561551e-09
1.5247649157e-08
9.35153916759e-09
1.28578306655e-08
1.17755649423e-08
9.53620667174e-09
1.59679970628e-08
7.7443754783e-09
8.81270559631e-09
4.69519901677e-09
1.4330767867e-08
1.91439815089e-08
3.38607243514e-09
1.82888044289e-09
1.89557921296e-08
4.15535332657e-08
1.22182445614e-08
5.33469319917e-09
3.56581426394e-08
1.03797549733e-08
2.99396988307e-08
1.42583242836e-09
1.47489480183e-08
1.376212363e-08
4.08984799347e-09
1.58451992532e-09
4.63269471234e-09
1.33183602818e-08
3.15966566267e-08
1.98305486551e-08
1.36791169177e-08
2.01238730906e-08
2.3760177745e-08
6.7519894338e-09
2.80251980751e-08
2.70301601736e-08
2.29561119256e-08
3.52522136307e-09
2.44264317777e-09
1.6762050363e-08
9.23287422794e-09
3.55594076912e-08
8.38375588421e-09
2.4880822319e-08
1.05934895768e-08
8.98387190726e-09
1.65670886355e-08
4.81622831653e-09
4.52077082567e-09
1.23270552296e-08
5.67620814544e-09
1.92646384628e-09
5.57363266232e-09
1.01037086754e-08
2.64478095119e-09
2.51036263007e-09
1.926063421e-08
2.02591164416e-08
1.40513179181e-08
4.56749950083e-09
9.97358933041e-10
4.53309506204e-09
1.92585283217e-09
1.04895715298e-08
9.04741253883e-09
9.27749127905e-09
8.55929234131e-09
4.14967687769e-10
6.07709848776e-09
3.349318892e-09
9.31807175145e-09
3.8707164184e-09
2.96962055684e-09
7.83615238535e-09
1.35153030249e-09
1.58904730903e-08
1.13741026345e-08
7.50685897966e-09
6.23885669646e-09
2.36149836844e-09
1.63779617639e-09
4.89918483677e-10
5.2641414434e-09
7.41233178697e-09
2.18252115234e-08
4.86800400641e-09
1.65817676189e-10
2.53153892912e-10
9.71276944511e-09
2.41074010998e-09
4.95085889295e-09
5.86015767224e-09
3.06522289899e-08
5.53532421801e-09
2.34539106577e-09
3.04576838058e-09
4.37117182246e-09
6.55217933059e-09
3.72328702682e-09
9.14264995441e-09
1.18755822389e-08
3.83850451523e-09
7.71959339647e-09
1.36150464843e-09
5.63804637301e-09
1.21496830135e-08
2.97040825e-09
2.76884636771e-08
9.45455775764e-09
4.17915113424e-09
5.42717146077e-10
2.4977269364e-09
7.68526282963e-09
2.64172163638e-08
6.1792261201e-09
5.08230293518e-09
3.36271932962e-09
5.76472677599e-09
1.1214744233e-10
8.64055471003e-09
7.71037604194e-10
4.44504631675e-09
2.54063633159e-08
6.70467510775e-10
1.72424733891e-09
2.98496233682e-08
9.05141614709e-09
1.91706910262e-09
4.15208648413e-09
2.72783049129e-09
1.20618296321e-09
5.17343592908e-09
1.15794912525e-08
8.5809007094e-10
8.22703698377e-09
5.11681591063e-09
1.37628541154e-09
2.6849281823e-09
9.72814215915e-10
9.99380663847e-10
4.77465346139e-10
1.47210147662e-09
2.36934840328e-09
7.04751089419e-10
2.03320106088e-09
3.00299388768e-09
3.97793126574e-09
1.26231663579e-08
1.84445860871e-08

